/*--------------------------------*- C++ -*----------------------------------*\
  =========                 |
  \\      /  F ield         | OpenFOAM: The Open Source CFD Toolbox
   \\    /   O peration     | Website:  https://openfoam.org
    \\  /    A nd           | Version:  6
     \\/     M anipulation  |
\*---------------------------------------------------------------------------*/
FoamFile
{
    version     2.0;
    format      ascii;
    class       volVectorField;
    location    "0.2";
    object      wallShearStress;
}
// * * * * * * * * * * * * * * * * * * * * * * * * * * * * * * * * * * * * * //

dimensions      [0 2 -2 0 0 0 0];

internalField   uniform (0 0 0);

boundaryField
{
    inlet
    {
        type            calculated;
        value           uniform (0 0 0);
    }
    outlet
    {
        type            calculated;
        value           uniform (0 0 0);
    }
    roughCylinder
    {
        type            calculated;
        value           nonuniform List<vector> 
5120
(
(-0.000273092 -0.000374182 -0.000189368)
(-0.000351039 -0.000482826 -1.65062e-05)
(-0.000397355 -0.000549059 3.27028e-05)
(-0.000446499 -0.000590046 7.48653e-05)
(-0.000490966 -0.000608467 0.000106717)
(-0.000529096 -0.000611664 0.000127073)
(-0.00056363 -0.000609584 0.000139566)
(-0.000596714 -0.000609842 0.000149444)
(-0.000626905 -0.000612486 0.000157968)
(-0.000655364 -0.000618769 0.000165246)
(-0.000682226 -0.000628257 0.000171433)
(-0.000707562 -0.000640414 0.000176461)
(-0.000731658 -0.00065476 0.00018031)
(-0.000754981 -0.000670906 0.000183001)
(-0.000778023 -0.000688531 0.00018455)
(-0.000801237 -0.000707386 0.000184938)
(-0.000824946 -0.000727302 0.000184103)
(-0.000849383 -0.000748242 0.000181977)
(-0.000874674 -0.000770208 0.000178496)
(-0.000900907 -0.000793252 0.000173627)
(-0.000928174 -0.000817425 0.000167359)
(-0.000956522 -0.000842767 0.000159696)
(-0.000985974 -0.000869309 0.000150692)
(-0.00101657 -0.000897052 0.000140433)
(-0.00104827 -0.000925954 0.00012909)
(-0.00108097 -0.000955889 0.000116823)
(-0.00111445 -0.0009866 0.000104017)
(-0.00114828 -0.00101759 9.0759e-05)
(-0.00118172 -0.00104789 7.7478e-05)
(-0.0012129 -0.00107564 6.29255e-05)
(-0.00124023 -0.0010981 4.67606e-05)
(-0.00125991 -0.00111147 1.9502e-05)
(-0.00029927 -0.000373875 -0.000191915)
(-0.000381203 -0.000482227 -2.16429e-05)
(-0.000429692 -0.000549069 2.69653e-05)
(-0.000480272 -0.000590516 6.90174e-05)
(-0.000526138 -0.000609748 0.000100883)
(-0.000566412 -0.00061501 0.000121241)
(-0.000603307 -0.000615629 0.000134255)
(-0.000638168 -0.000617215 0.00014484)
(-0.000669607 -0.000619395 0.000153654)
(-0.000698835 -0.000624961 0.000160804)
(-0.000726633 -0.000633898 0.000166764)
(-0.000752986 -0.000645652 0.000171557)
(-0.000778137 -0.000659689 0.000175154)
(-0.000802521 -0.000675602 0.000177588)
(-0.000826656 -0.000693062 0.0001789)
(-0.000851003 -0.000711805 0.000179091)
(-0.000875914 -0.000731645 0.000178118)
(-0.00090164 -0.000752501 0.000175905)
(-0.000928282 -0.000774369 0.00017238)
(-0.000955936 -0.000797295 0.00016751)
(-0.000984683 -0.000821334 0.000161282)
(-0.00101458 -0.000846543 0.00015371)
(-0.00104565 -0.000872954 0.000144849)
(-0.00107795 -0.000900591 0.000134792)
(-0.00111142 -0.000929401 0.000123716)
(-0.00114598 -0.000959285 0.00011179)
(-0.0011814 -0.000989979 9.94127e-05)
(-0.00121718 -0.00102095 8.66787e-05)
(-0.00125252 -0.00105125 7.40499e-05)
(-0.00128541 -0.00107897 6.02799e-05)
(-0.00131406 -0.00110131 4.50679e-05)
(-0.00133446 -0.00111449 1.8919e-05)
(-0.000326753 -0.000368869 -0.000187904)
(-0.00041261 -0.000476755 -2.73623e-05)
(-0.000463208 -0.000544174 2.05814e-05)
(-0.000515221 -0.000586331 6.24979e-05)
(-0.0005627 -0.000606957 9.45778e-05)
(-0.00060519 -0.000614545 0.000115362)
(-0.000644237 -0.000617377 0.000129097)
(-0.000680587 -0.000619882 0.000140181)
(-0.000713347 -0.000622 0.000149166)
(-0.000743267 -0.000626835 0.000156086)
(-0.00077194 -0.000635219 0.000161684)
(-0.000799273 -0.000646531 0.000166156)
(-0.000825445 -0.000660174 0.000169456)
(-0.000850845 -0.000675699 0.000171605)
(-0.00087599 -0.00069279 0.000172651)
(-0.000901358 -0.000711193 0.00017262)
(-0.000927349 -0.000730718 0.000171487)
(-0.000954217 -0.00075126 0.00016918)
(-0.000982081 -0.000772787 0.000165623)
(-0.00101104 -0.000795348 0.000160771)
(-0.00104117 -0.000819004 0.00015461)
(-0.00107248 -0.000843801 0.000147154)
(-0.00110506 -0.000869794 0.000138466)
(-0.00113892 -0.000897014 0.000128641)
(-0.00117405 -0.000925427 0.00011787)
(-0.00121034 -0.000954927 0.000106322)
(-0.00124756 -0.000985274 9.44143e-05)
(-0.00128521 -0.00101596 8.22543e-05)
(-0.00132233 -0.00104595 7.03292e-05)
(-0.00135678 -0.00107335 5.73979e-05)
(-0.00138653 -0.00109528 4.32015e-05)
(-0.0014075 -0.00110811 1.82647e-05)
(-0.000353769 -0.000359511 -0.000178626)
(-0.000443734 -0.000466843 -3.33914e-05)
(-0.000496632 -0.000534984 1.36476e-05)
(-0.000550292 -0.000578326 5.53331e-05)
(-0.000599584 -0.00060089 8.77738e-05)
(-0.00064417 -0.000610868 0.000109249)
(-0.000685057 -0.000615534 0.000123804)
(-0.000722749 -0.000618779 0.000135318)
(-0.000756915 -0.000621102 0.000144477)
(-0.000787587 -0.000625246 0.000151173)
(-0.000817181 -0.000633137 0.000156361)
(-0.000845572 -0.000644069 0.000160488)
(-0.000872846 -0.000657367 0.000163487)
(-0.000899325 -0.000672514 0.000165362)
(-0.000925499 -0.000689188 0.000166154)
(-0.000951866 -0.000707151 0.000165902)
(-0.000978874 -0.000726251 0.000164604)
(-0.00100682 -0.000746369 0.000162206)
(-0.00103584 -0.000767464 0.000158628)
(-0.00106605 -0.00078957 0.000153815)
(-0.0010975 -0.000812739 0.000147747)
(-0.00113023 -0.000837021 0.000140436)
(-0.00116426 -0.000862474 0.00013194)
(-0.00119967 -0.00088915 0.000122369)
(-0.00123639 -0.000917007 0.000111913)
(-0.00127441 -0.000946 0.000100759)
(-0.00131338 -0.000975847 8.93331e-05)
(-0.00135281 -0.00100606 7.77581e-05)
(-0.00139165 -0.00103557 6.65511e-05)
(-0.00142759 -0.00106249 5.44756e-05)
(-0.00145834 -0.00108388 4.13119e-05)
(-0.00147971 -0.00109622 1.76021e-05)
(-0.000379981 -0.000346166 -0.00016579)
(-0.000474309 -0.000452813 -3.9535e-05)
(-0.000529747 -0.000521827 6.25477e-06)
(-0.000585249 -0.000566753 4.75854e-05)
(-0.000636387 -0.000591491 8.0511e-05)
(-0.00068282 -0.00060366 0.000102843)
(-0.00072523 -0.000609775 0.000118233)
(-0.000764076 -0.00061355 0.000130108)
(-0.000799586 -0.000616185 0.000139418)
(-0.000831077 -0.000619591 0.000145915)
(-0.000861606 -0.000626998 0.000150699)
(-0.000891125 -0.000637563 0.000154488)
(-0.000919598 -0.000650538 0.000157208)
(-0.000947258 -0.000665336 0.000158844)
(-0.000974536 -0.000681579 0.000159421)
(-0.00100192 -0.000699033 0.000158973)
(-0.00102988 -0.000717578 0.000157514)
(-0.0010588 -0.000737149 0.000155022)
(-0.00108888 -0.000757693 0.000151431)
(-0.00112025 -0.000779224 0.000146675)
(-0.00115294 -0.000801783 0.000140722)
(-0.001187 -0.000825433 0.000133579)
(-0.00122244 -0.000850225 0.000125301)
(-0.00125932 -0.000876219 0.000116005)
(-0.00129763 -0.000903397 0.000105884)
(-0.00133726 -0.0009317 9.51358e-05)
(-0.00137795 -0.000960885 8.42045e-05)
(-0.00141908 -0.000990435 7.32247e-05)
(-0.00145954 -0.00101929 6.27473e-05)
(-0.00149678 -0.00104551 5.15362e-05)
(-0.0015284 -0.00106619 3.94158e-05)
(-0.00155004 -0.00107794 1.69388e-05)
(-0.000405325 -0.000329561 -0.0001506)
(-0.000504283 -0.000435359 -4.57014e-05)
(-0.000562488 -0.000505342 -1.51095e-06)
(-0.000619932 -0.000552096 3.93535e-05)
(-0.000672832 -0.000579029 7.2864e-05)
(-0.00072082 -0.000593061 9.61526e-05)
(-0.00076447 -0.000600246 0.000112352)
(-0.000804316 -0.000604318 0.000124546)
(-0.000840904 -0.000607078 0.000133901)
(-0.000873422 -0.000609877 0.000140225)
(-0.000904839 -0.000616698 0.000144645)
(-0.000935516 -0.000626837 0.000148099)
(-0.000965295 -0.000639489 0.000150568)
(-0.000994268 -0.00065395 0.000152009)
(-0.00102277 -0.000669767 0.000152419)
(-0.00105125 -0.000686689 0.000151818)
(-0.00108017 -0.0007046 0.000150226)
(-0.00110998 -0.000723481 0.000147645)
(-0.00114099 -0.000743323 0.000144037)
(-0.00117337 -0.000764141 0.000139341)
(-0.0012072 -0.000785965 0.000133521)
(-0.00124248 -0.000808841 0.000126567)
(-0.00127924 -0.000832832 0.000118534)
(-0.00131753 -0.000858008 0.000109536)
(-0.00135732 -0.000884345 9.97681e-05)
(-0.00139853 -0.000911819 8.94459e-05)
(-0.00144081 -0.000940144 7.90211e-05)
(-0.00148358 -0.000968865 6.86518e-05)
(-0.00152552 -0.000996859 5.89159e-05)
(-0.00156401 -0.00102223 4.85827e-05)
(-0.00159629 -0.00104201 3.75155e-05)
(-0.00161806 -0.00105306 1.62768e-05)
(-0.000429619 -0.000310344 -0.000133928)
(-0.000533467 -0.000415075 -5.18223e-05)
(-0.000594613 -0.000485996 -9.5357e-06)
(-0.000654029 -0.000534662 3.07465e-05)
(-0.000708523 -0.000563681 6.48786e-05)
(-0.000757797 -0.000579277 8.91627e-05)
(-0.000802485 -0.000587257 0.000106138)
(-0.000843111 -0.000591387 0.000118604)
(-0.000880568 -0.000594022 0.000127913)
(-0.000914181 -0.00059633 0.000134087)
(-0.000946401 -0.000602414 0.000138184)
(-0.000978203 -0.00061201 0.0001413)
(-0.00100932 -0.000624253 0.000143534)
(-0.00103974 -0.000638363 0.000144818)
(-0.00106966 -0.000653782 0.000145117)
(-0.00109939 -0.000670181 0.000144422)
(-0.00112936 -0.000687427 0.00014274)
(-0.00116005 -0.000705532 0.000140089)
(-0.00119187 -0.000724539 0.000136461)
(-0.00122511 -0.000744496 0.000131825)
(-0.00125989 -0.000765437 0.000126142)
(-0.00129626 -0.000787397 0.000119395)
(-0.00133421 -0.00081044 0.000111625)
(-0.00137381 -0.000834652 0.000102946)
(-0.00141499 -0.000860009 9.35554e-05)
(-0.00145767 -0.000886484 8.36786e-05)
(-0.00150149 -0.000913817 7.378e-05)
(-0.00154577 -0.000941518 6.40367e-05)
(-0.00158913 -0.000968496 5.50582e-05)
(-0.00162865 -0.000992813 4.56124e-05)
(-0.00166154 -0.0010116 3.56142e-05)
(-0.00168323 -0.00102181 1.56165e-05)
(-0.000452704 -0.000289 -0.000116518)
(-0.000561643 -0.000392375 -5.78233e-05)
(-0.000625845 -0.000464064 -1.76661e-05)
(-0.000687205 -0.000514584 2.18979e-05)
(-0.000743105 -0.000545513 5.66249e-05)
(-0.000793401 -0.000562406 8.18785e-05)
(-0.000838881 -0.000570934 9.95615e-05)
(-0.000880088 -0.000574969 0.000112257)
(-0.000918233 -0.000577312 0.000121452)
(-0.00095294 -0.00057917 0.000127503)
(-0.000985775 -0.000584321 0.000131317)
(-0.00101859 -0.000593204 0.000134083)
(-0.00105106 -0.000604925 0.000136094)
(-0.001083 -0.000618602 0.000137251)
(-0.00111447 -0.000633593 0.000137488)
(-0.00114567 -0.000649493 0.000136762)
(-0.00117688 -0.0006661 0.000135051)
(-0.00120856 -0.000683417 0.000132369)
(-0.00124116 -0.000701516 0.000128736)
(-0.00127511 -0.000720489 0.000124157)
(-0.00131067 -0.000740399 0.000118608)
(-0.00134793 -0.000761309 0.000112071)
(-0.00138691 -0.000783262 0.000104582)
(-0.00142766 -0.000806352 9.62423e-05)
(-0.00147011 -0.000830578 8.72489e-05)
(-0.00151414 -0.000855905 7.78373e-05)
(-0.00155939 -0.000882082 6.84822e-05)
(-0.00160511 -0.000908644 5.93844e-05)
(-0.00164974 -0.000934429 5.11763e-05)
(-0.00169024 -0.000957581 4.26314e-05)
(-0.00172349 -0.000975209 3.37137e-05)
(-0.00174504 -0.00098453 1.49612e-05)
(-0.000474453 -0.000265949 -9.90306e-05)
(-0.000588615 -0.000367603 -6.36099e-05)
(-0.00065592 -0.000439779 -2.57374e-05)
(-0.000719169 -0.000491969 1.29647e-05)
(-0.000776292 -0.000524602 4.81905e-05)
(-0.000827372 -0.000542565 7.43303e-05)
(-0.0008734 -0.000551466 9.26403e-05)
(-0.000915075 -0.00055535 0.00010553)
(-0.000953677 -0.000557263 0.000114543)
(-0.000989393 -0.000558791 0.000120489)
(-0.00102268 -0.000562725 0.000124054)
(-0.0010563 -0.000570692 0.000126463)
(-0.00108996 -0.000581673 0.000128253)
(-0.00112345 -0.000594777 0.000129305)
(-0.00115661 -0.000609271 0.000129524)
(-0.00118947 -0.000624651 0.000128826)
(-0.00122215 -0.000640639 0.000127153)
(-0.00125501 -0.000657187 0.000124496)
(-0.0012885 -0.000674371 0.000120889)
(-0.00132312 -0.0006923 0.00011637)
(-0.00135929 -0.000711082 0.000110951)
(-0.00139724 -0.000730812 0.000104625)
(-0.00143705 -0.000751547 9.7423e-05)
(-0.00147875 -0.000773373 8.9436e-05)
(-0.00152231 -0.000796322 8.08588e-05)
(-0.00156757 -0.000820364 7.19319e-05)
(-0.00161412 -0.00084524 6.31378e-05)
(-0.00166117 -0.000870525 5.47016e-05)
(-0.00170697 -0.000894999 4.7278e-05)
(-0.0017483 -0.000916859 3.9645e-05)
(-0.00178184 -0.00093325 3.18208e-05)
(-0.00180299 -0.000941542 1.43112e-05)
(-0.000494728 -0.000241558 -8.2013e-05)
(-0.000614152 -0.000341057 -6.90864e-05)
(-0.000684551 -0.000413348 -3.35953e-05)
(-0.000749621 -0.000466935 4.08547e-06)
(-0.000807819 -0.000501047 3.96552e-05)
(-0.000859487 -0.000519904 6.65539e-05)
(-0.000905838 -0.000529054 8.53903e-05)
(-0.000947822 -0.000532757 9.84267e-05)
(-0.000986742 -0.00053419 0.000107263)
(-0.00102307 -0.000535289 0.00011302)
(-0.00105689 -0.000538 0.000116359)
(-0.00109107 -0.000544834 0.000118467)
(-0.00112578 -0.000554845 0.000120037)
(-0.00116067 -0.000567153 0.000120995)
(-0.00119551 -0.000580976 0.000121222)
(-0.00123017 -0.000595753 0.000120601)
(-0.00126459 -0.000611118 0.000119034)
(-0.00129892 -0.000626932 0.00011647)
(-0.00133351 -0.000643236 0.000112934)
(-0.00136887 -0.000660129 0.000108496)
(-0.00140558 -0.000677738 0.000103207)
(-0.00144405 -0.000696197 9.70857e-05)
(-0.00148447 -0.000715606 9.0171e-05)
(-0.00152693 -0.000736056 8.2546e-05)
(-0.0015714 -0.000757596 7.43985e-05)
(-0.00161773 -0.000780224 6.59717e-05)
(-0.00166543 -0.000803679 5.77566e-05)
(-0.00171365 -0.000827542 4.99957e-05)
(-0.00176053 -0.000850605 4.33685e-05)
(-0.00180253 -0.000871059 3.66564e-05)
(-0.00183618 -0.000886132 2.99359e-05)
(-0.00185687 -0.000893376 1.36683e-05)
(-0.000513346 -0.000216119 -6.58692e-05)
(-0.000637971 -0.000312974 -7.41844e-05)
(-0.000711393 -0.000384949 -4.11208e-05)
(-0.000778226 -0.000439597 -4.62802e-06)
(-0.00083739 -0.000474956 3.10759e-05)
(-0.000889496 -0.000494576 5.85667e-05)
(-0.000936031 -0.000503933 7.78273e-05)
(-0.000978294 -0.000507512 9.09665e-05)
(-0.00101728 -0.000508402 9.96152e-05)
(-0.00105389 -0.000508917 0.000105102)
(-0.00108835 -0.000510587 0.000108268)
(-0.00112277 -0.000516057 0.000110131)
(-0.00115822 -0.00052485 0.000111464)
(-0.00119434 -0.000536109 0.000112335)
(-0.0012308 -0.000549048 0.000112592)
(-0.00126729 -0.000563049 0.000112086)
(-0.00130359 -0.000577685 0.000110677)
(-0.00133967 -0.000592749 0.000108275)
(-0.00137566 -0.000608205 0.000104871)
(-0.001412 -0.000624116 0.000100548)
(-0.00144933 -0.000640577 9.53993e-05)
(-0.00148823 -0.000657749 8.94793e-05)
(-0.00152907 -0.000675767 8.28466e-05)
(-0.00157206 -0.000694753 7.55838e-05)
(-0.00161722 -0.000714784 6.78769e-05)
(-0.00166438 -0.000735869 5.99632e-05)
(-0.00171307 -0.000757788 5.23414e-05)
(-0.00176229 -0.000780114 4.52692e-05)
(-0.00181005 -0.000801659 3.94486e-05)
(-0.0018526 -0.000820663 3.36678e-05)
(-0.00188619 -0.000834335 2.80587e-05)
(-0.00190623 -0.000840455 1.30302e-05)
(-0.000530061 -0.000189833 -5.08386e-05)
(-0.000659742 -0.000283532 -7.88574e-05)
(-0.000736068 -0.000354725 -4.82368e-05)
(-0.000804603 -0.000410057 -1.31079e-05)
(-0.000864654 -0.000446426 2.24966e-05)
(-0.00091709 -0.0004667 5.03892e-05)
(-0.00096368 -0.000476248 6.9946e-05)
(-0.00100601 -0.000479702 8.312e-05)
(-0.00104494 -0.000480123 9.1585e-05)
(-0.00108173 -0.00048007 9.67684e-05)
(-0.00111678 -0.000480946 9.97763e-05)
(-0.0011513 -0.000484741 0.000101467)
(-0.00118716 -0.000492135 0.000102582)
(-0.00122419 -0.000502101 0.000103349)
(-0.00126203 -0.000513886 0.000103635)
(-0.00130028 -0.000526882 0.000103266)
(-0.00133855 -0.000540628 0.000102065)
(-0.00137658 -0.000554841 9.98885e-05)
(-0.00141428 -0.000569422 9.6684e-05)
(-0.00145191 -0.000584372 9.25235e-05)
(-0.00149005 -0.000599747 8.75359e-05)
(-0.00152943 -0.000615668 8.18211e-05)
(-0.00157058 -0.000632285 7.54653e-05)
(-0.00161389 -0.000649762 6.85621e-05)
(-0.00165951 -0.00066822 6.13003e-05)
(-0.00170731 -0.000687707 5.39102e-05)
(-0.00175674 -0.000707998 4.6895e-05)
(-0.00180672 -0.000728681 4.05218e-05)
(-0.00185512 -0.000748602 3.55161e-05)
(-0.00189799 -0.000766073 3.06735e-05)
(-0.00193137 -0.000778332 2.61841e-05)
(-0.00195067 -0.000783311 1.23953e-05)
(-0.000544624 -0.000162866 -3.70384e-05)
(-0.000679152 -0.000252839 -8.309e-05)
(-0.000758207 -0.000322818 -5.48983e-05)
(-0.000828376 -0.000378429 -2.13024e-05)
(-0.000889261 -0.000415565 1.39498e-05)
(-0.000941924 -0.000436393 4.2034e-05)
(-0.000988437 -0.000446133 6.17595e-05)
(-0.00103064 -0.000449494 7.4897e-05)
(-0.00106953 -0.000449627 8.31868e-05)
(-0.00110617 -0.000448979 8.80795e-05)
(-0.00114156 -0.00044922 9.08393e-05)
(-0.00117657 -0.000451639 9.24175e-05)
(-0.00121246 -0.000457165 9.34091e-05)
(-0.00125002 -0.000465549 9.40804e-05)
(-0.00128891 -0.000475939 9.43889e-05)
(-0.00132866 -0.000487682 9.41575e-05)
(-0.00136877 -0.000500303 9.31827e-05)
(-0.00140883 -0.0005135 9.12809e-05)
(-0.0014485 -0.000527108 8.83455e-05)
(-0.00148777 -0.000541078 8.44089e-05)
(-0.00152707 -0.000555409 7.96179e-05)
(-0.00156712 -0.000570152 7.41196e-05)
(-0.00160861 -0.00058543 6.80406e-05)
(-0.00165208 -0.000601398 6.14903e-05)
(-0.00169787 -0.000618237 5.46701e-05)
(-0.00174599 -0.000636039 4.78082e-05)
(-0.0017959 -0.000654611 4.14087e-05)
(-0.00184637 -0.000673538 3.57446e-05)
(-0.00189511 -0.000691723 3.15649e-05)
(-0.00193803 -0.000707664 2.76686e-05)
(-0.001971 -0.000718475 2.43036e-05)
(-0.00198943 -0.000722268 1.17577e-05)
(-0.000556601 -0.000135479 -2.45697e-05)
(-0.000696058 -0.000220969 -8.69333e-05)
(-0.000777467 -0.000289426 -6.11085e-05)
(-0.000849183 -0.000344858 -2.91908e-05)
(-0.000910841 -0.000382501 5.46619e-06)
(-0.000963642 -0.000403782 3.35316e-05)
(-0.00100993 -0.000413713 5.32873e-05)
(-0.0010518 -0.000417037 6.6317e-05)
(-0.00109048 -0.000417 7.44151e-05)
(-0.00112683 -0.000415905 7.90612e-05)
(-0.00116218 -0.000415525 8.15618e-05)
(-0.00119759 -0.000416994 8.296e-05)
(-0.00123394 -0.000420906 8.38851e-05)
(-0.00127173 -0.000427308 8.45308e-05)
(-0.00131123 -0.000435824 8.48753e-05)
(-0.0013521 -0.000445923 8.47848e-05)
(-0.00139379 -0.000457136 8.40492e-05)
(-0.00143573 -0.000469076 8.24521e-05)
(-0.00147742 -0.000481539 7.98377e-05)
(-0.00151857 -0.000494432 7.61861e-05)
(-0.00155933 -0.000507703 7.16349e-05)
(-0.00160034 -0.000521326 6.63738e-05)
(-0.00164233 -0.000535336 6.05737e-05)
(-0.00168594 -0.000549847 5.43737e-05)
(-0.00173174 -0.000565081 4.79959e-05)
(-0.00177991 -0.000581288 4.16659e-05)
(-0.00183001 -0.000598216 3.58884e-05)
(-0.00188071 -0.000615474 3.09437e-05)
(-0.00192944 -0.000631982 2.76007e-05)
(-0.0019719 -0.00064632 2.46514e-05)
(-0.0020043 -0.000655715 2.2409e-05)
(-0.00202188 -0.000658211 1.1112e-05)
(-0.000564456 -0.000107483 -1.33777e-05)
(-0.000710787 -0.000188261 -9.03041e-05)
(-0.000793659 -0.000254716 -6.6873e-05)
(-0.000866741 -0.000309496 -3.67439e-05)
(-0.000929084 -0.000347379 -2.91869e-06)
(-0.000981921 -0.000369004 2.49157e-05)
(-0.00102782 -0.000379125 4.45649e-05)
(-0.00106915 -0.000382464 5.7417e-05)
(-0.00110732 -0.000382329 6.52883e-05)
(-0.00114334 -0.000381013 6.97236e-05)
(-0.00117825 -0.0003801 7.20136e-05)
(-0.00121349 -0.000380735 7.32236e-05)
(-0.00125004 -0.000383414 7.40193e-05)
(-0.00128832 -0.00038812 7.46404e-05)
(-0.00132848 -0.000394713 7.50695e-05)
(-0.00137023 -0.000402827 7.51541e-05)
(-0.00141314 -0.000412152 7.46739e-05)
(-0.00145672 -0.000422411 7.34044e-05)
(-0.00150034 -0.000433383 7.11587e-05)
(-0.00154345 -0.00044495 6.7857e-05)
(-0.00158594 -0.000457034 6.3601e-05)
(-0.00162821 -0.000469564 5.8606e-05)
(-0.00167095 -0.000482469 5.30956e-05)
(-0.00171484 -0.000495748 4.72471e-05)
(-0.00176051 -0.000509585 4.13077e-05)
(-0.00180813 -0.000524129 3.54963e-05)
(-0.00185775 -0.000539313 3.03341e-05)
(-0.001908 -0.000554808 2.61074e-05)
(-0.00195609 -0.000569509 2.35977e-05)
(-0.00199762 -0.000582072 2.15979e-05)
(-0.00202912 -0.000590052 2.04779e-05)
(-0.00204615 -0.000591477 1.04479e-05)
(-0.000568302 -7.89359e-05 -3.12277e-06)
(-0.000722921 -0.000154949 -9.32479e-05)
(-0.00080664 -0.000218806 -7.21442e-05)
(-0.000880814 -0.000272532 -4.39214e-05)
(-0.00094373 -0.000310384 -1.11578e-05)
(-0.000996478 -0.000332236 1.62366e-05)
(-0.00104181 -0.000342534 3.56402e-05)
(-0.00108235 -0.000345934 4.82385e-05)
(-0.00111971 -0.000345763 5.58502e-05)
(-0.00115503 -0.000344309 6.00663e-05)
(-0.00118945 -0.000343081 6.2197e-05)
(-0.00122413 -0.000343017 6.32666e-05)
(-0.00126024 -0.000344592 6.39432e-05)
(-0.00129847 -0.000347866 6.45138e-05)
(-0.00133893 -0.000352727 6.49871e-05)
(-0.00138142 -0.000358932 6.52243e-05)
(-0.00142544 -0.000366261 6.50093e-05)
(-0.00147052 -0.000374589 6.41005e-05)
(-0.00151598 -0.000383776 6.22762e-05)
(-0.0015611 -0.000393731 5.93968e-05)
(-0.00160547 -0.000404385 5.55085e-05)
(-0.00164916 -0.000415642 5.08262e-05)
(-0.00169273 -0.000427361 4.5619e-05)
(-0.00173682 -0.000439419 4.01157e-05)
(-0.00178209 -0.000451858 3.45883e-05)
(-0.001829 -0.000464676 2.92778e-05)
(-0.00187771 -0.000477971 2.47269e-05)
(-0.00192705 -0.00049151 2.12162e-05)
(-0.00197419 -0.000504241 1.95413e-05)
(-0.00201454 -0.000514941 1.85039e-05)
(-0.00204482 -0.000521487 1.85165e-05)
(-0.00206113 -0.000522077 9.76884e-06)
(-0.000568276 -5.02095e-05 6.40388e-06)
(-0.000732032 -0.000121129 -9.58324e-05)
(-0.000816332 -0.000181934 -7.68829e-05)
(-0.000891222 -0.000234219 -5.0674e-05)
(-0.000954568 -0.000271751 -1.91929e-05)
(-0.00100709 -0.000293698 7.55473e-06)
(-0.00105167 -0.00030415 2.65746e-05)
(-0.00109116 -0.000307638 3.88353e-05)
(-0.00112739 -0.000307489 4.61475e-05)
(-0.00116165 -0.000305953 5.01331e-05)
(-0.00119514 -0.000304479 5.21054e-05)
(-0.00122907 -0.000303901 5.30757e-05)
(-0.00126451 -0.000304578 5.36859e-05)
(-0.00130211 -0.000306553 5.42255e-05)
(-0.00134223 -0.000309785 5.47331e-05)
(-0.00138479 -0.000314163 5.50961e-05)
(-0.00142941 -0.000319559 5.5118e-05)
(-0.00147556 -0.000325917 5.45565e-05)
(-0.00152252 -0.000333181 5.31687e-05)
(-0.00156947 -0.000341303 5.07586e-05)
(-0.00161572 -0.00035026 4.73025e-05)
(-0.00166104 -0.000359975 4.29895e-05)
(-0.00170574 -0.00037028 3.81182e-05)
(-0.00175029 -0.000380958 3.29652e-05)
(-0.00179536 -0.000391885 2.7842e-05)
(-0.00184156 -0.000402981 2.30267e-05)
(-0.00188913 -0.00041433 1.90829e-05)
(-0.00193718 -0.000425791 1.62834e-05)
(-0.00198304 -0.000436475 1.54446e-05)
(-0.00202197 -0.000445304 1.53784e-05)
(-0.0020508 -0.000450436 1.65271e-05)
(-0.00206626 -0.000450324 9.0744e-06)
(-0.000564593 -2.16777e-05 1.5292e-05)
(-0.000737848 -8.69707e-05 -9.81307e-05)
(-0.00082262 -0.00014442 -8.10893e-05)
(-0.00089783 -0.000194874 -5.69547e-05)
(-0.000961426 -0.000231798 -2.69722e-05)
(-0.00101358 -0.00025369 -1.0617e-06)
(-0.00105721 -0.000264254 1.74327e-05)
(-0.0010954 -0.000267855 2.9276e-05)
(-0.0011302 -0.000267763 3.62478e-05)
(-0.00116303 -0.000266192 3.99831e-05)
(-0.00119519 -0.00026452 4.17962e-05)
(-0.00122791 -0.000263494 4.26751e-05)
(-0.00126229 -0.000263407 4.32449e-05)
(-0.00129903 -0.000264282 4.37914e-05)
(-0.00133845 -0.000266074 4.43603e-05)
(-0.00138051 -0.000268725 4.48531e-05)
(-0.00142499 -0.000272212 4.50931e-05)
(-0.00147146 -0.00027656 4.4853e-05)
(-0.0015193 -0.000281791 4.38873e-05)
(-0.00156763 -0.000287914 4.19655e-05)
(-0.00161558 -0.000294952 3.89909e-05)
(-0.00166257 -0.000302876 3.51017e-05)
(-0.00170859 -0.000311524 3.06063e-05)
(-0.00175392 -0.000320641 2.58211e-05)
(-0.00179915 -0.000329981 2.11089e-05)
(-0.00184486 -0.000339372 1.67866e-05)
(-0.00189129 -0.000348793 1.34406e-05)
(-0.00193776 -0.000358134 1.13459e-05)
(-0.00198198 -0.000366743 1.13365e-05)
(-0.00201928 -0.000373747 1.22367e-05)
(-0.00204653 -0.000377541 1.4512e-05)
(-0.00206108 -0.00037684 8.36218e-06)
(-0.000557439 6.29247e-06 2.35194e-05)
(-0.000740174 -5.27512e-05 -0.000100226)
(-0.000825402 -0.000106651 -8.47754e-05)
(-0.000900564 -0.000154875 -6.26953e-05)
(-0.000964166 -0.0001909 -3.44447e-05)
(-0.00101581 -0.000212577 -9.55079e-06)
(-0.00105833 -0.000223211 8.29188e-06)
(-0.00109498 -0.000226927 1.96422e-05)
(-0.00112805 -0.000226927 2.62299e-05)
(-0.00115912 -0.00022536 2.96962e-05)
(-0.00118957 -0.000223536 3.1346e-05)
(-0.00122069 -0.000222131 3.21436e-05)
(-0.00125359 -0.000221374 3.26888e-05)
(-0.00128897 -0.00022127 3.32614e-05)
(-0.00132723 -0.000221771 3.39097e-05)
(-0.00136837 -0.000222859 3.45447e-05)
(-0.00141221 -0.000224555 3.50023e-05)
(-0.00145839 -0.000226941 3.50686e-05)
(-0.00150637 -0.000230104 3.45082e-05)
(-0.0015554 -0.000234114 3.3077e-05)
(-0.00160455 -0.000239056 3.06189e-05)
(-0.00165299 -0.000244958 2.72057e-05)
(-0.00170039 -0.000251706 2.31327e-05)
(-0.00174673 -0.00025905 1.87438e-05)
(-0.00179238 -0.000266674 1.44493e-05)
(-0.00183789 -0.000274349 1.06117e-05)
(-0.0018834 -0.000281911 7.84834e-06)
(-0.00192827 -0.000289213 6.4461e-06)
(-0.00197061 -0.000295791 7.25137e-06)
(-0.00200601 -0.000301032 9.10076e-06)
(-0.00203161 -0.000303599 1.24783e-05)
(-0.00204521 -0.000302424 7.63195e-06)
(-0.000546979 3.33368e-05 3.10001e-05)
(-0.000738842 -1.88726e-05 -0.000102173)
(-0.000824596 -6.9025e-05 -8.80165e-05)
(-0.00089939 -0.000114706 -6.78645e-05)
(-0.00096272 -0.000149488 -4.15404e-05)
(-0.00101368 -0.000170797 -1.78504e-05)
(-0.00105493 -0.000181432 -7.63463e-07)
(-0.00108986 -0.000185267 1.00225e-05)
(-0.00112095 -0.000185389 1.61869e-05)
(-0.00114996 -0.000183871 1.93649e-05)
(-0.00117838 -0.000181949 2.08463e-05)
(-0.00120753 -0.000180231 2.15684e-05)
(-0.00123854 -0.000178899 2.21061e-05)
(-0.00127218 -0.000177943 2.27246e-05)
(-0.00130881 -0.000177304 2.34687e-05)
(-0.0013485 -0.000176983 2.42529e-05)
(-0.00139109 -0.000177028 2.49234e-05)
(-0.00143632 -0.000177555 2.52815e-05)
(-0.00148376 -0.000178698 2.51082e-05)
(-0.00153278 -0.00018057 2.41609e-05)
(-0.0015825 -0.000183311 2.22408e-05)
(-0.00163195 -0.000187015 1.93494e-05)
(-0.00168051 -0.000191648 1.57481e-05)
(-0.00172788 -0.000197 1.17913e-05)
(-0.00177417 -0.000202754 7.92638e-06)
(-0.00181979 -0.000208655 4.56307e-06)
(-0.00186474 -0.00021443 2.36077e-06)
(-0.00190827 -0.000219839 1.62871e-06)
(-0.00194872 -0.000224531 3.22397e-06)
(-0.00198209 -0.000228125 5.99595e-06)
(-0.00200589 -0.000229579 1.04391e-05)
(-0.00201854 -0.000228032 6.88716e-06)
(-0.000533371 5.91147e-05 3.77027e-05)
(-0.000733419 1.43425e-05 -0.000104013)
(-0.000820134 -3.19237e-05 -9.08973e-05)
(-0.00089427 -7.48307e-05 -7.24591e-05)
(-0.000957069 -0.000108047 -4.81793e-05)
(-0.00100717 -0.000128805 -2.58922e-05)
(-0.00104701 -0.000139398 -9.6664e-06)
(-0.00108005 -0.000143356 5.15366e-07)
(-0.00110896 -0.000143636 6.22505e-06)
(-0.00113568 -0.000142219 9.09505e-06)
(-0.00116179 -0.000140262 1.04009e-05)
(-0.0011887 -0.000138314 1.10521e-05)
(-0.00121754 -0.000136521 1.15953e-05)
(-0.00124906 -0.000134844 1.2277e-05)
(-0.00128364 -0.000133224 1.31331e-05)
(-0.00132136 -0.000131664 1.40762e-05)
(-0.00136212 -0.000130229 1.49576e-05)
(-0.00140571 -0.000129049 1.55929e-05)
(-0.00145186 -0.000128284 1.57826e-05)
(-0.00150005 -0.000128074 1.52983e-05)
(-0.00154958 -0.000128598 1.39202e-05)
(-0.00159943 -0.000130015 1.15838e-05)
(-0.00164878 -0.000132379 8.50035e-06)
(-0.00169703 -0.000135558 5.01697e-06)
(-0.00174405 -0.000139277 1.59997e-06)
(-0.00179002 -0.0001433 -1.29699e-06)
(-0.00183478 -0.000147304 -2.96396e-06)
(-0.00187736 -0.000150971 -3.05778e-06)
(-0.00191617 -0.000153969 -7.08203e-07)
(-0.00194754 -0.00015609 2.94987e-06)
(-0.00196951 -0.000156558 8.41101e-06)
(-0.00198116 -0.000154722 6.13305e-06)
(-0.000516762 8.33453e-05 4.36847e-05)
(-0.000723984 4.6609e-05 -0.00010582)
(-0.000812002 4.24428e-06 -9.34991e-05)
(-0.000885241 -3.56973e-05 -7.64765e-05)
(-0.000947205 -6.70545e-05 -5.4289e-05)
(-0.000996271 -8.70699e-05 -3.35786e-05)
(-0.00103456 -9.75567e-05 -1.83385e-05)
(-0.00106556 -0.00010166 -8.81744e-06)
(-0.00109213 -0.00010215 -3.58036e-06)
(-0.00111638 -0.000100904 -1.02742e-06)
(-0.00114003 -9.90025e-05 1.00839e-07)
(-0.00116449 -9.69361e-05 6.85732e-07)
(-0.0011909 -9.48099e-05 1.24641e-06)
(-0.00122003 -9.25737e-05 2.0089e-06)
(-0.00125225 -9.01559e-05 2.99513e-06)
(-0.00128762 -8.75582e-05 4.10993e-06)
(-0.00132605 -8.48522e-05 5.20528e-06)
(-0.00136741 -8.21718e-05 6.1074e-06)
(-0.00141151 -7.96802e-05 6.63658e-06)
(-0.00145808 -7.75309e-05 6.58608e-06)
(-0.00150656 -7.59213e-05 5.73609e-06)
(-0.00155604 -7.5056e-05 3.96955e-06)
(-0.00160558 -7.50823e-05 1.43864e-06)
(-0.00165438 -7.59603e-05 -1.53191e-06)
(-0.001702 -7.74965e-05 -4.47602e-06)
(-0.00174836 -7.95079e-05 -6.90776e-06)
(-0.00179318 -8.16935e-05 -8.06522e-06)
(-0.00183526 -8.37013e-05 -7.56035e-06)
(-0.00187288 -8.51903e-05 -4.50498e-06)
(-0.00190258 -8.60356e-05 -9.09434e-09)
(-0.00192282 -8.56672e-05 6.41191e-06)
(-0.00193351 -8.361e-05 5.37612e-06)
(-0.000497219 0.000105779 4.89634e-05)
(-0.000710623 7.75223e-05 -0.000107693)
(-0.000800234 3.90547e-05 -9.59133e-05)
(-0.000872381 2.20039e-06 -7.99281e-05)
(-0.000933188 -2.70412e-05 -5.97901e-05)
(-0.000981025 -4.61114e-05 -4.07951e-05)
(-0.00101763 -5.64133e-05 -2.66683e-05)
(-0.00104646 -6.06685e-05 -1.78788e-05)
(-0.00107056 -6.1424e-05 -1.31462e-05)
(-0.00109224 -6.04352e-05 -1.09229e-05)
(-0.00111329 -5.86962e-05 -9.97572e-06)
(-0.00113518 -5.66405e-05 -9.45384e-06)
(-0.00115906 -5.43408e-05 -8.86582e-06)
(-0.00118565 -5.1725e-05 -8.00759e-06)
(-0.00121526 -4.87142e-05 -6.87373e-06)
(-0.00124797 -4.53077e-05 -5.57035e-06)
(-0.00128367 -4.15766e-05 -4.25119e-06)
(-0.00132227 -3.76506e-05 -3.08515e-06)
(-0.00136371 -3.36853e-05 -2.23475e-06)
(-0.00140785 -2.98263e-05 -1.88181e-06)
(-0.00145442 -2.62691e-05 -2.22994e-06)
(-0.00150266 -2.32408e-05 -3.42942e-06)
(-0.00155163 -2.09647e-05 -5.38653e-06)
(-0.0016004 -1.95024e-05 -7.81074e-06)
(-0.00164831 -1.87606e-05 -1.02541e-05)
(-0.00169495 -1.86425e-05 -1.22151e-05)
(-0.00173992 -1.89158e-05 -1.28852e-05)
(-0.00178182 -1.92565e-05 -1.18244e-05)
(-0.00181876 -1.93367e-05 -8.12311e-06)
(-0.00184731 -1.90707e-05 -2.85156e-06)
(-0.00186614 -1.80085e-05 4.45946e-06)
(-0.00187601 -1.57929e-05 4.62282e-06)
(-0.000474904 0.000126145 5.34954e-05)
(-0.000693561 0.000106676 -0.000109711)
(-0.00078495 7.20582e-05 -9.82294e-05)
(-0.000855866 3.83619e-05 -8.28437e-05)
(-0.000915165 1.14367e-05 -6.46117e-05)