/*--------------------------------*- C++ -*----------------------------------*\
  =========                 |
  \\      /  F ield         | OpenFOAM: The Open Source CFD Toolbox
   \\    /   O peration     | Website:  https://openfoam.org
    \\  /    A nd           | Version:  6
     \\/     M anipulation  |
\*---------------------------------------------------------------------------*/
FoamFile
{
    version     2.0;
    format      ascii;
    class       volVectorField;
    location    "45";
    object      wallShearStress;
}
// * * * * * * * * * * * * * * * * * * * * * * * * * * * * * * * * * * * * * //

dimensions      [0 2 -2 0 0 0 0];

internalField   uniform (0 0 0);

boundaryField
{
    inlet
    {
        type            calculated;
        value           uniform (0 0 0);
    }
    outlet
    {
        type            calculated;
        value           uniform (0 0 0);
    }
    roughCylinder
    {
        type            calculated;
        value           nonuniform List<vector> 
3840
(
(-0.000383662 -0.000554452 -0.000233465)
(-0.000329923 -0.000501717 -1.74429e-05)
(-0.000365111 -0.000578739 4.09505e-05)
(-0.000451948 -0.000683749 0.000109914)
(-0.000544207 -0.000755012 0.000175814)
(-0.000635121 -0.000794613 0.000231491)
(-0.000717642 -0.000807998 0.000274)
(-0.000789641 -0.000809045 0.000303799)
(-0.000851217 -0.000812083 0.000323475)
(-0.000899888 -0.000820614 0.000332786)
(-0.000940094 -0.000836662 0.00033362)
(-0.000974201 -0.000858741 0.000328558)
(-0.00100575 -0.000885185 0.00031981)
(-0.00103771 -0.000914818 0.000308851)
(-0.00107174 -0.000946977 0.000296287)
(-0.00110844 -0.000981385 0.000282227)
(-0.00114791 -0.00101795 0.000266563)
(-0.00118982 -0.00105635 0.000248989)
(-0.00123363 -0.00109602 0.000228931)
(-0.00127845 -0.00113605 0.000205377)
(-0.00132289 -0.00117509 0.000176495)
(-0.00136472 -0.00121109 0.00013969)
(-0.00139964 -0.00124104 9.1002e-05)
(-0.00142063 -0.00125953 3.13702e-05)
(-0.000408219 -0.000538097 -0.000229152)
(-0.000349626 -0.000488063 -2.15253e-05)
(-0.000383885 -0.00056178 3.31626e-05)
(-0.00047281 -0.000667059 9.89381e-05)
(-0.000567502 -0.000740535 0.000163079)
(-0.000661372 -0.000783404 0.000217921)
(-0.000747858 -0.000801306 0.000260611)
(-0.000825133 -0.000807336 0.000292042)
(-0.000891984 -0.000812216 0.000313765)
(-0.000943246 -0.000818741 0.000323788)
(-0.000985241 -0.000833518 0.000324914)
(-0.00102132 -0.000854873 0.000320072)
(-0.0010548 -0.000880911 0.000311511)
(-0.00108854 -0.000910134 0.000300721)
(-0.00112438 -0.000941909 0.000288413)
(-0.00116311 -0.000976042 0.000274756)
(-0.00120461 -0.00101222 0.00025958)
(-0.00124861 -0.00105018 0.000242589)
(-0.00129449 -0.00108933 0.000223192)
(-0.00134137 -0.00112881 0.000200378)
(-0.00138778 -0.00116728 0.000172324)
(-0.00143142 -0.00120274 0.000136465)
(-0.00146782 -0.00123224 8.89188e-05)
(-0.0014897 -0.00125043 3.06458e-05)
(-0.000434529 -0.000517214 -0.000217528)
(-0.000373427 -0.000474672 -2.67301e-05)
(-0.000401302 -0.000539367 2.47442e-05)
(-0.000491755 -0.000643765 8.70628e-05)
(-0.000588805 -0.000719369 0.000149301)
(-0.000685601 -0.000765702 0.000203417)
(-0.000776646 -0.000788831 0.000246766)
(-0.000859252 -0.000799898 0.000279781)
(-0.000930651 -0.000806943 0.000302903)
(-0.000985292 -0.000811673 0.000313629)
(-0.00102952 -0.00082526 0.00031532)
(-0.00106761 -0.000845589 0.000310734)
(-0.00110288 -0.000870798 0.000302377)
(-0.00113856 -0.000899487 0.000291871)
(-0.00117638 -0.000930773 0.000279929)
(-0.00121691 -0.000964213 0.000266686)
(-0.00126036 -0.00099972 0.000252052)
(-0.00130634 -0.00103694 0.000235698)
(-0.00135425 -0.00107531 0.000217027)
(-0.00140309 -0.00111397 0.000195014)
(-0.00145137 -0.0011516 0.00016785)
(-0.0014967 -0.00118628 0.000133006)
(-0.00153449 -0.00121513 8.66862e-05)
(-0.00155719 -0.0012329 2.98706e-05)
(-0.000451136 -0.000483092 -0.000197298)
(-0.000389855 -0.0004502 -3.17106e-05)
(-0.000414489 -0.000511003 1.58939e-05)
(-0.000505886 -0.000614169 7.43959e-05)
(-0.000605239 -0.000692043 0.00013454)
(-0.000705752 -0.000742947 0.000188068)
(-0.000801391 -0.000771478 0.000232143)
(-0.000888862 -0.000787068 0.000266557)
(-0.000964339 -0.000795952 0.000290649)
(-0.0010243 -0.00080113 0.000302757)
(-0.00107058 -0.000812633 0.000304937)
(-0.00111077 -0.000831693 0.000300698)
(-0.00114821 -0.000856112 0.000292728)
(-0.00118571 -0.000883956 0.00028255)
(-0.00122526 -0.00091439 0.000270995)
(-0.00126782 -0.000947163 0.000258296)
(-0.0013132 -0.000981852 0.000244271)
(-0.0013611 -0.00101816 0.000228612)
(-0.00141085 -0.00105553 0.000210702)
(-0.00146149 -0.00109313 0.000189524)
(-0.00151147 -0.0011297 0.000163279)
(-0.00155833 -0.00116338 0.000129475)
(-0.00159738 -0.0011914 8.44104e-05)
(-0.0016208 -0.00120864 2.90813e-05)
(-0.000485157 -0.000465641 -0.00018287)
(-0.000408502 -0.000427564 -3.68915e-05)
(-0.00042378 -0.000478652 6.81228e-06)
(-0.000514904 -0.000579571 6.12052e-05)
(-0.000616537 -0.000659703 0.000119021)
(-0.000720072 -0.000714474 0.000171587)
(-0.00082032 -0.000748422 0.000216275)
(-0.000912804 -0.000768552 0.000252049)
(-0.000993255 -0.000779996 0.000277347)
(-0.00105766 -0.00078576 0.000290632)
(-0.00110769 -0.000795367 0.000293701)
(-0.00115025 -0.000813075 0.000290048)
(-0.0011896 -0.000836103 0.000282478)
(-0.00122915 -0.000863016 0.000272785)
(-0.00127076 -0.000892653 0.00026178)
(-0.00131494 -0.000924306 0.000249621)
(-0.00136204 -0.000957895 0.000236253)
(-0.00141166 -0.000993023 0.000221328)
(-0.00146314 -0.00102918 0.000204232)
(-0.00151542 -0.0010655 0.000183927)
(-0.00156693 -0.0011008 0.00015863)
(-0.00161515 -0.00113327 0.00012589)
(-0.00165532 -0.0011603 8.21031e-05)
(-0.00167937 -0.0011769 2.82829e-05)
(-0.00045738 -0.000392629 -0.0001439)
(-0.000421302 -0.000396724 -4.24408e-05)
(-0.000427539 -0.000442464 -2.25871e-06)
(-0.000517411 -0.000540107 4.76951e-05)
(-0.000620783 -0.000622003 0.00010265)
(-0.000728396 -0.000681657 0.00015416)
(-0.000833281 -0.000720773 0.000199219)
(-0.000930419 -0.000744828 0.000236106)
(-0.00101492 -0.000757983 0.000262409)
(-0.0010851 -0.000765723 0.00027718)
(-0.00114003 -0.000774309 0.000281473)
(-0.0011851 -0.000789573 0.000278538)
(-0.00122706 -0.000811432 0.000271677)
(-0.00126858 -0.000837027 0.000262552)
(-0.00131178 -0.000865299 0.000252106)
(-0.00135798 -0.000895934 0.000240668)
(-0.00140687 -0.000928307 0.000228047)
(-0.00145818 -0.000962118 0.000213928)
(-0.00151117 -0.000996803 0.000197676)
(-0.00156489 -0.00103162 0.000178271)
(-0.00161772 -0.00106541 0.000153941)
(-0.00166713 -0.00109647 0.000122279)
(-0.00170826 -0.00112232 7.97819e-05)
(-0.00173283 -0.0011382 2.74811e-05)
(-0.000606386 -0.000461993 -0.000159126)
(-0.000431677 -0.000367384 -4.74657e-05)
(-0.000426096 -0.000403664 -1.09374e-05)
(-0.000513121 -0.000497377 3.39394e-05)
(-0.000618488 -0.000581299 8.5662e-05)
(-0.000728641 -0.000644213 0.000135472)
(-0.000837932 -0.000688006 0.000180528)
(-0.0009401 -0.000715964 0.000218385)
(-0.0010307 -0.000732214 0.000246223)
(-0.00110505 -0.000740616 0.000262118)
(-0.0011656 -0.000749472 0.0002679)
(-0.0012153 -0.000763042 0.000266227)
(-0.00125946 -0.000782393 0.000260119)
(-0.00130328 -0.000806496 0.000251783)
(-0.00134879 -0.000833639 0.000242153)
(-0.00139639 -0.000862674 0.000231419)
(-0.00144677 -0.000893519 0.000219591)
(-0.00149949 -0.000925726 0.000206318)
(-0.0015539 -0.000958799 0.000190973)
(-0.00160889 -0.000991935 0.000172509)
(-0.00166286 -0.00102406 0.000149176)
(-0.00171328 -0.00105355 0.000118615)
(-0.00175525 -0.0010781 7.74318e-05)
(-0.00178022 -0.00109316 2.66712e-05)
(-0.000503161 -0.000339982 -0.000109327)
(-0.000427099 -0.000327891 -5.0221e-05)
(-0.000417001 -0.000361417 -1.93502e-05)
(-0.000500392 -0.000451132 2.00114e-05)
(-0.000605942 -0.000535509 6.77414e-05)
(-0.000720238 -0.000603061 0.000115604)
(-0.000834354 -0.00065156 0.000160326)
(-0.000941775 -0.000683228 0.00019892)
(-0.00103636 -0.000700868 0.000227754)
(-0.00111754 -0.000711563 0.000245533)
(-0.0011832 -0.000720479 0.000252815)
(-0.00123755 -0.000732884 0.000252548)
(-0.00128623 -0.00075074 0.000247836)
(-0.00133255 -0.000772822 0.000240495)
(-0.00137953 -0.000797866 0.000231659)
(-0.00142928 -0.000825465 0.000221873)
(-0.00148134 -0.000854709 0.000210962)
(-0.00153552 -0.000885229 0.000198622)
(-0.00159107 -0.000916443 0.000184212)
(-0.00164708 -0.000947692 0.000166713)
(-0.00170195 -0.000977931 0.00014439)
(-0.00175317 -0.00100564 0.000114935)
(-0.00179577 -0.0010287 7.5075e-05)
(-0.00182102 -0.0010429 2.58614e-05)
(-0.00056245 -0.000334725 -0.000100076)
(-0.000422669 -0.00029243 -5.31375e-05)
(-0.000402267 -0.000318934 -2.71259e-05)
(-0.000478898 -0.000402424 6.30883e-06)
(-0.000585767 -0.000488253 4.9507e-05)
(-0.000701369 -0.000557938 9.44427e-05)
(-0.000819575 -0.000610373 0.000138165)
(-0.000932169 -0.000645479 0.000177102)
(-0.0010347 -0.000667 0.000207644)
(-0.00112042 -0.000678218 0.000226908)
(-0.00119213 -0.000687637 0.000236117)
(-0.00125198 -0.000699538 0.000237649)
(-0.00130417 -0.00071563 0.000234328)
(-0.00135376 -0.000735917 0.000228292)
(-0.00140389 -0.000759511 0.00022071)
(-0.00145502 -0.000785022 0.000211894)
(-0.00150839 -0.00081232 0.000201972)
(-0.00156366 -0.000840861 0.000190623)
(-0.00162029 -0.000870161 0.000177235)
(-0.00167716 -0.000899435 0.000160759)
(-0.00173278 -0.000927717 0.000139491)
(-0.00178469 -0.000953603 0.000111184)
(-0.00182787 -0.00097517 7.26825e-05)
(-0.0018532 -0.000988441 2.50414e-05)
(-0.000488836 -0.000256219 -6.87817e-05)
(-0.000405608 -0.000250736 -5.51222e-05)
(-0.000378232 -0.00027482 -3.40973e-05)
(-0.000447817 -0.000351867 -6.77601e-06)
(-0.000551587 -0.000435478 3.07839e-05)
(-0.000671104 -0.000509335 7.22e-05)
(-0.000794287 -0.000566194 0.000114354)
(-0.000913344 -0.000605392 0.000153423)
(-0.0010196 -0.000627801 0.000184676)
(-0.00111374 -0.000641666 0.000206242)
(-0.00119149 -0.000651323 0.000217593)
(-0.0012562 -0.000662215 0.000221071)
(-0.00131346 -0.000677276 0.000219644)
(-0.00136636 -0.000695789 0.000215121)
(-0.00141807 -0.000717058 0.000208743)
(-0.00147174 -0.000741027 0.000201251)
(-0.00152681 -0.00076653 0.000192515)
(-0.00158335 -0.000793168 0.000182298)
(-0.00164066 -0.000820343 0.000169983)
(-0.00169802 -0.000847499 0.00015458)
(-0.00175402 -0.000873732 0.000134411)
(-0.00180628 -0.000897725 0.000107292)
(-0.00184971 -0.000917729 7.02012e-05)
(-0.00187495 -0.000929999 2.41921e-05)
(-0.000485113 -0.000222484 -5.12518e-05)
(-0.000386032 -0.000212184 -5.74823e-05)
(-0.00034696 -0.000231178 -3.95895e-05)
(-0.000405313 -0.000298962 -1.87105e-05)
(-0.000509827 -0.000383248 1.24398e-05)
(-0.000628508 -0.000457578 4.90615e-05)
(-0.000755284 -0.000517851 8.86483e-05)
(-0.00087925 -0.000560113 0.000127009)
(-0.000996175 -0.000587611 0.000159894)
(-0.00109544 -0.000601843 0.000183174)
(-0.00118016 -0.000611926 0.000197032)
(-0.00125161 -0.000622528 0.000203061)
(-0.00131268 -0.000635677 0.000203583)
(-0.00136906 -0.000652331 0.000200841)
(-0.00142453 -0.000672207 0.000196184)
(-0.00147923 -0.000693752 0.000189956)
(-0.00153522 -0.000716986 0.000182446)
(-0.00159232 -0.000741339 0.00017341)
(-0.00165023 -0.000766367 0.000162282)
(-0.00170785 -0.000791329 0.000148033)
(-0.00176391 -0.000815425 0.00012903)
(-0.00181622 -0.000837477 0.000103169)
(-0.00185967 -0.000855869 6.75739e-05)
(-0.00188467 -0.000867086 2.32946e-05)
(-0.000466286 -0.000183779 -4.04437e-05)
(-0.0003566 -0.000176945 -5.6895e-05)
(-0.000307914 -0.0001878 -4.35174e-05)
(-0.000354586 -0.000246848 -2.9029e-05)
(-0.000449723 -0.000324307 -5.20046e-06)
(-0.000572054 -0.000402368 2.55752e-05)
(-0.000703605 -0.000466949 6.16103e-05)
(-0.000835901 -0.000514473 9.90002e-05)
(-0.000955697 -0.000542332 0.000131996)
(-0.00106541 -0.000559797 0.000157791)
(-0.00115762 -0.000570265 0.000174409)
(-0.00123444 -0.000579578 0.000183046)
(-0.00130172 -0.000591713 0.000186198)
(-0.00136211 -0.000606519 0.000185571)
(-0.00141881 -0.000623628 0.000182492)
(-0.00147639 -0.000643487 0.000177961)
(-0.00153411 -0.000664758 0.000171924)
(-0.00159229 -0.000687028 0.000164242)
(-0.0016503 -0.0007097 0.000154343)
(-0.00170778 -0.000732346 0.000141292)
(-0.00176355 -0.000754221 0.000123491)
(-0.00181554 -0.000774244 9.89195e-05)
(-0.00185868 -0.000790947 6.4864e-05)
(-0.00188326 -0.000801085 2.23704e-05)
(-0.00034798 -0.000117755 -2.05082e-05)
(-0.000315523 -0.000139521 -5.56635e-05)
(-0.00026375 -0.000147726 -4.59731e-05)
(-0.00028942 -0.000191706 -3.59683e-05)
(-0.000385477 -0.000269116 -2.09187e-05)
(-0.000502552 -0.000344638 2.58327e-06)
(-0.000636815 -0.000412406 3.36621e-05)
(-0.000772633 -0.000462633 6.85668e-05)
(-0.000906836 -0.000497768 0.000102555)
(-0.00102217 -0.000515748 0.000130042)
(-0.00112228 -0.000526628 0.000149609)
(-0.00120755 -0.000535828 0.00016157)
(-0.00127905 -0.00054573 0.000167356)
(-0.00134329 -0.000558385 0.000169099)
(-0.00140486 -0.000574127 0.000168299)
(-0.00146313 -0.000591208 0.000165362)
(-0.00152131 -0.000609902 0.000160805)
(-0.00157947 -0.000629608 0.000154495)
(-0.00163763 -0.000649988 0.000145954)
(-0.00169475 -0.000670308 0.000134183)
(-0.00174991 -0.000689932 0.000117649)
(-0.00180131 -0.000707925 9.44353e-05)
(-0.00184395 -0.000722939 6.20079e-05)
(-0.00186792 -0.000731981 2.13986e-05)
(-0.000288047 -8.25991e-05 -7.8291e-06)
(-0.00026046 -0.000102788 -5.2512e-05)
(-0.00021108 -0.000109519 -4.54727e-05)
(-0.000223518 -0.000142083 -3.98722e-05)
(-0.000296326 -0.000203227 -3.2311e-05)
(-0.000418361 -0.000283155 -1.81562e-05)
(-0.000555977 -0.000354886 6.04916e-06)
(-0.000702739 -0.000412728 3.77112e-05)
(-0.00083724 -0.000447669 7.05735e-05)
(-0.000965322 -0.000470285 0.000100249)
(-0.0010746 -0.000482214 0.000122925)
(-0.00116547 -0.000489899 0.000138041)
(-0.00124462 -0.00049886 0.000147184)
(-0.00131378 -0.000509585 0.000151693)
(-0.00137594 -0.000522051 0.000152881)
(-0.0014377 -0.000537368 0.000152064)
(-0.00149779 -0.000554006 0.000149295)
(-0.00155702 -0.000571585 0.000144581)
(-0.00161467 -0.00058947 0.000137422)
(-0.00167099 -0.000607394 0.000126963)
(-0.00172514 -0.000624744 0.000111716)
(-0.00177553 -0.000640665 8.98725e-05)
(-0.00181732 -0.00065395 5.90999e-05)
(-0.00184051 -0.000661903 2.04117e-05)
(-0.000189709 -4.59088e-05 1.13369e-06)
(-0.000196019 -7.03226e-05 -4.71515e-05)
(-0.000153922 -7.52524e-05 -4.20491e-05)
(-0.0001322 -8.22e-05 -3.2883e-05)
(-0.000216581 -0.000147505 -3.90151e-05)
(-0.000321748 -0.000217977 -3.49336e-05)
(-0.000460817 -0.000293584 -1.94155e-05)
(-0.000607266 -0.000353402 6.6699e-06)
(-0.000761576 -0.000399866 3.83843e-05)
(-0.000894743 -0.000423767 6.89573e-05)
(-0.00101232 -0.000436758 9.4484e-05)
(-0.00111357 -0.000445072 0.000113371)
(-0.00119698 -0.000451645 0.000125678)
(-0.0012702 -0.000459996 0.000133085)
(-0.00133882 -0.000471272 0.000137125)
(-0.00140076 -0.000483492 0.000138235)
(-0.00146077 -0.000497317 0.000137197)
(-0.00151919 -0.000512138 0.000134037)
(-0.00157657 -0.000527715 0.000128405)
(-0.00163188 -0.000543316 0.000119344)
(-0.0016847 -0.000558439 0.00010545)
(-0.00173383 -0.000572347 8.50494e-05)
(-0.00177458 -0.000583964 5.60288e-05)
(-0.00179681 -0.000590856 1.93718e-05)
(-7.68626e-05 -1.52304e-05 7.33948e-06)
(-0.000115596 -3.80126e-05 -3.64983e-05)
(-9.69201e-05 -4.55184e-05 -3.70384e-05)
(-6.11048e-05 -3.84086e-05 -2.23549e-05)
(-7.45809e-05 -5.21723e-05 -2.12277e-05)
(-0.000212191 -0.000146823 -4.16521e-05)
(-0.000350702 -0.000225843 -3.9161e-05)
(-0.000513526 -0.000299079 -2.20735e-05)
(-0.000661312 -0.000344175 6.20597e-06)
(-0.000809791 -0.000375862 3.71718e-05)
(-0.000937766 -0.000391679 6.51316e-05)
(-0.00104391 -0.000398925 8.71049e-05)
(-0.00113645 -0.000405214 0.000103116)
(-0.00121551 -0.000411866 0.000113751)
(-0.00128344 -0.000419429 0.000120085)
(-0.00134969 -0.000429987 0.000123711)
(-0.00141201 -0.000441821 0.000124772)
(-0.00147168 -0.000454626 0.000123456)
(-0.0015279 -0.000467731 0.000119351)
(-0.00158168 -0.000481012 0.000111701)
(-0.00163274 -0.000493963 9.9162e-05)
(-0.00168016 -0.000505886 8.01969e-05)
(-0.00171946 -0.000515842 5.29353e-05)
(-0.00174056 -0.000521728 1.83267e-05)
(-7.70488e-06 4.6374e-07 9.20233e-06)
(-2.53892e-05 -7.44168e-06 -1.25052e-05)
(-3.23234e-05 -1.55011e-05 -2.08028e-05)
(-5.06436e-05 -3.54101e-05 -3.09931e-05)
(-4.99083e-05 -3.93915e-05 -2.30514e-05)
(-0.000100984 -7.40999e-05 -3.17649e-05)
(-0.000236764 -0.000154284 -4.8622e-05)
(-0.00038488 -0.000226421 -4.42979e-05)
(-0.000562282 -0.000292628 -2.29411e-05)
(-0.000712248 -0.00032679 6.35351e-06)
(-0.000847638 -0.000345623 3.55844e-05)
(-0.000965886 -0.0003555 6.06403e-05)
(-0.00106175 -0.000359911 7.97065e-05)
(-0.00114452 -0.000364434 9.3397e-05)
(-0.0012211 -0.000371437 0.000102991)
(-0.00128661 -0.00037877 0.000108786)
(-0.00134796 -0.000387699 0.000111773)
(-0.00140577 -0.000397687 0.000112153)
(-0.00146125 -0.000408632 0.000109728)
(-0.00151335 -0.000419776 0.000103576)
(-0.00156229 -0.000430688 9.24583e-05)
(-0.00160776 -0.000440783 7.50134e-05)
(-0.00164549 -0.000449218 4.96325e-05)
(-0.00166525 -0.000454157 1.72124e-05)
(6.7189e-06 6.38934e-06 1.52908e-05)
(4.60205e-06 5.56442e-07 -7.32043e-06)
(-4.32741e-06 -8.03249e-06 -2.06947e-05)
(-1.71652e-05 -2.28447e-05 -2.79116e-05)
(-3.48314e-05 -3.74693e-05 -3.02891e-05)
(-4.41648e-05 -3.6742e-05 -2.32154e-05)
(-0.000132435 -8.99048e-05 -4.48035e-05)
(-0.00027897 -0.000165105 -5.72224e-05)
(-0.00043108 -0.000225743 -4.53641e-05)
(-0.000601649 -0.000275335 -2.11893e-05)
(-0.000747475 -0.000300317 7.43011e-06)
(-0.000867891 -0.000310629 3.40066e-05)
(-0.000974065 -0.000316583 5.60343e-05)
(-0.00106342 -0.000320439 7.28185e-05)
(-0.00113669 -0.000323611 8.46842e-05)
(-0.00120753 -0.000329766 9.32265e-05)
(-0.00127179 -0.000337081 9.85476e-05)
(-0.00133127 -0.000345411 0.000100987)
(-0.00138486 -0.000354106 0.000100206)
(-0.00143462 -0.000363192 9.55375e-05)
(-0.00148103 -0.000372221 8.58212e-05)
(-0.00152403 -0.000380583 6.98611e-05)
(-0.00155971 -0.000387556 4.63414e-05)
(-0.001578 -0.000391644 1.61045e-05)
(1.27635e-05 1.12374e-05 2.18253e-05)
(2.46064e-05 7.66354e-06 -7.64151e-06)
(2.79566e-05 -2.83187e-07 -1.871e-05)
(1.2161e-05 -9.45683e-06 -1.57112e-05)
(-1.49021e-06 -2.414e-05 -2.40566e-05)
(-2.89466e-05 -3.35643e-05 -2.96e-05)
(-6.93293e-05 -5.28896e-05 -3.8031e-05)
(-8.16253e-05 -4.89877e-05 -2.58746e-05)
(-0.000322191 -0.000168365 -5.92714e-05)
(-0.000480379 -0.000220585 -4.31592e-05)
(-0.000631524 -0.000252638 -1.75901e-05)
(-0.000765833 -0.000269463 9.01766e-06)
(-0.00087273 -0.000275072 3.26697e-05)
(-0.000964085 -0.000277817 5.18119e-05)
(-0.00104898 -0.000281955 6.68417e-05)
(-0.00111732 -0.00028514 7.75358e-05)
(-0.00117908 -0.000289745 8.48148e-05)
(-0.00123506 -0.000295416 8.89828e-05)
(-0.00128733 -0.000302332 8.99737e-05)
(-0.00133466 -0.000309674 8.68661e-05)
(-0.0013781 -0.000317043 7.86156e-05)
(-0.00141845 -0.000323921 6.42494e-05)
(-0.00145204 -0.000329646 4.27544e-05)
(-0.00146862 -0.000332978 1.48958e-05)
(2.30812e-05 1.32693e-05 2.37419e-05)
(3.68689e-05 1.0055e-05 -8.96224e-06)
(3.69965e-05 2.64662e-06 -1.36624e-05)
(4.58969e-05 -9.34362e-06 -1.99608e-05)
(2.91594e-05 -2.00124e-05 -1.71686e-05)
(3.01133e-06 -2.46037e-05 -1.75478e-05)
(-2.06739e-05 -2.03136e-05 -1.77163e-05)
(-5.23453e-05 -3.28538e-05 -2.45374e-05)
(-0.000144137 -7.44655e-05 -4.007e-05)
(-0.000353961 -0.000162815 -5.537e-05)
(-0.000511885 -0.000205703 -3.7688e-05)
(-0.000642084 -0.000225132 -1.32875e-05)
(-0.00075979 -0.00023549 1.06259e-05)
(-0.000858443 -0.00023988 3.15504e-05)
(-0.000934912 -0.000240515 4.81986e-05)
(-0.00100979 -0.000243745 6.14493e-05)
(-0.00107528 -0.000247628 7.10688e-05)
(-0.00113378 -0.000252408 7.74015e-05)
(-0.00118324 -0.000257551 8.00703e-05)
(-0.00122732 -0.000263312 7.84603e-05)
(-0.00126741 -0.00026927 7.16188e-05)
(-0.00130451 -0.000274826 5.87692e-05)
(-0.00133544 -0.000279416 3.9237e-05)
(-0.00135027 -0.000282122 1.37128e-05)
(3.28585e-05 1.41636e-05 2.51196e-05)
(7.39335e-05 1.64434e-05 -1.38195e-05)
(8.22585e-05 6.2173e-06 -2.37852e-05)
(6.25446e-05 -7.79969e-06 -2.02705e-05)
(4.89371e-05 -1.94445e-05 -1.51556e-05)
(3.50098e-05 -2.98568e-05 -9.22207e-06)
(1.92228e-07 -1.39512e-05 -5.18421e-06)
(-4.23271e-05 -2.8871e-05 -2.66743e-05)
(-0.000107786 -5.67486e-05 -4.35418e-05)
(-0.000206094 -9.53414e-05 -4.87248e-05)
(-0.000375516 -0.000153115 -4.86709e-05)
(-0.000522279 -0.000184766 -3.12994e-05)
(-0.000636936 -0.000197361 -9.06615e-06)
(-0.000733266 -0.000202292 1.22109e-05)
(-0.000825882 -0.00020686 3.08905e-05)
(-0.000894808 -0.000207848 4.5769e-05)
(-0.000954971 -0.000209606 5.70246e-05)
(-0.00100717 -0.000212161 6.48572e-05)
(-0.00105468 -0.000216215 6.92546e-05)
(-0.00109552 -0.00022085 6.91766e-05)
(-0.00113173 -0.000225692 6.37983e-05)
(-0.00116548 -0.000230254 5.26129e-05)
(-0.00119382 -0.000233997 3.52768e-05)
(-0.00120659 -0.000236165 1.2374e-05)
(3.928e-05 1.45201e-05 2.70737e-05)
(9.20544e-05 1.91007e-05 -1.25988e-05)
(0.000112125 9.80837e-06 -2.71662e-05)
(0.000112179 -7.22255e-06 -3.17366e-05)
(8.12378e-05 -2.13693e-05 -2.33738e-05)
(3.9719e-05 -2.18571e-05 -9.46629e-06)
(3.26091e-05 -3.65488e-05 -2.38721e-06)
(-7.74496e-06 -2.36687e-05 -6.31311e-06)
(-4.07564e-05 -2.33745e-05 -2.10911e-05)
(-8.09123e-05 -3.8313e-05 -2.73966e-05)
(-0.000243583 -0.000101785 -4.88174e-05)
(-0.00038253 -0.000138435 -4.16511e-05)
(-0.000505362 -0.00015934 -2.48235e-05)
(-0.000610552 -0.000169666 -4.8897e-06)
(-0.00068488 -0.000171007 1.39141e-05)
(-0.000762279 -0.000174393 3.0317e-05)
(-0.000827671 -0.00017716 4.34306e-05)
(-0.000883894 -0.000180166 5.32658e-05)
(-0.000927203 -0.000183156 5.91797e-05)
(-0.000963755 -0.000186868 6.04942e-05)
(-0.000995837 -0.000190899 5.64652e-05)
(-0.00102561 -0.000194657 4.67956e-05)
(-0.00105068 -0.00019767 3.15095e-05)
(-0.00106158 -0.000199464 1.11027e-05)
(4.53034e-05 1.49601e-05 2.99383e-05)
(0.000102442 2.15573e-05 -1.04701e-05)
(0.000128828 1.50559e-05 -2.82343e-05)
(0.000133721 -1.2483e-06 -3.63091e-05)
(0.000121135 -2.09917e-05 -3.54672e-05)
(8.19119e-05 -3.2283e-05 -2.26338e-05)
(5.68208e-05 -4.19702e-05 -1.0124e-05)
(1.22909e-05 -1.90336e-05 1.41315e-06)
(-9.71997e-06 -1.25645e-05 -3.94838e-06)
(-5.26289e-05 -2.6184e-05 -2.29492e-05)
(-0.000131378 -5.52641e-05 -3.82733e-05)
(-0.000250945 -9.43156e-05 -4.4156e-05)
(-0.000372566 -0.000121565 -3.49432e-05)
(-0.000466517 -0.000133699 -1.83495e-05)
(-0.000566147 -0.000144191 -5.88264e-07)
(-0.0006306 -0.000146026 1.61753e-05)
(-0.000684797 -0.000147283 2.99686e-05)
(-0.000730304 -0.000148707 4.05942e-05)
(-0.000771305 -0.000151674 4.78964e-05)
(-0.00080379 -0.000155028 5.05189e-05)
(-0.000831099 -0.000158531 4.78605e-05)
(-0.000856904 -0.000161829 3.99236e-05)
(-0.000879025 -0.000164454 2.70419e-05)
(-0.000887535 -0.000165906 9.57651e-06)
(4.78842e-05 1.47877e-05 3.24188e-05)
(0.00010128 2.19282e-05 -7.41046e-06)
(0.000130125 1.90789e-05 -2.66185e-05)
(0.000142846 6.03116e-06 -3.78167e-05)
(0.000137 -1.3316e-05 -4.01246e-05)
(0.000117202 -3.21797e-05 -3.42274e-05)
(7.21945e-05 -3.71778e-05 -1.7665e-05)
(4.91204e-05 -4.47454e-05 -4.67154e-06)
(1.25116e-05 -3.12812e-05 4.88511e-06)
(-2.77656e-05 -2.12494e-05 -1.20903e-05)
(-7.96969e-05 -3.61218e-05 -3.34787e-05)
(-0.000118398 -4.68154e-05 -3.15118e-05)
(-0.000232272 -7.97545e-05 -3.59913e-05)
(-0.000342892 -0.00010301 -2.78945e-05)
(-0.000403289 -0.000108376 -1.19433e-05)
(-0.000481921 -0.000116645 3.67064e-06)
(-0.000546319 -0.000121807 1.79167e-05)
(-0.000598177 -0.000125747 2.98402e-05)
(-0.000632505 -0.000128334 3.81426e-05)
(-0.000659592 -0.00013142 4.18394e-05)
(-0.000682229 -0.000134647 4.03557e-05)
(-0.000703466 -0.000137575 3.38694e-05)
(-0.000721773 -0.000139839 2.30649e-05)
(-0.000728611 -0.00014118 8.22223e-06)
(4.96946e-05 1.44353e-05 3.55468e-05)
(9.62089e-05 2.12974e-05 -4.29794e-06)
(0.000124767 2.09004e-05 -2.33998e-05)
(0.000137837 1.15832e-05 -3.51771e-05)
(0.000139766 -4.63221e-06 -4.06351e-05)
(0.000127427 -2.3187e-05 -3.81795e-05)
(0.000106445 -3.92061e-05 -2.96798e-05)
(5.9908e-05 -3.70592e-05 -1.24123e-05)
(3.50627e-05 -3.71323e-05 -1.33861e-06)
(5.53804e-06 -2.73278e-05 -3.95396e-07)
(-1.86745e-05 -1.27578e-05 -1.11164e-05)
(-6.47916e-05 -2.86681e-05 -2.58779e-05)
(-0.000106109 -3.95942e-05 -2.60198e-05)
(-0.000186125 -5.957e-05 -2.59412e-05)
(-0.00029858 -8.48539e-05 -2.06395e-05)
(-0.00034953 -9.06741e-05 -6.42837e-06)
(-0.000391396 -9.43183e-05 6.76704e-06)
(-0.000423593 -9.62894e-05 1.79483e-05)
(-0.000456577 -0.000100167 2.66204e-05)
(-0.000479264 -0.000103692 3.09963e-05)
(-0.000496182 -0.000106553 3.06121e-05)
(-0.000513343 -0.000109385 2.59518e-05)
(-0.000528642 -0.000111639 1.78405e-05)
(-0.000532644 -0.000112839 6.4006e-06)
(4.96537e-05 1.42258e-05 3.89166e-05)
(8.80713e-05 2.05566e-05 -1.90269e-06)
(0.000115379 2.17276e-05 -2.01591e-05)
(0.000128399 1.47905e-05 -3.1409e-05)
(0.000131687 2.17077e-06 -3.7545e-05)
(0.000128009 -1.4289e-05 -3.85561e-05)
(0.000113612 -3.02564e-05 -3.31583e-05)
(9.6253e-05 -4.30607e-05 -2.50223e-05)
(4.97751e-05 -3.4334e-05 -1.0242e-05)
(1.63894e-05 -1.9443e-05 -2.41371e-06)
(-1.28316e-06 -1.42935e-05 -5.90765e-06)
(-3.20849e-05 -1.89756e-05 -2.13965e-05)
(-6.55433e-05 -2.7896e-05 -2.6162e-05)
(-7.27601e-05 -2.68592e-05 -1.6945e-05)
(-9.00434e-05 -2.73372e-05 -1.13911e-05)
(-0.000196889 -5.5729e-05 -1.15253e-05)
(-0.000256282 -6.99976e-05 -1.46783e-06)
(-0.000309514 -7.67983e-05 9.91188e-06)
(-0.000331383 -8.00462e-05 1.83114e-05)
(-0.00034596 -8.32716e-05 2.30712e-05)
(-0.000360137 -8.61833e-05 2.35522e-05)
(-0.000372775 -8.91612e-05 2.01073e-05)
(-0.000383994 -9.12105e-05 1.39493e-05)
(-0.000384945 -9.17607e-05 5.0606e-06)
(4.81061e-05 1.51751e-05 4.2939e-05)
(7.87649e-05 2.07831e-05 -8.53158e-07)
(0.000101892 2.21515e-05 -1.73771e-05)
(0.000113224 1.6616e-05 -2.67202e-05)
(0.000117869 6.42373e-06 -3.25076e-05)
(0.000117385 -6.99969e-06 -3.48113e-05)
(0.000113512 -2.25556e-05 -3.33599e-05)
(0.000101603 -3.52716e-05 -2.77323e-05)
(8.96613e-05 -4.52013e-05 -2.27245e-05)
(4.5771e-05 -3.36921e-05 -1.14246e-05)
(2.6068e-05 -3.46955e-05 -1.1336e-05)
(-5.01329e-06 -1.12506e-05 -1.15712e-05)
(-2.04108e-05 -1.16637e-05 -1.57151e-05)
(-5.74638e-05 -2.58208e-05 -2.42762e-05)
(-0.000100615 -3.89571e-05 -2.37157e-05)
(-6.42608e-05 -2.13544e-05 -7.72388e-06)
(-0.000144543 -4.45032e-05 -6.25199e-06)
(-8.05607e-05 -2.30603e-05 8.87537e-07)
(-0.000123746 -3.44351e-05 6.07708e-06)
(-0.000146227 -4.03307e-05 9.96654e-06)
(-0.000145382 -4.10154e-05 1.0047e-05)
(-0.000152251 -4.42182e-05 8.89748e-06)
(-0.000161921 -4.70193e-05 6.54832e-06)
(-0.000171084 -4.77832e-05 2.58962e-06)
(4.42641e-05 1.72215e-05 4.67214e-05)
(6.47923e-05 2.05906e-05 -7.84183e-07)
(8.21742e-05 2.12604e-05 -1.42195e-05)
(9.1474e-05 1.66582e-05 -2.07884e-05)
(9.68272e-05 8.65003e-06 -2.52188e-05)
(9.99352e-05 -2.39716e-06 -2.81317e-05)
(0.000101109 -1.59452e-05 -2.85193e-05)
(0.000102451 -2.9758e-05 -2.72789e-05)
(9.42916e-05 -3.83531e-05 -2.4104e-05)
(8.34601e-05 -4.50661e-05 -2.28567e-05)
(4.059e-05 -3.20685e-05 -1.51538e-05)
(1.80857e-05 -2.92148e-05 -2.01734e-05)
(-8.51007e-06 -1.43172e-05 -2.20575e-05)
(-1.80426e-05 -1.07196e-05 -1.73246e-05)
(-4.17196e-05 -2.17506e-05 -2.10965e-05)
(-7.49968e-05 -3.34396e-05 -1.95462e-05)
(-4.58981e-05 -1.75495e-05 -5.82193e-06)
(-8.04607e-05 -3.1197e-05 -3.07002e-06)
(-5.5063e-05 -2.13738e-05 1.75857e-06)
(-0.000119352 -4.58449e-05 8.01135e-06)
(-5.75849e-05 -2.31578e-05 4.3481e-06)
(-0.000105745 -4.17004e-05 7.05715e-06)
(-0.000109454 -4.3241e-05 5.03558e-06)
(-0.000136401 -5.36583e-05 2.33407e-06)
(3.81155e-05 1.95968e-05 4.89618e-05)
(5.15717e-05 2.05929e-05 -1.31969e-06)
(6.05171e-05 1.89792e-05 -1.12516e-05)
(6.55657e-05 1.44291e-05 -1.46238e-05)
(7.04516e-05 8.2225e-06 -1.70827e-05)
(7.59221e-05 -6.70545e-07 -1.93871e-05)
(8.34297e-05 -1.2349e-05 -2.11043e-05)
(9.07433e-05 -2.42058e-05 -2.18755e-05)
(9.67988e-05 -3.4574e-05 -2.30912e-05)
(8.85658e-05 -3.93908e-05 -2.31108e-05)
(7.48692e-05 -4.29092e-05 -2.54179e-05)
(3.50144e-05 -2.97422e-05 -2.06625e-05)
(1.50345e-05 -2.48128e-05 -2.95308e-05)
(-2.96662e-06 -8.11894e-06 -1.69119e-05)
(-1.72844e-05 -1.53527e-05 -2.77841e-05)
(-2.84769e-05 -1.94339e-05 -2.15039e-05)
(-4.54717e-05 -2.75584e-05 -1.78132e-05)
(-2.72778e-05 -1.50276e-05 -4.70898e-06)
(-5.16312e-05 -2.91838e-05 -1.31764e-06)
(-3.00799e-05 -1.77005e-05 1.68555e-06)
(-5.52738e-05 -3.34612e-05 4.81968e-06)
(-7.06384e-05 -4.18208e-05 5.85301e-06)
(-7.10688e-05 -4.03834e-05 3.87274e-06)
(-3.1796e-05 -1.99506e-05 5.85336e-07)
(3.0595e-05 2.15476e-05 4.8961e-05)
(4.03263e-05 2.08344e-05 -2.31337e-06)
(4.33297e-05 1.66665e-05 -9.78656e-06)
(4.40313e-05 1.13186e-05 -1.06767e-05)
(4.63256e-05 5.72259e-06 -1.10922e-05)
(5.28805e-05 -1.85352e-06 -1.21262e-05)
(6.37078e-05 -1.18184e-05 -1.33863e-05)
(7.75482e-05 -2.19105e-05 -1.54743e-05)
(8.66501e-05 -2.98782e-05 -1.79992e-05)
(9.15659e-05 -3.68656e-05 -2.16272e-05)
(8.17597e-05 -3.91374e-05 -2.46274e-05)
(6.63765e-05 -4.01754e-05 -3.05498e-05)
(3.1673e-05 -2.77779e-05 -2.86661e-05)
(1.11221e-05 -1.71739e-05 -2.7663e-05)
(9.56494e-08 -1.63811e-05 -3.78045e-05)
(-5.84937e-06 -1.30885e-05 -2.87566e-05)
(-6.64894e-06 -1.0024e-05 -1.48304e-05)
(-1.38798e-05 -1.66595e-05 -1.39876e-05)
(-1.29502e-05 -1.5498e-05 -6.35043e-06)
(-2.0307e-05 -2.75656e-05 -3.68134e-06)
(-1.33141e-05 -1.83691e-05 -3.18778e-07)
(-1.75067e-05 -2.62741e-05 5.32649e-07)
(-2.28394e-05 -3.22868e-05 9.72161e-07)
(-1.48138e-05 -2.13887e-05 2.77801e-07)
(2.30396e-05 2.26101e-05 4.62455e-05)
(3.04046e-05 2.045e-05 -3.86998e-06)
(3.15427e-05 1.48145e-05 -9.81809e-06)
(3.15329e-05 8.92249e-06 -9.87143e-06)
(3.27583e-05 2.61456e-06 -9.15072e-06)
(3.95038e-05 -5.56644e-06 -8.78546e-06)
(5.2013e-05 -1.51145e-05 -8.73666e-06)
(6.54656e-05 -2.29512e-05 -9.9003e-06)
(7.81671e-05 -2.92568e-05 -1.31729e-05)
(8.34143e-05 -3.36026e-05 -1.71149e-05)
(8.49143e-05 -3.77947e-05 -2.25904e-05)
(7.50389e-05 -3.84569e-05 -2.89122e-05)
(6.05504e-05 -3.79234e-05 -3.83668e-05)
(3.50043e-05 -2.86296e-05 -4.05624e-05)
(1.05557e-05 -1.28308e-05 -2.41861e-05)
(1.00624e-05 -2.26783e-05 -5.07656e-05)
(6.396e-06 -2.19865e-05 -5.06176e-05)