/*--------------------------------*- C++ -*----------------------------------*\
  =========                 |
  \\      /  F ield         | OpenFOAM: The Open Source CFD Toolbox
   \\    /   O peration     | Website:  https://openfoam.org
    \\  /    A nd           | Version:  6
     \\/     M anipulation  |
\*---------------------------------------------------------------------------*/
FoamFile
{
    version     2.0;
    format      ascii;
    class       volScalarField;
    location    "45";
    object      yPlus;
}
// * * * * * * * * * * * * * * * * * * * * * * * * * * * * * * * * * * * * * //

dimensions      [0 0 0 0 0 0 0];

internalField   uniform 0;

boundaryField
{
    inlet
    {
        type            calculated;
        value           uniform 0;
    }
    outlet
    {
        type            calculated;
        value           uniform 0;
    }
    roughCylinder
    {
        type            calculated;
        value           nonuniform List<scalar> 
3840
(
65.1905
50.1745
53.6979
62.0076
68.428
73.5393
77.6546
81.1162
84.1741
86.9551
89.5842
92.1045
94.6154
97.2148
99.9573
102.864
105.95
109.194
112.563
115.992
119.373
122.536
125.164
126.77
64.1412
49.2203
52.2373
60.335
66.6941
71.7908
75.8872
79.3332
82.3654
85.1205
87.6579
90.0989
92.5296
95.0282
97.6647
100.478
103.457
106.591
109.844
113.156
116.423
119.479
122.019
123.569
63.4293
49.021
50.8194
58.6539
64.9506
70.0002
74.1145
77.5841
80.6173
83.2868
85.7802
88.1419
90.4746
92.8883
95.4377
98.1377
101.008
104.029
107.17
110.366
113.52
116.471
118.925
120.42
61.6228
48.0856
49.3167
56.9049
63.1586
68.2454
72.3771
75.8463
78.8438
81.5246
83.9346
86.223
88.4906
90.8098
93.2535
95.8703
98.6422
101.56
104.587
107.671
110.713
113.56
115.929
117.37
63.315
48.0057
47.8824
55.1556
61.389
66.4365
70.6074
74.1221
77.1617
79.7607
82.1471
84.3772
86.5519
88.7983
91.1724
93.6789
96.3482
99.1588
102.082
105.058
107.994
110.742
113.028
114.417
56.4262
47.533
46.3826
53.3048
59.5012
64.6478
68.8748
72.4117
75.3984
78.0595
80.3869
82.555
84.6895
86.8539
89.1242
91.5652
94.1479
96.8659
99.684
102.554
105.387
108.038
110.244
111.583
76.1652
47.5097
44.9157
51.425
57.6693
62.7756
67.0539
70.6504
73.7509
76.328
78.6651
80.8092
82.8596
84.9666
87.1923
89.5257
92.0121
94.63
97.3538
100.124
102.858
105.418
107.548
108.837
60.2439
46.3513
43.2571
49.3908
55.5756
60.8696
65.2581
68.9251
71.9418
74.6404
76.9507
79.0517
81.0978
83.1426
85.2635
87.5534
89.9692
92.5069
95.1329
97.8059
100.443
102.913
104.968
106.209
69.0858
46.0751
41.713
47.2201
53.5827
58.8361
63.2992
67.0343
70.281
72.8953
75.2408
77.3648
79.3418
81.3472
83.4593
85.6432
87.9668
90.4097
92.951
95.5331
98.0786
100.464
102.449
103.644
60.3925
45.0356
39.8868
44.8502
51.0519
56.6518
61.3181
65.2303
68.3428
71.1588
73.5204
75.6104
77.6255
79.5973
81.5992
83.7679
86.0409
88.4189
90.8682
93.3583
95.814
98.1148
100.029
101.177
63.9446
44.5001
37.9941
42.0266
48.6915
54.261
59.0744
63.0595
66.5955
69.3331
71.759
73.9326
75.8861
77.8325
79.8737
81.9339
84.1154
86.3998
88.7741
91.1796
93.5488
95.7702
97.6179
98.7205
67.8701
43.9997
35.84
39.0072
45.2052
51.4829
56.6812
61.0727
64.3928
67.4551
69.9658
72.1114
74.1584
76.1075
78.0198
80.0998
82.2549
84.4937
86.7798
89.0977
91.3802
93.5199
95.299
96.3558
56.5497
43.0993
33.7055
34.6783
42.0441
48.2865
53.8624
58.342
62.4474
65.4469
68.0615
70.3828
72.3748
74.3113
76.3322
78.2951
80.3551
82.4952
84.7172
86.9564
89.1564
91.2195
92.9356
93.9474
57.5173
41.3471
30.8163
30.3659
36.0742
44.183
50.5642
55.99
59.7321
63.2822
66.099
68.394
70.5625
72.5537
74.4086
76.4405
78.5075
80.6307
82.7658
84.9202
87.0359
89.0193
90.667
91.6335
50.4181
39.4863
27.4318
20.6473
30.9545
38.7794
46.442
52.0542
57.3961
60.9185
63.9086
66.5306
68.6437
70.6365
72.7077
74.6034
76.564
78.5734
80.6569
82.7382
84.7738
86.683
88.2696
89.1912
32.0936
33.2151
23.2186
10.6474
9.58889
30.3835
40.672
48.9496
53.6176
58.2093
61.6235
64.2165
66.643
68.7664
70.5987
72.6372
74.6545
76.6905
78.6863
80.6833
82.6355
84.4632
85.9804
86.8564
12.4379
13.1078
7.69736
16.0636
4.5947
17.9003
33.024
41.8842
50.5175
55.1339
58.8915
62.0903
64.4483
66.5881
68.817
70.6798
72.5635
74.454
76.4122
78.3412
80.2127
81.9678
83.4254
84.2539
4.94647
7.68549
14.5788
16.3739
17.6207
7.60437
23.7892
36.5899
43.9983
51.3412
55.9989
59.1657
62.0869
64.4891
66.3328
68.4586
70.4815
72.4688
74.3359
76.1771
77.9632
79.6318
81.0159
81.7968
9.64309
11.7642
15.4616
10.2116
19.0401
19.2912
19.6391
10.2449
39.2919
46.5666
52.1514
56.5512
59.3853
61.8073
64.3806
66.2506
68.0804
69.8571
71.7032
73.4813
75.1822
76.7776
78.1027
78.8307
11.318
11.8119
10.3696
19.5519
20.8273
21.3496
12.0055
11.5969
20.4214
40.3972
48.0421
52.4119
56.3089
59.2896
61.1731
63.53
65.6503
67.6554
69.4007
71.0813
72.6914
74.1901
75.4324
76.1106
11.438
20.5132
22.6876
18.4704
18.8581
24.3658
8.01215
21.8018
23.1828
28.4849
41.3293
48.7137
52.6539
55.6148
58.9332
60.8572
62.6534
64.3067
66.0651
67.6894
69.2042
70.6272
71.8118
72.4253
11.6427
21.86
26.7029
29.1745
24.143
14.7107
26.748
24.3619
15.0395
14.0563
33.1182
41.9638
47.9953
52.317
54.235
57.1594
59.5889
61.7436
63.365
64.8728
66.2874
67.5965
68.6815
69.244
11.8777
22.196
27.9377
31.0653
31.9892
25.7132
26.4262
2.87174
10.8739
16.3305
23.5138
34.0527
42.1638
46.3676
51.5841
53.6025
55.3372
56.8544
58.599
60.0694
61.3708
62.6028
63.6393
64.1113
11.343
20.3997
26.8125
31.399
33.2966
33.0248
24.5816
26.8239
24.4148
25.1635
23.7462
20.3856
32.4629
41.4521
43.1333
47.7402
51.1627
53.7828
55.2562
56.5678
57.7593
58.8478
59.7531
60.1821
11.5452
18.5949
25.0397
29.7405
32.8126
33.4782
32.6871
22.1411
22.6453
27.143
5.08092
17.6528
18.9027
27.5403
40.2166
42.2282
43.7229
44.9756
46.9961
48.3707
49.3992
50.4388
51.3436
51.6209
8.58676
16.7623
23.0964
27.7986
30.9668
32.8028
32.284
31.7621
19.9149
6.47854
16.1169
19.578
18.9415
13.581
13.3728
29.545
36.1219
41.528
42.7772
43.7323
44.7887
45.5796
46.2815
46.4617
7.44231
15.3467
20.9725
25.1959
28.3725
30.33
31.3681
30.3381
31.3355
20.6451
29.8397
15.4163
10.0988
19.4649
25.6415
5.75875
27.1161
11.6981
18.7009
22.2529
21.5314
22.3897
23.5819
25.0636
5.0752
13.4641
18.0001
21.541
24.4434
26.7147
27.9414
29.3076
29.066
31.6264
22.1031
29.9306
22.3445
12.6332
18.3243
26.44
8.24127
19.9093
6.11169
29.1399
9.32997
23.8738
24.3638
31.5163
4.96045
12.224
14.7418
16.8752
19.1704
21.4326
23.6571
25.4172
28.2924
29.0929
32.0899
23.2195
29.9143
9.19078
21.344
20.9227
26.9261
5.90153
23.1004
10.4769
24.2809
32.1053
31.0879
7.39512
3.882
11.6948
12.503
13.0692
14.1777
16.2723
18.8405
22.0106
24.5967
28.3564
29.7832
32.4981
24.0837
18.6497
24.5202
19.1715
9.08798
18.903
16.7394
31.1136
18.1314
24.4117
31.5179
18.8876
3.39824
11.5574
11.711
11.894
12.3606
14.0956
16.7233
19.2626
22.53
25.0885
28.8562
30.6067
32.627
26.7941
2.76906
27.4171
29.31
17.3458
27.3046
26.8657
29.7494
27.3649
19.957
4.11674
3.02954
11.1651
11.615
11.738
12.3735
14.604
17.0168
19.2912
21.1343
23.8214
26.0215
29.4739
31.3306
32.3307
31.0503
19.7487
10.1673
31.4302
32.4699
9.85491
20.7578
33.8596
30.9805
24.4692
1.98377
9.46126
11.5509
11.543
12.6533
15.4451
18.018
19.9604
21.793
23.0987
25.1031
26.9755
30.0041
31.8723
32.1793
32.2231
28.6167
23.6023
18.4709
14.8285
12.2698
13.3134
12.5703
11.2979
2.39428
10.1122
11.5353
11.7766
14.2016
17.172
19.4647
21.2912
22.6403
23.9844
24.8229
26.2158
27.8429
30.2439
32.2367
31.9501
31.3353
30.8425
30.49
30.2901
29.8901
29.5462
29.4155
29.6621
3.31486
11.4187
11.5323
13.2594
16.3661
19.0173
21.1054
22.7379
24.1225
25.0397
25.8684
26.2815
27.153
28.5549
30.2903
31.6965
31.4817
30.445
28.8134
27.1271
25.6761
24.8114
24.6575
24.7945
3.48699
11.6013
12.9489
15.9183
18.7101
21.0167
22.8862
24.4359
25.6485
26.64
27.1466
27.4755
27.5295
27.9344
29.0529
29.9964
30.273
29.8905
28.9098
27.6516
26.4123
25.7435
25.7473
26.0237
3.94712
12.0084
15.5949
18.415
20.8259
22.9033
24.671
26.1623
27.4211
28.3022
28.8792
28.9804
28.8522
28.616
28.6142
29.115
29.3096
28.7873
27.3997
25.4746
23.6191
22.6194
22.7001
23.1668
5.81201
14.9105
18.1023
20.5881
22.7959
24.7524
26.4657
27.9661
29.2093
30.1739
30.7027
30.8623
30.5821
30.0487
29.5306
29.1206
28.7967
28.2082
27.0444
25.4381
23.8865
23.1437
23.4241
24.0357
7.94844
16.9604
20.0673
22.4274
24.554
26.4823
28.2177
29.7609
31.0839
32.0695
32.6946
32.8611
32.6125
31.9779
31.0883
30.2019
29.332
28.3223
26.8981
25.0662
23.309
22.4715
22.835
23.5793
10.3624
18.82
21.7583
24.0745
26.2069
28.1604
29.9511
31.5713
32.9531
34.0333
34.7111
34.9804
34.779
34.1334
33.1383
31.8991
30.57
29.1649
27.5665
25.7806
24.1988
23.547
24.0355
24.8423
11.4577
13.1114
15.0931
16.4016
17.3438
17.7049
17.6802
17.2623
16.651
15.8749
15.0795
14.2664
13.5195
12.8372
12.2607
11.801
11.5136
11.5014
11.0943
10.8989
10.8996
11.0965
11.4396
11.639
11.8146
12.2671
12.8446
13.5286
14.2772
15.0924
15.8899
16.6683
17.2819
17.7017
17.7282
17.3674
16.4266
15.1137
13.1306
11.5967
20.0471
20.8493
21.4382
21.728
21.9143
21.9215
21.8957
21.782
21.6729
21.5306
21.4095
21.2807
21.1695
21.0625
20.9719
20.8922
20.8274
20.7776
20.7444
20.7265
20.7267
20.7452
20.7787
20.8294
20.8946
20.9748
21.0658
21.1734
21.285
21.4145
21.5361
21.679
21.7885
21.9032
21.9295
21.9232
21.7376
21.448
20.8605
20.0613
22.8517
23.3781
23.7835
24.0138
24.199
24.2799
24.3466
24.3528
24.3516
24.3168
24.2819
24.2364
24.1948
24.1527
24.1158
24.0842
24.0578
24.0382
24.024
24.0157
24.016
24.0249
24.0397
24.0599
24.0869
24.1191
24.1565
24.1992
24.2412
24.2873
24.3226
24.3579
24.3592
24.3537
24.2869
24.2069
24.0212
23.7922
23.3857
22.8618
25.1573
25.6297
26.0547
26.3239
26.5647
26.7128
26.8476
26.9347
27.0156
27.0694
27.1189
27.1562
27.192
27.223
27.2514
27.277
27.2981
27.315
27.3257
27.3295
27.3299
27.3266
27.3167
27.3005
27.2799
27.2549
27.2272
27.1969
27.1616
27.1249
27.0758
27.0225
26.9418
26.8553
26.7205
26.5731
26.3318
26.0636
25.6373
25.1669
27.3086
27.7538
28.2066
28.5035
28.803
29.0171
29.2317
29.399
29.5666
29.7073
29.8453
29.9686
30.0871
30.1955
30.2947
30.3825
30.456
30.513
30.5509
30.5679
30.5684
30.552
30.5148
30.4584
30.3856
30.2985
30.1999
30.0922
29.9743
29.8514
29.714
29.5737
29.4064
29.2397
29.0252
28.8116
28.5119
28.2155
27.7621
27.3177
29.3063
29.7395
30.2398
30.5788
30.9492
31.2295
31.5242
31.7697
32.0204
32.2437
32.4648
32.669
32.8649
33.0454
33.2106
33.3556
33.4769
33.5706
33.6328
33.6611
33.6614
33.6339
33.5723
33.4795
33.3588
33.2144
33.05
32.8701
32.6747
32.4711
32.2506
32.0277
31.7774
31.5323
31.238
30.9579
30.5875
30.2486
29.748
29.3149
31.166
31.5996
32.1585
32.5349
32.9694
33.3072
33.6698
33.9823
34.3025
34.5954
34.8853
35.1563
35.4157
35.655
35.8731
36.064
36.223
36.345
36.4256
36.4619
36.4623
36.4267
36.3467
36.2255
36.0672
35.8771
35.6596
35.4209
35.1622
34.8918
34.6024
34.31
33.9901
33.6782
33.3157
32.9781
32.5437
32.1672
31.6082
31.1743
32.8566
33.2923
33.8988
34.3059
34.7897
35.1737
35.5885
35.9537
36.3275
36.6741
37.0163
37.3379
37.6445
37.9274
38.184
38.4077
38.5934
38.7352
38.8286
38.8701
38.8705
38.8297
38.737
38.596
38.411
38.1879
37.932
37.6499
37.3438
37.0228
36.6811
36.3351
35.9617
35.5968
35.1822
34.7983
34.3146
33.9074
33.3007
32.8646
34.313
34.738
35.3885
35.8154
36.3392
36.7578
37.2129
37.6182
38.0323
38.4188
38.7993
39.1572
39.4972
39.81
40.0927
40.3383
40.5413
40.6958
40.7972
40.842
40.8424
40.7983
40.6976
40.5438
40.3415
40.0967
39.8146
39.5025
39.1632
38.8058
38.4259
38.0398
37.6261
37.2213
36.7664
36.3479
35.8241
35.3971
34.7463
34.3209
35.4444
35.8746
36.5575
37.0079
37.5632
38.0134
38.501
38.9396
39.3855
39.8034
40.2126
40.5974
40.9611
41.2946
41.5946
41.8542
42.0679
42.2301
42.3362
42.383
42.3834
42.3373
42.232
42.0706
41.8576
41.5987
41.2994
40.9665
40.6035
40.2192
39.8105
39.3932
38.9476
38.5093
38.022
37.5718
37.0166
36.5659
35.8828
35.4519
36.2098
36.6405
37.3713
37.8453
38.4379
38.9191
39.4401
39.9098
40.3854
40.8308
41.2647
41.6716
42.054
42.4033
42.716
42.9854
43.2063
43.3735
43.4827
43.5308
43.5312
43.4838
43.3754
43.209
42.9888
42.7201
42.4082
42.0595
41.6777
41.2715
40.8381
40.3931
39.9179
39.4485
38.9277
38.4465
37.8539
37.3797
36.6486
36.2173
36.551
37.0196
37.7995
38.3154
38.9496
39.4704
40.0278
40.5317
41.0379
41.5112
41.9691
42.3966
42.796
43.1591
43.4825
43.7598
43.9866
44.1578
44.2695
44.319
44.3194
44.2707
44.1597
43.9894
43.7634
43.4867
43.164
42.8017
42.4028
41.9759
41.5186
41.0458
40.54
40.0362
39.4791
38.9583
38.3241
37.808
37.0279
36.5584
36.4482
36.9746
37.8244
38.3966
39.0834
39.6527
40.2527
40.7958
41.3357
41.8389
42.3217
42.7704
43.1868
43.5635
43.8971
44.1822
44.4144
44.5895
44.7038
44.7548
44.7552
44.705
44.5915
44.4173
44.1859
43.9015
43.5686
43.1927
42.7769
42.3288
41.8465
41.3438
40.8043
40.2614
39.6615
39.0924
38.4054
37.8332
36.9829
36.4556
35.8721
36.4651
37.4042
38.0507
38.8024
39.4295
40.0795
40.6671
41.2448
41.7809
42.291
42.7625
43.1972
43.5882
43.933
44.2263
44.4646
44.6439
44.7611
44.8141
44.8146
44.7625
44.646
44.4676
44.2301
43.9376
43.5936
43.2032
42.7692
42.2984
41.7888
41.2533
40.6759
40.0885
39.4388
38.8118
38.0599
37.4132
36.4736
35.8798
34.8384
35.481
36.4839
37.2231
38.0477
38.7439
39.4485
40.087
40.7065
41.2793
41.8199
42.3168
42.7721
43.1798
43.5374
43.8407
44.0864
44.2711
44.3921
44.4475
44.448
44.3935
44.2734
44.0895
43.8448
43.5423
43.1854
42.7785
42.3239
41.8276
41.2876
40.7153
40.0962
39.4581
38.7536
38.0574
37.2327
36.4932
35.4896
34.8458
33.4568
34.0498
35.0688
35.8681
36.7626
37.5339
38.2961
38.9884
39.6521
40.2649
40.8387
41.3644
41.8432
42.2705
42.6438
42.9594
43.2146
43.4064
43.5323
43.5907
43.5912
43.5338
43.4088
43.218
42.9637
42.6489
42.2764
41.8501
41.372
40.847
40.2738
39.6615
38.9982
38.3063
37.5443
36.773
35.8784
35.0783
34.0582
33.4633
31.8459
32.2812
33.2288
34.0222
34.9447
35.7711
36.588
37.329
38.0347
38.6859
39.293
39.8482
40.3523
40.801
41.1922
41.5225
41.7892
41.9896
42.1216
42.1837
42.1843
42.1232
41.9923
41.7929
41.5271
41.1978
40.8076
40.3598
39.8564
39.3019
38.6954
38.0448
37.3397
36.5989
35.7822
34.9556
34.0326
33.2381
32.2889
31.8503
30.099
30.3063
31.0984
31.8067
32.6929
33.5233
34.3653
35.14
35.8748
36.5548
37.1884
37.7686
38.2953
38.7642
39.1727
39.5176
39.7962
40.0059
40.1444
40.2104
40.211
40.1462
40.0087
39.8002
39.5228
39.1789
38.7714
38.3035
37.7778
37.1984
36.5655
35.886
35.1515
34.377
33.5349
32.7038
31.8164
31.1059
30.31
30.0976
28.2104
28.2233
28.8343
29.4132
30.211
30.9925
31.8149
32.5905
33.3311
34.0207
34.6659
35.2591
35.7992
36.281
36.7018
37.0575
37.3454
37.5624
37.7064
37.7757
37.7763
37.7083
37.5656
37.3497
37.0631
36.7084
36.2888
35.8079
35.2688
34.6763
34.0318
33.3426
32.6021
31.8262
31.0031
30.2203
29.4204
28.838
28.2227
28.2025
26.2185
26.1597
26.6259
27.0997
27.7989
28.5107
29.2833
30.0298
30.7549
31.4349
32.0751
32.667
33.2081
33.6925
34.1166
34.4762
34.7676
34.9878
35.1344
35.2055
35.2062
35.1364
34.9913
34.7724
34.4822
34.1239
33.7009
33.2175
32.6774
32.0864
31.4468
30.767
30.042
29.2949
28.5214
27.8078
27.1063
26.6286
26.1584
26.209
24.5103
24.5096
24.8923
25.3308
25.9571
26.6165
27.3339
28.0383
28.7273
29.3811
30.0007
30.5767
31.1051
31.5797
31.996
32.3498
32.6369
32.8541
32.999
33.0696
33.0704
33.0011
32.8576
32.6417
32.3558
32.0034
31.5882
31.1146
30.5872
30.0119
29.3928
28.7391
28.0498
27.3446
26.6258
25.9644
25.3352
24.8927
24.5049
24.4984
23.8145
23.9018
24.2478
24.6841
25.2554
25.8689
26.5225
27.1696
27.8064
28.4185
29.0007
29.5446
30.0444
30.4943
30.8896
31.2257
31.4988
31.7055
31.8434
31.9105
31.9111
31.8453
31.7086
31.503
31.2311
30.8961
30.5018
30.0527
29.5535
29.0103
28.4283
27.8162
27.1789
26.5305
25.8752
25.2592
24.6852
24.2446
23.8943
23.8009
24.3386
24.4446
24.7767
25.1861
25.7065
26.2603
26.8451
27.43
28.0107
28.5719
29.1076
29.6088
30.0703
30.4861
30.8518
31.1628
31.4157
31.607
31.7345
31.7961
31.7967
31.7358
31.6093
31.4189
31.1668
30.8566
30.4915
30.0763
29.6153
29.1143
28.5787
28.0172
27.436
26.8501
26.2637
25.7073
25.1846
24.7705
24.4372
24.3202
25.1999
25.2947
25.6189
25.9973
26.4837
26.9932
27.5377
28.0829
28.6264
29.152
29.6541
30.1244
30.5577
30.9484
31.292
31.5845
31.8223
32.0022
32.1218
32.1794
32.18
32.1232
32.0044
31.8253
31.5884
31.2967
30.9537
30.5636
30.1307
29.6608
29.1588
28.633
28.0892
27.543
26.9973
26.485
25.9963
25.6127
25.2855
25.1816
64.5301
49.943
53.6906
62.0104
68.4305
73.5422
77.6552
81.1176
84.1767
86.9571
89.5863
92.1077
94.6191
97.218
99.9608
102.868
105.953
109.198
112.567
115.997
119.378
122.54
125.17
126.775
63.7659
49.4063
52.2454
60.3316
66.691
71.7898
75.8897
79.3365
82.3678
85.124
87.6619
90.1021
92.5324
95.0319
97.6683
100.481
103.461
106.596
109.848
113.16
116.428
119.483
122.025
123.575
63.3404
48.9734
50.8158
58.6532
64.9529
70.0041
74.1152
77.5847
80.6198
83.2888
85.782
88.1452
90.4785
92.8916
95.4412
98.141
101.012
104.033
107.174
110.371
113.525
116.476
118.93
120.425
62.5467
48.3495
49.3311
56.9016
63.1551
68.2423
72.3789
75.85
78.8462
81.5281
83.9389
86.226
88.4934
90.8136
93.2571
95.8742
98.6459
101.564
104.591
107.675
110.718
113.566
115.934
117.376
62.1894
47.9684
47.8725
55.152
61.3908
66.4422
70.609
74.1226
77.1641
79.7631
82.1489
84.3809
86.5561
88.8015
91.176
93.6826
96.3519
99.1624
102.086
105.062
107.999
110.747
113.034
114.423
60.4202
47.3205
46.3612
53.3036
59.4988
64.6428
68.8756
72.4156
75.4011
78.0626
80.3914
82.5578
84.692
86.8579
89.1279
91.5689
94.1516
96.8709
99.6884
102.559
105.392
108.043
110.25
111.588
60.3073
46.7662
44.8616
51.416
57.6684
62.783
67.0568
70.6509
73.7531
76.331
78.667
80.813
82.864
84.9697
87.1959
89.5295
92.0165
94.6331
97.3581
100.129
102.863
105.423
107.554
108.843
56.144
46.3176
43.2553
49.3902
55.5763
60.8628
65.2582
68.9294
71.9451
74.643
76.9552
79.0549
81.1006
83.1467
85.2674
87.557
89.9722
92.5123
95.1373
97.8109
100.448
102.918
104.973
106.215
68.5357
45.9425
41.7131
47.214
53.5789
58.8464
63.3031
67.0342
70.283
72.899
75.2427
77.368
79.3455
81.3504
83.4628
85.6471
87.9722
90.4129
92.9558
95.5377
98.0844
100.47
102.455
103.65
59.1928
44.5379
39.7682
44.8368
51.0539
56.6403
61.3171
65.2363
68.3468
71.161
73.5251
75.6148
77.63
79.6013
81.6032
83.7715
86.0426
88.4248
90.8726
93.3634
95.819
98.1208
100.035
101.183
67.6918
45.0404
38.0227
42.0297
48.6846
54.2772
59.0798
63.0566
66.5964
69.3375
71.7608
73.934
75.8869
77.8357
79.877
81.9381
84.1224
86.402
88.7789
91.1848
93.5546
95.7759
97.6239
98.7272
56.6913
43.2271
35.8019
38.9787
45.2037
51.4575
56.6759
61.0822
64.3986
67.4567
69.9709
72.1179
74.167
76.1116
78.0239
80.103
82.2547
84.5005
86.7841
89.1032
91.3857
93.526
95.3051
96.3625
54.7621
42.3499
33.4874
34.6566
42.033
48.3272
53.8747
58.3349
62.4458
65.4519
68.0625
70.382
72.3706
74.3142
76.3353
78.2996
80.3645
82.4964
84.7222
86.9616
89.1627
91.2262
92.9421
93.9547
52.028
41.153
30.8068
30.3571
36.0745
44.0945
50.5417
56.0021
59.741
63.2833
66.1057
68.4026
70.576
72.5584
74.4131
76.4437
78.5046
80.639
82.7702
84.9262
87.0419
89.026
90.6732
91.6408
50.6317
39.8056
27.6354
20.4133
30.9003
38.9312
46.4836
52.0478
57.3909
60.9242
63.9064
66.5285
68.6363
70.6385
72.7103
74.6077
76.5762
78.5727
80.6622
82.7436
84.7812
86.6902
88.2771
89.199
32.4534
33.5595
23.6148
13.275
9.99586
30.4956
40.7063
48.9541
53.6307
58.2095
61.6377
64.226
66.6564
68.7722
70.6039
72.6411
74.6497
76.702
78.691
80.6901
82.642
84.4714
85.9872
86.8644
3.9041
13.5249
12.3034
7.57623
7.26713
7.20236
32.0978
41.8536
50.5068
55.1416
58.8738
62.0875
64.4472
66.5896
68.8185
70.6822
72.5758
74.449
76.4179
78.3471
80.2217
81.9757
83.4343
84.2631
10.6953
7.83098
7.89469
16.8022
17.7275
19.3099
19.2343
36.5595
44.0204
51.3408
56.0437
59.1809
62.087
64.4948
66.3398
68.4663
70.4812
72.4876
74.3412
76.1853
77.9703
79.6419
81.0232
81.8064
7.74069
7.4648
15.9161
10.7216
10.2178
8.41633
10.8758
14.1972
39.3845
46.5826
52.0913
56.531
59.4046
61.8103
64.3797
66.2474
68.0808
69.8432
71.7098
73.4881
75.1944
76.787
78.1135
78.8423
3.32228
11.3136
10.6094
11.1093
4.88475
21.2279
20.9185
21.1237
19.6798
40.3247
48.1102
52.4748
56.2874
59.2938
61.1839
63.5454
65.6736
67.6868
69.407
71.0918
72.6993
74.2036
75.441
76.122
11.6999
20.5914
22.6804
18.1524
9.91783
24.133
6.46603
21.9382
14.2889
29.1996
41.4306
48.6098
52.6953
55.6198
58.9272
60.8467
62.6216
64.2795
66.0731
67.6979
69.2223
70.6386
71.8254
72.4411
11.5092
21.8911
26.7732
29.2605
24.7013
22.2662
21.5543
25.4102
14.8121
4.54838
32.7272
42.1461
47.9532
52.3205
54.2538
57.1796
59.6384
61.7918
63.3727
64.8868
66.2958
67.6163
68.6939
69.2586
11.5655
22.2455
28.0194
31.1708
32.0476
26.0023
29.357
2.09614
25.0309
23.1233
18.9917
34.0527
42.2544
46.3903
51.5705
53.6001
55.3414
56.8148
58.6111
60.0825
61.4015
62.6171
63.6546
64.135
11.9145
20.4865
26.8949
31.4866
33.4211
33.0344
25.7398
23.3635
17.4047
19.9529
17.767
17.5739
32.5277
41.3589
43.1592
47.7285
51.0124
53.8428
55.2633
56.5886
57.7687
58.8815
59.7796
60.2059
11.401
18.6716
25.1301
29.8376
32.8993
33.6117
32.7112
21.6154
21.8115
17.3254
24.7201
2.9196
15.3372
28.3431
40.2172
42.3564
44.2403
44.946
47.0393
48.3921
49.4598
50.4595
51.3461
51.6437
8.87362
16.8357
23.1651
27.8762
31.0602
32.8811
32.3923
31.9172
19.6317
23.0415
8.283
10.5517
18.5343
25.6561
13.4796
28.7563
35.6759
41.507
42.6646
43.8552
44.8032
45.6489
46.3778
46.6448
7.28308
15.3632
21.0253
25.2665
28.4497
30.4215
31.4432
30.3876
31.4899
20.2773
10.4595
9.1909
10.8317
5.08663
24.6705
15.7434
14.647
14.2458
20.4527
20.7133
21.7985
22.4718
23.8813
23.7067
5.34576
13.5179
18.0489
21.6021
24.5202
26.7942
28.0329
29.4091
29.0923
31.6331
21.4473
27.1993
10.7107
25.2389
25.527
20.6846
19.7483
27.9839
28.4587
22.447
9.36068
23.8968
11.1506
11.3034
4.80501
12.193
14.7629
16.9261
19.2397
21.5174
23.738
25.4841
28.3922
29.1894
32.1878
22.6555
11.8507
12.9068
14.5053
11.0403
27.8057
20.5734
11.0861
30.8514
22.2741
30.9653
23.7807
23.4397
3.96725
11.6725
12.5231
13.0954
14.2227
16.3316
18.9121
22.0928
24.652
28.4093
29.8338
32.5614
23.6693
22.8617
21.1124
20.3054
9.19139
18.595
9.70699
23.8189
25.0396
3.37959
31.9504
26.6408
3.33215
11.2679
11.6901
11.8987
12.3751
14.1223
16.7528
19.2937
22.5893
25.1554
28.9202
30.6596
32.6848
26.6959
30.7527
17.2833
29.1288
7.34421
12.9844
28.3124
12.9151
28.4885
31.7688
20.6492
2.98887
11.2423
11.6208
11.7609
12.3992
14.6262
17.0352
19.3156
21.1545
23.8518
26.0626
29.5192
31.3927
32.3566
30.712
19.1674
12.6728
6.85146
24.446
20.7464
27.5785
9.48579
32.2646
22.6105
2.01289
9.52527
11.5518
11.6824
12.674
15.459
18.0288
19.9677
21.8098
23.1225
25.1342
27.0102
30.0412
31.9424
32.1743
32.3349
28.2576
23.2041
16.9973
14.2127
12.9244
12.4705
13.1096
11.7487
2.39549
10.1165
11.4827
11.6845
14.2158
17.1805
19.4707
21.2993
22.6455
23.9911
24.8347
26.236
27.869
30.2814
32.2713
31.9961
31.4134
30.9602
30.5372
30.3082
29.907
29.6677
29.6555
29.8
3.3159
11.4296
11.5397
13.2658
16.3687
19.019
21.107
22.7387
24.1268
25.0462
25.8764
26.2905
27.1699
28.5756
30.3133
31.7437
31.4876
30.5181
28.8673
27.2494
25.7997
24.8741
24.7356
24.8777
3.49627
11.6488
12.9549
15.9205
18.7097
21.0155
22.885
24.436
25.6478
26.6397
27.1477
27.4792
27.5339
27.9493
29.0669
30.0305
30.305
29.9546
28.9581
27.7044
26.5007
25.8168
25.8229
26.1304
3.94278
11.9978
15.5875
18.4088
20.821
22.899
24.6674
26.1589
27.4192
28.3012
28.8788
28.9799
28.854
28.6183
28.6244
29.1363
29.3301
28.8453
27.4542
25.5413
23.6945
22.674
22.7651
23.2275
5.80617
14.9045
18.0983
20.5841
22.7908
24.747
26.4605
27.9618
29.2049
30.1696
30.699
30.8594
30.5792
30.0484
29.5316
29.1301
28.8131
28.2456
27.0791
25.4697
23.9324
23.185
23.4505
24.0842
7.93846
16.9501
20.0571
22.4183
24.5461
26.4752
28.2112
29.7546
31.0783
32.0644
32.6897
32.856
32.6081
31.9736
31.0861
30.2034
29.338
28.3442
26.9269
25.0971
23.3415
22.4997
22.8715
23.6135
10.3453
18.8115
21.7519
24.0681
26.1995
28.1528
29.9436
31.5643
32.9461
34.0266
34.7044
34.974
34.7725
34.1272
33.1328
31.8959
30.57
29.1752
27.5815
25.7949
24.2193
23.5686
24.0498
24.8659
63.9602
63.9877
67.9425
75.3855
74.3522
67.7551
65.7563
52.702
54.4177
43.4761
24.4309
45.891
19.82
19.9006
15.5217
13.9676
14.549
13.9161
13.5549
13.4074
13.4081
13.5384
14.0747
13.6582
16.5834
10.939
21.793
8.58591
38.5765
49.2347
50.2193
61.4858
61.3215
58.286
59.0915
60.1323
76.4905
77.8868
70.1601
66.0534
49.6542
47.6438
46.688
44.7059
43.4466
41.2676
40.2709
37.755
36.4413
34.6865
34.452
33.2519
33.1479
31.9587
31.7724
31.2994
30.8644
30.5937
30.3941
30.2731
30.273
30.3953
30.5801
30.9268
31.1452
31.9404
31.9602
33.0688
33.1592
34.5969
34.7244
36.7553
37.5534
40.0584
41.0293
43.3226
44.8098
46.9696
47.9813
49.9086
54.2471
52.6901
52.2183
50.7466
50.19
48.8555
48.2598
47.1153
46.5258
45.5339
44.8776
44.0651
43.4945
42.929
42.4026
41.9731
41.6451
41.3734
41.1887
41.0856
41.0855
41.1881
41.3766
41.6314
41.9974
42.3898
42.9139
43.5097
44.083
44.8357
45.5253
46.5149
47.1345
48.268
48.8625
50.1988
50.7579
52.2278
52.6844
54.26
62.6736
61.175
60.6559
59.2173
58.568
57.25
56.5415
55.38
54.6691
53.7011
53.0254
52.231
51.6321
51.0195
50.5367
50.1018
49.7548
49.4895
49.3061
49.2037
49.2037
49.306
49.4883
49.7577
50.0957
50.5396
51.0213
51.6328
52.2222
53.0174
53.6973
54.671
55.3793
56.5399
57.2471
58.5673
59.2139
60.6529
61.1685
62.6737
69.0796
67.5349
66.9352
65.4754
64.7546
63.4379
62.6611
61.518
60.739
59.7806
59.047
58.2664
57.63
57.0244
56.5138
56.0755
55.7252
55.4542
55.2684
55.167
55.1669
55.2681
55.4543
55.7233
56.077
56.5129
57.0223
57.6281
58.2659
59.0425
59.7783
60.7367
61.5172
62.6596
63.4366
64.7539
65.4735
66.9348
67.5317
69.0811
74.1745
72.5894
71.9139
70.4433
69.649
68.3423
67.4977
66.3705
65.5385
64.5894
63.8235
63.0428
62.3866
61.7731
61.2578
60.8124
60.4551
60.1815
59.994
59.8923
59.8922
59.9938
60.181
60.4552
60.811
61.2572
61.7723
62.3858
63.0403
63.8207
64.5874
65.5373
66.3697
67.4962
68.3412
69.6469
70.4415
71.9115
72.5869
74.1734
78.2435
76.6403
75.888
74.4244
73.5654
72.275
71.3805
70.2649
69.3996
68.4528
67.6678
66.8856
66.2187
65.6021
65.0786
64.6306
64.27
63.9936
63.8044
63.7026
63.7025
63.8042
63.9934
64.2692
64.6302
65.0777
65.6009
66.2172
66.8843
67.6661
68.4511
69.398
70.2633
71.3785
72.2733
73.5628
74.4228
75.8849
76.6391
78.2405
81.6655
80.0533
79.2426
77.7852
76.8813
75.5975
74.6718
73.5576
72.6718
71.722
70.9232
70.1365
69.4596
68.838
68.3087
67.8556
67.4903
67.2106
67.0187
66.915
66.9149
67.0185
67.2101
67.4898
67.8547
68.3078
68.8371
69.4586
70.1351
70.9215
71.7203
72.6702
73.5557
74.6701
75.5955
76.8792
77.783
79.24
80.0514
81.6624
84.7091
83.0675
82.2264
80.7566
79.8285
78.5375
77.5924
76.4719
75.5702
74.6142
73.8024
73.0093
72.3224
71.6942
71.1571
70.6982
70.3273
70.0427
69.8467
69.7397
69.7396
69.8464
70.0423
70.3267
70.6975
71.1562
71.6931
72.3212
73.0079
73.8009
74.6125
75.5684
76.4701
77.5904
78.5354
79.8262
80.7541
82.2239
83.0649
84.7066
87.5267
85.8284
84.9806
83.4834
82.5403
81.2348
80.2723
79.1416
78.2236
77.2583
76.4328
75.6305
74.9325
74.2957
73.7499
73.2836
72.9059
72.6155
72.4145
72.3031
72.303
72.4142
72.615
72.9053
73.2829
73.749
74.2947
74.9314
75.6291
76.4312
77.2566
78.2218
79.1397
80.2702
81.2327
82.5377
83.4812
84.9775
85.8263
87.5232
90.1727
88.4359
87.5706
86.0508
85.0879
83.7664
82.7849
81.6405
80.7054
79.7273
78.8871
78.0731
77.3629
76.7159
76.1602
75.6854
75.3001
75.0031
74.7964
74.68
74.6799
74.7961
75.0027
75.2995
75.6847
76.1593
76.7148
77.3617
78.0717
78.8856
79.7256
80.7035
81.6384
82.7828
83.7641
85.0853
86.0484
87.5676
88.4335
90.1691
92.741
90.9411
90.08
88.519
87.5488
86.1995
85.2048
84.0401
83.0898
82.0958
81.2409
80.4137
79.6907
79.0325
78.4665
77.9828
77.5895
77.2857
77.0731
76.9514
76.9513
77.0728
77.2852
77.5889
77.982
78.4655
79.0315
79.6894
80.4123
81.2394
82.0941
83.0879
84.038
85.2026
86.197
87.5463
88.5162
90.0772
90.9381
92.738
95.3085
93.4418
92.5864
90.9838
90.0042
88.6282
87.6173
86.4333
85.4654
84.4557
83.5847
82.744
82.0074
81.3378
80.761
80.2683
79.8669
79.5562
79.3377
79.2107
79.2106
79.3374
79.5558
79.8663
80.2675
80.7601
81.3368
82.0061
82.7426
83.5831
84.454
85.4635
86.4313
87.615
88.6258
90.0016
90.981
92.5837
93.4386
95.3056
97.9568
96.0283
95.1737
93.5309
92.5388
91.1355
90.1065
88.9018
87.9152
86.8882
86.0002
85.1447
84.3939
83.7121
83.1241
82.6217
82.212
81.8944
81.67
81.5378
81.5377
81.6697
81.8939
82.2114
82.621
83.1232
83.711
84.3926
85.1433
85.9986
86.8865
87.9132
88.8997
90.1042
91.1331
92.536
93.5282
95.1706
96.0253
97.9534
100.75
98.7565
97.9015
96.2152
95.2091
93.7751
92.7265
91.4983
90.4914
89.4451
88.5384
87.6667
86.9004
86.2051
85.6049
85.0922
84.6736
84.3487
84.1183
83.981
83.9809
84.118
84.3483
84.673
85.0914
85.6039
86.204
86.8991
87.6654
88.537
89.4433
90.4896
91.4965
92.7242
93.7727
95.2063
96.2123
97.8986
98.7531
100.747
103.722
101.65
100.799
99.0612
98.041
96.5725
95.5024
94.2475
93.2182
92.1499
91.2228
90.3331
89.5493
88.8395
88.2259
87.7021
87.274
86.9414
86.7046
86.5623
86.5623
86.7042
86.9409
87.2732
87.7013
88.2251
88.8382
89.5481
90.3314
91.2215
92.1482
93.2161
94.2458
95.5001
96.5703
98.0382
99.0584
100.796
101.646
103.718
106.866
104.718
103.864
102.076
101.036
99.532
98.4361
97.1535
96.0984
95.0067
94.0567
93.1467
92.3446
91.6181
90.9903
90.4538
90.0155
89.6745
89.4317
89.2842
89.2842
89.4313
89.6741
90.0151
90.453
90.9891
91.6168
92.3429
93.1455
94.0551
95.005
96.0963
97.1513
98.4339
99.5294
101.033
102.073
103.861
104.715
106.863
110.172
107.944
107.084
105.244
104.182
102.64
101.516
100.203
99.1205
98.0037
97.029
96.0978
95.2748
94.531
93.8874
93.3383
92.8889
92.5393
92.2895
92.1372
92.1372
92.2891
92.5389
92.8881
93.3375
93.8866
94.5299
95.2736
96.0962
97.0274
98.0017
99.1185
100.201
101.514
102.637
104.179
105.241
107.081
107.941
110.168
113.601
111.294
110.425
108.533
107.445
105.865
104.711
103.367
102.254
101.111
100.11
99.1561
98.3118
97.5496
96.8898
96.3267
95.8659
95.5073
95.2508
95.0934
95.0934
95.2505
95.5069
95.8651
96.3255
96.8886
97.5484
98.3103
99.1546
100.108
101.109
102.252
103.365
104.708
105.863
107.441
108.53
110.422
111.29
113.597
117.091
114.705
113.825
111.881
110.765
109.148
107.961
106.587
105.443
104.272
103.245
102.267
101.401
100.62
99.9431
99.3657
98.8936
98.5256
98.262
98.0999
98.0999
98.2617
98.5252
98.8928
99.365
99.942
100.619
101.4
102.266
103.243
104.27
105.441
106.584
107.959
109.145
110.762
111.878
113.821
114.701
117.087