/*--------------------------------*- C++ -*----------------------------------*\
  =========                 |
  \\      /  F ield         | OpenFOAM: The Open Source CFD Toolbox
   \\    /   O peration     | Website:  https://openfoam.org
    \\  /    A nd           | Version:  6
     \\/     M anipulation  |
\*---------------------------------------------------------------------------*/
FoamFile
{
    version     2.0;
    format      ascii;
    class       volScalarField;
    location    "40";
    object      nut;
}
// * * * * * * * * * * * * * * * * * * * * * * * * * * * * * * * * * * * * * //

dimensions      [0 2 -1 0 0 0 0];

internalField   nonuniform List<scalar> 
3240
(
1.13912e-08
1.13914e-08
1.13916e-08
1.46753e-09
1.46766e-09
1.46769e-09
2.26889e-09
2.2691e-09
2.26914e-09
3.1572e-09
3.1575e-09
3.15759e-09
4.05129e-09
4.05166e-09
4.05181e-09
4.9502e-09
4.95063e-09
4.95082e-09
5.85992e-09
5.86038e-09
5.86061e-09
6.78684e-09
6.78733e-09
6.78758e-09
7.73294e-09
7.73345e-09
7.7337e-09
8.68761e-09
8.68809e-09
8.68837e-09
9.6183e-09
9.61872e-09
9.61906e-09
1.04691e-08
1.04694e-08
1.04699e-08
1.11751e-08
1.11754e-08
1.11759e-08
1.16898e-08
1.169e-08
1.16905e-08
1.1978e-08
1.19782e-08
1.19787e-08
1.1978e-08
1.19782e-08
1.19787e-08
1.16897e-08
1.16899e-08
1.16905e-08
1.11751e-08
1.11754e-08
1.11759e-08
1.04692e-08
1.04695e-08
1.047e-08
9.61861e-09
9.61902e-09
9.61936e-09
8.68772e-09
8.6882e-09
8.68848e-09
7.73304e-09
7.73355e-09
7.7338e-09
6.78674e-09
6.78723e-09
6.78747e-09
5.8596e-09
5.86006e-09
5.86029e-09
4.94979e-09
4.95021e-09
4.9504e-09
4.0509e-09
4.05128e-09
4.05142e-09
3.15686e-09
3.15716e-09
3.15725e-09
2.26853e-09
2.26874e-09
2.26878e-09
1.46731e-09
1.46744e-09
1.46747e-09
1.13897e-08
1.13899e-08
1.13901e-08
9.96367e-06
9.96374e-06
9.9638e-06
1.97621e-07
1.97636e-07
1.97639e-07
2.79999e-07
2.80021e-07
2.80025e-07
3.63929e-07
3.63958e-07
3.63965e-07
4.41542e-07
4.41575e-07
4.41587e-07
5.14102e-07
5.14136e-07
5.14151e-07
5.82932e-07
5.82967e-07
5.82983e-07
6.49025e-07
6.4906e-07
6.49077e-07
7.12849e-07
7.12884e-07
7.129e-07
7.73983e-07
7.74014e-07
7.74031e-07
8.30772e-07
8.30796e-07
8.30817e-07
8.80492e-07
8.80509e-07
8.80534e-07
9.2028e-07
9.20293e-07
9.2032e-07
9.48488e-07
9.48498e-07
9.48526e-07
9.64004e-07
9.64013e-07
9.64041e-07
9.64002e-07
9.6401e-07
9.64039e-07
9.48484e-07
9.48495e-07
9.48523e-07
9.20279e-07
9.20292e-07
9.2032e-07
8.80497e-07
8.80515e-07
8.80539e-07
8.3079e-07
8.30814e-07
8.30835e-07
7.7399e-07
7.74021e-07
7.74038e-07
7.12856e-07
7.1289e-07
7.12906e-07
6.49018e-07
6.49054e-07
6.4907e-07
5.82909e-07
5.82944e-07
5.8296e-07
5.14069e-07
5.14103e-07
5.14119e-07
4.4151e-07
4.41543e-07
4.41555e-07
3.63899e-07
3.63927e-07
3.63935e-07
2.79964e-07
2.79985e-07
2.79989e-07
1.97597e-07
1.97611e-07
1.97615e-07
9.96325e-06
9.96332e-06
9.96338e-06
1.20054e-05
1.20055e-05
1.20056e-05
1.59152e-06
1.5916e-06
1.59161e-06
1.86248e-06
1.86257e-06
1.86258e-06
2.12247e-06
2.12257e-06
2.12259e-06
2.33527e-06
2.33537e-06
2.3354e-06
2.51735e-06
2.51745e-06
2.51749e-06
2.67912e-06
2.67922e-06
2.67925e-06
2.82684e-06
2.82694e-06
2.82697e-06
2.96398e-06
2.96407e-06
2.9641e-06
3.09129e-06
3.09137e-06
3.0914e-06
3.20663e-06
3.20668e-06
3.20672e-06
3.30559e-06
3.30562e-06
3.30567e-06
3.38348e-06
3.3835e-06
3.38355e-06
3.43799e-06
3.438e-06
3.43806e-06
3.46772e-06
3.46773e-06
3.46779e-06
3.46772e-06
3.46772e-06
3.46778e-06
3.43798e-06
3.43799e-06
3.43805e-06
3.38348e-06
3.3835e-06
3.38355e-06
3.3056e-06
3.30563e-06
3.30568e-06
3.20667e-06
3.20672e-06
3.20676e-06
3.09131e-06
3.09138e-06
3.09142e-06
2.964e-06
2.96409e-06
2.96412e-06
2.82683e-06
2.82692e-06
2.82696e-06
2.67907e-06
2.67917e-06
2.6792e-06
2.51728e-06
2.51738e-06
2.51741e-06
2.33519e-06
2.33529e-06
2.33532e-06
2.12239e-06
2.12249e-06
2.12251e-06
1.86236e-06
1.86245e-06
1.86247e-06
1.59142e-06
1.5915e-06
1.59151e-06
1.20049e-05
1.2005e-05
1.20051e-05
1.36827e-05
1.36828e-05
1.36829e-05
3.7356e-06
3.7358e-06
3.73583e-06
4.01115e-06
4.01135e-06
4.01137e-06
4.41396e-06
4.41417e-06
4.41421e-06
4.75107e-06
4.75128e-06
4.75132e-06
5.04035e-06
5.04056e-06
5.04061e-06
5.29718e-06
5.29737e-06
5.29742e-06
5.5314e-06
5.53158e-06
5.53163e-06
5.74859e-06
5.74876e-06
5.7488e-06
5.95003e-06
5.95017e-06
5.95022e-06
6.13236e-06
6.13245e-06
6.13251e-06
6.2885e-06
6.28855e-06
6.28863e-06
6.411e-06
6.41102e-06
6.41111e-06
6.49639e-06
6.49639e-06
6.49649e-06
6.54282e-06
6.54282e-06
6.54291e-06
6.54282e-06
6.54281e-06
6.54291e-06
6.49638e-06
6.49639e-06
6.49648e-06
6.411e-06
6.41102e-06
6.41111e-06
6.28853e-06
6.28857e-06
6.28865e-06
6.13243e-06
6.13252e-06
6.13258e-06
5.95007e-06
5.9502e-06
5.95025e-06
5.74862e-06
5.74879e-06
5.74883e-06
5.53138e-06
5.53157e-06
5.53162e-06
5.2971e-06
5.2973e-06
5.29735e-06
5.04025e-06
5.04045e-06
5.0405e-06
4.75095e-06
4.75117e-06
4.75121e-06
4.41384e-06
4.41405e-06
4.41408e-06
4.01097e-06
4.01116e-06
4.01119e-06
3.73545e-06
3.73565e-06
3.73568e-06
1.36822e-05
1.36823e-05
1.36824e-05
1.51672e-05
1.51673e-05
1.51674e-05
6.57563e-06
6.57606e-06
6.57611e-06
6.6334e-06
6.6338e-06
6.63383e-06
7.16279e-06
7.16319e-06
7.16324e-06
7.63115e-06
7.63153e-06
7.6316e-06
8.03856e-06
8.03893e-06
8.039e-06
8.40196e-06
8.40231e-06
8.40238e-06
8.73412e-06
8.73444e-06
8.73451e-06
9.04261e-06
9.04292e-06
9.04297e-06
9.32913e-06
9.32937e-06
9.32943e-06
9.58864e-06
9.5888e-06
9.58888e-06
9.81075e-06
9.81083e-06
9.81094e-06
9.98456e-06
9.98459e-06
9.98472e-06
1.01053e-05
1.01053e-05
1.01054e-05
1.01708e-05
1.01708e-05
1.01709e-05
1.01708e-05
1.01707e-05
1.01709e-05
1.01053e-05
1.01053e-05
1.01054e-05
9.98457e-06
9.9846e-06
9.98474e-06
9.81079e-06
9.81087e-06
9.81099e-06
9.58875e-06
9.58891e-06
9.58899e-06
9.32919e-06
9.32943e-06
9.32948e-06
9.04267e-06
9.04297e-06
9.04302e-06
8.73411e-06
8.73444e-06
8.7345e-06
8.40187e-06
8.40222e-06
8.40229e-06
8.03843e-06
8.03879e-06
8.03886e-06
7.63101e-06
7.63139e-06
7.63145e-06
7.16264e-06
7.16303e-06
7.16308e-06
6.63314e-06
6.63354e-06
6.63357e-06
6.57546e-06
6.57589e-06
6.57594e-06
1.51666e-05
1.51667e-05
1.51668e-05
1.65378e-05
1.65379e-05
1.6538e-05
1.01785e-05
1.01793e-05
1.01794e-05
9.7327e-06
9.73342e-06
9.73347e-06
1.03421e-05
1.03428e-05
1.03428e-05
1.09389e-05
1.09395e-05
1.09397e-05
1.14719e-05
1.14725e-05
1.14726e-05
1.19523e-05
1.19529e-05
1.1953e-05
1.23938e-05
1.23943e-05
1.23944e-05
1.28053e-05
1.28058e-05
1.28059e-05
1.31886e-05
1.3189e-05
1.31891e-05
1.35364e-05
1.35367e-05
1.35368e-05
1.38341e-05
1.38343e-05
1.38344e-05
1.40666e-05
1.40667e-05
1.40668e-05
1.42276e-05
1.42276e-05
1.42278e-05
1.43146e-05
1.43147e-05
1.43148e-05
1.43146e-05
1.43146e-05
1.43148e-05
1.42276e-05
1.42276e-05
1.42278e-05
1.40666e-05
1.40667e-05
1.40669e-05
1.38342e-05
1.38343e-05
1.38345e-05
1.35366e-05
1.35369e-05
1.3537e-05
1.31887e-05
1.31891e-05
1.31892e-05
1.28054e-05
1.28059e-05
1.2806e-05
1.23938e-05
1.23943e-05
1.23944e-05
1.19522e-05
1.19528e-05
1.19529e-05
1.14718e-05
1.14724e-05
1.14725e-05
1.09388e-05
1.09394e-05
1.09395e-05
1.03419e-05
1.03426e-05
1.03427e-05
9.73239e-06
9.73311e-06
9.73316e-06
1.01784e-05
1.01792e-05
1.01792e-05
1.65372e-05
1.65373e-05
1.65374e-05
1.78385e-05
1.78386e-05
1.78387e-05
1.4589e-05
1.45903e-05
1.45904e-05
1.3355e-05
1.33562e-05
1.33562e-05
1.39626e-05
1.39637e-05
1.39638e-05
1.46721e-05
1.46731e-05
1.46732e-05
1.53335e-05
1.53344e-05
1.53345e-05
1.59397e-05
1.59405e-05
1.59407e-05
1.65017e-05
1.65025e-05
1.65026e-05
1.70286e-05
1.70293e-05
1.70294e-05
1.75213e-05
1.75219e-05
1.7522e-05
1.79694e-05
1.79699e-05
1.797e-05
1.83533e-05
1.83535e-05
1.83537e-05
1.86525e-05
1.86527e-05
1.86529e-05
1.88592e-05
1.88593e-05
1.88596e-05
1.89708e-05
1.89709e-05
1.89711e-05
1.89708e-05
1.89709e-05
1.89711e-05
1.88592e-05
1.88593e-05
1.88596e-05
1.86526e-05
1.86528e-05
1.8653e-05
1.83534e-05
1.83537e-05
1.83539e-05
1.79697e-05
1.79701e-05
1.79703e-05
1.75214e-05
1.75221e-05
1.75221e-05
1.70287e-05
1.70295e-05
1.70296e-05
1.65017e-05
1.65026e-05
1.65027e-05
1.59396e-05
1.59405e-05
1.59406e-05
1.53333e-05
1.53343e-05
1.53344e-05
1.46719e-05
1.4673e-05
1.46731e-05
1.39624e-05
1.39636e-05
1.39637e-05
1.33546e-05
1.33559e-05
1.33559e-05
1.4589e-05
1.45902e-05
1.45903e-05
1.78379e-05
1.7838e-05
1.78381e-05
1.90958e-05
1.9096e-05
1.90961e-05
1.98047e-05
1.98066e-05
1.98068e-05
1.7572e-05
1.75739e-05
1.75739e-05
1.80599e-05
1.80617e-05
1.80618e-05
1.88489e-05
1.88505e-05
1.88506e-05
1.96344e-05
1.96359e-05
1.96361e-05
2.03728e-05
2.03742e-05
2.03744e-05
2.10661e-05
2.10673e-05
2.10675e-05
2.1721e-05
2.17222e-05
2.17223e-05
2.23365e-05
2.23375e-05
2.23376e-05
2.28982e-05
2.2899e-05
2.28991e-05
2.33798e-05
2.33804e-05
2.33806e-05
2.37549e-05
2.37553e-05
2.37556e-05
2.40134e-05
2.40137e-05
2.4014e-05
2.41527e-05
2.41529e-05
2.41533e-05
2.41527e-05
2.41529e-05
2.41533e-05
2.40134e-05
2.40137e-05
2.4014e-05
2.3755e-05
2.37554e-05
2.37557e-05
2.338e-05
2.33805e-05
2.33808e-05
2.28986e-05
2.28993e-05
2.28995e-05
2.23367e-05
2.23377e-05
2.23378e-05
2.17212e-05
2.17224e-05
2.17225e-05
2.10662e-05
2.10674e-05
2.10676e-05
2.03728e-05
2.03741e-05
2.03743e-05
1.96343e-05
1.96358e-05
1.96359e-05
1.88488e-05
1.88503e-05
1.88505e-05
1.80598e-05
1.80616e-05
1.80617e-05
1.75716e-05
1.75735e-05
1.75736e-05
1.98049e-05
1.98067e-05
1.98069e-05
1.90952e-05
1.90953e-05
1.90954e-05
2.0326e-05
2.03261e-05
2.03262e-05
2.57718e-05
2.57743e-05
2.57745e-05
2.24685e-05
2.24712e-05
2.24713e-05
2.26884e-05
2.26911e-05
2.26912e-05
2.35017e-05
2.35041e-05
2.35043e-05
2.43975e-05
2.43997e-05
2.43999e-05
2.52705e-05
2.52726e-05
2.52728e-05
2.61044e-05
2.61063e-05
2.61065e-05
2.69001e-05
2.69019e-05
2.6902e-05
2.76527e-05
2.76543e-05
2.76544e-05
2.83422e-05
2.83434e-05
2.83436e-05
2.89344e-05
2.89353e-05
2.89356e-05
2.93953e-05
2.9396e-05
2.93963e-05
2.97123e-05
2.97129e-05
2.97133e-05
2.9883e-05
2.98836e-05
2.98839e-05
2.9883e-05
2.98836e-05
2.98839e-05
2.97124e-05
2.9713e-05
2.97133e-05
2.93954e-05
2.93961e-05
2.93965e-05
2.89346e-05
2.89355e-05
2.89358e-05
2.83427e-05
2.83439e-05
2.83441e-05
2.7653e-05
2.76545e-05
2.76547e-05
2.69005e-05
2.69022e-05
2.69023e-05
2.61046e-05
2.61065e-05
2.61067e-05
2.52705e-05
2.52725e-05
2.52728e-05
2.43974e-05
2.43996e-05
2.43998e-05
2.35016e-05
2.3504e-05
2.35042e-05
2.26884e-05
2.2691e-05
2.26912e-05
2.24683e-05
2.2471e-05
2.24711e-05
2.57722e-05
2.57747e-05
2.57749e-05
2.03253e-05
2.03254e-05
2.03255e-05
2.15377e-05
2.15379e-05
2.1538e-05
3.23905e-05
3.23937e-05
3.2394e-05
2.81298e-05
2.81336e-05
2.81337e-05
2.79183e-05
2.79221e-05
2.79222e-05
2.86749e-05
2.86783e-05
2.86785e-05
2.96536e-05
2.96567e-05
2.96569e-05
3.06578e-05
3.06607e-05
3.0661e-05
3.16396e-05
3.16424e-05
3.16426e-05
3.25885e-05
3.25911e-05
3.25912e-05
3.3493e-05
3.34953e-05
3.34954e-05
3.43255e-05
3.43274e-05
3.43276e-05
3.50422e-05
3.50437e-05
3.5044e-05
3.55998e-05
3.56012e-05
3.56015e-05
3.5983e-05
3.59842e-05
3.59846e-05
3.61893e-05
3.61904e-05
3.61907e-05
3.61893e-05
3.61904e-05
3.61907e-05
3.59831e-05
3.59843e-05
3.59847e-05
3.56e-05
3.56013e-05
3.56017e-05
3.50425e-05
3.5044e-05
3.50443e-05
3.43262e-05
3.43281e-05
3.43282e-05
3.34934e-05
3.34957e-05
3.34958e-05
3.2589e-05
3.25915e-05
3.25917e-05
3.16399e-05
3.16427e-05
3.16429e-05
3.06579e-05
3.06608e-05
3.0661e-05
2.96535e-05
2.96566e-05
2.96569e-05
2.86749e-05
2.86783e-05
2.86785e-05
2.79185e-05
2.79223e-05
2.79224e-05
2.81298e-05
2.81335e-05
2.81337e-05
3.23912e-05
3.23945e-05
3.23947e-05
2.1537e-05
2.15371e-05
2.15372e-05
2.2734e-05
2.27342e-05
2.27343e-05
3.95244e-05
3.95282e-05
3.95286e-05
3.4628e-05
3.46327e-05
3.4633e-05
3.38331e-05
3.38383e-05
3.38385e-05
3.44241e-05
3.44288e-05
3.44291e-05
3.54407e-05
3.54451e-05
3.54453e-05
3.65644e-05
3.65685e-05
3.65688e-05
3.7698e-05
3.77018e-05
3.77021e-05
3.88115e-05
3.88151e-05
3.88153e-05
3.9883e-05
3.98863e-05
3.98864e-05
4.08747e-05
4.08775e-05
4.08778e-05
4.17309e-05
4.17333e-05
4.17337e-05
4.23974e-05
4.23995e-05
4.24e-05
4.28551e-05
4.28571e-05
4.28575e-05
4.31015e-05
4.31033e-05
4.31038e-05
4.31015e-05
4.31033e-05
4.31038e-05
4.28552e-05
4.28572e-05
4.28577e-05
4.23976e-05
4.23998e-05
4.24002e-05
4.17313e-05
4.17337e-05
4.17341e-05
4.08755e-05
4.08784e-05
4.08786e-05
3.98835e-05
3.98868e-05
3.98869e-05
3.88121e-05
3.88157e-05
3.88159e-05
3.76984e-05
3.77023e-05
3.77025e-05
3.65646e-05
3.65687e-05
3.65689e-05
3.54407e-05
3.5445e-05
3.54453e-05
3.44242e-05
3.44289e-05
3.44292e-05
3.38337e-05
3.38388e-05
3.38391e-05
3.46283e-05
3.4633e-05
3.46333e-05
3.95255e-05
3.95293e-05
3.95297e-05
2.27332e-05
2.27334e-05
2.27335e-05
2.39131e-05
2.39133e-05
2.39134e-05
4.70086e-05
4.7013e-05
4.70135e-05
4.2008e-05
4.20137e-05
4.20141e-05
4.05256e-05
4.05325e-05
4.05328e-05
4.08163e-05
4.08228e-05
4.08232e-05
4.18041e-05
4.18101e-05
4.18104e-05
4.30241e-05
4.30297e-05
4.30301e-05
4.43081e-05
4.43135e-05
4.43137e-05
4.55958e-05
4.56009e-05
4.5601e-05
4.68492e-05
4.68539e-05
4.68541e-05
4.80171e-05
4.80213e-05
4.80215e-05
4.90289e-05
4.90326e-05
4.9033e-05
4.98172e-05
4.98206e-05
4.98211e-05
5.03588e-05
5.03619e-05
5.03624e-05
5.06504e-05
5.06533e-05
5.06539e-05
5.06504e-05
5.06534e-05
5.06539e-05
5.03589e-05
5.0362e-05
5.03626e-05
4.98176e-05
4.98209e-05
4.98215e-05
4.90296e-05
4.90332e-05
4.90336e-05
4.80182e-05
4.80224e-05
4.80227e-05
4.68499e-05
4.68546e-05
4.68547e-05
4.55966e-05
4.56017e-05
4.56019e-05
4.43087e-05
4.43141e-05
4.43143e-05
4.30244e-05
4.303e-05
4.30303e-05
4.18042e-05
4.18101e-05
4.18105e-05
4.08166e-05
4.08231e-05
4.08235e-05
4.05268e-05
4.05336e-05
4.0534e-05
4.20089e-05
4.20146e-05
4.2015e-05
4.70101e-05
4.70145e-05
4.70149e-05
2.39123e-05
2.39124e-05
2.39126e-05
2.50695e-05
2.50696e-05
2.50697e-05
5.46576e-05
5.46624e-05
5.4663e-05
5.02758e-05
5.02825e-05
5.0283e-05
4.80919e-05
4.81006e-05
4.81012e-05
4.79306e-05
4.79392e-05
4.79398e-05
4.87969e-05
4.8805e-05
4.88054e-05
5.00748e-05
5.00824e-05
5.00828e-05
5.15006e-05
5.15078e-05
5.15081e-05
5.29689e-05
5.29759e-05
5.29761e-05
5.44186e-05
5.44251e-05
5.44253e-05
5.57799e-05
5.57859e-05
5.57861e-05
5.69645e-05
5.69699e-05
5.69703e-05
5.78885e-05
5.78935e-05
5.7894e-05
5.85238e-05
5.85285e-05
5.85291e-05
5.88664e-05
5.88709e-05
5.88715e-05
5.88665e-05
5.88709e-05
5.88715e-05
5.8524e-05
5.85287e-05
5.85293e-05
5.7889e-05
5.7894e-05
5.78945e-05
5.69653e-05
5.69706e-05
5.69711e-05
5.57814e-05
5.57874e-05
5.57877e-05
5.44194e-05
5.44259e-05
5.44261e-05
5.29701e-05
5.2977e-05
5.29772e-05
5.15014e-05
5.15086e-05
5.15089e-05
5.00753e-05
5.00827e-05
5.00832e-05
4.87971e-05
4.88051e-05
4.88055e-05
4.79312e-05
4.79399e-05
4.79404e-05
4.80941e-05
4.81028e-05
4.81033e-05
5.02774e-05
5.0284e-05
5.02845e-05
5.46594e-05
5.46642e-05
5.46647e-05
2.50686e-05
2.50687e-05
2.50689e-05
2.61948e-05
2.61949e-05
2.6195e-05
6.2272e-05
6.22772e-05
6.22778e-05
5.93897e-05
5.9397e-05
5.93977e-05
5.66218e-05
5.66326e-05
5.66333e-05
5.58568e-05
5.58681e-05
5.58688e-05
5.64813e-05
5.64919e-05
5.64924e-05
5.77591e-05
5.7769e-05
5.77695e-05
5.93077e-05
5.93171e-05
5.93176e-05
6.09587e-05
6.09679e-05
6.09681e-05
6.26172e-05
6.2626e-05
6.26262e-05
6.41892e-05
6.41974e-05
6.41977e-05
6.55641e-05
6.55717e-05
6.55722e-05
6.66385e-05
6.66457e-05
6.66463e-05
6.73783e-05
6.73851e-05
6.73858e-05
6.77782e-05
6.77847e-05
6.77854e-05
6.77782e-05
6.77847e-05
6.77854e-05
6.73786e-05
6.73854e-05
6.73861e-05
6.66392e-05
6.66464e-05
6.6647e-05
6.55652e-05
6.55728e-05
6.55733e-05
6.41912e-05
6.41994e-05
6.41997e-05
6.26182e-05
6.2627e-05
6.26272e-05
6.09601e-05
6.09694e-05
6.09696e-05
5.93088e-05
5.93183e-05
5.93187e-05
5.77596e-05
5.77695e-05
5.777e-05
5.64815e-05
5.64921e-05
5.64926e-05
5.5858e-05
5.58693e-05
5.587e-05
5.66254e-05
5.66361e-05
5.66369e-05
5.93921e-05
5.93993e-05
5.94e-05
6.2274e-05
6.22792e-05
6.22797e-05
2.61939e-05
2.6194e-05
2.61941e-05
2.72794e-05
2.72795e-05
2.72796e-05
6.96471e-05
6.96524e-05
6.96531e-05
6.9256e-05
6.92636e-05
6.92644e-05
6.61868e-05
6.61995e-05
6.62006e-05
6.46937e-05
6.4708e-05
6.4709e-05
6.49292e-05
6.49427e-05
6.49436e-05
6.61248e-05
6.61376e-05
6.61383e-05
6.77637e-05
6.77759e-05
6.77765e-05
6.95927e-05
6.96047e-05
6.9605e-05
7.147e-05
7.14816e-05
7.14818e-05
7.32693e-05
7.32803e-05
7.32806e-05
7.48524e-05
7.48629e-05
7.48634e-05
7.60924e-05
7.61024e-05
7.61031e-05
7.6948e-05
7.69575e-05
7.69583e-05
7.74118e-05
7.74209e-05
7.74216e-05
7.74119e-05
7.7421e-05
7.74217e-05
7.69484e-05
7.6958e-05
7.69587e-05
7.60933e-05
7.61032e-05
7.61039e-05
7.48538e-05
7.48642e-05
7.48647e-05
7.32719e-05
7.32829e-05
7.32832e-05
7.14712e-05
7.14828e-05
7.1483e-05
6.95946e-05
6.96066e-05
6.96069e-05
6.77651e-05
6.77774e-05
6.77779e-05
6.61255e-05
6.61382e-05
6.6139e-05
6.49296e-05
6.49432e-05
6.4944e-05
6.46956e-05
6.47099e-05
6.4711e-05
6.61922e-05
6.62049e-05
6.6206e-05
6.92592e-05
6.92667e-05
6.92676e-05
6.9649e-05
6.96543e-05
6.9655e-05
2.72784e-05
2.72785e-05
2.72786e-05
2.83133e-05
2.83134e-05
2.83136e-05
7.65821e-05
7.65875e-05
7.65883e-05
7.97296e-05
7.9737e-05
7.97381e-05
7.68257e-05
7.68401e-05
7.68416e-05
7.45434e-05
7.45609e-05
7.45624e-05
7.42236e-05
7.42406e-05
7.42418e-05
7.52269e-05
7.5243e-05
7.52439e-05
7.69056e-05
7.6921e-05
7.69218e-05
7.88985e-05
7.89138e-05
7.89142e-05
8.10003e-05
8.10152e-05
8.10155e-05
8.30419e-05
8.30562e-05
8.30566e-05
8.48509e-05
8.48647e-05
8.48652e-05
8.62718e-05
8.62851e-05
8.62858e-05
8.72548e-05
8.72676e-05
8.72684e-05
8.77895e-05
8.78019e-05
8.78026e-05
8.77896e-05
8.7802e-05
8.78028e-05
8.72553e-05
8.72682e-05
8.72689e-05
8.62729e-05
8.62862e-05
8.62869e-05
8.48526e-05
8.48664e-05
8.48669e-05
8.30452e-05
8.30596e-05
8.306e-05
8.10017e-05
8.10166e-05
8.10169e-05
7.8901e-05
7.89163e-05
7.89166e-05
7.69074e-05
7.69229e-05
7.69236e-05
7.52278e-05
7.52438e-05
7.52447e-05
7.42241e-05
7.42412e-05
7.42424e-05
7.45465e-05
7.45642e-05
7.45656e-05
7.68336e-05
7.6848e-05
7.68495e-05
7.97335e-05
7.97408e-05
7.97419e-05
7.65837e-05
7.6589e-05
7.65898e-05
2.83123e-05
2.83124e-05
2.83125e-05
2.9288e-05
2.92881e-05
2.92882e-05
8.28921e-05
8.28975e-05
8.28983e-05
9.06189e-05
9.06257e-05
9.0627e-05
8.85306e-05
8.85462e-05
8.85482e-05
8.55034e-05
8.55245e-05
8.55265e-05
8.44576e-05
8.44787e-05
8.44804e-05
8.51282e-05
8.5148e-05
8.51494e-05
8.67736e-05
8.67926e-05
8.67937e-05
8.89039e-05
8.89229e-05
8.89235e-05
9.12296e-05
9.12482e-05
9.12487e-05
9.35256e-05
9.35438e-05
9.35443e-05
9.5577e-05
9.55947e-05
9.55954e-05
9.71937e-05
9.7211e-05
9.72118e-05
9.83158e-05
9.83325e-05
9.83334e-05
9.89287e-05
9.89449e-05
9.89458e-05
9.89289e-05
9.89451e-05
9.8946e-05
9.83165e-05
9.83333e-05
9.83341e-05
9.71951e-05
9.72124e-05
9.72132e-05
9.55792e-05
9.55969e-05
9.55975e-05
9.35299e-05
9.3548e-05
9.35485e-05
9.12313e-05
9.12499e-05
9.12504e-05
8.89069e-05
8.89259e-05
8.89265e-05
8.67758e-05
8.6795e-05
8.67959e-05
8.51291e-05
8.5149e-05
8.51502e-05
8.44584e-05
8.44795e-05
8.44811e-05
8.55082e-05
8.55295e-05
8.55314e-05
8.85415e-05
8.8557e-05
8.85591e-05
9.0623e-05
9.06297e-05
9.06311e-05
8.2893e-05
8.28984e-05
8.28993e-05
2.92868e-05
2.92869e-05
2.9287e-05
3.01969e-05
3.0197e-05
3.01971e-05
8.84206e-05
8.84261e-05
8.8427e-05
0.000101693
0.000101699
0.000101701
0.000101234
0.000101251
0.000101253
9.7654e-05
9.76784e-05
9.76812e-05
9.57329e-05
9.57584e-05
9.57607e-05
9.59011e-05
9.59251e-05
9.59269e-05
9.74125e-05
9.74354e-05
9.74369e-05
9.96369e-05
9.96598e-05
9.96607e-05
0.000102177
0.0001022
0.0001022
0.000104735
0.000104758
0.000104759
0.000107044
0.000107066
0.000107067
0.00010887
0.000108892
0.000108893
0.000110142
0.000110163
0.000110164
0.000110841
0.000110861
0.000110862
0.000110841
0.000110861
0.000110863
0.000110143
0.000110164
0.000110165
0.000108872
0.000108894
0.000108895
0.000107046
0.000107068
0.000107069
0.000104741
0.000104763
0.000104764
0.000102179
0.000102202
0.000102203
9.96406e-05
9.96635e-05
9.96643e-05
9.7415e-05
9.74382e-05
9.74395e-05
9.59019e-05
9.5926e-05
9.59278e-05
9.57339e-05
9.57594e-05
9.57617e-05
9.76611e-05
9.76855e-05
9.76883e-05
0.000101249
0.000101265
0.000101267
0.000101697
0.000101703
0.000101704
8.84206e-05
8.8426e-05
8.8427e-05
3.01957e-05
3.01958e-05
3.01959e-05
3.10369e-05
3.1037e-05
3.10371e-05
9.30529e-05
9.30585e-05
9.30595e-05
0.000112694
0.000112699
0.000112701
0.000114803
0.000114819
0.000114822
0.000111043
0.00011107
0.000111074
0.000108154
0.000108184
0.000108187
0.000107628
0.000107657
0.00010766
0.000108873
0.0001089
0.000108902
0.000111127
0.000111154
0.000111155
0.00011386
0.000113887
0.000113888
0.000116682
0.000116709
0.00011671
0.000119258
0.000119285
0.000119286
0.000121306
0.000121333
0.000121334
0.000122738
0.000122764
0.000122766
0.000123529
0.000123554
0.000123556
0.000123529
0.000123555
0.000123556
0.000122739
0.000122766
0.000122767
0.000121308
0.000121335
0.000121336
0.000119261
0.000119288
0.000119289
0.000116689
0.000116715
0.000116716
0.000113862
0.000113889
0.00011389
0.000111131
0.000111158
0.000111159
0.000108876
0.000108903
0.000108905
0.000107629
0.000107658
0.00010766
0.000108156
0.000108186
0.000108189
0.000111052
0.00011108
0.000111084
0.00011482
0.000114836
0.000114839
0.000112696
0.000112701
0.000112703
9.30516e-05
9.30571e-05
9.30582e-05
3.10356e-05
3.10357e-05
3.10358e-05
3.18083e-05
3.18084e-05
3.18085e-05
9.67262e-05
9.67322e-05
9.67333e-05
0.000123347
0.000123351
0.000123353
0.000129033
0.000129048
0.000129052
0.000125666
0.000125696
0.0001257
0.000121821
0.000121855
0.00012186
0.000120404
0.000120437
0.00012044
0.000121214
0.000121245
0.000121248
0.000123404
0.000123435
0.000123437
0.000126293
0.000126324
0.000126325
0.000129371
0.000129402
0.000129404
0.000132221
0.000132252
0.000132254
0.000134499
0.00013453
0.000134532
0.000136099
0.000136131
0.000136132
0.000136989
0.000137019
0.000137021
0.000136989
0.00013702
0.000137021
0.000136101
0.000136132
0.000136134
0.000134502
0.000134533
0.000134535
0.000132225
0.000132257
0.000132258
0.000129379
0.00012941
0.000129412
0.000126295
0.000126326
0.000126328
0.000123409
0.00012344
0.000123442
0.000121217
0.000121248
0.000121251
0.000120404
0.000120437
0.000120441
0.000121823
0.000121857
0.000121862
0.000125679
0.000125709
0.000125713
0.000129053
0.000129068
0.000129071
0.000123346
0.00012335
0.000123352
9.67233e-05
9.67293e-05
9.67305e-05
3.18068e-05
3.18069e-05
3.1807e-05
3.25146e-05
3.25147e-05
3.25149e-05
9.94364e-05
9.94433e-05
9.94444e-05
0.000133375
0.000133378
0.00013338
0.000143655
0.000143668
0.000143672
0.000141452
0.000141484
0.000141489
0.000136813
0.000136852
0.000136857
0.000134328
0.000134366
0.000134371
0.000134502
0.000134538
0.000134541
0.000136503
0.000136537
0.00013654
0.000139488
0.000139522
0.000139524
0.000142803
0.000142838
0.00014284
0.000145925
0.000145961
0.000145963
0.000148437
0.000148474
0.000148476
0.000150211
0.000150247
0.000150249
0.000151204
0.000151239
0.000151241
0.000151204
0.00015124
0.000151242
0.000150213
0.000150249
0.000150251
0.000148441
0.000148477
0.000148479
0.00014593
0.000145966
0.000145968
0.000142812
0.000142847
0.000142849
0.000139491
0.000139525
0.000139528
0.000136509
0.000136543
0.000136546
0.000134505
0.000134541
0.000134544
0.000134328
0.000134365
0.00013437
0.000136815
0.000136854
0.00013686
0.000141469
0.0001415
0.000141506
0.000143676
0.000143689
0.000143693
0.000133369
0.000133372
0.000133374
9.94319e-05
9.94386e-05
9.94399e-05
3.25131e-05
3.25131e-05
3.25133e-05
3.31624e-05
3.31625e-05
3.31627e-05
0.000101238
0.000101246
0.000101247
0.000142516
0.000142518
0.000142521
0.000158344
0.000158355
0.00015836
0.00015825
0.000158281
0.000158288
0.000153172
0.000153213
0.000153221
0.000149506
0.000149548
0.000149554
0.000148817
0.000148856
0.000148861
0.000150462
0.000150499
0.000150503
0.000153455
0.000153492
0.000153495
0.00015697
0.000157008
0.000157011
0.000160354
0.000160393
0.000160396
0.000163098
0.000163139
0.000163142
0.000165047
0.000165087
0.00016509
0.000166145
0.000166185
0.000166188
0.000166146
0.000166186
0.000166189
0.000165049
0.00016509
0.000165092
0.000163103
0.000163143
0.000163146
0.00016036
0.0001604
0.000160402
0.000156981
0.00015702
0.000157022
0.000153459
0.000153496
0.000153499
0.000150468
0.000150506
0.000150509
0.000148819
0.000148858
0.000148863
0.000149505
0.000149546
0.000149552
0.000153175
0.000153217
0.000153224
0.000158269
0.000158301
0.000158307
0.000158363
0.000158374
0.000158379
0.000142503
0.000142505
0.000142508
0.000101232
0.00010124
0.000101241
3.31607e-05
3.31608e-05
3.3161e-05
3.37598e-05
3.37599e-05
3.37601e-05
0.000102238
0.000102247
0.000102249
0.000150535
0.000150538
0.000150541
0.000172734
0.000172742
0.000172748
0.000175814
0.000175844
0.000175852
0.000170879
0.000170923
0.000170932
0.000166033
0.000166078
0.000166086
0.000164246
0.000164287
0.000164294
0.000165325
0.000165364
0.000165369
0.000168202
0.00016824
0.000168244
0.000171858
0.000171898
0.000171901
0.000175479
0.000175521
0.000175524
0.000178445
0.000178488
0.000178492
0.000180563
0.000180606
0.00018061
0.000181768
0.000181811
0.000181814
0.000181769
0.000181812
0.000181815
0.000180566
0.00018061
0.000180613
0.000178451
0.000178494
0.000178497
0.000175487
0.000175528
0.000175532
0.000171871
0.000171911
0.000171914
0.000168206
0.000168245
0.000168249
0.000165332
0.00016537
0.000165375
0.000164247
0.000164288
0.000164295
0.000166029
0.000166074
0.000166082
0.000170882
0.000170927
0.000170935
0.000175834
0.000175865
0.000175872
0.000172749
0.000172757
0.000172763
0.000150513
0.000150516
0.000150519
0.00010223
0.000102239
0.000102241
3.3758e-05
3.37581e-05
3.37583e-05
3.43156e-05
3.43157e-05
3.43159e-05
0.00010258
0.000102591
0.000102592
0.000157246
0.00015725
0.000157254
0.000186435
0.000186441
0.000186448
0.000193811
0.000193838
0.000193847
0.000189833
0.000189878
0.000189888
0.000183978
0.000184024
0.000184034
0.000180883
0.000180925
0.000180933
0.000181141
0.000181179
0.000181186
0.000183731
0.000183768
0.000183774
0.000187439
0.000187478
0.000187483
0.000191256
0.000191297
0.000191302
0.000194422
0.000194465
0.00019447
0.000196698
0.000196742
0.000196747
0.000198004
0.000198048
0.000198053
0.000198006
0.000198049
0.000198054
0.000196702
0.000196746
0.00019675
0.000194428
0.000194472
0.000194476
0.000191264
0.000191306
0.00019131
0.000187454
0.000187493
0.000187497
0.000183736
0.000183774
0.000183779
0.000181147
0.000181185
0.000181192
0.000180882
0.000180924
0.000180932
0.000183971
0.000184018
0.000184028
0.000189836
0.00018988
0.00018989
0.00019383
0.000193858
0.000193866
0.00018644
0.000186446
0.000186453
0.000157213
0.000157218
0.000157221
0.00010257
0.000102582
0.000102583
3.43136e-05
3.43138e-05
3.43139e-05
3.48378e-05
3.4838e-05
3.48382e-05
0.000102428
0.000102442
0.000102443
0.000162522
0.00016253
0.000162534
0.000199056
0.000199059
0.000199067
0.000211822
0.000211845
0.000211855
0.000209825
0.000209867
0.000209879
0.000203356
0.000203402
0.000203414
0.000198817
0.000198858
0.000198869
0.000197962
0.000197997
0.000198006
0.000200036
0.00020007
0.000200077
0.000203667
0.000203703
0.000203708
0.000207613
0.000207651
0.000207657
0.000210944
0.000210985
0.000210991
0.000213357
0.000213399
0.000213405
0.000214757
0.000214799
0.000214805
0.000214759
0.0002148
0.000214806
0.000213362
0.000213404
0.00021341
0.000210952
0.000210993
0.000210999
0.000207623
0.000207661
0.000207667
0.000203683
0.000203718
0.000203724
0.000200042
0.000200076
0.000200083
0.000197967
0.000198002
0.000198011
0.000198813
0.000198854
0.000198864
0.000203346
0.000203392
0.000203404
0.000209825
0.000209868
0.000209879
0.000211836
0.000211859
0.000211869
0.000199046
0.000199049
0.000199057
0.000162477
0.000162484
0.000162489
0.000102418
0.000102432
0.000102433
3.48358e-05
3.48359e-05
3.48361e-05
3.53332e-05
3.53334e-05
3.53336e-05
0.00010195
0.000101966
0.000101968
0.000166312
0.000166323
0.000166328
0.000210223
0.000210226
0.000210235
0.000229361
0.000229378
0.000229389
0.000230523
0.000230561
0.000230573
0.0002241
0.000224143
0.000224156
0.000218114
0.000218153
0.000218164
0.000215834
0.000215865
0.000215875
0.000217096
0.000217123
0.000217131
0.000220465
0.000220492
0.000220499
0.000224444
0.000224474
0.000224481
0.000227887
0.000227921
0.000227927
0.000230404
0.00023044
0.000230447
0.000231883
0.000231919
0.000231926
0.000231884
0.00023192
0.000231927
0.00023041
0.000230446
0.000230453
0.000227896
0.00022793
0.000227937
0.000224455
0.000224485
0.000224492
0.000220481
0.000220508
0.000220515
0.000217102
0.000217129
0.000217137
0.000215837
0.000215868
0.000215877
0.000218105
0.000218143
0.000218155
0.000224084
0.000224128
0.000224141
0.000230519
0.000230556
0.000230569
0.000229363
0.00022938
0.000229391
0.000210193
0.000210195
0.000210204
0.000166253
0.000166264
0.000166269
0.000101939
0.000101955
0.000101957
3.53311e-05
3.53313e-05
3.53315e-05
3.58063e-05
3.58065e-05
3.58067e-05
0.000101297
0.000101315
0.000101317
0.000168641
0.000168657
0.000168662
0.000219608
0.000219611
0.000219621
0.00024589
0.0002459
0.000245913
0.000251465
0.000251495
0.000251508
0.000246014
0.000246052
0.000246066
0.000238785
0.000238818
0.000238831
0.000234787
0.00023481
0.000234821
0.000234858
0.000234875
0.000234884
0.000237706
0.000237722
0.00023773
0.000241576
0.000241595
0.000241603
0.000245056
0.000245078
0.000245086
0.000247633
0.000247658
0.000247666
0.000249168
0.000249193
0.000249201
0.00024917
0.000249195
0.000249203
0.00024764
0.000247665
0.000247673
0.000245067
0.000245089
0.000245097
0.000241588
0.000241607
0.000241615
0.000237721
0.000237737
0.000237745
0.000234865
0.000234882
0.00023489
0.000234786
0.000234809
0.00023482
0.000238768
0.000238801
0.000238814
0.000245991
0.000246029
0.000246043
0.000251451
0.000251481
0.000251495
0.000245874
0.000245884
0.000245897
0.000219552
0.000219555
0.000219565
0.000168568
0.000168584
0.00016859
0.000101285
0.000101303
0.000101305
3.5804e-05
3.58042e-05
3.58045e-05
3.62592e-05
3.62594e-05
3.62596e-05
0.000100592
0.000100612
0.000100614
0.000169617
0.000169638
0.000169644
0.000226945
0.000226949
0.000226961
0.00026085
0.000260853
0.000260867
0.000272061
0.000272079
0.000272094
0.000268747
0.000268776
0.00026879
0.00026074
0.000260765
0.000260778
0.000254803
0.000254817
0.000254828
0.000253222
0.000253227
0.000253236
0.000255186
0.000255187
0.000255194
0.000258744
0.000258747
0.000258755
0.000262155