/*--------------------------------*- C++ -*----------------------------------*\
  =========                 |
  \\      /  F ield         | OpenFOAM: The Open Source CFD Toolbox
   \\    /   O peration     | Website:  https://openfoam.org
    \\  /    A nd           | Version:  6
     \\/     M anipulation  |
\*---------------------------------------------------------------------------*/
FoamFile
{
    version     2.0;
    format      ascii;
    class       volScalarField;
    location    "40";
    object      p;
}
// * * * * * * * * * * * * * * * * * * * * * * * * * * * * * * * * * * * * * //

dimensions      [0 2 -2 0 0 0 0];

internalField   nonuniform List<scalar> 
3240
(
4.67694e-18
6.05152e-09
8.31453e-08
-7.20551e-11
5.98412e-09
8.32256e-08
-1.23331e-10
6.17159e-09
8.30704e-08
-2.09574e-10
6.11229e-09
8.32036e-08
-3.16285e-10
6.19066e-09
8.3222e-08
-4.52533e-10
6.28017e-09
8.32646e-08
-6.2121e-10
6.51763e-09
8.31867e-08
-7.77866e-10
6.72152e-09
8.31331e-08
-9.3915e-10
6.87546e-09
8.31346e-08
-9.87681e-10
6.82321e-09
8.32308e-08
-9.73929e-10
6.56741e-09
8.34731e-08
-9.00177e-10
6.19912e-09
8.37626e-08
-6.83801e-10
5.64493e-09
8.40954e-08
-5.78612e-10
5.1985e-09
8.44257e-08
-5.22003e-10
4.98902e-09
8.45741e-08
-5.12029e-10
4.97594e-09
8.45645e-08
-5.63848e-10
5.16425e-09
8.44038e-08
-5.80741e-10
5.68477e-09
8.4121e-08
-5.35506e-10
6.44499e-09
8.40084e-08
-1.44219e-09
6.18154e-09
8.29046e-08
-1.16646e-09
6.65407e-09
8.29552e-08
-1.02162e-09
6.74854e-09
8.29503e-08
-8.50061e-10
6.60673e-09
8.29559e-08
-6.80805e-10
6.38976e-09
8.30115e-08
-5.04814e-10
6.14787e-09
8.30801e-08
-3.70809e-10
6.04911e-09
8.3049e-08
-2.67885e-10
5.95257e-09
8.30464e-08
-1.92114e-10
6.00244e-09
8.2922e-08
-1.62347e-10
5.79023e-09
8.31058e-08
-1.51253e-10
5.82304e-09
8.30623e-08
-1.60478e-12
6.04702e-09
8.31489e-08
-7.17803e-11
5.98222e-09
8.32272e-08
-1.22815e-10
6.16868e-09
8.30728e-08
-2.08621e-10
6.10896e-09
8.3206e-08
-3.15108e-10
6.18749e-09
8.3224e-08
-4.51213e-10
6.27702e-09
8.32664e-08
-6.19784e-10
6.5143e-09
8.31886e-08
-7.76398e-10
6.7181e-09
8.3135e-08
-9.37735e-10
6.8721e-09
8.31366e-08
-9.86305e-10
6.82009e-09
8.32325e-08
-9.72516e-10
6.56455e-09
8.34746e-08
-8.98685e-10
6.19643e-09
8.37638e-08
-6.8228e-10
5.64236e-09
8.40964e-08
-5.7708e-10
5.19604e-09
8.44267e-08
-5.20469e-10
4.98662e-09
8.4575e-08
-5.10495e-10
4.97354e-09
8.45654e-08
-5.62322e-10
5.1618e-09
8.44047e-08
-5.7924e-10
5.68219e-09
8.4122e-08
-5.34827e-10
6.44168e-09
8.40088e-08
-1.43987e-09
6.1793e-09
8.29069e-08
-1.16506e-09
6.65095e-09
8.2957e-08
-1.02021e-09
6.7452e-09
8.29523e-08
-8.48618e-10
6.60331e-09
8.29579e-08
-6.79396e-10
6.38643e-09
8.30134e-08
-5.03514e-10
6.14472e-09
8.30819e-08
-3.69661e-10
6.04593e-09
8.30511e-08
-2.66948e-10
5.94927e-09
8.30487e-08
-1.91594e-10
5.99954e-09
8.29244e-08
-1.62064e-10
5.78838e-09
8.31073e-08
-1.50368e-10
5.81909e-09
8.30654e-08
-6.52317e-12
6.04236e-09
8.31532e-08
-7.13147e-11
5.97913e-09
8.32298e-08
-1.21739e-10
6.16344e-09
8.30768e-08
-2.06607e-10
6.10263e-09
8.32102e-08
-3.126e-10
6.18147e-09
8.32275e-08
-4.48377e-10
6.27091e-09
8.32697e-08
-6.16695e-10
6.50769e-09
8.31921e-08
-7.73188e-10
6.71118e-09
8.31387e-08
-9.34618e-10
6.86515e-09
8.31404e-08
-9.83295e-10
6.81352e-09
8.32361e-08
-9.69472e-10
6.55837e-09
8.34777e-08
-8.95525e-10
6.19045e-09
8.37666e-08
-6.79081e-10
5.63658e-09
8.4099e-08
-5.73875e-10
5.19048e-09
8.4429e-08
-5.17263e-10
4.98115e-09
8.45773e-08
-5.07292e-10
4.96806e-09
8.45677e-08
-5.59129e-10
5.15624e-09
8.44071e-08
-5.76094e-10
5.67638e-09
8.41246e-08
-5.33744e-10
6.43411e-09
8.40098e-08
-1.43452e-09
6.17473e-09
8.29124e-08
-1.16201e-09
6.64436e-09
8.29607e-08
-1.01711e-09
6.7383e-09
8.29561e-08
-8.45458e-10
6.59637e-09
8.29617e-08
-6.76347e-10
6.37982e-09
8.3017e-08
-5.00723e-10
6.1386e-09
8.30853e-08
-3.67218e-10
6.03988e-09
8.30547e-08
-2.6497e-10
5.94302e-09
8.3053e-08
-1.90516e-10
5.99428e-09
8.29286e-08
-1.61578e-10
5.78541e-09
8.31098e-08
-1.50167e-10
5.81583e-09
8.30684e-08
-1.34769e-11
6.03874e-09
8.31571e-08
-7.05754e-11
5.97487e-09
8.32332e-08
-1.19968e-10
6.15564e-09
8.30827e-08
-2.03237e-10
6.09282e-09
8.32166e-08
-3.08323e-10
6.17191e-09
8.32328e-08
-4.43509e-10
6.26117e-09
8.32745e-08
-6.114e-10
6.49706e-09
8.31974e-08
-7.67674e-10
6.70001e-09
8.31444e-08
-9.29241e-10
6.85376e-09
8.31465e-08
-9.78125e-10
6.80255e-09
8.32419e-08
-9.6431e-10
6.54782e-09
8.34831e-08
-8.90227e-10
6.18005e-09
8.37717e-08
-6.7374e-10
5.62636e-09
8.41039e-08
-5.68548e-10
5.18057e-09
8.44336e-08
-5.11953e-10
4.9714e-09
8.45817e-08
-5.01988e-10
4.95829e-09
8.45721e-08
-5.53824e-10
5.14635e-09
8.44117e-08
-5.70865e-10
5.66609e-09
8.41295e-08
-5.32819e-10
6.4203e-09
8.40109e-08
-1.42448e-09
6.16764e-09
8.29227e-08
-1.15673e-09
6.63336e-09
8.29668e-08
-1.01176e-09
6.727e-09
8.29622e-08
-8.40032e-10
6.58515e-09
8.29675e-08
-6.7113e-10
6.36919e-09
8.30224e-08
-4.95946e-10
6.12881e-09
8.30904e-08
-3.63059e-10
6.03025e-09
8.30602e-08
-2.61669e-10
5.93333e-09
8.30594e-08
-1.88754e-10
5.98646e-09
8.29346e-08
-1.60788e-10
5.78138e-09
8.31131e-08
-1.50622e-10
5.81452e-09
8.30702e-08
-2.04704e-11
6.03462e-09
8.31615e-08
-6.96051e-11
5.97013e-09
8.32367e-08
-1.17616e-10
6.14666e-09
8.30891e-08
-1.98859e-10
6.08102e-09
8.3224e-08
-3.02698e-10
6.16011e-09
8.3239e-08
-4.37062e-10
6.24926e-09
8.32798e-08
-6.04408e-10
6.48398e-09
8.32035e-08
-7.60362e-10
6.68624e-09
8.31509e-08
-9.22048e-10
6.83949e-09
8.31536e-08
-9.71231e-10
6.78855e-09
8.32491e-08
-9.57548e-10
6.53405e-09
8.34901e-08
-8.83409e-10
6.16616e-09
8.37788e-08
-6.66939e-10
5.61249e-09
8.41109e-08
-5.61806e-10
5.16704e-09
8.44404e-08
-5.05252e-10
4.95802e-09
8.45884e-08
-4.95299e-10
4.9449e-09
8.45788e-08
-5.47115e-10
5.13285e-09
8.44185e-08
-5.64252e-10
5.65208e-09
8.41365e-08
-5.33273e-10
6.40068e-09
8.40115e-08
-1.40961e-09
6.15971e-09
8.29379e-08
-1.14966e-09
6.61935e-09
8.29744e-08
-1.00459e-09
6.71287e-09
8.29693e-08
-8.32841e-10
6.57126e-09
8.29743e-08
-6.64263e-10
6.35614e-09
8.30287e-08
-4.8964e-10
6.11682e-09
8.30962e-08
-3.57607e-10
6.01833e-09
8.30668e-08
-2.574e-10
5.92172e-09
8.30668e-08
-1.86434e-10
5.97745e-09
8.29414e-08
-1.59705e-10
5.77704e-09
8.31163e-08
-1.51067e-10
5.81341e-09
8.30718e-08
-2.7195e-11
6.02966e-09
8.31665e-08
-6.85373e-11
5.966e-09
8.32393e-08
-1.1474e-10
6.13808e-09
8.30946e-08
-1.93709e-10
6.06875e-09
8.32309e-08
-2.9617e-10
6.14742e-09
8.32451e-08
-4.29472e-10
6.23641e-09
8.3285e-08
-5.96188e-10
6.46969e-09
8.32096e-08
-7.51703e-10
6.67108e-09
8.31574e-08
-9.13404e-10
6.82346e-09
8.3161e-08
-9.62903e-10
6.77253e-09
8.32568e-08
-9.49502e-10
6.51792e-09
8.34982e-08
-8.75426e-10
6.14951e-09
8.37875e-08
-6.59063e-10
5.5956e-09
8.41199e-08
-5.54043e-10
5.15048e-09
8.44493e-08
-4.97556e-10
4.9416e-09
8.45972e-08
-4.87623e-10
4.92844e-09
8.45876e-08
-5.39395e-10
5.11633e-09
8.44273e-08
-5.56655e-10
5.63501e-09
8.41454e-08
-5.3559e-10
6.37586e-09
8.40109e-08
-1.39005e-09
6.15189e-09
8.29576e-08
-1.14105e-09
6.60331e-09
8.29828e-08
-9.95992e-10
6.69705e-09
8.29768e-08
-8.24337e-10
6.55589e-09
8.29813e-08
-6.56218e-10
6.34187e-09
8.3035e-08
-4.82248e-10
6.10382e-09
8.31019e-08
-3.5131e-10
6.00543e-09
8.30735e-08
-2.52401e-10
5.90969e-09
8.30738e-08
-1.83613e-10
5.96883e-09
8.29472e-08
-1.58411e-10
5.77351e-09
8.31186e-08
-1.51415e-10
5.81205e-09
8.30736e-08
-3.35111e-11
6.02423e-09
8.3172e-08
-6.7491e-11
5.96325e-09
8.32404e-08
-1.1128e-10
6.13106e-09
8.30978e-08
-1.87797e-10
6.05718e-09
8.32364e-08
-2.88862e-10
6.13485e-09
8.32504e-08
-4.20999e-10
6.22356e-09
8.32892e-08
-5.87029e-10
6.45509e-09
8.3215e-08
-7.41986e-10
6.65535e-09
8.31634e-08
-9.03541e-10
6.8064e-09
8.31683e-08
-9.53265e-10
6.75517e-09
8.32646e-08
-9.40266e-10
6.50002e-09
8.35068e-08
-8.66387e-10
6.13064e-09
8.37973e-08
-6.50233e-10
5.57618e-09
8.41305e-08
-5.45377e-10
5.13132e-09
8.44598e-08
-4.88981e-10
4.92253e-09
8.46077e-08
-4.79077e-10
4.90934e-09
8.45981e-08
-5.30784e-10
5.09724e-09
8.44379e-08
-5.48204e-10
5.61534e-09
8.41558e-08
-5.39752e-10
6.34648e-09
8.40089e-08
-1.36608e-09
6.14464e-09
8.29811e-08
-1.13102e-09
6.58593e-09
8.29915e-08
-9.86177e-10
6.68024e-09
8.29841e-08
-8.14809e-10
6.5399e-09
8.29879e-08
-6.47284e-10
6.3273e-09
8.30407e-08
-4.74032e-10
6.09076e-09
8.3107e-08
-3.44293e-10
5.99261e-09
8.30794e-08
-2.46676e-10
5.89839e-09
8.30795e-08
-1.80226e-10
5.9618e-09
8.29509e-08
-1.56982e-10
5.77161e-09
8.31191e-08
-1.51731e-10
5.81057e-09
8.30754e-08
-3.94349e-11
6.01861e-09
8.31776e-08
-6.65039e-11
5.96242e-09
8.32393e-08
-1.07285e-10
6.1266e-09
8.30978e-08
-1.81133e-10
6.04736e-09
8.32394e-08
-2.80703e-10
6.12333e-09
8.32537e-08
-4.11728e-10
6.21162e-09
8.32916e-08
-5.77026e-10
6.4411e-09
8.3219e-08
-7.31353e-10
6.63994e-09
8.31683e-08
-8.92648e-10
6.78911e-09
8.31747e-08
-9.42433e-10
6.73721e-09
8.32718e-08
-9.29858e-10
6.48107e-09
8.35153e-08
-8.56353e-10
6.11023e-09
8.38076e-08
-6.40461e-10
5.55486e-09
8.4142e-08
-5.35821e-10
5.11018e-09
8.44714e-08
-4.79525e-10
4.9014e-09
8.46194e-08
-4.69659e-10
4.88815e-09
8.46099e-08
-5.21292e-10
5.07618e-09
8.44495e-08
-5.38924e-10
5.59368e-09
8.41672e-08
-5.45542e-10
6.31344e-09
8.40051e-08
-1.33801e-09
6.13843e-09
8.30075e-08
-1.11966e-09
6.56797e-09
8.29999e-08
-9.75341e-10
6.66328e-09
8.29906e-08
-8.04397e-10
6.52419e-09
8.29933e-08
-6.37561e-10
6.31334e-09
8.30451e-08
-4.65079e-10
6.07855e-09
8.31105e-08
-3.36485e-10
5.98076e-09
8.30836e-08
-2.40231e-10
5.88889e-09
8.30826e-08
-1.76313e-10
5.95736e-09
8.29515e-08
-1.55504e-10
5.77187e-09
8.31174e-08
-1.52055e-10
5.80913e-09
8.30773e-08
-4.495e-11
6.013e-09
8.31831e-08
-6.56178e-11
5.96383e-09
8.32359e-08
-1.02967e-10
6.12558e-09
8.3094e-08
-1.73679e-10
6.04055e-09
8.32385e-08
-2.71714e-10
6.11395e-09
8.3254e-08
-4.01652e-10
6.20161e-09
8.32914e-08
-5.6616e-10
6.42879e-09
8.32205e-08
-7.19854e-10
6.62594e-09
8.31708e-08
-8.80852e-10
6.77272e-09
8.31794e-08
-9.3056e-10
6.71973e-09
8.32775e-08
-9.18296e-10
6.46209e-09
8.35227e-08
-8.45413e-10
6.08928e-09
8.38176e-08
-6.29712e-10
5.53264e-09
8.41535e-08
-5.25281e-10
5.08802e-09
8.44831e-08
-4.69058e-10
4.87909e-09
8.46313e-08
-4.59242e-10
4.8658e-09
8.46218e-08
-5.10824e-10
5.05413e-09
8.44612e-08
-5.28791e-10
5.57104e-09
8.41784e-08
-5.52693e-10
6.27802e-09
8.3999e-08
-1.30628e-09
6.13396e-09
8.30353e-08
-1.1071e-09
6.55051e-09
8.3007e-08
-9.63609e-10
6.64727e-09
8.29954e-08
-7.93133e-10
6.50984e-09
8.29967e-08
-6.27057e-10
6.30105e-09
8.3047e-08
-4.55374e-10
6.06822e-09
8.31114e-08
-3.27875e-10
5.97102e-09
8.30849e-08
-2.33032e-10
5.88241e-09
8.30819e-08
-1.72076e-10
5.95642e-09
8.29483e-08
-1.54066e-10
5.77463e-09
8.31133e-08
-1.52392e-10
5.80783e-09
8.3079e-08
-5.00423e-11
6.0076e-09
8.31884e-08
-6.50403e-11
5.96757e-09
8.32301e-08
-9.84064e-11
6.12869e-09
8.30857e-08
-1.65564e-10
6.03812e-09
8.32325e-08
-2.62042e-10
6.10809e-09
8.32501e-08
-3.90779e-10
6.1948e-09
8.32871e-08
-5.5452e-10
6.41948e-09
8.32181e-08
-7.07574e-10
6.6147e-09
8.31698e-08
-8.68223e-10
6.75867e-09
8.3181e-08
-9.17798e-10
6.70416e-09
8.32805e-08
-9.05743e-10
6.44455e-09
8.35277e-08
-8.3369e-10
6.06924e-09
8.38259e-08
-6.18095e-10
5.51099e-09
8.41634e-08
-5.13743e-10
5.06625e-09
8.44934e-08
-4.57581e-10
4.85695e-09
8.4642e-08
-4.47827e-10
4.8436e-09
8.46325e-08
-4.99363e-10
5.03248e-09
8.44715e-08
-5.17932e-10
5.54888e-09
8.41881e-08
-5.6095e-10
6.24196e-09
8.39896e-08
-1.2715e-09
6.13235e-09
8.30628e-08
-1.09346e-09
6.53502e-09
8.30117e-08
-9.51054e-10
6.63365e-09
8.2997e-08
-7.8103e-10
6.49822e-09
8.29965e-08
-6.15857e-10
6.29175e-09
8.30454e-08
-4.44923e-10
6.06106e-09
8.31085e-08
-3.18495e-10
5.96477e-09
8.3082e-08
-2.25196e-10
5.88033e-09
8.30763e-08
-1.67583e-10
5.95971e-09
8.29406e-08
-1.52661e-10
5.77997e-09
8.31066e-08
-1.5273e-10
5.80677e-09
8.30804e-08
-5.46999e-11
6.00261e-09
8.31933e-08
-6.50036e-11
5.97364e-09
8.32223e-08
-9.38661e-11
6.13648e-09
8.30727e-08
-1.56994e-10
6.04154e-09
8.32201e-08
-2.51788e-10
6.10746e-09
8.32404e-08
-3.79244e-10
6.19282e-09
8.32773e-08
-5.42323e-10
6.41484e-09
8.32106e-08
-6.94662e-10
6.60799e-09
8.31637e-08
-8.54861e-10
6.74879e-09
8.31776e-08
-9.04265e-10
6.69238e-09
8.32789e-08
-8.92492e-10
6.43034e-09
8.35286e-08
-8.21343e-10
6.05204e-09
8.38307e-08
-6.05939e-10
5.49182e-09
8.41704e-08
-5.01611e-10
5.04668e-09
8.45009e-08
-4.45529e-10
4.83679e-09
8.46502e-08
-4.35849e-10
4.82338e-09
8.46407e-08
-4.87311e-10
5.01305e-09
8.44791e-08
-5.06703e-10
5.52907e-09
8.41946e-08
-5.70085e-10
6.20748e-09
8.39754e-08
-1.2344e-09
6.13518e-09
8.30881e-08
-1.07883e-09
6.52341e-09
8.30122e-08
-9.37775e-10
6.62423e-09
8.29938e-08
-7.68264e-10
6.49112e-09
8.29912e-08
-6.04039e-10
6.28713e-09
8.30384e-08
-4.33928e-10
6.05868e-09
8.31003e-08
-3.08594e-10
5.96371e-09
8.30734e-08
-2.16915e-10
5.88411e-09
8.30643e-08
-1.63059e-10
5.96778e-09
8.29282e-08
-1.51415e-10
5.78785e-09
8.30976e-08
-1.5305e-10
5.80606e-09
8.30816e-08
-5.89144e-11
5.99822e-09
8.31974e-08
-6.56152e-11
5.98213e-09
8.32124e-08
-8.93863e-11
6.14944e-09
8.30545e-08
-1.48198e-10
6.0522e-09
8.32003e-08
-2.41161e-10
6.11402e-09
8.32231e-08
-3.67347e-10
6.19766e-09
8.32603e-08
-5.29759e-10
6.41695e-09
8.31959e-08
-6.81306e-10
6.60798e-09
8.31504e-08
-8.40878e-10
6.74537e-09
8.31672e-08
-8.90148e-10
6.68676e-09
8.32705e-08
-8.78791e-10
6.4219e-09
8.35233e-08
-8.08571e-10
6.04015e-09
8.38298e-08
-5.93527e-10
5.47751e-09
8.41723e-08
-4.89334e-10
5.03171e-09
8.45036e-08
-4.33346e-10
4.821e-09
8.46538e-08
-4.23753e-10
4.80753e-09
8.46444e-08
-4.7511e-10
4.99824e-09
8.44819e-08
-4.95422e-10
5.51399e-09
8.4196e-08
-5.79919e-10
6.17736e-09
8.39546e-08
-1.19567e-09
6.14458e-09
8.31084e-08
-1.06334e-09
6.51807e-09
8.30063e-08
-9.23887e-10
6.62129e-09
8.29835e-08
-7.55117e-10
6.49071e-09
8.29788e-08
-5.91895e-10
6.28923e-09
8.30245e-08
-4.22677e-10
6.06308e-09
8.3085e-08
-2.98586e-10
5.96985e-09
8.30576e-08
-2.08548e-10
5.89515e-09
8.30451e-08
-1.58503e-10
5.9812e-09
8.29103e-08
-1.50603e-10
5.79836e-09
8.30864e-08
-1.53329e-10
5.80583e-09
8.30822e-08
-6.26727e-11
5.9946e-09
8.32007e-08
-6.66147e-11
5.99293e-09
8.32004e-08
-8.32765e-11
6.16745e-09
8.30295e-08
-1.39935e-10
6.07133e-09
8.31724e-08
-2.30819e-10
6.12999e-09
8.31966e-08
-3.55423e-10
6.2117e-09
8.3234e-08
-5.17114e-10
6.42825e-09
8.31719e-08
-6.67857e-10
6.61726e-09
8.31278e-08
-8.2655e-10
6.75117e-09
8.31472e-08
-8.75774e-10
6.69016e-09
8.32529e-08
-8.64902e-10
6.4222e-09
8.3509e-08
-7.95642e-10
6.03663e-09
8.38203e-08
-5.81066e-10
5.47117e-09
8.41661e-08
-4.77106e-10
5.02435e-09
8.44988e-08
-4.21236e-10
4.81256e-09
8.46502e-08
-4.11748e-10
4.79902e-09
8.46409e-08
-4.62949e-10
4.99108e-09
8.44771e-08
-4.84327e-10
5.50668e-09
8.41892e-08
-5.90345e-10
6.15492e-09
8.39247e-08
-1.156e-09
6.16319e-09
8.31206e-08
-1.04726e-09
6.52194e-09
8.29916e-08
-9.09662e-10
6.62757e-09
8.29638e-08
-7.41942e-10
6.49958e-09
8.29572e-08
-5.79985e-10
6.30051e-09
8.30016e-08
-4.11435e-10
6.07665e-09
8.30607e-08
-2.88844e-10
5.98538e-09
8.30326e-08
-2.00806e-10
5.91466e-09
8.3018e-08
-1.52398e-10
5.99982e-09
8.28858e-08
-1.50038e-10
5.81134e-09
8.3073e-08
-1.53536e-10
5.80619e-09
8.30821e-08
-6.59479e-11
5.99188e-09
8.32029e-08
-6.67574e-11
6.00466e-09
8.31865e-08
-7.55178e-11
6.18996e-09
8.29982e-08
-1.32939e-10
6.10031e-09
8.31359e-08
-2.21306e-10
6.15755e-09
8.31593e-08
-3.44041e-10
6.23763e-09
8.31965e-08
-5.05006e-10
6.45154e-09
8.31365e-08
-6.54916e-10
6.63877e-09
8.30934e-08
-8.12394e-10
6.76935e-09
8.3115e-08
-8.61584e-10
6.70592e-09
8.32231e-08
-8.51193e-10
6.43472e-09
8.34828e-08
-7.82917e-10
6.04509e-09
8.37991e-08
-5.68861e-10
5.47649e-09
8.41485e-08
-4.65196e-10
5.02826e-09
8.44831e-08
-4.09463e-10
4.81504e-09
8.4636e-08
-4.00106e-10
4.80146e-09
8.46267e-08
-4.5109e-10
4.99521e-09
8.44614e-08
-4.73766e-10
5.51083e-09
8.41708e-08
-6.01357e-10
6.14407e-09
8.38827e-08
-1.1162e-09
6.19421e-09
8.31213e-08
-1.03099e-09
6.53839e-09
8.29651e-08
-8.95615e-10
6.64621e-09
8.29319e-08
-7.29322e-10
6.52067e-09
8.2924e-08
-5.68796e-10
6.32375e-09
8.29676e-08
-4.00781e-10
6.10209e-09
8.30251e-08
-2.79938e-10
6.01253e-09
8.29969e-08
-1.94218e-10
5.94402e-09
8.29822e-08
-1.44852e-10
6.02301e-09
8.28552e-08
-1.48518e-10
5.82536e-09
8.30576e-08
-1.5362e-10
5.80724e-09
8.30812e-08
-6.86713e-11
5.99013e-09
8.32039e-08
-6.56944e-11
6.01623e-09
8.31714e-08
-7.07823e-11
6.21812e-09
8.29642e-08
-1.2662e-10
6.14123e-09
8.30881e-08
-2.13119e-10
6.1987e-09
8.31097e-08
-3.34391e-10
6.27832e-09
8.31458e-08
-4.94278e-10
6.48987e-09
8.30874e-08
-6.43263e-10
6.67573e-09
8.30449e-08
-7.99079e-10
6.80336e-09
8.30678e-08
-8.48154e-10
6.73772e-09
8.31781e-08
-8.38171e-10
6.46335e-09
8.34411e-08
-7.70882e-10
6.06963e-09
8.37624e-08
-5.57385e-10
5.49771e-09
8.41157e-08
-4.54062e-10
5.04765e-09
8.44526e-08
-3.98467e-10
4.83262e-09
8.46075e-08
-3.8927e-10
4.819e-09
8.45982e-08
-4.39977e-10
5.01487e-09
8.44309e-08
-4.64251e-10
5.5306e-09
8.41371e-08
-6.1308e-10
6.14919e-09
8.38255e-08
-1.07716e-09
6.24122e-09
8.31066e-08
-1.01503e-09
6.57116e-09
8.29239e-08
-8.82409e-10
6.68063e-09
8.2885e-08
-7.17921e-10
6.5572e-09
8.28767e-08
-5.58953e-10
6.362e-09
8.29199e-08
-3.91549e-10
6.14225e-09
8.29761e-08
-2.72736e-10
6.05329e-09
8.29493e-08
-1.8825e-10
5.98534e-09
8.29352e-08
-1.40377e-10
6.05193e-09
8.2822e-08
-1.4574e-10
5.83929e-09
8.3041e-08
-1.53488e-10
5.809e-09
8.30795e-08
-7.08167e-11
5.98935e-09
8.32036e-08
-6.42633e-11
6.0276e-09
8.31561e-08
-7.01033e-11
6.25122e-09
8.29293e-08
-1.16651e-10
6.19243e-09
8.30264e-08
-2.07761e-10
6.25562e-09
8.30471e-08
-3.27589e-10
6.33654e-09
8.30806e-08
-4.86005e-10
6.54635e-09
8.30226e-08
-6.34018e-10
6.73139e-09
8.298e-08
-7.87535e-10
6.85674e-09
8.30031e-08
-8.36226e-10
6.78935e-09
8.31147e-08
-8.26526e-10
6.51223e-09
8.33805e-08
-7.60197e-10
6.11469e-09
8.37066e-08
-5.47303e-10
5.53948e-09
8.40638e-08
-4.44358e-10
5.08719e-09
8.44035e-08
-3.88881e-10
4.86992e-09
8.45607e-08
-3.79876e-10
4.85627e-09
8.45515e-08
-4.30247e-10
5.05471e-09
8.43817e-08
-4.56482e-10
5.57061e-09
8.40839e-08
-6.25823e-10
6.17501e-09
8.37496e-08
-1.03999e-09
6.30808e-09
8.30727e-08
-1.00009e-09
6.62413e-09
8.28649e-08
-8.70975e-10
6.73438e-09
8.28207e-08
-7.08602e-10
6.61241e-09
8.28128e-08
-5.51387e-10
6.41837e-09
8.28565e-08
-3.84869e-10
6.19995e-09
8.29123e-08
-2.6809e-10
6.10983e-09
8.28885e-08
-1.78635e-10
6.03695e-09
8.28742e-08
-1.39865e-10
6.0859e-09
8.27878e-08
-1.42586e-10
5.85304e-09
8.30243e-08
-1.53084e-10
5.81146e-09
8.30767e-08
-7.23428e-11
5.98946e-09
8.32021e-08
-6.24628e-11
6.03839e-09
8.3141e-08
-7.04171e-11
6.28575e-09
8.28938e-08
-1.03837e-10
6.25172e-09
8.29536e-08
-2.06545e-10
6.33253e-09
8.29686e-08
-3.24649e-10
6.41527e-09
8.29986e-08
-4.81708e-10
6.62403e-09
8.29406e-08
-6.28817e-10
6.80889e-09
8.28974e-08
-7.79232e-10
6.93287e-09
8.29188e-08
-8.26757e-10
6.86415e-09
8.30306e-08
-8.1724e-10
6.58534e-09
8.32981e-08
-7.51866e-10
6.18484e-09
8.36281e-08
-5.39508e-10
5.60653e-09
8.39889e-08
-4.36965e-10
5.15172e-09
8.43316e-08
-3.8158e-10
4.93181e-09
8.44915e-08
-3.72792e-10
4.91817e-09
8.44824e-08
-4.22766e-10
5.1196e-09
8.43098e-08
-4.5138e-10
5.63553e-09
8.40075e-08
-6.40251e-10
6.22639e-09
8.36516e-08
-1.00603e-09
6.3985e-09
8.30161e-08
-9.87118e-10
6.70066e-09
8.27858e-08
-8.62766e-10
6.81078e-09
8.2737e-08
-7.02739e-10
6.68944e-09
8.27306e-08
-5.4751e-10
6.49589e-09
8.27756e-08
-3.82316e-10
6.27818e-09
8.2832e-08
-2.66903e-10
6.18639e-09
8.28111e-08
-1.6617e-10
6.09665e-09
8.28023e-08
-1.40225e-10
6.12137e-09
8.27529e-08
-1.39105e-10
5.8662e-09
8.30078e-08
-1.5234e-10
5.81455e-09
8.3073e-08
-7.31738e-11
5.99044e-09
8.31993e-08
-6.00713e-11
6.04823e-09
8.31263e-08
-7.08527e-11
6.32013e-09
8.28585e-08
-1.00207e-10
6.32506e-09
8.28759e-08
-2.08418e-10
6.4342e-09
8.28685e-08
-3.27136e-10
6.51955e-09
8.28965e-08
-4.83005e-10
6.72651e-09
8.28394e-08
-6.29144e-10
6.91152e-09
8.27952e-08
-7.75733e-10
7.03499e-09
8.28134e-08
-8.20973e-10
6.96491e-09
8.29243e-08
-8.11788e-10
6.68623e-09
8.31917e-08
-7.47547e-10
6.2843e-09
8.35243e-08
-5.35164e-10
5.70304e-09
8.38879e-08
-4.33101e-10
5.24582e-09
8.42338e-08
-3.77862e-10
5.02303e-09
8.43967e-08
-3.69303e-10
5.00941e-09
8.43876e-08
-4.18741e-10
5.2141e-09
8.42118e-08
-4.50124e-10
5.72951e-09
8.39048e-08
-6.57688e-10
6.30782e-09
8.35294e-08
-9.77154e-10
6.51578e-09
8.29344e-08
-9.77278e-10
6.80363e-09
8.26851e-08
-8.59281e-10
6.91302e-09
8.26323e-08
-7.01847e-10
6.79163e-09
8.26282e-08
-5.48983e-10
6.59816e-09
8.26754e-08
-3.85428e-10
6.38217e-09
8.27317e-08
-2.68754e-10
6.28782e-09
8.2712e-08
-1.6286e-10
6.17038e-09
8.27255e-08
-1.40548e-10
6.15676e-09
8.2718e-08
-1.35118e-10
5.87837e-09
8.29918e-08
-1.51146e-10
5.81825e-09
8.30682e-08
-7.31626e-11
5.99203e-09
8.31953e-08
-5.69393e-11
6.05697e-09
8.3112e-08
-7.0648e-11
6.35391e-09
8.28231e-08
-1.0771e-10
6.41274e-09
8.2795e-08
-2.06571e-10
6.55295e-09
8.27475e-08
-3.33879e-10
6.65663e-09
8.27659e-08
-4.8813e-10
6.85973e-09
8.27112e-08
-6.32759e-10
7.04423e-09
8.26662e-08
-7.75034e-10
7.16747e-09
8.26803e-08
-8.20369e-10
7.09751e-09
8.27912e-08
-8.11656e-10
6.81892e-09
8.30589e-08
-7.48902e-10
6.41635e-09
8.33935e-08
-5.35722e-10
5.83248e-09
8.3759e-08
-4.34531e-10
5.37346e-09
8.41076e-08
-3.79804e-10
5.14795e-09
8.42737e-08
-3.71475e-10
5.13439e-09
8.42647e-08
-4.19926e-10
5.34217e-09
8.40855e-08
-4.54168e-10
5.85598e-09
8.37735e-08
-6.79454e-10
6.42278e-09
8.33817e-08
-9.55199e-10
6.6637e-09
8.28249e-08
-9.71967e-10
6.93877e-09
8.25584e-08
-8.58417e-10
7.04522e-09
8.25003e-08
-7.04019e-10
6.92406e-09
8.24988e-08
-5.54154e-10
6.73111e-09
8.25482e-08
-3.92555e-10
6.51925e-09
8.26023e-08
-2.67381e-10
6.4065e-09
8.25923e-08
-1.70662e-10
6.25843e-09
8.26456e-08
-1.40045e-10
6.19158e-09
8.26829e-08
-1.30498e-10
5.88936e-09
8.29764e-08
-1.49326e-10
5.82229e-09
8.30624e-08
-7.21154e-11
5.9936e-09
8.31904e-08
-5.29442e-11
6.06472e-09
8.3098e-08
-6.89852e-11
6.38736e-09
8.27865e-08
-1.18077e-10
6.5079e-09
8.27094e-08
-2.09912e-10
6.69021e-09
8.26131e-08
-3.35609e-10
6.82106e-09
8.2603e-08
-4.8665e-10
7.02471e-09
8.25447e-08
-6.28419e-10
7.20929e-09
8.24969e-08
-7.65963e-10
7.33371e-09
8.25052e-08
-8.26459e-10
7.2794e-09
8.26156e-08
-8.15062e-10
6.99147e-09
8.28897e-08
-7.5317e-10
6.58388e-09
8.32302e-08
-5.42895e-10
6.00185e-09
8.35967e-08
-4.43132e-10
5.5402e-09
8.39496e-08
-3.89416e-10
5.31191e-09
8.41194e-08
-3.81328e-10
5.29849e-09
8.41104e-08
-4.28213e-10
5.50942e-09
8.39272e-08
-4.65215e-10
6.02186e-09
8.36086e-08
-7.02444e-10
6.57419e-09
8.3203e-08
-9.3852e-10
6.84992e-09
8.26774e-08
-9.72605e-10
7.12317e-09
8.23902e-08
-8.48971e-10
7.2111e-09
8.23263e-08
-6.98433e-10
7.08895e-09
8.23291e-08
-5.52783e-10
6.89585e-09
8.23828e-08
-3.95078e-10
6.68366e-09
8.2441e-08
-2.71457e-10
6.54374e-09
8.24596e-08
-1.81344e-10
6.35393e-09
8.25611e-08
-1.37965e-10
6.22607e-09
8.26466e-08
-1.25204e-10
5.89924e-09
8.29614e-08
-1.46658e-10
5.82606e-09
8.30561e-08
-6.98e-11
5.99422e-09
8.31854e-08
-4.77306e-11
6.0719e-09
8.30836e-08
-6.59326e-11
6.42167e-09
8.27477e-08
-1.28827e-10
6.6068e-09
8.26205e-08
-2.30067e-10
6.85019e-09
8.24728e-08
-3.45444e-10
7.01498e-09
8.24186e-08
-4.93003e-10
7.22994e-09
8.23458e-08
-6.31443e-10
7.41723e-09
8.2292e-08
-7.64116e-10
7.54425e-09
8.2293e-08
-8.40077e-10
7.51151e-09
8.23973e-08
-8.11957e-10
7.20736e-09
8.26707e-08
-7.46018e-10
6.79271e-09
8.30142e-08
-5.58153e-10
6.23172e-09
8.3382e-08
-4.5785e-10
5.75937e-09
8.37452e-08
-4.03184e-10
5.52422e-09
8.39209e-08
-3.95375e-10
5.51119e-09
8.39116e-08
-4.42695e-10
5.72946e-09
8.37223e-08
-4.84715e-10
6.2472e-09
8.33913e-08
-7.11962e-10
6.76839e-09
8.29732e-08
-9.16746e-10
7.07723e-09
8.24782e-08
-9.80118e-10
7.35829e-09
8.21797e-08
-8.46449e-10
7.42159e-09
8.21149e-08
-7.00733e-10
7.29657e-09
8.21247e-08
-5.59465e-10
7.1009e-09
8.21852e-08
-4.06994e-10
6.87739e-09
8.22598e-08
-2.92051e-10
6.70374e-09
8.23207e-08
-1.92376e-10
6.45313e-09
8.24733e-08
-1.34405e-10
6.26142e-09
8.26079e-08
-1.19139e-10
5.9084e-09
8.29464e-08
-1.42894e-10
5.82866e-09
8.30498e-08
-6.59363e-11
5.9928e-09
8.3181e-08
-4.13927e-11
6.07929e-09
8.30679e-08
-6.21818e-11
6.45886e-09
8.27054e-08
-1.41961e-10
6.69775e-09
8.25419e-08
-2.58923e-10
7.00693e-09
8.23445e-08
-3.79826e-10
7.22936e-09
8.22383e-08
-5.26355e-10
7.46354e-09
8.21455e-08
-6.61854e-10
7.65344e-09
8.20863e-08
-7.8953e-10
7.7816e-09
8.20812e-08
-8.63134e-10
7.75697e-09
8.21751e-08
-8.17497e-10
7.46863e-09
8.2415e-08
-7.45973e-10
7.05631e-09
8.27505e-08
-5.82002e-10
6.52262e-09
8.31149e-08
-4.69369e-10
6.0335e-09
8.34827e-08
-4.02914e-10
5.78092e-09
8.3664e-08
-3.95437e-10
5.76831e-09
8.36545e-08
-4.54482e-10
6.00499e-09
8.34592e-08
-5.13175e-10
6.53261e-09
8.31216e-08
-7.26277e-10
7.01926e-09
8.26968e-08
-9.05807e-10
7.34835e-09
8.224e-08
-9.96501e-10
7.6078e-09
8.19652e-08
-8.70619e-10
7.65888e-09
8.19037e-08
-7.3079e-10
7.5323e-09
8.192e-08
-5.93339e-10
7.3343e-09
8.19865e-08
-4.42691e-10
7.09166e-09
8.20818e-08
-3.21242e-10
6.86057e-09
8.21935e-08
-2.05701e-10
6.54435e-09
8.23957e-08
-1.29992e-10
6.2996e-09
8.25656e-08
-1.11902e-10
5.91756e-09
8.29301e-08
-1.37776e-10
5.82903e-09
8.30445e-08
-6.0417e-11
5.9884e-09
8.31781e-08
-3.40279e-11
6.08804e-09
8.30501e-08
-5.82749e-11
6.50207e-09
8.26569e-08
-1.59396e-10
6.78058e-09
8.24756e-08
-2.94056e-10
7.15243e-09
8.22336e-08
-4.29075e-10
7.44407e-09
8.20726e-08
-5.7757e-10
7.70366e-09
8.19565e-08
-7.09271e-10
7.89466e-09
8.18926e-08
-8.30324e-10
8.02088e-09
8.18828e-08
-8.97084e-10
7.9999e-09
8.19663e-08
-8.48935e-10
7.74744e-09
8.21677e-08
-7.77048e-10
7.34748e-09
8.24904e-08
-6.16502e-10
6.82887e-09
8.28431e-08
-4.905e-10
6.35427e-09
8.31831e-08
-4.10658e-10
6.08597e-09
8.33667e-08
-4.03621e-10
6.07356e-09
8.33574e-08
-4.75997e-10
6.32695e-09
8.31594e-08
-5.52506e-10
6.83206e-09
8.28474e-08
-7.69455e-10
7.29948e-09
8.24258e-08
-9.23812e-10
7.63611e-09
8.20078e-08
-1.02292e-09
7.85517e-09
8.1764e-08
-9.09902e-10
7.89805e-09
8.17062e-08
-7.78589e-10
7.77301e-09
8.1728e-08
-6.44624e-10
7.57423e-09
8.17986e-08
-4.91707e-10
7.30644e-09
8.19167e-08
-3.56694e-10
7.00625e-09
8.20838e-08
-2.23303e-10
6.62747e-09
8.23305e-08
-1.2544e-10
6.34375e-09
8.25171e-08
-1.03346e-10
5.92783e-09
8.29115e-08
-1.3103e-10
5.82619e-09
8.30407e-08
-5.30591e-11
5.98044e-09
8.3177e-08
-2.53988e-11
6.09938e-09
8.30286e-08
-5.47986e-11
6.55569e-09
8.25986e-08
-1.81336e-10
6.87029e-09
8.2407e-08
-3.35051e-10
7.29792e-09
8.21286e-08
-4.87307e-10
7.6638e-09
8.19108e-08
-6.41734e-10
7.9568e-09
8.17674e-08
-7.69464e-10
8.14896e-09
8.16985e-08
-8.825e-10
8.26939e-09
8.16866e-08
-9.43663e-10
8.25061e-09
8.17623e-08
-8.94527e-10
8.01544e-09
8.19453e-08
-8.23694e-10
7.63145e-09
8.22531e-08
-6.62839e-10
7.12742e-09
8.25909e-08
-5.37096e-10
6.68541e-09
8.28987e-08
-4.54877e-10
6.41455e-09
8.30824e-08
-4.48393e-10
6.40237e-09
8.30733e-08
-5.22599e-10
6.65861e-09
8.28748e-08
-6.03795e-10
7.12363e-09
8.2592e-08
-8.26089e-10
7.57438e-09
8.21795e-08
-9.58499e-10
7.91144e-09
8.17982e-08
-1.0605e-09
8.11053e-09
8.15668e-08
-9.61875e-10
8.14649e-09
8.15127e-08
-8.39353e-10
8.02681e-09
8.15361e-08
-7.08719e-10
7.82725e-09
8.16106e-08
-5.50871e-10
7.52639e-09
8.17565e-08
-3.98051e-10
7.15203e-09
8.19798e-08
-2.45421e-10
6.71749e-09
8.2263e-08
-1.2134e-10
6.39821e-09
8.24587e-08
-9.37213e-11
5.94045e-09
8.28895e-08
-1.2251e-10
5.81963e-09
8.30388e-08
-4.3597e-11
5.96877e-09
8.31775e-08
-1.58515e-11
6.11395e-09
8.3003e-08
-5.23601e-11
6.62383e-09
8.25268e-08
-2.0682e-10
6.97248e-09
8.23295e-08
-3.82418e-10
7.44465e-09
8.20288e-08
-5.53777e-10
7.88285e-09
8.17579e-08
-7.17329e-10
8.2166e-09
8.15832e-08
-8.42381e-10
8.41084e-09
8.15096e-08
-9.46257e-10
8.52018e-09
8.14997e-08
-1.00208e-09
8.49999e-09
8.15714e-08
-9.50062e-10
8.27627e-09
8.174e-08
-8.79871e-10
7.91084e-09
8.20298e-08
-7.20496e-10
7.42518e-09
8.23507e-08
-5.984e-10
6.99549e-09
8.26499e-08
-5.16428e-10
6.7259e-09
8.28325e-08
-5.10534e-10
6.71402e-09
8.28238e-08
-5.84033e-10
6.96899e-09
8.26262e-08
-6.66589e-10
7.41566e-09
8.23467e-08
-8.90345e-10
7.84649e-09
8.19494e-08
-1.00527e-09
8.178e-09
8.16035e-08
-1.10925e-09
8.3647e-09
8.13825e-08
-1.02588e-09
8.3973e-09
8.13295e-08
-9.10706e-10
8.28826e-09
8.13472e-08
-7.84625e-10
8.08703e-09
8.14276e-08
-6.19149e-10
7.74584e-09
8.1606e-08
-4.45949e-10
7.29917e-09
8.18811e-08
-2.71089e-10
6.82007e-09
8.21864e-08
-1.18225e-10
6.4671e-09
8.23869e-08
-8.3242e-11
5.95605e-09
8.28636e-08
-1.11933e-10
5.80925e-09
8.30388e-08
-3.18886e-11
5.95362e-09
8.31794e-08
-6.17493e-12
6.13148e-09
8.29746e-08
-5.17243e-11
6.70728e-09
8.24416e-08
-2.34989e-10
7.08825e-09
8.22411e-08
-4.36764e-10
7.59022e-09
8.19371e-08
-6.26479e-10
8.09027e-09
8.16229e-08
-8.02795e-10
8.46852e-09
8.14166e-08
-9.25757e-10
8.66606e-09
8.13377e-08
-1.02007e-09
8.7576e-09
8.13362e-08
-1.06878e-09
8.72894e-09
8.14093e-08
-1.0145e-09
8.51439e-09
8.15664e-08
-9.43681e-10
8.16917e-09
8.18353e-08
-7.8749e-10
7.70617e-09
8.21367e-08
-6.68632e-10
7.2865e-09
8.24292e-08
-5.86807e-10
7.01926e-09
8.26095e-08
-5.81467e-10
7.00773e-09
8.2601e-08
-6.54729e-10
7.26023e-09
8.24058e-08
-7.38984e-10
7.69127e-09
8.21269e-08
-9.60466e-10
8.09928e-09
8.175e-08
-1.06211e-09
8.42046e-09
8.14372e-08
-1.16794e-09
8.59842e-09
8.12285e-08
-1.0984e-09
8.63491e-09
8.11686e-08
-9.9232e-10
8.54313e-09
8.11752e-08
-8.69537e-10
8.33906e-09
8.12615e-08
-6.92736e-10
7.95385e-09
8.14723e-08
-5.00878e-10
7.44533e-09
8.17903e-08
-2.99453e-10
6.9364e-09
8.20988e-08
-1.16804e-10
6.55119e-09
8.23016e-08
-7.22057e-11
5.97441e-09
8.28344e-08
-9.90762e-11
5.79528e-09
8.304e-08
-1.82344e-11
5.93579e-09
8.31821e-08
3.71756e-12
6.15046e-09
8.29446e-08
-5.43197e-11
6.79531e-09
8.23552e-08
-2.66135e-10
7.21756e-09
8.21422e-08
-4.96744e-10
7.73275e-09
8.18542e-08
-7.01686e-10
8.27492e-09
8.15133e-08
-8.91484e-10
8.6954e-09
8.12783e-08
-1.01283e-09
8.89712e-09
8.11938e-08
-1.09864e-09
8.96347e-09
8.12089e-08
-1.13893e-09
8.91576e-09
8.12927e-08
-1.08262e-09
8.70466e-09
8.14442e-08
-1.01132e-09
8.37884e-09
8.16933e-08
-8.59584e-10
7.9415e-09
8.19734e-08
-7.43329e-10
7.53622e-09
8.22542e-08
-6.62029e-10
7.27277e-09
8.24312e-08
-6.57189e-10
7.26164e-09
8.24228e-08
-7.30168e-10
7.51007e-09
8.22312e-08
-8.16804e-10
7.92116e-09
8.19579e-08
-1.03276e-09
8.30499e-09
8.16048e-08
-1.12449e-09