/*--------------------------------*- C++ -*----------------------------------*\
  =========                 |
  \\      /  F ield         | OpenFOAM: The Open Source CFD Toolbox
   \\    /   O peration     | Website:  https://openfoam.org
    \\  /    A nd           | Version:  6
     \\/     M anipulation  |
\*---------------------------------------------------------------------------*/
FoamFile
{
    version     2.0;
    format      ascii;
    class       surfaceScalarField;
    location    "40";
    object      phi;
}
// * * * * * * * * * * * * * * * * * * * * * * * * * * * * * * * * * * * * * //

dimensions      [0 3 -1 0 0 0 0];

internalField   nonuniform List<scalar> 
8442
(
2.00037e-07
2.29774e-13
6.0406e-13
2.00038e-07
5.87755e-14
-1.59744e-12
-2.52916e-13
9.57742e-13
1.56516e-07
3.89592e-13
5.32876e-13
1.56518e-07
-5.30555e-13
-2.14758e-12
1.29462e-13
1.66184e-12
2.1475e-07
4.82224e-13
7.18185e-13
2.14754e-07
1.85337e-13
-4.58801e-12
-6.70008e-13
3.86077e-12
2.80323e-07
4.55966e-13
1.56779e-12
2.80328e-07
4.52178e-13
-6.08669e-12
-9.10891e-13
4.51921e-12
3.5531e-07
5.13078e-13
2.44747e-12
3.55317e-07
2.09831e-13
-7.52475e-12
-7.26597e-13
5.07826e-12
4.42637e-07
5.44623e-13
3.29423e-12
4.42646e-07
-7.12193e-14
-9.15206e-12
-4.72639e-13
5.85342e-12
5.45381e-07
4.18244e-13
4.12978e-12
5.45392e-07
3.64286e-14
-1.1102e-11
-4.53716e-13
6.97201e-12
6.66932e-07
1.13606e-13
4.85348e-12
6.66944e-07
5.211e-13
-1.30174e-11
-6.3336e-13
8.16348e-12
8.11008e-07
-3.59002e-13
5.431e-12
8.11022e-07
1.19381e-12
-1.47147e-11
-8.35613e-13
9.28585e-12
9.8142e-07
-7.62379e-13
6.38948e-12
9.81435e-07
1.75704e-12
-1.59339e-11
-1.00146e-12
9.55039e-12
1.18155e-06
-1.04511e-12
8.14517e-12
1.18157e-06
2.04111e-12
-1.70167e-11
-1.00504e-12
8.87376e-12
1.41388e-06
-1.13681e-12
1.06848e-11
1.4139e-06
2.02353e-12
-1.84034e-11
-8.97755e-13
7.72065e-12
1.68e-06
-8.41478e-13
1.33141e-11
1.68002e-06
1.50611e-12
-2.02034e-11
-6.76049e-13
6.88966e-12
1.98152e-06
-4.26289e-13
1.58471e-11
1.98154e-06
7.47661e-13
-2.24185e-11
-3.33818e-13
6.57239e-12
2.31951e-06
-1.40757e-14
1.83763e-11
2.31953e-06
5.19473e-15
-2.51124e-11
-7.96595e-17
6.73263e-12
2.3195e-06
4.0588e-13
1.84051e-11
2.31953e-06
-7.4268e-13
-2.51296e-11
3.33065e-13
6.71917e-12
1.98151e-06
8.17789e-13
1.58339e-11
1.98154e-06
-1.5082e-12
-2.24267e-11
6.74033e-13
6.6054e-12
1.67999e-06
1.09224e-12
1.33167e-11
1.68002e-06
-2.0323e-12
-2.01614e-11
8.75031e-13
6.89333e-12
1.41388e-06
1.10406e-12
1.05744e-11
1.4139e-06
-2.00152e-12
-1.84394e-11
1.08691e-12
7.61024e-12
1.18157e-06
7.14181e-13
8.24634e-12
1.18158e-06
-1.7644e-12
-1.69359e-11
9.564e-13
8.97316e-12
9.81425e-07
3.23821e-13
6.35986e-12
9.8144e-07
-1.16712e-12
-1.59664e-11
8.10096e-13
9.54589e-12
8.11012e-07
-1.39309e-13
5.39372e-12
8.11026e-07
-4.91671e-13
-1.4706e-11
6.18282e-13
9.29179e-12
6.66928e-07
-4.56853e-13
4.78201e-12
6.66941e-07
-1.01806e-14
-1.30092e-11
4.58779e-13
8.22277e-12
5.45371e-07
-5.79803e-13
4.11492e-12
5.45382e-07
9.64984e-14
-1.11044e-11
4.77079e-13
6.98748e-12
4.42623e-07
-5.33873e-13
3.28688e-12
4.42633e-07
-1.90298e-13
-9.13229e-12
7.17585e-13
5.84577e-12
3.55298e-07
-4.73358e-13
2.41553e-12
3.55305e-07
-4.42328e-13
-7.51747e-12
9.09198e-13
5.10184e-12
2.80312e-07
-4.92418e-13
1.5528e-12
2.80318e-07
-1.92008e-13
-6.07031e-12
6.8055e-13
4.5149e-12
2.14738e-07
-4.04386e-13
7.07313e-13
2.14742e-07
5.31986e-13
-4.58951e-12
-1.30071e-13
3.8808e-12
1.56507e-07
-1.98703e-13
4.86661e-13
1.5651e-07
-2.85763e-14
-2.16604e-12
2.27051e-13
1.67714e-12
2.00024e-07
6.31182e-13
2.00025e-07
-1.55931e-12
9.27903e-13
3.0401e-07
5.16718e-13
1.14306e-12
3.04012e-07
-1.8543e-13
-3.33358e-12
-3.1949e-13
2.14309e-12
5.07374e-07
1.12502e-12
1.86757e-12
5.07381e-07
-1.23152e-12
-8.75074e-12
5.6536e-14
6.99206e-12
6.80762e-07
1.30651e-12
2.69373e-12
6.80772e-07
5.14608e-13
-1.63672e-11
-1.84339e-12
1.36368e-11
8.69153e-07
1.16733e-12
5.54616e-12
8.69167e-07
1.52179e-12
-2.11765e-11
-2.70815e-12
1.56274e-11
1.08017e-06
1.29317e-12
8.20892e-12
1.08019e-06
8.12098e-13
-2.45561e-11
-2.11881e-12
1.63427e-11
1.32201e-06
1.3533e-12
1.06793e-11
1.32203e-06
1.1457e-13
-2.89684e-11
-1.47279e-12
1.82761e-11
1.60263e-06
1.0097e-12
1.30724e-11
1.60266e-06
3.45466e-13
-3.42776e-11
-1.35623e-12
2.12011e-11
1.93047e-06
1.59058e-13
1.5126e-11
1.9305e-06
1.60519e-12
-3.95477e-11
-1.76365e-12
2.44196e-11
2.31461e-06
-1.0651e-12
1.65993e-11
2.31463e-06
3.29338e-12
-4.39325e-11
-2.23268e-12
2.73403e-11
2.76444e-06
-2.11736e-12
1.90425e-11
2.76447e-06
4.68164e-12
-4.68205e-11
-2.582e-12
2.77974e-11
3.28894e-06
-2.82995e-12
2.36061e-11
3.28897e-06
5.35673e-12
-4.93477e-11
-2.55332e-12
2.57527e-11
3.89599e-06
-2.99699e-12
3.01962e-11
3.89603e-06
5.20914e-12
-5.27965e-11
-2.24335e-12
2.26069e-11
4.59267e-06
-2.22821e-12
3.6942e-11
4.59271e-06
3.86235e-12
-5.74492e-11
-1.66792e-12
2.05101e-11
5.387e-06
-1.12621e-12
4.35749e-11
5.38704e-06
1.92247e-12
-6.34352e-11
-8.30438e-13
1.98618e-11
6.28684e-06
-3.43239e-14
5.03889e-11
6.28689e-06
9.87829e-15
-7.10019e-11
-1.60153e-15
2.06014e-11
6.28684e-06
1.07349e-12
5.04673e-11
6.28688e-06
-1.91646e-12
-7.10457e-11
8.26571e-13
2.05635e-11
5.38699e-06
2.17676e-12
4.35307e-11
5.38703e-06
-3.86132e-12
-6.34666e-11
1.66439e-12
1.99523e-11
4.59267e-06
2.91519e-12
3.6941e-11
4.59271e-06
-5.2178e-12
-5.73346e-11
2.21532e-12
2.05094e-11
3.896e-06
2.86328e-12
2.99577e-11
3.89603e-06
-5.32066e-12
-5.28556e-11
2.6317e-12
2.23812e-11
3.28897e-06
2.03834e-12
2.38076e-11
3.289e-06
-4.67944e-12
-4.91708e-11
2.52451e-12
2.59379e-11
2.76445e-06
9.91962e-13
1.8976e-11
2.76448e-06
-3.22498e-12
-4.69169e-11
2.1883e-12
2.78085e-11
2.31461e-06
-2.29421e-13
1.65051e-11
2.31464e-06
-1.52815e-12
-4.39105e-11
1.7293e-12
2.73684e-11
1.93047e-06
-1.10987e-12
1.49153e-11
1.93049e-06
-2.78846e-13
-3.95173e-11
1.36592e-12
2.45921e-11
1.60261e-06
-1.44707e-12
1.30283e-11
1.60263e-06
-4.85452e-14
-3.42871e-11
1.47613e-12
2.12535e-11
1.32198e-06
-1.35517e-12
1.06551e-11
1.322e-06
-7.64476e-13
-2.8901e-11
2.10157e-12
1.82449e-11
1.08015e-06
-1.2222e-12
8.10697e-12
1.08016e-06
-1.51216e-12
-2.45177e-11
2.71853e-12
1.64084e-11
8.69127e-07
-1.34927e-12
5.50144e-12
8.69141e-07
-5.42604e-13
-2.11238e-11
1.8811e-12
1.56147e-11
6.8073e-07
-1.18953e-12
2.66543e-12
6.8074e-07
1.2049e-12
-1.63536e-11
-2.14282e-14
1.3682e-11
5.07349e-07
-5.17394e-13
1.75662e-12
5.07356e-07
2.03949e-13
-8.78585e-12
3.12866e-13
7.0215e-12
3.03993e-07
1.1647e-12
3.03995e-07
-3.26674e-12
2.10123e-12
3.86061e-07
7.49847e-13
1.63403e-12
3.86063e-07
-3.27064e-13
-5.25235e-12
-4.17249e-13
3.56535e-12
8.05334e-07
1.68472e-12
3.45607e-12
8.05344e-07
-1.55408e-12
-1.68878e-11
-1.91568e-13
1.36071e-11
1.05974e-06
1.86469e-12
5.37373e-12
1.05975e-06
7.70749e-13
-3.09861e-11
-2.66963e-12
2.55489e-11
1.33194e-06
1.60365e-12
1.08231e-11
1.33196e-06
2.38995e-12
-4.00706e-11
-4.02295e-12
2.92397e-11
1.63659e-06
1.75275e-12
1.56575e-11
1.63661e-06
1.3656e-12
-4.52026e-11
-3.13717e-12
2.95301e-11
1.98538e-06
1.8207e-12
2.0131e-11
1.9854e-06
3.99774e-13
-5.29312e-11
-2.22921e-12
3.27771e-11
2.38947e-06
1.33248e-12
2.44795e-11
2.3895e-06
6.76646e-13
-6.23346e-11
-2.01069e-12
3.78438e-11
2.8606e-06
1.10797e-13
2.82443e-11
2.86063e-06
2.42446e-12
-7.18723e-11
-2.53462e-12
4.36237e-11
3.41143e-06
-1.59979e-12
3.08238e-11
3.41147e-06
4.74615e-12
-7.9681e-11
-3.15322e-12
4.88718e-11
4.05525e-06
-3.07517e-12
3.49205e-11
4.05529e-06
6.64291e-12
-8.48396e-11
-3.59279e-12
4.99566e-11
4.80507e-06
-4.06132e-12
4.26042e-11
4.8051e-06
7.54953e-12
-8.95063e-11
-3.52708e-12
4.6927e-11
5.67292e-06
-4.25461e-12
5.36999e-11
5.67296e-06
7.2869e-12
-9.59096e-11
-3.07702e-12
4.22222e-11
6.67032e-06
-3.16699e-12
6.50353e-11
6.67037e-06
5.39578e-12
-1.04428e-10
-2.27774e-12
3.93994e-11
7.81037e-06
-1.6007e-12
7.63743e-11
7.81043e-06
2.68928e-12
-1.15373e-10
-1.13711e-12
3.89999e-11
9.10649e-06
-4.75205e-14
8.82459e-11
9.10655e-06
1.25339e-14
-1.29312e-10
-1.753e-15
4.10431e-11
9.10649e-06
1.52636e-12
8.83841e-11
9.10655e-06
-2.68294e-12
-1.29387e-10
1.13338e-12
4.09749e-11
7.81036e-06
3.09896e-12
7.62862e-11
7.81042e-06
-5.39022e-12
-1.15439e-10
2.2762e-12
3.91614e-11
6.67032e-06
4.15117e-12
6.50271e-11
6.67037e-06
-7.30205e-12
-1.04218e-10
3.05372e-12
3.93883e-11
5.67293e-06
4.06131e-12
5.3341e-11
5.67297e-06
-7.52986e-12
-9.59802e-11
3.58694e-12
4.19069e-11
4.8051e-06
2.98124e-12
4.28844e-11
4.80513e-06
-6.63283e-12
-8.92468e-11
3.53514e-12
4.71721e-11
4.05526e-06
1.50534e-12
3.48186e-11
4.0553e-06
-4.64349e-12
-8.50277e-11
3.098e-12
5.00003e-11
3.41144e-06
-2.12107e-13
3.06714e-11
3.41147e-06
-2.31325e-12
-7.96421e-11
2.48981e-12
4.89291e-11
2.86059e-06
-1.47277e-12
2.78745e-11
2.86062e-06
-5.84638e-13
-7.18083e-11
2.02545e-12
4.39203e-11
2.38944e-06
-1.95308e-12
2.43976e-11
2.38947e-06
-3.08388e-13
-6.23569e-11
2.23268e-12
3.79508e-11
1.98534e-06
-1.84324e-12
2.00837e-11
1.98536e-06
-1.29888e-12
-5.28054e-11
3.11564e-12
3.27184e-11
1.63655e-06
-1.68264e-12
1.54733e-11
1.63657e-06
-2.38128e-12
-4.51166e-11
4.04114e-12
2.96372e-11
1.3319e-06
-1.92792e-12
1.07432e-11
1.33192e-06
-8.07688e-13
-3.99756e-11
2.71882e-12
2.92187e-11
1.0597e-06
-1.76926e-12
5.32146e-12
1.05971e-06
1.51548e-12
-3.09507e-11
2.44523e-13
2.56156e-11
8.05301e-07
-7.62446e-13
3.27007e-12
8.0531e-07
3.46627e-13
-1.69454e-11
4.14418e-13
1.36597e-11
3.8604e-07
1.6376e-12
3.86043e-07
-5.15389e-12
3.51409e-12
4.80134e-07
9.46053e-13
2.14291e-12
4.80136e-07
-3.75132e-13
-7.50338e-12
-5.59635e-13
5.29622e-12
1.04851e-06
2.12371e-12
5.16093e-12
1.04852e-06
-1.73666e-12
-2.55147e-11
-4.44285e-13
2.05976e-11
1.37224e-06
2.28846e-12
8.53487e-12
1.37225e-06
1.01428e-12
-4.73295e-11
-3.34209e-12
3.87133e-11
1.71476e-06
1.92039e-12
1.71376e-11
1.71478e-06
3.10246e-12
-6.17806e-11
-5.05763e-12
4.46307e-11
2.09836e-06
2.07421e-12
2.45948e-11
2.09838e-06
1.87639e-12
-6.88796e-11
-3.97257e-12
4.42571e-11
2.53777e-06
2.14445e-12
3.14815e-11
2.5378e-06
7.00441e-13
-8.05448e-11
-2.85552e-12
4.90289e-11
3.04688e-06
1.543e-12
3.81943e-11
3.04691e-06
1.00414e-12
-9.48135e-11
-2.5482e-12
5.65983e-11
3.64028e-06
3.27263e-14
4.40772e-11
3.64032e-06
3.1213e-12
-1.09557e-10
-3.15272e-12
6.54735e-11
4.33378e-06
-2.06099e-12
4.80304e-11
4.33381e-06
5.93294e-12
-1.21678e-10
-3.88052e-12
7.36721e-11
5.14398e-06
-3.87028e-12
5.39892e-11
5.14403e-06
8.22438e-12
-1.2999e-10
-4.3854e-12
7.60613e-11
6.08736e-06
-5.07341e-12
6.51319e-11
6.0874e-06
9.30802e-12
-1.37846e-10
-4.28353e-12
7.27564e-11
7.17937e-06
-5.28495e-12
8.12398e-11
7.17942e-06
8.95117e-12
-1.4847e-10
-3.72189e-12
6.72495e-11
8.43505e-06
-3.9346e-12
9.77211e-11
8.43511e-06
6.62338e-12
-1.62225e-10
-2.74983e-12
6.45163e-11
9.87151e-06
-1.9905e-12
1.14429e-10
9.87158e-06
3.3039e-12
-1.79599e-10
-1.37357e-12
6.51704e-11
1.15064e-05
-5.84376e-14
1.32141e-10
1.15065e-05
1.47006e-14
-2.01622e-10
-1.22749e-15
6.94431e-11
1.15064e-05
1.89849e-12
1.3235e-10
1.15065e-05
-3.29688e-12
-2.01736e-10
1.37121e-12
6.9339e-11
9.8715e-06
3.85253e-12
1.14284e-10
9.87157e-06
-6.61439e-12
-1.79711e-10
2.75133e-12
6.54184e-11
8.43504e-06
5.16363e-12
9.77e-11
8.4351e-06
-8.97393e-12
-1.61896e-10
3.70444e-12
6.44895e-11
7.17938e-06
5.04902e-12
8.07627e-11
7.17943e-06
-9.30725e-12
-1.4854e-10
4.33528e-12
6.68621e-11
6.08739e-06
3.76424e-12
6.54753e-11
6.08744e-06
-8.20647e-12
-1.37521e-10
4.32547e-12
7.30492e-11
5.14399e-06
1.94886e-12
5.38523e-11
5.14404e-06
-5.79896e-12
-1.30296e-10
3.81463e-12
7.61531e-11
4.33379e-06
-1.58743e-13
4.78167e-11
4.33382e-06
-2.9817e-12
-1.21617e-10
3.10001e-12
7.37634e-11
3.64027e-06
-1.71491e-12
4.3529e-11
3.64031e-06
-8.9324e-13
-1.09448e-10
2.56927e-12
6.5904e-11
3.04685e-06
-2.30696e-12
3.80688e-11
3.04688e-06
-5.90507e-13
-9.48451e-11
2.86168e-12
5.67647e-11
2.53773e-06
-2.1863e-12
3.14065e-11
2.53775e-06
-1.79445e-12
-8.03542e-11
3.94735e-12
4.89419e-11
2.09832e-06
-2.01596e-12
2.43198e-11
2.09834e-06
-3.09165e-12
-6.87372e-11
5.07848e-12
4.44071e-11
1.71472e-06
-2.36328e-12
1.70174e-11
1.71474e-06
-1.0534e-12
-6.16415e-11
3.39451e-12
4.46034e-11
1.37219e-06
-2.21062e-12
8.44631e-12
1.3722e-06
1.70046e-12
-4.72743e-11
4.9775e-13
3.88046e-11
1.04847e-06
-9.57272e-13
4.8944e-12
1.04848e-06
4.04341e-13
-2.55974e-11
5.50536e-13
2.06774e-11
4.8011e-07
2.12907e-12
4.80112e-07
-7.36146e-12
5.22779e-12
5.89582e-07
1.13589e-12
2.70811e-12
5.89585e-07
-3.84535e-13
-1.01903e-11
-7.3043e-13
7.39704e-12
1.27808e-06
2.53224e-12
6.96134e-12
1.27809e-06
-1.87337e-12
-3.4242e-11
-7.06584e-13
2.75931e-11
1.67298e-06
2.68053e-12
1.21146e-11
1.673e-06
1.26881e-12
-6.49603e-11
-3.99121e-12
5.27585e-11
2.0859e-06
2.20578e-12
2.43719e-11
2.08592e-06
3.78432e-12
-8.60133e-11
-6.02881e-12
6.16259e-11
2.54794e-06
2.35009e-12
3.49669e-11
2.54797e-06
2.4122e-12
-9.55651e-11
-4.78713e-12
6.05566e-11
3.07722e-06
2.41633e-12
4.47148e-11
3.07725e-06
1.04461e-12
-1.118e-10
-3.47309e-12
6.70383e-11
3.69042e-06
1.70761e-12
5.42094e-11
3.69046e-06
1.36905e-12
-1.31709e-10
-3.07719e-12
7.7467e-11
4.40504e-06
-6.97381e-14
6.26435e-11
4.40508e-06
3.81955e-12
-1.52604e-10
-3.74788e-12
8.99512e-11
5.24001e-06
-2.52112e-12
6.82922e-11
5.24005e-06
7.08163e-12
-1.69997e-10
-4.57079e-12
1.01742e-10
6.21529e-06
-4.64253e-12
7.63515e-11
6.21534e-06
9.73736e-12
-1.82521e-10
-5.13235e-12
1.06257e-10
7.35073e-06
-6.04964e-12
9.12801e-11
7.35079e-06
1.09821e-11
-1.94859e-10
-4.99116e-12
1.03643e-10
8.66516e-06
-6.27615e-12
1.12904e-10
8.66522e-06
1.05326e-11
-2.11237e-10
-4.32279e-12
9.83601e-11
1.0177e-05
-4.67186e-12
1.35094e-10
1.01771e-05
7.78877e-12
-2.31861e-10
-3.18971e-12
9.67861e-11
1.19072e-05
-2.3664e-12
1.57847e-10
1.19073e-05
3.88835e-12
-2.57357e-10
-1.5935e-12
9.95091e-11
1.38775e-05
-6.89307e-14
1.82186e-10
1.38776e-05
1.65368e-14
-2.89377e-10
-6.78547e-16
1.07134e-10
1.38775e-05
2.25737e-12
1.8248e-10
1.38776e-05
-3.88098e-12
-2.89537e-10
1.59232e-12
1.06989e-10
1.19072e-05
4.57538e-12
1.57634e-10
1.19073e-05
-7.77773e-12
-2.57526e-10
3.19356e-12
9.9862e-11
1.0177e-05
6.13739e-12
1.35052e-10
1.01771e-05
-1.0563e-11
-2.31391e-10
4.31057e-12
9.67387e-11
8.66517e-06
6.00729e-12
1.12304e-10
8.66523e-06
-1.09976e-11
-2.11299e-10
5.04148e-12
9.79126e-11
7.35077e-06
4.52371e-12
9.16784e-11
7.35083e-06
-9.71287e-12
-1.94483e-10
5.06813e-12
1.0398e-10
6.2153e-06
2.39069e-12
7.61799e-11
6.21535e-06
-6.91921e-12
-1.82968e-10
4.49367e-12
1.06412e-10
5.24002e-06
-7.98341e-14
6.8012e-11
5.24007e-06
-3.65398e-12
-1.69909e-10
3.68788e-12
1.01871e-10
4.40503e-06
-1.90928e-12
6.18961e-11
4.40507e-06
-1.2411e-12
-1.52439e-10
3.10469e-12
9.05277e-11
3.69038e-06
-2.60705e-12
5.4032e-11
3.69042e-06
-9.18178e-13
-1.31736e-10
3.4828e-12
7.76894e-11
3.07716e-06
-2.48212e-12
4.46086e-11
3.07719e-06
-2.31644e-12
-1.11541e-10
4.75842e-12
6.69245e-11
2.54789e-06
-2.31582e-12
3.45934e-11
2.54792e-06
-3.77007e-12
-9.53609e-11
6.05032e-12
6.07526e-11
2.08585e-06
-2.76366e-12
2.42046e-11
2.08587e-06
-1.30741e-12
-8.58302e-11
4.04357e-12
6.15969e-11
1.67292e-06
-2.61418e-12
1.19734e-11
1.67294e-06
1.84641e-12
-6.48913e-11
7.51969e-13
5.28828e-11
1.27803e-06
-1.14133e-12
6.61122e-12
1.27804e-06
4.26305e-13
-3.43491e-11
7.11487e-13
2.77001e-11
5.89553e-07
2.68192e-12
5.89556e-07
-9.98983e-12
7.29977e-12
7.17587e-07
1.33296e-12
3.3588e-12
7.17591e-07
-3.82617e-13
-1.33982e-11
-9.19974e-13
9.92383e-12
1.51232e-06
2.9444e-12
8.83723e-12
1.51233e-06
-1.99388e-12
-4.27581e-11
-9.88306e-13
3.43015e-11
1.98381e-06
3.07752e-12
1.60828e-11
1.98383e-06
1.53734e-12
-8.34292e-11
-4.65911e-12
6.72656e-11
2.47158e-06
2.48959e-12
3.24834e-11
2.4716e-06
4.48368e-12
-1.12498e-10
-7.01618e-12
7.99981e-11
3.01638e-06
2.60885e-12
4.67005e-11
3.01642e-06
3.00527e-12
-1.25192e-10
-5.64244e-12
7.84358e-11
3.64027e-06
2.66272e-12
5.98173e-11
3.64031e-06
1.45446e-12
-1.4673e-10
-4.1313e-12
8.68512e-11
4.363e-06
1.84398e-12
7.2516e-11
4.36304e-06
1.79621e-12
-1.73096e-10
-3.64065e-12
1.00534e-10
5.20514e-06
-1.99445e-13
8.39575e-11
5.20519e-06
4.5696e-12
-2.01136e-10
-4.36797e-12
1.17167e-10
6.18895e-06
-3.00819e-12
9.16798e-11
6.189e-06
8.27506e-12
-2.24823e-10
-5.27918e-12
1.33194e-10
7.33791e-06
-5.44248e-12
1.02145e-10
7.33797e-06
1.12912e-11
-2.42768e-10
-5.89288e-12
1.40743e-10
8.67544e-06
-7.05544e-12
1.21191e-10
8.67551e-06
1.26937e-11
-2.61097e-10
-5.7071e-12
1.39994e-10
1.02239e-05
-7.29441e-12
1.48847e-10
1.0224e-05
1.21451e-11
-2.84996e-10
-4.92835e-12
1.36185e-10
1.20052e-05
-5.42859e-12
1.77317e-10
1.20053e-05
8.97604e-12
-3.14355e-10
-3.63262e-12
1.37065e-10
1.40443e-05
-2.7537e-12
2.0682e-10
1.40444e-05
4.48508e-12
-3.49883e-10
-1.81499e-12
1.4306e-10
1.6367e-05
-7.96509e-14
2.38595e-10
1.63671e-05
1.80761e-14
-3.94018e-10
-3.34815e-16
1.55344e-10
1.6367e-05
2.62719e-12
2.3899e-10
1.63671e-05
-4.47791e-12
-3.94234e-10
1.81438e-12
1.55151e-10
1.40442e-05
5.31673e-12
2.06525e-10
1.40443e-05
-8.96394e-12
-3.50122e-10
3.63788e-12
1.43539e-10
1.20052e-05
7.13761e-12
1.77247e-10
1.20053e-05
-1.21829e-11
-3.13724e-10
4.92035e-12
1.36993e-10
1.02239e-05
6.99802e-12
1.48116e-10
1.0224e-05
-1.27229e-11
-2.85043e-10
5.75876e-12
1.35687e-10
8.67549e-06
5.30978e-12
1.21641e-10
8.67555e-06
-1.12615e-11
-2.6068e-10
5.82327e-12
1.40378e-10
7.33792e-06
2.85812e-12
1.01939e-10
7.33798e-06
-8.08673e-12
-2.43381e-10
5.19082e-12
1.40975e-10
6.18896e-06
2.58426e-14
9.13271e-11
6.18901e-06
-4.37933e-12
-2.24704e-10
4.30085e-12
1.33367e-10
5.20512e-06
-2.07567e-12
8.29876e-11
5.20517e-06
-1.65153e-12
-2.00907e-10
3.67412e-12
1.17904e-10
4.36295e-06
-2.88197e-12
7.22781e-11
4.36299e-06
-1.31211e-12
-1.73106e-10
4.14464e-12
1.0081e-10
3.64021e-06
-2.76115e-12
5.96767e-11
3.64024e-06
-2.89666e-12
-1.46404e-10
5.61066e-12
8.67169e-11
3.01632e-06
-2.61427e-12
4.62227e-11
3.01635e-06
-4.46614e-12
-1.24923e-10
7.03818e-12
7.86808e-11
2.47152e-06
-3.16865e-12
3.22619e-11
2.47154e-06
-1.57499e-12
-1.12272e-10
4.7107e-12
7.99724e-11
1.98375e-06
-3.02034e-12
1.58731e-11
1.98376e-06
1.97752e-12
-8.33528e-11
1.02344e-12
6.7431e-11
1.51226e-06
-1.33266e-12
8.40283e-12
1.51227e-06
4.3678e-13
-4.28878e-11
8.91042e-13
3.44326e-11
7.17554e-07
3.3253e-12
7.17557e-07
-1.31237e-11
9.78542e-12
8.67501e-07
1.54616e-12
4.11969e-12
8.67505e-07
-3.90012e-13
-1.71986e-11
-1.11871e-12
1.29259e-11
1.76104e-06
3.37923e-12
1.07647e-11
1.76105e-06
-2.11756e-12
-5.08358e-11
-1.29128e-12
4.05187e-11
2.31627e-06
3.49935e-12
2.04416e-11
2.31629e-06
1.81817e-12
-1.02256e-10
-5.36488e-12
8.17516e-11
2.88593e-06
2.78711e-12
4.14713e-11
2.88596e-06
5.22301e-12
-1.40928e-10
-8.05815e-12
9.94406e-11
3.52067e-06
2.86229e-12
5.97763e-11
3.5207e-06
3.67805e-12
-1.57643e-10
-6.5731e-12
9.77954e-11
4.2471e-06
2.89244e-12
7.67571e-11
4.24714e-06
1.94962e-12
-1.85309e-10
-4.8589e-12
1.08475e-10
5.08843e-06
1.95613e-12
9.30763e-11
5.08848e-06
2.3059e-12
-2.18998e-10
-4.26307e-12
1.2586e-10
6.06863e-06
-3.61708e-13
1.07998e-10
6.06868e-06
5.40188e-12
-2.55248e-10
-5.03826e-12
1.47236e-10
7.21355e-06
-3.53882e-12
1.18233e-10
7.21361e-06
9.55723e-12
-2.86373e-10
-6.03324e-12
1.68208e-10
8.55052e-06
-6.29701e-12
1.315e-10
8.55058e-06
1.29412e-11
-3.11067e-10
-6.69557e-12
1.79722e-10
1.01068e-05
-8.12466e-12
1.55025e-10
1.01069e-05
1.4503e-11
-3.37088e-10
-6.45813e-12
1.8218e-10
1.19085e-05
-8.37353e-12
1.89246e-10
1.19086e-05
1.38446e-11
-3.70486e-10
-5.561e-12
1.81286e-10
1.39815e-05
-6.23003e-12
2.24589e-10
1.39816e-05
1.02261e-11
-4.10676e-10
-4.09477e-12
1.86122e-10
1.63548e-05
-3.16546e-12
2.61592e-10
1.63549e-05
5.11501e-12
-4.58356e-10
-2.04634e-12
1.96759e-10
1.90588e-05
-9.09481e-14
3.01649e-10
1.90589e-05
1.93398e-14
-5.16924e-10
-2.76901e-16
2.15171e-10
1.90588e-05
3.02042e-12
3.02161e-10
1.90589e-05
-5.10862e-12
-5.17208e-10
2.04557e-12
2.14925e-10
1.63548e-05
6.1015e-12
2.61201e-10
1.63549e-05
-1.02137e-11
-4.58677e-10
4.10052e-12
1.97387e-10
1.39815e-05
8.19747e-12
2.2448e-10
1.39816e-05
-1.38895e-11
-4.09862e-10
5.55616e-12
1.86021e-10
1.19086e-05
8.05315e-12
1.88374e-10
1.19086e-05
-1.4544e-11
-3.70516e-10
6.5122e-12
1.80744e-10
1.01069e-05
6.14923e-12
1.55526e-10
1.01069e-05
-1.29073e-11
-3.3664e-10
6.61992e-12
1.82611e-10
8.55053e-06
3.36763e-12
1.31259e-10
8.5506e-06
-9.34493e-12
-3.11868e-10
5.9339e-12
1.80047e-10
7.21357e-06
1.62868e-13
1.17801e-10
7.21362e-06
-5.18752e-12
-2.86223e-10
4.96407e-12
1.68428e-10
6.06861e-06
-2.21914e-12
1.06779e-10
6.06866e-06
-2.14419e-12
-2.54946e-10
4.302e-12
1.48153e-10
5.08837e-06
-3.14157e-12
9.27717e-11
5.08842e-06
-1.79138e-12
-2.18985e-10
4.87581e-12
1.26191e-10
4.24702e-06
-3.03606e-12
7.65786e-11
4.24706e-06
-3.55739e-12
-1.8492e-10
6.53878e-12
1.08329e-10
3.52059e-06
-2.92747e-12
5.91897e-11
3.52063e-06
-5.20283e-12
-1.57307e-10
8.08109e-12
9.80924e-11
2.88586e-06
-3.59919e-12
4.11921e-11
2.88589e-06
-1.85519e-12
-1.40661e-10
5.41578e-12
9.94202e-11
2.31619e-06
-3.45055e-12
2.01517e-11
2.3162e-06
2.11095e-12
-1.02178e-10
1.31638e-12
8.19623e-11
1.76097e-06
-1.54238e-12
1.02528e-11
1.76098e-06
4.54527e-13
-5.09853e-11
1.08154e-12
4.06631e-11
8.67462e-07
4.08169e-12
8.67466e-07
-1.68362e-11
1.27353e-11
1.04295e-06
1.78407e-12
5.01122e-12
1.04296e-06
-4.28953e-13
-2.1644e-11
-1.3143e-12
1.6439e-11
2.03112e-06
3.85161e-12
1.2738e-11
2.03113e-06
-2.26488e-12
-5.83238e-11
-1.61094e-12
4.60985e-11
2.67825e-06
3.96093e-12
2.51606e-11
2.67827e-06
2.10371e-12
-1.20944e-10
-6.11646e-12
9.57479e-11
3.33885e-06
3.10925e-12
5.13139e-11
3.33888e-06
6.01376e-12
-1.70921e-10
-9.17754e-12
1.19593e-10
4.07283e-06
3.11626e-12
7.42291e-11
4.07287e-06
4.45018e-12
-1.92759e-10
-7.60494e-12
1.18442e-10
4.91214e-06
3.10733e-12
9.55282e-11
4.91219e-06
2.55121e-12
-2.27448e-10
-5.67916e-12
1.31825e-10
5.8839e-06
2.0423e-12
1.15884e-10
5.88395e-06
2.91946e-12
-2.69366e-10
-4.96423e-12
1.53402e-10
7.01585e-06
-5.63405e-13
1.34753e-10
7.0159e-06
6.34167e-12
-3.14952e-10
-5.7773e-12
1.8018e-10
8.33783e-06
-4.12583e-12
1.47946e-10
8.3379e-06
1.09594e-11
-3.54779e-10
-6.85153e-12
2.0692e-10
9.88138e-06
-7.22453e-12
1.64511e-10
9.88146e-06
1.47239e-11
-3.87671e-10
-7.55868e-12
2.23357e-10
1.1678e-05
-9.27989e-12
1.92948e-10
1.16781e-05
1.64488e-11
-4.23255e-10
-7.2607e-12
2.30456e-10
1.37581e-05
-9.53558e-12
2.34272e-10
1.37582e-05
1.56662e-11
-4.68317e-10
-6.23418e-12
2.34103e-10
1.61514e-05
-7.09254e-12
2.77132e-10
1.61516e-05
1.15647e-11
-5.21642e-10
-4.5858e-12
2.44555e-10
1.8892e-05
-3.61041e-12
3.2243e-10
1.88921e-05
5.79155e-12
-5.83787e-10
-2.29254e-12
2.61351e-10
2.20147e-05
-1.0305e-13
3.71668e-10
2.20149e-05
2.03058e-14
-6.59297e-10
-5.87733e-16
2.87497e-10
2.20147e-05
3.44542e-12
3.72315e-10
2.20148e-05
-5.78657e-12
-6.59662e-10
2.29072e-12
2.87191e-10
1.88919e-05
6.94579e-12
3.21928e-10
1.88921e-05
-1.15526e-11
-5.84204e-10
4.59105e-12
2.62153e-10
1.61514e-05
9.33869e-12
2.76973e-10
1.61515e-05
-1.57179e-11
-5.20626e-10
6.23137e-12
2.44424e-10
1.37581e-05
9.19417e-12
2.33247e-10
1.37582e-05
-1.65001e-11
-4.6833e-10
7.31725e-12
2.33526e-10
1.16781e-05
7.06042e-12
1.93504e-10
1.16782e-05
-1.46867e-11
-4.22783e-10
7.47658e-12
2.30937e-10
9.8814e-06
3.93185e-12
1.64235e-10
9.88147e-06
-1.0725e-11
-3.88681e-10
6.74172e-12
2.23786e-10
8.33784e-06
3.37658e-13
1.47427e-10
8.33791e-06
-6.10358e-12
-3.54596e-10
5.69606e-12
2.07194e-10
7.01582e-06
-2.33854e-12
1.33257e-10
7.01587e-06
-2.74012e-12
-3.1457e-10
5.00798e-12
1.813e-10
5.88383e-06
-3.38833e-12
1.1551e-10
5.88388e-06
-2.37694e-12
-2.69326e-10
5.69954e-12
1.53788e-10
4.91205e-06
-3.31326e-12
9.53083e-11
4.9121e-06
-4.31831e-12
-2.26996e-10
7.56876e-12
1.31672e-10
4.07275e-06
-3.26686e-12
7.35309e-11
4.07278e-06
-5.99196e-12
-1.92356e-10
9.20218e-12
1.18794e-10
3.33877e-06
-4.07081e-12
5.09771e-11
3.3388e-06
-2.14085e-12
-1.70614e-10
6.16712e-12
1.19576e-10
2.67816e-06
-3.9206e-12
2.47837e-11
2.67817e-06
2.2661e-12
-1.20868e-10
1.62715e-12
9.60027e-11
2.03104e-06
-1.78024e-12
1.21437e-11
2.03105e-06
5.00523e-13
-5.84891e-11
1.27169e-12
4.62568e-11
1.04291e-06
4.96826e-12
1.04291e-06
-2.11827e-11
1.61871e-11
1.24789e-06
2.05629e-12
6.04894e-12
1.2479e-06
-5.27529e-13
-2.6756e-11
-1.48925e-12
2.04738e-11
2.32848e-06
4.37611e-12
1.47595e-11
2.32849e-06
-2.46274e-12
-6.51305e-11
-1.93572e-12
5.09456e-11
3.07636e-06
4.477e-12
3.01467e-11
3.07637e-06
2.37832e-12
-1.39007e-10
-6.91344e-12
1.08861e-10
3.83866e-06
3.46647e-12
6.20079e-11
3.83868e-06
6.8599e-12
-2.01996e-10
-1.03891e-11
1.3998e-10
4.68317e-06
3.37432e-12
9.00836e-11
4.6832e-06
5.34054e-12
-2.30294e-10
-8.76068e-12
1.40106e-10
5.64784e-06
3.30566e-12
1.1615e-10
5.64789e-06
3.28311e-12
-2.72991e-10
-6.61446e-12
1.56725e-10
6.76428e-06
2.09731e-12
1.40982e-10
6.76433e-06
3.66097e-12
-3.24079e-10
-5.76325e-12
1.82996e-10
8.06447e-06
-8.12945e-13
1.64243e-10
8.06453e-06
7.41371e-12
-3.80162e-10
-6.6016e-12
2.15897e-10
9.58272e-06
-4.78089e-12
1.808e-10
9.58279e-06
1.25084e-11
-4.30012e-10
-7.74937e-12
2.4932e-10
1.13552e-05
-8.24016e-12
2.0121e-10
1.13553e-05
1.66683e-11
-4.72664e-10
-8.49633e-12
2.71698e-10
1.34183e-05
-1.05392e-11
2.35132e-10
1.34184e-05
1.8561e-11
-5.19818e-10
-8.12691e-12
2.84872e-10
1.58067e-05
-1.07978e-11
2.84051e-10
1.58068e-05
1.76365e-11
-5.78867e-10
-6.95747e-12
2.94888e-10
1.85551e-05
-8.02881e-12
3.35229e-10
1.85553e-05
1.30109e-11
-6.47816e-10
-5.11254e-12
3.12644e-10
2.17025e-05
-4.09558e-12
3.89708e-10
2.17027e-05
6.52505e-12
-7.26871e-10
-2.55723e-12
3.37153e-10
2.52892e-05
-1.16136e-13
4.49147e-10
2.52894e-05
2.09239e-14
-8.22024e-10
-1.36422e-15
3.72714e-10
2.52892e-05
3.9089e-12
4.49949e-10
2.52894e-05
-6.52223e-12
-8.22483e-10
2.55326e-12
3.72342e-10
2.17025e-05
7.862e-12
3.89081e-10
2.17026e-05
-1.29998e-11
-7.27397e-10
5.1161e-12
3.38154e-10
1.85551e-05
1.05782e-11
3.35009e-10
1.85552e-05
-1.76943e-11
-6.46577e-10
6.9554e-12
3.12478e-10
1.58067e-05
1.04383e-11
2.82862e-10
1.58068e-05
-1.86212e-11
-5.78864e-10
8.18532e-12
2.94282e-10
1.34183e-05
8.05847e-12
2.35751e-10
1.34184e-05
-1.66288e-11
-5.19328e-10
8.40755e-12
2.85401e-10
1.13552e-05
4.56228e-12
2.00899e-10
1.13553e-05
-1.22539e-11
-4.73902e-10
7.62987e-12
2.72242e-10
9.58273e-06
5.58266e-13
1.80186e-10
9.5828e-06
-7.1523e-12
-4.29798e-10
6.51338e-12
2.49656e-10
8.06444e-06
-2.42911e-12
1.62435e-10
8.0645e-06
-3.46325e-12
-3.79696e-10
5.81103e-12
2.17249e-10
6.7642e-06
-3.621e-12
1.40528e-10
6.76425e-06
-3.0926e-12
-3.2401e-10
6.63817e-12
1.83449e-10
5.64774e-06
-3.59671e-12
1.15884e-10
5.64779e-06
-5.19851e-12
-2.72477e-10
8.72348e-12
1.56574e-10
4.68307e-06
-3.64324e-12
8.92713e-11
4.68311e-06
-6.83779e-12
-2.29826e-10
1.04165e-11
1.40516e-10
3.83857e-06
-4.59869e-12
6.16145e-11
3.83859e-06
-2.41667e-12
-2.01653e-10
6.96452e-12
1.39964e-10
3.07625e-06
-4.44611e-12
2.96824e-11
3.07626e-06
2.46904e-12
-1.38934e-10
1.94526e-12
1.09152e-10
2.32839e-06
-2.05698e-12
1.40516e-11
2.32839e-06
6.01657e-13
-6.53062e-11
1.44526e-12
5.11442e-11
1.24784e-06
5.99552e-12
1.24785e-06
-2.61886e-11
2.01556e-11
1.4866e-06
2.37511e-12
7.24075e-12
1.48661e-06
-7.22132e-13
-3.25093e-11
-1.62034e-12
2.50026e-11
2.65881e-06
4.96937e-12
1.68041e-11
2.65882e-06
-2.74824e-12
-7.12059e-11
-2.24579e-12
5.50337e-11
3.51688e-06
5.06454e-12
3.53362e-11
3.51689e-06
2.61509e-12
-1.5601e-10
-7.74636e-12
1.20716e-10
4.39325e-06
3.87036e-12
7.34976e-11
4.39327e-06
7.75742e-12
-2.33571e-10
-1.17009e-11
1.60071e-10
5.36151e-06
3.63932e-12
1.07313e-10
5.36155e-06
6.36738e-12
-2.69872e-10
-1.00618e-11
1.62437e-10
6.46619e-06
3.48342e-12
1.3865e-10
6.46624e-06
4.17253e-12
-3.21658e-10
-7.68832e-12
1.82871e-10
7.74398e-06
2.11325e-12
1.6839e-10
7.74403e-06
4.55826e-12
-3.82878e-10
-6.68028e-12
2.14364e-10
9.23168e-06
-1.12051e-12
1.9647e-10
9.23175e-06
8.64439e-12
-4.50623e-10
-7.5276e-12
2.54125e-10
1.09686e-05
-5.51573e-12
2.16774e-10
1.09687e-05
1.423e-11
-5.11835e-10
-8.74096e-12
2.95192e-10
1.29961e-05
-9.3578e-12
2.41566e-10
1.29962e-05
1.88004e-11
-5.65867e-10
-9.52082e-12
3.24596e-10
1.53559e-05
-1.19188e-11
2.81639e-10
1.5356e-05
2.08657e-11
-6.26685e-10
-9.06672e-12
3.45274e-10
1.80878e-05
-1.21753e-11
3.38631e-10
1.8088e-05
1.97779e-11
-7.02161e-10
-7.73849e-12
3.63617e-10
2.12317e-05
-9.04988e-12
3.99068e-10
2.12319e-05
1.45809e-11
-7.89296e-10
-5.68042e-12
3.90298e-10
2.48322e-05
-4.62736e-12
4.63825e-10
2.48324e-05
7.32459e-12
-8.87851e-10
-2.84336e-12
4.24013e-10
2.89357e-05
-1.30361e-13
5.34574e-10
2.89359e-05
2.11227e-14
-1.00551e-09
-2.72177e-15
4.70734e-10
2.89357e-05
4.41695e-12
5.35553e-10
2.89359e-05
-7.32479e-12
-1.00607e-09
2.83588e-12
4.70289e-10
2.48322e-05
8.86092e-12
4.63057e-10
2.48324e-05
-1.45715e-11
-8.88499e-10
5.68087e-12
4.25238e-10
2.12317e-05
1.1931e-11
3.98777e-10
2.12318e-05
-1.98412e-11
-7.87818e-10
7.73576e-12
3.90096e-10
1.80879e-05
1.18013e-11
3.37265e-10
1.8088e-05
-2.09332e-11
-7.02146e-10
9.12577e-12
3.62992e-10
1.53559e-05
9.15726e-12
2.82333e-10
1.53561e-05
-1.87596e-11
-6.26184e-10
9.42531e-12
3.45846e-10
1.29962e-05
5.27049e-12
2.41219e-10
1.29963e-05
-1.3958e-11
-5.67349e-10
8.61287e-12
3.25267e-10
1.09686e-05
8.34549e-13
2.16055e-10
1.09687e-05
-8.36029e-12
-5.11592e-10
7.43258e-12
2.95599e-10
9.23164e-06
-2.48323e-12
1.94344e-10
9.23171e-06
-4.34137e-12
-4.50067e-10
6.73112e-12
2.5571e-10
7.74388e-06
-3.83593e-12
1.6783e-10
7.74394e-06
-3.96562e-12
-3.82782e-10
7.71517e-12
2.14912e-10
6.46607e-06
-3.88969e-12
1.3834e-10
6.46612e-06
-6.21652e-12
-3.21085e-10
1.00247e-11
1.82722e-10
5.3614e-06
-4.0685e-12
1.06431e-10
5.36144e-06
-7.73665e-12
-2.6934e-10
1.17321e-11
1.62861e-10
4.39314e-06
-5.20019e-12
7.30492e-11
4.39317e-06
-2.65608e-12
-2.33193e-10
7.79873e-12
1.60054e-10
3.51676e-06
-5.0451e-12
3.479e-11
3.51677e-06
2.75619e-12
-1.55941e-10
2.25223e-12
1.2103e-10
2.6587e-06
-2.38574e-12
1.59738e-11
2.65871e-06
7.93233e-13
-7.13853e-11
1.57999e-12
5.5277e-11
1.48654e-06
7.16426e-12
1.48655e-06
-3.18332e-11
2.46191e-11
1.76369e-06
2.75755e-12
8.58015e-12
1.7637e-06
-1.05972e-12
-3.88128e-11
-1.67847e-12
2.99473e-11
3.02805e-06
5.65283e-12
1.88301e-11
3.02806e-06
-3.17244e-12
-7.65301e-11
-2.51219e-12
5.8383e-11
4.00634e-06
5.74404e-12
4.06419e-11
4.00635e-06
2.77167e-12
-1.71599e-10
-8.5939e-12
1.31046e-10
5.01066e-06
4.33557e-12
8.56777e-11
5.01068e-06
8.69154e-12
-2.64968e-10
-1.31132e-11
1.79296e-10