/*--------------------------------*- C++ -*----------------------------------*\
  =========                 |
  \\      /  F ield         | OpenFOAM: The Open Source CFD Toolbox
   \\    /   O peration     | Website:  https://openfoam.org
    \\  /    A nd           | Version:  6
     \\/     M anipulation  |
\*---------------------------------------------------------------------------*/
FoamFile
{
    version     2.0;
    format      ascii;
    class       volVectorField;
    location    "40";
    object      U;
}
// * * * * * * * * * * * * * * * * * * * * * * * * * * * * * * * * * * * * * //

dimensions      [0 1 -1 0 0 0 0];

internalField   nonuniform List<vector> 
3240
(
(0.0449278 4.04148e-10 4.31679e-11)
(0.0449282 1.12318e-09 -1.72278e-10)
(0.0449285 -1.42167e-09 1.06924e-10)
(0.0303007 9.75796e-10 7.75758e-12)
(0.0303015 -1.33855e-09 -1.47449e-11)
(0.0303018 3.63419e-10 8.34497e-12)
(0.0358362 1.59668e-09 2.46524e-12)
(0.0358372 -1.12634e-09 -5.05074e-11)
(0.0358375 -4.69611e-10 4.73114e-11)
(0.0403217 1.36257e-09 1.02921e-11)
(0.040323 1.9263e-09 -5.97375e-11)
(0.0403234 -3.30267e-09 4.93764e-11)
(0.0440537 1.5006e-09 2.05517e-11)
(0.044055 1.02464e-09 -8.80103e-11)
(0.0440556 -2.53062e-09 6.7618e-11)
(0.047306 1.72139e-09 2.83258e-11)
(0.0473074 1.10592e-10 -9.98273e-11)
(0.0473081 -1.83707e-09 7.12926e-11)
(0.0502416 1.64102e-09 3.4123e-11)
(0.0502429 -4.23366e-10 -1.12508e-10)
(0.0502436 -1.21407e-09 7.84582e-11)
(0.0529589 9.41575e-10 3.68466e-11)
(0.0529601 7.48108e-10 -1.18651e-10)
(0.0529609 -1.68473e-09 8.18356e-11)
(0.0555106 -3.85206e-10 3.84328e-11)
(0.0555119 2.696e-09 -1.21006e-10)
(0.0555126 -2.30779e-09 8.26311e-11)
(0.0579029 -1.92347e-09 4.34798e-11)
(0.057904 4.88417e-09 -1.17379e-10)
(0.0579047 -2.97155e-09 7.39913e-11)
(0.0600887 -2.90337e-09 5.33517e-11)
(0.0600896 6.12691e-09 -1.11048e-10)
(0.0600904 -3.25022e-09 5.76632e-11)
(0.0619793 -3.70902e-09 6.58793e-11)
(0.06198 6.69112e-09 -1.06003e-10)
(0.0619809 -3.01561e-09 4.01313e-11)
(0.0634799 -3.28155e-09 7.48033e-11)
(0.0634805 5.79595e-09 -1.02479e-10)
(0.0634815 -2.5482e-09 2.76542e-11)
(0.0645387 -1.90965e-09 7.88026e-11)
(0.0645391 3.43922e-09 -9.90519e-11)
(0.0645402 -1.57167e-09 2.02967e-11)
(0.0651196 -6.71547e-10 7.95287e-11)
(0.06512 1.10082e-09 -9.58802e-11)
(0.065121 -4.6032e-10 1.63869e-11)
(0.0651195 5.87783e-10 7.96324e-11)
(0.0651199 -1.06861e-09 -9.59796e-11)
(0.0651209 4.58897e-10 1.63651e-11)
(0.0645385 1.84907e-09 7.87474e-11)
(0.064539 -3.45133e-09 -9.90047e-11)
(0.0645401 1.56547e-09 2.04438e-11)
(0.0634799 3.18036e-09 7.48313e-11)
(0.0634805 -5.79826e-09 -1.02309e-10)
(0.0634815 2.51738e-09 2.78708e-11)
(0.0619795 3.71703e-09 6.36392e-11)
(0.0619802 -6.64644e-09 -1.06281e-10)
(0.0619811 3.10377e-09 3.76714e-11)
(0.0600894 2.92896e-09 5.58862e-11)
(0.0600903 -6.09158e-09 -1.10931e-10)
(0.0600911 3.29926e-09 6.14927e-11)
(0.0579032 1.7968e-09 4.29486e-11)
(0.0579043 -4.85462e-09 -1.17718e-10)
(0.057905 2.87989e-09 7.39182e-11)
(0.0555109 2.88085e-10 3.78243e-11)
(0.0555122 -2.59461e-09 -1.20751e-10)
(0.0555128 2.2276e-09 8.25182e-11)
(0.0529586 -1.03216e-09 3.58782e-11)
(0.0529599 -6.62273e-10 -1.18307e-10)
(0.0529606 1.66184e-09 8.23707e-11)
(0.0502406 -1.78009e-09 3.38389e-11)
(0.0502419 5.0175e-10 -1.12386e-10)
(0.0502427 1.25522e-09 7.85733e-11)
(0.0473046 -1.80038e-09 2.81153e-11)
(0.0473059 -2.57457e-11 -9.96062e-11)
(0.0473066 1.80504e-09 7.16857e-11)
(0.0440522 -1.55714e-09 1.99517e-11)
(0.0440535 -9.77072e-10 -8.83017e-11)
(0.0440541 2.51417e-09 6.85351e-11)
(0.0403202 -1.40825e-09 9.96401e-12)
(0.0403215 -1.92805e-09 -5.90236e-11)
(0.0403219 3.3204e-09 4.90558e-11)
(0.0358342 -1.61068e-09 2.48528e-12)
(0.0358352 1.1234e-09 -5.08894e-11)
(0.0358355 4.759e-10 4.85145e-11)
(0.030299 -9.88409e-10 6.44403e-12)
(0.0302998 1.35063e-09 -1.4616e-11)
(0.0303001 -3.65186e-10 8.20283e-12)
(0.0449249 -3.1534e-10 6.42564e-11)
(0.0449252 -1.00534e-09 -1.66473e-10)
(0.0449256 1.3214e-09 1.0221e-10)
(0.0614498 4.94369e-10 8.79221e-11)
(0.0614502 1.47973e-09 -2.75653e-10)
(0.0614506 -1.87488e-09 1.7509e-10)
(0.0883997 2.48904e-09 1.00756e-10)
(0.0884017 -3.2658e-09 -4.59803e-10)
(0.0884024 6.39201e-10 3.66724e-10)
(0.102238 4.06869e-09 1.18416e-10)
(0.10224 -2.57766e-09 -7.64017e-10)
(0.102241 -1.54118e-09 6.44347e-10)
(0.112514 3.17168e-09 2.1596e-10)
(0.112517 5.36587e-09 -8.55024e-10)
(0.112518 -8.61035e-09 6.39202e-10)
(0.120531 3.41768e-09 2.82355e-10)
(0.120533 3.26169e-09 -8.7659e-10)
(0.120535 -6.71367e-09 5.94195e-10)
(0.127154 3.89226e-09 3.21743e-10)
(0.127157 1.02481e-09 -9.01768e-10)
(0.127158 -4.94475e-09 5.79786e-10)
(0.13287 3.6683e-09 3.4339e-10)
(0.132872 -2.94982e-10 -9.27637e-10)
(0.132873 -3.37889e-09 5.84172e-10)
(0.137959 1.90345e-09 3.44915e-10)
(0.137961 2.45284e-09 -9.26875e-10)
(0.137962 -4.35357e-09 5.81884e-10)
(0.142579 -1.30143e-09 3.291e-10)
(0.142581 6.95556e-09 -8.9173e-10)
(0.142583 -5.65382e-09 5.62708e-10)
(0.146785 -4.91057e-09 3.2992e-10)
(0.146787 1.18987e-08 -8.21444e-10)
(0.146788 -7.01729e-09 4.91789e-10)
(0.15053 -7.15998e-09 3.5833e-10)
(0.150532 1.45824e-08 -7.46531e-10)
(0.150533 -7.48999e-09 3.88364e-10)
(0.153702 -8.91353e-09 4.00744e-10)
(0.153703 1.56571e-08 -6.87856e-10)
(0.153705 -6.82984e-09 2.87205e-10)
(0.156178 -7.78947e-09 4.26407e-10)
(0.156179 1.33991e-08 -6.4478e-10)
(0.156181 -5.69769e-09 2.18409e-10)
(0.157905 -4.53905e-09 4.35662e-10)
(0.157906 7.92538e-09 -6.14017e-10)
(0.157908 -3.49341e-09 1.78334e-10)
(0.158846 -1.58733e-09 4.34987e-10)
(0.158847 2.52987e-09 -5.92073e-10)
(0.158848 -1.02221e-09 1.5695e-10)
(0.158846 1.39805e-09 4.35681e-10)
(0.158846 -2.47455e-09 -5.9243e-10)
(0.158848 1.01233e-09 1.56598e-10)
(0.157905 4.41268e-09 4.35289e-10)
(0.157906 -7.95426e-09 -6.1434e-10)
(0.157907 3.47849e-09 1.79226e-10)
(0.156178 7.61383e-09 4.26551e-10)
(0.156179 -1.337e-08 -6.43433e-10)
(0.156181 5.66884e-09 2.18378e-10)
(0.153702 8.81179e-09 4.00904e-10)
(0.153704 -1.56337e-08 -6.86545e-10)
(0.153705 6.89539e-09 2.87111e-10)
(0.150531 7.11863e-09 3.57728e-10)
(0.150533 -1.45705e-08 -7.45149e-10)
(0.150534 7.50251e-09 3.86449e-10)
(0.146785 4.70474e-09 3.28667e-10)
(0.146787 -1.17952e-08 -8.22865e-10)
(0.146788 6.91317e-09 4.91385e-10)
(0.14258 1.09441e-09 3.27178e-10)
(0.142582 -6.71453e-09 -8.91519e-10)
(0.142583 5.50086e-09 5.63338e-10)
(0.137958 -2.11839e-09 3.40076e-10)
(0.137961 -2.25501e-09 -9.26532e-10)
(0.137962 4.30146e-09 5.86121e-10)
(0.132868 -3.99997e-09 3.42439e-10)
(0.13287 4.73214e-10 -9.28027e-10)
(0.132872 3.46624e-09 5.85337e-10)
(0.127152 -4.09132e-09 3.21262e-10)
(0.127154 -8.26992e-10 -8.99673e-10)
(0.127155 4.86319e-09 5.78179e-10)
(0.120527 -3.5748e-09 2.78972e-10)
(0.12053 -3.175e-09 -8.75249e-10)
(0.120531 6.70261e-09 5.96026e-10)
(0.11251 -3.31583e-09 2.14257e-10)
(0.112513 -5.41037e-09 -8.53214e-10)
(0.112514 8.68921e-09 6.38552e-10)
(0.102233 -4.16134e-09 1.17053e-10)
(0.102235 2.51009e-09 -7.63675e-10)
(0.102236 1.62368e-09 6.46273e-10)
(0.0883954 -2.67424e-09 9.3466e-11)
(0.0883974 3.1857e-09 -4.63133e-10)
(0.088398 -5.17418e-10 3.69205e-10)
(0.0614464 -4.20336e-10 9.85835e-11)
(0.0614467 -1.34907e-09 -2.69398e-10)
(0.0614471 1.7708e-09 1.70756e-10)
(0.0702288 5.66781e-10 1.27605e-10)
(0.0702292 1.65705e-09 -4.31185e-10)
(0.0702296 -2.10064e-09 2.86542e-10)
(0.126278 3.39131e-09 2.40628e-10)
(0.12628 -4.02501e-09 -1.16507e-09)
(0.126281 4.56501e-10 9.37318e-10)
(0.143233 5.35318e-09 3.13701e-10)
(0.143236 -3.09428e-09 -1.85399e-09)
(0.143236 -2.3318e-09 1.53577e-09)
(0.155175 3.95896e-09 5.49407e-10)
(0.155178 7.31094e-09 -2.06234e-09)
(0.155179 -1.13688e-08 1.51243e-09)
(0.16435 4.1808e-09 6.90169e-10)
(0.164353 4.7492e-09 -2.02525e-09)
(0.164355 -8.97774e-09 1.33451e-09)
(0.171857 4.73602e-09 7.68134e-10)
(0.17186 1.87943e-09 -2.04958e-09)
(0.171862 -6.65364e-09 1.28035e-09)
(0.178288 4.43922e-09 8.07358e-10)
(0.17829 1.32603e-10 -2.08498e-09)
(0.178292 -4.58028e-09 1.27727e-09)
(0.18398 2.15338e-09 8.03447e-10)
(0.183982 3.55257e-09 -2.07225e-09)
(0.183984 -5.70297e-09 1.26865e-09)
(0.189123 -1.93e-09 7.56957e-10)
(0.189125 9.1715e-09 -1.98005e-09)
(0.189126 -7.24153e-09 1.22343e-09)
(0.193784 -6.47883e-09 7.43076e-10)
(0.193786 1.52922e-08 -1.81499e-09)
(0.193788 -8.85201e-09 1.0727e-09)
(0.197922 -9.29846e-09 7.87096e-10)
(0.197924 1.85556e-08 -1.64663e-09)
(0.197925 -9.34562e-09 8.59883e-10)
(0.201417 -1.14421e-08 8.60742e-10)
(0.201418 1.97824e-08 -1.51739e-09)
(0.20142 -8.45223e-09 6.56789e-10)
(0.204141 -9.94687e-09 9.02467e-10)
(0.204142 1.68517e-08 -1.42198e-09)
(0.204144 -7.01876e-09 5.1954e-10)
(0.206038 -5.80587e-09 9.15126e-10)
(0.206039 9.96377e-09 -1.35267e-09)
(0.206041 -4.29594e-09 4.37546e-10)
(0.207072 -2.02604e-09 9.11695e-10)
(0.207073 3.17711e-09 -1.30568e-09)
(0.207075 -1.254e-09 3.93749e-10)
(0.207072 1.78772e-09 9.13087e-10)
(0.207073 -3.11385e-09 -1.30647e-09)
(0.207075 1.24453e-09 3.93081e-10)
(0.206038 5.65102e-09 9.14106e-10)
(0.206039 -9.99766e-09 -1.35335e-09)
(0.206041 4.28318e-09 4.39442e-10)
(0.20414 9.74761e-09 9.02316e-10)
(0.204142 -1.67996e-08 -1.41921e-09)
(0.204143 7.00591e-09 5.1952e-10)
(0.201417 1.12661e-08 8.52119e-10)
(0.201418 -1.98121e-08 -1.51974e-09)
(0.20142 8.49709e-09 6.48769e-10)
(0.197923 9.20632e-09 7.95545e-10)
(0.197925 -1.8585e-08 -1.64101e-09)
(0.197927 9.32856e-09 8.68746e-10)
(0.193785 6.25536e-09 7.40678e-10)
(0.193787 -1.5126e-08 -1.81898e-09)
(0.193788 8.75298e-09 1.07366e-09)
(0.189123 1.67426e-09 7.52878e-10)
(0.189126 -8.85054e-09 -1.97888e-09)
(0.189127 7.05827e-09 1.2247e-09)
(0.183979 -2.42818e-09 7.92508e-10)
(0.183982 -3.30371e-09 -2.07019e-09)
(0.183983 5.64416e-09 1.27723e-09)
(0.178285 -4.8591e-09 8.04491e-10)
(0.178288 8.46136e-11 -2.08576e-09)
(0.17829 4.69662e-09 1.28097e-09)
(0.171854 -4.99435e-09 7.66178e-10)
(0.171857 -1.63158e-09 -2.04468e-09)
(0.171859 6.55406e-09 1.27848e-09)
(0.164347 -4.38736e-09 6.8162e-10)
(0.16435 -4.64339e-09 -2.02176e-09)
(0.164351 8.96799e-09 1.33998e-09)
(0.155171 -4.14823e-09 5.45114e-10)
(0.155174 -7.37423e-09 -2.05694e-09)
(0.155175 1.14723e-08 1.5111e-09)
(0.143227 -5.48283e-09 3.10876e-10)
(0.14323 3.00112e-09 -1.85212e-09)
(0.143231 2.44385e-09 1.54051e-09)
(0.126273 -3.63599e-09 2.27153e-10)
(0.126275 3.92272e-09 -1.16903e-09)
(0.126276 -2.96366e-10 9.40856e-10)
(0.0702251 -4.71765e-10 1.40789e-10)
(0.0702255 -1.50221e-09 -4.20168e-10)
(0.0702259 1.97518e-09 2.79274e-10)
(0.0786048 6.27774e-10 1.94966e-10)
(0.0786052 1.79026e-09 -6.51436e-10)
(0.0786056 -2.27937e-09 4.51e-10)
(0.147962 3.89039e-09 3.885e-10)
(0.147964 -4.17056e-09 -1.9198e-09)
(0.147965 1.27857e-10 1.55012e-09)
(0.166918 5.98456e-09 5.36108e-10)
(0.16692 -3.19657e-09 -3.0377e-09)
(0.166921 -2.86245e-09 2.49544e-09)
(0.179791 4.30283e-09 9.29463e-10)
(0.179794 8.34617e-09 -3.39319e-09)
(0.179795 -1.27532e-08 2.46291e-09)
(0.189644 4.46326e-09 1.15247e-09)
(0.189647 5.70762e-09 -3.27207e-09)
(0.189648 -1.02225e-08 2.11836e-09)
(0.197699 5.03238e-09 1.27249e-09)
(0.197702 2.55775e-09 -3.29692e-09)
(0.197704 -7.63176e-09 2.02285e-09)
(0.204598 4.70053e-09 1.33151e-09)
(0.204601 5.72474e-10 -3.34454e-09)
(0.204603 -5.28056e-09 2.01233e-09)
(0.210705 2.15388e-09 1.32366e-09)
(0.210708 4.28207e-09 -3.32629e-09)
(0.21071 -6.4312e-09 2.0024e-09)
(0.216222 -2.36545e-09 1.24321e-09)
(0.216225 1.04226e-08 -3.18004e-09)
(0.216226 -8.05625e-09 1.93744e-09)
(0.221222 -7.37821e-09 1.20834e-09)
(0.221224 1.70957e-08 -2.92135e-09)
(0.221225 -9.7615e-09 1.71433e-09)
(0.225658 -1.04894e-08 1.26309e-09)
(0.22566 2.06269e-08 -2.66139e-09)
(0.225661 -1.02378e-08 1.39903e-09)
(0.229404 -1.28182e-08 1.36458e-09)
(0.229406 2.19041e-08 -2.46302e-09)
(0.229408 -9.21173e-09 1.09873e-09)
(0.232326 -1.11098e-08 1.4193e-09)
(0.232327 1.86139e-08 -2.31461e-09)
(0.232329 -7.6315e-09 8.9544e-10)
(0.234362 -6.49784e-09 1.43435e-09)
(0.234363 1.10123e-08 -2.2058e-09)
(0.234365 -4.66891e-09 7.71447e-10)
(0.235471 -2.26534e-09 1.4281e-09)
(0.235472 3.50885e-09 -2.1326e-09)
(0.235474 -1.3588e-09 7.04087e-10)
(0.235471 2.00066e-09 1.43033e-09)
(0.235472 -3.44204e-09 -2.13382e-09)
(0.235474 1.35274e-09 7.02989e-10)
(0.234362 6.32763e-09 1.4326e-09)
(0.234363 -1.10475e-08 -2.2071e-09)
(0.234365 4.661e-09 7.74506e-10)
(0.232325 1.08985e-08 1.41896e-09)
(0.232327 -1.85488e-08 -2.31003e-09)
(0.232329 7.63173e-09 8.95122e-10)
(0.229405 1.26018e-08 1.35148e-09)
(0.229406 -2.19802e-08 -2.46777e-09)
(0.229408 9.25455e-09 1.08728e-09)
(0.225659 1.03692e-08 1.27564e-09)
(0.225661 -2.06894e-08 -2.65117e-09)
(0.225663 1.02085e-08 1.41092e-09)
(0.221222 7.14882e-09 1.20512e-09)
(0.221224 -1.68837e-08 -2.92805e-09)
(0.221226 9.66066e-09 1.71641e-09)
(0.216223 2.08438e-09 1.23736e-09)
(0.216225 -1.00521e-08 -3.17837e-09)
(0.216227 7.8569e-09 1.93979e-09)
(0.210705 -2.46019e-09 1.30672e-09)
(0.210707 -4.00821e-09 -3.3231e-09)
(0.210709 6.37376e-09 2.01585e-09)
(0.204596 -5.1627e-09 1.32704e-09)
(0.204599 -3.40537e-10 -3.34573e-09)
(0.2046 5.41731e-09 2.01827e-09)
(0.197696 -5.32076e-09 1.26933e-09)
(0.197698 -2.28777e-09 -3.28907e-09)
(0.1977 7.52841e-09 2.0196e-09)
(0.18964 -4.69229e-09 1.13908e-09)
(0.189643 -5.5892e-09 -3.26566e-09)
(0.189644 1.02091e-08 2.12617e-09)
(0.179787 -4.50726e-09 9.22734e-10)
(0.17979 -8.41138e-09 -3.38504e-09)
(0.179791 1.28596e-08 2.46116e-09)
(0.166911 -6.12165e-09 5.30879e-10)
(0.166914 3.10529e-09 -3.03421e-09)
(0.166915 2.97184e-09 2.50195e-09)
(0.147957 -4.11803e-09 3.6803e-10)
(0.147959 4.09332e-09 -1.92575e-09)
(0.147959 1.1335e-11 1.55591e-09)
(0.0786009 -5.20735e-10 1.93972e-10)
(0.0786012 -1.6204e-09 -6.38857e-10)
(0.0786017 2.14218e-09 4.44558e-10)
(0.0868676 6.77561e-10 2.49293e-10)
(0.086868 1.87797e-09 -9.12332e-10)
(0.0868685 -2.41369e-09 6.53775e-10)
(0.162317 4.21709e-09 5.43983e-10)
(0.162318 -4.09205e-09 -2.69029e-09)
(0.162319 -2.32882e-10 2.17112e-09)
(0.183143 6.35461e-09 7.9415e-10)
(0.183145 -3.14941e-09 -4.3375e-09)
(0.183146 -3.27387e-09 3.5364e-09)
(0.196827 4.48893e-09 1.37453e-09)
(0.19683 8.98506e-09 -4.9065e-09)
(0.196832 -1.3577e-08 3.53093e-09)
(0.207241 4.5658e-09 1.69995e-09)
(0.207244 6.4416e-09 -4.70116e-09)
(0.207245 -1.10604e-08 2.99923e-09)
(0.215744 5.11447e-09 1.87351e-09)
(0.215746 3.16686e-09 -4.73597e-09)
(0.215748 -8.32463e-09 2.86034e-09)
(0.223023 4.75716e-09 1.95816e-09)
(0.223026 1.02977e-09 -4.80617e-09)
(0.223027 -5.79338e-09 2.84688e-09)
(0.229466 2.05595e-09 1.94869e-09)
(0.229468 4.87306e-09 -4.79237e-09)
(0.22947 -6.92292e-09 2.84338e-09)
(0.235284 -2.71741e-09 1.82997e-09)
(0.235287 1.12905e-08 -4.59356e-09)
(0.235288 -8.5716e-09 2.76457e-09)
(0.240556 -7.998e-09 1.7673e-09)
(0.240558 1.82608e-08 -4.23898e-09)
(0.24056 -1.03108e-08 2.4737e-09)
(0.245233 -1.12872e-08 1.82906e-09)
(0.245235 2.19342e-08 -3.88604e-09)
(0.245237 -1.07555e-08 2.05819e-09)
(0.249183 -1.37183e-08 1.95792e-09)
(0.249185 2.32203e-08 -3.61831e-09)
(0.249187 -9.63709e-09 1.66083e-09)
(0.252264 -1.18614e-08 2.0245e-09)
(0.252266 1.96936e-08 -3.4147e-09)
(0.252268 -7.96875e-09 1.39046e-09)
(0.254413 -6.95256e-09 2.041e-09)
(0.254415 1.16623e-08 -3.26219e-09)
(0.254417 -4.87524e-09 1.22119e-09)
(0.255584 -2.42259e-09 2.03107e-09)
(0.255586 3.71435e-09 -3.15912e-09)
(0.255588 -1.41541e-09 1.12744e-09)
(0.255584 2.14121e-09 2.0343e-09)
(0.255585 -3.64669e-09 -3.16089e-09)
(0.255587 1.41224e-09 1.12584e-09)
(0.254413 6.77177e-09 2.03832e-09)
(0.254414 -1.1699e-08 -3.26426e-09)
(0.254416 4.87056e-09 1.22568e-09)
(0.252264 1.16406e-08 2.02389e-09)
(0.252266 -1.96228e-08 -3.40786e-09)
(0.252268 7.97666e-09 1.38982e-09)
(0.249184 1.34805e-08 1.94277e-09)
(0.249185 -2.33286e-08 -3.62283e-09)
(0.249187 9.68519e-09 1.64845e-09)
(0.245235 1.11522e-08 1.84263e-09)
(0.245237 -2.20187e-08 -3.87461e-09)
(0.245238 1.07222e-08 2.07071e-09)
(0.240557 7.7631e-09 1.76313e-09)
(0.240559 -1.80211e-08 -4.24919e-09)
(0.24056 1.02051e-08 2.47725e-09)
(0.235285 2.41937e-09 1.82212e-09)
(0.235287 -1.08896e-08 -4.59107e-09)
(0.235289 8.36281e-09 2.76801e-09)
(0.229465 -2.38226e-09 1.92492e-09)
(0.229467 -4.58561e-09 -4.78736e-09)
(0.229469 6.8684e-09 2.8619e-09)
(0.22302 -5.24338e-09 1.95161e-09)
(0.223023 -7.91546e-10 -4.80739e-09)
(0.223025 5.94385e-09 2.85524e-09)
(0.21574 -5.42143e-09 1.86893e-09)
(0.215743 -2.88639e-09 -4.72486e-09)
(0.215744 8.22239e-09 2.85568e-09)
(0.207237 -4.80717e-09 1.68123e-09)
(0.20724 -6.31498e-09 -4.69136e-09)
(0.207241 1.10427e-08 3.00948e-09)
(0.196823 -4.69804e-09 1.36489e-09)
(0.196826 -9.04676e-09 -4.89552e-09)
(0.196827 1.3679e-08 3.52901e-09)
(0.183137 -6.48829e-09 7.85438e-10)
(0.183139 3.06953e-09 -4.33269e-09)
(0.18314 3.36931e-09 3.54505e-09)
(0.16231 -4.40209e-09 5.16219e-10)
(0.162312 4.05433e-09 -2.69842e-09)
(0.162313 3.30741e-10 2.17942e-09)
(0.0868634 -5.71166e-10 2.48688e-10)
(0.0868638 -1.70343e-09 -8.92986e-10)
(0.0868643 2.27555e-09 6.43685e-10)
(0.0951515 7.25114e-10 3.13841e-10)
(0.0951519 1.91664e-09 -1.21573e-09)
(0.0951524 -2.50354e-09 8.92163e-10)
(0.172853 4.45095e-09 7.07558e-10)
(0.172854 -3.93682e-09 -3.45946e-09)
(0.172855 -5.81776e-10 2.78274e-09)
(0.195446 6.59564e-09 1.08431e-09)
(0.195448 -3.04246e-09 -5.72887e-09)
(0.195449 -3.61571e-09 4.63775e-09)
(0.209891 4.60722e-09 1.88362e-09)
(0.209894 9.40297e-09 -6.58904e-09)
(0.209895 -1.41113e-08 4.70425e-09)
(0.2208 4.58226e-09 2.33027e-09)
(0.220803 7.05966e-09 -6.30879e-09)
(0.220805 -1.16965e-08 3.97572e-09)
(0.229689 5.08574e-09 2.57094e-09)
(0.229692 3.75139e-09 -6.36542e-09)
(0.229694 -8.88224e-09 3.79174e-09)
(0.237293 4.70362e-09 2.68632e-09)
(0.237296 1.51464e-09 -6.46745e-09)
(0.237298 -6.22463e-09 3.77948e-09)
(0.244021 1.90416e-09 2.67805e-09)
(0.244023 5.40679e-09 -6.46751e-09)
(0.244025 -7.30459e-09 3.78909e-09)
(0.250095 -3.02538e-09 2.51802e-09)
(0.250097 1.19678e-08 -6.21921e-09)
(0.250099 -8.94103e-09 3.70259e-09)
(0.255596 -8.46776e-09 2.42139e-09)
(0.255598 1.90976e-08 -5.77079e-09)
(0.2556 -1.06811e-08 3.35222e-09)
(0.260476 -1.18751e-08 2.48524e-09)
(0.260478 2.28467e-08 -5.32858e-09)
(0.26048 -1.10864e-08 2.8451e-09)
(0.264597 -1.4365e-08 2.64018e-09)
(0.264599 2.41187e-08 -4.99524e-09)
(0.264601 -9.89604e-09 2.35568e-09)
(0.267813 -1.23933e-08 2.7168e-09)
(0.267815 2.04171e-08 -4.73687e-09)
(0.267817 -8.16772e-09 2.02046e-09)
(0.270057 -7.28131e-09 2.73368e-09)
(0.270059 1.21056e-08 -4.53772e-09)
(0.270061 -4.99826e-09 1.80403e-09)
(0.271281 -2.53651e-09 2.719e-09)
(0.271282 3.85488e-09 -4.40126e-09)
(0.271284 -1.44859e-09 1.68139e-09)
(0.27128 2.24368e-09 2.72343e-09)
(0.271282 -3.78832e-09 -4.40369e-09)
(0.271284 1.447e-09 1.67922e-09)
(0.270057 7.09247e-09 2.72987e-09)
(0.270058 -1.21442e-08 -4.54075e-09)
(0.27006 4.99476e-09 1.81024e-09)
(0.267813 1.21645e-08 2.71579e-09)
(0.267815 -2.03447e-08 -4.72736e-09)
(0.267817 8.17949e-09 2.01943e-09)
(0.264597 1.41152e-08 2.62333e-09)
(0.264599 -2.4248e-08 -4.99886e-09)
(0.264601 9.94988e-09 2.34296e-09)
(0.260477 1.17315e-08 2.49905e-09)
(0.260479 -2.29447e-08 -5.31669e-09)
(0.260481 1.10515e-08 2.85763e-09)
(0.255596 8.22781e-09 2.41626e-09)
(0.255599 -1.88438e-08 -5.78521e-09)
(0.2556 1.05713e-08 3.35766e-09)
(0.250095 2.71492e-09 2.50801e-09)
(0.250098 -1.15501e-08 -6.21587e-09)
(0.250099 8.72763e-09 3.70735e-09)
(0.24402 -2.24425e-09 2.6466e-09)
(0.244022 -5.11228e-09 -6.46032e-09)
(0.244024 7.25278e-09 3.81318e-09)
(0.237291 -5.20442e-09 2.67743e-09)
(0.237293 -1.27381e-09 -6.4683e-09)
(0.237295 6.38303e-09 3.79019e-09)
(0.229685 -5.40554e-09 2.56476e-09)
(0.229688 -3.46702e-09 -6.35105e-09)
(0.22969 8.78307e-09 3.78592e-09)
(0.220796 -4.83169e-09 2.30579e-09)
(0.220799 -6.92928e-09 -6.29532e-09)
(0.2208 1.16762e-08 3.9886e-09)
(0.209886 -4.81795e-09 1.87061e-09)
(0.209889 -9.46077e-09 -6.57525e-09)
(0.20989 1.4208e-08 4.70245e-09)
(0.19544 -6.72405e-09 1.07087e-09)
(0.195442 2.97465e-09 -5.72324e-09)
(0.195442 3.69626e-09 4.64919e-09)
(0.172846 -4.59487e-09 6.7259e-10)
(0.172848 3.93438e-09 -3.46974e-09)
(0.172849 6.40198e-10 2.79317e-09)
(0.095147 -6.25993e-10 3.10088e-10)
(0.0951474 -1.74354e-09 -1.19067e-09)
(0.095148 2.37031e-09 8.79524e-10)
(0.103523 7.7493e-10 3.86162e-10)
(0.103524 1.89614e-09 -1.5775e-09)
(0.103524 -2.5424e-09 1.17789e-09)
(0.181146 4.63177e-09 8.76948e-10)
(0.181147 -3.77302e-09 -4.20068e-09)
(0.181148 -8.96423e-10 3.36058e-09)
(0.205373 6.76666e-09 1.40669e-09)
(0.205375 -2.91911e-09 -7.16997e-09)
(0.205375 -3.90556e-09 5.75747e-09)
(0.220563 4.69671e-09 2.45135e-09)
(0.220566 9.67156e-09 -8.41537e-09)
(0.220567 -1.44683e-08 5.96284e-09)
(0.231934 4.55261e-09 3.04041e-09)
(0.231937 7.60915e-09 -8.08587e-09)
(0.231939 -1.22187e-08 5.0418e-09)
(0.241172 4.98907e-09 3.3606e-09)
(0.241174 4.3329e-09 -8.17812e-09)
(0.241176 -9.36949e-09 4.81406e-09)
(0.249064 4.57869e-09 3.51188e-09)
(0.249067 2.03246e-09 -8.32255e-09)
(0.249069 -6.61858e-09 4.80839e-09)
(0.256042 1.71561e-09 3.50865e-09)
(0.256045 5.91864e-09 -8.34781e-09)
(0.256047 -7.62866e-09 4.83868e-09)
(0.26234 -3.30833e-09 3.30671e-09)
(0.262342 1.25372e-08 -8.0571e-09)
(0.262344 -9.22851e-09 4.75228e-09)
(0.268041 -8.84496e-09 3.1719e-09)
(0.268043 1.97387e-08 -7.52012e-09)
(0.268045 -1.0948e-08 4.35197e-09)
(0.273097 -1.23336e-08 3.23261e-09)
(0.273099 2.35219e-08 -6.99657e-09)
(0.273101 -1.1308e-08 3.76634e-09)
(0.277367 -1.48557e-08 3.41189e-09)
(0.277369 2.4765e-08 -6.60467e-09)
(0.277371 -1.00577e-08 3.19359e-09)
(0.2807 -1.27888e-08 3.49629e-09)
(0.280702 2.09238e-08 -6.29433e-09)
(0.280704 -8.28507e-09 2.79856e-09)
(0.283027 -7.53268e-09 3.51249e-09)
(0.283029 1.24238e-08 -6.04663e-09)
(0.283031 -5.0724e-09 2.5341e-09)
(0.284297 -2.62402e-09 3.49194e-09)
(0.284299 3.95654e-09 -5.87352e-09)
(0.284301 -1.46835e-09 2.38041e-09)
(0.284297 2.323e-09 3.49777e-09)
(0.284298 -3.89247e-09 -5.87675e-09)
(0.2843 1.4671e-09 2.37758e-09)
(0.283027 7.33739e-09 3.50734e-09)
(0.283029 -1.2465e-08 -6.0508e-09)
(0.283031 5.0684e-09 2.54238e-09)
(0.2807 1.25536e-08 3.4947e-09)
(0.280702 -2.08518e-08 -6.2818e-09)
(0.280704 8.29821e-09 2.79707e-09)
(0.277367 1.45986e-08 3.39303e-09)
(0.277369 -2.49075e-08 -6.60746e-09)
(0.277371 1.01156e-08 3.18062e-09)
(0.273098 1.21844e-08 3.24679e-09)
(0.2731 -2.36276e-08 -6.98441e-09)
(0.273102 1.12719e-08 3.77914e-09)
(0.268041 8.60107e-09 3.16581e-09)
(0.268044 -1.94805e-08 -7.53935e-09)
(0.268045 1.08362e-08 4.35968e-09)
(0.26234 2.98862e-09 3.29431e-09)
(0.262343 -1.21126e-08 -8.05275e-09)
(0.262344 9.0143e-09 4.75843e-09)
(0.256041 -2.06561e-09 3.4686e-09)
(0.256044 -5.62125e-09 -8.33808e-09)
(0.256046 7.57902e-09 4.86898e-09)
(0.249061 -5.08831e-09 3.50034e-09)
(0.249064 -1.79107e-09 -8.32251e-09)
(0.249066 6.78046e-09 4.82133e-09)
(0.241167 -5.31843e-09 3.35264e-09)
(0.24117 -4.04904e-09 -8.16046e-09)
(0.241172 9.27454e-09 4.80733e-09)
(0.23193 -4.80788e-09 3.00979e-09)
(0.231932 -7.47873e-09 -8.06859e-09)
(0.231934 1.21978e-08 5.05757e-09)
(0.220558 -4.90818e-09 2.43466e-09)
(0.22056 -9.72636e-09 -8.39883e-09)
(0.220562 1.456e-08 5.96132e-09)
(0.205366 -6.89044e-09 1.38746e-09)
(0.205368 2.8617e-09 -7.16396e-09)
(0.205368 3.97281e-09 5.7722e-09)
(0.181139 -4.74329e-09 8.35272e-10)
(0.18114 3.79675e-09 -4.21287e-09)
(0.181141 9.23359e-10 3.37221e-09)
(0.103518 -6.88482e-10 3.81991e-10)
(0.103519 -1.73035e-09 -1.54409e-09)
(0.103519 2.41928e-09 1.16046e-09)
(0.112011 8.31598e-10 4.71576e-10)
(0.112011 1.80409e-09 -2.00431e-09)
(0.112012 -2.5218e-09 1.51529e-09)
(0.188029 4.784e-09 1.0515e-09)
(0.18803 -3.64236e-09 -4.89513e-09)
(0.18803 -1.16016e-09 3.88639e-09)
(0.213714 6.89945e-09 1.75652e-09)
(0.213715 -2.80994e-09 -8.61933e-09)
(0.213716 -4.14525e-09 6.85883e-09)
(0.229652 4.77818e-09 3.07641e-09)
(0.229655 9.82174e-09 -1.03594e-08)
(0.229656 -1.47002e-08 7.28196e-09)
(0.24147 4.49749e-09 3.82841e-09)
(0.241473 8.11301e-09 -1.00213e-08)
(0.241475 -1.26709e-08 6.18836e-09)
(0.251034 4.84568e-09 4.24161e-09)
(0.251036 4.92385e-09 -1.01701e-08)
(0.251038 -9.82022e-09 5.92424e-09)
(0.259191 4.40092e-09 4.43416e-09)
(0.259193 2.58798e-09 -1.037e-08)
(0.259195 -6.99853e-09 5.93281e-09)
(0.266396 1.49778e-09 4.43973e-09)
(0.266399 6.42809e-09 -1.0434e-08)
(0.266401 -7.92203e-09 5.99371e-09)
(0.272895 -3.57687e-09 4.19537e-09)
(0.272897 1.3042e-08 -1.01099e-08)
(0.272899 -9.4664e-09 5.917e-09)
(0.278775 -9.15934e-09 4.02095e-09)
(0.278777 2.02516e-08 -9.4931e-09)
(0.278779 -1.11492e-08 5.47696e-09)
(0.283988 -1.27042e-08 4.07433e-09)
(0.28399 2.40392e-08 -8.89951e-09)
(0.283992 -1.14589e-08 4.82828e-09)
(0.288391 -1.52401e-08 4.27567e-09)
(0.288393 2.52426e-08 -8.45875e-09)
(0.288395 -1.01561e-08 4.18411e-09)
(0.291829 -1.30905e-08 4.36593e-09)
(0.291831 2.12836e-08 -8.10127e-09)
(0.291833 -8.34881e-09 3.73604e-09)
(0.29423 -7.73164e-09 4.3803e-09)
(0.294232 1.26587e-08 -7.804e-09)
(0.294234 -5.11473e-09 3.42362e-09)
(0.29554 -2.69386e-09 4.35287e-09)
(0.295542 4.03261e-09 -7.5913e-09)
(0.295544 -1.47963e-09 3.23691e-09)
(0.29554 2.38685e-09 4.36034e-09)
(0.295542 -3.97209e-09 -7.59549e-09)
(0.295544 1.47755e-09 3.23335e-09)
(0.29423 7.53099e-09 4.3736e-09)
(0.294232 -1.27026e-08 -7.8095e-09)
(0.294234 5.10879e-09 3.43432e-09)
(0.291828 1.285e-08 4.36356e-09)
(0.291831 -2.12134e-08 -8.08535e-09)
(0.291832 8.36151e-09 3.73404e-09)
(0.288391 1.49783e-08 4.25459e-09)
(0.288393 -2.53925e-08 -8.4606e-09)
(0.288395 1.02159e-08 4.17104e-09)
(0.283989 1.25511e-08 4.08888e-09)
(0.283991 -2.41484e-08 -8.88729e-09)
(0.283993 1.14211e-08 4.84132e-09)
(0.278775 8.91276e-09 4.01391e-09)
(0.278778 -1.99962e-08 -9.51778e-09)
(0.278779 1.10379e-08 5.48733e-09)
(0.272895 3.25025e-09 4.18037e-09)
(0.272898 -1.26177e-08 -1.01046e-08)
(0.272899 9.25452e-09 5.92478e-09)
(0.266395 -1.85502e-09 4.38994e-09)
(0.266398 -6.13083e-09 -1.04215e-08)
(0.2664 7.87398e-09 6.0311e-09)
(0.259188 -4.91547e-09 4.41981e-09)
(0.25919 -2.34733e-09 -1.03688e-08)
(0.259192 7.16032e-09 5.94799e-09)
(0.251029 -5.18246e-09 4.23172e-09)
(0.251032 -4.64383e-09 -1.01494e-08)
(0.251034 9.7303e-09 5.917e-09)
(0.241465 -4.7573e-09 3.79124e-09)
(0.241468 -7.98572e-09 -1.00002e-08)
(0.24147 1.2651e-08 6.20739e-09)
(0.229647 -4.99033e-09 3.05584e-09)
(0.229649 -9.87477e-09 -1.03403e-08)
(0.229651 1.47878e-08 7.28081e-09)
(0.213706 -7.01999e-09 1.73077e-09)
(0.213708 2.76058e-09 -8.61333e-09)
(0.213708 4.2014e-09 6.87701e-09)
(0.188021 -4.87262e-09 1.00217e-09)
(0.188022 3.68256e-09 -4.90899e-09)
(0.188023 1.16431e-09 3.8998e-09)
(0.112006 -7.62178e-10 4.66852e-10)
(0.112006 -1.65121e-09 -1.96127e-09)
(0.112007 2.4133e-09 1.49204e-09)
(0.120614 9.00095e-10 5.71451e-10)
(0.120615 1.62661e-09 -2.50017e-09)
(0.120615 -2.43229e-09 1.90702e-09)
(0.193994 4.92392e-09 1.23022e-09)
(0.193994 -3.57673e-09 -5.53208e-09)
(0.193995 -1.3563e-09 4.35029e-09)
(0.220925 7.01521e-09 2.13096e-09)
(0.220926 -2.74331e-09 -1.0038e-08)
(0.220927 -4.3278e-09 7.90561e-09)
(0.237619 4.86511e-09 3.7596e-09)
(0.237621 9.86368e-09 -1.23919e-08)
(0.237622 -1.48306e-08 8.63151e-09)
(0.249881 4.42966e-09 4.69564e-09)
(0.249884 8.58157e-09 -1.21032e-08)
(0.249885 -1.30761e-08 7.40206e-09)
(0.259759 4.66745e-09 5.21303e-09)
(0.259761 5.53186e-09 -1.23348e-08)
(0.259763 -1.0254e-08 7.11653e-09)
(0.268166 4.18011e-09 5.45285e-09)
(0.268168 3.18534e-09 -1.26056e-08)
(0.26817 -7.37837e-09 7.1489e-09)
(0.275582 1.25403e-09 5.47063e-09)
(0.275585 6.94732e-09 -1.27246e-08)
(0.275586 -8.20021e-09 7.25324e-09)
(0.282265 -3.83758e-09 5.18403e-09)
(0.282268 1.35068e-08 -1.23801e-08)
(0.28227 -9.67297e-09 7.19913e-09)
(0.288309 -9.4279e-09 4.97008e-09)
(0.288311 2.06742e-08 -1.16944e-08)
(0.288313 -1.1306e-08 6.73033e-09)
(0.293665 -1.30107e-08 5.01469e-09)
(0.293667 2.44436e-08 -1.1045e-08)
(0.293669 -1.15604e-08 6.03422e-09)
(0.298189 -1.55468e-08 5.2345e-09)
(0.298191 2.55987e-08 -1.05675e-08)
(0.298193 -1.02102e-08 5.3343e-09)
(0.301722 -1.33226e-08 5.33072e-09)
(0.301724 2.15358e-08 -1.01697e-08)
(0.301726 -8.37432e-09 4.83991e-09)
(0.304191 -7.89247e-09 5.34309e-09)
(0.304194 1.28337e-08 -9.82246e-09)
(0.304196 -5.13472e-09 4.47925e-09)
(0.305539 -2.75107e-09 5.30846e-09)
(0.305541 4.09061e-09 -9.56816e-09)
(0.305543 -1.48515e-09 4.2578e-09)
(0.305539 2.43967e-09 5.31781e-09)
(0.305541 -4.03451e-09 -9.57348e-09)
(0.305543 1.48116e-09 4.25342e-09)
(0.304191 7.68722e-09 5.33462e-09)
(0.304193 -1.28805e-08 -9.82951e-09)
(0.304195 5.12555e-09 4.49275e-09)
(0.301722 1.30778e-08 5.32742e-09)
(0.301724 -2.1468e-08 -1.01501e-08)
(0.301726 8.38517e-09 4.83732e-09)
(0.298189 1.52818e-08 5.21076e-09)
(0.298191 -2.57512e-08 -1.05686e-08)
(0.298193 1.02695e-08 5.32109e-09)
(0.293666 1.28545e-08 5.03e-09)
(0.293669 -2.45528e-08 -1.10327e-08)
(0.293671 1.15199e-08 6.04776e-09)
(0.288309 9.17994e-09 4.9621e-09)
(0.288312 -2.04273e-08 -1.1725e-08)
(0.288314 1.11974e-08 6.74366e-09)
(0.282266 3.50593e-09 5.16616e-09)
(0.282268 -1.3089e-08 -1.23737e-08)
(0.28227 9.46618e-09 7.20872e-09)
(0.275581 -1.61654e-09 5.40988e-09)
(0.275583 -6.65255e-09 -1.27091e-08)
(0.275585 8.15315e-09 7.29872e-09)
(0.268163 -4.69671e-09 5.43507e-09)
(0.268165 -2.94635e-09 -1.26032e-08)
(0.268167 7.53705e-09 7.16691e-09)
(0.259754 -5.01021e-09 5.20105e-09)
(0.259757 -5.25836e-09 -1.23109e-08)
(0.259759 1.01697e-08 7.10908e-09)
(0.249876 -4.69319e-09 4.6518e-09)
(0.249879 -8.46018e-09 -1.20783e-08)
(0.24988 1.30589e-08 7.4245e-09)
(0.237613 -5.0782e-09 3.73518e-09)
(0.237615 -9.91626e-09 -1.23703e-08)
(0.237616 1.49151e-08 8.63063e-09)
(0.220917 -7.13414e-09 2.09835e-09)
(0.220918 2.69948e-09 -1.00323e-08)
(0.220919 4.37512e-09 7.92697e-09)
(0.193986 -4.99948e-09 1.17151e-09)
(0.193987 3.62434e-09 -5.54715e-09)
(0.193987 1.34708e-09 4.36678e-09)
(0.120609 -8.5099e-10 5.6601e-10)
(0.12061 -1.49211e-09 -2.44656e-09)
(0.12061 2.34221e-09 1.87724e-09)
(0.129313 9.86003e-10 6.87198e-10)
(0.129314 1.34972e-09 -3.0651e-09)
(0.129315 -2.26484e-09 2.35242e-09)
(0.199356 5.0647e-09 1.41171e-09)
(0.199357 -3.60385e-09 -6.10583e-09)
(0.199357 -1.46885e-09 4.74792e-09)
(0.227297 7.13039e-09 2.52494e-09)
(0.227298 -2.74912e-09 -1.13906e-08)
(0.227298 -4.43975e-09 8.86724e-09)
(0.244745 4.96748e-09 4.4959e-09)
(0.244747 9.79423e-09 -1.44772e-08)
(0.244748 -1.48664e-08 9.98089e-09)
(0.257459 4.35847e-09 5.64214e-09)