/*--------------------------------*- C++ -*----------------------------------*\
  =========                 |
  \\      /  F ield         | OpenFOAM: The Open Source CFD Toolbox
   \\    /   O peration     | Website:  https://openfoam.org
    \\  /    A nd           | Version:  6
     \\/     M anipulation  |
\*---------------------------------------------------------------------------*/
FoamFile
{
    version     2.0;
    format      ascii;
    class       volScalarField;
    location    "0";
    object      nut;
}
// * * * * * * * * * * * * * * * * * * * * * * * * * * * * * * * * * * * * * //

dimensions      [0 2 -1 0 0 0 0];

internalField   nonuniform List<scalar> 
720
(
1.47246e-07
1.76117e-07
1.47258e-07
9.34068e-07
9.52722e-07
9.34368e-07
8.26601e-07
8.32944e-07
8.26864e-07
1.42246e-06
1.3995e-06
1.42288e-06
1.23008e-06
1.18523e-06
1.23043e-06
1.24667e-06
1.17893e-06
1.24696e-06
1.70553e-06
1.69706e-06
1.70594e-06
1.2525e-06
1.15766e-06
1.2528e-06
1.31295e-06
1.19072e-06
1.31292e-06
1.88669e-06
1.82719e-06
1.88663e-06
1.16217e-06
9.07687e-07
1.16238e-06
2.05062e-06
2.09371e-06
2.0513e-06
2.13995e-06
2.17404e-06
2.14065e-06
2.89256e-06
2.90741e-06
2.89346e-06
2.90484e-06
2.92202e-06
2.90571e-06
3.20426e-06
3.2238e-06
3.20502e-06
3.17569e-06
3.19243e-06
3.17651e-06
3.25091e-06
3.27192e-06
3.25159e-06
3.6087e-06
3.62139e-06
3.60871e-06
3.60404e-06
3.60215e-06
3.60392e-06
2.04589e-06
1.60166e-06
2.04632e-06
4.87687e-06
5.05311e-06
4.87884e-06
4.91469e-06
5.05553e-06
4.91662e-06
6.62125e-06
6.6689e-06
6.62376e-06
6.48116e-06
6.50844e-06
6.48353e-06
6.95125e-06
6.95286e-06
6.95323e-06
7.25572e-06
7.31933e-06
7.25794e-06
7.0283e-06
7.00395e-06
7.03013e-06
7.67106e-06
7.57402e-06
7.67101e-06
8.14195e-06
8.087e-06
8.14162e-06
4.18649e-06
3.07993e-06
4.18767e-06
8.79578e-06
9.08232e-06
8.79975e-06
9.06484e-06
9.32003e-06
9.06885e-06
1.15535e-05
1.1627e-05
1.15585e-05
1.15789e-05
1.16767e-05
1.15837e-05
1.24015e-05
1.24549e-05
1.24055e-05
1.23382e-05
1.23801e-05
1.23423e-05
1.25432e-05
1.25712e-05
1.25467e-05
1.38223e-05
1.38905e-05
1.38224e-05
1.39371e-05
1.39474e-05
1.39365e-05
6.28826e-06
4.24619e-06
6.29045e-06
1.33401e-05
1.3755e-05
1.33465e-05
1.37008e-05
1.40445e-05
1.37073e-05
1.71899e-05
1.72624e-05
1.7198e-05
1.71851e-05
1.72686e-05
1.71928e-05
1.82617e-05
1.82957e-05
1.82679e-05
1.82181e-05
1.82527e-05
1.82247e-05
1.84613e-05
1.84975e-05
1.84669e-05
2.03574e-05
2.03899e-05
2.03575e-05
2.05798e-05
2.05931e-05
2.05788e-05
7.77323e-06
5.2693e-06
7.77605e-06
1.84869e-05
1.90528e-05
1.84954e-05
1.88379e-05
1.93079e-05
1.88465e-05
2.39344e-05
2.39563e-05
2.39465e-05
2.37455e-05
2.37728e-05
2.3757e-05
2.48757e-05
2.47758e-05
2.48848e-05
2.51311e-05
2.50749e-05
2.51407e-05
2.51213e-05
2.49811e-05
2.51295e-05
2.76383e-05
2.75904e-05
2.76384e-05
2.84894e-05
2.84969e-05
2.84881e-05
1.05434e-05
6.83051e-06
1.05464e-05
2.40763e-05
2.48342e-05
2.40859e-05
2.48538e-05
2.55063e-05
2.48639e-05
3.17922e-05
3.19866e-05
3.18087e-05
3.18095e-05
3.20423e-05
3.18253e-05
3.33814e-05
3.35007e-05
3.33943e-05
3.311e-05
3.32126e-05
3.31234e-05
3.36945e-05
3.38043e-05
3.3706e-05
3.69458e-05
3.70516e-05
3.69467e-05
3.71677e-05
3.71798e-05
3.71665e-05
1.20382e-05
7.81129e-06
1.20405e-05
3.00485e-05
3.08833e-05
3.00582e-05
3.10016e-05
3.1722e-05
3.10122e-05
4.12703e-05
4.14023e-05
4.12919e-05
4.10483e-05
4.12159e-05
4.10688e-05
4.25424e-05
4.25096e-05
4.25595e-05
4.2482e-05
4.24875e-05
4.24999e-05
4.28854e-05
4.27836e-05
4.29007e-05
4.69497e-05
4.70003e-05
4.69517e-05
4.78489e-05
4.78754e-05
4.78484e-05
1.42686e-05
9.07447e-06
1.42702e-05
3.55372e-05
3.63665e-05
3.55466e-05
3.70315e-05
3.77235e-05
3.70424e-05
5.10567e-05
5.12297e-05
5.10826e-05
5.0827e-05
5.10474e-05
5.08516e-05
5.24946e-05
5.25103e-05
5.2516e-05
5.20393e-05
5.20354e-05
5.20618e-05
5.28676e-05
5.28858e-05
5.2887e-05
5.77856e-05
5.78986e-05
5.77892e-05
5.83932e-05
5.84693e-05
5.83939e-05
1.56519e-05
1.00923e-05
1.56535e-05
4.20024e-05
4.2738e-05
4.20117e-05
4.39225e-05
4.45302e-05
4.39337e-05
6.47407e-05
6.48197e-05
6.47701e-05
6.41338e-05
6.42295e-05
6.41618e-05
6.54556e-05
6.51095e-05
6.54816e-05
6.51122e-05
6.48751e-05
6.51398e-05
6.58331e-05
6.54042e-05
6.58568e-05
7.11234e-05
7.10882e-05
7.11287e-05
7.27305e-05
7.27927e-05
7.27325e-05
1.82705e-05
1.17462e-05
1.82722e-05
4.88815e-05
4.95239e-05
4.88906e-05
5.20997e-05
5.26408e-05
5.21108e-05
8.1027e-05
8.14123e-05
8.10568e-05
8.05627e-05
8.10125e-05
8.05915e-05
8.26447e-05
8.25761e-05
8.26739e-05
8.16691e-05
8.14137e-05
8.17008e-05
8.29276e-05
8.2867e-05
8.29544e-05
8.83398e-05
8.84539e-05
8.83467e-05
8.85745e-05
8.86232e-05
8.85775e-05
1.98077e-05
1.29312e-05
1.98093e-05
5.58803e-05
5.62729e-05
5.58882e-05
6.01043e-05
6.04329e-05
6.01139e-05
0.000100552
0.000100956
0.000100577
9.96929e-05
0.000100101
9.97171e-05
0.00010173
0.000101316
0.000101759
0.000100745
0.000100286
0.000100778
0.000101914
0.0001014
0.000101941
0.000106971
0.000106905
0.000106978
0.000108044
0.00010808
0.000108048
2.18313e-05
1.43607e-05
2.1833e-05
6.23147e-05
6.24514e-05
6.23205e-05
6.81035e-05
6.81928e-05
6.811e-05
0.00012089
0.000121606
0.000120904
0.000119931
0.000120697
0.000119945
0.000123184
0.000123081
0.000123208
0.00012188
0.000121501
0.000121908
0.000123297
0.000123195
0.000123319
0.000127651
0.000127708
0.000127658
0.000127834
0.000127953
0.000127837
2.28142e-05
1.53687e-05
2.28156e-05
6.80042e-05
6.79938e-05
6.80078e-05
7.53794e-05
7.53817e-05
7.53826e-05
0.000142083
0.000143226
0.000142083
0.000141009
0.000142202
0.000141011
0.000146267
0.000146697
0.000146281
0.000145081
0.000145471
0.000145101
0.000146289
0.000146607
0.000146303
0.000148789
0.000148977
0.000148794
0.000148737
0.000148915
0.000148739
2.34965e-05
1.65222e-05
2.34979e-05
7.32583e-05
7.31336e-05
7.32609e-05
8.23511e-05
8.22466e-05
8.23522e-05
0.00016801
0.000169277
0.000168002
0.000167302
0.000168494
0.000167296
0.000178488
0.000178045
0.000178486
0.000176042
0.000176507
0.000176046
0.000178589
0.00017782
0.000178589
0.000175841
0.000175466
0.000175842
0.000176545
0.000176414
0.000176545
2.60935e-05
1.92917e-05
2.60949e-05
8.00065e-05
7.95946e-05
8.00092e-05
9.24224e-05
9.19236e-05
9.24236e-05
0.000199697
0.000200787
0.000199685
0.000199372
0.000200526
0.00019936
0.000222885
0.00022291
0.000222866
0.000225415
0.000223929
0.000225393
0.000223359
0.000223494
0.000223341
0.000216986
0.000216395
0.000216976
0.000213488
0.000213286
0.00021348
2.75914e-05
2.10399e-05
2.75929e-05
8.52536e-05
8.46716e-05
8.52567e-05
0.000100039
9.93065e-05
0.000100041
0.000230489
0.000231176
0.000230477
0.000231418
0.000232069
0.000231405
0.000270764
0.000270344
0.000270727
0.000274309
0.000272994
0.000274262
0.0002723
0.00027177
0.000272263
0.000262825
0.000261661
0.000262799
0.000259676
0.000259204
0.000259652
2.8288e-05
2.0982e-05
2.82898e-05
8.98935e-05
8.91791e-05
8.98966e-05
0.000107462
0.000106539
0.000107464
0.000258491
0.000259368
0.00025848
0.000260594
0.000261709
0.000260581
0.000319345
0.000321012
0.000319302
0.000327455
0.000328717
0.000327399
0.000322951
0.000324505
0.000322906
0.000313652
0.000313531
0.000313609
0.000309442
0.000309275
0.000309398
2.76653e-05
2.03338e-05
2.76672e-05
9.31982e-05
9.2615e-05
9.32009e-05
0.000113663
0.000112798
0.000113665
0.00028466
0.000285949
0.00028465
0.000288299
0.000289897
0.000288288
0.000366974
0.000370813
0.000366939
0.000378839
0.000383228
0.000378798
0.000372373
0.00037586
0.000372335
0.000363822
0.00036404
0.000363769
0.000359533
0.000359277
0.000359473
2.76271e-05
2.23294e-05
2.7629e-05
9.5694e-05
9.5553e-05
9.56956e-05
0.000119025
0.000118399
0.000119026
0.000307936
0.000309794
0.000307928
0.00031328
0.000315496
0.000313272
0.000411546
0.00041749
0.000411521
0.00042617
0.000433053
0.000426148
0.000418842
0.000424239
0.000418814
0.000410024
0.000410206
0.000409964
0.000405672
0.000405061
0.000405599
2.94989e-05
2.69486e-05
2.95011e-05
9.86926e-05
9.89733e-05
9.86943e-05
0.000125053
0.000124703
0.000125054
0.000334935
0.00033656
0.000334912
0.000343363
0.000345028
0.000343333
0.000470804
0.000475113
0.000470727
0.000481479
0.000489528
0.000481432
0.000480871
0.000484079
0.000480787
0.000477429
0.000476182
0.000477345
0.000471422
0.000470142
0.000471324
3.28465e-05
3.056e-05
3.28489e-05
0.00010356
0.000103737
0.000103557
0.000135391
0.000134302
0.000135377
0.00037201
0.000371777
0.000371918
0.000381013
0.000381384
0.000380915
0.000544003
0.000550176
0.000543798
0.000581287
0.000583107
0.000581032
0.000559738
0.000565739
0.000559529
0.00057006
0.000571192
0.000569897
0.000570405
0.000569931
0.000570243
3.28856e-05
3.05593e-05
3.28878e-05
0.000105106
0.000105683
0.0001051
0.000139699
0.000138699
0.000139676
0.000388181
0.000387634
0.000388039
0.000401006
0.000400923
0.000400852
0.000592818
0.000599213
0.000592486
0.00063076
0.000636856
0.000630337
0.000612457
0.00061806
0.000612122
0.000633857
0.000634592
0.000633621
0.000635432
0.000634168
0.00063521
3.49291e-05
2.53755e-05
3.49316e-05
0.000107766
0.00010672
0.000107759
0.000149518
0.000146575
0.000149491
0.000386535
0.000386412
0.000386387
0.000403082
0.000404188
0.00040291
0.000596938
0.00060576
0.000596585
0.00064661
0.000658305
0.000646139
0.000624799
0.000631784
0.000624438
0.000654905
0.000658427
0.00065464
0.00066192
0.000660997
0.000661662
)
;

boundaryField
{
    freeSurface
    {
        type            slip;
    }
    inlet
    {
        type            cyclic;
    }
    outlet
    {
        type            cyclic;
    }
    sidewalls
    {
        type            nutkWallFunction;
        Cmu             0.09;
        kappa           0.41;
        E               9.8;
        value           nonuniform List<scalar> 
72
(
0
5.62112e-07
7.39108e-07
1.03835e-06
1.29425e-06
1.41336e-06
1.63681e-06
1.74024e-06
1.92946e-06
2.01553e-06
2.17163e-06
2.24232e-06
2.37091e-06
2.42955e-06
2.48479e-06
2.58576e-06
2.63169e-06
2.71472e-06
2.7519e-06
2.78621e-06
2.81763e-06
2.89245e-06
2.90855e-06
2.91785e-06
0
5.62104e-07
7.39101e-07
1.03835e-06
1.29425e-06
1.41337e-06
1.63681e-06
1.74023e-06
1.92945e-06
2.01552e-06
2.17162e-06
2.2423e-06
2.3709e-06
2.42953e-06
2.48478e-06
2.58575e-06
2.63168e-06
2.71471e-06
2.75189e-06
2.7862e-06
2.81762e-06
2.89245e-06
2.90854e-06
2.91785e-06
0
5.62131e-07
7.3913e-07
1.03838e-06
1.29429e-06
1.4134e-06
1.63684e-06
1.74026e-06
1.92947e-06
2.01554e-06
2.17164e-06
2.24232e-06
2.37091e-06
2.42955e-06
2.48479e-06
2.58576e-06
2.63169e-06
2.71472e-06
2.7519e-06
2.78621e-06
2.81763e-06
2.89245e-06
2.90855e-06
2.91785e-06
)
;
    }
    noSlipWalls
    {
        type            nutkWallFunction;
        Cmu             0.09;
        kappa           0.41;
        E               9.8;
        value           uniform 0;
    }
    procBoundary0to1
    {
        type            processor;
        value           nonuniform List<scalar> 
72
(
1.49083e-06
1.34102e-06
1.49078e-06
3.63979e-06
3.65146e-06
3.63969e-06
7.88156e-06
7.7631e-06
7.88128e-06
1.3962e-05
1.39955e-05
1.39615e-05
2.0596e-05
2.06217e-05
2.05952e-05
2.81314e-05
2.80412e-05
2.81303e-05
3.7309e-05
3.73817e-05
3.73083e-05
4.76032e-05
4.75719e-05
4.76033e-05
5.845e-05
5.85373e-05
5.84513e-05
7.22106e-05
7.20848e-05
7.22132e-05
8.89879e-05
8.90953e-05
8.89917e-05
0.000107957
0.000107828
0.000107961
0.000128346
0.000128432
0.00012835
0.000149297
0.000149419
0.0001493
0.000176685
0.000176093
0.000176685
0.000215478
0.000215258
0.00021547
0.000261626
0.000260712
0.000261602
0.000311659
0.000311581
0.000311618
0.000361656
0.000361604
0.000361601
0.000407715
0.000407387
0.00040765
0.00047705
0.000474876
0.000476957
0.000566605
0.000567908
0.000566455
0.000632473
0.000632573
0.000632262
0.00065402
0.000655986
0.000653789
)
;
    }
}


// ************************************************************************* //
