/*--------------------------------*- C++ -*----------------------------------*\
  =========                 |
  \\      /  F ield         | OpenFOAM: The Open Source CFD Toolbox
   \\    /   O peration     | Website:  https://openfoam.org
    \\  /    A nd           | Version:  6
     \\/     M anipulation  |
\*---------------------------------------------------------------------------*/
FoamFile
{
    version     2.0;
    format      ascii;
    class       volVectorField;
    location    "0";
    object      wallShearStress;
}
// * * * * * * * * * * * * * * * * * * * * * * * * * * * * * * * * * * * * * //

dimensions      [0 2 -2 0 0 0 0];

internalField   uniform (0 0 0);

boundaryField
{
    freeSurface
    {
        type            calculated;
        value           uniform (0 0 0);
    }
    inlet
    {
        type            cyclic;
    }
    outlet
    {
        type            cyclic;
    }
    sidewalls
    {
        type            calculated;
        value           nonuniform List<vector> 
72
(
(-4.91586e-06 -9.79126e-09 3.03542e-11)
(-1.87661e-05 -6.4775e-08 4.73163e-11)
(-2.65806e-05 -6.52686e-08 1.87471e-11)
(-3.99348e-05 -7.79218e-08 -1.44684e-11)
(-5.05386e-05 -8.6397e-08 -4.87425e-11)
(-5.76945e-05 -7.66228e-08 -7.94215e-11)
(-7.06795e-05 -8.65153e-08 -9.03952e-11)
(-7.78038e-05 -7.92797e-08 -7.16694e-11)
(-8.83464e-05 -7.49715e-08 -6.52737e-11)
(-9.52759e-05 -6.46135e-08 -5.66288e-11)
(-0.000107622 -8.16817e-08 -5.43377e-11)
(-0.00011417 -7.58072e-08 -5.27941e-11)
(-0.000123593 -7.00727e-08 -5.03716e-11)
(-0.000129682 -6.35402e-08 -4.57314e-11)
(-0.000135127 -5.34011e-08 -4.05527e-11)
(-0.0001461 -7.05309e-08 -3.08184e-11)
(-0.000151933 -6.50021e-08 -2.65222e-11)
(-0.000159557 -6.54335e-08 -2.27702e-11)
(-0.000163867 -6.8376e-08 -1.95986e-11)
(-0.000167876 -5.03097e-08 -1.70425e-11)
(-0.000172659 -2.11274e-08 -1.57117e-11)
(-0.000182519 -2.78635e-08 -1.33547e-11)
(-0.000184779 -2.44619e-08 -8.90895e-12)
(-0.000186924 -1.03479e-07 -5.25648e-12)
(-4.40912e-06 -9.04421e-12 -6.45466e-11)
(-1.5415e-05 -2.40696e-11 -4.14959e-11)
(-2.32033e-05 -3.60571e-11 -8.54116e-12)
(-3.59025e-05 -4.79988e-11 2.31549e-11)
(-4.60684e-05 -4.24642e-11 4.52326e-11)
(-5.37301e-05 -4.41714e-11 6.3532e-11)
(-6.62045e-05 -2.60551e-11 7.27866e-11)
(-7.37039e-05 -7.40358e-12 6.11444e-11)
(-8.44698e-05 2.45169e-12 5.61954e-11)
(-9.19352e-05 5.8057e-12 5.0082e-11)
(-0.000103399 5.52313e-12 4.90829e-11)
(-0.00011025 4.34255e-12 4.90395e-11)
(-0.00011997 3.73373e-12 4.96673e-11)
(-0.000126397 3.81937e-12 4.88528e-11)
(-0.000132366 5.53398e-12 4.68282e-11)
(-0.000142454 6.89645e-12 4.1226e-11)
(-0.000148572 6.12869e-12 3.54462e-11)
(-0.000156174 3.98126e-12 2.98312e-11)
(-0.000160332 2.57319e-12 2.67032e-11)
(-0.000165275 3.10587e-12 2.39873e-11)
(-0.000171567 4.34799e-12 2.02487e-11)
(-0.000181079 5.97855e-12 1.22026e-11)
(-0.000183515 6.13109e-12 7.6859e-12)
(-0.000181574 8.10477e-12 3.91141e-12)
(-4.91606e-06 9.82387e-09 1.30437e-10)
(-1.87668e-05 6.48539e-08 5.35343e-11)
(-2.65814e-05 6.53681e-08 -1.27911e-11)
(-3.99358e-05 7.80393e-08 -4.83035e-11)
(-5.05399e-05 8.64968e-08 -5.46812e-11)
(-5.76955e-05 7.67123e-08 -6.71116e-11)
(-7.06803e-05 8.65588e-08 -6.77556e-11)
(-7.78044e-05 7.92888e-08 -4.74769e-11)
(-8.83467e-05 7.49643e-08 -3.93715e-11)
(-9.52762e-05 6.46042e-08 -3.20414e-11)
(-0.000107622 8.16753e-08 -3.32971e-11)
(-0.00011417 7.58017e-08 -3.70056e-11)
(-0.000123593 7.00658e-08 -3.9953e-11)
(-0.000129682 6.35329e-08 -4.08647e-11)
(-0.000135127 5.33914e-08 -4.15198e-11)
(-0.0001461 7.05217e-08 -3.95531e-11)
(-0.000151933 6.49959e-08 -3.63065e-11)
(-0.000159557 6.54287e-08 -3.25768e-11)
(-0.000163867 6.83727e-08 -2.8645e-11)
(-0.000167876 5.03072e-08 -2.56854e-11)
(-0.000172659 2.11235e-08 -2.25382e-11)
(-0.000182519 2.78528e-08 -1.05209e-11)
(-0.000184779 2.44514e-08 -4.56561e-12)
(-0.000186924 1.03468e-07 -2.11591e-12)
)
;
    }
    noSlipWalls
    {
        type            calculated;
        value           nonuniform List<vector> 
30
(
(-9.26215e-05 1.55456e-11 -9.81417e-09)
(-0.000232318 5.52346e-11 1.96342e-09)
(-0.000229723 4.72834e-11 6.25568e-10)
(-0.000356878 2.15467e-11 -1.29071e-09)
(-0.00033653 1.74366e-11 -2.80449e-09)
(-0.000358908 -2.24299e-11 -6.07899e-09)
(-0.000408838 -5.19388e-11 -9.3886e-11)
(-0.000362828 -1.99188e-11 -1.02651e-08)
(-0.000382322 -4.87849e-12 -1.1543e-08)
(-0.000442961 -8.34851e-12 -7.32583e-09)
(-8.30739e-05 -8.87445e-11 1.51312e-11)
(-0.000234305 -1.57916e-10 9.38073e-11)
(-0.000230401 -1.28843e-10 8.31402e-11)
(-0.000355728 1.30434e-11 1.16537e-10)
(-0.000333892 1.58764e-11 1.00793e-10)
(-0.000353055 1.02747e-10 7.30407e-11)
(-0.000408838 1.66595e-10 1.02303e-10)
(-0.000352889 9.83106e-11 6.36898e-11)
(-0.000371078 5.49022e-11 -9.2728e-12)
(-0.000435815 6.43623e-11 -2.94318e-11)
(-9.26254e-05 1.97916e-10 9.77929e-09)
(-0.00023233 2.20802e-10 -2.12291e-09)
(-0.000229735 1.84553e-10 -7.69456e-10)
(-0.000356894 -2.87342e-11 1.08327e-09)
(-0.000336546 -2.58596e-11 2.62134e-09)
(-0.000358921 -9.70629e-11 5.94369e-09)
(-0.000408851 -1.39128e-10 -8.52159e-11)
(-0.000362838 -9.59239e-11 1.01418e-08)
(-0.000382322 -8.65523e-11 1.155e-08)
(-0.000442957 -1.02463e-10 7.35768e-09)
)
;
    }
    procBoundary0to1
    {
        type            processor;
        value           uniform (0 0 0);
    }
}


// ************************************************************************* //
