/*--------------------------------*- C++ -*----------------------------------*\
  =========                 |
  \\      /  F ield         | OpenFOAM: The Open Source CFD Toolbox
   \\    /   O peration     | Website:  https://openfoam.org
    \\  /    A nd           | Version:  6
     \\/     M anipulation  |
\*---------------------------------------------------------------------------*/
FoamFile
{
    version     2.0;
    format      ascii;
    class       volScalarField;
    location    "0";
    object      yPlus;
}
// * * * * * * * * * * * * * * * * * * * * * * * * * * * * * * * * * * * * * //

dimensions      [0 0 0 0 0 0 0];

internalField   uniform 0;

boundaryField
{
    freeSurface
    {
        type            calculated;
        value           uniform 0;
    }
    inlet
    {
        type            cyclic;
    }
    outlet
    {
        type            cyclic;
    }
    sidewalls
    {
        type            calculated;
        value           nonuniform List<scalar> 
72
(
16.4597
37.7949
44.1154
51.8748
56.4441
59.9305
65.5321
68.6036
71.9869
74.6271
78.7668
80.9297
83.2006
84.972
86.3971
89.2153
90.7391
92.2122
93.2587
94.1904
95.3208
97.4282
97.9952
98.2775
16.9617
32.0586
38.8977
47.0389
51.7982
55.9989
61.6356
65.1846
68.9828
72.1412
76.0794
78.6056
81.3211
83.4246
85.2356
87.8897
89.6657
91.3632
92.4556
93.658
95.193
97.173
97.8588
97.5778
16.4608
37.7981
44.1188
51.8784
56.4478
59.934
65.535
68.606
71.9887
74.6287
78.768
80.9307
83.2015
84.9727
86.3979
89.216
90.7399
92.2129
93.2594
94.1911
95.3216
97.4289
97.9959
98.2782
)
;
    }
    noSlipWalls
    {
        type            calculated;
        value           nonuniform List<scalar> 
30
(
0.873591
1.99114
1.931
2.73094
2.59044
2.7149
3.04974
2.73592
2.92749
3.34564
0.900237
1.99385
1.92734
2.70908
2.55584
2.65958
3.03755
2.65336
2.84577
3.30962
0.87365
1.9914
1.93126
2.73127
2.59074
2.71514
3.05002
2.73614
2.92747
3.34559
)
;
    }
    procBoundary0to1
    {
        type            processor;
        value           uniform 0;
    }
}


// ************************************************************************* //
