/*--------------------------------*- C++ -*----------------------------------*\
  =========                 |
  \\      /  F ield         | OpenFOAM: The Open Source CFD Toolbox
   \\    /   O peration     | Website:  https://openfoam.org
    \\  /    A nd           | Version:  6
     \\/     M anipulation  |
\*---------------------------------------------------------------------------*/
FoamFile
{
    version     2.0;
    format      ascii;
    class       volScalarField;
    location    "11";
    object      yPlus;
}
// * * * * * * * * * * * * * * * * * * * * * * * * * * * * * * * * * * * * * //

dimensions      [0 0 0 0 0 0 0];

internalField   uniform 0;

boundaryField
{
    inlet
    {
        type            calculated;
        value           uniform 0;
    }
    outlet
    {
        type            calculated;
        value           uniform 0;
    }
    roughCylinder
    {
        type            calculated;
        value           nonuniform List<scalar> 
5120
(
94.217
61.3853
52.5678
55.7318
61.7473
66.8268
71.0427
74.5765
77.5807
80.2062
82.5821
84.7682
86.812
88.7552
90.6204
92.4514
94.2802
96.1623
98.1077
100.133
102.249
104.452
106.736
109.091
111.499
113.933
116.359
118.724
120.952
122.938
124.493
125.363
94.0442
61.3772
52.0008
54.2818
60.0873
65.1237
69.3176
72.8304
75.8232
78.4575
80.8223
82.9804
84.9888
86.8761
88.6872
90.4521
92.2278
94.028
95.9004
97.8593
99.9028
102.031
104.238
106.511
108.836
111.187
113.529
115.813
117.965
119.882
121.384
122.222
93.7103
61.1788
51.2529
52.8494
58.44
63.4015
67.5514
71.0679
74.0883
76.7222
79.0857
81.228
83.191
85.0374
86.7897
88.5016
90.1975
91.9477
93.7559
95.636
97.6029
99.6525
101.779
103.973
106.217
108.485
110.745
112.948
115.025
116.875
118.324
119.131
90.642
59.4728
49.9219
51.2421
56.684
61.6265
65.7987
69.3312
72.3509
75.0133
77.3772
79.4984
81.4402
83.2366
84.9453
86.5926
88.2512
89.9199
91.6549
93.476
95.3764
97.3569
99.4116
101.527
103.69
105.877
108.056
110.181
112.184
113.968
115.365
116.141
92.2914
61.2024
50.0351
49.8954
54.9844
59.8678
64.0011
67.5468
70.6344
73.3107
75.6808
77.8052
79.7153
81.4881
83.1458
84.7579
86.3339
87.966
89.6509
91.3967
93.2242
95.1302
97.1077
99.1494
101.237
103.347
105.449
107.498
109.429
111.15
112.496
113.242
83.2349
58.1858
48.6179
48.2263
53.1045
57.9826
62.1889
65.8043
68.8891
71.6083
74.0009
76.1119
78.0275
79.764
81.3989
82.9492
84.5135
86.0689
87.6807
89.379
91.1509
92.9965
94.9114
96.8803
98.8923
100.927
102.953
104.929
106.791
108.45
109.747
110.464
96.0225
59.5404
48.1291
46.8201
51.3103
56.1544
60.3285
63.9386
67.1373
69.8912
72.2971
74.4409
76.3372
78.0818
79.6772
81.2222
82.7009
84.2352
85.818
87.4461
89.1489
90.925
92.7658
94.6676
96.6116
98.574
100.528
102.433
104.228
105.828
107.078
107.767
89.6828
59.7267
47.3914
45.0384
49.2085
54.0439
58.3508
62.1273
65.3172
68.1298
70.5966
72.7368
74.67
76.3902
77.9981
79.4834
80.987
82.4556
83.9626
85.5566
87.2173
88.9438
90.7334
92.5692
94.4419
96.3349
98.2185
100.055
101.786
103.327
104.532
105.193
73.2438
58.8391
47.5485
43.6948
47.2024
52.0441
56.3471
60.062
63.4401
66.33
68.8184
71.0358
72.9622
74.7259
76.3027
77.8283
79.2446
80.7091
82.2174
83.7483
85.3428
87.0037
88.7213
90.4954
92.3071
94.1331
95.9497
97.7188
99.3875
100.875
102.035
102.667
77.9517
58.3137
46.8167
41.9044
44.7316
49.4828
53.9858
58.0689
61.4325
64.405
67.0228
69.25
71.2604
73.0092
74.6398
76.0983
77.5842
79.0014
80.4277
81.9408
83.5115
85.1363
86.8158
88.5303
90.2744
92.0347
93.7848
95.4911
97.098
98.5299
99.6462
100.251
84.7548
60.5121
47.5413
40.5233
42.2822
47.0876
51.6802
55.5662
59.2689
62.4132
65.0645
67.4412
69.4588
71.3048
72.9074
74.4663
75.8531
77.2799
78.7483
80.2065
81.7109
83.2713
84.8778
86.5356
88.2248
89.9223
91.608
93.2486
94.7967
96.1773
97.2513
97.8274
73.2969
55.907
45.688
38.7174
39.1191
43.5814
48.4513
53.1902
56.8786
60.1442
63.055
65.4616
67.6421
69.4831
71.2041
72.6755
74.1919
75.5961
76.9651
78.4221
79.9254
81.4677
83.0521
84.6568
86.2802
87.915
89.5373
91.1186
92.6068
93.9336
94.9648
95.5139
75.6319
57.1043
45.4076
36.6207
35.8077
40.2875
45.5277
49.7093
54.092
57.7529
60.7287
63.4238
65.6307
67.6566
69.3461
71.0116
72.4079
73.8356
75.3058
76.718
78.1511
79.6248
81.1318
82.6833
84.2592
85.8348
87.395
88.9103
90.3413
91.6189
92.6092
93.1294
66.6154
55.3265
45.3371
35.3182
30.9706
34.5284
40.1024
46.5298
50.8967
54.791
58.298
61.0557
63.5741
65.6086
67.5248
69.061
70.6801
72.1193
73.4572
74.8887
76.3521
77.8351
79.342
80.8484
82.3581
83.8731
85.3717
86.8315
88.2039
89.4277
90.3749
90.869
48.7252
48.1186
42.2232
32.608
26.4161
28.6095
35.7415
40.3981
46.7023
51.5158
55.198
58.5706
61.1559
63.535
65.4033
67.2912
68.7435
70.2264
71.7582
73.158
74.5419
75.9432
77.3615
78.8164
80.2876
81.7459
83.183
84.5743
85.8907
87.0661
87.9732
88.4363
26.0531
36.8119
35.9148
29.833
14.3653
14.4567
21.5328
35.5084
41.2106
46.9528
51.9146
55.4108
58.6345
61.0528
63.3527
65.0226
66.8622
68.4019
69.7356
71.182
72.6417
74.0958
75.5477
76.968
78.3688
79.767
81.1434
82.4837
83.7401
84.8607
85.7242
86.1612
11.0704
20.4122
20.7029
11.793
7.92335
16.1508
7.9705
11.6888
33.2676
41.4312
46.9461
52.0149
55.4043
58.5146
60.7221
63.046
64.6111
66.2275
67.9152
69.3467
70.7065
72.0503
73.3873
74.7546
76.1288
77.4716
78.7846
80.0486
81.2483
82.321
83.1434
83.5462
13.0373
10.6344
3.28927
13.7822
3.74708
15.9468
16.8113
5.7762
8.52695
30.9133
41.4799
46.9433
51.9524
55.1705
58.2618
60.1674
62.4435
64.1882
65.5427
67.0613
68.5714
70.0383
71.4674
72.8147
74.1078
75.3885
76.64
77.8589
78.9959
80.0098
80.786
81.1635
8.35193
6.87571
12.2986
13.977
15.7882
17.2027
17.9942
18.336
18.7094
11.6363
29.6854
41.4328
46.7867
51.7128
54.5985
57.8337
59.5935
61.4697
63.4811
65.0091
66.3722
67.6722
68.9317
70.2188
71.5029
72.7275
73.9094
75.0357
76.1119
77.0766
77.8095
78.1449
1.0598
11.8019
10.763
4.22078
6.54838
12.1564
12.0381
10.757
8.29863
9.49761
18.8447
29.1971
41.177
46.3419
51.3739
53.6943
56.8895
59.0453
60.4413
62.1272
63.7851
65.3381
66.7892
68.0808
69.2618
70.4185
71.5361
72.6285
73.6373
74.5366
75.2178
75.53
6.48588
15.5834
19.1067
20.1284
16.4009
21.9861
8.08711
22.0048
21.8099
21.1275
21.1227
11.0496
29.3522
40.8425
45.2534
50.7614
52.8479
55.245
57.9399
59.6833
61.0764
62.3316
63.5271
64.7392
65.942
67.0396
68.0744
69.0401
69.9785
70.8246
71.4588
71.7122
7.94877
18.3073
23.2437
26.8559
28.9209
28.0699
18.4054
25.0397
24.2215
8.52778
14.6589
13.767
23.5177
27.5468
40.2722
43.4244
49.0414
52.1104
53.5522
55.6088
57.6387
59.4553
60.9877
62.2571
63.3129
64.3312
65.2978
66.2571
67.1231
67.8937
68.4668
68.7046
7.5558
17.9517
23.8465
28.1755
30.8951
32.157
32.2432
26.3103
14.968
6.7303
25.1514
4.68689
21.4639
17.5088
25.6089
39.6067
42.058
45.8183
50.2264
52.4617
53.9012
55.0543
56.2428
57.387
58.5332
59.4877
60.3447
61.1016
61.8766
62.5879
63.107
63.2492
7.17622
16.6777
22.842
27.6642
31.2527
33.4637
33.8785
33.2516
28.475
26.6822
6.48871
26.1111
5.70066
15.3855
23.4958
16.8352
35.6805
41.2059
42.5405
45.5965
48.682
51.2718
53.0451
54.3752
55.2718
56.128
56.9166
57.7485
58.4522
59.0705
59.5193
59.6669
6.39446
15.0201
20.9902
25.7
29.3398
32.0538
33.8744
34.1817
33.2449
30.1088
11.4691
19.3507
23.3068
25.912
12.6871
13.6819
10.0167
25.8391
37.3686
41.0856
42.5611
43.4401
44.5691
45.7098
46.9135
47.6917
48.3008
48.7273
49.2938
49.8559
50.2129
50.175
5.69811
13.8781
19.3177
23.7019
27.2151
29.9686
31.8929
33.0531
33.1704
31.9174
32.0912
17.5134
14.6249
22.0066
25.3008
15.8977
12.704
19.6458
13.8734
23.3426
31.4594
36.4752
40.4766
42.0732
42.738
43.4225
43.9962
44.7607
45.2261
45.7068
46.0642
46.0614
4.89971
12.6459
17.1054
20.871
24.0588
26.7524
28.9204
30.382
31.1791
31.6304
30.325
31.7011
22.4791
4.81507
9.04247
14.0282
17.3777
24.8983
24.1302
20.2134
17.301
26.8739
13.552
16.2702
17.5147
18.3287
18.2573
17.1066
19.1155
17.8615
17.939
16.7067
4.56774
11.9851
14.6332
17.2084
19.7911
22.2821
24.4897
26.2966
27.6782
28.68
30.2708
29.9499
31.5279
26.6301
29.961
27.1418
20.3129
18.4246
7.64787
25.8339
25.3106
27.6471
1.59104
27.5985
20.6051
4.17159
3.89373
22.1642
31.0118
23.151
10.6942
23.3241
4.25592
11.8499
12.4505
13.4704
14.9768
16.9057
19.0423
21.1228
23.0872
25.0858
26.6265
29.0332
29.8194
31.385
29.907
11.8597
4.57005
5.17483
6.76322
19.1353
9.46273
21.081
26.696
17.8412
28.5944
20.9118
23.323
10.9603
22.4713
12.5982
31.8076
9.85775
3.89908
11.2926
11.7851
11.9719
12.34
13.2598
14.8052
16.7564
18.8983
21.0952
23.6717
25.6363
28.2697
29.794
31.1013
31.7395
20.0285
15.4223
24.9511
24.2025
23.5599
17.8709
28.9253
23.2673
1.79661
24.0583
17.0426
30.6217
18.1977
10.2217
27.4543
27.5606
3.71054
11.8159
11.8171
11.6922
11.8691
12.5456
13.814
15.4064
17.1129
18.9636
20.7614
23.1438
25.1648
27.7314
29.8558
30.9524
32.5057
26.3949
19.5597
22.8665
25.719
11.8851
22.2834
12.0867
23.0306
31.8665
28.083
13.1593
24.4849
12.5725
25.8094
16.099
3.57361
11.5442
11.5155
11.5997
11.7836
12.7588
14.3301
15.9998
17.5192
18.8522
20.2668
21.5159
23.2968
25.0776
27.3451
29.9034
31.1116
32.1205
30.3653
25.5628
12.9773
30.2845
7.86939
11.9417
31.9113
31.2019
33.6873
28.3013
15.525
31.353
18.777
21.6579
3.25351
10.7364
11.5666
11.6802
11.9579
13.3805
15.1904
16.8988
18.3835
19.6685
20.69
21.7345
22.5707
23.759
25.2595
27.1307
29.7555
31.4145
32.2643
31.6334
32.1047
28.644
24.4775
20.303
19.0011
18.6075
18.7651
17.8374
17.263
18.7019
17.7551
18.6204
3.28751
10.6993
11.6187
11.5554
12.903
14.8196
16.6931
18.3208
19.6858
20.8155
21.8042
22.5412
23.2402
23.7513
24.4015
25.6021
27.1294
29.1958
31.2441
32.1445
31.4761
31.2384
30.9724
30.8193
30.5881
30.3934
30.1346
29.9391
29.9232
29.8127
29.9969
30.0549
3.73758
11.4773
11.5546
12.8357
14.6994
16.6165
18.3492
19.8503
21.1367
22.2288
23.1031
23.8381
24.3276
24.7127
24.9815
25.2043
25.9951
27.2987
28.8902
30.259
31.5552
31.338
30.6303
29.6064
28.4704
27.5044
26.7779
26.3696
26.1523
26.1716
26.2447
26.4122
3.79174
11.3842
12.7846
14.7017
16.7028
18.5285
20.1355
21.5405
22.7549
23.7867
24.6602
25.3247
25.8252
26.0883
26.1709
26.2204
26.183
26.4797
27.4088
28.6022
29.3918
29.8425
29.8004
29.348
28.6459
27.8292
27.0953
26.6702
26.4861
26.5535
26.7035
26.8679
3.95348
11.7423
14.4189
16.7375
18.693
20.3735
21.8687
23.2082
24.3973
25.4341
26.3004
27.0015
27.4798
27.7585
27.8186
27.645
27.4444
27.2485
27.2094
27.5167
28.2277
28.5997
28.5023
27.9052
26.8875
25.7587
24.8022
24.2663
24.1347
24.2581
24.5219
24.803
4.6446
13.0485
16.2749
18.6349
20.4916
22.097
23.5553
24.8825
26.0754
27.1277
28.0351
28.7604
29.2946
29.5936
29.6533
29.5195
29.158
28.7084
28.3045
28.0425
27.8856
27.8692
27.747
27.3226
26.6044
25.7309
24.9647
24.5481
24.5199
24.7761
25.1298
25.45
5.78202
14.8488
18.0677
20.3242
22.1102
23.6951
25.1572
26.504
27.7345
28.8388
29.7965
30.5874
31.1709
31.5362
31.6609
31.5249
31.1918
30.6724
30.0317
29.3731
28.8425
28.363
27.861
27.2188
26.3628
25.4246
24.6361
24.2497
24.2926
24.6247
25.0672
25.4582
6.948
16.2325
19.4771
21.7427
23.5635
25.1936
26.7019
28.1011
29.391
30.5584
31.585
32.4383
33.0968
33.5311
33.7227
33.6776
33.3715
32.843
32.1401
31.3267
30.4498
29.6053
28.7973
27.9709
27.0993
26.2399
25.5698
25.2702
25.3967
25.8094
26.3062
26.7236
8.28788
9.61024
10.8456
11.2058
11.2331
11.7762
11.9364
11.5119
12.0492
11.8409
11.7178
11.5668
11.7043
11.2964
10.3384
9.83794
9.36641
9.04247
8.82693
8.72132
8.71858
8.81836
9.02716
9.34467
9.80306
10.3065
11.2359
11.434
11.4277
11.4224
11.456
11.7617
11.6057
11.7064
11.8391
11.2355
11.1042
10.8279
9.57342
8.25187
17.399
18.1158
18.6965
19.0069
19.2723
19.419
19.5172
19.5227
19.5234
19.4617
19.3758
19.258
19.1414
18.9996
18.8431
18.7478
18.6531
18.5899
18.5452
18.5233
18.5216
18.5399
18.5809
18.6412
18.7307
18.826
18.9737
19.1081
19.2275
19.3337
19.418
19.4863
19.4946
19.4866
19.3902
19.2338
18.9786
18.6609
18.0783
17.3576
20.5767
21.1009
21.5447
21.7851
22
22.0846
22.1519
22.1418
22.1251
22.0667
22.005
21.9237
21.8472
21.7698
21.7024
21.6484
21.6024
21.5697
21.5467
21.5345
21.5327
21.541
21.5601
21.5895
21.6316
21.6829
21.7459
21.8204
21.8945
21.9719
22.0322
22.0877
22.1044
22.1124
22.0454
21.9568
21.7445
21.5016
21.0609
20.5334
22.7866
23.227
23.6264
23.8596
24.0729
24.1796
24.2758
24.31
24.3397
24.3409
24.3431
24.332
24.3235
24.3128
24.3068
24.3029
24.3014
24.3016
24.3015
24.3004
24.2983
24.2952
24.2913
24.2873
24.285
24.2854
24.2878
24.2953
24.3007
24.3086
24.304
24.2998
24.2685
24.2318
24.1352
24.026
23.8139
23.5787
23.1826
22.7404
24.6103
25.0254
25.4265
25.6789
25.92
26.0715
26.2187
26.3178
26.4162
26.49
26.566
26.6298
26.6942
26.7535
26.8118
26.8656
26.9135
26.9525
26.9792
26.9914
26.989
26.9724
26.9413
26.8984
26.8466
26.7891
26.7271
26.6644
26.5968
26.5298
26.451
26.3743
26.2738
26.1723
26.0239
25.8702
25.6295
25.3755
24.9767
24.5609
26.2711
26.6738
27.0969
27.374
27.6595
27.8643
28.0755
28.2412
28.4117
28.5584
28.709
28.8469
28.9844
29.1135
29.2368
29.349
29.4468
29.525
29.5788
29.6041
29.6016
29.5715
29.5132
29.4308
29.3292
29.2132
29.0862
28.9534
28.8128
28.6716
28.5182
28.3685
28.1956
28.0275
27.8148
27.608
27.3222
27.0439
26.6221
26.219
27.8209
28.2168
28.6746
28.9807
29.3207
29.5756
29.8496
30.077
30.3151
30.5292
30.7485
30.9548
31.1592
31.3522
31.535
31.7001
31.8426
31.9559
32.0335
32.0702
32.0677
32.0261
31.9439
31.8265
31.6798
31.5108
31.3245
31.1278
30.9201
30.7106
30.4883
30.2711
30.0307
29.8009
29.5253
29.2684
28.9277
28.6203
28.1632
27.7672
29.2705
29.6657
30.1651
30.5013
30.8913
31.1921
31.5215
31.804
32.1012
32.3752
32.6547
32.9206
33.1831
33.4313
33.6645
33.8744
34.0546
34.1967
34.2936
34.3392
34.3366
34.2862
34.1848
34.0384
33.8541
33.6404
33.4035
33.1517
32.8858
32.6166
32.334
32.0572
31.7576
31.4726
31.1414
30.8388
30.4479
30.1107
29.6115
29.2163
30.6169
31.0134
31.5555
31.9167
32.3512
32.6915
33.0685
33.3985
33.7458
34.0705
34.4007
34.7165
35.0268
35.32
35.5942
35.8398
36.0494
36.214
36.3257
36.3779
36.3754
36.3183
36.2023
36.0335
35.8199
35.5704
35.2925
34.9958
34.6821
34.3629
34.0298
33.7023
33.3524
33.02
32.6412
32.2991
31.8635
31.5014
30.9596
30.5631
31.8434
32.242
32.8221
33.2055
33.6777
34.0521
34.4685
34.8386
35.2271
35.5936
35.9646
36.3206
36.6685
36.9966
37.3018
37.574
37.8052
37.9859
38.1079
38.1648
38.1624
38.101
37.9746
37.7898
37.5546
37.2787
36.9698
36.6381
36.2868
35.9275
35.5536
35.1843
34.7932
34.4207
34.0024
33.6264
33.1531
32.7689
32.189
31.7905
32.9246
33.3268
33.9412
34.3448
34.8491
35.2532
35.7025
36.1061
36.5283
36.9285
37.3317
37.7185
38.0947
38.4482
38.7753
39.0656
39.3109
39.5017
39.6299
39.6893
39.6871
39.6232
39.4909
39.2962
39.0471
38.753
38.4224
38.0653
37.6858
37.2957
36.8896
36.4864
36.0618
35.6559
35.2046
34.799
34.2937
33.8892
33.2752
32.8731
33.8364
34.2421
34.8914
35.3142
35.8484
36.2791
36.7573
37.1897
37.6399
38.0675
38.496
38.9064
39.3031
39.6747
40.0163
40.3179
40.5714
40.7676
40.8989
40.9593
40.9571
40.8926
40.7574
40.5575
40.3002
39.995
39.6498
39.2749
38.8748
38.4612
38.0298
37.5994
37.1468
36.7121
36.232
35.7996
35.2647
34.841
34.1922
33.7869
34.5512
34.9698
35.6539
36.0999
36.6632
37.1207
37.626
38.0848
38.5596
39.0106
39.4598
39.8887
40.3009
40.6849
41.0359
41.3442
41.6019
41.8003
41.9324
41.993
41.991
41.9266
41.7907
41.5887
41.3274
41.0157
40.6613
40.274
39.8586
39.4266
38.9745
38.5207
38.0435
37.5826
37.0755
36.6164
36.0523
35.6056
34.9219
34.5038
35.0535
35.4922
36.2184
36.6921
37.2879
37.7741
38.3072
38.792
39.2903
39.7628
40.2302
40.6746
41.0989
41.4921
41.8494
42.1615
42.421
42.6199
42.7518
42.8121
42.8102
42.7463
42.611
42.4086
42.1458
41.8304
41.4698
41.0734
40.6459
40.1986
39.7284
39.2532
38.7527
38.2656
37.7308
37.2432
36.6467
36.1723
35.4468
35.0086
35.3243
35.7987
36.576
37.0853
37.719
38.2375
38.8012
39.3133
39.8358
40.3291
40.814
41.2726
41.7075
42.1083
42.4703
42.7848
43.045
43.2437
43.375
43.4347
43.4329
43.3698
43.2353
43.0335
42.7701
42.4523
42.0873
41.6835
41.2455
40.7841
40.2966
39.8006
39.276
38.7618
38.1965
37.6766
37.0422
36.5325
35.756
35.283
35.3458
35.8828
36.7159
37.275
37.9505
38.5085
39.1054
39.6479
40.1957
40.7112
41.2135
41.6862
42.1315
42.5394
42.9056
43.2223
43.4829
43.6813
43.812
43.8715
43.8698
43.8072
43.6735
43.4722
43.2085
42.889
42.5198
42.109
41.6609
41.1856
40.6806
40.1627
39.6127
39.0682
38.4698
37.9105
37.2347
36.6752
35.8434
35.3079
35.1244
35.7212
36.6309
37.2476
37.9746
38.5772
39.212
39.7881
40.3637
40.9028
41.4239
41.9114
42.3675
42.783
43.1539
43.473
43.7346
43.9331
44.0636
44.123
44.1215
44.0591
43.9258
43.7247
43.4603
43.1385
42.7649
42.3466
41.8879
41.3979
40.8743
40.3328
39.7552
39.1772
38.5409
37.9373
37.2101
36.5936
35.6859
35.0904
34.6514
35.3097
36.2983
36.988
37.7733
38.4277
39.105
39.7187
40.3249
40.89
41.4319
41.9357
42.404
42.8282
43.2048
43.5275
43.7909
43.9903
44.1213
44.1811
44.1796
44.1172
43.9837
43.7819
43.5159
43.1907
42.8115
42.3848
41.9141
41.4078
40.8637
40.2963
39.6882
39.0728
38.3941
37.7389
36.9532
36.2647
35.2775
34.6224
33.9432
34.6481
35.702
36.4704
37.3247
38.0381
38.7631
39.4184
40.0588
40.6529
41.218
41.7406
42.2231
42.658
43.0422
43.37
43.6368
43.8382
43.9704
44.0311
44.0298
43.9667
43.8322
43.6286
43.3595
43.0295
42.643
42.2057
41.7208
41.1959
40.6287
40.0325
39.3903
38.7333
38.0073
37.2931
36.4397
35.6721
34.6214
33.9179
33.0398
33.7589
34.8463
35.6854
36.6055
37.3877
38.1634
38.8654
39.5427
40.1695
40.7606
41.3049
41.8045
42.2528
42.6469
42.9819
43.254
43.4588
43.5935
43.6556
43.6545
43.5902
43.4536
43.2467
42.9727
42.6357
42.2394
41.789
41.2873
40.7408
40.1476
39.5189
38.8399
38.1365
37.3601
36.5782
35.6591
34.8218
33.7367
33.0212
32.026
32.6763
33.7658
34.6425
35.6172
36.4642
37.2938
38.0438
38.7607
39.4225
40.0425
40.6115
41.1309
41.5953
42.0021
42.3468
42.6261
42.8363
42.9745
43.0387
43.0377
42.9716
42.8317
42.6199
42.339
41.9924
41.5838
41.1175
40.596
40.025
39.4031
38.7396
38.0214
37.2703
36.4408
35.5946
34.6215
33.7472
32.6601
32.0142
30.9521
31.4728
32.511
33.384
34.3856
35.2808
36.1619
36.957
37.713
38.4097
39.0599
39.655
40.1966
40.6794
41.101
41.4576
41.746
41.963
42.1059
42.1729
42.172
42.1036
41.9594
41.7411
41.4513
41.0932
40.6699
40.1854
39.6422
39.0452
38.3933
37.695
36.9379
36.1423
35.2621
34.3683
33.3694
32.4987
31.4652
30.9461
29.8615
30.221
31.1546
31.9819
32.9731
33.8887
34.8038
35.6387
36.4285
37.1572
37.8356
38.4562
39.0196
39.5214
39.9589
40.3286
40.6272
40.8518
41.0001
41.0702
41.0696
40.9985
40.8493
40.6237
40.3241
39.9533
39.5145
39.0114
38.4465
37.8245
37.1447
36.4149
35.6246
34.7905
33.8771
32.9636
31.9758
31.1512
30.223
29.866
28.7761
28.9801
29.7847
30.5359
31.4844
32.3903
33.3153
34.1734
34.9849
35.7363
36.4362
37.0774
37.6595
38.1778
38.6297
39.0113
39.3196
39.5518
39.7054
39.7786
39.7783
39.7045
39.5506
39.3181
39.0093
38.6269
38.1742
37.655
37.0718
36.4296
35.7288
34.9767
34.1655
33.3093
32.3872
31.4847
30.5404
29.7935
28.9938
28.795
27.7077
27.8136
28.4961
29.1673
30.0534
30.9265
31.8361
32.6948
33.5122
34.2732
34.984
35.6368
36.2302
36.7594
37.2209
37.611
37.9264
38.1641
38.3217
38.3977
38.3976
38.3219
38.1647
37.9273
37.6119
37.2218
36.76
36.2305
35.6367
34.9834
34.2727
33.5122
32.697
31.8411
30.9348
30.0657
29.1841
28.5178
27.8399
27.7394
26.7372
26.8122
27.4062
28.0151
28.8375
29.6672
30.5438
31.3834
32.1895
32.9448
33.6531
34.3057
34.9002
35.4311
35.8948
36.2871
36.6047
36.8444
37.0037
37.081
37.0814
37.0051
36.8469
36.6083
36.2916
35.9
35.4368
34.9062
34.3121
33.6598
32.9524
32.1986
31.3956
30.5597
29.6876
28.8622
28.0446
27.4397
26.8498
26.7779
26.0167
26.1145
26.6562
27.2302
27.9989
28.786
29.6204
30.427
31.2056
31.9404
32.632
33.2715
33.8552
34.3774
34.834
35.2207
35.5342
35.771
35.9288
36.0057
36.0065
35.9314
35.7756
35.5408
35.2291
34.8438
34.3884
33.8673
33.2845
32.646
31.9553
31.2221
30.4459
29.6437
28.8143
28.0324
27.2684
26.6988
26.16
26.0654
25.7182
25.8467
26.3651
26.9169
27.643
28.3875
29.1746
29.9378
30.68
31.384
32.0485
32.664
33.2268
33.7307
34.1717
34.5456
34.8488
35.0781
35.2312
35.306
35.3072
35.235
35.0848
34.8582
34.5575
34.1857
33.7466
33.2443
32.683
32.0688
31.4057
30.7034
29.9636
29.2049
28.4221
27.6831
26.9601
26.415
25.8949
25.777
25.8736
26.0203
26.5322
27.0639
27.7558
28.4581
29.1976
29.9126
30.6135
31.2808
31.9118
32.4972
33.0326
33.5125
33.9327
34.289
34.5781
34.7969
34.9429
35.0146
35.016
34.9477
34.8051
34.5897
34.3037
33.9501
33.5323
33.0545
32.5207
31.9368
31.3072
30.6415
29.9423
29.2297
28.4941
27.7965
27.1085
26.5818
26.0712
25.9313
26.3264
26.4869
26.9947
27.5099
28.1722
28.8372
29.5345
30.2112
30.876
31.509
32.1081
32.6638
33.1721
33.6278
34.0266
34.3649
34.6394
34.8471
34.9859
35.0538
35.0556
34.9914
34.8567
34.6527
34.3818
34.0467
33.6506
33.1975
32.6911
32.1371
31.5395
30.908
30.2447
29.5703
28.876
28.2154
27.5557
27.0452
26.5371
26.383
26.8709
27.0404
27.5533
28.057
28.7018
29.3394
30.007
30.6548
31.2923
31.8988
32.4728
33.0049
33.4917
33.9276
34.3093
34.6328
34.8954
35.094
35.2265
35.2913
35.2932
35.2324
35.104
34.9093
34.6506
34.3303
33.9515
33.518
33.0333
32.5028
31.9302
31.3247
30.6883
30.0419
29.3761
28.7424
28.0996
27.6018
27.0867
26.9282
27.3293
27.4898
28.008
28.4987
29.1327
29.752
30.404
31.0355
31.6578
32.2492
32.809
33.3277
33.802
34.2269
34.5988
34.9141
35.1698
35.3632
35.4923
35.5553
35.5572
35.4984
35.3736
35.1843
34.9322
34.6204
34.2515
33.8291
33.3567
32.8397
32.2812
31.6909
31.0694
30.4389
29.7878
29.1713
28.5392
28.0521
27.5337
27.378
96.3042
63.0338
53.2301
55.7975
61.7566
66.8356
71.0515
74.5846
77.5875
80.2118
82.588
84.7744
86.8185
88.762
90.6266
92.4579
94.2868
96.1687
98.114
100.139
102.255
104.458
106.742
109.097
111.504
113.938
116.364
118.729
120.957
122.942
124.497
125.367
94.6616
61.9398
52.1588
54.2774
60.0887
65.1268
69.3205
72.8338
75.8283
78.4645
80.8294
82.9872
84.9953
86.8823
88.6941
90.4589
92.2344
94.0347
95.9071
97.8658
99.9091
102.038
104.244
106.517
108.842
111.192
113.534
115.818
117.97
119.887
121.389
122.227
93.588
61.5756
51.5541
52.8992
58.4514
63.4117
67.5622
71.0789
74.0976
76.7289
79.0921
81.2346
83.1982
85.0449
86.7964
88.5085
90.2044
91.9546
93.7626
95.6426
97.6091
99.6591
101.786
103.98
106.222
108.49
110.75
112.954
115.03
116.88
118.328
119.135
93.8028
60.8859
50.3536
51.2834
56.6862
61.6306
65.8024
69.3338
72.3545
75.0203
77.3851
79.506
81.4473
83.243
84.9526
86.5998
88.2582
89.927
91.6621
93.4828
95.3832
97.3639
99.418
101.533
103.695
105.883
108.062
110.187
112.189
113.973
115.369
116.145
86.7165
59.0549
49.5278
49.8681
54.9979
59.88
64.0128
67.5602
70.6477
73.3197
75.6881
77.8126
79.7229
81.4964
83.1531
84.7651
86.3411
87.9731
89.6578
91.4036
93.231
95.1368
97.1142
99.1561
101.243
103.352
105.454
107.503
109.434
111.155
112.5
113.247
80.4075
60.2447
49.0736
48.2667
53.1085
57.9881
62.196
65.8087
68.8912
71.6145
74.0093
76.1201
78.0354
79.7708
81.4066
82.9569
84.5211
86.0764
87.6883
89.3861
91.1579
93.004
94.9182
96.8866
98.8985
100.933
102.959
104.935
106.796
108.454
109.751
110.468
91.3056
60.4905
48.3188
46.8033
51.3256
56.1696
60.3399
63.9514
67.1542
69.9039
72.3063
74.4494
76.3453
78.091
79.6852
81.2297
82.7081
84.2427
85.8252
87.4534
89.156
90.9311
92.7723
94.6744
96.6177
98.5801
100.534
102.438
104.233
105.833
107.083
107.772
77.1231
60.1728
47.9396
45.1186
49.2243
54.0563
58.3656
62.1394
65.321
68.1347
70.605
72.7454
74.6789
76.3974
78.0062
79.4919
80.9957
82.4634
83.9706
85.564
87.2245
88.9518
90.7408
92.5751
94.448
96.3409
98.2244
100.061
101.791
103.332
104.536
105.197
81.422
58.8535
47.3636
43.6608
47.2213
52.0621
56.3571
60.0698
63.456
66.3465
68.8299
71.0462
72.9711
74.7361
76.3114
77.8361
79.2516
80.7169
82.2246
83.756
85.3505
87.0096
88.7273
90.5026
92.3133
94.1391
95.9552
97.7242
99.3924
100.88
102.04
102.672
78.5264
58.42
46.7839
41.8899
44.7501
49.5018
54.008
58.0921
61.4443
64.41
67.0313
69.2585
71.2703
73.0168
74.6484
76.1075
77.5941
79.0098
80.4364
81.9485
83.5185
85.1449
86.8239
88.5364
90.2806
92.0407
93.7907
95.4965
97.1029
98.5348
99.651
100.256
83.1285
59.4165
46.8998
40.3189
42.2713
47.1004
51.6858
55.5651
59.2772
62.4313
65.0782
67.4542
69.4686
71.3166
72.9173
74.4748
75.8605
77.288
78.7556
80.2145
81.7193
83.2772
84.8833
86.543
88.2312
89.9284
91.6139
93.254
94.8016
96.1826
97.2561
97.8326
69.6183
55.3859
45.3789
38.5007
39.1055
43.6028
48.4812
53.2258
56.901
60.151
63.0647
65.4702
67.6536
69.4907
71.2132
72.6852
74.2013
75.6053
76.975
78.4303
79.9324
81.4764
83.0612
84.6627
86.2866
87.9215
89.5433
91.1237
92.6117
93.9381
94.9696
95.5187
76.2443
57.5277
45.4288
36.4197
35.7135
40.2968
45.5311
49.7017
54.1004
57.7774
60.7451
63.4401
65.6412
67.6715
69.3579
71.0218
72.4198
73.8443
75.3124
76.7263
78.1601
79.6314
81.1365
82.6913
84.2659
85.8409
87.4011
88.9158
90.3468
91.6242
92.6137
93.1343
67.0337
55.5098
45.2696
35.1336
30.9597
34.534
40.151
46.5785
50.9166
54.788
58.3093
61.0653
63.5901
65.615
67.5343
69.0712
70.6832
72.1292
73.4694
74.8977
76.3594
77.8434
79.3524
80.854
82.3646
83.8798
85.3776
86.837
88.209
89.4323
90.3799
90.8735
49.0429
48.2896
42.2028
32.3299
26.1068
28.6407
35.7254
40.4215
46.7434
51.5754
55.2216
58.5914
61.1632
63.5568
65.4187
67.3032
68.7688
70.237
71.7632
73.1664
74.551
75.9514
77.3651
78.8253
80.2945
81.752
83.1893
84.5802
85.8959
87.0721
87.9778
88.4413
26.4506
37.1507
36.143
30.0834
14.7379
14.3861
21.7625
35.389
41.1566
46.9089
51.9315
55.4251
58.6653
61.0545
63.361
65.0353
66.8484
68.4105
69.7522
71.1924
72.6503
74.1029
75.5599
76.973
78.3755
79.7742
81.1493
82.489
83.745
84.8651
85.7289
86.1659
17.3317
20.4078
21.2749
11.3498
7.83543
16.1487
8.11798
14.1387
33.711
41.5362
46.9573
52.035
55.3981
58.5527
60.7461
63.0576
64.6645
66.2437
67.9164
69.3546
70.7151
72.0609
73.3895
74.7647
76.136
77.4776
78.7914
80.0548
81.2533
82.3274
83.1479
83.5513
6.1245
5.0566
5.9845
6.89939
4.71477
15.9844
16.7656
17.3561
2.91844
31.3433
41.6021
47.0067
52.0164
55.1555
58.2646
60.1886
62.3943
64.1919
65.5675
67.0746
68.5823
70.0429
71.4819
72.8188
74.1148
75.3966
76.6459
77.8644
79.0007
80.0139
80.7912
81.1683
3.17692
9.56013
12.4189
14.3209
15.7221
17.1132
6.58722
18.2271
1.85972
22.4105
29.8369
41.2989
46.7551
51.7955
54.6424
57.8395
59.7039
61.498
63.4744
65.0156
66.3802
67.6891
68.9312
70.2303
71.5103
72.7331
73.9168
75.0418
76.1168
77.0841
77.8136
78.1498
2.35346
11.0728
14.449
12.5785
17.836
18.5162
19.3201
20.1478
19.6706
7.21309
7.14723
30.179
41.3585
46.281
51.3634
53.7351
56.7677
59.0368
60.4809
62.1457
63.7973
65.3299
66.8083
68.0838
69.2692
70.4283
71.5423
72.6346
73.6418
74.5397
75.2239
75.5352
6.46827
15.6661
19.616
19.996
16.3811
14.0807
22.6647
15.5265
22.4157
21.4343
20.1858
23.0527
28.547
40.9576
45.3279
50.7566
53.0623
55.2982
57.919
59.6865
61.0894
62.3796
63.5192
64.7522
65.9496
67.0441
68.0826
69.0454
69.9833
70.8341
71.4614
71.7167
8.00231
18.3568
23.2492
26.8983
28.9232
27.4331
18.2123
25.3376
24.5434
17.1689
14.621
8.11938
18.9922
28.2794
40.3411
43.4918
48.8251
52.08
53.6153
55.6364
57.6362
59.3898
61.0185
62.2584
63.3204
64.344
65.3043
66.2648
67.1262
67.8947
68.475
68.7105
7.63676
18.0079
23.8894
28.2043
30.9144
32.1954
32.2448
26.2233
9.30375
5.4187
11.6209
17.902
22.8856
23.0904
24.619
39.6084
42.3403
45.9044
50.1984
52.4575
53.9648
55.1963
56.2137
57.4026
58.5408
59.4898
60.3542
61.1048
61.8808
62.6011
63.1061
63.2527
7.21232
16.738
22.9081
27.729
31.3076
33.5033
33.8889
33.2543
28.7797
25.8731
16.1501
12.1505
18.4188
22.6566
17.9291
17.5149
35.5031
41.1642
42.553
45.6527
48.5588
51.1085
53.0999
54.3708
55.2803
56.1454
56.9206
57.7559
58.4527
59.0665
59.5303
59.673
6.42162
15.0591
21.0441
25.7589
29.3962
32.1005
33.9082
34.186
33.2093
29.9334
10.7928
28.0642
9.01441
8.50803
23.409
22.3499
13.9207
26.2914
37.7486
40.9846
42.891
43.5106
44.4979
45.7271
46.9087
47.6957
48.3246
48.7336
49.2788
49.8782
50.2043
50.1772
5.7155
13.8832
19.3571
23.755
27.2674
30.0141
31.9288
33.081
33.1729
31.9738
32.0954
17.8808
12.4912
17.9561
20.5641
23.8796
22.6039
10.6759
10.598
24.6931
30.8488
37.75
40.5804
42.1262
42.7901
43.3586
43.9485
44.6923
45.3312
45.6241
46.0783
46.0595
4.86352
12.6479
17.1191
20.9157
24.1086
26.7972
28.9573
30.4092
31.2054
31.6282
30.3258
31.7198
22.4541
15.734
19.0411
19.8989
24.1858
23.3154
24.0741
25.729
17.1165
2.98793
10.1864
14.6125
17.5976
19.813
18.1577
18.9324
17.1504
19.7461
17.8079
16.728
4.61543
12.5789
14.6655
17.2413
19.8302
22.3188
24.5212
26.3227
27.6967
28.7013
30.2906
29.9527
31.5336
25.6007
13.768
28.3104
15.8264
10.879
18.2725
15.8453
19.6526
14.7163
17.9562
6.57261
3.55219
28.3639
21.389
30.1674
10.4953
30.9731
11.0541
23.2742
4.27809
11.8149
12.5015
13.5009
14.9967
16.9238
19.0597
21.1398
23.106
25.1053
26.6455
29.0579
29.8397
31.5175
28.4442
23.1031
18.6821
11.9638
6.32199
25.8179
8.61531
19.2376
27.1646
27.0402
20.6726
5.78766
30.2285
19.8808
30.4338
20.3737
30.2494
8.16343
3.98501
11.5178
11.8198
11.9856
12.3526
13.2714
14.8166
16.7692
18.9128
21.1128
23.6945
25.6587
28.2899
29.8127
31.2585
30.5527
19.9468
27.3617
3.94733
8.99448
17.3181
23.087
28.3825
5.1603
24.48
26.6923
18.5106
25.3879
18.0405
26.8294
3.37931
18.2573
3.70083
11.2045
11.5669
11.6766
11.8771
12.5588
13.8309
15.4256
17.133
18.9831
20.7797
23.166
25.1946
27.7516
29.9844
31.0201
32.3906
26.6981
17.3656
17.0819
22.0898
3.50723
18.3224
30.0198
19.7927
23.3907
7.31985
32.6427
29.1992
17.8751
27.3648
30.0091
3.47908
11.2197
11.6425
11.5786
11.7798
12.7702
14.348
16.021
17.5419
18.8757
20.2904
21.538
23.3182
25.1194
27.3083
30.1346
31.2451
32.1738
30.5764
25.6442
11.0424
27.4232
8.89546
17.5409
14.0703
9.76935
9.33287
32.1679
34.2955
17.2793
22.0834
35.1976
3.22992
10.7133
11.6867
11.7787
11.9651
13.3968
15.2117
16.9221
18.4072
19.6915
20.712
21.756
22.5931
23.7766
25.3428
27.0675
29.7655
31.4052
32.2748
31.669
32.1741
27.8202
24.3772
20.3889
17.7612
17.5911
17.9214
19.3381
18.8765
17.6063
17.5069
20.0964
3.27333
10.6667
11.6693
11.5531
12.9113
14.8369
16.7157
18.346
19.7118
20.8414
21.8288
22.5642
23.2607
23.772
24.3982
25.6865
27.1757
29.2479
31.2195
32.1466
31.4821
31.2608
30.9689
30.74
30.6431
30.4545
30.1586
29.9276
29.8715
29.946
29.9968
29.9989
3.70773
11.4404
11.6538
12.8768
14.7202
16.6403
18.3768
19.8793
21.1657
22.2567
23.1299
23.8629
24.351
24.7348
25.0081
25.1982
26.0056
27.303
28.914
30.2762
31.5764
31.3664
30.591
29.6217
28.417
27.4825
26.7417
26.3584
26.097
26.0725
26.1936