/*--------------------------------*- C++ -*----------------------------------*\
  =========                 |
  \\      /  F ield         | OpenFOAM: The Open Source CFD Toolbox
   \\    /   O peration     | Website:  https://openfoam.org
    \\  /    A nd           | Version:  6
     \\/     M anipulation  |
\*---------------------------------------------------------------------------*/
FoamFile
{
    version     2.0;
    format      ascii;
    class       volVectorField;
    location    "11";
    object      wallShearStress;
}
// * * * * * * * * * * * * * * * * * * * * * * * * * * * * * * * * * * * * * //

dimensions      [0 2 -2 0 0 0 0];

internalField   uniform (0 0 0);

boundaryField
{
    inlet
    {
        type            calculated;
        value           uniform (0 0 0);
    }
    outlet
    {
        type            calculated;
        value           uniform (0 0 0);
    }
    roughCylinder
    {
        type            calculated;
        value           nonuniform List<vector> 
3840
(
(-0.00047969 -0.000692924 -0.000292108)
(-0.000332159 -0.000505802 -1.79268e-05)
(-0.000366119 -0.00058047 4.15357e-05)
(-0.000453331 -0.000685671 0.000110443)
(-0.000545863 -0.000756866 0.000176334)
(-0.000636957 -0.000796335 0.000231994)
(-0.000719582 -0.000809555 0.000274423)
(-0.00079167 -0.000810573 0.000304155)
(-0.000853268 -0.00081361 0.000323749)
(-0.000901951 -0.000822172 0.000332968)
(-0.000942164 -0.000838279 0.000333732)
(-0.000976287 -0.000860415 0.000328617)
(-0.00100785 -0.000886908 0.000319827)
(-0.00103986 -0.000916598 0.000308846)
(-0.00107394 -0.000948805 0.000296267)
(-0.00111071 -0.000983281 0.000282207)
(-0.00115025 -0.00101991 0.00026655)
(-0.00119224 -0.00105838 0.000248991)
(-0.00123613 -0.00109811 0.000228952)
(-0.00128102 -0.00113821 0.000205417)
(-0.00132555 -0.00117732 0.000176553)
(-0.00136748 -0.00121338 0.000139761)
(-0.00140245 -0.00124337 9.10613e-05)
(-0.0014235 -0.0012619 3.13916e-05)
(-0.000498231 -0.000654261 -0.000282259)
(-0.000353483 -0.000496584 -2.13432e-05)
(-0.000385312 -0.000563379 3.36789e-05)
(-0.000474264 -0.000668844 9.93587e-05)
(-0.000569237 -0.000742359 0.000163553)
(-0.000663322 -0.000785132 0.0002184)
(-0.000749963 -0.000802921 0.000261045)
(-0.00082736 -0.000808937 0.000292427)
(-0.000894191 -0.000813744 0.000314047)
(-0.000945477 -0.000820331 0.000323988)
(-0.000987476 -0.000835162 0.000325036)
(-0.00102356 -0.000856572 0.000320134)
(-0.00105707 -0.000882669 0.000311531)
(-0.00109085 -0.000911945 0.000300714)
(-0.00112677 -0.000943789 0.000288398)
(-0.00116556 -0.000977971 0.000274735)
(-0.00120714 -0.00101422 0.000259567)
(-0.00125122 -0.00105224 0.000242591)
(-0.00129718 -0.00109145 0.000223212)
(-0.00134414 -0.00113099 0.000200417)
(-0.00139065 -0.00116953 0.00017238)
(-0.00143438 -0.00120506 0.000136535)
(-0.00147085 -0.00123461 8.89775e-05)
(-0.00149278 -0.00125283 3.06666e-05)
(-0.000490924 -0.000583231 -0.000248099)
(-0.000375737 -0.00047954 -2.61932e-05)
(-0.000402782 -0.000540883 2.49123e-05)
(-0.000493497 -0.000645602 8.73915e-05)
(-0.000590767 -0.000721261 0.000149746)
(-0.000687778 -0.000767508 0.000203898)
(-0.00077897 -0.000790533 0.000247215)
(-0.000861643 -0.000801522 0.000280172)
(-0.000933075 -0.000808511 0.000303213)
(-0.000987679 -0.000813267 0.000313844)
(-0.00103192 -0.000826908 0.000315448)
(-0.00107002 -0.000847307 0.000310801)
(-0.00110532 -0.000872569 0.000302397)
(-0.00114106 -0.000901322 0.000291867)
(-0.00117893 -0.000932652 0.000279906)
(-0.00121955 -0.000966166 0.000266664)
(-0.00126308 -0.00100173 0.000252037)
(-0.00130914 -0.00103901 0.000235697)
(-0.00135714 -0.00107746 0.000217046)
(-0.00140607 -0.00111617 0.000195051)
(-0.00145446 -0.00115388 0.000167903)
(-0.00149988 -0.00118862 0.000133074)
(-0.00153774 -0.00121752 8.67443e-05)
(-0.00156049 -0.00123532 2.98907e-05)
(-0.000455768 -0.000489565 -0.000196849)
(-0.000397007 -0.000455897 -3.27368e-05)
(-0.000416202 -0.00051315 1.60174e-05)
(-0.000507766 -0.000615979 7.4746e-05)
(-0.000607359 -0.000693881 0.000134997)
(-0.000708066 -0.000744725 0.000188542)
(-0.000803867 -0.000773195 0.000232598)
(-0.000891479 -0.000788759 0.000266974)
(-0.000966959 -0.000797553 0.000290977)
(-0.00102687 -0.000802709 0.000302979)
(-0.00107315 -0.000814291 0.000305074)
(-0.00111335 -0.000833407 0.000300765)
(-0.00115083 -0.000857896 0.00029275)
(-0.00118838 -0.000885787 0.000282539)
(-0.00122803 -0.000916304 0.000270976)
(-0.00127065 -0.000949127 0.000258271)
(-0.00131612 -0.000983879 0.000244256)
(-0.00136412 -0.00102025 0.000228611)
(-0.00141395 -0.00105768 0.00021072)
(-0.00146469 -0.00109534 0.000189559)
(-0.00151478 -0.00113198 0.000163329)
(-0.00156174 -0.00116572 0.000129542)
(-0.00160085 -0.00119378 8.44668e-05)
(-0.00162433 -0.00121106 2.91007e-05)
(-0.000568279 -0.000542952 -0.000214769)
(-0.000409171 -0.000429565 -3.68715e-05)
(-0.00042537 -0.000480099 7.08768e-06)
(-0.000516867 -0.000581425 6.15514e-05)
(-0.000618797 -0.000661651 0.00011948)
(-0.000722619 -0.000716395 0.000172091)
(-0.000823046 -0.000750265 0.000216767)
(-0.000915578 -0.000770264 0.000252479)
(-0.000996076 -0.000781629 0.000277695)
(-0.00106045 -0.00078735 0.000290874)
(-0.00111044 -0.00079701 0.000293844)
(-0.00115302 -0.000814787 0.000290119)
(-0.00119239 -0.000837871 0.000282494)
(-0.00123203 -0.000864866 0.000272775)
(-0.00127368 -0.000894537 0.000261748)
(-0.00131797 -0.000926265 0.000249593)
(-0.00136517 -0.000959913 0.000236234)
(-0.00141488 -0.000995106 0.000221326)
(-0.00146646 -0.00103132 0.00020425)
(-0.00151884 -0.00106771 0.00018396)
(-0.00157046 -0.00110307 0.000158677)
(-0.0016188 -0.00113561 0.000125956)
(-0.00165904 -0.00116268 8.21592e-05)
(-0.00168315 -0.00117931 2.83016e-05)
(-0.000531838 -0.000455783 -0.000169324)
(-0.000427874 -0.000404354 -4.23335e-05)
(-0.000429715 -0.000444334 -2.28009e-06)
(-0.000519458 -0.000542039 4.79657e-05)
(-0.000623116 -0.000623965 0.000103069)
(-0.000730962 -0.000683528 0.000154633)
(-0.00083604 -0.000722561 0.000199696)
(-0.000933398 -0.000746593 0.000236561)
(-0.00101793 -0.000759645 0.000262774)
(-0.00108809 -0.000767322 0.00027744)
(-0.00114296 -0.000775913 0.000281619)
(-0.00118804 -0.000791251 0.000278602)
(-0.00123007 -0.000813195 0.000271694)
(-0.00127162 -0.000838834 0.000262529)
(-0.00131496 -0.000867202 0.000252079)
(-0.00136123 -0.000897874 0.000240635)
(-0.00141022 -0.000930312 0.000228028)
(-0.00146162 -0.000964181 0.000213926)
(-0.00151471 -0.000998917 0.000197692)
(-0.00156853 -0.00103379 0.000178301)
(-0.00162149 -0.00106766 0.000153984)
(-0.001671 -0.00109877 0.000122342)
(-0.00171221 -0.00112466 7.98368e-05)
(-0.00173685 -0.00114057 2.7499e-05)
(-0.000617011 -0.000470416 -0.00016365)
(-0.000430718 -0.000367511 -4.68621e-05)
(-0.000427066 -0.00040437 -1.07492e-05)
(-0.000515144 -0.000499225 3.42239e-05)
(-0.000620912 -0.000583268 8.60669e-05)
(-0.000731459 -0.000646242 0.00013597)
(-0.000841019 -0.000689985 0.000181057)
(-0.000943224 -0.000717745 0.000218852)
(-0.00103389 -0.00073389 0.000246603)
(-0.00110825 -0.000742223 0.000262387)
(-0.00116875 -0.000751046 0.000268052)
(-0.00121846 -0.000764677 0.000266291)
(-0.00126263 -0.000784081 0.000260119)
(-0.00130656 -0.000808293 0.000251761)
(-0.0013521 -0.000835462 0.000242104)
(-0.00139986 -0.000864581 0.00023138)
(-0.00145034 -0.000895484 0.000219567)
(-0.00150316 -0.000927745 0.000206314)
(-0.00155768 -0.000960885 0.00019099)
(-0.00161277 -0.000994072 0.000172537)
(-0.00166688 -0.00102626 0.000149216)
(-0.00171742 -0.00105581 0.000118677)
(-0.00175947 -0.0010804 7.74869e-05)
(-0.00178451 -0.00109549 2.66886e-05)
(-0.00055332 -0.000373527 -0.000124916)
(-0.000432556 -0.000334637 -4.98161e-05)
(-0.00041939 -0.00036346 -1.93463e-05)
(-0.00050254 -0.000453138 2.02715e-05)
(-0.000608448 -0.000537547 6.81418e-05)
(-0.000722981 -0.000604988 0.000116079)
(-0.000837287 -0.000653349 0.000160811)
(-0.000945039 -0.000685021 0.000199397)
(-0.00103972 -0.000702554 0.000228143)
(-0.00112092 -0.000713163 0.000245805)
(-0.00118658 -0.000722044 0.000252969)
(-0.00124092 -0.000734467 0.000252603)
(-0.00128971 -0.000752419 0.000247845)
(-0.001336 -0.00077452 0.000240452)
(-0.00138317 -0.000799676 0.000231615)
(-0.00143299 -0.000827308 0.000221827)
(-0.00148517 -0.000856611 0.000210936)
(-0.00153945 -0.000887184 0.000198618)
(-0.00159508 -0.000918444 0.000184226)
(-0.0016512 -0.000949744 0.000166737)
(-0.00170622 -0.000980044 0.000144425)
(-0.00175756 -0.0010078 0.000114995)
(-0.00180024 -0.0010309 7.5128e-05)
(-0.00182556 -0.00104513 2.58776e-05)
(-0.000538931 -0.000323556 -9.34682e-05)
(-0.000428921 -0.000294643 -5.45682e-05)
(-0.000403469 -0.000320703 -2.72479e-05)
(-0.000480921 -0.000404289 6.63687e-06)
(-0.000588241 -0.000490178 4.99304e-05)
(-0.000704315 -0.000559963 9.4947e-05)
(-0.000822946 -0.000612418 0.000138706)
(-0.00093557 -0.000647288 0.000177577)
(-0.0010382 -0.000668675 0.000208029)
(-0.00112398 -0.000679806 0.000227175)
(-0.00119569 -0.000689171 0.000236261)
(-0.0012556 -0.000701106 0.000237702)
(-0.00130782 -0.000717226 0.000234315)
(-0.00135755 -0.000737596 0.000228251)
(-0.00140769 -0.000761194 0.000220641)
(-0.00145901 -0.000786796 0.000211847)
(-0.00151249 -0.000814141 0.000201948)
(-0.00156787 -0.000842736 0.000190625)
(-0.00162462 -0.000872094 0.000177257)
(-0.0016816 -0.000901411 0.000160787)
(-0.00173738 -0.000929754 0.000139527)
(-0.00178944 -0.000955695 0.000111247)
(-0.0018327 -0.000977295 7.27383e-05)
(-0.0018581 -0.000990595 2.50578e-05)
(-0.000448546 -0.000236312 -6.02073e-05)
(-0.000403725 -0.00024784 -5.61089e-05)
(-0.000379086 -0.00027624 -3.39595e-05)
(-0.000449642 -0.000353414 -6.54641e-06)
(-0.000553988 -0.000437272 3.11095e-05)
(-0.00067389 -0.000511174 7.26117e-05)
(-0.000797249 -0.000567886 0.000114776)
(-0.000916769 -0.000607139 0.000153855)
(-0.00102323 -0.000629466 0.000185039)
(-0.00111745 -0.000643241 0.000206495)
(-0.00119529 -0.00065286 0.000217732)
(-0.00126004 -0.000663749 0.00022111)
(-0.00131745 -0.000678891 0.000219636)
(-0.00137033 -0.00069737 0.000215056)
(-0.00142232 -0.000718769 0.000208695)
(-0.00147604 -0.000742751 0.000201208)
(-0.00153126 -0.000768314 0.000192504)
(-0.0015879 -0.000794991 0.000182312)
(-0.00164527 -0.000822201 0.000170012)
(-0.00170276 -0.000849405 0.000154611)
(-0.00175893 -0.000875694 0.000134446)
(-0.00181134 -0.000899735 0.000107357)
(-0.00185484 -0.000919764 7.0259e-05)
(-0.00188017 -0.000932061 2.42088e-05)
(-0.000495235 -0.000226954 -5.41164e-05)
(-0.000387812 -0.000213904 -5.73154e-05)
(-0.000348828 -0.000232455 -3.98449e-05)
(-0.000407452 -0.000300569 -1.87652e-05)
(-0.000512321 -0.000385042 1.25951e-05)
(-0.000631383 -0.000459432 4.93569e-05)
(-0.000758761 -0.000519852 8.90465e-05)
(-0.000882805 -0.000561889 0.00012739)
(-0.000999892 -0.00058925 0.000160213)
(-0.00109928 -0.000603385 0.000183392)
(-0.00118404 -0.000613387 0.000197129)
(-0.00125561 -0.000624 0.000203069)
(-0.00131675 -0.000637157 0.000203527)
(-0.0013734 -0.000653908 0.000200777)
(-0.00142888 -0.000673765 0.000196101)
(-0.00148383 -0.000695408 0.000189913)
(-0.00153993 -0.000718682 0.000182438)
(-0.00159715 -0.000743078 0.000173434)
(-0.00165518 -0.00076816 0.000162324)
(-0.0017129 -0.000793164 0.000148069)
(-0.00176916 -0.000817312 0.000129068)
(-0.00182165 -0.000839414 0.00010324)
(-0.00186517 -0.000857828 6.76364e-05)
(-0.00189025 -0.000869077 2.33118e-05)
(-0.000390886 -0.000155065 -3.23995e-05)
(-0.000349078 -0.000172016 -5.60532e-05)
(-0.000308595 -0.000188446 -4.3802e-05)
(-0.00035617 -0.000248049 -2.9127e-05)
(-0.00045172 -0.000325706 -5.13648e-06)
(-0.000574766 -0.000404088 2.57634e-05)
(-0.000706494 -0.000468533 6.18545e-05)
(-0.000839377 -0.000516161 9.92886e-05)
(-0.000959477 -0.000543951 0.000132252)
(-0.00106937 -0.000561319 0.000157962)
(-0.0011618 -0.000571762 0.000174489)
(-0.00123878 -0.000581079 0.000183043)
(-0.00130627 -0.000593256 0.000186147)
(-0.00136661 -0.000607982 0.00018547)
(-0.0014237 -0.000625227 0.000182433)
(-0.00148134 -0.00064508 0.000177922)
(-0.00153921 -0.000666405 0.000171934)
(-0.00159747 -0.000688704 0.000164283)
(-0.00165552 -0.000711395 0.000154394)
(-0.00171312 -0.000734078 0.00014133)
(-0.00176911 -0.000756005 0.000123527)
(-0.00182127 -0.00077607 9.89915e-05)
(-0.00186448 -0.000792794 6.49287e-05)
(-0.00188914 -0.000802956 2.23878e-05)
(-0.000355098 -0.000120508 -2.02815e-05)
(-0.000311215 -0.000137424 -5.55132e-05)
(-0.000262411 -0.000147435 -4.56824e-05)
(-0.000290989 -0.000192912 -3.608e-05)
(-0.000388002 -0.000270894 -2.09891e-05)
(-0.000505132 -0.000346289 2.62938e-06)
(-0.000640178 -0.00041432 3.38243e-05)
(-0.000776137 -0.000464337 6.87583e-05)
(-0.000910612 -0.000499351 0.000102723)
(-0.00102618 -0.000517234 0.000130141)
(-0.00112638 -0.000527992 0.000149601)
(-0.00121177 -0.000537141 0.000161476)
(-0.0012835 -0.000547066 0.000167222)
(-0.00134821 -0.000559838 0.000168991)
(-0.00140976 -0.00057552 0.00016819)
(-0.00146838 -0.000592703 0.000165323)
(-0.00152665 -0.000611415 0.000160817)
(-0.00158493 -0.000631171 0.000154549)
(-0.00164321 -0.000651595 0.000146022)
(-0.00170043 -0.000671946 0.000134227)
(-0.00175582 -0.000691622 0.000117686)
(-0.00180743 -0.000709657 9.45143e-05)
(-0.00185015 -0.000724695 6.20789e-05)
(-0.0018742 -0.000733755 2.14171e-05)
(-0.000281755 -8.08679e-05 -1.01154e-05)
(-0.000258109 -0.000103221 -5.15999e-05)
(-0.000210828 -0.000109584 -4.52736e-05)
(-0.000224014 -0.000142535 -3.99771e-05)
(-0.000297314 -0.000204038 -3.24555e-05)
(-0.00042062 -0.000284637 -1.82212e-05)
(-0.000558367 -0.000356211 6.04832e-06)
(-0.000705998 -0.000414308 3.7772e-05)
(-0.000840978 -0.000449227 7.06362e-05)
(-0.000969364 -0.00047174 0.000100257)
(-0.00107908 -0.000483665 0.000122876)
(-0.00117038 -0.000491377 0.000137946)
(-0.00124974 -0.000500304 0.000147053)
(-0.00131882 -0.000510888 0.000151531)
(-0.00138155 -0.0005235 0.000152802)
(-0.00144333 -0.000538775 0.000152032)
(-0.00150363 -0.000555465 0.000149337)
(-0.00156286 -0.00057305 0.00014466)
(-0.00162052 -0.000590945 0.000137502)
(-0.00167695 -0.000608903 0.000127009)
(-0.00173136 -0.000626291 0.00011175)
(-0.00178195 -0.000642243 8.99532e-05)
(-0.00182378 -0.000655542 5.91734e-05)
(-0.00184707 -0.000663518 2.04301e-05)
(-0.000190265 -4.64465e-05 1.10957e-07)
(-0.00019709 -7.12979e-05 -4.71616e-05)
(-0.000154918 -7.58943e-05 -4.22773e-05)
(-0.000133987 -8.34796e-05 -3.3224e-05)
(-0.000217343 -0.000147787 -3.90597e-05)
(-0.000323764 -0.000219229 -3.5333e-05)
(-0.000464259 -0.000295602 -1.95942e-05)
(-0.000610613 -0.000355067 6.56305e-06)
(-0.000765179 -0.000401376 3.83093e-05)
(-0.00089877 -0.000425199 6.88488e-05)
(-0.00101647 -0.000438004 9.42915e-05)
(-0.00111787 -0.00044619 0.000113107)
(-0.00120174 -0.000452784 0.000125417)
(-0.00127574 -0.000461281 0.000132903)
(-0.0013443 -0.000472439 0.000136977)
(-0.0014067 -0.000484761 0.000138201)
(-0.00146675 -0.000498573 0.000137238)
(-0.0015253 -0.000513445 0.000134136)
(-0.00158278 -0.000529073 0.000128509)
(-0.00163819 -0.000544695 0.000119397)
(-0.00169131 -0.000559856 0.000105484)
(-0.00174069 -0.000573801 8.51398e-05)
(-0.00178149 -0.000585438 5.61116e-05)
(-0.00180379 -0.000592347 1.93917e-05)
(-7.8196e-05 -1.56759e-05 7.50935e-06)
(-0.000116572 -3.83315e-05 -3.68785e-05)
(-9.79806e-05 -4.61348e-05 -3.73874e-05)
(-6.11032e-05 -3.84262e-05 -2.23026e-05)
(-9.16999e-05 -6.39423e-05 -2.61855e-05)
(-0.000214507 -0.000148394 -4.25127e-05)
(-0.000351518 -0.000226627 -3.9407e-05)
(-0.000515911 -0.000300382 -2.21985e-05)
(-0.000664649 -0.000345612 5.99595e-06)
(-0.000813632 -0.000377227 3.69137e-05)
(-0.000942374 -0.000393075 6.48428e-05)
(-0.00104927 -0.00040035 8.68167e-05)
(-0.00114218 -0.000406546 0.000102842)
(-0.0012211 -0.000412964 0.000113491)
(-0.00128988 -0.000420684 0.000119977)
(-0.0013561 -0.000431145 0.000123693)
(-0.00141871 -0.000443044 0.00012487)
(-0.00147824 -0.000455818 0.000123593)
(-0.00153435 -0.000468909 0.000119471)
(-0.00158825 -0.000482217 0.000111754)
(-0.00163964 -0.000495192 9.91904e-05)
(-0.00168728 -0.000507134 8.02892e-05)
(-0.00172659 -0.000517102 5.30211e-05)
(-0.00174779 -0.000523005 1.83467e-05)
(-7.34166e-06 3.9958e-07 8.89018e-06)
(-2.57621e-05 -7.34488e-06 -1.25514e-05)
(-3.23767e-05 -1.54469e-05 -2.08461e-05)
(-5.09387e-05 -3.55793e-05 -3.13547e-05)
(-4.99645e-05 -3.96382e-05 -2.31878e-05)
(-0.000102609 -7.54294e-05 -3.21518e-05)
(-0.000238468 -0.000155192 -4.89366e-05)
(-0.000387289 -0.000227657 -4.47505e-05)
(-0.000565365 -0.000294031 -2.33502e-05)
(-0.000715972 -0.000328152 5.92657e-06)
(-0.000851682 -0.000346784 3.51073e-05)
(-0.000970276 -0.000356491 6.0138e-05)
(-0.00106674 -0.000360846 7.92534e-05)
(-0.00115075 -0.000365536 9.31054e-05)
(-0.00122712 -0.000372319 0.000102789)
(-0.00129327 -0.00037974 0.000108764)
(-0.00135449 -0.000388602 0.000111855)
(-0.00141252 -0.00039867 0.000112317)
(-0.0014681 -0.000409675 0.000109882)
(-0.00152028 -0.000420832 0.000103639)
(-0.00156962 -0.00043176 9.24887e-05)
(-0.00161539 -0.000441883 7.51211e-05)
(-0.00165314 -0.000450333 4.97322e-05)
(-0.00167297 -0.000455283 1.72351e-05)
(6.51056e-06 6.23571e-06 1.51979e-05)
(4.46383e-06 5.78779e-07 -7.43038e-06)
(-4.28803e-06 -8.23585e-06 -2.06085e-05)
(-1.72552e-05 -2.31994e-05 -2.76122e-05)
(-3.48198e-05 -3.77273e-05 -3.01204e-05)
(-4.41501e-05 -3.68186e-05 -2.29479e-05)
(-7.446e-05 -5.01567e-05 -2.5051e-05)
(-0.000283108 -0.000166946 -5.85109e-05)
(-0.000433725 -0.000227051 -4.60888e-05)
(-0.000604902 -0.000276588 -2.18166e-05)
(-0.00075175 -0.000301593 6.75539e-06)
(-0.000873199 -0.000311898 3.33744e-05)
(-0.000980288 -0.00031779 5.55207e-05)
(-0.00106945 -0.000321291 7.24151e-05)
(-0.00114406 -0.000324641 8.45368e-05)
(-0.00121481 -0.000330642 9.32359e-05)
(-0.00127959 -0.000338049 9.87397e-05)
(-0.00133859 -0.000346281 0.000101212)
(-0.00139188 -0.00035494 0.000100381)
(-0.00144174 -0.000364043 9.55983e-05)
(-0.00148859 -0.000373071 8.58404e-05)
(-0.00153184 -0.000381433 6.99699e-05)
(-0.00156748 -0.000388417 4.64448e-05)
(-0.00158586 -0.000392523 1.61271e-05)
(1.28903e-05 1.12248e-05 2.15333e-05)
(2.36381e-05 7.17814e-06 -7.74121e-06)
(2.18188e-05 -4.49248e-07 -1.46753e-05)
(1.25383e-05 -9.62038e-06 -1.56427e-05)
(-1.22143e-06 -2.46848e-05 -2.37584e-05)
(-2.87683e-05 -3.36812e-05 -2.93558e-05)
(-6.95526e-05 -5.33263e-05 -3.83204e-05)
(-8.19545e-05 -4.91848e-05 -2.61242e-05)
(-0.000323832 -0.000169302 -5.99622e-05)
(-0.000483131 -0.000221735 -4.39988e-05)
(-0.000635425 -0.000253823 -1.84941e-05)
(-0.00077052 -0.000270483 8.16755e-06)
(-0.000877951 -0.000275857 3.19557e-05)
(-0.0009711 -0.000278775 5.13655e-05)
(-0.00105549 -0.000282526 6.65793e-05)
(-0.00112467 -0.000285782 7.75383e-05)
(-0.00118585 -0.000290206 8.49501e-05)
(-0.00124238 -0.000296041 8.92379e-05)
(-0.00129477 -0.000303032 9.01959e-05)
(-0.00134216 -0.000310376 8.69402e-05)
(-0.00138613 -0.000317733 7.86393e-05)
(-0.00142687 -0.000324624 6.43823e-05)
(-0.0014604 -0.000330375 4.2879e-05)
(-0.00147705 -0.000333712 1.49233e-05)
(2.29235e-05 1.31839e-05 2.36543e-05)
(3.62663e-05 9.78282e-06 -8.82072e-06)
(4.67821e-05 3.008e-06 -1.77134e-05)
(3.7234e-05 -7.92457e-06 -1.62482e-05)
(3.11958e-05 -2.0751e-05 -1.76789e-05)
(3.7447e-06 -2.47132e-05 -1.78883e-05)
(-1.96983e-05 -1.99869e-05 -1.72349e-05)
(-5.23404e-05 -3.30128e-05 -2.44785e-05)
(-0.000145328 -7.51002e-05 -4.0686e-05)
(-0.000356286 -0.000163876 -5.64684e-05)
(-0.000515024 -0.00020681 -3.88561e-05)
(-0.00064678 -0.000226197 -1.4355e-05)
(-0.00076632 -0.000236615 9.76414e-06)
(-0.000864706 -0.00024049 3.09627e-05)
(-0.000943316 -0.000241375 4.80009e-05)
(-0.00101796 -0.000244356 6.15032e-05)
(-0.00108455 -0.000248412 7.14055e-05)
(-0.0011418 -0.000252969 7.7745e-05)
(-0.0011907 -0.000258047 8.03176e-05)
(-0.00123487 -0.000263811 7.85267e-05)
(-0.00127554 -0.000269732 7.1625e-05)
(-0.00131292 -0.000275267 5.89007e-05)
(-0.00134371 -0.000279878 3.93651e-05)
(-0.00135863 -0.000282593 1.37395e-05)
(3.28743e-05 1.41189e-05 2.5162e-05)
(7.44228e-05 1.64945e-05 -1.36436e-05)
(8.40467e-05 6.40807e-06 -2.39215e-05)
(6.2403e-05 -7.31001e-06 -2.02801e-05)
(5.58115e-05 -2.16542e-05 -1.79874e-05)
(1.93271e-05 -1.64506e-05 -5.65051e-06)
(1.00014e-06 -2.08679e-05 -8.1431e-06)
(-4.30918e-05 -3.04518e-05 -2.73709e-05)
(-0.000108168 -5.70785e-05 -4.39308e-05)
(-0.000206706 -9.56766e-05 -4.96113e-05)
(-0.000376976 -0.000153536 -4.99649e-05)
(-0.000526622 -0.000185781 -3.26552e-05)
(-0.000641905 -0.000197968 -1.00891e-05)
(-0.000741138 -0.000203229 1.15589e-05)
(-0.000832596 -0.000207162 3.05719e-05)
(-0.000902761 -0.000208233 4.58181e-05)
(-0.000961437 -0.000209622 5.72314e-05)
(-0.00101488 -0.00021249 6.52371e-05)
(-0.00106254 -0.000216639 6.95628e-05)
(-0.00110342 -0.000221258 6.9262e-05)
(-0.00114035 -0.000226051 6.38162e-05)
(-0.00117459 -0.000230625 5.27834e-05)
(-0.00120277 -0.0002344 3.54357e-05)
(-0.00121561 -0.000236569 1.24088e-05)
(4.02459e-05 1.49804e-05 2.80785e-05)
(9.27941e-05 1.97427e-05 -1.23715e-05)
(0.000113194 1.07359e-05 -2.75352e-05)
(0.000114063 -6.46957e-06 -3.26768e-05)
(8.5651e-05 -2.1338e-05 -2.51133e-05)
(6.78004e-05 -3.62284e-05 -1.69387e-05)
(1.8882e-05 -2.12764e-05 -2.21986e-06)
(-3.96823e-06 -1.36235e-05 -4.03216e-06)
(-3.99796e-05 -2.34106e-05 -2.06088e-05)
(-8.15009e-05 -3.84493e-05 -2.76078e-05)
(-0.00025313 -0.000103115 -5.1246e-05)
(-0.000387223 -0.000139401 -4.39198e-05)
(-0.000513066 -0.000160777 -2.61791e-05)
(-0.000616614 -0.00017008 -5.6595e-06)
(-0.000694429 -0.00017192 1.36502e-05)
(-0.000771055 -0.000174862 3.04201e-05)
(-0.000838503 -0.000177924 4.39351e-05)
(-0.000892314 -0.000180531 5.37496e-05)
(-0.000934793 -0.000183431 5.95098e-05)
(-0.000971425 -0.000187124 6.05613e-05)
(-0.00100426 -0.000191079 5.64549e-05)
(-0.00103429 -0.000194802 4.69572e-05)
(-0.00105914 -0.000197853 3.16683e-05)
(-0.00107008 -0.000199638 1.11345e-05)
(4.46881e-05 1.50146e-05 3.00867e-05)
(0.000103045 2.24894e-05 -1.02608e-05)
(0.000130115 1.64674e-05 -2.87126e-05)
(0.000135523 2.09311e-07 -3.73844e-05)
(0.000123101 -1.96498e-05 -3.69163e-05)
(8.79347e-05 -3.31121e-05 -2.51947e-05)
(3.86186e-05 -2.78297e-05 -7.40111e-06)
(1.21237e-05 -1.87051e-05 7.41305e-07)
(-1.40843e-05 -1.88467e-05 -6.60093e-06)
(-5.17454e-05 -2.56542e-05 -2.31964e-05)
(-7.48466e-05 -3.12203e-05 -2.2353e-05)
(-0.000254158 -9.45805e-05 -4.58619e-05)
(-0.000375015 -0.000121737 -3.61991e-05)
(-0.000475358 -0.000134901 -1.92055e-05)
(-0.000572193 -0.000144274 -9.17295e-07)
(-0.000638988 -0.000146408 1.62905e-05)
(-0.000690804 -0.000147141 3.03049e-05)
(-0.000738185 -0.000148992 4.11266e-05)
(-0.000779257 -0.000152028 4.82985e-05)
(-0.000811773 -0.000155333 5.06164e-05)
(-0.000840052 -0.000158772 4.78818e-05)
(-0.000866475 -0.000162114 4.01492e-05)
(-0.000888273 -0.00016478 2.72454e-05)
(-0.000896877 -0.000166213 9.62215e-06)
(4.90895e-05 1.55091e-05 3.39018e-05)
(0.000101323 2.28017e-05 -7.27029e-06)
(0.000130614 2.0386e-05 -2.69885e-05)
(0.00014369 7.62224e-06 -3.86064e-05)
(0.000138559 -1.18395e-05 -4.14013e-05)
(0.000119002 -3.07512e-05 -3.58125e-05)
(7.53514e-05 -3.74453e-05 -1.97459e-05)
(3.76771e-05 -3.36592e-05 -4.94675e-06)
(1.29193e-05 -3.19897e-05 2.68508e-06)
(-1.52432e-05 -1.16283e-05 -7.62963e-06)
(-5.07165e-05 -2.43808e-05 -2.21534e-05)
(-0.000108097 -4.20402e-05 -2.89302e-05)
(-0.000242734 -8.33037e-05 -3.86085e-05)
(-0.000348152 -0.000103563 -2.85086e-05)
(-0.000414748 -0.000109858 -1.23394e-05)
(-0.000490569 -0.000117246 3.79242e-06)
(-0.000556625 -0.000122616 1.84942e-05)
(-0.000606184 -0.000126202 3.04483e-05)
(-0.00063959 -0.000128605 3.85415e-05)
(-0.000666812 -0.000131649 4.18985e-05)
(-0.000690347 -0.000134776 4.03282e-05)
(-0.000711768 -0.000137757 3.40624e-05)
(-0.000729753 -0.000140067 2.32533e-05)
(-0.000736557 -0.000141307 8.25849e-06)
(5.00998e-05 1.49531e-05 3.64623e-05)
(9.57167e-05 2.18958e-05 -4.34001e-06)
(0.000124562 2.17598e-05 -2.36475e-05)
(0.000137777 1.2647e-05 -3.5526e-05)
(0.000140077 -3.33322e-06 -4.12806e-05)
(0.000128535 -2.20299e-05 -3.93228e-05)
(0.000108067 -3.82143e-05 -3.13148e-05)
(6.21887e-05 -3.7443e-05 -1.44335e-05)
(3.61577e-05 -3.74988e-05 -3.47969e-06)
(6.30314e-06 -2.91098e-05 -2.94436e-06)
(-2.85959e-05 -1.84557e-05 -1.75962e-05)
(-4.69268e-05 -2.0546e-05 -1.91429e-05)
(-0.00012828 -4.67659e-05 -3.18017e-05)
(-0.00019548 -6.26984e-05 -2.77252e-05)
(-0.000302885 -8.5154e-05 -2.0594e-05)
(-0.000357912 -9.13833e-05 -6.17693e-06)
(-0.000399641 -9.46512e-05 7.32343e-06)
(-0.000431376 -9.70936e-05 1.8546e-05)
(-0.000464386 -0.000100818 2.70982e-05)
(-0.000486695 -0.000104069 3.11121e-05)
(-0.000505314 -0.000107097 3.06835e-05)
(-0.000522988 -0.000110307 2.62665e-05)
(-0.000537803 -0.000112597 1.81035e-05)
(-0.000541786 -0.000113344 6.46211e-06)
(4.98964e-05 1.47882e-05 3.97115e-05)
(8.71622e-05 2.08751e-05 -2.17604e-06)
(0.000114417 2.20154e-05 -2.02603e-05)
(0.000127459 1.51831e-05 -3.12776e-05)
(0.000131074 2.81131e-06 -3.75064e-05)
(0.00012807 -1.35253e-05 -3.89266e-05)
(0.00011468 -2.97185e-05 -3.41176e-05)
(9.78617e-05 -4.27122e-05 -2.65974e-05)
(5.26552e-05 -3.56954e-05 -1.2391e-05)
(3.18771e-05 -3.89924e-05 -7.0117e-06)
(-1.68389e-06 -1.42396e-05 -7.02209e-06)
(-3.35774e-05 -1.91346e-05 -2.2502e-05)
(-5.79484e-05 -2.39633e-05 -2.30025e-05)
(-0.000109852 -3.87502e-05 -2.55434e-05)
(-0.000111998 -3.4529e-05 -1.42188e-05)
(-0.000205812 -5.73877e-05 -1.13125e-05)
(-0.000259404 -6.94824e-05 -9.19787e-07)
(-0.000314389 -7.73926e-05 1.04801e-05)
(-0.00033732 -8.10039e-05 1.86646e-05)
(-0.000353409 -8.38074e-05 2.31631e-05)
(-0.000367339 -8.70605e-05 2.35105e-05)
(-0.000377326 -8.94832e-05 2.03147e-05)
(-0.000387826 -9.14709e-05 1.40968e-05)
(-0.000392753 -9.24286e-05 5.08927e-06)
(4.80087e-05 1.57609e-05 4.3448e-05)
(7.70376e-05 2.06821e-05 -1.32016e-06)
(9.95653e-05 2.17324e-05 -1.71529e-05)
(0.000110998 1.62764e-05 -2.59958e-05)
(0.000116169 6.33216e-06 -3.17394e-05)
(0.000116482 -6.94568e-06 -3.43435e-05)
(0.000113592 -2.25087e-05 -3.33424e-05)
(0.000102702 -3.52406e-05 -2.83095e-05)
(9.04709e-05 -4.51145e-05 -2.36102e-05)
(4.62965e-05 -3.38577e-05 -1.24504e-05)
(1.90131e-05 -2.75166e-05 -1.03546e-05)
(-5.8436e-06 -1.16886e-05 -1.28491e-05)
(-3.17432e-05 -1.74683e-05 -2.32191e-05)
(-7.63093e-05 -3.17589e-05 -3.12552e-05)
(-7.909e-05 -2.97347e-05 -1.84438e-05)
(-6.56555e-05 -2.19224e-05 -7.57642e-06)
(-0.00014299 -4.237e-05 -5.22134e-06)
(-0.000106363 -2.91644e-05 1.42236e-06)
(-0.000131501 -3.7265e-05 6.34982e-06)
(-0.00014762 -4.09422e-05 9.79659e-06)
(-0.000154498 -4.42317e-05 1.06326e-05)
(-0.000173442 -4.78532e-05 1.02726e-05)
(-0.000182281 -5.00807e-05 7.2186e-06)
(-0.000173423 -4.85417e-05 2.43965e-06)
(4.36768e-05 1.76937e-05 4.66969e-05)
(6.20033e-05 1.98443e-05 -1.31318e-06)
(7.85169e-05 2.00268e-05 -1.36395e-05)
(8.78926e-05 1.55108e-05 -1.95709e-05)
(9.39723e-05 7.77055e-06 -2.3869e-05)
(9.8191e-05 -3.17008e-06 -2.69413e-05)
(0.000100731 -1.65685e-05 -2.76956e-05)
(0.000102948 -3.00209e-05 -2.69191e-05)
(9.50202e-05 -3.83498e-05 -2.4214e-05)
(8.29102e-05 -4.49239e-05 -2.29516e-05)
(3.80414e-05 -3.04242e-05 -1.46877e-05)
(1.24523e-05 -2.28755e-05 -1.64672e-05)
(-9.83369e-06 -1.36021e-05 -2.25199e-05)
(-2.59668e-05 -1.59223e-05 -2.30289e-05)
(-3.01633e-05 -1.4177e-05 -1.41816e-05)
(-3.98316e-05 -1.70718e-05 -9.94454e-06)
(-9.61332e-05 -3.58497e-05 -1.12036e-05)
(-0.000108129 -4.14293e-05 -3.38731e-06)
(-9.28149e-05 -3.46812e-05 3.03782e-06)
(-5.76405e-05 -2.23758e-05 3.71474e-06)
(-0.000104231 -4.0329e-05 7.93217e-06)
(-0.000133191 -5.11978e-05 8.7617e-06)
(-0.000138223 -5.27442e-05 6.10306e-06)
(-6.60748e-05 -2.59429e-05 1.04653e-06)
(3.71739e-05 1.97095e-05 4.82009e-05)
(4.98652e-05 1.97864e-05 -1.86308e-06)
(5.73515e-05 1.73373e-05 -1.06874e-05)
(6.19872e-05 1.27156e-05 -1.34549e-05)
(6.74563e-05 6.64323e-06 -1.57207e-05)
(7.41922e-05 -2.1909e-06 -1.79852e-05)
(8.30632e-05 -1.35693e-05 -1.98148e-05)
(9.11707e-05 -2.48031e-05 -2.0934e-05)
(9.68946e-05 -3.45815e-05 -2.24178e-05)
(8.82164e-05 -3.92025e-05 -2.26509e-05)
(7.3404e-05 -4.28398e-05 -2.47525e-05)
(3.15511e-05 -2.73319e-05 -1.88461e-05)
(1.27092e-05 -2.4069e-05 -2.93162e-05)
(-6.62571e-06 -1.43332e-05 -2.95255e-05)
(-2.34961e-05 -1.9372e-05 -3.31405e-05)
(-3.58524e-05 -2.20423e-05 -2.51306e-05)
(-2.46661e-05 -1.4873e-05 -8.80558e-06)
(-4.27738e-05 -2.38037e-05 -6.08689e-06)
(-6.27708e-05 -3.34353e-05 -1.20942e-06)
(-5.49314e-05 -3.12933e-05 2.89207e-06)
(-6.81169e-05 -3.77133e-05 5.66431e-06)
(-3.19223e-05 -1.9531e-05 2.34619e-06)
(-3.30117e-05 -2.03462e-05 1.76886e-06)
(-5.80907e-05 -3.53521e-05 1.20994e-06)
(2.9679e-05 2.12361e-05 4.75195e-05)
(3.98373e-05 2.00282e-05 -2.88312e-06)
(4.17041e-05 1.50807e-05 -9.44814e-06)
(4.22187e-05 9.63792e-06 -1.00569e-05)
(4.50765e-05 3.92971e-06 -1.03363e-05)
(5.27269e-05 -3.80632e-06 -1.11554e-05)
(6.43723e-05 -1.34288e-05 -1.22365e-05)
(7.81956e-05 -2.27395e-05 -1.43452e-05)
(8.68284e-05 -3.00747e-05 -1.70123e-05)
(9.08896e-05 -3.66711e-05 -2.05975e-05)
(8.05502e-05 -3.88526e-05 -2.3609e-05)
(6.43759e-05 -4.00536e-05 -2.94939e-05)
(2.84202e-05 -2.60555e-05 -2.62497e-05)
(1.14466e-05 -1.95807e-05 -3.15256e-05)
(-1.01279e-06 -1.65077e-05 -3.64385e-05)
(-9.33221e-06 -1.79108e-05 -3.75075e-05)
(-8.03871e-06 -1.08797e-05 -1.51455e-05)
(-2.06412e-05 -2.37263e-05 -1.90539e-05)
(-2.13423e-05 -2.49359e-05 -8.9084e-06)
(-1.42275e-05 -1.73811e-05 -2.3523e-06)
(-2.21438e-05 -2.92673e-05 -2.81197e-07)
(-1.37971e-05 -1.89827e-05 5.64642e-07)
(-2.05465e-05 -2.82012e-05 8.70907e-07)
(-2.09328e-05 -2.84835e-05 4.70519e-07)
(2.2328e-05 2.18043e-05 4.42815e-05)
(3.03391e-05 1.9308e-05 -4.36509e-06)
(3.096e-05 1.31751e-05 -9.65859e-06)
(3.11177e-05 7.20703e-06 -9.62024e-06)
(3.3391e-05 5.84655e-07 -8.89539e-06)
(4.11966e-05 -7.9158e-06 -8.21671e-06)
(5.37622e-05 -1.69893e-05 -7.81421e-06)
(6.65334e-05 -2.38946e-05 -8.89179e-06)
(7.82022e-05 -2.94608e-05 -1.20655e-05)
(8.27983e-05 -3.34693e-05 -1.58894e-05)
(8.38458e-05 -3.75453e-05 -2.12058e-05)
(7.35646e-05 -3.81925e-05 -2.74619e-05)
(5.88371e-05 -3.78526e-05 -3.68599e-05)
(3.18982e-05 -2.72042e-05 -3.73601e-05)
(2.26569e-05 -2.81136e-05 -5.22883e-05)
(5.2185e-06 -1.24622e-05 -2.75699e-05)