/*--------------------------------*- C++ -*----------------------------------*\
  =========                 |
  \\      /  F ield         | OpenFOAM: The Open Source CFD Toolbox
   \\    /   O peration     | Website:  https://openfoam.org
    \\  /    A nd           | Version:  6
     \\/     M anipulation  |
\*---------------------------------------------------------------------------*/
FoamFile
{
    version     2.0;
    format      ascii;
    class       volScalarField;
    location    "0.4";
    object      omega;
}
// * * * * * * * * * * * * * * * * * * * * * * * * * * * * * * * * * * * * * //

dimensions      [0 0 -1 0 0 0 0];

internalField   nonuniform List<scalar> 
63264
(
843.917
843.917
843.917
843.917
843.917
843.917
843.917
843.917
843.917
843.917
843.917
843.917
843.917
843.917
843.917
843.917
843.917
843.917
843.917
843.917
843.917
843.917
843.917
843.917
843.917
843.917
843.917
843.917
843.917
843.917
843.917
843.917
843.917
843.917
843.917
843.917
843.917
843.917
843.917
843.917
843.917
843.917
843.917
843.917
843.917
843.917
843.917
843.917
843.917
843.917
843.917
843.917
843.917
843.917
843.917
843.917
843.917
843.917
843.917
843.917
843.917
843.917
843.917
843.917
843.917
843.917
843.917
843.917
843.917
843.917
843.917
843.917
843.917
843.917
843.917
843.917
843.917
843.917
843.917
843.917
843.917
843.917
843.917
843.917
843.917
843.917
843.917
843.917
843.917
843.917
843.917
843.917
843.917
843.917
843.917
843.917
843.917
843.917
843.917
843.917
843.917
843.917
843.917
843.917
843.917
843.917
843.917
843.917
843.917
843.917
843.917
843.917
843.917
843.917
843.917
843.917
843.917
843.917
843.917
843.917
843.917
843.917
843.917
843.917
843.917
843.917
843.917
843.917
843.917
843.917
843.917
843.917
843.917
843.917
843.917
843.917
843.917
843.917
843.917
843.917
843.917
843.917
843.917
843.917
843.917
843.917
843.917
843.917
843.917
843.917
843.917
843.917
843.917
843.917
843.917
843.917
843.917
843.917
843.917
843.917
843.917
843.917
843.917
843.917
843.917
843.917
843.917
843.917
843.917
843.917
843.917
843.917
843.917
843.917
843.917
843.917
843.917
843.917
843.917
843.917
843.917
843.917
843.917
843.917
843.917
843.917
843.917
843.917
843.917
843.917
843.917
843.917
843.917
843.917
843.917
843.917
843.917
843.917
843.917
843.917
843.917
843.917
843.917
843.917
843.917
843.917
843.917
843.917
843.917
843.917
843.917
843.917
843.917
843.917
843.917
843.917
843.917
843.917
843.917
843.917
843.917
843.917
843.917
843.917
843.917
843.917
843.917
843.917
843.917
843.917
843.917
843.917
843.917
843.917
843.917
843.917
843.917
843.917
843.917
843.917
843.917
843.917
843.917
843.917
843.917
843.917
843.917
843.917
843.917
843.917
843.917
843.917
843.917
843.917
843.917
843.917
843.917
843.917
843.917
843.917
843.917
843.917
843.917
843.917
843.917
843.917
843.917
843.917
843.917
843.917
843.917
843.917
843.917
843.917
843.917
843.917
843.917
843.917
843.917
843.917
843.917
843.917
843.917
843.917
843.917
843.917
843.917
843.917
843.917
843.917
843.917
843.917
843.917
843.917
843.917
843.917
843.917
843.917
843.917
843.917
843.917
843.917
843.917
843.917
843.917
843.917
843.917
843.917
843.917
843.917
843.917
843.917
843.917
843.917
843.917
843.917
843.917
843.917
843.917
843.917
843.917
843.917
843.917
843.917
843.917
843.917
843.917
843.917
843.917
843.917
843.917
843.917
843.917
843.917
843.917
843.917
843.917
843.917
843.917
843.917
843.917
843.917
843.917
843.917
843.917
843.917
843.917
843.917
843.917
843.917
843.917
843.917
843.917
843.917
843.917
843.917
843.917
843.917
843.917
843.917
843.917
843.917
843.917
843.917
843.917
843.917
843.917
843.917
843.917
843.917
843.917
843.917
843.917
843.917
843.917
843.917
843.917
843.917
843.917
843.917
843.917
843.917
843.917
843.917
843.917
843.917
843.917
843.917
843.917
843.917
843.917
843.917
843.917
843.917
843.917
843.917
843.917
843.917
843.917
843.917
843.917
843.917
843.917
843.917
843.917
843.917
843.917
843.917
843.917
843.917
843.917
843.917
843.917
843.917
843.917
843.917
843.917
843.917
843.917
843.917
843.917
843.917
843.917
843.917
843.917
843.917
843.917
843.917
843.917
843.917
843.917
843.917
843.917
843.917
843.917
843.917
843.917
843.917
843.917
843.917
843.917
843.917
843.917
843.917
843.917
843.917
843.917
843.917
843.917
843.917
843.917
843.917
843.917
843.917
843.917
843.917
843.917
843.917
843.917
843.917
843.917
843.917
843.917
843.917
843.917
843.917
843.917
843.917
843.917
843.917
843.917
843.917
843.917
843.917
843.917
843.917
843.917
843.917
843.917
843.917
843.917
843.917
843.917
843.917
843.917
843.917
843.917
843.917
843.917
843.917
843.917
843.917
843.917
843.917
843.917
843.917
843.917
843.917
843.917
843.917
843.917
843.917
843.917
843.917
843.917
843.917
843.917
843.917
843.917
843.917
843.917
843.917
843.917
843.917
843.917
843.917
843.917
843.917
843.917
843.917
843.917
843.917
843.917
843.917
843.917
843.917
843.917
843.917
843.917
843.917
843.917
843.917
843.917
843.917
843.917
843.917
843.917
843.917
843.917
843.917
843.917
843.917
843.917
843.917
843.917
843.917
843.917
843.917
843.917
843.917
843.917
843.917
843.917
843.917
843.917
843.917
843.917
843.917
843.917
843.917
843.917
843.917
843.917
843.917
843.917
843.917
843.917
843.917
843.917
843.917
843.917
843.917
843.917
843.917
843.917
843.917
843.917
843.917
843.917
843.917
843.917
843.917
843.917
843.917
843.917
843.917
843.917
843.917
843.917
843.917
843.917
843.917
843.917
843.917
843.917
843.917
843.917
843.917
843.917
843.917
843.917
843.917
843.917
843.917
843.917
843.917
843.917
843.917
843.917
843.917
843.917
843.917
843.917
843.917
843.917
843.917
843.917
843.917
843.917
843.917
843.917
843.917
843.917
843.917
843.917
843.917
843.917
843.917
843.917
843.917
843.917
843.917
843.917
843.917
843.917
843.917
843.917
843.917
843.917
843.917
843.917
843.917
843.917
843.917
843.917
843.917
843.917
843.917
843.917
843.917
843.917
843.917
843.917
843.917
843.917
843.917
843.917
843.917
843.917
843.917
843.917
843.917
843.917
843.917
843.917
843.917
843.917
843.917
843.917
843.917
843.917
843.917
843.917
843.917
843.917
843.917
843.917
843.917
843.917
843.917
843.917
843.917
843.917
843.917
843.917
843.917
843.917
843.917
843.917
843.917
843.917
843.917
843.917
843.917
843.917
843.917
843.917
843.917
843.917
843.917
276.773
264.824
266.636
266.987
266.649
266.477
266.427
266.398
266.373
266.251
266.363
266.66
266.765
266.658
266.527
266.449
266.409
266.383
266.362
266.347
266.337
266.331
266.33
266.331
266.336
266.344
266.36
266.361
266.417
266.442
266.422
266.415
266.485
266.469
266.939
276.596
264.259
266.453
267.148
266.89
266.706
266.649
266.625
266.612
266.582
266.65
266.793
266.817
266.717
266.611
266.553
266.531
266.52
266.511
266.501
266.493
266.486
266.48
266.476
266.474
266.474
266.481
266.469
266.517
266.537
266.502
266.475
266.504
266.505
266.723
276.981
264.492
266.553
267.216
266.954
266.765
266.701
266.666
266.639
266.515
266.422
266.627
266.912
266.891
266.722
266.608
266.565
266.546
266.528
266.51
266.493
266.479
266.466
266.455
266.445
266.438
266.438
266.415
266.459
266.474
266.429
266.383
266.393
266.442
266.513
277.251
264.72
266.697
267.25
266.957
266.777
266.717
266.676
266.634
266.502
266.374
266.541
266.867
266.906
266.758
266.64
266.587
266.556
266.528
266.5
266.475
266.453
266.433
266.415
266.398
266.382
266.368
266.361
266.337
266.361
266.365
266.324
266.287
266.285
266.382
277.482
264.823
266.771
267.312
267.013
266.827
266.76
266.712
266.66
266.57
266.51
266.641
266.8
266.811
266.733
266.658
266.607
266.569
266.534
266.501
266.471
266.444
266.418
266.395
266.372
266.351
266.331
266.318
266.284
266.308
266.308
266.249
266.204
266.135
266.373
277.085
264.021
266.169
266.97
266.748
266.563
266.499
266.463
266.431
266.385
266.343
266.406
266.517
266.513
266.422
266.338
266.287
266.257
266.231
266.206
266.181
266.156
266.132
266.107
266.084
266.06
266.036
266.018
265.979
265.997
265.992
265.936
265.867
265.811
265.891
277.305
264.145
266.209
267.005
266.789
266.602
266.531
266.486
266.438
266.346
266.133
266.014
266.357
266.583
266.501
266.372
266.304
266.272
266.245
266.216
266.186
266.156
266.127
266.097
266.067
266.037
266.007
265.977
265.951
265.909
265.907
265.889
265.831
265.769
265.735
277.435
264.27
266.292
267.019
266.782
266.599
266.532
266.48
266.42
266.317
266.061
265.885
266.254
266.547
266.497
266.373
266.304
266.269
266.238
266.203
266.168
266.133
266.099
266.064
266.028
265.992
265.955
265.918
265.884
265.832
265.824
265.801
265.726
265.642
265.617
277.53
264.311
266.317
267.038
266.801
266.617
266.546
266.491
266.426
266.327
266.182
266.177
266.352
266.461
266.425
266.351
266.298
266.261
266.227
266.19
266.151
266.113
266.074
266.034
265.993
265.951
265.908
265.863
265.822
265.759
265.746
265.717
265.631
265.497
265.554
277.03
263.452
265.519
266.4
266.223
266.047
265.985
265.948
265.915
265.885
265.871
265.896
265.917
265.89
265.829
265.766
265.716
265.678
265.645
265.611
265.577
265.541
265.504
265.466
265.426
265.385
265.342
265.298
265.255
265.192
265.176
265.147
265.057
264.938
264.899
277.134
263.515
265.539
266.418
266.244
266.065
265.998
265.952
265.9
265.822
265.664
265.537
265.679
265.86
265.869
265.789
265.722
265.68
265.648
265.613
265.576
265.538
265.498
265.457
265.413
265.368
265.321
265.271
265.219
265.168
265.099
265.064
265.013
264.922
264.817
277.219
263.589
265.575
266.423
266.238
266.059
265.99
265.936
265.87
265.777
265.493
265.125
265.349
265.77
265.865
265.778
265.703
265.664
265.633
265.598
265.559
265.518
265.475
265.43
265.384
265.334
265.282
265.227
265.169
265.112
265.035
264.995
264.937
264.832
264.704
277.236
263.614
265.599
266.428
266.234
266.053
265.982
265.925
265.852
265.746
265.51
265.273
265.427
265.725
265.81
265.747
265.684
265.647
265.617
265.582
265.541
265.498
265.453
265.406
265.356
265.303
265.247
265.187
265.124
265.062
264.976
264.931
264.869
264.753
264.618
277.241
263.625
265.621
266.44
266.239
266.056
265.983
265.923
265.849
265.749
265.602
265.513
265.59
265.713
265.748
265.711
265.668
265.635
265.603
265.567
265.526
265.481
265.434
265.384
265.331
265.274
265.214
265.149
265.081
265.013
264.919
264.868
264.802
264.663
264.547
276.844
263.034
265.016
265.905
265.738
265.561
265.494
265.448
265.398
265.344
265.294
265.271
265.273
265.269
265.245
265.208
265.169
265.133
265.097
265.06
265.019
264.975
264.928
264.879
264.826
264.77
264.71
264.646
264.578
264.51
264.417
264.367
264.297
264.167
264.026
276.879
263.049
265.019
265.913
265.748
265.568
265.496
265.442
265.375
265.282
265.126
264.972
265.009
265.162
265.237
265.212
265.164
265.127
265.094
265.058
265.017
264.972
264.924
264.873
264.819
264.76
264.699
264.631
264.561
264.489
264.392
264.338
264.265
264.128
263.968
276.904
263.07
265.029
265.912
265.744
265.563
265.489
265.429
265.352
265.239
264.985
264.651
264.682
265.014
265.21
265.202
265.149
265.114
265.085
265.05
265.008
264.963
264.914
264.861
264.805
264.745
264.681
264.612
264.538
264.464
264.362
264.305
264.229
264.086
263.915
276.914
263.08
265.034
265.914
265.743
265.56
265.485
265.422
265.34
265.223
264.95
264.582
264.604
264.965
265.186
265.185
265.134
265.102
265.075
265.041
265
264.954
264.904
264.851
264.794
264.732
264.667
264.596
264.52
264.444
264.339
264.279
264.201
264.053
263.877
276.902
263.082
265.044
265.918
265.741
265.557
265.482
265.419
265.34
265.228
265.034
264.832
264.856
265.049
265.171
265.167
265.128
265.097
265.069
265.034
264.993
264.947
264.897
264.843
264.786
264.724
264.657
264.585
264.508
264.425
264.34
264.233
264.15
264.052
263.902
276.886
263.084
265.052
265.92
265.74
265.555
265.48
265.421
265.349
265.26
265.147
265.062
265.071
265.13
265.162
265.15
265.123
265.094
265.063
265.028
264.987
264.942
264.892
264.838
264.78
264.718
264.651
264.579
264.501
264.418
264.331
264.223
264.14
264.041
263.89
133.569
127.505
127.775
128.18
128.112
127.994
127.929
127.887
127.842
127.784
127.712
127.73
127.825
127.884
127.889
127.877
127.87
127.867
127.867
127.87
127.876
127.883
127.893
127.905
127.919
127.936
127.95
127.976
128
128.026
128.052
128.069
128.107
128.108
128.246
133.715
127.79
128.371
128.972
128.945
128.814
128.737
128.691
128.65
128.603
128.559
128.541
128.547
128.553
128.556
128.564
128.577
128.591
128.601
128.608
128.615
128.622
128.629
128.637
128.647
128.659
128.668
128.688
128.708
128.731
128.747
128.771
128.772
128.837
128.841
134.023
128
128.46
129.029
129.006
128.878
128.8
128.749
128.702
128.62
128.516
128.504
128.589
128.656
128.651
128.629
128.623
128.626
128.628
128.628
128.627
128.627
128.628
128.63
128.632
128.638
128.639
128.651
128.664
128.678
128.689
128.689
128.71
128.71
128.786
134.259
128.203
128.573
129.066
129.021
128.897
128.824
128.774
128.724
128.645
128.539
128.521
128.605
128.687
128.692
128.667
128.651
128.642
128.634
128.625
128.617
128.61
128.605
128.6
128.597
128.594
128.595
128.592
128.598
128.605
128.612
128.616
128.622
128.62
128.679
134.499
128.367
128.651
129.12
129.076
128.953
128.879
128.827
128.778
128.72
128.667
128.665
128.708
128.743
128.74
128.718
128.695
128.676
128.659
128.644
128.631
128.62
128.61
128.601
128.594
128.587
128.584
128.575
128.577
128.579
128.583
128.576
128.584
128.539
128.642
134.511
128.541
129.075
129.69
129.676
129.543
129.459
129.402
129.351
129.294
129.234
129.214
129.216
129.216
129.2
129.179
129.167
129.159
129.151
129.14
129.128
129.115
129.102
129.089
129.076
129.063
129.053
129.039
129.032
129.03
129.022
129.024
128.986
129.015
128.966
134.707
128.669
129.124
129.726
129.722
129.593
129.508
129.448
129.393
129.322
129.185
129.195
129.242
129.297
129.282
129.235
129.203
129.186
129.172
129.156
129.138
129.119
129.1
129.081
129.062
129.043
129.024
129.007
128.985
128.971
128.958
128.942
128.929
128.894
128.906
134.844
128.79
129.192
129.747
129.73
129.605
129.524
129.465
129.408
129.338
129.183
129.198
129.249
129.314
129.307
129.258
129.22
129.196
129.174
129.151
129.126
129.102
129.077
129.052
129.027
129.003
128.977
128.954
128.925
128.905
128.884
128.865
128.834
128.811
128.781
134.979
128.891
129.233
129.772
129.757
129.636
129.556
129.497
129.442
129.377
129.301
129.291
129.316
129.336
129.319
129.28
129.244
129.213
129.184
129.155
129.126
129.097
129.067
129.038
129.009
128.979
128.948
128.92
128.885
128.858
128.829
128.808
128.758
128.738
128.69
134.929
129.006
129.513
130.136
130.139
130.01
129.922
129.859
129.803
129.75
129.702
129.669
129.638
129.603
129.568
129.536
129.509
129.484
129.458
129.431
129.4
129.368
129.335
129.3
129.263
129.226
129.187
129.15
129.106
129.07
129.033
128.999
128.948
128.9
128.86
135.035
129.075
129.543
130.161
130.17
130.043
129.956
129.891
129.831
129.764
129.66
129.659
129.677
129.678
129.642
129.587
129.538
129.502
129.471
129.438
129.403
129.366
129.328
129.288
129.246
129.204
129.16
129.114
129.069
129.018
128.972
128.925
128.876
128.817
128.771
135.125
129.143
129.576
130.173
130.176
130.051
129.965
129.9
129.836
129.776
129.579
129.647
129.694
129.716
129.681
129.609
129.546
129.503
129.467
129.43
129.391
129.349
129.306
129.262
129.216
129.169
129.12
129.068
129.018
128.961
128.908
128.856
128.8
128.734
128.676
135.184
129.2
129.606
130.184
130.183
130.059
129.974
129.909
129.846
129.779
129.642
129.658
129.7
129.712
129.678
129.613
129.552
129.506
129.465
129.424
129.38
129.335
129.288
129.24
129.19
129.138
129.084
129.028
128.973
128.909
128.851
128.793
128.731
128.658
128.596
135.24
129.253
129.636
130.202
130.198
130.075
129.991
129.927
129.866
129.801
129.725
129.706
129.715
129.707
129.671
129.617
129.563
129.515
129.47
129.424
129.377
129.328
129.278
129.226
129.172
129.116
129.059
128.998
128.938
128.87
128.806
128.743
128.674
128.594
128.529
135.177
129.32
129.787
130.387
130.39
130.262
130.173
130.106
130.045
129.986
129.932
129.892
129.857
129.815
129.768
129.72
129.673
129.627
129.582
129.534
129.485
129.432
129.377
129.32
129.26
129.197
129.132
129.064
128.996
128.918
128.846
128.774
128.692
128.613
128.513
135.214
129.341
129.797
130.399
130.405
130.278
130.189
130.12
130.055
129.987
129.896
129.88
129.893
129.874
129.823
129.756
129.691
129.637
129.587
129.537
129.484
129.429
129.371
129.311
129.249
129.183
129.115
129.043
128.972
128.89
128.814
128.736
128.654
128.56
128.466
135.241
129.361
129.807
130.403
130.408
130.282
130.192
130.123
130.055
129.989
129.835
129.863
129.928
129.919
129.863
129.778
129.699
129.637
129.584
129.532
129.478
129.42
129.361
129.298
129.233
129.165
129.095
129.02
128.946
128.861
128.782
128.7
128.615
128.52
128.417
135.264
129.38
129.816
130.408
130.411
130.285
130.196
130.127
130.058
129.993
129.826
129.863
129.94
129.931
129.871
129.783
129.7
129.636
129.583
129.529
129.473
129.414
129.353
129.288
129.222
129.152
129.08
129.003
128.926
128.839
128.758
128.673
128.586
128.488
128.381
135.276
129.397
129.828
130.413
130.414
130.287
130.198
130.13
130.064
129.994
129.894
129.882
129.912
129.897
129.845
129.771
129.699
129.637
129.582
129.528
129.47
129.41
129.348
129.282
129.214
129.143
129.069
128.992
128.911
128.829
128.739
128.651
128.561
128.463
128.362
135.287
129.413
129.838
130.417
130.416
130.289
130.201
130.134
130.071
130.007
129.942
129.91
129.895
129.865
129.816
129.756
129.695
129.638
129.583
129.527
129.469
129.409
129.346
129.28
129.211
129.14
129.065
128.987
128.905
128.822
128.731
128.642
128.551
128.453
128.35
79.0894
76.2576
76.1273
76.379
76.4046
76.3499
76.3075
76.2784
76.2474
76.2176
76.1364
76.1136
76.1854
76.2527
76.2743
76.2735
76.2713
76.272
76.2747
76.2787
76.2839
76.2901
76.2972
76.3052
76.3135
76.3245
76.3302
76.3489
76.3557
76.3655
76.3885
76.3972
76.4084
76.4252
76.3894
79.2684
76.5997
76.6798
77.0546
77.1094
77.0477
76.9971
76.9629
76.932
76.8975
76.8434
76.8057
76.8135
76.8385
76.8596
76.8769
76.8931
76.9071
76.9182
76.9269
76.9343
76.9413
76.9481
76.9552
76.9622
76.9717
76.9754
76.9923
76.9975
77.0082
77.0226
77.0495
77.0254
77.0978
77.0129
79.4812
76.7494
76.7438
77.094
77.1536
77.0968
77.0473
77.0121
76.9792
76.932
76.8399
76.7947
76.8494
76.9206
76.9434
76.941
76.9416
76.9474
76.9534
76.9578
76.9611
76.9642
76.9674
76.9708
76.9738
76.9798
76.9788
76.9923
76.9938
76.997
77.0147
77.0139
77.036
77.0056
77.0506
79.6552
76.8852
76.8182
77.1204
77.164
77.109
77.0632
77.0302
76.9974
76.9555
76.8704
76.8199
76.8699
76.9481
76.9774
76.9735
76.9671
76.965
76.9641
76.963
76.962
76.9615
76.9615
76.9619
76.9627
76.9633
76.9668
76.9641
76.9742
76.9731
76.9771
76.981
76.9979
76.9865
77.0113
79.8524
77.0197
76.879
77.158
77.2035
77.1517
77.1065
77.0738
77.0433
77.011
76.9715
76.9466
76.974
77.0141
77.0287
77.0225
77.0118
77.0033
76.9969
76.9919
76.9881
76.9852
76.9832
76.9819
76.9811
76.9802
76.9824
76.9776
76.9872
76.9829
76.9872
76.9848
77.0059
76.9817
76.9879
79.9376
77.2825
77.332
77.7106
77.7772
77.7183
77.6649
77.6263
77.5914
77.5529
77.502
77.4672
77.4656
77.4806
77.4891
77.4907
77.4923
77.495
77.4967
77.4964
77.4947
77.4923
77.4893
77.4862
77.4832
77.4795
77.4787
77.471
77.476
77.4729
77.4654
77.483
77.4541
77.5089
77.4227
80.0784
77.3814
77.3719
77.7372
77.811
77.7572
77.705
77.6667
77.6292
77.5895
77.4937
77.4752
77.5047
77.5531
77.5654
77.5489
77.5339
77.5279
77.525
77.5211
77.516
77.5102
77.504
77.4977
77.4912
77.4847
77.4776
77.473
77.4625
77.4612
77.456
77.4405
77.4502
77.4253
77.4397
80.1874
77.4658
77.4184
77.7541
77.818
77.7658
77.7167
77.6802
77.643
77.6073
77.5071
77.4905
77.5205
77.5739
77.5907
77.5734
77.5538
77.542
77.5337
77.5253
77.5162
77.507
77.4977
77.4884
77.4792
77.4699
77.46
77.4528
77.4388
77.4361
77.4254
77.4148
77.4058
77.4124
77.3821
80.3118
77.5534
77.4547
77.7732
77.8395
77.7912
77.7442
77.7085
77.6753
77.6396
77.5927
77.5677
77.5801
77.6066
77.6138
77.6002
77.5819
77.5666
77.5534
77.541
77.5289
77.5171
77.5056
77.4943
77.4831
77.4721
77.4601
77.4512
77.434
77.4308
77.4137
77.4092
77.3779
77.4106
77.3406
80.361
77.7641
77.8044
78.1862
78.2644
78.2101
78.1558
78.1148
78.0782
78.0418
78.0045
77.9735
77.9517
77.9373
77.9283
77.9219
77.9164
77.9106
77.9035
77.8945
77.8837
77.8716
77.8584
77.8445
77.8299
77.8149
77.7987
77.7853
77.7636
77.7545
77.7358
77.7193
77.7019
77.6935
77.6715
80.4409
77.8204
77.8301
78.2059
78.2889
78.2379
78.1846
78.1435
78.1046
78.0645
77.9952
77.98
77.9919
78.003
77.9963
77.9741
77.9516
77.9355
77.9229
77.9103
77.8964
77.8813
77.8654
77.8489
77.8316
77.8138
77.7954
77.7758
77.7585
77.7337
77.7198
77.6954
77.6763
77.6484
77.6392
80.5074
77.867
77.8528
78.2145
78.2937
78.2438
78.192
78.1523
78.1104
78.0809
77.9575
77.9823
78.0241
78.0466
78.0372
78.0022
77.9675
77.9441
77.9273
77.9115
77.8947
77.877
77.8586
77.8397
77.8202
77.8
77.7793
77.7573
77.7377
77.7103
77.6941
77.6679
77.6451
77.6159
77.6062
80.5706
77.9138
77.8751
78.2224
78.2984
78.2496
78.1995
78.1607
78.1222
78.0864
78.0038
77.9986
78.0277
78.0483
78.042
78.0118
77.9784
77.9527
77.9325
77.9136
77.8941
77.8739
77.8533
77.8322
77.8105
77.7883
77.7655
77.7413
77.7197
77.6895
77.6713
77.6427
77.6175
77.5854
77.5769
80.6347
77.9604
77.8989
78.2365
78.3114
78.2636
78.2148
78.177
78.1423
78.1066
78.0636
78.0447
78.0496
78.0553
78.0464
78.0222
77.9934
77.9674
77.9445
77.9225
77.9005
77.8782
77.8555
77.8326
77.8092
77.7852
77.7607
77.7346
77.7114
77.6792
77.6586
77.6301
77.5982
77.5701
77.5524
80.6524
78.0915
78.1095
78.4772
78.5569
78.5056
78.4524
78.4112
78.3744
78.3387
78.3044
78.2779
78.2579
78.2381
78.2173
78.1962
78.1756
78.1556
78.1355
78.1146
78.0925
78.0691
78.0446
78.0191
77.9925
77.965
77.9366
77.9062
77.8786
77.8415
77.8159
77.784
77.7423
77.7208
77.6762
80.6803
78.1107
78.1188
78.4867
78.5694
78.5193
78.466
78.4242
78.3852
78.3459
78.2905
78.276
78.2893
78.2887
78.2677
78.234
78.1994
78.1703
78.1456
78.1222
78.0982
78.0731
78.047
78.02
77.992
77.963
77.9331
77.9011
77.872
77.8326
77.8066
77.7695
77.7328
77.6956
77.669
80.7014
78.1246
78.1259
78.4899
78.5715
78.5218
78.4691
78.4277
78.3862
78.3515
78.2591
78.2695
78.3262
78.3368
78.3084
78.2599
78.2124
78.176
78.148
78.1227
78.0971
78.0707
78.0434
78.0152
77.986
77.9558
77.9248
77.8916
77.8614
77.8206
77.7934
77.7555
77.7165
77.6808
77.6495
80.7233
78.1399
78.1327
78.4928
78.5737
78.5244
78.4719
78.431
78.3894
78.3571
78.2582
78.2731
78.3387
78.3509
78.3203
78.2685
78.2179
78.1793
78.1498
78.1233
78.0967
78.0692
78.0409
78.0118
77.9817
77.9506
77.9186
77.8845
77.8535
77.8115
77.7835
77.7446
77.7043
77.668
77.6352
80.7416
78.154
78.1411
78.4969
78.5761
78.5266
78.4747
78.4342
78.396
78.3581
78.3003
78.2892
78.3148
78.32
78.2977
78.2583
78.2166
78.1814
78.152
78.1247
78.0972
78.0689
78.0399
78.0101
77.9793
77.9475
77.9147
77.8811
77.8454
77.8118
77.7705
77.7376
77.6995
77.655
77.6188
80.7597
78.1677
78.1485
78.5
78.5776
78.5283
78.4771
78.4376
78.4021
78.3673
78.3317
78.3128
78.3082
78.2984
78.2765
78.2459
78.2132
78.1824
78.1539
78.1262
78.0982
78.0696
78.0402
78.0099
77.9788
77.9466
77.9134
77.8794
77.8434
77.8094
77.7676
77.7344
77.6959
77.6512
77.6145
52.5964
51.3031
51.1894
51.3205
51.3531
51.3318
51.3108
51.2947
51.2824
51.2637
51.223
51.231
51.2852
51.3199
51.3209
51.3103
51.3026
51.2993
51.2984
51.2988
51.3001
51.3019
51.3043
51.3069
51.3098
51.3134
51.3143
51.3221
51.3224
51.3228
51.3343
51.336
51.3263
51.3648
51.2654
52.7478
51.5789
51.6039
51.8162
51.8709
51.8469
51.8206
51.8015
51.7863
51.766
51.7344
51.7209
51.7332
51.7477
51.756
51.7624
51.7697
51.7769
51.7829
51.7875
51.7913
51.7947
51.798
51.8009
51.8042
51.8079
51.8086
51.8169
51.816
51.8205
51.822
51.8484
51.8027
51.8838
51.7693
52.8991
51.686
51.6524
51.846
51.904
51.8843
51.86
51.8402
51.8266
51.8004
51.7442
51.7399
51.7957
51.8375
51.8383
51.8247
51.8175
51.8176
51.8199
51.8219
51.8235
51.8248
51.8261
51.8273
51.8285
51.8305
51.8288
51.8354
51.8336
51.8308
51.8434
51.8338
51.8527
51.8183
51.8396
53.0273
51.7748
51.7009
51.8641
51.9102
51.8907
51.8688
51.8518
51.8375
51.8185
51.7667
51.757
51.8132
51.862
51.8669
51.8513
51.8389
51.8336
51.8314
51.83
51.8291
51.8286
51.8284
51.8284
51.8285
51.8288
51.8299
51.8276
51.8331
51.8295
51.8314
51.8291
51.8418
51.8304
51.8364
53.1798
51.8783
51.7493
51.893
51.9396
51.923
51.9019
51.886
51.8724
51.8582
51.8375
51.8359
51.8696
51.8987
51.9018
51.89
51.8776
51.8691
51.8639
51.8604
51.8581
51.8567
51.8559
51.8555
51.8553
51.8554
51.8566
51.8538
51.8603
51.8549
51.859
51.853
51.8669
51.8633
51.8216
53.2624
52.092
52.0947
52.3087
52.3727
52.3528
52.3264
52.3065
52.289
52.2703
52.2391
52.2255
52.2387
52.2536
52.2568
52.254
52.2527
52.2539
52.2556
52.2567
52.2572
52.2572
52.257
52.2568
52.2563
52.2559
52.2563
52.2532
52.2572
52.2568
52.2475
52.27
52.2338
52.2983
52.2063
53.3642
52.1668
52.1282
52.3303
52.3985
52.3827
52.3578
52.3389
52.319
52.3058
52.2438
52.2395
52.291
52.3342
52.3349
52.3132
52.2956
52.288
52.2856
52.2843
52.2827
52.281
52.2792
52.2773
52.2754
52.2734
52.2713
52.27
52.2659
52.2659
52.2662
52.2523
52.2658
52.2487
52.2506
53.4472
52.2235
52.1593
52.3424
52.4031
52.3875
52.3646
52.3478
52.3279
52.3195
52.2567
52.2502
52.3045
52.3543
52.3587
52.3358
52.3142
52.3023
52.2963
52.292
52.2881
52.2846
52.2813
52.2781
52.2751
52.2721
52.2691
52.2671
52.2615
52.2628
52.2582
52.2544
52.2473
52.2655
52.2352
53.5471
52.2931
52.1902
52.3584
52.4198
52.4072
52.386
52.3695
52.3541
52.3405
52.315
52.3072
52.335
52.3649
52.3697
52.3553
52.3383
52.3259
52.3174
52.3109
52.3054
52.3006
52.2965
52.2927
52.2893
52.2858
52.2825
52.2805
52.2736
52.277
52.2664
52.2745
52.2436
52.2934
52.2266
53.606
52.4653
52.4613
52.6772
52.7495
52.734
52.7083
52.6881
52.6702
52.6527
52.6331
52.6191
52.614
52.6119
52.6098
52.6079
52.6066
52.6056
52.6044
52.6025
52.5998
52.5965
52.5927
52.5886
52.5845
52.5799
52.5753
52.5719
52.5639
52.5643
52.5571
52.5521
52.5456
52.553
52.5337
53.6651
52.5092
52.4833
52.6935
52.7687
52.7558
52.731
52.7112
52.6915
52.6755
52.6349
52.6266
52.6548
52.6803
52.6804
52.6629
52.6449
52.6335
52.6269
52.622
52.6171
52.6121
52.6068
52.6015
52.5961
52.5905
52.5847
52.5787
52.5741
52.5644
52.5638
52.5526
52.5489
52.5378
52.5373
53.714
52.5407
52.4985
52.6991
52.7715
52.7591
52.7352
52.7176
52.6939
52.6904
52.6175
52.621
52.6806
52.7253
52.7243
52.6944
52.6642
52.6453
52.6347
52.6273
52.6206
52.614
52.6076
52.6012
52.5947
52.5884
52.5817
52.575
52.5697
52.5595
52.5582
52.5474
52.5427
52.5307
52.5354
53.7669
52.5756
52.5144
52.7044
52.7741
52.7623
52.7397
52.7224
52.7031
52.6923
52.6464
52.6395
52.6819
52.7217
52.7255
52.7019
52.6742
52.6544
52.6417
52.6324
52.6241
52.6162
52.6086
52.6013
52.594
52.5869
52.5796
52.5721
52.5663
52.5553
52.5537
52.5425
52.5374
52.5239
52.5326
53.822
52.6124
52.5327
52.7152
52.7841
52.7731
52.7516
52.7347
52.7192
52.7054
52.6848
52.6779
52.6963
52.7174
52.7198
52.7046
52.6842
52.6669
52.6538
52.6431
52.6336
52.6247
52.6162
52.6082
52.6003
52.5927
52.5849
52.5771
52.5708
52.5598
52.5568
52.5486
52.5373
52.5319
52.531
53.852
52.7191
52.698
52.9056
52.9799
52.9672
52.9431
52.9238
52.9071
52.8914
52.8758
52.8663
52.8634
52.8604
52.8537
52.8447
52.8352
52.8265
52.8183
52.8104
52.8025
52.7943
52.7859
52.7774
52.7687
52.7601
52.751
52.7418
52.7341
52.7214
52.7162
52.7087
52.6898
52.6952
52.6728
53.8728
52.7351
52.7066
52.9134
52.9896
52.9781
52.9541
52.9347
52.9164
52.9003
52.8717
52.8645
52.8884
52.9092
52.9068
52.8869
52.8636
52.8451
52.8319
52.8213
52.8117
52.8023
52.793
52.7837
52.7743
52.765
52.7554
52.7455
52.7375
52.7235
52.7197
52.7072
52.6967
52.6857
52.6849
53.8886
52.7446
52.7114
52.9156
52.9909
52.9795
52.9559
52.9373
52.9165
52.906
52.8565
52.8546
52.9104
52.9513
52.9484
52.9163
52.8806
52.8543
52.8371
52.8246
52.8137
52.8034
52.7933
52.7835
52.7736
52.7638
52.7538
52.7436
52.7353
52.721
52.7168
52.7048
52.6928
52.6842
52.6809
53.9063
52.756
52.7161
52.9172
52.992
52.981
52.9575
52.9394
52.9184
52.91
52.8575
52.8562
52.9177
52.9624
52.9597
52.9253
52.887
52.8587
52.8402
52.8268
52.8152
52.8043
52.7937
52.7834
52.7731
52.763
52.7526
52.7421
52.7336
52.719
52.7146
52.7027
52.6902
52.6817
52.6782
53.9231
52.7665
52.7215
52.9198
52.9935
52.9823
52.9594
52.9411
52.9236
52.9094
52.8806
52.8744
52.9062
52.9348
52.9345
52.9113
52.8824
52.8588
52.8416
52.8282
52.8163
52.8051
52.7942
52.7836
52.7731
52.7626
52.7522
52.7417
52.731
52.7218
52.7087
52.7015
52.6921
52.6776
52.6706
53.9399
52.777
52.7266
52.9218
52.9945
52.9834
52.9609
52.9432
52.9279
52.914
52.8989
52.8937
52.9032
52.9119
52.9077
52.8924
52.8733
52.856
52.8413
52.8286
52.8169
52.8057
52.7948
52.7841
52.7735
52.7628
52.7523
52.7416
52.7308
52.7215
52.7083
52.7011
52.6916
52.677
52.6701
37.5655
36.9878
36.9467
37.0128
37.0328
37.0247
37.0157
37.0071
37.0067
36.992
36.9792
37.0104
37.0539
37.0665
37.0532
37.0357
37.0238
37.0173
37.0137
37.0115
37.0101
37.0092
37.0088
37.0082
37.0084
37.0076
37.0072
37.0083
37.0063
37.0043
37.0071
37.0092
36.984
37.0375
36.9261
37.6844
37.1968
37.2514
37.3738
37.4111
37.4026
37.3904
37.3805
37.3757
37.3639
37.3496
37.3553
37.3704
37.3757
37.373
37.3703
37.3704
37.3721
37.3739
37.3751
37.3761
37.3768
37.3774
37.3776
37.3786
37.3784
37.3783
37.3809
37.3772
37.3816
37.3716
37.4022
37.3402
37.4281
37.3114
37.7967
37.2772
37.291
37.3989
37.4376
37.4323
37.4222
37.4115
37.4101
37.3947
37.3633
37.3896
37.4453
37.4665
37.451
37.4285
37.4152
37.4102
37.4088
37.4082
37.4077
37.4071
37.4067
37.4059
37.4059
37.4046
37.4035
37.4046
37.4021
37.3977
37.406
37.3917
37.4062
37.3767
37.3855
37.8949
37.3385
37.3241
37.412
37.4418
37.4359
37.4271
37.4192
37.4161
37.4086
37.3784
37.3999
37.4592
37.4876
37.475
37.4502
37.4327
37.4237
37.4191
37.4162
37.4141
37.4125
37.4113
37.4104
37.4092
37.4087
37.4074
37.4058
37.4071
37.403
37.404
37.3995
37.4056
37.3969
37.3961
38.0136
37.4197
37.3649
37.4367
37.4657
37.4617
37.4535
37.447
37.443
37.4384
37.4289
37.4449
37.4823
37.5024
37.4963
37.4794
37.4645
37.4547
37.4485
37.4445
37.4418
37.4399
37.4385
37.4377
37.4366
37.4366
37.4356
37.4342
37.4368
37.4314
37.4352
37.4287
37.432
37.4429
37.3831
38.0798
37.5777
37.6153
37.7382
37.7818
37.777
37.7657
37.7568
37.7497
37.7432
37.7255
37.7294
37.7519
37.7641
37.7602
37.7513
37.7452
37.7429
37.7424
37.7423
37.7421
37.742
37.7417
37.7416
37.741
37.7414
37.7405
37.74
37.7406
37.7426
37.7303