/*--------------------------------*- C++ -*----------------------------------*\
  =========                 |
  \\      /  F ield         | OpenFOAM: The Open Source CFD Toolbox
   \\    /   O peration     | Website:  https://openfoam.org
    \\  /    A nd           | Version:  6
     \\/     M anipulation  |
\*---------------------------------------------------------------------------*/
FoamFile
{
    version     2.0;
    format      ascii;
    class       volVectorField;
    location    "34";
    object      wallShearStress;
}
// * * * * * * * * * * * * * * * * * * * * * * * * * * * * * * * * * * * * * //

dimensions      [0 2 -2 0 0 0 0];

internalField   uniform (0 0 0);

boundaryField
{
    inlet
    {
        type            calculated;
        value           uniform (0 0 0);
    }
    outlet
    {
        type            calculated;
        value           uniform (0 0 0);
    }
    roughCylinder
    {
        type            calculated;
        value           nonuniform List<vector> 
3840
(
(-0.000466379 -0.000674334 -0.000283286)
(-0.00032975 -0.000501187 -1.79395e-05)
(-0.000364839 -0.00057876 4.12071e-05)
(-0.000451799 -0.000683673 0.000110048)
(-0.000544116 -0.000754929 0.000175881)
(-0.000635045 -0.000794539 0.000231545)
(-0.000717568 -0.000807919 0.000274039)
(-0.000789573 -0.000808966 0.000303826)
(-0.000851148 -0.000812005 0.000323492)
(-0.000899817 -0.000820538 0.000332792)
(-0.000940024 -0.000836587 0.000333621)
(-0.000974132 -0.000858673 0.00032855)
(-0.00100568 -0.000885114 0.000319803)
(-0.00103764 -0.000914748 0.000308838)
(-0.00107168 -0.000946913 0.000296273)
(-0.00110838 -0.000981324 0.000282212)
(-0.00114786 -0.0010179 0.000266548)
(-0.00118977 -0.0010563 0.000248974)
(-0.00123358 -0.00109597 0.000228917)
(-0.0012784 -0.001136 0.000205363)
(-0.00132284 -0.00117505 0.000176483)
(-0.00136469 -0.00121106 0.00013968)
(-0.0013996 -0.001241 9.09956e-05)
(-0.0014206 -0.0012595 3.13671e-05)
(-0.000510943 -0.000673531 -0.000286479)
(-0.000355988 -0.000497016 -2.23389e-05)
(-0.000383804 -0.000562052 3.34004e-05)
(-0.000472653 -0.000667015 9.9052e-05)
(-0.000567402 -0.000740476 0.00016314)
(-0.000661265 -0.000783321 0.000217962)
(-0.000747777 -0.000801228 0.000260647)
(-0.000825058 -0.000807255 0.000292064)
(-0.000891908 -0.000812134 0.000313776)
(-0.000943171 -0.000818663 0.000323791)
(-0.000985165 -0.00083344 0.000324911)
(-0.00102124 -0.000854801 0.000320064)
(-0.00105473 -0.000880841 0.000311497)
(-0.00108847 -0.000910071 0.000300706)
(-0.00112431 -0.000941849 0.000288398)
(-0.00116305 -0.00097598 0.00027474)
(-0.00120455 -0.00101217 0.000259563)
(-0.00124855 -0.00105013 0.000242573)
(-0.00129444 -0.00108928 0.000223177)
(-0.00134132 -0.00112876 0.000200364)
(-0.00138774 -0.00116723 0.000172311)
(-0.00143138 -0.00120271 0.000136455)
(-0.00146778 -0.00123221 8.89126e-05)
(-0.00148966 -0.00125041 3.06424e-05)
(-0.000539949 -0.000642097 -0.000270084)
(-0.000376478 -0.000478822 -2.71649e-05)
(-0.000401153 -0.000539197 2.48587e-05)
(-0.000491539 -0.000643579 8.70645e-05)
(-0.000588651 -0.000719229 0.000149307)
(-0.000685499 -0.000765607 0.000203434)
(-0.000776556 -0.000788738 0.00024678)
(-0.000859167 -0.000799805 0.000279788)
(-0.000930571 -0.000806862 0.000302906)
(-0.000985212 -0.00081159 0.000313626)
(-0.00102944 -0.000825181 0.000315309)
(-0.00106753 -0.000845517 0.000310721)
(-0.0011028 -0.000870734 0.000302362)
(-0.00113849 -0.000899423 0.000291854)
(-0.00117631 -0.000930712 0.000279912)
(-0.00121685 -0.000964155 0.000266669)
(-0.0012603 -0.000999669 0.000252035)
(-0.00130628 -0.00103688 0.000235681)
(-0.00135419 -0.00107526 0.00021701)
(-0.00140303 -0.00111392 0.000194999)
(-0.00145132 -0.00115156 0.000167836)
(-0.00149666 -0.00118624 0.000132995)
(-0.00153445 -0.00121509 8.66796e-05)
(-0.00155715 -0.00123286 2.9867e-05)
(-0.000586747 -0.00062794 -0.000255676)
(-0.000400336 -0.000462074 -3.28481e-05)
(-0.000414702 -0.000511206 1.59723e-05)
(-0.000505803 -0.000614085 7.43678e-05)
(-0.000605192 -0.000691984 0.000134526)
(-0.000705668 -0.000742853 0.000188056)
(-0.000801324 -0.000771397 0.000232141)
(-0.000888796 -0.000786988 0.000266555)
(-0.000964258 -0.000795866 0.000290643)
(-0.00102422 -0.000801051 0.000302747)
(-0.0010705 -0.000812562 0.000304925)
(-0.0011107 -0.000831627 0.000300683)
(-0.00114812 -0.000856042 0.000292709)
(-0.00118564 -0.000883891 0.000282531)
(-0.00122519 -0.000914327 0.000270975)
(-0.00126775 -0.000947108 0.000258276)
(-0.00131313 -0.000981791 0.000244253)
(-0.00136105 -0.00101811 0.000228594)
(-0.00141079 -0.00105548 0.000210685)
(-0.00146144 -0.00109308 0.000189509)
(-0.00151143 -0.00112966 0.000163264)
(-0.00155829 -0.00116335 0.000129464)
(-0.00159734 -0.00119137 8.44034e-05)
(-0.00162077 -0.00120861 2.90776e-05)
(-0.000592156 -0.000565156 -0.000225564)
(-0.000412024 -0.000433934 -3.69813e-05)
(-0.000424008 -0.000478433 6.99007e-06)
(-0.000514719 -0.000579367 6.11684e-05)
(-0.000616401 -0.000659576 0.000118984)
(-0.000720016 -0.000714404 0.000171571)
(-0.000820261 -0.000748347 0.000216263)
(-0.000912732 -0.000768468 0.000252039)
(-0.000993187 -0.000779915 0.000277338)
(-0.00105757 -0.000785677 0.000290617)
(-0.0011076 -0.000795285 0.000293681)
(-0.00115016 -0.000812998 0.000290025)
(-0.00118952 -0.000836046 0.000282458)
(-0.00122907 -0.000862957 0.000272764)
(-0.00127069 -0.000892597 0.000261759)
(-0.00131486 -0.000924252 0.000249601)
(-0.00136199 -0.00095785 0.000236235)
(-0.0014116 -0.000992974 0.000221309)
(-0.00146309 -0.00102913 0.000204214)
(-0.00151537 -0.00106546 0.00018391)
(-0.00156688 -0.00110077 0.000158614)
(-0.00161511 -0.00113324 0.000125878)
(-0.00165528 -0.00116027 8.20957e-05)
(-0.00167934 -0.00117688 2.82789e-05)
(-0.000526581 -0.000450821 -0.000168137)
(-0.000425347 -0.000402562 -4.21076e-05)
(-0.000427904 -0.000442362 -2.33392e-06)
(-0.000517474 -0.00054012 4.76356e-05)
(-0.00062086 -0.000622075 0.000102629)
(-0.000728391 -0.000681624 0.000154146)
(-0.000833266 -0.000720728 0.000199215)
(-0.000930398 -0.000744772 0.000236103)
(-0.00101486 -0.00075791 0.000262397)
(-0.00108503 -0.000765648 0.000277165)
(-0.00113996 -0.000774244 0.000281454)
(-0.00118503 -0.000789519 0.000278519)
(-0.00122697 -0.00081136 0.000271652)
(-0.0012685 -0.000836971 0.000262529)
(-0.0013117 -0.000865244 0.000252083)
(-0.0013579 -0.000895876 0.000240646)
(-0.00140679 -0.000928246 0.000228024)
(-0.00145812 -0.000962074 0.000213908)
(-0.00151111 -0.000996759 0.000197657)
(-0.00156484 -0.00103158 0.000178254)
(-0.00161767 -0.00106538 0.000153924)
(-0.00166709 -0.00109645 0.000122266)
(-0.00170823 -0.0011223 7.97744e-05)
(-0.0017328 -0.00113817 2.74768e-05)
(-0.000622047 -0.000473976 -0.000164048)
(-0.000434676 -0.000370349 -4.73265e-05)
(-0.000426163 -0.000403309 -1.09839e-05)
(-0.000513051 -0.000497189 3.38619e-05)
(-0.000618405 -0.000581151 8.56212e-05)
(-0.000728658 -0.000644169 0.000135465)
(-0.000837923 -0.00068795 0.000180527)
(-0.00094005 -0.000715886 0.000218376)
(-0.00103065 -0.00073215 0.000246216)
(-0.00110498 -0.000740541 0.000262101)
(-0.0011655 -0.00074939 0.000267873)
(-0.00121518 -0.000762952 0.000266194)
(-0.00125939 -0.000782342 0.000260096)
(-0.00130319 -0.000806435 0.000251756)
(-0.0013487 -0.000833586 0.000242128)
(-0.00139632 -0.000862624 0.000231397)
(-0.00144672 -0.000893481 0.000219572)
(-0.00149941 -0.000925677 0.000206296)
(-0.00155384 -0.000958757 0.000190953)
(-0.00160883 -0.000991897 0.00017249)
(-0.00166281 -0.00102402 0.000149157)
(-0.00171325 -0.00105352 0.000118602)
(-0.00175521 -0.00107807 7.74238e-05)
(-0.00178019 -0.00109314 2.66666e-05)
(-0.00052983 -0.00035776 -0.000115889)
(-0.000431779 -0.000331817 -5.0371e-05)
(-0.00041803 -0.000362132 -1.95695e-05)
(-0.00050071 -0.000451376 2.00273e-05)
(-0.00060627 -0.000535744 6.78062e-05)
(-0.000720355 -0.000603101 0.000115646)
(-0.000834414 -0.000651557 0.000160357)
(-0.000941818 -0.000683218 0.000198942)
(-0.00103632 -0.000700808 0.000227751)
(-0.00111748 -0.000711501 0.000245518)
(-0.00118314 -0.000720432 0.000252797)
(-0.00123752 -0.000732855 0.000252532)
(-0.00128613 -0.000750676 0.000247805)
(-0.00133247 -0.000772771 0.000240468)
(-0.00137944 -0.000797815 0.000231633)
(-0.0014292 -0.000825415 0.000221848)
(-0.00148125 -0.00085465 0.000210935)
(-0.00153546 -0.000885185 0.000198601)
(-0.00159101 -0.000916405 0.000184191)
(-0.00164702 -0.000947659 0.000166693)
(-0.00170191 -0.000977901 0.00014437)
(-0.00175313 -0.00100561 0.000114922)
(-0.00179573 -0.00102868 7.50666e-05)
(-0.00182099 -0.00104288 2.58565e-05)
(-0.000591475 -0.000352427 -0.000104039)
(-0.000426632 -0.000294742 -5.41218e-05)
(-0.000402222 -0.000319152 -2.71169e-05)
(-0.00047881 -0.000402474 6.44219e-06)
(-0.0005856 -0.000488132 4.95978e-05)
(-0.000701385 -0.00055793 9.45143e-05)
(-0.000819574 -0.00061034 0.000138208)
(-0.000932083 -0.000645391 0.000177111)
(-0.00103466 -0.000666946 0.000207646)
(-0.00112035 -0.000678155 0.000226892)
(-0.00119202 -0.00068756 0.000236088)
(-0.00125181 -0.000699439 0.000237606)
(-0.00130411 -0.000715591 0.000234304)
(-0.00135367 -0.000735865 0.000228263)
(-0.0014038 -0.000759461 0.000220682)
(-0.00145494 -0.000784979 0.000211869)
(-0.00150835 -0.000812291 0.000201952)
(-0.00156359 -0.000840815 0.0001906)
(-0.00162023 -0.000870122 0.000177213)
(-0.0016771 -0.000899399 0.000160738)
(-0.00173273 -0.000927685 0.00013947)
(-0.00178466 -0.00095358 0.00011117)
(-0.00182783 -0.000975147 7.26742e-05)
(-0.00185318 -0.000988422 2.50361e-05)
(-0.000511069 -0.000267596 -7.34804e-05)
(-0.000408765 -0.000253764 -5.52896e-05)
(-0.000378663 -0.000275148 -3.4106e-05)
(-0.000448045 -0.000352143 -6.70563e-06)
(-0.000552017 -0.000435845 3.08853e-05)
(-0.000671241 -0.000509433 7.22746e-05)
(-0.000794344 -0.000566219 0.000114407)
(-0.000913433 -0.00060543 0.000153466)
(-0.00101957 -0.000627759 0.000184679)
(-0.00111367 -0.000641615 0.000206228)
(-0.00119144 -0.000651292 0.000217574)
(-0.00125621 -0.00066222 0.000221059)
(-0.00131334 -0.000677212 0.000219609)
(-0.00136627 -0.000695743 0.000215091)
(-0.00141799 -0.000717016 0.000208715)
(-0.00147165 -0.000740982 0.000201223)
(-0.00152671 -0.000766477 0.000192486)
(-0.00158329 -0.000793132 0.000182275)
(-0.00164059 -0.000820308 0.00016996)
(-0.00169796 -0.000847469 0.000154559)
(-0.00175397 -0.000873703 0.000134389)
(-0.00180624 -0.000897707 0.000107277)
(-0.00184967 -0.000917705 7.01924e-05)
(-0.00187493 -0.000929981 2.41864e-05)
(-0.000464871 -0.000213994 -4.94467e-05)
(-0.000391241 -0.000214693 -5.76471e-05)
(-0.00034849 -0.000232077 -4.0055e-05)
(-0.000405454 -0.000299089 -1.87363e-05)
(-0.000509571 -0.000383036 1.2488e-05)
(-0.000628484 -0.000457537 4.91134e-05)
(-0.000755247 -0.000517807 8.86818e-05)
(-0.000879063 -0.000559983 0.000127005)
(-0.000996091 -0.000587555 0.000159889)
(-0.00109535 -0.000601795 0.000183155)
(-0.00118003 -0.00061186 0.000196999)
(-0.00125139 -0.000622422 0.00020301)
(-0.00131261 -0.000635643 0.000203555)
(-0.00136896 -0.000652287 0.000200809)
(-0.00142444 -0.000672165 0.000196153)
(-0.00147915 -0.000693715 0.000189928)
(-0.00153517 -0.000716969 0.000182425)
(-0.00159225 -0.000741302 0.000173386)
(-0.00165016 -0.000766337 0.000162258)
(-0.00170779 -0.000791302 0.000148011)
(-0.00176386 -0.000815397 0.000129007)
(-0.00181619 -0.000837458 0.000103154)
(-0.00185964 -0.000855846 6.75651e-05)
(-0.00188465 -0.00086707 2.32884e-05)
(-0.000391077 -0.000155653 -2.99368e-05)
(-0.000351474 -0.000171802 -5.70072e-05)
(-0.00030816 -0.000188338 -4.38135e-05)
(-0.000354913 -0.000247147 -2.89813e-05)
(-0.000450317 -0.000324709 -5.11184e-06)
(-0.000572209 -0.000402462 2.5647e-05)
(-0.000703648 -0.000466969 6.16572e-05)
(-0.000836034 -0.000514551 9.90377e-05)
(-0.000955654 -0.000542311 0.000131995)
(-0.00106531 -0.000559755 0.00015777)
(-0.00115755 -0.000570241 0.000174384)
(-0.00123447 -0.000579602 0.000183032)
(-0.0013016 -0.000591664 0.00018616)
(-0.00136202 -0.000606479 0.000185538)
(-0.00141872 -0.000623595 0.000182462)
(-0.00147631 -0.000643454 0.000177932)
(-0.00153399 -0.000664706 0.000171893)
(-0.00159222 -0.000686998 0.000164216)
(-0.00165023 -0.000709669 0.000154319)
(-0.00170772 -0.000732319 0.000141269)
(-0.0017635 -0.000754194 0.000123466)
(-0.00181551 -0.000774229 9.89032e-05)
(-0.00185866 -0.000790929 6.48551e-05)
(-0.00188325 -0.000801073 2.2364e-05)
(-0.000348921 -0.000118244 -1.97222e-05)
(-0.000310483 -0.000137056 -5.52731e-05)
(-0.000262216 -0.000147249 -4.55994e-05)
(-0.000289471 -0.000191846 -3.586e-05)
(-0.000385107 -0.000268891 -2.08013e-05)
(-0.0005025 -0.000344606 2.65191e-06)
(-0.000636734 -0.000412357 3.36942e-05)
(-0.000772357 -0.000462479 6.85574e-05)
(-0.00090668 -0.000497696 0.000102535)
(-0.00102204 -0.000515702 0.000130012)
(-0.00112213 -0.000526577 0.00014957)
(-0.0012073 -0.000535728 0.000161514)
(-0.00127897 -0.000545708 0.000167323)
(-0.00134319 -0.00055835 0.000169065)
(-0.00140476 -0.000574092 0.000168266)
(-0.00146304 -0.000591175 0.000165332)
(-0.00152126 -0.000609886 0.00016078)
(-0.0015794 -0.000629583 0.000154469)
(-0.00163757 -0.000649962 0.000145929)
(-0.00169469 -0.000670284 0.000134158)
(-0.00174986 -0.00068991 0.000117622)
(-0.00180128 -0.000707911 9.44182e-05)
(-0.00184392 -0.000722925 6.19986e-05)
(-0.00186791 -0.000731968 2.13917e-05)
(-0.000295033 -8.48259e-05 -1.04784e-05)
(-0.000262346 -0.000104704 -5.20834e-05)
(-0.000211938 -0.000109961 -4.55046e-05)
(-0.000222534 -0.000141549 -3.9645e-05)
(-0.000296718 -0.000203514 -3.2265e-05)
(-0.0004184 -0.000283186 -1.81156e-05)
(-0.00055595 -0.000354878 6.07194e-06)
(-0.000702774 -0.000412769 3.77139e-05)
(-0.000837166 -0.000447655 7.05541e-05)
(-0.000965198 -0.000470251 0.000100214)
(-0.0010745 -0.000482191 0.000122888)
(-0.00116548 -0.000489926 0.000138015)
(-0.00124446 -0.000498814 0.000147141)
(-0.00131368 -0.000509554 0.000151658)
(-0.00137585 -0.000522024 0.000152848)
(-0.00143761 -0.000537341 0.000152033)
(-0.00149769 -0.000553968 0.000149262)
(-0.00155693 -0.000571555 0.000144553)
(-0.0016146 -0.000589448 0.000137396)
(-0.00167093 -0.000607378 0.000126937)
(-0.00172509 -0.000624725 0.000111688)
(-0.00177551 -0.00064065 8.98551e-05)
(-0.00181729 -0.000653936 5.90906e-05)
(-0.0018405 -0.000661896 2.04044e-05)
(-0.000194006 -4.7451e-05 1.19537e-06)
(-0.000198622 -7.11705e-05 -4.7603e-05)
(-0.000155914 -7.63555e-05 -4.20388e-05)
(-0.000138502 -8.55198e-05 -3.41732e-05)
(-0.000217139 -0.000147572 -3.9535e-05)
(-0.000321803 -0.000218036 -3.49659e-05)
(-0.000460687 -0.000293515 -1.94097e-05)
(-0.000607142 -0.000353349 6.65207e-06)
(-0.000761397 -0.0003998 3.83445e-05)
(-0.000894589 -0.000423725 6.89115e-05)
(-0.00101215 -0.000436713 9.44346e-05)
(-0.00111333 -0.000445001 0.000113316)
(-0.00119695 -0.000451647 0.000125647)
(-0.00127009 -0.00045997 0.000133048)
(-0.00133872 -0.000471243 0.000137091)
(-0.00140066 -0.000483468 0.000138202)
(-0.0014607 -0.0004973 0.000137168)
(-0.00151912 -0.000512115 0.000134011)
(-0.0015765 -0.000527692 0.000128379)
(-0.00163181 -0.000543297 0.000119316)
(-0.00168465 -0.000558424 0.000105419)
(-0.00173382 -0.000572336 8.50312e-05)
(-0.00177455 -0.000583954 5.60197e-05)
(-0.00179679 -0.000590844 1.9364e-05)
(-7.90699e-05 -1.57604e-05 7.93513e-06)
(-0.000117041 -3.81453e-05 -3.66295e-05)
(-9.90279e-05 -4.61592e-05 -3.75155e-05)
(-8.99747e-05 -5.61634e-05 -3.31954e-05)
(-7.47319e-05 -5.22959e-05 -2.14421e-05)
(-0.000211959 -0.000146726 -4.15037e-05)
(-0.000350632 -0.000225793 -3.91896e-05)
(-0.000512984 -0.000298799 -2.21072e-05)
(-0.000661098 -0.000344104 6.1601e-06)
(-0.000809625 -0.00037582 3.71178e-05)
(-0.000937642 -0.000391658 6.50807e-05)
(-0.00104384 -0.000398924 8.70618e-05)
(-0.00113617 -0.000405136 0.000103059)
(-0.00121539 -0.000411845 0.000113712)
(-0.00128334 -0.000419408 0.000120049)
(-0.0013496 -0.000429964 0.000123677)
(-0.00141192 -0.000441798 0.00012474)
(-0.0014716 -0.000454604 0.000123428)
(-0.00152783 -0.00046771 0.000119325)
(-0.00158162 -0.000480996 0.000111673)
(-0.0016327 -0.000493949 9.91298e-05)
(-0.00168015 -0.000505875 8.01783e-05)
(-0.00171944 -0.000515835 5.29265e-05)
(-0.00174056 -0.000521719 1.83185e-05)
(-7.43677e-06 4.00974e-07 8.80458e-06)
(-2.58496e-05 -7.36346e-06 -1.2504e-05)
(-3.24682e-05 -1.53436e-05 -2.11223e-05)
(-4.99009e-05 -3.53537e-05 -3.09099e-05)
(-4.98849e-05 -3.95062e-05 -2.28615e-05)
(-0.000100728 -7.39328e-05 -3.16542e-05)
(-0.000236583 -0.00015416 -4.85908e-05)
(-0.000385992 -0.000226996 -4.44408e-05)
(-0.000562292 -0.000292639 -2.30276e-05)
(-0.000712107 -0.00032676 6.29053e-06)
(-0.000847484 -0.000345593 3.55274e-05)
(-0.000965753 -0.000355481 6.05919e-05)
(-0.00106187 -0.000359974 7.96827e-05)
(-0.00114442 -0.00036442 9.33589e-05)
(-0.001221 -0.00037142 0.000102954)
(-0.0012865 -0.000378749 0.000108749)
(-0.00134786 -0.000387676 0.000111738)
(-0.00140568 -0.000397664 0.000112124)
(-0.00146117 -0.000408614 0.000109701)
(-0.00151327 -0.000419762 0.000103546)
(-0.00156225 -0.000430677 9.24243e-05)
(-0.00160776 -0.000440775 7.49949e-05)
(-0.00164547 -0.000449205 4.96239e-05)
(-0.00166525 -0.000454147 1.72035e-05)
(6.53175e-06 6.28338e-06 1.51253e-05)
(4.49626e-06 5.05062e-07 -7.41633e-06)
(-4.2602e-06 -8.07124e-06 -2.05142e-05)
(-1.6936e-05 -2.29974e-05 -2.76724e-05)
(-3.49681e-05 -3.74647e-05 -3.0146e-05)
(-4.41226e-05 -3.66731e-05 -2.32384e-05)
(-0.000132124 -8.96601e-05 -4.48295e-05)
(-0.000276441 -0.000163975 -5.6898e-05)
(-0.000430586 -0.000225591 -4.52327e-05)
(-0.000601437 -0.00027526 -2.12418e-05)
(-0.000747214 -0.000300249 7.37107e-06)
(-0.000867626 -0.000310572 3.39507e-05)
(-0.000973551 -0.00031645 5.5969e-05)
(-0.00106326 -0.000320417 7.27769e-05)
(-0.00113655 -0.000323589 8.46444e-05)
(-0.00120746 -0.000329758 9.31919e-05)
(-0.00127176 -0.000337079 9.85181e-05)
(-0.00133124 -0.000345406 0.000100963)
(-0.00138479 -0.000354093 0.00010018)
(-0.00143455 -0.000363182 9.55072e-05)
(-0.00148098 -0.000372209 8.57834e-05)
(-0.00152403 -0.000380572 6.98416e-05)
(-0.00155969 -0.000387545 4.63331e-05)
(-0.00157801 -0.000391639 1.60951e-05)
(1.28433e-05 1.12646e-05 2.16271e-05)
(2.39544e-05 7.35773e-06 -7.74035e-06)
(2.19045e-05 -4.18761e-07 -1.46718e-05)
(1.23971e-05 -9.31159e-06 -1.57151e-05)
(-9.17214e-07 -2.47214e-05 -2.46052e-05)
(-2.90999e-05 -3.36624e-05 -2.93438e-05)
(-6.93433e-05 -5.28885e-05 -3.8291e-05)
(-8.48945e-05 -5.10674e-05 -2.69098e-05)
(-0.000322114 -0.000168376 -5.91965e-05)
(-0.000480241 -0.000220554 -4.32026e-05)
(-0.000631785 -0.000252778 -1.76501e-05)
(-0.00076603 -0.00026957 8.97039e-06)
(-0.000873082 -0.000275214 3.26459e-05)
(-0.000964008 -0.000277822 5.17739e-05)
(-0.0010489 -0.000281951 6.68043e-05)
(-0.00111715 -0.000285112 7.74924e-05)
(-0.00117891 -0.000289712 8.47734e-05)
(-0.00123492 -0.000295389 8.89504e-05)
(-0.00128725 -0.00030232 8.9948e-05)
(-0.00133459 -0.000309665 8.68343e-05)
(-0.00137807 -0.000317035 7.85758e-05)
(-0.00141848 -0.000323912 6.42303e-05)
(-0.00145203 -0.000329639 4.27473e-05)
(-0.00146864 -0.000332973 1.48861e-05)
(2.30627e-05 1.32075e-05 2.37205e-05)
(3.64273e-05 9.88671e-06 -8.72339e-06)
(3.69393e-05 2.70022e-06 -1.37431e-05)
(4.68384e-05 -9.85737e-06 -2.06285e-05)
(2.08933e-05 -1.46234e-05 -1.25179e-05)
(3.90679e-06 -2.57954e-05 -1.83189e-05)
(-2.02946e-05 -1.96346e-05 -1.68711e-05)
(-5.4655e-05 -3.40172e-05 -2.5638e-05)
(-0.000144188 -7.45042e-05 -4.01757e-05)
(-0.000353781 -0.000162806 -5.54321e-05)
(-0.000510702 -0.00020546 -3.76867e-05)
(-0.000641044 -0.000224844 -1.32913e-05)
(-0.000759131 -0.000235347 1.05863e-05)
(-0.000858244 -0.00023986 3.15096e-05)
(-0.000934749 -0.000240495 4.81567e-05)
(-0.00100981 -0.000243761 6.14164e-05)
(-0.0010753 -0.00024764 7.10393e-05)
(-0.00113378 -0.000252413 7.73793e-05)
(-0.00118317 -0.000257544 8.00464e-05)
(-0.00122724 -0.000263305 7.84274e-05)
(-0.00126737 -0.000269261 7.15749e-05)
(-0.00130454 -0.000274814 5.8749e-05)
(-0.00133542 -0.00027941 3.92306e-05)
(-0.00135028 -0.000282114 1.37024e-05)
(3.28135e-05 1.4156e-05 2.5067e-05)
(7.37989e-05 1.63495e-05 -1.37677e-05)
(8.22992e-05 6.25941e-06 -2.34763e-05)
(6.27675e-05 -7.41942e-06 -1.9949e-05)
(6.16525e-05 -2.3848e-05 -1.96693e-05)
(2.7749e-05 -2.43933e-05 -8.07529e-06)
(1.87354e-06 -2.55151e-05 -9.91966e-06)
(-4.3482e-05 -3.04348e-05 -2.77522e-05)
(-0.000107441 -5.67579e-05 -4.30584e-05)
(-0.000205624 -9.51257e-05 -4.86568e-05)
(-0.000375228 -0.000153053 -4.87466e-05)
(-0.000524347 -0.000185618 -3.15354e-05)
(-0.000637079 -0.000197471 -9.11517e-06)
(-0.000733197 -0.000202319 1.21721e-05)
(-0.000825823 -0.000206868 3.0851e-05)
(-0.000894527 -0.000207803 4.57186e-05)
(-0.000954879 -0.000209597 5.69864e-05)
(-0.00100709 -0.000212149 6.483e-05)
(-0.00105459 -0.00021621 6.92308e-05)
(-0.00109544 -0.000220844 6.91436e-05)
(-0.00113171 -0.000225689 6.37527e-05)
(-0.00116554 -0.000230243 5.25939e-05)
(-0.00119381 -0.00023399 3.52715e-05)
(-0.00120665 -0.000236163 1.23636e-05)
(3.97081e-05 1.47016e-05 2.73608e-05)
(9.20517e-05 1.91233e-05 -1.26141e-05)
(0.000112089 9.81155e-06 -2.7223e-05)
(0.000112319 -6.99476e-06 -3.21481e-05)
(8.39285e-05 -2.24657e-05 -2.42147e-05)
(4.8611e-05 -2.69459e-05 -1.14519e-05)
(2.62107e-05 -3.0253e-05 -2.78301e-06)
(-6.43567e-06 -1.99343e-05 -4.88119e-06)
(-4.03858e-05 -2.29715e-05 -2.01919e-05)
(-8.16273e-05 -3.83823e-05 -2.72991e-05)
(-0.00024879 -0.000101877 -4.95782e-05)
(-0.000376199 -0.000136809 -4.18511e-05)
(-0.000505769 -0.000159718 -2.47843e-05)
(-0.00061035 -0.000169676 -4.92605e-06)
(-0.000684686 -0.000170987 1.38719e-05)
(-0.000762407 -0.000174434 3.02828e-05)
(-0.00082735 -0.000177116 4.33784e-05)
(-0.000883674 -0.00018013 5.32337e-05)
(-0.000927145 -0.00018316 5.91606e-05)
(-0.000963661 -0.000186859 6.04592e-05)
(-0.000995804 -0.000190898 5.64149e-05)
(-0.00102566 -0.00019464 4.67755e-05)
(-0.00105068 -0.000197668 3.15061e-05)
(-0.00106157 -0.000199446 1.10911e-05)
(4.49594e-05 1.48275e-05 2.96759e-05)
(0.000102398 2.14907e-05 -1.0452e-05)
(0.000128832 1.49776e-05 -2.81866e-05)
(0.000133712 -1.39958e-06 -3.61881e-05)
(0.000121179 -2.10043e-05 -3.49909e-05)
(8.15404e-05 -3.21224e-05 -2.19335e-05)
(2.96413e-05 -2.15976e-05 -4.75107e-06)
(1.17181e-05 -1.84478e-05 1.98335e-06)
(-1.75461e-05 -2.2839e-05 -8.12074e-06)
(-4.74116e-05 -2.39115e-05 -2.09516e-05)
(-7.40695e-05 -3.11751e-05 -2.13624e-05)
(-0.000262636 -9.70827e-05 -4.61625e-05)
(-0.000368661 -0.00012089 -3.52728e-05)
(-0.000466429 -0.000133877 -1.83428e-05)
(-0.00056614 -0.000144219 -6.27512e-07)
(-0.000630287 -0.000145983 1.61319e-05)
(-0.000685501 -0.000147455 2.99651e-05)
(-0.000730763 -0.000148803 4.05962e-05)
(-0.000771199 -0.000151677 4.78748e-05)
(-0.000803726 -0.000155018 5.04864e-05)
(-0.000831079 -0.00015854 4.78086e-05)
(-0.000856986 -0.000161816 3.99051e-05)
(-0.000878989 -0.000164447 2.70391e-05)
(-0.000887631 -0.000165895 9.56594e-06)
(4.83709e-05 1.49266e-05 3.27257e-05)
(0.000101259 2.18985e-05 -7.39922e-06)
(0.000130075 1.90457e-05 -2.65829e-05)
(0.000142788 6.00569e-06 -3.77615e-05)
(0.00013688 -1.33804e-05 -4.0026e-05)
(0.000116896 -3.19048e-05 -3.41089e-05)
(7.2491e-05 -3.71842e-05 -1.77371e-05)
(2.50379e-05 -2.28493e-05 -2.22764e-06)
(1.05879e-05 -2.82259e-05 3.94475e-06)
(-2.19448e-05 -1.71607e-05 -9.73971e-06)
(-7.5712e-05 -3.58581e-05 -3.08524e-05)
(-7.52219e-05 -2.85498e-05 -1.94848e-05)
(-0.000241843 -8.14687e-05 -3.81319e-05)
(-0.000341866 -0.000102931 -2.83501e-05)
(-0.000402987 -0.000108374 -1.19864e-05)
(-0.000481803 -0.000116613 3.62178e-06)
(-0.000544995 -0.000121853 1.78291e-05)
(-0.000597087 -0.000125598 2.97805e-05)
(-0.000632465 -0.000128367 3.81317e-05)
(-0.000659471 -0.000131366 4.18034e-05)
(-0.000682214 -0.000134683 4.02998e-05)
(-0.000703592 -0.000137601 3.38523e-05)
(-0.000721857 -0.000139889 2.30668e-05)
(-0.000728568 -0.000141092 8.20952e-06)
(4.96181e-05 1.44088e-05 3.54792e-05)
(9.61249e-05 2.12634e-05 -4.29891e-06)
(0.000124707 2.08713e-05 -2.33858e-05)
(0.000137765 1.15661e-05 -3.51604e-05)
(0.000139666 -4.63907e-06 -4.06325e-05)
(0.000127287 -2.32375e-05 -3.8198e-05)
(0.000106558 -3.89181e-05 -2.97991e-05)
(6.03154e-05 -3.71473e-05 -1.26827e-05)
(4.59288e-05 -4.73302e-05 -1.33482e-06)
(5.35915e-06 -2.65392e-05 -1.08288e-07)
(-3.33256e-05 -2.22619e-05 -2.01156e-05)
(-7.87071e-05 -3.5964e-05 -3.13603e-05)
(-7.16391e-05 -2.60328e-05 -1.74611e-05)
(-0.000189849 -6.03508e-05 -2.69476e-05)
(-0.000298694 -8.49452e-05 -2.08546e-05)
(-0.000350143 -9.06347e-05 -6.43909e-06)
(-0.000390118 -9.42927e-05 6.76269e-06)
(-0.000425172 -9.66349e-05 1.79803e-05)
(-0.000456591 -0.000100338 2.65998e-05)
(-0.000479267 -0.000103496 3.09637e-05)
(-0.000496323 -0.00010677 3.05664e-05)
(-0.000513117 -0.000109385 2.59294e-05)
(-0.000528247 -0.000111659 1.78343e-05)
(-0.000532828 -0.000112585 6.38942e-06)
(4.9636e-05 1.42236e-05 3.88931e-05)
(8.80952e-05 2.05482e-05 -1.91672e-06)
(0.000115347 2.17038e-05 -2.01586e-05)
(0.000128355 1.47702e-05 -3.14092e-05)
(0.000131643 2.16565e-06 -3.7556e-05)
(0.000127964 -1.42722e-05 -3.85979e-05)
(0.000113525 -3.02359e-05 -3.32401e-05)
(9.64819e-05 -4.27939e-05 -2.53398e-05)
(5.2363e-05 -3.60264e-05 -1.12265e-05)
(2.38954e-05 -2.95959e-05 -3.95573e-06)
(-1.27164e-06 -1.69723e-05 -7.23642e-06)
(-2.04223e-05 -1.28819e-05 -1.39518e-05)
(-7.62995e-05 -3.3703e-05 -3.03061e-05)
(-0.000120014 -4.35978e-05 -2.78946e-05)
(-8.91349e-05 -2.7016e-05 -1.14434e-05)
(-0.000195217 -5.53409e-05 -1.10873e-05)
(-0.000263512 -6.87589e-05 -1.2377e-06)
(-0.000307396 -7.62967e-05 9.40987e-06)
(-0.000329908 -8.0071e-05 1.82076e-05)
(-0.000347692 -8.3603e-05 2.30647e-05)
(-0.000358499 -8.62435e-05 2.34911e-05)
(-0.000372731 -8.88769e-05 2.01425e-05)
(-0.000383758 -9.09155e-05 1.39355e-05)
(-0.00038718 -9.20781e-05 5.01988e-06)
(4.80906e-05 1.51688e-05 4.29129e-05)
(7.87124e-05 2.07518e-05 -8.60549e-07)
(0.000101864 2.21233e-05 -1.73749e-05)
(0.000113206 1.659e-05 -2.67195e-05)
(0.000117859 6.40297e-06 -3.25094e-05)
(0.000117392 -7.01097e-06 -3.48185e-05)
(0.000113556 -2.25669e-05 -3.33786e-05)
(0.000101664 -3.53187e-05 -2.77241e-05)
(8.98964e-05 -4.51421e-05 -2.25396e-05)
(4.43587e-05 -3.27019e-05 -1.10189e-05)
(1.51122e-05 -2.01583e-05 -6.98355e-06)
(-4.9457e-06 -1.30146e-05 -1.28499e-05)
(-3.79179e-05 -2.20908e-05 -2.92299e-05)
(-3.79015e-05 -1.70007e-05 -1.59392e-05)
(-9.72903e-05 -3.72524e-05 -2.3285e-05)
(-6.40738e-05 -2.20255e-05 -7.73587e-06)
(-7.30588e-05 -2.1847e-05 -3.05583e-06)
(-8.56361e-05 -2.43449e-05 9.17221e-07)
(-0.000131443 -3.60185e-05 6.34277e-06)
(-0.000136655 -3.92135e-05 9.27329e-06)
(-0.000153052 -4.26025e-05 1.07866e-05)
(-0.000153886 -4.36518e-05 8.93651e-06)
(-0.000163711 -4.63794e-05 6.4555e-06)
(-0.000160596 -4.67329e-05 2.28157e-06)
(4.42549e-05 1.72079e-05 4.66911e-05)
(6.47753e-05 2.05595e-05 -7.87695e-07)
(8.21675e-05 2.12313e-05 -1.42111e-05)
(9.14736e-05 1.66317e-05 -2.07823e-05)
(9.68325e-05 8.62604e-06 -2.52135e-05)
(9.9945e-05 -2.41537e-06 -2.81247e-05)
(0.000101119 -1.5957e-05 -2.85047e-05)
(0.000102471 -2.977e-05 -2.72403e-05)
(9.43142e-05 -3.83409e-05 -2.39941e-05)
(8.33208e-05 -4.5187e-05 -2.26662e-05)
(3.9278e-05 -3.0907e-05 -1.46002e-05)
(8.56416e-06 -1.32254e-05 -9.56393e-06)
(-7.56197e-06 -1.50554e-05 -2.25445e-05)
(-3.24533e-05 -2.03519e-05 -3.1433e-05)
(-2.8789e-05 -1.47705e-05 -1.45349e-05)
(-5.97507e-05 -2.63737e-05 -1.59464e-05)
(-9.10997e-05 -3.83644e-05 -1.17361e-05)
(-5.19716e-05 -1.97639e-05 -1.63435e-06)
(-0.000113906 -4.27521e-05 3.5111e-06)
(-9.52422e-05 -3.64142e-05 6.45702e-06)
(-0.000124618 -4.89972e-05 9.37684e-06)
(-5.88356e-05 -2.3753e-05 3.78614e-06)
(-5.98987e-05 -2.43825e-05 2.73291e-06)
(-0.000111269 -4.39743e-05 1.91648e-06)
(3.81039e-05 1.9585e-05 4.8935e-05)
(5.15722e-05 2.05529e-05 -1.32175e-06)
(6.05075e-05 1.89433e-05 -1.12375e-05)
(6.55828e-05 1.44095e-05 -1.46152e-05)
(7.04729e-05 8.20596e-06 -1.70788e-05)
(7.59437e-05 -6.84133e-07 -1.93851e-05)
(8.34421e-05 -1.23621e-05 -2.10987e-05)
(9.07422e-05 -2.42216e-05 -2.18552e-05)
(9.67754e-05 -3.45831e-05 -2.30397e-05)
(8.84882e-05 -3.93757e-05 -2.30415e-05)
(7.48098e-05 -4.29373e-05 -2.54099e-05)
(3.42454e-05 -2.88425e-05 -2.04395e-05)
(1.03698e-05 -1.7343e-05 -2.09654e-05)
(-5.40722e-06 -1.59345e-05 -3.1224e-05)
(-1.04556e-05 -9.38478e-06 -1.67484e-05)
(-1.75562e-05 -1.12374e-05 -1.34393e-05)
(-3.77008e-05 -2.32784e-05 -1.4946e-05)
(-5.55426e-05 -3.09622e-05 -9.45965e-06)
(-2.93453e-05 -1.72705e-05 -7.42655e-07)
(-6.38012e-05 -3.50831e-05 3.75859e-06)
(-3.0327e-05 -1.85116e-05 2.48352e-06)
(-5.38328e-05 -3.27995e-05 4.27472e-06)
(-5.67001e-05 -3.40483e-05 3.30185e-06)
(-7.34706e-05 -4.30682e-05 1.60022e-06)
(3.05615e-05 2.15393e-05 4.89473e-05)
(4.15857e-05 2.14326e-05 -2.38029e-06)
(4.33262e-05 1.66256e-05 -9.78245e-06)
(4.40357e-05 1.13003e-05 -1.06611e-05)
(4.63387e-05 5.713e-06 -1.10864e-05)
(5.289e-05 -1.85951e-06 -1.21252e-05)
(6.37114e-05 -1.1827e-05 -1.33877e-05)
(7.75445e-05 -2.19281e-05 -1.54709e-05)
(8.66306e-05 -2.99021e-05 -1.79839e-05)
(9.15041e-05 -3.68957e-05 -2.16005e-05)
(8.16551e-05 -3.91162e-05 -2.45823e-05)
(6.64469e-05 -4.01798e-05 -3.03951e-05)
(3.11783e-05 -2.66114e-05 -2.78145e-05)
(1.3608e-05 -1.99609e-05 -3.32552e-05)
(4.22665e-07 -1.74792e-05 -3.90425e-05)
(-6.47595e-06 -1.36336e-05 -2.92782e-05)
(-6.43239e-06 -9.68333e-06 -1.49141e-05)
(-1.3614e-05 -1.64568e-05 -1.36088e-05)
(-1.86727e-05 -2.30536e-05 -9.13192e-06)
(-9.7134e-06 -1.29972e-05 -1.66241e-06)
(-1.97955e-05 -2.9405e-05 -3.2039e-07)
(-1.8013e-05 -2.55055e-05 8.11098e-07)
(-2.23684e-05 -2.98515e-05 1.05543e-06)
(-1.51459e-05 -2.2074e-05 1.20355e-07)
(2.29857e-05 2.25937e-05 4.62637e-05)
(3.04179e-05 2.04347e-05 -3.85998e-06)
(3.15004e-05 1.47418e-05 -9.8292e-06)
(3.1536e-05 8.90313e-06 -9.84761e-06)
(3.27681e-05 2.60971e-06 -9.14383e-06)
(3.95077e-05 -5.56689e-06 -8.78602e-06)
(5.20108e-05 -1.51189e-05 -8.74216e-06)
(6.54631e-05 -2.29664e-05 -9.90699e-06)
(7.81604e-05 -2.92826e-05 -1.31776e-05)
(8.33857e-05 -3.36339e-05 -1.7117e-05)
(8.48485e-05 -3.78335e-05 -2.25852e-05)
(7.49398e-05 -3.84082e-05 -2.88381e-05)
(6.03035e-05 -3.79133e-05 -3.83238e-05)
(3.45763e-05 -2.82417e-05 -4.01264e-05)
(1.0692e-05 -1.27055e-05 -2.40956e-05)
(6.03501e-06 -1.27321e-05 -2.90171e-05)