/*--------------------------------*- C++ -*----------------------------------*\
  =========                 |
  \\      /  F ield         | OpenFOAM: The Open Source CFD Toolbox
   \\    /   O peration     | Website:  https://openfoam.org
    \\  /    A nd           | Version:  6
     \\/     M anipulation  |
\*---------------------------------------------------------------------------*/
FoamFile
{
    version     2.0;
    format      ascii;
    class       volScalarField;
    location    "34";
    object      yPlus;
}
// * * * * * * * * * * * * * * * * * * * * * * * * * * * * * * * * * * * * * //

dimensions      [0 0 0 0 0 0 0];

internalField   uniform 0;

boundaryField
{
    inlet
    {
        type            calculated;
        value           uniform 0;
    }
    outlet
    {
        type            calculated;
        value           uniform 0;
    }
    roughCylinder
    {
        type            calculated;
        value           nonuniform List<scalar> 
3840
(
82.0966
50.0951
53.6831
62.0024
68.4261
73.5384
77.6533
81.1149
84.1729
86.9536
89.5825
92.1028
94.6138
97.2131
99.9558
102.863
105.948
109.193
112.562
115.991
119.373
122.535
125.164
126.769
83.5901
50.2861
52.2621
60.3345
66.695
71.7892
75.8865
79.3322
82.3638
85.1189
87.6563
90.0973
92.5278
95.0266
97.6631
100.476
103.455
106.59
109.843
113.155
116.422
119.478
122.019
123.568
81.9315
49.5014
50.8128
58.644
64.9456
69.9992
74.113
77.5824
80.616
83.285
85.7783
88.14
90.473
92.8866
95.436
98.1362
101.007
104.028
107.169
110.366
113.519
116.47
118.924
120.419
83.9886
49.6069
49.3563
56.9078
63.1628
68.2443
72.3767
75.8458
78.8423
81.5233
83.9333
86.2216
88.4885
90.808
93.2518
95.8684
98.6399
101.558
104.586
107.669
110.712
113.56
115.928
117.369
79.8431
48.6274
47.8975
55.1417
61.3805
66.4357
70.606
74.1201
77.1606
79.7588
82.1448
84.3745
86.5506
88.7964
91.1707
93.6775
96.3473
99.157
102.081
105.057
107.993
110.741
113.028
114.417
66.5942
48.2288
46.4155
53.3163
59.5134
64.6492
68.8757
72.4126
75.397
78.0584
80.3863
82.5548
84.6868
86.8523
89.1224
91.5632
94.1452
96.8646
99.6827
102.553
105.385
108.037
110.243
111.582
78.549
47.9442
44.9066
51.4093
57.6555
62.7746
67.0527
70.6472
73.75
76.3261
78.662
80.8048
82.859
84.9646
87.1905
89.5244
92.0119
94.6282
97.3525
100.123
102.857
105.417
107.547
108.837
64.0701
47.0019
43.3683
49.4171
55.6024
60.8758
65.2612
68.9291
71.9409
74.6395
76.951
79.0539
81.0945
83.141
85.2618
87.5513
89.9658
92.506
95.1316
97.8046
100.442
102.912
104.967
106.208
73.3441
46.5828
41.7142
47.2077
53.5592
58.8333
63.2974
67.0276
70.2799
72.8935
75.2368
77.3574
79.3417
81.3452
83.4574
85.6417
87.9673
90.4079
92.9497
95.5318
98.0777
100.463
102.448
103.643
63.6512
45.5628
39.9505
44.8778
51.096
56.6634
61.3232
65.2396
68.3426
71.1578
73.5212
75.6156
77.6217
79.5956
81.5975
83.7659
86.0369
88.4177
90.8669
93.357
95.8127
98.114
100.028
101.177
60.903
45.3063
38.1945
42.0361
48.6547
54.2548
59.071
63.0461
66.5926
69.331
71.7545
73.9221
75.8859
77.8304
79.8715
81.9322
84.1162
86.3981
88.7728
91.1784
93.5475
95.7694
97.6171
98.7197
55.2184
43.1494
35.8845
39.0423
45.269
51.4975
56.6867
61.0881
64.3943
67.4537
69.9663
72.1188
74.1546
76.1056
78.0181
80.098
82.2508
84.4921
86.7783
89.0964
91.3794
93.5191
95.2982
96.3554
56.7443
42.2427
33.4948
34.685
41.9928
48.2804
53.8583
58.3229
62.4411
65.444
68.0568
70.3707
72.3744
74.3092
76.3299
78.2932
80.3555
82.4939
84.7157
86.9546
89.1551
91.2191
92.9344
93.9466
59.0618
41.8613
31.0091
30.2517
36.1366
44.1922
50.568
56.0021
59.7342
63.2802
66.0986
68.4008
70.5571
72.5515
74.4068
76.4387
78.504
80.6285
82.7642
84.919
87.0351
89.0184
90.6658
91.6335
51.7519
40.1883
27.9219
21.8392
31.035
38.7941
46.4369
52.0515
57.3902
60.9147
63.9034
66.52
68.6469
70.6344
72.7055
74.6014
76.5633
78.5721
80.6553
82.7366
84.7727
86.6826
88.2688
89.1908
33.0604
33.7034
23.9001
18.7315
8.83346
30.351
40.6748
48.9043
53.6089
58.2048
61.622
64.2182
66.6297
68.7634
70.5962
72.6353
74.6524
76.6886
78.6846
80.682
82.6342
84.4625
85.9796
86.856
11.1159
13.2966
8.38663
15.8376
3.35114
17.8552
33.0007
42.0199
50.5305
55.1316
58.8872
62.0872
64.4637
66.5866
68.8153
70.6768
72.5602
74.4512
76.4103
78.3394
80.2117
81.9673
83.4246
84.2534
10.5735
11.6857
14.3674
16.4199
17.6011
7.62007
23.7307
36.2176
43.9507
51.3304
55.9856
59.1523
62.0547
64.4839
66.3288
68.4584
70.4829
72.4696
74.3342
76.1756
77.9615
79.6311
81.0149
81.7965
9.77818
1.97788
6.05377
11.1979
19.4989
19.2908
19.6981
12.1298
39.3113
46.5629
52.1833
56.5765
59.4214
61.808
64.3801
66.2435
68.072
69.8505
71.7011
73.4794
75.1816
76.7775
78.1018
78.8309
6.30652
11.6125
9.88568
20.1905
14.1958
22.5299
11.0785
12.1925
20.4464
40.3915
47.9376
52.3219
56.2585
59.2804
61.1664
63.536
65.6554
67.6584
69.399
71.0793
72.6893
74.1894
75.4314
76.1095
11.3736
20.4811
22.7066
18.3621
24.8005
18.8405
24.7392
22.3813
23.1765
28.4495
41.4252
48.9375
52.6803
55.6175
58.935
60.8398
62.649
64.303
66.062
67.6877
69.2038
70.6279
71.8107
72.4273
11.8176
21.8595
26.6838
29.2369
25.0756
19.1134
21.1636
18.6304
14.9087
14.1581
33.9142
41.284
48.036
52.3047
54.2233
57.1768
59.5668
61.7295
63.3641
64.8693
66.2851
67.5958
68.6812
69.2408
11.7654
22.18
27.929
31.0425
31.9308
25.4623
8.57147
7.39648
25.7384
14.4302
5.52374
36.0664
41.7947
46.3707
51.5907
53.5765
55.402
56.8964
58.5934
60.0688
61.37
62.6041
63.6359
64.1167
11.686
20.4
26.8065
31.3951
33.2914
33.0107
24.5577
5.4628
21.6092
18.2308
22.521
8.05356
34.1378
41.3766
43.1039
47.7408
51.0296
53.6764
55.2554
56.562
57.756
58.8524
59.7597
60.1766
11.2409
18.5822
25.0332
29.7328
32.8049
33.4787
32.7627
22.1631
30.2064
27.511
24.0701
22.4685
6.48607
28.2542
40.255
42.2961
43.7797
45.185
47.0001
48.3649
49.4129
50.4231
51.3165
51.6218
8.6994
16.7736
23.0935
27.7918
30.959
32.7936
32.2621
31.8252
21.113
19.3793
18.9352
2.192
22.9125
25.2562
13.2215
29.1149
37.3238
41.2295
42.6628
43.8068
44.6613
45.6477
46.3475
46.5596
7.41603
15.3372
20.9678
25.1921
28.3684
30.3261
31.3682
30.3269
31.3039
19.9885
15.5695
17.5482
25.4878
5.05932
24.6463
8.29558
4.32249
12.6673
20.2194
20.5676
22.9999
22.5514
23.7428
23.2593
5.08293
13.4611
17.9987
21.5393
24.4413
26.7117
27.9359
29.3004
29.0522
31.6102
21.2876
3.45177
22.5786
26.7041
7.72362
19.9167
26.9837
6.70677
28.2887
22.1121
30.0987
10.4331
11.1026
24.6465
4.94452
12.2198
14.7367
16.8768
19.1722
21.4344
23.6569
25.413
28.2833
29.0804
32.1169
22.5521
19.2948
24.8304
3.76069
11.1328
21.3572
28.0485
7.65824
29.3777
11.3038
22.9643
23.7054
32.3259
3.86139
12.1395
12.4971
13.0652
14.1762
16.2705
18.8388
22.0075
24.5911
28.3449
29.7549
32.5043
23.398
23.2441
25.342
19.6703
10.8975
18.2082
26.0817
2.80018
31.7698
25.528
31.9606
18.7049
3.31149
11.5203
11.681
11.8885
12.3569
14.0916
16.719
19.2589
22.5258
25.0819
28.8429
30.567
32.6149
26.4335
9.96546
13.7067
23.2546
7.30239
17.9305
27.6601
27.4951
14.9237
33.1851
24.1561
2.96885
11.278
11.5994
11.7396
12.373
14.6001
17.0129
19.288
21.1323
23.8183
26.0142
29.4549
31.2956
32.4261
30.3763
19.5141
32.0316
18.6322
31.9924
28.7414
9.52344
14.8994
26.9274
26.1152
1.98272
9.46454
11.5535
11.7166
12.6505
15.4395
18.0132
19.9569
21.7905
23.0979
25.1005
26.9678
29.9875
31.8226
32.253
32.1904
29.0066
22.6665
18.5562
15.1389
13.8388
12.1283
11.166
12.2354
2.39186
10.1084
11.4892
11.5028
14.1856
17.1673
19.4608
21.288
22.6384
23.9833
24.8232
26.2137
27.8384
30.2248
32.184
31.954
31.2442
30.8554
30.4569
30.2311
29.856
29.5709
29.52
29.6573
3.31013
11.4138
11.5345
13.2771
16.3624
19.0125
21.1008
22.7341
24.1199
25.0387
25.8685
26.282
27.1504
28.5514
30.2747
31.6987
31.4596
30.3968
28.8355
27.13
25.6902
24.7678
24.6611
24.778
3.48032
11.5915
12.9404
15.9127
18.7054
21.0115
22.881
24.4315
25.6452
26.6381
27.1462
27.4764
27.5306
27.9296
29.0513
29.9967
30.2681
29.8852
28.9036
27.6437
26.4067
25.7412
25.7266
26.0496
3.94446
12.0058
15.593
18.4109
20.8201
22.897
24.6647
26.1569
27.4169
28.2994
28.8779
28.9803
28.8527
28.6176
28.6123
29.1182
29.3013
28.7785
27.4159
25.481
23.6259
22.616
22.7149
23.1744
5.80791
14.9054
18.0973
20.5826
22.7894
24.7452
26.4584
27.9596
29.2039
30.1698
30.7001
30.8611
30.5823
30.0486
29.532
29.1216
28.7974
28.2114
27.0471
25.4405
23.8857
23.1502
23.4108
24.048
7.94392
16.955
20.0612
22.4203
24.5459
26.4739
28.2094
29.7534
31.0774
32.0642
32.6906
32.8587
32.6112
31.978
31.0886
30.2032
29.3317
28.3227
26.9095
25.0751
23.3174
22.474
22.8493
23.5895
10.3466
18.813
21.7512
24.0668
26.1981
28.1512
29.942
31.5628
32.9455
34.027
34.706
34.9767
34.7768
34.1319
33.1381
31.8996
30.5706
29.1687
27.5717
25.7866
24.2036
23.5548
24.0371
24.852
11.4138
13.1424
15.1126
16.4287
17.3722
17.7355
17.7105
17.2914
16.6779
15.8991
15.1009
14.2848
13.5352
12.8503
12.272
11.8165
11.5684
11.4772
11.0994
10.9005
10.8983
11.0925
11.4698
11.5096
11.797
12.256
12.8316
13.513
14.2586
15.0711
15.8653
16.6413
17.2521
17.6713
17.697
17.3389
16.399
15.0942
13.1194
11.425
20.0542
20.8614
21.4492
21.7396
21.9254
21.9322
21.9057
21.7911
21.6814
21.5382
21.4164
21.2868
21.175
21.0673
20.976
20.8957
20.8302
20.7795
20.7457
20.727
20.7265
20.7442
20.7771
20.8268
20.8913
20.9708
21.0612
21.1681
21.2789
21.4077
21.5285
21.6707
21.7793
21.8934
21.9186
21.9124
21.7256
21.4377
20.8489
20.0469
22.8614
23.387
23.7931
24.0229
24.2083
24.2887
24.3554
24.361
24.3596
24.3243
24.2889
24.2427
24.2005
24.1576
24.1202
24.0878
24.0606
24.0403
24.0254
24.0163
24.0158
24.0239
24.0379
24.0573
24.0835
24.115
24.1516
24.1937
24.2351
24.2806
24.3152
24.3501
24.351
24.3451
24.278
24.1978
24.012
23.7831
23.3768
22.8528
25.1675
25.639
26.0648
26.3335
26.5746
26.7221
26.8568
26.9434
27.024
27.0771
27.1261
27.1627
27.1979
27.2281
27.2557
27.2807
27.301
27.3171
27.327
27.3302
27.3297
27.3256
27.3148
27.2979
27.2766
27.2507
27.2222
27.1912
27.1552
27.1179
27.0682
27.0144
26.9332
26.8462
26.7111
26.5634
26.3223
26.0539
25.6283
25.1576
27.3194
27.7639
28.2172
28.5136
28.8131
29.0267
29.241
29.4077
29.5748
29.7149
29.8522
29.9749
30.0927
30.2004
30.299
30.386
30.4587
30.5151
30.5522
30.5685
30.568
30.5509
30.513
30.4558
30.3823
30.2945
30.1952
30.0867
29.968
29.8446
29.7065
29.5656
29.3978
29.2306
29.0158
28.8017
28.502
28.2053
27.7523
27.3078
29.3172
29.7499
30.2503
30.5889
30.9592
31.2389
31.5332
31.7781
32.0282
32.2509
32.4715
32.675
32.8702
33.05
33.2146
33.3589
33.4795
33.5724
33.634
33.6617
33.6612
33.6329
33.5707
33.4771
33.3558
33.2108
33.0456
32.865
32.669
32.4646
32.2434
32.0199
31.7692
31.5235
31.2286
30.9482
30.5776
30.2384
29.738
29.3049
31.1766
31.6098
32.1687
32.5446
32.9789
33.3163
33.6785
33.9903
34.3101
34.6022
34.8916
35.1619
35.4206
35.6592
35.8768
36.0669
36.2254
36.3467
36.4268
36.4625
36.4621
36.4259
36.3454
36.2235
36.0645
35.8737
35.6557
35.4163
35.1568
34.8858
34.5957
34.3027
33.9823
33.6697
33.3068
32.9689
32.5341
32.1575
31.5985
31.1645
32.8666
33.302
33.9084
34.3151
34.7987
35.1822
35.5966
35.9613
36.3345
36.6805
37.0221
37.343
37.6491
37.9312
38.1873
38.4105
38.5956
38.7368
38.8297
38.8707
38.8705
38.829
38.7358
38.5942
38.4087
38.185
37.9284
37.6457
37.339
37.0174
36.6751
36.3284
35.9544
35.589
35.1739
34.7897
34.3056
33.8982
33.2915
32.8555
34.3223
34.7471
35.3976
35.8241
36.3477
36.7659
37.2206
37.6252
38.0388
38.4248
38.8046
39.162
39.5014
39.8136
40.0958
40.3408
40.5433
40.6973
40.7983
40.8427
40.8425
40.7978
40.6966
40.5422
40.3396
40.0941
39.8115
39.4988
39.1588
38.8009
38.4203
38.0336
37.6194
37.2141
36.7587
36.34
35.8158
35.3887
34.7379
34.3126
35.4527
35.8829
36.5658
37.0161
37.571
38.0209
38.5081
38.9462
39.3916
39.8089
40.2177
40.6019
40.965
41.298
41.5975
41.8566
42.0699
42.2316
42.3373
42.3837
42.3835
42.3369
42.2311
42.0692
41.8557
41.5964
41.2966
40.9631
40.5995
40.2148
39.8055
39.3875
38.9415
38.5028
38.015
37.5645
37.0092
36.5583
35.8755
35.4447
36.2173
36.6479
37.3789
37.8526
38.4451
38.926
39.4467
39.9159
40.3911
40.8359
41.2694
41.6758
42.0577
42.4065
42.7187
42.9877
43.2082
43.375
43.4838
43.5316
43.5315
43.4835
43.3747
43.2078
42.9873
42.7181
42.4056
42.0565
41.6741
41.2674
40.8334
40.388
39.9123
39.4426
38.9215
38.44
37.8472
37.3731
36.6422
36.2111
36.5573
37.0262
37.8062
38.3221
38.9561
39.4766
40.0338
40.5373
41.0432
41.516
41.9734
42.4005
42.7995
43.1622
43.485
43.7621
43.9884
44.1592
44.2706
44.3198
44.3198
44.2705
44.1592
43.9884
43.762
43.4849
43.1618
42.7989
42.3996
41.9722
41.5144
41.0411
40.535
40.0309
39.4734
38.9525
38.3183
37.8022
37.0224
36.5536
36.4531
36.9801
37.8303
38.4024
39.0893
39.6584
40.2582
40.801
41.3405
41.8432
42.3258
42.774
43.1901
43.5663
43.8996
44.1843
44.4162
44.5908
44.7048
44.7556
44.7556
44.7049
44.591
44.4165
44.1847
43.9
43.5666
43.1903
42.774
42.3255
41.8428
41.3397
40.7999
40.2567
39.6566
39.0873
38.4005
37.8283
36.9787
36.4521
35.876
36.4692
37.409
38.0557
38.8076
39.4346
40.0844
40.6718
41.2492
41.7849
42.2948
42.7658
43.2002
43.591
43.9353
44.2284
44.4663
44.6453
44.7623
44.815
44.815
44.7625
44.6458
44.4669
44.2292
43.9363
43.5919
43.2012
42.7667
42.2956
41.7855
41.2496
40.672
40.0844
39.4345
38.8074
38.0558
37.4094
36.4704
35.8776
34.8405
35.484
36.4876
37.2271
38.052
38.7483
39.4528
40.0912
40.7104
41.283
41.8231
42.3199
42.7749
43.1822
43.5396
43.8426
44.088
44.2724
44.3932
44.4484
44.4485
44.3936
44.2732
44.0891
43.844
43.5412
43.184
42.7768
42.3219
41.8251
41.2848
40.7122
40.0928
39.4546
38.75
38.0539
37.2295
36.4905
35.4876
34.8445
33.4582
34.0514
35.0712
35.8711
36.766
37.5375
38.2998
38.9919
39.6555
40.2681
40.8416
41.367
41.8457
42.2726
42.6456
42.961
43.216
43.4076
43.5334
43.5916
43.5918
43.534
43.4088
43.2178
42.9632
42.6482
42.2755
41.8487
41.3703
40.845
40.2715
39.6589
38.9954
38.3033
37.5413
36.7703
35.8761
35.0764
34.0572
33.4628
31.8457
32.2818
33.2297
34.0237
34.9468
35.7736
36.5907
37.3317
38.0374
38.6883
39.2953
39.8503
40.3542
40.8028
41.1937
41.5238
41.7904
41.9907
42.1227
42.1846
42.1848
42.1236
41.9924
41.7929
41.5269
41.1975
40.807
40.3588
39.8552
39.3004
38.6937
38.0429
37.3375
36.5967
35.7801
34.9539
34.0314
33.2374
32.2886
31.8506
30.0986
30.3054
31.0981
31.8067
32.6934
33.5244
34.3668
35.1417
35.8765
36.5565
37.19
37.7701
38.2966
38.7653
39.1737
39.5185
39.797
40.0067
40.1452
40.2112
40.2116
40.1467
40.0091
39.8005
39.5229
39.1789
38.7712
38.3032
37.7771
37.1976
36.5644
35.8848
35.1503
34.3761
33.5342
32.7035
31.8168
31.1066
30.3121
30.0989
28.2066
28.2205
28.8313
29.4108
30.2092
30.9912
31.8142
32.5904
33.3314
34.0211
34.6663
35.2596
35.7995
36.2814
36.7021
37.0579
37.3458
37.5628
37.7068
37.7763
37.7769
37.7088
37.5662
37.3504
37.0637
36.709
36.2893
35.8084
35.2691
34.6765
34.0319
33.3428
32.6026
31.8272
31.0047
30.2225
29.4234
28.8421
28.2272
28.2094
26.2143
26.1561
26.6217
27.0958
27.7954
28.5078
29.2809
30.0282
30.7537
31.434
32.0744
32.6663
33.2073
33.6918
34.116
34.4757
34.7673
34.9877
35.1345
35.2059
35.2068
35.1371
34.9921
34.7734
34.4834
34.1253
33.7024
33.219
32.6789
32.0878
31.4483
30.7689
30.0443
29.2981
28.5253
27.8126
27.1117
26.6352
26.1648
26.2174
24.5046
24.5024
24.8865
25.3249
25.9521
26.6119
27.33
28.035
28.7246
29.3788
29.9985
30.5746
31.1031
31.5778
31.9944
32.3484
32.6358
32.8535
32.9987
33.0697
33.0708
33.0019
32.8588
32.6432
32.3577
32.0056
31.5906
31.1172
30.5898
30.0148
29.3958
28.7425
28.0538
27.3493
26.6313
25.9706
25.3419
24.9001
24.5118
24.5068
23.8064
23.8924
24.2385
24.6751
25.247
25.8612
26.5156
27.1636
27.8009
28.4132
28.9958
29.5399
30.0402
30.4904
30.8861
31.2226
31.4964
31.7037
31.8421
31.9099
31.9111
31.8458
31.7097
31.5047
31.2332
30.8987
30.5047
30.0558
29.557
29.0138
28.4319
27.82
27.183
26.5352
25.8805
25.2652
24.6915
24.2515
23.9013
23.8074
24.3304
24.4377
24.7688
25.1791
25.6995
26.2541
26.8392
27.4243
28.0052
28.5666
29.1023
29.6039
30.0656
30.4819
30.848
31.1597
31.4131
31.6052
31.7334
31.796
31.7971
31.737
31.6113
31.4215
31.1702
30.8605
30.4961
30.0812
29.6206
29.1198
28.5846
28.0232
27.4423
26.8567
26.2708
25.7151
25.1929
24.7794
24.445
24.3311
25.1901
25.2876
25.611
25.9911
26.4774
26.9879
27.5323
28.0777
28.6213
29.1469
29.6492
30.1197
30.5532
30.9444
31.2886
31.5816
31.8201
32.0007
32.1212
32.1796
32.1808
32.1249
32.0069
31.8286
31.5924
31.3012
30.9587
30.569
30.1366
29.6668
29.1649
28.6393
28.0955
27.5494
27.0038
26.4921
26.0036
25.6211
25.2938
25.1915
82.8306
50.587
53.7111
62.0139
68.4353
73.5456
77.6583
81.1196
84.179
86.9594
89.5882
92.1091
94.6208
97.2199
99.9623
102.87
105.955
109.199
112.569
115.998
119.379
122.542
125.17
126.776
83.376
50.0418
52.2386
60.3319
66.6916
71.7911
75.8915
79.3394
82.3701
85.126
87.664
90.1046
92.5344
95.0336
97.6702
100.483
103.463
106.597
109.85
113.162
116.429
119.485
122.025
123.575
83.1498
49.9038
50.8547
58.6602
64.9603
70.0102
74.12
77.5869
80.6223
83.2912
85.7839
88.1464
90.4804
92.8936
95.443
98.143
101.014
104.035
107.176
110.372
113.526
116.477
118.931
120.426
81.9213
49.1637
49.3232
56.9033
63.1557
68.2423
72.3796
75.8537
78.849
81.5304
83.9414
86.2292
88.4954
90.8154
93.2591
95.8761
98.6478
101.566
104.593
107.677
110.719
113.567
115.935
117.376
80.8541
49.0479
47.9448
55.1637
61.4013
66.4522
70.6172
74.1248
77.1668
79.7655
82.1507
84.3816
86.5581
88.8036
91.1779
93.6845
96.3542
99.1642
102.088
105.064
108
110.748
113.035
114.424
79.4424
48.2374
46.3642
53.3066
59.5003
64.6406
68.8731
72.4198
75.4043
78.0652
80.3943
82.5616
84.6942
86.8599
89.13
91.5709
94.1535
96.8727
99.6897
102.561
105.393
108.045
110.25
111.589
77.6759
47.9777
44.9373
51.4307
57.68
62.7975
67.0709
70.6538
73.7558
76.3335
78.6687
80.8139
82.8662
84.972
87.1979
89.5317
92.0188
94.6349
97.3599
100.131
102.865
105.424
107.554
108.844
75.9484
47.1797
43.2897
49.4016
55.5838
60.8589
65.2497
68.9332
71.9489
74.6461
76.9586
79.0584
81.1025
83.1488
85.2696
87.5591
89.9739
92.5141
95.139
97.8122
100.449
102.92
104.974
106.216
72.8598
46.6696
41.7598
47.2231
53.5834
58.8627
63.3255
67.0391
70.2855
72.9014
75.2441
77.3698
79.3488
81.3528
83.4649
85.6494
87.9749
90.4147
92.9576
95.5394
98.0856
100.471
102.456
103.65
58.5793
44.6406
39.8745
44.8715
51.0814
56.6403
61.3009
65.2381
68.3511
71.1648
73.5293
75.6172
77.6302
79.6036
81.6057
83.7736
86.0442
88.427
90.8747
93.3651
95.8206
98.1221
100.036
101.184
65.3441
44.0995
37.8977
42.017
48.6628
54.2884
59.1122
63.0643
66.599
69.3395
71.7615
73.9377
75.8936
77.8382
79.8792
81.9405
84.1254
86.4042
88.7811
91.1865
93.5558
95.7771
97.6247
98.7272
55.316
42.9553
35.7823
39.0372
45.2779
51.4685
56.6469
61.082
64.4035
67.4613
69.9765
72.1185
74.1625
76.114
78.0265
80.1056
82.2565
84.5028
86.7862
89.105
91.3873
93.5277
95.3055
96.3629
61.0848
42.2182
33.4079
34.621
41.9562
48.3305
53.9325
58.3474
62.4481
65.4538
68.0624
70.3881
72.3841
74.3172
76.3379
78.3018
80.3675
82.4989
84.7245
86.9633
89.164
91.2274
92.9425
93.9547
53.1891
41.0774
30.7459
30.4222
36.2241
44.1089
50.4694
55.991
59.7468
63.2877
66.1123
68.4013
70.5639
72.5604
74.4157
76.4471
78.5075
80.6413
82.7726
84.9281
87.0432
89.0276
90.674
91.6412
50.8513
39.7856
27.5727
20.8187
30.756
38.9702
46.6005
52.0874
57.3953
60.9283
63.907
66.5369
68.6578
70.6428
72.7138
74.6097
76.5778
78.5758
80.6648
82.7459
84.7825
86.6915
88.2775
89.1995
32.0943
33.285
23.2461
7.68155
12.6197
30.4801
40.6431
48.9115
53.6318
58.2108
61.6418
64.223
66.6391
68.7734
70.6059
72.6453
74.6554
76.7042
78.6937
80.6922
82.6432
84.4729
85.988
86.8644
8.03481
13.1352
7.90321
16.0828
6.90586
8.00011
32.0598
41.8889
50.5213
55.1527
58.8832
62.0993
64.4695
66.595
68.8239
70.6846
72.5747
74.4531
76.421
78.3497
80.2231
81.9772
83.4339
84.2629
10.059
0.947229
8.38197
16.6809
17.6786
18.9304
15.2125
36.7302
44.0275
51.3379
56.0319
59.1704
62.0786
64.497
66.34
68.4702
70.4911
72.4897
74.3444
76.1875
77.9715
79.6435
81.0247
81.8054
4.77044
7.12522
15.8305
9.44426
9.27605
8.12
11.6729
11.1337
39.3293
46.5933
52.1291
56.5693
59.4071
61.8139
64.389
66.2528
68.078
69.8484
71.7134
73.4913
75.1957
76.789
78.112
78.8417
7.57303
11.4503
10.6439
19.6013
20.9815
21.8941
20.8956
20.9793
19.8158
40.3493
48.07
52.3882
56.3141
59.3013
61.1809
63.5465
65.6825
67.6894
69.4112
71.0942
72.7005
74.2048
75.4434
76.12
11.359
20.6278
22.8423
18.7392
18.274
20.125
23.9356
22.562
14.4946
29.1357
41.4713
48.8514
52.6452
55.6185
58.9426
60.857
62.6316
64.286
66.0775
67.7023
69.2228
70.6418
71.8227
72.4398
11.5783
21.9021
26.7477
29.2331
24.5856
24.5261
27.1768
18.8659
13.8205
6.02363
32.8086
41.5917
48.0776
52.3362
54.2475
57.1821
59.6207
61.7955
63.379
64.8894
66.2976
67.6165
68.696
69.2549
11.5753
22.2757
28.0655
31.2173
32.059
26.3652
4.30354
6.09292
20.1981
23.1205
18.8178
34.7896
41.9794
46.3758
51.5907
53.5995
55.3999
56.8236
58.6165
60.0883
61.3995
62.6231
63.6536
64.1322
11.782
20.4855
26.8962
31.4872
33.4266
33.0248
25.0263
29.8741
16.4907
4.80464
24.405
24.7804
32.9157
41.4568
43.1652
47.7812
50.9603
53.8462
55.2733
56.5941
57.7688
58.8812
59.7728
60.1968
11.0736
18.6617
25.1308
29.8451
32.91
33.6137
32.8105
22.7038
27.5173
15.6289
19.2703
24.9821
23.7657
27.4676
40.2114
42.2425
44.219
44.9643
47.041
48.3865
49.4727
50.4584
51.376
51.6554
8.87904
16.8268
23.1556
27.8661
31.0514
32.8798
32.3881
31.9135
19.836
29.9041
9.1915
23.7485
3.40789
21.2093
13.6844
29.1657
36.2497
41.5577
42.7579
43.9092
44.6629
45.6904
46.2166
46.4893
7.25938
15.3487
21.0133
25.2563
28.4408
30.4133
31.4338
30.3802
31.4998
21.1717
18.8582
6.67772
24.1831
25.5611
25.5956
15.1892
10.2715
12.1001
18.7047
20.8943
23.2796
22.6956
25.344
25.1141
5.33402
13.5011
18.0338
21.5874
24.5053
26.7799
28.0237
29.4033
29.0918
31.6312
21.2811
29.1304
9.00328
18.9074
19.7659
8.6729
27.2622
19.7327
21.2913
8.58288
29.9652
10.9359
31.319
31.387
4.81341
12.1629
14.7406
16.9095
19.2246
21.504
23.7266
25.4782
28.3876
29.1812
32.1961
22.9092
25.1418
1.9148
16.2812
26.569
22.0159
6.14004
28.8136
22.449
10.9188
22.9662
12.0665
7.94681
3.91961
11.6223
12.4962
13.0857
14.2167
16.3277
18.9103
22.0918
24.6517
28.4078
29.8182
32.554
23.7467
27.971
13.0339
28.8185
13.2917
17.8128
29.2908
31.9367
31.7925
25.3409
4.20812
18.2221
3.31505
11.2634
11.6759
11.8973
12.3801
14.1304
16.7606
19.2999
22.5928
25.1548
28.9173
30.6324
32.648
26.6617
12.0603
26.4474
12.5462
30.2059
17.674
28.0421
27.5044
34.8397
24.6658
34.2211
3.01685
11.5293
11.6294
11.7504
12.4054
14.6359
17.0439
19.3226
21.1603
23.8549
26.0599
29.5159
31.3445
32.526
30.1566
19.6841
31.1831
8.68344
27.364
20.7758
10.0163
29.72
33.9216
27.1982
2.02163
9.54168
11.4667
11.5047
12.6795
15.47
18.0378
19.975
21.8152
23.1265
25.1352
27.0056
30.0372
31.8817
32.3332
32.2717
29.1151
23.3168
17.2487
14.347
13.7528
12.5355
13.1435
11.6387
2.40768
10.1395
11.5088
11.8083
14.2283
17.1903
19.4791
21.3064
22.6515
23.9952
24.837
26.2366
27.8676
30.2821
32.2201
31.9965
31.3288
30.9166
30.5774
30.2902
29.9504
29.6384
29.6181
29.8392
3.32369
11.4462
11.6238
13.2786
16.3793
19.0279
21.1151
22.7458
24.1325
25.0507
25.8793
26.2915
27.1683
28.5811
30.3092
31.7569
31.4882
30.5352
28.8389
27.2767
25.7915
24.9017
24.7159
24.875
3.49794
11.6541
12.9579
15.9275
18.7181
21.0241
22.8932
24.4434
25.6542
26.6447
27.1512
27.4813
27.5352
27.9461
29.0695
30.0292
30.3213
29.9497
28.9874
27.7117
26.4871
25.8209
25.8504
26.1268
3.94915
12.0085
15.5975
18.418
20.8299
22.9078
24.6759
26.1667
27.426
28.3068
28.8831
28.9828
28.855
28.6201
28.6211
29.1397
29.3281
28.8516
27.4427
25.5489
23.6877
22.6936
22.7528
23.2199
5.81139
14.9094
18.1035
20.5906
22.7989
24.756
26.4696
27.9702
29.2124
30.176
30.7041
30.8631
30.5818
30.0487
29.5323
29.1284
28.8165
28.2449
27.0886
25.4743
23.9209
23.1799
23.4571
24.0785
7.94556
16.9585
20.0658
22.4275
24.5559
26.485
28.2209
29.7637
31.0865
32.0715
32.6956
32.8608
32.6111
31.9758
31.0858
30.2041
29.3372
28.3457
26.9215
25.095
23.3369
22.4988
22.8637
23.603
10.3418
18.8182
21.7594
24.0765
26.2091
28.163
29.9538
31.5739
32.9549
34.0345
34.7113
34.9796
34.7768
34.1299
33.1345
31.8957
30.5704
29.1742
27.5811
25.7939
24.2103
23.5602
24.0455
24.8582
80.9955
76.5864
58.4697
69.3716
72.8675
68.1685
65.3516
54.0198
62.2331
58.86
7.7674
28.9731
14.1377
18.7616
9.37864
18.3933
12.335
14.4054
13.4887
13.4114
13.4056
13.5506
14.0713
13.5435
16.5819
13.0294
14.5841
23.7322
17.4941
41.4265
53.7346
52.3045
71.0788
61.1982
58.9004
61.1439
65.3563
70.333
59.4696
80.4097
49.9414
47.7796
46.4641
45.1484
43.4226
41.3283
40.2424
37.9642
37.2608
35.4203
33.981
33.4621
32.924
32.1101
31.9802
31.0029
31.0315
30.5454
30.4013
30.273
30.2732
30.3935
30.5799
30.9451
31.1146
31.896
32.1204
32.8736
33.3681
34.4033
34.927
36.4193
37.9422
40.4128
40.7356
43.0969
44.5803
47.3616
47.4652
50.209
54.248
52.6876
52.221
50.7434
50.1803
48.844
48.2424
47.094
46.47
45.4973
44.925
44.069
43.5161
42.8903
42.3984
42.0119
41.613
41.3861
41.1867
41.0859
41.0855
41.1887
41.377
41.6258
42.0014
42.3954
42.8983
43.5046
44.0991
44.8553
45.5081
46.5113
47.1332
48.2645
48.8874
50.2172
50.7556
52.2503
52.6861
54.2757
62.6735
61.1772
60.6577
59.2228
58.572
57.2537
56.5393
55.3766
54.6636
53.6925
53.0189
52.2403
51.6311
51.0261
50.5381
50.0927
49.7635
49.4863
49.3069
49.2039
49.2038
49.3058
49.488
49.7592
50.0929
50.5391
51.0204
51.6321
52.2319
53.0148
53.6945
54.6691
55.3776
56.5408
57.2464
58.5651
59.2139
60.6557
61.1688
62.6743
69.0806
67.5373
66.9366
65.4765
64.7552
63.4375
62.6604
61.5167
60.7361
59.7771
59.0471
58.2688
57.6308
57.0222
56.516
56.0781
55.7222
55.4561
55.2682
55.1672
55.167
55.2682
55.4543
55.7222
56.0775
56.5129
57.0215
57.6281
58.2672
59.0435
59.7771
60.7368
61.5175
62.661
63.4379
64.7557
65.4748
66.9373
67.5326
69.0822
74.1762
72.5915
71.9157
70.4452
69.6506
68.3435
67.498
66.3703
65.5373
64.5882
63.8229
63.0436
62.3877
61.7741
61.2576
60.8122
60.4567
60.1811
59.9943
59.8924
59.8923
59.9937
60.1808
60.4555
60.8104
61.2568
61.7721
62.3857
63.0414
63.8204
64.5868
65.5368
66.3697
67.4961
68.3412
69.6467
70.4413
71.9115
72.5864
74.1725
78.2451
76.6423
75.8893
74.426
73.5664
72.276
71.381
70.2653
69.3996
68.4527
67.668
66.8862
66.2191
65.6024
65.0794
64.631
64.2698
63.9943
63.8045
63.7027
63.7026
63.8042
63.9933
64.2688
64.6302
65.0776
65.6007
66.2171
66.884
67.6659
68.4507
69.3976
70.263
71.3782
72.273
73.5625
74.4224
75.8846
76.6383
78.24
81.6677
80.0551
79.2442
77.7867
76.8826
75.5986
74.6726
73.5582
72.6722
71.7224
70.9236
70.1371
69.4602
68.8386
68.309
67.856
67.4908
67.2106
67.019
66.9151
66.9149
67.0185
67.21
67.4898
67.8545
68.3075
68.8367
69.4582
70.1349
70.9212
71.7199
72.6696
73.5553
74.6695
75.5949
76.8784
77.7824
79.239
80.0504
81.6613
84.7109
83.0694
82.2279
80.7581
79.8297
78.5387
77.5933
76.4728
75.5708
74.6148
73.803
73.0099
72.323
71.6947
71.1575
70.6986
70.3276
70.043
69.8469
69.7398
69.7396
69.8464
70.0422
70.3264
70.6973
71.1559
71.6928
72.3208
73.0075
73.8003
74.612
75.5677
76.4695
77.5896
78.5346
79.8252
80.7533
82.2228
83.0638
84.7051
87.5284
85.8303
84.982
83.485
82.5414
81.236
80.2733
79.1426
78.2243
77.2591
76.4334
75.6311
74.9331
74.2962
73.7504
73.284
72.9062
72.6157
72.4147
72.3033
72.3031
72.4142
72.6149
72.9051
73.2826
73.7487
74.2943
74.9309
75.6286
76.4306
77.256
78.221
79.139
80.2692
81.2318
82.5366
83.4802
84.9762
85.825
87.5218
90.1744
88.4377
87.572
86.0523
85.0891
83.7676
82.7859
81.6414
80.7062
79.7281
78.8879
78.0738
77.3636
76.7164
76.1606
75.6858
75.3004
75.0034
74.7966
74.6802
74.68
74.7961
75.0025
75.2993
75.6844
76.1589
76.7144
77.3612
78.0712
78.885
79.7249
80.7027
81.6376
82.7817
83.7632
85.0841
86.0473
87.5661
88.4322
90.1674
92.743
90.9426
90.0815
88.5203
87.55
86.2006
85.2059
84.0411
83.0908
82.0966
81.2417
80.4144
79.6913
79.0331
78.4669
77.9832
77.5898
77.286
77.0733
76.9515
76.9513
77.0727
77.2851
77.5887
77.9818
78.4652
79.031
79.6889
80.4117
81.2387
82.0934
83.0871
84.0372
85.2016
86.196
87.545
88.515
90.0757
90.9368
92.7362
95.3104
93.4432
92.5881
90.9851
90.0056
88.6293
87.6184
86.4343
85.4664
84.4566
83.5854
82.7447
82.008
81.3384
80.7615
80.2687
79.8672
79.5565
79.3379
79.2109
79.2106
79.3373
79.5556
79.8661
80.2672
80.7597
81.3363
82.0056
82.742
83.5824
84.4533
85.4627
86.4303
87.614
88.6247
90.0004
90.9797
92.5823
93.4371
95.304
97.9584
96.03
95.1751
93.5324
92.54
91.1367
90.1076
88.9028
87.9161
86.8891
86.0009
85.1454
84.3945
83.7127
83.1245
82.6221
82.2123
81.8946
81.6702
81.5379
81.5377
81.6696
81.8938
82.2112
82.6207
83.1228
83.7106
84.3922
85.1427
85.9979
86.8857
87.9124
88.8988
90.1032
91.132
92.5348
93.5269
95.1693
96.0238
97.9518
100.752
98.758
97.9029
96.2166
95.21
93.7764
92.7278
91.4992
90.4923
89.446
88.5393
87.6675
86.9008
86.2056
85.6053
85.0926
84.674
84.349
84.1185
83.9812
83.981
84.1179
84.3481
84.6728
85.0911
85.6036
86.2035
86.8987
87.6645
88.5362
89.4424
90.4887
91.4956
92.7233
93.7718
95.2053
96.2109
97.8971
98.7516
100.745
103.723
101.651
100.8
99.0626
98.0423
96.5739
95.5037
94.2488
93.2191
92.1508
91.2237
90.3336
89.5502
88.8399
88.2263
87.7026
87.274
86.9414
86.705
86.5623
86.5623
86.7042
86.9405
87.2732
87.7009
88.2247
88.8378
89.5476
90.331
91.2207
92.1478
93.2156
94.2449
95.4992
96.5689
98.0373
99.0575
100.794
101.645
103.716
106.868
104.719
103.865
102.077
101.037
99.5333
98.4374
97.1543
96.0993
95.0075
94.0575
93.1476
92.345
91.6189
90.9907
90.4542
90.0159
89.6749
89.4317
89.2842
89.2842
89.4313
89.6741
90.0147
90.453
90.9887
91.6168
92.3425
93.1447
94.0546
95.0042
96.0955
97.1505
98.4331
99.5285
101.032
102.072
103.859
104.713
106.861
110.173
107.945
107.086
105.245
104.183
102.641
101.517
100.205
99.1214
98.0045
97.0298
96.0982
95.2756
94.5318
93.8878
93.3386
92.8893
92.5397
92.2899
92.1375
92.1372
92.2891
92.5389
92.8881
93.3371
93.8862
94.5295
95.2732
96.0954
97.0265
98.0009
99.1177
100.2
101.513
102.636
104.178
105.24
107.08
107.939
110.167
113.603
111.296
110.427
108.534
107.446
105.866
104.711
103.368
102.255
101.112
100.111
99.1565
98.3122
97.5504
96.8901
96.327
95.8662
95.5077
95.2508
95.0934
95.0934
95.2505
95.5066
95.8651
96.3255
96.8882
97.5481
98.3099
99.1538
100.108
101.108
102.251
103.364
104.707
105.862
107.441
108.529
110.421
111.29
113.596
117.092
114.706
113.826
111.882
110.767
109.149
107.962
106.587
105.444
104.273
103.245
102.268
101.401
100.621
99.9435
99.3661
98.8936
98.526
98.2624
98.0999
98.0999
98.2617
98.5249
98.8925
99.3646
99.9416
100.618
101.399
102.265
103.242
104.27
105.44
106.584
107.958
109.144
110.761
111.877
113.821
114.7