/*--------------------------------*- C++ -*----------------------------------*\
  =========                 |
  \\      /  F ield         | OpenFOAM: The Open Source CFD Toolbox
   \\    /   O peration     | Website:  https://openfoam.org
    \\  /    A nd           | Version:  6
     \\/     M anipulation  |
\*---------------------------------------------------------------------------*/
FoamFile
{
    version     2.0;
    format      ascii;
    class       volScalarField;
    location    "1.2";
    object      omega;
}
// * * * * * * * * * * * * * * * * * * * * * * * * * * * * * * * * * * * * * //

dimensions      [0 0 -1 0 0 0 0];

internalField   nonuniform List<scalar> 
63280
(
843.917
843.917
843.917
843.917
843.917
843.917
843.917
843.917
843.917
843.917
843.917
843.917
843.917
843.917
843.917
843.917
843.917
843.917
843.917
843.917
843.917
843.917
843.917
843.917
843.917
843.917
843.917
843.917
843.917
843.917
843.917
843.917
843.917
843.917
843.917
843.917
843.917
843.917
843.917
843.917
843.917
843.917
843.917
843.917
843.917
843.917
843.917
843.917
843.917
843.917
843.917
843.917
843.917
843.917
843.917
843.917
843.917
843.917
843.917
843.917
843.917
843.917
843.917
843.917
843.917
843.917
843.917
843.917
843.917
843.917
843.917
843.917
843.917
843.917
843.917
843.917
843.917
843.917
843.917
843.917
843.917
843.917
843.917
843.917
843.917
843.917
843.917
843.917
843.917
843.917
843.917
843.917
843.917
843.917
843.917
843.917
843.917
843.917
843.917
843.917
843.917
843.917
843.917
843.917
843.917
843.917
843.917
843.917
843.917
843.917
843.917
843.917
843.917
843.917
843.917
843.917
843.917
843.917
843.917
843.917
843.917
843.917
843.917
843.917
843.917
843.917
843.917
843.917
843.917
843.917
843.917
843.917
843.917
843.917
843.917
843.917
843.917
843.917
843.917
843.917
843.917
843.917
843.917
843.917
843.917
843.917
843.917
843.917
843.917
843.917
843.917
843.917
843.917
843.917
843.917
843.917
843.917
843.917
843.917
843.917
843.917
843.917
843.917
843.917
843.917
843.917
843.917
843.917
843.917
843.917
843.917
843.917
843.917
843.917
843.917
843.917
843.917
843.917
843.917
843.917
843.917
843.917
843.917
843.917
843.917
843.917
843.917
843.917
843.917
843.917
843.917
843.917
843.917
843.917
843.917
843.917
843.917
843.917
843.917
843.917
843.917
843.917
843.917
843.917
843.917
843.917
843.917
843.917
843.917
843.917
843.917
843.917
843.917
843.917
843.917
843.917
843.917
843.917
843.917
843.917
843.917
843.917
843.917
843.917
843.917
843.917
843.917
843.917
843.917
843.917
843.917
843.917
843.917
843.917
843.917
843.917
843.917
843.917
843.917
843.917
843.917
843.917
843.917
843.917
843.917
843.917
843.917
843.917
843.917
843.917
843.917
843.917
843.917
843.917
843.917
843.917
843.917
843.917
843.917
843.917
843.917
843.917
843.917
843.917
843.917
843.917
843.917
843.917
843.917
843.917
843.917
843.917
843.917
843.917
843.917
843.917
843.917
843.917
843.917
843.917
843.917
843.917
843.917
843.917
843.917
843.917
843.917
843.917
843.917
843.917
843.917
843.917
843.917
843.917
843.917
843.917
843.917
843.917
843.917
843.917
843.917
843.917
843.917
843.917
843.917
843.917
843.917
843.917
843.917
843.917
843.917
843.917
843.917
843.917
843.917
843.917
843.917
843.917
843.917
843.917
843.917
843.917
843.917
843.917
843.917
843.917
843.917
843.917
843.917
843.917
843.917
843.917
843.917
843.917
843.917
843.917
843.917
843.917
843.917
843.917
843.917
843.917
425.946
425.907
425.89
425.908
425.902
425.919
425.95
425.926
425.983
425.87
425.859
425.77
425.782
425.794
425.782
425.768
425.729
425.68
266.807
266.905
267
267.084
267.161
267.229
267.317
267.418
267.51
267.531
267.499
267.439
267.331
267.223
267.079
266.904
266.711
266.521
266.637
266.748
266.872
266.954
267.036
267.123
267.229
267.316
267.361
267.313
267.215
267.068
266.906
266.749
266.587
266.44
266.123
266.208
266.285
266.36
266.417
266.461
266.507
266.538
266.572
266.59
266.584
266.567
266.489
266.382
266.235
266.073
265.939
265.409
265.505
265.591
265.636
265.666
265.722
265.841
265.976
266.074
266.087
266.042
265.97
265.886
265.776
265.674
265.527
265.384
264.587
264.747
264.913
265.052
265.09
265.124
265.205
265.337
265.495
265.559
265.528
265.394
265.241
265.073
264.947
264.835
264.737
263.848
263.922
264.066
264.238
264.347
264.378
264.346
264.317
264.312
264.368
264.413
264.438
264.395
264.299
264.155
264.046
263.928
262.835
262.845
262.974
263.201
263.43
263.564
263.57
263.481
263.378
263.343
263.369
263.459
263.532
263.55
263.501
263.413
263.285
261.785
261.855
262.01
262.231
262.449
262.602
262.604
262.51
262.323
262.207
262.164
262.202
262.305
262.358
262.402
262.387
262.344
260.764
260.829
260.887
260.988
261.163
261.36
261.489
261.487
261.345
261.193
261.071
261.048
261.083
261.147
261.179
261.206
261.216
259.488
259.641
259.75
259.868
260.024
260.253
260.376
260.37
260.162
259.895
259.692
259.579
259.562
259.607
259.655
259.721
259.762
258.137
258.284
258.376
258.403
258.404
258.479
258.627
258.814
258.915
258.89
258.74
258.577
258.392
258.318
258.277
258.292
258.318
256.596
256.701
256.786
256.773
256.8
256.872
257.101
257.436
257.697
257.753
257.556
257.197
256.796
256.517
256.411
256.459
256.564
255.039
255.085
255.081
255.046
255.046
255.089
255.187
255.332
255.477
255.587
255.59
255.519
255.307
255.125
254.954
254.896
254.901
253.005
252.981
252.97
253.013
253.119
253.255
253.38
253.476
253.566
253.684
253.82
253.956
254.019
254.013
253.938
253.838
253.747
250.475
250.372
250.377
250.47
250.613
250.754
250.858
250.922
250.97
251.049
251.152
251.301
251.388
251.495
251.512
251.544
251.566
246.705
246.742
247.138
247.662
248.124
248.434
248.593
248.658
248.692
248.748
248.834
248.95
249.031
249.095
249.105
249.103
249.117
242.746
242.847
243.378
244.029
244.537
244.797
244.866
244.846
244.813
244.826
244.89
244.992
245.081
245.162
245.193
245.243
245.266
237.783
237.94
238.485
239.238
239.95
240.467
240.763
240.906
240.956
241.014
241.112
241.233
241.326
241.341
241.305
241.301
241.309
232.339
231.635
230.642
229.895
229.678
229.817
230.127
230.458
230.687
230.774
230.905
231.185
231.631
232.08
232.34
232.43
232.45
232.462
224.638
222.516
219.673
217.112
215.322
214.402
214.107
214.101
214.164
214.159
214.146
214.195
214.427
214.685
214.996
214.921
215.15
215.172
14.7856
14.7897
14.8173
14.9229
14.9487
14.9993
15.0855
15.0596
14.9333
14.7602
14.6255
14.5298
14.491
14.4322
14.2982
14.1571
13.9548
13.7102
129.601
129.756
129.911
130.064
130.205
130.345
130.486
130.631
130.751
130.833
130.874
130.883
130.863
130.808
130.721
130.598
130.445
129.129
129.245
129.379
129.516
129.648
129.765
129.891
130.02
130.151
130.254
130.31
130.315
130.28
130.225
130.156
130.083
129.991
128.629
128.725
128.826
128.932
129.037
129.136
129.227
129.306
129.386
129.471
129.554
129.615
129.637
129.613
129.556
129.481
129.412
127.946
128.044
128.145
128.232
128.312
128.416
128.558
128.721
128.861
128.952
128.998
129.022
129.026
129.012
128.973
128.912
128.836
127.213
127.344
127.504
127.643
127.741
127.824
127.943
128.113
128.296
128.438
128.491
128.472
128.41
128.341
128.286
128.242
128.209
126.578
126.657
126.793
126.956
127.092
127.163
127.189
127.212
127.28
127.394
127.524
127.62
127.665
127.647
127.6
127.541
127.504
125.727
125.753
125.874
126.076
126.292
126.443
126.498
126.483
126.461
126.49
126.587
126.723
126.858
126.941
126.966
126.94
126.893
124.902
124.984
125.137
125.354
125.585
125.756
125.827
125.801
125.731
125.686
125.706
125.792
125.913
126.023
126.096
126.127
126.132
124.11
124.172
124.244
124.363
124.544
124.741
124.886
124.932
124.889
124.819
124.787
124.818
124.907
125.008
125.097
125.158
125.208
123.121
123.259
123.395
123.557
123.772
124.009
124.193
124.252
124.176
124.027
123.899
123.841
123.859
123.923
124
124.069
124.142
122.201
122.324
122.406
122.447
122.489
122.582
122.75
122.949
123.105
123.157
123.119
123.032
122.953
122.915
122.924
122.959
123.022
121.051
121.136
121.178
121.194
121.237
121.38
121.665
122.045
122.385
122.549
122.489
122.261
121.984
121.777
121.7
121.729
121.805
120.035
120.091
120.104
120.109
120.132
120.189
120.299
120.467
120.666
120.835
120.934
120.935
120.856
120.743
120.662
120.638
120.659
118.535
118.492
118.46
118.481
118.564
118.686
118.819
118.947
119.083
119.236
119.406
119.567
119.679
119.725
119.713
119.672
119.643
116.885
116.764
116.747
116.838
116.994
117.161
117.314
117.442
117.556
117.668
117.801
117.938
118.064
118.156
118.213
118.248
118.287
114.026
113.865
114.057
114.45
114.867
115.2
115.426
115.568
115.672
115.775
115.901
116.043
116.174
116.276
116.339
116.377
116.419
111.312
111.169
111.481
112.033
112.563
112.931
113.139
113.239
113.286
113.332
113.418
113.533
113.662
113.767
113.849
113.902
113.958
107.392
107.186
107.391
107.922
108.554
109.106
109.492
109.728
109.861
109.969
110.111
110.281
110.454
110.567
110.625
110.666
110.722
104.263
103.663
102.772
102.044
101.756
101.856
102.173
102.525
102.761
102.831
102.861
103.014
103.338
103.756
104.1
104.279
104.346
104.386
99.058
97.9538
96.1477
94.3381
93.0138
92.3122
92.1172
92.1821
92.3125
92.4004
92.4576
92.5271
92.7249
93.021
93.2379
93.3885
93.4873
93.4611
17.5161
17.5485
17.5807
17.7023
17.7492
17.8011
17.8921
17.8857
17.7534
17.5509
17.3881
17.2679
17.1982
17.112
16.9419
16.7637
16.5215
16.2219
77.4165
77.5334
77.6552
77.7886
77.9177
78.0563
78.1969
78.3507
78.4907
78.6121
78.7141
78.7886
78.8567
78.8938
78.9023
78.8841
78.8211
77.0974
77.1776
77.2842
77.3926
77.5195
77.637
77.7657
77.8975
78.0469
78.1799
78.2928
78.3664
78.4057
78.4298
78.4314
78.4374
78.4091
76.7442
76.8165
76.8978
76.9883
77.088
77.1935
77.2889
77.3797
77.4742
77.5783
77.7016
77.809
77.9002
77.9487
77.9665
77.9663
77.9574
76.2435
76.3111
76.3867
76.4641
76.54
76.6375
76.7633
76.9135
77.0565
77.1743
77.2635
77.3383
77.3973
77.4523
77.4777
77.4861
77.4782
75.7162
75.8007
75.9233
76.0347
76.1376
76.2293
76.3377
76.4988
76.6733
76.841
76.9393
76.9877
76.9842
76.9768
76.9715
76.9717
76.9884
75.268
75.3245
75.4263
75.5541
75.6814
75.7635
75.8105
75.8452
75.9256
76.0416
76.188
76.3126
76.4057
76.4418
76.4633
76.4505
76.4643
74.6437
74.6538
74.7342
74.885
75.0608
75.2018
75.2744
75.29
75.2993
75.3385
75.4426
75.5803
75.7307
75.8456
75.9232
75.9435
75.9543
74.0407
74.0998
74.2139
74.3829
74.5878
74.75
74.8528
74.8653
74.8518
74.8395
74.8673
74.959
75.0705
75.1981
75.2938
75.3529
75.3928
73.4515
73.4957
73.5503
73.6472
73.7982
73.9661
74.1054
74.1675
74.1738
74.1427
74.1429
74.1872
74.2868
74.3996
74.5157
74.6003
74.6775
72.7017
72.8048
72.9209
73.0594
73.2632
73.4728
73.6673
73.7639
73.7604
73.687
73.6011
73.5627
73.5914
73.66
73.7535
73.8266
73.9114
72.0628
72.155
72.22
72.2579
72.3089
72.3884
72.5307
72.6994
72.8575
72.933
72.9481
72.9007
72.88
72.8753
72.914
72.9657
73.0439
71.1986
71.2666
71.2806
71.3003
71.3344
71.4566
71.7021
72.0343
72.3653
72.5742
72.6067
72.4826
72.301
72.1544
72.1019
72.1207
72.1856
70.4812
70.5296
70.542
70.5575
70.5905
70.6446
70.7424
70.887
71.0769
71.2407
71.3699
71.4015
71.3955
71.3441
71.3188
71.3246
71.3647
69.3498
69.3
69.2503
69.2457
69.2987
69.3937
69.5122
69.6371
69.7742
69.9182
70.0763
70.2233
70.3464
70.4224
70.4553
70.4575
70.472
68.1738
68.0472
67.9959
68.054
68.1899
68.3495
68.5124
68.6592
68.7969
68.9043
69.0329
69.1428
69.2791
69.3731
69.455
69.5072
69.5599
66.0152
65.7533
65.7702
66.0063
66.3288
66.6303
66.8694
67.0429
67.179
67.2893
67.415
67.5433
67.6845
67.8062
67.9014
67.9734
68.0425
63.9862
63.7047
63.7959
64.1727
64.6274
65.0075
65.2791
65.4507
65.5486
65.6043
65.6811
65.7784
65.9179
66.0349
66.1562
66.2282
66.31
60.9279
60.56
60.495
60.7579
61.2058
61.675
62.0563
62.3232
62.4926
62.607
62.7335
62.8833
63.0655
63.2185
63.3392
63.4202
63.5068
58.8453
58.475
57.8426
57.275
57
57.036
57.2807
57.5942
57.825
57.9245
57.92
57.9728
58.1421
58.4264
58.7296
58.9381
59.0373
59.0969
56.0736
55.634
54.6056
53.4232
52.4745
51.926
51.7521
51.7873
51.892
51.9666
52.047
52.1068
52.2369
52.5003
52.5924
52.7806
52.8692
52.7717
19.7791
19.8478
19.8733
19.9893
20.0509
20.0971
20.184
20.1996
20.091
19.8753
19.6893
19.523
19.4193
19.3085
19.1122
18.9093
18.643
18.3035
51.6078
51.6814
51.7584
51.8533
51.9497
52.0623
52.1773
52.3105
52.4404
52.561
52.6809
52.7764
52.8781
52.9668
53.0309
53.0861
53.0867
51.4033
51.4483
51.5196
51.5898
51.6874
51.7853
51.8946
52.0049
52.1395
52.2683
52.3913
52.4913
52.561
52.6267
52.6661
52.7228
52.7395
51.1558
51.1997
51.2525
51.3138
51.3872
51.4777
51.5618
51.6423
51.7307
51.8219
51.9426
52.0546
52.1662
52.2528
52.3111
52.3587
52.3927
50.7846
50.8226
50.8694
50.9248
50.9803
51.0553
51.1508
51.2717
51.3966
51.51
51.6049
51.6927
51.7663
51.8514
51.9151
51.9653
52.006
50.4024
50.4462
50.5306
50.611
50.6936
50.7765
50.8557
50.9857
51.1298
51.2905
51.4001
51.4775
51.5037
51.5256
51.5511
51.5729
51.625
50.0788
50.1055
50.1708
50.259
50.3645
50.4419
50.4939
50.5231
50.5914
50.6874
50.8175
50.9372
51.0452
51.1028
51.1641
51.1821
51.2292
49.6169
49.6057
49.6441
49.7429
49.8762
49.9987
50.0758
50.1007
50.118
50.1454
50.2299
50.3463
50.4877
50.6067
50.7139
50.7638
50.8126
49.1608
49.1895
49.2604
49.3717
49.537
49.6771
49.789
49.8214
49.8296
49.8329
49.847
49.9225
50.0127
50.1326
50.2432
50.3173
50.3864
48.7013
48.7233
48.7541
48.8159
48.9283
49.0617
49.1899
49.2554
49.2838
49.27
49.2724
49.3058
49.3934
49.499
49.6238
49.7204
49.8206
48.1156
48.1805
48.2672
48.36
48.5239
48.6943
48.8746
48.9914
49.0274
48.9998
48.939
48.898
48.9196
48.9775
49.0778
49.1562
49.2499
47.641
47.7008
47.7479
47.7727
47.8171
47.875
47.9842
48.1149
48.2585
48.3348
48.3739
48.3413
48.3391
48.3509
48.4056
48.4673
48.5564
46.9697
47.0206
47.0191
47.0296
47.0503
47.1264
47.3037
47.5615
47.8494
48.0678
48.1607
48.1112
47.9963
47.8888
47.8533
47.8652
47.9296
46.4246
46.4562
46.457
46.4635
46.4943
46.5388
46.6198
46.7322
46.8979
47.0361
47.1674
47.2072
47.2309
47.2178
47.2245
47.2484
47.3102
45.5512
45.5019
45.441
45.4113
45.4351
45.5016
45.5984
45.7042
45.8255
45.944
46.0755
46.1948
46.3061
46.3903
46.452
46.4804
46.5274
44.6762
44.5494
44.4645
44.4738
44.5715
44.7061
44.8591
45.0013
45.1467
45.241
45.356
45.4341
45.5555
45.6488
45.7396
45.8044
45.8725
43.089
42.7921
42.6837
42.7749
42.9896
43.232
43.4524
43.6256
43.7708
43.8743
43.9855
44.0862
44.2097
44.3308
44.4384
44.5264
44.618
41.5747
41.2428
41.1616
41.3504
41.6833
42.0178
42.2951
42.4978
42.6296
42.6931
42.7548
42.8176
42.9376
43.0443
43.177
43.262
43.3571
39.3852
39.0209
38.8164
38.8647
39.1117
39.4399
39.7488
39.9901
40.1577
40.2598
40.3513
40.4484
40.5911
40.7295
40.8638
40.9603
41.0541
38.1176
38.0119
37.6926
37.3442
37.1367
37.129
37.2814
37.5167
37.7073
37.818
37.8097
37.8042
37.8511
37.9909
38.193
38.3671
38.4637
38.5203
37.2593
37.289
36.8412
36.1448
35.4858
35.0408
34.86
34.8527
34.9222
34.9634
35.0442
35.072
35.1588
35.3335
35.356
35.4944
35.5657
35.4578
21.775
21.8941
21.9148
22.0093
22.0787
22.117
22.1914
22.2224
22.1512
21.9385
21.7389
21.5185
21.3768
21.2376
21.0171
20.7951
20.513
20.1443
36.7445
36.7845
36.8239
36.8815
36.9421
37.0226
37.1055
37.2063
37.312
37.4096
37.5204
37.6116
37.7097
37.8135
37.8963
37.9908
38.027
36.6075
36.6267
36.6686
36.7055
36.7678
36.8384
36.9223
37.0032
37.1084
37.2155
37.3229
37.4232
37.4949
37.5748
37.6251
37.7059
37.7473
36.4276
36.4478
36.4751
36.5094
36.5514
36.6175
36.6853
36.7468
36.8206
36.8892
36.988
37.0843
37.1855
37.2815
37.353
37.4222
37.4795
36.1431
36.1576
36.1803
36.2141
36.247
36.2969
36.3616
36.4492
36.5475
36.6429
36.7257
36.8079
36.8739
36.9594
37.0373
37.1047
37.1734
35.8567
35.871
35.9224
35.9774
36.0323
36.1005
36.1503
36.2432
36.3486
36.4854
36.5873
36.6716
36.7101
36.7399
36.7803
36.8066
36.8761
35.6158
35.6161
35.6494
35.7019
35.7804
35.8457
35.8961
35.9163
35.9646
36.0349
36.1385
36.2369
36.3409
36.3983
36.4744
36.5075
36.5706
35.2656
35.2383
35.243
35.2966
35.3893
35.4882
35.564
35.5906
35.6087
35.6208
35.678
35.7627
35.8828
35.9863
36.1014
36.1655
36.2356
34.9078
34.9107
34.9473
35.0062
35.1276
35.2386
35.3443
35.3879
35.4012
35.4135
35.413
35.4651
35.5316
35.6266
35.738
35.8149
35.9012
34.5356
34.5377
34.5479
34.5759
34.6506
34.7475
34.8602
34.9244
34.9618
34.9586
34.9566
34.9713
35.0365
35.1212
35.2391
35.3327
35.4462
34.0681
34.0984
34.1588
34.2083
34.3242
34.4519
34.6018
34.7227
34.7801
34.7818
34.7437
34.6973
34.7049
34.7414
34.8343
34.9112
35.0097
33.6974
33.7259
33.7562
33.7656
33.7976
33.8346
33.9131
34.0066
34.1295
34.1979
34.249
34.2253
34.2226
34.2345
34.2913
34.3521
34.4469
33.1602
33.1932
33.185
33.1832
33.1942
33.2304
33.3412
33.5218
33.7503
33.9496
34.0744
34.0796
34.0156
33.9341
33.9091
33.9126
33.9762
32.7285
32.7413
32.7302
32.7202
32.7401
32.7713
32.8363
32.917
33.0552
33.1643
33.2865
33.3289
33.3588
33.3626
33.384
33.411
33.487
32.0416
31.9984
31.9367
31.8899
31.8886
31.9281
32.0027
32.0857
32.1871
32.2782
32.3818
32.4716
32.5603
32.6343
32.7067
32.7448
32.8124
31.3891
31.2728
31.1694
31.1331
31.1842
31.2823
31.4126
31.5349
31.676
31.7588
31.8618
31.9164
32.0098
32.0916
32.1772
32.2412
32.3207
30.2653
29.9913
29.8192
29.7992
29.9101
30.0804
30.2618
30.4137
30.5522
30.6444
30.7401
30.814
30.9075
31.0098
31.1111
31.1947
31.2975
29.1867
28.8839
28.7129
28.7483
28.9456
29.1974
29.4364
29.6306
29.7739
29.8463
29.9005
29.9335
30.0177
30.0966
30.213
30.2951
30.3904
27.7734
27.5112
27.2971
27.2334
27.3287
27.5185
27.7293
27.9112
28.0504
28.1324
28.1916
28.236
28.32
28.4121
28.5197
28.6047
28.6864
27.1393
27.2402
27.198
27.0717
26.9649
26.9527
27.0378
27.1966
27.3329
27.4348
27.4336
27.408
27.3876
27.4203
27.5209
27.633
27.7028
27.7431
27.5916
27.9043
27.8655
27.5411
27.1152
26.7524
26.5562
26.5028
26.5353
26.5444
26.6181
26.6171
26.68
26.7705
26.7496
26.8274
26.8656
26.7657
23.5851
23.7668
23.7943
23.8576
23.9248
23.9553
24.0119
24.0453
24.0157
23.8161
23.6207
23.3467
23.1649
22.9921
22.7435
22.5053
22.2121
21.8225
27.3327
27.3506
27.3646
27.3937
27.4242
27.4751
27.5294
27.5976
27.677
27.7456
27.8338
27.9105
27.9878
28.0839
28.1609
28.2669
28.3157
27.2331
27.2361
27.2578
27.2726
27.3046
27.3477
27.4074
27.462
27.5357
27.6164
27.6979
27.7859
27.8453
27.923
27.9676
28.0517
28.101
27.0984
27.1023
27.1109
27.1264
27.1425
27.182
27.233
27.2748
27.3322
27.3796
27.4516
27.5272
27.6049
27.6931
27.7606
27.8319
27.8948
26.875
26.8728
26.8779
26.8954
26.91
26.9386
26.9778
27.0356
27.1066
27.1809
27.2451
27.315
27.3665
27.4369
27.5117
27.5785
27.6566
26.652
26.6485
26.6738
26.7112
26.741
26.7937
26.8217
26.8823
26.9503
27.0566
27.1414
27.2207
27.2634
27.2901
27.335
27.3559
27.4262
26.4697
26.4523
26.4614
26.4857
26.538
26.5877
26.6334
26.6476
26.6772
26.723
26.8004
26.8732
26.9656
27.0136
27.088
27.1235
27.188
26.1971
26.1621
26.1451
26.1641
26.2217
26.2946
26.3649
26.3916
26.4099
26.4114
26.4447
26.4969
26.5922
26.6718
26.7784
26.8437
26.9215
25.9084
25.895
25.9095
25.9294
26.0097
26.0905
26.1803
26.2301
26.2422
26.2595
26.2513
26.2814
26.329
26.3935
26.4935
26.563
26.6528
25.6031
25.5904
25.5867
25.589
25.6323
25.6948
25.7876
25.8482
25.8881
25.8937
25.8906
25.8898
25.9327
25.9915
26.0927
26.1713
26.2844
25.2258
25.2293
25.2694
25.2884
25.3608
25.4489
25.5615
25.6726
25.7392
25.7585
25.7434
25.6985
25.6952
25.709
25.7839
25.85
25.9466
24.9294
24.9328
24.9489
24.9452
24.9639
24.9835
25.0374
25.0989
25.1993
25.2559
25.3124
25.3002
25.2947
25.2986
25.348
25.3977
25.4901
24.4911
24.5074
24.4986
24.4865
24.4913
24.5027
24.5631
24.6773
24.8449
25.0065
25.1376
25.1796
25.1571
25.0969
25.0791
25.0731
25.1311
24.145
24.1433
24.1254
24.1013
24.1072
24.1231
24.1734
24.2269
24.3383
24.4202
24.5273
24.5728
24.6021
24.6098
24.635
24.6538
24.7318
23.6018
23.5679
23.5148
23.4619
23.4428
23.4586
23.5125
23.5735
23.6561
23.7236
23.8032
23.8686
23.9339
23.988
24.0565
24.0907
24.1653
23.1312
23.0363
22.9339
22.8679
22.8754
22.9325
23.0328
23.127
23.2525
23.3237
23.4161
23.4589
23.5247
23.5878
23.6594
23.7097
23.791
22.3772
22.1623
21.9814
21.8952
21.9215
22.0197
22.1526
22.2714
22.3914
22.4692
22.5504
22.6047
22.6687
22.7437
22.8263
22.8906
22.9895
21.6757
21.4468
21.2622
21.2051
21.2868
21.4461
21.6234
21.7814
21.9115
21.9853
22.0362
22.0531
22.1017
22.1477
22.2314
22.295
22.3775
20.8904
20.752
20.6027
20.5172
20.5308
20.6206
20.7437
20.8603
20.9585
21.0166
21.0513
21.0591
21.0896
21.1308
21.1933
21.2494
21.3054
20.7279
20.9467
21.1049
21.1687
21.1721
21.185
21.2342
21.3349
21.4193
21.4995
21.5039
21.4769
21.4313
21.4004
21.4238
21.4745
21.5088
21.5253
22.0499
22.499
22.7378
22.7062
22.4838
22.2024
21.9946
21.895
21.8856
21.8641
21.923
21.9025
21.9494
21.9773
21.9252
21.9485
21.9475
21.8529
25.2415
25.4897
25.5403
25.5715
25.6243
25.6458
25.6838
25.7039
25.7118
25.5276
25.3573
25.0386
24.818
24.6093
24.3251
24.0697
23.7685
23.3647
20.9809
20.986
20.9857
20.9971
21.0068
21.0345
21.0672
21.1084
21.1657
21.2093
21.2715
21.332
21.3853
21.4638
21.5232
21.623
21.6694
20.9023
20.8967
20.906
20.9094
20.9212
20.9416
20.981
21.016
21.0637
21.1209
21.1759
21.2475
21.2901
21.3582
21.3906
21.4654
21.5115
20.7995
20.7944
20.791
20.7957
20.7959
20.8124
20.848
20.8734
20.9158
20.9477
20.9954
21.0524
21.1055
21.1787
21.2347
21.2975
21.3541
20.6224
20.6099
20.6032
20.6101
20.6125
20.6259
20.647
20.6819
20.7296
20.785
20.8305
20.8872
20.9254
20.9769
21.04
21.0965
21.1706
20.4411
20.4297
20.4363
20.4628
20.4744
20.5133
20.5279
20.5657
20.6038
20.6803
20.745
20.8126
20.8563
20.8764
20.9205
20.9338
20.994
20.302
20.2769
20.2704
20.2751
20.3057
20.3395
20.3786
20.3907
20.4073
20.4332
20.4889
20.5378
20.6164
20.6542
20.7195
20.751
20.808
20.0846
20.0494
20.0222
20.0184
20.0489
20.0967
20.1579
20.1844
20.2038
20.2011
20.2193
20.2444
20.3164
20.3724
20.4616
20.5197
20.5957
19.8462
19.8261
19.8294
19.8256
19.8729
19.9266
19.9954
20.0473
20.0578
20.077
20.0679
20.0808
20.1161
20.1543
20.2365
20.2933
20.3765
19.5972
19.5763
19.5654
19.5516
19.5722
19.6064
19.6766
19.7316
19.7707
19.7834
19.784
19.7747
19.8011
19.8363
19.918
19.9765
20.0775
19.2908
19.2779
19.3033
19.3051
19.3446
19.4012
19.4777
19.5694
19.6364
19.6639
19.6687
19.6326
19.6256
19.6226
19.677
19.7261
19.8139
19.0526
19.0402
19.0462
19.0339
19.0415
19.0478
19.0836
19.1201
19.1992
19.2429
19.2987
19.2995
19.296
19.2921
19.3312
19.3649
19.4472
18.6921
18.6956
18.6899
18.6723
18.673
18.6723
18.7009
18.7658
18.8814
18.9994
19.117
19.1774
19.1872
19.1471
19.1368
19.123
19.1716
18.4169
18.4074
18.389
18.3581
18.3526
18.3538
18.3903
18.4224
18.5095
18.5682
18.656
18.7031
18.7325
18.739
18.7636
18.7698
18.8392
17.9926
17.9697
17.9307
17.8818
17.8538
17.8508
17.8861
17.9271
17.993
18.042
18.1022
18.1496
18.1962
18.2292
18.2858
18.3081
18.3774
17.6759
17.6096
17.5237
17.4478
17.4236
17.4427
17.5106
17.5748
17.6766
17.7342
17.8135
17.8515
17.8971
17.9404
17.9952
18.0257
18.098
17.2135
17.0702
16.9168
16.8063
16.776
16.813
16.8968
16.9788
17.0728
17.1335
17.1996
17.2406
17.2817
17.3298
17.3894
17.4288
17.5104
16.8318
16.6857
16.5342
16.4431
16.4481
16.5279
16.6404
16.7516
16.8513
16.9155
16.9596
16.9706
16.9922
17.0104
17.0587
17.0957
17.1555
16.5211
16.4811
16.4167
16.362
16.3515
16.386
16.4478
16.5104
16.5677
16.6017
16.617
16.6048
16.5978
16.599
16.6171
16.64
16.6643
16.7088
16.9613
17.2344
17.4404
17.5486
17.6055
17.645
17.708
17.7501
17.8023
17.8062
17.7819
17.7345
17.6732
17.6461
17.647
17.6481
17.6371
18.6342
19.1065
19.5124
19.7083
19.6733
19.486
19.281
19.1413
19.0847
19.032
19.0657
19.0325
19.0651
19.0525
18.9776
18.9546
18.9145
18.8153
26.7572
27.0642
27.1521
27.1602
27.1892
27.1971
27.2195
27.2123
27.2477
27.0729
26.9435
26.5974
26.3415
26.1013
25.7738
25.4951
25.1879
24.7755
16.4891
16.4874
16.4807
16.4832
16.4814
16.4932
16.5117
16.5334
16.5742
16.601
16.6403
16.6865
16.7199
16.7798
16.8196
16.9046
16.9415
16.4234
16.4139
16.4161
16.4154
16.4172
16.422
16.4456
16.4675
16.4967
16.5368
16.5699
16.6258
16.6529
16.7096
16.7299
16.7904
16.8284
16.3436
16.3348
16.3248
16.3242
16.3179
16.3181
16.3409
16.3544
16.384
16.4066
16.4355
16.4785
16.5115
16.5685
16.6118
16.663
16.7087
16.2029
16.1852
16.1715
16.1722
16.1682
16.1721
16.182
16.2014
16.2312
16.2721
16.3021
16.3467
16.3758
16.4109
16.4605
16.5039
16.5676
16.0489
16.0367
16.0312
16.0512
16.0522
16.0799
16.0873
16.1114
16.1296
16.1815
16.2274
16.2802
16.3231
16.3371
16.3779
16.3861
16.4329
15.9416
15.9167
15.9024
15.8954
15.9103
15.9303
15.9615
15.9734
15.9836
15.9956
16.0353
16.0647
16.1291
16.1587
16.2135
16.2395
16.2867
15.7647
15.7339
15.7054
15.6892
15.7016
15.7281
15.7777
15.803
15.8239
15.8217
15.8335
15.8398
15.8925
15.9296
15.9997
16.0461
16.1153
15.5637
15.544
15.5438
15.5291
15.5532
15.5863
15.6334
15.683
15.6931
15.7119
15.7069
15.7078
15.7357
15.7556
15.8193
15.8626
15.9342
15.3635
15.3406
15.3277
15.3061
15.3125
15.3268
15.3747
15.422
15.4582
15.4755
15.4826
15.4712
15.4881
15.5053
15.5692
15.609
15.692
15.1138
15.0945
15.1099
15.1044
15.1226
15.1568
15.2042
15.2724
15.3336
15.3623
15.3811
15.3569
15.3522
15.3406
15.3782
15.4093
15.4839
14.9234
14.9047
14.9053
14.8891
14.8893
14.8867
14.9096
14.928
14.9886
15.0202
15.07
15.0812
15.0841
15.0764
15.1071
15.1255
15.1935
14.6287
14.625
14.6237
14.606
14.6044
14.5988
14.6108
14.6427
14.7194
14.7979
14.8912
14.9537
14.9846
14.9627
14.961
14.9434
14.9817
14.4156
14.4049
14.3909
14.3609
14.3495
14.3396
14.3634
14.3792
14.445
14.4856
14.5521
14.5965
14.6264
14.6307
14.6539
14.6492
14.704
14.0968
14.0853
14.0623
14.024
13.9953
13.9798
13.9991
14.0224
14.0728
14.1074
14.1518
14.1857
14.2189
14.2344
14.2768
14.285
14.3408
13.9106
13.8753
13.8148
13.7454
13.7047
13.6948
13.7318
13.7687
13.8431
13.8854
13.948
13.9816
14.0139
14.0401
14.0792
14.0905
14.146
13.6793
13.6026
13.4929
13.3883
13.3294
13.3223
13.3628
13.4101
13.4753
13.5174
13.5666
13.5969
13.6216
13.648
13.6858
13.7024
13.7592
13.5616
13.4847
13.383
13.2976
13.2652
13.29
13.3481
13.4148
13.478
13.5249
13.5555
13.5643
13.5673
13.5663
13.5853
13.5962
13.6285
13.5958
13.6122
13.6181
13.6125
13.6133
13.6283
13.6557
13.6819
13.705
13.7177
13.7159
13.6951
13.6654
13.6416
13.6256
13.6202
13.613
14.0564
14.2777
14.5841
14.8753
15.0711
15.182
15.2324
15.2768
15.289
15.3122
15.3098
15.2847
15.2447
15.1744
15.119
15.0836
15.0588
15.0196
16.4439
16.8553
17.3234
17.675
17.806
17.7286
17.5492
17.3843
17.2798
17.1946
17.1927
17.1472
17.1647
17.1292
17.0397
16.98
16.9059
16.7903
28.1408
28.491
28.6234
28.6242
28.6276
28.6158
28.6262
28.5824
28.6333
28.4571
28.3715
28.0216
27.7334
27.4723
27.1004
26.7862
26.4715
26.0569
13.1912
13.1862
13.1774
13.1769
13.1708
13.1731
13.1835
13.1925
13.2212
13.2391
13.2616
13.2965
13.3165
13.3609
13.3841
13.4527
13.4787
13.1347
13.1239
13.1221
13.1206
13.1198
13.1163
13.1286
13.1421
13.1591
13.1886
13.2062
13.2495
13.2645
13.3106
13.322
13.3686
13.3975
13.0712
13.062
13.0494
13.0459
13.0394
13.0307
13.0439
13.0494
13.0685
13.0862
13.1023
13.1357
13.1547
13.1974
13.2296
13.2701
13.3054
12.959
12.9404
12.9231
12.9204
12.9139
12.9126
12.9164
12.9268
12.9438
12.9745
12.9935
13.0277
13.051
13.0747
13.1122
13.1437
13.1958
12.8237
12.8144
12.8026
12.8184
12.8148
12.8338
12.8377
12.8547
12.8618
12.8958
12.9271
12.9648
13.005
13.0144
13.0508
13.0571
13.0926
12.7389
12.7191
12.7031
12.6906
12.6955
12.705
12.7279
12.7396
12.748
12.7517
12.781
12.7961
12.847
12.8697
12.9151
12.9364
12.9754
12.5933
12.5691
12.5443
12.5235
12.5256
12.5365
12.5736
12.5962
12.618
12.6182
12.6298
12.6256
12.6634
12.6871
12.7402
12.7743
12.8347
12.4215
12.4058
12.4064
12.3897
12.3995
12.4188
12.447
12.4904
12.5011
12.518
12.5193
12.5132
12.5361
12.545
12.5929
12.6241
12.6835
12.2632
12.2427
12.2315
12.2081
12.2067
12.2094
12.2381
12.2759
12.3079
12.3267
12.3404
12.3309
12.3438
12.3491
12.3984
12.424
12.4886
12.0599
12.0418
12.0512
12.0444
12.0505
12.0704
12.0975
12.143
12.1947
12.2201
12.2461
12.2332
12.2337
12.2199
12.2464
12.2626
12.3226
11.9107
11.8926
11.8918
11.8761
11.8726
11.8651
11.8793
11.8853
11.9301
11.9516
11.9922
12.0086
12.0189
12.0111
12.0363
12.0438
12.0969
11.6763
11.6698
11.673
11.6591
11.6572
11.6506
11.6553
11.667
11.7165
11.7644
11.8311
11.8844
11.9248
11.9169
11.924
11.9069
11.9361
11.5197
11.512
11.5051
11.4819
11.4704
11.4547
11.4678
11.4716
11.5186
11.5456
11.5919
11.6282
11.6572
11.6591
11.6802
11.6693
11.7084
11.2986
11.2981
11.2904
11.266
11.2424
11.2211
11.2276
11.2358
11.2711
11.2938
11.3245
11.3473
11.3706
11.3731
11.4019
11.3982
11.4367
11.2231
11.2167
11.1841
11.1319
11.0881
11.0611
11.0721
11.0862
11.1332
11.1601
11.2036
11.2298
11.2522
11.2649
11.29
11.2869
11.3223
11.1773
11.153
11.0885
11.0066
10.9411
10.9084
10.9148
10.9332
10.97
10.9941
11.025
11.0447
11.0572
11.0676
11.0865
11.0865
11.1167
11.272
11.2423
11.1871
11.1263
11.0858
11.0809
11.1001
11.1323
11.1609
11.1884
11.2005
11.206
11.1963
11.1834
11.1813
11.1724
11.1771
11.5538
11.5868
11.6333
11.6714
11.6987
11.7176
11.7321
11.7389
11.737
11.7332
11.7151
11.6911
11.6494
11.6132
11.5747
11.55
11.5153
12.2432
12.3954
12.6673
12.9812
13.2336
13.3984
13.475
13.5183
13.515
13.5125
13.5003
13.4688
13.4362
13.3685
13.3016
13.2418
13.2008
13.1356
15.0278
15.3289
15.7646
16.1842
16.4386
16.4753
16.3458
16.179
16.0346
15.918
15.8745
15.8107
15.8102
15.7632
15.6666
15.5815
15.4836
15.3426
29.4006
29.7789
29.9561
29.967
29.9524
29.917
29.919
29.8353
29.8886
29.7023
29.6464
29.3184
28.9995
28.728
28.3226
27.9594
27.6283
27.2185
10.692
10.6855
10.6767
10.6756
10.6698
10.6673
10.6736
10.6756
10.6953
10.7094
10.7213
10.7478
10.7598
10.7932
10.8047
10.8583
10.8752
10.6425
10.6322
10.6281
10.6265
10.6267
10.6206
10.6256
10.634
10.6432
10.6664
10.6746
10.7085
10.7156
10.7526
10.7586
10.7937
10.8148
10.5907
10.5827
10.5702
10.5648
10.5606
10.5486
10.5554
10.5567
10.5672
10.5823
10.5904
10.6175
10.628
10.6594
10.6826
10.7142
10.7416
10.5005
10.4836
10.4655
10.4609
10.4541
10.4504
10.4512
10.4571
10.4656
10.4892
10.5012
10.5269
10.5466
10.563
10.5912
10.6134
10.6553
10.3794
10.374
10.3602
10.3727
10.3684
10.3814
10.3833
10.3969
10.399
10.4213
10.4427
10.4671
10.5031
10.5095
10.5406
10.5469
10.5751
10.3103
10.2972
10.2834
10.2697
10.2691
10.2717
10.287
10.2975
10.3062
10.3057
10.3287
10.3349
10.3736
10.3904
10.4272
10.4446
10.4784
10.1906
10.1729
10.1541
10.1336
10.131
10.132
10.1576
10.1761