/*--------------------------------*- C++ -*----------------------------------*\
  =========                 |
  \\      /  F ield         | OpenFOAM: The Open Source CFD Toolbox
   \\    /   O peration     | Website:  https://openfoam.org
    \\  /    A nd           | Version:  6
     \\/     M anipulation  |
\*---------------------------------------------------------------------------*/
FoamFile
{
    version     2.0;
    format      ascii;
    class       volScalarField;
    location    "1.2";
    object      p;
}
// * * * * * * * * * * * * * * * * * * * * * * * * * * * * * * * * * * * * * //

dimensions      [0 2 -2 0 0 0 0];

internalField   nonuniform List<scalar> 
63280
(
0.00428397
0.00391454
0.00355961
0.00322192
0.00290439
0.00260947
0.002339
0.00209363
0.00187526
0.00168575
0.0015255
0.00139441
0.00129078
0.00121372
0.00116074
0.00113083
0.00112088
0.00435525
0.00400989
0.00367737
0.00336024
0.00306087
0.00278127
0.00252279
0.00228671
0.002074
0.0018867
0.00172465
0.00158846
0.00147658
0.00138882
0.00132326
0.00127893
0.00125372
0.0044451
0.00411734
0.00380114
0.0034987
0.00321224
0.00294335
0.00269372
0.00246453
0.00225695
0.00207247
0.0019111
0.00177327
0.00165782
0.00156426
0.00149104
0.00143696
0.0014004
0.00451164
0.00420088
0.00390063
0.00361286
0.00333949
0.00308214
0.00284205
0.00262042
0.00241834
0.00223702
0.00207659
0.00193709
0.0018182
0.0017189
0.00163847
0.00157533
0.0015287
0.00458254
0.00428541
0.00399763
0.00372154
0.00345831
0.00320959
0.00297625
0.00275984
0.00256152
0.00238227
0.00222275
0.00208238
0.00196134
0.00185812
0.00177247
0.00170273
0.00164833
0.00464085
0.00435685
0.0040813
0.00381588
0.00356219
0.00332145
0.00309508
0.00288433
0.00269016
0.0025131
0.0023541
0.00221269
0.00208903
0.00198208
0.00189115
0.00181505
0.00175325
0.00469819
0.00442448
0.00415826
0.00390103
0.00365464
0.00342062
0.00320028
0.00299436
0.00280413
0.00262987
0.00247245
0.00233126
0.00220645
0.0020971
0.00200273
0.00192201
0.00185478
0.0047463
0.0044823
0.00422526
0.00397641
0.00373717
0.00350868
0.00329215
0.00308947
0.00290129
0.00272845
0.00257148
0.00242987
0.00230375
0.00219182
0.0020941
0.00200921
0.00193727
0.00478963
0.00453274
0.00428203
0.00403869
0.00380424
0.00358018
0.00336787
0.00316857
0.00298346
0.00281314
0.00265815
0.00251774
0.00239157
0.00227847
0.00217823
0.00208978
0.00201327
0.00482327
0.00457222
0.00432699
0.00408881
0.00385893
0.0036385
0.0034286
0.00323088
0.0030466
0.00287665
0.00272181
0.00258145
0.00245517
0.0023414
0.00223983
0.00214941
0.00207034
0.00485544
0.00460868
0.00436705
0.00413223
0.00390554
0.00368785
0.00348037
0.00328423
0.00310126
0.0029324
0.00277869
0.00263956
0.00251399
0.00240037
0.00229787
0.00220552
0.00212363
0.00488111
0.00463787
0.00439922
0.00416724
0.00394379
0.00372927
0.00352437
0.00332958
0.00314686
0.0029778
0.00282369
0.00268435
0.00255885
0.00244514
0.00234229
0.00224888
0.00216534
0.00490584
0.0046652
0.00442849
0.00419837
0.00397662
0.00376352
0.0035598
0.00336599
0.00318379
0.00301466
0.00286044
0.00272113
0.00259587
0.00248266
0.00237995
0.00228621
0.00220145
0.00492604
0.00468681
0.00445091
0.00422183
0.00400197
0.00379197
0.00359134
0.00339965
0.00321833
0.00304917
0.00289409
0.00275367
0.0026275
0.00251374
0.00241096
0.00231709
0.00223188
0.00494518
0.00470707
0.00447161
0.00424317
0.00402425
0.00381473
0.00361406
0.00342219
0.00324046
0.00307078
0.00291541
0.00277482
0.0026488
0.00253536
0.0024327
0.00233886
0.00225305
0.00496302
0.00472398
0.00448689
0.00425766
0.00403964
0.00383288
0.00363525
0.00344535
0.0032644
0.00309463
0.00293851
0.00279694
0.00267012
0.00255615
0.00245317
0.00235896
0.00227259
0.00497773
0.00473866
0.00450021
0.00426978
0.00405158
0.00384487
0.003647
0.00345678
0.00327555
0.00310562
0.00294934
0.00280792
0.00268141
0.00256773
0.00246526
0.00237103
0.00228422
0.0049898
0.00474785
0.004507
0.0042762
0.00405954
0.00385574
0.00366024
0.00347104
0.00328994
0.00311931
0.00296253
0.00282022
0.00269324
0.00257955
0.00247685
0.00238226
0.00229514
0.00523104
0.00499702
0.00475405
0.00451095
0.00427827
0.00406099
0.00385774
0.0036628
0.00347402
0.00329353
0.0031232
0.00296646
0.0028243
0.00269763
0.00258406
0.00248195
0.00238758
0.00229967
0.00523511
0.00499944
0.00475674
0.00451631
0.00428803
0.00407375
0.00387189
0.0036745
0.00348345
0.00330086
0.00312808
0.00297234
0.00282793
0.00270092
0.00258842
0.00248483
0.00239001
0.00230398
0.00524487
0.00500893
0.00476297
0.00451709
0.0042832
0.00406583
0.00386546
0.00367207
0.00348326
0.00330175
0.00312924
0.00297273
0.00282854
0.00270073
0.00258719
0.00248349
0.0023878
0.00230048
0.00428439
0.00391491
0.00355991
0.00322214
0.00290452
0.00260949
0.00233889
0.00209338
0.00187494
0.00168538
0.00152507
0.00139393
0.00129026
0.00121316
0.00116018
0.00113027
0.00112037
0.00435547
0.00401007
0.0036775
0.00336032
0.00306089
0.00278122
0.00252266
0.0022865
0.00207374
0.00188641
0.00172436
0.00158814
0.00147626
0.00138849
0.00132292
0.00127856
0.00125335
0.00444526
0.00411747
0.00380125
0.00349878
0.00321229
0.00294335
0.00269366
0.00246443
0.00225681
0.0020723
0.0019109
0.00177303
0.00165756
0.001564
0.00149078
0.0014367
0.00140015
0.00451179
0.00420101
0.00390074
0.00361296
0.00333956
0.00308216
0.00284202
0.00262033
0.00241823
0.00223688
0.00207643
0.0019369
0.00181799
0.00171866
0.00163822
0.00157508
0.00152845
0.00458266
0.00428551
0.0039977
0.00372157
0.00345834
0.00320958
0.00297621
0.00275975
0.00256139
0.00238211
0.00222259
0.00208222
0.00196119
0.00185798
0.00177231
0.00170258
0.00164816
0.00464095
0.00435694
0.00408135
0.00381591
0.00356219
0.00332144
0.00309507
0.00288432
0.00269014
0.00251305
0.00235401
0.00221257
0.00208889
0.00198194
0.001891
0.00181491
0.00175311
0.00469828
0.00442458
0.00415833
0.00390106
0.00365463
0.00342058
0.00320024
0.00299434
0.00280412
0.00262987
0.00247243
0.00233121
0.00220637
0.00209699
0.0020026
0.00192187
0.00185464
0.00474637
0.00448238
0.00422531
0.00397643
0.00373716
0.00350864
0.0032921
0.00308943
0.00290127
0.00272843
0.00257146
0.00242984
0.0023037
0.00219175
0.00209401
0.00200911
0.00193716
0.00478969
0.00453279
0.00428208
0.00403872
0.00380424
0.00358015
0.00336781
0.0031685
0.0029834
0.0028131
0.00265811
0.0025177
0.00239153
0.00227841
0.00217817
0.00208971
0.00201319
0.00482332
0.00457226
0.00432702
0.00408884
0.00385894
0.00363847
0.00342854
0.00323081
0.00304654
0.0028766
0.00272176
0.00258141
0.00245512
0.00234135
0.00223977
0.00214934
0.00207027
0.00485549
0.00460871
0.00436707
0.00413226
0.00390557
0.00368787
0.00348038
0.00328421
0.00310121
0.00293233
0.00277861
0.00263949
0.00251392
0.00240031
0.00229782
0.00220547
0.00212357
0.00488115
0.00463789
0.00439923
0.00416726
0.00394383
0.00372933
0.00352441
0.00332958
0.0031468
0.00297769
0.00282356
0.00268423
0.00255875
0.00244507
0.00234223
0.00224883
0.00216527
0.00490587
0.00466522
0.00442851
0.00419839
0.00397663
0.00376353
0.00355982
0.00336601
0.00318379
0.00301464
0.00286038
0.00272105
0.00259579
0.00248258
0.00237989
0.00228615
0.00220137
0.00492606
0.00468683
0.00445093
0.00422185
0.00400198
0.00379198
0.00359136
0.00339969
0.00321838
0.0030492
0.00289411
0.00275365
0.00262746
0.00251368
0.00241089
0.00231702
0.00223182
0.00494523
0.00470712
0.00447166
0.00424319
0.00402425
0.00381472
0.00361406
0.00342221
0.00324049
0.0030708
0.0029154
0.0027748
0.00264876
0.00253531
0.00243264
0.0023388
0.002253
0.00496312
0.00472408
0.00448696
0.00425768
0.00403963
0.00383286
0.00363525
0.00344537
0.00326444
0.00309467
0.00293853
0.00279693
0.00267009
0.00255611
0.00245312
0.00235892
0.00227254
0.00497784
0.00473878
0.00450028
0.00426979
0.00405155
0.00384484
0.00364699
0.00345679
0.00327556
0.00310563
0.00294933
0.00280789
0.00268137
0.00256768
0.00246521
0.00237099
0.00228417
0.00498989
0.00474793
0.00450706
0.00427624
0.00405956
0.00385576
0.00366027
0.00347108
0.00328997
0.00311933
0.00296253
0.0028202
0.0026932
0.0025795
0.00247681
0.00238223
0.00229511
0.00523104
0.00499699
0.00475401
0.00451091
0.00427825
0.004061
0.00385779
0.00366287
0.00347409
0.00329357
0.00312323
0.00296647
0.00282428
0.0026976
0.00258402
0.00248191
0.00238754
0.00229963
0.00523497
0.00499928
0.00475657
0.00451617
0.00428792
0.00407369
0.00387187
0.00367452
0.0034835
0.00330091
0.00312812
0.00297237
0.00282799
0.00270096
0.00258848
0.00248492
0.00239003
0.00230403
0.00524489
0.00500843
0.00476227
0.00451658
0.00428309
0.00406602
0.00386571
0.00367229
0.00348341
0.00330181
0.00312921
0.00297267
0.00282857
0.00270085
0.00258736
0.00248369
0.00238799
0.00230063
0.00428438
0.00391491
0.00355992
0.00322217
0.00290457
0.00260955
0.00233896
0.00209348
0.00187505
0.0016855
0.00152518
0.00139402
0.00129033
0.0012132
0.00116021
0.00113026
0.00112035
0.00435548
0.0040101
0.00367754
0.00336036
0.00306094
0.00278127
0.00252272
0.00228659
0.00207383
0.00188646
0.00172438
0.00158812
0.00147623
0.00138844
0.00132286
0.00127848
0.00125325
0.0044453
0.00411751
0.00380129
0.00349882
0.00321234
0.00294338
0.00269368
0.00246447
0.00225687
0.00207238
0.00191096
0.00177306
0.00165757
0.00156397
0.00149075
0.00143666
0.0014001
0.00451181
0.00420102
0.00390075
0.00361297
0.0033396
0.00308222
0.00284207
0.00262038
0.00241826
0.00223691
0.00207645
0.0019369
0.00181798
0.00171864
0.00163817
0.00157503
0.00152837
0.00458274
0.00428558
0.00399775
0.0037216
0.00345838
0.00320963
0.00297629
0.00275983
0.00256144
0.00238212
0.00222256
0.00208217
0.00196113
0.00185792
0.00177225
0.00170253
0.00164809
0.004641
0.00435701
0.00408141
0.00381595
0.00356221
0.00332144
0.00309506
0.00288434
0.00269018
0.0025131
0.00235404
0.00221257
0.00208885
0.00198189
0.00189093
0.00181484
0.00175304
0.00469832
0.00442464
0.00415841
0.00390112
0.00365465
0.00342056
0.0032002
0.00299431
0.00280412
0.0026299
0.00247248
0.00233124
0.00220637
0.00209698
0.00200255
0.00192181
0.00185457
0.00474642
0.00448245
0.00422539
0.00397651
0.0037372
0.00350864
0.00329208
0.00308941
0.00290128
0.00272844
0.00257149
0.00242985
0.00230369
0.00219173
0.00209395
0.00200905
0.00193707
0.00478972
0.00453282
0.00428212
0.00403879
0.00380429
0.00358017
0.00336777
0.00316844
0.00298334
0.00281305
0.00265809
0.00251769
0.00239153
0.00227841
0.00217815
0.00208968
0.00201314
0.00482337
0.0045723
0.00432706
0.00408892
0.00385902
0.00363853
0.00342855
0.00323076
0.00304649
0.00287654
0.00272171
0.00258137
0.00245508
0.00234132
0.00223972
0.00214929
0.00207021
0.00485555
0.00460875
0.00436708
0.00413227
0.00390561
0.00368793
0.00348043
0.00328423
0.00310118
0.00293227
0.00277851
0.00263939
0.00251386
0.00240025
0.00229778
0.00220543
0.00212354
0.00488118
0.0046379
0.00439923
0.00416728
0.00394389
0.00372946
0.00352456
0.0033297
0.00314683
0.00297761
0.00282339
0.00268404
0.0025586
0.00244497
0.00234217
0.00224878
0.00216519
0.00490591
0.00466525
0.00442854
0.00419843
0.00397666
0.00376357
0.00355986
0.00336607
0.00318382
0.00301464
0.00286031
0.00272095
0.00259568
0.00248248
0.00237981
0.00228608
0.00220128
0.00492607
0.00468684
0.00445095
0.00422187
0.004002
0.003792
0.00359139
0.00339976
0.00321847
0.00304929
0.00289416
0.00275366
0.00262742
0.00251361
0.0024108
0.00231694
0.00223174
0.00494528
0.00470719
0.00447174
0.00424326
0.00402429
0.00381474
0.00361408
0.00342226
0.00324055
0.00307086
0.00291543
0.00277479
0.00264872
0.00253524
0.00243257
0.00233873
0.00225293
0.0049632
0.00472423
0.0044871
0.00425777
0.00403966
0.00383287
0.00363527
0.00344543
0.00326451
0.00309475
0.00293858
0.00279696
0.00267008
0.00255606
0.00245306
0.00235886
0.00227249
0.00497795
0.00473897
0.00450048
0.00426991
0.00405158
0.00384482
0.00364698
0.00345682
0.00327561
0.00310566
0.00294934
0.00280788
0.00268131
0.00256762
0.00246513
0.00237092
0.00228411
0.00498999
0.00474806
0.00450718
0.00427633
0.00405962
0.00385581
0.00366033
0.00347115
0.00329005
0.0031194
0.00296256
0.00282019
0.00269315
0.00257945
0.00247675
0.00238218
0.00229508
0.0052311
0.00499701
0.00475399
0.00451086
0.00427818
0.00406099
0.00385785
0.00366298
0.00347421
0.00329368
0.0031233
0.0029665
0.00282426
0.00269756
0.00258397
0.00248185
0.00238749
0.00229959
0.0052349
0.0049992
0.00475641
0.00451591
0.00428763
0.00407344
0.00387173
0.0036745
0.00348357
0.00330102
0.00312823
0.00297243
0.0028281
0.00270101
0.00258857
0.0024851
0.00239006
0.00230406
0.0052449
0.00500805
0.00476168
0.00451602
0.00428276
0.00406599
0.00386586
0.00367248
0.00348359
0.00330195
0.00312931
0.00297278
0.00282874
0.00270111
0.00258773
0.00248412
0.00238842
0.00230106
0.0042845
0.00391502
0.00356004
0.00322229
0.0029047
0.00260968
0.00233906
0.00209358
0.00187513
0.00168559
0.00152524
0.00139405
0.00129037
0.00121319
0.00116019
0.00113018
0.00112028
0.00435554
0.00401017
0.00367761
0.00336043
0.00306102
0.00278134
0.00252278
0.00228664
0.00207387
0.00188647
0.00172436
0.00158806
0.00147616
0.00138832
0.00132275
0.00127832
0.00125307
0.00444537
0.00411758
0.00380137
0.0034989
0.00321243
0.00294346
0.00269372
0.00246452
0.00225691
0.00207243
0.001911
0.00177307
0.00165756
0.00156392
0.00149068
0.00143658
0.00140001
0.00451188
0.00420109
0.00390081
0.00361303
0.00333968
0.00308231
0.00284215
0.00262044
0.0024183
0.00223693
0.00207647
0.0019369
0.00181797
0.00171862
0.00163811
0.00157497
0.00152828
0.00458284
0.00428568
0.00399784
0.00372165
0.00345845
0.00320969
0.00297637
0.0027599
0.00256149
0.00238213
0.00222253
0.00208211
0.00196106
0.00185787
0.00177218
0.00170248
0.00164802
0.00464106
0.00435709
0.0040815
0.00381601
0.00356225
0.00332146
0.00309507
0.00288437
0.00269025
0.00251316
0.00235409
0.00221258
0.00208882
0.00198185
0.00189087
0.00181478
0.00175298
0.00469837
0.00442473
0.00415851
0.00390121
0.00365471
0.00342057
0.00320016
0.00299428
0.00280411
0.00262994
0.00247254
0.00233131
0.00220641
0.002097
0.00200252
0.00192177
0.0018545
0.00474648
0.00448253
0.00422547
0.00397661
0.00373726
0.00350868
0.00329208
0.00308938
0.00290129
0.00272846
0.00257154
0.0024299
0.00230371
0.00219176
0.00209392
0.00200902
0.001937
0.00478977
0.00453286
0.00428217
0.00403886
0.00380437
0.00358022
0.00336775
0.00316838
0.00298328
0.002813
0.00265807
0.0025177
0.00239154
0.00227844
0.00217816
0.0020897
0.00201312
0.00482344
0.00457235
0.0043271
0.004089
0.00385913
0.00363861
0.0034286
0.00323074
0.00304644
0.00287648
0.00272164
0.00258133
0.00245506
0.00234132
0.00223971
0.00214927
0.00207016
0.00485563
0.00460879
0.00436709
0.0041323
0.00390566
0.00368801
0.0034805
0.00328429
0.00310118
0.00293222
0.00277842
0.00263929
0.00251379
0.00240022
0.00229776
0.00220543
0.00212352
0.00488122
0.00463791
0.00439922
0.0041673
0.00394394
0.0037296
0.00352474
0.00332988
0.00314694
0.0029776
0.00282326
0.00268384
0.00255842
0.00244486
0.0023421
0.00224874
0.00216512
0.00490596
0.00466528
0.00442856
0.00419848
0.00397672
0.00376365
0.00355994
0.00336616
0.00318389
0.00301467
0.00286026
0.00272084
0.00259557
0.00248238
0.00237974
0.00228604
0.00220121
0.00492607
0.00468684
0.00445095
0.00422189
0.00400202
0.00379202
0.00359143
0.00339983
0.00321857
0.00304941
0.00289426
0.00275371
0.00262742
0.00251358
0.00241074
0.0023169
0.00223168
0.00494531
0.00470726
0.00447183
0.00424335
0.00402437
0.0038148
0.00361414
0.00342235
0.00324064
0.00307096
0.00291548
0.00277481
0.00264871
0.00253519
0.00243251
0.00233867
0.00225286
0.00496322
0.00472434
0.00448723
0.00425787
0.0040397
0.00383288
0.00363529
0.00344549
0.00326461
0.00309486
0.00293868
0.00279702
0.00267011
0.00255605
0.00245303
0.00235884
0.00227245
0.00497803
0.00473915
0.00450069
0.00427007
0.00405166
0.00384484
0.00364701
0.00345689
0.0032757
0.00310574
0.00294937
0.00280788
0.00268128
0.00256757
0.00246507
0.00237088
0.00228406
0.00499017
0.00474818
0.00450721
0.00427627
0.00405954
0.00385576
0.00366035
0.00347123
0.00329017
0.00311951
0.00296263
0.00282022
0.00269312
0.00257942
0.00247673
0.00238217
0.00229507
0.00523148
0.00499739
0.00475423
0.00451084
0.00427797
0.00406077
0.00385775
0.00366304
0.00347438
0.00329386
0.00312341
0.00296652
0.00282422
0.00269748
0.00258392
0.00248185
0.00238751
0.0022996
0.00523523
0.00499961
0.00475665
0.00451583
0.0042873
0.00407304
0.00387142
0.00367438
0.00348362
0.00330118
0.00312837
0.00297247
0.00282818
0.002701
0.00258859
0.00248531
0.00239012
0.00230405
0.00524502
0.00500816
0.00476172
0.00451594
0.00428258
0.00406587
0.00386589
0.00367258
0.00348368
0.00330207
0.00312946
0.00297295
0.00282892
0.00270128
0.00258795
0.00248439
0.00238869
0.00230137
0.00428455
0.00391508
0.00356012
0.00322239
0.00290482
0.00260981
0.0023392
0.00209375
0.00187529
0.00168576
0.00152542
0.00139419
0.00129054
0.00121333
0.00116034
0.00113028
0.00112037
0.00435557
0.00401021
0.00367767
0.00336048
0.0030611
0.00278143
0.00252286
0.00228673
0.00207397
0.00188654
0.00172441
0.00158804
0.00147613
0.00138826
0.00132269
0.00127823
0.00125295
0.0044454
0.00411761
0.00380142
0.00349895
0.00321251
0.00294356
0.00269379
0.0024646
0.00225698
0.00207251
0.0019111
0.00177313
0.00165761
0.00156392
0.00149067
0.00143656
0.00139998
0.00451191
0.00420112
0.00390085
0.00361307
0.00333974
0.0030824
0.00284224
0.00262054
0.00241838
0.00223699
0.00207653
0.00193694
0.00181801
0.00171867
0.00163812
0.00157497
0.00152826
0.00458293
0.00428579
0.00399794
0.0037217
0.00345852
0.00320975
0.00297645
0.00276001
0.0025616
0.0023822
0.00222254
0.00208209
0.001961
0.00185785
0.00177213
0.00170247
0.001648
0.00464108
0.00435714
0.00408158
0.00381609
0.0035623
0.00332149
0.00309509
0.00288439
0.00269031
0.00251325
0.00235416
0.00221265
0.00208882
0.00198184
0.00189085
0.00181476
0.00175296
0.00469838
0.00442478
0.00415861
0.00390133
0.0036548
0.00342061
0.00320012
0.00299423
0.00280408
0.00262996
0.0024726
0.00233141
0.00220648
0.00209706
0.00200255
0.00192178
0.00185448
0.00474652
0.00448259
0.00422554
0.00397671
0.00373736
0.00350875
0.00329211
0.00308935
0.0029013
0.00272848
0.0025716
0.00242999
0.00230376
0.00219183
0.00209394
0.00200903
0.00193698
0.00478982
0.00453289
0.00428221
0.00403894
0.00380447
0.00358031
0.00336777
0.00316832
0.0029832
0.00281291
0.00265802
0.0025177
0.00239157
0.00227849
0.00217821
0.00208976
0.00201315
0.00482353
0.00457242
0.00432713
0.00408905
0.00385924
0.00363874
0.00342872
0.00323077
0.00304641
0.00287642
0.00272156
0.00258128
0.00245503
0.00234134
0.00223974
0.0021493
0.00207015
0.00485569
0.00460884
0.00436711
0.00413231
0.00390571
0.0036881
0.0034806
0.00328437
0.00310119
0.00293219
0.00277831
0.00263916
0.0025137
0.00240018
0.00229776
0.00220547
0.00212353
0.00488126
0.00463793
0.0043992
0.00416731
0.00394397
0.0037297
0.00352493
0.00333011
0.00314713
0.00297769
0.0028232
0.00268366
0.0025582
0.00244471
0.00234201
0.00224873
0.00216509
0.004906
0.0046653
0.00442857
0.00419851
0.00397679
0.00376374
0.00356003
0.00336628
0.00318398
0.00301473
0.00286024
0.00272072
0.00259543
0.00248226
0.00237967
0.00228602
0.00220117
0.00492607
0.00468683
0.00445095
0.0042219
0.00400204
0.00379205
0.00359146
0.0033999
0.00321867
0.00304953
0.00289436
0.00275377
0.00262744
0.00251357
0.0024107
0.00231688
0.00223164
0.00494532
0.00470731
0.00447191
0.00424346
0.00402447
0.0038149
0.00361422
0.00342246
0.00324077
0.00307109
0.00291557
0.00277485
0.00264872
0.00253516
0.00243246
0.00233864
0.00225281
0.00496319
0.00472443
0.00448737
0.00425799
0.00403976
0.00383288
0.00363527
0.00344553
0.00326471
0.00309499
0.00293879
0.0027971
0.00267015
0.00255607
0.00245302
0.00235884
0.00227244
0.00497813
0.00473936
0.00450092
0.00427025
0.00405176
0.00384488
0.00364704
0.00345698
0.00327583
0.00310587
0.00294945
0.0028079
0.00268126
0.00256754
0.00246502
0.00237087
0.00228405
0.00499056
0.00474852
0.00450733
0.00427617
0.00405932
0.00385554
0.00366025
0.00347125
0.00329029
0.00311965
0.00296272
0.00282028
0.00269311
0.00257938
0.00247672
0.00238218
0.00229509
0.00523212
0.00499824
0.00475497
0.00451115
0.0042778
0.00406037
0.00385743
0.00366295
0.00347449
0.00329409
0.00312362
0.0029666
0.00282419
0.00269735
0.00258382
0.00248185
0.00238757
0.00229968
0.00523571
0.00500032
0.00475729
0.00451609
0.00428714
0.00407264
0.00387099
0.00367412
0.00348361
0.00330135
0.00312857
0.00297255
0.00282829
0.00270095
0.00258853
0.00248551
0.00239022
0.00230403
0.00524498
0.00500832
0.00476201
0.00451615
0.00428261
0.00406581
0.00386591
0.00367269
0.00348376
0.00330216
0.00312955
0.0029731
0.00282908
0.0027014
0.00258807
0.00248453
0.00238881
0.00230153
0.00428455
0.00391509
0.00356014
0.00322244
0.00290492
0.00260994
0.00233934
0.00209394
0.00187549
0.00168599
0.00152568
0.00139441
0.0012908
0.00121358
0.00116062
0.00113052
0.00112063
0.00435556
0.00401021
0.0036777
0.00336051
0.00306114
0.00278151
0.00252296
0.00228684
0.0020741
0.00188664
0.0017245
0.00158806
0.00147614
0.00138822
0.00132266
0.00127818
0.00125287
0.00444538
0.0041176
0.00380143
0.00349897
0.00321255
0.00294366
0.00269386
0.00246468
0.00225707
0.0020726
0.00191122
0.00177321
0.0016577
0.00156397
0.0014907
0.00143658
0.0014
0.0045119
0.00420114
0.00390087
0.00361309
0.00333977
0.00308247
0.00284234
0.00262066
0.00241849
0.00223707
0.00207661
0.00193701
0.00181806
0.00171875
0.00163817
0.00157503
0.00152829
0.004583
0.00428587
0.00399807
0.00372176
0.00345857
0.0032098
0.00297653
0.00276012
0.00256173
0.00238231
0.0022226
0.00208211
0.00196095
0.00185783
0.0017721
0.00170247
0.00164803
0.00464105
0.00435715
0.00408164
0.00381616
0.00356236
0.00332154
0.00309511
0.0028844
0.00269036
0.00251334
0.00235426
0.00221275
0.00208886
0.00198185
0.00189086
0.00181476
0.00175298
0.00469836
0.00442478
0.00415868
0.00390146
0.00365493
0.0034207
0.00320011
0.00299417
0.00280402
0.00262994
0.00247264
0.00233152
0.00220656
0.00209715
0.00200262
0.00192182
0.00185448
0.00474655
0.00448262
0.00422559
0.00397679
0.00373747
0.00350885
0.00329219
0.00308933
0.0029013
0.0027285
0.00257165
0.0024301
0.00230384
0.00219195
0.00209401
0.00200909
0.001937
0.00478987
0.00453291
0.00428221
0.00403899
0.00380457
0.00358044
0.00336785
0.0031683
0.00298311
0.0028128
0.00265792
0.00251767
0.00239158
0.00227856
0.00217827
0.00208986
0.00201322
0.00482365
0.0045725
0.00432715
0.00408906
0.00385933
0.00363889
0.0034289
0.00323086
0.00304641
0.00287638
0.00272148
0.00258123
0.002455
0.00234137
0.0022398
0.00214938
0.00207019
0.00485577
0.0046089
0.00436712
0.0041323
0.00390573
0.00368817
0.0034807
0.00328448
0.00310124
0.00293217
0.00277822
0.00263901
0.00251357
0.00240012
0.00229776
0.00220553
0.00212357
0.00488132
0.00463797
0.00439919
0.0041673
0.00394396
0.00372976
0.00352507
0.00333035
0.00314739
0.00297788
0.00282325
0.00268355
0.00255799
0.00244453
0.00234189
0.00224872
0.0021651
0.00490604
0.00466532
0.00442857
0.00419852
0.00397684
0.00376386
0.00356015
0.00336642
0.00318411
0.00301483
0.00286025
0.00272062
0.00259528
0.00248213
0.00237957
0.00228602
0.00220118
0.00492608
0.00468683
0.00445094
0.0042219
0.00400206
0.00379207
0.00359147
0.00339995
0.00321874
0.00304964
0.00289447
0.00275384
0.00262747
0.00251359
0.00241067
0.00231689
0.00223162
0.00494532
0.00470736
0.00447198
0.00424355
0.00402459
0.00381502
0.00361432
0.00342258
0.00324091
0.00307126
0.0029157
0.00277492
0.00264874
0.00253516
0.00243243
0.00233863
0.00225279
0.00496313
0.00472451
0.00448752
0.00425812
0.00403982
0.00383286
0.00363522
0.00344553
0.00326477
0.00309512
0.00293892
0.0027972
0.00267021
0.0025561
0.00245302
0.00235886
0.00227244
0.00497826
0.00473963
0.00450121
0.00427045
0.00405185
0.00384489
0.00364705
0.00345705
0.00327598
0.00310605
0.00294957
0.00280797
0.00268126
0.00256752
0.00246499
0.00237089
0.00228407
0.00499116
0.00474917
0.00450774
0.00427617
0.00405902
0.00385514
0.00365996
0.00347115
0.00329035
0.0031198
0.00296284
0.00282036
0.00269309
0.00257933
0.0024767
0.00238221
0.00229513
0.00523289
0.00499948
0.00475627
0.00451199
0.00427791
0.00405998
0.00385693
0.00366268
0.00347447
0.00329429
0.00312388
0.00296675
0.00282425
0.00269723
0.00258366
0.00248183
0.00238766
0.0022998
0.00523621
0.00500112
0.00475814
0.00451669
0.00428734
0.00407247
0.00387061
0.00367378
0.00348347
0.00330148
0.00312876
0.00297266
0.00282844
0.00270087
0.00258837
0.00248561
0.00239028
0.00230397
0.00524469
0.00500843
0.00476245
0.00451662
0.00428286
0.00406581
0.00386594
0.00367283
0.00348385
0.00330222
0.00312959
0.00297319
0.00282921
0.00270147
0.00258812
0.00248458
0.0023888
0.00230156
0.00428448
0.00391504
0.00356012
0.00322245
0.00290497
0.00261003
0.00233945
0.00209415
0.00187573
0.00168625
0.00152599
0.00139469
0.00129113
0.00121393
0.00116103
0.00113091
0.00112103
0.00435551
0.00401018
0.00367771
0.00336052
0.00306116
0.00278157
0.00252304
0.00228695
0.00207426
0.00188677
0.00172464
0.00158811
0.00147619
0.00138821
0.00132266
0.00127817
0.00125283
0.00444532
0.00411754
0.00380141
0.00349896
0.00321255
0.00294373
0.00269394
0.00246478
0.00225718
0.00207269
0.00191135
0.00177331
0.00165782
0.00156405
0.00149075
0.00143662
0.00140006
0.00451184
0.00420112
0.00390088
0.00361309
0.00333978
0.00308252
0.00284242
0.00262079
0.00241861
0.00223717
0.00207671
0.00193709
0.00181812
0.00171884
0.00163826
0.00157512
0.00152837
0.00458303
0.00428594
0.0039982
0.00372183
0.00345862
0.00320985
0.00297659
0.00276023
0.00256188
0.00238247
0.00222271
0.00208217
0.00196092
0.00185784
0.00177207
0.00170247
0.00164807
0.00464099
0.00435711
0.00408167
0.00381624
0.00356243
0.00332161
0.00309515
0.0028844
0.00269039
0.00251344
0.00235437
0.00221289
0.00208894
0.00198189
0.00189088
0.00181478
0.00175302
0.00469831
0.00442475
0.00415872
0.00390159
0.00365509
0.00342083
0.00320014
0.0029941
0.00280392
0.00262987
0.00247262
0.0023316
0.00220666
0.00209725
0.00200272
0.0019219
0.00185451
0.00474658
0.00448264
0.0042256
0.00397686
0.00373758
0.00350898
0.00329233
0.00308934
0.00290129
0.00272851
0.00257169
0.00243024
0.00230396
0.0021921
0.00209413
0.00200919
0.00193707
0.00478994
0.00453294
0.0042822
0.00403901
0.00380466
0.00358059
0.00336798
0.00316831
0.00298302
0.00281267
0.00265779
0.0025176
0.00239157
0.00227862
0.00217834
0.00208996
0.00201333
0.0048238
0.0045726
0.00432718
0.00408905
0.00385939
0.00363904
0.00342912
0.00323103
0.00304646
0.00287637
0.00272143
0.00258118
0.00245497
0.0023414
0.00223987
0.0021495
0.00207027
0.00485585
0.00460897
0.00436715
0.00413229
0.00390572
0.00368823
0.0034808
0.0032846
0.0031013
0.00293218
0.00277816
0.00263886
0.00251341
0.00240003
0.00229774
0.0022056
0.00212363
0.00488141
0.00463805
0.00439921
0.00416728
0.00394392
0.00372975
0.00352516
0.00333056
0.00314767
0.00297816
0.00282341
0.00268353
0.00255782
0.00244435
0.00234175
0.0022487
0.00216514
0.00490611
0.00466537
0.00442857
0.00419852
0.00397687
0.00376397
0.00356029
0.00336657
0.00318425
0.00301495
0.00286032
0.00272056
0.00259512
0.00248197
0.00237944
0.00228602
0.00220123
0.00492612
0.00468686
0.00445095
0.0042219
0.00400207
0.00379208
0.00359146
0.00339995
0.00321877
0.0030497
0.00289455
0.0027539
0.00262748
0.0025136
0.00241065
0.0023169
0.00223163
0.00494534
0.00470742
0.00447207
0.00424365
0.0040247
0.00381515
0.00361443
0.0034227
0.00324106
0.00307145
0.00291587
0.00277503
0.0026488
0.00253518
0.00243241
0.00233864
0.0022528
0.00496306
0.0047246
0.00448771
0.0042583
0.00403991
0.00383283
0.00363511
0.00344544
0.00326476
0.0030952
0.00293903
0.0027973
0.00267028
0.00255614
0.00245302
0.00235889
0.00227246
0.00497843
0.00474001
0.00450163
0.00427075
0.00405196
0.00384487
0.003647
0.00345706
0.00327611
0.00310625
0.00294975
0.00280808
0.00268129
0.00256751
0.00246495
0.00237093
0.00228413
0.00499183
0.00475014
0.0045086
0.00427654
0.00405889
0.00385469
0.00365953
0.00347088
0.0032903
0.00311991
0.00296295
0.00282047
0.00269308
0.00257924
0.00247665
0.00238223
0.00229516
0.0052335
0.00500077
0.00475793
0.0045134
0.00427857
0.0040599
0.00385647
0.00366232
0.0034743
0.00329437
0.00312413
0.00296694
0.00282442
0.00269719
0.00258348
0.00248177
0.00238773
0.00229991
0.00523659
0.0050017
0.00475889
0.00451745
0.0042879
0.00407272
0.00387048
0.00367348
0.00348323
0.00330151
0.00312888
0.00297274
0.00282868
0.00270081
0.00258814
0.00248563
0.00239025
0.00230378
0.00524408
0.00500843
0.00476302
0.00451735
0.00428337
0.00406593
0.003866
0.00367302
0.00348398
0.00330228
0.00312957
0.00297321
0.00282928
0.00270146
0.00258808
0.00248452
0.00238866
0.00230144
0.00428434
0.00391492
0.00356004
0.00322241
0.00290497
0.00261008
0.00233953
0.00209436
0.001876
0.00168653
0.00152633
0.00139502
0.0012915
0.00121435
0.00116152
0.00113142
0.00112157
0.00435542
0.0040101
0.00367769
0.00336051
0.00306114
0.0027816
0.00252312
0.00228707
0.00207444
0.00188692
0.00172481
0.00158821
0.00147626
0.00138823
0.00132267
0.00127818
0.00125282
0.00444521
0.00411743
0.00380135
0.00349892
0.0032125
0.00294377
0.00269401
0.00246488
0.0022573
0.00207279
0.0019115
0.00177343
0.00165795
0.00156416
0.00149083
0.00143667
0.00140012
0.00451172
0.00420106
0.00390088
0.00361309
0.00333976
0.00308253
0.00284248
0.0026209
0.00241876
0.00223728
0.00207682
0.0019372
0.00181819
0.00171894
0.00163836
0.00157523
0.00152847
0.00458302
0.00428596
0.00399833
0.00372193
0.00345868
0.00320989
0.00297664
0.00276033
0.00256204
0.00238265
0.00222286
0.0020823
0.00196094
0.00185786
0.00177207
0.00170246
0.0016481
0.00464091
0.00435702
0.00408166
0.00381629
0.0035625
0.00332168
0.00309521
0.00288441
0.0026904
0.00251352
0.00235448
0.00221306
0.00208908
0.00198198
0.00189094
0.00181482
0.00175307
0.00469826
0.00442468
0.00415872
0.0039017
0.00365527
0.00342101
0.00320022
0.00299407
0.00280381
0.00262977
0.00247255
0.00233165
0.00220674
0.00209734
0.00200281
0.00192199
0.00185455
0.00474665
0.00448265
0.00422561
0.0039769
0.0037377
0.00350914
0.00329252
0.00308941
0.00290129
0.00272853
0.00257173
0.0024304
0.00230412
0.00219228
0.00209429
0.00200932
0.00193717
0.00479004
0.00453299
0.0042822
0.00403902
0.00380474
0.00358073
0.00336815
0.00316836
0.00298295
0.00281253
0.00265762
0.00251751
0.00239152
0.00227866
0.00217839
0.00209005
0.00201344
0.004824
0.00457275
0.00432725
0.00408904
0.00385942
0.00363916
0.00342935
0.00323126
0.00304658
0.00287642
0.00272141
0.00258116
0.00245495
0.00234144
0.00223994
0.00214963
0.00207039
0.00485597
0.00460908