/*--------------------------------*- C++ -*----------------------------------*\
  =========                 |
  \\      /  F ield         | OpenFOAM: The Open Source CFD Toolbox
   \\    /   O peration     | Website:  https://openfoam.org
    \\  /    A nd           | Version:  6
     \\/     M anipulation  |
\*---------------------------------------------------------------------------*/
FoamFile
{
    version     2.0;
    format      ascii;
    class       volVectorField;
    location    "1.2";
    object      U;
}
// * * * * * * * * * * * * * * * * * * * * * * * * * * * * * * * * * * * * * //

dimensions      [0 1 -1 0 0 0 0];

internalField   nonuniform List<vector> 
63280
(
(0.116343 0.0010886 5.83403e-07)
(0.116589 0.000523509 1.56102e-07)
(0.116774 -6.17418e-05 -4.83554e-07)
(0.116911 -0.00065813 -1.362e-06)
(0.116971 -0.00125795 -2.34341e-06)
(0.116991 -0.00185214 -3.15383e-06)
(0.1169 -0.00242991 -3.68551e-06)
(0.116703 -0.00298252 -4.04868e-06)
(0.116384 -0.00349689 -4.46676e-06)
(0.116014 -0.00395867 -5.12221e-06)
(0.115617 -0.00435544 -5.42984e-06)
(0.115158 -0.00468932 -5.58721e-06)
(0.114667 -0.00496347 -5.64655e-06)
(0.114101 -0.00518055 -5.16137e-06)
(0.113482 -0.00533528 -4.74035e-06)
(0.112873 -0.00542434 -4.03689e-06)
(0.112245 -0.00544381 -3.6461e-06)
(0.114184 0.00103366 -1.68663e-07)
(0.114265 0.000508488 -5.18962e-07)
(0.114331 -2.81109e-05 -8.63031e-07)
(0.114314 -0.000568283 -1.26518e-06)
(0.114277 -0.00110177 -1.78777e-06)
(0.114162 -0.00161813 -2.11706e-06)
(0.113993 -0.00211415 -2.38391e-06)
(0.113723 -0.00259182 -2.53176e-06)
(0.113408 -0.00304737 -2.27391e-06)
(0.113034 -0.0034693 -1.85692e-06)
(0.112678 -0.0038407 -1.48794e-06)
(0.112336 -0.00414832 -1.10368e-06)
(0.11203 -0.00438867 -1.09375e-06)
(0.111777 -0.00456624 -9.36736e-07)
(0.111505 -0.00468848 -8.40064e-07)
(0.111263 -0.00476085 -3.84761e-07)
(0.110943 -0.00478493 2.1801e-08)
(0.112062 0.000814642 -8.971e-07)
(0.1121 0.000351568 -1.17331e-06)
(0.112127 -0.000117747 -1.51618e-06)
(0.112127 -0.000586835 -1.8732e-06)
(0.112101 -0.00105187 -2.08861e-06)
(0.112047 -0.00150848 -1.83339e-06)
(0.111929 -0.0019485 -1.70062e-06)
(0.111753 -0.00236452 -2.05793e-06)
(0.111527 -0.00275493 -2.34726e-06)
(0.111249 -0.00311913 -2.59599e-06)
(0.110934 -0.00345523 -2.17445e-06)
(0.11055 -0.00375262 -1.49046e-06)
(0.110159 -0.0040015 -9.76832e-07)
(0.109779 -0.00418918 -5.10607e-07)
(0.109445 -0.00431537 -5.11001e-07)
(0.109184 -0.00438249 -4.03133e-07)
(0.108965 -0.00439919 -4.7357e-09)
(0.110072 0.000752437 -1.20984e-06)
(0.110188 0.000325809 -1.24237e-06)
(0.110287 -0.000103768 -1.56994e-06)
(0.110388 -0.000528268 -2.25563e-06)
(0.110475 -0.00094176 -3.03339e-06)
(0.110544 -0.00134609 -3.31073e-06)
(0.110521 -0.00174148 -2.8844e-06)
(0.110403 -0.00212234 -2.20556e-06)
(0.110197 -0.00247606 -1.66634e-06)
(0.10996 -0.00279198 -1.50299e-06)
(0.109702 -0.00306886 -1.39696e-06)
(0.109438 -0.00330834 -1.173e-06)
(0.109133 -0.00351639 -1.01781e-06)
(0.108828 -0.00368975 -6.53989e-07)
(0.108479 -0.00382499 -2.17052e-07)
(0.108153 -0.00391643 -1.53194e-07)
(0.107858 -0.00396303 1.95879e-07)
(0.108076 0.000552135 -2.70236e-06)
(0.108159 0.000172315 -2.27032e-06)
(0.108209 -0.000213037 -1.80052e-06)
(0.108191 -0.000594445 -1.8396e-06)
(0.108176 -0.000956674 -2.53254e-06)
(0.108142 -0.0012894 -2.744e-06)
(0.108043 -0.00159514 -2.6814e-06)
(0.107884 -0.0018881 -1.76981e-06)
(0.107599 -0.00217825 -5.91279e-07)
(0.107289 -0.00246147 3.38005e-07)
(0.106948 -0.0027249 7.34303e-07)
(0.106687 -0.00295239 6.45161e-07)
(0.106472 -0.00313663 2.52689e-07)
(0.106344 -0.00327863 -2.16389e-07)
(0.10625 -0.00338228 -2.38873e-07)
(0.106152 -0.00345263 -3.10098e-07)
(0.10609 -0.00349238 2.89564e-07)
(0.105694 0.00047891 -2.34683e-06)
(0.105764 0.000162427 -2.53582e-06)
(0.105805 -0.000158112 -2.04426e-06)
(0.105774 -0.000479563 -1.4324e-06)
(0.10571 -0.000790827 -1.0091e-06)
(0.105621 -0.00107649 -9.3995e-07)
(0.105563 -0.00133507 -1.28513e-06)
(0.105509 -0.00157645 -1.93882e-06)
(0.105473 -0.00181923 -2.2158e-06)
(0.105361 -0.00207356 -1.84904e-06)
(0.105196 -0.00233564 -1.15621e-06)
(0.104934 -0.00258602 -3.56713e-07)
(0.104667 -0.00280294 1.39994e-07)
(0.104381 -0.00297128 3.86514e-08)
(0.10419 -0.00308705 5.08071e-08)
(0.103998 -0.00315529 -2.85914e-08)
(0.103916 -0.00318807 2.11715e-07)
(0.103439 0.000325541 -3.59056e-06)
(0.103624 4.44235e-05 -4.40175e-06)
(0.10378 -0.000229304 -4.03932e-06)
(0.103844 -0.000507264 -2.72564e-06)
(0.103803 -0.000791968 -1.30918e-06)
(0.103701 -0.00107415 -4.68481e-07)
(0.103598 -0.00133615 -4.66229e-07)
(0.103545 -0.00156763 -1.26779e-06)
(0.103575 -0.00176792 -2.10207e-06)
(0.103628 -0.00194694 -2.64156e-06)
(0.10369 -0.00211413 -2.48157e-06)
(0.103666 -0.00227427 -1.74523e-06)
(0.103579 -0.0024249 -8.57703e-07)
(0.103401 -0.00255767 -2.59837e-07)
(0.103209 -0.00266678 3.44512e-07)
(0.102978 -0.00274609 4.15454e-07)
(0.102802 -0.00279835 5.55586e-07)
(0.101092 0.000196186 -3.33809e-06)
(0.101205 -1.76222e-05 -3.69898e-06)
(0.101274 -0.00020352 -3.15681e-06)
(0.101239 -0.000389738 -2.01283e-06)
(0.101109 -0.000596857 -2.60393e-07)
(0.100857 -0.000826932 9.27533e-07)
(0.100611 -0.0010687 1.24967e-06)
(0.100377 -0.00130672 5.0381e-07)
(0.100274 -0.00152759 -7.81338e-07)
(0.100249 -0.00172582 -1.35357e-06)
(0.100293 -0.00190019 -1.89497e-06)
(0.100383 -0.00205137 -1.522e-06)
(0.100438 -0.00217838 -1.1156e-06)
(0.100505 -0.00228206 -8.50209e-07)
(0.100539 -0.00236282 -2.77896e-07)
(0.100554 -0.00242124 -3.12927e-07)
(0.100589 -0.00245959 1.92891e-08)
(0.0986517 0.000114706 -2.82509e-06)
(0.0987719 -6.37573e-05 -3.71162e-06)
(0.0989039 -0.000208334 -4.3237e-06)
(0.0990056 -0.000351529 -4.03996e-06)
(0.0990269 -0.000523128 -2.65517e-06)
(0.0989317 -0.000735065 -8.75542e-07)
(0.0987483 -0.000972698 5.68004e-07)
(0.0985145 -0.00120789 7.07258e-07)
(0.0983426 -0.00141826 6.64671e-08)
(0.0982221 -0.00159294 -7.33299e-07)
(0.0981906 -0.00173488 -1.29026e-06)
(0.0981843 -0.00185092 -1.26315e-06)
(0.0982099 -0.00194767 -9.09337e-07)
(0.0982145 -0.00202861 -5.84954e-07)
(0.0982524 -0.00209423 -2.74479e-07)
(0.0982658 -0.00214259 -6.9009e-09)
(0.0983276 -0.0021711 3.657e-07)
(0.0963915 -2.02402e-05 -3.23982e-06)
(0.096455 -0.000155943 -3.37089e-06)
(0.0965002 -0.000244534 -3.42762e-06)
(0.0964696 -0.000315808 -3.03242e-06)
(0.096375 -0.000404965 -1.12419e-06)
(0.0960996 -0.000537165 1.20701e-06)
(0.0957541 -0.000717368 2.78309e-06)
(0.0953459 -0.000929001 3.13895e-06)
(0.0950256 -0.0011453 1.87484e-06)
(0.0948261 -0.00134031 6.67248e-07)
(0.0947467 -0.00150155 -3.83744e-07)
(0.0947644 -0.00162799 -1.1186e-06)
(0.0948528 -0.0017238 -1.13882e-06)
(0.0949471 -0.00179628 -1.03981e-06)
(0.0950831 -0.00185068 -6.85449e-07)
(0.095189 -0.00188921 -5.59862e-07)
(0.0953414 -0.0019109 -2.99622e-07)
(0.0934268 -3.6239e-05 -2.36967e-06)
(0.0934496 -0.000121392 -2.16268e-06)
(0.0934865 -0.000164825 -2.53118e-06)
(0.0935505 -0.000196124 -3.45532e-06)
(0.0936644 -0.000252739 -3.92195e-06)
(0.0937443 -0.000365509 -3.42508e-06)
(0.0937539 -0.000545593 -1.93044e-06)
(0.0936094 -0.000770083 -1.07843e-07)
(0.0933693 -0.00100281 1.29458e-06)
(0.0930568 -0.00120782 1.70666e-06)
(0.0928089 -0.00136614 1.63931e-06)
(0.0925916 -0.00147889 8.40943e-07)
(0.0925225 -0.00155759 1.35139e-07)
(0.0924798 -0.00161341 -1.13689e-08)
(0.0925232 -0.00165198 -1.83928e-07)
(0.0925712 -0.00167171 -1.00452e-07)
(0.0926674 -0.00167191 1.18821e-07)
(0.0905694 -0.000177669 -2.26731e-06)
(0.0906475 -0.000257694 -2.1287e-06)
(0.0907084 -0.000300349 -2.95624e-06)
(0.0908598 -0.000325054 -4.32661e-06)
(0.0910084 -0.000351929 -5.21432e-06)
(0.0911492 -0.000395233 -5.22536e-06)
(0.0911496 -0.000465959 -2.80304e-06)
(0.0909186 -0.000572054 6.63874e-07)
(0.0904876 -0.0007118 3.87657e-06)
(0.0899294 -0.000870947 5.62132e-06)
(0.089406 -0.00102768 5.399e-06)
(0.0890088 -0.00116288 3.51296e-06)
(0.0888215 -0.00126797 1.22328e-06)
(0.0887854 -0.00134288 -9.64658e-08)
(0.0888555 -0.00139107 -3.5173e-08)
(0.0889384 -0.00141382 7.36747e-07)
(0.0890705 -0.00141066 1.75519e-06)
(0.0873865 -0.000199879 -1.07508e-06)
(0.0873392 -0.000249614 -1.508e-06)
(0.0873126 -0.000257746 -2.30184e-06)
(0.0873325 -0.000241229 -2.92252e-06)
(0.0873761 -0.000216725 -2.91256e-06)
(0.0874348 -0.000202491 -2.64161e-06)
(0.0874969 -0.000217009 -1.96339e-06)
(0.0875082 -0.000279086 -1.1727e-06)
(0.0874625 -0.000399438 1.46238e-08)
(0.0872985 -0.000571658 9.32697e-07)
(0.0870952 -0.000768842 1.78981e-06)
(0.0868069 -0.000954542 1.61994e-06)
(0.0865994 -0.00110053 9.74531e-07)
(0.0863965 -0.00119707 5.54098e-07)
(0.0862924 -0.00125393 3.27751e-07)
(0.0861964 -0.00128857 1.03166e-06)
(0.0861535 -0.0013147 1.75178e-06)
(0.0841296 -0.000280142 -1.43681e-06)
(0.0841673 -0.000316483 -2.51961e-06)
(0.0842478 -0.000316624 -3.30489e-06)
(0.0843551 -0.000303573 -3.42875e-06)
(0.0844769 -0.000297937 -3.05099e-06)
(0.0846081 -0.000308922 -2.68544e-06)
(0.0847493 -0.000334493 -2.60084e-06)
(0.0849006 -0.000376292 -2.85616e-06)
(0.0850611 -0.000438117 -2.89617e-06)
(0.0851809 -0.000522734 -2.59157e-06)
(0.0852512 -0.000624985 -1.70593e-06)
(0.0852245 -0.000733539 -6.9228e-07)
(0.0851492 -0.000836123 8.32682e-08)
(0.0850323 -0.000921034 5.79845e-07)
(0.0849306 -0.000984958 6.4732e-07)
(0.0848386 -0.00103335 4.26603e-07)
(0.0847949 -0.00107518 5.27223e-07)
(0.0799173 -0.000354427 -1.59997e-06)
(0.0799562 -0.000361446 -3.50495e-06)
(0.0800416 -0.000319541 -4.54635e-06)
(0.080119 -0.000264572 -4.28762e-06)
(0.0801568 -0.000223988 -3.16514e-06)
(0.0801584 -0.000210156 -2.02192e-06)
(0.0801589 -0.000225463 -1.30377e-06)
(0.0801756 -0.00027067 -1.25416e-06)
(0.0802417 -0.000343864 -1.26094e-06)
(0.08032 -0.00043789 -1.45153e-06)
(0.0804405 -0.000539788 -1.08664e-06)
(0.080508 -0.00063603 -9.41783e-07)
(0.0806199 -0.000719196 -5.32858e-07)
(0.0806674 -0.000784708 -1.87404e-07)
(0.0807755 -0.000834406 -3.39443e-07)
(0.080863 -0.000874286 -2.19688e-07)
(0.0809909 -0.000908419 -3.35078e-07)
(0.0756153 -0.000438721 -8.55923e-06)
(0.0760986 -0.000419368 -9.99068e-06)
(0.0765238 -0.000332802 -8.65726e-06)
(0.0768043 -0.000239913 -6.01999e-06)
(0.0769563 -0.000183749 -3.65634e-06)
(0.0770373 -0.000174844 -2.33945e-06)
(0.0770922 -0.000201341 -1.9123e-06)
(0.0771424 -0.00024974 -2.01061e-06)
(0.0772052 -0.000309777 -2.06841e-06)
(0.0772543 -0.000373205 -2.03276e-06)
(0.077299 -0.000434348 -1.49728e-06)
(0.0772958 -0.000495232 -9.10585e-07)
(0.0772964 -0.00055638 -2.81635e-07)
(0.0772765 -0.000614372 1.64779e-07)
(0.0772959 -0.000665692 1.06669e-07)
(0.0773412 -0.000704179 -2.12946e-08)
(0.0774294 -0.000731418 -9.41572e-08)
(0.0703576 -0.000714247 -1.10212e-05)
(0.0708824 -0.000596993 -1.24152e-05)
(0.0712911 -0.000404564 -1.01149e-05)
(0.071476 -0.000241804 -5.91316e-06)
(0.0714643 -0.000156581 -2.32252e-06)
(0.0713585 -0.000141018 -2.87384e-07)
(0.0712508 -0.0001634 4.12579e-07)
(0.071183 -0.000204724 1.55867e-07)
(0.0711819 -0.000253433 -4.87862e-07)
(0.071226 -0.000299052 -1.07633e-06)
(0.0712945 -0.00033992 -1.05573e-06)
(0.071349 -0.000375678 -7.99953e-07)
(0.0714053 -0.000415556 -2.18275e-07)
(0.0714456 -0.000459658 -2.95364e-08)
(0.0715298 -0.000501525 1.27474e-07)
(0.071602 -0.000536589 -1.52975e-07)
(0.07175 -0.000562263 -1.58379e-07)
(0.0650866 -0.000740617 -1.29723e-05)
(0.0656549 -0.000571202 -1.27079e-05)
(0.0661717 -0.000304386 -9.8023e-06)
(0.0665501 -8.26321e-05 -6.28668e-06)
(0.0667969 2.59401e-05 -3.86371e-06)
(0.0669418 2.58893e-05 -2.56078e-06)
(0.0670142 -3.40995e-05 -1.97133e-06)
(0.0670373 -0.00011184 -1.78395e-06)
(0.0670553 -0.000178444 -1.92796e-06)
(0.0670588 -0.000215825 -1.72872e-06)
(0.0670424 -0.000233455 -9.15538e-07)
(0.0669886 -0.000248292 4.28635e-09)
(0.0669164 -0.000278702 8.98414e-07)
(0.0668641 -0.000321379 7.80595e-07)
(0.0668754 -0.000366142 4.55349e-07)
(0.0669121 -0.00039898 1.47739e-07)
(0.067017 -0.000412724 -8.48804e-08)
(0.0561484 -0.000955803 1.39669e-07)
(0.0558071 -0.000944225 -1.64071e-06)
(0.0555785 -0.000756249 -2.916e-06)
(0.0555275 -0.000514337 -2.20009e-06)
(0.0555825 -0.000321961 -1.08127e-06)
(0.0557349 -0.000206224 -9.32462e-07)
(0.0559232 -0.000154847 -5.35666e-07)
(0.0560991 -0.00012911 -3.8033e-07)
(0.0562531 -0.000130303 -1.39238e-06)
(0.0564808 -0.000129579 -3.12103e-06)
(0.0567375 -0.000112927 -4.00024e-06)
(0.0570081 -0.000102836 -3.07728e-06)
(0.0571926 -8.29506e-05 -1.23097e-06)
(0.0572609 -0.000111674 3.62975e-07)
(0.0572908 -0.000164207 1.0371e-06)
(0.0573199 -0.000202109 7.90926e-07)
(0.0573703 -0.000242797 2.07957e-07)
(0.0575088 -0.000268461 -5.645e-09)
(0.0497296 -0.000548288 1.96785e-05)
(0.0477621 -0.000537092 1.92318e-05)
(0.0461994 -0.000398009 1.34929e-05)
(0.0451398 -0.000228753 5.58858e-06)
(0.0445293 -0.000109961 -1.31891e-06)
(0.0441998 -6.62515e-05 -4.11877e-06)
(0.0439917 -9.30928e-05 -3.7102e-06)
(0.0438191 -0.000136299 -2.23097e-06)
(0.0436915 -0.000174529 -2.19552e-06)
(0.0435861 -0.000177565 -3.01644e-06)
(0.0435695 -0.000135242 -3.73924e-06)
(0.0435823 -7.4222e-05 -4.24085e-06)
(0.0435735 -1.16365e-06 -5.47537e-06)
(0.0436936 2.07346e-05 -4.40607e-06)
(0.0434969 4.65483e-06 -6.63129e-06)
(0.0436494 -1.48785e-05 -7.67821e-06)
(0.043562 -4.1534e-05 -4.11286e-06)
(0.0434375 -5.70574e-05 -8.00253e-06)
(0.0652136 0.000278484 1.34293e-05)
(0.0644712 3.87574e-05 7.40253e-06)
(0.0639107 -1.45211e-05 3.79564e-06)
(0.0636775 8.51102e-05 7.04225e-06)
(0.063532 0.000204436 1.09977e-05)
(0.0634935 0.000231293 8.25119e-06)
(0.063539 0.000154963 4.23722e-06)
(0.0633953 5.35666e-05 4.30507e-06)
(0.0630368 -3.1785e-07 4.15251e-06)
(0.0626444 -6.78875e-06 1.07961e-06)
(0.0624186 1.60537e-05 -4.05108e-06)
(0.0624776 5.10498e-05 -9.66907e-06)
(0.0628063 7.31716e-05 -1.28963e-05)
(0.0632481 8.95951e-05 -1.39759e-05)
(0.0636663 8.65055e-05 -1.47009e-05)
(0.0640492 6.84119e-05 -1.45803e-05)
(0.0643243 6.31874e-05 -1.38423e-05)
(0.06456 6.74257e-05 -1.55644e-05)
(0.193861 0.00251039 -1.31101e-05)
(0.194016 0.00172888 -1.24122e-05)
(0.194123 0.000906774 -1.13899e-05)
(0.19419 5.51113e-05 -1.00582e-05)
(0.194208 -0.000814084 -9.07481e-06)
(0.194184 -0.00168818 -7.46737e-06)
(0.194098 -0.0025548 -4.10772e-06)
(0.193945 -0.00340606 -1.7159e-07)
(0.193718 -0.00422599 2.27011e-06)
(0.193415 -0.00499124 2.30234e-06)
(0.193073 -0.00567892 2.36345e-06)
(0.192675 -0.00628459 2.39427e-06)
(0.192232 -0.00681026 2.52963e-06)
(0.191749 -0.00726093 3.42113e-06)
(0.191206 -0.00763024 3.38392e-06)
(0.190664 -0.00790916 3.63665e-06)
(0.190098 -0.00808872 2.72436e-06)
(0.192288 0.0023762 -6.96877e-06)
(0.192376 0.00164577 -6.36583e-06)
(0.192437 0.000885197 -5.4145e-06)
(0.192446 0.000105606 -4.51625e-06)
(0.192409 -0.000680198 -3.87524e-06)
(0.192319 -0.0014569 -2.28926e-06)
(0.192179 -0.00221614 1.77815e-07)
(0.191982 -0.00295806 2.40174e-06)
(0.191731 -0.00368127 3.88167e-06)
(0.191416 -0.00437624 4.48604e-06)
(0.191061 -0.00502007 4.40354e-06)
(0.190704 -0.0055883 4.59593e-06)
(0.190352 -0.00606625 4.07672e-06)
(0.190042 -0.00645325 4.13121e-06)
(0.189724 -0.00675881 4.05021e-06)
(0.189427 -0.0069906 4.95705e-06)
(0.189089 -0.0071539 5.48572e-06)
(0.19057 0.00202468 -4.55645e-06)
(0.190615 0.00136581 -4.66433e-06)
(0.190639 0.000685653 -4.68714e-06)
(0.190636 -3.19163e-06 -4.60526e-06)
(0.190599 -0.000694395 -5.01232e-06)
(0.190526 -0.00138454 -4.40248e-06)
(0.190406 -0.00206472 -2.4835e-06)
(0.190236 -0.00272284 -7.26433e-07)
(0.190029 -0.00335142 6.16043e-07)
(0.189765 -0.003949 9.5992e-07)
(0.189458 -0.00451617 1.82521e-06)
(0.189096 -0.00504398 2.77746e-06)
(0.188702 -0.00551629 3.15235e-06)
(0.188317 -0.00591106 3.41767e-06)
(0.187951 -0.00621783 2.85881e-06)
(0.187644 -0.00643531 2.63007e-06)
(0.187384 -0.0065736 3.02234e-06)
(0.188706 0.0018783 -6.23319e-06)
(0.18882 0.00126476 -6.50571e-06)
(0.188913 0.000633096 -6.88082e-06)
(0.188986 -2.72806e-06 -7.36613e-06)
(0.189038 -0.000628292 -7.91003e-06)
(0.189078 -0.00124135 -7.40355e-06)
(0.189067 -0.00184806 -5.30885e-06)
(0.18898 -0.0024482 -2.79375e-06)
(0.188805 -0.00302775 -8.20899e-07)
(0.188567 -0.00356604 7.61821e-08)
(0.188289 -0.00405265 6.06128e-07)
(0.187996 -0.0044867 1.25682e-06)
(0.18767 -0.00487735 1.54308e-06)
(0.187333 -0.00522394 2.01111e-06)
(0.186976 -0.00552171 2.56614e-06)
(0.186616 -0.00575916 2.2989e-06)
(0.186291 -0.00592998 2.65701e-06)
(0.186741 0.00152559 -6.93549e-06)
(0.186859 0.00097668 -6.16518e-06)
(0.186944 0.00041185 -5.14006e-06)
(0.186967 -0.00016582 -4.61672e-06)
(0.186938 -0.000736748 -5.11872e-06)
(0.186892 -0.00127433 -4.41645e-06)
(0.186799 -0.00176564 -3.25399e-06)
(0.186668 -0.00222577 -9.38271e-07)
(0.186444 -0.00268019 1.30577e-06)
(0.186154 -0.00313822 2.82447e-06)
(0.185813 -0.00358939 3.19008e-06)
(0.185498 -0.00400676 2.66801e-06)
(0.185226 -0.00437015 1.59862e-06)
(0.185018 -0.004672 3.34981e-07)
(0.184862 -0.0049153 1.34665e-07)
(0.184707 -0.00510714 -2.33654e-07)
(0.184586 -0.00525188 7.91854e-07)
(0.184405 0.0013399 -4.76643e-06)
(0.18448 0.000872233 -5.35549e-06)
(0.184549 0.000404742 -4.70556e-06)
(0.184566 -7.49047e-05 -3.68273e-06)
(0.184525 -0.000562392 -2.9557e-06)
(0.184437 -0.00103217 -2.68661e-06)
(0.184349 -0.00146293 -2.72475e-06)
(0.184262 -0.00185167 -3.11919e-06)
(0.184185 -0.00222304 -3.0734e-06)
(0.184064 -0.002609 -2.18934e-06)
(0.183885 -0.00302436 -1.05051e-06)
(0.183628 -0.00345374 2.2324e-08)
(0.18334 -0.00386101 5.68434e-07)
(0.183027 -0.00421164 -9.90563e-08)
(0.182774 -0.00448418 -5.66831e-07)
(0.182548 -0.00467845 -1.06108e-06)
(0.182401 -0.00480727 -8.85202e-07)
(0.182037 0.00106447 -7.55668e-06)
(0.182195 0.000623646 -9.44614e-06)
(0.182361 0.000212543 -9.26834e-06)
(0.182476 -0.000194538 -7.20716e-06)
(0.182499 -0.000620133 -4.72501e-06)
(0.182434 -0.00106404 -2.95778e-06)
(0.182324 -0.00149893 -2.34377e-06)
(0.182219 -0.0018968 -3.19274e-06)
(0.182177 -0.00224333 -4.26507e-06)
(0.182176 -0.00254776 -5.00494e-06)
(0.182198 -0.00283009 -4.65793e-06)
(0.182172 -0.00310793 -3.34803e-06)
(0.182081 -0.00338449 -1.68468e-06)
(0.181898 -0.00364882 -7.51798e-07)
(0.18168 -0.00388559 1.75845e-07)
(0.181421 -0.00408033 2.17918e-07)
(0.18119 -0.00422835 3.56963e-07)
(0.179495 0.000793994 -6.46143e-06)
(0.179607 0.000420076 -7.13253e-06)
(0.1797 0.000121898 -6.18621e-06)
(0.179715 -0.000139426 -4.17387e-06)
(0.17964 -0.000417796 -9.06068e-07)
(0.179443 -0.000746054 1.63633e-06)
(0.179194 -0.00112269 2.73116e-06)
(0.178929 -0.00152023 1.83044e-06)
(0.178734 -0.00190433 -6.88148e-07)
(0.178645 -0.00225396 -2.31244e-06)
(0.178639 -0.00256314 -4.01957e-06)
(0.178705 -0.00283529 -4.11897e-06)
(0.178773 -0.00307477 -3.78708e-06)
(0.178827 -0.00328413 -3.72884e-06)
(0.178859 -0.00346441 -2.91674e-06)
(0.178849 -0.00361393 -3.1018e-06)
(0.178847 -0.00373155 -2.56032e-06)
(0.17684 0.000611483 -5.72225e-06)
(0.176976 0.000281389 -7.82203e-06)
(0.177108 3.78419e-05 -9.2553e-06)
(0.177212 -0.000157104 -9.13552e-06)
(0.177261 -0.000367408 -7.10617e-06)
(0.177215 -0.000645741 -4.09489e-06)
(0.177068 -0.000999713 -9.97543e-07)
(0.176832 -0.00139441 1.64728e-07)
(0.176594 -0.00177989 -3.77137e-07)
(0.176402 -0.00211748 -1.61972e-06)
(0.176295 -0.00239428 -2.82609e-06)
(0.176253 -0.00261775 -3.12955e-06)
(0.176259 -0.00280247 -2.694e-06)
(0.176266 -0.00296178 -2.24634e-06)
(0.176289 -0.00310183 -1.80519e-06)
(0.176296 -0.00322274 -1.56759e-06)
(0.176338 -0.0033189 -9.35593e-07)
(0.174233 0.000344815 -7.21025e-06)
(0.174342 7.14338e-05 -7.45709e-06)
(0.174401 -0.000105887 -7.04599e-06)
(0.174375 -0.000211154 -5.95257e-06)
(0.174285 -0.000299862 -2.63276e-06)
(0.17407 -0.000435796 1.53531e-06)
(0.173752 -0.000662957 4.5895e-06)
(0.173351 -0.000983494 5.76583e-06)
(0.172952 -0.00135887 3.76174e-06)
(0.17265 -0.00173134 1.06341e-06)
(0.172486 -0.00205581 -1.59298e-06)
(0.172445 -0.00231402 -3.80179e-06)
(0.172504 -0.00250925 -4.53908e-06)
(0.172596 -0.00265781 -4.77803e-06)
(0.172725 -0.00277559 -4.35983e-06)
(0.172842 -0.00287276 -4.10106e-06)
(0.17298 -0.00294963 -3.40528e-06)
(0.170862 0.000234729 -4.17754e-06)
(0.170935 4.83388e-05 -4.55679e-06)
(0.171005 -5.16627e-05 -5.47968e-06)
(0.171073 -8.88257e-05 -7.13465e-06)
(0.171164 -0.000115365 -8.07385e-06)
(0.171241 -0.00019985 -7.36934e-06)
(0.171264 -0.000399929 -4.85659e-06)
(0.171157 -0.000722106 -1.62716e-06)
(0.170927 -0.0011222 9.83716e-07)
(0.170593 -0.00152665 1.76351e-06)
(0.170273 -0.00187011 1.576e-06)
(0.169994 -0.00212552 7.25324e-08)
(0.169837 -0.00230052 -1.54677e-06)
(0.169761 -0.00242108 -2.1202e-06)
(0.169769 -0.00250988 -2.48264e-06)
(0.16981 -0.00257667 -2.37616e-06)
(0.169891 -0.00262062 -1.75542e-06)
(0.16754 -1.89507e-05 -4.83759e-06)
(0.167653 -0.000192119 -4.97696e-06)
(0.167758 -0.00029054 -6.39313e-06)
(0.167894 -0.000334145 -8.59816e-06)
(0.168032 -0.000354023 -9.70635e-06)
(0.16814 -0.000379905 -9.42129e-06)
(0.168147 -0.000440689 -5.62314e-06)
(0.16797 -0.000565515 -2.59316e-07)
(0.167588 -0.000769156 4.61291e-06)
(0.167039 -0.00103964 7.23127e-06)
(0.166454 -0.00133868 6.95589e-06)
(0.165947 -0.00161982 3.99162e-06)
(0.165621 -0.00185007 3.68322e-08)
(0.165479 -0.00201954 -2.60698e-06)
(0.165493 -0.00213554 -2.90748e-06)
(0.16558 -0.00220959 -1.92372e-06)
(0.16574 -0.00224643 -7.77363e-08)
(0.163804 -9.88699e-05 -6.98216e-07)
(0.163775 -0.000225308 -1.75277e-06)
(0.163747 -0.000278822 -3.63197e-06)
(0.163744 -0.000272664 -5.58009e-06)
(0.163775 -0.000227795 -6.33174e-06)
(0.163832 -0.000171243 -6.07525e-06)
(0.163905 -0.000135136 -4.52038e-06)
(0.163934 -0.000158216 -2.59084e-06)
(0.163898 -0.000278871 -3.64621e-07)
(0.163743 -0.000514942 8.11589e-07)
(0.163512 -0.000843528 1.52187e-06)
(0.163194 -0.00120555 6.36596e-07)
(0.162893 -0.00153142 -1.17208e-06)
(0.162623 -0.0017743 -2.35971e-06)
(0.162436 -0.00192548 -2.95309e-06)
(0.162307 -0.00200975 -2.00399e-06)
(0.162259 -0.00206243 -3.40002e-07)
(0.159874 -0.00025736 -1.58713e-06)
(0.159918 -0.000364609 -3.81128e-06)
(0.159999 -0.000404978 -6.20814e-06)
(0.160115 -0.000396728 -7.66027e-06)
(0.160261 -0.000369795 -7.60968e-06)
(0.160425 -0.000349856 -6.44087e-06)
(0.16059 -0.000348267 -4.87792e-06)
(0.16075 -0.000375442 -3.90387e-06)
(0.160909 -0.00044436 -3.29571e-06)
(0.161037 -0.000567319 -3.16191e-06)
(0.161121 -0.000743161 -2.86544e-06)
(0.161119 -0.000953601 -2.57846e-06)
(0.161044 -0.00116981 -2.52967e-06)
(0.160913 -0.00136093 -2.49638e-06)
(0.160774 -0.0015078 -2.54161e-06)
(0.160637 -0.00161163 -2.75577e-06)
(0.160546 -0.00169045 -2.08445e-06)
(0.154707 -0.000385254 1.37133e-06)
(0.15473 -0.000479937 -3.50798e-06)
(0.154819 -0.000479762 -7.74122e-06)
(0.154913 -0.000413578 -9.66641e-06)
(0.154978 -0.000325303 -8.9308e-06)
(0.155006 -0.000251891 -6.65896e-06)
(0.155017 -0.00021671 -4.05794e-06)
(0.155026 -0.000235365 -2.53559e-06)
(0.155076 -0.000316599 -1.8088e-06)
(0.15516 -0.000457821 -2.41327e-06)
(0.155293 -0.000640646 -2.89073e-06)
(0.155406 -0.000836889 -3.86955e-06)
(0.155528 -0.00102016 -4.44782e-06)
(0.155615 -0.00117178 -4.47657e-06)
(0.155713 -0.0012854 -4.76261e-06)
(0.155808 -0.00136939 -4.46389e-06)
(0.15593 -0.00143768 -4.13025e-06)
(0.149145 -0.000569271 -9.04119e-06)
(0.149672 -0.000667765 -1.6135e-05)
(0.150234 -0.000606973 -1.84954e-05)
(0.150674 -0.000459752 -1.65405e-05)
(0.150955 -0.000313498 -1.23166e-05)
(0.151111 -0.000222613 -7.89185e-06)
(0.15119 -0.000199446 -4.40353e-06)
(0.151232 -0.000235943 -2.43504e-06)
(0.151276 -0.000318339 -1.55139e-06)
(0.151318 -0.000429872 -1.79134e-06)
(0.151364 -0.000553 -2.06267e-06)
(0.151381 -0.000679376 -2.55866e-06)
(0.151387 -0.000804801 -2.87216e-06)
(0.151378 -0.000923715 -2.84341e-06)
(0.151387 -0.0010297 -3.07678e-06)
(0.151422 -0.00111482 -3.29269e-06)
(0.151504 -0.00118068 -3.08205e-06)
(0.142376 -0.00115888 -1.36444e-05)
(0.142968 -0.00119527 -2.18182e-05)
(0.143547 -0.000950023 -2.33044e-05)
(0.143914 -0.000612389 -1.88646e-05)
(0.144029 -0.00034159 -1.21419e-05)
(0.143966 -0.000196875 -5.87264e-06)
(0.14384 -0.000158404 -1.453e-06)
(0.143732 -0.000191362 4.23911e-07)
(0.143696 -0.000267826 7.94361e-08)
(0.14373 -0.000362354 -1.69228e-06)
(0.143807 -0.000458012 -3.19131e-06)
(0.143884 -0.000543306 -4.39957e-06)
(0.143953 -0.000623831 -4.49857e-06)
(0.144011 -0.000705804 -4.47103e-06)
(0.14409 -0.000785957 -4.16511e-06)
(0.14418 -0.000859563 -4.4408e-06)
(0.144321 -0.000923893 -4.40624e-06)
(0.135365 -0.00134494 -2.18213e-05)
(0.13604 -0.00135285 -2.63161e-05)
(0.136744 -0.000972056 -2.37985e-05)
(0.137349 -0.0004739 -1.71548e-05)
(0.137797 -9.21932e-05 -1.04961e-05)
(0.138076 7.97609e-05 -5.43181e-06)
(0.138214 7.64448e-05 -2.45901e-06)
(0.138254 -2.65766e-05 -9.40006e-07)
(0.138262 -0.000160116 -1.22367e-06)
(0.13826 -0.000268525 -2.2377e-06)
(0.138246 -0.000334818 -2.61171e-06)
(0.138206 -0.000373111 -2.92686e-06)
(0.138136 -0.000417865 -1.92909e-06)
(0.138066 -0.000484714 -1.67061e-06)
(0.138047 -0.000567289 -2.09936e-06)
(0.138074 -0.000644999 -2.25749e-06)
(0.138165 -0.00069911 -2.41723e-06)
(0.123974 -0.00157964 -6.87501e-07)
(0.123458 -0.00194206 -7.77753e-06)
(0.122924 -0.00183754 -1.31886e-05)
(0.122613 -0.00139969 -1.23078e-05)
(0.122576 -0.000891304 -6.91356e-06)
(0.122744 -0.000497592 -1.57783e-06)
(0.122997 -0.000272963 3.28984e-06)
(0.123264 -0.000169021 5.57789e-06)
(0.123507 -0.000155544 3.75999e-06)
(0.123796 -0.000180363 -1.66348e-06)
(0.124129 -0.000191066 -6.85819e-06)
(0.124494 -0.000186015 -8.44377e-06)
(0.124812 -0.000148166 -7.56296e-06)
(0.124998 -0.000154214 -4.62418e-06)
(0.125076 -0.000223848 -2.36724e-06)
(0.125121 -0.000307602 -2.77754e-06)
(0.125177 -0.00039834 -3.84991e-06)
(0.125309 -0.000475697 -4.44239e-06)
(0.114733 -0.000792105 2.80951e-05)
(0.111941 -0.00104628 3.47692e-05)
(0.10928 -0.000970099 2.44903e-05)
(0.107232 -0.00067247 5.26529e-06)
(0.105909 -0.000354691 -1.286e-05)
(0.105182 -0.000154642 -1.93004e-05)
(0.104806 -0.000110222 -1.41202e-05)
(0.104558 -0.000156845 -4.88201e-06)
(0.104399 -0.000245287 -1.41274e-06)
(0.104248 -0.000319597 -3.29163e-06)
(0.1042 -0.000319433 -6.18312e-06)
(0.104205 -0.000236321 -8.1183e-06)
(0.10425 -8.3433e-05 -9.24289e-06)
(0.104416 2.7154e-05 -6.18479e-06)
(0.104359 4.3339e-05 -9.22727e-06)
(0.104406 2.42638e-06 -1.37562e-05)
(0.104439 -6.85186e-05 -8.81272e-06)
(0.104354 -0.000131207 -1.44002e-05)
(0.0907153 0.000471403 1.5328e-05)
(0.0898816 0.000137688 -5.05341e-06)
(0.0891925 1.05958e-05 -1.63628e-05)
(0.0889041 9.72122e-05 -7.23707e-06)
(0.0888748 0.000245511 9.47056e-06)
(0.0889046 0.000295378 1.45277e-05)
(0.0889072 0.00021236 1.12192e-05)
(0.0887626 8.51925e-05 1.06776e-05)
(0.0884186 7.35368e-06 9.62835e-06)
(0.08798 -1.18513e-05 3.51554e-06)
(0.0876327 8.57458e-06 -5.79359e-06)
(0.0875219 4.90662e-05 -1.4981e-05)
(0.0876677 8.06146e-05 -1.85246e-05)
(0.0879719 0.000106808 -1.76567e-05)
(0.0883018 0.000107787 -1.70917e-05)
(0.0885713 8.53975e-05 -1.60789e-05)
(0.0887263 7.4208e-05 -1.48923e-05)
(0.0888202 7.35864e-05 -1.82443e-05)
(0.233259 0.00337039 -2.1898e-06)
(0.23347 0.00254402 -2.65772e-06)
(0.233632 0.00166664 -3.3298e-06)
(0.233745 0.000747354 -4.33035e-06)
(0.233802 -0.000201338 -6.08718e-06)
(0.233807 -0.00116392 -7.54266e-06)
(0.233748 -0.00212773 -7.68414e-06)
(0.233616 -0.00308702 -7.29361e-06)
(0.233406 -0.00402806 -7.3897e-06)
(0.233103 -0.00492667 -9.24515e-06)
(0.232741 -0.00575425 -1.10015e-05)
(0.232316 -0.00649888 -1.25872e-05)
(0.231826 -0.00715888 -1.45285e-05)
(0.23129 -0.00773847 -1.53224e-05)
(0.230688 -0.00823307 -1.62731e-05)
(0.230076 -0.0086322 -1.62136e-05)
(0.229444 -0.00892522 -1.68429e-05)
(0.231493 0.00317323 -1.23178e-06)
(0.231622 0.00239918 -1.57611e-06)
(0.231719 0.00158389 -1.88958e-06)
(0.231771 0.000738863 -2.38893e-06)
(0.231765 -0.00012332 -3.53677e-06)
(0.231702 -0.000987037 -4.21223e-06)
(0.231585 -0.00184029 -4.2037e-06)
(0.231408 -0.00267973 -4.36469e-06)
(0.231171 -0.00350469 -4.54021e-06)
(0.23087 -0.00430931 -4.66288e-06)
(0.230512 -0.00507314 -5.05741e-06)
(0.23014 -0.00576843 -5.01647e-06)
(0.229758 -0.00637398 -5.97039e-06)
(0.229407 -0.00688273 -6.64377e-06)
(0.229045 -0.00730207 -7.72911e-06)
(0.228693 -0.00763975 -7.76904e-06)
(0.228308 -0.0079027 -7.77673e-06)
(0.229592 0.00276015 9.35757e-07)
(0.229672 0.00205531 2.32454e-07)
(0.22973 0.00131803 -6.10786e-07)
(0.22976 0.000563854 -1.57097e-06)
(0.22975 -0.000197814 -3.32113e-06)
(0.2297 -0.000963423 -4.27549e-06)
(0.229605 -0.00172661 -3.84245e-06)
(0.229453 -0.00247557 -3.69155e-06)
(0.229255 -0.00319914 -3.66256e-06)
(0.228994 -0.003893 -4.57809e-06)
(0.228681 -0.00455816 -5.13691e-06)
(0.228314 -0.0051889 -5.11889e-06)
(0.227903 -0.00576999 -5.43804e-06)
(0.227494 -0.0062765 -5.40011e-06)
(0.227097 -0.00669204 -6.12902e-06)
(0.226746 -0.00701056 -6.85274e-06)
(0.226443 -0.00724009 -7.00052e-06)
(0.227521 0.00255825 -1.7629e-06)
(0.227669 0.00190037 -3.06281e-06)
(0.227801 0.00121427 -4.06865e-06)
(0.227904 0.000513354 -5.11899e-06)
(0.227975 -0.000183865 -6.88814e-06)
(0.228028 -0.000869191 -8.42957e-06)
(0.228043 -0.00154776 -8.49437e-06)
(0.227991 -0.00222442 -7.51709e-06)
(0.227849 -0.00289036 -6.06645e-06)
(0.227627 -0.00352378 -5.22471e-06)
(0.227346 -0.00410804 -5.0039e-06)
(0.227039 -0.00463707 -4.88452e-06)
(0.226696 -0.00511899 -5.4576e-06)
(0.226329 -0.00555555 -6.05917e-06)
(0.225946 -0.00594291 -6.08957e-06)
(0.22555 -0.00626863 -6.81784e-06)
(0.225186 -0.00652287 -6.86371e-06)
(0.225329 0.00213324 -3.7158e-06)
(0.225483 0.00153862 -4.58718e-06)
(0.225615 0.000927317 -4.70656e-06)
(0.225691 0.000294337 -4.31309e-06)
(0.225692 -0.000347888 -5.16919e-06)
(0.22566 -0.000968226 -5.56079e-06)
(0.225587 -0.00154062 -6.22324e-06)
(0.225482 -0.00206947 -6.06697e-06)
(0.2253 -0.00258213 -5.12546e-06)
(0.225042 -0.00309928 -3.76036e-06)
(0.224718 -0.00362061 -2.81811e-06)
(0.22439 -0.00412108 -2.66057e-06)
(0.224095 -0.00457443 -3.39288e-06)
(0.223849 -0.00496575 -5.05026e-06)
(0.223659 -0.00529339 -5.78646e-06)
(0.223472 -0.00556342 -7.05009e-06)
(0.223315 -0.00578045 -6.89183e-06)
(0.222819 0.00187993 -6.76887e-07)
(0.222911 0.00135953 -2.90788e-06)
(0.223014 0.000849495 -4.16981e-06)
(0.223082 0.000329839 -4.30575e-06)
(0.223088 -0.00020916 -3.79752e-06)
(0.223029 -0.000748902 -3.22124e-06)