/*--------------------------------*- C++ -*----------------------------------*\
  =========                 |
  \\      /  F ield         | OpenFOAM: The Open Source CFD Toolbox
   \\    /   O peration     | Website:  https://openfoam.org
    \\  /    A nd           | Version:  6
     \\/     M anipulation  |
\*---------------------------------------------------------------------------*/
FoamFile
{
    version     2.0;
    format      ascii;
    class       volScalarField;
    location    "28";
    object      yPlus;
}
// * * * * * * * * * * * * * * * * * * * * * * * * * * * * * * * * * * * * * //

dimensions      [0 0 0 0 0 0 0];

internalField   uniform 0;

boundaryField
{
    inlet
    {
        type            calculated;
        value           uniform 0;
    }
    outlet
    {
        type            calculated;
        value           uniform 0;
    }
    roughCylinder
    {
        type            calculated;
        value           nonuniform List<scalar> 
5120
(
11.196
20.3951
34.6677
38.3859
41.6832
43.1887
44.2669
44.6437
44.9991
45.2023
45.2122
45.0153
44.8563
44.9728
44.8523
44.2468
43.6507
43.9704
42.6646
41.9855
42.1697
42.2812
43.2963
42.782
40.7301
42.3468
41.1269
40.6987
40.3236
39.5267
39.3213
39.0952
6.77788
21.5365
34.2211
38.1579
41.4948
42.9893
44.0589
44.572
44.9787
45.1589
45.3462
45.1832
45.1216
45.0989
44.9023
44.2939
43.8805
44.1145
42.9687
42.5753
42.8461
42.7411
43.76
43.2957
41.3223
42.7071
41.516
41.1006
40.6856
39.9168
39.7123
39.5149
10.2082
20.1188
33.6703
37.8141
41.1484
42.826
44.0496
44.54
45.0087
45.3034
45.28
45.0543
44.9237
45.0228
44.9101
44.4719
44.081
44.2286
43.2341
43.0566
43.2787
42.9489
43.911
43.4876
41.7884
43.0858
42.0314
41.7417
41.3643
40.6655
40.4755
40.3002
7.78096
20.72
33.1627
37.5259
41.0046
42.6986
43.8737
44.5168
45.0369
45.2236
45.3982
45.2791
45.2999
45.2929
45.1324
44.6737
44.3486
44.3787
43.6556
43.7093
43.9397
43.5499
44.4601
44.0097
42.5016
43.5328
42.5252
42.2333
41.8066
41.1421
40.9515
40.7975
10.8898
19.3545
32.4166
37.1477
40.6032
42.492
43.8677
44.4801
45.0308
45.409
45.4219
45.2597
45.1856
45.2951
45.2565
44.969
44.6233
44.57
44.0548
44.2129
44.3359
43.9041
44.6791
44.2018
43.0272
43.9368
43.0894
42.9137
42.5256
41.9425
41.7742
41.6373
11.2801
19.3536
31.7139
36.6669
40.3956
42.3516
43.651
44.4483
45.0894
45.3063
45.5241
45.5177
45.6356
45.6705
45.5728
45.2325
44.9019
44.7913
44.5324
44.7968
44.9191
44.6
45.2702
44.7576
43.8058
44.4644
43.6646
43.4638
43.0283
42.48
42.3108
42.1859
10.0565
18.0061
30.713
36.1496
39.8626
42.044
43.6177
44.3923
45.0294
45.5114
45.6308
45.5751
45.5642
45.7052
45.747
45.5691
45.2554
45.1164
44.9953
45.2507
45.2617
45.0182
45.5187
44.9873
44.3271
44.8713
44.2408
44.1486
43.7622
43.3051
43.1675
43.0567
11.9606
17.4406
29.6556
35.3236
39.4727
41.8117
43.3178
44.3342
45.1261
45.4199
45.7112
45.8363
46.05
46.1423
46.0966
45.8528
45.5482
45.4157
45.4575
45.7324
45.7819
45.7228
46.1271
45.6094
45.1182
45.4722
44.8769
44.7353
44.3101
43.8804
43.7399
43.6337
13.3496
16.1208
28.3025
34.523
38.6971
41.35
43.2428
44.2441
45.0073
45.6137
45.8765
45.9353
45.9888
46.1689
46.289
46.2099
45.9851
45.8648
45.934
46.152
46.1094
46.1346
46.3914
45.8975
45.5894
45.8682
45.4374
45.4015
45.04
44.7079
44.6077
44.5154
15.3292
15.5671
26.735
33.1775
37.9843
40.89
42.7518
44.106
45.0986
45.5258
45.9067
46.1673
46.4817
46.6436
46.6386
46.4883
46.2704
46.1876
46.3367
46.5439
46.595
46.7884
47.0029
46.5841
46.354
46.5231
46.1062
45.9947
45.6028
45.2856
45.1766
45.0824
18.6357
14.3329
24.9873
31.8775
36.7293
40.1325
42.5605
43.8845
44.8635
45.6365
46.0761
46.2565
46.3888
46.6183
46.823
46.8463
46.755
46.7001
46.7958
46.9534
46.9298
47.146
47.2554
46.8962
46.7313
46.8689
46.6029
46.6004
46.2907
46.0763
46.0156
45.9389
20.9675
14.3152
22.7036
29.8088
35.4976
39.1941
41.6365
43.5488
44.8373
45.4862
45.9902
46.4121
46.8483
47.1006
47.1371
47.0804
46.9789
46.9629
47.1043
47.2519
47.3668
47.7085
47.8399
47.5964
47.4388
47.5411
47.2663
47.1635
46.8227
46.6078
46.5257
46.4411
24.3185
14.2586
20.8469
27.7617
33.3159
37.8457
41.1483
42.9468
44.3461
45.3943
46.0863
46.4103
46.6491
46.9502
47.2613
47.3998
47.4537
47.4744
47.5285
47.6558
47.6984
47.9858
48.0372
47.8496
47.6733
47.7655
47.6233
47.639
47.4057
47.2981
47.2727
47.2139
26.0076
15.2474
17.9239
24.7863
31.3391
35.9274
39.3035
42.2302
43.9948
45.0468
45.7722
46.4358
47.025
47.3861
47.4732
47.5108
47.5295
47.5801
47.692
47.8192
48.0197
48.4053
48.5378
48.4707
48.2839
48.3955
48.2253
48.1238
47.842
47.7238
47.6585
47.5858
26.8995
15.5213
16.0811
21.6298
27.4132
33.5033
38.1725
40.6492
42.9452
44.5258
45.6735
46.2243
46.6269
47.0341
47.4704
47.7279
47.9215
48.0228
48.05
48.1874
48.3057
48.5804
48.6256
48.5692
48.3395
48.4339
48.3801
48.4179
48.2813
48.2732
48.2798
48.2445
26.4246
16.6068
12.8871
17.4842
24.3978
29.4468
34.2571
39.3047
41.8424
43.6947
44.8724
46.0116
46.8753
47.3864
47.5364
47.6613
47.7801
47.8991
48.0219
48.1798
48.4556
48.8226
49.0081
49.0551
48.8542
49.0067
48.9169
48.8164
48.5845
48.5451
48.4751
48.4131
24.4479
16.6574
9.33602
10.2116
15.93
24.7902
31.725
34.9459
39.5262
42.2265
44.3246
45.2991
46.0426
46.6958
47.3437
47.7604
48.0851
48.2715
48.3301
48.5228
48.6855
48.8848
48.9096
48.869
48.6207
48.7005
48.7014
48.7687
48.7441
48.829
48.8659
48.8592
22.0798
16.9088
10.0247
8.6254
8.7998
11.7391
21.0199
32.8565
36.4282
40.2578
42.4085
44.583
45.999
46.7903
47.0794
47.325
47.5545
47.7672
47.9674
48.1729
48.4753
48.7784
49.0245
49.0864
48.9709
49.1556
49.1185
49.015
48.801
48.7983
48.6756
48.605
19.256
15.5804
7.41374
8.50381
7.47653
11.3744
12.6512
11.4895
30.7139
36.302
40.8834
42.6935
44.1535
45.3897
46.4769
47.2013
47.7215
48.0244
48.1759
48.4571
48.5979
48.6481
48.5329
48.3313
48.1228
48.0517
48.029
48.0945
48.183
48.3512
48.4062
48.4308
16.3576
15.8757
11.7662
3.89292
3.50341
7.0627
6.65726
12.5777
13.7246
31.1866
36.0252
40.9257
43.5281
44.7995
45.3778
45.8284
46.2462
46.6269
46.9876
47.2375
47.4722
47.6285
47.8596
47.8351
47.9396
48.092
48.0537
47.9208
47.5995
47.4817
47.2031
47.0478
12.1702
12.7789
7.15765
6.56641
9.51753
4.41306
11.7566
11.4327
13.333
15.9532
32.439
35.947
39.0016
41.746
43.8127
45.2219
46.064
46.5363
46.8292
47.2079
47.2486
47.0158
46.3941
45.6943
45.4465
44.7606
44.4622
44.3069
44.4672
44.7213
44.7051
44.7555
12.0128
13.6315
7.65
7.01209
5.80407
10.9594
5.47902
12.4947
7.18727
9.81643
18.5486
31.8273
37.465
39.2664
40.3663
41.0801
41.9518
42.6907
43.3181
43.5035
43.4564
43.157
43.139
43.0322
43.4806
43.4679
43.2995
43.0118
42.056
40.6872
39.915
39.136
5.28592
10.1492
7.67331
12.0662
12.9931
14.6955
9.65051
8.97636
14.2807
8.34255
6.92136
16.3571
15.2019
29.2843
35.4689
39.488
40.9319
41.6034
41.9946
42.433
42.2415
41.4113
38.9201
35.6639
33.872
28.7884
24.9617
19.7134
16.2634
18.6008
10.8601
8.87732
6.74099
11.6573
5.14702
5.22978
12.8782
20.3533
23.2323
23.468
20.6471
9.24028
7.35861
13.3971
8.91007
12.2899
11.6015
13.0747
21.3326
24.8016
26.3493
25.0759
22.5561
16.7257
10.3037
16.2074
6.63634
15.3319
8.48413
6.81157
12.5301
14.9373
12.3633
7.78581
11.1063
13.5135
11.3253
9.27023
11.5423
16.974
21.8729
24.6088
24.8229
23.535
14.7427
4.77472
10.0725
15.2882
4.15559
9.98494
16.1206
12.719
7.59677
8.46337
12.7048
3.19104
5.77462
18.149
4.4575
18.5734
16.4298
5.29778
5.13197
16.3886
5.23725
8.88779
11.2144
16.6173
16.5011
15.5788
15.3804
17.5273
20.9731
23.8509
25.1432
24.0656
21.2143
19.1234
17.5227
15.2978
10.4915
12.4264
9.89271
9.17257
14.8285
8.56331
15.0336
13.5176
13.2063
18.8132
12.967
16.1927
19.9887
22.0494
23.5488
24.4049
25.3753
25.3416
9.38623
17.8654
20.1431
21.0541
21.4579
22.3016
23.7577
25.1693
25.6817
24.9741
24.0355
23.5498
23.1094
23.7906
24.7348
24.2912
22.8607
21.1129
20.0103
19.5706
19.9257
20.8174
22.6124
25.6029
26.6395
27.3856
27.407
27.5152
27.324
27.1126
26.8646
26.7626
7.49833
17.7785
21.3854
23.5033
24.7508
25.5866
26.2476
26.6594
26.5785
26.0549
25.308
24.086
23.4208
24.8066
26.076
26.499
26.5452
26.4322
26.3052
26.401
26.6954
27.1909
27.7777
27.9387
28.53
29.2548
29.1832
29.0255
28.5316
27.8442
26.99
26.3892
6.06938
16.9068
21.1143
23.8216
25.5768
26.6315
27.1332
27.0849
26.3417
24.4863
21.065
16.2462
14.6175
18.8116
23.179
26.0113
27.4055
27.9342
28.0992
28.238
28.4488
28.7832
29.0279
28.8749
28.5127
28.4433
27.5615
26.6227
25.3746
23.858
22.3714
21.3367
4.98796
15.5314
19.9474
22.9403
24.9872
26.2591
26.8309
26.6497
25.564
23.2572
19.8876
17.1549
15.4832
13.0056
13.6755
18.2482
22.0233
24.3833
25.6516
26.2826
26.6037
26.6774
26.39
25.6831
25.0725
24.8056
24.0739
23.3865
22.5546
21.5551
20.5951
19.9679
4.27154
14.0663
18.4058
21.4901
23.6825
25.0988
25.7765
25.6251
24.5067
22.312
19.5689
16.6488
12.72
12.4554
15.7554
18.155
19.9026
21.3706
22.4496
23.1429
23.5545
23.771
23.815
23.7318
23.6328
23.5286
23.0336
22.3951
21.5698
20.5949
19.6878
19.1199
3.62503
12.2406
16.3979
19.4974
21.7513
23.209
23.8829
23.6815
22.4903
20.4408
18.1308
15.473
13.4315
13.4962
14.7496
16.9263
19.2068
20.9513
22.0415
22.6444
22.9424
23.0393
22.9595
22.6551
22.2824
21.964
21.4362
20.9531
20.4399
19.777
19.1195
18.7082
3.58987
11.48
14.0644
16.6361
18.7338
20.1422
20.7743
20.5826
19.6374
18.3811
16.9092
14.5002
12.1215
12.0254
14.2103
16.6204
18.5763
20.0443
21.0315
21.5897
21.8311
21.8675
21.7723
21.5913
21.3998
21.2241
20.9228
20.5793
20.1762
19.6459
19.1035
18.768
3.30028
10.3129
11.7752
13.6887
15.5295
16.955
17.8254
18.2081
18.2522
17.906
16.3961
13.6467
12.3854
13.8436
15.6592
17.2151
18.6068
19.7842
20.6583
21.2207
21.5328
21.6795
21.7297
21.7124
21.6606
21.5679
21.3802
21.1243
20.7899
20.3253
19.8358
19.5401
3.26858
9.58142
11.4179
12.9787
14.6365
16.1414
17.357
18.1978
18.4338
17.5609
15.1948
12.786
12.9159
14.4959
16.3196
18.0061
19.4049
20.4913
21.2791
21.8086
22.1412
22.3453
22.4772
22.5534
22.5737
22.5177
22.3549
22.0915
21.7375
21.2672
20.7763
20.4838
3.57488
9.55803
11.5168
13.3973
15.1792
16.7204
17.8631
18.3597
17.8535
16.0009
13.4498
12.7566
14.2536
16.2181
17.9083
19.2768
20.4371
21.4121
22.1813
22.7448
23.1369
23.4102
23.6102
23.7493
23.818
23.7883
23.6369
23.3595
22.9723
22.4711
21.9582
21.6567
3.7578
9.76551
11.7788
13.6767
15.3822
16.7075
17.4185
17.2136
15.8248
13.6605
12.6538
13.9298
15.8971
17.6933
19.2303
20.5646
21.7025
22.6449
23.3995
23.9816
24.4205
24.7551
25.0164
25.2099
25.3201
25.3177
25.1772
24.883
24.4572
23.9138
23.3637
23.0398
3.8553
9.9749
11.8588
13.5296
14.8886
15.7124
15.7206
14.7689
13.1306
12.4108
13.6701
15.7339
17.7312
19.4421
20.8734
22.0818
23.1237
24.0227
24.7807
25.4037
25.9102
26.3245
26.6619
26.9188
27.0732
27.096
26.9626
26.6528
26.1889
25.5982
25.0028
24.6479
3.49978
9.64734
11.5139
12.6576
13.5236
13.7185
13.1674
12.2181
11.9758
13.3541
15.5481
17.7323
19.6114
21.1837
22.5275
23.7015
24.7303
25.6264
26.4002
27.0634
27.6316
28.1191
28.5288
28.8469
29.045
29.092
28.9637
28.6387
28.1395
27.5026
26.8592
26.4674
2.999
8.88556
10.7237
11.5063
11.894
11.8236
11.5402
11.7141
13.1553
15.4285
17.749
19.7962
21.5343
23.0246
24.3219
25.464
26.4793
27.3853
28.1924
28.9098
29.5471
30.1099
30.5915
30.9698
31.2109
31.2813
31.1572
30.818
30.2869
29.6075
28.9179
28.487
2.36556
2.44114
2.7372
2.80382
2.79957
2.83588
3.1373
3.62666
4.2729
5.08297
6.01532
6.85859
7.45732
7.71368
7.72539
7.57388
7.35483
7.11107
6.88446
6.68168
6.51361
6.38009
6.27489
6.1882
6.12605
5.98412
5.76906
5.55266
5.3238
5.04934
5.06823
4.65689
4.10337
3.7501
3.24316
2.75261
2.18195
1.79424
1.78603
2.25156
10.4995
10.6704
11.3582
11.6117
11.6058
11.7828
12.1865
13.2555
14.1135
14.792
15.3263
15.6658
15.8791
15.9527
15.9549
15.8825
15.7737
15.6236
15.4533
15.2545
15.0301
14.7719
14.4631
14.1036
13.7197
13.3441
12.9905
12.6311
12.2406
11.78
11.539
11.1287
10.4091
9.89361
9.04997
8.08513
6.86816
5.94698
5.94344
7.22794
11.4984
11.8502
12.4733
13.0487
13.9837
15.0044
16.0395
16.9147
17.6008
18.1051
18.4774
18.7101
18.8578
18.912
18.9127
18.8515
18.75
18.6036
18.4245
18.2064
17.9435
17.6296
17.2905
16.9295
16.538
16.1375
15.7395
15.3188
14.8556
14.327
13.7372
13.0968
12.2746
11.6071
10.8752
10.0684
8.92998
7.99936
7.81476
9.13576
12.7728
13.3563
14.3277
15.3509
16.5751
17.6362
18.5724
19.3195
19.9173
20.3735
20.7231
20.9672
21.1369
21.2291
21.2654
21.2439
21.1742
21.0514
20.8793
20.6502
20.3758
20.0778
19.7702
19.4525
19.1043
18.7186
18.2951
17.8287
17.3089
16.7206
16.0535
15.2999
14.396
13.4134
12.2067
11.5625
10.5463
9.77535
9.4042
10.4634
14.4681
15.2692
16.4839
17.6542
18.845
19.8181
20.6834
21.3716
21.9468
22.396
22.7546
23.0212
23.2184
23.3465
23.417
23.4304
23.3909
23.2914
23.1262
22.9091
22.6678
22.4157
22.1369
21.8258
21.4766
21.0828
20.6402
20.1454
19.5926
18.9721
18.2745
17.4876
16.5722
15.5102
14.2254
12.9883
11.5757
11.2384
10.7389
11.3388
16.4607
17.3024
18.6096
19.7544
20.8513
21.756
22.5646
23.2143
23.7701
24.2123
24.5762
24.8593
25.0798
25.2388
25.3443
25.3934
25.3843
25.3081
25.1703
24.9969
24.7947
24.5569
24.2845
23.9746
23.6217
23.2191
22.7628
22.2502
21.6783
21.042
20.3344
19.5451
18.6486
17.6123
16.3893
15.0175
13.4676
12.0588
11.5328
11.5723
18.4551
19.2271
20.5608
21.6027
22.6201
23.4677
24.2223
24.8461
25.3815
25.8225
26.1921
26.4942
26.7412
26.9355
27.0777
27.164
27.1873
27.1446
27.0527
26.9123
26.7199
26.4886
26.2217
25.9158
25.5631
25.1564
24.6913
24.1669
23.5832
22.938
22.2278
21.4453
20.5747
19.5898
18.46
17.1587
15.6519
14.008
12.4485
11.5633
20.2451
20.9569
22.2781
23.2018
24.1723
24.9677
25.6842
26.2923
26.8141
27.2609
27.6402
27.9667
28.2441
28.4743
28.6539
28.7767
28.8352
28.8362
28.7777
28.6477
28.4573
28.2308
27.971
27.6752
27.3301
26.9257
26.457
25.9259
25.3352
24.6851
23.9748
23.2005
22.3529
21.4154
20.3682
19.182
17.8153
16.2474
14.5063
12.8722
21.7714
22.4872
23.7628
24.5958
25.5438
26.2937
26.9916
27.5882
28.1059
28.5608
28.9544
29.3077
29.6148
29.8799
30.0951
30.2526
30.3509
30.3879
30.3444
30.2149
30.0105
29.7858
29.5352
29.26
28.9381
28.546
28.0799
27.5473
26.9543
26.303
25.5947
24.8284
23.9999
23.0998
22.116
21.0297
19.8086
18.4209
16.8033
15.1187
23.0676
23.8463
25.043
25.8364
26.7653
27.4837
28.1751
28.7619
29.2824
29.7443
30.1568
30.5339
30.8702
31.1671
31.4146
31.6073
31.7433
31.8022
31.7658
31.6185
31.3466
31.115
30.8775
30.6492
30.3919
30.027
29.5708
29.0428
28.4524
27.8037
27.0995
26.3417
25.5293
24.6586
23.7225
22.712
21.6037
20.388
18.9765
17.4868
24.2195
25.0359
26.1625
26.9524
27.8599
28.5631
29.2524
29.8323
30.3584
30.8279
31.2596
31.6582
32.0216
32.3468
32.6248
32.8537
33.0179
33.095
33.0625
32.8787
32.5976
32.3757
32.1402
31.9137
31.6901
31.3782
30.9382
30.4206
29.8381
29.1957
28.498
27.7491
26.9511
26.1039
25.2041
24.2501
23.2233
22.1363
20.8967
19.6491
25.2392
26.0717
27.1496
27.9581
28.8423
29.5471
30.2338
30.8127
31.3451
31.8242
32.2741
32.6928
33.0808
33.4316
33.7407
34
34.1879
34.2856
34.2656
34.072
33.7977
33.5805
33.3483
33.1233
32.9044
32.6185
32.1936
31.6913
31.1214
30.4887
29.7993
29.0597
28.274
27.4456
26.5738
25.6615
24.694
23.6964
22.5777
21.5159
26.1165
26.9704
28.0237
28.8574
29.7266
30.4437
31.13
31.7151
32.2551
32.7465
33.214
33.6519
34.062
34.4372
34.7752
35.0579
35.268
35.3876
35.3895
35.2282
34.9506
34.7364
34.5094
34.2896
34.0725
33.7695
33.352
32.8693
32.3168
31.6965
31.0164
30.2849
29.5094
28.6949
27.8435
26.9611
26.0359
25.0997
24.0637
23.1271
26.8822
27.7382
28.8043
29.6551
30.5286
31.2618
31.9559
32.5532
33.1047
33.6112
34.0959
34.5521
34.9826
35.3828
35.7426
36.0443
36.2737
36.4114
36.4366
36.333
36.0781
35.8547
35.6358
35.422
35.1922
34.8418
34.4314
33.9738
33.4424
32.8363
32.1652
31.4404
30.6713
29.8655
29.0269
28.1638
27.2668
26.3713
25.3907
24.5378
27.5164
28.4233
29.4929
30.3754
31.2608
32.0187
32.7279
33.3447
33.9124
34.4362
34.9385
35.4129
35.8647
36.286
36.6628
36.981
37.2248
37.3731
37.4094
37.3368
37.1967
36.9508
36.7394
36.5177
36.2168
35.8515
35.4577
35.0281
34.5202
33.9285
33.2648
32.5434
31.7762
30.973
30.1395
29.2854
28.4037
27.5321
26.5863
25.79
28.0627
29.0476
30.1148
31.0399
31.9436
32.7332
33.4648
34.1073
34.6957
35.2393
35.7597
36.2539
36.7267
37.1651
37.5578
37.891
38.1461
38.3008
38.3382
38.2675
38.1507
37.9829
37.7631
37.4941
37.1795
36.8309
36.4594
36.0563
35.5711
34.9921
34.3328
33.6105
32.8402
32.0329
31.1964
30.3415
29.4632
28.6012
27.6728
26.9129
28.6205
29.6035
30.713
31.6625
32.6014
33.4211
34.1834
34.8541
35.4673
36.0318
36.572
37.0881
37.5789
38.0332
38.4421
38.7899
39.0566
39.2192
39.2582
39.1821
39.0626
38.8992
38.6895
38.434
38.1378
37.8094
37.4582
37.0768
36.6112
36.0414
35.3823
34.6546
33.8754
33.0579
32.2107
31.3458
30.46
29.5942
28.6687
27.9266
29.1739
30.13
31.2938
32.2641
33.2432
34.0942
34.8903
35.5906
36.23
36.8168
37.38
37.9154
38.4224
38.8935
39.3187
39.6819
39.9632
40.1382
40.1859
40.11
39.9876
39.8281
39.6277
39.3858
39.1056
38.7942
38.4601
38.0965
37.6461
37.0811
36.4182
35.6809
34.8883
34.0547
33.1902
32.3073
31.4046
30.5236
29.5881
28.8461
29.6933
30.6482
31.8508
32.8506
33.8658
34.7507
35.5792
36.3097
36.9768
37.5891
38.1727
38.7247
39.2477
39.7351
40.1763
40.5561
40.8545
41.0465
41.1093
41.0415
40.9149
40.758
40.5655
40.3355
40.0701
39.7749
39.4576
39.1095
38.6692
38.105
37.4352
36.6856
35.8764
35.0233
34.1368
33.2301
32.3033
31.3979
30.4408
29.6834
30.1673
31.1385
32.3738
33.4068
34.454
35.3725
36.2323
36.9958
37.6932
38.3279
38.9283
39.4962
40.0341
40.5361
40.9927
41.3894
41.7068
41.9203
42.0045
41.9514
41.818
41.6623
41.4764
41.2586
41.0089
40.7315
40.432
40.0982
39.663
39.0965
38.4185
37.6558
36.8296
35.9558
35.0454
34.112
33.1567
32.2207
31.2331
30.4477
30.5837
31.5758
32.8389
33.9043
34.9841
35.9384
36.832
37.6279
38.3514
39.0063
39.6224
40.204
40.7543
41.2686
41.7388
42.1516
42.4893
42.7281
42.8413
42.8116
42.671
42.5141
42.3337
42.1282
41.8959
41.6387
41.3586
41.0385
40.604
40.0326
39.3463
38.5717
37.7299
36.8367
35.9035
34.9436
33.9586
32.9896
31.966
31.1442
30.9202
31.9357
33.2278
34.3259
35.438
36.4261
37.3504
38.1754
38.9245
39.599
40.2286
40.8211
41.3804
41.9033
42.3831
42.8085
43.1635
43.4271
43.574
43.5819
43.4562
43.293
43.1149
42.9199
42.7052
42.4695
42.2095
41.9011
41.4621
40.8837
40.1896
39.4053
38.5512
37.6422
36.6892
35.7057
34.6932
33.6924
32.632
31.7708
31.1593
32.1965
33.5154
34.6442
35.7868
36.8067
37.7607
38.6139
39.3879
40.0824
40.7245
41.326
41.892
42.4212
42.9084
43.3442
43.7151
44.0031
44.1851
44.2377
44.1522
43.9798
43.7997
43.6117
43.4127
43.197
42.9544
42.6502
42.2009
41.6134
40.9123
40.1215
39.259
38.3388
37.3712
36.3688
35.3334
34.3047
33.211
32.3131
31.283
32.336
33.6773
34.8335
36.0045
37.0561
38.0406
38.9236
39.724
40.4396
41.0943
41.7036
42.2746
42.8075
43.2991
43.7417
44.1248
44.4333
44.6487
44.7494
44.7186
44.5659
44.3794
44.1917
44.0011
43.7971
43.5584
43.2384
42.7746
42.1786
41.4733
40.6798
39.8136
38.8874
37.9104
36.8947
35.8422
34.7912
33.6707
32.7424
31.2719
32.3363
33.6962
34.8774
36.0756
37.1582
38.1738
39.0884
39.9186
40.6595
41.3281
41.9447
42.519
43.0527
43.5445
43.9889
44.3778
44.7
44.9418
45.0867
45.1189
45.0323
44.8505
44.6551
44.4591
44.2498
43.994
43.6343
43.1482
42.5428
41.8353
41.0418
40.1756
39.247
38.2652
37.241
36.1772
35.1101
33.9711
33.0205
31.1142
32.1888
33.5659
34.7735
36.0002
37.1156
38.1636
39.1104
39.9703
40.738
41.4253
42.0499
42.6265
43.1587
43.6472
44.0883
44.4763
44.803
45.0589
45.2327
45.313
45.2919
45.1757
44.9907
44.7722
44.5246
44.2133
43.8089
43.2978
42.6817
41.9715
41.1786
40.3134
39.3848
38.4007
37.3718
36.3015
35.2241
34.0758
33.1116
30.8194
31.9033
33.2965
34.5311
35.7871
36.9374
38.0196
39.0002
39.8909
40.6859
41.3937
42.0272
42.6054
43.1346
43.6167
44.05
44.4304
44.7521
45.0081
45.1903
45.2902
45.2998
45.2173
45.0531
44.827
44.5429
44.1906
43.7531
43.2179
42.5887
41.8733
41.0793
40.2141
39.2852
38.3
37.2684
36.1953
35.1124
33.9625
32.9928
30.4134
31.5058
32.9131
34.1738
35.4579
36.6409
37.755
38.7672
39.6872
40.5092
41.2388
41.8823
42.4614
42.9853
43.4577
43.8783
44.2444
44.5517
44.7954
44.9699
45.0699
45.0896
45.0249
44.8735
44.6398
44.3317
43.9456
43.4715
42.9099
42.2661
41.5435
40.746
39.8784
38.9472
37.9594
36.9247
35.8496
34.7631
33.6168
32.6458
29.9169
31.0139
32.4307
33.7137
35.0218
36.2339
37.3771
38.4187
39.3659
40.2123
40.9624
41.6201
42.2013
42.7202
43.182
43.5879
43.9365
44.2242
44.4473
44.6014
44.6825
44.6865
44.6112
44.4535
44.212
43.8862
43.4755
42.9794
42.4008
41.7446
41.0128
40.2079
39.3342
38.3972
37.4047
36.366
35.2895
34.2012
33.0624
32.0944
29.3343
30.4362
31.8613
33.1644
34.4952
35.7346
36.9056
37.9754
38.9488
39.8188
40.5888
41.2599
41.8432
42.3565
42.8073
43.1978
43.5276
43.7942
43.9944
44.1244
44.1812
44.1614
44.0632
43.8839
43.6223
43.2775
42.8493
42.3379
41.7448
41.0742
40.3302
39.5149
38.6324
37.6881
36.6898
35.647
34.5692
33.48
32.3506
31.3873
28.7887
29.8959
31.3283
32.6486
33.9981
35.26
36.4535
37.5451
38.5376
39.4237
40.2061
40.8859
41.47
41.9766
42.4155
42.7901
43.1007
43.3456
43.5224
43.6276
43.6591
43.6138
43.4906
43.2872
43.0026
42.6365
42.189
41.6606
41.0522
40.3673
39.6102
38.7844
37.8938
36.9438
35.9419
34.8978
33.8221
32.7359
31.6197
30.6657
28.5066
29.6247
31.0648
32.3967
33.7562
35.0285
36.2304
37.3292
38.3267
39.2154
39.9983
40.6763
41.2559
41.7539
42.1811
42.5412
42.8352
43.0617
43.2184
43.3024
43.3117
43.2439
43.0984
42.8731
42.5677
42.182
41.7167
41.1724
40.5509
39.8544
39.0878
38.2555
37.3614
36.411
35.4118
34.3739
33.3081
32.2344
31.1385
30.2026
14.5905
23.5993
36.0148
39.9726
43.1696
44.574
45.5037
45.7367
45.9144
45.9821
46.0644
45.9623
45.9772
46.2075
46.4608
46.6003
46.5884
45.9564
45.0707
44.1231
43.1301
42.4067
43.3708
44.2789
43.0676
43.1013
42.4925
41.7593
41.4031
40.7055
40.4097
40.1875
9.75492
23.4317
35.5932
39.7515
42.9769
44.4189
45.3139
45.5538
45.7963
45.9166
46.0596
46.0783
46.1967
46.4389
46.6813
46.7771
46.6546
46.0436
45.471
44.4254
43.539
42.7681
43.7005
44.674
43.4487
43.5829
43.0391
42.4093
42.0741
41.4086
41.1359
40.913
10.2639
23.1937
35.2497
39.5896
42.788
44.2923
45.2694
45.602
45.9117
46.1376
46.4085
46.4699
46.5382
46.733
46.9227
46.9637
46.8098
46.278
46.0049
44.8967
44.181
43.4069
44.2168
45.1489
43.8213
43.9591
43.4123
42.8637
42.5593
41.9256
41.6846
41.4775
3.90231
22.743
34.6432
39.2431
42.5717
44.2124
45.2073
45.5448
45.9146
46.1965
46.4556
46.5714
46.7204
46.9261
47.1025
47.1236
46.9124
46.4583
46.3673
45.1981
44.6377
43.8884
44.6369
45.5973
44.3093
44.5358
44.0379
43.5781
43.2882
42.6911
42.4602
42.2558
6.71583
22.1745
34.0824
38.9801
42.3656
44.0776
45.1594
45.6484
46.1064
46.4323
46.8104
46.9901
47.0911
47.2346
47.3546
47.3325
47.1344
46.7763
46.8274
45.6804
45.2979
44.6095
45.2207
46.0983
44.7545
44.9759
44.4787
44.0945
43.8369
43.2864
43.0791
42.8951
11.6649
21.4646
33.1844
38.3974
42.0005
43.9473
45.1475
45.6669
46.1447
46.5437
46.8783
47.0444
47.2085
47.3815
47.5008
47.4859
47.2735
46.9919
47.0973
46.0005
45.757
45.149
45.7013
46.5785
45.3303
45.6143
45.1624
44.8499
44.5975
44.0911
43.8831
43.704
11.3685
20.5153
32.2959
37.8964
41.6817
43.7548
45.0333
45.7271
46.3525
46.7583
47.1869
47.452
47.6023
47.722
47.7865
47.7291
47.5462
47.3399
47.4832
46.5119
46.4048
45.8967
46.3142
47.0845
45.8237
46.0855
45.6453
45.4016
45.1807
44.7357
44.5472
44.3919
11.7657
19.3227
30.9969
36.9626
41.048
43.4444
44.9711
45.7794
46.382
46.8778
47.2787
47.4875
47.6779
47.8365
47.9174
47.8834
47.7029
47.5526
47.692
46.8613
46.8479
46.4465
46.8168
47.581
46.4606
46.7586
46.369
46.1794
45.9553
45.5585
45.3638
45.2138
13.0649
18.3006
29.6589
36.0489
40.4659
43.1128
44.7423
45.7076
46.5393
47.0537
47.5255
47.8728
48.1003
48.2259
48.2517
48.1721
48.0179
47.922
48.06
47.4075
47.4803
47.1854
47.4314
48.0812
46.9761
47.2386
46.8729
46.7429
46.5493
46.2224
46.048
45.9243
15.8171
17.1247
27.8877
34.6085
39.4055
42.4626
44.4837
45.7167
46.514
47.1292
47.6251
47.905
48.1415
48.2984
48.3588
48.3151
48.1795
48.1271
48.2502
47.771
47.8957
47.7021
47.9233
48.573
47.632
47.9128
47.6058
47.5109
47.3099
47.0285
46.8478
46.7289
19.0717
16.4647
26.0005
33.052
38.3189
41.8206
44.0446
45.399
46.5136
47.2122
47.7689
48.2185
48.5469
48.7103
48.7243
48.6421
48.5305
48.5196
48.6308
48.3222
48.4945
48.3886
48.5091
49.038
48.1237
48.3647
48.0876
48.0423
47.8754
47.6645
47.5106
47.4199
22.1259
16.1133
23.8187
30.9243
36.5764
40.5726
43.3474
45.2154
46.3527
47.1632
47.8105
48.2057
48.5114
48.6868
48.7607
48.7395
48.6753
48.7044
48.8051
48.6534
48.8498
48.8207
48.9513
49.4869
48.7439
48.9983
48.7855
48.753
48.5803
48.4048
48.2474
48.1607
24.9764
16.3493
21.4575
28.4145
34.5759
39.2796
42.4804
44.4548
46.0157
47.0386
47.7726
48.3588
48.8063
49.0513
49.1089
49.0756
49.0402
49.1014
49.1898
49.1646
49.3811
49.4096
49.4679
49.8638
49.1471
49.3636
49.174
49.1818
49.0533
48.9423
48.8218
48.7656
27.1144
17.2132
19.2205
25.4622
31.7447
36.923
40.8573
43.7671
45.5429
46.7369
47.6495
48.2331
48.6417
48.8616
48.9933
49.0571
49.1078
49.214
49.304
49.3921
49.6144
49.6888
49.7938
50.2036
49.6574
49.8946
49.7732
49.778
49.6558
49.5677
49.4472
49.3953
27.7652
18.2716
16.6446
21.4545
27.9856
34.2341
39.0807
42.1287
44.5151
46.1522
47.2822
48.1192
48.7398
49.1283
49.2979
49.3678
49.4353
49.5562
49.6426
49.8072
50.033
50.1446
50.2045
50.4481
49.9362
50.1374
50.0215
50.0625
49.9984
49.9664
49.8922
49.8734
26.8921
19.1341
14.7848
17.495
23.517
29.5122
35.1279
40.1476
43.2705
45.3174
46.7721
47.7431
48.3832
48.7237
48.981
49.1815
49.3745
49.5596
49.6709
49.8985
50.1162
50.2478
50.3772
50.6496
50.314
50.539
50.4916
50.5038
50.4531
50.425
50.351
50.3344
24.5225
19.2548
12.2279
8.88104
12.9864
22.5965
31.3097
36.256
40.5994
43.6593
45.7358
47.1299
48.1157
48.7889
49.1796
49.4238
49.6342
49.8248
49.9465
50.1945
50.3969
50.5363
50.6089
50.6594
50.36
50.5341
50.4692
50.5172
50.5423
50.5655
50.539
50.5593
21.7025
18.5757
6.71943
10.7496
11.5223
9.35607
12.582
29.468
37.0662
41.5011
44.306
46.177
47.3518
48.0098
48.5098
48.9347
49.3097
49.5954
49.7705
50.0167
50.1966
50.3269
50.4647
50.5785
50.4933
50.6776
50.6864
50.6706
50.7119
50.7124
50.6723
50.6743
18.5996
17.1405
6.5874
10.8701
5.27898
11.3861
3.2321
8.62746
27.2466
36.6814
41.7502
44.5414
46.356
47.6021
48.4127
48.9497
49.3538
49.65
49.8526
50.0651
50.2207
50.3221
50.3284
50.1031
50.0128
50.0473
49.9864
49.9681
50.094
50.1304
50.1333
50.1945
15.7615
15.5595
11.9525
10.4698
11.106
11.332
11.5697
3.19683
13.7152
30.0235
37.8056
42.2568
44.6564
45.9847
46.9169
47.7018
48.3227
48.7789
49.0654
49.1868
49.288
49.3073
49.3334
49.2544
49.4626
49.4707
49.5005
49.363
49.4699
49.4289
49.3592
49.3003
11.5815
14.0104
8.47928
11.5564
4.63608
11.9962
12.477
12.3975
13.1276
9.66675
31.9856
38.2447
42.0181
44.4503
46.0716
47.0402
47.7195
48.1923
48.5061
48.5339
48.6088
48.5364
48.1642
47.3846
47.4023
46.8889
46.7165
46.3504
46.4699
46.3705
46.3267
46.4617
8.82289
11.7771
7.11201
8.71365
9.54918
13.7811
11.3187
8.914
6.79847
11.3862
24.3468
33.5114
37.911
40.4526
42.0575
43.529
44.5478
45.3077
45.711
45.4564
45.3508
44.9245
44.5286
44.0837
44.6216
44.0069
43.9512
43.2807
43.0816
42.634
41.821
41.0274
8.33579
11.1843
5.04536
3.24012
8.5442
9.57382
11.4239
12.1003
14.232
13.4112
15.562
16.4125
28.2232
34.5298
39.012
40.7336
41.8877
42.6325
42.9891
42.5574
42.403
41.7442
39.2677
35.7172
33.925
29.2101
27.2354
21.6045
16.8452
10.3677
20.1771
14.645
10.1393
10.6671
6.8983
5.64919
15.4737
20.5306
20.4989
15.8825
9.95608
6.86031
13.9423
14.0742
16.0548
6.31257
18.9446
18.7991
23.782
26.2702
26.7583
24.3213
21.728
14.6948
12.5815
16.947
16.2023
15.9551
18.986
19.1172
12.9479
17.2827
11.6779
15.0146
7.66663
11.6741
9.68871
3.51379
10.9164
20.933
26.6446
28.6049
27.3217
21.4433
12.1275
1.888
8.95707
12.3518
15.089
15.6552
16.5199
12.4768
7.90397
12.8273
17.0137
5.59571
16.6596
17.8714
4.19867
12.6584
7.54972
18.1575
7.69418
12.9707
8.37949
16.5586
2.54448
11.3328
12.3457
11.8303
12.0561
16.2688
21.9762
26.2458
28.0227
28.8593
28.5065
25.2087
19.8122
18.1619
15.8451
13.5563
9.38412
8.35334
12.0657
5.08
18.2835
12.2228
19.987
9.71427
16.1772
18.3112
21.0465
23.46
25.3015
25.5514
26.9832
25.9694
6.2598
13.3068
16.7822
19.0468
19.5758
20.1006
22.028
24.7757
27.2551
28.6894
29.1456
29.3028
28.4013
28.3111
29.0682
27.9113
26.7656
25.0632
23.4898
23.0007
23.3821
23.4992
26.2225
28.3702
29.2264
29.7634
29.9907
29.5632
29.2819
28.8337
28.2737
28.0735
5.07203
12.3485
17.032
21.1433
23.742
24.8638
25.623
26.7856
28.3699
30.0142
31.0932
29.8975
26.463
26.3032
27.6562
28.2545
28.8114
29.104
29.2084
29.3197
29.4359
29.8117
29.8133
29.4282
29.0991
29.5129
29.8889
29.6052
29.2656
28.5958
27.9248
27.4175
2.63632
8.27851
13.2639
18.5509
22.601
25.0609
26.4544
27.3984
28.2019
28.5363
27.1745
22.9157
17.9405
19.007
22.4796
24.9601
27.1158
28.4321
28.958
29.2348
29.4517
29.6621
29.7137
29.2755
28.7075
28.3585
28.1724
26.8244
25.4193
23.8579
22.3541
21.2629
2.2374
7.65818
11.1486
14.8537
18.4023
21.0934
22.7536
23.51
23.3598
21.7902
18.5013
12.0201
5.89311
4.31835
1.79334
12.2738
14.8956
20.7093
23.719
25.2681
26.0171
26.246
25.7867
24.6428
23.4879
23.1936
23.0118
22.3829
21.6495
20.826
20.0112
19.5701
3.02138
9.67621
11.6045
13.192
14.5527
15.5622
15.7652
14.5629
12.7149
8.8542
8.37299
9.25699
3.42973
13.7544
18.2296
20.3266
19.3338
18.912
19.8482
21.0309
21.901
22.3965
22.6168
22.7779
23.1315
23.2819
23.2118
22.7674
22.1891
21.5126
20.8622
20.4493
4.03441
11.7142
13.8929
15.3333
16.2054
16.0934
14.6512
10.4088
10.7056
10.8902
6.78598
8.78381
13.8313
13.6767
12.6065
14.8595
19.333
21.7263
22.6846
23.1675
23.4292
23.4901
23.31
22.8757
22.3183
21.9026
21.4851
20.8852
20.2882
19.6643
19.0287
18.6159
3.64311
11.4852
14.1085
16.1947
17.8508
18.7627
18.7653
18.3318
15.8902
13.7986
13.0842
14.0941
14.4638
15.2754
16.2979
15.7136
14.6944
16.3419
18.5451
19.9797
20.6941
20.9533
20.9394
20.8171
20.7525
20.6874
20.5737
20.3567
20.0488
19.6488
19.2572
18.996
3.32146
11.4313
13.2612
15.2529
17.0653
18.2571
18.6576
18.1998
17.78
16.6916
15.8452
15.6083
15.4808
15.5592
16.2907
18.1822
19.7943
20.1914
20.3455
20.6512
20.9462
21.1593
21.2842
21.2884
21.1914
21.0528
20.8706
20.5796
20.2352
19.8235
19.4094
19.1237
3.07644
10.6714
12.3169
14.2265
16.0249
17.2736
17.738
17.5649
16.426
15.4553
15.4087
15.9256
16.8632
17.5319
17.6524
17.2899
17.6231
18.9224
20.0837
20.8154
21.2434
21.465
21.5531
21.5703
21.5547
21.4813
21.331
21.0951
20.7941