/*--------------------------------*- C++ -*----------------------------------*\
  =========                 |
  \\      /  F ield         | OpenFOAM: The Open Source CFD Toolbox
   \\    /   O peration     | Website:  https://openfoam.org
    \\  /    A nd           | Version:  6
     \\/     M anipulation  |
\*---------------------------------------------------------------------------*/
FoamFile
{
    version     2.0;
    format      ascii;
    class       volVectorField;
    location    "40";
    object      wallShearStress;
}
// * * * * * * * * * * * * * * * * * * * * * * * * * * * * * * * * * * * * * //

dimensions      [0 2 -2 0 0 0 0];

internalField   uniform (0 0 0);

boundaryField
{
    inlet
    {
        type            calculated;
        value           uniform (0 0 0);
    }
    outlet
    {
        type            calculated;
        value           uniform (0 0 0);
    }
    roughCylinder
    {
        type            calculated;
        value           nonuniform List<vector> 
5120
(
(-8.5199e-05 -0.000100415 -5.34415e-05)
(-0.000152729 -0.000253158 -7.05175e-05)
(-0.000228706 -0.000408059 -1.02246e-05)
(-0.000276238 -0.000485186 4.28379e-05)
(-0.000331267 -0.000545456 9.02664e-05)
(-0.000377901 -0.000572906 0.000128952)
(-0.000419629 -0.000583384 0.000158977)
(-0.000451485 -0.000577738 0.000179102)
(-0.000479361 -0.000569031 0.000193268)
(-0.000502896 -0.000561106 0.000204141)
(-0.000524098 -0.000555732 0.000213691)
(-0.000538195 -0.000548893 0.000219449)
(-0.000549947 -0.000545362 0.000222634)
(-0.000559111 -0.0005438 0.000223074)
(-0.000562459 -0.000540468 0.000219652)
(-0.000560668 -0.000535028 0.000212843)
(-0.0005597 -0.000532149 0.000204929)
(-0.000562036 -0.000533762 0.000196756)
(-0.000556982 -0.000529896 0.000185044)
(-0.000546512 -0.000521467 0.000171139)
(-0.000553117 -0.000528888 0.000161865)
(-0.000550414 -0.000527746 0.000149174)
(-0.000557408 -0.000536017 0.000138564)
(-0.000566332 -0.000546195 0.0001279)
(-0.000580896 -0.000561866 0.000117551)
(-0.000559257 -0.0005435 9.98425e-05)
(-0.000570516 -0.000555768 8.78577e-05)
(-0.000566846 -0.000553766 7.30598e-05)
(-0.000560445 -0.000549126 5.76157e-05)
(-0.000557954 -0.000547925 4.21738e-05)
(-0.000552967 -0.000544087 2.59111e-05)
(-0.000550149 -0.000541906 8.79546e-06)
(-9.28397e-05 -9.63651e-05 -4.79322e-05)
(-0.000166562 -0.000247874 -7.67306e-05)
(-0.000245089 -0.0003999 -1.92267e-05)
(-0.000295661 -0.000481805 3.35659e-05)
(-0.000353079 -0.000545429 8.14471e-05)
(-0.000402004 -0.000576434 0.000121214)
(-0.000445627 -0.000589198 0.000151982)
(-0.000479595 -0.000586032 0.000172681)
(-0.000510467 -0.000580857 0.000187985)
(-0.000537307 -0.000575834 0.000200497)
(-0.000561094 -0.000571783 0.000211469)
(-0.000577291 -0.000564443 0.000218299)
(-0.000589567 -0.000559451 0.000221839)
(-0.000598593 -0.000556506 0.00022227)
(-0.000602111 -0.000552698 0.00021909)
(-0.000601125 -0.000547786 0.00021282)
(-0.000601454 -0.000545982 0.000205515)
(-0.000604013 -0.000547698 0.000197473)
(-0.000599343 -0.000544457 0.000186097)
(-0.00058924 -0.000536865 0.000172593)
(-0.000595716 -0.000543925 0.000163195)
(-0.000592052 -0.000542197 0.00015036)
(-0.00059907 -0.000550204 0.000139695)
(-0.000609643 -0.000561477 0.000129279)
(-0.000625987 -0.000578058 0.000118985)
(-0.000602914 -0.000559651 0.0001012)
(-0.000616207 -0.000573289 8.93038e-05)
(-0.000613019 -0.000571999 7.44077e-05)
(-0.00060726 -0.000568379 5.88222e-05)
(-0.000605342 -0.000567928 4.31405e-05)
(-0.000600721 -0.000564741 2.65537e-05)
(-0.00059793 -0.000562764 9.01923e-06)
(-0.000131681 -0.000118095 -5.14877e-05)
(-0.000176081 -0.000232969 -8.08567e-05)
(-0.000260278 -0.00038509 -2.87582e-05)
(-0.000313911 -0.000471594 2.29064e-05)
(-0.000373721 -0.000538743 7.1022e-05)
(-0.000425231 -0.000573833 0.000111803)
(-0.000471253 -0.000589845 0.000143424)
(-0.000508077 -0.000590418 0.000165192)
(-0.00054235 -0.00058927 0.000182063)
(-0.00057221 -0.000586851 0.000196186)
(-0.000598155 -0.000583771 0.00020821)
(-0.000616419 -0.000576702 0.000216046)
(-0.000629598 -0.000570087 0.000220037)
(-0.000638883 -0.000566128 0.000220732)
(-0.000642979 -0.00056196 0.000217938)
(-0.000642937 -0.000557503 0.00021224)
(-0.000644409 -0.000556434 0.00020547)
(-0.000647177 -0.000558162 0.000197599)
(-0.000643315 -0.000555832 0.000186709)
(-0.000634178 -0.000549572 0.000173791)
(-0.000641027 -0.000556739 0.000164464)
(-0.000637642 -0.000555584 0.000151838)
(-0.000644554 -0.000563214 0.000141097)
(-0.000656902 -0.000575524 0.000130908)
(-0.000674389 -0.000592325 0.000120523)
(-0.00065021 -0.00057434 0.000102724)
(-0.000664093 -0.0005879 9.06798e-05)
(-0.000660058 -0.000586123 7.55444e-05)
(-0.000654003 -0.000582649 5.97681e-05)
(-0.000652088 -0.000582411 4.38747e-05)
(-0.00064759 -0.000579633 2.70405e-05)
(-0.000644847 -0.000577887 9.18996e-06)
(-0.000108538 -8.30059e-05 -2.836e-05)
(-0.000185362 -0.000216571 -8.50577e-05)
(-0.000272955 -0.000365111 -3.85791e-05)
(-0.000329539 -0.000455682 1.12622e-05)
(-0.000391565 -0.000526286 5.9276e-05)
(-0.000445794 -0.000565708 0.000100835)
(-0.000494721 -0.000585841 0.000133312)
(-0.000535014 -0.000591134 0.000156473)
(-0.000572661 -0.000594039 0.000175089)
(-0.00060549 -0.000594246 0.000190896)
(-0.000634071 -0.00059263 0.000204139)
(-0.000654195 -0.000586072 0.000212797)
(-0.000669468 -0.000579256 0.000217721)
(-0.00067915 -0.000573584 0.000218771)
(-0.000684046 -0.000569112 0.000216451)
(-0.000685664 -0.000565375 0.000211522)
(-0.000688659 -0.000565156 0.000205386)
(-0.000692014 -0.000567109 0.000197819)
(-0.000688878 -0.000565503 0.000187374)
(-0.00068015 -0.000560012 0.000174872)
(-0.000686404 -0.000566491 0.000165431)
(-0.000683367 -0.000565915 0.000153065)
(-0.000689736 -0.000572852 0.000142218)
(-0.000704195 -0.000586337 0.000132337)
(-0.000722583 -0.000603125 0.00012186)
(-0.000698333 -0.000586514 0.000104229)
(-0.000713545 -0.00060063 9.2154e-05)
(-0.000710056 -0.000599644 7.69297e-05)
(-0.000704681 -0.000597231 6.10023e-05)
(-0.000703151 -0.000597583 4.4849e-05)
(-0.00069893 -0.000595376 2.76822e-05)
(-0.000696152 -0.0005938 9.41225e-06)
(-0.000125995 -8.08184e-05 -1.69114e-05)
(-0.000190898 -0.000195496 -8.74026e-05)
(-0.000281395 -0.000338913 -4.80933e-05)
(-0.000340384 -0.0004325 -1.08706e-06)
(-0.000404598 -0.000506671 4.62052e-05)
(-0.000462118 -0.000551252 8.82332e-05)
(-0.000514589 -0.000576464 0.000121524)
(-0.000558685 -0.000586978 0.00014621)
(-0.000600075 -0.000594291 0.000166757)
(-0.000636299 -0.000597565 0.000184405)
(-0.000666817 -0.000596856 0.000198726)
(-0.000689166 -0.000591229 0.000208356)
(-0.000706198 -0.000584603 0.000214107)
(-0.000717805 -0.000578251 0.000216021)
(-0.000724167 -0.000573282 0.000214453)
(-0.000727552 -0.000570102 0.00021032)
(-0.000732006 -0.000570338 0.000204799)
(-0.000736009 -0.000572396 0.000197595)
(-0.000733945 -0.000571667 0.000187718)
(-0.000726521 -0.000567598 0.000175877)
(-0.000733128 -0.000574218 0.000166616)
(-0.000731691 -0.000575161 0.000154779)
(-0.000737235 -0.000581299 0.000143791)
(-0.000753311 -0.000595455 0.000134088)
(-0.000771267 -0.000611213 0.000123305)
(-0.000747063 -0.00059611 0.000105839)
(-0.000761704 -0.000609251 9.34959e-05)
(-0.000757466 -0.000608024 7.80712e-05)
(-0.000752154 -0.00060613 6.19866e-05)
(-0.000750822 -0.000606906 4.56282e-05)
(-0.00074696 -0.000605318 2.82047e-05)
(-0.000744353 -0.000604095 9.59619e-06)
(-0.000122206 -6.44344e-05 -1.58932e-06)
(-0.000193378 -0.000171971 -8.81933e-05)
(-0.000285264 -0.000307858 -5.66699e-05)
(-0.000346568 -0.000403793 -1.37495e-05)
(-0.000413038 -0.000481726 3.20317e-05)
(-0.000473892 -0.000531584 7.41232e-05)
(-0.00053011 -0.000562201 0.000108118)
(-0.000578851 -0.000578743 0.000134524)
(-0.000624387 -0.000590589 0.000157087)
(-0.000663105 -0.000595939 0.000176288)
(-0.000696624 -0.000597155 0.000192049)
(-0.000721533 -0.000592774 0.000202858)
(-0.000741219 -0.000587165 0.000209701)
(-0.000755324 -0.000581132 0.000212689)
(-0.00076406 -0.000575848 0.000212185)
(-0.000769735 -0.000572719 0.000209006)
(-0.000775938 -0.000573435 0.000204212)
(-0.000780763 -0.000575577 0.00019746)
(-0.000779207 -0.000575152 0.000188025)
(-0.000772156 -0.000571692 0.000176642)
(-0.00077804 -0.000577649 0.000167397)
(-0.000777985 -0.000579815 0.000156071)
(-0.000782631 -0.000585206 0.000145025)
(-0.000800944 -0.000600384 0.000135647)
(-0.000818898 -0.000615553 0.000124698)
(-0.000795966 -0.000602874 0.000107558)
(-0.000810899 -0.000615825 9.50691e-05)
(-0.000807199 -0.000615473 7.95495e-05)
(-0.000802366 -0.000614634 6.32844e-05)
(-0.000801108 -0.000615919 4.66385e-05)
(-0.000797307 -0.000614844 2.88615e-05)
(-0.000794595 -0.000613832 9.82281e-06)
(-0.000125363 -5.28528e-05 1.27016e-05)
(-0.00019065 -0.000145406 -8.62738e-05)
(-0.000283878 -0.000273144 -6.38941e-05)
(-0.00034628 -0.00036909 -2.62248e-05)
(-0.000414351 -0.000450176 1.67936e-05)
(-0.000479025 -0.000506021 5.8392e-05)
(-0.000540039 -0.000543205 9.30693e-05)
(-0.000593495 -0.000565648 0.000121083)
(-0.000642486 -0.000581117 0.00014539)
(-0.0006857 -0.000590156 0.000166564)
(-0.00072213 -0.000593113 0.00018374)
(-0.00074999 -0.000590303 0.000195938)
(-0.000772323 -0.000585704 0.00020399)
(-0.000788992 -0.000580327 0.000208119)
(-0.000800901 -0.000575667 0.000208907)
(-0.000809803 -0.000572919 0.00020703)
(-0.000817803 -0.000573282 0.000203044)
(-0.00082357 -0.000575117 0.00019681)
(-0.00082307 -0.00057524 0.000188025)
(-0.000817691 -0.000573245 0.000177443)
(-0.000824019 -0.000579429 0.00016853)
(-0.000825926 -0.00058312 0.000157821)
(-0.000829373 -0.000587849 0.000146711)
(-0.000848654 -0.000603235 0.000137446)
(-0.000864879 -0.000616935 0.000126122)
(-0.000842607 -0.000606385 0.000109224)
(-0.000856049 -0.000618163 9.64364e-05)
(-0.000851794 -0.000618054 8.07674e-05)
(-0.000847126 -0.000618069 6.43545e-05)
(-0.000846007 -0.000619962 4.74866e-05)
(-0.000842563 -0.000619661 2.94274e-05)
(-0.000840027 -0.000619099 1.00217e-05)
(-0.000126652 -4.0949e-05 2.69059e-05)
(-0.000181089 -0.000116149 -8.01549e-05)
(-0.000275398 -0.000234561 -6.95297e-05)
(-0.000338775 -0.000329318 -3.79376e-05)
(-0.000408728 -0.000413873 9.31945e-07)
(-0.000477379 -0.000475965 4.12929e-05)
(-0.000542508 -0.000519029 7.62818e-05)
(-0.000600844 -0.000547319 0.000105736)
(-0.000655852 -0.000568384 0.000132134)
(-0.000702388 -0.00057973 0.000154871)
(-0.000742298 -0.000584728 0.000173587)
(-0.000774042 -0.000584096 0.000187477)
(-0.000800056 -0.00058124 0.000197149)
(-0.000820102 -0.000577112 0.000202776)
(-0.000835299 -0.000573352 0.000204985)
(-0.000847546 -0.000571354 0.000204475)
(-0.000858164 -0.000571767 0.000201549)
(-0.000865216 -0.000573368 0.000196097)
(-0.00086507 -0.000573325 0.000187914)
(-0.000860178 -0.000571811 0.000177933)
(-0.000865764 -0.000577474 0.000169209)
(-0.000869184 -0.00058237 0.000159108)
(-0.000871773 -0.000586814 0.000148105)
(-0.000892608 -0.000602835 0.000139106)
(-0.000907988 -0.00061596 0.000127609)
(-0.000887313 -0.000608176 0.000111051)
(-0.000899872 -0.00061947 9.80406e-05)
(-0.000895665 -0.000620123 8.22365e-05)
(-0.00089086 -0.00062071 6.55906e-05)
(-0.00088928 -0.000622724 4.84218e-05)
(-0.000885506 -0.000622651 3.00218e-05)
(-0.000882731 -0.000622212 1.02245e-05)
(-0.0001278 -2.93359e-05 4.13858e-05)
(-0.000176236 -9.29948e-05 -7.49827e-05)
(-0.000262394 -0.000195461 -7.33916e-05)
(-0.000324095 -0.00028597 -4.82409e-05)
(-0.000393916 -0.000371835 -1.50167e-05)
(-0.000465617 -0.000439438 2.29159e-05)
(-0.000536097 -0.000489681 5.78579e-05)
(-0.000601035 -0.000525117 8.86751e-05)
(-0.000659456 -0.000549161 0.000116384)
(-0.000711239 -0.000564147 0.000140897)
(-0.00075636 -0.000572233 0.000161461)
(-0.000792326 -0.000573765 0.000177143)
(-0.000822223 -0.000572647 0.000188598)
(-0.000845557 -0.000569665 0.000195878)
(-0.000864188 -0.000566933 0.000199714)
(-0.000879753 -0.000565735 0.000200683)
(-0.00089292 -0.000566509 0.000198986)
(-0.000901398 -0.000568188 0.000194522)
(-0.000902671 -0.000568678 0.000187302)
(-0.000899973 -0.000568676 0.000178377)
(-0.000905843 -0.000574564 0.000170143)
(-0.000910406 -0.000580362 0.000160593)
(-0.000911781 -0.00058428 0.000149649)
(-0.000932062 -0.0005994 0.000140594)
(-0.000944515 -0.000610625 0.00012869)
(-0.000924327 -0.000604592 0.000112347)
(-0.000934735 -0.000614571 9.90596e-05)
(-0.00093005 -0.000615536 8.3158e-05)
(-0.000925673 -0.000617048 6.64268e-05)
(-0.000924283 -0.000619614 4.90989e-05)
(-0.000920926 -0.000620286 3.04813e-05)
(-0.000918377 -0.000620286 1.03865e-05)
(-0.000120882 -1.65017e-05 5.34854e-05)
(-0.000161383 -6.80947e-05 -6.5221e-05)
(-0.00024167 -0.000154619 -7.38228e-05)
(-0.000299728 -0.000238489 -5.56964e-05)
(-0.000368967 -0.000324564 -2.99835e-05)
(-0.000444376 -0.000398374 3.99158e-06)
(-0.000519621 -0.000455355 3.80108e-05)
(-0.000588635 -0.00049565 6.93173e-05)
(-0.000654727 -0.000526052 9.8621e-05)
(-0.000712668 -0.000544944 0.000124832)
(-0.000762126 -0.000554971 0.000146967)
(-0.000803524 -0.000559125 0.000164677)
(-0.000838168 -0.000560059 0.000178192)
(-0.000865878 -0.000558807 0.00018755)
(-0.000888583 -0.00055744 0.000193358)
(-0.000907617 -0.000557129 0.000196032)
(-0.000923066 -0.0005582 0.000195683)
(-0.000932471 -0.000559766 0.000192251)
(-0.000934175 -0.000560275 0.000185925)
(-0.000932184 -0.000560823 0.000177868)
(-0.000937191 -0.000566229 0.000170029)
(-0.000942619 -0.000572623 0.00016107)
(-0.000943829 -0.000576689 0.000150466)
(-0.000964667 -0.000591597 0.000141627)
(-0.000976024 -0.000602233 0.000129662)
(-0.000957476 -0.000598571 0.000113675)
(-0.000966343 -0.000607768 0.000100196)
(-0.000961167 -0.000609044 8.41849e-05)
(-0.000956053 -0.000610725 6.7268e-05)
(-0.00095376 -0.00061312 4.97258e-05)
(-0.00094975 -0.000613832 3.08759e-05)
(-0.000946866 -0.000613894 1.05195e-05)
(-0.000126036 -5.31406e-06 7.19204e-05)
(-0.000146937 -4.77699e-05 -5.56448e-05)
(-0.000217826 -0.000116668 -7.10939e-05)
(-0.000268929 -0.000190915 -5.96113e-05)
(-0.00033473 -0.000273909 -4.28145e-05)
(-0.000410177 -0.000350768 -1.46632e-05)
(-0.000489082 -0.000413784 1.70684e-05)
(-0.000566903 -0.000462999 4.84388e-05)
(-0.000638284 -0.000497666 7.84264e-05)
(-0.000701689 -0.000519721 0.000105901)
(-0.000759028 -0.000533811 0.000130112)
(-0.000806453 -0.000540337 0.000149923)
(-0.00084646 -0.000543247 0.000165673)
(-0.000878526 -0.000543431 0.000177265)
(-0.000905041 -0.000543142 0.000185208)
(-0.000927452 -0.00054365 0.000189803)
(-0.000945338 -0.000545214 0.000191068)
(-0.000956253 -0.000547138 0.00018899)
(-0.000959686 -0.000548514 0.000183977)
(-0.000960013 -0.000550569 0.000177194)
(-0.000964902 -0.000556043 0.000169971)
(-0.000970319 -0.000562479 0.000161502)
(-0.000970613 -0.000566227 0.000151167)
(-0.000989115 -0.000579185 0.000142184)
(-0.000996823 -0.000587798 0.000129917)
(-0.000978507 -0.00058551 0.000114191)
(-0.000985135 -0.000593596 0.000100581)
(-0.000979527 -0.000595218 8.45928e-05)
(-0.000974792 -0.000597792 6.76961e-05)
(-0.000972463 -0.000600594 5.00977e-05)
(-0.000968723 -0.000601975 3.11441e-05)
(-0.000965987 -0.000602423 1.06145e-05)
(-0.000136764 7.22483e-06 9.76253e-05)
(-0.000136406 -3.20574e-05 -4.74766e-05)
(-0.000189015 -8.19485e-05 -6.41625e-05)
(-0.000229086 -0.000142747 -5.81896e-05)
(-0.00028732 -0.000217962 -5.11112e-05)
(-0.000363087 -0.000297774 -3.14333e-05)
(-0.000447342 -0.000368391 -3.93006e-06)
(-0.000528245 -0.000422048 2.5821e-05)
(-0.000607109 -0.000462988 5.58104e-05)
(-0.000680495 -0.000491532 8.46061e-05)
(-0.00074417 -0.000508211 0.000110449)
(-0.000798978 -0.000517347 0.000132606)
(-0.000845012 -0.000521883 0.000150782)
(-0.000882333 -0.00052359 0.000164927)
(-0.000913693 -0.000524783 0.000175448)
(-0.000939827 -0.000526253 0.000182298)
(-0.000959878 -0.000528214 0.000185377)
(-0.00097155 -0.000530177 0.000184727)
(-0.000975501 -0.000531813 0.000180972)
(-0.000976381 -0.000534365 0.000175268)
(-0.000980298 -0.000539531 0.000168651)
(-0.000985876 -0.00054613 0.000160835)
(-0.000986341 -0.000550169 0.000151056)
(-0.00100399 -0.000562153 0.000142278)
(-0.00101017 -0.00057017 0.000130085)
(-0.000992821 -0.000569663 0.000114716)
(-0.000997166 -0.000576732 0.00010099)
(-0.000990118 -0.000578147 8.49439e-05)
(-0.00098391 -0.00058053 6.79515e-05)
(-0.000980108 -0.000582903 5.0271e-05)
(-0.000975295 -0.000584173 3.1248e-05)
(-0.000972054 -0.000584611 1.06457e-05)
(-0.000131219 1.94944e-05 0.000114632)
(-0.000131085 -1.99805e-05 -4.10858e-05)
(-0.000152685 -5.1565e-05 -5.19207e-05)
(-0.000183928 -9.81373e-05 -5.08567e-05)
(-0.0002341 -0.000163539 -5.36781e-05)
(-0.000303474 -0.000240355 -4.44883e-05)
(-0.000385627 -0.000312791 -2.36367e-05)
(-0.000475586 -0.000376124 2.66157e-06)
(-0.000563521 -0.000424743 3.14416e-05)
(-0.000643018 -0.000457073 6.0356e-05)
(-0.000716861 -0.000479019 8.79753e-05)
(-0.000779942 -0.000491008 0.000112622)
(-0.000833385 -0.000497257 0.000133691)
(-0.000876644 -0.000499955 0.000150709)
(-0.000912277 -0.000501798 0.000163849)
(-0.00094161 -0.00050385 0.000173093)
(-0.000963813 -0.000506321 0.000178277)
(-0.000977078 -0.000508936 0.000179484)
(-0.00098293 -0.000511681 0.00017744)
(-0.0009856 -0.000515464 0.000173162)
(-0.000988686 -0.000520572 0.000167272)
(-0.000992997 -0.000526605 0.000159937)
(-0.000992363 -0.000530178 0.000150571)
(-0.0010058 -0.000539435 0.000141598)
(-0.00100758 -0.000545465 0.000129215)
(-0.000989949 -0.000545994 0.000114159)
(-0.000991897 -0.00055228 0.00010047)
(-0.000984122 -0.000554008 8.45866e-05)
(-0.000977879 -0.000557193 6.77402e-05)
(-0.000973588 -0.000559857 5.01581e-05)
(-0.000968674 -0.000561687 3.12096e-05)
(-0.000965371 -0.000562416 1.06328e-05)
(-0.000112126 2.73372e-05 0.000117356)
(-0.000123309 -9.65247e-06 -3.42612e-05)
(-0.000123099 -3.11424e-05 -3.97513e-05)
(-0.000138001 -6.09838e-05 -3.85806e-05)
(-0.000167841 -0.000107003 -4.68658e-05)
(-0.000228558 -0.000177134 -5.01726e-05)
(-0.000314309 -0.000255834 -4.03427e-05)
(-0.000405634 -0.000323105 -2.00968e-05)
(-0.00049867 -0.000376898 5.53925e-06)
(-0.000591093 -0.000418317 3.38896e-05)
(-0.000674037 -0.000444958 6.25898e-05)
(-0.000746917 -0.000460901 8.97846e-05)
(-0.000808268 -0.000469085 0.000113992)
(-0.000857818 -0.000472556 0.000134216)
(-0.000898785 -0.000475174 0.00015046)
(-0.000932024 -0.000477707 0.000162519)
(-0.000956307 -0.000480338 0.000170008)
(-0.000970125 -0.000482945 0.000173053)
(-0.000976213 -0.000485961 0.000172559)
(-0.000978753 -0.000490096 0.000169502)
(-0.000980625 -0.000495213 0.00016442)
(-0.000984314 -0.000501216 0.000157801)
(-0.00098345 -0.000504934 0.00014908)
(-0.00099464 -0.00051323 0.000140367)
(-0.000994084 -0.000518913 0.000128201)
(-0.000976189 -0.000520404 0.000113474)
(-0.000974951 -0.000525696 9.97797e-05)
(-0.000964546 -0.000526822 8.39324e-05)
(-0.000956008 -0.000529549 6.71302e-05)
(-0.000949608 -0.000531638 4.96694e-05)
(-0.000943129 -0.000533186 3.08923e-05)
(-0.000939113 -0.000533818 1.05161e-05)
(-8.88144e-05 2.83118e-05 0.000105403)
(-0.000114737 -2.01392e-06 -2.7672e-05)
(-0.000103361 -1.96488e-05 -2.96973e-05)
(-7.20633e-05 -2.56955e-05 -1.76276e-05)
(-0.000105607 -6.09909e-05 -3.29023e-05)
(-0.000149872 -0.000116699 -4.73075e-05)
(-0.000218822 -0.000185408 -4.96203e-05)
(-0.000315019 -0.000260374 -4.01224e-05)
(-0.00042149 -0.00032614 -2.06462e-05)
(-0.0005219 -0.000373248 5.63248e-06)
(-0.000616891 -0.0004069 3.50344e-05)
(-0.000699763 -0.000427261 6.46397e-05)
(-0.000770131 -0.000438476 9.22383e-05)
(-0.000827333 -0.000443717 0.000116175)
(-0.000873358 -0.00044663 0.000135752)
(-0.000909483 -0.000449052 0.00015065)
(-0.000935454 -0.00045167 0.00016061)
(-0.000950624 -0.00045468 0.000165819)
(-0.000958081 -0.000458562 0.000167223)
(-0.000961093 -0.000463428 0.00016561)
(-0.000961122 -0.000468404 0.000161301)
(-0.000962304 -0.00047359 0.000155138)
(-0.000959414 -0.000476643 0.00014685)
(-0.000964768 -0.000482581 0.000138038)
(-0.000958902 -0.000486686 0.000125847)
(-0.000940259 -0.000488646 0.000111488)
(-0.000936148 -0.000493224 9.79837e-05)
(-0.000924493 -0.000494628 8.24608e-05)
(-0.000915195 -0.000497703 6.59544e-05)
(-0.000907704 -0.000499831 4.88123e-05)
(-0.000900559 -0.000501644 3.03759e-05)
(-0.000896147 -0.000502364 1.0334e-05)
(-7.02109e-05 2.37664e-05 8.32304e-05)
(-0.000107565 1.53194e-06 -2.27836e-05)
(-9.02776e-05 -1.4471e-05 -2.08071e-05)
(-5.49819e-05 -1.61363e-05 -7.63971e-06)
(-3.74018e-05 -1.99388e-05 -1.07052e-05)
(-5.72338e-05 -4.98767e-05 -2.67655e-05)
(-0.000123605 -0.00011947 -5.01911e-05)
(-0.000213241 -0.000193335 -5.5978e-05)
(-0.000319514 -0.00026152 -4.51138e-05)
(-0.000435361 -0.000320755 -2.29363e-05)
(-0.000542424 -0.000362079 6.44054e-06)
(-0.000637072 -0.000388773 3.82792e-05)
(-0.000716379 -0.000403875 6.91374e-05)
(-0.000779871 -0.000411128 9.65852e-05)
(-0.000830942 -0.000415084 0.000119571)
(-0.000870848 -0.000417965 0.000137522)
(-0.000898561 -0.000420817 0.000150033)
(-0.000913927 -0.000423785 0.000157332)
(-0.000920901 -0.000427656 0.00016042)
(-0.000922712 -0.00043245 0.000160051)
(-0.000921086 -0.000437426 0.000156603)
(-0.000920741 -0.000442401 0.000151111)
(-0.000916585 -0.00044525 0.000143452)
(-0.00091841 -0.000450335 0.000135003)
(-0.000908831 -0.000454051 0.000123067)
(-0.000888559 -0.000455986 0.000108977)
(-0.000880141 -0.000459259 9.55778e-05)
(-0.000864641 -0.000459732 8.02345e-05)
(-0.000852234 -0.000461778 6.39756e-05)
(-0.000842036 -0.000462966 4.72628e-05)
(-0.000832886 -0.000464121 2.93775e-05)
(-0.000827563 -0.000464536 9.97905e-06)
(-6.16918e-05 1.58592e-05 5.92649e-05)
(-0.000102404 7.95164e-07 -1.79885e-05)
(-7.98181e-05 -1.29748e-05 -1.20887e-05)
(-3.85932e-05 -1.19113e-05 2.62606e-06)
(-1.29134e-05 -1.15287e-05 1.91738e-06)
(-3.92416e-06 -1.64908e-05 -6.77336e-06)
(-1.46747e-05 -3.09124e-05 -1.99692e-05)
(-8.82887e-05 -0.000106484 -5.63426e-05)
(-0.000210947 -0.000193572 -6.70803e-05)
(-0.000336199 -0.000261372 -4.97852e-05)
(-0.000456287 -0.000312367 -2.05606e-05)
(-0.000560873 -0.000345468 1.31208e-05)
(-0.00064859 -0.000365523 4.66834e-05)
(-0.000719365 -0.000376643 7.72712e-05)
(-0.000775242 -0.000382742 0.000103291)
(-0.000817215 -0.000386298 0.00012387)
(-0.000845739 -0.000389317 0.000138727)
(-0.000861685 -0.000392637 0.000148179)
(-0.000868755 -0.000396877 0.000153078)
(-0.000869345 -0.000401714 0.000153975)
(-0.000864689 -0.000406139 0.00015113)
(-0.000860512 -0.000409926 0.000145903)
(-0.000852727 -0.000411564 0.00013855)
(-0.00084732 -0.000414224 0.000130041)
(-0.000831699 -0.00041639 0.000118151)
(-0.000810182 -0.000417963 0.000104492)
(-0.000798375 -0.000420244 9.15038e-05)
(-0.000781133 -0.000420674 7.6746e-05)
(-0.000767298 -0.000422303 6.10596e-05)
(-0.000755593 -0.000423013 4.50627e-05)
(-0.000745312 -0.000423786 2.79933e-05)
(-0.000739352 -0.000423937 9.49236e-06)
(-6.7319e-05 1.17196e-05 4.56777e-05)
(-9.9195e-05 -8.08418e-07 -1.47114e-05)
(-6.99976e-05 -1.08452e-05 -4.20547e-06)
(-2.17181e-05 -5.05861e-06 1.18873e-05)
(1.59326e-05 4.75924e-07 1.04873e-05)
(3.57812e-05 2.77969e-06 4.61096e-06)
(3.64515e-05 9.42199e-07 -1.0096e-05)
(5.48279e-06 -1.92647e-05 -3.03126e-05)
(-8.03394e-05 -9.44511e-05 -6.82774e-05)
(-0.000223996 -0.000187801 -6.82253e-05)
(-0.000356471 -0.000252795 -4.05377e-05)
(-0.000471323 -0.000295511 -6.83714e-06)
(-0.000565978 -0.000321985 2.75448e-05)
(-0.000640759 -0.000337125 5.94497e-05)
(-0.000699167 -0.000345831 8.70717e-05)
(-0.000743284 -0.000351372 0.000109528)
(-0.000772498 -0.0003554 0.000126279)
(-0.000787664 -0.000358953 0.000137419)
(-0.000792958 -0.000362952 0.000143685)
(-0.00079095 -0.000367296 0.000145536)
(-0.000783971 -0.000371426 0.000143336)
(-0.00077727 -0.000374568 0.000138542)
(-0.000767191 -0.00037557 0.000131743)
(-0.000757591 -0.000377291 0.000123712)
(-0.000737262 -0.000378382 0.000112035)
(-0.000713392 -0.000378547 9.86355e-05)
(-0.000696763 -0.000378772 8.59806e-05)
(-0.000675242 -0.000377402 7.16937e-05)
(-0.000658007 -0.000377115 5.66533e-05)
(-0.000643477 -0.000376245 4.16355e-05)
(-0.000631002 -0.000375693 2.57818e-05)
(-0.000624063 -0.000375182 8.71468e-06)
(-6.8373e-05 1.06054e-05 3.40985e-05)
(-9.58281e-05 -3.3695e-08 -1.30122e-05)
(-6.37882e-05 -5.21159e-06 2.25737e-08)
(-1.0722e-05 3.37052e-06 1.10553e-05)
(3.70535e-05 8.61873e-06 7.21071e-06)
(5.26854e-05 1.14907e-05 1.03896e-05)
(5.42019e-05 1.8072e-05 1.06081e-05)
(3.87535e-05 2.08944e-05 -9.3587e-06)
(-6.00749e-06 -1.39992e-05 -4.74642e-05)
(-0.000116368 -0.000101819 -6.60837e-05)
(-0.000252751 -0.000185352 -4.60085e-05)
(-0.000371216 -0.000238815 -1.59518e-05)
(-0.000469797 -0.000273207 1.53511e-05)
(-0.000548707 -0.000294577 4.56919e-05)
(-0.000610248 -0.000307681 7.30257e-05)
(-0.000654592 -0.000315354 9.58579e-05)
(-0.000682903 -0.000320413 0.00011349)
(-0.000697112 -0.00032459 0.000125835)
(-0.000700694 -0.000328664 0.000133215)
(-0.000695664 -0.000332462 0.000135746)
(-0.000684604 -0.000335388 0.000133645)
(-0.000673302 -0.00033669 0.000128722)
(-0.000658222 -0.000335506 0.000121956)
(-0.00064093 -0.000334223 0.00011385)
(-0.000614868 -0.00033306 0.00010227)
(-0.000589406 -0.000331492 8.9391e-05)
(-0.00056953 -0.000329838 7.75141e-05)
(-0.000546516 -0.000327509 6.42991e-05)
(-0.000527975 -0.000325881 5.04367e-05)
(-0.000512428 -0.000323964 3.69114e-05)
(-0.000499103 -0.000322437 2.278e-05)
(-0.000491725 -0.000321358 7.66882e-06)
(-6.10043e-05 9.28511e-06 2.55709e-05)
(-8.98286e-05 6.99332e-07 -1.10702e-05)
(-5.75309e-05 -1.20286e-06 2.77413e-06)
(1.02112e-06 3.28233e-06 1.17752e-05)
(4.1179e-05 1.04413e-05 1.29007e-05)
(5.51637e-05 1.39828e-05 1.85293e-05)
(6.5285e-05 1.96578e-05 2.66526e-05)
(4.67234e-05 2.23135e-05 2.24046e-05)
(1.56235e-05 1.29315e-05 8.18461e-07)
(-2.71068e-05 -2.16792e-05 -1.79198e-05)
(-0.00014493 -0.000112404 -2.70061e-05)
(-0.000260934 -0.000176716 -1.0059e-05)
(-0.00036025 -0.000219729 1.2562e-05)
(-0.00043942 -0.00024686 3.71104e-05)
(-0.000499874 -0.000263463 6.08408e-05)
(-0.000544177 -0.000274076 8.20322e-05)
(-0.000571715 -0.00028082 9.9263e-05)
(-0.000583762 -0.00028538 0.000111759)
(-0.000583963 -0.000288878 0.000119388)
(-0.00057486 -0.000291546 0.00012198)
(-0.000560745 -0.000293446 0.000119822)
(-0.000546457 -0.000293248 0.000114832)
(-0.000529502 -0.000290955 0.000108566)
(-0.000509148 -0.000288357 0.000101076)
(-0.000479354 -0.00028509 8.97731e-05)
(-0.00045227 -0.00028104 7.73863e-05)
(-0.000428944 -0.00027647 6.63198e-05)
(-0.000402794 -0.000271259 5.4163e-05)
(-0.000381592 -0.000266579 4.17241e-05)
(-0.000363817 -0.000262079 3.01322e-05)
(-0.000348836 -0.000258395 1.83965e-05)
(-0.000340698 -0.000256165 6.14064e-06)
(-4.66722e-05 9.15775e-06 1.97899e-05)
(-8.09468e-05 2.43484e-06 -1.10096e-05)
(-5.45742e-05 2.58327e-06 4.09644e-06)
(4.76307e-06 1.15538e-05 1.61582e-05)
(2.95166e-05 1.72527e-05 1.62518e-05)
(4.9952e-05 2.04082e-05 2.06895e-05)
(6.55938e-05 1.81099e-05 3.06002e-05)
(5.90433e-05 1.16587e-05 3.38856e-05)
(4.23076e-05 5.36001e-06 3.13868e-05)
(1.46342e-05 -1.02085e-05 2.17792e-05)
(-5.14737e-05 -5.75826e-05 8.95655e-06)
(-0.000143907 -0.000116176 7.86608e-06)
(-0.000238432 -0.000163797 1.82853e-05)
(-0.00031829 -0.000196853 3.3941e-05)
(-0.00038092 -0.000218742 5.18081e-05)
(-0.000423857 -0.000231666 6.92451e-05)
(-0.000448861 -0.00023927 8.44041e-05)
(-0.00045843 -0.000244035 9.60108e-05)
(-0.000455568 -0.000246994 0.000103241)
(-0.000442401 -0.00024825 0.000105294)
(-0.000424023 -0.000248003 0.000102263)
(-0.000406109 -0.000245223 9.66107e-05)
(-0.000384028 -0.000239162 8.98659e-05)
(-0.000356864 -0.000231839 8.19529e-05)
(-0.000323512 -0.000224804 7.08647e-05)
(-0.000295604 -0.000217471 5.93788e-05)
(-0.000271008 -0.000209787 4.97322e-05)
(-0.000245344 -0.000202562 3.95915e-05)
(-0.000225462 -0.000196321 2.96735e-05)
(-0.00020919 -0.000190711 2.10098e-05)
(-0.000195203 -0.000185941 1.25892e-05)
(-0.000187841 -0.000183208 4.14687e-06)
(-2.13997e-05 1.12713e-05 1.85015e-05)
(-6.19823e-05 6.35734e-06 -1.39342e-05)
(-5.9036e-05 9.08639e-06 -9.05466e-06)
(-2.4257e-05 2.01249e-05 2.36238e-06)
(9.56235e-06 4.42352e-05 7.66727e-06)
(4.25457e-05 5.19028e-05 1.71836e-06)
(6.44748e-05 3.57609e-05 9.29503e-06)
(5.64468e-05 1.45733e-05 1.66681e-05)
(6.19532e-05 5.33113e-06 2.76557e-05)
(5.04148e-05 -4.6074e-06 3.09209e-05)
(2.92499e-05 -2.27923e-05 3.26521e-05)
(-3.31477e-05 -6.44753e-05 2.81014e-05)
(-0.000113752 -0.000109627 2.77455e-05)
(-0.000186769 -0.000143431 3.32514e-05)
(-0.0002437 -0.000165698 4.28988e-05)
(-0.000285443 -0.000180709 5.47115e-05)
(-0.000309082 -0.000189408 6.61421e-05)
(-0.000315954 -0.000193789 7.5302e-05)
(-0.000308893 -0.000194922 8.06828e-05)
(-0.000291234 -0.000193542 8.11288e-05)
(-0.000270271 -0.000190938 7.69419e-05)
(-0.000250606 -0.00018537 7.07197e-05)
(-0.000230834 -0.000178409 6.4795e-05)
(-0.000205778 -0.000169805 5.78196e-05)
(-0.000173624 -0.000160059 4.75351e-05)
(-0.000148024 -0.000149931 3.75389e-05)
(-0.000124906 -0.000138928 2.95509e-05)
(-9.96646e-05 -0.00012757 2.14372e-05)
(-7.85876e-05 -0.000115709 1.41615e-05)
(-6.26224e-05 -0.000105609 8.93208e-06)
(-4.90738e-05 -9.67533e-05 4.71515e-06)
(-4.21172e-05 -9.17057e-05 1.41622e-06)
(1.30509e-05 6.80791e-06 1.99702e-05)
(-1.51224e-05 6.92672e-06 -8.96773e-06)
(-3.69218e-05 9.48625e-06 -2.0832e-05)
(-3.84291e-05 1.5915e-05 -2.23832e-05)
(-3.2121e-05 2.72424e-05 -2.80109e-05)
(-4.59054e-06 4.37049e-05 -3.8144e-05)
(3.04528e-05 5.33133e-05 -4.6454e-05)
(5.81725e-05 4.1864e-05 -3.97665e-05)
(5.70818e-05 1.43969e-05 -9.9185e-06)
(5.33709e-05 2.96099e-06 9.80062e-06)
(5.89245e-05 -4.85491e-06 2.49123e-05)
(4.04232e-05 -2.06958e-05 2.90876e-05)
(-3.18733e-07 -4.44768e-05 2.62027e-05)
(-5.74293e-05 -8.62711e-05 3.18027e-05)
(-0.00011527 -0.000114811 3.50369e-05)
(-0.000153656 -0.000129721 3.95658e-05)
(-0.000173952 -0.000137385 4.57522e-05)
(-0.000178005 -0.000140294 5.11692e-05)
(-0.000168665 -0.000139442 5.39626e-05)
(-0.000148801 -0.000135182 5.22497e-05)
(-0.000126383 -0.000129096 4.62854e-05)
(-0.000107748 -0.000120472 3.94686e-05)
(-8.48132e-05 -0.000105949 3.17149e-05)
(-5.79736e-05 -8.73573e-05 2.30891e-05)
(-2.99465e-05 -6.91586e-05 1.33321e-05)
(-1.14833e-05 -5.07336e-05 5.87002e-06)