/*--------------------------------*- C++ -*----------------------------------*\
  =========                 |
  \\      /  F ield         | OpenFOAM: The Open Source CFD Toolbox
   \\    /   O peration     | Website:  https://openfoam.org
    \\  /    A nd           | Version:  6
     \\/     M anipulation  |
\*---------------------------------------------------------------------------*/
FoamFile
{
    version     2.0;
    format      ascii;
    class       volScalarField;
    location    "0";
    object      omega;
}
// * * * * * * * * * * * * * * * * * * * * * * * * * * * * * * * * * * * * * //

dimensions      [0 0 -1 0 0 0 0];

internalField   nonuniform List<scalar> 
2160
(
1210.22
884.907
1210.22
1221.37
1206.28
1221.37
1348.13
1334.81
1348.13
1427.6
1432.18
1427.59
1525.52
1542.45
1525.52
1606.65
1628.29
1606.65
1345.98
1333
1345.97
1614.88
1661.1
1614.88
1744.69
1812.25
1744.69
1483.71
1540.08
1483.71
1681.92
1773.1
1681.92
1895.21
1968.65
1895.21
1692.82
1781.14
1692.82
1452.16
1504.19
1452.16
1755.06
1841.84
1755.06
1755.05
1841.83
1755.05
1452.15
1504.18
1452.15
1692.82
1781.14
1692.82
1895.21
1968.64
1895.21
1681.9
1773.08
1681.9
1483.7
1540.06
1483.7
1744.67
1812.23
1744.67
1614.86
1661.07
1614.85
1345.94
1332.96
1345.94
1606.63
1628.26
1606.62
1525.5
1542.42
1525.49
1427.57
1432.16
1427.57
1348.12
1334.8
1348.12
1221.36
1206.27
1221.36
1210.22
884.907
1210.22
194.172
208.601
194.17
712.371
728.54
712.366
682.486
695.018
682.481
883.08
874.402
883.074
834.099
823.033
834.093
796.782
772.81
796.777
898.781
883.774
898.775
796.89
762.694
796.885
828.988
816.427
828.987
961.455
972.269
961.456
870.081
850.481
870.081
727.321
698.764
727.324
823.784
792.129
823.788
922.441
914.205
922.447
793.723
758.773
793.728
793.719
758.768
793.721
922.437
914.201
922.439
823.778
792.123
823.78
727.314
698.757
727.315
870.067
850.462
870.064
961.443
972.25
961.439
828.971
816.406
828.968
796.857
762.661
796.851
898.747
883.739
898.74
796.749
772.775
796.742
834.072
823.006
834.066
883.054
874.375
883.048
682.47
695.006
682.466
712.358
728.53
712.353
194.169
208.6
194.167
36.69
24.0459
36.6874
151.098
167.981
151.09
148.735
162.938
148.727
207.471
219.206
207.462
198.69
207.841
198.681
214.478
227.154
214.47
236.786
258.514
236.777
215.23
226.203
215.223
188.248
178.45
188.247
203.275
192.57
203.276
193.494
182.302
193.494
202.599
192.405
202.604
219.752
207.069
219.759
238.035
227.708
238.044
213.51
200.946
213.517
213.505
200.94
213.511
238.03
227.702
238.038
219.746
207.063
219.752
202.592
192.397
202.596
193.479
182.284
193.476
203.261
192.552
203.258
188.231
178.43
188.227
215.2
226.171
215.191
236.754
258.481
236.744
214.447
227.122
214.438
198.663
207.814
198.654
207.445
219.18
207.435
148.719
162.923
148.712
151.083
167.967
151.076
36.6858
24.0447
36.6834
24.924
19.4617
24.9218
56.77
58.6154
56.7625
57.2647
58.7112
57.2571
79.9218
80.4518
79.9118
77.884
78.1358
77.8744
81.7586
81.8669
81.7506
86.2714
87.2761
86.2628
82.1544
81.9907
82.1472
82.965
81.4986
82.9647
87.7154
86.7379
87.7164
84.733
83.081
84.7339
83.3643
81.7887
83.3699
87.0818
85.1428
87.0887
91.0459
89.9202
91.0542
85.7208
83.7095
85.7276
85.717
83.7057
85.7241
91.0418
89.9161
91.0504
87.0772
85.1382
87.0843
83.3583
81.7827
83.3641
84.7192
83.0653
84.7188
87.7018
86.7218
87.7013
82.9499
81.4819
82.9486
82.1299
81.9657
82.1224
86.2452
87.2494
86.2363
81.734
81.8418
81.7256
77.8633
78.1151
77.8538
79.901
80.4311
79.8911
57.2519
58.6982
57.2444
56.7578
58.6029
56.7504
24.9208
19.4606
24.9186
22.0943
19.8293
22.0925
35.4526
36.1881
35.4458
36.1313
36.781
36.1244
46.6662
46.9764
46.6571
46.2344
46.544
46.2257
48.7844
49.0201
48.7774
49.8903
50.321
49.8828
49.0484
49.1305
49.0421
50.299
50.1254
50.299
51.4242
51.1925
51.4254
50.7599
50.4336
50.7608
51.0219
50.7145
51.0266
51.9593
51.5936
51.965
52.8244
52.5835
52.8313
51.7641
51.3895
51.7698
51.7613
51.3867
51.7671
52.8216
52.5808
52.8285
51.9559
51.5903
51.9617
51.017
50.7098
51.0219
50.747
50.4203
50.748
51.4113
51.1789
51.4125
50.2853
50.1113
50.2854
49.0289
49.1106
49.0226
49.8697
50.3
49.8622
48.7648
49.0003
48.7578
46.2183
46.528
46.2097
46.6502
46.9605
46.6412
36.121
36.7705
36.1142
35.4428
36.1781
35.4361
22.0917
19.8284
22.0898
21.9724
20.8244
21.9706
27.5255
27.9104
27.5195
27.9642
28.2919
27.9581
32.9256
33.2296
32.9175
32.8529
33.1377
32.8452
34.7681
35.1012
34.762
35.1861
35.624
35.1796
34.974
35.2739
34.9685
35.8994
35.8282
35.8993
36.1004
35.9451
36.1013
36.0424
35.9325
36.0431
36.8181
36.7527
36.8217
37.0022
36.9074
37.0065
37.1522
37.0465
37.1574
36.9887
36.8983
36.993
36.9866
36.8962
36.9909
37.1501
37.0445
37.1553
36.9995
36.9048
37.0039
36.814
36.7489
36.8177
36.0313
35.9213
36.0322
36.0892
35.9338
36.0903
35.8876
35.8163
35.8876
34.9579
35.2576
34.9524
35.1692
35.607
35.1626
34.752
35.085
34.7459
32.8401
33.1248
32.8324
32.9129
33.2169
32.9049
27.9557
28.2832
27.9496
27.5174
27.902
27.5114
21.97
20.8235
21.9683
22.3293
22.2937
22.3278
22.9988
23.0666
22.9935
22.9446
22.9957
22.9391
24.446
24.4623
24.4388
24.283
24.2664
24.2761
25.2661
25.2444
25.2607
25.8879
25.9558
25.8822
25.4142
25.3466
25.4093
26.2102
26.0873
26.2099
26.9239
26.8595
26.9244
26.5064
26.3466
26.5067
26.3389
26.1725
26.3414
26.8134
26.6082
26.8164
27.3038
27.2033
27.3074
26.656
26.4391
26.6589
26.6543
26.4376
26.6573
27.3022
27.2018
27.3058
26.8113
26.6063
26.8144
26.3357
26.1697
26.3382
26.497
26.3374
26.4974
26.9142
26.8501
26.9149
26.2003
26.0777
26.2001
25.4011
25.3336
25.3962
25.8741
25.9419
25.8682
25.2531
25.2314
25.2476
24.2728
24.2562
24.2659
24.4358
24.4522
24.4287
22.9374
22.9883
22.932
22.992
23.0594
22.9866
22.3271
22.2926
22.3256
22.8161
23.3133
22.8146
20.1755
20.1187
20.1707
20.0221
19.972
20.0173
18.6194
18.6489
18.6131
18.6882
18.704
18.6822
19.3814
19.4538
19.3765
19.577
19.6641
19.5718
19.5037
19.5718
19.4993
20.1768
20.1767
20.1762
20.2925
20.2725
20.2926
20.2616
20.2536
20.2616
20.5293
20.526
20.5308
20.5587
20.5455
20.5606
20.5839
20.5663
20.5862
20.5576
20.5448
20.5595
20.5563
20.5436
20.5582
20.5827
20.5652
20.5851
20.557
20.544
20.559
20.5266
20.5237
20.5282
20.2537
20.246
20.2537
20.2843
20.2649
20.2846
20.1684
20.1687
20.1679
19.4928
19.561
19.4884
19.5656
19.6528
19.5603
19.3706
19.443
19.3657
18.6799
18.6957
18.6738
18.6112
18.6407
18.6049
20.0159
19.9656
20.011
20.1694
20.1124
20.1647
22.8138
23.3121
22.8124
23.1934
24.3447
23.192
18.6312
18.526
18.6269
18.2618
18.1814
18.2574
15.1378
15.134
15.1324
15.2111
15.1889
15.2058
15.5428
15.5735
15.5385
15.7758
15.8399
15.7712
15.6334
15.6383
15.6294
16.1181
16.1036
16.1173
16.3407
16.315
16.3405
16.219
16.1779
16.2187
16.2728
16.2317
16.2737
16.4185
16.37
16.4197
16.5512
16.522
16.5528
16.3918
16.3416
16.3931
16.3907
16.3407
16.392
16.5503
16.5212
16.5519
16.4171
16.3688
16.4184
16.2705
16.2298
16.2716
16.2122
16.1715
16.212
16.3336
16.3085
16.3335
16.1109
16.0968
16.1102
15.6242
15.6292
15.6201
15.7661
15.8302
15.7614
15.5337
15.5644
15.5292
15.2039
15.1818
15.1986
15.1308
15.127
15.1253
18.2561
18.1755
18.2517
18.6256
18.5201
18.6213
23.1911
24.3432
23.1898
23.8029
25.275
23.8015
17.4452
17.2809
17.4414
16.9464
16.8085
16.9425
12.1188
12.117
12.1144
12.2556
12.2341
12.2514
12.3333
12.4062
12.3296
12.4677
12.5449
12.4637
12.4063
12.4772
12.4028
12.8002
12.8029
12.7993
12.8287
12.807
12.8284
12.8298
12.8267
12.8294
13.0394
13.0449
13.0399
13.0344
13.0374
13.0352
13.0239
13.0142
13.0249
13.0481
13.0529
13.0488
13.0472
13.0521
13.048
13.0232
13.0136
13.0242
13.0333
13.0365
13.0341
13.0375
13.0433
13.0381
12.824
12.8213
12.8237
12.8227
12.8017
12.8225
12.7941
12.7972
12.7933
12.3986
12.4696
12.3951
12.4597
12.5369
12.4556
12.3257
12.3986
12.3219
12.2494
12.2278
12.2451
12.1126
12.1109
12.1082
16.9411
16.803
16.9372
17.44
17.2754
17.4361
23.8005
25.2733
23.7991
24.7188
26.3291
24.7175
16.6798
16.442
16.6764
15.9807
15.7767
15.9774
9.8524
9.79104
9.84914
9.95917
9.87143
9.95598
9.66033
9.65758
9.65739
9.78237
9.81941
9.77914
9.71018
9.69492
9.70745
10.04
10.0203
10.0393
10.2561
10.2447
10.2557
10.1367
10.1021
10.1363
10.0912
10.0499
10.0915
10.2128
10.1618
10.2132
10.3392
10.3158
10.3398
10.1721
10.1178
10.1725
10.1714
10.1172
10.1719
10.3386
10.3152
10.3393
10.2119
10.161
10.2124
10.0897
10.0486
10.09
10.1319
10.0977
10.1316
10.2511
10.2402
10.2508
10.035
10.0156
10.0343
9.70379
9.68864
9.70104
9.77572
9.81283
9.77245
9.65392
9.65126
9.65096
9.95353
9.86582
9.95035
9.8468
9.78547
9.84355
15.9756
15.7714
15.9723
16.6748
16.4368
16.6714
24.7161
26.327
24.7148
25.1766
26.9741
25.1754
16.1581
15.8932
16.1552
15.3636
15.1316
15.3608
8.10799
8.04872
8.10588
8.25355
8.17399
8.25145
7.74215
7.77396
7.74002
7.78622
7.83233
7.78381
7.77676
7.80873
7.77476
8.06266
8.07435
8.06215
8.11926
8.11767
8.11904
8.09912
8.10462
8.09885
8.19723
8.20015
8.19753
8.19688
8.19707
8.19731
8.19945
8.19669
8.19999
8.19883
8.19922
8.19926
8.19825
8.1987
8.19868
8.19896
8.19625
8.1995
8.19614
8.19642
8.19657
8.19594
8.19908
8.19626
8.09525
8.10102
8.09504
8.11525
8.11406
8.1151
8.05857
8.07052
8.05812
7.77141
7.80345
7.76943
7.7807
7.82689
7.7783
7.73675
7.76861
7.73462
8.24826
8.16869
8.24616
8.10271
8.04343
8.1006
15.3586
15.1265
15.3558
16.1532
15.8881
16.1502
25.1738
26.9718
25.1725
25.6258
27.6651
25.6247
15.8906
15.6248
15.8881
14.976
14.7397
14.9736
6.95743
6.88117
6.95625
7.09607
6.99569
7.09485
6.36247
6.36558
6.3611
6.38483
6.41195
6.38323
6.37421
6.37255
6.37291
6.56915
6.56557
6.56891
6.65629
6.64896
6.65625
6.60993
6.59755
6.60985
6.63746
6.62528
6.63786
6.68751
6.67276
6.68802
6.73421
6.72538
6.73482
6.67946
6.66407
6.67997
6.67899
6.66363
6.67949
6.73379
6.72499
6.73439
6.68691
6.67222
6.68741
6.63646
6.62444
6.63687
6.60681
6.59465
6.60678
6.65306
6.64604
6.65308
6.56586
6.56249
6.56567
6.36968
6.3681
6.36841
6.38019
6.40738
6.3786
6.35781
6.361
6.35647
7.09096
6.99056
7.08976
6.95229
6.876
6.95113
14.9711
14.7346
14.9687
15.8858
15.6197
15.8832
25.6227
27.6624
25.6215
26.1542
28.2342
26.1531
15.7745
15.4928
15.7721
14.7541
14.4957
14.752
6.06654
5.97664
6.06616
6.19918
6.08506
6.19872
5.28459
5.26779
5.2839
5.27294
5.26301
5.27205
5.28216
5.26754
5.28148
5.40959
5.39734
5.40959
5.46692
5.45633
5.46705
5.43838
5.4247
5.43848
5.48963
5.4802
5.49012
5.52266
5.50936
5.52326
5.55553
5.54598
5.55624
5.51536
5.50168
5.51595
5.51495
5.5013
5.51554
5.55516
5.54563
5.55586
5.52214
5.50889
5.52274
5.4888
5.47949
5.48931
5.43593
5.4224
5.43607
5.46441
5.45402
5.46458
5.40698
5.39487
5.40701
5.27832
5.26377
5.27767
5.26904
5.25919
5.26818
5.28058
5.26385
5.27991
6.19422
6.08008
6.19379
6.06152
5.97159
6.06116
14.7492
14.4906
14.7471
15.7696
15.4878
15.7673
26.1509
28.2313
26.1498
26.6275
28.6283
26.6264
15.777
15.4818
15.7749
14.6557
14.3809
14.6538
5.3589
5.26016
5.35919
5.47163
5.3523
5.47183
4.37032
4.35824
4.37023
4.36254
4.33615
4.36227
4.35403
4.34916
4.35391
4.45977
4.46395
4.45993
4.47141
4.47251
4.47166
4.46541
4.47342
4.46564
4.55781
4.57091
4.55836
4.5383
4.55208
4.53894
4.52293
4.52715
4.52367
4.55156
4.56626
4.55219
4.55121
4.56592
4.55184
4.5226
4.52684
4.52334
4.53786
4.55168
4.5385
4.55714
4.57031
4.5577
4.4636
4.47166
4.46387
4.46957
4.47077
4.46986
4.45779
4.46205
4.45799
4.35092
4.34608
4.35083
4.35938
4.33306
4.35913
4.36702
4.35497
4.36694
5.46689
5.34751
5.46711
5.35406
5.25528
5.35438
14.6508
14.3759
14.6489
15.7721
15.4767
15.77
26.6239
28.625
26.6228
27.0157
28.7933
27.0145
15.8111
15.5027
15.8091
14.5579
14.2713
14.5562
4.72042
4.62536
4.72127
4.81763
4.6992
4.81836
3.49676
3.47572
3.49719
3.39726
3.40684
3.3976
3.46163
3.43973
3.46197
3.48323
3.47676
3.48354
3.5481
3.54467
3.54841
3.51368
3.50166
3.51399
3.50518
3.49127
3.50571
3.5529
3.53498
3.5535
3.60051
3.59228
3.6012
3.53853
3.51937
3.53912
3.53828
3.51912
3.53888
3.60024
3.59203
3.60094
3.5526
3.53468
3.5532
3.50478
3.49088
3.50532
3.51257
3.50057
3.51293
3.54698
3.54355
3.54734
3.48201
3.47557
3.48237
3.45933
3.43746
3.4597
3.39505
3.40463
3.39541
3.49421
3.47321
3.49467
4.81323
4.69474
4.81398
4.71588
4.62076
4.71675
14.553
14.2663
14.5512
15.8062
15.4977
15.8041
27.0116
28.7895
27.0104
27.1329
28.8865
27.1316
15.8889
15.5988
15.8869
14.5412
14.2665
14.5394
4.24267
4.1512
4.24385
4.31277
4.20142
4.31383
2.84053
2.83926
2.8413
2.75603
2.76839
2.75672
2.7924
2.7949
2.79307
2.74201
2.74458
2.74237
2.75573
2.75575
2.75605
2.7442
2.74534
2.74453
2.78057
2.78235
2.78101
2.7836
2.78398
2.7841
2.79145
2.79073
2.79202
2.78446
2.78486
2.78495
2.7843
2.7847
2.78479
2.79126
2.79054
2.79183
2.78341
2.78378
2.78391
2.78035
2.78211
2.78081
2.74378
2.74489
2.74416
2.75533
2.7553
2.75571
2.74148
2.74403
2.74189
2.79088
2.79337
2.79158
2.75459
2.76693
2.7553
2.83873
2.83747
2.83954
4.30876
4.19734
4.30983
4.2385
4.14696
4.2397
14.5362
14.2615
14.5345
15.8839
15.5938
15.8819
27.1285
28.8823
27.1272
27.5168
29.5604
27.5154
16.0826
15.8491
16.0805
14.6216
14.3872
14.6198
3.94243
3.84004
3.94365
3.99205
3.8692
3.99316
2.38732
2.36891
2.38826
2.28299
2.27566
2.28389
2.32384
2.30963
2.32468
2.19278
2.18361
2.19317
2.19484
2.18965
2.19516
2.18913
2.18081
2.18947
2.1888
2.18369
2.18917
2.20944
2.20328
2.20984
2.23002
2.22593
2.23048
2.20603
2.19963
2.20642
2.20598
2.19956
2.20637
2.22993
2.22583
2.23037
2.20939
2.2032
2.20979
2.18882
2.18367
2.18919
2.1893
2.18095
2.18967
2.19505
2.18981
2.19542
2.19286
2.18368
2.19328
2.32298
2.30877
2.32383
2.28224
2.27491
2.28316
2.38616
2.36777
2.38712
3.98847
3.86555
3.9896
3.93868
3.83623
3.93993
14.6167
14.3823
14.615
16.0776
15.8441
16.0756
27.5121
29.5557
27.5107
28.163
30.2402
28.1617
16.4001
16.181
16.398
14.8124
14.5888
14.8107
3.74379
3.62874
3.74492
3.76838
3.63455
3.76942
2.04637
2.01674
2.0474
1.93433
1.9099
1.93537
1.97391
1.95096
1.97483
1.78099
1.76864
1.7814
1.7666
1.76081
1.76693
1.76789
1.75886
1.76823
1.76621
1.7617
1.76652
1.77896
1.77303
1.77929
1.79215
1.78762
1.79251
1.77575
1.76973
1.77607
1.77578
1.76974
1.77609
1.79213
1.78759
1.79248
1.779
1.77305
1.77932
1.76638
1.76182
1.76668
1.76853
1.75948
1.76887
1.76731
1.76147
1.76764
1.78156
1.7692
1.78197
1.97359
1.95066
1.97451
1.93415
1.90974
1.93518
2.04576
2.01615
2.04678
3.76523
3.63134
3.76628
3.74047
3.62535
3.74161
14.8076
14.5839
14.8058
16.3952
16.176
16.393
28.1581
30.2353
28.1568
28.5173
30.067
28.516
16.6879
16.4174
16.6857
14.9709
14.7238
14.9691
3.64235
3.51761
3.6433
3.64166
3.49856
3.64255
1.80919
1.77235
1.81022
1.69348
1.65994
1.69455
1.7298
1.70067
1.73074
1.50815
1.49762
1.50855
1.48636
1.48303
1.48667
1.48993
1.48413
1.49025
1.48047
1.47873
1.48073
1.48518
1.48292
1.48545
1.4921
1.48985
1.49239
1.48422
1.48199
1.48448
1.4843
1.48205
1.48455
1.49213
1.48987
1.49241
1.48529
1.483
1.48555
1.48074
1.47895
1.48099
1.49086
1.48504
1.49116
1.48736
1.48398
1.48765
1.50902
1.49848
1.50939
1.72985
1.70074
1.73077
1.69367
1.66017
1.69473
1.80895
1.77214
1.80996
3.63887
3.49572
3.63977
3.63939
3.51459
3.64035
14.9661
14.7189
14.9643
16.6829
16.4123
16.6808
28.5123
30.0619
28.5109
28.2268
28.9727
28.2254
16.7843
16.4548
16.7822
15.0193
14.7305
15.0176
3.54467
3.4287
3.54537
3.51706
3.38451
3.51771
1.59804
1.56615
1.59897
1.49209
1.45752
1.4931
1.5111
1.48826
1.51197
1.25145
1.24363
1.25182
1.22877
1.22604
1.22905
1.22491
1.22284
1.2252
1.22239
1.22526
1.2226
1.21376
1.21723
1.21397
1.21697
1.21722
1.21719
1.21698
1.22089
1.21718
1.2171
1.22099
1.21729
1.21704
1.21728
1.21726
1.21392
1.21736
1.21411
1.22272
1.22554
1.22291
1.22592
1.22385
1.22619
1.22988
1.22712
1.23013
1.25242
1.24461
1.25277
1.51129
1.48848
1.51213
1.49245
1.45791
1.49344
1.59793
1.5661
1.59885
3.51454
3.38195
3.5152
3.54199
3.42596
3.54269
15.0145
14.7256
15.0127
16.7792
16.4496
16.7771
28.2215
28.9673
28.2201
27.7059
28.3367
27.7045
16.8819
16.5774
16.88
15.0204
14.767
15.0187
3.45779
3.34789
3.4582
3.43013
3.29867
3.43054
1.38848
1.3569
1.38925
1.23728
1.22186
1.23813
1.29267
1.26711
1.29341
0.986455
0.972023
0.986777
0.942512
0.93618
0.942767
0.961789
0.950463
0.962049
0.917786
0.909721
0.917951
0.93375
0.924847
0.933909
0.94201
0.937071
0.942176
0.927556
0.918391
0.927707
0.927683
0.918507
0.92783
0.942109
0.937159
0.942272
0.933915
0.924996
0.93407
0.918093
0.909993
0.918251
0.96274
0.951411
0.962985
0.943535
0.937188
0.943772
0.98734
0.97292
0.987648
1.29277
1.26723
1.2935
1.23746
1.2221
1.23831
1.38832
1.35678
1.38908
3.4277
3.29624
3.42812
3.45524
3.34531
3.45565
15.0153
14.762
15.0137
16.8766
16.5721
16.8747
27.7004
28.3312
27.699
27.9378
28.5895
27.9366
17.1171
16.7816
17.1154
15.182
14.9007
15.1806
3.46999
3.34837
3.47019
3.4311
3.2869
3.43132
1.27806
1.24711
1.27871
1.13293
1.10988
1.13368
1.17451
1.1514
1.17514
0.83888
0.826108
0.839198
0.793105
0.78809
0.793373
0.806981
0.799045
0.807246
0.77159
0.768283
0.771746
0.774082
0.770806
0.774224
0.774911
0.772665
0.775056
0.772107
0.768883
0.772241
0.77224
0.769006
0.772373
0.775024
0.772769
0.775168
0.774254
0.770962
0.774394
0.771885
0.768546
0.772039
0.807836
0.7999
0.808095
0.79403
0.789001
0.794289
0.839654
0.826895
0.839967
1.17442
1.15134
1.17506
1.13289
1.10988
1.13365
1.27771
1.24681
1.27836
3.42867
3.28443
3.42889
3.46741
3.34576
3.46762
15.1769
14.8955
15.1755
17.1116
16.7762
17.11
27.9323
28.5841
27.9311
27.5375
30.3548
27.5363
17.4539
17.4806
17.4525
15.1513
15.2213
15.1501
3.80524
3.62273
3.80533
3.85843
3.63148
3.85854
1.31411
1.26894
1.31465
1.11167
1.07316
1.11235
1.16853
1.13904
1.16908
0.818534
0.798897
0.818862
0.756476
0.750316
0.756762
0.775775
0.765426
0.776045
0.730018
0.726296
0.730186
0.73028
0.726992
0.730424
0.728154
0.725911
0.728302
0.728174
0.725141
0.728309
0.728318
0.725275
0.728453
0.728277
0.726025
0.728424
0.730475
0.727169
0.730619
0.730358
0.726592
0.730524
0.776549
0.766214
0.776816
0.757357
0.751184
0.75764
0.819192
0.799588
0.819519
1.16831
1.13883
1.16886
1.11148
1.073
1.11217
1.31354
1.26842
1.3141
3.85592
3.62894
3.85604
3.80258
3.62004
3.80268
15.1463
15.2162
15.1451
17.4485
17.4753
17.4471
27.532
30.3496
27.5308
)
;

boundaryField
{
    freeSurface
    {
        type            slip;
    }
    inlet
    {
        type            cyclic;
    }
    outlet
    {
        type            cyclic;
    }
    sidewalls
    {
        type            omegaWallFunction;
        Cmu             0.09;
        kappa           0.41;
        E               9.8;
        beta1           0.075;
        blended         false;
        value           nonuniform List<scalar> 
144
(
1781.75
11.8804
13.5569
16.4585
18.9986
20.1975
22.4725
23.5364
25.4994
26.3991
28.0411
28.7888
30.1555
30.7815
31.3728
32.4571
32.9519
33.8489
34.2515
34.6235
34.9648
35.779
35.9545
36.056
1781.75
11.8803
13.5568
16.4585
18.9987
20.1975
22.4725
23.5363
25.4993
26.3989
28.0409
28.7886
30.1554
30.7814
31.3726
32.457
32.9518
33.8488
34.2514
34.6234
34.9647
35.7789
35.9544
36.0559
1781.75
11.8806
13.5571
16.4588
18.999
20.1979
22.4728
23.5366
25.4995
26.3991
28.0411
28.7888
30.1556
30.7815
31.3728
32.4571
32.9519
33.8489
34.2515
34.6235
34.9648
35.779
35.9545
36.056
1781.75
11.8805
13.557
16.4586
18.9987
20.1975
22.4723
23.536
25.4985
26.398
28.0396
28.787
30.1533
30.779
31.3699
32.4537
32.9481
33.8444
34.2468
34.6186
34.9597
35.7742
35.9499
36.0515
1781.75
11.8805
13.557
16.4586
18.9987
20.1975
22.4723
23.5359
25.4984
26.3979
28.0394
28.7869
30.1532
30.7789
31.3698
32.4535
32.948
33.8443
34.2466
34.6185
34.9596
35.7742
35.9498
36.0515
1781.75
11.8807
13.5572
16.4589
18.999
20.1979
22.4726
23.5362
25.4986
26.3981
28.0396
28.7871
30.1533
30.779
31.3699
32.4537
32.9481
33.8444
34.2468
34.6186
34.9597
35.7742
35.9499
36.0515
)
;
    }
    noSlipWalls
    {
        type            omegaWallFunction;
        Cmu             0.09;
        kappa           0.41;
        E               9.8;
        beta1           0.075;
        blended         false;
        value           nonuniform List<scalar> 
90
(
1781.75
3557.7
3557.7
3557.7
3557.7
3557.7
3557.7
3557.7
3557.7
3557.7
3557.7
3557.7
3557.7
3557.7
3557.7
3557.7
3557.7
3557.7
3557.7
3557.7
3557.7
3557.7
3557.7
3557.7
3557.7
3557.7
3557.7
3557.7
3557.7
1781.75
1781.75
3557.7
3557.7
3557.7
3557.7
3557.7
3557.7
3557.7
3557.7
3557.7
3557.7
3557.7
3557.7
3557.7
3557.7
3557.7
3557.7
3557.7
3557.7
3557.7
3557.7
3557.7
3557.7
3557.7
3557.7
3557.7
3557.7
3557.7
3557.7
1781.75
1781.75
3557.7
3557.7
3557.7
3557.7
3557.7
3557.7
3557.7
3557.7
3557.7
3557.7
3557.7
3557.7
3557.7
3557.7
3557.7
3557.7
3557.7
3557.7
3557.7
3557.7
3557.7
3557.7
3557.7
3557.7
3557.7
3557.7
3557.7
3557.7
1781.75
)
;
    }
}


// ************************************************************************* //
