/*--------------------------------*- C++ -*----------------------------------*\
  =========                 |
  \\      /  F ield         | OpenFOAM: The Open Source CFD Toolbox
   \\    /   O peration     | Website:  https://openfoam.org
    \\  /    A nd           | Version:  6
     \\/     M anipulation  |
\*---------------------------------------------------------------------------*/
FoamFile
{
    version     2.0;
    format      ascii;
    class       volVectorField;
    location    "0";
    object      wallShearStress;
}
// * * * * * * * * * * * * * * * * * * * * * * * * * * * * * * * * * * * * * //

dimensions      [0 2 -2 0 0 0 0];

internalField   uniform (0 0 0);

boundaryField
{
    freeSurface
    {
        type            calculated;
        value           uniform (0 0 0);
    }
    inlet
    {
        type            cyclic;
    }
    outlet
    {
        type            cyclic;
    }
    sidewalls
    {
        type            calculated;
        value           nonuniform List<vector> 
144
(
(-4.91586e-06 -9.79126e-09 3.03542e-11)
(-1.87661e-05 -6.4775e-08 4.73163e-11)
(-2.65806e-05 -6.52686e-08 1.87471e-11)
(-3.99348e-05 -7.79218e-08 -1.44684e-11)
(-5.05386e-05 -8.6397e-08 -4.87425e-11)
(-5.76945e-05 -7.66228e-08 -7.94215e-11)
(-7.06795e-05 -8.65153e-08 -9.03952e-11)
(-7.78038e-05 -7.92797e-08 -7.16694e-11)
(-8.83464e-05 -7.49715e-08 -6.52737e-11)
(-9.52759e-05 -6.46135e-08 -5.66288e-11)
(-0.000107622 -8.16817e-08 -5.43377e-11)
(-0.00011417 -7.58072e-08 -5.27941e-11)
(-0.000123593 -7.00727e-08 -5.03716e-11)
(-0.000129682 -6.35402e-08 -4.57314e-11)
(-0.000135127 -5.34011e-08 -4.05527e-11)
(-0.0001461 -7.05309e-08 -3.08184e-11)
(-0.000151933 -6.50021e-08 -2.65222e-11)
(-0.000159557 -6.54335e-08 -2.27702e-11)
(-0.000163867 -6.8376e-08 -1.95986e-11)
(-0.000167876 -5.03097e-08 -1.70425e-11)
(-0.000172659 -2.11274e-08 -1.57117e-11)
(-0.000182519 -2.78635e-08 -1.33547e-11)
(-0.000184779 -2.44619e-08 -8.90895e-12)
(-0.000186924 -1.03479e-07 -5.25648e-12)
(-4.40912e-06 -9.04421e-12 -6.45466e-11)
(-1.5415e-05 -2.40696e-11 -4.14959e-11)
(-2.32033e-05 -3.60571e-11 -8.54116e-12)
(-3.59025e-05 -4.79988e-11 2.31549e-11)
(-4.60684e-05 -4.24642e-11 4.52326e-11)
(-5.37301e-05 -4.41714e-11 6.3532e-11)
(-6.62045e-05 -2.60551e-11 7.27866e-11)
(-7.37039e-05 -7.40358e-12 6.11444e-11)
(-8.44698e-05 2.45169e-12 5.61954e-11)
(-9.19352e-05 5.8057e-12 5.0082e-11)
(-0.000103399 5.52313e-12 4.90829e-11)
(-0.00011025 4.34255e-12 4.90395e-11)
(-0.00011997 3.73373e-12 4.96673e-11)
(-0.000126397 3.81937e-12 4.88528e-11)
(-0.000132366 5.53398e-12 4.68282e-11)
(-0.000142454 6.89645e-12 4.1226e-11)
(-0.000148572 6.12869e-12 3.54462e-11)
(-0.000156174 3.98126e-12 2.98312e-11)
(-0.000160332 2.57319e-12 2.67032e-11)
(-0.000165275 3.10587e-12 2.39873e-11)
(-0.000171567 4.34799e-12 2.02487e-11)
(-0.000181079 5.97855e-12 1.22026e-11)
(-0.000183515 6.13109e-12 7.6859e-12)
(-0.000181574 8.10477e-12 3.91141e-12)
(-4.91606e-06 9.82387e-09 1.30437e-10)
(-1.87668e-05 6.48539e-08 5.35343e-11)
(-2.65814e-05 6.53681e-08 -1.27911e-11)
(-3.99358e-05 7.80393e-08 -4.83035e-11)
(-5.05399e-05 8.64968e-08 -5.46812e-11)
(-5.76955e-05 7.67123e-08 -6.71116e-11)
(-7.06803e-05 8.65588e-08 -6.77556e-11)
(-7.78044e-05 7.92888e-08 -4.74769e-11)
(-8.83467e-05 7.49643e-08 -3.93715e-11)
(-9.52762e-05 6.46042e-08 -3.20414e-11)
(-0.000107622 8.16753e-08 -3.32971e-11)
(-0.00011417 7.58017e-08 -3.70056e-11)
(-0.000123593 7.00658e-08 -3.9953e-11)
(-0.000129682 6.35329e-08 -4.08647e-11)
(-0.000135127 5.33914e-08 -4.15198e-11)
(-0.0001461 7.05217e-08 -3.95531e-11)
(-0.000151933 6.49959e-08 -3.63065e-11)
(-0.000159557 6.54287e-08 -3.25768e-11)
(-0.000163867 6.83727e-08 -2.8645e-11)
(-0.000167876 5.03072e-08 -2.56854e-11)
(-0.000172659 2.11235e-08 -2.25382e-11)
(-0.000182519 2.78528e-08 -1.05209e-11)
(-0.000184779 2.44514e-08 -4.56561e-12)
(-0.000186924 1.03468e-07 -2.11591e-12)
(-4.91591e-06 9.79165e-09 2.97632e-11)
(-1.87661e-05 6.47734e-08 4.62512e-11)
(-2.65803e-05 6.5264e-08 1.80162e-11)
(-3.99336e-05 7.79097e-08 -1.47937e-11)
(-5.05368e-05 8.63832e-08 -4.83627e-11)
(-5.76916e-05 7.6616e-08 -7.86093e-11)
(-7.06741e-05 8.6489e-08 -8.93273e-11)
(-7.77967e-05 7.92516e-08 -7.06656e-11)
(-8.83369e-05 7.49312e-08 -6.41663e-11)
(-9.52644e-05 6.4582e-08 -5.53819e-11)
(-0.000107606 8.1647e-08 -5.28719e-11)
(-0.000114151 7.57712e-08 -5.12631e-11)
(-0.000123571 7.0046e-08 -4.87691e-11)
(-0.000129657 6.3513e-08 -4.41809e-11)
(-0.000135099 5.33739e-08 -3.9068e-11)
(-0.000146066 7.05127e-08 -2.93068e-11)
(-0.000151895 6.49835e-08 -2.49153e-11)
(-0.000159513 6.54013e-08 -2.11555e-11)
(-0.000163819 6.83427e-08 -1.80399e-11)
(-0.000167825 5.03032e-08 -1.57456e-11)
(-0.000172607 2.11116e-08 -1.48836e-11)
(-0.000182466 2.78342e-08 -1.3209e-11)
(-0.000184727 2.44461e-08 -8.65232e-12)
(-0.000186873 1.03416e-07 -4.91875e-12)
(-4.40916e-06 9.40262e-12 -6.63164e-11)
(-1.54151e-05 2.48773e-11 -4.23661e-11)
(-2.32033e-05 3.71469e-11 -8.78071e-12)
(-3.59019e-05 4.9328e-11 2.35452e-11)
(-4.60674e-05 4.37156e-11 4.61065e-11)
(-5.3728e-05 3.73099e-11 6.46048e-11)
(-6.62006e-05 2.71183e-11 7.39884e-11)
(-7.36985e-05 8.30625e-12 6.24113e-11)
(-8.44617e-05 8.08397e-12 5.76819e-11)
(-9.19249e-05 4.86016e-12 5.16212e-11)
(-0.000103385 -4.97831e-12 5.07341e-11)
(-0.000110234 -3.85883e-12 5.07804e-11)
(-0.000119949 -3.30671e-12 5.15183e-11)
(-0.000126374 -3.43061e-12 5.07374e-11)
(-0.00013234 -5.19672e-12 4.87497e-11)
(-0.000142421 -6.69964e-12 4.30909e-11)
(-0.000148535 -6.0446e-12 3.71085e-11)
(-0.000156131 -3.94455e-12 3.11034e-11)
(-0.000160286 -2.53656e-12 2.77203e-11)
(-0.000165225 -1.57782e-11 2.48864e-11)
(-0.000171515 -4.50516e-12 2.11306e-11)
(-0.000181027 -6.21423e-12 1.29393e-11)
(-0.000183463 -6.36738e-12 8.00847e-12)
(-0.000181525 -8.08077e-12 3.85772e-12)
(-4.91612e-06 -9.82398e-09 1.28851e-10)
(-1.87667e-05 -6.48513e-08 5.26566e-11)
(-2.65811e-05 -6.53622e-08 -1.28685e-11)
(-3.99346e-05 -7.80254e-08 -4.80999e-11)
(-5.05379e-05 -8.64807e-08 -5.45248e-11)
(-5.7693e-05 -7.66954e-08 -6.70073e-11)
(-7.06749e-05 -8.65305e-08 -6.75381e-11)
(-7.77973e-05 -7.9259e-08 -4.70558e-11)
(-8.83367e-05 -7.4932e-08 -3.87774e-11)
(-9.52642e-05 -6.45811e-08 -3.12626e-11)
(-0.000107607 -8.16393e-08 -3.22941e-11)
(-0.000114151 -7.57648e-08 -3.59584e-11)
(-0.000123571 -7.00387e-08 -3.87442e-11)
(-0.000129657 -6.35055e-08 -3.95736e-11)
(-0.000135099 -5.33643e-08 -4.01812e-11)
(-0.000146066 -7.05037e-08 -3.83673e-11)
(-0.000151895 -6.49775e-08 -3.5279e-11)
(-0.000159513 -6.53967e-08 -3.15646e-11)
(-0.000163819 -6.83396e-08 -2.76124e-11)
(-0.000167826 -5.02884e-08 -2.46712e-11)
(-0.000172607 -2.11082e-08 -2.14907e-11)
(-0.000182466 -2.78239e-08 -9.89744e-12)
(-0.000184727 -2.44359e-08 -4.31423e-12)
(-0.000186873 -1.03406e-07 -2.02789e-12)
)
;
    }
    noSlipWalls
    {
        type            calculated;
        value           nonuniform List<vector> 
90
(
(-9.26215e-05 1.55456e-11 -9.81417e-09)
(-0.000232318 5.52346e-11 1.96342e-09)
(-0.000229723 4.72834e-11 6.25568e-10)
(-0.000356878 2.15467e-11 -1.29071e-09)
(-0.00033653 1.74366e-11 -2.80449e-09)
(-0.000358908 -2.24299e-11 -6.07899e-09)
(-0.000408838 -5.19388e-11 -9.3886e-11)
(-0.000362828 -1.99188e-11 -1.02651e-08)
(-0.000382322 -4.87849e-12 -1.1543e-08)
(-0.000442961 -8.34851e-12 -7.32583e-09)
(-0.000402371 -2.54008e-12 -1.59017e-08)
(-0.000376551 6.15102e-12 -1.29629e-08)
(-0.000418926 6.43605e-12 -1.75493e-08)
(-0.000468772 6.03003e-12 -1.00287e-08)
(-0.000406123 5.2092e-12 -1.75065e-08)
(-0.00040611 -5.50298e-12 -1.75066e-08)
(-0.000468759 -6.8309e-12 -1.00282e-08)
(-0.000418913 -6.45117e-12 -1.75495e-08)
(-0.000376538 -4.75204e-12 -1.29642e-08)
(-0.000402339 6.67582e-12 -1.59082e-08)
(-0.000442928 1.63088e-11 -7.33623e-09)
(-0.000382283 5.84419e-12 -1.15481e-08)
(-0.000362747 2.30139e-11 -1.02642e-08)
(-0.000408741 4.47713e-11 -9.99249e-11)
(-0.000358827 2.24024e-11 -6.08107e-09)
(-0.000336474 -1.99567e-11 -2.80421e-09)
(-0.000356823 -2.36222e-11 -1.29029e-09)
(-0.000229711 -4.68395e-11 6.27492e-10)
(-0.000232309 -5.40936e-11 1.96538e-09)
(-9.26225e-05 -1.53286e-11 -9.81464e-09)
(-8.30739e-05 -8.87445e-11 1.51312e-11)
(-0.000234305 -1.57916e-10 9.38073e-11)
(-0.000230401 -1.28843e-10 8.31402e-11)
(-0.000355728 1.30434e-11 1.16537e-10)
(-0.000333892 1.58764e-11 1.00793e-10)
(-0.000353055 1.02747e-10 7.30407e-11)
(-0.000408838 1.66595e-10 1.02303e-10)
(-0.000352889 9.83106e-11 6.36898e-11)
(-0.000371078 5.49022e-11 -9.2728e-12)
(-0.000435815 6.43623e-11 -2.94318e-11)
(-0.000386872 4.6192e-11 -2.02673e-11)
(-0.00036389 1.51041e-11 -4.63373e-11)
(-0.000401784 1.24405e-11 -6.67019e-11)
(-0.00045894 1.84763e-11 -1.038e-10)
(-0.000389026 7.38496e-12 -5.89296e-11)
(-0.000389013 -9.11033e-12 -5.83694e-11)
(-0.000458924 -2.04124e-11 -1.06893e-10)
(-0.000401771 -1.43813e-11 -6.58865e-11)
(-0.000363877 -1.751e-11 -4.44887e-11)
(-0.000386843 -4.36055e-11 -7.37678e-12)
(-0.000435786 -6.83967e-11 -8.99172e-12)
(-0.000371045 -4.30879e-11 4.77817e-12)
(-0.000352815 -4.69716e-11 6.82166e-11)
(-0.000408741 -8.84335e-11 1.07079e-10)
(-0.000352977 -4.79389e-11 7.75634e-11)
(-0.000333837 1.132e-11 1.00127e-10)
(-0.000355673 1.19881e-11 1.15609e-10)
(-0.00023039 1.38935e-10 8.30126e-11)
(-0.000234298 1.66624e-10 9.3654e-11)
(-8.30746e-05 9.14563e-11 1.5463e-11)
(-9.26254e-05 1.97916e-10 9.77929e-09)
(-0.00023233 2.20802e-10 -2.12291e-09)
(-0.000229735 1.84553e-10 -7.69456e-10)
(-0.000356894 -2.87342e-11 1.08327e-09)
(-0.000336546 -2.58596e-11 2.62134e-09)
(-0.000358921 -9.70629e-11 5.94369e-09)
(-0.000408851 -1.39128e-10 -8.52159e-11)
(-0.000362838 -9.59239e-11 1.01418e-08)
(-0.000382322 -8.65523e-11 1.155e-08)
(-0.000442957 -1.02463e-10 7.35768e-09)
(-0.000402368 -8.35468e-11 1.59249e-08)
(-0.000376541 -4.22335e-11 1.30469e-08)
(-0.000418913 -3.67889e-11 1.76683e-08)
(-0.000468759 -4.30317e-11 1.01968e-08)
(-0.00040611 -2.60022e-11 1.76147e-08)
(-0.000406097 2.51442e-11 1.76135e-08)
(-0.000468743 4.2166e-11 1.01992e-08)
(-0.0004189 3.59691e-11 1.76666e-08)
(-0.000376528 4.15804e-11 1.30439e-08)
(-0.000402336 8.53694e-11 1.59066e-08)
(-0.000442925 1.03154e-10 7.33379e-09)
(-0.000382286 9.20832e-11 1.15302e-08)
(-0.00036276 1.31175e-10 1.01305e-08)
(-0.000408757 1.78002e-10 -9.04155e-11)
(-0.000358843 1.31253e-10 5.93662e-09)
(-0.000336491 4.09958e-11 2.62305e-09)
(-0.000356839 4.26773e-11 1.08547e-09)
(-0.000229723 -1.78911e-10 -7.70225e-10)
(-0.000232322 -2.15785e-10 -2.12369e-09)
(-9.26264e-05 -1.95684e-10 9.77979e-09)
)
;
    }
}


// ************************************************************************* //
