/*--------------------------------*- C++ -*----------------------------------*\
  =========                 |
  \\      /  F ield         | OpenFOAM: The Open Source CFD Toolbox
   \\    /   O peration     | Website:  https://openfoam.org
    \\  /    A nd           | Version:  6
     \\/     M anipulation  |
\*---------------------------------------------------------------------------*/
FoamFile
{
    version     2.0;
    format      ascii;
    class       volScalarField;
    location    "22";
    object      yPlus;
}
// * * * * * * * * * * * * * * * * * * * * * * * * * * * * * * * * * * * * * //

dimensions      [0 0 0 0 0 0 0];

internalField   uniform 0;

boundaryField
{
    inlet
    {
        type            calculated;
        value           uniform 0;
    }
    outlet
    {
        type            calculated;
        value           uniform 0;
    }
    roughCylinder
    {
        type            calculated;
        value           nonuniform List<scalar> 
5120
(
43.4903
51.3113
57.5404
63.6669
68.9558
73.2458
76.6832
79.4615
81.7361
83.6414
85.2972
86.7797
88.1265
89.3713
90.5454
91.6791
92.803
93.9456
95.1301
96.3738
97.6862
99.0698
100.521
102.034
103.597
105.198
106.821
108.443
110.024
111.498
112.712
113.425
42.783
50.3186
56.3478
62.3336
67.5484
71.8025
75.2209
77.9904
80.2645
82.1759
83.8399
85.326
86.6643
87.8956
89.0517
90.1642
91.2648
92.3822
93.5411
94.7576
96.0413
97.3947
98.8145
100.294
101.822
103.387
104.973
106.557
108.1
109.538
110.721
111.415
41.9905
49.2787
55.121
60.9675
66.1094
70.3328
73.7408
76.512
78.797
80.7248
82.4029
83.8944
85.2289
86.449
87.5887
88.6815
89.7601
90.8542
91.9872
93.1767
94.4323
95.7561
97.1447
98.5912
100.085
101.614
103.163
104.709
106.215
107.617
108.769
109.445
41.1843
48.2368
53.8916
59.5941
64.6612
68.8556
72.2566
75.0343
77.3375
79.289
80.9861
82.4866
83.823
85.0346
86.1617
87.2376
88.2961
89.3674
90.4772
91.6418
92.8702
94.1653
95.5235
96.9376
98.3977
99.8912
101.403
102.912
104.38
105.747
106.87
107.525
40.3192
47.1491
52.6151
58.1707
63.1654
67.3408
70.7497
73.5508
75.8864
77.8703
79.5915
81.1051
82.4466
83.6553
84.7718
85.833
86.8738
87.9259
89.0126
90.1525
91.3553
92.6228
93.9519
95.3352
96.7626
98.2221
99.6978
101.17
102.602
103.934
105.027
105.664
39.4509
46.0598
51.3303
56.7317
61.653
65.8146
69.2376
72.0651
74.4343
76.4534
78.2027
79.7348
81.089
82.3025
83.4149
84.4657
85.4918
86.5248
87.5925
88.711
89.8895
91.1308
92.4315
93.7843
95.1797
96.6045
98.0445
99.4804
100.876
102.175
103.24
103.857
38.5273
44.92
49.9882
55.2276
60.0749
64.2321
67.6862
70.5605
72.9816
75.0465
76.8304
78.3868
79.7555
80.9775
82.0897
83.1341
84.1488
85.1687
86.2172
87.3141
88.4699
89.6863
90.9601
92.2844
93.6484
95.041
96.4475
97.8485
99.2087
100.474
101.51
102.109
37.5854
43.7597
48.6141
53.6792
58.45
62.6121
66.1098
69.0363
71.5084
73.6213
75.4452
77.0317
78.4267
79.6668
80.7908
81.835
82.8436
83.85
84.8847
85.9651
87.0999
88.2929
89.5407
90.836
92.1695
93.5286
94.9002
96.2656
97.5906
98.8248
99.833
100.412
36.5804
42.5379
47.1687
52.0466
56.7333
60.9035
64.4584
67.4605
70.0099
72.1875
74.0623
75.6916
77.1148
78.3757
79.5103
80.5626
81.5695
82.5722
83.5937
84.6561
85.7719
86.9429
88.166
89.4346
90.7385
92.0672
93.4057
94.7376
96.0287
97.2293
98.21
98.7712
35.519
41.251
45.6403
50.3069
54.8981
59.0895
62.7298
65.827
68.4587
70.7108
72.6488
74.3223
75.7878
77.0819
78.2442
79.3089
80.3235
81.3223
82.3373
83.3898
84.4889
85.6393
86.8386
88.0793
89.3531
90.6475
91.9522
93.2475
94.5029
95.6745
96.6277
97.1667
34.3439
39.8644
44.0096
48.4522
52.9324
57.1348
60.8613
64.0762
66.8305
69.1809
71.1945
72.9423
74.4596
75.7938
76.9802
78.0677
79.0916
80.0982
81.1085
82.1485
83.233
84.3646
85.5408
86.7565
88.0014
89.2664
90.5368
91.7989
93.0217
94.1582
95.0846
95.6056
33.0483
38.3525
42.2204
46.3901
50.7232
54.947
58.8169
62.204
65.1001
67.5795
69.7063
71.5203
73.0991
74.4825
75.7162
76.8296
77.8764
78.8877
79.9004
80.9387
82.0117
83.1259
84.2806
85.4682
86.682
87.9111
89.1488
90.3734
91.5582
92.6696
93.5674
94.0632
31.5391
36.6507
40.245
44.1342
48.301
52.5153
56.4927
60.0607
63.175
65.824
68.0676
70.014
71.6874
73.147
74.4265
75.5855
76.6542
77.6877
78.7056
79.7368
80.8002
81.8995
83.0329
84.1982
85.3853
86.5865
87.7855
88.9777
90.132
91.2042
92.0763
92.555
29.8498
34.7646
38.0375
41.5461
45.4368
49.6154
53.8187
57.7069
61.07
63.956
66.4228
68.4744
70.2421
71.7694
73.1211
74.3205
75.4336
76.4836
77.5146
78.5548
79.6129
80.6985
81.8131
82.9493
84.1019
85.2623
86.4336
87.5858
88.697
89.7486
90.5903
91.0374
27.6516
32.4113
35.3794
38.5275
42.1704
46.2888
50.5488
54.6722
58.4742
61.6984
64.3676
66.6846
68.6286
70.3011
71.7374
73.0214
74.1738
75.2653
76.3159
77.3558
78.4105
79.4855
80.5806
81.6972
82.8269
83.9626
85.0851
86.2037
87.2874
88.2937
89.1096
89.5419
25.1538
29.8152
32.4574
35.0565
38.068
41.8572
46.5264
51.3358
55.545
59.2476
62.4056
64.8871
66.999
68.7751
70.3251
71.6657
72.893
74.0182
75.0949
76.1583
77.2161
78.2822
79.3609
80.4462
81.5335
82.6195
83.7227
84.797
85.8297
86.8208
87.6034
87.9931
21.2119
25.8898
28.2003
30.3256
33.1057
36.921
41.1674
46.0252
51.3874
55.8265
59.3648
62.493
64.9602
67.0211
68.7274
70.2259
71.5219
72.7174
73.8355
74.9072
75.9694
77.0294
78.0902
79.1582
80.2288
81.2935
82.3311
83.3689
84.3773
85.3141
86.0708
86.4474
16.765
21.8936
24.2002
25.8191
27.0304
29.1563
34.4876
40.9882
46.2471
51.9158
56.7451
60.0778
62.9148
65.1775
67.0945
68.676
70.0947
71.3501
72.5116
73.6283
74.7048
75.7627
76.8095
77.8423
78.8562
79.8579
80.8855
81.8713
82.8148
83.7439
84.461
84.7806
5.62802
9.84036
10.652
10.5201
10.2273
5.28128
14.265
25.0706
38.4494
45.4543
51.0632
56.3658
59.9588
62.8199
65.0374
66.932
68.4838
69.8614
71.1014
72.2373
73.3287
74.385
75.4144
76.4317
77.4364
78.4155
79.3581
80.3008
81.2292
82.085
82.7783
83.0807
9.23722
10.9099
10.6954
8.53675
9.2541
15.9907
11.0861
14.341
20.2872
37.7215
47.039
52.0815
56.874
60.2565
62.96
64.9957
66.7556
68.2372
69.5485
70.7677
71.8914
72.9562
73.9747
74.9481
75.8738
76.7746
77.7072
78.5829
79.4157
80.2811
80.9204
81.1488
11.127
16.5084
18.0486
17.9845
16.5128
13.6842
14.3187
14.6531
9.72987
10.8302
32.7189
45.744
51.7217
56.5319
59.8506
62.5848
64.6413
66.3655
67.8281
69.0801
70.2338
71.3018
72.2985
73.2617
74.1835
75.0453
75.8797
76.6982
77.5419
78.2964
78.9168
79.1119
19.3347
23.7349
25.7195
26.753
26.6628
25.221
22.172
19.9074
13.5867
13.9369
18.2301
32.6219
45.6699
52.0959
56.8349
59.8441
62.3005
64.2034
65.7932
67.2142
68.4373
69.5334
70.5293
71.4223
72.2313
72.9963
73.7918
74.5122
75.1971
75.988
76.5316
76.6214
21.7484
26.7402
29.4674
31.5172
32.8076
33.2066
32.398
29.6916
24.3398
21.0253
11.8259
25.846
33.1391
44.9932
51.0131
55.8834
59.0571
61.5382
63.451
64.91
66.1865
67.2938
68.2448
69.1507
69.9514
70.6281
71.3332
71.9606
72.7149
73.3485
73.8619
73.8911
22.5401
27.6173
30.53
32.8795
34.6274
35.7456
36.1711
35.7114
33.8371
29.2622
25.6197
14.3393
26.7252
34.3128
45.9589
51.2386
55.4385
58.1945
60.3407
62.2091
63.6475
64.8207
65.8072
66.5643
67.1931
67.7369
68.3014
68.7546
69.2356
69.894
70.3302
70.1563
21.9644
27.1764
30.2422
32.8058
34.8267
36.2913
37.1924
37.5063
37.1105
35.475
31.4342
27.3364
16.9647
6.85251
31.4051
43.5906
49.3253
53.8028
56.7581
58.5566
60.0749
61.2793
62.1366
62.987
63.5753
63.918
64.4529
64.7513
65.3988
65.9466
66.1908
65.9552
20.5834
25.9247
29.0825
31.777
33.9776
35.679
36.897
37.6598
37.9886
37.8083
36.6137
33.1253
28.1116
20.3458
33.7705
32.6311
43.3051
47.5787
50.9045
54.006
55.9659
57.3048
58.3158
58.7657
59.067
59.1678
59.2132
59.1338
59.2806
59.5321
59.934
59.0941
18.748
24.1793
27.3674
30.1158
32.4129
34.2697
35.7109
36.7864
37.5645
38.0981
38.3239
37.7082
34.5945
24.1751
27.5511
5.58154
27.2474
39.898
45.3843
47.1019
49.0976
50.5205
51.0148
51.9877
51.9905
52.1979
52.1734
52.8332
52.3041
53.7018
52.13
51.8199
16.6022
22.0214
25.1431
27.8459
30.1468
32.0804
33.6872
35.0204
36.1563
37.1695
38.0782
38.7318
38.4749
35.6701
28.6483
26.9982
11.7109
22.0189
30.6034
38.6155
41.9474
43.5883
44.8578
44.0948
43.9872
42.118
40.0431
40.2664
38.902
37.726
38.9302
35.5572
14.4027
19.6726
22.624
25.1798
27.39
29.3133
31.0067
32.5314
33.9589
35.3639
36.7768
38.1187
39.114
39.0745
35.6936
26.5256
23.1742
14.0091
15.6059
16.6203
23.1295
27.9589
24.5873
27.4161
23.9785
44.2665
35.9085
43.1738
32.5305
29.2988
5.8509
18.5352
12.4416
17.4383
20.141
22.474
24.5209
26.3597
28.0591
29.6838
31.2972
32.9614
34.718
36.5267
38.2098
39.3906
39.2013
36.6024
28.8846
27.0653
23.4574
14.7192
30.3356
37.6938
11.6546
33.5133
26.5315
43.1074
27.2263
45.3147
24.9857
37.8992
17.6198
31.7873
10.9083
15.5581
17.9921
20.0811
21.938
23.6543
25.3036
26.9461
28.6328
30.4089
32.3162
34.3588
36.4519
38.3479
39.5693
39.6199
36.1422
31.0372
27.2087
26.2766
30.9526
39.0095
30.5677
33.008
28.5714
40.3053
32.9608
37.7665
31.2619
40.5005
35.1704
33.3038
9.77018
14.1739
16.3776
18.259
19.9537
21.5566
23.1353
24.7368
26.3974
28.1503
30.0328
32.0781
34.2836
36.5363
38.5268
39.8152
39.4568
37.0949
34.2433
32.6031
28.5025
35.7399
32.0038
30.1741
33.1753
31.692
38.391
33.5775
39.211
34.9469
41.1584
40.386
9.1607
13.371
15.4118
17.1577
18.7529
20.2832
21.7992
23.33
24.8975
26.5277
28.2566
30.1308
32.1921
34.4342
36.7193
38.7147
39.7746
39.6424
38.6325
38.2389
37.1042
36.6525
36.2823
39.295
40.2603
38.912
43.2
41.3604
42.4247
40.5425
44.2668
42.8104
8.97994
13.0999
15.0681
16.7643
18.3305
19.8363
21.3123
22.7714
24.2251
25.6954
27.2173
28.8378
30.6119
32.586
34.7497
36.953
38.7803
39.8193
40.0473
40.24
40.2728
40.5593
39.9006
41.9697
42.2089
41.4235
43.6207
43.0279
42.4346
42.4535
44.0441
42.7657
9.15555
13.2648
15.2349
16.9512
18.544
20.0642
21.5251
22.9291
24.2838
25.6091
26.9362
28.3062
29.7687
31.3803
33.1881
35.1777
37.1677
38.839
39.8869
40.6075
41.0838
41.5749
41.0472
42.3151
42.3477
41.5924
42.9641
42.6581
41.603
42.3402
42.9677
41.7853
9.58999
13.7412
15.7625
17.546
19.2025
20.7658
22.2372
23.6131
24.9001
26.1178
27.2947
28.4646
29.6662
30.9468
32.3605
33.9484
35.6798
37.4053
38.8509
40.0005
40.7967
41.3702
41.1149
41.7091
41.5058
40.7325
41.4705
41.1483
40.0664
40.9475
41.2237
40.177
10.2274
14.4509
16.5473
18.4186
20.1549
21.7745
23.2715
24.6412
25.8921
27.0447
28.1253
29.1609
30.1787
31.2118
32.303
33.4998
34.83
36.2639
37.6536
38.8991
39.8271
40.4354
40.3426
40.5202
40.115
39.3638
39.6283
39.2384
38.3748
39.1734
39.4041
38.6279
11.0144
15.3379
17.5221
19.4879
21.3056
22.9829
24.5108
25.8871
27.1246
28.2461
29.2766
30.2375
31.1459
32.021
32.8904
33.7906
34.7592
35.8136
36.9048
37.9565
38.7917
39.3293
39.3028
39.2363
38.7203
38.0233
37.95
37.5411
36.993
37.6883
38.0099
37.5534
11.8603
16.353
18.6335
20.6936
22.5892
24.3212
25.8812
27.272
28.5116
29.6262
30.6397
31.5695
32.4253
33.2158
33.955
34.6646
35.3731
36.1064
36.86
37.5986
38.1991
38.5675
38.513
38.2908
37.726
37.0744
36.7991
36.4277
36.1815
36.8228
37.2736
37.1158
12.8488
17.464
19.839
21.9904
23.9592
25.7426
27.3351
28.7456
29.9981
31.1217
32.1398
33.0664
33.9066
34.6622
35.3381
35.9435
36.4937
37.0062
37.4897
37.9328
38.2662
38.4196
38.2662
37.9207
37.3249
36.6951
36.3177
36.014
36.0093
36.6391
37.2118
37.2991
13.5755
14.0004
14.4903
14.8847
15.2657
15.5692
15.8334
16.0384
16.2029
16.319
16.3978
16.4376
16.4426
16.414
16.3559
16.2709
16.1612
16.0323
15.8954
15.7821
15.7882
15.9065
16.0457
16.1765
16.2879
16.3745
16.4342
16.4644
16.4608
16.4222
16.3446
16.2295
16.0657
15.8611
15.597
15.2935
14.9122
14.5169
14.0261
13.5993
18.3126
18.7539
19.2639
19.6765
20.0756
20.4005
20.6874
20.9172
21.1075
21.2512
21.3579
21.4267
21.4601
21.4582
21.4235
21.3576
21.2619
21.1402
21.0034
20.8853
20.893
21.0175
21.1573
21.2812
21.3789
21.4465
21.4831
21.4865
21.4544
21.387
21.2812
21.1382
20.9483
20.7187
20.4316
20.1063
19.7064
19.2925
18.7814
18.3377
20.7618
21.2288
21.7688
22.207
22.6345
22.9898
23.3112
23.5783
23.809
23.9961
24.1477
24.263
24.3437
24.3883
24.3972
24.3711
24.3103
24.2175
24.1023
23.9972
24.0051
24.1172
24.2359
24.3313
24.3944
24.4227
24.4158
24.373
24.2938
24.1799
24.0293
23.843
23.6126
23.3455
23.0237
22.6677
22.2392
21.7995
21.2581
20.7887
22.971
23.4572
24.0199
24.4776
24.9294
25.3118
25.6651
25.9677
26.2375
26.4675
26.6636
26.825
26.9527
27.0441
27.0979
27.1133
27.0899
27.0296
26.9423
26.8595
26.8665
26.957
27.0486
27.1119
27.1381
27.1253
27.0739
26.9845
26.8585
26.6988
26.5036
26.2744
26.0049
25.7022
25.3482
24.9649
24.5119
24.0524
23.488
22.999
24.9785
25.4687
26.0388
26.5025
26.9658
27.3632
27.7364
28.0634
28.3611
28.6236
28.8558
29.055
29.2214
29.3515
29.4429
29.4936
29.5026
29.4716
29.4106
29.3503
29.3565
29.4248
29.4904
29.525
29.5192
29.4713
29.3826
29.2547
29.0903
28.8928
28.6618
28.4001
28.1026
27.7753
27.4013
27.0026
26.5378
26.0719
25.4997
25.0063
26.7834
27.2611
27.8244
28.282
28.7452
29.1473
29.5311
29.875
30.1953
30.4846
30.7469
30.9782
31.1775
31.3407
31.4643
31.5454
31.5822
31.5765
31.5381
31.4957
31.5012
31.5515
31.595
31.6047
31.5712
31.4932
31.3724
31.2117
31.0145
30.785
30.524
30.2354
29.9152
29.5709
29.1861
28.7824
28.3172
27.8569
27.2909
26.8096
28.3853
28.8391
29.388
29.8338
30.2923
30.6966
31.0903
31.4507
31.7921
32.1063
32.3961
32.6565
32.8856
33.0781
33.2303
33.3379
33.3988
33.4142
33.3937
33.3639
33.369
33.4066
33.4324
33.4212
33.3638
33.2593
33.1102
32.9202
32.6934
32.4347
32.1463
31.8327
31.4914
31.1304
30.7355
30.3293
29.8682
29.4191
28.8669
28.4087
29.7996
30.2255
30.7593
31.1946
31.6511
32.062
32.4675
32.8452
33.2073
33.5452
33.8605
34.1476
34.4034
34.6222
34.7992
34.9296
35.0107
35.0431
35.0358
35.0145
35.0194
35.0486
35.0611
35.033
34.9556
34.8283
34.6544
34.4382
34.1848
33.8995
33.5856
33.2482
32.8861
32.5077
32.1008
31.6876
31.2281
30.7889
30.2508
29.8198
31.0553
31.4548
31.9777
32.4076
32.8669
33.2867
33.7049
34.0996
34.4811
34.8408
35.1788
35.4894
35.7683
36.0096
36.2077
36.3572
36.4546
36.5
36.5022
36.4859
36.4908
36.5148
36.518
36.4767
36.3831
36.237
36.0421
35.8034
35.5268
35.2181
34.8814
34.5223
34.1407
33.7452
33.3253
32.9029
32.4402
32.0058
31.478
31.0725
32.1833
32.5597
33.0754
33.5044
33.9678
34.3969
34.8272
35.2373
35.6359
36.0142
36.3717
36.7021
37.0005
37.2605
37.4757
37.6403
37.7504
37.8055
37.814
37.8005
37.8054
37.8267
37.8235
37.7726
37.6663
37.5051
37.293
37.0358
36.7399
36.4114
36.0551
35.6773
35.2786
34.8674
34.4352
34.0033
33.5362
33.1024
32.5811
32.1979
33.2053
33.5602
34.0712
34.4995
34.967
35.4043
35.8451
36.2682
36.681
37.0752
37.4486
37.7952
38.1093
38.3841
38.6129
38.7893
38.909
38.9713
38.9842
38.9722
38.9772
38.9969
38.9895
38.9314
38.8155
38.6424
38.4169
38.1449
37.8332
37.4886
37.1163
36.7228
36.3097
35.8854
35.4426
35.0021
34.5306
34.0971
33.58
33.2177
34.1324
34.4648
34.9702
35.3974
35.8678
36.312
36.7615
37.1955
37.6201
38.0269
38.4135
38.773
39.0996
39.3861
39.6255
39.8112
39.9386
40.0069
40.0237
40.0137
40.0187
40.0366
40.0251
39.9613
39.8376
39.6554
39.4192
39.1355
38.8114
38.4537
38.0685
37.6622
37.2372
36.8019
36.3502
35.9026
35.4279
34.9953
34.4835
34.143
34.9663
35.2738
35.7715
36.1965
36.6689
37.119
37.5758
38.019
38.4534
38.8707
39.2678
39.6376
39.9743
40.27
40.5178
40.7112
40.8452
40.9194
40.9412
40.9347
40.9397
40.954
40.9378
40.8681
40.7379
40.5481
40.3035
40.0106
39.6765
39.3084
38.9126
38.4957
38.0609
37.6162
37.1572
36.7038
36.2267
35.7962
35.2915
34.9756
35.7056
35.984
36.4718
36.8936
37.3672
37.8223
38.2857
38.737
39.18
39.6061
40.012
40.3903
40.7349
41.038
41.2928
41.4925
41.6328
41.7133
41.7418
41.7408
41.7456
41.7545
41.7318
41.6559
41.5197
41.3236
41.0721
40.7718
40.4297
40.0531
39.6485
39.2226
38.7792
38.3264
37.8606
37.402
36.9237
36.4961
36.0013
35.7138
36.3496
36.5927
37.0666
37.484
37.9585
38.4184
38.8881
39.3472
39.7981
40.2323
40.6458
41.0313
41.3825
41.6919
41.9524
42.1581
42.3046
42.3921
42.4287
42.4346
42.4393
42.4414
42.4107
42.328
42.1856
41.9838
41.7265
41.42
41.0712
40.6875
40.2751
39.8412
39.3897
38.9291
38.4568
37.9933
37.514
37.0909
36.6095
36.3573
36.899
37.0959
37.5513
37.9624
38.4369
38.902
39.3783
39.8453
40.304
40.7459
41.1665
41.5586
41.9157
42.2306
42.4965
42.7077
42.8606
42.9558
43.0011
43.0141
43.0186
43.0136
42.9745
42.8843
42.7358
42.5284
42.2659
41.9539
41.5992
41.2088
40.7892
40.3475
39.8879
39.4193
38.9404
38.4717
37.9923
37.5754
37.1124
36.9063
37.3574
37.4907
37.9197
38.3214
38.7951
39.2652
39.7484
40.2237
40.6907
41.1405
41.5682
41.9667
42.3294
42.6495
42.9205
43.1372
43.2964
43.3994
43.4532
43.4728
43.4772
43.4656
43.4182
43.3206
43.1659
42.9532
42.6857
42.3684
42.008
41.6111
41.1843
40.7344
40.2665
39.7893
39.3033
38.8295
38.3509
37.9434
37.5072
37.3652
37.7302
37.7735
38.1615
38.5512
39.0218
39.4969
39.9874
40.4717
40.9475
41.4056
41.8408
42.2458
42.6143
42.9396
43.2156
43.4377
43.6032
43.7134
43.775
43.8002
43.8046
43.7873
43.7324
43.6278
43.467
43.249
42.9764
42.654
42.2877
41.8841
41.4496
40.9911
40.5141
40.0276
39.5342
39.0551
38.5795
38.1844
37.7899
37.7393
38.0246
37.9453
38.2704
38.6386
39.1043
39.5834
40.0813
40.5749
41.06
41.5272
41.9703
42.3823
42.7569
43.0877
43.3689
43.5964
43.7678
43.8847
43.953
43.9829
43.9873
43.9655
43.9041
43.7929
43.6264
43.4031
43.1253
42.7973
42.4246
42.0137
41.5709
41.1031
40.6163
40.1201
39.6186
39.135
38.664
38.2907
37.9604
38.0344
38.239
38.0067
38.2434
38.5751
39.0295
39.511
40.0153
40.5182
41.0131
41.4895
41.9412
42.3607
42.7419
43.0784
43.3651
43.5979
43.7751
43.898
43.972
44.0057
44.01
43.9846
43.9177
43.8007
43.6286
43.4
43.1166
42.7827
42.4033
41.9845
41.5326
41.0549
40.5577
40.0513
39.5423
39.0547
38.5939
38.2569
38.0166
38.248
38.3553
37.9507
38.0765
38.3545
38.7876
39.269
39.778
40.2894
40.7934
41.2794
41.7397
42.1671
42.5551
42.8977
43.19
43.4281
43.6105
43.7386
43.8172
43.854
43.8585
43.8301
43.7587
43.6368
43.4595
43.2256
42.9366
42.5964
42.2097
41.7827
41.3217
40.8339
40.3266
39.8103
39.295
38.8052
38.363
38.0767
37.9446
38.3471
38.3358
37.7629
37.7695
37.9802
38.3806
38.8549
39.3677
39.886
40.3982
40.8924
41.3608
41.7954
42.1899
42.5383
42.8356
43.0783
43.2652
43.3975
43.4797
43.5188
43.5234
43.493
43.4183
43.2923
43.1106
42.8719
42.5776
42.2313
41.8379
41.4031
40.9333
40.4361
39.919
39.3939
38.8712
38.3849
37.9707
37.7452
37.7263
38.2917
38.1577
37.4233
37.3146
37.4569
37.8211
38.2836
38.7978
39.3204
39.8388
40.3395
40.8141
41.2545
41.654
42.0068
42.308
42.5542
42.7441
42.8791
42.9635
43.004
43.0088
42.9773
42.9006
42.7721
42.5875
42.3453
42.0471
41.6962
41.2975
40.8566
40.3802
39.876
39.3519
38.8204
38.2944
37.8169
37.4326
37.263
37.3331
38.0129
37.6475
36.8575
36.7017
36.8067
37.1471
37.5982
38.1104
38.6366
39.1576
39.6612
40.1382
40.5808
40.9822
41.3365
41.6388
41.8858
42.0761
42.2113
42.2959
42.3366
42.3417
42.3103
42.2337
42.105
41.9198
41.6767
41.377
41.0241
40.6227
40.1789
39.6991
39.1909
38.6632
38.1273
37.6036
37.1393
36.7841
36.662
36.7985
37.5639
36.9361
36.1582
36.0033
36.0981
36.4276
36.8701
37.3784
37.9037
38.423
38.9249
39.4
39.8407
40.2399
40.5918
40.8915
41.1357
41.3232
41.4554
41.5373
41.5768
41.5823
41.5532
41.4797
41.3544
41.1723
40.932
40.6347
40.284
39.8846
39.4423
38.964
38.4572
37.9312
37.3969
36.8792
36.4278
36.0921
35.9956
36.156
36.9458
36.3006
35.5225
35.3659
35.4527
35.7727
36.2057
36.7059
37.2249
37.7379
38.2337
38.7027
39.1369
39.5296
39.8749
40.1679
40.4051
40.5855
40.7106
40.7864
40.8224
40.8288
40.8046
40.7384
40.6207
40.4462
40.2132
39.9231
39.5793
39.1866
38.7508
38.2789
37.7786
37.2593
36.7324
36.2245
35.7858
35.4635
35.3796
35.543
36.3299
35.9161
35.1352
34.9719
35.0425
35.3439
35.7569
36.2378
36.7389
37.237
37.7192
38.1754
38.5975
38.9784
39.3122
39.5938
39.8198
39.9887
40.1023
40.1678
40.1977
40.206
40.1909
40.1372
40.0327
39.871
39.6506
39.3729
39.0416
38.6612
38.2378
37.7782
37.2899
36.7831
36.2694
35.7743
35.347
35.0332
34.9547
35.119
35.9142
35.6952
34.9863
34.8609
34.9413
35.2366
35.6331
36.0922
36.5694
37.0458
37.5074
37.9442
38.3476
38.7107
39.0274
39.2925
39.5023
39.6552
39.7526
39.8023
39.8216
39.8318
39.8299
39.7932
39.7058
39.5609
39.3573
39.0967
38.7828
38.4204
38.0153
37.5745
37.1056
36.6183
36.1254
35.6478
35.2312
34.9174
34.8232
34.9494
35.6847
36.0856
35.3429
35.1924
35.2424
35.5061
35.8677
36.291
36.7352
37.1834
37.6195
38.033
38.4148
38.7576
39.0552
39.3026
39.4954
39.6318
39.7126
39.7454
39.7523
39.767
39.7838
39.7678
39.7006
39.576
39.3934
39.155
38.8649
38.5279
38.15
37.738
37.3002
36.8462
36.3902
35.9466
35.5558
35.2513
35.1441
35.2164
35.8517
36.4186
35.7572
35.6579
35.7358
36.0062
36.3597
36.7652
37.1889
37.6144
38.0271
38.4171
38.7757
39.0962
39.3728
39.6002
39.7748
39.8938
39.9577
39.9732
39.9648
39.9806
40.0119
40.0113
39.9595
39.8508
39.6854
39.4658
39.196
38.8809
38.5265
38.1394
37.7283
37.3029
36.878
36.4696
36.1121
35.8354
35.7494
35.8351
36.4792
37.1145
36.4806
36.3908
36.4539
36.6996
37.02
37.3936
37.7867
38.1836
38.5693
38.9338
39.2689
39.5677
39.8245
40.0342
40.1931
40.2983
40.3501
40.3547
40.3375
40.3562
40.3986
40.4104
40.3719
40.2781
40.1295
39.9287
39.6796
39.387
39.0567
38.6953
38.311
37.9135
37.5173
37.1376
36.8074
36.5486
36.468
36.5354
37.1382
37.6513
37.0214
36.9272
36.9759
37.203
37.5029
37.8574
38.2321
38.6117
38.9811
39.3305
39.6516
39.9376
40.1829
40.3826
40.5328
40.6309
40.6769
40.6772
40.6582
40.6807
40.7304
40.7504
40.7213
40.6384
40.5022
40.3152
40.0812
39.8049
39.4917
39.1482
38.7817
38.4013
38.0201
37.6506
37.3232
37.0507
36.9339
36.9257
37.4094
43.486
51.3061
57.5346
63.6613
68.9508
73.2416
76.6798
79.4586
81.7335
83.6389
85.2943
86.7768
88.1235
89.3685
90.5428
91.6767
92.8008
93.9434
95.128
96.3719
97.6845
99.0683
100.52
102.033
103.597
105.2
106.824
108.447
110.032
111.507
112.723
113.442
42.779
50.3132
56.3415
62.3269
67.5417
71.7962
75.2151
77.9852
80.2599
82.172
83.8367
85.3234
86.662
87.8932
89.0493
90.1617
91.2622
92.3798
93.5387
94.7553
96.0391
97.3927
98.813
100.293
101.822
103.388
104.975
106.561
108.108
109.547
110.733
111.433
41.984
49.2713
55.1132
60.9599
66.1026
70.327
73.736
76.5079
78.7933
80.7209
82.3988
83.8899
85.2246
86.4451
87.5851
88.6782
89.7572
90.8513
91.9844
93.1741
94.4299
95.754
97.1433
98.5902
100.085
101.615
103.166
104.713
106.222
107.627
108.782
109.463
41.1792
48.2299
53.8836
59.5857
64.6529
68.8477
72.2491
75.0275
77.3315
79.2839
80.9819
82.4833
83.8202
85.0317
86.1585
87.2344
88.2927
89.3642
90.4741
91.6387
92.8673
94.1625
95.5211
96.9362
98.3968
99.8921
101.405
102.915
104.388
105.757
106.882
107.545
40.3084
47.1375
52.603
58.1587
63.1545
67.3314
70.7419
73.5441
75.8802
77.8641
79.585
81.0984
82.4401
83.6496
84.767
85.8285
86.8699
87.9221
89.009
90.149
91.3521
92.6201
93.9497
95.3333
96.7617
98.2221
99.7001
101.174
102.609
103.944
105.04
105.685
39.4454
46.052
51.3213
56.7224
61.644
65.8058
69.229
72.0569
74.4269
76.447
78.1974
79.7307
81.0855
82.2987
83.4104
84.4614
85.4873
86.5205
87.5883
88.707
89.8855
91.1268
92.4279
93.7816
95.1774
96.6041
98.0459
99.4839
100.884
102.185
103.252
103.879
38.5088
44.9006
49.9675
55.2066
60.0552
64.2148
67.6718
70.5485
72.9712
75.0367
76.8207
78.3769
79.7459
80.9694
82.0834
83.1283
84.1436
85.1638
86.2125
87.3095
88.4658
89.6828
90.9572
92.2812
93.647
95.0401
96.4492
97.8511
99.216
100.484
101.523
102.132
37.5799
43.7517
48.6052
53.6706
58.4421
62.6044
66.1016
69.0276
71.4997
73.613
75.438
77.0262
78.4221
79.6616
80.7842
81.8288
82.8375
83.8442
84.8792
85.9598
87.0946
88.2874
89.5354
90.832
92.1659
93.5278
94.9006
96.2677
97.5991
98.8349
99.845
100.437
36.551
42.5065
47.1343
52.0104
56.6978
60.8715
64.4318
67.4391
69.9926
72.1733
74.0497
75.6785
77.1017
78.3647
79.5022
80.5553
81.5628
82.5657
83.5874
84.6501
85.7664
86.9381
88.162
89.4305
90.7363
92.065
93.407
94.7398
96.0359
97.2397
98.2228
98.7966
35.5102
41.2406
45.6305
50.2988
54.8921
59.0842
62.7232
65.8182
68.4481
70.6987
72.6361
74.3125
75.7803
77.0736
78.2339
79.2993
80.3145
81.3142
82.3297
83.3826
84.4816
85.6318
86.8311
88.0734
89.3477
90.6462
91.9509
93.248
94.5126
95.6849
96.6393
97.1949
34.3036
39.8196
43.9588
48.3962
52.8751
57.0816
60.8166
64.0413
66.8037
69.1613
71.1808
72.928
74.4439
75.7806
76.971
78.0588
79.083
80.0895
81.1002
82.1405
83.2255
84.3579
85.5351
86.7502
87.9971
89.2616
90.5368
91.8002
93.028
94.1694
95.0977
95.635
33.0253
38.3295
42.1997
46.3739
50.7119
54.9385
58.8072
62.1907
65.0842
67.5605
69.683
71.5002
73.0844
74.4677
75.6991
76.8146
77.8631
78.8762
79.8898
80.9286
82.0015
83.1156
84.27
85.4598
86.6748
87.9089
89.1449
90.3709
91.5695
92.6791
93.5781
94.097
31.4936
36.5986
40.183
44.0612
48.2212
52.4372
56.4258
60.0102
63.1374
65.7963
68.052
70.0008
71.6709
73.1333
74.4177
75.5757
76.644
77.6766
78.6948
79.7261
80.79
81.8897
83.0244
84.1884
85.3769
86.5771
87.7847
88.9781
90.1366
91.2167
92.0894
92.5889
29.7892
34.7042
37.9796
41.4958
45.3977
49.5859
53.7934
57.6768
61.0374
63.9251
66.3876
68.4401
70.2152
71.7427
73.0923
74.2967
75.4136
76.4669
77.4994
78.5407
79.5988
80.6844
81.7983
82.9373
84.0933
85.2615
86.4267
87.579
88.71
89.7577
90.5989
91.0799
27.6189
32.3727
35.3289
38.4588
42.0846
46.1953
50.4505
54.5955
58.4235
61.659
64.337
66.6626
68.6074
70.2872
71.73
73.0114
74.162
75.2518
76.3021
77.3411
78.3963
79.4711
80.5678
81.6821
82.8114
83.9453
85.0822
86.2024
87.2916
88.3083
89.1224
89.5829
25.0052
29.6663
32.3101
34.911
37.9124
41.6871
46.441
51.2854
55.481
59.1851
62.3663
64.8502
66.9626
68.7319
70.2804
71.6287
72.8624
73.9931
75.0729
76.139
77.197
78.2633
79.3405
80.4292
81.524
82.6221
83.7118
84.7848
85.8437
86.8284
87.6084
88.0481
21.2705
25.9414
28.2252
30.3681
33.2895
37.3251
41.2226
45.8734
51.3013
55.801
59.2866
62.4196
64.9115
67.0007
68.7167
70.2149
71.5091
72.7019
73.8184
74.8871
75.9486
77.0077
78.0712
79.1355
80.2022
81.2648
82.3252
83.3635
84.384
85.3323
86.0829
86.4991
16.2499
21.4388
23.8923
25.4066
25.9319
26.399
33.2881
40.8722
46.1429
51.6739
56.72
60.0794
62.8802
65.1107
67.033
68.6215
70.0482
71.3115
72.4791
73.602
74.6799
75.7375
76.7807
77.8171
78.8449
79.8645
80.869
81.8536
82.8283
83.7486
84.4598
84.8532
5.75762
10.6643
11.4401
12.889
14.0808
10.4548
17.0905
26.3522
38.8022
46.0304
50.862
56.1361
59.8399
62.7858
65.0094
66.9153
68.4689
69.8439
71.0798
72.2095
73.2976
74.3518
75.3869
76.3974
77.3943
78.3751
79.3488
80.2878
81.2405
82.1123
82.7875
83.151
6.25311
9.16162
8.80726
9.23672
8.95884
10.3002
9.93785
20.391
17.0475
35.5599
47.3515
52.1805
56.798
60.1183
62.8761
64.9169
66.6868
68.1785
69.5007
70.7309
71.8588
72.9219
73.931
74.9088
75.8565
76.7812
77.6788
78.5595
79.4291
80.2802
80.9077
81.2468
11.7843
16.3817
17.5985
16.8717
14.8921
12.4888
9.62466
6.74082
5.17918
19.8313
30.8145
45.4121
51.5513
56.5166
59.7953
62.5602
64.6187
66.3417
67.7979
69.0405
70.1873
71.2509
72.262
73.2084
74.1198
74.9989
75.8725
76.6734
77.556
78.3386
78.9218
79.2156
19.962
24.3834
26.2768
27.1358
26.707
24.8387
21.7072
18.3604
17.604
18.6112
20.8357
27.8343
44.9298
51.7095
56.6973
59.7138
62.1996
64.1172
65.7223
67.161
68.3918
69.4821
70.4544
71.3565
72.1964
72.9915
73.7303
74.4832
75.2169
75.988
76.4956
76.7608
21.9481
26.912
29.5798
31.5019
32.5549
32.5401
31.1001
27.7348
22.5706
23.5917
26.9922
27.5643
31.3623
45.0536
51.013
55.9036
59.0147
61.4885
63.4007
64.8518
66.117
67.2155
68.2027
69.0599
69.8515
70.5914
71.3508
71.918
72.7182
73.397
73.857
74.0576
22.739
27.8061
30.6996
33.0018
34.6618
35.6436
35.8847
35.2024
33.0789
28.8508
25.4364
29.1577
29.2911
34.6171
45.761
50.9334
55.274
58.0708
60.2265
62.1253
63.5783
64.7332
65.6612
66.4428
67.1107
67.6924
68.1409
68.7256
69.2788
69.9499
70.246
70.3738
22.2079
27.4191
30.4816
33.0245
34.9998
36.3867
37.1758
37.355
36.8287
35.0275
30.7094
24.5685
27.0551
15.7919
32.4023
43.9344
49.196
53.6489
56.6688
58.4768
59.9698
61.1579
62.1001
62.7977
63.383
63.917
64.5644
64.6531
65.32
65.9233
66.1547
66.2481
20.8029
26.1477
29.3085
31.9963
34.1771
35.8431
37.0064
37.6933
37.9258
37.6448
36.3805
32.5067
27.1998
23.505
34.4627
31.9225
42.8763
47.4588
50.6824
53.8334
55.8587
57.1267
57.9875
58.509
58.8331
58.9537
58.7165
59.0423
59.402
59.9811
59.7439
59.4799
18.8815
24.3211
27.5143
30.2616
32.5502
34.3895
35.8028
36.8407
37.5749
38.0619
38.237
37.5483
34.0279
24.8211
29.1392
9.17118
26.8461
39.3762
45.6638
47.2288
48.9178
50.4255
51.0312
51.4089
51.4388
51.7394
52.4952
51.4518
51.4832
52.9834
51.9441
52.3113
16.6689
22.0933
25.2166
27.9166
30.209
32.128
33.7128
35.0167
36.1198
37.1036
37.9925
38.6205
38.279
35.3824
28.9763
15.1762
27.0806
20.6276
28.4544
37.2348
42.1023
42.9832
43.973
43.2181
43.0737
41.9515
39.7445
39.291
39.616
40.2478
38.751
36.3861
14.4216
19.6928
22.6421
25.1916
27.3908
29.2971
30.9669
32.4616
33.8559
35.2298
36.618
37.9388
38.9002
38.8262
35.6602
27.5233
21.8895
24.6226
24.4818
24.263
21.1521
27.3224
22.8065
26.5321
16.7161
17.49
18.5905
20.1145
14.1527
44.6224
36.1211
13.4727
12.4353
17.4291
20.1266
22.4511
24.4854
26.3062
27.9814
29.5763
31.1564
32.7887
34.5197
36.3101
37.9709
39.1025
38.8636
35.9711
28.0498
28.1368
32.0278
4.74917
20.1842
32.8828
15.0491
35.9616
28.0146
21.6318
23.7452
28.6871
11.4866
47.2337
17.9554
26.4127
10.897
15.5413
17.9689
20.0489
21.8936
23.5937
25.2219
26.8389
28.497
30.244
32.1256
34.1511
36.2383
38.1226
39.3047
39.2398
36.1379
29.5858
30.1006
21.3055
23.8466
33.2849
24.1517
32.1943
28.7935
33.5243
26.633
39.1243
29.5043
39.4487
32.059
32.3736
9.75937
14.1586
16.3569
18.2309
19.9159
21.5068
23.0708
24.6554
26.2973
28.0308
29.8958
31.9298
34.1361
36.4053
38.4162
39.6944
39.5003
37.1441
32.7294
31.42
28.1518
28.5122
31.4075
33.154
36.2061
36.7577
38.4538
35.2787
39.9837
37.5914
41.4194
41.9041
9.15114
13.3587
15.3955
17.136
18.7246
20.2475
21.7558
23.2787
24.8379
26.4596
28.1812
30.0532
32.1238
34.395
36.7343
38.7983
40.0023
39.9442
38.7131
38.1566
37.7817
36.5868
39.3703
41.1316
42.4963
42.6846
43.2902
40.3246
43.2814
43.1428
44.2821
44.6281
8.9706
13.0893
15.0548
16.7472
18.3094
19.812
21.286
22.744
24.1973
25.6676
27.1907
28.8163
30.6045
32.6102
34.8344
37.1323
39.1117
40.2902
40.6105
40.6692
40.7722
40.1248
41.8865
42.9763
43.5055
43.6047
43.8972
41.6508
43.3144
43.8549
44.1922
44.6748
9.14489
13.2537
15.2219
16.9357
18.5266
20.0466
21.5092
22.9163
24.275
25.6048
26.9376
28.316
29.7934
31.433
33.2917
35.3649
37.4862
39.2942
40.5183
41.1215
41.4711
41.127
42.3862
43.0052
43.1295
43.1393
43.1638
41.3514
42.5132
43.0294