/*--------------------------------*- C++ -*----------------------------------*\
  =========                 |
  \\      /  F ield         | OpenFOAM: The Open Source CFD Toolbox
   \\    /   O peration     | Website:  https://openfoam.org
    \\  /    A nd           | Version:  6
     \\/     M anipulation  |
\*---------------------------------------------------------------------------*/
FoamFile
{
    version     2.0;
    format      ascii;
    class       volScalarField;
    location    "22";
    object      yPlus;
}
// * * * * * * * * * * * * * * * * * * * * * * * * * * * * * * * * * * * * * //

dimensions      [0 0 0 0 0 0 0];

internalField   uniform 0;

boundaryField
{
    inlet
    {
        type            calculated;
        value           uniform 0;
    }
    outlet
    {
        type            calculated;
        value           uniform 0;
    }
    roughCylinder
    {
        type            calculated;
        value           nonuniform List<scalar> 
5120
(
43.491
51.3126
57.5422
63.6693
68.9589
73.2494
76.6874
79.4662
81.7411
83.6466
85.3024
86.7849
88.1316
89.3764
90.5502
91.6839
92.8076
93.9498
95.134
96.3773
97.6893
99.0722
100.523
102.035
103.597
105.197
106.818
108.438
110.018
111.49
112.705
113.423
42.7905
50.3249
56.3537
62.3393
67.5539
71.808
75.2264
77.9959
80.27
82.1815
83.8455
85.3315
86.6697
87.9007
89.0567
90.1689
91.2692
92.3864
93.545
94.7612
96.0443
97.3971
98.8164
100.294
101.822
103.386
104.969
106.552
108.093
109.53
110.714
111.413
41.9895
49.2786
55.1216
60.9688
66.1114
70.3356
73.7442
76.5158
78.8011
80.729
82.4073
83.899
85.2337
86.454
87.5936
88.6864
89.7648
90.8586
91.9911
93.1802
94.4353
95.7585
97.1467
98.5921
100.085
101.613
103.16
104.704
106.207
107.608
108.762
109.443
41.1942
48.2453
53.8995
59.6017
64.6685
68.8626
72.2633
75.0411
77.3445
79.2962
80.9932
82.4933
83.8292
85.0402
86.1668
87.2424
88.3005
89.3717
90.4812
91.6454
92.8733
94.1677
95.5252
96.9385
98.3973
99.8898
101.399
102.906
104.372
105.738
106.862
107.524
40.3147
47.146
52.6127
58.169
63.1646
67.3412
70.7512
73.553
75.8886
77.8725
79.5939
81.108
82.4503
83.6597
84.7768
85.8379
86.8787
87.9303
89.0166
90.1561
91.3583
92.6254
93.9537
95.3361
96.7626
98.2198
99.6938
101.164
102.593
103.925
105.02
105.663
39.4656
46.0727
51.3428
56.7439
61.6648
65.8255
69.2475
72.0744
74.4439
76.4634
78.2126
79.744
81.097
82.3092
83.4202
84.4705
85.4963
86.5292
87.5966
88.7147
89.8927
91.1332
92.4331
93.7848
95.1788
96.6027
98.041
99.4747
100.867
102.165
103.231
103.856
38.5169
44.9113
49.9795
55.219
60.0672
64.2261
67.6827
70.559
72.9808
75.0455
76.8296
78.387
79.7569
80.9807
82.0946
83.1392
84.1538
85.1733
86.2213
87.3178
88.4731
89.689
90.9622
92.2853
93.6484
95.0388
96.4431
97.8415
99.198
100.464
101.501
102.109
37.6074
43.7801
48.6354
53.7015
58.4724
62.633
66.1277
69.0513
71.5222
73.6352
75.4589
77.0443
78.4375
79.6753
80.7966
81.8398
82.848
83.8544
84.889
85.9688
87.1032
88.2954
89.5422
90.8365
92.1682
93.5269
94.8963
96.2595
97.58
98.8122
99.823
100.413
36.5626
42.5205
47.1492
52.0249
56.7108
60.8831
64.4431
67.4508
70.0037
72.1825
74.0581
75.6888
77.1138
78.377
79.5147
80.5681
81.5749
82.5769
83.5978
84.66
85.7753
86.9458
88.1683
89.4357
90.7385
92.0646
93.4009
94.7295
96.0156
97.2167
98.2001
98.7716
35.5481
41.281
45.6746
50.3462
54.9406
59.1309
62.7649
65.8536
68.4795
70.7292
72.6659
74.3373
75.8007
77.0921
78.2506
79.3134
80.3276
81.3267
82.3416
83.3936
84.4921
85.6419
86.8399
88.0798
89.3517
90.6466
91.9478
93.2416
94.4899
95.6591
96.6158
97.1688
34.3215
39.8388
43.9769
48.4109
52.8847
57.0873
60.8228
64.0516
66.8164
69.172
71.1883
72.9391
74.4587
75.795
76.9847
78.0738
79.0975
80.1031
81.1128
82.1526
83.2367
84.3678
85.5435
86.7575
88.0011
89.2629
90.5308
91.79
93.0049
94.1437
95.0727
95.608
33.0786
38.3879
42.2669
46.4512
50.7972
55.0247
58.8834
62.25
65.1298
67.6005
69.7237
71.5337
73.1092
74.4909
75.7215
76.8332
77.8798
78.8919
79.9048
80.9425
82.0148
83.1284
84.2816
85.469
86.6816
87.9119
89.1437
90.3666
91.5427
92.6489
93.5527
94.0685
31.5209
36.6248
40.2035
44.0694
48.2125
52.4163
56.4103
60.0124
63.1538
65.8171
68.0654
70.0158
71.6937
73.1542
74.4349
75.5937
76.6617
77.6935
78.7104
79.7414
80.8045
81.9031
83.0361
84.1987
85.3835
86.5804
87.7795
88.9684
90.1094
91.1873
92.0615
92.5595
29.864
34.7881
38.0827
41.6292
45.5663
49.7738
53.9535
57.7834
61.103
63.9666
66.4291
68.4798
70.241
71.7668
73.1188
74.3203
75.4349
76.4866
77.5187
78.5586
79.6161
80.701
81.8138
82.9503
84.1035
85.2671
86.4271
87.5773
88.6778
89.72
90.571
91.0481
27.6567
32.4052
35.3444
38.4318
41.9854
46.034
50.337
54.5774
58.4575
61.7199
64.3921
66.7003
68.6503
70.3252
71.7588
73.0359
74.1846
75.2733
76.3216
77.3609
78.4154
79.4899
80.5846
81.6969
82.8219
83.9519
85.0797
86.1964
87.2558
88.2738
89.0919
89.5492
25.0882
29.7641
32.4504
35.1544
38.3513
42.3267
46.92
51.488
55.5616
59.2001
62.3553
64.8686
66.9784
68.7496
70.3027
71.6554
72.8892
74.0183
75.0983
76.1625
77.2199
78.2848
79.3611
80.4477
81.5391
82.6316
83.7137
84.7851
85.8047
86.7806
87.5773
88.0117
21.2663
25.9517
28.1941
30.1545
32.5941
35.9711
40.3627
45.8065
51.4142
55.9627
59.5078
62.5547
65.0065
67.073
68.7767
70.2552
71.5396
72.7298
73.8431
74.913
75.9747
77.0348
78.0955
79.1571
80.2186
81.2764
82.3284
83.3688
84.3324
85.2888
86.049
86.4608
15.8794
21.0415
23.6887
25.5395
27.1365
30.2321
35.817
41.1834
46.15
51.6567
56.4675
59.9674
62.8584
65.1161
67.0319
68.6432
70.0811
71.3439
72.5127
73.6332
74.7104
75.7657
76.809
77.8438
78.8676
79.8798
80.8723
81.853
82.7815
83.6881
84.4244
84.811
6.78797
11.3696
12.1143
12.0638
11.8956
11.6789
13.7334
25.5815
38.9817
46.1293
51.703
56.6265
60.0606
62.9162
65.1399
66.992
68.5124
69.8812
71.1134
72.2446
73.3344
74.3922
75.4222
76.4292
77.4193
78.394
79.3608
80.3171
81.1603
82.0491
82.7498
83.1064
9.05358
2.65727
3.14251
6.18963
5.6581
17.8634
15.5483
23.2976
20.5736
36.4302
45.9415
51.566
56.7228
60.1231
62.8184
64.9156
66.727
68.2214
69.5438
70.7735
71.9005
72.9602
73.9719
74.9484
75.8916
76.8061
77.6888
78.5577
79.3676
80.2053
80.8706
81.1958
11.9331
16.1772
16.971
16.3288
14.4803
14.1534
7.89547
22.2669
25.6654
22.1941
33.808
47.0935
51.996
56.7529
60.0675
62.71
64.683
66.392
67.8488
69.0906
70.2408
71.3132
72.3145
73.2565
74.1583
75.0282
75.89
76.7456
77.43
78.2384
78.8722
79.1594
20.164
24.6565
26.5645
27.2729
26.6563
24.734
22.661
19.5433
23.6715
29.2378
31.9223
29.8942
45.5089
51.7427
56.5325
59.6718
62.2535
64.1798
65.7778
67.2209
68.4531
69.5387
70.5164
71.4184
72.2537
73.0351
73.7731
74.4921
75.1098
75.8849
76.4711
76.7037
22.169
27.1588
29.8643
31.8453
32.9753
33.0423
31.713
29.0427
24.8208
23.6572
27.5539
22.5237
30.6504
45.834
51.5126
56.1403
59.1042
61.5523
63.4801
64.9274
66.1981
67.3154
68.2864
69.1373
69.9142
70.6358
71.3477
72.065
72.5272
73.2438
73.7747
73.9727
22.9337
28.0202
30.9408
33.2795
34.9903
36.046
36.38
35.759
33.5675
28.8586
26.6637
30.3568
28.9736
33.0229
45.7793
51.0384
55.3935
58.1809
60.3191
62.221
63.6785
64.8301
65.7619
66.5465
67.2119
67.7771
68.3038
68.7961
69.0167
69.7477
70.2776
70.3332
22.3487
27.5788
30.6658
33.2411
35.2565
36.691
37.5294
37.7322
37.1128
34.9558
29.8188
32.6703
30.307
24.5368
30.6529
43.6802
49.2702
53.6935
56.7532
58.5823
60.0994
61.3286
62.2493
62.9341
63.4985
63.9912
64.4411
64.9282
65.0564
65.7274
65.9877
66.1154
20.9145
26.2758
29.4569
32.1704
34.3828
36.086
37.2907
38.0148
38.2508
37.8526
36.1142
31.8655
24.8179
24.3784
23.3124
33.6387
43.4913
47.7154
51.012
54.0667
56.0467
57.3291
58.162
58.6984
59.0328
59.1492
59.3392
59.4267
58.5487
59.3109
60.0012
59.6112
18.9679
24.423
27.6333
30.4006
32.7115
34.5761
36.0161
37.0773
37.8189
38.2698
38.299
37.2429
33.6927
25.7952
29.0656
14.4423
27.2052
38.7193
44.9124
47.154
49.0953
50.6812
51.3722
51.5816
51.6715
51.8759
51.7885
51.5779
51.4656
53.0401
51.4964
52.675
16.7326
22.1726
25.3121
28.0302
30.3431
32.2856
33.8972
35.2285
36.3521
37.333
38.1668
38.6561
38.148
34.1521
28.5985
17.7461
33.0005
23.448
31.0439
38.573
42.4277
43.6413
44.0316
43.9904
43.5808
42.6616
41.8976
41.7782
37.2369
36.9497
39.726
36.3959
14.4697
19.7543
22.7173
25.283
27.5014
29.4315
31.1306
32.6592
34.088
35.4893
36.8874
38.186
39.0761
38.6997
35.3274
26.9863
28.3311
13.971
32.259
24.1944
21.3807
26.1022
25.8988
19.7091
17.9714
20.6422
33.3803
4.26568
5.22962
29.117
7.49529
36.6696
12.4704
17.4755
20.1843
22.5225
24.5742
26.4177
28.122
29.7521
31.3715
33.0417
34.8037
36.614
38.281
39.3667
39.1364
35.8645
33.0322
19.7282
27.015
32.4899
17.0014
30.7415
31.2986
12.1506
31.8436
23.3296
43.5547
14.5384
26.0081
35.5628
12.9171
39.5217
10.9261
15.5803
18.0171
20.1086
21.968
23.6873
25.3398
26.9859
28.6774
30.4605
32.378
34.4358
36.5444
38.4321
39.6237
39.4362
36.4426
31.2785
29.2407
29.6577
22.2257
29.7944
24.4748
23.0296
27.2063
34.1785
40.1813
27.347
39.2425
29.369
37.5874
29.9755
9.78868
14.1967
16.403
18.2871
19.9845
21.5904
23.1717
24.7755
26.4383
28.1945
30.0831
32.1398
34.3621
36.6297
38.6219
39.8145
39.5289
38.5523
34.3208
31.1275
28.6874
25.9682
35.3139
34.362
35.4202
34.5236
36.4421
39.2008
36.6485
37.9694
40.8662
40.1061
9.18512
13.4016
15.4464
17.1964
18.7956
20.3296
21.8486
23.3819
24.9514
26.5842
28.3174
30.1991
32.2739
34.5363
36.8475
38.8527
40.0396
40.5632
39.1492
38.7815
38.1527
37.563
38.228
41.2821
41.9487
40.3466
41.4452
43.1552
40.3608
42.4784
42.9953
44.0661
9.00989
13.138
15.1116
16.8129
18.3837
19.8935
21.3727
22.8345
24.2911
25.765
27.2918
28.9202
30.7078
32.7053
34.9103
37.1791
39.1745
40.6293
40.8888
41.2523
41.2152
41.2107
41.4509
42.9326
43.0863
42.0144
42.1538
43.3733
41.3687
42.9224
42.8714
44.4014
9.18871
13.3072
15.283
17.0045
18.6014
20.1247
21.5882
22.9948
24.3527
25.6823
27.0159
28.3952
29.8726
31.5099
33.3635
35.4351
37.5932
39.5731
40.8451
41.7395
42.0647
42.1851
42.2417
42.9005
42.8428
42.088
41.6262
42.5491
41.1601
42.0347
41.9629
43.3608
9.62378
13.7843
15.8108
17.5982
19.2573
20.8221
22.2946
23.672
24.9617
26.1836
27.3671
28.5467
29.7632
31.0677
32.5228
34.1843
36.0552
38.0167
39.7143
41.0105
41.6851
41.958
42.0047
42.0977
41.7695
41.1094
40.4367
40.9425
39.9345
40.3529
40.4636
41.5833
10.2589
14.491
16.5914
18.4649
20.2018
21.8211
23.3176
24.6876
25.94
27.0959
28.1819
29.2259
30.2563
31.3089
32.4321
33.6838
35.1119
36.7057
38.2955
39.6653
40.5348
40.9362
41.001
40.8005
40.2686
39.5955
38.8995
39.0383
38.3577
38.5779
38.8514
39.7668
11.0404
15.3713
17.558
19.5242
21.3408
23.0163
24.5425
25.918
27.1558
28.2793
29.3138
30.281
31.1987
32.0879
32.9795
33.9161
34.9454
36.0949
37.3118
38.4534
39.2812
39.7052
39.7681
39.4523
38.8262
38.1359
37.4867
37.3751
37.0153
37.2055
37.6169
38.3998
11.879
16.3767
18.6581
20.7171
22.6103
24.3396
25.8971
27.2862
28.5253
29.6408
30.6569
31.591
32.453
33.2529
34.0062
34.7382
35.4818
36.2674
37.0903
37.884
38.4987
38.8199
38.8263
38.4622
37.8126
37.1206
36.5263
36.3012
36.2095
36.4664
36.9947
37.7021
12.8562
17.4754
19.8502
21.9996
23.9654
25.7455
27.335
28.7434
29.9948
31.1185
32.138
33.0675
33.9114
34.673
35.3573
35.9761
36.5456
37.086
37.6057
38.0805
38.4327
38.5758
38.4701
38.0562
37.4008
36.7144
36.1691
35.9242
36.0311
36.3886
37.0143
37.6822
13.5696
13.9849
14.4673
14.856
15.2332
15.534
15.7968
16.0009
16.1651
16.2811
16.3601
16.4003
16.4057
16.3774
16.3196
16.235
16.1255
15.9966
15.8592
15.7433
15.7418
15.8569
15.9946
16.1243
16.2348
16.3207
16.3798
16.4096
16.4059
16.3675
16.2904
16.1765
16.0145
15.8127
15.5524
15.2542
14.8793
14.4923
14.0108
13.5948
18.3093
18.7399
19.2415
19.6476
20.0424
20.364
20.6491
20.8777
21.0674
21.2108
21.3176
21.3865
21.4202
21.4186
21.384
21.3184
21.2228
21.1011
20.9636
20.8424
20.841
20.9618
21.1
21.2228
21.3198
21.3869
21.423
21.4263
21.3944
21.3274
21.2226
21.0812
20.8936
20.6674
20.3846
20.0654
19.6727
19.2681
18.7673
18.3359
20.7573
21.213
21.7445
22.1759
22.5989
22.9508
23.2701
23.5358
23.7657
23.9523
24.1037
24.2189
24.2997
24.3444
24.3534
24.3274
24.2666
24.1736
24.0576
23.9492
23.9481
24.0564
24.1735
24.2679
24.3303
24.358
24.3508
24.3079
24.2291
24.1158
23.9664
23.7818
23.554
23.2906
22.9735
22.6238
22.2029
21.7729
21.2424
20.7859
22.9634
23.4384
23.9927
24.4436
24.8907
25.2697
25.6208
25.9219
26.1907
26.42
26.6158
26.7769
26.9045
26.9959
27.0496
27.0649
27.0413
26.9808
26.8922
26.806
26.8052
26.8918
26.9817
27.044
27.0694
27.0561
27.0043
26.915
26.7894
26.6303
26.4365
26.2092
25.9423
25.6434
25.2943
24.9173
24.4721
24.0225
23.4693
22.9938
24.967
25.4462
26.0081
26.4653
26.924
27.3179
27.6889
28.0143
28.3109
28.5728
28.8043
29.0031
29.1692
29.2992
29.3905
29.441
29.4497
29.4183
29.3558
29.292
29.2918
29.3561
29.42
29.4534
29.4468
29.3985
29.3093
29.1815
29.0175
28.8207
28.591
28.3312
28.0365
27.7129
27.3437
26.9515
26.4943
26.0383
25.4773
24.9977
26.7676
27.2348
27.7902
28.2415
28.7002
29.099
29.4806
29.8229
30.142
30.4305
30.6921
30.9229
31.122
31.2849
31.4083
31.4891
31.5257
31.5193
31.4794
31.4336
31.4335
31.4801
31.5218
31.5302
31.4961
31.4174
31.2963
31.1357
30.9389
30.7102
30.4503
30.1637
29.8462
29.5055
29.1254
28.728
28.2704
27.8198
27.265
26.7974
28.3655
28.809
29.3503
29.79
30.2444
30.6455
31.037
31.3958
31.7359
32.0493
32.3384
32.5983
32.8269
33.0192
33.1711
33.2784
33.339
33.3536
33.3316
33.2986
33.2988
33.3328
33.3567
33.3444
33.2863
33.1814
33.032
32.8421
32.6157
32.3578
32.0706
31.759
31.4203
31.0628
30.6724
30.2721
29.8185
29.379
28.8378
28.3934
29.7762
30.192
30.7185
31.1479
31.6005
32.0083
32.4116
32.7877
33.1486
33.4856
33.8001
34.0867
34.3419
34.5605
34.7371
34.8673
34.948
34.9798
34.9711
34.9466
34.9469
34.9727
34.9834
34.9542
34.8761
34.7486
34.5744
34.3584
34.1055
33.8211
33.5085
33.1731
32.8136
32.4385
32.0362
31.6288
31.1763
30.7466
30.2195
29.8022
31.0289
31.4183
31.934
32.3583
32.8138
33.2306
33.6466
34.0399
34.42
34.7787
35.116
35.4261
35.7046
35.9456
36.1433
36.2925
36.3895
36.4344
36.4352
36.4159
36.4163
36.4371
36.4386
36.3964
36.3022
36.1557
35.9608
35.7223
35.4463
35.1384
34.8032
34.446
34.0671
33.675
33.2595
32.843
32.3873
31.962
31.4452
31.0536
32.1544
32.5206
33.0295
33.4529
33.9124
34.3387
34.7668
35.1754
35.5726
35.95
36.3068
36.6366
36.9346
37.1941
37.4091
37.5736
37.6834
37.738
37.7452
37.7288
37.7293
37.7474
37.7427
37.6909
37.5841
37.4227
37.2105
36.9537
36.6583
36.3307
35.976
35.6002
35.2042
34.7967
34.3689
33.9427
33.4827
33.058
32.5475
32.1785
33.175
33.5193
34.0233
34.446
34.9096
35.344
35.7827
36.2044
36.6159
37.009
37.3818
37.7278
38.0415
38.316
38.5446
38.7208
38.8404
38.9024
38.914
38.8992
38.8998
38.9165
38.9075
38.8486
38.7323
38.5592
38.3336
38.0621
37.751
37.4074
37.0367
36.6452
36.2349
35.8142
35.3759
34.9412
34.4769
34.0525
33.5466
33.1989
34.1018
34.4227
34.9207
35.342
35.8086
36.2499
36.6973
37.1298
37.5532
37.9591
38.3449
38.7039
39.0302
39.3164
39.5557
39.7414
39.8687
39.9366
39.9524
39.9396
39.9403
39.9552
39.9423
39.8777
39.7538
39.5715
39.3354
39.0522
38.7288
38.3722
37.9884
37.5843
37.1622
36.7304
36.2834
35.8418
35.3742
34.951
34.4507
34.1258
34.9362
35.2309
35.7208
36.1396
36.6081
37.0551
37.5098
37.9515
38.3848
38.8013
39.1977
39.5672
39.9034
40.199
40.4468
40.6401
40.7742
40.848
40.8689
40.8597
40.8606
40.8721
40.8543
40.7841
40.6536
40.4639
40.2195
39.9271
39.5937
39.2268
38.8326
38.4179
37.9858
37.5449
37.0905
36.6429
36.1734
35.7524
35.2599
34.9604
35.6779
35.9417
36.4203
36.8354
37.3049
37.7569
38.2182
38.668
39.11
39.5353
39.9406
40.3187
40.663
40.966
41.2207
41.4206
41.5609
41.6411
41.6686
41.6652
41.6662
41.6723
41.6482
41.5717
41.4353
41.2392
40.9881
40.6883
40.3471
39.9717
39.5687
39.1451
38.7045
38.2553
37.7942
37.3415
36.8708
36.4533
35.9713
35.7023
36.3263
36.5517
37.015
37.4249
37.8948
38.3515
38.8192
39.2768
39.7268
40.1603
40.5733
40.9585
41.3096
41.6189
41.8796
42.0853
42.2319
42.3193
42.3549
42.3585
42.3597
42.3592
42.3273
42.2439
42.1014
41.8996
41.6428
41.3369
40.989
40.6065
40.1958
39.7642
39.3155
38.8584
38.3909
37.9333
37.462
37.0494
36.5823
36.3507
36.884
37.059
37.5007
37.9029
38.3721
38.8338
39.3079
39.7736
40.2315
40.6729
41.0931
41.4851
41.8421
42.1571
42.4232
42.6345
42.7875
42.8824
42.9269
42.9377
42.9391
42.9318
42.8914
42.8006
42.652
42.4448
42.1828
41.8715
41.5177
41.1287
40.7108
40.2713
39.8146
39.3495
38.8751
38.4126
37.9415
37.5362
37.0899
36.9076
37.3535
37.4592
37.8709
38.2621
38.7294
39.1958
39.677
40.151
40.6173
41.0667
41.4942
41.8927
42.2555
42.5757
42.8469
43.0637
43.2231
43.3258
43.3787
43.3964
43.3981
43.3844
43.3357
43.2376
43.0828
42.8704
42.6034
42.2871
41.9277
41.5322
41.1071
40.6594
40.1943
39.7206
39.2392
38.7716
38.302
37.9074
37.4904
37.3769
37.7413
37.7497
38.1164
38.4926
38.9558
39.4268
39.915
40.3981
40.8734
41.3314
41.7664
42.1716
42.5402
42.8658
43.1421
43.3644
43.53
43.64
43.7007
43.7241
43.7262
43.7071
43.6511
43.5459
43.3852
43.1676
42.8956
42.5742
42.209
41.8069
41.3741
40.918
40.4437
39.9608
39.4719
38.9993
38.5334
38.153
37.7809
37.7653
38.0516
37.9298
38.2291
38.5817
39.0384
39.5129
40.0084
40.501
40.9858
41.4529
41.8962
42.3085
42.6833
43.0144
43.296
43.5237
43.6953
43.8119
43.8794
43.9077
43.9101
43.8866
43.8241
43.7126
43.5462
43.3234
43.0465
42.7195
42.3483
41.939
41.4982
41.0326
40.5486
40.056
39.5594
39.0827
38.6227
38.2654
37.9613
38.0788
38.2759
37.9954
38.203
38.5181
38.9635
39.4404
39.9426
40.4447
40.9394
41.4161
41.868
42.288
42.6696
43.0065
43.2935
43.5267
43.7039
43.8266
43.8998
43.932
43.9346
43.9076
43.8398
43.7226
43.5509
43.323
43.0408
42.7081
42.3303
41.9135
41.4638
40.9886
40.4944
39.9919
39.4882
39.0086
38.5596
38.24
38.0292
38.3105
38.3782
37.9315
38.0319
38.2956
38.7212
39.1991
39.7067
40.2178
40.722
41.2083
41.669
42.0968
42.4851
42.8282
43.1208
43.359
43.5415
43.6693
43.7472
43.7825
43.7854
43.7557
43.6836
43.5617
43.385
43.1521
42.8646
42.526
42.1415
41.7168
41.2584
40.7735
40.2699
39.7581
39.249
38.7682
38.3391
38.072
37.9717
38.4269
38.3083
37.7125
37.7064
37.9115
38.3099
38.7839
39.2975
39.8166
40.3297
40.8246
41.2935
41.7286
42.1234
42.4721
42.7697
43.0126
43.1995
43.3314
43.4129
43.4506
43.4537
43.4221
43.3469
43.2211
43.0403
42.803
42.5107
42.1667
41.7759
41.3441
40.8777
40.3844
39.8721
39.3529
38.8384
38.3627
37.9626
37.7569
37.7678
38.3791
37.9933
37.3045
37.2219
37.3777
37.7494
38.2158
38.7326
39.2571
39.7764
40.2777
40.7526
41.1931
41.5928
41.9457
42.2469
42.4931
42.6828
42.8173
42.9008
42.94
42.9433
42.9107
42.8337
42.7057
42.5223
42.282
41.9862
41.6382
41.2428
40.8056
40.3335
39.8343
39.3165
38.7934
38.2779
37.8135
37.4466
37.3012
37.4067
38.1397
37.532
36.7634
36.62
36.7327
37.0781
37.5324
38.0474
38.5761
39.0987
39.6033
40.0811
40.5243
40.926
41.2805
41.5829
41.8298
42.02
42.1546
42.2383
42.2776
42.2811
42.2488
42.1721
42.0442
41.8605
41.6198
41.323
40.9737
40.5765
40.1373
39.6628
39.161
38.641
38.1151
37.603
37.1527
36.8139
36.7119
36.872
37.6671
36.8926
36.1041
35.943
36.0367
36.367
36.8117
37.3223
37.8504
38.3717
38.8751
39.3512
39.7924
40.192
40.5439
40.8435
41.0874
41.2743
41.4056
41.4862
41.5238
41.5275
41.4971
41.4234
41.2988
41.1184
40.8805
40.5865
40.2396
39.8446
39.4074
38.9348
38.4347
37.9164
37.3917
36.8845
36.4448
36.1211
36.0371
36.2097
37.0112
36.2437
35.4688
35.3144
35.4032
35.7257
36.1612
36.664
37.1857
37.7007
38.1977
38.6673
39.1017
39.4943
39.8391
40.1314
40.3677
40.5468
40.6704
40.7442
40.7775
40.7812
40.7551
40.6882
40.5711
40.3979
40.1672
39.8801
39.5399
39.1514
38.7205
38.254
37.7595
37.2467
36.7271
36.226
35.7929
35.4747
35.3923
35.556
36.3413
35.7263
34.9985
34.873
34.9725
35.2942
35.7218
36.2133
36.7222
37.2248
37.7092
38.166
38.5876
38.9673
39.2991
39.5784
39.8016
39.9675
40.0778
40.1391
40.1641
40.1675
40.1489
40.093
39.9877
39.8264
39.6071
39.3316
39.0029
38.6261
38.207
37.7524
37.27
36.7694
36.2628
35.7742
35.3511
35.0371
34.9504
35.0925
35.8432
35.6375
34.928
34.8103
34.9036
35.2115
35.6196
36.0884
36.5736
37.0551
37.5196
37.9574
38.3607
38.7223
39.0366
39.2986
39.5048
39.6535
39.7462
39.7905
39.8031
39.8067
39.7999
39.7599
39.6706
39.5247
39.3208
39.0607
38.748
38.3874
37.9847
37.5468
37.0811
36.5972
36.1076
35.6328
35.2173
34.9013
34.8
34.9131
35.6243
35.9
35.2317
35.1355
35.2297
35.5252
35.9108
36.3511
36.8055
37.2587
37.6961
38.1083
38.4869
38.825
39.1167
39.3573
39.5428
39.6713
39.7435
39.7669
39.7625
39.7658
39.7744
39.7526
39.6809
39.5525
39.367
39.1264
38.8348
38.4971
38.119
37.7074
37.2708
36.8185
36.3647
35.9244
35.5377
35.2383
35.1379
35.2178
35.8639
36.4972
35.8672
35.7884
35.877
36.1532
36.5082
36.9132
37.3347
37.7565
38.1643
38.5483
38.9001
39.2131
39.4815
39.7003
39.8658
39.9756
40.0298
40.035
40.0149
40.019
40.0424
40.0362
39.9798
39.8674
39.699
39.4775
39.2064
38.8906
38.5358
38.1485
37.7364
37.3091
36.8802
36.4638
36.0941
35.7989
35.6852
35.7294
36.3115
37.1331
36.5581
36.5113
36.6069
36.8747
37.2097
37.5909
37.9868
38.3826
38.7646
39.1232
39.4508
39.7409
39.988
40.1874
40.3352
40.4292
40.4694
40.4617
40.4303
40.4337
40.4655
40.4693
40.424
40.3244
40.1711
39.9665
39.7144
39.4194
39.0869
38.7234
38.3365
37.9353
37.5333
37.1447
36.8001
36.5223
36.4155
36.4492
37.0024
37.7071
37.1318
37.0783
37.1581
37.4064
37.7193
38.0804
38.4573
38.8354
39.2006
39.5437
39.8568
40.1336
40.3685
40.557
40.6954
40.7812
40.8146
40.8016
40.7667
40.7705
40.806
40.8148
40.7757
40.6837
40.5391
40.3446
40.1037
39.821
39.5019
39.1527
38.7813
38.3969
38.0136
37.646
37.3267
37.074
36.9935
37.0526
37.6403
43.4977
51.3176
57.5462
63.6726
68.9613
73.2512
76.6884
79.4666
81.7412
83.6467
85.3025
86.7852
88.132
89.377
90.551
91.6846
92.8085
93.9509
95.1351
96.3786
97.6907
99.0738
100.525
102.037
103.599
105.2
106.821
108.442
110.022
111.493
112.705
113.422
42.7817
50.3182
56.348
62.3345
67.5502
71.8055
75.2251
77.9956
80.2704
82.1822
83.8463
85.3325
86.6706
87.9015
89.0575
90.1699
91.2702
92.3875
93.5461
94.7624
96.0457
97.3987
98.8179
100.297
101.824
103.388
104.973
106.555
108.098
109.533
110.714
111.413
41.9993
49.2863
55.1281
60.9745
66.1161
70.3391
73.7463
76.5169
78.8015
80.7291
82.4073
83.899
85.2338
86.4544
87.5943
88.6871
89.7657
90.8595
91.9923
93.1816
94.4368
95.7602
97.1486
98.594
100.087
101.616
103.163
104.708
106.212
107.612
108.762
109.442
41.1815
48.2347
53.8899
59.5931
64.6612
68.857
72.2597
75.0394
77.3439
79.2962
80.9936
82.4939
83.8301
85.0411
86.1677
87.2433
88.3015
89.3728
90.4825
91.6467
92.8748
94.1694
95.5271
96.9409
98.4001
99.8926
101.403
102.91
104.377
105.742
106.862
107.523
40.3279
47.1569
52.6228
58.1783
63.1728
67.3477
70.7555
73.5552
75.8895
77.8729
79.5942
81.1082
82.4503
83.6598
84.7772
85.8386
86.8795
87.9314
89.0179
90.1575
91.3599
92.6271
93.9557
95.3384
96.7649
98.223
99.6978
101.168
102.599
103.929
105.02
105.662
39.4481
46.057
51.3276
56.7294
61.6517
65.8146
69.2398
72.07
74.4416
76.4621
78.2117
79.7436
81.0973
82.3099
83.4212
84.4715
85.4972
86.5303
87.5979
88.7161
89.8942
91.135
92.4351
93.7876
95.1815
96.6059
98.045
99.4791
100.874
102.169
103.231
103.855
38.5332
44.9254
49.9935
55.233
60.0806
64.2377
67.691
70.5636
72.983
75.0469
76.8309
78.388
79.7576
80.9808
82.0945
83.1396
84.1548
85.1744
86.2227
87.3192
88.4748
89.6909
90.9643
92.2871
93.6506
95.0424
96.447
97.8463
99.2053
100.468
101.501
102.107
37.5847
43.7586
48.6131
53.6789
58.4504
62.6135
66.1125
69.0415
71.5162
73.6308
75.4551
77.0416
78.4359
79.6753
80.7978
81.8411
82.8489
83.8555
84.8902
85.9704
87.1048
88.2973
89.5443
90.8392
92.1713
93.53
94.9006
96.2638
97.5885
98.8181
99.8218
100.411
36.5797
42.5366
47.1664
52.0436
56.7304
60.9017
64.458
67.4604
70.0093
72.187
74.0626
75.6922
77.1164
78.3781
79.5142
80.5678
81.5758
82.5783
83.5994
84.6616
85.7771
86.9478
88.1706
89.4378
90.7408
92.0681
93.4057
94.735
96.0245
97.2222
98.1989
98.7699
35.5216
41.254
45.645
50.314
54.9072
59.0988
62.7378
65.8341
68.4659
70.7176
72.655
74.3296
75.7953
77.0896
78.2518
79.3156
80.3287
81.3277
82.3427
83.3953
84.494
85.6438
86.8421
88.0827
89.3553
90.6497
91.9526
93.2458
94.5012
95.6666
96.6133
97.1671
34.3347
39.8522
43.9933
48.4312
52.9089
57.1131
60.846
64.0683
66.8281
69.1835
71.2009
72.9478
74.4647
75.7985
76.9841
78.0721
79.0983
80.1049
81.115
82.1545
83.2388
84.3702
85.5462
86.7596
88.0033
89.2664
90.5364
91.7963
93.0167
94.1504
95.0702
95.6052
33.0492
38.3565
42.2309
46.4096
50.751
54.9771
58.8402
62.2164
65.1041
67.5763
69.6985
71.5163
73.0984
74.4844
75.7221
76.8372
77.8814
78.8928
79.9057
80.9445
82.0169
83.1305
84.2838
85.472
86.6854
87.915
89.1488
90.3709
91.5574
92.6593
93.5482
94.0656
31.5239
36.6284
40.211
44.0833
48.2342
52.4447
56.4393
60.0352
63.1718
65.8375
68.0922
70.0339
71.7035
73.1608
74.4344
75.5895
76.6618
77.6956
78.7132
79.7437
80.8069
81.906
83.0395
84.2011
85.3859
86.584
87.7851
88.9752
90.1253
91.1956
92.057
92.555
29.8298
34.752
38.0407
41.5788
45.5067
49.7078
53.8901
57.7334
61.0623
63.9264
66.3815
68.4473
70.2246
71.7566
73.1189
74.3276
75.4383
76.4881
77.5199
78.561
79.6187
80.7032
81.8158
82.9536
84.1073
85.2703
86.4331
87.5815
88.6979
89.7349
90.5636
91.0436
27.6385
32.3874
35.3297
38.423
41.9861
46.0497
50.3617
54.5907
58.4712
61.7433
64.4357
66.7294
68.6616
70.3333
71.7584
73.0283
74.183
75.2757
76.3252
77.3636
78.4182
79.4935
80.5889
81.6996
82.8244
83.9553
85.0853
86.2032
87.2785
88.2846
89.0837
89.5435
25.0416
29.7144
32.3905
35.0853
38.282
42.245
46.825
51.4345
55.514
59.1456
62.2785
64.8194
66.9593
68.7373
70.3022
71.6665
72.8963
74.0211
75.1001
76.1659
77.2235
78.2874
79.3634
80.4511
81.5428
82.6348
83.7213
84.7896
85.834
86.802
87.564
88.0047
21.2083
25.9091
28.1815
30.1523
32.5281
35.8946
40.3651
45.6972
51.347
55.9488
59.5566
62.583
65.0112
67.0817
68.7791
70.2472
71.5357
72.7325
73.848
74.9162
75.9776
77.0395
78.101
79.1601
80.2214
81.2793
82.3326
83.3746
84.3648
85.304
86.0322
86.4524
15.8929
20.9626
23.4242
25.2066
27.1373
30.3338
35.5275
41.3439
46.2317
51.6261
56.3604
59.9202
62.8478
65.1009
67.0255
68.6521
70.0925
71.3497
72.5158
73.6387
74.7162
75.769
76.812
77.8474
78.8708
79.8825
80.8823
81.8574
82.8264
83.7183
84.4002
84.7987
6.59758
11.2265
12.0607
12.2148
10.7939
9.89479
14.1221
25.3062
38.1213
45.7286
51.6532
56.5685
60.0306
62.9298
65.1601
66.9992
68.5108
69.8845
71.1207
72.2484
73.3367
74.3986
75.4293
76.4329
77.4219
78.3959
79.362
80.3204
81.2082
82.0748
82.7162
83.0948
2.8233
5.08816
4.51829
4.83225
7.4559
15.8538
11.1127
21.4578
19.5094
36.4507
45.6611
51.681
56.7809
60.1068
62.7825
64.899
66.7348
68.2308
69.5491
70.7823
71.9105
72.9641
73.9768
74.9522
75.8939
76.8065
77.7011
78.5604
79.443
80.2457
80.8194
81.1732
11.9255
16.3153
17.2656
16.5891
14.3118
18.1481
20.1697
21.4182
24.5335
17.8109
35.5456
46.4058
51.7865
56.7608
60.1566
62.7789
64.706
66.4014
67.8603
69.0961
70.2415
71.3232
72.3246
73.2613
74.1596
75.0285
75.8863
76.7433
77.5037
78.2875
78.8004
79.1479
19.8703
24.3809
26.3361
27.1835
26.7427
24.9203
23.6183
16.7188
17.8991
22.4799
2.75748
31.7287
46.1832
51.7973
56.3691
59.5542
62.2236
64.1864
65.788
67.2349
68.47
69.5433
70.5255
71.4227
72.2541
73.0279
73.7826
74.4892
75.2511
75.9372
76.3439
76.6492
22.1508
27.1199
29.8172
31.8033
32.9639
33.1129
31.9675
29.7604
25.0672
18.7771
14.1313
18.9593
29.3259
45.4982
51.8993
56.4373
59.2251
61.5925
63.4974
64.938
66.1967
67.332
68.3049
69.1444
69.9103
70.6297
71.3391
72.0485
72.6521
73.3396
73.5938
73.9784
22.839
27.9236
30.8537
33.2255
35.0067
36.1845
36.7199
36.4794
35.0166
31.0759
24.4383
25.0034
27.9681
32.2737
44.591
50.427
55.192
58.1473
60.3456
62.2443
63.7045
64.8378
65.7787
66.5532
67.2082
67.7503
68.2873
68.7765
69.3179
69.8223
69.8686
70.1838
22.2997
27.5222
30.6119
33.206
35.2669
36.7896
37.7865
38.264
38.134
36.9147
32.8816
25.5681
30.2108
30.7663
35.2162
45.4556
49.8476
53.8781
56.7643
58.6088
60.0984
61.3533
62.294
62.9544
63.4721
63.9404
64.4396
64.8713
65.3148
65.8898
65.3786
66.1766
20.8542
26.213
29.3966
32.1234
34.3668
36.1261
37.4231
38.2929
38.7551
38.7006
37.5173
33.0962
26.4892
29.1086
15.1481
29.1274
42.1523
47.4038
51.1101
54.1141
56.0656
57.358
58.1944
58.7094
59.0259
59.0875
59.1669
59.3529
59.3241
59.4409
58.2681
59.124
18.8909
24.3422
27.5502
30.3212
32.6468
34.5408
36.0304
37.1701
38.0314
38.6556
38.9128
38.1162
34.2106
29.1571
7.4926
22.169
31.264
39.5825
44.5567
47.1562
49.238
50.6246
51.5034
51.7556
51.5235
51.5932
51.8971
51.3498
52.2232
52.8437
48.9219
52.6371
16.64
22.0707
25.2017
27.9147
30.2284
32.1796
33.8096
35.1721
36.3461
37.4061
38.3612
39.0219
38.7096
35.7274
24.8943
29.889
34.9948
26.4149
32.7293
39.5672
41.7657
43.9946
44.2322
44.0653
43.6586
42.4183
40.9932
41.5437
39.2866
36.5101
29.8763
35.6349
14.3769
19.6452
22.5941
25.1475
27.3568
29.281
30.9773
32.5071
33.9436
35.3636
36.7963
38.1543
39.1405
38.9838
36.0171
28.6598
29.4056
18.6013
9.07436
15.8641
27.6639
24.6984
23.8933
22.1712
13.6548
32.0742
17.9074
34.212
21.4491
35.4115
42.573
33.5086
12.4006
17.3861
20.0788
22.4021
24.4404
26.2709
27.9618
29.5776
31.1827
32.8427
34.6031
36.4272
38.1353
39.3075
39.1485
34.7411
26.4308
23.6486
27.5606
19.7965
34.7075
17.4014
18.2742
24.3252
21.1449
41.2505
30.2547
6.6812
28.536
25.6273
46.5064
31.7315
10.8846
15.5233
17.9469
20.0257
21.8727
23.5787
25.216
26.8444
28.515
30.2753
32.171
34.2136
36.3253
38.2412
39.4552
38.8368
36.1461
29.8719
23.1123
26.8778
32.4636
24.2437
18.817
29.9049
24.879
38.41
35.8912
33.5225
37.0937
30.1717
43.578
31.0602
9.77375
14.1725
16.3705
18.2462
19.9349
21.5307
23.1004
24.6904
26.337
28.0745
29.9434
31.9835
34.2015
36.4829
38.4958
39.6151
39.6889
38.0116
34.5977
30.8852
28.6527
27.6671
31.1831
33.464
36.8806
36.0927
37.7932
38.5389
35.2857
40.2269
38.0423
39.6247
9.18576
13.3991
15.44
17.1855
18.7792
20.3067
21.8184
23.3432
24.9031
26.525
28.2474
30.1229
32.2031
34.4909
36.8473
38.8796
40.2297
40.4911
39.6721
38.1266
37.1304
37.74
39.3047
41.2535
43.0659
42.7205
42.9378
41.8948
39.985
43.8927
43.2296
43.2155
9.0165
13.1449
15.117
16.8156
18.3829
19.8886
21.3638
22.8214
24.2737
25.7435
27.2678
28.8982
30.6978
32.7254
34.9832
37.3114
39.3823
40.6961
41.0377
40.7127
40.3514
41.0566
41.9499
43.2215
43.8771
43.6654
43.4521
42.2327
41.481
43.9656
43.846
43.8404
9.19405
13.3139
15.2887
17.0078
18.6019
20.1227
21.5842
22.9896
24.3469
25.6767
27.0119
28.3966
29.8867
31.5499
33.4479
35.5752
37.7796
39.6621
40.8309
41.2762
41.2799
41.8278
42.2284
43.1076
43.3129
43.0715
42.6691
41.6804
41.4657
42.8846