/*--------------------------------*- C++ -*----------------------------------*\
  =========                 |
  \\      /  F ield         | OpenFOAM: The Open Source CFD Toolbox
   \\    /   O peration     | Website:  https://openfoam.org
    \\  /    A nd           | Version:  6
     \\/     M anipulation  |
\*---------------------------------------------------------------------------*/
FoamFile
{
    version     2.0;
    format      ascii;
    class       volScalarField;
    location    "80";
    object      k;
}
// * * * * * * * * * * * * * * * * * * * * * * * * * * * * * * * * * * * * * //

dimensions      [0 2 -2 0 0 0 0];

internalField   nonuniform List<scalar> 
720
(
0.000362091
0.000362121
0.000362102
0.000472542
0.000472578
0.000472551
0.000608971
0.000609
0.000608957
0.000761333
0.00076129
0.000761187
0.000897027
0.000896874
0.000896575
0.000897029
0.000896876
0.000896576
0.000761202
0.000761159
0.000761056
0.000608772
0.0006088
0.000608757
0.000472356
0.000472392
0.000472364
0.000361934
0.000361964
0.000361944
0.00104558
0.00104559
0.00104559
0.00107847
0.00107848
0.00107847
0.00110481
0.00110481
0.00110481
0.00112558
0.00112557
0.00112556
0.00114058
0.00114056
0.00114053
0.00114058
0.00114056
0.00114053
0.00112557
0.00112556
0.00112555
0.00110478
0.00110478
0.00110478
0.00107843
0.00107844
0.00107843
0.00104553
0.00104554
0.00104553
0.00111621
0.00111622
0.00111621
0.00115328
0.00115329
0.00115328
0.0011854
0.0011854
0.00118539
0.00121201
0.001212
0.00121198
0.00123109
0.00123107
0.00123103
0.0012311
0.00123107
0.00123103
0.00121199
0.00121198
0.00121197
0.00118536
0.00118536
0.00118535
0.00115323
0.00115324
0.00115323
0.00111615
0.00111616
0.00111615
0.00113388
0.00113389
0.00113388
0.00117078
0.00117079
0.00117078
0.00120287
0.00120287
0.00120286
0.00122953
0.00122952
0.00122951
0.00124866
0.00124864
0.0012486
0.00124866
0.00124864
0.0012486
0.00122951
0.0012295
0.00122949
0.00120283
0.00120284
0.00120282
0.00117073
0.00117074
0.00117073
0.00113382
0.00113384
0.00113382
0.00113552
0.00113554
0.00113552
0.00117227
0.00117228
0.00117227
0.00120425
0.00120426
0.00120425
0.00123085
0.00123084
0.00123082
0.00124993
0.00124991
0.00124987
0.00124993
0.00124991
0.00124987
0.00123083
0.00123082
0.0012308
0.00120422
0.00120422
0.00120421
0.00117222
0.00117223
0.00117222
0.00113546
0.00113548
0.00113547
0.00113023
0.00113024
0.00113023
0.00116687
0.00116689
0.00116687
0.00119877
0.00119878
0.00119877
0.0012253
0.00122529
0.00122527
0.00124434
0.00124431
0.00124427
0.00124434
0.00124431
0.00124427
0.00122528
0.00122527
0.00122525
0.00119873
0.00119874
0.00119873
0.00116683
0.00116684
0.00116683
0.00113017
0.00113019
0.00113017
0.00112058
0.00112059
0.00112058
0.00115712
0.00115714
0.00115712
0.00118894
0.00118895
0.00118894
0.00121541
0.0012154
0.00121538
0.00123439
0.00123437
0.00123432
0.00123439
0.00123437
0.00123433
0.00121539
0.00121538
0.00121536
0.00118891
0.00118892
0.0011889
0.00115708
0.00115709
0.00115708
0.00112052
0.00112054
0.00112052
0.00110738
0.0011074
0.00110738
0.00114382
0.00114384
0.00114382
0.00117555
0.00117556
0.00117554
0.00120193
0.00120193
0.0012019
0.00122085
0.00122083
0.00122079
0.00122085
0.00122083
0.00122079
0.00120191
0.00120191
0.00120189
0.00117551
0.00117552
0.00117551
0.00114378
0.00114379
0.00114377
0.00110733
0.00110735
0.00110733
0.00109085
0.00109087
0.00109084
0.00112714
0.00112715
0.00112713
0.00115874
0.00115875
0.00115874
0.00118503
0.00118502
0.001185
0.00120387
0.00120386
0.00120381
0.00120387
0.00120386
0.00120381
0.00118501
0.00118501
0.00118498
0.00115871
0.00115872
0.0011587
0.00112709
0.00112711
0.00112709
0.00109079
0.00109081
0.00109079
0.00107089
0.00107091
0.00107088
0.00110697
0.00110698
0.00110696
0.00113841
0.00113842
0.0011384
0.00116457
0.00116456
0.00116454
0.00118331
0.00118329
0.00118325
0.00118331
0.0011833
0.00118325
0.00116455
0.00116454
0.00116452
0.00113838
0.00113839
0.00113837
0.00110693
0.00110694
0.00110692
0.00107084
0.00107085
0.00107083
0.00104728
0.0010473
0.00104727
0.00108305
0.00108307
0.00108304
0.00111427
0.00111428
0.00111426
0.00114024
0.00114024
0.00114021
0.00115886
0.00115885
0.0011588
0.00115886
0.00115885
0.0011588
0.00114022
0.00114022
0.0011402
0.00111424
0.00111425
0.00111422
0.00108301
0.00108303
0.001083
0.00104723
0.00104724
0.00104722
0.00101968
0.0010197
0.00101967
0.00105502
0.00105503
0.00105501
0.00108591
0.00108592
0.0010859
0.00111164
0.00111164
0.00111161
0.00113009
0.00113008
0.00113003
0.00113009
0.00113008
0.00113003
0.00111162
0.00111162
0.00111159
0.00108588
0.00108589
0.00108587
0.00105498
0.001055
0.00105497
0.00101963
0.00101965
0.00101962
0.000987702
0.000987713
0.000987681
0.00102241
0.00102242
0.00102239
0.00105285
0.00105286
0.00105283
0.00107825
0.00107824
0.00107821
0.00109648
0.00109647
0.00109642
0.00109648
0.00109647
0.00109642
0.00107823
0.00107823
0.0010782
0.00105282
0.00105283
0.0010528
0.00102238
0.00102239
0.00102235
0.000987652
0.000987662
0.000987631
0.000950898
0.000950903
0.00095087
0.000984701
0.000984707
0.000984674
0.00101452
0.00101452
0.00101449
0.00103945
0.00103945
0.00103942
0.0010574
0.00105739
0.00105734
0.0010574
0.00105739
0.00105734
0.00103944
0.00103944
0.0010394
0.00101449
0.00101449
0.00101446
0.00098467
0.000984675
0.000984642
0.000950849
0.000950854
0.00095082
0.000908828
0.000908828
0.000908792
0.000941334
0.000941335
0.000941299
0.00097027
0.000970272
0.000970239
0.000994585
0.000994583
0.000994549
0.00101215
0.00101214
0.00101209
0.00101215
0.00101214
0.00101209
0.000994571
0.000994569
0.000994534
0.000970244
0.000970246
0.000970213
0.000941306
0.000941307
0.000941271
0.00090878
0.00090878
0.000908744
0.000861105
0.000861099
0.000861061
0.000891756
0.000891752
0.000891713
0.000919465
0.000919463
0.000919427
0.000942934
0.000942931
0.000942894
0.000959993
0.000959985
0.000959934
0.000959994
0.000959987
0.000959935
0.000942921
0.000942918
0.000942881
0.000919441
0.000919439
0.000919403
0.000891732
0.000891728
0.000891689
0.000861059
0.000861053
0.000861015
0.00080748
0.000807469
0.000807427
0.000835499
0.000835489
0.000835447
0.000861495
0.000861489
0.00086145
0.000883815
0.00088381
0.00088377
0.00090021
0.000900201
0.00090015
0.000900212
0.000900203
0.000900152
0.000883805
0.000883799
0.00088376
0.000861475
0.000861469
0.000861431
0.00083548
0.00083547
0.000835428
0.000807437
0.000807425
0.000807384
0.000747982
0.000747966
0.000747922
0.000772313
0.000772298
0.000772254
0.000795932
0.000795921
0.00079588
0.000816696
0.000816688
0.000816646
0.000832217
0.000832206
0.000832156
0.00083222
0.000832209
0.000832158
0.000816689
0.00081668
0.000816639
0.000795917
0.000795907
0.000795866
0.0007723
0.000772285
0.000772241
0.000747943
0.000747927
0.000747883
0.000683112
0.000683092
0.000683046
0.000702386
0.000702369
0.000702322
0.000722744
0.000722731
0.000722688
0.000741423
0.000741411
0.000741369
0.000755806
0.000755792
0.000755743
0.00075581
0.000755797
0.000755747
0.00074142
0.000741409
0.000741366
0.000722736
0.000722723
0.000722679
0.00070238
0.000702362
0.000702315
0.000683076
0.000683057
0.00068301
0.000614117
0.000614097
0.000614048
0.000626696
0.000626677
0.000626629
0.000642686
0.000642671
0.000642626
0.000658624
0.000658611
0.000658567
0.00067155
0.000671536
0.000671487
0.000671557
0.000671542
0.000671494
0.000658628
0.000658614
0.000658571
0.000642686
0.00064267
0.000642626
0.000626695
0.000626676
0.000626628
0.000614085
0.000614064
0.000614015
0.00054339
0.000543371
0.000543321
0.000547558
0.000547539
0.00054749
0.000557938
0.000557922
0.000557877
0.000570409
0.000570395
0.000570352
0.000581537
0.000581523
0.000581475
0.000581547
0.000581532
0.000581484
0.000570421
0.000570407
0.000570363
0.000557946
0.00055793
0.000557885
0.00054756
0.000547542
0.000547493
0.000543357
0.000543337
0.000543288
0.000475072
0.000475056
0.000475009
0.000469508
0.000469493
0.000469446
0.000473194
0.00047318
0.000473135
0.000481575
0.000481562
0.00048152
0.000490626
0.000490613
0.000490567
0.000490639
0.000490625
0.00049058
0.000481596
0.000481583
0.00048154
0.00047321
0.000473195
0.000473151
0.000469509
0.000469493
0.000469447
0.000475032
0.000475015
0.000474969
0.000416108
0.000416096
0.000416055
0.000400785
0.000400774
0.000400733
0.000397514
0.000397503
0.000397462
0.00040168
0.00040167
0.00040163
0.000408628
0.000408617
0.000408576
0.000408645
0.000408634
0.000408592
0.000401709
0.000401698
0.000401658
0.000397534
0.000397522
0.000397482
0.000400777
0.000400765
0.000400724
0.000416052
0.000416041
0.000416
0.000377928
0.000377921
0.000377887
0.000355566
0.000355558
0.000355524
0.000347109
0.000347102
0.000347067
0.000348152
0.000348144
0.000348108
0.000353565
0.000353557
0.000353519
0.000353584
0.000353576
0.000353538
0.000348187
0.000348179
0.000348143
0.00034713
0.000347122
0.000347087
0.000355545
0.000355538
0.000355504
0.000377857
0.00037785
0.000377816
)
;

boundaryField
{
    freeSurface
    {
        type            slip;
    }
    inlet
    {
        type            cyclic;
    }
    outlet
    {
        type            cyclic;
    }
    sidewalls
    {
        type            kqRWallFunction;
        value           nonuniform 0();
    }
    noSlipWalls
    {
        type            kqRWallFunction;
        value           nonuniform List<scalar> 
30
(
0.000362091
0.000472542
0.000608971
0.000761333
0.000897027
0.000897029
0.000761202
0.000608772
0.000472356
0.000361934
0.000362121
0.000472578
0.000609
0.00076129
0.000896874
0.000896876
0.000761159
0.0006088
0.000472392
0.000361964
0.000362102
0.000472551
0.000608957
0.000761187
0.000896575
0.000896576
0.000761056
0.000608757
0.000472364
0.000361944
)
;
    }
    procBoundary1to0
    {
        type            processor;
        value           nonuniform List<scalar> 
72
(
0.00027862
0.000278647
0.000278632
0.00100651
0.00100652
0.00100651
0.00107531
0.00107533
0.00107532
0.00109333
0.00109335
0.00109333
0.00109517
0.00109519
0.00109517
0.00109002
0.00109004
0.00109002
0.00108051
0.00108054
0.00108052
0.0010675
0.00106752
0.0010675
0.00105122
0.00105124
0.00105122
0.00103163
0.00103166
0.00103163
0.00100856
0.00100858
0.00100855
0.000981742
0.000981759
0.000981728
0.000950882
0.000950893
0.00095086
0.00091568
0.000915685
0.000915651
0.000875883
0.000875881
0.000875845
0.000831343
0.000831334
0.000831294
0.000782099
0.000782085
0.000782041
0.000728481
0.000728462
0.000728415
0.000671222
0.0006712
0.000671149
0.000611602
0.000611578
0.000611525
0.00055165
0.000551628
0.000551574
0.000494578
0.00049456
0.00049451
0.000445719
0.000445706
0.000445663
0.00041416
0.000414151
0.000414115
)
;
    }
    procBoundary1to2
    {
        type            processor;
        value           nonuniform List<scalar> 
72
(
0.000278563
0.000278589
0.000278574
0.00100648
0.00100649
0.00100648
0.00107528
0.0010753
0.00107529
0.0010933
0.00109332
0.0010933
0.00109514
0.00109516
0.00109515
0.00108999
0.00109002
0.00109
0.00108049
0.00108051
0.00108049
0.00106748
0.0010675
0.00106748
0.0010512
0.00105122
0.0010512
0.00103162
0.00103164
0.00103161
0.00100855
0.00100857
0.00100854
0.000981735
0.000981751
0.00098172
0.00095088
0.000950891
0.000950858
0.000915685
0.00091569
0.000915655
0.000875895
0.000875894
0.000875857
0.000831364
0.000831355
0.000831315
0.000782129
0.000782115
0.000782071
0.00072852
0.0007285
0.000728453
0.000671268
0.000671245
0.000671195
0.000611648
0.000611624
0.000611571
0.000551687
0.000551665
0.000551612
0.000494595
0.000494577
0.000494527
0.000445706
0.000445693
0.00044565
0.000414118
0.00041411
0.000414074
)
;
    }
}


// ************************************************************************* //
