/*--------------------------------*- C++ -*----------------------------------*\
  =========                 |
  \\      /  F ield         | OpenFOAM: The Open Source CFD Toolbox
   \\    /   O peration     | Website:  https://openfoam.org
    \\  /    A nd           | Version:  6
     \\/     M anipulation  |
\*---------------------------------------------------------------------------*/
FoamFile
{
    version     2.0;
    format      ascii;
    class       volScalarField;
    location    "80";
    object      nut;
}
// * * * * * * * * * * * * * * * * * * * * * * * * * * * * * * * * * * * * * //

dimensions      [0 2 -1 0 0 0 0];

internalField   nonuniform List<scalar> 
720
(
4.29059e-07
4.29096e-07
4.29072e-07
5.59938e-07
5.59982e-07
5.59949e-07
7.21601e-07
7.21635e-07
7.21584e-07
9.02142e-07
9.02091e-07
9.01969e-07
1.06293e-06
1.06275e-06
1.0624e-06
1.06293e-06
1.06275e-06
1.0624e-06
9.01987e-07
9.01936e-07
9.01813e-07
7.21364e-07
7.21398e-07
7.21347e-07
5.59718e-07
5.59761e-07
5.59728e-07
4.28874e-07
4.28909e-07
4.28886e-07
3.95116e-06
3.95121e-06
3.95118e-06
4.0664e-06
4.06644e-06
4.06641e-06
4.16415e-06
4.16417e-06
4.16414e-06
4.24666e-06
4.24663e-06
4.24658e-06
4.30945e-06
4.30938e-06
4.30924e-06
4.30946e-06
4.30938e-06
4.30924e-06
4.2466e-06
4.24657e-06
4.24652e-06
4.16404e-06
4.16406e-06
4.16403e-06
4.06627e-06
4.06631e-06
4.06628e-06
3.951e-06
3.95104e-06
3.95101e-06
8.71596e-06
8.71606e-06
8.716e-06
8.94257e-06
8.94264e-06
8.94258e-06
9.1454e-06
9.14544e-06
9.14537e-06
9.32029e-06
9.32022e-06
9.32009e-06
9.45001e-06
9.44983e-06
9.44953e-06
9.45002e-06
9.44984e-06
9.44954e-06
9.32019e-06
9.32012e-06
9.31999e-06
9.14522e-06
9.14525e-06
9.14518e-06
8.94236e-06
8.94244e-06
8.94238e-06
8.71573e-06
8.71583e-06
8.71577e-06
1.47683e-05
1.47685e-05
1.47684e-05
1.51071e-05
1.51072e-05
1.51071e-05
1.54102e-05
1.54102e-05
1.54101e-05
1.56719e-05
1.56718e-05
1.56716e-05
1.58659e-05
1.58655e-05
1.5865e-05
1.58659e-05
1.58656e-05
1.58651e-05
1.56718e-05
1.56717e-05
1.56715e-05
1.541e-05
1.54101e-05
1.54099e-05
1.51069e-05
1.51071e-05
1.5107e-05
1.47681e-05
1.47683e-05
1.47682e-05
2.20258e-05
2.20262e-05
2.2026e-05
2.24969e-05
2.24971e-05
2.24969e-05
2.29188e-05
2.29189e-05
2.29187e-05
2.32858e-05
2.32854e-05
2.32851e-05
2.35593e-05
2.35586e-05
2.35579e-05
2.35594e-05
2.35587e-05
2.35579e-05
2.32857e-05
2.32854e-05
2.3285e-05
2.29187e-05
2.29187e-05
2.29185e-05
2.24968e-05
2.2497e-05
2.24968e-05
2.20258e-05
2.20262e-05
2.20259e-05
3.05271e-05
3.05278e-05
3.05274e-05
3.11548e-05
3.11552e-05
3.1155e-05
3.17192e-05
3.17193e-05
3.1719e-05
3.22153e-05
3.22147e-05
3.22142e-05
3.25886e-05
3.25874e-05
3.25864e-05
3.25887e-05
3.25875e-05
3.25865e-05
3.22152e-05
3.22146e-05
3.22142e-05
3.17191e-05
3.17192e-05
3.17189e-05
3.1155e-05
3.11554e-05
3.11551e-05
3.05274e-05
3.0528e-05
3.05277e-05
4.03568e-05
4.03578e-05
4.03572e-05
4.11688e-05
4.11695e-05
4.11691e-05
4.19027e-05
4.19028e-05
4.19025e-05
4.25559e-05
4.25551e-05
4.25544e-05
4.30531e-05
4.30514e-05
4.305e-05
4.30532e-05
4.30515e-05
4.30501e-05
4.25559e-05
4.25551e-05
4.25544e-05
4.19028e-05
4.19029e-05
4.19025e-05
4.11693e-05
4.117e-05
4.11695e-05
4.03575e-05
4.03585e-05
4.03579e-05
5.16216e-05
5.16231e-05
5.16223e-05
5.26486e-05
5.26497e-05
5.26491e-05
5.35819e-05
5.35822e-05
5.35817e-05
5.44236e-05
5.44226e-05
5.44217e-05
5.50726e-05
5.50704e-05
5.50685e-05
5.50729e-05
5.50706e-05
5.50687e-05
5.44237e-05
5.44227e-05
5.44218e-05
5.35822e-05
5.35825e-05
5.3582e-05
5.26495e-05
5.26506e-05
5.265e-05
5.16229e-05
5.16244e-05
5.16236e-05
6.44388e-05
6.44409e-05
6.44398e-05
6.57133e-05
6.5715e-05
6.5714e-05
6.68777e-05
6.68783e-05
6.68777e-05
6.79421e-05
6.7941e-05
6.79398e-05
6.87746e-05
6.87719e-05
6.87694e-05
6.8775e-05
6.87723e-05
6.87698e-05
6.79424e-05
6.79413e-05
6.79401e-05
6.68784e-05
6.68789e-05
6.68783e-05
6.57148e-05
6.57164e-05
6.57155e-05
6.44408e-05
6.44429e-05
6.44418e-05
7.89275e-05
7.89304e-05
7.89288e-05
8.04825e-05
8.04849e-05
8.04835e-05
8.19102e-05
8.19112e-05
8.19103e-05
8.32326e-05
8.32316e-05
8.32301e-05
8.42842e-05
8.42813e-05
8.42781e-05
8.42848e-05
8.42819e-05
8.42787e-05
8.32332e-05
8.32322e-05
8.32307e-05
8.19113e-05
8.19122e-05
8.19114e-05
8.04847e-05
8.04871e-05
8.04857e-05
7.89304e-05
7.89333e-05
7.89317e-05
9.52022e-05
9.52059e-05
9.52036e-05
9.70683e-05
9.70715e-05
9.70695e-05
9.8789e-05
9.87907e-05
9.87894e-05
0.000100404
0.000100404
0.000100402
0.000101714
0.000101711
0.000101707
0.000101715
0.000101712
0.000101708
0.000100405
0.000100405
0.000100403
9.87907e-05
9.87923e-05
9.87911e-05
9.70715e-05
9.70747e-05
9.70727e-05
9.52062e-05
9.52098e-05
9.52075e-05
0.000113366
0.00011337
0.000113367
0.000115567
0.000115571
0.000115568
0.000117604
0.000117607
0.000117605
0.000119544
0.000119543
0.000119541
0.000121155
0.000121152
0.000121147
0.000121157
0.000121154
0.000121149
0.000119546
0.000119545
0.000119543
0.000117607
0.000117609
0.000117607
0.000115572
0.000115576
0.000115573
0.000113371
0.000113375
0.000113372
0.000133505
0.000133508
0.000133504
0.000136052
0.000136056
0.000136052
0.000138417
0.00013842
0.000138417
0.000140703
0.000140702
0.000140699
0.000142662
0.000142659
0.000142653
0.000142664
0.000142661
0.000142655
0.000140706
0.000140706
0.000140703
0.000138421
0.000138424
0.000138421
0.000136058
0.000136062
0.000136058
0.000133511
0.000133514
0.00013351
0.000155681
0.000155683
0.000155677
0.000158561
0.000158564
0.000158558
0.000161246
0.000161248
0.000161244
0.000163887
0.000163886
0.000163882
0.000166242
0.000166239
0.000166231
0.000166246
0.000166242
0.000166235
0.000163892
0.000163892
0.000163888
0.000161252
0.000161254
0.00016125
0.00015857
0.000158572
0.000158567
0.000155688
0.00015569
0.000155684
0.000179929
0.000179928
0.000179918
0.000183093
0.000183092
0.000183083
0.000186058
0.000186058
0.000186051
0.000189042
0.000189041
0.000189035
0.000191841
0.000191836
0.000191826
0.000191847
0.000191841
0.000191831
0.000189051
0.00018905
0.000189043
0.000186067
0.000186067
0.00018606
0.000183104
0.000183103
0.000183094
0.000179937
0.000179935
0.000179926
0.00020625
0.000206241
0.000206227
0.000209588
0.00020958
0.000209567
0.000212753
0.000212749
0.000212737
0.000216041
0.000216037
0.000216026
0.000219325
0.000219315
0.000219301
0.000219333
0.000219324
0.000219309
0.000216055
0.00021605
0.000216039
0.000212766
0.000212762
0.00021275
0.000209602
0.000209594
0.000209581
0.000206257
0.000206248
0.000206234
0.000234593
0.000234569
0.000234549
0.000237913
0.000237892
0.000237872
0.000241143
0.000241129
0.000241111
0.00024466
0.000244648
0.000244631
0.000248459
0.00024844
0.00024842
0.000248471
0.000248452
0.000248431
0.00024468
0.000244668
0.000244651
0.000241162
0.000241147
0.000241129
0.000237931
0.00023791
0.00023789
0.000234598
0.000234574
0.000234554
0.000264819
0.000264771
0.000264743
0.000267818
0.000267774
0.000267745
0.000270913
0.000270879
0.000270851
0.000274544
0.000274516
0.000274489
0.000278864
0.000278827
0.000278798
0.000278879
0.000278843
0.000278813
0.000274572
0.000274543
0.000274516
0.000270938
0.000270904
0.000270877
0.000267839
0.000267795
0.000267766
0.000264817
0.000264769
0.000264741
0.000296604
0.00029652
0.000296482
0.00029884
0.00029876
0.00029872
0.00030153
0.000301464
0.000301425
0.000305122
0.000305064
0.000305026
0.000309934
0.000309867
0.000309825
0.000309954
0.000309888
0.000309845
0.000305159
0.000305101
0.000305062
0.000301563
0.000301497
0.000301458
0.000298864
0.000298784
0.000298744
0.000296589
0.000296506
0.000296467
0.000329241
0.00032911
0.00032906
0.000330124
0.000329996
0.000329943
0.00033208
0.000331967
0.000331913
0.00033545
0.000335347
0.000335293
0.000340676
0.000340564
0.000340507
0.000340701
0.000340589
0.000340532
0.000335496
0.000335393
0.000335339
0.000332121
0.000332008
0.000331954
0.000330147
0.000330018
0.000329965
0.000329204
0.000329074
0.000329024
0.000361307
0.000361125
0.000361065
0.000360121
0.000359938
0.000359873
0.000360979
0.000360808
0.00036074
0.000363937
0.000363777
0.000363707
0.000369447
0.000369278
0.000369205
0.000369477
0.000369307
0.000369234
0.000363992
0.000363832
0.000363762
0.000361024
0.000360854
0.000360786
0.000360135
0.000359951
0.000359886
0.000361236
0.000361054
0.000360994
0.000390288
0.000390069
0.000390001
0.000386283
0.000386054
0.00038598
0.000385692
0.000385468
0.000385389
0.000388081
0.000387862
0.00038778
0.000393703
0.000393475
0.000393389
0.000393735
0.000393507
0.000393422
0.000388142
0.000387924
0.000387841
0.000385737
0.000385513
0.000385434
0.000386275
0.000386046
0.000385973
0.000390168
0.000389949
0.000389881
0.00041261
0.000412389
0.00041232
0.000405276
0.000405037
0.000404962
0.000403001
0.000402751
0.000402669
0.00040474
0.000404485
0.000404398
0.000410302
0.000410036
0.000409946
0.000410336
0.000410071
0.000409981
0.000404805
0.00040455
0.000404463
0.000403038
0.000402788
0.000402706
0.000405232
0.000404993
0.000404918
0.000412431
0.000412211
0.000412142
0.000424803
0.00042461
0.000424544
0.00041465
0.000414434
0.000414363
0.00041092
0.000410676
0.000410598
0.000412109
0.000411849
0.000411766
0.00041753
0.000417257
0.000417171
0.000417565
0.000417292
0.000417206
0.000412174
0.000411914
0.000411831
0.000410944
0.0004107
0.000410623
0.000414569
0.000414353
0.000414282
0.000424576
0.000424384
0.000424318
)
;

boundaryField
{
    freeSurface
    {
        type            slip;
    }
    inlet
    {
        type            cyclic;
    }
    outlet
    {
        type            cyclic;
    }
    sidewalls
    {
        type            nutkWallFunction;
        Cmu             0.09;
        kappa           0.41;
        E               9.8;
        value           nonuniform 0();
    }
    noSlipWalls
    {
        type            nutkWallFunction;
        Cmu             0.09;
        kappa           0.41;
        E               9.8;
        value           uniform 0;
    }
    procBoundary1to0
    {
        type            processor;
        value           nonuniform List<scalar> 
72
(
3.30151e-07
3.30183e-07
3.30166e-07
3.81905e-06
3.8191e-06
3.81907e-06
8.47084e-06
8.47098e-06
8.4709e-06
1.4401e-05
1.44013e-05
1.44011e-05
2.15142e-05
2.15147e-05
2.15145e-05
2.98454e-05
2.98463e-05
2.98458e-05
3.94761e-05
3.94775e-05
3.94768e-05
5.05115e-05
5.05136e-05
5.05126e-05
6.30691e-05
6.3072e-05
6.30706e-05
7.72717e-05
7.72755e-05
7.72735e-05
9.32427e-05
9.32473e-05
9.32446e-05
0.000111103
0.000111107
0.000111104
0.000130966
0.00013097
0.000130965
0.000152941
0.000152943
0.000152936
0.000177129
0.000177126
0.000177116
0.000203619
0.000203606
0.000203591
0.000232473
0.000232444
0.000232423
0.000263677
0.000263622
0.000263592
0.000297016
0.000296922
0.000296884
0.000331829
0.000331688
0.00033164
0.000366619
0.00036643
0.000366372
0.00039863
0.00039841
0.000398346
0.000423872
0.000423655
0.00042359
0.000438164
0.000437974
0.000437911
)
;
    }
    procBoundary1to2
    {
        type            processor;
        value           nonuniform List<scalar> 
72
(
3.30083e-07
3.30114e-07
3.30096e-07
3.81898e-06
3.81904e-06
3.819e-06
8.47082e-06
8.47095e-06
8.47088e-06
1.44011e-05
1.44014e-05
1.44013e-05
2.15147e-05
2.15152e-05
2.15149e-05
2.98464e-05
2.98473e-05
2.98469e-05
3.94779e-05
3.94793e-05
3.94786e-05
5.05145e-05
5.05165e-05
5.05155e-05
6.30734e-05
6.30763e-05
6.30749e-05
7.72779e-05
7.72816e-05
7.72796e-05
9.32513e-05
9.32558e-05
9.32531e-05
0.000111114
0.000111119
0.000111115
0.000130982
0.000130986
0.000130981
0.000152962
0.000152964
0.000152957
0.000177156
0.000177153
0.000177143
0.000203655
0.000203642
0.000203627
0.00023252
0.00023249
0.000232469
0.000263735
0.000263679
0.00026365
0.000297085
0.000296991
0.000296952
0.000331904
0.000331762
0.000331714
0.000366686
0.000366497
0.00036644
0.00039867
0.00039845
0.000398387
0.00042386
0.000423644
0.00042358
0.000438099
0.000437911
0.000437849
)
;
    }
}


// ************************************************************************* //
