/*--------------------------------*- C++ -*----------------------------------*\
  =========                 |
  \\      /  F ield         | OpenFOAM: The Open Source CFD Toolbox
   \\    /   O peration     | Website:  https://openfoam.org
    \\  /    A nd           | Version:  6
     \\/     M anipulation  |
\*---------------------------------------------------------------------------*/
FoamFile
{
    version     2.0;
    format      ascii;
    class       volScalarField;
    location    "80";
    object      omega;
}
// * * * * * * * * * * * * * * * * * * * * * * * * * * * * * * * * * * * * * //

dimensions      [0 0 -1 0 0 0 0];

internalField   nonuniform List<scalar> 
720
(
843.917
843.917
843.917
843.917
843.917
843.917
843.917
843.917
843.917
843.917
843.917
843.917
843.917
843.917
843.917
843.917
843.917
843.917
843.917
843.917
843.917
843.917
843.917
843.917
843.917
843.917
843.917
843.917
843.917
843.917
264.626
264.626
264.626
265.215
265.215
265.215
265.314
265.314
265.314
265.051
265.051
265.051
264.668
264.669
264.67
264.668
264.669
264.67
265.051
265.051
265.052
265.314
265.314
265.314
265.213
265.213
265.213
264.624
264.624
264.624
128.065
128.065
128.065
128.965
128.965
128.965
129.616
129.617
129.617
130.04
130.04
130.04
130.274
130.275
130.274
130.274
130.274
130.274
130.039
130.039
130.039
129.615
129.615
129.615
128.963
128.963
128.963
128.062
128.062
128.061
76.7778
76.7778
76.7777
77.4983
77.4984
77.4982
78.0564
78.0566
78.0566
78.4543
78.4546
78.4546
78.701
78.7014
78.7013
78.7009
78.7013
78.7012
78.4536
78.454
78.4539
78.055
78.0552
78.0552
77.4961
77.4962
77.4961
76.7749
76.7749
76.7747
51.5541
51.5539
51.5538
52.1081
52.1081
52.108
52.5442
52.5444
52.5444
52.8583
52.8587
52.8587
53.0547
53.0553
53.0552
53.0546
53.0552
53.0551
52.8577
52.8581
52.8581
52.543
52.5432
52.5431
52.1062
52.1062
52.1061
51.5515
51.5514
51.5513
37.0237
37.0235
37.0234
37.454
37.4539
37.4538
37.7932
37.7934
37.7933
38.0347
38.0351
38.0351
38.1831
38.1838
38.1838
38.1831
38.1837
38.1837
38.0342
38.0347
38.0346
37.7922
37.7923
37.7922
37.4523
37.4523
37.4522
37.0215
37.0213
37.0212
27.7667
27.7665
27.7664
28.1068
28.1067
28.1066
28.3739
28.374
28.374
28.5602
28.5606
28.5606
28.6713
28.6719
28.6719
28.6712
28.6719
28.6718
28.5598
28.5602
28.5602
28.373
28.3731
28.373
28.1054
28.1053
28.1052
27.7648
27.7646
27.7646
21.4519
21.4517
21.4516
21.7255
21.7254
21.7253
21.9393
21.9393
21.9392
22.0848
22.085
22.085
22.1681
22.1686
22.1686
22.168
22.1685
22.1685
22.0844
22.0847
22.0847
21.9385
21.9385
21.9385
21.7243
21.7242
21.7241
21.4503
21.45
21.45
16.9284
16.9281
16.9281
17.1523
17.1521
17.1521
17.3263
17.3263
17.3262
17.4418
17.4419
17.4419
17.5046
17.505
17.505
17.5045
17.5049
17.5049
17.4414
17.4416
17.4416
17.3256
17.3256
17.3255
17.1513
17.1511
17.151
16.927
16.9268
16.9267
13.568
13.5678
13.5677
13.7541
13.7539
13.7539
13.8983
13.8982
13.8982
13.9917
13.9918
13.9918
14.0395
14.0398
14.0398
14.0394
14.0397
14.0397
13.9914
13.9915
13.9915
13.8977
13.8977
13.8976
13.7532
13.753
13.753
13.5668
13.5666
13.5665
11.0006
11.0003
11.0003
11.1576
11.1574
11.1574
11.2793
11.2792
11.2791
11.3565
11.3566
11.3565
11.3933
11.3935
11.3935
11.3932
11.3934
11.3934
11.3562
11.3563
11.3562
11.2788
11.2787
11.2786
11.1569
11.1567
11.1566
10.9996
10.9993
10.9993
8.99462
8.99442
8.99441
9.12906
9.12888
9.12885
9.23362
9.2335
9.23345
9.29905
9.29907
9.299
9.32766
9.32778
9.32777
9.32755
9.32767
9.32766
9.29876
9.29877
9.2987
9.23314
9.23303
9.23298
9.12838
9.12819
9.12817
8.99375
8.99356
8.99355
7.39827
7.39815
7.39814
7.51486
7.51473
7.51472
7.6064
7.6063
7.60627
7.66331
7.66331
7.66325
7.68586
7.68594
7.68594
7.68573
7.68582
7.68581
7.66301
7.66301
7.66295
7.60596
7.60586
7.60583
7.51426
7.51413
7.51412
7.39754
7.39742
7.39742
6.10799
6.10796
6.10797
6.21022
6.21016
6.21017
6.29174
6.29167
6.29167
6.34251
6.3425
6.34247
6.36057
6.36066
6.36065
6.36044
6.36052
6.36052
6.3422
6.3422
6.34216
6.29133
6.29126
6.29125
6.20969
6.20964
6.20964
6.10739
6.10736
6.10737
5.05103
5.05108
5.05114
5.1413
5.14132
5.14137
5.21489
5.21488
5.21491
5.26118
5.2612
5.2612
5.27597
5.27608
5.27609
5.27582
5.27593
5.27594
5.26086
5.26088
5.26088
5.21449
5.21449
5.21451
5.14083
5.14086
5.14091
5.05055
5.05059
5.05065
4.17505
4.17521
4.17531
4.25481
4.25494
4.25503
4.32175
4.32182
4.32189
4.36461
4.36467
4.36472
4.37703
4.37719
4.37724
4.37687
4.37703
4.37708
4.36428
4.36434
4.36439
4.32137
4.32145
4.32152
4.25441
4.25454
4.25463
4.17468
4.17485
4.17494
3.44204
3.44234
3.44246
3.51178
3.51205
3.51217
3.57254
3.57273
3.57284
3.61242
3.61257
3.61267
3.62317
3.62341
3.6235
3.62301
3.62325
3.62334
3.61208
3.61224
3.61233
3.57219
3.57237
3.57249
3.51144
3.51171
3.51183
3.44179
3.44209
3.44221
2.8245
2.82495
2.82509
2.88372
2.88415
2.88429
2.93796
2.93829
2.93844
2.97473
2.97501
2.97515
2.98432
2.98466
2.9848
2.98416
2.98451
2.98465
2.97441
2.97469
2.97483
2.93763
2.93796
2.93811
2.88344
2.88387
2.88401
2.82437
2.82482
2.82496
2.30311
2.3037
2.30384
2.35038
2.35094
2.3511
2.39692
2.3974
2.39757
2.42992
2.43034
2.43051
2.4386
2.43908
2.43925
2.43846
2.43894
2.43911
2.42962
2.43004
2.43022
2.39663
2.39711
2.39728
2.35017
2.35074
2.3509
2.3031
2.30369
2.30383
1.86525
1.86593
1.86607
1.89837
1.89905
1.8992
1.93534
1.93595
1.93612
1.96341
1.96397
1.96415
1.97123
1.97183
1.97202
1.9711
1.97171
1.97189
1.96315
1.96371
1.9639
1.9351
1.93571
1.93589
1.89823
1.89892
1.89907
1.86536
1.86604
1.86617
1.50396
1.50466
1.50477
1.52048
1.52121
1.52135
1.54563
1.54631
1.54648
1.56733
1.56798
1.56816
1.57407
1.57476
1.57494
1.57397
1.57466
1.57484
1.56712
1.56778
1.56796
1.54545
1.54614
1.5463
1.52043
1.52116
1.52129
1.50416
1.50486
1.50498
1.21724
1.21788
1.21797
1.21545
1.21613
1.21624
1.22687
1.22755
1.22768
1.24092
1.24158
1.24173
1.24618
1.24687
1.24703
1.24611
1.2468
1.24696
1.24077
1.24144
1.24159
1.22677
1.22744
1.22758
1.21548
1.21616
1.21627
1.21751
1.21815
1.21824
1.00848
1.00899
1.00906
0.988919
0.989474
0.989558
0.986383
0.986969
0.98707
0.992441
0.993039
0.993154
0.995921
0.996539
0.996657
0.995878
0.996496
0.996613
0.992352
0.992951
0.993066
0.986343
0.986928
0.987029
0.989006
0.98956
0.989643
1.00878
1.00929
1.00936
0.889655
0.890042
0.890101
0.857507
0.857936
0.858002
0.844714
0.845196
0.84527
0.844807
0.84532
0.845404
0.846802
0.847336
0.847421
0.846776
0.84731
0.847395
0.844756
0.84527
0.845353
0.844713
0.845195
0.845269
0.857627
0.858056
0.858122
0.889963
0.890349
0.890409
)
;

boundaryField
{
    freeSurface
    {
        type            slip;
    }
    inlet
    {
        type            cyclic;
    }
    outlet
    {
        type            cyclic;
    }
    sidewalls
    {
        Cmu             0.09;
        kappa           0.41;
        E               9.8;
        beta1           0.075;
        blended         false;
        type            omegaWallFunction;
        value           nonuniform 0();
    }
    noSlipWalls
    {
        Cmu             0.09;
        kappa           0.41;
        E               9.8;
        beta1           0.075;
        blended         false;
        type            omegaWallFunction;
        value           nonuniform List<scalar> 
30
(
843.917
843.917
843.917
843.917
843.917
843.917
843.917
843.917
843.917
843.917
843.917
843.917
843.917
843.917
843.917
843.917
843.917
843.917
843.917
843.917
843.917
843.917
843.917
843.917
843.917
843.917
843.917
843.917
843.917
843.917
)
;
    }
    procBoundary1to0
    {
        type            processor;
        value           nonuniform List<scalar> 
72
(
843.917
843.917
843.917
263.549
263.549
263.549
126.943
126.943
126.942
75.9202
75.92
75.9199
50.9045
50.9041
50.9041
36.5223
36.5219
36.5219
27.3713
27.3709
27.3709
21.1338
21.1334
21.1334
16.6678
16.6674
16.6674
13.3507
13.3504
13.3504
10.8165
10.8162
10.8162
8.83636
8.83613
8.83612
7.26052
7.26039
7.26039
5.98713
5.98711
5.98714
4.94489
4.94497
4.94504
4.08284
4.08305
4.08315
3.36425
3.36461
3.36473
2.76277
2.76329
2.76341
2.25989
2.26052
2.26065
1.84312
1.84384
1.84394
1.5047
1.50541
1.5055
1.2407
1.24133
1.24141
1.05154
1.05205
1.05211
0.945217
0.945607
0.94566
)
;
    }
    procBoundary1to2
    {
        type            processor;
        value           nonuniform List<scalar> 
72
(
843.917
843.917
843.917
263.546
263.547
263.546
126.94
126.94
126.94
75.9175
75.9173
75.9172
50.902
50.9017
50.9017
36.5201
36.5197
36.5197
27.3694
27.369
27.369
21.1322
21.1317
21.1317
16.6663
16.6659
16.6659
13.3495
13.3491
13.3491
10.8154
10.8151
10.8151
8.83536
8.83513
8.83513
7.25964
7.25951
7.25951
5.98634
5.98632
5.98635
4.94419
4.94427
4.94434
4.08222
4.08243
4.08254
3.36371
3.36408
3.3642
2.76232
2.76283
2.76296
2.25952
2.26016
2.26028
1.84285
1.84356
1.84367
1.50452
1.50524
1.50533
1.24061
1.24125
1.24132
1.05154
1.05205
1.0521
0.945262
0.945649
0.945701
)
;
    }
}


// ************************************************************************* //
