/*--------------------------------*- C++ -*----------------------------------*\
  =========                 |
  \\      /  F ield         | OpenFOAM: The Open Source CFD Toolbox
   \\    /   O peration     | Website:  https://openfoam.org
    \\  /    A nd           | Version:  6
     \\/     M anipulation  |
\*---------------------------------------------------------------------------*/
FoamFile
{
    version     2.0;
    format      ascii;
    class       volVectorField;
    location    "80";
    object      U;
}
// * * * * * * * * * * * * * * * * * * * * * * * * * * * * * * * * * * * * * //

dimensions      [0 1 -1 0 0 0 0];

internalField   nonuniform List<vector> 
720
(
(0.110132 -1.54084e-08 -4.07097e-11)
(0.110134 1.3402e-08 -2.01163e-11)
(0.110133 2.01215e-09 6.07566e-11)
(0.113501 -1.33326e-08 7.26088e-12)
(0.113502 1.11683e-08 1.76916e-11)
(0.113501 2.16015e-09 -2.50195e-11)
(0.116432 -1.16194e-08 8.37652e-11)
(0.116433 9.99119e-09 -6.19845e-12)
(0.116432 1.6187e-09 -7.71983e-11)
(0.118868 -7.05782e-09 3.15908e-10)
(0.118868 3.83328e-09 -4.39165e-10)
(0.118866 3.20674e-09 1.22223e-10)
(0.120616 -1.73641e-09 1.11332e-09)
(0.120614 4.3498e-11 -1.66452e-09)
(0.12061 1.66101e-09 5.47876e-10)
(0.120616 1.61715e-09 1.1159e-09)
(0.120614 5.21503e-12 -1.66729e-09)
(0.12061 -1.62176e-09 5.48025e-10)
(0.118867 6.89543e-09 3.17365e-10)
(0.118866 -3.71385e-09 -4.40317e-10)
(0.118865 -3.19023e-09 1.21938e-10)
(0.116429 1.15621e-08 8.45209e-11)
(0.116429 -9.91656e-09 -6.84549e-12)
(0.116429 -1.64647e-09 -7.73764e-11)
(0.113497 1.30166e-08 7.31124e-12)
(0.113497 -1.11646e-08 1.69802e-11)
(0.113497 -1.85613e-09 -2.43472e-11)
(0.110127 1.53259e-08 -4.13286e-11)
(0.110128 -1.33479e-08 -1.80436e-11)
(0.110128 -1.98801e-09 5.92786e-11)
(0.187997 -2.489e-08 -4.46939e-10)
(0.187998 2.07527e-08 -2.45882e-10)
(0.187997 4.14647e-09 6.92829e-10)
(0.190634 -2.12088e-08 -4.52588e-10)
(0.190635 1.70553e-08 -1.14013e-10)
(0.190634 4.14608e-09 5.66743e-10)
(0.192406 -1.81079e-08 -5.07399e-10)
(0.192406 1.5141e-08 2.19762e-10)
(0.192406 2.95147e-09 2.87881e-10)
(0.193391 -1.08957e-08 -8.76377e-10)
(0.193391 5.81352e-09 1.26064e-09)
(0.19339 5.05177e-09 -3.84449e-10)
(0.193783 -2.63252e-09 -1.91958e-09)
(0.193782 7.57527e-11 2.95693e-09)
(0.193782 2.50404e-09 -1.03867e-09)
(0.193783 2.44981e-09 -1.92371e-09)
(0.193783 -6.35585e-12 2.96098e-09)
(0.193782 -2.44304e-09 -1.03867e-09)
(0.193391 1.06443e-08 -8.81186e-10)
(0.19339 -5.63732e-09 1.2642e-09)
(0.19339 -5.02115e-09 -3.83328e-10)
(0.192404 1.8025e-08 -5.07853e-10)
(0.192405 -1.50369e-08 2.27345e-10)
(0.192404 -2.98993e-09 2.80571e-10)
(0.190631 2.06732e-08 -4.52998e-10)
(0.190632 -1.70729e-08 -1.04577e-10)
(0.190631 -3.60665e-09 5.57659e-10)
(0.187993 2.47613e-08 -4.48255e-10)
(0.187994 -2.06795e-08 -2.32157e-10)
(0.187993 -4.09796e-09 6.80355e-10)
(0.226652 -2.89364e-08 -7.25745e-10)
(0.226653 2.36369e-08 -3.76155e-10)
(0.226653 5.31015e-09 1.10197e-09)
(0.229577 -2.46195e-08 -7.03316e-10)
(0.229577 1.93956e-08 -1.39706e-10)
(0.229577 5.21486e-09 8.43388e-10)
(0.231581 -2.08349e-08 -7.11199e-10)
(0.231582 1.71041e-08 3.29639e-10)
(0.231581 3.71266e-09 3.81775e-10)
(0.232735 -1.27097e-08 -1.05172e-09)
(0.232734 6.73097e-09 1.5181e-09)
(0.232734 5.9427e-09 -4.65788e-10)
(0.233224 -3.05641e-09 -1.91176e-09)
(0.233223 1.14801e-10 3.02872e-09)
(0.233222 2.87904e-09 -1.11645e-09)
(0.233224 2.84391e-09 -1.91558e-09)
(0.233223 -3.67031e-11 3.03248e-09)
(0.233222 -2.80673e-09 -1.11651e-09)
(0.232734 1.24174e-08 -1.05798e-09)
(0.232734 -6.53162e-09 1.52265e-09)
(0.232733 -5.90265e-09 -4.64368e-10)
(0.231579 2.07466e-08 -7.1037e-10)
(0.23158 -1.69969e-08 3.40721e-10)
(0.231579 -3.752e-09 3.69481e-10)
(0.229573 2.39627e-08 -7.04056e-10)
(0.229574 -1.94268e-08 -1.26035e-10)
(0.229573 -4.54312e-09 8.30342e-10)
(0.226647 2.87894e-08 -7.29722e-10)
(0.226648 -2.35563e-08 -3.54451e-10)
(0.226647 -5.25187e-09 1.08411e-09)
(0.252308 -3.11897e-08 -1.10809e-09)
(0.252309 2.5197e-08 -5.32711e-10)
(0.252308 6.00422e-09 1.64086e-09)
(0.255454 -2.65142e-08 -1.06775e-09)
(0.255455 2.06567e-08 -1.74682e-10)
(0.255454 5.84748e-09 1.24302e-09)
(0.257631 -2.22283e-08 -1.02154e-09)
(0.257631 1.79849e-08 4.72557e-10)
(0.25763 4.2236e-09 5.49417e-10)
(0.258906 -1.38345e-08 -1.38463e-09)
(0.258906 7.3246e-09 1.96726e-09)
(0.258906 6.47071e-09 -5.81965e-10)
(0.25947 -3.31624e-09 -2.20756e-09)
(0.25947 1.74975e-10 3.54163e-09)
(0.259469 3.07292e-09 -1.33409e-09)
(0.25947 3.08591e-09 -2.21165e-09)
(0.25947 -9.18427e-11 3.54578e-09)
(0.259469 -2.99347e-09 -1.33435e-09)
(0.258906 1.35181e-08 -1.39328e-09)
(0.258905 -7.11345e-09 1.97354e-09)
(0.258905 -6.42315e-09 -5.80112e-10)
(0.257628 2.21265e-08 -1.01869e-09)
(0.257629 -1.78685e-08 4.8829e-10)
(0.257628 -4.26047e-09 5.30214e-10)
(0.25545 2.5765e-08 -1.06947e-09)
(0.25545 -2.06963e-08 -1.54737e-10)
(0.25545 -5.07656e-09 1.22458e-09)
(0.252301 3.10338e-08 -1.11621e-09)
(0.252302 -2.51123e-08 -5.01691e-10)
(0.252302 -5.942e-09 1.61774e-09)
(0.271778 -3.25668e-08 -1.59132e-09)
(0.271779 2.62184e-08 -6.89556e-10)
(0.271778 6.36047e-09 2.28094e-09)
(0.275123 -2.76657e-08 -1.54497e-09)
(0.275124 2.14782e-08 -2.02659e-10)
(0.275123 6.17688e-09 1.74852e-09)
(0.277457 -2.30258e-08 -1.41985e-09)
(0.277457 1.8418e-08 6.31292e-10)
(0.277456 4.58679e-09 7.89265e-10)
(0.278846 -1.46751e-08 -1.82867e-09)
(0.278846 7.82143e-09 2.50988e-09)
(0.278845 6.81242e-09 -6.80305e-10)
(0.279481 -3.51063e-09 -2.70604e-09)
(0.279481 2.64858e-10 4.30779e-09)
(0.27948 3.17354e-09 -1.60235e-09)
(0.279481 3.26758e-09 -2.71074e-09)
(0.279481 -1.77796e-10 4.31291e-09)
(0.27948 -3.08903e-09 -1.60303e-09)
(0.278845 1.4342e-08 -1.8404e-09)
(0.278845 -7.60325e-09 2.5184e-09)
(0.278844 -6.75833e-09 -6.77932e-10)
(0.277454 2.29059e-08 -1.41397e-09)
(0.277454 -1.8289e-08 6.52539e-10)
(0.277454 -4.61955e-09 7.61206e-10)
(0.275118 2.6833e-08 -1.54908e-09)
(0.275119 -2.15218e-08 -1.75472e-10)
(0.275119 -5.31956e-09 1.7251e-09)
(0.271771 3.2407e-08 -1.60555e-09)
(0.271772 -2.6131e-08 -6.48164e-10)
(0.271771 -6.29751e-09 2.25345e-09)
(0.287778 -3.34143e-08 -2.18758e-09)
(0.287779 2.70118e-08 -8.12693e-10)
(0.287778 6.41497e-09 3.00036e-09)
(0.291302 -2.83637e-08 -2.14918e-09)
(0.291303 2.21115e-08 -2.02944e-10)
(0.291302 6.24116e-09 2.35337e-09)
(0.293778 -2.35365e-08 -1.90316e-09)
(0.293778 1.86716e-08 7.97648e-10)
(0.293778 4.84304e-09 1.1065e-09)
(0.295269 -1.5396e-08 -2.37252e-09)
(0.295269 8.32265e-09 3.08264e-09)
(0.295269 7.0306e-09 -7.089e-10)
(0.295968 -3.67885e-09 -3.33091e-09)
(0.295968 3.91303e-10 5.15532e-09)
(0.295967 3.21256e-09 -1.8253e-09)
(0.295968 3.42547e-09 -3.33641e-09)
(0.295968 -3.0028e-10 5.1619e-09)
(0.295967 -3.12427e-09 -1.82676e-09)
(0.295268 1.50497e-08 -2.38792e-09)
(0.295268 -8.09903e-09 3.09386e-09)
(0.295268 -6.97105e-09 -7.05928e-10)
(0.293775 2.33958e-08 -1.8927e-09)
(0.293775 -1.8528e-08 8.25017e-10)
(0.293775 -4.87066e-09 1.06736e-09)
(0.291297 2.74467e-08 -2.15636e-09)
(0.291298 -2.21539e-08 -1.68007e-10)
(0.291297 -5.30152e-09 2.32511e-09)
(0.28777 3.32539e-08 -2.21067e-09)
(0.287771 -2.69224e-08 -7.6081e-10)
(0.28777 -6.35382e-09 2.97111e-09)
(0.301606 -3.38869e-08 -2.91622e-09)
(0.301607 2.77424e-08 -8.58798e-10)
(0.301606 6.15727e-09 3.77507e-09)
(0.305295 -2.87352e-08 -2.90458e-09)
(0.305296 2.26889e-08 -1.43934e-10)
(0.305295 6.03513e-09 3.05019e-09)
(0.307901 -2.39178e-08 -2.48583e-09)
(0.307902 1.88864e-08 9.78081e-10)
(0.307901 5.00897e-09 1.50907e-09)
(0.309485 -1.58716e-08 -2.99345e-09)
(0.309485 8.68027e-09 3.62143e-09)
(0.309484 7.14776e-09 -6.26291e-10)
(0.31024 -3.84162e-09 -4.05531e-09)
(0.31024 5.59376e-10 5.97089e-09)
(0.310239 3.20535e-09 -1.91676e-09)
(0.31024 3.57888e-09 -4.06176e-09)
(0.310239 -4.63657e-10 5.97952e-09)
(0.310239 -3.11413e-09 -1.91942e-09)
(0.309483 1.55192e-08 -3.01297e-09)
(0.309483 -8.45596e-09 3.63569e-09)
(0.309483 -7.08423e-09 -6.22709e-10)
(0.307898 2.37544e-08 -2.46896e-09)
(0.307898 -1.87266e-08 1.01209e-09)
(0.307898 -5.03079e-09 1.45644e-09)
(0.30529 2.77268e-08 -2.90036e-09)
(0.30529 -2.27234e-08 -1.01054e-10)
(0.30529 -5.01215e-09 3.00239e-09)
(0.301597 3.37287e-08 -2.95135e-09)
(0.301598 -2.76511e-08 -7.9691e-10)
(0.301597 -6.1005e-09 3.74774e-09)
(0.313972 -3.40581e-08 -3.78889e-09)
(0.313973 2.85253e-08 -7.66295e-10)
(0.313972 5.5457e-09 4.55532e-09)
(0.317816 -2.88378e-08 -3.82787e-09)
(0.317817 2.33008e-08 2.87763e-11)
(0.317816 5.52564e-09 3.80123e-09)
(0.320543 -2.42454e-08 -3.20237e-09)
(0.320543 1.9134e-08 1.20057e-09)
(0.320543 5.08873e-09 2.0035e-09)
(0.32221 -1.61519e-08 -3.71875e-09)
(0.32221 8.93156e-09 4.11642e-09)
(0.32221 7.17628e-09 -3.95434e-10)
(0.323014 -4.01279e-09 -4.91741e-09)
(0.323014 7.62834e-10 6.74745e-09)
(0.323014 3.17183e-09 -1.83163e-09)
(0.323014 3.74068e-09 -4.9251e-09)
(0.323014 -6.61006e-10 6.75878e-09)
(0.323014 -3.07834e-09 -1.83589e-09)
(0.322208 1.57993e-08 -3.74294e-09)
(0.322209 -8.71056e-09 4.1343e-09)
(0.322208 -7.11006e-09 -3.91337e-10)
(0.320539 2.40578e-08 -3.17888e-09)
(0.320539 -1.8956e-08 1.24172e-09)
(0.320539 -5.10471e-09 1.93657e-09)
(0.317809 2.8056e-08 -3.84313e-09)
(0.31781 -2.33132e-08 7.93e-11)
(0.317809 -4.75187e-09 3.7651e-09)
(0.313963 3.39046e-08 -3.8377e-09)
(0.313963 -2.84321e-08 -6.94971e-10)
(0.313962 -5.49574e-09 4.532e-09)
(0.325301 -3.41582e-08 -4.89218e-09)
(0.325302 2.91975e-08 -4.45782e-10)
(0.325301 4.97379e-09 5.33826e-09)
(0.329292 -2.89082e-08 -5.00405e-09)
(0.329293 2.38418e-08 3.97222e-10)
(0.329292 5.05504e-09 4.60963e-09)
(0.332134 -2.4517e-08 -4.10597e-09)
(0.332134 1.94158e-08 1.51637e-09)
(0.332133 5.07838e-09 2.59172e-09)
(0.333878 -1.62591e-08 -4.56859e-09)
(0.333878 9.09311e-09 4.57372e-09)
(0.333878 7.12189e-09 -2.21158e-12)
(0.334726 -4.15056e-09 -5.87943e-09)
(0.334726 9.49731e-10 7.41323e-09)
(0.334726 3.12217e-09 -1.53588e-09)
(0.334726 3.87246e-09 -5.88863e-09)
(0.334726 -8.43635e-10 7.42833e-09)
(0.334726 -3.02721e-09 -1.54257e-09)
(0.333876 1.59118e-08 -4.59908e-09)
(0.333877 -8.87924e-09 4.597e-09)
(0.333876 -7.05413e-09 2.15199e-12)
(0.332129 2.43031e-08 -4.07774e-09)
(0.33213 -1.9217e-08 1.56503e-09)
(0.332129 -5.08912e-09 2.51193e-09)
(0.329285 2.82906e-08 -5.02046e-09)
(0.329286 -2.38176e-08 4.55247e-10)
(0.329285 -4.48211e-09 4.56685e-09)
(0.325291 3.39915e-08 -4.95283e-09)
(0.325291 -2.90845e-08 -3.66473e-10)
(0.32529 -4.93033e-09 5.31859e-09)
(0.335865 -3.36638e-08 -6.24529e-09)
(0.335865 2.92915e-08 2.18688e-10)
(0.335864 4.38552e-09 6.02715e-09)
(0.339999 -2.85927e-08 -6.46497e-09)
(0.339999 2.40026e-08 1.07385e-09)
(0.339998 4.57894e-09 5.39472e-09)
(0.342951 -2.46205e-08 -5.27216e-09)
(0.342951 1.963e-08 2.01793e-09)
(0.34295 4.96766e-09 3.25694e-09)
(0.344768 -1.62185e-08 -5.57607e-09)
(0.344768 9.18765e-09 5.03697e-09)
(0.344768 6.98729e-09 5.42814e-10)
(0.345655 -4.2577e-09 -7.00055e-09)
(0.345655 1.12265e-09 8.01082e-09)
(0.345655 3.05655e-09 -1.01288e-09)
(0.345655 3.97671e-09 -7.0116e-09)
(0.345655 -1.01374e-09 8.03088e-09)
(0.345654 -2.96098e-09 -1.02286e-09)
(0.344766 1.58715e-08 -5.61292e-09)
(0.344766 -8.97419e-09 5.06627e-09)
(0.344766 -6.91896e-09 5.46778e-10)
(0.342946 2.43777e-08 -5.24051e-09)
(0.342946 -1.94066e-08 2.07398e-09)
(0.342946 -4.97406e-09 3.16559e-09)
(0.339991 2.80911e-08 -6.48361e-09)
(0.339991 -2.39319e-08 1.13858e-09)
(0.33999 -4.16833e-09 5.34715e-09)
(0.335853 3.34875e-08 -6.31628e-09)
(0.335854 -2.91621e-08 3.0478e-10)
(0.335853 -4.34884e-09 6.0108e-09)
(0.345844 -3.25175e-08 -7.92833e-09)
(0.345844 2.87913e-08 1.41389e-09)
(0.345843 3.7394e-09 6.51528e-09)
(0.350119 -2.77096e-08 -8.28802e-09)
(0.350119 2.36348e-08 2.2337e-09)
(0.350118 4.0638e-09 6.05884e-09)
(0.35318 -2.42465e-08 -6.76434e-09)
(0.35318 1.94814e-08 2.82135e-09)
(0.353179 4.74256e-09 3.94643e-09)
(0.355067 -1.60862e-08 -6.83747e-09)
(0.355068 9.27001e-09 5.63327e-09)
(0.355067 6.77367e-09 1.20881e-09)
(0.355989 -4.33311e-09 -8.32113e-09)
(0.35599 1.28013e-09 8.61886e-09)
(0.355989 2.97541e-09 -3.00874e-10)
(0.355989 4.05224e-09 -8.33427e-09)
(0.35599 -1.16955e-09 8.6451e-09)
(0.355989 -2.88019e-09 -3.15177e-10)
(0.355065 1.57317e-08 -6.87988e-09)
(0.355066 -9.04749e-09 5.66911e-09)
(0.355065 -6.70576e-09 1.21095e-09)
(0.353175 2.39841e-08 -6.73111e-09)
(0.353175 -1.9241e-08 2.88531e-09)
(0.353174 -4.74601e-09 3.84474e-09)
(0.350111 2.72992e-08 -8.31138e-09)
(0.350111 -2.35241e-08 2.30521e-09)
(0.35011 -3.78412e-09 6.00885e-09)
(0.345832 3.23354e-08 -8.00843e-09)
(0.345832 -2.86483e-08 1.50517e-09)
(0.345831 -3.71036e-09 6.50256e-09)
(0.355362 -3.06227e-08 -1.00507e-08)
(0.355362 2.76282e-08 3.36745e-09)
(0.355361 3.00768e-09 6.68431e-09)
(0.35978 -2.6173e-08 -1.05823e-08)
(0.35978 2.26722e-08 4.1111e-09)
(0.359779 3.49003e-09 6.47667e-09)
(0.36295 -2.334e-08 -8.69413e-09)
(0.36295 1.89224e-08 4.14059e-09)
(0.362949 4.3957e-09 4.55786e-09)
(0.364907 -1.5737e-08 -8.42539e-09)
(0.364907 9.21581e-09 6.49964e-09)
(0.364906 6.48035e-09 1.93145e-09)
(0.365861 -4.37025e-09 -9.90772e-09)
(0.365862 1.41522e-09 9.39728e-09)
(0.365861 2.87922e-09 5.06746e-10)
(0.365861 4.09269e-09 -9.92313e-09)
(0.365861 -1.30402e-09 9.43091e-09)
(0.365861 -2.78551e-09 4.87071e-10)
(0.364904 1.53824e-08 -8.47518e-09)
(0.364905 -8.98931e-09 6.54577e-09)
(0.364904 -6.41427e-09 1.92972e-09)
(0.362945 2.30677e-08 -8.66119e-09)
(0.362945 -1.86724e-08 4.21264e-09)
(0.362944 -4.39806e-09 4.44741e-09)
(0.359771 2.58353e-08 -1.0611e-08)
(0.359771 -2.25286e-08 4.18864e-09)
(0.35977 -3.31538e-09 6.42554e-09)
(0.355349 3.0439e-08 -1.01383e-08)
(0.355349 -2.74743e-08 3.46167e-09)
(0.355348 -2.98765e-09 6.67582e-09)
(0.364504 -2.78382e-08 -1.26832e-08)
(0.364504 2.56726e-08 6.24784e-09)
(0.364503 2.17905e-09 6.43651e-09)
(0.369068 -2.38563e-08 -1.33749e-08)
(0.369068 2.09905e-08 6.86565e-09)
(0.369067 2.85598e-09 6.51576e-09)
(0.372351 -2.18142e-08 -1.11837e-08)
(0.372351 1.7861e-08 6.24381e-09)
(0.37235 3.93194e-09 4.94514e-09)
(0.374377 -1.5121e-08 -1.05163e-08)
(0.374378 8.97243e-09 7.90747e-09)
(0.374377 6.11027e-09 2.61577e-09)
(0.375363 -4.35488e-09 -1.18791e-08)
(0.375363 1.51381e-09 1.06092e-08)
(0.375362 2.768e-09 1.26557e-09)
(0.375362 4.08431e-09 -1.18971e-08)
(0.375362 -1.40307e-09 1.06513e-08)
(0.375362 -2.67718e-09 1.23973e-09)
(0.374375 1.47744e-08 -1.05736e-08)
(0.374375 -8.74725e-09 7.96609e-09)
(0.374374 -6.04781e-09 2.60802e-09)
(0.372345 2.15422e-08 -1.11535e-08)
(0.372345 -1.76092e-08 6.32393e-09)
(0.372344 -3.93553e-09 4.82819e-09)
(0.369058 2.35782e-08 -1.34079e-08)
(0.369058 -2.08221e-08 6.94728e-09)
(0.369057 -2.76486e-09 6.46437e-09)
(0.36449 2.7658e-08 -1.27744e-08)
(0.36449 -2.55109e-08 6.34081e-09)
(0.364489 -2.17e-09 6.43253e-09)
(0.373323 -2.53505e-08 -1.62159e-08)
(0.373323 2.39368e-08 1.05306e-08)
(0.373322 1.42718e-09 5.68686e-09)
(0.378041 -2.17525e-08 -1.70638e-08)
(0.378041 1.95109e-08 1.10086e-08)
(0.37804 2.23227e-09 6.06309e-09)
(0.381442 -1.955e-08 -1.42401e-08)
(0.381442 1.61536e-08 9.30447e-09)
(0.38144 3.37677e-09 4.94156e-09)
(0.383542 -1.41656e-08 -1.32907e-08)
(0.383542 8.45593e-09 1.01881e-08)
(0.383541 5.67475e-09 3.11101e-09)
(0.384556 -4.26358e-09 -1.44085e-08)
(0.384556 1.55267e-09 1.26017e-08)
(0.384555 2.64166e-09 1.80164e-09)
(0.384556 4.00448e-09 -1.44296e-08)
(0.384556 -1.44384e-09 1.26531e-08)
(0.384555 -2.55536e-09 1.76927e-09)
(0.383539 1.38363e-08 -1.33558e-08)
(0.383539 -8.23818e-09 1.02612e-08)
(0.383538 -5.61797e-09 3.09539e-09)
(0.381435 1.92904e-08 -1.42147e-08)
(0.381435 -1.59087e-08 9.39193e-09)
(0.381434 -3.38421e-09 4.82105e-09)
(0.378031 2.15149e-08 -1.71004e-08)
(0.37803 -1.9316e-08 1.10929e-08)
(0.378029 -2.20699e-09 6.0121e-09)
(0.373309 2.51719e-08 -1.63074e-08)
(0.373308 -2.37647e-08 1.0619e-08)
(0.373307 -1.42927e-09 5.6872e-09)
(0.381849 -2.30454e-08 -2.06892e-08)
(0.381849 2.21469e-08 1.6361e-08)
(0.381847 9.12002e-10 4.33019e-09)
(0.386732 -1.97752e-08 -2.17424e-08)
(0.386731 1.80009e-08 1.67622e-08)
(0.38673 1.76578e-09 4.99009e-09)
(0.390259 -1.74997e-08 -1.83455e-08)
(0.390259 1.46608e-08 1.39592e-08)
(0.390257 2.82075e-09 4.3933e-09)
(0.392437 -1.27794e-08 -1.67016e-08)
(0.392437 7.54647e-09 1.3497e-08)
(0.392436 5.20279e-09 3.21464e-09)
(0.393481 -4.06239e-09 -1.74599e-08)
(0.393481 1.49434e-09 1.55334e-08)
(0.39348 2.50396e-09 1.92047e-09)
(0.39348 3.8205e-09 -1.74842e-08)
(0.39348 -1.38983e-09 1.55942e-08)
(0.393479 -2.42397e-09 1.88139e-09)
(0.392434 1.24785e-08 -1.67738e-08)
(0.392434 -7.34386e-09 1.35851e-08)
(0.392433 -5.15383e-09 3.18994e-09)
(0.390252 1.7251e-08 -1.83273e-08)
(0.390251 -1.44179e-08 1.40533e-08)
(0.39025 -2.83493e-09 4.27201e-09)
(0.38672 1.95635e-08 -2.17805e-08)
(0.38672 -1.77796e-08 1.68461e-08)
(0.386718 -1.79116e-09 4.94037e-09)
(0.381834 2.28666e-08 -2.07757e-08)
(0.381833 -2.19625e-08 1.64407e-08)
(0.381832 -9.25235e-10 4.33389e-09)
(0.390089 -2.08162e-08 -2.61448e-08)
(0.390088 2.0024e-08 2.38549e-08)
(0.390086 8.05549e-10 2.29217e-09)
(0.39515 -1.78333e-08 -2.75225e-08)
(0.395149 1.62218e-08 2.43292e-08)
(0.395148 1.60375e-09 3.20562e-09)
(0.398815 -1.55801e-08 -2.353e-08)
(0.398815 1.31397e-08 2.03999e-08)
(0.398814 2.42424e-09 3.13832e-09)
(0.40108 -1.15985e-08 -2.13641e-08)
(0.40108 6.80859e-09 1.86854e-08)
(0.401079 4.76529e-09 2.69068e-09)
(0.402154 -3.91178e-09 -2.17186e-08)
(0.402153 1.49071e-09 2.02593e-08)
(0.402152 2.36334e-09 1.45277e-09)
(0.402153 3.68208e-09 -2.17468e-08)
(0.402152 -1.38238e-09 2.0329e-08)
(0.402151 -2.29094e-09 1.40853e-09)
(0.401076 1.13209e-08 -2.14439e-08)
(0.401076 -6.61293e-09 1.8788e-08)
(0.401075 -4.72596e-09 2.65791e-09)
(0.398807 1.53415e-08 -2.35194e-08)
(0.398807 -1.28963e-08 2.0498e-08)
(0.398806 -2.44611e-09 3.01934e-09)
(0.395138 1.76368e-08 -2.75589e-08)
(0.395137 -1.59764e-08 2.44091e-08)
(0.395136 -1.66652e-09 3.15762e-09)
(0.390072 2.06357e-08 -2.62204e-08)
(0.390072 -1.98256e-08 2.39217e-08)
(0.39007 -8.30142e-10 2.29737e-09)
(0.398024 -1.85699e-08 -3.23421e-08)
(0.398023 1.72704e-08 3.28531e-08)
(0.398022 1.313e-09 -5.0948e-10)
(0.403283 -1.58501e-08 -3.42641e-08)
(0.403282 1.39297e-08 3.36603e-08)
(0.403281 1.91353e-09 6.17999e-10)
(0.407102 -1.37027e-08 -2.98023e-08)
(0.407102 1.13433e-08 2.87529e-08)
(0.4071 2.34544e-09 1.05819e-09)
(0.409464 -1.05568e-08 -2.71556e-08)
(0.409463 6.08536e-09 2.58371e-08)
(0.409462 4.45375e-09 1.33241e-09)
(0.410569 -3.79771e-09 -2.70872e-08)
(0.410568 1.51424e-09 2.68507e-08)
(0.410567 2.23347e-09 2.29414e-10)
(0.410567 3.57558e-09 -2.71185e-08)
(0.410567 -1.39461e-09 2.69268e-08)
(0.410566 -2.16962e-09 1.81378e-10)
(0.409459 1.02986e-08 -2.72408e-08)
(0.409459 -5.89101e-09 2.59499e-08)
(0.409457 -4.42398e-09 1.29344e-09)
(0.407094 1.34741e-08 -2.97977e-08)
(0.407093 -1.10993e-08 2.88512e-08)
(0.407092 -2.3744e-09 9.43752e-10)
(0.40327 1.56621e-08 -3.42952e-08)
(0.40327 -1.36652e-08 3.37318e-08)
(0.403268 -2.00137e-09 5.72429e-10)
(0.398007 1.83872e-08 -3.2402e-08)
(0.398006 -1.7057e-08 3.2904e-08)
(0.398005 -1.34884e-09 -5.04507e-10)
(0.405614 -1.62533e-08 -3.86594e-08)
(0.405614 1.36252e-08 4.25687e-08)
(0.405612 2.64172e-09 -3.91093e-09)
(0.411094 -1.37892e-08 -4.14009e-08)
(0.411093 1.09188e-08 4.41439e-08)
(0.411092 2.86439e-09 -2.73091e-09)
(0.415084 -1.18067e-08 -3.68037e-08)
(0.415084 9.05635e-09 3.87621e-08)
(0.415082 2.7391e-09 -1.95214e-09)
(0.417554 -9.60029e-09 -3.3862e-08)
(0.417554 5.22911e-09 3.4929e-08)
(0.417552 4.36171e-09 -1.05488e-09)
(0.418694 -3.7099e-09 -3.33779e-08)
(0.418693 1.53312e-09 3.53307e-08)
(0.418692 2.13584e-09 -1.96424e-09)
(0.418692 3.49125e-09 -3.34097e-08)
(0.418692 -1.39603e-09 3.54089e-08)
(0.41869 -2.08059e-09 -2.0141e-09)
(0.417549 9.35813e-09 -3.39476e-08)
(0.417548 -5.03335e-09 3.50444e-08)
(0.417547 -4.33939e-09 -1.09693e-09)
(0.415075 1.15891e-08 -3.68015e-08)
(0.415074 -8.81436e-09 3.88547e-08)
(0.415073 -2.77265e-09 -2.05956e-09)
(0.41108 1.36062e-08 -4.14224e-08)
(0.411079 -1.06439e-08 4.42014e-08)
(0.411078 -2.96458e-09 -2.77248e-09)
(0.405597 1.60685e-08 -3.86998e-08)
(0.405596 -1.33988e-08 4.26007e-08)
(0.405595 -2.68688e-09 -3.90696e-09)
(0.41279 -1.38846e-08 -4.39897e-08)
(0.412789 9.1416e-09 5.15452e-08)
(0.412789 4.75654e-09 -7.56304e-09)
(0.418514 -1.17012e-08 -4.77047e-08)
(0.418514 7.1877e-09 5.41954e-08)
(0.418513 4.50804e-09 -6.48527e-09)
(0.422696 -9.9083e-09 -4.35712e-08)
(0.422696 6.19119e-09 4.92578e-08)
(0.422695 3.70904e-09 -5.68805e-09)
(0.425288 -8.7094e-09 -4.06783e-08)
(0.425287 4.14381e-09 4.51766e-08)
(0.425286 4.56563e-09 -4.49246e-09)
(0.426466 -3.64676e-09 -3.98007e-08)
(0.426466 1.52164e-09 4.48726e-08)
(0.426465 2.09446e-09 -5.09083e-09)
(0.426464 3.42807e-09 -3.98296e-08)
(0.426464 -1.36401e-09 4.49452e-08)
(0.426463 -2.04545e-09 -5.13832e-09)
(0.425282 8.48085e-09 -4.07572e-08)
(0.425281 -3.94789e-09 4.52823e-08)
(0.42528 -4.54553e-09 -4.53217e-09)
(0.422686 9.70385e-09 -4.35665e-08)
(0.422685 -5.95829e-09 4.93355e-08)
(0.422684 -3.74129e-09 -5.78373e-09)
(0.4185 1.1522e-08 -4.77132e-08)
(0.4185 -6.91558e-09 5.42334e-08)
(0.418499 -4.60576e-09 -6.52096e-09)
(0.412772 1.36995e-08 -4.40089e-08)
(0.412771 -8.90764e-09 5.1557e-08)
(0.412771 -4.8068e-09 -7.56046e-09)
(0.41945 -1.15477e-08 -4.68179e-08)
(0.41945 4.25101e-09 5.73924e-08)
(0.41945 7.30927e-09 -1.0587e-08)
(0.425444 -9.77337e-09 -5.1527e-08)
(0.425443 3.198e-09 6.14779e-08)
(0.425443 6.56995e-09 -9.9409e-09)
(0.429835 -8.17532e-09 -4.84304e-08)
(0.429835 3.0692e-09 5.79363e-08)
(0.429835 5.10168e-09 -9.51582e-09)
(0.432561 -7.93494e-09 -4.6045e-08)
(0.43256 2.87917e-09 5.44236e-08)
(0.43256 5.06683e-09 -8.36082e-09)
(0.433784 -3.62784e-09 -4.48712e-08)
(0.433783 1.46153e-09 5.35977e-08)
(0.433783 2.14694e-09 -8.73425e-09)
(0.433781 3.4057e-09 -4.48931e-08)
(0.433781 -1.28454e-09 5.3658e-08)
(0.43378 -2.09798e-09 -8.77623e-09)
(0.432554 7.71739e-09 -4.61093e-08)
(0.432553 -2.68857e-09 5.45072e-08)
(0.432553 -5.03961e-09 -8.39334e-09)
(0.429824 7.98676e-09 -4.84192e-08)
(0.429824 -2.85573e-09 5.79913e-08)
(0.429823 -5.12419e-09 -9.59547e-09)
(0.425429 9.59693e-09 -5.15216e-08)
(0.425428 -2.94199e-09 6.14928e-08)
(0.425428 -6.65024e-09 -9.96764e-09)
(0.419432 1.13651e-08 -4.68175e-08)
(0.419432 -4.0192e-09 5.7385e-08)
(0.419432 -7.3575e-09 -1.05849e-08)
(0.425456 -9.35839e-09 -4.55398e-08)
(0.425456 1.70284e-10 5.53701e-08)
(0.425456 9.20177e-09 -9.8451e-09)
(0.431735 -8.36111e-09 -5.43373e-08)
(0.431735 3.24761e-11 6.3885e-08)
(0.431735 8.32067e-09 -9.53618e-09)
(0.436351 -6.96991e-09 -4.92058e-08)
(0.43635 5.85189e-10 5.92975e-08)
(0.436351 6.38533e-09 -1.01056e-08)
(0.439219 -7.46437e-09 -4.884e-08)
(0.439219 1.74184e-09 5.72151e-08)
(0.439219 5.75074e-09 -8.31278e-09)
(0.440491 -3.7341e-09 -4.757e-08)
(0.440491 1.37932e-09 5.61491e-08)
(0.440491 2.34795e-09 -8.54656e-09)
(0.440488 3.50296e-09 -4.75816e-08)
(0.440488 -1.18992e-09 5.6188e-08)
(0.440488 -2.28541e-09 -8.57747e-09)
(0.439211 7.25217e-09 -4.88847e-08)
(0.43921 -1.56428e-09 5.72645e-08)
(0.439211 -5.70222e-09 -8.32978e-09)
(0.436339 6.79937e-09 -4.91867e-08)
(0.436338 -4.03382e-10 5.93223e-08)
(0.436339 -6.38738e-09 -1.01623e-08)
(0.43172 8.1819e-09 -5.432e-08)
(0.43172 1.96865e-10 6.38762e-08)
(0.43172 -8.36708e-09 -9.55077e-09)
(0.425438 9.18208e-09 -4.55254e-08)
(0.425438 4.30465e-11 5.53476e-08)
(0.425438 -9.23518e-09 -9.84174e-09)
(0.430613 -8.02933e-09 -3.9038e-08)
(0.430613 -2.14483e-09 4.85274e-08)
(0.430614 1.01869e-08 -9.50474e-09)
(0.437179 -6.81566e-09 -4.40486e-08)
(0.437179 -2.79728e-09 5.40088e-08)
(0.43718 9.61135e-09 -9.96955e-09)
(0.44202 -6.26151e-09 -4.40682e-08)
(0.44202 -1.20273e-09 5.47452e-08)
(0.442021 7.47741e-09 -1.0697e-08)
(0.445031 -6.02127e-09 -4.35467e-08)
(0.445031 8.79678e-10 5.409e-08)
(0.445032 5.18352e-09 -1.04879e-08)
(0.446355 -3.31542e-09 -4.25465e-08)
(0.446355 1.30296e-09 5.30531e-08)
(0.446356 2.01357e-09 -1.0485e-08)
(0.446352 3.10194e-09 -4.25493e-08)
(0.446352 -1.09526e-09 5.30761e-08)
(0.446353 -1.97027e-09 -1.05084e-08)
(0.445022 5.83584e-09 -4.35704e-08)
(0.445022 -7.0371e-10 5.41143e-08)
(0.445023 -5.1467e-09 -1.04992e-08)
(0.442007 6.10868e-09 -4.40442e-08)
(0.442007 1.36518e-09 5.47505e-08)
(0.442008 -7.47055e-09 -1.07374e-08)
(0.437164 6.67207e-09 -4.40268e-08)
(0.437164 2.98112e-09 5.39886e-08)
(0.437165 -9.64342e-09 -9.97652e-09)
(0.430596 7.8621e-09 -3.90166e-08)
(0.430596 2.35025e-09 4.84958e-08)
(0.430597 -1.02188e-08 -9.49865e-09)
(0.434634 -8.39779e-09 -2.67791e-08)
(0.434635 -1.05331e-09 3.29065e-08)
(0.434636 9.46187e-09 -6.13328e-09)
(0.441458 -6.55176e-09 -3.10909e-08)
(0.441458 -3.04202e-09 3.79246e-08)
(0.441459 9.59324e-09 -6.83942e-09)
(0.446501 -5.93562e-09 -3.16195e-08)
(0.446502 -1.98389e-09 3.96617e-08)
(0.446503 7.93704e-09 -8.06253e-09)
(0.44964 -5.34685e-09 -3.20469e-08)
(0.44964 4.3614e-10 4.04303e-08)
(0.449641 4.95957e-09 -8.38282e-09)
(0.451013 -3.0903e-09 -3.14157e-08)
(0.451013 1.25939e-09 3.97363e-08)
(0.451014 1.83871e-09 -8.34818e-09)
(0.451009 2.8877e-09 -3.14122e-08)
(0.451009 -1.0336e-09 3.97418e-08)
(0.451011 -1.80897e-09 -8.35952e-09)
(0.44963 5.17849e-09 -3.20539e-08)
(0.44963 -2.57194e-10 4.04285e-08)
(0.449632 -4.93044e-09 -8.38138e-09)
(0.446488 5.79782e-09 -3.1597e-08)
(0.446489 2.13128e-09 3.9651e-08)
(0.44649 -7.92332e-09 -8.08221e-09)
(0.441443 6.43174e-09 -3.10699e-08)
(0.441443 3.19218e-09 3.78983e-08)
(0.441445 -9.61098e-09 -6.83809e-09)
(0.434618 8.24088e-09 -2.67584e-08)
(0.434618 1.24675e-09 3.28755e-08)
(0.43462 -9.48951e-09 -6.12591e-09)
(0.437051 -9.73405e-09 -9.60395e-09)
(0.437051 2.01161e-09 1.16747e-08)
(0.437053 7.73343e-09 -2.06911e-09)
(0.444047 -7.1917e-09 -1.13752e-08)
(0.444047 -1.36152e-09 1.37506e-08)
(0.444049 8.5512e-09 -2.37277e-09)
(0.449228 -6.08071e-09 -1.16857e-08)
(0.449228 -1.5502e-09 1.4618e-08)
(0.44923 7.64618e-09 -2.9392e-09)
(0.452451 -5.21728e-09 -1.20447e-08)
(0.452451 5.2282e-10 1.51497e-08)
(0.452453 4.7449e-09 -3.11003e-09)
(0.453857 -3.00128e-09 -1.18378e-08)
(0.453858 1.27967e-09 1.49251e-08)
(0.453859 1.73319e-09 -3.10406e-09)
(0.453853 2.80554e-09 -1.18352e-08)
(0.453854 -1.04495e-09 1.49253e-08)
(0.453855 -1.70828e-09 -3.1076e-09)
(0.452441 5.05883e-09 -1.20453e-08)
(0.452441 -3.43199e-10 1.51458e-08)
(0.452443 -4.71756e-09 -3.10824e-09)
(0.449215 5.95309e-09 -1.16761e-08)
(0.449215 1.68597e-09 1.46113e-08)
(0.449217 -7.62598e-09 -2.94499e-09)
(0.444033 7.08487e-09 -1.13661e-08)
(0.444033 1.48896e-09 1.37386e-08)
(0.444035 -8.55629e-09 -2.37129e-09)
(0.437036 9.5847e-09 -9.59514e-09)
(0.437036 -1.8283e-09 1.16613e-08)
(0.437038 -7.75659e-09 -2.0656e-09)
)
;

boundaryField
{
    freeSurface
    {
        type            slip;
    }
    inlet
    {
        type            cyclic;
    }
    outlet
    {
        type            cyclic;
    }
    sidewalls
    {
        type            fixedValue;
        value           nonuniform 0();
    }
    noSlipWalls
    {
        type            fixedValue;
        value           uniform (0 0 0);
    }
    procBoundary1to0
    {
        type            processor;
        value           nonuniform List<vector> 
72
(
(0.106432 -1.39451e-08 -6.27679e-11)
(0.106434 1.25262e-08 -1.09873e-10)
(0.106433 1.41766e-09 1.72658e-10)
(0.184592 -2.27674e-08 -4.01006e-10)
(0.184594 1.95997e-08 -5.28929e-10)
(0.184593 3.16501e-09 9.30037e-10)
(0.222923 -2.64251e-08 -6.42561e-10)
(0.222925 2.22877e-08 -9.04328e-10)
(0.222924 4.13405e-09 1.54696e-09)
(0.248314 -2.84028e-08 -9.52358e-10)
(0.248315 2.36872e-08 -1.36153e-09)
(0.248315 4.71199e-09 2.31384e-09)
(0.267551 -2.95525e-08 -1.32984e-09)
(0.267552 2.4551e-08 -1.86384e-09)
(0.267551 4.99768e-09 3.19354e-09)
(0.283341 -3.01935e-08 -1.78222e-09)
(0.283342 2.51723e-08 -2.36577e-09)
(0.283341 5.01738e-09 4.14777e-09)
(0.296977 -3.04651e-08 -2.32765e-09)
(0.296978 2.57016e-08 -2.8145e-09)
(0.296977 4.75984e-09 5.14178e-09)
(0.309163 -3.04303e-08 -2.96856e-09)
(0.309164 2.6238e-08 -3.14221e-09)
(0.309163 4.18858e-09 6.11028e-09)
(0.32032 -3.03453e-08 -3.79047e-09)
(0.320321 2.66897e-08 -3.25038e-09)
(0.320319 3.65215e-09 7.04031e-09)
(0.330715 -2.96552e-08 -4.82373e-09)
(0.330715 2.65502e-08 -2.9931e-09)
(0.330714 3.1018e-09 7.81624e-09)
(0.340526 -2.82999e-08 -6.15113e-09)
(0.340526 2.57919e-08 -2.17043e-09)
(0.340525 2.50511e-09 8.32077e-09)
(0.349873 -2.61797e-08 -7.87109e-09)
(0.349873 2.43302e-08 -5.78758e-10)
(0.349872 1.84728e-09 8.44869e-09)
(0.358836 -2.42553e-08 -1.02345e-08)
(0.358836 2.30528e-08 2.10389e-09)
(0.358834 1.20059e-09 8.12923e-09)
(0.367465 -2.24604e-08 -1.34115e-08)
(0.367465 2.17282e-08 6.11394e-09)
(0.367463 7.30619e-10 7.29609e-09)
(0.375785 -2.07279e-08 -1.75093e-08)
(0.375784 2.01456e-08 1.16191e-08)
(0.375783 5.81045e-10 5.88844e-09)
(0.383798 -1.90083e-08 -2.24846e-08)
(0.383797 1.80895e-08 1.86089e-08)
(0.383796 9.17708e-10 3.87338e-09)
(0.391484 -1.72813e-08 -2.80269e-08)
(0.391483 1.53603e-08 2.67882e-08)
(0.391481 1.92006e-09 1.23486e-09)
(0.398799 -1.55866e-08 -3.34905e-08)
(0.398798 1.19241e-08 3.53382e-08)
(0.398797 3.66152e-09 -1.85398e-09)
(0.405678 -1.40591e-08 -3.7865e-08)
(0.405677 8.11214e-09 4.28174e-08)
(0.405677 5.94556e-09 -4.96052e-09)
(0.412028 -1.29481e-08 -3.98343e-08)
(0.412027 4.73511e-09 4.59569e-08)
(0.412027 8.21075e-09 -6.13039e-09)
(0.417725 -1.25822e-08 -3.83051e-08)
(0.417726 2.81564e-09 4.52724e-08)
(0.417726 9.76348e-09 -6.97669e-09)
(0.422601 -1.32865e-08 -3.23521e-08)
(0.422601 3.32888e-09 3.84164e-08)
(0.422602 9.9536e-09 -6.07473e-09)
(0.426395 -1.50956e-08 -2.18245e-08)
(0.426395 6.75522e-09 2.54016e-08)
(0.426397 8.33596e-09 -3.57991e-09)
(0.428674 -1.72738e-08 -7.74198e-09)
(0.428674 1.1296e-08 8.889e-09)
(0.428676 5.97503e-09 -1.14528e-09)
)
;
    }
    procBoundary1to2
    {
        type            processor;
        value           nonuniform List<vector> 
72
(
(0.10643 1.38768e-08 -6.3156e-11)
(0.106431 -1.2508e-08 -1.06127e-10)
(0.10643 -1.37081e-09 1.69287e-10)
(0.18459 2.2659e-08 -4.02502e-10)
(0.184591 -1.95661e-08 -5.1042e-10)
(0.18459 -3.09612e-09 9.12977e-10)
(0.22292 2.63026e-08 -6.45945e-10)
(0.222921 -2.22498e-08 -8.73402e-10)
(0.22292 -4.05654e-09 1.51932e-09)
(0.24831 2.82748e-08 -9.58662e-10)
(0.248311 -2.36484e-08 -1.31577e-09)
(0.24831 -4.63054e-09 2.27423e-09)