/*--------------------------------*- C++ -*----------------------------------*\
  =========                 |
  \\      /  F ield         | OpenFOAM: The Open Source CFD Toolbox
   \\    /   O peration     | Website:  https://openfoam.org
    \\  /    A nd           | Version:  6
     \\/     M anipulation  |
\*---------------------------------------------------------------------------*/
FoamFile
{
    version     2.0;
    format      ascii;
    class       volVectorField;
    location    "24";
    object      wallShearStress;
}
// * * * * * * * * * * * * * * * * * * * * * * * * * * * * * * * * * * * * * //

dimensions      [0 2 -2 0 0 0 0];

internalField   uniform (0 0 0);

boundaryField
{
    inlet
    {
        type            calculated;
        value           uniform (0 0 0);
    }
    outlet
    {
        type            calculated;
        value           uniform (0 0 0);
    }
    roughCylinder
    {
        type            calculated;
        value           nonuniform List<vector> 
5120
(
(-0.000442147 -0.000632302 -0.000333776)
(-0.000386186 -0.000561421 -3.79383e-05)
(-0.000348284 -0.000543746 1.57709e-06)
(-0.000383823 -0.000603365 4.89971e-05)
(-0.000450302 -0.000681677 0.000104406)
(-0.000520827 -0.000742042 0.000156877)
(-0.000592111 -0.000782005 0.00020311)
(-0.000659869 -0.000803734 0.00024188)
(-0.000721582 -0.000811206 0.000272437)
(-0.000777191 -0.000812019 0.000295587)
(-0.00082771 -0.000813426 0.000313335)
(-0.000870255 -0.000816008 0.000324913)
(-0.000906115 -0.000822844 0.000330664)
(-0.000936769 -0.000834054 0.000331601)
(-0.000963237 -0.000849025 0.000328863)
(-0.000987162 -0.000866994 0.000323558)
(-0.00100998 -0.000887087 0.000316503)
(-0.00103312 -0.00090893 0.000308302)
(-0.00105727 -0.000932123 0.000299184)
(-0.00108281 -0.000956525 0.000289221)
(-0.00110986 -0.000982104 0.000278401)
(-0.00113841 -0.00100881 0.000266656)
(-0.00116831 -0.00103655 0.000253872)
(-0.00119937 -0.00106514 0.000239896)
(-0.00123133 -0.00109433 0.000224482)
(-0.00126383 -0.00112375 0.000207267)
(-0.00129637 -0.00115293 0.000187699)
(-0.00132824 -0.00118116 0.00016503)
(-0.00135844 -0.00120756 0.00013813)
(-0.00138547 -0.00123081 0.000105843)
(-0.00140659 -0.00124922 6.64527e-05)
(-0.00141814 -0.00125995 2.22215e-05)
(-0.000483645 -0.000629672 -0.000331299)
(-0.000416904 -0.000553189 -4.18264e-05)
(-0.000370472 -0.000530494 -4.74654e-06)
(-0.000403147 -0.000585698 3.9723e-05)
(-0.000471069 -0.000664455 9.31277e-05)
(-0.000543518 -0.000726579 0.000144322)
(-0.000616743 -0.000768729 0.000189708)
(-0.000686853 -0.000793136 0.000228054)
(-0.000751879 -0.000804416 0.000258933)
(-0.000811799 -0.000809495 0.000283362)
(-0.000866008 -0.00081315 0.000302487)
(-0.000911977 -0.000815473 0.000315252)
(-0.000949564 -0.000820995 0.0003216)
(-0.000981737 -0.00083118 0.000322833)
(-0.00100974 -0.000845503 0.000320329)
(-0.00103504 -0.000862961 0.000315155)
(-0.00105938 -0.00088286 0.000308269)
(-0.0010838 -0.00090438 0.000300182)
(-0.00110926 -0.000927298 0.000291224)
(-0.00113621 -0.000951488 0.000281499)
(-0.00116473 -0.000976857 0.000270982)
(-0.00119477 -0.00100331 0.000259591)
(-0.00122619 -0.00103076 0.000247216)
(-0.00125879 -0.00105903 0.000233695)
(-0.00129227 -0.00108786 0.000218775)
(-0.00132627 -0.00111689 0.000202098)
(-0.00136026 -0.00114565 0.00018311)
(-0.00139353 -0.00117348 0.000161071)
(-0.00142501 -0.00119948 0.000134866)
(-0.00145315 -0.00122237 0.000103365)
(-0.00147514 -0.00124049 6.48899e-05)
(-0.00148717 -0.00125103 2.16883e-05)
(-0.00049898 -0.000587954 -0.000296916)
(-0.000444433 -0.000530695 -4.63468e-05)
(-0.000393379 -0.000513369 -1.17218e-05)
(-0.000421841 -0.000563161 2.98694e-05)
(-0.000490111 -0.000640845 8.09344e-05)
(-0.000564109 -0.000704216 0.000130652)
(-0.000639153 -0.00074854 0.000175149)
(-0.000712002 -0.000776342 0.000213348)
(-0.000780846 -0.000792035 0.000244948)
(-0.000844793 -0.00080099 0.000270592)
(-0.000902645 -0.00080689 0.000290756)
(-0.00095234 -0.000810263 0.000304657)
(-0.000992005 -0.000814107 0.00031154)
(-0.00102581 -0.000823256 0.000313159)
(-0.00105532 -0.000836647 0.000310891)
(-0.00108219 -0.000853518 0.000305951)
(-0.00110775 -0.000872732 0.000299189)
(-0.00113365 -0.000893898 0.00029132)
(-0.00116058 -0.000916491 0.000282616)
(-0.0011889 -0.000940268 0.000273169)
(-0.00121879 -0.000965169 0.000262979)
(-0.00125025 -0.00099115 0.000251979)
(-0.00128311 -0.00101808 0.000240049)
(-0.00131715 -0.0010458 0.000227021)
(-0.00135211 -0.00107407 0.000212645)
(-0.00138754 -0.00110251 0.000196551)
(-0.00142292 -0.00113066 0.00017819)
(-0.00145749 -0.00115787 0.000156827)
(-0.00149018 -0.00118329 0.000131369)
(-0.00151936 -0.00120565 0.000100711)
(-0.00154216 -0.00122336 6.3219e-05)
(-0.00155463 -0.00123364 2.11194e-05)
(-0.000583819 -0.000614029 -0.000299282)
(-0.00045932 -0.00049959 -4.92577e-05)
(-0.000408013 -0.000483619 -1.80756e-05)
(-0.000434883 -0.000532908 1.96779e-05)
(-0.000503759 -0.000610363 6.79238e-05)
(-0.000579559 -0.000675359 0.000115949)
(-0.000657049 -0.000722699 0.000159574)
(-0.000732986 -0.000754433 0.000197699)
(-0.000805389 -0.000774402 0.000230006)
(-0.000873365 -0.000787248 0.000256884)
(-0.000934867 -0.000795409 0.00027807)
(-0.000987783 -0.000799961 0.000292795)
(-0.00103108 -0.000803445 0.000300612)
(-0.00106655 -0.000811006 0.000302669)
(-0.0010978 -0.000823378 0.000300743)
(-0.0011261 -0.000839306 0.000296049)
(-0.00115345 -0.000858081 0.00028962)
(-0.00118067 -0.000878603 0.000281985)
(-0.00120886 -0.000900565 0.000273539)
(-0.00123858 -0.000923817 0.00026443)
(-0.00126993 -0.000948215 0.000254644)
(-0.00130281 -0.000973626 0.000244091)
(-0.0013371 -0.000999949 0.000232656)
(-0.00137256 -0.00102701 0.000220167)
(-0.00140886 -0.00105455 0.000206362)
(-0.00144561 -0.00108222 0.000190877)
(-0.00148225 -0.0011096 0.000173164)
(-0.00151801 -0.00113604 0.000152499)
(-0.00155178 -0.00116073 0.000127807)
(-0.00158189 -0.00118243 9.8009e-05)
(-0.0016054 -0.00119962 6.15194e-05)
(-0.00161826 -0.00120958 2.05422e-05)
(-0.00073063 -0.000680931 -0.000323899)
(-0.000497419 -0.000496081 -5.34049e-05)
(-0.000426695 -0.000458434 -2.46689e-05)
(-0.000444963 -0.000500172 9.41993e-06)
(-0.000512865 -0.000575699 5.45587e-05)
(-0.000589981 -0.000641709 0.000100591)
(-0.000669346 -0.000691413 0.000143032)
(-0.000748204 -0.000726896 0.000180913)
(-0.000824567 -0.000751441 0.000213938)
(-0.000896194 -0.000767773 0.000241867)
(-0.000961232 -0.000778138 0.000264078)
(-0.00101784 -0.000784209 0.000279695)
(-0.0010649 -0.000788203 0.000288484)
(-0.00110329 -0.000794302 0.000291301)
(-0.00113628 -0.000805341 0.000289845)
(-0.00116652 -0.000820377 0.000285586)
(-0.00119507 -0.000838007 0.000279416)
(-0.00122388 -0.000857865 0.000272154)
(-0.00125366 -0.000879283 0.000264111)
(-0.00128473 -0.000901859 0.000255399)
(-0.00131733 -0.000925484 0.000246034)
(-0.00135148 -0.000950107 0.000235959)
(-0.00138702 -0.0009756 0.000225048)
(-0.00142372 -0.00100178 0.000213123)
(-0.00146127 -0.00102843 0.000199926)
(-0.00149922 -0.00105519 0.000185082)
(-0.00153699 -0.00108163 0.000168044)
(-0.0015738 -0.00110714 0.000148097)
(-0.00160852 -0.00113094 0.000124187)
(-0.00163946 -0.00115186 9.52677e-05)
(-0.0016636 -0.00116843 5.97986e-05)
(-0.00167677 -0.00117801 1.99588e-05)
(-0.000655644 -0.000550049 -0.000239408)
(-0.000518642 -0.000461468 -5.6835e-05)
(-0.000437363 -0.000426244 -3.15777e-05)
(-0.000448014 -0.000461744 -9.39143e-07)
(-0.000514693 -0.000535149 4.08017e-05)
(-0.000593102 -0.000602399 8.44705e-05)
(-0.000675171 -0.000655424 0.000125597)
(-0.000757539 -0.000695125 0.00016317)
(-0.000837175 -0.000723363 0.00019657)
(-0.000912596 -0.000743078 0.000225439)
(-0.000981399 -0.000755757 0.000248696)
(-0.00104142 -0.000763025 0.000265184)
(-0.00109248 -0.000768052 0.000274951)
(-0.0011348 -0.00077372 0.000278798)
(-0.00117029 -0.000782935 0.000278059)
(-0.00120212 -0.000796417 0.000274265)
(-0.0012329 -0.000813358 0.000268688)
(-0.00126318 -0.000832229 0.000261851)
(-0.00129415 -0.000852616 0.000254207)
(-0.00132657 -0.000874336 0.000245965)
(-0.00136059 -0.000897179 0.000237128)
(-0.00139608 -0.000920952 0.000227608)
(-0.0014329 -0.000945533 0.000217284)
(-0.00147084 -0.000970751 0.000205976)
(-0.0015095 -0.000996345 0.000193414)
(-0.00154849 -0.00102202 0.000179232)
(-0.00158724 -0.00104735 0.000162885)
(-0.00162497 -0.00107178 0.00014367)
(-0.0016605 -0.00109455 0.000120552)
(-0.00169213 -0.00111454 9.25161e-05)
(-0.00171679 -0.00113038 5.80741e-05)
(-0.00173022 -0.00113954 1.93757e-05)
(-0.000577596 -0.0004337 -0.00016641)
(-0.000522874 -0.000412813 -5.94371e-05)
(-0.000446386 -0.000393919 -3.81891e-05)
(-0.000447404 -0.000422585 -1.10634e-05)
(-0.000511006 -0.00049258 2.70006e-05)
(-0.000590144 -0.000560516 6.79703e-05)
(-0.000673635 -0.000615582 0.000107291)
(-0.000758377 -0.000658339 0.000144069)
(-0.000842155 -0.000690785 0.000177788)
(-0.000921336 -0.000713568 0.000207376)
(-0.000993726 -0.00072829 0.000231542)
(-0.00105805 -0.000737332 0.000249187)
(-0.0011129 -0.000743131 0.00025996)
(-0.00115943 -0.000749188 0.000264905)
(-0.00119863 -0.00075734 0.000265178)
(-0.00123341 -0.000769347 0.000262268)
(-0.00126549 -0.00078426 0.000257169)
(-0.00129753 -0.000801979 0.000250934)
(-0.00133033 -0.000821556 0.000243913)
(-0.00136417 -0.000842311 0.000236232)
(-0.00139931 -0.000864051 0.000227942)
(-0.0014359 -0.000886715 0.000219007)
(-0.00147377 -0.000910148 0.000209298)
(-0.00151269 -0.000934168 0.000198632)
(-0.00155235 -0.000958573 0.000186747)
(-0.00159227 -0.000983027 0.000173262)
(-0.00163186 -0.00100713 0.000157634)
(-0.00167033 -0.00103035 0.000139169)
(-0.00170654 -0.00105197 0.000116861)
(-0.00173874 -0.00107094 8.97264e-05)
(-0.00176384 -0.00108599 5.63301e-05)
(-0.00177743 -0.00109467 1.87879e-05)
(-0.000634632 -0.000418608 -0.00014486)
(-0.000519351 -0.000369181 -6.02627e-05)
(-0.000444207 -0.000353803 -4.38172e-05)
(-0.000437502 -0.000378692 -2.06935e-05)
(-0.000497195 -0.000445114 1.31274e-05)
(-0.000576391 -0.000513159 5.07684e-05)
(-0.000662377 -0.000571222 8.79697e-05)
(-0.000751169 -0.000618342 0.000123855)
(-0.000837958 -0.000653807 0.000157355)
(-0.000921065 -0.000679547 0.000187456)
(-0.000997936 -0.000696779 0.000212591)
(-0.00106598 -0.000707064 0.00023127)
(-0.00112539 -0.000714027 0.00024336)
(-0.00117574 -0.000720187 0.000249434)
(-0.00121913 -0.000728156 0.000250913)
(-0.00125679 -0.000738634 0.000248921)
(-0.00129258 -0.000752674 0.000244951)
(-0.00132664 -0.000768896 0.000239503)
(-0.0013606 -0.000786827 0.000233078)
(-0.00139577 -0.000806277 0.000226038)
(-0.00143237 -0.000826914 0.000218437)
(-0.00147025 -0.000848439 0.000210191)
(-0.00150929 -0.000870682 0.000201178)
(-0.00154925 -0.00089348 0.000191219)
(-0.00158976 -0.000916559 0.00018004)
(-0.0016304 -0.00093966 0.00016727)
(-0.00167064 -0.000962405 0.000152375)
(-0.0017097 -0.000984295 0.000134671)
(-0.00174641 -0.00100463 0.000113175)
(-0.00177903 -0.00102245 8.6941e-05)
(-0.00180443 -0.00103661 5.45924e-05)
(-0.0018181 -0.00104485 1.82049e-05)
(-0.000700791 -0.000407275 -0.000122179)
(-0.00052476 -0.000333222 -6.21356e-05)
(-0.000440036 -0.000315909 -4.89987e-05)
(-0.00042324 -0.000335651 -2.96793e-05)
(-0.000476939 -0.000397159 -4.12746e-07)
(-0.000555868 -0.000465113 3.34824e-05)
(-0.000642461 -0.000524489 6.79441e-05)
(-0.000732185 -0.000573308 0.000102064)
(-0.000823374 -0.000612738 0.000135181)
(-0.000910818 -0.000641545 0.000165554)
(-0.000991535 -0.000660671 0.000191355)
(-0.00106483 -0.000673063 0.00021135)
(-0.00112849 -0.000680848 0.000224785)
(-0.0011837 -0.000687611 0.00023239)
(-0.0012307 -0.000695024 0.000235114)
(-0.00127283 -0.000705188 0.000234518)
(-0.00131063 -0.000717558 0.000231482)
(-0.00134713 -0.000732395 0.000227013)
(-0.00138368 -0.000749246 0.000221571)
(-0.00142064 -0.000767436 0.000215375)
(-0.00145838 -0.00078662 0.000208519)
(-0.00149724 -0.000806712 0.000201009)
(-0.00153711 -0.000827519 0.000192736)
(-0.00157778 -0.00084885 0.000183519)
(-0.00161897 -0.000870508 0.000173098)
(-0.00166021 -0.000892177 0.000161092)
(-0.00170093 -0.000913489 0.000146966)
(-0.00174037 -0.000933952 0.000130049)
(-0.00177746 -0.000952973 0.000109394)
(-0.00181041 -0.000969618 8.40915e-05)
(-0.00183601 -0.000982863 5.28226e-05)
(-0.00184953 -0.000990568 1.76127e-05)
(-0.000624262 -0.000318626 -8.03783e-05)
(-0.00050511 -0.000285824 -6.13e-05)
(-0.000423579 -0.000273541 -5.23308e-05)
(-0.000398518 -0.000289536 -3.73746e-05)
(-0.000444532 -0.000345096 -1.32289e-05)
(-0.000520786 -0.000411027 1.60451e-05)
(-0.00060875 -0.00047238 4.71047e-05)
(-0.000703525 -0.000526056 7.9308e-05)
(-0.00079737 -0.000568009 0.000111255)
(-0.000888756 -0.000599501 0.000141465)
(-0.000975143 -0.000621591 0.000168036)
(-0.00105259 -0.000635196 0.000189054)
(-0.00112172 -0.000644328 0.000204121)
(-0.00118116 -0.000651147 0.000213285)
(-0.00123319 -0.000658656 0.000217733)
(-0.00127799 -0.000667424 0.000218398)
(-0.0013201 -0.000679274 0.000216859)
(-0.00135933 -0.000692866 0.000213561)
(-0.00139728 -0.000707988 0.00020906)
(-0.00143572 -0.000724694 0.000203806)
(-0.00147513 -0.000742653 0.000197905)
(-0.00151535 -0.000761459 0.000191299)
(-0.00155631 -0.000780924 0.000183893)
(-0.0015978 -0.000800844 0.000175516)
(-0.00163951 -0.000820987 0.000165906)
(-0.00168106 -0.000841096 0.0001547)
(-0.00172197 -0.000860861 0.000141373)
(-0.00176159 -0.00087986 0.000125278)
(-0.00179878 -0.000897491 0.000105492)
(-0.00183182 -0.00091291 8.11507e-05)
(-0.00185743 -0.000925183 5.09967e-05)
(-0.00187073 -0.000932295 1.70033e-05)
(-0.000533211 -0.000234574 -4.91289e-05)
(-0.000468998 -0.000238303 -5.82958e-05)
(-0.000403726 -0.000233744 -5.50454e-05)
(-0.000368883 -0.000245527 -4.38954e-05)
(-0.000405168 -0.00029415 -2.47459e-05)
(-0.000479471 -0.000358554 -5.78123e-07)
(-0.000567012 -0.000420366 2.63408e-05)
(-0.000659744 -0.00047358 5.52843e-05)
(-0.000758172 -0.000519473 8.56513e-05)
(-0.000854831 -0.000554523 0.00011537)
(-0.00094516 -0.000578418 0.000142126)
(-0.00102922 -0.000594603 0.00016446)
(-0.00110327 -0.000604542 0.000181065)
(-0.00116872 -0.00061216 0.00019223)
(-0.00122466 -0.000618951 0.000198402)
(-0.00127516 -0.000627708 0.000201062)
(-0.00131932 -0.000637691 0.000200836)
(-0.00136104 -0.000649782 0.000198859)
(-0.00140206 -0.00066388 0.000195711)
(-0.00144252 -0.000679254 0.000191605)
(-0.00148288 -0.000695522 0.000186675)
(-0.00152377 -0.000712644 0.000180994)
(-0.00156518 -0.000730409 0.00017448)
(-0.00160702 -0.000748655 0.000166985)
(-0.00164899 -0.000767166 0.000158252)
(-0.0016907 -0.000785669 0.000147914)
(-0.00173162 -0.000803838 0.000135446)
(-0.00177109 -0.000821263 0.000120217)
(-0.00180815 -0.000837451 0.000101353)
(-0.0018411 -0.000851622 7.80315e-05)
(-0.00186655 -0.000862891 4.90628e-05)
(-0.00187951 -0.000869355 1.63593e-05)
(-0.000532906 -0.000201561 -2.92186e-05)
(-0.000442066 -0.000199422 -5.65576e-05)
(-0.000373236 -0.000193339 -5.64443e-05)
(-0.000331339 -0.000202012 -4.87348e-05)
(-0.000352973 -0.000240604 -3.41853e-05)
(-0.000419736 -0.000299332 -1.58026e-05)
(-0.000505813 -0.000360807 5.8945e-06)
(-0.000605731 -0.000420173 3.11057e-05)
(-0.000706041 -0.000468181 5.8777e-05)
(-0.000806143 -0.000505714 8.71882e-05)
(-0.000903778 -0.000533531 0.000114185)
(-0.000992362 -0.000551012 0.000137313)
(-0.00107318 -0.00056264 0.000155727)
(-0.00114335 -0.000570159 0.000168784)
(-0.00120572 -0.000577254 0.000177269)
(-0.00125877 -0.000584231 0.000181644)
(-0.00130832 -0.000593771 0.000183484)
(-0.00135354 -0.000604647 0.000183177)
(-0.00139586 -0.000616727 0.0001813)
(-0.00143771 -0.000630344 0.000178412)
(-0.00147991 -0.000645245 0.000174706)
(-0.00152222 -0.000660955 0.000170155)
(-0.0015647 -0.000677269 0.000164703)
(-0.0016071 -0.000693936 0.000158197)
(-0.00164922 -0.000710776 0.000150399)
(-0.00169077 -0.000727561 0.000140959)
(-0.00173136 -0.000744041 0.000129374)
(-0.00177052 -0.000759885 0.000115042)
(-0.0018072 -0.000774582 9.71185e-05)
(-0.00183978 -0.000787444 7.48386e-05)
(-0.00186488 -0.000797666 4.70845e-05)
(-0.00187744 -0.000803479 1.57028e-05)
(-0.000456511 -0.000149512 -6.43122e-06)
(-0.000399869 -0.000157314 -5.43158e-05)
(-0.00033589 -0.000156236 -5.66737e-05)
(-0.000285854 -0.000160084 -5.08934e-05)
(-0.000295208 -0.000189956 -4.07194e-05)
(-0.000356305 -0.000244224 -2.87361e-05)
(-0.000441212 -0.000305385 -1.30891e-05)
(-0.000532903 -0.000360406 6.99523e-06)
(-0.00063804 -0.000412772 3.11826e-05)
(-0.000744786 -0.000455038 5.76795e-05)
(-0.000845813 -0.000484677 8.3901e-05)
(-0.000942741 -0.00050574 0.000108)
(-0.00102909 -0.000518374 0.000127934)
(-0.00110689 -0.000527133 0.000143358)
(-0.00117332 -0.000533207 0.00015398)
(-0.00123387 -0.000540476 0.000161006)
(-0.00128553 -0.000547832 0.000164662)
(-0.00133329 -0.000556887 0.000166113)
(-0.00137948 -0.000567926 0.000166037)
(-0.00142384 -0.000580127 0.00016466)
(-0.00146682 -0.000593098 0.000162178)
(-0.00150949 -0.000606876 0.000158752)
(-0.00155194 -0.000621242 0.00015435)
(-0.0015943 -0.000636084 0.000148872)
(-0.00163626 -0.000651151 0.000142073)
(-0.0016775 -0.000666231 0.000133604)
(-0.00171762 -0.000681031 0.000122964)
(-0.00175607 -0.000695215 0.000109567)
(-0.00179213 -0.000708405 9.26379e-05)
(-0.00182417 -0.000719962 7.14599e-05)
(-0.00184877 -0.000729136 4.49954e-05)
(-0.00186076 -0.000734271 1.50119e-05)
(-0.000331104 -9.23875e-05 9.55179e-06)
(-0.000326986 -0.000111719 -4.94146e-05)
(-0.000286329 -0.000120346 -5.51904e-05)
(-0.000239183 -0.000123809 -5.16281e-05)
(-0.000225203 -0.00013821 -4.2546e-05)
(-0.000271701 -0.000181403 -3.65374e-05)
(-0.000348706 -0.00023741 -2.79993e-05)
(-0.000453176 -0.000302077 -1.50072e-05)
(-0.000557538 -0.000355385 4.01298e-06)
(-0.000665881 -0.000399776 2.73247e-05)
(-0.00077648 -0.000435234 5.25008e-05)
(-0.000877689 -0.000457956 7.66499e-05)
(-0.000972382 -0.000473243 9.82089e-05)
(-0.00105501 -0.000481961 0.000115625)
(-0.00112975 -0.000488902 0.000129037)
(-0.00119228 -0.000493906 0.000138182)
(-0.00125068 -0.00050093 0.000144471)
(-0.00130305 -0.000508838 0.000148138)
(-0.00135032 -0.000517537 0.000149704)
(-0.00139588 -0.000527689 0.000149855)
(-0.001441 -0.000539192 0.000148897)
(-0.0014853 -0.000551496 0.000146856)
(-0.00152895 -0.000564387 0.00014373)
(-0.00157166 -0.000577568 0.000139396)
(-0.00161341 -0.000590907 0.000133657)
(-0.00165398 -0.000604203 0.00012618)
(-0.00169321 -0.000617269 0.000116494)
(-0.00173085 -0.000629856 0.000104055)
(-0.00176601 -0.000641538 8.81234e-05)
(-0.00179722 -0.000651765 6.80522e-05)
(-0.00182111 -0.000659882 4.28916e-05)
(-0.00183249 -0.000664382 1.43196e-05)
(-0.000191586 -4.3699e-05 1.68054e-05)
(-0.000230398 -6.81806e-05 -4.10205e-05)
(-0.000216001 -8.26457e-05 -5.03347e-05)
(-0.000180325 -8.76266e-05 -4.80588e-05)
(-0.00015991 -9.48046e-05 -4.02084e-05)
(-0.000189738 -0.000124974 -3.87944e-05)
(-0.000266789 -0.000180832 -3.95933e-05)
(-0.000347448 -0.000231887 -3.2781e-05)
(-0.000459135 -0.000292108 -2.05233e-05)
(-0.000576251 -0.000343496 -2.0949e-06)
(-0.000687874 -0.000380656 2.04492e-05)
(-0.000799654 -0.000409087 4.43394e-05)
(-0.000899786 -0.000426077 6.67931e-05)
(-0.000992007 -0.000437275 8.65011e-05)
(-0.00107022 -0.000443133 0.00010217)
(-0.00114264 -0.000449192 0.000114443)
(-0.0012029 -0.000453827 0.000122964)
(-0.00125751 -0.000459603 0.000128765)
(-0.00130969 -0.000467323 0.000132575)
(-0.00135846 -0.000476075 0.000134617)
(-0.00140415 -0.000485458 0.000135145)
(-0.00144836 -0.000495626 0.00013443)
(-0.00149137 -0.000506385 0.000132509)
(-0.00153355 -0.000517638 0.000129342)
(-0.00157466 -0.000529173 0.000124721)
(-0.00161447 -0.00054077 0.000118314)
(-0.0016527 -0.000552184 0.000109648)
(-0.001689 -0.000563122 9.82009e-05)
(-0.001723 -0.000573323 8.33228e-05)
(-0.00175322 -0.000582278 6.44279e-05)
(-0.00177625 -0.000589372 4.06582e-05)
(-0.00178681 -0.000593227 1.3587e-05)
(-7.04201e-05 -1.19211e-05 1.29048e-05)
(-0.000129085 -3.44286e-05 -2.69782e-05)
(-0.000136901 -4.74245e-05 -4.04513e-05)
(-0.000122908 -5.59836e-05 -4.30106e-05)
(-6.87964e-05 -4.04459e-05 -2.4253e-05)
(-7.01686e-05 -4.69167e-05 -2.13077e-05)
(-0.000131733 -9.11995e-05 -3.14922e-05)
(-0.000251881 -0.000169598 -4.39167e-05)
(-0.000351756 -0.000225843 -4.09501e-05)
(-0.000466219 -0.000279409 -2.84358e-05)
(-0.000591342 -0.000326323 -1.00137e-05)
(-0.000705228 -0.00035696 1.21145e-05)
(-0.000815488 -0.00037881 3.50008e-05)
(-0.000911423 -0.000390542 5.60818e-05)
(-0.00100021 -0.000398772 7.44255e-05)
(-0.00107287 -0.000402371 8.88563e-05)
(-0.00114135 -0.000407226 0.000100307)
(-0.00120192 -0.00041225 0.000108728)
(-0.00125464 -0.000417419 0.000114469)
(-0.00130413 -0.000423902 0.000118296)
(-0.00135233 -0.000431829 0.000120629)
(-0.00139854 -0.000440584 0.00012155)
(-0.001443 -0.000449942 0.000121117)
(-0.00148552 -0.000459627 0.000119264)
(-0.00152602 -0.000469468 0.000115821)
(-0.0015646 -0.000479341 0.000110489)
(-0.00160133 -0.000489092 0.000102835)
(-0.00163633 -0.000498542 9.23927e-05)
(-0.00166889 -0.000507328 7.85551e-05)
(-0.00169779 -0.00051503 6.08232e-05)
(-0.00171974 -0.000521122 3.84403e-05)
(-0.0017295 -0.000524419 1.28634e-05)
(-1.46051e-05 -6.31341e-07 1.01802e-05)
(-4.07241e-05 -9.67349e-06 -9.04515e-06)
(-5.11992e-05 -1.46681e-05 -2.23531e-05)
(-4.29026e-05 -1.8615e-05 -2.4008e-05)
(-3.97133e-05 -2.54235e-05 -2.28653e-05)
(-5.85606e-05 -4.46832e-05 -2.83334e-05)
(-5.78113e-05 -4.43006e-05 -2.15261e-05)
(-9.10946e-05 -6.42524e-05 -2.58797e-05)
(-0.000230015 -0.000150223 -4.85688e-05)
(-0.000352303 -0.000213899 -4.89442e-05)
(-0.000471935 -0.000262476 -3.62439e-05)
(-0.000600503 -0.000303571 -1.77435e-05)
(-0.000714088 -0.000328339 4.04839e-06)
(-0.000821971 -0.000345313 2.60438e-05)
(-0.000911902 -0.000352937 4.59244e-05)
(-0.000997455 -0.000359434 6.3216e-05)
(-0.00106668 -0.000362141 7.68822e-05)
(-0.00112842 -0.000365018 8.75179e-05)
(-0.00118724 -0.000369626 9.57603e-05)
(-0.00124088 -0.000374997 0.000101766)
(-0.00128923 -0.000380761 0.000105788)
(-0.00133469 -0.0003873 0.000108197)
(-0.00137776 -0.000394478 0.000109102)
(-0.00141887 -0.000402185 0.000108512)
(-0.00145825 -0.000410323 0.000106297)
(-0.00149555 -0.000418637 0.000102121)
(-0.00153073 -0.0004269 9.55493e-05)
(-0.00156369 -0.00043484 8.61411e-05)
(-0.00159453 -0.00044229 7.34104e-05)
(-0.00162197 -0.000448845 5.69302e-05)
(-0.00164269 -0.000454021 3.60472e-05)
(-0.00165138 -0.000456759 1.20837e-05)
(2.30092e-06 3.41784e-06 1.73678e-05)
(-2.27929e-06 1.00258e-06 -1.04149e-06)
(-7.42652e-06 -1.38045e-06 -1.27212e-05)
(-1.45023e-05 -1.0565e-05 -2.1885e-05)
(-1.698e-05 -1.67579e-05 -2.08631e-05)
(-2.86167e-05 -3.12256e-05 -2.70167e-05)
(-4.28732e-05 -4.16752e-05 -2.84489e-05)
(-4.8421e-05 -3.95859e-05 -2.30931e-05)
(-7.22454e-05 -5.01219e-05 -2.44535e-05)
(-0.000218206 -0.000133564 -5.18884e-05)
(-0.000356267 -0.000199545 -5.5906e-05)
(-0.000478498 -0.000243462 -4.23962e-05)
(-0.000605416 -0.000277965 -2.3734e-05)
(-0.00071311 -0.000296532 -2.48283e-06)
(-0.000816536 -0.000309706 1.83934e-05)
(-0.00089817 -0.000313975 3.69816e-05)
(-0.000977145 -0.000318415 5.30799e-05)
(-0.00104644 -0.000321658 6.62266e-05)
(-0.00110446 -0.000323851 7.63927e-05)
(-0.00115768 -0.00032698 8.42401e-05)
(-0.00120894 -0.000331581 9.02332e-05)
(-0.00125689 -0.000336981 9.44642e-05)
(-0.00130168 -0.000342998 9.70223e-05)
(-0.00134355 -0.000349465 9.7917e-05)
(-0.00138187 -0.000356095 9.69754e-05)
(-0.00141732 -0.000362882 9.39391e-05)
(-0.00145031 -0.000369694 8.84153e-05)
(-0.0014815 -0.000376395 8.00459e-05)
(-0.00151035 -0.000382632 6.83864e-05)
(-0.00153599 -0.000388105 5.31192e-05)
(-0.00155526 -0.000392429 3.37071e-05)
(-0.00156299 -0.000394728 1.13264e-05)
(6.78474e-06 8.15993e-06 2.53627e-05)
(1.59238e-05 7.26834e-06 -1.67967e-06)
(1.78289e-05 4.26196e-06 -1.15651e-05)
(1.81003e-05 -3.02464e-06 -1.84472e-05)
(1.15027e-05 -1.1385e-05 -2.19272e-05)
(1.84464e-06 -2.00823e-05 -2.38854e-05)
(-1.18487e-05 -2.75871e-05 -2.53026e-05)
(-3.18773e-05 -3.61061e-05 -2.93579e-05)
(-6.13769e-05 -4.8511e-05 -3.43614e-05)
(-0.000118001 -7.52024e-05 -4.44074e-05)
(-0.000207407 -0.000116303 -5.29119e-05)
(-0.000356557 -0.000182162 -5.84169e-05)
(-0.00047776 -0.000220646 -4.51393e-05)
(-0.000601634 -0.000249917 -2.72671e-05)
(-0.000700396 -0.00026323 -7.11407e-06)
(-0.000799419 -0.000274086 1.23434e-05)
(-0.000876217 -0.000277192 2.97095e-05)
(-0.000944093 -0.000278802 4.4494e-05)
(-0.0010096 -0.000281567 5.69212e-05)
(-0.00106814 -0.000284404 6.69411e-05)
(-0.00111866 -0.000287099 7.46409e-05)
(-0.0011647 -0.00029043 8.03983e-05)
(-0.00120705 -0.000294437 8.43428e-05)
(-0.00124597 -0.000298975 8.65066e-05)
(-0.00128258 -0.000304175 8.68611e-05)
(-0.00131621 -0.000309697 8.50367e-05)
(-0.00134708 -0.000315326 8.06341e-05)
(-0.00137541 -0.000320765 7.33206e-05)
(-0.00140194 -0.000325925 6.28177e-05)
(-0.00142567 -0.000330478 4.8888e-05)
(-0.00144336 -0.00033406 3.1106e-05)
(-0.00144971 -0.000335906 1.0482e-05)
(1.65409e-05 1.21008e-05 3.12653e-05)
(2.84945e-05 1.09738e-05 -3.81922e-06)
(3.30234e-05 8.10989e-06 -1.22508e-05)
(4.14363e-05 1.89735e-06 -2.0198e-05)
(3.88717e-05 -8.04634e-06 -2.16981e-05)
(2.09854e-05 -1.16958e-05 -1.39837e-05)
(1.03967e-05 -1.42644e-05 -1.1585e-05)
(-1.59794e-06 -1.62067e-05 -1.19264e-05)
(-1.76692e-05 -1.92016e-05 -1.63742e-05)
(-4.02724e-05 -2.78546e-05 -2.32363e-05)
(-0.000118608 -6.7248e-05 -4.53371e-05)
(-0.000204363 -0.000104309 -5.22166e-05)
(-0.000354166 -0.000164217 -5.75485e-05)
(-0.000467546 -0.000195739 -4.50549e-05)
(-0.000585675 -0.000220513 -2.87237e-05)
(-0.000671866 -0.000229086 -1.00933e-05)
(-0.000760669 -0.000236909 7.66215e-06)
(-0.00083808 -0.000241111 2.37828e-05)
(-0.00089989 -0.000242056 3.75375e-05)
(-0.000955639 -0.000243099 4.90352e-05)
(-0.00100941 -0.000245417 5.85709e-05)
(-0.00105858 -0.000248303 6.61471e-05)
(-0.00110311 -0.000251715 7.17928e-05)
(-0.0011436 -0.000255624 7.55475e-05)
(-0.00117864 -0.000259686 7.72164e-05)
(-0.00120971 -0.000264032 7.65478e-05)
(-0.00123765 -0.000268554 7.31916e-05)
(-0.00126385 -0.000273129 6.69295e-05)
(-0.0012879 -0.000277391 5.75163e-05)
(-0.00130935 -0.000281125 4.48452e-05)
(-0.00132525 -0.000284058 2.86218e-05)
(-0.0013306 -0.000285614 9.68173e-06)
(2.60187e-05 1.34325e-05 3.35043e-05)
(5.22993e-05 1.54563e-05 -6.25532e-06)
(6.78041e-05 1.25233e-05 -1.88755e-05)
(7.03231e-05 3.88814e-06 -2.35151e-05)
(5.5868e-05 -5.72843e-06 -2.00892e-05)
(4.10898e-05 -1.20133e-05 -1.50941e-05)
(4.44624e-05 -2.4516e-05 -1.62921e-05)
(1.53827e-05 -1.60389e-05 -5.96228e-06)
(4.11311e-06 -2.46089e-05 -8.91422e-06)
(-2.56598e-05 -2.31743e-05 -1.99894e-05)
(-6.34551e-05 -3.69214e-05 -3.47083e-05)
(-6.93586e-05 -3.55413e-05 -2.54317e-05)
(-0.000203251 -9.3413e-05 -4.9634e-05)
(-0.000345127 -0.000145541 -5.5337e-05)
(-0.000444972 -0.000169916 -4.31113e-05)
(-0.000558488 -0.000191837 -2.88505e-05)
(-0.000638504 -0.000198986 -1.19622e-05)
(-0.000709383 -0.000202409 4.27999e-06)
(-0.000780694 -0.000206147 1.90989e-05)
(-0.000843287 -0.000208544 3.21377e-05)
(-0.000894495 -0.000209627 4.30233e-05)
(-0.00093962 -0.000210894 5.1886e-05)
(-0.000979565 -0.000212651 5.87361e-05)
(-0.00101502 -0.000214913 6.36113e-05)
(-0.00104754 -0.000218 6.65292e-05)
(-0.0010762 -0.000221536 6.70514e-05)
(-0.00110146 -0.000225302 6.48047e-05)
(-0.00112386 -0.000228944 5.95872e-05)
(-0.00114499 -0.000232455 5.13801e-05)
(-0.00116409 -0.000235561 4.01539e-05)
(-0.00117808 -0.000237974 2.57244e-05)
(-0.00118177 -0.000239171 8.73769e-06)
(3.33011e-05 1.36058e-05 3.48534e-05)
(7.16898e-05 1.81858e-05 -5.09865e-06)
(9.45839e-05 1.61632e-05 -2.0235e-05)
(0.0001063 7.46028e-06 -2.90944e-05)
(0.000106603 -5.25882e-06 -3.23474e-05)
(9.16345e-05 -1.7371e-05 -2.9288e-05)
(5.45915e-05 -2.05288e-05 -1.72356e-05)
(4.78923e-05 -3.08802e-05 -1.2823e-05)
(2.52574e-05 -2.76417e-05 -3.74137e-06)
(6.76342e-06 -2.80571e-05 -2.10403e-06)
(-1.75364e-05 -1.49562e-05 -9.90863e-06)
(-4.50531e-05 -2.28943e-05 -2.16039e-05)
(-6.8091e-05 -3.14328e-05 -2.38901e-05)
(-0.000189349 -7.99154e-05 -4.4862e-05)
(-0.000326064 -0.000126507 -5.1563e-05)
(-0.000405052 -0.000142771 -3.98297e-05)
(-0.000503931 -0.00016003 -2.72075e-05)
(-0.000587841 -0.000169533 -1.25996e-05)
(-0.00064951 -0.000172091 2.16288e-06)
(-0.000704756 -0.000173422 1.5657e-05)
(-0.000759566 -0.000175634 2.76352e-05)
(-0.00080886 -0.000177781 3.78993e-05)
(-0.000852482 -0.000180108 4.6264e-05)
(-0.000890234 -0.000182616 5.26244e-05)
(-0.000920794 -0.000185167 5.6782e-05)
(-0.000946087 -0.000187997 5.8379e-05)
(-0.000967659 -0.000191076 5.71045e-05)
(-0.000987822 -0.000194309 5.2919e-05)
(-0.00100612 -0.000197285 4.57979e-05)
(-0.00102256 -0.000199871 3.58666e-05)
(-0.00103454 -0.000201872 2.30753e-05)
(-0.00103738 -0.000202914 7.88259e-06)
(3.93342e-05 1.37039e-05 3.75038e-05)
(8.04761e-05 1.91782e-05 -2.67553e-06)
(0.000108533 1.93195e-05 -1.91618e-05)
(0.000125299 1.24698e-05 -3.00061e-05)
(0.00012974 1.84615e-07 -3.61344e-05)
(0.000123573 -1.41266e-05 -3.72769e-05)
(0.000109252 -2.79917e-05 -3.33145e-05)
(7.44269e-05 -3.2631e-05 -2.10493e-05)
(3.03923e-05 -2.10758e-05 -6.62989e-06)
(2.26988e-05 -2.69561e-05 -9.90287e-07)
(5.17796e-06 -2.47879e-05 2.819e-06)
(-2.7275e-05 -2.11543e-05 -1.20599e-05)
(-6.1656e-05 -2.98374e-05 -2.87763e-05)
(-0.000113131 -4.94712e-05 -3.82323e-05)
(-0.000154665 -6.18672e-05 -3.62405e-05)
(-0.000298476 -0.000107511 -4.70129e-05)
(-0.000370872 -0.000121873 -3.74843e-05)
(-0.000439104 -0.000131027 -2.49031e-05)
(-0.000514926 -0.000140076 -1.19577e-05)
(-0.000580056 -0.000145511 1.32351e-06)
(-0.000628721 -0.000147347 1.37068e-05)
(-0.000669956 -0.000148422 2.45433e-05)
(-0.000704584 -0.000149456 3.34828e-05)
(-0.000734745 -0.000150783 4.05164e-05)
(-0.000761387 -0.000152895 4.56117e-05)
(-0.000783686 -0.000155457 4.82088e-05)
(-0.000802154 -0.00015825 4.79305e-05)
(-0.000817406 -0.000160811 4.47176e-05)
(-0.000832208 -0.000163324 3.88577e-05)
(-0.000845981 -0.000165569 3.05171e-05)
(-0.000855792 -0.000167256 1.97329e-05)
(-0.000856644 -0.000167957 6.77666e-06)
(4.32926e-05 1.35791e-05 4.09607e-05)
(8.22961e-05 1.9347e-05 2.37529e-07)
(0.000111992 2.14934e-05 -1.68788e-05)