/*--------------------------------*- C++ -*----------------------------------*\
  =========                 |
  \\      /  F ield         | OpenFOAM: The Open Source CFD Toolbox
   \\    /   O peration     | Website:  https://openfoam.org
    \\  /    A nd           | Version:  6
     \\/     M anipulation  |
\*---------------------------------------------------------------------------*/
FoamFile
{
    version     2.0;
    format      ascii;
    class       volScalarField;
    location    "1";
    object      k;
}
// * * * * * * * * * * * * * * * * * * * * * * * * * * * * * * * * * * * * * //

dimensions      [0 2 -2 0 0 0 0];

internalField   nonuniform List<scalar> 
63400
(
0.000382262
0.000369998
0.000362417
0.000353707
0.000353901
0.000351564
0.000354073
0.000354661
0.000353798
0.000348001
0.00034318
0.000336992
0.000331902
0.000330875
0.000326399
0.000333828
0.00030552
0.000305713
0.000305816
0.000307542
0.000306739
0.000309864
0.000305968
0.000314271
0.00028565
0.000282531
0.00027956
0.000279151
0.000276563
0.000280079
0.000276619
0.000286287
0.000256212
0.000257758
0.000256856
0.000258645
0.000256672
0.000259714
0.000256008
0.000263194
0.000222065
0.000224233
0.000225429
0.000229131
0.00023013
0.000234826
0.000233193
0.000240888
0.000210253
0.000209692
0.000208966
0.000210835
0.000210574
0.000213865
0.000211635
0.000217911
0.000185639
0.000186304
0.000185511
0.000186337
0.000185711
0.000188672
0.000187432
0.000194474
0.000165224
0.000166483
0.000166054
0.000166461
0.000164678
0.000166417
0.000164818
0.000171143
0.000140825
0.000141942
0.000142331
0.000144131
0.000144555
0.000147783
0.00014789
0.000154452
0.000124059
0.000124304
0.000123776
0.000124785
0.00012535
0.000128748
0.000129417
0.00013574
0.000104541
0.000107136
0.000109299
0.000112272
0.000113697
0.00011672
0.000116572
0.000121184
9.07546e-05
9.25652e-05
9.45313e-05
9.75497e-05
9.90237e-05
0.000101591
0.000100865
0.000104265
8.612e-05
8.67387e-05
8.70021e-05
8.81749e-05
8.8222e-05
8.95448e-05
8.82679e-05
9.06577e-05
7.24713e-05
7.30121e-05
7.31156e-05
7.37833e-05
7.35198e-05
7.42781e-05
7.28589e-05
7.4672e-05
6.22403e-05
6.26612e-05
6.27689e-05
6.34215e-05
6.31416e-05
6.37044e-05
6.22205e-05
6.32586e-05
4.82162e-05
4.88382e-05
4.90625e-05
4.96795e-05
4.95689e-05
5.0124e-05
4.9092e-05
5.00853e-05
3.91897e-05
3.94932e-05
3.9822e-05
4.05879e-05
4.08589e-05
4.13027e-05
4.03948e-05
4.06966e-05
2.51252e-05
2.53103e-05
2.56451e-05
2.64591e-05
2.71578e-05
2.78893e-05
2.74761e-05
2.7872e-05
1.17415e-05
1.15949e-05
1.10325e-05
1.09554e-05
1.17156e-05
1.33186e-05
1.50784e-05
1.70015e-05
4.30134e-05
4.37306e-05
4.35232e-05
4.32466e-05
4.34559e-05
4.54124e-05
4.68535e-05
4.97373e-05
0.00108255
0.00107812
0.00107855
0.00107264
0.00107203
0.00106779
0.00106609
0.00106764
0.0010669
0.0010647
0.00106435
0.00106317
0.00106039
0.00105985
0.00105558
0.00105828
0.00104405
0.00104379
0.00104258
0.00104353
0.00104228
0.001045
0.00104226
0.00104782
0.00102927
0.00102995
0.00102862
0.00103064
0.00102805
0.00103097
0.00102641
0.0010316
0.00100791
0.00101015
0.00100886
0.00101217
0.00101087
0.00101457
0.00101174
0.00101751
0.00098225
0.000983487
0.000982567
0.000986202
0.000986442
0.000992178
0.000990857
0.000998621
0.000967165
0.000967848
0.000965846
0.000969194
0.00096967
0.000975883
0.000974964
0.000982192
0.000943346
0.000947235
0.000947138
0.00094938
0.000947511
0.000951051
0.000947827
0.000955442
0.000915225
0.000920275
0.00092225
0.000926867
0.000924233
0.000925744
0.000920096
0.000926081
0.000881886
0.000885564
0.00088531
0.000888281
0.00088647
0.000890182
0.000887971
0.000898405
0.000848954
0.000852791
0.000851118
0.000851731
0.000849254
0.000854754
0.000854651
0.000867452
0.000796702
0.000801327
0.000805136
0.000813588
0.000817918
0.000827786
0.000829353
0.00084144
0.000759513
0.000763021
0.000767248
0.00077825
0.000785219
0.000797003
0.000797374
0.000806654
0.000743245
0.000746426
0.000747508
0.000753631
0.000755719
0.000763539
0.000761349
0.000769082
0.000702267
0.000705947
0.000706563
0.000710807
0.000710882
0.000716504
0.000711218
0.000716244
0.000653687
0.000657035
0.000657676
0.000662453
0.000662801
0.000668767
0.000663657
0.000666853
0.000585249
0.000589452
0.000590969
0.000596205
0.000596787
0.000602548
0.000598152
0.000604019
0.000519958
0.000522245
0.000524012
0.000530619
0.000535205
0.000542286
0.000538871
0.000541227
0.000407329
0.000409012
0.00041129
0.000419344
0.000427976
0.000438366
0.000437081
0.00044106
0.000244868
0.000244896
0.000235534
0.00023077
0.000238128
0.000258667
0.000282163
0.000308494
0.00014026
0.000140668
0.000139085
0.000137501
0.000136784
0.00013939
0.00014039
0.000144054
0.00115667
0.0011523
0.0011561
0.00115007
0.00115135
0.00114692
0.00114541
0.00114778
0.00113786
0.00113684
0.00113833
0.00113902
0.00113719
0.00113794
0.00113315
0.00113652
0.00111291
0.00111408
0.00111357
0.00111594
0.00111487
0.00111959
0.00111667
0.00112397
0.00109623
0.00109916
0.00109823
0.00110254
0.00109975
0.00110479
0.00109962
0.00110581
0.00107352
0.00107798
0.00107687
0.00108232
0.00108133
0.00108728
0.00108431
0.00109119
0.00104907
0.00105154
0.00105017
0.001055
0.00105444
0.00106204
0.0010605
0.00106983
0.00103255
0.00103523
0.00103282
0.0010376
0.00103762
0.0010459
0.00104527
0.00105456
0.00100915
0.00101521
0.00101564
0.00101988
0.00101787
0.00102347
0.0010196
0.00102843
0.000981818
0.00098888
0.000991582
0.0009996
0.000998008
0.00100188
0.000995196
0.00100037
0.000952777
0.000958524
0.000958486
0.00096347
0.000960992
0.00096557
0.000961245
0.000971028
0.000921323
0.00092866
0.000928228
0.000930491
0.000925951
0.000931135
0.000928231
0.000940525
0.000873056
0.000876709
0.000878197
0.000887026
0.000890313
0.000902208
0.000903635
0.000917468
0.000840275
0.000842429
0.000843246
0.000854333
0.000860964
0.000876365
0.000878371
0.000889806
0.000820069
0.000824721
0.000825337
0.000833352
0.000835789
0.000847302
0.000846688
0.000856812
0.000790611
0.000796
0.000796488
0.000802517
0.000802493
0.000811293
0.000807132
0.000813492
0.000741722
0.000747038
0.000747493
0.000753963
0.000754376
0.000763966
0.000761705
0.00076701
0.000689649
0.00069459
0.000695303
0.000701561
0.00070234
0.000711377
0.000709068
0.000716963
0.00061983
0.000623149
0.000623645
0.000629851
0.0006351
0.000647284
0.000649326
0.000656415
0.000539993
0.000541458
0.000541044
0.000546079
0.000553316
0.000567248
0.000571531
0.000579579
0.000413385
0.000419863
0.00041085
0.000397297
0.00039
0.000398597
0.000413773
0.000438186
0.000194947
0.000195332
0.000193165
0.000190785
0.000189138
0.00019168
0.000192323
0.000196374
0.00116912
0.00116528
0.00117218
0.00116709
0.00117019
0.00116648
0.00116523
0.00116885
0.00114889
0.00114922
0.00115236
0.00115522
0.00115501
0.00115718
0.00115275
0.00115661
0.00112392
0.00112636
0.00112664
0.00113037
0.0011298
0.00113608
0.00113386
0.00114231
0.00110604
0.001111
0.00111062
0.00111689
0.00111457
0.00112121
0.00111654
0.00112319
0.00108292
0.00108905
0.00108849
0.00109559
0.0010954
0.00110308
0.00110092
0.00110839
0.00105978
0.00106327
0.00106182
0.00106781
0.00106694
0.00107559
0.00107458
0.00108462
0.00104188
0.00104638
0.00104384
0.0010496
0.00104956
0.00105901
0.00105918
0.00106971
0.001018
0.00102557
0.00102667
0.00103246
0.0010307
0.00103791
0.00103452
0.00104414
0.000990555
0.000998983
0.00100202
0.00101239
0.00101229
0.00101837
0.00101244
0.00101734
0.000963025
0.000970521
0.000970899
0.000977861
0.000975977
0.000981635
0.000976791
0.000985443
0.000930495
0.000940633
0.000941903
0.000946438
0.000941595
0.00094683
0.000942498
0.000953435
0.000885887
0.000889584
0.000889623
0.000898486
0.000900877
0.00091366
0.000915397
0.000929672
0.000854085
0.000856248
0.000854672
0.000864929
0.000870633
0.000887825
0.000891903
0.000905122
0.000828428
0.000834255
0.000834554
0.000843617
0.000846204
0.000859831
0.000861206
0.000872946
0.000803773
0.000810667
0.000811215
0.000818449
0.000818333
0.000828807
0.00082638
0.000834247
0.000752836
0.00075982
0.000760388
0.000767784
0.000767954
0.00077871
0.000779004
0.000786209
0.00070926
0.00071497
0.000715228
0.000721746
0.000722242
0.000732225
0.000731711
0.000740508
0.00063549
0.000639834
0.000639893
0.000644964
0.000648746
0.000661681
0.000667088
0.000677911
0.000587492
0.000588815
0.000587008
0.000589086
0.000592254
0.000603658
0.000609031
0.000618458
0.000495519
0.000506043
0.000498114
0.000481239
0.000465047
0.000464773
0.000470742
0.000489505
0.000246916
0.000247459
0.000245071
0.000242138
0.000239391
0.000241534
0.000241761
0.000246137
0.00115928
0.00115611
0.00116537
0.00116167
0.00116647
0.00116423
0.0011634
0.00116872
0.00113842
0.0011401
0.00114451
0.00114927
0.00115097
0.00115476
0.00115109
0.00115571
0.00111407
0.00111764
0.00111873
0.0011237
0.00112388
0.00113143
0.00113017
0.00113974
0.00109549
0.00110203
0.00110221
0.00110998
0.00110849
0.00111647
0.00111284
0.00112007
0.00107256
0.00107981
0.00107992
0.0010882
0.00108897
0.00109806
0.0010971
0.00110518
0.00105066
0.00105511
0.00105371
0.00106069
0.00105998
0.00106915
0.00106884
0.00107931
0.00103181
0.00103791
0.0010355
0.00104178
0.00104188
0.00105188
0.00105286
0.00106421
0.00100765
0.00101598
0.00101773
0.00102468
0.00102334
0.00103173
0.00102929
0.00103958
0.000980231
0.000989357
0.000992473
0.00100419
0.00100566
0.00101369
0.00100936
0.0010147
0.000953724
0.000962519
0.000963335
0.000971777
0.000971138
0.000977931
0.000973482
0.000981066
0.000920102
0.00093206
0.000935109
0.000941955
0.000937933
0.000943447
0.000938543
0.000947763
0.000880582
0.000884617
0.000883753
0.000892177
0.000893688
0.000906313
0.000908348
0.000922159
0.000849621
0.000852267
0.000849197
0.00085788
0.000862096
0.000879331
0.000885116
0.00089972
0.000819109
0.000825587
0.000825727
0.000835035
0.000837608
0.000851978
0.000855354
0.000868243
0.000798054
0.000805837
0.000806675
0.000814525
0.000814454
0.000825424
0.00082487
0.000834093
0.000747119
0.000755055
0.00075604
0.000763691
0.000763715
0.000774007
0.000776362
0.000785141
0.00071204
0.000718246
0.000718346
0.000724411
0.000724661
0.000733932
0.000734859
0.000743678
0.000641135
0.000645905
0.000645794
0.000649331
0.000650868
0.000661626
0.000668303
0.000681206
0.00063328
0.000634153
0.000631476
0.00063117
0.000629815
0.000635249
0.00063777
0.000645071
0.000568487
0.000582027
0.000575817
0.000558167
0.000535684
0.00052854
0.000526219
0.000538766
0.000297759
0.000298487
0.000296144
0.000293008
0.000289169
0.000290622
0.00029032
0.000294812
0.00113971
0.00113732
0.00114813
0.00114586
0.00115203
0.0011516
0.00115124
0.00115844
0.00111898
0.0011219
0.00112713
0.00113326
0.00113676
0.0011423
0.00113956
0.00114507
0.00109583
0.00110037
0.00110208
0.00110803
0.00110898
0.00111753
0.00111713
0.00112775
0.00107711
0.00108478
0.0010854
0.00109413
0.00109348
0.00110253
0.00110006
0.00110801
0.00105494
0.0010628
0.00106349
0.00107245
0.00107402
0.00108417
0.00108446
0.00109327
0.00103417
0.00103956
0.00103819
0.00104582
0.00104552
0.00105492
0.00105515
0.00106593
0.00101484
0.00102228
0.0010202
0.0010266
0.00102682
0.00103698
0.00103851
0.0010503
0.000990983
0.000999434
0.00100166
0.0010094
0.00100842
0.00101754
0.00101605
0.00102691
0.000963847
0.000973085
0.000976084
0.000988262
0.000990925
0.00100052
0.00099799
0.00100437
0.000938249
0.000947836
0.000949027
0.000958276
0.000958972
0.000966901
0.000963315
0.000970269
0.000904044
0.000916698
0.000921174
0.000930011
0.000927415
0.000933515
0.000928663
0.000936303
0.000870152
0.000874633
0.000873362
0.000881105
0.000881754
0.000893521
0.000895578
0.000908399
0.000840171
0.000843468
0.000839816
0.000846765
0.000849174
0.000865134
0.000871736
0.000887198
0.000806174
0.000812744
0.000812816
0.000821776
0.000824131
0.000838186
0.000843028
0.000856771
0.000788245
0.000796124
0.000797304
0.000805313
0.000805407
0.000816024
0.000816909
0.000827213
0.00073975
0.000747772
0.000749274
0.000756704
0.000756746
0.000765612
0.000768981
0.00077892
0.000713404
0.000719646
0.000719878
0.000724983
0.000725054
0.000732635
0.000734236
0.000742397
0.00065325
0.000657724
0.000657417
0.000659391
0.000658596
0.000665514
0.000671121
0.000683939
0.000686955
0.00068726
0.00068392
0.000682299
0.000677446
0.000676279
0.000673219
0.000675369
0.000634282
0.000650189
0.000645613
0.000628902
0.000602512
0.000591072
0.000582631
0.00059038
0.000348104
0.000348936
0.00034672
0.000343757
0.000339096
0.000339756
0.000338876
0.000343252
0.00111629
0.00111469
0.00112633
0.00112522
0.00113228
0.0011336
0.00113363
0.00114263
0.00109623
0.00110021
0.00110592
0.00111275
0.00111756
0.00112481
0.001123
0.00112938
0.00107468
0.00108
0.00108212
0.00108867
0.00109021
0.00109952
0.00109969
0.00111114
0.00105627
0.00106467
0.0010656
0.00107479
0.00107473
0.00108452
0.00108306
0.00109174
0.00103527
0.00104338
0.00104442
0.00105366
0.00105564
0.00106646
0.0010678
0.00107738
0.00101542
0.00102175
0.00102038
0.00102827
0.00102837
0.00103786
0.0010384
0.00104933
0.000996002
0.00100451
0.00100292
0.00100918
0.00100936
0.0010194
0.00102116
0.00103301
0.000973072
0.000981249
0.000983652
0.000991855
0.000991081
0.00100051
0.000999747
0.00101095
0.000946518
0.000955444
0.000958147
0.000970148
0.000973391
0.000984048
0.00098307
0.000990753
0.000921839
0.000931715
0.000933179
0.000942633
0.00094434
0.000953297
0.000950744
0.000957586
0.000887827
0.000900177
0.000905428
0.000915681
0.000914643
0.000921579
0.000917272
0.000923737
0.00085928
0.000864215
0.000862931
0.000869979
0.000869827
0.000880344
0.000882093
0.000893594
0.000830423
0.00083438
0.000830889
0.000836395
0.000836995
0.000850847
0.000857251
0.000872778
0.000794745
0.000800959
0.000800968
0.000809215
0.000811155
0.000824153
0.000829687
0.00084384
0.000779877
0.00078713
0.000788476
0.000796258
0.000796595
0.000806344
0.000808032
0.000818873
0.000736355
0.000743678
0.000745547
0.000752397
0.000752576
0.000759665
0.000762961
0.000773338
0.000718985
0.000724671
0.000725178
0.000729047
0.000728908
0.000734372
0.000735902
0.000742768
0.000676386
0.000680006
0.00067929
0.000679885
0.000677061
0.000679745
0.000682611
0.000693154
0.000745367
0.000745378
0.000741354
0.00073936
0.000732572
0.000726379
0.000717193
0.000712753
0.000688003
0.00070626
0.000702979
0.000688085
0.000659596
0.000646354
0.000634399
0.000639756
0.000397836
0.00039871
0.000396498
0.000393927
0.000388888
0.000388912
0.000387571
0.000391687
0.0010921
0.00109116
0.00110311
0.0011028
0.00111025
0.00111298
0.00111322
0.00112369
0.00107304
0.00107776
0.00108375
0.00109071
0.00109616
0.00110483
0.00110388
0.001111
0.00105311
0.00105905
0.0010614
0.00106819
0.00107006
0.00107989
0.00108035
0.00109224
0.00103531
0.00104414
0.00104525
0.00105452
0.00105471
0.00106488
0.00106416
0.00107341
0.00101567
0.00102382
0.00102501
0.00103424
0.00103621
0.00104724
0.00104931
0.00105958
0.000996495
0.0010037
0.00100237
0.00101019
0.00101053
0.00102002
0.00102064
0.0010316
0.000977278
0.000986538
0.000985546
0.000991578
0.000991536
0.00100127
0.001003
0.00101457
0.000955708
0.000963455
0.000965746
0.000974156
0.000973417
0.00098279
0.000982474
0.000993711
0.00093004
0.000938433
0.000940692
0.000952134
0.000955353
0.00096648
0.000966615
0.000975508
0.000906385
0.000916099
0.000917721
0.000926964
0.000929188
0.000938908
0.000937368
0.000944493
0.000873452
0.000884798
0.000890086
0.000901037
0.00090133
0.000909165
0.000905771
0.000911585
0.000849524
0.000854841
0.000853808
0.000860273
0.000859449
0.000868549
0.000869751
0.00087975
0.000821899
0.00082644
0.0008236
0.000828155
0.000827257
0.000838621
0.000844026
0.000858677
0.000786517
0.000792096
0.000791997
0.000799335
0.000800753
0.000812215
0.000817724
0.000831622
0.00077501
0.00078114
0.000782355
0.00078951
0.000790121
0.000798721
0.000800676
0.00081129
0.000738934
0.00074499
0.000746928
0.000752875
0.000753213
0.000758558
0.000761043
0.000770897
0.00073083
0.00073539
0.000736094
0.000738656
0.000738198
0.000741424
0.000742368
0.000747387
0.00070978
0.000712323
0.000710962
0.000710484
0.000706109
0.00070503
0.000704536
0.000711206
0.00080195
0.000802335
0.000797604
0.000795825
0.000788498
0.000779922
0.000766025
0.000755548
0.000724389
0.000745566
0.000743412
0.000730537
0.000701073
0.000688205
0.000675473
0.000681348
0.000446339
0.00044736
0.000444959
0.000442705
0.000437658
0.000437362
0.000435869
0.000439743
0.00106824
0.00106774
0.00107966
0.00107978
0.00108724
0.00109095
0.00109118
0.00110267
0.00105027
0.00105537
0.00106154
0.00106827
0.0010737
0.00108332
0.0010831
0.0010908
0.0010317
0.00103808
0.00104059
0.00104738
0.00104928
0.00105942
0.00105996
0.0010719
0.00101465
0.00102366
0.00102487
0.001034
0.00103417
0.00104438
0.0010441
0.00105368
0.000996365
0.00100448
0.00100565
0.00101471
0.00101639
0.0010272
0.00102959
0.00104036
0.000977636
0.000985572
0.000984371
0.000991943
0.000992345
0.00100174
0.00100229
0.00101312
0.000958833
0.000968495
0.000968141
0.000974003
0.000973646
0.000982913
0.000984443
0.000995486
0.000938857
0.000946169
0.000948147
0.000956549
0.000955761
0.000964789
0.000964687
0.00097563
0.000914396
0.000922189
0.000923909
0.000934603
0.000937371
0.000948379
0.000949144
0.000958866
0.000892018
0.000901198
0.000902841
0.000911639
0.000913916
0.000924002
0.000923327
0.000930902
0.000861073
0.000871049
0.000875752
0.000886647
0.000887834
0.000896381
0.000894095
0.000899766
0.000841023
0.000846572
0.000845927
0.000851917
0.00085061
0.000858251
0.000858796
0.000867248
0.000814788
0.00081976
0.000817822
0.000821874
0.000820003
0.000828841
0.000832819
0.000845729
0.000781674
0.000786471
0.000786224
0.000792534
0.000793449
0.00080309
0.000808076
0.000820944
0.00077419
0.000778923
0.000779734
0.000785828
0.000786677
0.000793966
0.000795879
0.000805455
0.000747786
0.000752241
0.00075393
0.000758675
0.000759082
0.000762856
0.000764267
0.000772635
0.00074914
0.00075219
0.000752826
0.000754146
0.000753284
0.000754304
0.000754376
0.000757159
0.000749928
0.000751528
0.000749395
0.000748229
0.000742867
0.00073895
0.00073536
0.000737525
0.000849804
0.000851481
0.000846241
0.000844969
0.000837997
0.000829776
0.000813765
0.000799561
0.00073934
0.000764241
0.000763699
0.00075268
0.000722507
0.000711536
0.000700642
0.000710204
0.000492906
0.00049433
0.000491745
0.000489517
0.00048453
0.000484112
0.00048283
0.000486607
0.00104433
0.00104402
0.0010557
0.00105602
0.00106322
0.00106754
0.00106756
0.00107961
0.00102745
0.00103253
0.00103881
0.00104518
0.00105013
0.00106017
0.00106048
0.00106863
0.00100984
0.00101646
0.00101912
0.00102579
0.00102748
0.00103774
0.00103826
0.00104993
0.000993563
0.00100251
0.00100379
0.00101266
0.00101267
0.00102267
0.00102258
0.00103226
0.000976552
0.000984569
0.000985632
0.000994454
0.000995737
0.00100599
0.00100833
0.00101932
0.00095815
0.000966567
0.000965617
0.000972867
0.000973192
0.000982397
0.0009828
0.00099338
0.000939932
0.000949603
0.000949857
0.000955642
0.00095499
0.00096371
0.000964939
0.000975332
0.000921665
0.000928572
0.000930144
0.000938342
0.000937511
0.000945984
0.000945946
0.000956318
0.000898791
0.000905985
0.000907125
0.000916968
0.000919089
0.000929474
0.000930442
0.000940447
0.000878152
0.000886504
0.000888007
0.00089622
0.000898224
0.000908205
0.000908169
0.000916095
0.000850115
0.000858608
0.000862333
0.000872482
0.000874046
0.000882884
0.000881683
0.000887549
0.000833498
0.000839048
0.000838821
0.000844357
0.000842767
0.00084895
0.00084881
0.000855766
0.000808993
0.000814136
0.000813162
0.000816962
0.000814706
0.000821178
0.000823652
0.000834211
0.000779987
0.000783901
0.000783496
0.00078866
0.000789193
0.00079686
0.000801087
0.000812202
0.000777436
0.000780645
0.0007809
0.000785508
0.000786485
0.000792329
0.000794111
0.00080196
0.000762382
0.000765094
0.000766289
0.0007696
0.000769917
0.000772261
0.00077272
0.00077888
0.000772908
0.000774364
0.000774592
0.000774811
0.000773558
0.000772547
0.00077163
0.000771997
0.00079209
0.000793162
0.000790311
0.000788891
0.000783151
0.000777522
0.000771619
0.000769613
0.000883334
0.000887171
0.000881961
0.000881411
0.000875091
0.000869337
0.000854038
0.000839497
0.000731698
0.000760374
0.000762988
0.000754093
0.00072261
0.00071365
0.000706324
0.000722456
0.000537232
0.000539194
0.000536771
0.00053438
0.000529256
0.000528543
0.000527619
0.000531377
0.00101921
0.00101887
0.00103015
0.00103055
0.00103737
0.00104205
0.00104175
0.00105392
0.00100342
0.00100814
0.00101443
0.00102046
0.00102466
0.00103467
0.00103527
0.00104374
0.000986419
0.000993055
0.000995867
0.00100239
0.00100374
0.00101391
0.0010144
0.00102559
0.000970887
0.000979536
0.000980849
0.000989425
0.000989232
0.000998873
0.000998836
0.0010084
0.000955106
0.000962956
0.000963844
0.000972363
0.000973273
0.000982795
0.000984788
0.000995665
0.000937077
0.000945655
0.000945042
0.000951961
0.000952138
0.000961058
0.000961284
0.000971485
0.000919633
0.000928909
0.000929659
0.000935424
0.00093457
0.000942707
0.000943608
0.00095329
0.000903209
0.000909685
0.00091084
0.000918627
0.000917808
0.000925589
0.000925538
0.000935134
0.000882412
0.000888984
0.000889556
0.000898438
0.000899896
0.000909274
0.000910136
0.000919826
0.000864208
0.000871501
0.00087268
0.000880166
0.000881726
0.000891114
0.000891472
0.000899397
0.000840034
0.000847052
0.000849647
0.000858489
0.000859952
0.000868499
0.000868155
0.00087425
0.0008268
0.00083205
0.000832202
0.000837188
0.000835487
0.000840202
0.000839381
0.000844888
0.000804629
0.000809576
0.000809488
0.000813044
0.000810917
0.000815258
0.000816388
0.000824278
0.000781316
0.000784232
0.000783691
0.000787561
0.000787875
0.0007935
0.000796945
0.000805764
0.000784618
0.000786245
0.000785921
0.000788721
0.000789664
0.000793923
0.000795622
0.000801285
0.000781645
0.000782635
0.000783191
0.000784971
0.000785038
0.000786023
0.000785852
0.000789462
0.000800146
0.000800247
0.000799796
0.0007991
0.000797578
0.000794909
0.000793025
0.000791029
0.000831334
0.000832446
0.000829105
0.000827885
0.000822362
0.0008162
0.000808948
0.00080382
0.000899678
0.000906084
0.000901678
0.000902251
0.000896447
0.00089417
0.000881651
0.000870213
0.000705824
0.000735989
0.000743783
0.000738908
0.000705635
0.000696753
0.000692411
0.000716374
0.000579735
0.000581919
0.000580132
0.000577749
0.000572351
0.000570845
0.000570019
0.00057352
0.000991538
0.000991047
0.0010018
0.00100222
0.00100862
0.00101349
0.00101289
0.0010248
0.000976918
0.000981032
0.000987164
0.000992899
0.000996311
0.00100594
0.00100659
0.00101524
0.000960352
0.000966767
0.000969703
0.000976109
0.000977061
0.000986926
0.000987421
0.000997989
0.000945566
0.000953699
0.000955003
0.00096323
0.000962869
0.000972037
0.000971994
0.000981297
0.000931076
0.000938633
0.000939316
0.000947422
0.000948033
0.000956749
0.000958234
0.000968665
0.000913653
0.000922032
0.000921786
0.000928371
0.000928382
0.000936894
0.000936965
0.000946639
0.000897238
0.000905736
0.000906797
0.000912516
0.000911568
0.000919099
0.000919693
0.000928613
0.000882923
0.000888844
0.000889603
0.000896746
0.000895988
0.00090297
0.000902883
0.000911549
0.000864849
0.000870687
0.000870734
0.000878492
0.000879354
0.000887446
0.00088803
0.000896834
0.000849975
0.000856021
0.000856688
0.000863232
0.000864288
0.00087261
0.000873142
0.000880539
0.000830643
0.000836214
0.00083771
0.000844833
0.000845837
0.000853449
0.000853605
0.000859609
0.000821055
0.000825677
0.00082612
0.000830368
0.000828686
0.000831897
0.000830417
0.000834425
0.000802065
0.000806389
0.000807013
0.000810125
0.000808481
0.000810925
0.000810988
0.000816124
0.000785626
0.000787408
0.000786771
0.000789186
0.000789426
0.000793009
0.000795777
0.000801988
0.000795357
0.000795401
0.000794572
0.000795421
0.000796156
0.000798715
0.000800421
0.000803714
0.000803916
0.000803364
0.000803234
0.000803554
0.000803281
0.000802971
0.000802508
0.000803632
0.000828058
0.000827301
0.000826074
0.000824696
0.000823088
0.00081935
0.000816656
0.000812605
0.000863398
0.000865123
0.000861616
0.000861015
0.00085622
0.000850636
0.000842921
0.000836045
0.00089968
0.000908352
0.000905345
0.000907683
0.000902226
0.000903327
0.00089419
0.000888167
0.000672329
0.000698985
0.000712164
0.000714706
0.000681345
0.000669707
0.000664637
0.000694275
0.000621296
0.000622994
0.000621984
0.000620013
0.000614575
0.000611832
0.000610567
0.000613179
0.00096024
0.000959538
0.000969644
0.000970064
0.000976045
0.000980989
0.000980202
0.000991525
0.000946933
0.000950312
0.000956082
0.000961536
0.000964211
0.000973222
0.000973725
0.000982361
0.000930876
0.000936844
0.000939812
0.000946121
0.000946698
0.000956027
0.000956527
0.000966395
0.000916896
0.000924309
0.000925542
0.000933339
0.000932861
0.000941447
0.000941392
0.000950298
0.0009039
0.000910979
0.000911441
0.000918975
0.000919337
0.000927213
0.000928144
0.000937814
0.000887498
0.000895304
0.000895384
0.000901604
0.000901463
0.000909397
0.000909349
0.000918324
0.000872457
0.000879851
0.000880982
0.000886525
0.000885579
0.000892445
0.000892781
0.000900854
0.000860713
0.000865857
0.000866229
0.000872461
0.00087177
0.000877832
0.000877717
0.000885304
0.000846184
0.000851064
0.000850628
0.000857042
0.000857381
0.000863956
0.000864215
0.00087163
0.000835627
0.000840269
0.000840269
0.000845561
0.000846103
0.000852918
0.000853457
0.000859709
0.000822069
0.000826194
0.000826728
0.000831859
0.000832206
0.000838275
0.000838549
0.000843859
0.000816517
0.0008202
0.000820834
0.0008241
0.000822531
0.000824196
0.000822114
0.00082446
0.000801646
0.000804937
0.000806056
0.000808412
0.000807414
0.000808159
0.000807468
0.000809919
0.000792685
0.000793214
0.000792529
0.000793376
0.000793625
0.000795232
0.000797486
0.000801021
0.000808728
0.000807283
0.000806066
0.00080505
0.000805444
0.000806269
0.000808044
0.000809057
0.000826869
0.00082512
0.000824347
0.000823448
0.000822843
0.000821384
0.000820884
0.000819927
0.000853347
0.000852367
0.000850472
0.000848693
0.000847178
0.000843105
0.000839886
0.000834327
0.000885366
0.000888166
0.000884815
0.000885126
0.000881396
0.000877321
0.000869808
0.000862465
0.000887438
0.000897612
0.000896013
0.000900648
0.000895651
0.000899465
0.000892902
0.000892691
0.000642997
0.000661432
0.000676768
0.000688758
0.000659508
0.000644446
0.000633914
0.000663529
0.00066252
0.000663128
0.000662552
0.000661188
0.000656229
0.00065223
0.000650118
0.000651062
0.000924623
0.000923705
0.000933042
0.00093344
0.000939
0.000943883
0.00094309
0.000953565
0.000912818
0.000915433
0.000920636
0.000925737
0.000927775
0.000936005
0.000936222
0.000944581
0.000897594
0.000902914
0.000905757
0.000911911
0.000912199
0.000920759
0.000921232
0.000930298
0.000884576
0.000891081
0.000892163
0.000899397
0.000898853
0.000906718
0.000906648
0.000915016
0.000873412
0.000879771
0.000879996
0.000886766
0.00088688
0.00089385
0.000894268
0.000902883
0.000858602
0.000865474
0.000865758
0.00087152
0.00087127
0.000878406
0.000878262
0.000886317
0.000845377
0.000851417
0.000852358
0.000857484
0.000856609
0.000862697
0.00086283
0.000869911
0.00083687
0.000840942
0.0008409
0.000845926
0.000845253
0.000850222
0.000850098
0.000856423
0.000826842
0.000830454
0.000829552
0.000834363
0.00083422
0.000839043
0.00083901
0.000844613
0.000821536
0.00082464
0.000823886
0.00082756
0.000827577
0.000832488
0.000832918
0.000837412
0.00081448
0.000817138
0.000816905
0.000819884
0.000819524
0.00082357
0.00082365
0.000827528
0.000813269
0.000815773
0.000816507
0.00081855
0.000817156
0.000817259
0.000814697
0.000815167
0.00080329
0.000805246
0.000806647
0.000807942
0.000807582
0.000806806
0.00080566
0.000805609
0.000801677
0.000800919
0.00080024
0.000799519
0.000799796
0.000799578
0.000801475
0.000802499
0.000823014
0.000820308
0.00081884
0.000816266
0.000816259
0.000815455
0.000817308
0.00081637
0.000847593
0.000845121
0.000843835
0.000842095
0.00084125
0.000838924
0.000838527
0.000836129
0.000872693
0.000872117
0.00086983
0.000867967
0.000866653
0.000862989
0.000859609
0.000853259
0.000895972
0.00090013
0.000897194
0.000898511
0.000895925
0.000894005
0.000887138
0.000880216
0.000868278
0.000879277
0.000878615
0.000885524
0.000881251
0.000887185
0.000881872
0.000886157
0.000623623
0.000632813
0.00064572
0.000665616
0.00064416
0.000628213
0.000610246
0.000633741
0.000703339
0.000702714
0.000702075
0.000701099
0.000697024
0.000692137
0.000689203
0.000687975
0.000884352
0.000883238
0.000891678
0.000892005
0.00089714
0.00090178
0.000901166
0.000910596
0.000874265
0.00087614
0.000880611
0.000885207
0.000886698
0.000894012
0.000893888
0.000901654
0.000860396
0.000864904
0.000867427
0.000873256
0.000873356
0.000880929
0.000881311
0.000889414
0.000848621
0.00085405
0.000854884
0.000861359
0.00086079
0.000867754
0.00086765
0.000875293
0.000839736
0.000845101
0.000845056
0.000850853
0.000850685
0.000856609
0.000856596
0.000863878
0.000827207
0.000832822
0.000833118
0.000838242
0.000837935
0.000844026
0.000843782
0.000850632
0.000816344
0.000820854
0.000821364
0.000825731
0.000824959
0.000830103
0.00083008
0.000835966
0.000811864
0.000814555
0.000814033
0.000817538
0.000816793
0.000820434
0.000820313
0.000825153
0.000807314
0.000809331
0.000807942
0.000810883
0.000810273
0.000813089
0.000812834
0.000816281
0.000807955
0.000809421
0.000807926
0.000809642
0.000809112
0.000811773
0.00081203
0.000814233
0.000807723
0.000808915
0.000808139
0.000808924
0.000807917
0.000809642
0.000809346
0.000811104
0.000810891
0.000812092
0.000812868
0.000813515
0.000812325
0.000810913
0.000808062
0.000806502
0.000806134
0.000806631
0.000808139
0.000808186
0.000808344
0.00080624
0.000804898
0.00080265
0.00081094
0.000808992
0.000808376
0.000806255
0.000806535
0.000804747
0.000806405
0.0008053
0.000835673
0.000832075
0.000830492
0.000826844
0.000826469
0.00082431
0.000826186
0.000823814
0.000862893
0.000860226
0.000858619
0.000856493
0.000855547
0.000852762
0.000852504
0.000849407
0.000883312
0.000883606
0.000881284
0.000879655
0.000878549
0.000875886
0.000872708
0.000866332
0.000895456
0.000901023
0.000898709
0.000900931
0.00089928
0.000899776
0.000893866
0.000887784
0.000846601
0.000858077
0.000857889
0.000866516
0.000863037
0.000870724
0.000865766
0.000872566
0.000613485
0.000615637
0.000623191
0.000647288
0.00063451
0.000621044
0.000597264