/*--------------------------------*- C++ -*----------------------------------*\
  =========                 |
  \\      /  F ield         | OpenFOAM: The Open Source CFD Toolbox
   \\    /   O peration     | Website:  https://openfoam.org
    \\  /    A nd           | Version:  6
     \\/     M anipulation  |
\*---------------------------------------------------------------------------*/
FoamFile
{
    version     2.0;
    format      ascii;
    class       surfaceScalarField;
    location    "1";
    object      phi;
}
// * * * * * * * * * * * * * * * * * * * * * * * * * * * * * * * * * * * * * //

dimensions      [0 3 -1 0 0 0 0];

internalField   nonuniform List<scalar> 
184750
(
9.67903e-07
2.23466e-07
8.70892e-10
-2.37023e-07
9.82419e-07
2.44576e-07
8.33491e-10
-2.59926e-07
9.98769e-07
2.66059e-07
1.05514e-09
-2.83465e-07
1.01734e-06
2.87507e-07
9.71663e-10
-3.07051e-07
1.03825e-06
3.0954e-07
9.59501e-10
-3.31406e-07
1.06089e-06
3.31514e-07
7.42219e-10
-3.54894e-07
1.08517e-06
3.54239e-07
9.34705e-10
-3.7946e-07
3.76087e-07
-6.81806e-10
1.11047e-06
-4.00707e-07
9.59921e-07
2.07683e-07
1.26315e-09
9.75464e-07
2.27605e-07
1.42744e-09
9.92282e-07
2.47692e-07
1.54977e-09
1.01038e-06
2.6778e-07
1.62767e-09
1.03052e-06
2.87921e-07
1.47977e-09
1.05246e-06
3.08258e-07
1.31247e-09
1.07679e-06
3.28693e-07
1.21841e-09
3.49756e-07
-1.66874e-10
1.10329e-06
9.43592e-07
1.91408e-07
8.00794e-10
9.60682e-07
2.09713e-07
8.02661e-10
9.79383e-07
2.28212e-07
7.7911e-10
9.99367e-07
2.46949e-07
8.47595e-10
1.02081e-06
2.65612e-07
8.65783e-10
1.04341e-06
2.84596e-07
1.06465e-09
1.06781e-06
3.03203e-07
1.09175e-09
3.2289e-07
-2.80765e-10
1.09495e-06
9.34141e-07
1.76401e-07
6.83402e-10
9.4992e-07
1.93067e-07
8.65884e-10
9.67441e-07
2.09802e-07
8.89546e-10
9.86495e-07
2.26823e-07
1.0712e-09
1.0074e-06
2.43703e-07
1.00353e-09
1.02986e-06
2.61049e-07
1.08996e-09
1.05422e-06
2.77874e-07
9.62294e-10
2.95993e-07
-7.45157e-10
1.08187e-06
9.20899e-07
1.60237e-07
4.84874e-10
9.37838e-07
1.75527e-07
6.01532e-10
9.56062e-07
1.90921e-07
6.563e-10
9.75476e-07
2.06614e-07
7.95589e-10
9.96282e-07
2.22117e-07
7.79275e-10
1.01841e-06
2.38015e-07
9.05144e-10
1.04211e-06
2.53279e-07
8.98916e-10
2.69768e-07
-7.53773e-10
1.06909e-06
9.0138e-07
1.44384e-07
3.61899e-10
9.18887e-07
1.57865e-07
1.54878e-10
9.3818e-07
1.71617e-07
1.08126e-11
9.58835e-07
1.85869e-07
8.96268e-11
9.80799e-07
2.00103e-07
5.08955e-11
1.00376e-06
2.14734e-07
3.17478e-10
1.02791e-06
2.28682e-07
4.50358e-10
2.43635e-07
-1.09952e-09
1.05514e-06
8.92294e-07
1.29795e-07
3.71641e-10
9.08127e-07
1.41623e-07
4.07993e-10
9.25959e-07
1.53599e-07
1.8568e-10
9.45458e-07
1.66097e-07
2.73078e-10
9.66433e-07
1.78743e-07
3.8562e-10
9.8853e-07
1.91871e-07
7.66334e-10
1.01188e-06
2.04394e-07
9.34756e-10
2.17784e-07
-6.49926e-10
1.03838e-06
8.74124e-07
1.14751e-07
-1.57198e-10
8.89998e-07
1.25461e-07
2.88523e-10
9.06998e-07
1.36081e-07
5.18529e-10
9.25479e-07
1.46922e-07
6.94149e-10
9.45823e-07
1.5774e-07
6.58392e-10
9.67821e-07
1.69046e-07
8.27878e-10
9.91606e-07
1.79888e-07
7.20926e-10
1.9174e-07
-1.40883e-09
1.01906e-06
7.49958e-07
1.0142e-07
1.31181e-10
7.63824e-07
1.1115e-07
4.44282e-10
7.78297e-07
1.20812e-07
7.96042e-10
7.93464e-07
1.30509e-07
1.24577e-09
8.10087e-07
1.39903e-07
1.21372e-09
8.28515e-07
1.4959e-07
1.02781e-09
8.48961e-07
1.5884e-07
6.01571e-10
1.69284e-07
-1.79955e-09
8.73216e-07
6.98355e-07
8.85458e-08
3.14785e-10
7.11941e-07
9.69804e-08
5.83688e-10
7.26827e-07
1.0531e-07
6.16994e-10
7.42919e-07
1.13709e-07
7.07672e-10
7.60451e-07
1.21909e-07
4.62617e-10
7.79379e-07
1.30428e-07
2.33363e-10
7.99726e-07
1.38611e-07
-1.17344e-10
1.47999e-07
-2.08145e-09
8.23092e-07
6.52742e-07
7.68314e-08
6.33406e-10
6.64562e-07
8.41764e-08
9.83533e-10
6.77861e-07
9.12041e-08
8.06577e-10
6.92946e-07
9.81606e-08
4.63452e-10
7.09987e-07
1.04961e-07
-9.31747e-11
7.28534e-07
1.12193e-07
-3.11887e-10
7.48388e-07
1.19277e-07
-5.20486e-10
1.27621e-07
-2.33861e-09
7.71105e-07
6.06755e-07
6.38932e-08
-3.6921e-10
6.21167e-07
7.03531e-08
-5.8882e-10
6.36323e-07
7.68079e-08
-7.59481e-10
6.51871e-07
8.32727e-08
-6.59852e-10
6.67958e-07
8.94668e-08
-5.9264e-10
6.84513e-07
9.58404e-08
-2.02366e-10
7.01909e-07
1.01862e-07
1.79581e-11
1.08871e-07
-1.34495e-09
7.22004e-07
5.62862e-07
5.27569e-08
-5.95669e-10
5.76215e-07
5.79263e-08
-9.26883e-10
5.90746e-07
6.34956e-08
-1.21839e-09
6.05582e-07
6.94074e-08
-9.70997e-10
6.20508e-07
7.51275e-08
-5.86077e-10
6.35394e-07
8.08133e-08
1.40656e-10
6.50979e-07
8.58031e-08
4.74779e-10
9.14529e-08
-1.22738e-09
6.69625e-07
5.3287e-07
4.37424e-08
-3.41691e-10
5.43126e-07
4.79965e-08
-3.25785e-10
5.54327e-07
5.26948e-08
-3.99917e-10
5.66066e-07
5.78121e-08
-1.44456e-10
5.78292e-07
6.27551e-08
1.46882e-10
5.90782e-07
6.75277e-08
7.95654e-10
6.04151e-07
7.13412e-08
1.0927e-09
7.55907e-08
-4.43013e-10
6.20456e-07
4.87149e-07
3.50694e-08
-2.14542e-10
4.96481e-07
3.87609e-08
-9.57878e-11
5.06419e-07
4.29064e-08
-1.5011e-10
5.16621e-07
4.74578e-08
1.52303e-10
5.27215e-07
5.16448e-08
5.16273e-10
5.38181e-07
5.53479e-08
1.21421e-09
5.50468e-07
5.76773e-08
1.37689e-09
6.03946e-08
-7.53772e-10
5.66418e-07
4.49774e-07
2.71241e-08
-1.87704e-10
4.5836e-07
3.02708e-08
-9.54706e-11
4.67504e-07
3.39738e-08
-2.12002e-10
4.76665e-07
3.82286e-08
6.78249e-11
4.85831e-07
4.20035e-08
4.7544e-10
4.94916e-07
4.49172e-08
1.34604e-09
5.04993e-07
4.58683e-08
1.73195e-09
4.69579e-08
1.88286e-11
5.18411e-07
3.98417e-07
1.9774e-08
-2.66086e-10
4.06628e-07
2.24085e-08
-3.48264e-10
4.15095e-07
2.57852e-08
-2.79279e-10
4.23463e-07
2.9767e-08
9.42589e-11
4.31822e-07
3.31898e-08
4.54857e-10
4.39833e-07
3.55874e-08
1.3183e-09
4.48422e-07
3.55698e-08
1.70971e-09
3.57421e-08
1.12581e-10
4.59525e-07
3.61336e-07
1.31504e-08
-1.28239e-10
3.68897e-07
1.50959e-08
-2.48573e-10
3.77023e-07
1.81209e-08
-4.61684e-10
3.84785e-07
2.21181e-08
-1.1308e-10
3.91864e-07
2.5541e-08
5.7006e-10
3.98192e-07
2.75463e-08
1.71284e-09
4.04919e-07
2.6572e-08
2.27098e-09
2.57194e-08
1.21256e-09
4.13729e-07
2.95493e-07
7.28968e-09
-1.69949e-10
3.02475e-07
8.39005e-09
-2.75206e-10
3.10468e-07
1.0475e-08
-3.48089e-10
3.18385e-07
1.39006e-08
3.01434e-10
3.25446e-07
1.73244e-08
1.15519e-09
3.31191e-07
1.97104e-08
2.09047e-09
3.36906e-07
1.89834e-08
1.87456e-09
1.91242e-08
-1.38648e-10
3.43639e-07
2.11268e-07
5.1499e-09
-8.72777e-10
2.13814e-07
5.51159e-09
3.32013e-10
2.19723e-07
4.96831e-09
-4.02171e-10
2.31123e-07
4.2878e-09
-1.7873e-09
2.46624e-07
4.60571e-09
-2.78292e-09
2.63214e-07
6.44648e-09
-3.32602e-09
2.78336e-07
7.69275e-09
-3.83117e-09
1.01952e-08
-3.75451e-09
2.9102e-07
3.17583e-07
-2.42779e-09
3.25211e-07
-2.11669e-09
3.32206e-07
-2.02659e-09
3.39248e-07
-2.75393e-09
3.48236e-07
-4.3825e-09
3.60015e-07
-5.33267e-09
3.73639e-07
-5.93135e-09
-3.67051e-09
3.87505e-07
1.9308e-06
4.55509e-07
-1.40153e-09
-4.8219e-07
1.96275e-06
4.96937e-07
-1.29483e-09
-5.26759e-07
1.99789e-06
5.38967e-07
-8.82592e-10
-5.72174e-07
2.03637e-06
5.8128e-07
-7.19472e-10
-6.18066e-07
2.07828e-06
6.24245e-07
-4.35131e-10
-6.6476e-07
2.12327e-06
6.67243e-07
-4.55392e-10
-7.11039e-07
2.17104e-06
7.11212e-07
1.29082e-11
-7.58056e-07
7.53875e-07
-2.64276e-09
2.22141e-06
-8.02286e-07
1.92303e-06
4.26522e-07
-1.42365e-10
1.95584e-06
4.65439e-07
1.21833e-10
1.99128e-06
5.04744e-07
3.34067e-10
2.02939e-06
5.44188e-07
6.02754e-10
2.07064e-06
5.83789e-07
6.92927e-10
2.11513e-06
6.23467e-07
5.95877e-10
2.16312e-06
6.63641e-07
7.97065e-10
7.03943e-07
-1.86982e-09
2.21476e-06
1.90643e-06
3.96107e-07
-1.59459e-10
1.94068e-06
4.32068e-07
-7.06776e-11
1.9778e-06
4.6845e-07
-4.45944e-11
2.01757e-06
5.05163e-07
9.68633e-11
2.06009e-06
5.41967e-07
1.63959e-10
2.1053e-06
5.78937e-07
3.86347e-10
2.15345e-06
6.15859e-07
7.2871e-10
6.53352e-07
-1.96329e-09
2.20572e-06
1.89505e-06
3.6692e-07
-3.77888e-10
1.92822e-06
3.99849e-07
-7.67792e-11
1.96445e-06
4.33092e-07
1.75473e-11
2.00368e-06
4.66704e-07
3.00702e-10
2.04597e-06
5.00376e-07
2.97774e-10
2.09119e-06
5.34358e-07
4.48631e-10
2.13931e-06
5.68095e-07
6.05319e-10
6.02626e-07
-2.52417e-09
2.19182e-06
1.88001e-06
3.36214e-07
-3.76624e-10
1.91422e-06
3.66427e-07
-1.81881e-10
1.95107e-06
3.96958e-07
-6.14374e-11
1.99052e-06
4.27882e-07
1.65942e-10
2.03267e-06
4.58816e-07
1.93587e-10
2.07751e-06
4.90026e-07
3.91854e-10
2.12505e-06
5.20828e-07
6.30739e-10
5.52391e-07
-2.62657e-09
2.17715e-06
1.85718e-06
3.055e-07
-4.80301e-10
1.89191e-06
3.32463e-07
-6.1612e-10
1.92986e-06
3.5979e-07
-7.69187e-10
1.97067e-06
3.87771e-07
-6.0424e-10
2.01413e-06
4.16084e-07
-6.79785e-10
2.06004e-06
4.44872e-07
-4.43625e-10
2.10821e-06
4.73248e-07
-1.31507e-10
5.02161e-07
-3.29905e-09
2.16063e-06
1.84495e-06
2.76106e-07
-3.53692e-10
1.87793e-06
3.00049e-07
-1.6025e-10
1.91416e-06
3.24132e-07
-3.84973e-10
1.95364e-06
3.48843e-07
-2.84867e-10
1.99619e-06
3.74149e-07
-2.30218e-10
2.04145e-06
4.00242e-07
1.42272e-10
2.08905e-06
4.2611e-07
4.68152e-10
4.52378e-07
-2.69375e-09
2.14088e-06
1.82254e-06
2.46036e-07
-1.3928e-09
1.85597e-06
2.67779e-07
-8.69648e-10
1.89171e-06
2.8945e-07
-5.46872e-10
1.93015e-06
3.11361e-07
-2.56611e-10
1.97172e-06
3.33521e-07
-2.82085e-10
2.01639e-06
3.56333e-07
6.3181e-11
2.06393e-06
3.78977e-07
3.08173e-10
4.02224e-07
-3.5767e-09
2.11626e-06
1.57631e-06
2.19317e-07
-5.06402e-10
1.60553e-06
2.39186e-07
-1.8389e-10
1.63651e-06
2.59116e-07
1.52199e-10
1.66929e-06
2.79132e-07
6.98141e-10
1.70439e-06
2.98904e-07
7.2683e-10
1.7423e-06
3.18755e-07
6.96555e-10
1.78322e-06
3.38118e-07
5.40731e-10
3.58261e-07
-3.6837e-09
1.82907e-06
1.48654e-06
1.93691e-07
-5.63023e-10
1.51506e-06
2.11423e-07
-1.67091e-10
1.54575e-06
2.29065e-07
-2.8987e-11
1.57863e-06
2.46648e-07
3.18476e-10
1.61385e-06
2.63895e-07
2.48439e-10
1.65152e-06
2.81143e-07
1.7825e-10
1.6916e-06
2.9795e-07
-3.31438e-11
3.15697e-07
-4.02175e-09
1.73611e-06
1.40379e-06
1.6991e-07
1.59227e-10
1.4298e-06
1.85734e-07
6.63052e-10
1.45801e-06
2.01032e-07
6.33345e-10
1.48887e-06
2.15785e-07
4.66174e-10
1.52281e-06
2.30013e-07
-1.47394e-10
1.55969e-06
2.44417e-07
-4.7459e-10
1.59912e-06
2.58827e-07
-8.21942e-10
2.74584e-07
-4.74714e-09
1.64264e-06
1.32059e-06
1.44278e-07
-5.84748e-10
1.3487e-06
1.57718e-07
-6.85098e-10
1.37864e-06
1.71201e-07
-8.71499e-10
1.41003e-06
1.8454e-07
-8.05216e-10
1.44295e-06
1.97445e-07
-9.41113e-10
1.47743e-06
2.10361e-07
-6.28674e-10
1.51361e-06
2.23064e-07
-3.94242e-10
2.36762e-07
-3.38373e-09
1.55347e-06
1.24083e-06
1.21103e-07
-8.25682e-10
1.26725e-06
1.31539e-07
-1.16183e-09
1.29614e-06
1.42738e-07
-1.65444e-09
1.32659e-06
1.5471e-07
-1.59044e-09
1.3581e-06
1.66834e-07
-1.47739e-09
1.39043e-06
1.78947e-07
-7.80417e-10
1.42394e-06
1.90306e-07
-2.77125e-10
2.01926e-07
-3.42648e-09
1.46098e-06
1.181e-06
1.01327e-07
-8.82822e-10
1.20329e-06
1.09864e-07
-9.47963e-10
1.22757e-06
1.19231e-07
-1.1702e-09
1.25345e-06
1.29629e-07
-9.45892e-10
1.28073e-06
1.40435e-07
-7.30286e-10
1.3091e-06
1.51231e-07
1.40663e-10
1.3388e-06
1.60855e-07
8.407e-10
1.70174e-07
-1.98454e-09
1.3721e-06
1.10105e-06
8.24551e-08
-1.05278e-09
1.12201e-06
8.98662e-08
-1.05944e-09
1.14424e-06
9.81025e-08
-1.25548e-09
1.16752e-06
1.07377e-07
-8.6966e-10
1.19196e-06
1.16907e-07
-4.03231e-10
1.21767e-06
1.26074e-07
6.67477e-10
1.24523e-06
1.3336e-07
1.30548e-09
1.3987e-07
-2.22796e-09
1.27701e-06
1.03113e-06
6.48461e-08
-9.19067e-10
1.05071e-06
7.11357e-08
-9.45759e-10
1.07146e-06
7.83496e-08
-1.21093e-09
1.09295e-06
8.68848e-08
-9.30092e-10
1.11507e-06
9.57732e-08
-5.07115e-10
1.13777e-06
1.03943e-07
7.74815e-10
1.16179e-06
1.0923e-07
1.84153e-09
1.12815e-07
-8.47279e-10
1.18971e-06
9.42032e-07
4.84168e-08
-1.18714e-09
9.60707e-07
5.35318e-08
-1.41985e-09
9.80415e-07
5.98521e-08
-1.48894e-09
1.00062e-06
6.78077e-08
-1.03127e-09
1.02113e-06
7.61835e-08
-4.69963e-10
1.0417e-06
8.35713e-08
1.11704e-09
1.06314e-06
8.72335e-08
2.27534e-09
8.89072e-08
-4.93463e-10
1.08765e-06
8.71954e-07
3.32514e-08
-8.29751e-10
8.89275e-07
3.69526e-08
-9.9006e-10
9.07883e-07
4.20496e-08
-1.26732e-09
9.26871e-07
4.97062e-08
-9.99053e-10
9.45536e-07
5.85223e-08
-4.34118e-10
9.63572e-07
6.60826e-08
1.16588e-09
9.81976e-07
6.85712e-08
2.52895e-09
6.81544e-08
9.41267e-10
1.003e-06
7.57534e-07
1.94971e-08
-1.28468e-09
7.73942e-07
2.16846e-08
-1.41612e-09
7.9202e-07
2.50436e-08
-1.41966e-09
8.10924e-07
3.16601e-08
-5.56904e-10
8.29511e-07
4.04891e-08
6.01437e-10
8.46747e-07
4.86062e-08
2.33153e-09
8.63422e-07
5.10322e-08
2.73829e-09
5.10585e-08
-2.52488e-10
8.80632e-07
6.00251e-07
9.71734e-09
-1.85499e-09
6.10957e-07
1.05472e-08
7.64052e-10
6.24298e-07
1.0082e-08
1.21816e-09
6.4482e-07
9.76425e-09
-4.13378e-10
6.73833e-07
1.14689e-08
-2.77611e-09
7.07855e-07
1.56419e-08
-4.38341e-09
7.41814e-07
1.86511e-08
-5.40965e-09
2.19545e-08
-5.33854e-09
7.72502e-07
5.05893e-07
-2.81547e-09
5.16474e-07
-2.15074e-09
5.26417e-07
-1.88727e-09
5.36105e-07
-2.67815e-09
5.47877e-07
-4.68521e-09
5.63346e-07
-5.15977e-09
5.81673e-07
-5.60682e-09
-5.82668e-10
6.00539e-07
2.72572e-06
6.51154e-07
-4.06e-09
-6.89802e-07
2.77115e-06
7.08648e-07
-3.85971e-09
-7.51512e-07
2.82095e-06
7.66914e-07
-3.38515e-09
-8.14216e-07
2.87529e-06
8.25687e-07
-3.09349e-09
-8.77652e-07
2.9342e-06
8.85275e-07
-2.55644e-09
-9.42063e-07
2.99735e-06
9.45009e-07
-2.32725e-09
-1.00628e-06
3.06428e-06
1.00584e-06
-1.55458e-09
-1.07121e-06
1.06529e-06
-4.85453e-09
3.13472e-06
-1.13351e-06
2.71559e-06
6.10108e-07
-2.12193e-09
2.76204e-06
6.64105e-07
-1.78258e-09
2.81216e-06
7.18655e-07
-1.52502e-09
2.8661e-06
7.73486e-07
-1.14539e-09
2.92429e-06
8.28579e-07
-7.91286e-10
2.98688e-06
8.83734e-07
-7.28592e-10
3.05421e-06
9.39518e-07
-1.99373e-10
9.95361e-07
-3.95511e-09
3.12622e-06
2.69493e-06
5.67205e-07
-1.62297e-09
2.74316e-06
6.17212e-07
-1.41154e-09
2.79528e-06
6.67795e-07
-1.3035e-09
2.85112e-06
7.18821e-07
-1.07164e-09
2.91075e-06
7.70044e-07
-9.37908e-10
2.9742e-06
8.214e-07
-7.31293e-10
3.04177e-06
8.72797e-07
-1.16551e-10
9.24662e-07
-3.90463e-09
3.11441e-06
2.67952e-06
5.25593e-07
-1.79021e-09
2.7266e-06
5.71453e-07
-1.39398e-09
2.77788e-06
6.17783e-07
-1.25093e-09
2.83335e-06
6.64589e-07
-9.39248e-10
2.89302e-06
7.11591e-07
-9.23636e-10
2.95673e-06
7.58886e-07
-7.46692e-10
3.02441e-06
8.06009e-07
-2.87758e-10
8.53786e-07
-4.45385e-09
3.09722e-06
2.66043e-06
4.82261e-07
-1.60591e-09
2.70863e-06
5.24373e-07
-1.30018e-09
2.76055e-06
5.66896e-07
-1.09898e-09
2.8162e-06
6.09911e-07
-8.0764e-10
2.87567e-06
6.53085e-07
-7.65866e-10
2.93893e-06
6.96538e-07
-5.18622e-10
3.00595e-06
7.39646e-07
-2.92231e-11
7.83349e-07
-4.58766e-09
3.07835e-06
2.63197e-06
4.38906e-07
-1.81913e-09
2.68077e-06
4.76691e-07
-1.73333e-09
2.73387e-06
5.14806e-07
-1.78483e-09
2.79107e-06
5.53611e-07
-1.50205e-09
2.85209e-06
5.9296e-07
-1.56848e-09
2.91666e-06
6.32931e-07
-1.41019e-09
2.9845e-06
6.72673e-07
-9.95109e-10
7.12808e-07
-5.56853e-09
3.05731e-06
2.61532e-06
3.96974e-07
-1.37441e-09
2.66217e-06
4.30653e-07
-9.69163e-10
2.71327e-06
4.64376e-07
-1.05789e-09
2.76886e-06
4.98652e-07
-9.19149e-10
2.82887e-06
5.33714e-07
-9.94412e-10
2.89289e-06
5.69861e-07
-8.01818e-10
2.96034e-06
6.06163e-07
-4.77939e-10
6.42828e-07
-5.0192e-09
3.03265e-06
2.58747e-06
3.54082e-07
-2.87913e-09
2.63505e-06
3.84605e-07
-2.40404e-09
2.68594e-06
4.15026e-07
-2.08956e-09
2.74047e-06
4.45612e-07
-1.7412e-09
2.79915e-06
4.76546e-07
-1.7928e-09
2.8621e-06
5.08315e-07
-1.34569e-09
2.92902e-06
5.40241e-07
-6.88285e-10
5.72758e-07
-5.80177e-09
3.00132e-06
2.24097e-06
3.15995e-07
-1.29107e-09
2.28265e-06
3.43822e-07
-1.08184e-09
2.32699e-06
3.7178e-07
-9.44623e-10
2.37398e-06
3.99871e-07
-5.51499e-10
2.424e-06
4.27823e-07
-5.64976e-10
2.47756e-06
4.55831e-07
-3.77709e-10
2.535e-06
4.83347e-07
-3.98416e-12
5.11422e-07
-5.37265e-09
2.59802e-06
2.11886e-06
2.79502e-07
-1.8677e-09
2.15947e-06
3.04532e-07
-1.48617e-09
2.20294e-06
3.29568e-07
-1.28379e-09
2.24931e-06
3.54513e-07
-6.96067e-10
2.29875e-06
3.79074e-07
-4.4389e-10
2.35143e-06
4.03444e-07
-1.14501e-10
2.4074e-06
4.27198e-07
1.53305e-10
4.51603e-07
-5.41609e-09
2.46861e-06
2.00485e-06
2.45444e-07
-7.02187e-10
2.04236e-06
2.67958e-07
-2.77151e-10
2.08264e-06
2.90051e-07
-1.29694e-10
2.12615e-06
3.11363e-07
1.04978e-10
2.17352e-06
3.31789e-07
-2.34187e-10
2.22496e-06
3.52012e-07
-4.83552e-10
2.28008e-06
3.72101e-07
-8.42867e-10
3.9345e-07
-6.65854e-09
2.34015e-06
1.89032e-06
2.09984e-07
-8.81601e-10
1.92929e-06
2.28918e-07
-6.12497e-10
1.97105e-06
2.48018e-07
-5.98224e-10
2.01517e-06
2.6692e-07
-4.85146e-10
2.06165e-06
2.85216e-07
-8.48831e-10
2.1106e-06
3.03267e-07
-8.32562e-10
2.16204e-06
3.21043e-07
-7.72115e-10
3.39747e-07
-5.35454e-09
2.21771e-06
1.78114e-06
1.77567e-07
-9.19335e-10
1.81777e-06
1.92123e-07
-9.96463e-10
1.85809e-06
2.07512e-07
-1.46565e-09
1.90112e-06
2.23931e-07
-1.63342e-09
1.94609e-06
2.40823e-07
-2.05725e-09
1.99262e-06
2.57845e-07
-1.88577e-09
2.04078e-06
2.74179e-07
-1.57255e-09
2.90535e-07
-5.95655e-09
2.09252e-06
1.69659e-06
1.48952e-07
-1.2991e-09
1.72846e-06
1.60755e-07
-1.45173e-09
1.76321e-06
1.73415e-07
-1.82149e-09
1.80051e-06
1.87443e-07
-1.75475e-09
1.84001e-06
2.02421e-07
-1.82954e-09
1.88134e-06
2.17791e-07
-1.1372e-09
1.92444e-06
2.32154e-07
-2.27252e-10
2.45823e-07
-4.06229e-09
1.97123e-06
1.58959e-06
1.21551e-07
-1.97491e-09
1.61987e-06
1.317e-07
-2.284e-09
1.652e-06
1.42729e-07
-2.70316e-09
1.68581e-06
1.55137e-07
-2.37087e-09
1.72141e-06
1.68393e-07
-1.98037e-09
1.75898e-06
1.81769e-07
-8.80908e-10
1.79884e-06
1.93432e-07
1.68959e-10
2.03748e-07
-4.20562e-09
1.84289e-06
1.49265e-06
9.58489e-08
-1.71495e-09
1.52106e-06
1.04384e-07
-2.0413e-09
1.55119e-06
1.13897e-07
-2.50152e-09
1.58265e-06
1.25082e-07
-2.34221e-09
1.6153e-06
1.37342e-07
-2.10634e-09
1.64913e-06
1.49558e-07
-8.41298e-10
1.68453e-06
1.59083e-07
7.86466e-10
1.66018e-07
-2.37523e-09
1.72379e-06
1.37377e-06
7.18833e-08
-2.29934e-09
1.4008e-06
7.87044e-08
-2.77517e-09
1.42953e-06
8.67718e-08
-3.08392e-09
1.45938e-06
9.69433e-08
-2.74556e-09
1.48993e-06
1.0847e-07
-2.14496e-09
1.52089e-06
1.19812e-07
-1.05499e-10
1.55284e-06
1.27511e-07
1.89958e-09
1.32067e-07
-1.48854e-09
1.58779e-06
1.27576e-06
4.95542e-08
-1.64512e-09
1.3009e-06
5.45219e-08
-1.94933e-09
1.32797e-06
6.06142e-08
-2.17915e-09
1.35623e-06
6.97179e-08
-2.03133e-09
1.3847e-06
8.14928e-08
-1.92369e-09
1.41274e-06
9.34547e-08
-5.1566e-10
1.44091e-06
1.00412e-07
1.45585e-09
1.02704e-07
-3.61761e-10
1.47157e-06
1.12082e-06
2.90807e-08
-2.63344e-09
1.14482e-06
3.21018e-08
-2.98908e-09
1.17112e-06
3.57935e-08
-2.90304e-09
1.1992e-06
4.30925e-08
-2.00956e-09
1.22775e-06
5.4466e-08
-9.25673e-10
1.25522e-06
6.70653e-08
1.25356e-09
1.28157e-06
7.40737e-08
2.72974e-09
7.65865e-08
-6.20768e-11
1.30749e-06
9.04724e-07
1.33004e-08
-2.63237e-09
9.22452e-07
1.45683e-08
5.69166e-10
9.42767e-07
1.40321e-08
2.6643e-09
9.70231e-07
1.32471e-08
1.96865e-09
1.0081e-06
1.51483e-08
-1.32458e-09
1.05422e-06
2.09501e-08
-4.3963e-09
1.10269e-06
2.62385e-08
-6.03609e-09
3.13392e-08
-5.82112e-09
1.14842e-06
6.76073e-07
-2.07987e-09
6.89508e-07
-1.01801e-09
7.02408e-07
-7.54802e-10
7.14884e-07
-1.90707e-09
7.29554e-07
-4.20693e-09
7.48734e-07
-3.39011e-09
7.71728e-07
-2.36162e-09
6.90578e-09
7.95578e-07
3.55431e-06
8.57786e-07
-6.69152e-09
-9.09368e-07
3.6138e-06
9.3182e-07
-6.44891e-09
-9.88725e-07
3.6788e-06
1.00676e-06
-5.98224e-09
-1.06916e-06
3.74949e-06
1.08239e-06
-5.65987e-09
-1.15051e-06
3.82589e-06
1.15899e-06
-4.97276e-09
-1.23297e-06
3.90769e-06
1.23586e-06
-4.50608e-09
-1.31548e-06
3.99435e-06
1.31395e-06
-3.45543e-09
-1.39871e-06
1.39056e-06
-7.13126e-09
4.08545e-06
-1.47939e-06
3.54103e-06
8.03746e-07
-4.24734e-09
3.60167e-06
8.73252e-07
-3.86058e-09
3.66702e-06
9.43453e-07
-3.56795e-09
3.73735e-06
1.01407e-06
-3.15965e-09
3.81307e-06
1.08509e-06
-2.60964e-09
3.8944e-06
1.15617e-06
-2.36365e-09
3.98168e-06
1.22797e-06
-1.49144e-09
1.29976e-06
-6.14113e-09
4.07466e-06
3.51564e-06
7.47506e-07
-3.29696e-09
3.57844e-06
8.11993e-07
-2.94987e-09
3.64613e-06
8.77185e-07
-2.72601e-09
3.7186e-06
9.42921e-07
-2.39254e-09
3.79595e-06
1.00897e-06
-2.16386e-09
3.87823e-06
1.07512e-06
-1.97708e-09
3.96587e-06
1.14137e-06
-1.1515e-09
1.20801e-06
-5.82892e-09
4.05954e-06
3.49533e-06
6.926e-07
-3.28687e-09
3.55694e-06
7.51804e-07
-2.81379e-09
3.62388e-06
8.11605e-07
-2.61054e-09
3.69618e-06
8.71978e-07
-2.29728e-09
3.77384e-06
9.32682e-07
-2.29329e-09
3.85667e-06
9.93686e-07
-2.13663e-09
3.94462e-06
1.05455e-06
-1.42847e-09
1.116e-06
-6.31947e-09
4.0385e-06
3.47124e-06
6.35797e-07
-2.93262e-09
3.53402e-06
6.90208e-07
-2.48462e-09
3.60161e-06
7.45081e-07
-2.16593e-09
3.67408e-06
8.00518e-07
-1.81016e-09
3.75151e-06
8.56264e-07
-1.78363e-09
3.83389e-06
9.12332e-07
-1.54273e-09
3.92118e-06
9.68091e-07
-8.58301e-10
1.02435e-06
-6.40499e-09
4.01464e-06
3.43614e-06
5.78987e-07
-3.38576e-09
3.49962e-06
6.28017e-07
-3.01926e-09
3.56847e-06
6.77318e-07
-2.86965e-09
3.64266e-06
7.27271e-07
-2.44688e-09
3.7219e-06
7.7791e-07
-2.45793e-09
3.80586e-06
8.29324e-07
-2.36034e-09
3.89416e-06
8.80677e-07
-1.88559e-09
9.32393e-07
-7.59472e-09
3.98815e-06
3.41396e-06
5.23764e-07
-2.45979e-09
3.47527e-06
5.67583e-07
-1.84835e-09
3.54189e-06
6.11346e-07
-1.7039e-09
3.61422e-06
6.55498e-07
-1.47318e-09
3.69233e-06
7.00482e-07
-1.67608e-09
3.7758e-06
7.46775e-07
-1.71982e-09
3.86389e-06
7.93606e-07
-1.50533e-09
8.40959e-07
-7.19801e-09
3.95751e-06
3.37973e-06
4.67254e-07
-4.39459e-09
3.44203e-06
5.06869e-07
-3.98964e-09
3.50865e-06
5.46349e-07
-3.7201e-09
3.57988e-06
5.85858e-07
-3.33096e-09
3.65629e-06
6.25698e-07
-3.41054e-09
3.73815e-06
6.66506e-07
-2.93808e-09
3.82521e-06
7.07805e-07
-1.94739e-09
7.49913e-07
-7.84873e-09
3.9183e-06
2.92833e-06
4.17071e-07
-2.05067e-09
2.98304e-06
4.53068e-07
-1.99032e-09
3.0413e-06
4.89243e-07
-2.10065e-09
3.10303e-06
5.25555e-07
-1.97716e-09
3.1685e-06
5.61815e-07
-2.15147e-09
3.23827e-06
5.98188e-07
-1.82543e-09
3.31287e-06
6.34127e-07
-9.24603e-10
6.70582e-07
-6.91282e-09
3.39374e-06
2.77159e-06
3.68928e-07
-3.26328e-09
2.82479e-06
4.01364e-07
-2.98366e-09
2.88155e-06
4.33952e-07
-2.75315e-09
2.94193e-06
4.66474e-07
-1.99912e-09
3.00613e-06
4.98613e-07
-1.44587e-09
3.07441e-06
5.30453e-07
-6.54278e-10
3.14692e-06
5.6151e-07
2.62086e-10
5.9298e-07
-6.33061e-09
3.22543e-06
2.62398e-06
3.23801e-07
-1.57149e-09
2.67341e-06
3.53034e-07
-1.37865e-09
2.72627e-06
3.82123e-07
-1.15865e-09
2.78298e-06
4.10393e-07
-5.26461e-10
2.84432e-06
4.37489e-07
-4.52734e-10
2.9108e-06
4.63961e-07
-4.65398e-10
2.98216e-06
4.89989e-07
-6.8668e-10
5.17105e-07
-7.96873e-09
3.05935e-06
2.47551e-06
2.78188e-07
-1.34902e-09
2.52579e-06
3.02753e-07
-6.03524e-10
2.57987e-06
3.27663e-07
-2.20112e-10
2.63727e-06
3.52414e-07
9.21334e-11
2.69788e-06
3.76412e-07
-3.78779e-10
2.76184e-06
3.99848e-07
-6.79538e-10
2.82917e-06
4.2278e-07
-8.95681e-10
4.46515e-07
-6.8885e-09
2.90129e-06
2.33485e-06
2.36402e-07
-1.07022e-09
2.38202e-06
2.55335e-07
-7.47148e-10
2.43418e-06
2.75021e-07
-9.8349e-10
2.49031e-06
2.95879e-07
-1.22666e-09
2.54933e-06
3.1748e-07
-2.14657e-09
2.61059e-06
3.3938e-07
-2.68353e-09
2.67402e-06
3.60662e-07
-2.8805e-09
3.81846e-07
-8.38761e-09
2.74112e-06
2.22371e-06
1.98583e-07
-1.51598e-09
2.26544e-06
2.13854e-07
-1.70186e-09
2.31101e-06
2.29813e-07
-2.17789e-09
2.36013e-06
2.47294e-07
-2.29465e-09
2.41234e-06
2.6618e-07
-2.73776e-09
2.46711e-06
2.85931e-07
-2.45807e-09
2.5242e-06
3.04979e-07
-1.63097e-09
3.23216e-07
-6.27973e-09
2.58504e-06
2.08764e-06
1.62154e-07
-2.73298e-09
2.12748e-06
1.75139e-07
-3.41148e-09
2.16984e-06
1.88898e-07
-4.14625e-09
2.21454e-06
2.04208e-07
-3.98893e-09
2.26166e-06
2.20849e-07
-3.76639e-09
2.31134e-06
2.38178e-07
-2.80945e-09
2.36386e-06
2.54183e-07
-1.54668e-09
2.68709e-07
-6.402e-09
2.42056e-06
1.96087e-06
1.27858e-07
-2.31742e-09
1.99835e-06
1.38662e-07
-3.05164e-09
2.03817e-06
1.5039e-07
-3.80647e-09
2.07995e-06
1.63954e-07
-3.8738e-09
2.12347e-06
1.7913e-07
-3.90339e-09
2.16865e-06
1.94992e-07
-2.83805e-09
2.2158e-06
2.08703e-07
-8.85376e-10
2.19611e-07
-4.21305e-09
2.26674e-06
1.80885e-06
9.59068e-08
-3.31001e-09
1.84445e-06
1.0443e-07
-4.14241e-09
1.8824e-06
1.14142e-07
-4.78887e-09
1.92217e-06
1.26175e-07
-4.73676e-09
1.96313e-06
1.40267e-07
-4.24032e-09
2.00482e-06
1.55103e-07
-1.90392e-09
2.04767e-06
1.66843e-07
9.08137e-10
1.75055e-07
-2.44592e-09
2.09318e-06
1.67825e-06
6.59376e-08
-2.25925e-09
1.71143e-06
7.21762e-08
-2.86881e-09
1.74725e-06
7.92739e-08
-3.12944e-09
1.78515e-06
8.94031e-08
-3.16371e-09
1.82392e-06
1.03189e-07
-3.61116e-09
1.86241e-06
1.18728e-07
-2.62945e-09
1.90078e-06
1.30111e-07
-1.92389e-10
1.36157e-07
-1.8211e-09
1.94114e-06
1.47405e-06
3.83721e-08
-3.76744e-09
1.50559e-06
4.22218e-08
-4.57319e-09
1.54029e-06
4.63283e-08
-4.6663e-09
1.57797e-06
5.38472e-08
-4.12472e-09
1.61719e-06
6.65348e-08
-3.49955e-09
1.65573e-06
8.2468e-08
-1.02244e-09
1.69275e-06
9.39292e-08
1.89485e-09
1.00192e-07
6.54212e-10
1.728e-06
1.1922e-06
1.70174e-08
-3.16992e-09
1.21593e-06
1.88533e-08
2.0514e-10
1.24273e-06
1.86401e-08
3.5536e-09
1.27741e-06
1.74264e-08
3.7087e-09
1.32454e-06
1.87531e-08
-6.70825e-10
1.38304e-06
2.51719e-08
-5.59817e-09
1.44651e-06
3.23849e-08
-7.95919e-09
3.99392e-08
-6.85632e-09
1.50779e-06
8.86207e-07
-7.06995e-10
9.03249e-07
7.92303e-10
9.20117e-07
1.01815e-09
9.36514e-07
-8.78449e-10
9.55067e-07
-4.00629e-09
9.78899e-07
-2.05078e-09
1.00769e-06
1.2298e-09
1.63199e-08
1.03822e-06
4.48418e-06
1.09183e-06
-9.02378e-09
-1.15831e-06
4.55961e-06
1.18435e-06
-8.82131e-09
-1.2574e-06
4.64176e-06
1.27789e-06
-8.39797e-09
-1.35763e-06
4.73082e-06
1.37228e-06
-8.09987e-09
-1.45889e-06
4.8268e-06
1.46779e-06
-7.36087e-09
-1.56139e-06
4.92945e-06
1.5637e-06
-6.71135e-09
-1.66414e-06
5.03813e-06
1.66097e-06
-5.42432e-09
-1.76769e-06
1.75664e-06
-9.2936e-09
5.15232e-06
-1.86867e-06
4.46672e-06
1.02282e-06
-6.25903e-09
4.54343e-06
1.10966e-06
-5.88107e-09
4.62599e-06
1.19731e-06
-5.5439e-09
4.71474e-06
1.28551e-06
-5.14798e-09
4.81017e-06
1.37426e-06
-4.50486e-09
4.9125e-06
1.46311e-06
-4.10936e-09
5.02213e-06
1.55275e-06
-2.89056e-09
1.64231e-06
-8.24854e-09
5.13857e-06
4.43556e-06
9.51313e-07
-5.00494e-09
4.51483e-06
1.03199e-06
-4.55475e-09
4.6001e-06
1.11349e-06
-4.18495e-09
4.69131e-06
1.19564e-06
-3.72941e-09
4.78857e-06
1.27821e-06
-3.37727e-09
4.89198e-06
1.3609e-06
-3.17775e-09
5.00208e-06
1.44367e-06
-2.17819e-09
1.5268e-06
-7.5782e-09
5.11934e-06
4.40925e-06
8.81216e-07
-4.73654e-09
4.4873e-06
9.55357e-07
-4.22925e-09
4.57193e-06
1.0302e-06
-3.94481e-09
4.66315e-06
1.10572e-06
-3.60667e-09
4.76099e-06
1.18169e-06
-3.61057e-09
4.86525e-06
1.258e-06
-3.49726e-09
4.97593e-06
1.33418e-06
-2.61904e-09
1.4109e-06
-8.026e-09
5.09354e-06
4.37895e-06
8.09047e-07
-4.23114e-09
4.45823e-06
8.77239e-07
-3.64294e-09
4.54351e-06
9.45923e-07
-3.16458e-09
4.6349e-06
1.01522e-06
-2.70392e-09
4.73254e-06
1.08496e-06
-2.69395e-09
4.83639e-06
1.15511e-06
-2.50911e-09
4.94646e-06
1.22497e-06
-1.71353e-09
1.29531e-06
-7.9893e-09
5.06364e-06
4.33597e-06
7.36907e-07
-5.02507e-09
4.41604e-06
7.98565e-07
-4.41543e-09
4.50263e-06
8.60446e-07
-3.98528e-09
4.59588e-06
9.22896e-07
-3.37514e-09
4.69558e-06
9.86101e-07
-3.2913e-09
4.8013e-06
1.05023e-06
-3.20375e-09
4.91262e-06
1.11445e-06
-2.67994e-09
1.17911e-06
-9.2775e-09
5.0305e-06
4.30696e-06
6.66605e-07
-3.50599e-09
4.38461e-06
7.21824e-07
-2.76037e-09
4.46877e-06
7.76918e-07
-2.33724e-09
4.55992e-06
8.32202e-07
-1.92959e-09
4.65831e-06
8.88235e-07
-2.20207e-09
4.76356e-06
9.45722e-07
-2.45791e-09
4.87483e-06
1.00409e-06
-2.40204e-09
1.06328e-06
-9.04292e-09
4.9925e-06
4.26511e-06
5.94678e-07
-5.86751e-09
4.34397e-06
6.44485e-07
-5.51e-09
4.4283e-06
6.94141e-07
-5.27824e-09
4.51834e-06
7.4367e-07
-4.83771e-09
4.61468e-06
7.9341e-07
-4.92008e-09
4.71775e-06
8.44175e-07
-4.46176e-09
4.82743e-06
8.95724e-07
-3.26909e-09
9.48458e-07
-9.65734e-09
4.94407e-06
3.69589e-06
5.3079e-07
-2.75096e-09
3.76531e-06
5.75905e-07
-2.82952e-09
3.83928e-06
6.21242e-07
-3.16886e-09
3.91761e-06
6.66693e-07
-3.33092e-09
4.0005e-06
7.12123e-07
-3.75097e-09
4.0885e-06
7.57752e-07
-3.4094e-09
4.18238e-06
8.03041e-07
-2.11848e-09
8.48958e-07
-8.39347e-09
4.28336e-06
3.49987e-06
4.69392e-07
-4.59595e-09
3.56725e-06
5.10007e-07
-4.47108e-09
3.63904e-06
5.50952e-07
-4.24883e-09
3.71523e-06
5.91902e-07
-3.39987e-09
3.79606e-06
6.32493e-07
-2.64661e-09
3.88187e-06
6.72745e-07
-1.45347e-09
3.97297e-06
7.12065e-07
1.36665e-10
7.51642e-07
-6.98008e-09
4.07093e-06
3.31408e-06
4.11641e-07
-2.31802e-09
3.37694e-06
4.48185e-07
-2.41674e-09
3.44403e-06
4.84965e-07
-2.25644e-09
3.51568e-06
5.21068e-07
-1.34983e-09
3.59278e-06
5.55822e-07
-8.74928e-10
3.67606e-06
5.89549e-07
-5.51516e-10
3.76552e-06
6.22398e-07
-4.8555e-10
6.56091e-07
-8.75806e-09
3.86186e-06
3.12701e-06
3.54595e-07
-2.00116e-09
3.18996e-06
3.85421e-07
-7.88381e-10
3.25786e-06
4.16792e-07
4.55245e-11
3.33018e-06
4.48148e-07
6.98334e-10
3.40666e-06
4.78668e-07
2.92808e-10
3.48744e-06
5.08297e-07
-2.1064e-10
3.5726e-06
5.37048e-07
-6.99625e-10
5.66388e-07
-7.87783e-09
3.66329e-06
2.95078e-06
3.02375e-07
-1.38639e-09
3.00968e-06
3.26394e-07
-6.10927e-10
3.07499e-06
3.50974e-07
-4.76973e-10
3.14572e-06
3.76773e-07
-5.88625e-10
3.22052e-06
4.0353e-07
-1.80091e-09
3.29835e-06
4.30759e-07
-2.97648e-09
3.37894e-06
4.57426e-07
-3.85151e-09
4.83929e-07
-1.04564e-08
3.46347e-06
2.80895e-06
2.54278e-07
-1.59733e-09
2.86173e-06
2.73632e-07
-1.72398e-09
2.91941e-06
2.93355e-07
-2.23856e-09
2.9818e-06
3.14589e-07
-2.50337e-09
3.04832e-06
3.37578e-07
-3.30595e-09
3.11823e-06
3.61925e-07
-3.5316e-09
3.19112e-06
3.85952e-07
-3.05197e-09
4.09242e-07
-8.45824e-09
3.26799e-06
2.64006e-06
2.0768e-07
-3.27181e-09
2.69059e-06
2.23957e-07
-4.26981e-09
2.7444e-06
2.4078e-07
-5.38674e-09
2.80135e-06
2.59183e-07
-5.52898e-09
2.86143e-06
2.79292e-07
-5.55895e-09
2.92469e-06
3.00669e-07
-4.81528e-09
2.99139e-06
3.21226e-07
-3.52217e-09
3.40475e-07
-8.66694e-09
3.06242e-06
2.47868e-06
1.63672e-07
-2.65583e-09
2.52634e-06
1.77062e-07
-3.81308e-09
2.57702e-06
1.91254e-07
-4.96979e-09
2.6304e-06
2.07332e-07
-5.39385e-09
2.68615e-06
2.25407e-07
-5.77477e-09
2.74409e-06
2.44866e-07
-4.9783e-09
2.80449e-06
2.62851e-07
-2.90326e-09
2.78277e-07
-6.26101e-09