/*--------------------------------*- C++ -*----------------------------------*\
  =========                 |
  \\      /  F ield         | OpenFOAM: The Open Source CFD Toolbox
   \\    /   O peration     | Website:  https://openfoam.org
    \\  /    A nd           | Version:  6
     \\/     M anipulation  |
\*---------------------------------------------------------------------------*/
FoamFile
{
    version     2.0;
    format      ascii;
    class       surfaceScalarField;
    location    "120";
    object      phi;
}
// * * * * * * * * * * * * * * * * * * * * * * * * * * * * * * * * * * * * * //

dimensions      [0 3 -1 0 0 0 0];

internalField   nonuniform List<scalar> 
5598
(
5.34032e-07
-7.15146e-14
-2.44527e-13
5.34031e-07
-5.39514e-13
1.60009e-12
5.35591e-13
-1.28064e-12
8.0007e-07
-7.7274e-13
-2.0741e-12
8.00065e-07
5.89138e-13
4.46065e-12
1.85525e-13
-2.4639e-12
1.07363e-06
-1.10632e-12
-2.32472e-12
1.07362e-06
1.55786e-12
5.54871e-12
-4.40103e-13
-3.23349e-12
1.35941e-06
-1.13934e-12
-2.85048e-12
1.3594e-06
2.25816e-12
7.45572e-12
-1.10438e-12
-4.60825e-12
1.67933e-06
-8.43681e-13
-3.68101e-12
1.67932e-06
2.6889e-12
1.01871e-11
-1.82785e-12
-6.509e-12
2.04532e-06
-1.3008e-13
-5.05469e-12
2.0453e-06
3.13036e-12
1.46195e-11
-2.98268e-12
-9.56508e-12
2.46901e-06
7.95707e-13
-8.25163e-12
2.46899e-06
3.2327e-12
1.94873e-11
-4.01418e-12
-1.12323e-11
2.96339e-06
1.68637e-12
-1.25666e-11
2.96337e-06
2.59717e-12
2.3249e-11
-4.27108e-12
-1.06806e-11
3.54314e-06
2.20905e-12
-1.71343e-11
3.54312e-06
1.37944e-12
2.43839e-11
-3.57445e-12
-7.25109e-12
4.22414e-06
2.17183e-12
-1.98034e-11
4.22412e-06
3.28937e-13
2.53729e-11
-2.49135e-12
-5.56482e-12
5.02207e-06
1.71276e-12
-2.14691e-11
5.02204e-06
-7.13982e-14
2.4646e-11
-1.63022e-12
-3.1787e-12
5.95036e-06
1.13352e-12
-2.28467e-11
5.95034e-06
-9.42e-14
2.45456e-11
-1.03232e-12
-1.69475e-12
7.01991e-06
7.02005e-13
-2.37427e-11
7.01988e-06
-4.81979e-14
2.55991e-11
-6.44183e-13
-1.85887e-12
8.24035e-06
3.68769e-13
-2.50149e-11
8.24032e-06
-5.02956e-14
2.67274e-11
-3.07549e-13
-1.71387e-12
9.62061e-06
2.18371e-14
-2.72716e-11
9.62058e-06
4.38443e-15
2.93186e-11
-2.4634e-14
-2.03764e-12
9.62056e-06
-3.16945e-13
-2.71626e-11
9.62053e-06
5.49691e-14
2.92006e-11
2.6264e-13
-2.03707e-12
8.24023e-06
-6.51024e-13
-2.48618e-11
8.24021e-06
7.00797e-14
2.65491e-11
5.824e-13
-1.68815e-12
7.01976e-06
-1.0975e-12
-2.35081e-11
7.01973e-06
1.04605e-13
2.52465e-11
9.91236e-13
-1.73528e-12
5.9502e-06
-1.71002e-12
-2.26457e-11
5.95018e-06
1.45381e-13
2.42683e-11
1.56174e-12
-1.62133e-12
5.02188e-06
-2.26021e-12
-2.13361e-11
5.02186e-06
-1.8244e-13
2.43483e-11
2.44023e-12
-3.01268e-12
4.224e-06
-2.29176e-12
-1.92688e-11
4.22398e-06
-1.31346e-12
2.4775e-11
3.60587e-12
-5.5093e-12
3.54302e-06
-1.6993e-12
-1.65675e-11
3.543e-06
-2.70199e-12
2.38813e-11
4.40321e-12
-7.31507e-12
2.96332e-06
-6.87534e-13
-1.20285e-11
2.9633e-06
-3.53609e-12
2.30969e-11
4.22695e-12
-1.10698e-11
2.46898e-06
3.5149e-13
-7.89969e-12
2.46896e-06
-3.54126e-12
1.96659e-11
3.19322e-12
-1.17664e-11
2.0453e-06
1.18525e-12
-4.93293e-12
2.04529e-06
-3.13545e-12
1.50373e-11
1.95293e-12
-1.01036e-11
1.67931e-06
1.54162e-12
-3.67889e-12
1.6793e-06
-2.67631e-12
1.06146e-11
1.13611e-12
-6.93436e-12
1.3594e-06
1.50597e-12
-3.04442e-12
1.35939e-06
-1.89076e-12
7.87411e-12
3.85189e-13
-4.82867e-12
1.07361e-06
1.05059e-12
-2.60255e-12
1.0736e-06
-7.53582e-13
5.91616e-12
-2.97026e-13
-3.31319e-12
8.00048e-07
2.99932e-14
-2.37821e-12
8.00042e-07
5.57733e-13
4.80981e-12
-5.87512e-13
-2.43183e-12
5.34023e-07
-4.3724e-13
5.34022e-07
1.75907e-12
-1.32162e-12
7.49992e-07
-3.91265e-14
-5.5099e-13
7.49991e-07
-7.03366e-13
3.48701e-12
7.61749e-13
-2.88035e-12
1.23912e-06
-9.95975e-13
-3.69662e-12
1.23912e-06
7.62791e-13
8.63256e-12
2.95291e-13
-5.05614e-12
1.63479e-06
-1.57934e-12
-4.26436e-12
1.63479e-06
2.26124e-12
1.07475e-11
-6.36326e-13
-6.4761e-12
2.04602e-06
-1.61913e-12
-5.59362e-12
2.04601e-06
3.23875e-12
1.49074e-11
-1.58102e-12
-9.30982e-12
2.5051e-06
-1.22231e-12
-7.35363e-12
2.50509e-06
3.88384e-12
2.05153e-11
-2.62802e-12
-1.31595e-11
3.02947e-06
-2.17284e-13
-1.01939e-11
3.02945e-06
4.46723e-12
2.97163e-11
-4.21862e-12
-1.95204e-11
3.63559e-06
1.09705e-12
-1.66592e-11
3.63557e-06
4.60815e-12
3.99246e-11
-5.678e-12
-2.32578e-11
4.34158e-06
2.37746e-12
-2.55028e-11
4.34156e-06
3.67509e-12
4.81482e-11
-6.02846e-12
-2.26405e-11
5.16784e-06
3.13867e-12
-3.51381e-11
5.16782e-06
1.96514e-12
5.09437e-11
-5.07945e-12
-1.58074e-11
6.13645e-06
3.09956e-12
-4.10018e-11
6.13643e-06
4.62433e-13
5.31548e-11
-3.54e-12
-1.21461e-11
7.26954e-06
2.44112e-12
-4.47511e-11
7.26951e-06
-1.1274e-13
5.16041e-11
-2.3097e-12
-6.85135e-12
8.58693e-06
1.6226e-12
-4.78708e-11
8.5869e-06
-1.31007e-13
5.13711e-11
-1.47925e-12
-3.48978e-12
1.01059e-05
9.97511e-13
-4.9981e-11
1.01058e-05
-8.3624e-14
5.36839e-11
-9.08961e-13
-3.6979e-12
1.18428e-05
5.18111e-13
-5.29214e-11
1.18427e-05
-7.71452e-14
5.62174e-11
-4.46105e-13
-3.28735e-12
1.38139e-05
3.05247e-14
-5.78474e-11
1.38138e-05
1.93394e-15
6.17647e-11
-3.52682e-14
-3.91033e-12
1.38138e-05
-4.50085e-13
-5.76232e-11
1.38138e-05
7.40058e-14
6.15217e-11
3.78901e-13
-3.90324e-12
1.18426e-05
-9.28057e-13
-5.26116e-11
1.18426e-05
9.95224e-14
5.58535e-11
8.30022e-13
-3.24137e-12
1.01057e-05
-1.55969e-12
-4.95186e-11
1.01057e-05
1.43533e-13
5.2964e-11
1.41399e-12
-3.43864e-12
8.58673e-06
-2.43237e-12
-4.74409e-11
8.5867e-06
2.01612e-13
5.07896e-11
2.22672e-12
-3.34554e-12
7.26931e-06
-3.20704e-12
-4.44727e-11
7.26928e-06
-2.67926e-13
5.09774e-11
3.47252e-12
-6.50675e-12
6.13627e-06
-3.24926e-12
-3.98985e-11
6.13624e-06
-1.87351e-12
5.19152e-11
5.12397e-12
-1.20234e-11
5.16768e-06
-2.38487e-12
-3.40017e-11
5.16766e-06
-3.82924e-12
4.99454e-11
6.21725e-12
-1.59468e-11
4.34149e-06
-9.38452e-13
-2.44268e-11
4.34146e-06
-5.02736e-12
4.78742e-11
5.97022e-12
-2.34501e-11
3.63554e-06
5.41431e-13
-1.59575e-11
3.63552e-06
-5.04888e-12
4.03042e-11
4.5118e-12
-2.43468e-11
3.02944e-06
1.72045e-12
-9.94843e-12
3.02943e-06
-4.5243e-12
3.05748e-11
2.80731e-12
-2.06248e-11
2.50508e-06
2.21583e-12
-7.36201e-12
2.50507e-06
-3.84485e-12
2.13648e-11
1.63081e-12
-1.39998e-11
2.046e-06
2.18387e-12
-5.98791e-12
2.04599e-06
-2.7411e-12
1.57196e-11
5.57519e-13
-9.72917e-12
1.63477e-06
1.44464e-12
-4.79346e-12
1.63476e-06
-9.96034e-13
1.14335e-11
-4.48656e-13
-6.63931e-12
1.2391e-06
1.22365e-13
-4.27154e-12
1.23909e-06
7.1798e-13
9.29079e-12
-8.40162e-13
-5.01972e-12
7.4998e-07
-8.19648e-13
7.49978e-07
3.81037e-12
-2.99033e-12
9.62108e-07
-6.00579e-14
-9.10871e-13
9.62107e-07
-8.86456e-13
5.76357e-12
9.72417e-13
-4.82293e-12
1.63766e-06
-1.23915e-12
-5.01139e-12
1.63766e-06
9.07121e-13
1.26197e-11
3.96152e-13
-7.76675e-12
2.15279e-06
-1.99881e-12
-5.99445e-12
2.15278e-06
2.8491e-12
1.57863e-11
-7.96977e-13
-9.77401e-12
2.68699e-06
-2.0648e-12
-8.31795e-12
2.68699e-06
4.11732e-12
2.24892e-11
-2.00497e-12
-1.41615e-11
3.282e-06
-1.58086e-12
-1.11213e-11
3.28199e-06
4.96113e-12
3.12044e-11
-3.33848e-12
-2.00751e-11
3.96072e-06
-3.19555e-13
-1.5528e-11
3.9607e-06
5.68463e-12
4.55403e-11
-5.3257e-12
-3.00079e-11
4.74448e-06
1.34561e-12
-2.53894e-11
4.74446e-06
5.85047e-12
6.16088e-11
-7.16206e-12
-3.62066e-11
5.65662e-06
2.98088e-12
-3.90365e-11
5.6566e-06
4.65993e-12
7.49765e-11
-7.61082e-12
-3.59311e-11
6.72327e-06
3.95988e-12
-5.42795e-11
6.72324e-06
2.49974e-12
7.99883e-11
-6.43013e-12
-2.571e-11
7.97274e-06
3.91893e-12
-6.398e-11
7.97271e-06
5.86184e-13
8.37416e-11
-4.47816e-12
-1.97521e-11
9.43349e-06
3.08479e-12
-7.03568e-11
9.43346e-06
-1.53393e-13
8.14075e-11
-2.90895e-12
-1.10446e-11
1.11314e-05
2.05149e-12
-7.56762e-11
1.11314e-05
-1.77794e-13
8.11217e-11
-1.85718e-12
-5.42901e-12
1.30896e-05
1.26311e-12
-7.93922e-11
1.30895e-05
-1.20149e-13
8.49287e-11
-1.13364e-12
-5.52425e-12
1.53303e-05
6.58746e-13
-8.44434e-11
1.53303e-05
-1.03516e-13
8.91831e-11
-5.57864e-13
-4.71916e-12
1.78763e-05
4.03715e-14
-9.25202e-11
1.78762e-05
2.24646e-15
9.81137e-11
-4.29724e-14
-5.58882e-12
1.78762e-05
-5.69801e-13
-9.21748e-11
1.78761e-05
1.0011e-13
9.77347e-11
4.73936e-13
-5.56931e-12
1.53301e-05
-1.17483e-12
-8.39654e-11
1.53301e-05
1.39379e-13
8.86198e-11
1.03734e-12
-4.65152e-12
1.30893e-05
-1.97184e-12
-7.86917e-11
1.30893e-05
1.95356e-13
8.38248e-11
1.77389e-12
-5.12185e-12
1.11312e-05
-3.07654e-12
-7.49881e-11
1.11311e-05
2.64681e-13
8.01984e-11
2.80652e-12
-5.20443e-12
9.4332e-06
-4.05491e-12
-6.99134e-11
9.43318e-06
-3.41465e-13
8.04205e-11
4.39312e-12
-1.05112e-11
7.9725e-06
-4.10153e-12
-6.22667e-11
7.97248e-06
-2.38271e-12
8.18085e-11
6.48554e-12
-1.95531e-11
6.72306e-06
-2.989e-12
-5.25506e-11
6.72304e-06
-4.85637e-12
7.84833e-11
7.84933e-12
-2.59386e-11
5.65649e-06
-1.14336e-12
-3.74103e-11
5.65646e-06
-6.37971e-12
7.46059e-11
7.52868e-12
-3.71999e-11
4.74441e-06
7.3298e-13
-2.43308e-11
4.74439e-06
-6.42031e-12
6.22049e-11
5.69294e-12
-3.78742e-11
3.96068e-06
2.21228e-12
-1.51558e-11
3.96066e-06
-5.77233e-12
4.68628e-11
3.56453e-12
-3.17042e-11
3.28197e-06
2.81853e-12
-1.11446e-11
3.28196e-06
-4.88623e-12
3.24774e-11
2.07004e-12
-2.13277e-11
2.68697e-06
2.75593e-12
-8.90889e-12
2.68696e-06
-3.45531e-12
2.36817e-11
6.99764e-13
-1.47683e-11
2.15276e-06
1.78496e-12
-6.73067e-12
2.15275e-06
-1.20043e-12
1.67559e-11
-5.84594e-13
-1.00241e-11
1.63763e-06
1.69729e-13
-5.80242e-12
1.63763e-06
9.01367e-13
1.35524e-11
-1.07093e-12
-7.75072e-12
9.62093e-07
-1.25038e-12
9.62091e-07
6.27194e-12
-5.02099e-12
1.23123e-06
-7.46292e-14
-1.39664e-12
1.23123e-06
-1.10028e-12
8.55281e-12
1.21218e-12
-7.16368e-12
2.08538e-06
-1.48737e-12
-5.96983e-12
2.08537e-06
1.04478e-12
1.62641e-11
5.13059e-13
-1.04859e-11
2.73749e-06
-2.42784e-12
-7.46823e-12
2.73749e-06
3.44713e-12
2.04755e-11
-9.53836e-13
-1.29844e-11
3.41374e-06
-2.54296e-12
-1.09557e-11
3.41373e-06
5.05607e-12
2.99503e-11
-2.45315e-12
-1.89794e-11
4.16521e-06
-1.97693e-12
-1.49164e-11
4.16519e-06
6.12412e-12
4.1975e-11
-4.09429e-12
-2.70437e-11
5.02111e-06
-4.49151e-13
-2.09781e-11
5.02109e-06
7.00092e-12
6.16844e-11
-6.50203e-12
-4.06988e-11
6.00846e-06
1.59648e-12
-3.42721e-11
6.00844e-06
7.18453e-12
8.40176e-11
-8.73824e-12
-4.97257e-11
7.15664e-06
3.62612e-12
-5.28731e-11
7.15661e-06
5.71896e-12
1.03168e-10
-9.30741e-12
-5.02813e-11
8.49843e-06
4.85425e-12
-7.41318e-11
8.4984e-06
3.07493e-12
1.11038e-10
-7.89272e-12
-3.69063e-11
1.00693e-05
4.82002e-12
-8.8371e-11
1.00693e-05
7.19065e-13
1.16704e-10
-5.5058e-12
-2.832e-11
1.1905e-05
3.79899e-12
-9.80203e-11
1.1905e-05
-2.02248e-13
1.13744e-10
-3.56913e-12
-1.57118e-11
1.40385e-05
2.53139e-12
-1.06094e-10
1.40384e-05
-2.36019e-13
1.13566e-10
-2.27448e-12
-7.44849e-12
1.64992e-05
1.56429e-12
-1.11911e-10
1.64992e-05
-1.67382e-13
1.19134e-10
-1.38449e-12
-7.20238e-12
1.93164e-05
8.19128e-13
-1.19589e-10
1.93163e-05
-1.39349e-13
1.2546e-10
-6.81908e-13
-5.83654e-12
2.25197e-05
5.11946e-14
-1.31348e-10
2.25196e-05
1.27255e-15
1.38202e-10
-5.19022e-14
-6.85231e-12
2.25196e-05
-7.06797e-13
-1.30879e-10
2.25196e-05
1.3249e-13
1.3768e-10
5.79898e-13
-6.81581e-12
1.93161e-05
-1.45451e-12
-1.18934e-10
1.93161e-05
1.88529e-13
1.24685e-10
1.2684e-12
-5.74496e-12
1.64989e-05
-2.43245e-12
-1.10966e-10
1.64989e-05
2.56476e-13
1.17639e-10
2.17282e-12
-6.6566e-12
1.40381e-05
-3.78778e-12
-1.05121e-10
1.40381e-05
3.3555e-13
1.12264e-10
3.44549e-12
-7.13361e-12
1.19047e-05
-4.9845e-12
-9.73874e-11
1.19047e-05
-4.22325e-13
1.12367e-10
5.40266e-12
-1.49865e-11
1.0069e-05
-5.02623e-12
-8.60148e-11
1.0069e-05
-2.93275e-12
1.14042e-10
7.96041e-12
-2.80437e-11
8.49817e-06
-3.63337e-12
-7.17979e-11
8.49814e-06
-5.95925e-12
1.09033e-10
9.5974e-12
-3.72445e-11
7.15646e-06
-1.34568e-12
-5.07009e-11
7.15644e-06
-7.82884e-12
1.02736e-10
9.18136e-12
-5.20419e-11
6.00836e-06
9.59834e-13
-3.28651e-11
6.00834e-06
-7.89815e-12
8.4844e-11
6.9452e-12
-5.1979e-11
5.02105e-06
2.75263e-12
-2.04881e-11
5.02103e-06
-7.11697e-12
6.34841e-11
4.36982e-12
-4.29919e-11
4.16516e-06
3.46426e-12
-1.49644e-11
4.16515e-06
-5.99707e-12
4.36584e-11
2.53564e-12
-2.86863e-11
3.4137e-06
3.34465e-12
-1.17303e-11
3.41369e-06
-4.18426e-12
3.14885e-11
8.40052e-13
-1.97513e-11
2.73746e-06
2.1363e-12
-8.35064e-12
2.73745e-06
-1.40049e-12
2.16712e-11
-7.35939e-13
-1.33188e-11
2.08534e-06
2.15178e-13
-6.89745e-12
2.08534e-06
1.11563e-12
1.74148e-11
-1.33065e-12
-1.05183e-11
1.23121e-06
-1.80863e-12
1.23121e-06
9.27549e-12
-7.46614e-12
1.57177e-06
-8.36678e-14
-2.08579e-12
1.57177e-06
-1.32621e-12
1.19772e-11
1.47942e-12
-9.96843e-12
2.60717e-06
-1.73745e-12
-6.55878e-12
2.60717e-06
1.17714e-12
1.94958e-11
6.51537e-13
-1.31503e-11
3.41873e-06
-2.87815e-12
-8.64113e-12
3.41872e-06
4.07378e-12
2.46646e-11
-1.10914e-12
-1.59959e-11
4.26288e-06
-3.06779e-12
-1.34473e-11
4.26287e-06
6.08469e-12
3.70853e-11
-2.93818e-12
-2.3615e-11
5.19924e-06
-2.42604e-12
-1.86777e-11
5.19923e-06
7.41608e-12
5.25992e-11
-4.92146e-12
-3.38964e-11
6.26411e-06
-6.1435e-13
-2.64833e-11
6.26409e-06
8.45961e-12
7.78229e-11
-7.7816e-12
-5.13271e-11
7.49117e-06
1.85636e-12
-4.31683e-11
7.49115e-06
8.65027e-12
1.06726e-10
-1.04521e-11
-6.35287e-11
8.91695e-06
4.3383e-12
-6.67633e-11
8.91692e-06
6.87993e-12
1.32257e-10
-1.11701e-11
-6.54736e-11
1.05821e-05
5.86014e-12
-9.43306e-11
1.05821e-05
3.70645e-12
1.437e-10
-9.52064e-12
-4.93676e-11
1.25307e-05
5.84367e-12
-1.13863e-10
1.25307e-05
8.63339e-13
1.51707e-10
-6.66522e-12
-3.78276e-11
1.4807e-05
4.6175e-12
-1.2753e-10
1.4807e-05
-2.63888e-13
1.48392e-10
-4.3191e-12
-2.08431e-11
1.7452e-05
3.08835e-12
-1.39024e-10
1.74519e-05
-3.10315e-13
1.48556e-10
-2.75222e-12
-9.4998e-12
2.05031e-05
1.91924e-12
-1.47546e-10
2.0503e-05
-2.31673e-13
1.56176e-10
-1.67386e-12
-8.59718e-12
2.39973e-05
1.00909e-12
-1.58439e-10
2.39973e-05
-1.8873e-13
1.64944e-10
-8.2547e-13
-6.45083e-12
2.79727e-05
6.36118e-14
-1.74472e-10
2.79727e-05
-1.4844e-15
1.81926e-10
-6.25664e-14
-7.45693e-12
2.79726e-05
-8.69899e-13
-1.7388e-10
2.79726e-05
1.74156e-13
1.81258e-10
7.02692e-13
-7.39959e-12
2.3997e-05
-1.78467e-12
-1.57602e-10
2.3997e-05
2.52491e-13
1.63945e-10
1.53514e-12
-6.33285e-12
2.05027e-05
-2.96615e-12
-1.46346e-10
2.05027e-05
3.31913e-13
1.54283e-10
2.63032e-12
-7.91296e-12
1.74516e-05
-4.59916e-12
-1.37742e-10
1.74516e-05
4.18376e-13
1.46841e-10
4.17243e-12
-9.0853e-12
1.48066e-05
-6.03593e-12
-1.26679e-10
1.48065e-05
-5.12111e-13
1.46598e-10
6.54284e-12
-1.99286e-11
1.25304e-05
-6.06194e-12
-1.10836e-10
1.25303e-05
-3.53857e-12
1.48293e-10
9.6021e-12
-3.74808e-11
1.05818e-05
-4.34207e-12
-9.13892e-11
1.05818e-05
-7.16692e-12
1.41218e-10
1.15146e-11
-4.98424e-11
8.91673e-06
-1.55004e-12
-6.40645e-11
8.9167e-06
-9.41632e-12
1.31807e-10
1.09745e-11
-6.77516e-11
7.49103e-06
1.23447e-12
-4.14368e-11
7.49101e-06
-9.5298e-12
1.07798e-10
8.30345e-12
-6.63618e-11
6.26402e-06
3.36293e-12
-2.58997e-11
6.264e-06
-8.60724e-12
8.01062e-11
5.25073e-12
-5.42007e-11
5.19918e-06
4.17457e-12
-1.87667e-11
5.19917e-06
-7.21293e-12
5.46684e-11
3.04163e-12
-3.58907e-11
4.26283e-06
3.97007e-12
-1.43848e-11
4.26282e-06
-4.95041e-12
3.89144e-11
9.80782e-13
-2.45199e-11
3.41868e-06
2.50773e-12
-9.59785e-12
3.41868e-06
-1.59991e-12
2.60083e-11
-9.08096e-13
-1.6408e-11
2.60713e-06
2.79978e-13
-7.53336e-12
2.60712e-06
1.33862e-12
2.07933e-11
-1.61849e-12
-1.32613e-11
1.57174e-06
-2.55981e-12
1.57174e-06
1.29498e-11
-1.03891e-11
2.00107e-06
-1.03699e-13
-3.05726e-12
2.00107e-06
-1.54301e-12
1.61586e-11
1.76629e-12
-1.3298e-11
3.22505e-06
-1.99614e-12
-6.80117e-12
3.22504e-06
1.31055e-12
2.22956e-11
8.12669e-13
-1.57152e-11
4.22246e-06
-3.35634e-12
-9.48671e-12
4.22246e-06
4.73472e-12
2.82324e-11
-1.26121e-12
-1.87082e-11
5.26646e-06
-3.6498e-12
-1.57431e-11
5.26645e-06
7.22016e-12
4.3705e-11
-3.46571e-12
-2.79264e-11
6.42347e-06
-2.94111e-12
-2.23531e-11
6.42346e-06
8.86345e-12
6.28711e-11
-5.83281e-12
-4.04777e-11
7.7374e-06
-8.25279e-13
-3.19988e-11
7.73739e-06
1.00854e-11
9.36532e-11
-9.17837e-12
-6.16342e-11
9.24973e-06
2.12581e-12
-5.19585e-11
9.24971e-06
1.0264e-11
1.29327e-10
-1.23199e-11
-7.73272e-11
1.10055e-05
5.13255e-12
-8.04666e-11
1.10054e-05
8.15125e-12
1.61775e-10
-1.32221e-11
-8.128e-11
1.30547e-05
7.00372e-12
-1.14489e-10
1.30547e-05
4.39785e-12
1.77576e-10
-1.13433e-11
-6.30822e-11
1.54517e-05
7.01874e-12
-1.40092e-10
1.54516e-05
1.01765e-12
1.88406e-10
-7.98368e-12
-4.8292e-11
1.82507e-05
5.56553e-12
-1.58624e-10
1.82507e-05
-3.43984e-13
1.85133e-10
-5.17827e-12
-2.64806e-11
2.15028e-05
3.74398e-12
-1.74331e-10
2.15028e-05
-4.0829e-13
1.85948e-10
-3.30421e-12
-1.15726e-11
2.52544e-05
2.34571e-12
-1.86285e-10
2.52544e-05
-3.21869e-13
1.95927e-10
-2.01058e-12
-9.5913e-12
2.9552e-05
1.23895e-12
-2.0108e-10
2.9552e-05
-2.57407e-13
2.0753e-10
-9.93255e-13
-6.37116e-12
3.44437e-05
7.8338e-14
-2.22047e-10
3.44436e-05
-6.45892e-15
2.29182e-10
-7.52759e-14
-7.14583e-12
3.44435e-05
-1.06791e-12
-2.21337e-10
3.44435e-05
2.30022e-13
2.28368e-10
8.46308e-13
-7.06431e-12
2.95517e-05
-2.18275e-12
-2.00058e-10
2.95517e-05
3.40534e-13
2.06296e-10
1.84585e-12
-6.22389e-12
2.5254e-05
-3.59463e-12
-1.84825e-10
2.52539e-05
4.3022e-13
1.93634e-10
3.15951e-12
-8.77654e-12
2.15023e-05
-5.5353e-12
-1.72718e-10
2.15023e-05
5.18844e-13
1.83787e-10
5.0062e-12
-1.10492e-11
1.82502e-05
-7.23781e-12
-1.57522e-10
1.82502e-05
-6.0896e-13
1.82893e-10
7.84033e-12
-2.53852e-11
1.54512e-05
-7.23489e-12
-1.36374e-10
1.54512e-05
-4.20333e-12
1.84234e-10
1.14399e-11
-4.78917e-11
1.30543e-05
-5.12987e-12
-1.10947e-10
1.30543e-05
-8.48779e-12
1.74659e-10
1.36242e-11
-6.37293e-11
1.10052e-05
-1.75588e-12
-7.72778e-11
1.10052e-05
-1.11584e-11
1.61358e-10
1.29236e-11
-8.4092e-11
9.24955e-06
1.56928e-12
-4.99446e-11
9.24953e-06
-1.13409e-11
1.30665e-10
9.78093e-12
-8.07204e-11
7.73729e-06
4.05876e-12
-3.137e-11
7.73727e-06
-1.02722e-11
9.64211e-11
6.22075e-12
-6.50432e-11
6.42339e-06
4.96221e-12
-2.25071e-11
6.42338e-06
-8.55345e-12
6.52911e-11
3.59486e-12
-4.27695e-11
5.26639e-06
4.64034e-12
-1.68137e-11
5.26638e-06
-5.76131e-12
4.57487e-11
1.1213e-12
-2.8922e-11
4.22241e-06
2.90809e-12
-1.04372e-11
4.2224e-06
-1.80726e-12
2.96257e-11
-1.10133e-12
-1.91852e-11
3.22499e-06
3.8085e-13
-7.72452e-12
3.22499e-06
1.54545e-12
2.3658e-11
-1.92627e-12
-1.59354e-11
2.00104e-06
-3.57304e-12
2.00104e-06
1.74211e-11
-1.38472e-11
2.53971e-06
-1.55489e-13
-4.38333e-12
2.53971e-06
-1.71552e-12
2.12011e-11
2.05723e-12
-1.72006e-11
3.96311e-06
-2.27248e-12
-6.73877e-12
3.9631e-06
1.45873e-12
2.46891e-11
9.93044e-13
-1.81641e-11
5.1767e-06
-3.86624e-12
-9.98312e-12
5.17669e-06
5.43269e-12
3.10871e-11
-1.4073e-12
-2.10463e-11
6.45875e-06
-4.29685e-12
-1.7783e-11
6.45874e-06
8.47364e-12
4.96253e-11
-4.03752e-12
-3.1787e-11
7.88008e-06
-3.53415e-12
-2.58743e-11
7.88007e-06
1.04854e-11
7.2587e-11
-6.83421e-12
-4.66502e-11
9.49238e-06
-1.09407e-12
-3.74695e-11
9.49236e-06
1.18925e-11
1.08869e-10
-1.06933e-11
-7.13675e-11
1.13459e-05
2.40265e-12
-6.05041e-11
1.13459e-05
1.20265e-11
1.51395e-10
-1.43397e-11
-9.08342e-11
1.34958e-05
6.0222e-12
-9.37039e-11
1.34958e-05
9.5262e-12
1.91199e-10
-1.54692e-11
-9.74561e-11
1.60035e-05
8.31102e-12
-1.34148e-10
1.60035e-05
5.14295e-12
2.12191e-10
-1.33801e-11
-7.80324e-11
1.89352e-05
8.37491e-12
-1.66593e-10
1.89352e-05
1.17662e-12
2.26382e-10
-9.48511e-12
-5.97598e-11
2.23577e-05
6.67027e-12
-1.90929e-10
2.23577e-05
-4.50386e-13
2.237e-10
-6.16568e-12
-3.27296e-11
2.63335e-05
4.52434e-12
-2.1179e-10
2.63335e-05
-5.41432e-13
2.2557e-10
-3.94512e-12
-1.37197e-11
3.09203e-05
2.8601e-12
-2.28045e-10
3.09202e-05
-4.45165e-13
2.38227e-10
-2.40448e-12
-1.01038e-11
3.61757e-05
1.51216e-12
-2.47564e-10
3.61757e-05
-3.44374e-13
2.53107e-10
-1.19048e-12
-5.43102e-12
4.21597e-05
9.55007e-14
-2.74212e-10
4.21597e-05
-1.39087e-14
2.79857e-10
-9.04637e-14
-5.66976e-12
4.21596e-05
-1.30407e-12
-2.73394e-10
4.21595e-05
2.98695e-13
2.78903e-10
1.01517e-12
-5.56124e-12
3.61753e-05
-2.65672e-12
-2.46364e-10
3.61753e-05
4.51283e-13
2.51635e-10
2.20964e-12
-5.25068e-12
3.09197e-05
-4.33603e-12
-2.26346e-10
3.09197e-05
5.55371e-13
2.35559e-10
3.77442e-12
-9.17065e-12
2.63329e-05
-6.62212e-12
-2.09822e-10
2.63329e-05
6.44201e-13
2.22925e-10
5.96536e-12
-1.30775e-11
2.23571e-05
-8.61876e-12
-1.89537e-10
2.23571e-05
-7.07808e-13
2.20987e-10
9.3186e-12
-3.14677e-11
1.89347e-05
-8.57036e-12
-1.62169e-10
1.89346e-05
-4.92078e-12
2.21462e-10
1.34929e-11
-5.9335e-11
1.6003e-05
-6.00956e-12
-1.30028e-10
1.6003e-05
-9.91432e-12
2.089e-10
1.59312e-11
-7.88961e-11
1.34955e-05
-1.96018e-12
-9.00817e-11
1.34955e-05
-1.30537e-11
1.90874e-10
1.50245e-11
-1.00808e-10
1.13457e-05
1.9781e-12
-5.82722e-11
1.13457e-05
-1.33438e-11
1.53027e-10
1.13761e-11
-9.47549e-11
9.49222e-06
4.85403e-12
-3.687e-11
9.4922e-06
-1.21321e-11
1.1212e-10
7.28611e-12
-7.52397e-11
7.87997e-06
5.83626e-12
-2.61247e-11
7.87996e-06
-1.00311e-11
7.53122e-11
4.19872e-12
-4.91688e-11
6.45866e-06
5.36014e-12
-1.89466e-11
6.45865e-06
-6.62078e-12
5.17851e-11
1.26076e-12
-3.28218e-11
5.17663e-06
3.34883e-12
-1.08444e-11
5.17662e-06
-2.03909e-12
3.24132e-11
-1.31058e-12
-2.15646e-11
3.96305e-06
5.41805e-13
-7.51318e-12
3.96304e-06
1.69565e-12
2.60271e-11
-2.23758e-12
-1.85165e-11
2.53967e-06
-4.90896e-12
2.53967e-06
2.27929e-11
-1.78832e-11
3.2117e-06
-2.68507e-13
-6.12228e-12
3.21169e-06
-1.79101e-12
2.7169e-11
2.32691e-12
-2.16969e-11
4.84968e-06
-2.58178e-12
-6.44184e-12
4.84967e-06
1.64836e-12
2.67527e-11
1.18253e-12
-2.05064e-11
6.31395e-06
-4.41298e-12
-1.0127e-11
6.31394e-06
6.17296e-12
3.31829e-11
-1.5458e-12
-2.29634e-11
7.87894e-06
-5.01726e-12
-1.95079e-11
7.87893e-06
9.8542e-12
5.46814e-11
-4.65294e-12
-3.50879e-11
9.61719e-06
-4.21863e-12
-2.91672e-11
9.61718e-06
1.22967e-11
8.15563e-11
-7.92568e-12
-5.2295e-11
1.15877e-05
-1.43608e-12
-4.28337e-11
1.15877e-05
1.38855e-11
1.23176e-10
-1.23148e-11
-8.02924e-11
1.38506e-05
2.68209e-12
-6.86551e-11
1.38506e-05
1.39225e-11
1.72505e-10
-1.64902e-11
-1.03773e-10
1.64728e-05
7.02009e-12
-1.06157e-10
1.64727e-05
1.09799e-11
2.19955e-10
-1.78985e-11
-1.13746e-10
1.9529e-05
9.80961e-12
-1.52766e-10
1.9529e-05
5.92327e-12
2.46983e-10
-1.56394e-11
-9.41973e-11
2.31002e-05
9.94402e-12
-1.92758e-10
2.31002e-05
1.32935e-12
2.65122e-10
-1.11899e-11
-7.23243e-11
2.72679e-05
7.96156e-12
-2.23925e-10
2.72678e-05
-5.93989e-13
2.63761e-10
-7.29991e-12
-3.97797e-11
3.21086e-05
5.44769e-12
-2.51016e-10
3.21085e-05
-7.12763e-13
2.672e-10
-4.68988e-12
-1.61019e-11
3.76934e-05
3.4712e-12
-2.72631e-10
3.76933e-05
-6.00625e-13
2.82905e-10
-2.86563e-12
-1.01556e-11
4.40935e-05
1.83845e-12
-2.97837e-10
4.40934e-05
-4.54909e-13
3.01538e-10
-1.42263e-12
-3.54544e-12
5.13831e-05
1.1555e-13
-3.30997e-10
5.1383e-05
-2.43337e-14
3.33794e-10
-1.08624e-13
-2.84416e-12
5.13829e-05
-1.58725e-12
-3.30083e-10
5.13828e-05
3.84509e-13
3.32708e-10
1.21384e-12
-2.70583e-12
4.4093e-05
-3.22171e-12
-2.9647e-10
4.40929e-05
5.90605e-13
2.99822e-10
2.63586e-12
-3.32615e-12
3.76927e-05
-5.21341e-12
-2.70721e-10
3.76926e-05
7.16191e-13
2.79894e-10
4.4892e-12
-9.11745e-12
3.21079e-05
-7.88805e-12
-2.48674e-10
3.21078e-05
8.04771e-13
2.64037e-10
7.06788e-12
-1.53303e-11
2.72671e-05
-1.02091e-11
-2.222e-10
2.72671e-05
-7.98205e-13
2.6055e-10
1.09975e-11
-3.83735e-11
2.30995e-05
-1.0095e-11
-1.87623e-10
2.30995e-05
-5.672e-12
2.59487e-10
1.57685e-11
-7.19178e-11
1.95284e-05
-6.99355e-12
-1.48104e-10
1.95284e-05
-1.14198e-11
2.43405e-10
1.84213e-11
-9.53307e-11
1.64723e-05
-2.15774e-12
-1.02181e-10
1.64723e-05
-1.50818e-11
2.19791e-10
1.72513e-11
-1.17628e-10
1.38503e-05
2.47734e-12
-6.62956e-11
1.38503e-05
-1.55387e-11
1.7447e-10
1.30728e-11
-1.08174e-10
1.15875e-05
5.76294e-12
-4.23646e-11
1.15875e-05
-1.42012e-11
1.26911e-10
8.44693e-12
-8.45334e-11
9.61704e-06
6.80473e-12
-2.95512e-11
9.61703e-06
-1.16556e-11
8.45294e-11
4.85479e-12
-5.49545e-11
7.87882e-06
6.13443e-12
-2.07126e-11
7.87881e-06
-7.53521e-12
5.68356e-11
1.40052e-12
-3.61021e-11
6.31386e-06
3.84781e-12
-1.08089e-11
6.31385e-06
-2.32626e-12
3.43096e-11
-1.52287e-12
-2.34953e-11
4.8496e-06
7.96115e-13
-6.97439e-12
4.8496e-06
1.72917e-12
2.7974e-11
-2.52564e-12
-2.10032e-11
3.21164e-06
-6.61209e-12
3.21164e-06
2.91219e-11
-2.25095e-11
4.04464e-06
-4.86605e-13
-8.30403e-12
4.04463e-06
-1.6956e-12
3.4062e-11
2.53825e-12
-2.67642e-11
5.91881e-06
-2.95202e-12
-6.01794e-12
5.91881e-06
1.92615e-12
2.8621e-11
1.36028e-12
-2.2777e-11
7.67306e-06
-5.00762e-12
-9.94742e-12
7.67306e-06
6.96953e-12
3.45391e-11
-1.6793e-12
-2.44473e-11
9.57315e-06
-5.82223e-12
-2.08723e-11
9.57314e-06
1.13721e-11
5.87419e-11
-5.31012e-12
-3.77411e-11
1.1691e-05
-5.01107e-12
-3.21638e-11
1.1691e-05
1.43077e-11
8.96103e-11
-9.10016e-12
-5.73092e-11
1.4092e-05
-1.87108e-12
-4.8018e-11
1.4092e-05
1.60573e-11
1.3631e-10
-1.4015e-11
-8.82167e-11
1.68468e-05
2.95631e-12
-7.62521e-11
1.68467e-05
1.59134e-11
1.92252e-10
-1.87247e-11
-1.15897e-10
2.00356e-05
8.13933e-12
-1.17466e-10
2.00355e-05
1.24611e-11
2.47428e-10
-2.04716e-11
-1.29894e-10
2.37493e-05
1.15302e-11
-1.69708e-10
2.37493e-05
6.70164e-12
2.8128e-10
-1.81144e-11
-1.11542e-10
2.80863e-05
1.17612e-11
-2.17808e-10
2.80863e-05
1.45548e-12
3.03989e-10
-1.31125e-11
-8.61281e-11
3.31459e-05
9.47254e-12
-2.56909e-10
3.31458e-05
-7.90073e-13
3.04895e-10
-8.59858e-12
-4.79093e-11
3.90216e-05
6.54238e-12
-2.91438e-10
3.90215e-05
-9.35825e-13
3.10553e-10
-5.55343e-12
-1.90018e-11
4.58006e-05
4.19806e-12
-3.19646e-10
4.58005e-05
-7.97828e-13
3.29737e-10
-3.4041e-12
-9.91568e-12
5.35704e-05
2.22891e-12
-3.5164e-10
5.35703e-05
-5.95114e-13
3.52633e-10
-1.69525e-12
-7.79489e-13
6.24224e-05
1.3884e-13
-3.92233e-10
6.24223e-05
-3.81337e-14
3.90777e-10
-1.30306e-13
1.37804e-12
6.24221e-05
-1.9278e-12
-3.91244e-10
6.24221e-05
4.93069e-13
3.89572e-10
1.44682e-12
1.55002e-12
5.35698e-05
-3.89502e-12
-3.50125e-10
5.35697e-05
7.66489e-13
3.50671e-10
3.13369e-12
-5.11586e-13
4.57997e-05
-6.25363e-12
-3.17556e-10
4.57997e-05
9.25366e-13
3.26415e-10
5.31791e-12
-8.78829e-12
3.90207e-05
-9.36488e-12
-2.88709e-10
3.90207e-05
1.01546e-12
3.06841e-10
8.3305e-12
-1.80907e-11
3.3145e-05
-1.20424e-11
-2.54802e-10
3.31449e-05
-8.60385e-13
3.01162e-10
1.28905e-11
-4.639e-11
2.80855e-05
-1.18386e-11
-2.11969e-10
2.80854e-05
-6.41813e-12
2.97699e-10
1.82578e-11
-8.57971e-11
2.37486e-05
-8.09514e-12
-1.64562e-10
2.37485e-05
-1.29496e-11
2.77531e-10
2.10532e-11
-1.13007e-10
2.0035e-05
-2.34117e-12
-1.13245e-10
2.0035e-05
-1.71973e-11
2.47504e-10
1.95512e-11
-1.34282e-10
1.68464e-05
3.08684e-12
-7.38745e-11
1.68464e-05
-1.79118e-11
1.94607e-10
1.4837e-11
-1.20732e-10
1.40917e-05
6.80138e-12
-4.77937e-11
1.40917e-05
-1.64884e-11
1.40538e-10
9.69608e-12
-9.27282e-11
1.16908e-05
7.87653e-12
-3.27198e-11
1.16908e-05
-1.34372e-11
9.27597e-11
5.56432e-12
-6.00109e-11
9.573e-06
6.97224e-12
-2.20524e-11
9.57299e-06
-8.52036e-12
6.0746e-11
1.54728e-12
-3.86682e-11
7.67295e-06
4.43351e-12
-1.03441e-11
7.67294e-06
-2.72174e-12
3.53228e-11
-1.71372e-12
-2.49722e-11
5.91872e-06
1.18914e-12
-6.20766e-12
5.91872e-06
1.56267e-12
2.96344e-11
-2.75247e-12
-2.34316e-11
4.04457e-06
-8.69747e-12
4.04456e-06
3.63893e-11
-2.76921e-11
5.07004e-06
-8.66792e-13
-1.09204e-11
5.07004e-06
-1.33302e-12
4.17927e-11
2.64217e-12
-3.23209e-11
7.21181e-06
-3.42632e-12
-5.61114e-12
7.2118e-06
2.36708e-12
3.049e-11
1.49024e-12
-2.50414e-11
9.30118e-06
-5.67123e-12
-9.51361e-12
9.30117e-06
7.85449e-12
3.52588e-11
-1.81937e-12
-2.55337e-11
1.15965e-05
-6.72906e-12
-2.18513e-11
1.15965e-05
1.30437e-11
6.1727e-11
-6.0082e-12
-3.96898e-11
1.41678e-05
-5.93362e-12
-3.48085e-11
1.41678e-05
1.65245e-11
9.6615e-11
-1.03409e-11
-6.16127e-11
1.7086e-05
-2.4247e-12
-5.29338e-11
1.7086e-05
1.83843e-11
1.48067e-10
-1.57442e-11
-9.50237e-11
2.04322e-05
3.21416e-12
-8.31449e-11
2.04322e-05
1.7926e-11
2.10319e-10
-2.09579e-11
-1.27038e-10
2.43017e-05
9.39409e-12
-1.27252e-10
2.43017e-05
1.38781e-11
2.73022e-10
-2.31101e-11
-1.45682e-10
2.88043e-05
1.35084e-11
-1.84252e-10
2.88043e-05
7.41142e-12
3.14309e-10
-2.07736e-11
-1.30011e-10
3.40592e-05
1.38662e-11
-2.40754e-10
3.40592e-05
1.51785e-12
3.42205e-10
-1.5255e-11
-1.01381e-10
4.01872e-05
1.12398e-11
-2.8896e-10
4.01871e-05
-1.05999e-12
3.46555e-10
-1.00767e-11
-5.74921e-11
4.73023e-05
7.83963e-12
-3.32275e-10
4.73023e-05
-1.22755e-12
3.55258e-10
-6.54988e-12
-2.28283e-11
5.55112e-05
5.06026e-12
-3.68436e-10
5.55112e-05
-1.04738e-12
3.78415e-10
-4.02908e-12
-9.72515e-12
6.49212e-05
2.69557e-12
-4.08449e-10
6.49211e-05
-7.72567e-13
4.06143e-10
-2.01345e-12
2.59315e-12
7.56442e-05
1.65613e-13
-4.57453e-10
7.56441e-05
-5.53332e-14
4.50521e-10
-1.56122e-13
6.80964e-12
7.56439e-05
-2.33745e-12
-4.56418e-10
7.56438e-05
6.32156e-13
4.49216e-10
1.71801e-12
7.02059e-12
6.49204e-05
-4.69529e-12
-4.06814e-10
6.49204e-05
9.8929e-13
4.03932e-10
3.71129e-12
2.92264e-12
5.55102e-05
-7.48726e-12
-3.66204e-10
5.55102e-05
1.20043e-12
3.74821e-10
6.27335e-12
-8.52683e-12
4.73013e-05
-1.10883e-11
-3.29149e-10
4.73012e-05
1.29794e-12
3.5097e-10
9.76697e-12
-2.17701e-11
4.01861e-05
-1.41565e-11
-2.86418e-10
4.01861e-05
-8.57175e-13
3.4228e-10
1.49982e-11
-5.59001e-11
3.40582e-05
-1.38363e-11
-2.34233e-10
3.40582e-05
-7.08669e-12
3.35346e-10
2.09233e-11
-1.01195e-10
2.88034e-05
-9.32985e-12
-1.78707e-10
2.88034e-05
-1.44045e-11
3.10535e-10
2.37429e-11
-1.31873e-10
2.4301e-05
-2.50061e-12
-1.22928e-10
2.4301e-05
-1.93247e-11
2.73443e-10
2.18386e-11
-1.50543e-10
2.04317e-05
3.83142e-12
-8.08749e-11
2.04317e-05
-2.04397e-11
2.1314e-10
1.66209e-11
-1.32263e-10
1.70857e-05
7.98885e-12
-5.30808e-11
1.70857e-05
-1.89978e-11
1.52804e-10
1.10181e-11
-9.97043e-11
1.41675e-05
9.06436e-12
-3.55693e-11
1.41675e-05
-1.53918e-11
9.98493e-11
6.33062e-12
-6.42451e-11
1.15963e-05
7.89186e-12
-2.29262e-11
1.15963e-05
-9.61149e-12
6.34161e-11
1.71796e-12
-4.04597e-11
9.30103e-06
5.15039e-12
-9.50596e-12
9.30103e-06
-3.30952e-12
3.55521e-11
-1.84362e-12
-2.60386e-11
7.21169e-06
1.78046e-12
-5.34286e-12
7.21169e-06
1.08836e-12
3.12101e-11
-2.86986e-12
-2.58738e-11
5.06996e-06
-1.11362e-11
5.06995e-06
4.44759e-11
-3.3341e-11
6.32383e-06
-1.48254e-12
-1.39164e-11
6.32383e-06
-5.85922e-13
5.01773e-11
2.57941e-12