/*--------------------------------*- C++ -*----------------------------------*\
  =========                 |
  \\      /  F ield         | OpenFOAM: The Open Source CFD Toolbox
   \\    /   O peration     | Website:  https://openfoam.org
    \\  /    A nd           | Version:  6
     \\/     M anipulation  |
\*---------------------------------------------------------------------------*/
FoamFile
{
    version     2.0;
    format      ascii;
    class       surfaceScalarField;
    location    "60";
    object      phi;
}
// * * * * * * * * * * * * * * * * * * * * * * * * * * * * * * * * * * * * * //

dimensions      [0 3 -1 0 0 0 0];

internalField   nonuniform List<scalar> 
5598
(
4.67408e-07
5.78826e-13
1.46649e-12
4.6741e-07
-8.68293e-13
-1.19882e-12
2.89418e-13
-2.68786e-13
4.47626e-07
3.64321e-12
-6.64494e-15
4.4763e-07
-5.38419e-12
1.08411e-12
1.74523e-12
-1.08174e-12
6.27614e-07
7.68493e-12
1.68715e-13
6.2762e-07
-1.22639e-11
1.22479e-12
4.58492e-12
-1.39519e-12
8.27172e-07
1.05108e-11
1.20056e-12
8.27179e-07
-1.74952e-11
-1.99357e-12
6.99058e-12
7.92723e-13
1.05392e-06
9.53812e-12
2.55896e-12
1.05393e-06
-1.69404e-11
-8.24995e-12
7.40759e-12
5.69194e-12
1.31637e-06
5.64103e-12
3.45161e-12
1.31638e-06
-1.14281e-11
-1.47217e-11
5.79133e-12
1.12711e-11
1.62261e-06
9.65852e-13
1.91836e-12
1.62262e-06
-4.47694e-12
-1.70841e-11
3.51468e-12
1.51664e-11
1.9812e-06
-3.01577e-12
-9.94513e-13
1.98121e-06
1.07103e-12
-1.54226e-11
1.94876e-12
1.64167e-11
2.40209e-06
-5.90975e-12
-5.1532e-12
2.4021e-06
4.88801e-12
-1.2854e-11
1.02471e-12
1.80082e-11
2.89626e-06
-7.52096e-12
-9.36788e-12
2.89627e-06
6.97866e-12
-1.05973e-11
5.45189e-13
1.99653e-11
3.476e-06
-7.30726e-12
-1.17998e-11
3.476e-06
6.59011e-12
-5.58517e-12
7.20223e-13
1.73848e-11
4.15447e-06
-6.13132e-12
-1.41663e-11
4.15447e-06
5.6076e-12
-3.30779e-12
5.23173e-13
1.74778e-11
4.94158e-06
-4.60776e-12
-1.79817e-11
4.94158e-06
3.7179e-12
6.66665e-12
8.83566e-13
1.13209e-11
5.84899e-06
-2.16768e-12
-3.52117e-11
5.84894e-06
1.07588e-12
5.07602e-11
1.08136e-12
-1.55442e-11
6.88158e-06
-2.80149e-14
-9.40609e-11
6.88144e-06
1.34402e-14
1.42387e-10
6.47646e-15
-4.83282e-11
6.88156e-06
2.10892e-12
-9.42831e-11
6.88142e-06
-1.02742e-12
1.42602e-10
-1.08375e-12
-4.83251e-11
5.84882e-06
4.55697e-12
-3.53935e-11
5.84878e-06
-3.67229e-12
5.08734e-11
-8.87851e-13
-1.5479e-11
4.94133e-06
6.09251e-12
-1.80667e-11
4.94132e-06
-5.57567e-12
6.86095e-12
-5.20261e-13
1.12059e-11
4.15418e-06
7.26208e-12
-1.41946e-11
4.15418e-06
-6.53255e-12
-3.0831e-12
-7.35524e-13
1.72803e-11
3.4757e-06
7.49913e-12
-1.17912e-11
3.4757e-06
-6.9676e-12
-5.26266e-12
-5.34999e-13
1.70513e-11
2.89607e-06
5.91881e-12
-9.39942e-12
2.89608e-06
-4.89885e-12
-1.02346e-11
-1.02206e-12
1.96326e-11
2.40191e-06
3.05649e-12
-5.30038e-12
2.40192e-06
-1.10093e-12
-1.25201e-11
-1.95819e-12
1.7821e-11
1.98103e-06
-9.03012e-13
-1.11412e-12
1.98104e-06
4.44729e-12
-1.5119e-11
-3.54506e-12
1.62313e-11
1.62241e-06
-5.64643e-12
1.94135e-12
1.62242e-06
1.14867e-11
-1.6972e-11
-5.84109e-12
1.50306e-11
1.31614e-06
-9.60185e-12
3.47181e-12
1.31615e-06
1.70821e-11
-1.46765e-11
-7.48193e-12
1.12056e-11
1.05368e-06
-1.06025e-11
2.58154e-12
1.05369e-06
1.76311e-11
-8.16922e-12
-7.03143e-12
5.58883e-12
8.26969e-07
-7.73175e-12
1.18655e-12
8.26976e-07
1.23027e-11
-1.86875e-12
-4.57482e-12
6.83238e-13
6.27472e-07
-3.65198e-12
1.69816e-13
6.27477e-07
5.35927e-12
1.36218e-12
-1.71073e-12
-1.53244e-12
4.4754e-07
-5.70676e-13
-1.98823e-14
4.47543e-07
8.56262e-13
1.15923e-12
-2.8593e-13
-1.14244e-12
4.67324e-07
1.46822e-12
4.67326e-07
-1.17994e-12
-2.88627e-13
7.10533e-07
1.79945e-12
2.25426e-12
7.10536e-07
-2.44397e-12
-1.37139e-12
6.46465e-13
-8.85934e-13
1.15847e-06
8.3767e-12
-1.67235e-12
1.15848e-06
-1.19417e-11
5.16716e-12
3.57532e-12
-3.50743e-12
1.52274e-06
1.6804e-11
-1.83193e-12
1.52275e-06
-2.58635e-11
6.72835e-12
9.07389e-12
-4.90215e-12
1.91683e-06
2.21167e-11
1.8961e-12
1.91684e-06
-3.59338e-11
-2.22932e-12
1.38311e-11
3.33249e-13
2.36167e-06
1.99125e-11
7.24655e-12
2.36168e-06
-3.38146e-11
-2.09297e-11
1.39138e-11
1.36865e-11
2.87281e-06
1.18298e-11
1.09536e-11
2.87282e-06
-2.21252e-11
-3.86663e-11
1.03042e-11
2.77168e-11
3.46426e-06
2.31125e-12
7.72098e-12
3.46428e-06
-8.94035e-12
-4.3363e-11
6.63685e-12
3.56437e-11
4.15028e-06
-5.69329e-12
5.81375e-13
4.1503e-06
1.81433e-12
-3.85004e-11
3.88724e-12
3.79181e-11
4.94643e-06
-1.12848e-11
-9.40338e-12
4.94644e-06
8.91081e-12
-3.06074e-11
2.37991e-12
4.00142e-11
5.86863e-06
-1.42529e-11
-1.8619e-11
5.86864e-06
1.26089e-11
-2.36667e-11
1.64986e-12
4.2286e-11
6.93288e-06
-1.36857e-11
-2.38326e-11
6.93289e-06
1.19237e-11
-1.08744e-11
1.76738e-12
3.47074e-11
8.1544e-06
-1.13273e-11
-2.71415e-11
8.15441e-06
9.95756e-12
-4.95682e-12
1.36817e-12
3.2109e-11
9.54645e-06
-8.30768e-12
-3.08866e-11
9.54645e-06
6.55712e-12
1.29471e-11
1.73914e-12
1.79553e-11
1.1131e-05
-3.94299e-12
-5.10517e-11
1.1131e-05
2.01131e-12
7.54223e-11
1.9093e-12
-2.43554e-11
1.29403e-05
-5.05799e-14
-1.13931e-10
1.29403e-05
2.38723e-14
1.79952e-10
1.12114e-14
-6.60306e-11
1.29403e-05
3.83328e-12
-1.14194e-10
1.29403e-05
-1.92755e-12
1.80192e-10
-1.91055e-12
-6.60153e-11
1.1131e-05
8.21845e-12
-5.13495e-11
1.11309e-05
-6.48289e-12
7.56267e-11
-1.74171e-12
-2.42749e-11
9.54631e-06
1.12549e-11
-3.10338e-11
9.5463e-06
-9.89741e-12
1.32786e-11
-1.36405e-12
1.77557e-11
8.15417e-06
1.36065e-11
-2.71958e-11
8.15417e-06
-1.18443e-11
-4.54421e-12
-1.77295e-12
3.17468e-11
6.93258e-06
1.42137e-11
-2.38431e-11
6.93259e-06
-1.25837e-11
-1.02206e-11
-1.63713e-12
3.40575e-11
5.86841e-06
1.12992e-11
-1.87136e-11
5.86842e-06
-8.92307e-12
-2.28906e-11
-2.3808e-12
4.16003e-11
4.94621e-06
5.77867e-12
-9.7837e-12
4.94622e-06
-1.87645e-12
-2.98583e-11
-3.90724e-12
3.96429e-11
4.15006e-06
-2.19912e-12
3.45997e-13
4.15007e-06
8.89825e-12
-3.78424e-11
-6.70121e-12
3.74916e-11
3.46399e-06
-1.18419e-11
7.79914e-12
3.464e-06
2.22462e-11
-4.31716e-11
-1.04058e-11
3.53718e-11
2.87247e-06
-2.00512e-11
1.10624e-11
2.87249e-06
3.40977e-11
-3.8619e-11
-1.40504e-11
2.756e-11
2.36132e-06
-2.23017e-11
7.28692e-12
2.36133e-06
3.62124e-11
-2.07612e-11
-1.39175e-11
1.34783e-11
1.91653e-06
-1.69059e-11
1.84418e-12
1.91654e-06
2.59457e-11
-1.89271e-12
-9.04891e-12
5.19156e-14
1.52252e-06
-8.39581e-12
-1.85884e-12
1.52253e-06
1.18963e-11
7.08862e-12
-3.50819e-12
-5.23167e-12
1.15832e-06
-1.78828e-12
-1.71228e-12
1.15833e-06
2.42092e-12
5.34793e-12
-6.3424e-13
-3.64481e-12
7.10427e-07
2.25733e-12
7.1043e-07
-1.33647e-12
-9.22813e-13
9.34457e-07
2.80095e-12
2.61382e-12
9.3446e-07
-3.68393e-12
-8.91816e-13
8.86569e-13
-1.72864e-12
1.71508e-06
1.18612e-11
-4.66315e-12
1.71509e-06
-1.65762e-11
1.14317e-11
4.72999e-12
-6.79256e-12
2.22858e-06
2.33099e-11
-5.27995e-12
2.22859e-06
-3.52406e-11
1.5103e-11
1.19514e-11
-9.83448e-12
2.777e-06
3.04233e-11
2.34601e-12
2.77701e-06
-4.87415e-11
-1.20405e-12
1.83385e-11
-1.14153e-12
3.3962e-06
2.74945e-11
1.34282e-11
3.39621e-06
-4.56117e-11
-3.66304e-11
1.81337e-11
2.32093e-11
4.10791e-06
1.65117e-11
2.10876e-11
4.10793e-06
-2.96737e-11
-6.89787e-11
1.31739e-11
4.78997e-11
4.93155e-06
3.44752e-12
1.61568e-11
4.93157e-06
-1.21767e-11
-7.61736e-11
8.74021e-12
6.00194e-11
5.88702e-06
-7.59271e-12
3.58172e-12
5.88704e-06
2.29509e-12
-6.73111e-11
5.30913e-12
6.37279e-11
6.9962e-06
-1.52752e-11
-1.40948e-11
6.99621e-06
1.18069e-11
-5.23006e-11
3.47651e-12
6.64022e-11
8.28189e-06
-1.93417e-11
-2.99707e-11
8.28191e-06
1.67414e-11
-3.92661e-11
2.60855e-12
6.92369e-11
9.76748e-06
-1.85681e-11
-3.93977e-11
9.76749e-06
1.58931e-11
-1.683e-11
2.68228e-12
5.62291e-11
1.14759e-05
-1.53186e-11
-4.43681e-11
1.14759e-05
1.3191e-11
-6.45744e-12
2.12517e-12
5.08458e-11
1.34276e-05
-1.12019e-11
-4.79339e-11
1.34276e-05
8.69148e-12
2.052e-11
2.4951e-12
2.74427e-11
1.56541e-05
-5.38572e-12
-7.22264e-11
1.5654e-05
2.75793e-12
1.06246e-10
2.59621e-12
-3.39879e-11
1.81995e-05
-6.976e-14
-1.41875e-10
1.81995e-05
3.28033e-14
2.30131e-10
1.56779e-14
-8.82765e-11
1.81995e-05
5.23441e-12
-1.42192e-10
1.81995e-05
-2.6465e-12
2.30412e-10
-2.59473e-12
-8.82521e-11
1.5654e-05
1.10802e-11
-7.26774e-11
1.5654e-05
-8.59391e-12
1.0657e-10
-2.4949e-12
-3.3889e-11
1.34274e-05
1.52188e-11
-4.8154e-11
1.34274e-05
-1.31082e-11
2.10135e-11
-2.11953e-12
2.71413e-11
1.14756e-05
1.84635e-11
-4.44537e-11
1.14756e-05
-1.57962e-11
-5.81201e-12
-2.6816e-12
5.02779e-11
9.76708e-06
1.92899e-11
-3.94344e-11
9.76709e-06
-1.67064e-11
-1.57871e-11
-2.59355e-12
5.52111e-11
8.2816e-06
1.5294e-11
-3.01529e-11
8.28161e-06
-1.18211e-11
-3.80021e-11
-3.47959e-12
6.81476e-11
6.99591e-06
7.71057e-12
-1.47748e-11
6.99593e-06
-2.37984e-12
-5.10587e-11
-5.33753e-12
6.58346e-11
5.88673e-06
-3.3014e-12
3.23524e-12
5.88674e-06
1.21272e-11
-6.62561e-11
-8.82896e-12
6.30124e-11
4.9312e-06
-1.653e-11
1.63245e-11
4.93122e-06
2.98384e-11
-7.5929e-11
-1.33102e-11
5.96026e-11
4.10749e-06
-2.76869e-11
2.13435e-11
4.1075e-06
4.59921e-11
-6.89722e-11
-1.83108e-11
4.76358e-11
3.39575e-06
-3.06726e-11
1.34912e-11
3.39576e-06
4.91185e-11
-3.639e-11
-1.8456e-11
2.29072e-11
2.77661e-06
-2.34507e-11
2.24543e-12
2.77662e-06
3.53593e-11
-6.20635e-13
-1.19216e-11
-1.61854e-12
2.22829e-06
-1.18891e-11
-5.35683e-12
2.2283e-06
1.65267e-11
1.57212e-11
-4.64827e-12
-1.03684e-11
1.71489e-06
-2.78856e-12
-4.74044e-12
1.7149e-06
3.65593e-12
1.17231e-11
-8.6996e-13
-6.99996e-12
9.34327e-07
2.61697e-12
9.34331e-07
-8.36936e-13
-1.78457e-12
1.21492e-06
3.84745e-12
2.67374e-12
1.21492e-06
-4.96083e-12
9.14699e-14
1.11866e-12
-2.77713e-12
2.25496e-06
1.51841e-11
-8.58611e-12
2.25497e-06
-2.09102e-11
1.92456e-11
5.74559e-12
-1.06977e-11
2.93206e-06
2.93821e-11
-9.64434e-12
2.93207e-06
-4.38674e-11
2.54856e-11
1.45119e-11
-1.58598e-11
3.64534e-06
3.82597e-11
2.82505e-12
3.64535e-06
-6.05989e-11
5.21892e-13
2.23654e-11
-3.34603e-12
4.44877e-06
3.47746e-11
2.09769e-11
4.44879e-06
-5.66763e-11
-5.53393e-11
2.19229e-11
3.43745e-11
5.37157e-06
2.11378e-11
3.35726e-11
5.37159e-06
-3.68853e-11
-1.05106e-10
1.57627e-11
7.15474e-11
6.43909e-06
4.65263e-12
2.70586e-11
6.4391e-06
-1.52875e-11
-1.14871e-10
1.0649e-11
8.78163e-11
7.67719e-06
-9.37272e-12
7.90784e-12
7.6772e-06
2.74526e-12
-1.00991e-10
6.64214e-12
9.3081e-11
9.11436e-06
-1.91473e-11
-1.93629e-11
9.11437e-06
1.46366e-11
-7.69515e-11
4.52122e-12
9.63254e-11
1.07804e-05
-2.43275e-11
-4.3686e-11
1.07804e-05
2.08199e-11
-5.63877e-11
3.51826e-12
1.00074e-10
1.27062e-05
-2.33641e-11
-5.89979e-11
1.27062e-05
1.9811e-11
-2.28151e-11
3.56225e-12
8.1816e-11
1.49224e-05
-1.92195e-11
-6.63571e-11
1.49224e-05
1.63438e-11
-7.46045e-12
2.87249e-12
7.38501e-11
1.74567e-05
-1.40712e-11
-6.90005e-11
1.74567e-05
1.07729e-11
2.86743e-11
3.27895e-12
4.03712e-11
2.03505e-05
-6.85275e-12
-9.8223e-11
2.03505e-05
3.52213e-12
1.40061e-10
3.29012e-12
-4.17855e-11
2.36611e-05
-8.98654e-14
-1.7706e-10
2.3661e-05
4.22986e-14
2.87711e-10
2.05477e-14
-1.10684e-10
2.36611e-05
6.65939e-12
-1.77441e-10
2.3661e-05
-3.38343e-12
2.88052e-10
-3.2847e-12
-1.10661e-10
2.03504e-05
1.39149e-11
-9.8859e-11
2.03503e-05
-1.06504e-11
1.40531e-10
-3.27544e-12
-4.16657e-11
1.74564e-05
1.90915e-11
-6.93011e-11
1.74564e-05
-1.62378e-11
2.9344e-11
-2.86494e-12
3.99582e-11
1.4922e-05
2.32351e-11
-6.6479e-11
1.4922e-05
-1.96951e-11
-6.54733e-12
-3.55808e-12
7.30454e-11
1.27057e-05
2.4264e-11
-5.90718e-11
1.27057e-05
-2.07766e-11
-2.13385e-11
-3.50038e-12
8.03948e-11
1.078e-05
1.91713e-11
-4.39919e-11
1.07801e-05
-1.4654e-11
-5.4584e-11
-4.52586e-12
9.85641e-11
9.11399e-06
9.52101e-12
-2.04093e-11
9.114e-06
-2.85091e-12
-7.51603e-11
-6.67866e-12
9.55708e-11
7.67681e-06
-4.47409e-12
7.42381e-12
7.67682e-06
1.52303e-11
-9.95115e-11
-1.07603e-11
9.20748e-11
6.43864e-06
-2.11634e-11
2.72656e-11
6.43865e-06
3.7091e-11
-1.14616e-10
-1.59298e-11
8.73467e-11
5.37103e-06
-3.50165e-11
3.40312e-11
5.37105e-06
5.71467e-11
-1.05191e-10
-2.21374e-11
7.11714e-11
4.4482e-06
-3.85688e-11
2.10698e-11
4.44822e-06
6.10669e-11
-5.50524e-11
-2.25112e-11
3.39969e-11
3.64484e-06
-2.95588e-11
2.6743e-12
3.64485e-06
4.40269e-11
1.36224e-12
-1.44846e-11
-4.02684e-12
2.93169e-06
-1.52219e-11
-9.78965e-12
2.9317e-06
2.08651e-11
2.63825e-11
-5.65678e-12
-1.65997e-11
2.25471e-06
-3.83477e-12
-8.71198e-12
2.25472e-06
4.93076e-12
1.96516e-11
-1.09959e-12
-1.0967e-11
1.21476e-06
2.67421e-12
1.21476e-06
1.75698e-13
-2.85805e-12
1.56764e-06
5.09941e-12
2.43988e-12
1.56765e-06
-6.47246e-12
1.58312e-12
1.38038e-12
-4.04223e-12
2.84091e-06
1.87218e-11
-1.32985e-11
2.84092e-06
-2.54775e-11
2.83111e-11
6.77994e-12
-1.50678e-11
3.70499e-06
3.5669e-11
-1.47655e-11
3.70501e-06
-5.2716e-11
3.74816e-11
1.70798e-11
-2.27432e-11
4.60582e-06
4.63934e-11
3.39421e-12
4.60584e-06
-7.27386e-11
2.68092e-12
2.63774e-11
-6.07363e-12
5.61715e-06
4.24445e-11
2.97722e-11
5.61717e-06
-6.8138e-11
-7.69312e-11
2.57196e-11
4.71773e-11
6.77749e-06
2.61391e-11
4.83684e-11
6.77751e-06
-4.44977e-11
-1.46643e-10
1.83774e-11
9.82966e-11
8.11913e-06
6.03667e-12
4.04669e-11
8.11915e-06
-1.85914e-11
-1.58895e-10
1.25719e-11
1.18433e-10
9.6748e-06
-1.11879e-11
1.34492e-11
9.67482e-06
3.22924e-12
-1.38689e-10
7.97669e-12
1.25237e-10
1.14805e-05
-2.32317e-11
-2.53234e-11
1.14805e-05
1.77071e-11
-1.03444e-10
5.53758e-12
1.28783e-10
1.35739e-05
-2.96318e-11
-6.01426e-11
1.35739e-05
2.52729e-11
-7.38276e-11
4.37223e-12
1.3397e-10
1.59943e-05
-2.84765e-11
-8.32634e-11
1.59943e-05
2.40954e-11
-2.77688e-11
4.39236e-12
1.11037e-10
1.87811e-05
-2.33888e-11
-9.40807e-11
1.87811e-05
1.97619e-11
-7.40282e-12
3.62292e-12
1.01531e-10
2.19698e-05
-1.72042e-11
-9.45219e-11
2.19698e-05
1.30444e-11
3.70332e-11
4.13588e-12
5.75537e-11
2.56129e-05
-8.49198e-12
-1.2932e-10
2.56129e-05
4.40334e-12
1.74408e-10
4.03857e-12
-4.5009e-11
2.97821e-05
-1.1262e-13
-2.20097e-10
2.97821e-05
5.32146e-14
3.48554e-10
2.61152e-14
-1.28507e-10
2.97821e-05
8.25215e-12
-2.20551e-10
2.97821e-05
-4.23519e-12
3.48981e-10
-4.02783e-12
-1.28502e-10
2.56128e-05
1.70081e-11
-1.30178e-10
2.56128e-05
-1.28932e-11
1.75052e-10
-4.12845e-12
-4.4865e-11
2.19695e-05
2.32294e-11
-9.49122e-11
2.19695e-05
-1.96298e-11
3.78904e-11
-3.61349e-12
5.70232e-11
1.87805e-05
2.83225e-11
-9.42439e-11
1.87806e-05
-2.39589e-11
-6.1994e-12
-4.38599e-12
1.00471e-10
1.59937e-05
2.95569e-11
-8.33968e-11
1.59937e-05
-2.52216e-11
-2.58341e-11
-4.35132e-12
1.09209e-10
1.35734e-05
2.32617e-11
-6.0619e-11
1.35734e-05
-1.77285e-11
-7.14534e-11
-5.5438e-12
1.32055e-10
1.148e-05
1.13676e-11
-2.68407e-11
1.148e-05
-3.35691e-12
-1.01066e-10
-8.02111e-12
1.27907e-10
9.67431e-06
-5.8248e-12
1.29005e-11
9.67433e-06
1.85259e-11
-1.36777e-10
-1.2706e-11
1.23858e-10
8.11856e-06
-2.61735e-11
4.06616e-11
8.11858e-06
4.47458e-11
-1.58691e-10
-1.85751e-11
1.18024e-10
6.7768e-06
-4.2737e-11
4.90665e-11
6.77682e-06
6.87004e-11
-1.46882e-10
-2.59723e-11
9.78339e-11
5.61644e-06
-4.67635e-11
2.9901e-11
5.61645e-06
7.32997e-11
-7.66355e-11
-2.65524e-11
4.67561e-11
4.60519e-06
-3.58828e-11
3.19879e-12
4.60521e-06
5.29244e-11
3.79256e-12
-1.70618e-11
-6.97757e-12
3.70452e-06
-1.87719e-11
-1.49999e-11
3.70454e-06
2.5445e-11
3.86674e-11
-6.68977e-12
-2.36779e-11
2.84059e-06
-5.08781e-12
-1.34858e-11
2.8406e-06
6.44248e-12
2.88352e-11
-1.35944e-12
-1.53887e-11
1.56745e-06
2.43293e-12
1.56745e-06
1.71114e-12
-4.15698e-12
2.01073e-06
6.67361e-12
1.85636e-12
2.01073e-06
-8.3479e-12
3.64867e-12
1.68417e-12
-5.53415e-12
3.50696e-06
2.26608e-11
-1.86689e-11
3.50697e-06
-3.0519e-11
3.83565e-11
7.8877e-12
-1.97623e-11
4.58679e-06
4.24398e-11
-2.05696e-11
4.58681e-06
-6.21653e-11
5.07552e-11
1.97649e-11
-3.02226e-11
5.70717e-06
5.51373e-11
4.03042e-12
5.70719e-06
-8.56283e-11
5.02695e-12
3.05297e-11
-9.05516e-12
6.96034e-06
5.08197e-11
3.97024e-11
6.96036e-06
-8.04708e-11
-1.01191e-10
2.96825e-11
6.15139e-11
8.39616e-06
3.17502e-11
6.54081e-11
8.39618e-06
-5.2872e-11
-1.93095e-10
2.11445e-11
1.27717e-10
1.00553e-05
7.68245e-12
5.63782e-11
1.00553e-05
-2.22498e-11
-2.07571e-10
1.45879e-11
1.512e-10
1.19786e-05
-1.30887e-11
2.00123e-11
1.19786e-05
3.78608e-12
-1.79428e-10
9.3244e-12
1.59412e-10
1.42107e-05
-2.76742e-11
-3.24517e-11
1.42107e-05
2.12029e-11
-1.30424e-10
6.48713e-12
1.62898e-10
1.67986e-05
-3.54531e-11
-7.9981e-11
1.67986e-05
3.03667e-11
-9.00639e-11
5.10277e-12
1.70044e-10
1.97913e-05
-3.40952e-11
-1.13029e-10
1.97913e-05
2.90062e-11
-3.01599e-11
5.10282e-12
1.43197e-10
2.32383e-05
-2.802e-11
-1.28777e-10
2.32383e-05
2.36638e-11
-5.09308e-12
4.35141e-12
1.33936e-10
2.71842e-05
-2.07901e-11
-1.25303e-10
2.71842e-05
1.56776e-11
4.57079e-11
5.08366e-12
7.96846e-11
3.16939e-05
-1.04033e-11
-1.66052e-10
3.16939e-05
5.48441e-12
2.07021e-10
4.85789e-12
-4.08574e-11
3.68558e-05
-1.38794e-13
-2.71441e-10
3.68557e-05
6.58323e-14
4.08179e-10
3.2588e-14
-1.36809e-10
3.68557e-05
1.01105e-11
-2.71983e-10
3.68557e-05
-5.28282e-12
4.08727e-10
-4.8407e-12
-1.36844e-10
3.16937e-05
2.05473e-11
-1.67176e-10
3.16937e-05
-1.54916e-11
2.07876e-10
-5.07211e-12
-4.06876e-11
2.71838e-05
2.7825e-11
-1.25795e-10
2.71838e-05
-2.35013e-11
4.67655e-11
-4.34059e-12
7.90313e-11
2.32376e-05
3.39153e-11
-1.28994e-10
2.32376e-05
-2.8847e-11
-3.59997e-12
-5.09554e-12
1.32632e-10
1.97905e-05
3.53665e-11
-1.13251e-10
1.97905e-05
-3.03073e-11
-2.77651e-11
-5.07889e-12
1.40987e-10
1.6798e-05
2.77115e-11
-8.06802e-11
1.6798e-05
-2.12293e-11
-8.71057e-11
-6.49503e-12
1.67762e-10
1.421e-05
1.33022e-11
-3.448e-11
1.42101e-05
-3.93846e-12
-1.27436e-10
-9.37627e-12
1.61917e-10
1.19779e-05
-7.43553e-12
1.94351e-11
1.19779e-05
2.2175e-11
-1.77094e-10
-1.4745e-11
1.57634e-10
1.00546e-05
-3.17954e-11
5.64874e-11
1.00546e-05
5.31658e-11
-2.07492e-10
-2.1374e-11
1.50997e-10
8.3953e-06
-5.11653e-11
6.64218e-11
8.39532e-06
8.11306e-11
-1.93563e-10
-2.99761e-11
1.27166e-10
6.95944e-06
-5.55716e-11
3.98694e-11
6.95946e-06
8.62884e-11
-1.00937e-10
-3.07362e-11
6.1098e-11
5.70639e-06
-4.26935e-11
3.80215e-12
5.70641e-06
6.24328e-11
6.43296e-12
-1.97635e-11
-1.02166e-11
4.5862e-06
-2.27263e-11
-2.09146e-11
4.58621e-06
3.05075e-11
5.22321e-11
-7.80124e-12
-3.1332e-11
3.50655e-06
-6.66511e-12
-1.89312e-11
3.50656e-06
8.32001e-12
3.90035e-11
-1.66114e-12
-2.01255e-11
2.01048e-06
1.83464e-12
2.01049e-06
3.84005e-12
-5.69383e-12
2.56494e-06
8.68589e-12
8.19222e-13
2.56495e-06
-1.07017e-11
6.37749e-12
2.02889e-12
-7.23894e-12
4.28214e-06
2.71484e-11
-2.4527e-11
4.28215e-06
-3.6198e-11
4.90657e-11
9.08507e-12
-2.46357e-11
5.61016e-06
4.98538e-11
-2.6982e-11
5.61018e-06
-7.24068e-11
6.49424e-11
2.25998e-11
-3.80087e-11
6.9902e-06
6.46538e-11
4.65754e-12
6.99023e-06
-9.94747e-11
7.32314e-12
3.48667e-11
-1.19775e-11
8.52866e-06
6.00937e-11
5.06307e-11
8.52868e-06
-9.39355e-11
-1.27818e-10
3.3879e-11
7.72213e-11
1.02886e-05
3.81518e-11
8.45753e-11
1.02886e-05
-6.22684e-11
-2.43691e-10
2.41438e-11
1.59156e-10
1.23206e-05
9.67342e-12
7.46988e-11
1.23206e-05
-2.63857e-11
-2.5988e-10
1.67364e-11
1.85192e-10
1.46753e-05
-1.50808e-11
2.7333e-11
1.46753e-05
4.45467e-12
-2.21899e-10
1.0652e-11
1.94561e-10
1.74076e-05
-3.25494e-11
-4.14263e-11
1.74076e-05
2.52961e-11
-1.56091e-10
7.27243e-12
1.97546e-10
2.05756e-05
-4.19075e-11
-1.04109e-10
2.05756e-05
3.63562e-11
-1.02995e-10
5.57128e-12
2.07103e-10
2.42395e-05
-4.03315e-11
-1.49527e-10
2.42395e-05
3.47931e-11
-2.79006e-11
5.55476e-12
1.77439e-10
2.84608e-05
-3.32571e-11
-1.71983e-10
2.84608e-05
2.82582e-11
1.54718e-12
4.99303e-12
1.70525e-10
3.32947e-05
-2.48824e-11
-1.63029e-10
3.32947e-05
1.87208e-11
5.58123e-11
6.12711e-12
1.07335e-10
3.88203e-05
-1.25408e-11
-2.09297e-10
3.88203e-05
6.71154e-12
2.36439e-10
5.75588e-12
-2.69923e-11
4.51456e-05
-1.68548e-13
-3.31593e-10
4.51455e-05
8.00363e-14
4.62704e-10
4.00542e-14
-1.31207e-10
4.51455e-05
1.21903e-11
-3.32242e-10
4.51455e-05
-6.47437e-12
4.63422e-10
-5.73146e-12
-1.31312e-10
3.88201e-05
2.45864e-11
-2.10736e-10
3.88201e-05
-1.84945e-11
2.37553e-10
-6.1117e-12
-2.67997e-11
3.32941e-05
3.30212e-11
-1.6364e-10
3.32941e-05
-2.80594e-11
5.70844e-11
-4.98186e-12
1.06557e-10
2.84599e-05
4.01249e-11
-1.72282e-10
2.84599e-05
-3.46088e-11
3.31491e-12
-5.54829e-12
1.69017e-10
2.42384e-05
4.18096e-11
-1.49862e-10
2.42384e-05
-3.62887e-11
-2.50644e-11
-5.54481e-12
1.74889e-10
2.05747e-05
3.25954e-11
-1.05084e-10
2.05748e-05
-2.5329e-11
-9.94571e-11
-7.28201e-12
2.04509e-10
1.74069e-05
1.53312e-11
-4.39445e-11
1.74069e-05
-4.63587e-12
-1.52482e-10
-1.07102e-11
1.96427e-10
1.46745e-05
-9.39022e-12
2.66193e-11
1.46745e-05
2.62998e-11
-2.19175e-10
-1.6916e-11
1.92522e-10
1.23197e-05
-3.82103e-11
7.46179e-11
1.23197e-05
6.2612e-11
-2.59998e-10
-2.44063e-11
1.85371e-10
1.02875e-05
-6.04957e-11
8.59538e-11
1.02875e-05
9.46996e-11
-2.44474e-10
-3.42167e-11
1.58554e-10
8.52755e-06
-6.51558e-11
5.08597e-11
8.52757e-06
1.00241e-10
-1.27667e-10
-3.51087e-11
7.68478e-11
6.98923e-06
-5.01511e-11
4.39314e-12
6.98925e-06
7.2745e-11
9.0296e-12
-2.26224e-11
-1.33986e-11
5.60942e-06
-2.72335e-11
-2.74564e-11
5.60944e-06
3.62164e-11
6.67053e-11
-9.00673e-12
-3.92682e-11
4.28162e-06
-8.6834e-12
-2.48773e-11
4.28164e-06
1.0678e-11
4.98433e-11
-2.0027e-12
-2.50349e-11
2.56464e-06
7.71858e-13
2.56464e-06
6.65687e-12
-7.45598e-12
3.25371e-06
1.12525e-11
-8.11628e-13
3.25372e-06
-1.36331e-11
9.84156e-12
2.39772e-12
-9.0893e-12
5.19676e-06
3.23327e-11
-3.06584e-11
5.19677e-06
-4.26506e-11
6.00554e-11
1.03601e-11
-2.95191e-11
6.80871e-06
5.80346e-11
-3.3886e-11
6.80874e-06
-8.35461e-11
7.96195e-11
2.55664e-11
-4.57946e-11
8.49624e-06
7.50392e-11
5.15214e-12
8.49627e-06
-1.14352e-10
9.35077e-12
3.93665e-11
-1.44984e-11
1.03734e-05
7.04093e-11
6.22916e-11
1.03734e-05
-1.08701e-10
-1.56331e-10
3.83354e-11
9.40833e-11
1.25173e-05
4.55132e-11
1.05581e-10
1.25173e-05
-7.29373e-11
-2.97245e-10
2.74561e-11
1.91716e-10
1.49906e-05
1.21058e-11
9.51223e-11
1.49906e-05
-3.11253e-11
-3.14364e-10
1.90476e-11
2.19256e-10
1.78551e-05
-1.71372e-11
3.49566e-11
1.78551e-05
5.28233e-12
-2.64359e-10
1.18849e-11
2.29395e-10
2.11784e-05
-3.78866e-11
-5.31036e-11
2.11784e-05
3.019e-11
-1.78078e-10
7.71957e-12
2.31217e-10
2.50312e-05
-4.9319e-11
-1.33516e-10
2.50312e-05
4.35296e-11
-1.09732e-10
5.81386e-12
2.43244e-10
2.94877e-05
-4.77766e-11
-1.94144e-10
2.94877e-05
4.17313e-11
-1.79852e-11
6.06477e-12
2.12145e-10
3.46233e-05
-3.94823e-11
-2.25947e-10
3.46233e-05
3.37769e-11
1.57664e-11
5.69861e-12
2.10296e-10
4.05056e-05
-2.96034e-11
-2.10553e-10
4.05056e-05
2.22996e-11
6.99068e-11
7.26275e-12
1.40798e-10
4.72305e-05
-1.49417e-11
-2.6033e-10
4.72305e-05
8.11278e-12
2.6274e-10
6.74133e-12
-2.21385e-12
5.49286e-05
-2.01898e-13
-4.01851e-10
5.49285e-05
9.58532e-14
5.10024e-10
4.83784e-14
-1.08299e-10
5.49285e-05
1.45292e-11
-4.02636e-10
5.49285e-05
-7.83822e-12
5.10984e-10
-6.7091e-12
-1.08519e-10
4.72302e-05
2.92461e-11
-2.62143e-10
4.72301e-05
-2.20256e-11
2.64173e-10
-7.24399e-12
-2.0079e-12
4.05049e-05
3.91914e-11
-2.11303e-10
4.05049e-05
-3.35277e-11
7.14085e-11
-5.6876e-12
1.39897e-10
3.46223e-05
4.75251e-11
-2.26356e-10
3.46223e-05
-4.1504e-11
1.77934e-11
-6.05926e-12
2.08627e-10
2.94864e-05
4.92007e-11
-1.9462e-10
2.94863e-05
-4.34456e-11
-1.47247e-11
-5.78429e-12
2.09298e-10
2.50302e-05
3.79435e-11
-1.34828e-10
2.50302e-05
-3.02318e-11
-1.05627e-10
-7.73056e-12
2.40412e-10
2.11774e-05
1.74273e-11
-5.6103e-11
2.11774e-05
-5.4982e-12
-1.73853e-10
-1.19461e-11
2.29954e-10
1.78541e-05
-1.17865e-11
3.40155e-11
1.78541e-05
3.1026e-11
-2.61296e-10
-1.92467e-11
2.27237e-10
1.49894e-05
-4.55877e-11
9.48394e-11
1.49895e-05
7.33351e-11
-3.14762e-10
-2.77528e-11
2.19912e-10
1.2516e-05
-7.08716e-11
1.07301e-10
1.2516e-05
1.09576e-10
-2.9844e-10
-3.87197e-11
1.91183e-10
1.03721e-05
-7.5612e-11
6.26495e-11
1.03721e-05
1.15234e-10
-1.56349e-10
-3.96487e-11
9.37518e-11
8.49504e-06
-5.83805e-11
4.83898e-12
8.49507e-06
8.39671e-11
1.13334e-11
-2.562e-11
-1.61417e-11
6.80779e-06
-3.24429e-11
-3.45034e-11
6.80782e-06
4.27081e-11
8.16565e-11
-1.02932e-11
-4.71778e-11
5.19611e-06
-1.12599e-11
-3.11088e-11
5.19613e-06
1.36159e-11
6.09735e-11
-2.36637e-12
-2.99513e-11
3.25333e-06
-8.99994e-13
3.25334e-06
1.02381e-11
-9.37578e-12
4.10298e-06
1.44803e-11
-3.18873e-12
4.10299e-06
-1.72127e-11
1.40369e-11
2.75432e-12
-1.09294e-11
6.28537e-06
3.83752e-11
-3.68253e-11
6.28539e-06
-4.99961e-11
7.08718e-11
1.16707e-11
-3.41965e-11
8.22069e-06
6.70991e-11
-4.113e-11
8.22072e-06
-9.56306e-11
9.42926e-11
2.85953e-11
-5.32376e-11
1.0271e-05
8.6354e-11
5.3327e-12
1.0271e-05
-1.30231e-10
1.09452e-11
4.39384e-11
-1.62714e-11
1.25512e-05
8.18756e-11
7.42364e-11
1.25512e-05
-1.2488e-10
-1.85951e-10
4.30552e-11
1.11769e-10
1.51518e-05
5.4e-11
1.27845e-10
1.51518e-05
-8.51654e-11
-3.52006e-10
3.12027e-11
2.24226e-10
1.8149e-05
1.50992e-11
1.17106e-10
1.8149e-05
-3.66273e-11
-3.69125e-10
2.15598e-11
2.52039e-10
2.16184e-05
-1.93729e-11
4.22965e-11
2.16184e-05
6.26185e-12
-3.04561e-10
1.31463e-11
2.62253e-10
2.56424e-05
-4.39987e-11
-6.85658e-11
2.56423e-05
3.58549e-11
-1.93043e-10
8.17111e-12
2.61653e-10
3.03071e-05
-5.77388e-11
-1.69863e-10
3.0307e-05
5.17793e-11
-1.05894e-10
5.989e-12
2.75751e-10
3.57027e-05
-5.63088e-11
-2.48884e-10
3.57027e-05
4.97637e-11
4.08537e-12
6.56768e-12
2.44822e-10
4.19219e-05
-4.67406e-11
-2.93347e-10
4.19219e-05
4.03085e-11
4.24754e-11
6.42405e-12
2.51017e-10
4.90466e-05
-3.50337e-11
-2.71627e-10
4.90466e-05
2.65127e-11
9.22163e-11
8.47238e-12
1.79603e-10
5.7192e-05
-1.75904e-11
-3.21295e-10
5.7192e-05
9.67528e-12
2.88515e-10
7.81192e-12
3.30311e-11
6.6516e-05
-2.36942e-13
-4.84008e-10
6.6516e-05
1.11417e-13
5.50795e-10
5.74547e-14
-6.6948e-11
6.6516e-05
1.71142e-11
-4.84973e-10
6.65159e-05
-9.3641e-12
5.52094e-10
-7.7715e-12
-6.7339e-11
5.71916e-05
3.46057e-11
-3.23545e-10
5.71916e-05
-2.61821e-11
2.90341e-10
-8.45118e-12
3.32314e-11
4.90456e-05
4.63763e-11
-2.7253e-10
4.90456e-05
-3.99902e-11
9.39613e-11
-6.41439e-12
1.78572e-10
4.19206e-05
5.5987e-11
-2.93887e-10
4.19206e-05
-4.94677e-11
4.47426e-11
-6.5637e-12
2.49225e-10
3.57011e-05
5.7568e-11
-2.49521e-10
3.5701e-05
-5.16475e-11
7.73864e-12
-5.95566e-12
2.41726e-10
3.03058e-05
4.40419e-11
-1.71571e-10
3.03057e-05
-3.58811e-11
-1.01231e-10
-8.18335e-12
2.72747e-10
2.56411e-05
1.96953e-11
-7.20391e-11
2.56411e-05
-6.5102e-12
-1.8818e-10
-1.32052e-11
2.60214e-10
2.16172e-05
-1.47454e-11
4.1136e-11
2.16172e-05
3.65105e-11
-3.01222e-10
-2.17725e-11
2.6003e-10
1.81476e-05
-5.40917e-11
1.16752e-10
1.81476e-05
8.56216e-11
-3.6989e-10
-3.15364e-11
2.53126e-10
1.51502e-05
-8.23995e-11
1.29856e-10
1.51502e-05
1.25872e-10
-3.5371e-10
-4.34904e-11
2.23909e-10
1.25495e-05
-8.70001e-11
7.47794e-11
1.25496e-05
1.31235e-10
-1.86206e-10
-4.4266e-11
1.11492e-10
1.02695e-05
-6.74988e-11
4.9687e-12
1.02696e-05
9.61462e-11
1.3154e-11
-2.86861e-11
-1.80843e-11
8.21955e-06
-3.85176e-11
-4.1895e-11
8.21958e-06
5.01015e-11
9.6584e-11
-1.16166e-11
-5.47197e-11
6.28458e-06
-1.45023e-11
-3.73865e-11
6.2846e-06
1.72039e-11
7.19418e-11
-2.71468e-12
-3.46614e-11
4.1025e-06
-3.33894e-12
4.10251e-06
1.4583e-11
-1.12947e-11
5.14118e-06
1.84549e-11
-6.43862e-12
5.14119e-06
-2.14687e-11
1.88073e-11
3.04112e-12
-1.24773e-11
7.58877e-06
4.54517e-11
-4.28211e-11
7.5888e-06
-5.83324e-11
8.09958e-11
1.29389e-11
-3.83555e-11
9.89154e-06
7.71723e-11
-4.85008e-11
9.89157e-06
-1.08652e-10
1.08403e-10
3.15533e-11
-5.99922e-11
1.23674e-05
9.86364e-11
4.97002e-12
1.23675e-05
-1.46964e-10
1.20633e-11
4.83977e-11
-1.70236e-11
1.51267e-05
9.45355e-11
8.57688e-11
1.51268e-05
-1.42532e-10
-2.15433e-10
4.80555e-11
1.29731e-10
1.82713e-05
6.37274e-11
1.50462e-10
1.82713e-05
-9.932e-11
-4.05452e-10
3.56316e-11
2.55074e-10
2.18922e-05
1.8655e-11
1.39943e-10
2.18922e-05
-4.31182e-11
-4.21907e-10
2.45022e-11
2.81985e-10
2.60808e-05
-2.16177e-11
4.81671e-11
2.60808e-05
7.09168e-12
-3.39396e-10
1.4567e-11
2.91215e-10
3.09372e-05
-5.0136e-11
-8.98852e-11
3.09372e-05
4.16146e-11
-1.95794e-10
8.5533e-12
2.85732e-10
3.65662e-05
-6.62891e-11
-2.15481e-10
3.65661e-05
6.03541e-11
-8.51556e-11
5.97007e-12
3.00628e-10
4.3077e-05
-6.52039e-11
-3.16148e-10
4.3077e-05
5.82713e-11
4.47329e-11
6.95882e-12
2.71447e-10
5.05829e-05
-5.46822e-11
-3.77078e-10
5.05829e-05
4.75827e-11
8.87432e-11
7.09039e-12
2.88516e-10
5.91826e-05
-4.12722e-11
-3.50516e-10
5.91826e-05
3.14987e-11
1.28999e-10
9.71615e-12
2.21758e-10
6.90142e-05
-2.06433e-11
-3.96385e-10
6.90142e-05
1.15615e-11
3.19559e-10
8.96103e-12
7.7141e-11
8.02677e-05
-2.74791e-13
-5.81049e-10
8.02676e-05
1.27965e-13
5.89978e-10
6.7198e-14
-9.13096e-12
8.02676e-05
2.00908e-11
-5.82235e-10
8.02676e-05
-1.12034e-11
5.91726e-10
-8.91212e-12
-9.76408e-12
6.90137e-05
4.07521e-11
-3.99131e-10
6.90137e-05
-3.10898e-11
3.21885e-10
-9.69398e-12
7.72818e-11
5.91814e-05
5.42218e-11
-3.51584e-10
5.91814e-05
-4.71704e-11
1.31003e-10
-7.08449e-12
2.20586e-10
5.05812e-05
6.47966e-11
-3.77772e-10
5.05812e-05
-5.78899e-11
9.124e-11
-6.95829e-12
2.86631e-10
4.3075e-05
6.60593e-11
-3.16971e-10
4.3075e-05
-6.01677e-11
4.87333e-11
-5.93327e-12
2.68172e-10
3.65645e-05
5.01614e-11
-2.1765e-10
3.65645e-05
-4.16211e-11
-7.99638e-11
-8.56675e-12
2.97543e-10
3.09357e-05
2.1975e-11
-9.37775e-11
3.09356e-05
-7.37812e-12
-1.90273e-10
-1.46204e-11
2.84044e-10
2.60793e-05
-1.82684e-11
4.68727e-11
2.60792e-05
4.29795e-11
-3.35835e-10
-2.47226e-11
2.88894e-10
2.18904e-05
-6.38337e-11
1.39763e-10
2.18904e-05
9.9838e-11
-4.23122e-10
-3.60082e-11
2.83339e-10
1.82693e-05
-9.51158e-11
1.52729e-10
1.82693e-05
1.43644e-10
-4.07748e-10
-4.85492e-11
2.55091e-10
1.51247e-05
-9.93571e-11
8.65204e-11
1.51247e-05
1.48096e-10
-2.15994e-10
-4.87746e-11
1.29553e-10
1.23657e-05
-7.76317e-11
4.56238e-12
1.23657e-05
1.09273e-10
1.44292e-11
-3.16856e-11
-1.89437e-11
9.89015e-06
-4.56349e-11
-4.94082e-11
9.89018e-06
5.8493e-11
1.10921e-10
-1.28958e-11
-6.15499e-11
7.58779e-06
-1.84964e-11
-4.34956e-11
7.58781e-06
2.14693e-11
8.22286e-11
-2.98893e-12
-3.88607e-11
5.14057e-06
-6.67691e-12
5.14059e-06
1.95358e-11
-1.29257e-11
6.39959e-06
2.32371e-11
-1.06253e-11
6.39961e-06
-2.6387e-11
2.37615e-11
3.18288e-12
-1.32778e-11
9.15569e-06
5.37444e-11
-4.85229e-11
9.15572e-06
-6.77271e-11
8.98334e-11
1.405e-11
-4.15256e-11
1.18763e-05
8.83907e-11
-5.5753e-11
1.18763e-05