/*--------------------------------*- C++ -*----------------------------------*\
  =========                 |
  \\      /  F ield         | OpenFOAM: The Open Source CFD Toolbox
   \\    /   O peration     | Website:  https://openfoam.org
    \\  /    A nd           | Version:  6
     \\/     M anipulation  |
\*---------------------------------------------------------------------------*/
FoamFile
{
    version     2.0;
    format      ascii;
    class       volVectorField;
    location    "60";
    object      U;
}
// * * * * * * * * * * * * * * * * * * * * * * * * * * * * * * * * * * * * * //

dimensions      [0 1 -1 0 0 0 0];

internalField   nonuniform List<vector> 
2160
(
(0.0654234 -1.7447e-10 1.48285e-10)
(0.0654234 1.84681e-11 -1.10781e-10)
(0.065424 1.54273e-10 -3.74802e-11)
(0.0540065 3.19125e-09 3.52755e-11)
(0.0540066 -4.48549e-09 -1.08907e-11)
(0.0540073 1.29778e-09 -2.44992e-11)
(0.0652704 1.1348e-08 3.5311e-11)
(0.0652707 -1.73606e-08 -4.18247e-12)
(0.0652715 6.02423e-09 -3.11172e-11)
(0.0741501 1.91296e-08 4.73371e-11)
(0.0741507 -3.09883e-08 -9.45236e-11)
(0.0741514 1.18715e-08 4.71912e-11)
(0.0814362 2.14054e-08 6.99195e-11)
(0.0814371 -3.7178e-08 -2.46009e-10)
(0.0814373 1.57852e-08 1.76045e-10)
(0.087676 1.52407e-08 8.45821e-11)
(0.0876773 -2.76644e-08 -3.79254e-10)
(0.0876772 1.24314e-08 2.94729e-10)
(0.0931557 6.20179e-09 4.32399e-11)
(0.0931571 -1.53788e-08 -3.83341e-10)
(0.0931568 9.18432e-09 3.40311e-10)
(0.0980432 -2.92995e-09 -6.35726e-12)
(0.0980446 -1.80483e-09 -2.87299e-10)
(0.0980441 4.74331e-09 2.93901e-10)
(0.102464 -9.24929e-09 -4.98343e-11)
(0.102466 6.44735e-09 -1.91852e-10)
(0.102465 2.81009e-09 2.41842e-10)
(0.106491 -1.40602e-08 -6.34417e-11)
(0.106493 1.2896e-08 -1.12837e-10)
(0.106492 1.16822e-09 1.7632e-10)
(0.110167 -1.5235e-08 -3.97427e-11)
(0.110168 1.39352e-08 -2.40886e-11)
(0.110167 1.30969e-09 6.37951e-11)
(0.113496 -1.3021e-08 7.71897e-12)
(0.113497 1.17018e-08 1.40252e-11)
(0.113496 1.32013e-09 -2.18129e-11)
(0.116366 -1.08195e-08 8.1466e-11)
(0.116366 9.8966e-09 -2.14164e-12)
(0.116366 9.18121e-10 -7.89655e-11)
(0.118723 -6.62104e-09 2.88945e-10)
(0.118723 4.06773e-09 -3.78845e-10)
(0.118721 2.53598e-09 8.89143e-11)
(0.120403 -1.5854e-09 9.91431e-10)
(0.120402 2.02366e-10 -1.42439e-09)
(0.120398 1.35397e-09 4.29974e-10)
(0.120403 1.47959e-09 9.93787e-10)
(0.120401 -1.47121e-10 -1.42695e-09)
(0.120398 -1.33267e-09 4.30144e-10)
(0.11872 6.49098e-09 2.90015e-10)
(0.118719 -3.93771e-09 -3.79257e-10)
(0.118718 -2.56212e-09 8.83111e-11)
(0.11636 1.0756e-08 8.17579e-11)
(0.11636 -9.85602e-09 -2.71734e-12)
(0.116359 -9.03414e-10 -7.87536e-11)
(0.113488 1.29266e-08 7.74051e-12)
(0.113489 -1.15884e-08 1.29495e-11)
(0.113488 -1.34766e-09 -2.07336e-11)
(0.110157 1.51605e-08 -4.02027e-11)
(0.110158 -1.38751e-08 -2.13061e-11)
(0.110157 -1.29758e-09 6.14278e-11)
(0.106484 1.40474e-08 -6.40402e-11)
(0.106486 -1.28862e-08 -1.0893e-10)
(0.106485 -1.16541e-09 1.72982e-10)
(0.102457 9.28286e-09 -5.21142e-11)
(0.102458 -6.48168e-09 -1.87582e-10)
(0.102457 -2.80695e-09 2.39859e-10)
(0.0980347 3.06752e-09 -8.66289e-12)
(0.0980361 1.70315e-09 -2.81329e-10)
(0.0980356 -4.77513e-09 2.90197e-10)
(0.0931443 -6.11879e-09 4.42617e-11)
(0.0931457 1.53876e-08 -3.80661e-10)
(0.0931454 -9.26991e-09 3.36605e-10)
(0.0876603 -1.53187e-08 8.47605e-11)
(0.0876616 2.78691e-08 -3.77598e-10)
(0.0876615 -1.25509e-08 2.92898e-10)
(0.0814175 -2.15831e-08 7.06527e-11)
(0.0814185 3.75023e-08 -2.43099e-10)
(0.0814187 -1.59248e-08 1.72405e-10)
(0.0741319 -1.92875e-08 4.69452e-11)
(0.0741325 3.1192e-08 -9.01238e-11)
(0.0741332 -1.19118e-08 4.324e-11)
(0.0652556 -1.13888e-08 3.58904e-11)
(0.0652559 1.73229e-08 1.09316e-12)
(0.0652567 -5.9427e-09 -3.69424e-11)
(0.0539961 -3.18533e-09 3.50291e-11)
(0.0539961 4.44402e-09 -7.52068e-12)
(0.0539968 -1.26255e-09 -2.75896e-11)
(0.0654117 1.94109e-10 1.48711e-10)
(0.0654117 -2.86013e-11 -1.09078e-10)
(0.0654123 -1.63947e-10 -3.96548e-11)
(0.0851053 -9.88678e-11 2.00758e-10)
(0.0851053 -1.18874e-10 -1.30747e-10)
(0.0851059 2.1612e-10 -7.01861e-11)
(0.119605 6.98629e-09 -7.6013e-11)
(0.119605 -9.25532e-09 2.85602e-10)
(0.119606 2.27894e-09 -2.10324e-10)
(0.135514 2.18278e-08 -7.29989e-11)
(0.135515 -3.21727e-08 3.26318e-10)
(0.135516 1.03689e-08 -2.53526e-10)
(0.14704 3.51628e-08 9.98992e-11)
(0.147041 -5.54454e-08 -1.38796e-10)
(0.147042 2.03075e-08 3.892e-11)
(0.156158 3.83955e-08 2.91426e-10)
(0.156159 -6.47342e-08 -8.6565e-10)
(0.156159 2.63623e-08 5.74241e-10)
(0.163736 2.71335e-08 3.72089e-10)
(0.163737 -4.63379e-08 -1.37993e-09)
(0.163737 1.9219e-08 1.00802e-09)
(0.170193 1.12328e-08 2.10399e-10)
(0.170195 -2.5498e-08 -1.3571e-09)
(0.170194 1.4278e-08 1.14701e-09)
(0.175753 -4.5671e-09 -1.43897e-11)
(0.175755 -3.18242e-09 -1.05039e-09)
(0.175754 7.76415e-09 1.0651e-09)
(0.180555 -1.51777e-08 -2.51062e-10)
(0.180557 1.01201e-08 -7.38737e-10)
(0.180556 5.0714e-09 9.90099e-10)
(0.18465 -2.29828e-08 -4.15636e-10)
(0.184651 2.02209e-08 -5.10704e-10)
(0.184651 2.76809e-09 9.2647e-10)
(0.188027 -2.46035e-08 -4.59295e-10)
(0.188028 2.16407e-08 -2.19409e-10)
(0.188027 2.9787e-09 6.78723e-10)
(0.190631 -2.07129e-08 -4.69376e-10)
(0.190631 1.79309e-08 -1.01967e-10)
(0.190631 2.78271e-09 5.71471e-10)
(0.19237 -1.68507e-08 -5.00007e-10)
(0.19237 1.49812e-08 1.98518e-10)
(0.19237 1.86219e-09 3.01777e-10)
(0.193341 -1.02317e-08 -8.01231e-10)
(0.193341 6.17438e-09 1.1746e-09)
(0.19334 4.02713e-09 -3.73533e-10)
(0.193744 -2.41947e-09 -1.7521e-09)
(0.193744 3.30649e-10 2.69624e-09)
(0.193743 2.03968e-09 -9.45302e-10)
(0.193744 2.25318e-09 -1.75618e-09)
(0.193743 -2.49269e-10 2.7001e-09)
(0.193743 -2.00488e-09 -9.45169e-10)
(0.19334 1.00288e-08 -8.05541e-10)
(0.19334 -5.98312e-09 1.1774e-09)
(0.193339 -4.06043e-09 -3.7213e-10)
(0.192367 1.67543e-08 -5.02418e-10)
(0.192367 -1.4924e-08 2.04002e-10)
(0.192367 -1.83637e-09 2.98521e-10)
(0.190625 2.0566e-08 -4.7032e-10)
(0.190626 -1.7772e-08 -9.45361e-11)
(0.190625 -2.80888e-09 5.64932e-10)
(0.188019 2.44896e-08 -4.59191e-10)
(0.18802 -2.15646e-08 -2.06629e-10)
(0.188019 -2.9445e-09 6.65733e-10)
(0.184643 2.29607e-08 -4.17323e-10)
(0.184644 -2.01939e-08 -4.93701e-10)
(0.184644 -2.7738e-09 9.11074e-10)
(0.180547 1.52346e-08 -2.59739e-10)
(0.180549 -1.01725e-08 -7.2029e-10)
(0.180548 -5.07178e-09 9.80273e-10)
(0.175743 4.79606e-09 -2.13205e-11)
(0.175745 3.01944e-09 -1.03141e-09)
(0.175744 -7.82274e-09 1.05295e-09)
(0.17018 -1.11003e-08 2.12912e-10)
(0.170181 2.55274e-08 -1.35001e-09)
(0.170181 -1.44291e-08 1.13736e-09)
(0.163717 -2.7276e-08 3.75246e-10)
(0.163718 4.6688e-08 -1.37725e-09)
(0.163718 -1.94134e-08 1.00216e-09)
(0.156135 -3.87133e-08 2.93184e-10)
(0.156136 6.53018e-08 -8.57805e-10)
(0.156136 -2.65993e-08 5.64662e-10)
(0.147017 -3.5447e-08 9.73924e-11)
(0.147017 5.5814e-08 -1.22357e-10)
(0.147018 -2.03808e-08 2.51526e-11)
(0.135495 -2.19047e-08 -7.39506e-11)
(0.135495 3.21079e-08 3.46459e-10)
(0.135496 -1.02201e-08 -2.72522e-10)
(0.11959 -6.97705e-09 -7.8306e-11)
(0.11959 9.18343e-09 2.97332e-10)
(0.119591 -2.21469e-09 -2.1956e-10)
(0.0850926 1.22354e-10 2.01034e-10)
(0.0850926 1.07173e-10 -1.27811e-10)
(0.0850932 -2.27733e-10 -7.33477e-11)
(0.095778 3.8137e-11 2.49614e-10)
(0.095778 -3.02774e-10 -1.22675e-10)
(0.0957787 2.63184e-10 -1.27338e-10)
(0.151525 8.88433e-09 -2.82662e-10)
(0.151525 -1.14495e-08 7.51373e-10)
(0.151527 2.5787e-09 -4.70342e-10)
(0.169715 2.60975e-08 -2.73735e-10)
(0.169716 -3.77416e-08 8.48954e-10)
(0.169717 1.16735e-08 -5.75836e-10)
(0.18229 4.15495e-08 1.44096e-10)
(0.18229 -6.45798e-08 -1.19108e-10)
(0.182291 2.30606e-08 -2.49761e-11)
(0.192164 4.52524e-08 5.9703e-10)
(0.192165 -7.50736e-08 -1.6638e-09)
(0.192166 2.98496e-08 1.067e-09)
(0.200352 3.22182e-08 7.92606e-10)
(0.200354 -5.32506e-08 -2.68041e-09)
(0.200354 2.10502e-08 1.88815e-09)
(0.207324 1.35861e-08 5.04982e-10)
(0.207326 -2.93812e-08 -2.5682e-09)
(0.207326 1.58102e-08 2.06347e-09)
(0.213332 -5.03957e-09 7.12929e-11)
(0.213333 -3.83483e-09 -1.96326e-09)
(0.213333 8.89158e-09 1.89215e-09)
(0.218532 -1.75361e-08 -3.78177e-10)
(0.218534 1.14497e-08 -1.33096e-09)
(0.218533 6.10251e-09 1.70945e-09)
(0.222986 -2.67001e-08 -6.69438e-10)
(0.222987 2.30151e-08 -8.75375e-10)
(0.222986 3.69201e-09 1.54492e-09)
(0.226686 -2.85924e-08 -7.48406e-10)
(0.226687 2.46808e-08 -3.37095e-10)
(0.226686 3.93013e-09 1.08559e-09)
(0.229574 -2.40352e-08 -7.31199e-10)
(0.229574 2.04171e-08 -1.21437e-10)
(0.229574 3.61859e-09 8.52957e-10)
(0.231541 -1.939e-08 -7.04357e-10)
(0.231542 1.69136e-08 3.0017e-10)
(0.231541 2.4679e-09 4.04533e-10)
(0.232676 -1.19319e-08 -9.65581e-10)
(0.232675 7.12347e-09 1.43474e-09)
(0.232675 4.77259e-09 -4.68586e-10)
(0.233173 -2.81919e-09 -1.76684e-09)
(0.233172 4.13199e-10 2.83771e-09)
(0.233172 2.34754e-09 -1.07041e-09)
(0.233173 2.6219e-09 -1.77083e-09)
(0.233172 -3.18339e-10 2.84134e-09)
(0.233171 -2.30468e-09 -1.07015e-09)
(0.232674 1.16958e-08 -9.71385e-10)
(0.232674 -6.90818e-09 1.43879e-09)
(0.232674 -4.80515e-09 -4.67091e-10)
(0.231538 1.92742e-08 -7.07631e-10)
(0.231538 -1.68459e-08 3.07655e-10)
(0.231538 -2.43573e-09 3.99917e-10)
(0.229567 2.38661e-08 -7.32581e-10)
(0.229568 -2.02404e-08 -1.1094e-10)
(0.229567 -3.64293e-09 8.43742e-10)
(0.226676 2.84639e-08 -7.48904e-10)
(0.226677 -2.45993e-08 -3.16072e-10)
(0.226677 -3.88728e-09 1.06484e-09)
(0.222978 2.66743e-08 -6.73147e-10)
(0.222979 -2.29825e-08 -8.46686e-10)
(0.222978 -3.70005e-09 1.51978e-09)
(0.218524 1.76035e-08 -3.94749e-10)
(0.218525 -1.15095e-08 -1.29927e-09)
(0.218524 -6.10528e-09 1.69422e-09)
(0.213321 5.3036e-09 6.01408e-11)
(0.213323 3.65096e-09 -1.93086e-09)
(0.213322 -8.96282e-09 1.87069e-09)
(0.207309 -1.34381e-08 5.11129e-10)
(0.207311 2.94213e-08 -2.55831e-09)
(0.207311 -1.59856e-08 2.04729e-09)
(0.200331 -3.23879e-08 8.01606e-10)
(0.200333 5.36537e-08 -2.67869e-09)
(0.200333 -2.12677e-08 1.87738e-09)
(0.192139 -4.56242e-08 6.00168e-10)
(0.19214 7.57303e-08 -1.65167e-09)
(0.19214 -3.0119e-08 1.05179e-09)
(0.182264 -4.18804e-08 1.38861e-10)
(0.182265 6.50108e-08 -8.79412e-11)
(0.182266 -2.31472e-08 -5.05855e-11)
(0.169693 -2.61901e-08 -2.77639e-10)
(0.169694 3.7684e-08 8.87495e-10)
(0.169695 -1.15142e-08 -6.10039e-10)
(0.151508 -8.87711e-09 -2.87894e-10)
(0.151508 1.13759e-08 7.7302e-10)
(0.15151 -2.50918e-09 -4.86305e-10)
(0.0957648 -1.38669e-11 2.49892e-10)
(0.0957648 2.90382e-10 -1.18179e-10)
(0.0957654 -2.74749e-10 -1.32017e-10)
(0.106558 2.87556e-10 2.80696e-10)
(0.106558 -6.13117e-10 -5.3561e-11)
(0.106559 3.24554e-10 -2.28071e-10)
(0.17048 1.00768e-08 -5.93179e-10)
(0.17048 -1.27603e-08 1.3784e-09)
(0.170482 2.69926e-09 -7.87987e-10)
(0.191074 2.82447e-08 -5.73088e-10)
(0.191074 -4.03067e-08 1.56533e-09)
(0.191075 1.20943e-08 -9.93382e-10)
(0.204767 4.47199e-08 1.73237e-10)
(0.204767 -6.87431e-08 -2.42465e-11)
(0.204768 2.40564e-08 -1.48963e-10)
(0.215405 4.8775e-08 9.85182e-10)
(0.215406 -7.99014e-08 -2.63652e-09)
(0.215406 3.11574e-08 1.65186e-09)
(0.224186 3.51127e-08 1.34663e-09)
(0.224188 -5.65933e-08 -4.29981e-09)
(0.224188 2.15001e-08 2.95376e-09)
(0.231646 1.50748e-08 9.14801e-10)
(0.231648 -3.13747e-08 -4.06986e-09)
(0.231648 1.63165e-08 3.15525e-09)
(0.238066 -5.13787e-09 2.09491e-10)
(0.238067 -4.24867e-09 -3.09419e-09)
(0.238067 9.40519e-09 2.88471e-09)
(0.243621 -1.87449e-08 -5.27067e-10)
(0.243622 1.21098e-08 -2.05363e-09)
(0.243622 6.65257e-09 2.58103e-09)
(0.248381 -2.87246e-08 -9.98842e-10)
(0.248382 2.44771e-08 -1.31399e-09)
(0.248381 4.25531e-09 2.31287e-09)
(0.252344 -3.08017e-08 -1.14891e-09)
(0.252345 2.63327e-08 -4.75215e-10)
(0.252344 4.48915e-09 1.6242e-09)
(0.255452 -2.58697e-08 -1.1122e-09)
(0.255452 2.1758e-08 -1.45867e-10)
(0.255452 4.11214e-09 1.25861e-09)
(0.257588 -2.07299e-08 -1.01627e-09)
(0.257588 1.78167e-08 4.30429e-10)
(0.257588 2.90401e-09 5.86459e-10)
(0.258841 -1.29806e-08 -1.27843e-09)
(0.258841 7.70905e-09 1.86462e-09)
(0.25884 5.23247e-09 -5.85512e-10)
(0.25941 -3.06759e-09 -2.06575e-09)
(0.259409 4.95274e-10 3.37572e-09)
(0.259408 2.50841e-09 -1.30997e-09)
(0.25941 2.84967e-09 -2.07037e-09)
(0.259409 -3.90922e-10 3.37982e-09)
(0.259408 -2.45984e-09 -1.30965e-09)
(0.258839 1.27253e-08 -1.28656e-09)
(0.258839 -7.48282e-09 1.87052e-09)
(0.258839 -5.2616e-09 -5.83773e-10)
(0.257584 2.0598e-08 -1.02079e-09)
(0.257585 -1.77382e-08 4.40647e-10)
(0.257584 -2.86802e-09 5.80125e-10)
(0.255445 2.56891e-08 -1.11424e-09)
(0.255445 -2.15722e-08 -1.30352e-10)
(0.255445 -4.13552e-09 1.24493e-09)
(0.252334 3.0667e-08 -1.15017e-09)
(0.252335 -2.62487e-08 -4.44917e-10)
(0.252334 -4.44301e-09 1.5948e-09)
(0.248372 2.86974e-08 -1.00545e-09)
(0.248373 -2.44428e-08 -1.27172e-09)
(0.248373 -4.26353e-09 2.27694e-09)
(0.243611 1.88187e-08 -5.54258e-10)
(0.243613 -1.21741e-08 -2.00572e-09)
(0.243612 -6.65694e-09 2.56007e-09)
(0.238054 5.41892e-09 1.93539e-10)
(0.238056 4.05577e-09 -3.04713e-09)
(0.238055 -9.48353e-09 2.85328e-09)
(0.23163 -1.49218e-08 9.22514e-10)
(0.231632 3.14217e-08 -4.05881e-09)
(0.231631 -1.65024e-08 3.13625e-09)
(0.224164 -3.52971e-08 1.36404e-09)
(0.224165 5.70204e-08 -4.30135e-09)
(0.224165 -2.17255e-08 2.9378e-09)
(0.215377 -4.91722e-08 9.89671e-10)
(0.215378 8.05972e-08 -2.62099e-09)
(0.215378 -3.14392e-08 1.63194e-09)
(0.204739 -4.50712e-08 1.64783e-10)
(0.204739 6.92037e-08 2.30705e-11)
(0.20474 -2.41509e-08 -1.87331e-10)
(0.19105 -2.83468e-08 -5.81538e-10)
(0.19105 4.0271e-08 1.62415e-09)
(0.191051 -1.19461e-08 -1.04302e-09)
(0.170461 -1.00736e-08 -6.02231e-10)
(0.170461 1.26948e-08 1.40981e-09)
(0.170463 -2.63282e-09 -8.09574e-10)
(0.106544 -2.6367e-10 2.80961e-10)
(0.106544 6.00178e-10 -4.6534e-11)
(0.106545 -3.34931e-10 -2.35059e-10)
(0.117659 6.67647e-10 2.73951e-10)
(0.117659 -1.06696e-09 7.58521e-11)
(0.117659 3.99057e-10 -3.5138e-10)
(0.183792 1.09811e-08 -9.82209e-10)
(0.183792 -1.37241e-08 2.13586e-09)
(0.183794 2.76045e-09 -1.15781e-09)
(0.206609 2.94258e-08 -9.40661e-10)
(0.20661 -4.15591e-08 2.43053e-09)
(0.206611 1.21672e-08 -1.49163e-09)
(0.221393 4.63666e-08 2.07234e-10)
(0.221393 -7.05953e-08 1.07498e-10)
(0.221394 2.42637e-08 -3.14667e-10)
(0.232737 5.06885e-08 1.45224e-09)
(0.232738 -8.21227e-08 -3.78701e-09)
(0.232739 3.14669e-08 2.33564e-09)
(0.242054 3.69737e-08 2.01936e-09)
(0.242055 -5.83328e-08 -6.21543e-09)
(0.242055 2.13798e-08 4.19696e-09)
(0.249946 1.61548e-08 1.43202e-09)
(0.249947 -3.25157e-08 -5.82994e-09)
(0.249947 1.63783e-08 4.39813e-09)
(0.256727 -5.04488e-09 3.90483e-10)
(0.256729 -4.54059e-09 -4.40526e-09)
(0.256728 9.60504e-09 4.0147e-09)
(0.262593 -1.93849e-08 -7.01276e-10)
(0.262595 1.25021e-08 -2.86594e-09)
(0.262594 6.90122e-09 3.56765e-09)
(0.267622 -2.99167e-08 -1.40639e-09)
(0.267623 2.53871e-08 -1.78938e-09)
(0.267623 4.53781e-09 3.19576e-09)
(0.271817 -3.21369e-08 -1.66039e-09)
(0.271818 2.74174e-08 -6.06728e-10)
(0.271817 4.74077e-09 2.26723e-09)
(0.275122 -2.69706e-08 -1.61192e-09)
(0.275123 2.26282e-08 -1.59193e-10)
(0.275122 4.34296e-09 1.77192e-09)
(0.277412 -2.15453e-08 -1.41704e-09)
(0.277412 1.83049e-08 5.71956e-10)
(0.277412 3.23064e-09 8.4605e-10)
(0.278774 -1.37577e-08 -1.6983e-09)
(0.278774 8.17374e-09 2.36698e-09)
(0.278773 5.54278e-09 -6.67696e-10)
(0.27941 -3.25449e-09 -2.55607e-09)
(0.27941 5.94185e-10 4.12509e-09)
(0.279409 2.59267e-09 -1.56956e-09)
(0.27941 3.02059e-09 -2.56151e-09)
(0.27941 -4.81984e-10 4.13006e-09)
(0.279409 -2.53963e-09 -1.56933e-09)
(0.278772 1.34894e-08 -1.70946e-09)
(0.278772 -7.94256e-09 2.37527e-09)
(0.278771 -5.56713e-09 -6.65657e-10)
(0.277407 2.13984e-08 -1.42303e-09)
(0.277408 -1.82145e-08 5.85308e-10)
(0.277407 -3.19264e-09 8.37739e-10)
(0.275114 2.67842e-08 -1.61469e-09)
(0.275115 -2.2438e-08 -1.38012e-10)
(0.275114 -4.36586e-09 1.75318e-09)
(0.271806 3.20008e-08 -1.66282e-09)
(0.271807 -2.7333e-08 -5.66065e-10)
(0.271806 -4.69381e-09 2.22844e-09)
(0.267612 2.98889e-08 -1.41698e-09)
(0.267614 -2.53525e-08 -1.732e-09)
(0.267613 -4.54589e-09 3.14858e-09)
(0.262582 1.94634e-08 -7.42385e-10)
(0.262584 -1.25696e-08 -2.80002e-09)
(0.262583 -6.9067e-09 3.54245e-09)
(0.256714 5.33409e-09 3.72971e-10)
(0.256716 4.34351e-09 -4.34249e-09)
(0.256715 -9.68676e-09 3.96896e-09)
(0.249928 -1.60021e-08 1.44163e-09)
(0.24993 3.25676e-08 -5.81976e-09)
(0.249929 -1.6568e-08 4.37796e-09)
(0.242029 -3.71666e-08 2.04741e-09)
(0.24203 5.87708e-08 -6.22298e-09)
(0.24203 -2.16067e-08 4.17631e-09)
(0.232707 -5.10971e-08 1.45846e-09)
(0.232708 8.28342e-08 -3.76991e-09)
(0.232709 -3.1752e-08 2.31247e-09)
(0.221362 -4.6726e-08 1.95741e-10)
(0.221363 7.10709e-08 1.72811e-10)
(0.221364 -2.43643e-08 -3.67781e-10)
(0.206583 -2.9535e-08 -9.55254e-10)
(0.206583 4.15532e-08 2.51123e-09)
(0.206585 -1.2041e-08 -1.55664e-09)
(0.183771 -1.09831e-08 -9.96196e-10)
(0.183771 1.36712e-08 2.17759e-09)
(0.183773 -2.70049e-09 -1.18437e-09)
(0.117644 -6.45413e-10 2.73748e-10)
(0.117644 1.05359e-09 8.66233e-11)
(0.117644 -4.06962e-10 -3.6144e-10)
(0.129141 1.18878e-09 2.31295e-10)
(0.129141 -1.66827e-09 2.61926e-10)
(0.129142 4.80261e-10 -4.95703e-10)
(0.194149 1.17489e-08 -1.43542e-09)
(0.194149 -1.4522e-08 2.99361e-09)
(0.19415 2.79171e-09 -1.56398e-09)
(0.21888 3.00597e-08 -1.36449e-09)
(0.21888 -4.20864e-08 3.41046e-09)
(0.218882 1.20616e-08 -2.04844e-09)
(0.234753 4.7101e-08 2.47448e-10)
(0.234754 -7.10819e-08 2.59827e-10)
(0.234755 2.4017e-08 -5.07161e-10)
(0.246782 5.16255e-08 1.99078e-09)
(0.246783 -8.27857e-08 -5.10341e-09)
(0.246784 3.11938e-08 3.11388e-09)
(0.256601 3.8242e-08 2.80716e-09)
(0.256602 -5.91946e-08 -8.39438e-09)
(0.256602 2.0974e-08 5.58851e-09)
(0.26489 1.70067e-08 2.05756e-09)
(0.264892 -3.31974e-08 -7.81034e-09)
(0.264891 1.62086e-08 5.75308e-09)
(0.272 -4.82324e-09 6.15128e-10)
(0.272002 -4.75802e-09 -5.85177e-09)
(0.272001 9.60139e-09 5.23651e-09)
(0.278146 -1.96711e-08 -9.09958e-10)
(0.278147 1.27808e-08 -3.71961e-09)
(0.278146 6.90932e-09 4.63015e-09)
(0.283416 -3.05998e-08 -1.90125e-09)
(0.283418 2.60489e-08 -2.25713e-09)
(0.283417 4.55957e-09 4.15835e-09)
(0.28782 -3.29391e-08 -2.29608e-09)
(0.28782 2.82587e-08 -7.01058e-10)
(0.28782 4.70264e-09 2.99723e-09)
(0.291302 -2.76195e-08 -2.24375e-09)
(0.291303 2.32912e-08 -1.4177e-10)
(0.291302 4.32899e-09 2.38668e-09)
(0.293731 -2.21192e-08 -1.90478e-09)
(0.293732 1.86357e-08 7.17244e-10)
(0.293731 3.47338e-09 1.18888e-09)
(0.295191 -1.44171e-08 -2.2172e-09)
(0.295191 8.62875e-09 2.88226e-09)
(0.295191 5.74557e-09 -6.63722e-10)
(0.295887 -3.41492e-09 -3.17134e-09)
(0.295887 7.18651e-10 4.9174e-09)
(0.295886 2.62589e-09 -1.74687e-09)
(0.295887 3.16818e-09 -3.17772e-09)
(0.295887 -5.99933e-10 4.9236e-09)
(0.295886 -2.56917e-09 -1.74703e-09)
(0.295189 1.41389e-08 -2.23205e-09)
(0.295189 -8.39471e-09 2.8935e-09)
(0.295189 -5.76529e-09 -6.6133e-10)
(0.293726 2.1958e-08 -1.91241e-09)
(0.293727 -1.85322e-08 7.33978e-10)
(0.293726 -3.43481e-09 1.17847e-09)
(0.291294 2.74309e-08 -2.24748e-09)
(0.291294 -2.30993e-08 -1.1466e-10)
(0.291294 -4.3521e-09 2.3628e-09)
(0.287807 3.28049e-08 -2.3001e-09)
(0.287808 -2.81754e-08 -6.49725e-10)
(0.287808 -4.65663e-09 2.9492e-09)
(0.283406 3.0572e-08 -1.91714e-09)
(0.283407 -2.60146e-08 -2.18403e-09)
(0.283406 -4.56745e-09 4.10059e-09)
(0.278134 1.97532e-08 -9.65624e-10)
(0.278135 -1.28511e-08 -3.63461e-09)
(0.278134 -6.9155e-09 4.60026e-09)
(0.271986 5.11513e-09 5.94041e-10)
(0.271987 4.55895e-09 -5.77326e-09)
(0.271987 -9.68342e-09 5.17842e-09)
(0.264871 -1.68578e-08 2.06349e-09)
(0.264873 3.32532e-08 -7.8039e-09)
(0.264872 -1.63979e-08 5.74015e-09)
(0.256575 -3.84394e-08 2.8504e-09)
(0.256576 5.96359e-08 -8.41133e-09)
(0.256576 -2.11992e-08 5.56199e-09)
(0.246751 -5.20368e-08 1.99871e-09)
(0.246752 8.34985e-08 -5.0872e-09)
(0.246752 -3.1477e-08 3.08998e-09)
(0.234721 -4.7461e-08 2.33537e-10)
(0.234722 7.15645e-08 3.44099e-10)
(0.234723 -2.41234e-08 -5.76569e-10)
(0.218852 -3.01751e-08 -1.38682e-09)
(0.218852 4.21142e-08 3.5136e-09)
(0.218853 -1.19624e-08 -2.12773e-09)
(0.194126 -1.17572e-08 -1.45551e-09)
(0.194126 1.44836e-08 3.04608e-09)
(0.194128 -2.7395e-09 -1.5947e-09)
(0.129125 -1.16961e-09 2.30011e-10)
(0.129125 1.65454e-09 2.78165e-10)
(0.129126 -4.84265e-10 -5.09815e-10)
(0.140969 1.84565e-09 1.47801e-10)
(0.140969 -2.39957e-09 5.11211e-10)
(0.14097 5.55929e-10 -6.62668e-10)
(0.202861 1.24542e-08 -1.93915e-09)
(0.202861 -1.52324e-08 3.9243e-09)
(0.202863 2.79796e-09 -1.99282e-09)
(0.22909 3.03478e-08 -1.83782e-09)
(0.229091 -4.21465e-08 4.47511e-09)
(0.229092 1.1834e-08 -2.64056e-09)
(0.246045 4.72028e-08 2.90719e-10)
(0.246046 -7.06252e-08 4.16258e-10)
(0.246047 2.34591e-08 -7.06806e-10)
(0.258761 5.18709e-08 2.5917e-09)
(0.258762 -8.23526e-08 -6.56662e-09)
(0.258763 3.05157e-08 3.97663e-09)
(0.269071 3.91235e-08 3.70627e-09)
(0.269072 -5.95152e-08 -1.08009e-08)
(0.269072 2.04134e-08 7.09639e-09)
(0.27774 1.77162e-08 2.78949e-09)
(0.277741 -3.36099e-08 -9.96921e-09)
(0.277741 1.59119e-08 7.18011e-09)
(0.285158 -4.49709e-09 8.68872e-10)
(0.285159 -4.92444e-09 -7.38605e-09)
(0.285159 9.44195e-09 6.51698e-09)
(0.291563 -1.96951e-08 -1.16686e-09)
(0.291564 1.30246e-08 -4.56144e-09)
(0.291563 6.69009e-09 5.72902e-09)
(0.297056 -3.09161e-08 -2.5023e-09)
(0.297057 2.66189e-08 -2.66676e-09)
(0.297056 4.30648e-09 5.16893e-09)
(0.30165 -3.3359e-08 -3.05842e-09)
(0.301651 2.90275e-08 -7.1464e-10)
(0.30165 4.35424e-09 3.77326e-09)
(0.305296 -2.79385e-08 -3.01658e-09)
(0.305297 2.3884e-08 -6.25011e-11)
(0.305296 4.05509e-09 3.08059e-09)
(0.307852 -2.25963e-08 -2.49727e-09)
(0.307853 1.89437e-08 8.74256e-10)
(0.307852 3.64215e-09 1.62482e-09)
(0.3094 -1.48327e-08 -2.81612e-09)
(0.309401 8.93205e-09 3.34808e-09)
(0.3094 5.85678e-09 -5.30071e-10)
(0.310149 -3.56659e-09 -3.88973e-09)
(0.310149 8.69052e-10 5.65191e-09)
(0.310148 2.62513e-09 -1.76328e-09)
(0.310149 3.31019e-09 -3.89706e-09)
(0.310149 -7.45551e-10 5.65973e-09)
(0.310148 -2.56549e-09 -1.76418e-09)
(0.309398 1.45508e-08 -2.83528e-09)
(0.309399 -8.69983e-09 3.36275e-09)
(0.309398 -5.87272e-09 -5.27298e-10)
(0.307847 2.24209e-08 -2.50685e-09)
(0.307848 -1.88259e-08 8.94584e-10)
(0.307847 -3.60426e-09 1.6123e-09)
(0.305287 2.77507e-08 -3.02175e-09)
(0.305288 -2.36922e-08 -2.94845e-11)
(0.305287 -4.07929e-09 3.0521e-09)
(0.301637 3.32294e-08 -3.06495e-09)
(0.301638 -2.89464e-08 -6.52715e-10)
(0.301637 -4.3107e-09 3.71683e-09)
(0.297044 3.08889e-08 -2.52483e-09)
(0.297045 -2.65854e-08 -2.57788e-09)
(0.297044 -4.31415e-09 5.10189e-09)
(0.29155 1.97805e-08 -1.23907e-09)
(0.291551 -1.30977e-08 -4.45701e-09)
(0.29155 -6.69659e-09 5.69599e-09)
(0.285143 4.78728e-09 8.44466e-10)
(0.285144 4.7242e-09 -7.29252e-09)
(0.285143 -9.52088e-09 6.44695e-09)
(0.27772 -1.75739e-08 2.7897e-09)
(0.277721 3.36687e-08 -9.9696e-09)
(0.27772 -1.60973e-08 7.17953e-09)
(0.269043 -3.93226e-08 3.76514e-09)
(0.269044 5.99544e-08 -1.08313e-08)
(0.269044 -2.06347e-08 7.0676e-09)
(0.258728 -5.22784e-08 2.6029e-09)
(0.258729 8.30567e-08 -6.55456e-09)
(0.258729 -3.07938e-08 3.95368e-09)
(0.246011 -4.75581e-08 2.74065e-10)
(0.246012 7.11095e-08 5.20234e-10)
(0.246013 -2.35716e-08 -7.92885e-10)
(0.22906 -3.04688e-08 -1.86948e-09)
(0.229061 4.22089e-08 4.60056e-09)
(0.229062 -1.17634e-08 -2.73237e-09)
(0.202837 -1.24695e-08 -1.96654e-09)
(0.202837 1.52096e-08 3.98806e-09)
(0.202838 -2.75356e-09 -2.02698e-09)
(0.140952 -1.83094e-09 1.44469e-10)
(0.140952 2.38554e-09 5.3524e-10)
(0.140953 -5.54625e-10 -6.82087e-10)
(0.153024 2.61244e-09 1.06818e-11)
(0.153024 -3.21829e-09 8.33719e-10)
(0.153025 6.0921e-10 -8.49625e-10)
(0.210671 1.31367e-08 -2.47641e-09)
(0.210672 -1.5891e-08 4.89734e-09)
(0.210673 2.77497e-09 -2.43073e-09)
(0.23792 3.04073e-08 -2.3535e-09)
(0.237921 -4.1866e-08 5.59325e-09)
(0.237922 1.14942e-08 -3.24395e-09)
(0.25591 4.68261e-08 3.29586e-10)
(0.25591 -6.94462e-08 5.609e-10)
(0.255911 2.26568e-08 -8.90238e-10)
(0.269324 5.1574e-08 3.2433e-09)
(0.269325 -8.10531e-08 -8.15392e-09)
(0.269325 2.95131e-08 4.91285e-09)
(0.280129 3.97266e-08 4.70482e-09)
(0.28013 -5.94827e-08 -1.33864e-08)
(0.28013 1.9778e-08 8.68393e-09)
(0.289174 1.833e-08 3.61181e-09)
(0.289175 -3.38693e-08 -1.22487e-08)
(0.289174 1.55573e-08 8.63741e-09)
(0.29689 -4.07457e-09 1.13598e-09)
(0.296891 -5.05534e-09 -8.94914e-09)
(0.296891 9.15048e-09 7.81276e-09)
(0.303543 -1.94966e-08 -1.47274e-09)
(0.303544 1.32842e-08 -5.32901e-09)
(0.303543 6.23211e-09 6.80267e-09)
(0.309246 -3.09308e-08 -3.20808e-09)
(0.309246 2.72008e-08 -2.95169e-09)
(0.309245 3.73959e-09 6.15963e-09)
(0.314019 -3.38285e-08 -4.00923e-09)
(0.31402 2.98141e-08 -5.85899e-10)
(0.314019 4.03756e-09 4.59538e-09)
(0.317817 -2.83053e-08 -3.99642e-09)
(0.317818 2.44936e-08 1.3386e-10)
(0.317817 3.81239e-09 3.86457e-09)
(0.320492 -2.30463e-08 -3.23185e-09)
(0.320493 1.92976e-08 1.07388e-09)
(0.320492 3.73804e-09 2.1603e-09)
(0.322121 -1.50496e-08 -3.5212e-09)
(0.322121 9.11706e-09 3.76127e-09)
(0.32212 5.88798e-09 -2.37547e-10)
(0.322915 -3.72165e-09 -4.75178e-09)
(0.322915 1.042e-09 6.33109e-09)
(0.322915 2.60575e-09 -1.58078e-09)
(0.322915 3.45894e-09 -4.76113e-09)
(0.322915 -9.1539e-10 6.34187e-09)
(0.322914 -2.54423e-09 -1.58276e-09)
(0.322118 1.47694e-08 -3.54539e-09)
(0.322119 -8.89062e-09 3.7801e-09)
(0.322118 -5.90088e-09 -2.34472e-10)
(0.320487 2.2856e-08 -3.24368e-09)
(0.320487 -1.91634e-08 1.09808e-09)
(0.320487 -3.70199e-09 2.14562e-09)
(0.317808 2.81115e-08 -4.00354e-09)
(0.317808 -2.42955e-08 1.72352e-10)
(0.317807 -3.83718e-09 3.8323e-09)
(0.314005 3.36919e-08 -4.01882e-09)
(0.314006 -2.97239e-08 -5.13797e-10)
(0.314005 -3.99622e-09 4.53158e-09)
(0.309233 3.09049e-08 -3.23912e-09)
(0.309234 -2.71687e-08 -2.84716e-09)
(0.309233 -3.74704e-09 6.08517e-09)
(0.303529 1.95851e-08 -1.56006e-09)
(0.30353 -1.33607e-08 -5.20539e-09)
(0.303529 -6.23815e-09 6.76534e-09)
(0.296874 4.35891e-09 1.10569e-09)
(0.296875 4.85383e-09 -8.84225e-09)
(0.296874 -9.22221e-09 7.73502e-09)
(0.289152 -1.8197e-08 3.6033e-09)
(0.289153 3.393e-08 -1.22592e-08)
(0.289152 -1.57355e-08 8.65539e-09)
(0.2801 -3.99252e-08 4.78155e-09)
(0.280101 5.99158e-08 -1.34348e-08)
(0.2801 -1.99935e-08 8.65521e-09)
(0.269289 -5.19722e-08 3.26028e-09)
(0.26929 8.17403e-08 -8.14966e-09)
(0.26929 -2.97835e-08 4.89201e-09)
(0.255874 -4.71729e-08 3.10369e-10)
(0.255874 6.99282e-08 6.84179e-10)
(0.255875 -2.27756e-08 -9.92732e-10)
(0.237888 -3.05339e-08 -2.39575e-09)
(0.237889 4.19612e-08 5.74033e-09)
(0.23789 -1.14506e-08 -3.34626e-09)
(0.210645 -1.31601e-08 -2.51227e-09)
(0.210646 1.58838e-08 4.97317e-09)
(0.210647 -2.73757e-09 -2.46785e-09)
(0.153006 -2.60336e-09 3.96463e-12)
(0.153006 3.20398e-09 8.68369e-10)
(0.153007 -6.01395e-10 -8.75666e-10)
(0.165125 3.44306e-09 -1.9635e-10)
(0.165125 -4.06023e-09 1.23482e-09)
(0.165126 6.21763e-10 -1.04571e-09)
(0.218041 1.38157e-08 -3.02686e-09)
(0.218042 -1.65094e-08 5.87588e-09)
(0.218043 2.71497e-09 -2.86118e-09)
(0.245816 3.03146e-08 -2.90173e-09)
(0.245816 -4.13078e-08 6.72944e-09)
(0.245817 1.10285e-08 -3.83293e-09)
(0.264733 4.60722e-08 3.53767e-10)
(0.264734 -6.76759e-08 6.80716e-10)
(0.264735 2.16402e-08 -1.03412e-09)
(0.278852 5.08243e-08 3.92691e-09)
(0.278853 -7.90032e-08 -9.8304e-09)
(0.278853 2.82124e-08 5.9063e-09)
(0.290165 4.01024e-08 5.77627e-09)
(0.290166 -5.92221e-08 -1.60752e-08)
(0.290166 1.91413e-08 1.03018e-08)
(0.299591 1.88788e-08 4.50005e-09)
(0.299592 -3.40658e-08 -1.45707e-08)
(0.299591 1.52049e-08 1.00712e-08)
(0.307605 -3.55385e-09 1.43057e-09)
(0.307606 -5.16609e-09 -1.04784e-08)
(0.307605 8.74019e-09 9.04737e-09)
(0.3145 -1.931e-08 -1.8897e-09)
(0.314501 1.35198e-08 -5.94005e-09)
(0.3145 5.80978e-09 7.83103e-09)
(0.320406 -3.08099e-08 -4.10031e-09)
(0.320406 2.76146e-08 -3.01166e-09)
(0.320405 3.20502e-09 7.11189e-09)
(0.32535 -3.40925e-08 -5.17308e-09)
(0.325351 3.04139e-08 -2.26023e-10)
(0.32535 3.70193e-09 5.39958e-09)
(0.329295 -2.85738e-08 -5.22147e-09)
(0.329295 2.50128e-08 5.3196e-10)
(0.329295 3.56165e-09 4.6921e-09)
(0.332082 -2.34659e-08 -4.16933e-09)
(0.332083 1.96999e-08 1.37302e-09)
(0.332082 3.75522e-09 2.79924e-09)
(0.333784 -1.50859e-08 -4.3434e-09)
(0.333785 9.19549e-09 4.12818e-09)
(0.333784 5.84551e-09 2.18563e-10)
(0.334619 -3.83999e-09 -5.72731e-09)
(0.334619 1.19608e-09 6.88301e-09)
(0.334619 2.56913e-09 -1.15765e-09)
(0.334619 3.57633e-09 -5.73877e-09)
(0.334619 -1.07003e-09 6.89766e-09)
(0.334618 -2.50682e-09 -1.16149e-09)
(0.333782 1.48122e-08 -4.37401e-09)
(0.333782 -8.97857e-09 4.15265e-09)
(0.333782 -5.85601e-09 2.21737e-10)
(0.332076 2.32594e-08 -4.18376e-09)
(0.332077 -1.95467e-08 1.40134e-09)
(0.332076 -3.72213e-09 2.7824e-09)
(0.329284 2.83684e-08 -5.23116e-09)
(0.329285 -2.48027e-08 5.75669e-10)
(0.329284 -3.58694e-09 4.65693e-09)
(0.325335 3.3937e-08 -5.18616e-09)
(0.325336 -3.03025e-08 -1.44487e-10)
(0.325335 -3.66283e-09 5.32943e-09)
(0.320392 3.07661e-08 -4.14156e-09)
(0.320393 -2.75654e-08 -2.89168e-09)
(0.320392 -3.21191e-09 7.03193e-09)
(0.314485 1.93897e-08 -1.99298e-09)
(0.314485 -1.35883e-08 -5.79584e-09)
(0.314484 -5.81517e-09 7.78874e-09)
(0.307587 3.82836e-09 1.39353e-09)
(0.307588 4.96244e-09 -1.03617e-08)
(0.307587 -8.79999e-09 8.96619e-09)
(0.299568 -1.87574e-08 4.48557e-09)
(0.299569 3.41278e-08 -1.45949e-08)
(0.299568 -1.53727e-08 1.01086e-08)
(0.290134 -4.02969e-08 5.8683e-09)
(0.290135 5.96452e-08 -1.61464e-08)
(0.290135 -1.93513e-08 1.02805e-08)
(0.278815 -5.12079e-08 3.95218e-09)
(0.278816 7.96661e-08 -9.83787e-09)
(0.278816 -2.84734e-08 5.88902e-09)
(0.264695 -4.64077e-08 3.31169e-10)
(0.264696 6.81522e-08 8.209e-10)
(0.264697 -2.17648e-08 -1.14978e-09)
(0.245782 -3.04467e-08 -2.95525e-09)
(0.245782 4.14321e-08 6.89693e-09)
(0.245784 -1.10084e-08 -3.94379e-09)
(0.218014 -1.38481e-08 -3.07224e-09)
(0.218014 1.65172e-08 5.96476e-09)
(0.218015 -2.68299e-09 -2.90113e-09)
(0.165106 -3.44033e-09 -2.08361e-10)
(0.165106 4.04549e-09 1.28333e-09)
(0.165107 -6.06614e-10 -1.07952e-09)
(0.177056 4.27818e-09 -4.88883e-10)
(0.177057 -4.85189e-09 1.70762e-09)
(0.177058 5.79212e-10 -1.22854e-09)
(0.225276 1.44936e-08 -3.57104e-09)
(0.225276 -1.70824e-08 6.81634e-09)
(0.225277 2.61046e-09 -3.2601e-09)
(0.253104 3.01221e-08 -3.4658e-09)
(0.253105 -4.04983e-08 7.84312e-09)
(0.253106 1.04111e-08 -4.38369e-09)