/*--------------------------------*- C++ -*----------------------------------*\
  =========                 |
  \\      /  F ield         | OpenFOAM: The Open Source CFD Toolbox
   \\    /   O peration     | Website:  https://openfoam.org
    \\  /    A nd           | Version:  6
     \\/     M anipulation  |
\*---------------------------------------------------------------------------*/
FoamFile
{
    version     2.0;
    format      ascii;
    class       volVectorField;
    location    "33";
    object      wallShearStress;
}
// * * * * * * * * * * * * * * * * * * * * * * * * * * * * * * * * * * * * * //

dimensions      [0 2 -2 0 0 0 0];

internalField   uniform (0 0 0);

boundaryField
{
    inlet
    {
        type            calculated;
        value           uniform (0 0 0);
    }
    outlet
    {
        type            calculated;
        value           uniform (0 0 0);
    }
    roughCylinder
    {
        type            calculated;
        value           nonuniform List<vector> 
5120
(
(-0.000440006 -0.000634206 -0.000329369)
(-0.000390239 -0.000560932 -3.95353e-05)
(-0.000346864 -0.000542746 1.23896e-06)
(-0.00038371 -0.000603386 4.91613e-05)
(-0.000450409 -0.00068178 0.000104549)
(-0.000520871 -0.000742122 0.000156959)
(-0.000592154 -0.000782069 0.000203168)
(-0.000659907 -0.00080379 0.000241921)
(-0.000721621 -0.000811258 0.000272471)
(-0.00077723 -0.000812067 0.000295613)
(-0.000827745 -0.000813472 0.000313356)
(-0.000870293 -0.000816054 0.000324934)
(-0.00090615 -0.00082289 0.000330681)
(-0.000936803 -0.000834097 0.00033162)
(-0.000963275 -0.000849067 0.000328881)
(-0.000987195 -0.000867033 0.000323575)
(-0.00101001 -0.000887128 0.00031652)
(-0.00103315 -0.00090897 0.000308321)
(-0.00105731 -0.000932159 0.000299201)
(-0.00108284 -0.000956561 0.000289237)
(-0.00110989 -0.000982133 0.000278417)
(-0.00113843 -0.00100884 0.000266671)
(-0.00116832 -0.00103657 0.000253887)
(-0.00119939 -0.00106517 0.000239913)
(-0.00123135 -0.00109435 0.000224497)
(-0.00126385 -0.00112378 0.000207282)
(-0.00129637 -0.00115294 0.000187713)
(-0.00132824 -0.00118118 0.000165043)
(-0.00135844 -0.00120757 0.000138142)
(-0.00138546 -0.00123082 0.000105852)
(-0.00140657 -0.00124922 6.6459e-05)
(-0.00141812 -0.00125994 2.22236e-05)
(-0.000546784 -0.000714177 -0.00037348)
(-0.000412769 -0.000545704 -4.27925e-05)
(-0.000366659 -0.000525988 -4.28191e-06)
(-0.000402992 -0.00058577 4.0156e-05)
(-0.000471075 -0.000664556 9.33108e-05)
(-0.000543515 -0.000726617 0.000144395)
(-0.000616758 -0.000768762 0.00018975)
(-0.000686876 -0.000793172 0.00022809)
(-0.000751909 -0.000804457 0.000258961)
(-0.000811833 -0.000809537 0.000283389)
(-0.000866045 -0.00081319 0.000302511)
(-0.000912017 -0.000815516 0.000315271)
(-0.000949601 -0.000821036 0.000321617)
(-0.000981773 -0.000831224 0.000322851)
(-0.00100978 -0.000845545 0.000320348)
(-0.00103507 -0.000863001 0.000315172)
(-0.00105942 -0.000882898 0.000308287)
(-0.00108384 -0.00090442 0.0003002)
(-0.0011093 -0.000927337 0.000291242)
(-0.00113624 -0.000951524 0.000281517)
(-0.00116476 -0.000976889 0.000271)
(-0.0011948 -0.00100335 0.00025961)
(-0.00122622 -0.0010308 0.000247234)
(-0.00125881 -0.00105906 0.000233711)
(-0.00129229 -0.00108788 0.000218792)
(-0.00132628 -0.00111692 0.000202114)
(-0.00136027 -0.00114566 0.000183125)
(-0.00139353 -0.00117349 0.000161085)
(-0.00142501 -0.00119948 0.000134878)
(-0.00145314 -0.00122236 0.000103374)
(-0.00147512 -0.00124049 6.48966e-05)
(-0.00148715 -0.00125102 2.16908e-05)
(-0.00060339 -0.000708735 -0.00036379)
(-0.000452166 -0.000544485 -4.71281e-05)
(-0.000392 -0.000511797 -1.09523e-05)
(-0.000421247 -0.000562683 3.02348e-05)
(-0.000490054 -0.000640922 8.10717e-05)
(-0.000564098 -0.000704256 0.000130684)
(-0.000639167 -0.000748574 0.000175163)
(-0.000712025 -0.000776379 0.000213364)
(-0.000780876 -0.000792072 0.000244968)
(-0.000844829 -0.000801029 0.000270612)
(-0.000902681 -0.000806929 0.000290776)
(-0.00095238 -0.000810305 0.000304678)
(-0.000992045 -0.000814144 0.000311557)
(-0.00102584 -0.000823297 0.000313176)
(-0.00105536 -0.000836688 0.000310912)
(-0.00108223 -0.000853554 0.000305968)
(-0.00110779 -0.00087277 0.000299207)
(-0.00113368 -0.000893933 0.000291339)
(-0.00116061 -0.000916525 0.000282635)
(-0.00118894 -0.0009403 0.000273188)
(-0.00121882 -0.000965198 0.000262996)
(-0.00125027 -0.00099117 0.000251995)
(-0.00128312 -0.0010181 0.000240063)
(-0.00131718 -0.00104583 0.000227039)
(-0.00135212 -0.00107409 0.000212662)
(-0.00138755 -0.00110252 0.000196568)
(-0.00142293 -0.00113067 0.000178206)
(-0.0014575 -0.00115788 0.000156842)
(-0.00149017 -0.00118329 0.000131382)
(-0.00151935 -0.00120565 0.000100721)
(-0.00154213 -0.00122335 6.3226e-05)
(-0.0015546 -0.00123363 2.11221e-05)
(-0.000617599 -0.000649708 -0.000319341)
(-0.000466507 -0.000509032 -4.99197e-05)
(-0.000409504 -0.000485715 -1.78528e-05)
(-0.000435061 -0.000533346 1.98943e-05)
(-0.000503783 -0.000610454 6.80253e-05)
(-0.000579589 -0.000675402 0.000115985)
(-0.000657085 -0.000722731 0.000159594)
(-0.000733022 -0.000754464 0.000197715)
(-0.000805426 -0.000774436 0.000230023)
(-0.000873402 -0.000787285 0.000256902)
(-0.000934906 -0.000795446 0.000278088)
(-0.000987821 -0.000800001 0.000292813)
(-0.00103112 -0.000803485 0.00030063)
(-0.00106659 -0.000811042 0.000302688)
(-0.00109784 -0.000823416 0.000300763)
(-0.00112614 -0.000839345 0.000296068)
(-0.00115348 -0.000858114 0.000289638)
(-0.00118071 -0.000878638 0.000282003)
(-0.0012089 -0.0009006 0.000273558)
(-0.00123861 -0.000923849 0.00026445)
(-0.00126996 -0.000948249 0.000254663)
(-0.00130285 -0.000973663 0.000244112)
(-0.00133714 -0.000999989 0.000232678)
(-0.00137257 -0.00102703 0.000220184)
(-0.00140887 -0.00105456 0.00020638)
(-0.00144562 -0.00108224 0.000190895)
(-0.00148225 -0.00110961 0.000173181)
(-0.00151801 -0.00113605 0.000152516)
(-0.00155177 -0.00116073 0.000127821)
(-0.00158187 -0.00118243 9.80198e-05)
(-0.00160538 -0.00119961 6.15271e-05)
(-0.00161823 -0.00120957 2.05449e-05)
(-0.000651152 -0.000611544 -0.000285022)
(-0.000490627 -0.000484648 -5.36687e-05)
(-0.000425079 -0.000457343 -2.46268e-05)
(-0.000444623 -0.000499961 9.4917e-06)
(-0.00051291 -0.000575692 5.46293e-05)
(-0.000590037 -0.00064173 0.00010063)
(-0.000669395 -0.000691441 0.000143053)
(-0.000748244 -0.000726926 0.000180931)
(-0.000824603 -0.000751467 0.000213954)
(-0.000896226 -0.000767804 0.000241882)
(-0.000961268 -0.000778174 0.000264094)
(-0.00101788 -0.000784247 0.000279712)
(-0.00106494 -0.000788238 0.000288502)
(-0.00110333 -0.000794337 0.000291319)
(-0.00113631 -0.000805375 0.000289863)
(-0.00116656 -0.00082041 0.000285605)
(-0.00119511 -0.00083804 0.000279435)
(-0.00122391 -0.0008579 0.000272173)
(-0.00125369 -0.000879314 0.000264132)
(-0.00128476 -0.000901885 0.000255419)
(-0.00131735 -0.000925509 0.000246053)
(-0.0013515 -0.000950128 0.000235978)
(-0.00138702 -0.000975604 0.000225063)
(-0.00142374 -0.0010018 0.000213142)
(-0.00146128 -0.00102845 0.000199944)
(-0.00149923 -0.00105521 0.0001851)
(-0.00153699 -0.00108164 0.000168062)
(-0.0015738 -0.00110715 0.000148114)
(-0.00160851 -0.00113094 0.000124203)
(-0.00163943 -0.00115185 9.52796e-05)
(-0.00166357 -0.00116842 5.98065e-05)
(-0.00167673 -0.001178 1.99617e-05)
(-0.000666275 -0.000555804 -0.000244567)
(-0.000506558 -0.000453099 -5.58943e-05)
(-0.000436572 -0.000425172 -3.11269e-05)
(-0.000448024 -0.000461722 -8.60028e-07)
(-0.000514655 -0.000535155 4.08056e-05)
(-0.000593091 -0.000602393 8.44691e-05)
(-0.000675183 -0.000655434 0.000125601)
(-0.000757564 -0.000695146 0.000163175)
(-0.000837208 -0.000723393 0.00019658)
(-0.000912629 -0.000743107 0.000225451)
(-0.000981432 -0.000755788 0.000248709)
(-0.00104146 -0.00076306 0.0002652)
(-0.00109252 -0.000768086 0.000274969)
(-0.00113484 -0.000773757 0.000278817)
(-0.00117033 -0.000782969 0.000278079)
(-0.00120216 -0.000796455 0.000274286)
(-0.00123294 -0.000813391 0.000268709)
(-0.00126322 -0.000832261 0.000261872)
(-0.00129418 -0.000852643 0.000254227)
(-0.0013266 -0.000874365 0.000245986)
(-0.00136062 -0.000897209 0.00023715)
(-0.00139611 -0.000920984 0.000227631)
(-0.00143296 -0.000945577 0.000217309)
(-0.00147085 -0.000970767 0.000205996)
(-0.00150952 -0.000996359 0.000193434)
(-0.0015485 -0.00102203 0.000179252)
(-0.00158724 -0.00104735 0.000162905)
(-0.00162496 -0.00107178 0.000143688)
(-0.00166048 -0.00109455 0.000120568)
(-0.0016921 -0.00111453 9.25288e-05)
(-0.00171676 -0.00113037 5.80829e-05)
(-0.00173017 -0.00113953 1.93789e-05)
(-0.000586098 -0.00043646 -0.000172778)
(-0.000515154 -0.000411079 -5.78029e-05)
(-0.000445304 -0.000392586 -3.78986e-05)
(-0.000447295 -0.000422396 -1.10176e-05)
(-0.000511041 -0.000492648 2.69909e-05)
(-0.000590217 -0.000560609 6.79676e-05)
(-0.000673694 -0.000615645 0.000107296)
(-0.000758417 -0.00065838 0.000144075)
(-0.000842186 -0.000690816 0.000177798)
(-0.000921367 -0.000713597 0.000207387)
(-0.000993758 -0.000728322 0.000231553)
(-0.00105808 -0.000737366 0.000249203)
(-0.00111294 -0.000743161 0.000259977)
(-0.00115947 -0.000749222 0.000264923)
(-0.00119867 -0.000757369 0.000265198)
(-0.00123345 -0.000769374 0.000262285)
(-0.00126553 -0.000784295 0.000257189)
(-0.00129757 -0.000802009 0.000250956)
(-0.00133037 -0.000821581 0.000243934)
(-0.0013642 -0.000842336 0.000236253)
(-0.00139934 -0.000864075 0.000227963)
(-0.00143591 -0.000886731 0.000219026)
(-0.00147376 -0.000910143 0.000209313)
(-0.00151271 -0.00093419 0.000198653)
(-0.00155236 -0.000958589 0.000186767)
(-0.00159227 -0.000983042 0.000173283)
(-0.00163186 -0.00100715 0.000157655)
(-0.00167032 -0.00103035 0.000139189)
(-0.00170652 -0.00105197 0.000116879)
(-0.00173871 -0.00107093 8.97403e-05)
(-0.0017638 -0.00108597 5.6339e-05)
(-0.00177738 -0.00109465 1.87911e-05)
(-0.000658645 -0.000436363 -0.000147437)
(-0.000524994 -0.00037098 -6.15708e-05)
(-0.000446104 -0.000355503 -4.39828e-05)
(-0.000437982 -0.000379058 -2.06732e-05)
(-0.000497202 -0.00044508 1.31236e-05)
(-0.000576348 -0.000513115 5.07712e-05)
(-0.000662362 -0.00057121 8.79734e-05)
(-0.000751183 -0.00061836 0.000123864)
(-0.000837989 -0.000653833 0.000157366)
(-0.000921091 -0.000679574 0.000187466)
(-0.000997965 -0.000696808 0.000212603)
(-0.001066 -0.000707092 0.000231284)
(-0.00112542 -0.000714059 0.000243376)
(-0.00117577 -0.000720217 0.000249452)
(-0.00121917 -0.000728189 0.000250932)
(-0.00125683 -0.000738668 0.000248942)
(-0.00129261 -0.000752699 0.000244971)
(-0.00132668 -0.000768926 0.000239525)
(-0.00136064 -0.000786854 0.000233101)
(-0.0013958 -0.000806301 0.000226061)
(-0.0014324 -0.000826936 0.00021846)
(-0.00147029 -0.000848468 0.000210215)
(-0.00150936 -0.000870732 0.000201206)
(-0.00154926 -0.000893496 0.000191241)
(-0.00158976 -0.000916575 0.000180062)
(-0.00163041 -0.000939669 0.000167293)
(-0.00167063 -0.000962412 0.000152397)
(-0.00170968 -0.000984296 0.000134693)
(-0.00174638 -0.00100463 0.000113194)
(-0.00177899 -0.00102244 8.69563e-05)
(-0.00180438 -0.0010366 5.46025e-05)
(-0.00181804 -0.00104484 1.82084e-05)
(-0.000610353 -0.000351501 -0.000109932)
(-0.000501051 -0.000321744 -5.90628e-05)
(-0.000436644 -0.000313062 -4.81942e-05)
(-0.000423118 -0.000335471 -2.96794e-05)
(-0.000476974 -0.000397274 -4.76543e-07)
(-0.000555957 -0.000465234 3.34617e-05)
(-0.000642531 -0.000524573 6.79433e-05)
(-0.000732223 -0.000573357 0.000102068)
(-0.0008234 -0.000612772 0.000135187)
(-0.000910842 -0.000641573 0.000165563)
(-0.000991563 -0.000660699 0.000191366)
(-0.00106486 -0.000673092 0.000211363)
(-0.00112852 -0.000680878 0.000224802)
(-0.00118373 -0.000687639 0.000232407)
(-0.00123073 -0.000695052 0.000235132)
(-0.00127285 -0.000705211 0.000234538)
(-0.00131067 -0.000717584 0.000231503)
(-0.00134716 -0.000732421 0.000227035)
(-0.00138371 -0.000749271 0.000221594)
(-0.00142067 -0.000767457 0.000215397)
(-0.0014584 -0.000786639 0.000208541)
(-0.00149725 -0.000806722 0.00020103)
(-0.00153707 -0.000827506 0.000192751)
(-0.00157779 -0.000848863 0.000183542)
(-0.00161898 -0.00087052 0.000173121)
(-0.00166022 -0.000892184 0.000161116)
(-0.00170092 -0.00091349 0.000146989)
(-0.00174035 -0.000933954 0.000130072)
(-0.00177742 -0.00095297 0.000109414)
(-0.00181036 -0.000969607 8.41081e-05)
(-0.00183595 -0.000982845 5.28332e-05)
(-0.00184946 -0.00099055 1.76164e-05)
(-0.000561763 -0.00028551 -7.55278e-05)
(-0.000496933 -0.00028358 -5.91647e-05)
(-0.000423673 -0.000273218 -5.22451e-05)
(-0.000398682 -0.000289615 -3.74641e-05)
(-0.000444526 -0.000345126 -1.32764e-05)
(-0.00052074 -0.000411018 1.6032e-05)
(-0.000608724 -0.00047238 4.71008e-05)
(-0.000703528 -0.000526072 7.93075e-05)
(-0.000797385 -0.000568032 0.000111258)
(-0.000888774 -0.000599526 0.000141471)
(-0.000975161 -0.000621616 0.000168046)
(-0.00105261 -0.000635219 0.000189067)
(-0.00112175 -0.000644353 0.000204135)
(-0.00118119 -0.000651175 0.000213301)
(-0.00123323 -0.000658684 0.000217753)
(-0.00127803 -0.000667452 0.00021842)
(-0.00132013 -0.000679297 0.00021688)
(-0.00135936 -0.000692887 0.000213583)
(-0.00139731 -0.000708011 0.000209083)
(-0.00143575 -0.000724714 0.00020383)
(-0.00147516 -0.000742673 0.000197929)
(-0.00151538 -0.000761483 0.000191324)
(-0.00155638 -0.000780971 0.000183923)
(-0.00159782 -0.000800861 0.000175541)
(-0.00163951 -0.000820993 0.00016593)
(-0.00168106 -0.000841103 0.000154724)
(-0.00172196 -0.000860866 0.000141399)
(-0.00176156 -0.000879861 0.000125303)
(-0.00179874 -0.000897484 0.000105514)
(-0.00183177 -0.000912899 8.11677e-05)
(-0.00185736 -0.000925167 5.1008e-05)
(-0.00187065 -0.000932273 1.70074e-05)
(-0.000541833 -0.000240338 -4.67387e-05)
(-0.00047295 -0.000237691 -5.9181e-05)
(-0.000404991 -0.000234629 -5.54092e-05)
(-0.000369243 -0.000245753 -4.39948e-05)
(-0.000405212 -0.000294143 -2.47632e-05)
(-0.000479533 -0.00035859 -5.69292e-07)
(-0.000567051 -0.000420395 2.63503e-05)
(-0.000659775 -0.000473608 5.52916e-05)
(-0.000758194 -0.000519495 8.56592e-05)
(-0.000854853 -0.000554546 0.000115377)
(-0.000945182 -0.000578444 0.000142135)
(-0.00102924 -0.000594626 0.000164472)
(-0.00110329 -0.000604566 0.000181078)
(-0.00116875 -0.000612185 0.000192247)
(-0.00122469 -0.000618968 0.00019842)
(-0.00127519 -0.000627728 0.000201079)
(-0.00131935 -0.000637714 0.000200856)
(-0.00136107 -0.000649804 0.000198881)
(-0.00140208 -0.000663902 0.000195734)
(-0.00144255 -0.000679272 0.000191628)
(-0.0014829 -0.000695539 0.000186699)
(-0.00152378 -0.000712656 0.000181016)
(-0.00156514 -0.000730395 0.000174498)
(-0.00160701 -0.000748662 0.000167009)
(-0.001649 -0.000767175 0.000158277)
(-0.0016907 -0.000785679 0.00014794)
(-0.0017316 -0.000803843 0.000135474)
(-0.00177105 -0.000821262 0.000120244)
(-0.0018081 -0.000837445 0.000101376)
(-0.00184103 -0.000851612 7.80496e-05)
(-0.00186646 -0.000862875 4.90748e-05)
(-0.00187942 -0.000869332 1.63636e-05)
(-0.000453385 -0.000171457 -2.47274e-05)
(-0.000429234 -0.000193404 -5.45402e-05)
(-0.000371861 -0.0001924 -5.63509e-05)
(-0.000331507 -0.000202025 -4.89181e-05)
(-0.000353047 -0.000240662 -3.42586e-05)
(-0.000419724 -0.00029933 -1.5807e-05)
(-0.000505864 -0.000360846 5.89728e-06)
(-0.000605758 -0.000420202 3.11084e-05)
(-0.000706053 -0.0004682 5.8784e-05)
(-0.000806154 -0.00050573 8.71943e-05)
(-0.000903787 -0.000533551 0.000114193)
(-0.000992375 -0.00055103 0.000137324)
(-0.00107321 -0.00056266 0.00015574)
(-0.00114338 -0.000570178 0.000168799)
(-0.00120576 -0.000577275 0.000177286)
(-0.00125881 -0.000584255 0.000181664)
(-0.00130836 -0.00059379 0.000183505)
(-0.00135358 -0.000604665 0.000183199)
(-0.00139589 -0.000616746 0.000181323)
(-0.00143774 -0.000630358 0.000178437)
(-0.00147993 -0.000645259 0.00017473)
(-0.00152225 -0.000660973 0.000170181)
(-0.00156477 -0.0006773 0.000164733)
(-0.00160713 -0.000693954 0.000158224)
(-0.00164922 -0.00071078 0.000150425)
(-0.00169076 -0.000727564 0.000140986)
(-0.00173134 -0.000744046 0.000129404)
(-0.00177048 -0.000759884 0.00011507)
(-0.00180714 -0.000774574 9.7144e-05)
(-0.0018397 -0.000787429 7.48579e-05)
(-0.00186479 -0.000797648 4.70972e-05)
(-0.00187734 -0.000803459 1.57073e-05)
(-0.000445991 -0.000146064 -5.27848e-06)
(-0.000395156 -0.000154906 -5.38015e-05)
(-0.00033405 -0.000155209 -5.66005e-05)
(-0.000285398 -0.000159796 -5.09924e-05)
(-0.000295099 -0.00018994 -4.07768e-05)
(-0.000356503 -0.00024441 -2.8755e-05)
(-0.000441175 -0.000305395 -1.3085e-05)
(-0.000532876 -0.000360414 7.00523e-06)
(-0.000638038 -0.000412791 3.11891e-05)
(-0.000744792 -0.00045506 5.76877e-05)
(-0.00084582 -0.000484694 8.39107e-05)
(-0.000942755 -0.000505759 0.000108009)
(-0.00102911 -0.000518395 0.000127945)
(-0.00110691 -0.000527153 0.000143373)
(-0.00117334 -0.000533223 0.000153996)
(-0.00123389 -0.00054049 0.000161022)
(-0.00128556 -0.000547849 0.000164682)
(-0.00133332 -0.000556902 0.000166135)
(-0.00137951 -0.000567941 0.00016606)
(-0.00142386 -0.000580142 0.000164684)
(-0.00146685 -0.000593114 0.000162203)
(-0.0015095 -0.000606884 0.000158776)
(-0.00155193 -0.000621242 0.000154373)
(-0.00159428 -0.000636077 0.000148896)
(-0.00163626 -0.000651158 0.0001421)
(-0.0016775 -0.000666236 0.000133634)
(-0.00171759 -0.00068103 0.000122996)
(-0.00175602 -0.000695212 0.000109598)
(-0.00179205 -0.000708398 9.26652e-05)
(-0.00182407 -0.000719949 7.14807e-05)
(-0.00184866 -0.000729119 4.50089e-05)
(-0.00186064 -0.000734253 1.50166e-05)
(-0.000327788 -9.13543e-05 9.84681e-06)
(-0.000324261 -0.000110629 -4.9055e-05)
(-0.000284099 -0.000119315 -5.49154e-05)
(-0.00023769 -0.00012302 -5.14293e-05)
(-0.000224867 -0.00013801 -4.25877e-05)
(-0.000270713 -0.000180848 -3.64737e-05)
(-0.000348572 -0.000237382 -2.79409e-05)
(-0.000453176 -0.000302099 -1.4988e-05)
(-0.000557533 -0.000355401 4.02693e-06)
(-0.000665871 -0.000399785 2.73335e-05)
(-0.00077648 -0.000435245 5.25075e-05)
(-0.000877692 -0.000457968 7.66559e-05)
(-0.000972397 -0.000473259 9.82176e-05)
(-0.00105503 -0.000481975 0.000115637)
(-0.00112978 -0.000488915 0.000129051)
(-0.00119232 -0.000493925 0.0001382)
(-0.00125072 -0.000500947 0.000144491)
(-0.00130308 -0.000508853 0.000148161)
(-0.00135035 -0.000517547 0.000149728)
(-0.00139591 -0.0005277 0.00014988)
(-0.00144102 -0.000539203 0.000148923)
(-0.00148532 -0.000551508 0.000146882)
(-0.00152895 -0.000564395 0.000143755)
(-0.0015717 -0.000577589 0.000139426)
(-0.0016134 -0.00059091 0.000133683)
(-0.00165397 -0.000604206 0.00012621)
(-0.00169318 -0.00061727 0.000116528)
(-0.00173079 -0.000629853 0.000104088)
(-0.00176592 -0.000641525 8.81524e-05)
(-0.00179711 -0.000651751 6.8074e-05)
(-0.00182098 -0.000659863 4.29061e-05)
(-0.00183235 -0.000664359 1.43247e-05)
(-0.000190499 -4.34139e-05 1.64188e-05)
(-0.000228718 -6.7987e-05 -4.0642e-05)
(-0.000214303 -8.2089e-05 -4.99361e-05)
(-0.000178512 -8.68531e-05 -4.7521e-05)
(-0.000158534 -9.41239e-05 -3.94816e-05)
(-0.000191458 -0.000125639 -3.88702e-05)
(-0.000267287 -0.000180897 -3.99909e-05)
(-0.000347476 -0.000231899 -3.28082e-05)
(-0.000459111 -0.000292094 -2.05219e-05)
(-0.00057624 -0.000343498 -2.09033e-06)
(-0.000687867 -0.000380665 2.04508e-05)
(-0.000799656 -0.0004091 4.43416e-05)
(-0.000899796 -0.000426089 6.67981e-05)
(-0.000992027 -0.000437287 8.65084e-05)
(-0.00107025 -0.000443148 0.000102182)
(-0.00114266 -0.000449199 0.000114459)
(-0.00120292 -0.000453835 0.000122983)
(-0.00125754 -0.000459613 0.000128788)
(-0.00130972 -0.00046733 0.000132599)
(-0.00135848 -0.000476084 0.000134642)
(-0.00140417 -0.000485468 0.000135171)
(-0.00144837 -0.000495635 0.000134456)
(-0.00149143 -0.000506405 0.000132539)
(-0.00153351 -0.000517632 0.000129367)
(-0.00157466 -0.000529175 0.000124749)
(-0.00161447 -0.000540772 0.000118346)
(-0.00165266 -0.000552179 0.000109685)
(-0.00168894 -0.000563114 9.82361e-05)
(-0.0017229 -0.000573315 8.33538e-05)
(-0.0017531 -0.000582266 6.44514e-05)
(-0.00177611 -0.000589355 4.06736e-05)
(-0.00178667 -0.00059321 1.35921e-05)
(-7.24143e-05 -1.21534e-05 1.31257e-05)
(-0.00012916 -3.46679e-05 -2.71441e-05)
(-0.000136489 -4.74054e-05 -4.03393e-05)
(-0.000122368 -5.58953e-05 -4.26132e-05)
(-6.8472e-05 -4.02129e-05 -2.41346e-05)
(-7.03001e-05 -4.71099e-05 -2.14964e-05)
(-0.000130949 -9.07331e-05 -3.12999e-05)
(-0.000252729 -0.000170423 -4.39943e-05)
(-0.000351824 -0.000225983 -4.07981e-05)
(-0.000466197 -0.000279397 -2.8434e-05)
(-0.000591322 -0.000326327 -1.00239e-05)
(-0.000705219 -0.000356967 1.21085e-05)
(-0.000815498 -0.000378818 3.49986e-05)
(-0.000911446 -0.000390554 5.60846e-05)
(-0.00100024 -0.000398784 7.44359e-05)
(-0.00107291 -0.000402381 8.88727e-05)
(-0.00114139 -0.000407237 0.000100327)
(-0.00120196 -0.000412261 0.000108752)
(-0.00125467 -0.000417425 0.000114495)
(-0.00130416 -0.000423909 0.000118322)
(-0.00135235 -0.00043184 0.000120656)
(-0.00139855 -0.000440592 0.000121577)
(-0.00144293 -0.000449926 0.000121137)
(-0.00148556 -0.000459642 0.000119296)
(-0.00152602 -0.000469468 0.000115848)
(-0.00156459 -0.00047934 0.000110522)
(-0.00160129 -0.000489092 0.000102874)
(-0.00163626 -0.00049854 9.2431e-05)
(-0.00166878 -0.000507317 7.85889e-05)
(-0.00169766 -0.000515013 6.08476e-05)
(-0.00171958 -0.00052111 3.84562e-05)
(-0.00172933 -0.000524402 1.2869e-05)
(-1.83979e-05 -7.95789e-07 1.28928e-05)
(-4.05678e-05 -9.59486e-06 -9.03831e-06)
(-5.12325e-05 -1.46849e-05 -2.23458e-05)
(-4.20303e-05 -1.82545e-05 -2.36937e-05)
(-3.97738e-05 -2.55363e-05 -2.32224e-05)
(-5.86806e-05 -4.53811e-05 -2.84208e-05)
(-5.76622e-05 -4.43695e-05 -2.12023e-05)
(-7.70208e-05 -5.43959e-05 -2.18627e-05)
(-0.000229264 -0.000149802 -4.8335e-05)
(-0.000352232 -0.000213863 -4.89594e-05)
(-0.000471909 -0.00026247 -3.62597e-05)
(-0.000600499 -0.000303575 -1.7759e-05)
(-0.000714096 -0.000328349 4.03897e-06)
(-0.000821991 -0.000345321 2.6043e-05)
(-0.000911933 -0.000352947 4.59312e-05)
(-0.000997483 -0.00035944 6.32294e-05)
(-0.0010667 -0.000362146 7.69015e-05)
(-0.00112845 -0.000365024 8.75418e-05)
(-0.00118728 -0.000369634 9.57866e-05)
(-0.0012409 -0.000375004 0.000101794)
(-0.00128925 -0.000380769 0.000105817)
(-0.00133469 -0.0003873 0.000108224)
(-0.00137786 -0.000394505 0.000109135)
(-0.00141884 -0.000402177 0.000108538)
(-0.00145824 -0.000410326 0.000106324)
(-0.00149555 -0.000418638 0.000102157)
(-0.00153069 -0.000426896 9.55922e-05)
(-0.00156361 -0.000434837 8.61821e-05)
(-0.0015944 -0.000442283 7.34464e-05)
(-0.00162182 -0.000448834 5.69559e-05)
(-0.00164252 -0.000454009 3.60637e-05)
(-0.00165119 -0.000456746 1.20893e-05)
(2.15224e-06 3.32907e-06 1.68488e-05)
(-2.22653e-06 8.12592e-07 -1.02369e-06)
(-7.86019e-06 -1.4681e-06 -1.34975e-05)
(-1.43353e-05 -1.05738e-05 -2.17194e-05)
(-1.68917e-05 -1.68035e-05 -2.05754e-05)
(-2.86533e-05 -3.08826e-05 -2.68249e-05)
(-4.28297e-05 -4.14981e-05 -2.85469e-05)
(-4.84079e-05 -3.94614e-05 -2.30966e-05)
(-7.21929e-05 -5.00695e-05 -2.45215e-05)
(-0.000218153 -0.000133551 -5.19245e-05)
(-0.000356232 -0.000199533 -5.59353e-05)
(-0.000478484 -0.00024346 -4.24204e-05)
(-0.000605429 -0.000277971 -2.37498e-05)
(-0.00071315 -0.000296544 -2.48766e-06)
(-0.000816586 -0.000309718 1.83993e-05)
(-0.000898234 -0.000313988 3.69967e-05)
(-0.000977206 -0.000318427 5.31013e-05)
(-0.00104649 -0.000321666 6.6252e-05)
(-0.00110449 -0.000323855 7.64201e-05)
(-0.00115771 -0.000326985 8.42689e-05)
(-0.00120896 -0.000331584 9.02624e-05)
(-0.00125692 -0.000336991 9.44936e-05)
(-0.00130162 -0.000342984 9.70436e-05)
(-0.00134357 -0.000349473 9.79477e-05)
(-0.00138186 -0.000356095 9.70018e-05)
(-0.00141731 -0.000362877 9.3975e-05)
(-0.00145027 -0.000369691 8.84621e-05)
(-0.00148141 -0.000376391 8.00903e-05)
(-0.00151022 -0.000382627 6.84253e-05)
(-0.00153582 -0.000388099 5.31464e-05)
(-0.00155507 -0.000392421 3.37245e-05)
(-0.00156278 -0.00039472 1.13323e-05)
(6.95942e-06 8.20707e-06 2.54096e-05)
(1.57651e-05 7.26345e-06 -1.61094e-06)
(1.79706e-05 4.39537e-06 -1.17657e-05)
(1.79993e-05 -2.98945e-06 -1.84384e-05)
(1.16289e-05 -1.13529e-05 -2.17853e-05)
(1.78247e-06 -1.9968e-05 -2.39781e-05)
(-1.18088e-05 -2.75647e-05 -2.5393e-05)
(-3.1837e-05 -3.60675e-05 -2.93752e-05)
(-6.13214e-05 -4.84862e-05 -3.44284e-05)
(-0.000117957 -7.51876e-05 -4.44569e-05)
(-0.000207323 -0.000116258 -5.29387e-05)
(-0.000356553 -0.000182159 -5.84524e-05)
(-0.000477789 -0.000220654 -4.51613e-05)
(-0.000601672 -0.000249924 -2.72741e-05)
(-0.000700436 -0.000263236 -7.10855e-06)
(-0.000799448 -0.000274086 1.23585e-05)
(-0.000876242 -0.000277191 2.97306e-05)
(-0.000944125 -0.000278802 4.45194e-05)
(-0.00100964 -0.000281572 5.69501e-05)
(-0.00106817 -0.000284406 6.69707e-05)
(-0.00111869 -0.000287103 7.46723e-05)
(-0.00116466 -0.000290423 8.04223e-05)
(-0.00120704 -0.00029444 8.43678e-05)
(-0.00124597 -0.000298973 8.65363e-05)
(-0.00128257 -0.000304175 8.68867e-05)
(-0.00131622 -0.000309694 8.50745e-05)
(-0.00134703 -0.000315323 8.06849e-05)
(-0.00137532 -0.000320763 7.33685e-05)
(-0.00140179 -0.000325922 6.2859e-05)
(-0.00142548 -0.000330475 4.89164e-05)
(-0.00144314 -0.000334054 3.11236e-05)
(-0.00144948 -0.0003359 1.0488e-05)
(1.63558e-05 1.20651e-05 3.15035e-05)
(2.85119e-05 1.12198e-05 -3.82402e-06)
(3.32705e-05 8.10178e-06 -1.2729e-05)
(3.23622e-05 1.25539e-06 -1.57433e-05)
(3.99226e-05 -8.06609e-06 -2.18855e-05)
(1.99933e-05 -1.11481e-05 -1.35434e-05)
(1.03279e-05 -1.42355e-05 -1.16445e-05)
(-1.56557e-06 -1.62107e-05 -1.19052e-05)
(-1.76491e-05 -1.91771e-05 -1.63897e-05)
(-4.02672e-05 -2.78471e-05 -2.32674e-05)
(-0.000118613 -6.72317e-05 -4.53718e-05)
(-0.000204354 -0.000104294 -5.22398e-05)
(-0.0003542 -0.000164224 -5.75688e-05)
(-0.000467609 -0.000195753 -4.50618e-05)
(-0.000585751 -0.000220528 -2.87173e-05)
(-0.000671973 -0.000229108 -1.00766e-05)
(-0.000760763 -0.000236926 7.68617e-06)
(-0.000838152 -0.000241121 2.38108e-05)
(-0.000899929 -0.000242059 3.75675e-05)
(-0.000955678 -0.000243104 4.90666e-05)
(-0.00100942 -0.000245418 5.8603e-05)
(-0.00105866 -0.000248325 6.61795e-05)
(-0.00110327 -0.000251746 7.18271e-05)
(-0.00114359 -0.000255622 7.55765e-05)
(-0.00117864 -0.000259685 7.72405e-05)
(-0.00120972 -0.000264026 7.65862e-05)
(-0.00123761 -0.00026855 7.3247e-05)
(-0.00126375 -0.000273128 6.69812e-05)
(-0.00128774 -0.000277391 5.75603e-05)
(-0.00130915 -0.000281126 4.48753e-05)
(-0.00132502 -0.00028406 2.86402e-05)
(-0.00133036 -0.000285613 9.68791e-06)
(2.60454e-05 1.33829e-05 3.33742e-05)
(5.25378e-05 1.54052e-05 -6.36061e-06)
(6.85705e-05 1.25783e-05 -1.88648e-05)
(6.99896e-05 3.8811e-06 -2.31334e-05)
(5.61078e-05 -5.56489e-06 -2.0172e-05)
(3.50922e-05 -1.02346e-05 -1.2943e-05)
(4.36053e-05 -2.42932e-05 -1.61191e-05)
(1.53915e-05 -1.60099e-05 -5.94266e-06)
(4.13514e-06 -2.47649e-05 -9.00443e-06)
(-2.55016e-05 -2.31267e-05 -2.00141e-05)
(-6.35339e-05 -3.69606e-05 -3.4727e-05)
(-6.93717e-05 -3.55397e-05 -2.54394e-05)
(-0.000203314 -9.3435e-05 -4.96488e-05)
(-0.000345202 -0.000145559 -5.53381e-05)
(-0.000445042 -0.000169931 -4.31005e-05)
(-0.000558501 -0.000191833 -2.88266e-05)
(-0.000638519 -0.000198981 -1.19346e-05)
(-0.000709408 -0.000202408 4.30858e-06)
(-0.000780735 -0.00020615 1.91301e-05)
(-0.000843306 -0.000208544 3.21695e-05)
(-0.000894521 -0.00020963 4.30579e-05)
(-0.000939511 -0.000210878 5.19068e-05)
(-0.000979251 -0.000212598 5.87389e-05)
(-0.00101505 -0.00021492 6.36428e-05)
(-0.00104754 -0.000217998 6.65503e-05)
(-0.00107623 -0.00022153 6.70904e-05)
(-0.00110142 -0.000225299 6.48653e-05)
(-0.00112375 -0.000228944 5.96425e-05)
(-0.00114481 -0.000232457 5.1426e-05)
(-0.00116387 -0.000235564 4.01841e-05)
(-0.00117783 -0.000237977 2.57427e-05)
(-0.0011815 -0.000239174 8.74378e-06)
(3.33355e-05 1.35758e-05 3.48178e-05)
(7.16911e-05 1.81586e-05 -5.05971e-06)
(9.45072e-05 1.61449e-05 -2.01949e-05)
(0.000106233 7.40625e-06 -2.90948e-05)
(0.000106564 -5.2431e-06 -3.24022e-05)
(9.21334e-05 -1.74935e-05 -2.93998e-05)
(5.41374e-05 -2.04069e-05 -1.70431e-05)
(4.74617e-05 -3.05774e-05 -1.28597e-05)
(2.65547e-05 -2.91196e-05 -3.79717e-06)
(6.42442e-06 -2.76785e-05 -1.7547e-06)
(-1.74288e-05 -1.4912e-05 -1.01033e-05)
(-4.51172e-05 -2.29541e-05 -2.15372e-05)
(-6.81069e-05 -3.14439e-05 -2.38945e-05)
(-0.000189461 -7.9964e-05 -4.48707e-05)
(-0.000326149 -0.00012653 -5.15496e-05)
(-0.000405217 -0.000142813 -3.98153e-05)
(-0.000504055 -0.00016006 -2.71843e-05)
(-0.000587923 -0.000169546 -1.25725e-05)
(-0.000649562 -0.000172096 2.19414e-06)
(-0.000704798 -0.000173428 1.5689e-05)
(-0.000759582 -0.000175634 2.76714e-05)
(-0.000808981 -0.000177815 3.79313e-05)
(-0.000853035 -0.00018023 4.63127e-05)
(-0.000890235 -0.000182621 5.2654e-05)
(-0.000920795 -0.000185167 5.67997e-05)
(-0.00094612 -0.000187987 5.84176e-05)
(-0.000967618 -0.00019107 5.717e-05)
(-0.000987712 -0.000194309 5.2978e-05)
(-0.00100594 -0.00019729 4.58466e-05)
(-0.00102233 -0.00019988 3.58979e-05)
(-0.00103428 -0.000201879 2.30939e-05)
(-0.00103711 -0.000202922 7.88879e-06)
(3.9375e-05 1.36852e-05 3.74829e-05)
(8.05888e-05 1.91712e-05 -2.67743e-06)
(0.000108689 1.93112e-05 -1.91769e-05)
(0.000125441 1.24363e-05 -3.00244e-05)
(0.000129859 1.13187e-07 -3.61413e-05)
(0.000123709 -1.41663e-05 -3.725e-05)
(0.000109263 -2.80934e-05 -3.33969e-05)
(7.33841e-05 -3.25471e-05 -2.07873e-05)
(4.46307e-05 -3.10353e-05 -9.60782e-06)
(1.79847e-05 -2.08786e-05 -7.38682e-07)
(4.71125e-06 -2.44377e-05 2.89469e-06)
(-2.73893e-05 -2.1417e-05 -1.22062e-05)
(-6.16037e-05 -2.98942e-05 -2.86917e-05)
(-0.000113146 -4.95103e-05 -3.82476e-05)
(-0.000154815 -6.19325e-05 -3.62454e-05)
(-0.000298476 -0.000107515 -4.69722e-05)
(-0.000370872 -0.000121872 -3.745e-05)
(-0.000439141 -0.000131033 -2.48756e-05)
(-0.000514965 -0.00014008 -1.1927e-05)
(-0.000580081 -0.000145515 1.35529e-06)
(-0.000628745 -0.000147351 1.37455e-05)
(-0.000669804 -0.000148407 2.45625e-05)
(-0.000703614 -0.000149286 3.34531e-05)
(-0.000734665 -0.000150776 4.05414e-05)
(-0.0007614 -0.0001529 4.56254e-05)
(-0.000783773 -0.000155455 4.8248e-05)
(-0.000802133 -0.000158247 4.80003e-05)
(-0.000817292 -0.000160813 4.47785e-05)
(-0.000832006 -0.000163327 3.89059e-05)
(-0.000845722 -0.000165575 3.05466e-05)
(-0.000855505 -0.000167261 1.97502e-05)
(-0.000856338 -0.000167962 6.78233e-06)
(4.33191e-05 1.35713e-05 4.09546e-05)
(8.23549e-05 1.93347e-05 2.36974e-07)
(0.000112053 2.14722e-05 -1.68756e-05)