/*--------------------------------*- C++ -*----------------------------------*\
  =========                 |
  \\      /  F ield         | OpenFOAM: The Open Source CFD Toolbox
   \\    /   O peration     | Website:  https://openfoam.org
    \\  /    A nd           | Version:  6
     \\/     M anipulation  |
\*---------------------------------------------------------------------------*/
FoamFile
{
    version     2.0;
    format      ascii;
    class       volVectorField;
    location    "31";
    object      wallShearStress;
}
// * * * * * * * * * * * * * * * * * * * * * * * * * * * * * * * * * * * * * //

dimensions      [0 2 -2 0 0 0 0];

internalField   uniform (0 0 0);

boundaryField
{
    inlet
    {
        type            calculated;
        value           uniform (0 0 0);
    }
    outlet
    {
        type            calculated;
        value           uniform (0 0 0);
    }
    roughCylinder
    {
        type            calculated;
        value           nonuniform List<vector> 
3840
(
(-0.000463546 -0.000669423 -0.000281955)
(-0.000329696 -0.000501799 -1.79693e-05)
(-0.000364848 -0.000578808 4.13e-05)
(-0.000451823 -0.000683826 0.000110114)
(-0.000544128 -0.000755015 0.000175918)
(-0.000635044 -0.000794583 0.000231563)
(-0.000717564 -0.000807943 0.000274048)
(-0.000789562 -0.000808977 0.000303827)
(-0.000851138 -0.000812009 0.000323489)
(-0.000899799 -0.000820531 0.000332786)
(-0.000940001 -0.000836577 0.000333614)
(-0.00097411 -0.000858658 0.000328548)
(-0.00100567 -0.000885106 0.000319799)
(-0.00103762 -0.000914735 0.000308835)
(-0.00107166 -0.000946902 0.000296271)
(-0.00110836 -0.000981311 0.000282211)
(-0.00114784 -0.00101788 0.000266547)
(-0.00118975 -0.00105628 0.000248974)
(-0.00123356 -0.00109595 0.000228916)
(-0.00127837 -0.00113599 0.000205364)
(-0.00132282 -0.00117503 0.000176482)
(-0.00136466 -0.00121104 0.000139681)
(-0.00139957 -0.00124098 9.09967e-05)
(-0.00142058 -0.00125948 3.13659e-05)
(-0.000514556 -0.000678149 -0.000288601)
(-0.000355423 -0.000496672 -2.24629e-05)
(-0.000383749 -0.000562179 3.35629e-05)
(-0.0004726 -0.000667103 9.91555e-05)
(-0.000567359 -0.000740527 0.000163199)
(-0.000661247 -0.000783363 0.000218003)
(-0.000747757 -0.000801246 0.000260668)
(-0.000825038 -0.000807263 0.000292074)
(-0.000891888 -0.000812136 0.00031378)
(-0.00094316 -0.000818664 0.000323793)
(-0.000985156 -0.000833443 0.000324913)
(-0.00102123 -0.000854797 0.000320064)
(-0.0010547 -0.000880825 0.000311494)
(-0.00108845 -0.000910058 0.000300705)
(-0.00112429 -0.000941833 0.000288396)
(-0.00116302 -0.000975969 0.000274739)
(-0.00120453 -0.00101215 0.000259562)
(-0.00124853 -0.00105011 0.000242573)
(-0.00129442 -0.00108926 0.000223177)
(-0.0013413 -0.00112874 0.000200365)
(-0.00138772 -0.00116722 0.000172311)
(-0.00143136 -0.00120269 0.000136456)
(-0.00146775 -0.00123219 8.89131e-05)
(-0.00148964 -0.00125039 3.06411e-05)
(-0.000537992 -0.000637836 -0.000272121)
(-0.000374552 -0.000479317 -2.65489e-05)
(-0.000401112 -0.000538905 2.50865e-05)
(-0.000491529 -0.000643664 8.71532e-05)
(-0.000588615 -0.000719299 0.000149361)
(-0.000685452 -0.000765621 0.000203466)
(-0.000776515 -0.00078874 0.000246798)
(-0.00085913 -0.000799804 0.000279799)
(-0.000930538 -0.000806857 0.000302912)
(-0.000985178 -0.000811579 0.000313627)
(-0.0010294 -0.000825162 0.000315305)
(-0.0010675 -0.000845501 0.000310718)
(-0.00110279 -0.000870727 0.000302364)
(-0.00113846 -0.000899406 0.000291852)
(-0.00117629 -0.000930697 0.000279911)
(-0.00121682 -0.000964138 0.000266667)
(-0.00126028 -0.000999651 0.000252034)
(-0.00130626 -0.00103686 0.00023568)
(-0.00135416 -0.00107525 0.00021701)
(-0.00140301 -0.0011139 0.000195)
(-0.0014513 -0.00115155 0.000167836)
(-0.00149663 -0.00118623 0.000132997)
(-0.00153442 -0.00121507 8.66807e-05)
(-0.00155712 -0.00123285 2.98655e-05)
(-0.000522182 -0.000558047 -0.000230405)
(-0.000395861 -0.000458918 -3.18304e-05)
(-0.000414863 -0.000511402 1.5926e-05)
(-0.00050581 -0.000614118 7.44453e-05)
(-0.000605137 -0.000691986 0.000134574)
(-0.00070563 -0.000742854 0.000188089)
(-0.00080128 -0.00077139 0.000232162)
(-0.00088875 -0.000786974 0.000266566)
(-0.000964217 -0.000795855 0.000290645)
(-0.0010242 -0.000801051 0.00030275)
(-0.00107048 -0.000812563 0.000304929)
(-0.00111068 -0.000831622 0.000300685)
(-0.00114808 -0.000856021 0.000292706)
(-0.00118561 -0.00088388 0.000282531)
(-0.00122516 -0.000914313 0.000270974)
(-0.00126773 -0.000947094 0.000258276)
(-0.0013131 -0.000981778 0.000244252)
(-0.00136101 -0.00101809 0.000228594)
(-0.00141076 -0.00105546 0.000210685)
(-0.00146141 -0.00109306 0.000189509)
(-0.00151139 -0.00112964 0.000163264)
(-0.00155826 -0.00116333 0.000129465)
(-0.0015973 -0.00119135 8.44042e-05)
(-0.00162073 -0.00120859 2.90759e-05)
(-0.00047263 -0.000455127 -0.000174764)
(-0.000410621 -0.00042708 -3.78449e-05)
(-0.000423326 -0.000478479 6.87181e-06)
(-0.000514823 -0.000579349 6.13004e-05)
(-0.000616442 -0.000659527 0.00011906)
(-0.000719972 -0.00071434 0.000171599)
(-0.000820197 -0.000748302 0.000216272)
(-0.000912672 -0.000768443 0.00025204)
(-0.000993127 -0.000779898 0.000277334)
(-0.00105751 -0.000785662 0.000290612)
(-0.00110754 -0.000795261 0.000293675)
(-0.00115011 -0.000812979 0.000290022)
(-0.0011895 -0.000836039 0.000282461)
(-0.00122904 -0.00086294 0.000272762)
(-0.00127065 -0.000892582 0.000261759)
(-0.00131483 -0.000924232 0.0002496)
(-0.00136195 -0.000957827 0.000236234)
(-0.00141157 -0.000992959 0.000221309)
(-0.00146305 -0.00102911 0.000204214)
(-0.00151533 -0.00106544 0.000183911)
(-0.00156684 -0.00110074 0.000158613)
(-0.00161508 -0.00113322 0.00012588)
(-0.00165524 -0.00116025 8.20968e-05)
(-0.0016793 -0.00117686 2.8277e-05)
(-0.000588598 -0.00050257 -0.000187852)
(-0.000423926 -0.000401681 -4.19882e-05)
(-0.000428184 -0.000442499 -2.10594e-06)
(-0.000517445 -0.000540007 4.76451e-05)
(-0.000620741 -0.000621935 0.000102628)
(-0.000728305 -0.000681542 0.000154139)
(-0.000833176 -0.000720673 0.000199203)
(-0.0009303 -0.000744734 0.000236089)
(-0.00101479 -0.000757892 0.000262389)
(-0.00108497 -0.000765639 0.00027716)
(-0.00113993 -0.000774248 0.000281457)
(-0.001185 -0.00078951 0.000278519)
(-0.00122691 -0.000811338 0.000271647)
(-0.00126846 -0.000836955 0.000262529)
(-0.00131166 -0.000865227 0.000252082)
(-0.00135787 -0.000895861 0.000240645)
(-0.00140676 -0.000928231 0.000228024)
(-0.00145808 -0.000962055 0.000213908)
(-0.00151108 -0.000996739 0.000197657)
(-0.0015648 -0.00103156 0.000178254)
(-0.00161763 -0.00106536 0.000153923)
(-0.00166705 -0.00109643 0.000122268)
(-0.00170817 -0.00112227 7.97758e-05)
(-0.00173275 -0.00113815 2.74748e-05)
(-0.000532452 -0.000405822 -0.000141168)
(-0.000429975 -0.000366444 -4.6368e-05)
(-0.000425818 -0.000402949 -1.11808e-05)
(-0.000513073 -0.000497209 3.3871e-05)
(-0.000618384 -0.00058115 8.56197e-05)
(-0.000728551 -0.000644112 0.000135441)
(-0.000837814 -0.000687909 0.000180503)
(-0.00093996 -0.000715866 0.000218358)
(-0.00103055 -0.000732124 0.000246197)
(-0.00110489 -0.000740518 0.000262085)
(-0.00116541 -0.000749364 0.000267859)
(-0.00121512 -0.000762937 0.000266189)
(-0.00125936 -0.000782341 0.000260098)
(-0.00130314 -0.000806417 0.000251754)
(-0.00134866 -0.00083357 0.000242127)
(-0.00139628 -0.000862606 0.000231395)
(-0.00144668 -0.000893466 0.000219571)
(-0.00149938 -0.000925659 0.000206297)
(-0.0015538 -0.00095874 0.000190953)
(-0.00160878 -0.000991878 0.000172492)
(-0.00166276 -0.001024 0.000149157)
(-0.0017132 -0.0010535 0.000118604)
(-0.00175515 -0.00107805 7.74261e-05)
(-0.00178014 -0.00109311 2.66643e-05)
(-0.000611048 -0.000413024 -0.00013169)
(-0.000433941 -0.000332625 -5.12858e-05)
(-0.000417406 -0.000361819 -1.93051e-05)
(-0.000500452 -0.000451175 2.00629e-05)
(-0.000605969 -0.000535511 6.77589e-05)
(-0.000720151 -0.000602989 0.000115597)
(-0.000834229 -0.000651476 0.00016031)
(-0.000941634 -0.000683144 0.000198896)
(-0.0010362 -0.000700785 0.000227724)
(-0.0011174 -0.000711493 0.000245504)
(-0.0011831 -0.000720439 0.000252793)
(-0.00123746 -0.000732845 0.000252527)
(-0.00128605 -0.000750652 0.000247797)
(-0.00133241 -0.000772757 0.000240466)
(-0.00137939 -0.000797797 0.000231631)
(-0.00142915 -0.000825399 0.000221845)
(-0.0014812 -0.000854634 0.000210934)
(-0.00153541 -0.000885167 0.0001986)
(-0.00159096 -0.000916389 0.000184191)
(-0.00164697 -0.000947636 0.000166695)
(-0.00170185 -0.00097788 0.00014437)
(-0.00175308 -0.00100559 0.000114925)
(-0.00179567 -0.00102865 7.50688e-05)
(-0.00182094 -0.00104286 2.58537e-05)
(-0.000536405 -0.000319833 -9.49833e-05)
(-0.000424433 -0.000293173 -5.35546e-05)
(-0.00040225 -0.000319227 -2.7238e-05)
(-0.000478749 -0.000402427 6.38056e-06)
(-0.00058554 -0.000488124 4.95334e-05)
(-0.000701221 -0.000557861 9.4453e-05)
(-0.000819423 -0.000610292 0.000138155)
(-0.000931992 -0.000645391 0.000177075)
(-0.00103452 -0.000666918 0.000207611)
(-0.00112022 -0.000678124 0.000226865)
(-0.00119188 -0.000687525 0.000236064)
(-0.00125173 -0.000699425 0.000237597)
(-0.00130405 -0.000715583 0.000234299)
(-0.00135361 -0.000735849 0.000228258)
(-0.00140374 -0.000759446 0.000220679)
(-0.00145489 -0.000784963 0.000211867)
(-0.0015083 -0.000812281 0.000201951)
(-0.00156353 -0.000840804 0.0001906)
(-0.00162017 -0.000870107 0.000177213)
(-0.00167704 -0.000899379 0.00016074)
(-0.00173266 -0.000927667 0.00013947)
(-0.0017846 -0.000953561 0.000111173)
(-0.00182776 -0.000975126 7.26766e-05)
(-0.00185311 -0.000988403 2.50331e-05)
(-0.00045793 -0.000240874 -6.20008e-05)
(-0.000402303 -0.000247265 -5.5581e-05)
(-0.000377179 -0.000274426 -3.39273e-05)
(-0.000447644 -0.000351809 -6.68977e-06)
(-0.00055157 -0.000435496 3.08133e-05)
(-0.000670958 -0.000509266 7.22009e-05)
(-0.000794106 -0.000566111 0.000114338)
(-0.000913174 -0.000605318 0.000153396)
(-0.00101941 -0.000627718 0.000184636)
(-0.00111356 -0.000641602 0.000206203)
(-0.00119139 -0.0006513 0.000217565)
(-0.00125612 -0.000662203 0.000221046)
(-0.00131324 -0.000677191 0.000219598)
(-0.00136619 -0.000695727 0.000215085)
(-0.00141791 -0.000716997 0.00020871)
(-0.00147158 -0.000740963 0.000201219)
(-0.00152662 -0.000766448 0.000192481)
(-0.00158322 -0.00079311 0.000182273)
(-0.00164053 -0.000820294 0.00016996)
(-0.0016979 -0.000847451 0.000154561)
(-0.0017539 -0.000873682 0.000134388)
(-0.00180618 -0.000897689 0.000107281)
(-0.00184958 -0.000917683 7.01954e-05)
(-0.00187485 -0.000929962 2.4183e-05)
(-0.000480588 -0.00022027 -5.12215e-05)
(-0.000384635 -0.00021161 -5.72766e-05)
(-0.0003466 -0.000231 -3.95573e-05)
(-0.000405215 -0.000298898 -1.86808e-05)
(-0.000509533 -0.000383037 1.24219e-05)
(-0.000628307 -0.00045746 4.90385e-05)
(-0.000755067 -0.000517742 8.86154e-05)
(-0.000878969 -0.000559978 0.000126958)
(-0.000995954 -0.000587527 0.000159846)
(-0.0010952 -0.000601755 0.00018312)
(-0.00117984 -0.0006118 0.000196964)
(-0.0012513 -0.000622405 0.000202995)
(-0.00131252 -0.000635628 0.000203544)
(-0.00136888 -0.000652271 0.000200801)
(-0.00142437 -0.000672148 0.000196148)
(-0.00147909 -0.000693702 0.000189924)
(-0.00153513 -0.000716965 0.000182425)
(-0.00159218 -0.000741287 0.000173385)
(-0.00165009 -0.000766317 0.000162258)
(-0.00170771 -0.000791281 0.000148012)
(-0.00176378 -0.000815381 0.000129006)
(-0.00181611 -0.000837441 0.000103157)
(-0.00185954 -0.000855824 6.75685e-05)
(-0.00188456 -0.000867048 2.32846e-05)
(-0.000417306 -0.000164779 -3.47627e-05)
(-0.000349431 -0.000172675 -5.62713e-05)
(-0.000307334 -0.000187619 -4.3427e-05)
(-0.000354489 -0.000246807 -2.89691e-05)
(-0.000449801 -0.000324362 -5.18554e-06)
(-0.000571898 -0.000402282 2.55619e-05)
(-0.00070341 -0.000466852 6.15777e-05)
(-0.000835798 -0.000514452 9.89647e-05)
(-0.000955469 -0.000542254 0.00013194)
(-0.00106519 -0.000559731 0.000157734)
(-0.00115752 -0.00057026 0.000174369)
(-0.00123434 -0.000579577 0.00018301)
(-0.00130149 -0.000591645 0.000186146)
(-0.00136192 -0.000606463 0.000185527)
(-0.00141863 -0.000623575 0.000182453)
(-0.00147621 -0.000643431 0.000177924)
(-0.00153386 -0.000664669 0.000171884)
(-0.00159213 -0.000686976 0.000164214)
(-0.00165015 -0.00070965 0.000154319)
(-0.00170763 -0.000732301 0.000141271)
(-0.0017634 -0.000754178 0.000123465)
(-0.00181542 -0.000774206 9.89074e-05)
(-0.00185854 -0.000790907 6.48584e-05)
(-0.00188314 -0.00080105 2.23596e-05)
(-0.000372116 -0.000125187 -2.26997e-05)
(-0.00031152 -0.000138503 -5.50231e-05)
(-0.000261894 -0.000146785 -4.55086e-05)
(-0.000289097 -0.000191515 -3.58898e-05)
(-0.000385007 -0.000268821 -2.08905e-05)
(-0.00050232 -0.000344507 2.56636e-06)
(-0.000636548 -0.000412269 3.3614e-05)
(-0.000772143 -0.000462389 6.84852e-05)
(-0.000906534 -0.000497659 0.000102483)
(-0.00102188 -0.000515662 0.000129971)
(-0.00112188 -0.000526495 0.000149525)
(-0.0012072 -0.000535719 0.000161494)
(-0.00127885 -0.000545687 0.000167305)
(-0.00134309 -0.000558334 0.000169052)
(-0.00140466 -0.000574079 0.000168257)
(-0.00146297 -0.000591164 0.000165326)
(-0.00152123 -0.000609889 0.000160781)
(-0.00157931 -0.000629568 0.000154467)
(-0.00163747 -0.000649943 0.000145928)
(-0.00169459 -0.000670264 0.000134161)
(-0.00174975 -0.000689889 0.000117621)
(-0.00180119 -0.000707889 9.4423e-05)
(-0.00184379 -0.0007229 6.20026e-05)
(-0.00186779 -0.000731944 2.13867e-05)
(-0.000301788 -8.65317e-05 -1.02517e-05)
(-0.000264031 -0.000105197 -5.2389e-05)
(-0.000211628 -0.000109603 -4.54615e-05)
(-0.000223535 -0.000142016 -3.98972e-05)
(-0.000296799 -0.000203488 -3.23987e-05)
(-0.00041819 -0.000283033 -1.82154e-05)
(-0.000555755 -0.000354768 5.99012e-06)
(-0.0007028 -0.000412803 3.76582e-05)
(-0.000837019 -0.000447609 7.05014e-05)
(-0.000965058 -0.000470217 0.000100174)
(-0.0010745 -0.000482227 0.000122872)
(-0.00116531 -0.000489888 0.000137985)
(-0.00124436 -0.000498803 0.000147124)
(-0.00131355 -0.000509535 0.000151641)
(-0.00137573 -0.000522001 0.000152835)
(-0.00143748 -0.000537317 0.000152021)
(-0.00149753 -0.000553927 0.00014925)
(-0.00155682 -0.000571537 0.000144549)
(-0.0016145 -0.000589429 0.000137396)
(-0.00167082 -0.000607358 0.00012694)
(-0.00172497 -0.000624706 0.000111686)
(-0.0017754 -0.000640633 8.98601e-05)
(-0.00181714 -0.000653915 5.90951e-05)
(-0.00184038 -0.000661876 2.03988e-05)
(-0.000195269 -4.76781e-05 1.41144e-06)
(-0.0001987 -7.09845e-05 -4.75615e-05)
(-0.000155113 -7.57296e-05 -4.22709e-05)
(-0.000133029 -8.24629e-05 -3.31101e-05)
(-0.000215558 -0.000146814 -3.90577e-05)
(-0.000321522 -0.000217853 -3.48943e-05)
(-0.000460548 -0.000293413 -1.94771e-05)
(-0.000606544 -0.000353028 6.58872e-06)
(-0.000761187 -0.000399719 3.83018e-05)
(-0.000894436 -0.000423685 6.88748e-05)
(-0.00101181 -0.000436604 9.4385e-05)
(-0.00111323 -0.000444991 0.000113293)
(-0.00119675 -0.000451604 0.000125616)
(-0.00126997 -0.000459956 0.000133029)
(-0.00133861 -0.000471232 0.000137077)
(-0.00140057 -0.000483463 0.000138194)
(-0.00146066 -0.000497305 0.000137167)
(-0.00151902 -0.000512104 0.000134008)
(-0.00157638 -0.000527676 0.000128378)
(-0.00163169 -0.000543281 0.000119319)
(-0.00168452 -0.000558405 0.000105417)
(-0.0017337 -0.000572319 8.50368e-05)
(-0.00177438 -0.000583934 5.60246e-05)
(-0.00179664 -0.000590826 1.93574e-05)
(-7.77777e-05 -1.54044e-05 7.83365e-06)
(-0.000116675 -3.80834e-05 -3.67939e-05)
(-9.83563e-05 -4.58212e-05 -3.7777e-05)
(-6.1032e-05 -3.85057e-05 -2.2599e-05)
(-7.45727e-05 -5.22713e-05 -2.11553e-05)
(-0.000211915 -0.000146648 -4.15479e-05)
(-0.000350485 -0.000225693 -3.92037e-05)
(-0.000513749 -0.000299234 -2.21597e-05)
(-0.000661094 -0.000344117 6.12751e-06)
(-0.000809454 -0.000375775 3.7088e-05)
(-0.000937716 -0.000391726 6.50657e-05)
(-0.00104366 -0.00039889 8.70296e-05)
(-0.00113614 -0.000405155 0.000103043)
(-0.00121525 -0.000411826 0.00011369)
(-0.0012832 -0.00041939 0.000120032)
(-0.00134945 -0.000429942 0.000123663)
(-0.00141173 -0.000441763 0.000124726)
(-0.00147146 -0.000454588 0.000123422)
(-0.0015277 -0.000467699 0.000119325)
(-0.00158148 -0.000480982 0.000111676)
(-0.00163255 -0.000493932 9.91256e-05)
(-0.00168002 -0.000505862 8.01844e-05)
(-0.00171925 -0.000515814 5.29319e-05)
(-0.0017404 -0.000521703 1.83112e-05)
(-7.34825e-06 4.09913e-07 8.94773e-06)
(-2.59658e-05 -7.25294e-06 -1.2772e-05)
(-3.24326e-05 -1.54595e-05 -2.12268e-05)
(-3.88462e-05 -2.74457e-05 -2.37802e-05)
(-4.98248e-05 -3.92636e-05 -2.28379e-05)
(-0.000101019 -7.4061e-05 -3.18502e-05)
(-0.000236593 -0.000154159 -4.86306e-05)
(-0.000384016 -0.000225939 -4.42691e-05)
(-0.000561914 -0.000292488 -2.29966e-05)
(-0.000711965 -0.000326724 6.27221e-06)
(-0.000846994 -0.000345436 3.54834e-05)
(-0.000965552 -0.000355443 6.0558e-05)
(-0.00106154 -0.000359898 7.96403e-05)
(-0.00114427 -0.000364405 9.33343e-05)
(-0.00122086 -0.000371411 0.000102937)
(-0.00128639 -0.000378745 0.000108738)
(-0.0013478 -0.000387686 0.000111736)
(-0.00140557 -0.000397662 0.000112122)
(-0.00146103 -0.000408603 0.0001097)
(-0.00151311 -0.00041975 0.00010355)
(-0.00156208 -0.000430665 9.2419e-05)
(-0.00160762 -0.000440764 7.50015e-05)
(-0.00164525 -0.000449193 4.96298e-05)
(-0.00166506 -0.000454131 1.71951e-05)
(6.64452e-06 6.23901e-06 1.52177e-05)
(4.5372e-06 6.16592e-07 -7.34779e-06)
(-4.25569e-06 -8.11674e-06 -2.00509e-05)
(-1.74882e-05 -2.27036e-05 -2.76553e-05)
(-3.51784e-05 -3.74895e-05 -3.04927e-05)
(-4.41366e-05 -3.66911e-05 -2.3211e-05)
(-0.000132439 -8.99354e-05 -4.47775e-05)
(-0.000279471 -0.00016533 -5.73168e-05)
(-0.000430749 -0.000225606 -4.54261e-05)
(-0.000601196 -0.000275197 -2.1258e-05)
(-0.000747479 -0.000300391 7.34547e-06)
(-0.000867613 -0.0003106 3.39221e-05)
(-0.00097362 -0.000316504 5.59498e-05)
(-0.00106311 -0.000320406 7.27515e-05)
(-0.0011364 -0.000323579 8.46253e-05)
(-0.00120727 -0.000329737 9.31727e-05)
(-0.00127152 -0.000337043 9.85007e-05)
(-0.00133104 -0.000345386 0.000100954)
(-0.00138464 -0.000354085 0.000100179)
(-0.00143438 -0.000363174 9.55114e-05)
(-0.00148079 -0.000372201 8.57774e-05)
(-0.00152387 -0.000380564 6.98488e-05)
(-0.00155946 -0.00038754 4.63402e-05)
(-0.00157782 -0.000391634 1.60858e-05)
(1.28891e-05 1.12318e-05 2.17967e-05)
(2.39727e-05 7.53182e-06 -7.52429e-06)
(2.83787e-05 -1.8898e-07 -1.91399e-05)
(1.21477e-05 -9.54404e-06 -1.59539e-05)
(-9.26426e-07 -2.49876e-05 -2.44769e-05)
(-2.90512e-05 -3.36828e-05 -2.92912e-05)
(-6.87699e-05 -5.24568e-05 -3.79595e-05)
(-8.15661e-05 -4.90166e-05 -2.58949e-05)
(-0.000321863 -0.000168277 -5.92253e-05)
(-0.000480123 -0.000220522 -4.32381e-05)
(-0.000630785 -0.000252422 -1.76699e-05)
(-0.000765381 -0.000269381 8.92924e-06)
(-0.000872614 -0.000275102 3.26024e-05)
(-0.000963812 -0.0002778 5.17454e-05)
(-0.00104872 -0.00028194 6.67831e-05)
(-0.00111704 -0.000285116 7.74784e-05)
(-0.00117888 -0.000289732 8.47719e-05)
(-0.00123483 -0.000295399 8.89496e-05)
(-0.00128708 -0.000302312 8.9947e-05)
(-0.00133439 -0.00030966 8.68391e-05)
(-0.00137787 -0.000317031 7.85683e-05)
(-0.0014183 -0.000323905 6.42382e-05)
(-0.00145175 -0.000329635 4.27545e-05)
(-0.0014684 -0.000332963 1.48752e-05)
(2.3053e-05 1.32842e-05 2.37265e-05)
(3.70707e-05 1.00824e-05 -9.17112e-06)
(4.43197e-05 2.986e-06 -1.66332e-05)
(2.96979e-05 -6.43189e-06 -1.29703e-05)
(2.26198e-05 -1.57332e-05 -1.33054e-05)
(3.87659e-06 -2.57038e-05 -1.83226e-05)
(-2.03751e-05 -1.95917e-05 -1.70635e-05)
(-5.26232e-05 -3.30963e-05 -2.47987e-05)
(-0.000143758 -7.4362e-05 -3.99196e-05)
(-0.000353498 -0.000162628 -5.54211e-05)
(-0.000511872 -0.000205774 -3.77965e-05)
(-0.000641886 -0.00022512 -1.33706e-05)
(-0.000759204 -0.000235384 1.0547e-05)
(-0.000858106 -0.000239852 3.14823e-05)
(-0.000934583 -0.000240488 4.81362e-05)
(-0.00100958 -0.000243739 6.13926e-05)
(-0.00107498 -0.000247594 7.10172e-05)
(-0.00113351 -0.000252391 7.73676e-05)
(-0.001183 -0.000257541 8.00462e-05)
(-0.00122704 -0.000263304 7.84337e-05)
(-0.00126714 -0.000269262 7.15658e-05)
(-0.00130435 -0.00027481 5.87578e-05)
(-0.00133514 -0.000279414 3.9239e-05)
(-0.00135006 -0.000282118 1.36905e-05)
(3.29383e-05 1.41668e-05 2.51597e-05)
(7.39414e-05 1.63103e-05 -1.37745e-05)
(8.2545e-05 6.14237e-06 -2.33555e-05)
(6.19822e-05 -7.30819e-06 -1.95659e-05)
(6.17115e-05 -2.37165e-05 -1.96167e-05)
(2.70138e-05 -2.35005e-05 -7.77117e-06)
(1.88779e-06 -2.54337e-05 -1.008e-05)
(-4.338e-05 -3.02755e-05 -2.77093e-05)
(-0.00010734 -5.66997e-05 -4.31239e-05)
(-0.000205439 -9.4979e-05 -4.87125e-05)
(-0.000374672 -0.000152825 -4.86732e-05)
(-0.000522241 -0.00018489 -3.13978e-05)
(-0.000636952 -0.000197445 -9.13274e-06)
(-0.000732976 -0.000202282 1.21472e-05)
(-0.000825625 -0.000206855 3.08312e-05)
(-0.000894423 -0.000207811 4.57002e-05)
(-0.000954854 -0.000209611 5.69831e-05)
(-0.00100699 -0.000212164 6.48298e-05)
(-0.0010544 -0.000216204 6.92299e-05)
(-0.00109521 -0.000220844 6.91496e-05)
(-0.00113145 -0.000225691 6.37409e-05)
(-0.00116533 -0.000230239 5.26029e-05)
(-0.00119347 -0.000233995 3.52803e-05)
(-0.00120634 -0.000236157 1.23497e-05)
(3.98042e-05 1.47237e-05 2.7413e-05)
(9.19824e-05 1.91069e-05 -1.25866e-05)
(0.000111832 9.81273e-06 -2.71588e-05)
(0.000112096 -6.98335e-06 -3.21183e-05)
(8.40193e-05 -2.23012e-05 -2.43773e-05)
(4.00879e-05 -2.21608e-05 -9.59392e-06)
(2.59529e-05 -3.02297e-05 -2.84836e-06)
(-6.38381e-06 -2.00311e-05 -4.92458e-06)
(-4.03249e-05 -2.29459e-05 -2.02533e-05)
(-8.27911e-05 -3.88263e-05 -2.80484e-05)
(-0.000244451 -0.000102166 -4.91996e-05)
(-0.000379312 -0.000137736 -4.15148e-05)
(-0.000504458 -0.000159238 -2.47977e-05)
(-0.0006102 -0.00016965 -4.93957e-06)
(-0.000684506 -0.000170979 1.38554e-05)
(-0.000762111 -0.000174399 3.02548e-05)
(-0.00082714 -0.000177069 4.3364e-05)
(-0.000883473 -0.000180129 5.32267e-05)
(-0.00092696 -0.000183157 5.91607e-05)
(-0.000963426 -0.000186863 6.04674e-05)
(-0.000995547 -0.000190904 5.64016e-05)
(-0.00102546 -0.000194639 4.67858e-05)
(-0.00105034 -0.000197677 3.15161e-05)
(-0.00106134 -0.000199459 1.10767e-05)
(4.52309e-05 1.49299e-05 2.98619e-05)
(0.000102392 2.15037e-05 -1.04665e-05)
(0.000128874 1.49994e-05 -2.8213e-05)
(0.000133771 -1.38331e-06 -3.62402e-05)
(0.000121269 -2.09218e-05 -3.51137e-05)
(8.23229e-05 -3.23413e-05 -2.21871e-05)
(2.96697e-05 -2.15976e-05 -4.6875e-06)
(1.17312e-05 -1.83408e-05 1.95903e-06)
(-1.74399e-05 -2.27386e-05 -8.32006e-06)
(-4.67747e-05 -2.3631e-05 -2.08892e-05)
(-0.00012454 -5.30824e-05 -3.60907e-05)
(-0.000259391 -9.62571e-05 -4.52725e-05)
(-0.000372619 -0.000121643 -3.53976e-05)
(-0.000466336 -0.00013381 -1.84251e-05)
(-0.000565913 -0.000144198 -6.41736e-07)
(-0.000630238 -0.000145993 1.61027e-05)
(-0.000685335 -0.000147426 2.99511e-05)
(-0.000730344 -0.000148762 4.05838e-05)
(-0.00077099 -0.000151667 4.78748e-05)
(-0.000803461 -0.000155017 5.04943e-05)
(-0.000830792 -0.000158541 4.7792e-05)
(-0.000856761 -0.000161806 3.99143e-05)
(-0.000878612 -0.000164449 2.70487e-05)
(-0.000887269 -0.000165883 9.54885e-06)
(4.78606e-05 1.47653e-05 3.23724e-05)
(0.000101204 2.18718e-05 -7.39392e-06)
(0.000130055 1.90274e-05 -2.6575e-05)
(0.000142795 6.0009e-06 -3.77595e-05)
(0.000136926 -1.33736e-05 -4.00368e-05)
(0.000117062 -3.18766e-05 -3.41296e-05)
(7.24496e-05 -3.71354e-05 -1.77261e-05)
(2.5039e-05 -2.28567e-05 -2.24941e-06)
(1.06345e-05 -2.82352e-05 3.90252e-06)
(-2.13609e-05 -1.68823e-05 -9.27197e-06)
(-5.87067e-05 -2.65185e-05 -2.38612e-05)
(-7.50464e-05 -2.9025e-05 -1.99061e-05)
(-0.00023284 -7.94985e-05 -3.64917e-05)
(-0.000341572 -0.000102873 -2.80509e-05)
(-0.000402831 -0.00010833 -1.19868e-05)
(-0.000481444 -0.000116549 3.59179e-06)
(-0.000544141 -0.000121419 1.78091e-05)
(-0.00059751 -0.00012571 2.9803e-05)
(-0.000632285 -0.000128354 3.81295e-05)
(-0.000659222 -0.000131366 4.18143e-05)
(-0.000681947 -0.000134684 4.02817e-05)
(-0.000703395 -0.000137581 3.38631e-05)
(-0.000721473 -0.000139874 2.30778e-05)
(-0.000728375 -0.000141109 8.19343e-06)
(4.96211e-05 1.43994e-05 3.54647e-05)
(9.61269e-05 2.12423e-05 -4.29952e-06)
(0.000124706 2.08427e-05 -2.33771e-05)
(0.000137772 1.1545e-05 -3.51479e-05)
(0.000139686 -4.64646e-06 -4.06242e-05)
(0.000127303 -2.32306e-05 -3.81898e-05)
(0.000106639 -3.89436e-05 -2.98185e-05)
(6.04057e-05 -3.7199e-05 -1.26991e-05)
(4.59831e-05 -4.73735e-05 -1.33782e-06)
(5.45562e-06 -2.65561e-05 4.05579e-08)
(-3.49112e-05 -2.27187e-05 -2.07414e-05)
(-5.73333e-05 -2.58849e-05 -2.31041e-05)
(-8.25913e-05 -3.0642e-05 -2.01968e-05)
(-0.000189633 -6.03364e-05 -2.6592e-05)
(-0.000298531 -8.486e-05 -2.08326e-05)
(-0.000350113 -9.06352e-05 -6.44442e-06)
(-0.000395004 -9.47203e-05 6.81633e-06)
(-0.000423647 -9.64235e-05 1.78891e-05)
(-0.000456388 -0.000100311 2.6605e-05)
(-0.000478982 -0.000103479 3.09718e-05)
(-0.000496012 -0.000106754 3.0544e-05)
(-0.000512932 -0.000109359 2.59381e-05)
(-0.000527885 -0.000111621 1.78436e-05)
(-0.0005324 -0.000112546 6.36976e-06)
(4.96379e-05 1.42069e-05 3.88703e-05)
(8.8084e-05 2.05189e-05 -1.91349e-06)
(0.000115348 2.16671e-05 -2.01489e-05)
(0.000128366 1.47348e-05 -3.13957e-05)
(0.000131659 2.13609e-06 -3.75411e-05)
(0.000127986 -1.4296e-05 -3.85826e-05)
(0.000113532 -3.02547e-05 -3.32184e-05)
(9.65145e-05 -4.2822e-05 -2.53191e-05)
(5.24206e-05 -3.60693e-05 -1.12074e-05)
(2.39293e-05 -2.96359e-05 -3.98469e-06)
(-1.34348e-06 -1.71559e-05 -7.05607e-06)
(-2.05452e-05 -1.25863e-05 -1.3782e-05)
(-4.39385e-05 -1.8808e-05 -1.74616e-05)
(-0.00012009 -4.36815e-05 -2.80582e-05)
(-8.80556e-05 -2.67495e-05 -1.13017e-05)
(-0.000195079 -5.52925e-05 -1.14141e-05)
(-0.000249247 -6.7344e-05 -1.3673e-06)
(-0.000308836 -7.6615e-05 9.84151e-06)
(-0.000329757 -8.00283e-05 1.81976e-05)
(-0.000347469 -8.35862e-05 2.30779e-05)
(-0.000358255 -8.62254e-05 2.34682e-05)
(-0.000372479 -8.8812e-05 2.01477e-05)
(-0.00038334 -9.08231e-05 1.39469e-05)
(-0.000387125 -9.21115e-05 5.00696e-06)
(4.80967e-05 1.51507e-05 4.28857e-05)
(7.87238e-05 2.07215e-05 -8.60743e-07)
(0.000101871 2.20819e-05 -1.7367e-05)
(0.000113216 1.65469e-05 -2.67064e-05)
(0.000117872 6.36159e-06 -3.24926e-05)
(0.000117411 -7.04851e-06 -3.4799e-05)
(0.000113575 -2.26013e-05 -3.33529e-05)
(0.000101675 -3.53493e-05 -2.76878e-05)
(8.99077e-05 -4.51791e-05 -2.24878e-05)
(4.43347e-05 -3.27512e-05 -1.09739e-05)
(1.51948e-05 -2.03624e-05 -6.87627e-06)
(-5.21114e-06 -1.2849e-05 -1.24091e-05)
(-3.80662e-05 -2.19017e-05 -2.91724e-05)
(-3.77457e-05 -1.69238e-05 -1.60073e-05)
(-9.93612e-05 -3.84696e-05 -2.38092e-05)
(-6.40017e-05 -2.20133e-05 -7.84458e-06)
(-0.00013276 -4.07626e-05 -5.49232e-06)
(-7.94668e-05 -2.24947e-05 9.70169e-07)
(-0.000131216 -3.59373e-05 6.30531e-06)
(-0.000136257 -3.91144e-05 9.26256e-06)
(-0.000152665 -4.25088e-05 1.07572e-05)
(-0.000153892 -4.36064e-05 8.94766e-06)
(-0.00016327 -4.61511e-05 6.4541e-06)
(-0.000159874 -4.6633e-05 2.26331e-06)
(4.42661e-05 1.71862e-05 4.66625e-05)
(6.47999e-05 2.05352e-05 -7.87864e-07)
(8.21905e-05 2.11931e-05 -1.42107e-05)
(9.14985e-05 1.65893e-05 -2.07761e-05)
(9.68586e-05 8.58398e-06 -2.52035e-05)
(9.99649e-05 -2.455e-06 -2.81079e-05)
(0.00010114 -1.59925e-05 -2.8481e-05)
(0.000102489 -2.98036e-05 -2.72056e-05)
(9.43182e-05 -3.83744e-05 -2.39448e-05)
(8.32911e-05 -4.52528e-05 -2.25866e-05)
(3.93992e-05 -3.11039e-05 -1.44719e-05)
(1.87063e-05 -2.87228e-05 -2.01902e-05)
(-7.64368e-06 -1.38237e-05 -2.11233e-05)
(-3.16825e-05 -1.92404e-05 -3.08642e-05)
(-4.02626e-05 -2.11267e-05 -2.04929e-05)
(-5.80211e-05 -2.57065e-05 -1.52143e-05)
(-9.46331e-05 -3.70032e-05 -1.20168e-05)
(-5.19254e-05 -1.98373e-05 -1.78478e-06)
(-0.000113812 -4.26829e-05 3.50331e-06)
(-9.51076e-05 -3.63835e-05 6.46602e-06)
(-0.000124517 -4.89835e-05 9.357e-06)
(-5.87894e-05 -2.36566e-05 3.7911e-06)
(-6.01463e-05 -2.4178e-05 2.74443e-06)
(-0.000110642 -4.37786e-05 1.9084e-06)
(3.81321e-05 1.95545e-05 4.89064e-05)
(5.16033e-05 2.05407e-05 -1.31779e-06)
(6.05725e-05 1.89268e-05 -1.12465e-05)
(6.56336e-05 1.43786e-05 -1.46208e-05)
(7.05188e-05 8.17315e-06 -1.7079e-05)
(7.59856e-05 -7.15526e-07 -1.93804e-05)
(8.34726e-05 -1.23901e-05 -2.10845e-05)
(9.0764e-05 -2.42462e-05 -2.18302e-05)
(9.67889e-05 -3.46055e-05 -2.30026e-05)
(8.84874e-05 -3.93976e-05 -2.30007e-05)
(7.47123e-05 -4.29485e-05 -2.53892e-05)
(3.51029e-05 -2.96429e-05 -2.07973e-05)
(1.54492e-05 -2.49165e-05 -2.99371e-05)
(-2.86527e-06 -8.96761e-06 -1.7492e-05)
(-1.84294e-05 -1.66019e-05 -2.9227e-05)
(-1.73317e-05 -1.12456e-05 -1.34117e-05)
(-3.65878e-05 -2.26043e-05 -1.44357e-05)
(-5.53762e-05 -3.09647e-05 -9.54645e-06)
(-2.93278e-05 -1.72261e-05 -7.3947e-07)
(-6.37176e-05 -3.50704e-05 3.77842e-06)
(-3.02812e-05 -1.85131e-05 2.46809e-06)
(-5.72133e-05 -3.45985e-05 4.44444e-06)
(-5.92194e-05 -3.58489e-05 3.4409e-06)
(-7.22519e-05 -4.13183e-05 1.71201e-06)
(3.06257e-05 2.1505e-05 4.89216e-05)
(4.03653e-05 2.07828e-05 -2.30501e-06)
(4.33861e-05 1.66256e-05 -9.7772e-06)
(4.41044e-05 1.12879e-05 -1.0676e-05)
(4.64005e-05 5.69645e-06 -1.10947e-05)
(5.29392e-05 -1.87595e-06 -1.21282e-05)
(6.37525e-05 -1.18433e-05 -1.33841e-05)
(7.75781e-05 -2.19439e-05 -1.54577e-05)
(8.6657e-05 -2.99155e-05 -1.79614e-05)
(9.15288e-05 -3.68986e-05 -2.15723e-05)
(8.16899e-05 -3.91183e-05 -2.45931e-05)
(6.64701e-05 -4.00355e-05 -3.05927e-05)
(3.22176e-05 -2.79218e-05 -2.90566e-05)
(1.60581e-05 -2.43728e-05 -3.90511e-05)
(5.16358e-07 -1.32998e-05 -3.11054e-05)
(-6.30597e-06 -1.29221e-05 -2.82176e-05)
(-7.51582e-06 -1.04934e-05 -1.64353e-05)
(-1.37343e-05 -1.67742e-05 -1.40015e-05)
(-1.91536e-05 -2.30943e-05 -9.21669e-06)
(-9.69448e-06 -1.29817e-05 -1.6532e-06)
(-1.96917e-05 -2.93274e-05 -3.9623e-07)
(-1.33456e-05 -1.89019e-05 4.05511e-07)
(-1.4019e-05 -1.96122e-05 5.65447e-07)
(-2.32817e-05 -3.48013e-05 3.35739e-07)
(2.30858e-05 2.25857e-05 4.62347e-05)
(3.04445e-05 2.03833e-05 -3.86121e-06)
(3.15928e-05 1.47782e-05 -9.8003e-06)
(3.15992e-05 8.90647e-06 -9.86634e-06)
(3.28126e-05 2.60666e-06 -9.14958e-06)
(3.95387e-05 -5.56645e-06 -8.78842e-06)
(5.20332e-05 -1.5118e-05 -8.73999e-06)
(6.54843e-05 -2.29679e-05 -9.89833e-06)
(7.81838e-05 -2.92846e-05 -1.31623e-05)
(8.34132e-05 -3.36288e-05 -1.70986e-05)
(8.48902e-05 -3.78093e-05 -2.25824e-05)
(7.50471e-05 -3.83886e-05 -2.88954e-05)
(6.07397e-05 -3.78228e-05 -3.8326e-05)
(3.56639e-05 -2.86529e-05 -4.09903e-05)
(1.06584e-05 -1.28442e-05 -2.41615e-05)
(1.14741e-05 -2.37858e-05 -5.41396e-05)
(2.61188e-06 -1.05788e-05 -2.39209e-05)