/*--------------------------------*- C++ -*----------------------------------*\
  =========                 |
  \\      /  F ield         | OpenFOAM: The Open Source CFD Toolbox
   \\    /   O peration     | Website:  https://openfoam.org
    \\  /    A nd           | Version:  6
     \\/     M anipulation  |
\*---------------------------------------------------------------------------*/
FoamFile
{
    version     2.0;
    format      ascii;
    class       volScalarField;
    location    "12";
    object      omega;
}
// * * * * * * * * * * * * * * * * * * * * * * * * * * * * * * * * * * * * * //

dimensions      [0 0 -1 0 0 0 0];

internalField   nonuniform List<scalar> 
380496
(
843.917
843.917
843.917
843.917
843.917
843.917
843.917
843.917
843.917
843.917
843.917
843.917
843.917
843.917
843.917
843.917
843.917
843.917
843.917
843.917
843.917
843.917
843.917
843.917
843.917
843.917
843.917
843.917
843.917
843.917
843.917
843.917
843.917
843.917
843.917
843.917
843.917
843.917
843.917
843.917
843.917
843.917
843.917
843.917
843.917
843.917
843.917
843.917
843.917
843.917
843.917
843.917
843.917
843.917
843.917
843.917
843.917
843.917
843.917
843.917
843.917
843.917
843.917
843.917
843.917
843.917
843.917
843.917
843.917
843.917
843.917
843.917
843.917
843.917
843.917
843.917
843.917
843.917
843.917
843.917
843.917
843.917
843.917
843.917
843.917
843.917
843.917
843.917
843.917
843.917
843.917
843.917
843.917
843.917
843.917
843.917
843.917
843.917
843.917
843.917
843.917
843.917
843.917
843.917
843.917
843.917
843.917
843.917
843.917
843.917
843.917
843.917
843.917
843.917
843.917
843.917
843.917
843.917
843.917
843.917
843.917
843.917
843.917
843.917
843.917
843.917
843.917
843.917
843.917
843.917
843.917
843.917
843.917
843.917
843.917
843.917
843.917
843.917
843.917
843.917
843.917
843.917
843.917
843.917
843.917
843.917
843.917
843.917
843.917
843.917
843.917
843.917
843.917
843.917
843.917
843.917
843.917
843.917
843.917
843.917
843.917
843.917
843.917
843.917
843.917
843.917
843.917
843.917
843.917
843.917
843.917
843.917
843.917
843.917
843.917
843.917
843.917
843.917
843.917
843.917
843.917
843.917
843.917
843.917
843.917
843.917
843.917
843.917
843.917
843.917
843.917
843.917
843.917
843.917
843.917
843.917
843.917
843.917
843.917
843.917
843.917
843.917
843.917
843.917
843.917
843.917
843.917
843.917
843.917
843.917
843.917
843.917
843.917
843.917
843.917
843.917
843.917
843.917
843.917
843.917
843.917
843.917
843.917
843.917
843.917
843.917
843.917
843.917
843.917
843.917
843.917
843.917
843.917
843.917
843.917
843.917
843.917
843.917
843.917
843.917
843.917
843.917
843.917
843.917
843.917
843.917
843.917
843.917
843.917
843.917
843.917
843.917
843.917
843.917
843.917
843.917
843.917
843.917
843.917
843.917
843.917
843.917
843.917
843.917
843.917
843.917
843.917
843.917
843.917
843.917
843.917
843.917
843.917
843.917
843.917
843.917
843.917
843.917
843.917
843.917
843.917
843.917
843.917
843.917
843.917
843.917
843.917
843.917
843.917
843.917
843.917
843.917
843.917
843.917
843.917
843.917
843.917
843.917
843.917
843.917
843.917
843.917
843.917
843.917
843.917
843.917
843.917
843.917
843.917
843.917
843.917
843.917
843.917
843.917
843.917
843.917
843.917
843.917
843.917
843.917
843.917
843.917
843.917
843.917
843.917
843.917
843.917
843.917
843.917
843.917
843.917
843.917
843.917
843.917
843.917
843.917
843.917
843.917
843.917
843.917
843.917
843.917
843.917
843.917
843.917
843.917
843.917
843.917
843.917
843.917
843.917
843.917
843.917
843.917
843.917
843.917
843.917
843.917
843.917
843.917
843.917
843.917
843.917
843.917
843.917
843.917
843.917
843.917
843.917
843.917
843.917
843.917
843.917
843.917
843.917
843.917
843.917
843.917
843.917
843.917
843.917
843.917
843.917
843.917
843.917
843.917
843.917
843.917
843.917
843.917
843.917
843.917
843.917
843.917
843.917
843.917
843.917
843.917
843.917
843.917
843.917
843.917
843.917
843.917
843.917
843.917
843.917
843.917
843.917
843.917
843.917
843.917
843.917
843.917
843.917
843.917
843.917
843.917
843.917
843.917
843.917
843.917
843.917
843.917
843.917
843.917
843.917
843.917
843.917
843.917
843.917
843.917
843.917
843.917
843.917
843.917
843.917
843.917
843.917
843.917
843.917
843.917
843.917
843.917
843.917
843.917
843.917
843.917
843.917
843.917
843.917
843.917
843.917
843.917
843.917
843.917
843.917
843.917
843.917
843.917
843.917
843.917
843.917
843.917
843.917
843.917
843.917
843.917
843.917
843.917
843.917
843.917
843.917
843.917
843.917
843.917
843.917
843.917
843.917
843.917
843.917
843.917
843.917
843.917
843.917
843.917
843.917
843.917
843.917
843.917
843.917
843.917
843.917
843.917
843.917
843.917
843.917
843.917
843.917
843.917
843.917
843.917
843.917
843.917
843.917
843.917
843.917
843.917
843.917
843.917
843.917
843.917
843.917
843.917
843.917
843.917
843.917
843.917
843.917
843.917
843.917
843.917
843.917
843.917
843.917
843.917
843.917
843.917
843.917
843.917
843.917
843.917
843.917
843.917
843.917
843.917
843.917
843.917
843.917
843.917
843.917
843.917
843.917
843.917
843.917
843.917
843.917
843.917
843.917
843.917
843.917
843.917
843.917
843.917
843.917
843.917
843.917
843.917
843.917
843.917
843.917
843.917
843.917
843.917
843.917
843.917
843.917
843.917
843.917
843.917
843.917
843.917
843.917
843.917
843.917
843.917
843.917
843.917
843.917
843.917
843.917
843.917
843.917
843.917
843.917
843.917
843.917
843.917
843.917
843.917
843.917
843.917
843.917
843.917
843.917
843.917
843.917
843.917
843.917
843.917
843.917
843.917
843.917
843.917
843.917
843.917
843.917
843.917
843.917
843.917
843.917
843.917
843.917
843.917
843.917
843.917
843.917
843.917
843.917
843.917
843.917
843.917
843.917
843.917
843.917
843.917
843.917
843.917
843.917
843.917
843.917
843.917
843.917
843.917
843.917
843.917
843.917
843.917
843.917
843.917
843.917
843.917
843.917
843.917
843.917
843.917
843.917
843.917
843.917
843.917
843.917
843.917
843.917
843.917
843.917
843.917
843.917
843.917
843.917
843.917
843.917
843.917
843.917
843.917
843.917
843.917
843.917
843.917
843.917
843.917
843.917
843.917
843.917
843.917
843.917
843.917
843.917
843.917
843.917
843.917
843.917
843.917
843.917
843.917
843.917
843.917
843.917
843.917
843.917
843.917
843.917
843.917
843.917
843.917
843.917
843.917
843.917
843.917
843.917
843.917
423.923
423.923
423.923
423.923
423.923
423.923
423.923
423.923
423.923
423.923
423.923
423.923
423.923
423.923
423.923
423.923
423.923
423.923
423.923
423.923
423.923
423.923
423.923
423.923
423.923
423.923
423.923
423.923
423.923
423.923
423.923
423.923
423.923
423.923
423.923
281.629
267.585
268.721
269.801
269.895
269.737
269.627
269.56
269.529
269.505
269.498
269.49
269.494
269.493
269.504
269.508
269.524
269.531
269.551
269.561
269.584
269.599
269.623
269.646
269.669
269.704
269.723
269.772
269.782
269.849
269.842
269.93
269.897
270.011
269.934
281.466
267.57
268.644
269.677
269.745
269.584
269.467
269.404
269.368
269.351
269.341
269.342
269.344
269.356
269.363
269.383
269.394
269.42
269.434
269.467
269.482
269.523
269.54
269.59
269.609
269.667
269.689
269.753
269.777
269.843
269.868
269.932
269.944
270.017
269.934
281.132
267.395
268.47
269.469
269.513
269.345
269.224
269.164
269.129
269.118
269.111
269.122
269.128
269.152
269.166
269.198
269.217
269.258
269.282
269.331
269.358
269.416
269.448
269.515
269.552
269.628
269.669
269.753
269.795
269.888
269.924
270.028
270.038
270.177
270.076
280.564
267.016
268.172
269.146
269.156
268.975
268.852
268.794
268.763
268.76
268.761
268.781
268.797
268.832
268.856
268.901
268.933
268.987
269.024
269.088
269.13
269.205
269.253
269.339
269.392
269.489
269.547
269.655
269.714
269.832
269.886
270.015
270.043
270.209
270.122
280.147
266.78
267.825
268.73
268.721
268.536
268.413
268.356
268.33
268.331
268.339
268.366
268.391
268.435
268.47
268.527
268.57
268.638
268.689
268.768
268.826
268.919
268.984
269.09
269.162
269.281
269.359
269.491
269.572
269.716
269.793
269.953
270.002
270.21
270.135
279.34
266.188
267.27
268.13
268.089
267.895
267.773
267.723
267.706
267.718
267.738
267.778
267.817
267.875
267.925
267.996
268.055
268.139
268.207
268.305
268.382
268.493
268.579
268.706
268.8
268.941
269.043
269.199
269.304
269.475
269.577
269.767
269.839
270.086
270.022
278.499
265.569
266.589
267.379
267.311
267.11
266.992
266.947
266.939
266.961
266.993
267.045
267.097
267.168
267.233
267.318
267.394
267.494
267.58
267.696
267.792
267.924
268.031
268.18
268.297
268.462
268.588
268.77
268.9
269.1
269.228
269.449
269.547
269.834
269.787
277.443
264.751
265.704
266.419
266.322
266.118
266.005
265.969
265.973
266.007
266.053
266.118
266.185
266.27
266.351
266.452
266.545
266.662
266.767
266.901
267.018
267.17
267.299
267.47
267.61
267.799
267.949
268.158
268.314
268.541
268.695
268.948
269.071
269.397
269.362
276.189
263.731
264.627
265.262
265.135
264.928
264.825
264.803
264.823
264.873
264.936
265.017
265.102
265.203
265.301
265.419
265.53
265.664
265.788
265.941
266.079
266.251
266.402
266.595
266.758
266.971
267.145
267.379
267.56
267.813
267.993
268.275
268.423
268.785
268.764
274.955
262.703
263.448
263.995
263.848
263.643
263.55
263.538
263.57
263.632
263.709
263.802
263.9
264.014
264.127
264.258
264.385
264.535
264.676
264.846
265.002
265.192
265.363
265.575
265.76
265.994
266.19
266.446
266.649
266.927
267.13
267.437
267.606
268
267.989
273.277
261.258
261.953
262.421
262.246
262.047
261.974
261.984
262.041
262.125
262.224
262.337
262.455
262.587
262.718
262.867
263.013
263.18
263.341
263.529
263.705
263.915
264.107
264.34
264.546
264.802
265.02
265.298
265.524
265.826
266.051
266.384
266.574
266.998
266.997
271.66
259.849
260.311
260.675
260.486
260.297
260.238
260.262
260.332
260.43
260.542
260.668
260.8
260.945
261.092
261.254
261.416
261.598
261.776
261.98
262.175
262.403
262.614
262.867
263.094
263.37
263.61
263.909
264.157
264.481
264.728
265.084
265.294
265.748
265.754
269.373
257.803
258.186
258.471
258.265
258.097
258.073
258.132
258.235
258.362
258.501
258.651
258.806
258.971
259.139
259.321
259.503
259.704
259.903
260.126
260.342
260.59
260.823
261.096
261.345
261.643
261.905
262.227
262.498
262.844
263.113
263.493
263.723
264.204
264.219
267.102
255.734
255.824
256.003
255.789
255.645
255.646
255.728
255.852
255.999
256.157
256.324
256.496
256.678
256.863
257.06
257.26
257.478
257.696
257.937
258.173
258.44
258.694
258.987
259.258
259.577
259.861
260.205
260.497
260.865
261.156
261.559
261.809
262.317
262.338
264.032
252.897
252.814
252.918
252.707
252.608
252.659
252.787
252.951
253.133
253.321
253.516
253.713
253.917
254.125
254.344
254.566
254.804
255.044
255.305
255.565
255.851
256.13
256.443
256.738
257.078
257.387
257.752
258.068
258.459
258.773
259.197
259.469
260.003
260.031
260.551
249.612
249.24
249.27
249.077
249.031
249.131
249.307
249.508
249.726
249.943
250.165
250.386
250.613
250.842
251.081
251.324
251.582
251.843
252.123
252.405
252.711
253.013
253.346
253.665
254.026
254.359
254.745
255.086
255.498
255.836
256.282
256.577
257.134
257.169
256.376
245.606
244.855
244.805
244.643
244.667
244.827
245.054
245.292
245.544
245.785
246.033
246.272
246.521
246.766
247.025
247.284
247.56
247.839
248.138
248.44
248.765
249.089
249.441
249.785
250.166
250.524
250.932
251.298
251.737
252.098
252.576
252.892
253.481
253.533
249.996
239.623
238.825
238.826
238.729
238.85
239.097
239.401
239.696
239.999
240.275
240.558
240.819
241.094
241.355
241.636
241.91
242.207
242.502
242.823
243.143
243.492
243.837
244.22
244.592
245.007
245.397
245.842
246.242
246.716
247.113
247.621
247.979
248.588
248.684
240.797
231.46
230.49
230.66
230.736
230.99
231.309
231.645
231.947
232.248
232.512
232.788
233.037
233.309
233.563
233.847
234.119
234.426
234.723
235.057
235.398
235.792
236.179
236.609
237.029
237.489
237.936
238.424
238.885
239.407
239.874
240.43
240.866
241.506
241.729
214.295
212.131
212.392
213.324
213.967
214.714
215.451
216.141
216.762
217.354
217.896
218.433
218.935
219.449
219.936
220.445
220.931
221.446
221.94
222.469
222.977
223.52
224.044
224.602
225.142
225.712
226.266
226.843
227.407
227.982
228.55
229.113
229.677
230.179
230.895
9.02173
7.66494
7.59392
7.56343
7.61945
7.69589
7.79343
7.89227
8.00153
8.10283
8.20954
8.3054
8.40603
8.49551
8.59093
8.67534
8.76755
8.84872
8.93969
9.01862
9.10999
9.18701
9.2805
9.35499
9.4526
9.5226
9.62701
9.6887
9.80393
9.85069
9.98318
10.003
10.1637
10.1297
10.3371
135.248
128.88
128.552
129.045
129.241
129.234
129.181
129.131
129.093
129.065
129.045
129.031
129.023
129.018
129.017
129.019
129.024
129.031
129.04
129.052
129.066
129.082
129.101
129.122
129.148
129.172
129.209
129.235
129.287
129.311
129.386
129.404
129.511
129.515
129.674
135.076
128.679
128.313
128.781
128.965
128.953
128.897
128.845
128.806
128.779
128.76
128.748
128.741
128.74
128.742
128.748
128.757
128.768
128.783
128.799
128.82
128.84
128.867
128.893
128.927
128.958
129
129.037
129.089
129.134
129.192
129.253
129.302
129.407
129.388
134.794
128.386
128.005
128.459
128.634
128.617
128.558
128.507
128.468
128.443
128.426
128.418
128.416
128.419
128.427
128.439
128.454
128.472
128.495
128.519
128.548
128.577
128.613
128.649
128.693
128.734
128.789
128.836
128.902
128.954
129.034
129.092
129.181
129.261
129.323
134.361
127.975
127.613
128.064
128.228
128.204
128.142
128.09
128.053
128.03
128.018
128.015
128.018
128.027
128.041
128.059
128.082
128.107
128.137
128.169
128.206
128.244
128.289
128.333
128.387
128.438
128.502
128.558
128.634
128.696
128.784
128.855
128.944
129.046
129.089
134.043
127.65
127.238
127.653
127.8
127.769
127.703
127.649
127.611
127.589
127.579
127.578
127.585
127.598
127.616
127.64
127.668
127.699
127.735
127.774
127.818
127.864
127.917
127.97
128.033
128.092
128.166
128.232
128.318
128.39
128.488
128.569
128.668
128.782
128.835
133.489
127.122
126.72
127.122
127.255
127.215
127.145
127.091
127.056
127.039
127.033
127.039
127.051
127.072
127.097
127.128
127.163
127.202
127.246
127.293
127.345
127.4
127.462
127.524
127.595
127.665
127.747
127.823
127.918
128
128.107
128.197
128.303
128.428
128.484
132.924
126.585
126.16
126.529
126.642
126.591
126.517
126.462
126.428
126.414
126.412
126.423
126.441
126.467
126.498
126.535
126.577
126.623
126.674
126.729
126.789
126.852
126.922
126.993
127.074
127.152
127.244
127.33
127.434
127.525
127.641
127.742
127.854
127.992
128.049
132.248
125.942
125.496
125.831
125.921
125.859
125.781
125.726
125.695
125.684
125.687
125.703
125.727
125.76
125.797
125.841
125.89
125.944
126.002
126.065
126.133
126.204
126.282
126.362
126.451
126.538
126.639
126.733
126.846
126.947
127.07
127.181
127.298
127.449
127.506
131.463
125.209
124.747
125.046
125.111
125.036
124.954
124.9
124.873
124.868
124.878
124.901
124.932
124.972
125.017
125.068
125.124
125.186
125.251
125.322
125.398
125.478
125.564
125.652
125.749
125.846
125.954
126.058
126.178
126.289
126.419
126.54
126.662
126.825
126.881
130.701
124.496
123.979
124.226
124.264
124.178
124.093
124.039
124.014
124.013
124.028
124.056
124.093
124.138
124.189
124.246
124.308
124.376
124.448
124.526
124.608
124.695
124.788
124.884
124.988
125.093
125.209
125.32
125.448
125.566
125.703
125.832
125.959
126.133
126.187
129.711
123.569
123.042
123.253
123.264
123.165
123.078
123.029
123.012
123.02
123.044
123.081
123.126
123.18
123.239
123.304
123.374
123.45
123.53
123.615
123.705
123.8
123.901
124.005
124.117
124.23
124.353
124.474
124.608
124.735
124.878
125.016
125.147
125.332
125.385
128.745
122.677
122.06
122.199
122.175
122.065
121.976
121.929
121.916
121.929
121.958
122.001
122.052
122.112
122.177
122.249
122.325
122.407
122.494
122.586
122.683
122.785
122.894
123.005
123.125
123.245
123.376
123.504
123.646
123.781
123.93
124.077
124.212
124.408
124.459
127.448
121.46
120.82
120.916
120.862
120.741
120.656
120.618
120.617
120.641
120.683
120.737
120.799
120.869
120.944
121.025
121.11
121.2
121.296
121.396
121.502
121.613
121.729
121.85
121.977
122.107
122.246
122.382
122.532
122.675
122.832
122.988
123.128
123.336
123.384
126.136
120.247
119.484
119.491
119.398
119.266
119.182
119.15
119.157
119.191
119.242
119.304
119.375
119.453
119.536
119.624
119.717
119.816
119.919
120.028
120.141
120.26
120.385
120.514
120.65
120.788
120.935
121.081
121.239
121.39
121.554
121.72
121.864
122.084
122.129
124.43
118.648
117.81
117.753
117.625
117.487
117.413
117.397
117.42
117.47
117.536
117.612
117.695
117.784
117.878
117.977
118.08
118.188
118.301
118.419
118.542
118.671
118.805
118.943
119.089
119.236
119.393
119.547
119.714
119.876
120.048
120.223
120.373
120.606
120.649
122.481
116.821
115.841
115.7
115.534
115.393
115.33
115.33
115.371
115.437
115.518
115.608
115.704
115.805
115.91
116.019
116.132
116.25
116.372
116.499
116.632
116.769
116.913
117.061
117.216
117.373
117.539
117.703
117.879
118.051
118.232
118.416
118.574
118.82
118.859
120.129
114.623
113.442
113.184
112.972
112.832
112.785
112.807
112.865
112.949
113.043
113.146
113.252
113.363
113.476
113.593
113.714
113.84
113.97
114.106
114.247
114.394
114.546
114.704
114.868
115.035
115.211
115.386
115.573
115.756
115.949
116.146
116.316
116.578
116.621
116.507
111.184
110.003
109.758
109.545
109.422
109.398
109.445
109.522
109.624
109.73
109.845
109.959
110.08
110.2
110.327
110.456
110.592
110.731
110.878
111.03
111.189
111.354
111.526
111.707
111.892
112.087
112.281
112.488
112.69
112.903
113.117
113.309
113.584
113.649
111.045
106.317
104.833
104.498
104.27
104.172
104.174
104.245
104.34
104.463
104.586
104.725
104.86
105.009
105.154
105.314
105.472
105.644
105.815
106.003
106.19
106.387
106.586
106.794
107.008
107.228
107.455
107.683
107.922
108.159
108.409
108.658
108.896
109.193
109.338
95.7371
95.7825
94.6641
94.3742
94.1696
94.1473
94.2663
94.4693
94.7089
94.9758
95.2466
95.5287
95.8067
96.0926
96.3727
96.6603
96.9422
97.232
97.5173
97.8111
98.1016
98.4002
98.6963
98.9997
99.3015
99.6093
99.9159
100.227
100.536
100.848
101.159
101.462
101.785
102.042
102.458
11.4423
9.87752
9.84425
9.89117
10.0106
10.1383
10.2798
10.4141
10.5555
10.6834
10.8154
10.9323
11.0537
11.1606
11.2741
11.3735
11.4819
11.5766
11.6826
11.774
11.8798
11.9684
12.0761
12.1614
12.2733
12.3533
12.4724
12.5429
12.6736
12.7279
12.8768
12.9034
13.0805
13.0584
13.2721
79.7825
77.2364
76.6746
76.7668
76.8923
76.9354
76.928
76.9044
76.8774
76.8543
76.8339
76.8189
76.8058
76.7979
76.7906
76.7883
76.7853
76.7874
76.7881
76.7935
76.798
76.8053
76.8148
76.8226
76.8391
76.845
76.8722
76.8727
76.9161
76.9062
76.9733
76.9479
77.0468
77.0002
77.1453
79.595
77.0489
76.4706
76.5476
76.6648
76.7022
76.6921
76.6654
76.6376
76.6129
76.5934
76.5775
76.5669
76.5584
76.5551
76.552
76.5546
76.5554
76.5632
76.5667
76.5795
76.585
76.603
76.6103
76.6338
76.6431
76.6719
76.6847
76.7175
76.7374
76.7696
76.8056
76.8228
76.8961
76.8719
79.3539
76.8067
76.2186
76.2866
76.3981
76.4314
76.4187
76.3901
76.3618
76.3366
76.3182
76.3031
76.2947
76.2879
76.2877
76.2869
76.2934
76.2971
76.3092
76.3164
76.3339
76.3438
76.3668
76.3791
76.4082
76.4225
76.4588
76.4744
76.5199
76.5356
76.5924
76.6086
76.6748
76.6977
76.7693
79.0384
76.4932
75.9091
75.9763
76.084
76.1132
76.0972
76.0666
76.0377
76.0129
75.9957
75.9824
75.9766
75.9724
75.9755
75.978
75.9882
75.9956
76.012
76.0231
76.0453
76.0595
76.0877
76.1044
76.1393
76.1581
76.2005
76.2209
76.2718
76.2938
76.3531
76.3801
76.4396
76.4848
76.5294
78.7525
76.218
75.6164
75.6641
75.7586
75.7796
75.7584
75.7244
75.6932
75.6673
75.6497
75.637
75.632
75.6294
75.6343
75.639
75.6517
75.6619
75.6812
75.6956
75.7214
75.7392
75.7716
75.7921
75.8317
75.8545
75.9022
75.9266
75.9835
76.0093
76.0753
76.1054
76.1733
76.2198
76.2773
78.3535
75.8243
75.2269
75.2706
75.3579
75.3724
75.3465
75.3099
75.2777
75.2523
75.2361
75.2255
75.2231
75.2236
75.2316
75.2399
75.2562
75.2703
75.2936
75.3122
75.3421
75.3644
75.4011
75.4264
75.4705
75.4982
75.5506
75.5798
75.6417
75.6718
75.743
75.7766
75.8496
75.8986
75.9605
77.928
75.4143
74.8115
74.8408
74.9147
74.9195
74.887
74.8466
74.8124
74.7866
74.7709
74.7618
74.7613
74.7643
74.7749
74.7862
74.8055
74.823
74.8496
74.872
74.9056
74.9318
74.9725
75.002
75.0504
75.0823
75.1392
75.1727
75.2391
75.2736
75.349
75.3874
75.4636
75.5179
75.5824
77.4333
74.9365
74.3308
74.3454
74.4044
74.3981
74.3585
74.3141
74.278
74.2521
74.2372
74.23
74.2316
74.2374
74.2508
74.2655
74.2879
74.309
74.3391
74.3653
74.4025
74.4329
74.4775
74.5111
74.5636
74.5998
74.6609
74.6986
74.7693
74.8078
74.8873
74.9296
75.009
75.0672
75.1338
76.8736
74.4023
73.7985
73.7988
73.8415
73.8225
73.7749
73.7265
73.689
73.6637
73.6505
73.6458
73.6503
73.6594
73.6761
73.6944
73.7202
73.7452
73.7788
73.8089
73.85
73.8843
73.9328
73.9705
74.027
74.0673
74.1325
74.1743
74.2489
74.2916
74.3746
74.4212
74.5031
74.5661
74.6339
76.3104
73.8743
73.2586
73.2339
73.2555
73.2227
73.167
73.1144
73.0752
73.05
73.0378
73.035
73.0417
73.0534
73.0727
73.094
73.1228
73.151
73.1876
73.2212
73.2654
73.3033
73.3552
73.3966
73.4566
73.5006
73.5694
73.6149
73.6931
73.7393
73.8256
73.8759
73.96
74.0271
74.0956
75.627
73.2228
72.6138
72.5758
72.5793
72.5323
72.4683
72.4124
72.3729
72.3495
72.3402
72.341
72.3514
72.3672
72.3903
72.4157
72.4482
72.4804
72.5208
72.5584
72.6063
72.6483
72.7039
72.7494
72.8132
72.8612
72.9339
72.9832
73.0652
73.1152
73.2049
73.2592
73.3456
73.4172
73.4864
74.9228
72.5724
71.9392
71.8626
71.8365
71.7715
71.6982
71.6383
71.5977
71.5752
71.5678
71.5712
71.5844
71.6034
71.6296
71.6584
71.6941
71.73
71.7737
71.815
71.8664
71.9121
71.9714
72.0207
72.0883
72.1401
72.2166
72.2698
72.3556
72.4094
72.5026
72.5607
72.6496
72.7257
72.7954
74.0387
71.7344
71.1046
71.0098
70.9607
70.8792
70.7979
70.7357
70.6967
70.6777
70.6746
70.683
70.701
70.725
70.7558
70.7895
70.8296
70.8701
70.918
70.9639
71.0194
71.0697
71.1331
71.187
71.2587
71.315
71.3958
71.4533
71.5433
71.6012
71.6983
71.7607
71.8525
71.9336
72.0041
73.1016
70.8709
70.2028
70.0567
69.9696
69.8666
69.7757
69.7108
69.6726
69.6564
69.6572
69.67
69.6924
69.7211
69.7563
69.7947
69.8389
69.8841
69.9361
69.9867
70.0463
70.1014
70.1689
70.2275
70.3035
70.3645
70.4497
70.5117
70.6062
70.6685
70.7698
70.8367
70.9315
71.0181
71.0889
71.9316
69.7753
69.0899
68.9083
68.788
68.6651
68.5668
68.5016
68.467
68.4563
68.4632
68.4822
68.5106
68.5452
68.5859
68.6299
68.6792
68.7298
68.7865
68.8424
68.9066
68.9669
69.039
69.1029
69.1836
69.2497
69.3396
69.4066
69.506
69.5731
69.6792
69.7509
69.8496
69.9423
70.0143
70.5749
68.5117
67.7778
67.5405
67.3781
67.2327
67.1265
67.0611
67.0307
67.0257
67.0392
67.0647
67.0995
67.1402
67.1866
67.2361
67.2904
67.3461
67.4074
67.4684
67.5369
67.6025
67.6789
67.7482
67.8333
67.9049
67.9995
68.0719
68.1762
68.2484
68.3598
68.4364
68.5397
68.6381
68.7117
68.9304
66.9871
66.1746
65.8552
65.6352
65.4626
65.3488
65.2843
65.2584
65.2583
65.2771
65.3068
65.3457
65.3896
65.4393
65.4916
65.5489
65.6078
65.6723
65.7372
65.8093
65.8796
65.9599
66.0346
66.1242
66.2016
66.3017
66.3795
66.4912
66.5672
66.6884
66.7675
66.8813
66.9856
67.0651
66.5752
64.6695
63.85
63.526
63.2869
63.0995
62.978
62.9087
62.8799
62.8766
62.8932
62.9202
62.9581
63.0008
63.0515
63.105
63.1657
63.2282
63.2981
63.3686
63.4477
63.5252
63.6142
63.6968
63.7964
63.8826
63.9941
64.0812
64.2053
64.2911
64.4253
64.5134
64.6425
64.7525
64.8508
63.0741
61.5353
60.4576
59.9521
59.6026
59.3591
59.2112
59.1312
59.102
59.1049
59.1337
59.1766
59.2351
59.3001
59.3771
59.457
59.5475
59.6393
59.7405
59.8435
59.9558
60.0626
60.1789
60.2895
60.4126
60.5271
60.6591
60.7749
60.918
61.0308
61.1846
61.2957
61.451
61.574
61.7174
55.4843
57.2194
56.1485
55.3606
54.7614
54.3506
54.1127
53.9895
53.9534
53.9656
54.0208
54.094
54.1923
54.2952
54.4161
54.5352
54.6694
54.7981
54.9411
55.0768
55.2269
55.3689
55.5245
55.6722
55.8319
55.9851
56.1474
56.3057
56.4697
56.6309
56.7989
56.9527
57.1418
57.2561
57.5207
13.0138
11.4085
11.4229
11.5539
11.741
11.9178
12.0966
12.257
12.4191
12.5612
12.7055
12.8306
12.9601
13.0718
13.1908
13.2932
13.4058
13.5022
13.6116
13.7039
13.8126
13.9017
14.0119
14.0976
14.2117
14.292
14.4132
14.4843
14.6166
14.6726
14.8218
14.8533
15.0266
15.0198
15.2186
52.8625
51.8611
51.4546
51.3869
51.4239
51.4581
51.4675
51.4615
51.4465
51.4311
51.4145
51.4013
51.3881
51.3792
51.3697
51.3649
51.3585
51.3569
51.3535
51.3538
51.3538
51.3544
51.359
51.3578
51.3692
51.3632
51.3846
51.3702
51.4058
51.3792
51.4335
51.3917
51.468
51.4111
51.5109
52.6912
51.6999
51.2906
51.2153
51.2473
51.2766
51.2838
51.2745
51.2589
51.2409
51.2252
51.2099
51.1989
51.1879
51.1821
51.1746
51.1734
51.1685
51.1716
51.1681
51.1754
51.1726
51.1839
51.1814
51.1965
51.1947
51.2125
51.2131
51.2314
51.2379
51.2517
51.2715
51.2713
51.3141
51.2927
52.4925
51.5063
51.094
51.0137
51.0421
51.0681
51.0731
51.0614
51.0447
51.0252
51.0095
50.9935
50.9835
50.9723
50.9681
50.9609
50.962
50.9577
50.9633
50.9611
50.9709
50.9698
50.9838
50.9834
51.0019
51.0012
51.0251
51.0231
51.0539
51.0492
51.0888
51.0805
51.1301
51.1161
51.1842
52.255
51.2695
50.8586
50.7783
50.8056
50.8294
50.832
50.8181
50.8001
50.7797
50.7638
50.7479
50.7387
50.7283
50.7256
50.7198
50.7227
50.7201
50.7281
50.7277
50.7403
50.7412
50.7584
50.7599
50.7821
50.7835
50.811
50.812
50.8452
50.8458
50.8839
50.8868
50.9252
50.935
50.9719
52.0124
51.0413
50.6281
50.5396
50.5585
50.5758
50.5734
50.5559
50.5351
50.5128
50.4957
50.4792
50.4697
50.4596
50.4574
50.4523
50.4563
50.4548
50.4642
50.4651
50.4795
50.4819
50.5014
50.5044
50.5292
50.5322
50.5629
50.5652
50.6023
50.6039
50.6469
50.6496
50.6953
50.7021
50.752
51.7113
50.7439
50.3343
50.2456
50.2616
50.275
50.2687
50.248
50.225
50.2014
50.1837
50.1673
50.1584
50.1492
50.1482
50.1446
50.1502
50.1505
50.1618
50.1647
50.1813
50.1859
50.2077
50.2131
50.2404
50.2458
50.2794
50.2838
50.3243
50.3274
50.3745
50.3778
50.428
50.4344
50.489
51.3809
50.4248
50.0173
49.924
49.9329
49.9394
49.9271
49.9022
49.876
49.8507
49.8318
49.8152
49.8063
49.7979
49.7977
49.7953
49.8021
49.8039
49.8167
49.8214
49.8397
49.8461
49.8699
49.8772
49.9069
49.9141
49.9502
49.9566
49.9997
50.0048
50.0544
50.0599
50.1124
50.121
50.1779
51.0013
50.0571
49.6537
49.5564
49.5575
49.556
49.537
49.5073
49.4776
49.4503
49.4303
49.4136
49.4049
49.3973
49.398
49.397
49.4052
49.4087
49.4231
49.4297
49.4499
49.4583
49.4842
49.4936
49.5254
49.5348
49.5733
49.5816
49.6274
49.6342
49.6866
49.6936
49.7489
49.7584
49.818
50.5804
49.6502
49.2541
49.1539
49.1469
49.1366
49.11
49.0749
49.0416
49.0125
48.9915
48.9749
48.9667
48.9602
48.962
48.9626
48.9722
48.9776
48.9936
49.0021
49.0241
49.0346
49.0624
49.0738
49.1078
49.1191
49.16
49.1702
49.2184
49.2271
49.2818
49.2907
49.348
49.3593
49.4208
50.1474
49.2386
48.8457
48.737
48.7177
48.6963
48.6614
48.6208
48.5839
48.5529
48.5309
48.5145
48.5066
48.5012
48.504
48.506
48.5169
48.524
48.5416
48.5519
48.5755
48.5878
48.6175
48.6308
48.6668
48.68
48.723
48.735
48.7854
48.7959
48.8528
48.8633
48.9225
48.9353
48.9984
49.6404
48.7496
48.368
48.2583
48.2303
48.1986
48.1551
48.1086
48.0681
48.0354
48.0129
47.9969
47.9898
47.9859
47.99
47.9939
48.0064
48.0155
48.0348
48.0472
48.0727
48.0871
48.1187
48.134
48.1722
48.1874
48.2326
48.2465
48.2993
48.3115
48.3708
48.383
48.4442
48.4588
48.5236
49.0986
48.2405
47.8588
47.7336
47.6866
47.6393
47.5852
47.5324
47.4882
47.4541
47.4312
47.4159
47.4098
47.4074
47.4131
47.4189
47.4331
47.4443
47.4654
47.4799
47.5074
47.5239
47.5576
47.5751
47.6155
47.6327
47.6803
47.6962
47.7515
47.7656
47.8273
47.8414
47.9047
47.9211
47.9876
48.4419
47.6137
47.2452
47.1171
47.058
46.9974
46.933
46.8737
46.8259
46.7906
46.7675
46.7534
46.7485
46.7482
46.7555
46.7637
46.7798
46.7934
46.8165
46.8335
46.863
46.882
46.9179
46.9378
46.9806
47.0002
47.0503
47.0684
47.1264
47.1425
47.2069
47.223
47.2888
47.3072
47.3758
47.7237
46.9425
46.5697
46.4188
46.3338
46.2532
46.1763
46.1101
46.0591
46.023
46.0006
45.9881
45.9851
45.9873
45.9969
46.0079
46.0262
46.0427
46.068
46.0879
46.1196
46.1415
46.1798
46.2025
46.2477
46.27
46.3228
46.3434
46.4043
46.4227
46.4901
46.5084
46.5768
46.5975
46.6681
46.846
46.1178
45.7528
45.5892
45.4829
45.3832
45.2936
45.2202
45.166
45.1291
45.1072
45.0963
45.0951
45.0997
45.1113
45.125
45.1454
45.1647
45.192
45.2149
45.2486
45.2735
45.3139
45.3396
45.3872
45.4122
45.4678
45.491
45.5549
45.5756
45.6464
45.6668
45.7385
45.7615
45.8352
45.8228
45.1591
44.7866
44.5957
44.4584
44.3345
44.2304
44.1487
44.0911
44.0532
44.0322
44.0228
44.0236
44.0304
44.044
44.0601
44.0822
44.1041
44.133
44.1586
44.1937
44.2216
44.2635
44.2923
44.3417
44.3699
44.4278
44.4539
44.5207
44.544
44.6183
44.6409
44.7164
44.7412
44.8189
44.58
44.0027
43.6096
43.3737
43.1914
43.0353
42.9135
42.8216
42.7597
42.7187
42.6968
42.6859
42.6862
42.6919
42.705
42.7206
42.7423
42.7645
42.7933
42.8203
42.8559
42.8861
42.929
42.9609
43.0119
43.0436
43.1042
43.1335
43.2046
43.2302
43.3103
43.3346
43.4163
43.4443
43.5279
43.0293
42.4148
41.9892
41.7318
41.5216
41.3375
41.1938
41.0822
41.0058
40.9503
40.9183
40.8965
40.8904
40.8888
40.8989
40.9109
40.9325
40.9544
40.9853
41.0146
41.0537
41.0884
41.1359
41.1735
41.2296
41.2679
41.3336
41.3703
41.4469
41.4801
41.5665
41.5976
41.6879
41.7201
41.8153
40.8417
40.5277
39.9107
39.4661
39.1188
38.8443
38.6469
38.5013
38.4086
38.3435
38.313
38.2939
38.299
38.3069
38.3339
38.3592
38.4007
38.4384
38.4902
38.5376
38.5987
38.6513
38.7158
38.7709
38.8398
38.8966
38.9718
39.0279
39.1116
39.1644
39.2568
39.3053
39.4041
39.4502
39.559
37.8607
40.6874
39.8739
38.9209
38.1186
37.5014
37.0634
36.7492
36.5408
36.3924
36.3047
36.2425
36.2192
36.2038
36.2171
36.2288
36.2644
36.2928
36.3426
36.3824
36.4423
36.4912
36.5579
36.6144
36.6855
36.7491
36.8227
36.8927
36.9682
37.0421
37.123
37.1911
37.2926
37.3336
37.49
14.2727
12.6923
12.7722
12.9854
13.2384
13.4604
13.672
13.8527
14.0298
14.1801
14.331
14.4583
14.5903
14.7013
14.8208
14.9208
15.0328
15.126
15.2341
15.3227
15.4297
15.5149
15.6232
15.705
15.817
15.8937
16.0123
16.0808
16.2095
16.2648
16.4081
16.4432
16.6059
16.6117
16.7925
37.6239
37.2103
36.9821
36.889
36.8742
36.8851
36.893
36.8941
36.8872
36.8785
36.8667
36.8567
36.8453
36.8372
36.8277
36.822
36.8147
36.8109
36.8061
36.8032
36.8016
36.7977
36.8008
36.7937
36.8033
36.7905
36.809