/*--------------------------------*- C++ -*----------------------------------*\
  =========                 |
  \\      /  F ield         | OpenFOAM: The Open Source CFD Toolbox
   \\    /   O peration     | Website:  https://openfoam.org
    \\  /    A nd           | Version:  6
     \\/     M anipulation  |
\*---------------------------------------------------------------------------*/
FoamFile
{
    version     2.0;
    format      ascii;
    class       volVectorField;
    location    "12";
    object      wallShearStress;
}
// * * * * * * * * * * * * * * * * * * * * * * * * * * * * * * * * * * * * * //

dimensions      [0 2 -2 0 0 0 0];

internalField   uniform (0 0 0);

boundaryField
{
    inlet
    {
        type            calculated;
        value           uniform (0 0 0);
    }
    outlet
    {
        type            calculated;
        value           uniform (0 0 0);
    }
    roughCylinder
    {
        type            calculated;
        value           nonuniform List<vector> 
3840
(
(-0.000101295 -0.000130789 -5.85869e-05)
(-0.000172667 -0.000297658 -4.16402e-05)
(-0.00025362 -0.000445153 2.87278e-05)
(-0.000310703 -0.000510358 8.46894e-05)
(-0.000374592 -0.000555468 0.000133505)
(-0.000419446 -0.000558767 0.000165985)
(-0.000458378 -0.000553289 0.000188558)
(-0.000483896 -0.000538739 0.000201537)
(-0.000507033 -0.000531639 0.000212072)
(-0.000520224 -0.000523702 0.000216544)
(-0.000531922 -0.000521681 0.000217325)
(-0.000542551 -0.000523966 0.000214598)
(-0.000549401 -0.000526884 0.00020751)
(-0.000546192 -0.000523181 0.000194341)
(-0.000546091 -0.000524269 0.00018049)
(-0.000542875 -0.000522869 0.000164104)
(-0.00054895 -0.00053082 0.000149427)
(-0.000557667 -0.00054116 0.000134024)
(-0.00055949 -0.000545227 0.000115716)
(-0.000535092 -0.000524745 9.2442e-05)
(-0.000564296 -0.000554446 7.73717e-05)
(-0.000552791 -0.000545708 5.56847e-05)
(-0.000548732 -0.000543439 3.42085e-05)
(-0.000546501 -0.00054216 1.16196e-05)
(-0.000112212 -0.000128631 -5.59296e-05)
(-0.000180849 -0.000282249 -4.61602e-05)
(-0.000270666 -0.000438533 2.04435e-05)
(-0.000329732 -0.000507141 7.6342e-05)
(-0.000396168 -0.0005558 0.000125467)
(-0.000442705 -0.000561885 0.000158557)
(-0.00048496 -0.000560617 0.000182301)
(-0.000512521 -0.000548173 0.000196611)
(-0.000541551 -0.000545457 0.00021004)
(-0.00055786 -0.000537465 0.000215933)
(-0.000570904 -0.000535173 0.000217379)
(-0.000580414 -0.000535386 0.000214245)
(-0.000587101 -0.000537661 0.000207198)
(-0.000585077 -0.000535167 0.000194767)
(-0.000587017 -0.000537962 0.000181677)
(-0.000583032 -0.000536134 0.000165249)
(-0.000589293 -0.00054397 0.000150592)
(-0.000597518 -0.000553503 0.000134958)
(-0.000599513 -0.000557877 0.000116677)
(-0.000573711 -0.000537443 9.341e-05)
(-0.000605275 -0.000567962 7.83022e-05)
(-0.000594173 -0.00056025 5.65222e-05)
(-0.000591166 -0.000559251 3.4828e-05)
(-0.000589302 -0.000558512 1.18463e-05)
(-0.000131662 -0.000131962 -5.36647e-05)
(-0.000195328 -0.00027341 -5.22859e-05)
(-0.000285486 -0.000423814 1.11255e-05)
(-0.000348238 -0.000498592 6.67361e-05)
(-0.000416944 -0.000550536 0.000116017)
(-0.000466851 -0.000561879 0.000150425)
(-0.000511445 -0.000563778 0.000175277)
(-0.000544583 -0.000557445 0.000192349)
(-0.000574906 -0.000554602 0.000206602)
(-0.000593269 -0.000545934 0.00021345)
(-0.000606528 -0.00054186 0.000215173)
(-0.000616887 -0.000541723 0.000212482)
(-0.000624867 -0.000544532 0.000206077)
(-0.000622881 -0.000542017 0.000194022)
(-0.000626699 -0.000546181 0.000181672)
(-0.000622569 -0.000544567 0.00016554)
(-0.000630592 -0.00055364 0.000151398)
(-0.000641504 -0.000565214 0.000136301)
(-0.000644176 -0.00057031 0.000118097)
(-0.000617567 -0.000550706 9.48805e-05)
(-0.000651176 -0.000581509 7.95857e-05)
(-0.000640239 -0.000574623 5.75949e-05)
(-0.000636968 -0.000573657 3.55151e-05)
(-0.000634422 -0.000572508 1.2076e-05)
(-0.000109505 -9.50079e-05 -3.43728e-05)
(-0.000197277 -0.000246449 -5.52153e-05)
(-0.000299097 -0.00040596 1.31595e-06)
(-0.000363995 -0.000484482 5.60204e-05)
(-0.000435685 -0.00054088 0.000105439)
(-0.000488163 -0.000556717 0.000140881)
(-0.000537636 -0.000564879 0.000167843)
(-0.000572338 -0.000560515 0.000186336)
(-0.000607923 -0.000561611 0.000202725)
(-0.00063074 -0.000555136 0.000211405)
(-0.000646921 -0.000550776 0.000214242)
(-0.000656647 -0.000548862 0.000211578)
(-0.000664837 -0.000550906 0.000205419)
(-0.00066548 -0.000550364 0.000194472)
(-0.000669477 -0.000554376 0.000182308)
(-0.000665675 -0.000553383 0.000166574)
(-0.000673563 -0.000562012 0.000152447)
(-0.000683859 -0.000572678 0.000137181)
(-0.000686483 -0.00057787 0.000119005)
(-0.000659007 -0.000559185 9.5921e-05)
(-0.000694171 -0.000589782 8.04842e-05)
(-0.000683828 -0.000584118 5.84214e-05)
(-0.000681637 -0.000584396 3.61251e-05)
(-0.000679592 -0.000583932 1.23023e-05)
(-0.000139265 -0.000103423 -3.09212e-05)
(-0.000208698 -0.000231327 -6.07079e-05)
(-0.000307447 -0.000380542 -8.7152e-06)
(-0.000376056 -0.000464814 4.43922e-05)
(-0.000450207 -0.00052512 9.3508e-05)
(-0.000507747 -0.000548425 0.000130489)
(-0.000559778 -0.000560402 0.000158891)
(-0.00060092 -0.000562841 0.000180389)
(-0.000638379 -0.000564627 0.000197853)
(-0.000662913 -0.000558379 0.000207404)
(-0.000680872 -0.000553146 0.000211081)
(-0.000692304 -0.000550475 0.000209282)
(-0.000703034 -0.000553534 0.000204165)
(-0.000704516 -0.000553202 0.000193797)
(-0.000708263 -0.000556762 0.000181863)
(-0.000706036 -0.000557311 0.000166944)
(-0.00071521 -0.000566715 0.000153265)
(-0.000728539 -0.000579478 0.00013862)
(-0.000731206 -0.000584898 0.000120441)
(-0.00070404 -0.000568184 9.75671e-05)
(-0.000739909 -0.000597829 8.17941e-05)
(-0.000729877 -0.000593152 5.95239e-05)
(-0.000727223 -0.000593369 3.68261e-05)
(-0.000724544 -0.000592713 1.25405e-05)
(-0.000123301 -7.7192e-05 -1.66715e-05)
(-0.000199714 -0.000195343 -6.00288e-05)
(-0.000313044 -0.000352184 -1.85711e-05)
(-0.000383653 -0.000439933 3.20102e-05)
(-0.00046155 -0.000505766 8.06603e-05)
(-0.000522181 -0.000534259 0.000118525)
(-0.000580427 -0.000553652 0.000149283)
(-0.000623129 -0.000558 0.00017229)
(-0.000665631 -0.000563449 0.000191851)
(-0.000695297 -0.000560413 0.000203397)
(-0.000718122 -0.00055743 0.000208914)
(-0.000731387 -0.000553672 0.000208004)
(-0.000742551 -0.000555073 0.000203293)
(-0.00074681 -0.000556178 0.00019402)
(-0.000749325 -0.000558644 0.000182122)
(-0.00074903 -0.00056082 0.000168051)
(-0.000757542 -0.000569499 0.00015439)
(-0.000770065 -0.00058126 0.000139635)
(-0.000771397 -0.000586163 0.000121351)
(-0.000744851 -0.000571908 9.882e-05)
(-0.000780661 -0.000600331 8.27605e-05)
(-0.000771253 -0.000597134 6.0409e-05)
(-0.000769596 -0.000598677 3.74755e-05)
(-0.000767466 -0.000598882 1.27834e-05)
(-0.000160176 -8.32718e-05 -8.57417e-06)
(-0.000208617 -0.000178432 -6.41549e-05)
(-0.000311819 -0.000317707 -2.78295e-05)
(-0.000385721 -0.000410089 1.90454e-05)
(-0.00046589 -0.000480008 6.64233e-05)
(-0.000533289 -0.000517393 0.000105642)
(-0.000594305 -0.000540519 0.000137763)
(-0.000644667 -0.000551974 0.000163778)
(-0.000690279 -0.000559162 0.000184905)
(-0.000721979 -0.00055683 0.000197662)
(-0.000746246 -0.000553693 0.000204108)
(-0.000763014 -0.000550848 0.0002047)
(-0.000778344 -0.00055323 0.00020155)
(-0.000783274 -0.000553736 0.00019295)
(-0.000785083 -0.00055548 0.00018143)
(-0.000787439 -0.000559624 0.000168459)
(-0.000796886 -0.000568995 0.000155295)
(-0.000812466 -0.000582866 0.000141232)
(-0.000812367 -0.000587514 0.000122819)
(-0.000787258 -0.00057631 0.000100626)
(-0.000821755 -0.000602771 8.40762e-05)
(-0.000812391 -0.000600696 6.15064e-05)
(-0.000809763 -0.000602121 3.8162e-05)
(-0.000806762 -0.000602083 1.30143e-05)
(-0.000133209 -5.61353e-05 3.04283e-06)
(-0.000184123 -0.00013644 -5.79574e-05)
(-0.000306428 -0.000281653 -3.58925e-05)
(-0.000381236 -0.000375516 5.9029e-06)
(-0.0004658 -0.000451885 5.14679e-05)
(-0.000536377 -0.000494394 9.10823e-05)
(-0.000605288 -0.000525598 0.000125435)
(-0.000657941 -0.000538942 0.000152945)
(-0.000708725 -0.000549448 0.000176116)
(-0.000746457 -0.000550875 0.00019126)
(-0.000776989 -0.000551142 0.000200091)
(-0.000796493 -0.000548825 0.000202079)
(-0.000812398 -0.000550122 0.00019967)
(-0.000819987 -0.000551493 0.000192339)
(-0.000821413 -0.000552825 0.000181407)
(-0.000825876 -0.000558335 0.000169414)
(-0.000834259 -0.000567083 0.000156386)
(-0.000847895 -0.000579548 0.000142165)
(-0.000845034 -0.000583132 0.000123535)
(-0.000821624 -0.000574819 0.000101778)
(-0.000854051 -0.000598792 8.48184e-05)
(-0.000844985 -0.000597862 6.21901e-05)
(-0.000843045 -0.0006003 3.86667e-05)
(-0.000840649 -0.000601085 1.32065e-05)
(-0.000135551 -4.51376e-05 1.25236e-05)
(-0.000190766 -0.000120136 -6.04664e-05)
(-0.000292713 -0.00024127 -4.24164e-05)
(-0.000369597 -0.000336819 -7.01444e-06)
(-0.000455161 -0.000416549 3.54033e-05)
(-0.000534237 -0.000469067 7.55846e-05)
(-0.000606061 -0.000503502 0.000110897)
(-0.000667991 -0.000524003 0.000141191)
(-0.000723623 -0.000537023 0.000166252)
(-0.000764181 -0.000539561 0.00018303)
(-0.000796142 -0.000539835 0.000193161)
(-0.000819069 -0.000538833 0.000196928)
(-0.00083882 -0.000541627 0.000196278)
(-0.000846873 -0.000542771 0.000189924)
(-0.000849028 -0.000544618 0.00018006)
(-0.000855484 -0.00055124 0.000169148)
(-0.000864516 -0.000560459 0.000156734)
(-0.000880292 -0.00057415 0.000143144)
(-0.000875562 -0.000577474 0.000124462)
(-0.000854559 -0.000572287 0.00010316)
(-0.000884116 -0.000593337 8.56984e-05)
(-0.0008751 -0.000593327 6.29587e-05)
(-0.0008719 -0.000595401 3.9138e-05)
(-0.000868406 -0.000595802 1.33616e-05)
(-0.000135055 -3.37822e-05 2.1398e-05)
(-0.000147206 -7.69542e-05 -4.6163e-05)
(-0.000274761 -0.000201375 -4.72048e-05)
(-0.000349478 -0.000293884 -1.89247e-05)
(-0.000439208 -0.000379961 1.92204e-05)
(-0.00052046 -0.000436802 5.84767e-05)
(-0.000602266 -0.000480174 9.54508e-05)
(-0.000667616 -0.000502461 0.00012709)
(-0.000728772 -0.000518011 0.000154028)
(-0.000776216 -0.000524256 0.000173384)
(-0.000815864 -0.000528621 0.000186459)
(-0.000842351 -0.000529008 0.000192213)
(-0.000861821 -0.00053086 0.00019254)
(-0.000871996 -0.000533074 0.000187712)
(-0.000875221 -0.000535713 0.000179067)
(-0.000882543 -0.000542663 0.000169038)
(-0.000890419 -0.000551186 0.000156954)
(-0.00090289 -0.000562566 0.000143182)
(-0.000895239 -0.000565134 0.000124472)
(-0.000876262 -0.000562562 0.000103691)
(-0.000902218 -0.000580385 8.58681e-05)
(-0.000893249 -0.000581201 6.3206e-05)
(-0.000890477 -0.000584056 3.93651e-05)
(-0.000887577 -0.000585218 1.34606e-05)
(-0.000131572 -2.25896e-05 2.91779e-05)
(-0.000161258 -6.81844e-05 -4.88803e-05)
(-0.000247845 -0.000159183 -4.87474e-05)
(-0.000321812 -0.000248688 -2.91023e-05)
(-0.000408946 -0.000335194 3.15797e-06)
(-0.000500052 -0.000402857 4.08304e-05)
(-0.000584176 -0.000448929 7.77026e-05)
(-0.000660556 -0.00047858 0.000111633)
(-0.000728811 -0.000496928 0.000140695)
(-0.000780242 -0.000504107 0.000161973)
(-0.000821019 -0.000508144 0.000176596)
(-0.00085055 -0.000509828 0.00018443)
(-0.000874009 -0.000513716 0.000186975)
(-0.00088474 -0.000516263 0.000183581)
(-0.000889917 -0.000520227 0.000176521)
(-0.000897614 -0.000527274 0.000167463)
(-0.000905797 -0.000535993 0.000156155)
(-0.000919375 -0.000547833 0.000143082)
(-0.000910227 -0.000550724 0.000124605)
(-0.000893407 -0.000550681 0.000104314)
(-0.000915073 -0.000565048 8.60863e-05)
(-0.00090583 -0.000566473 6.34751e-05)
(-0.000901297 -0.000568723 3.95135e-05)
(-0.000896983 -0.000569359 1.35033e-05)
(-0.000126917 -1.19296e-05 3.63492e-05)
(-0.000132515 -4.39671e-05 -3.81859e-05)
(-0.000219513 -0.000120859 -4.77019e-05)
(-0.000284483 -0.000200634 -3.61e-05)
(-0.00037411 -0.000291055 -1.16297e-05)
(-0.000463763 -0.000360518 2.24365e-05)
(-0.000559687 -0.000416924 5.92231e-05)
(-0.000640476 -0.000449021 9.38862e-05)
(-0.000715073 -0.000469479 0.000124776)
(-0.000774526 -0.000479351 0.000148802)
(-0.000824256 -0.000487164 0.000166646)
(-0.000857992 -0.000490738 0.000176979)
(-0.000880749 -0.000494093 0.000181006)
(-0.000893693 -0.00049807 0.000179593)
(-0.00090054 -0.000503166 0.000174154)
(-0.000907421 -0.000509784 0.000165934)
(-0.000913897 -0.000517556 0.000155125)
(-0.000922512 -0.000526354 0.000141905)
(-0.000910603 -0.00052893 0.000123646)
(-0.000894809 -0.000530618 0.000103859)
(-0.000911749 -0.000541529 8.54203e-05)
(-0.000901957 -0.000543325 6.30716e-05)
(-0.0008974 -0.000546139 3.93202e-05)
(-0.000893476 -0.000547474 1.34577e-05)
(-0.000124978 -2.26206e-06 4.38252e-05)
(-0.000131364 -3.301e-05 -3.52792e-05)
(-0.000181834 -8.28916e-05 -4.16643e-05)
(-0.000242037 -0.000153921 -3.93013e-05)
(-0.000321255 -0.000237533 -2.36516e-05)
(-0.000421019 -0.000317779 4.81048e-06)
(-0.000516826 -0.000375863 3.92068e-05)
(-0.00060977 -0.000416506 7.46671e-05)
(-0.000693733 -0.000441381 0.000107609)
(-0.00075919 -0.000452243 0.000134124)
(-0.0008099 -0.000458434 0.000153773)
(-0.000846166 -0.000462146 0.000166346)
(-0.000873247 -0.000467778 0.000173018)
(-0.000886941 -0.000472503 0.000173528)
(-0.000895546 -0.000478778 0.000169929)
(-0.000901305 -0.000485073 0.000162697)
(-0.000907275 -0.000492665 0.000152764)
(-0.000915876 -0.000501635 0.000140374)
(-0.000902747 -0.000505035 0.000122629)
(-0.000887895 -0.000508315 0.000103311)
(-0.000899492 -0.000516308 8.46722e-05)
(-0.000888724 -0.000518306 6.25992e-05)
(-0.000881709 -0.000520306 3.89822e-05)
(-0.000876031 -0.000521038 1.33315e-05)
(-0.000126717 7.16493e-06 5.27199e-05)
(-0.000128717 -2.32009e-05 -3.16438e-05)
(-0.000148602 -5.36893e-05 -3.38923e-05)
(-0.000190298 -0.000106903 -3.65743e-05)
(-0.00026883 -0.000188783 -3.241e-05)
(-0.000358489 -0.000264889 -1.11965e-05)
(-0.00046728 -0.000334712 1.96118e-05)
(-0.000564357 -0.000378701 5.40327e-05)
(-0.000654632 -0.000406902 8.79868e-05)
(-0.000728905 -0.000421307 0.000117287)
(-0.000790135 -0.000431266 0.000140638)
(-0.000831895 -0.000436412 0.000156315)
(-0.000858239 -0.000440827 0.00016486)
(-0.000873997 -0.000446454 0.000167612)
(-0.000883211 -0.000453314 0.00016569)
(-0.000886777 -0.000459248 0.000159371)
(-0.000889915 -0.000465853 0.000150032)
(-0.000891853 -0.000471808 0.000137599)
(-0.000875464 -0.000474837 0.000120244)
(-0.000859887 -0.000478524 0.000101345)
(-0.000866015 -0.000484098 8.28006e-05)
(-0.000853844 -0.000485946 6.12622e-05)
(-0.000846302 -0.000488237 3.81853e-05)
(-0.000840662 -0.00048942 1.30749e-05)
(-0.000122906 1.60182e-05 5.90208e-05)
(-0.000140933 -1.70825e-05 -3.12775e-05)
(-0.000100712 -2.74371e-05 -2.09109e-05)
(-0.000141022 -6.73585e-05 -2.94384e-05)
(-0.000194972 -0.000129913 -3.37544e-05)
(-0.000293783 -0.000214821 -2.41596e-05)
(-0.00039626 -0.000282808 6.46541e-07)
(-0.000505979 -0.000336882 3.31342e-05)
(-0.000606777 -0.000371838 6.79463e-05)
(-0.000687631 -0.000389417 9.95108e-05)
(-0.000749306 -0.000398177 0.000124905)
(-0.000793032 -0.000403013 0.000143037)
(-0.000824413 -0.000409386 0.000154597)
(-0.000840844 -0.000415041 0.000159434)
(-0.000850289 -0.000422241 0.000159262)
(-0.000851759 -0.000427992 0.000154046)
(-0.000853156 -0.000434303 0.000145661)
(-0.000853893 -0.000440492 0.000134235)
(-0.000835887 -0.000444067 0.000117537)
(-0.000820008 -0.000448338 9.91056e-05)
(-0.000820075 -0.000451639 8.0661e-05)
(-0.000805938 -0.000453048 5.96836e-05)
(-0.000795181 -0.000454115 3.71104e-05)
(-0.000787375 -0.000454414 1.26875e-05)
(-0.000116033 2.27717e-05 6.16914e-05)
(-0.000119566 -8.99953e-06 -2.37626e-05)
(-8.39895e-05 -1.66074e-05 -1.36205e-05)
(-7.89616e-05 -2.97036e-05 -1.54029e-05)
(-0.000136052 -8.53283e-05 -3.1592e-05)
(-0.000206434 -0.000152204 -3.09535e-05)
(-0.000322868 -0.000233108 -1.57416e-05)
(-0.000433996 -0.000290051 1.30036e-05)
(-0.000539633 -0.000329391 4.72871e-05)
(-0.000628189 -0.000352239 8.06286e-05)
(-0.000700643 -0.000366801 0.000109413)
(-0.000750548 -0.000374404 0.00013073)
(-0.000780623 -0.000379615 0.000144202)
(-0.000798421 -0.000385692 0.000151325)
(-0.000806737 -0.000392587 0.000152715)
(-0.000805167 -0.00039774 0.000148461)
(-0.000802321 -0.000402653 0.000140624)
(-0.000794455 -0.000405598 0.000129125)
(-0.000771645 -0.000407718 0.000112751)
(-0.000753386 -0.00041086 9.47421e-05)
(-0.000747351 -0.000412081 7.6782e-05)
(-0.000730925 -0.000412461 5.67477e-05)
(-0.000719403 -0.000413403 3.52785e-05)
(-0.00071149 -0.00041378 1.20687e-05)
(-0.00010508 2.58219e-05 5.80774e-05)
(-0.0001142 -5.15261e-06 -2.03385e-05)
(-7.5445e-05 -1.08054e-05 -7.10067e-06)
(-4.55075e-05 -1.13963e-05 -5.34276e-06)
(-4.49527e-05 -2.60972e-05 -1.32758e-05)
(-0.000131879 -0.000100745 -3.3587e-05)
(-0.000226858 -0.000169578 -2.72589e-05)
(-0.000350504 -0.000238421 -4.33263e-06)
(-0.000465948 -0.000286441 2.87901e-05)
(-0.000559327 -0.000314128 6.29513e-05)
(-0.00062921 -0.00032884 9.24852e-05)
(-0.000678426 -0.000337159 0.000115182)
(-0.000713403 -0.000345136 0.00013132)
(-0.000730869 -0.000351221 0.000140299)
(-0.000737392 -0.000357682 0.000143145)
(-0.00073301 -0.000362224 0.000139937)
(-0.000726988 -0.000366223 0.00013294)
(-0.000717306 -0.000369257 0.000122612)
(-0.000692307 -0.000370809 0.000106933)
(-0.000673552 -0.000373354 8.95981e-05)
(-0.000662039 -0.000372711 7.22807e-05)
(-0.000643062 -0.000371608 5.32762e-05)
(-0.000627949 -0.000370548 3.29402e-05)
(-0.000617573 -0.000369437 1.12286e-05)
(-9.44596e-05 2.51158e-05 4.94672e-05)
(-0.00010845 -3.23966e-06 -1.7476e-05)
(-6.66429e-05 -6.88974e-06 -6.03816e-07)
(-3.06717e-05 -3.15951e-06 2.60588e-06)
(-1.60651e-05 -9.38379e-06 -5.64148e-06)
(-3.01524e-05 -2.64696e-05 -1.48294e-05)
(-0.000144805 -0.000114922 -3.42509e-05)
(-0.000259839 -0.000182542 -1.66474e-05)
(-0.000374702 -0.000234961 1.38141e-05)
(-0.000471978 -0.000269165 4.70002e-05)
(-0.000550685 -0.000291759 7.74229e-05)
(-0.00060507 -0.000304649 0.000101618)
(-0.000636419 -0.000311843 0.000118447)
(-0.000653335 -0.00031828 0.000129012)
(-0.000656996 -0.000324077 0.000132992)
(-0.000649275 -0.000327682 0.0001306)
(-0.000638192 -0.00032978 0.000123992)
(-0.000618352 -0.00032837 0.000113331)
(-0.000586757 -0.000326347 9.77003e-05)
(-0.000564371 -0.000325843 8.09387e-05)
(-0.000547154 -0.000322585 6.4787e-05)
(-0.000525618 -0.000319293 4.74624e-05)
(-0.000510325 -0.000317643 2.92538e-05)
(-0.000500232 -0.000316293 9.96141e-06)
(-8.43306e-05 2.28159e-05 3.86543e-05)
(-0.000102901 -1.59716e-06 -1.53667e-05)
(-5.90218e-05 -2.28787e-06 4.57971e-06)
(-1.60342e-05 5.75227e-06 8.93567e-06)
(8.34679e-06 7.46222e-06 -1.00642e-06)
(4.36358e-07 -4.93513e-06 -1.25827e-05)
(-4.24782e-05 -3.6015e-05 -1.95523e-05)
(-0.00016793 -0.000122765 -1.96054e-05)
(-0.000284593 -0.000184603 6.37616e-06)
(-0.000379817 -0.000223941 3.5958e-05)
(-0.000449826 -0.000246611 6.28099e-05)
(-0.000499133 -0.000260201 8.49143e-05)
(-0.000534287 -0.000271124 0.000102469)
(-0.000549129 -0.00027759 0.000113629)
(-0.000549135 -0.000282411 0.000118201)
(-0.000537724 -0.000284555 0.000116337)
(-0.000522492 -0.000284803 0.000110229)
(-0.000501942 -0.000283157 0.00010095)
(-0.000469222 -0.000279701 8.61989e-05)
(-0.000447703 -0.000278039 7.07439e-05)
(-0.000427896 -0.00027312 5.62573e-05)
(-0.000404706 -0.000267633 4.08182e-05)
(-0.000386325 -0.000263114 2.47963e-05)
(-0.000374005 -0.000259548 8.36069e-06)
(-6.6066e-05 1.90538e-05 2.6752e-05)
(-9.66925e-05 7.09691e-07 -1.4184e-05)
(-5.64174e-05 2.93715e-06 5.47986e-06)
(-7.19593e-06 9.21618e-06 4.9019e-06)
(1.77383e-05 1.34901e-05 1.54809e-06)
(1.14395e-05 1.03559e-05 -2.26305e-07)
(-1.20844e-05 -8.84319e-06 -7.67869e-06)
(-8.55274e-05 -6.46158e-05 -7.80451e-06)
(-0.000182292 -0.000125794 8.89654e-06)
(-0.000271373 -0.000170918 3.04006e-05)
(-0.000346806 -0.000202859 5.20818e-05)
(-0.000399843 -0.000222158 7.14527e-05)
(-0.000427862 -0.0002314 8.65559e-05)
(-0.00043993 -0.000237681 9.74527e-05)
(-0.000436314 -0.000241476 0.000102139)
(-0.000421917 -0.000242203 0.000100543)
(-0.000402595 -0.000240129 9.45488e-05)
(-0.000371958 -0.00023207 8.43359e-05)
(-0.000332102 -0.000222224 6.91916e-05)
(-0.000306672 -0.000215311 5.47897e-05)
(-0.000283143 -0.000206425 4.26126e-05)
(-0.000258469 -0.000197508 3.01241e-05)
(-0.000241973 -0.000192336 1.79908e-05)
(-0.000231742 -0.000188833 6.01621e-06)
(-5.60631e-05 1.71906e-05 2.09967e-05)
(-8.89521e-05 2.784e-06 -1.26054e-05)
(-4.91897e-05 2.69374e-06 4.54735e-06)
(5.64989e-06 6.33511e-06 7.40979e-06)
(1.39361e-05 9.04893e-06 1.3901e-05)
(1.40869e-05 9.44543e-06 2.03177e-05)
(1.24139e-06 -9.68254e-07 1.60149e-05)
(-2.00327e-05 -1.83688e-05 1.09002e-05)
(-9.53268e-05 -7.77665e-05 2.28845e-05)
(-0.000167354 -0.000121748 3.19023e-05)
(-0.000224809 -0.000149197 4.17767e-05)
(-0.000267423 -0.00016657 5.32095e-05)
(-0.000299495 -0.000180321 6.58293e-05)
(-0.000308892 -0.00018621 7.49915e-05)
(-0.000301024 -0.000187908 7.86412e-05)
(-0.000282379 -0.000185459 7.63407e-05)
(-0.000259405 -0.000179888 7.01514e-05)
(-0.00023211 -0.000171448 6.17217e-05)
(-0.000197402 -0.000161002 4.85097e-05)
(-0.000176942 -0.000153704 3.69605e-05)
(-0.000156724 -0.000144316 2.8224e-05)
(-0.000134446 -0.000133698 1.90924e-05)
(-0.000116973 -0.000124749 1.05585e-05)
(-0.000104598 -0.000117404 3.30217e-06)
(-4.62769e-05 1.47955e-05 1.55014e-05)
(-8.18207e-05 4.63006e-06 -1.15118e-05)
(-4.71622e-05 3.84879e-06 5.44746e-06)
(-4.64163e-06 1.23654e-05 1.6294e-05)
(1.26756e-05 1.61972e-05 2.6612e-05)
(2.50114e-05 1.36116e-05 3.30212e-05)
(2.74377e-05 3.91177e-06 3.83017e-05)
(1.31037e-05 -8.16247e-06 3.07239e-05)
(-7.03881e-06 -2.13767e-05 2.28816e-05)
(-5.12986e-05 -6.05154e-05 2.9735e-05)
(-0.000112912 -9.92967e-05 3.36626e-05)
(-0.000160845 -0.000123424 3.91438e-05)
(-0.000182399 -0.000131768 4.49617e-05)
(-0.00018789 -0.000135756 5.11265e-05)
(-0.000177859 -0.000135738 5.34494e-05)
(-0.000158949 -0.000131578 5.07443e-05)
(-0.000136609 -0.000123969 4.46735e-05)
(-0.000104353 -0.000106292 3.44452e-05)
(-6.50939e-05 -8.34112e-05 1.9943e-05)
(-4.37872e-05 -6.5745e-05 1.07545e-05)
(-2.64612e-05 -4.84875e-05 5.83289e-06)
(-1.00113e-05 -2.74359e-05 1.70686e-06)
(-3.42514e-06 -1.91209e-05 1.72994e-07)
(-7.58183e-07 -2.53535e-05 -9.48931e-08)
(-2.8023e-05 1.33716e-05 1.20073e-05)
(-6.98664e-05 7.64378e-06 -1.45659e-05)
(-5.72568e-05 1.01486e-05 -3.64571e-06)
(-3.38076e-05 2.56355e-05 1.1388e-05)
(-9.94349e-06 4.02801e-05 1.72714e-05)
(1.58333e-05 3.3537e-05 1.48867e-05)
(3.12625e-05 2.07384e-05 1.94854e-05)
(3.69103e-05 9.29122e-06 2.54123e-05)
(3.77433e-05 -1.66284e-06 3.23834e-05)
(1.5279e-05 -1.32528e-05 1.99343e-05)
(-5.67902e-06 -2.60627e-05 1.2988e-05)
(-2.60863e-05 -3.68271e-05 1.06502e-05)
(-5.64132e-05 -6.17174e-05 1.5675e-05)
(-6.25505e-05 -6.62778e-05 1.83069e-05)
(-5.11336e-05 -6.17186e-05 1.73393e-05)
(-3.14082e-05 -4.87457e-05 1.19398e-05)
(-1.30025e-05 -3.02774e-05 4.94471e-06)
(-2.32599e-06 -2.77374e-05 4.15876e-07)
(7.90447e-06 -9.21121e-06 -4.14595e-06)
(1.18096e-05 -3.9546e-06 -5.12226e-06)
(1.58506e-05 7.14272e-07 -4.71668e-06)
(1.66438e-05 5.4626e-06 -2.80243e-06)
(1.82346e-05 9.00056e-06 -1.31898e-06)
(2.65178e-05 1.55267e-05 -4.35426e-07)
(1.0562e-06 1.38811e-05 1.92243e-05)
(-4.08243e-05 1.19617e-05 -1.59797e-05)
(-5.40564e-05 1.25681e-05 -1.53621e-05)
(-5.0645e-05 2.36305e-05 -8.61549e-06)
(-3.51991e-05 4.48868e-05 -7.28195e-06)
(-3.71982e-06 5.775e-05 -1.29695e-05)
(2.68773e-05 5.12857e-05 -1.35898e-05)
(3.87335e-05 2.7211e-05 -2.20893e-06)
(3.53776e-05 1.32831e-05 1.01249e-05)
(3.47986e-05 8.84814e-06 1.29709e-05)
(2.75506e-05 3.1352e-06 7.87937e-06)
(1.95783e-05 -6.69473e-06 1.30191e-06)
(8.50873e-06 -1.30965e-05 -4.31484e-06)
(6.25638e-06 -1.37211e-05 -7.58282e-06)
(9.63435e-06 -7.54081e-06 -8.624e-06)
(1.44316e-05 -1.94497e-06 -1.0202e-05)
(1.81525e-05 3.23891e-06 -1.10094e-05)
(1.94641e-05 8.41318e-06 -9.14374e-06)
(2.14583e-05 1.35376e-05 -5.30698e-06)
(2.1416e-05 1.51228e-05 -2.48201e-06)
(3.23535e-05 2.33678e-05 -7.18496e-07)
(3.19247e-05 2.27177e-05 1.39218e-06)
(2.30513e-05 1.59454e-05 1.21903e-06)
(2.34793e-05 1.56601e-05 5.04792e-07)
(8.92195e-06 1.91638e-05 3.41377e-05)
(-1.25984e-05 1.99139e-05 -1.21799e-05)
(-3.46987e-05 1.63098e-05 -1.87461e-05)
(-4.32464e-05 1.98347e-05 -1.82659e-05)
(-4.12706e-05 3.42674e-05 -2.33714e-05)
(-1.73291e-05 4.51181e-05 -3.09294e-05)
(1.44892e-05 4.29149e-05 -3.4828e-05)
(3.60911e-05 2.81699e-05 -2.57327e-05)
(4.06315e-05 1.24833e-05 -4.85817e-06)
(3.63228e-05 9.8852e-06 4.54621e-06)
(3.41015e-05 1.19413e-05 3.9831e-06)
(3.7461e-05 1.4323e-05 8.5126e-08)
(2.41702e-05 1.0354e-05 -4.6106e-06)
(2.75398e-05 1.38193e-05 -1.10672e-05)
(2.24234e-05 1.27767e-05 -1.05793e-05)
(3.06195e-05 1.8579e-05 -1.24176e-05)
(2.27017e-05 1.41115e-05 -6.35276e-06)
(3.40566e-05 2.04596e-05 -4.61326e-06)
(2.40127e-05 1.2269e-05 -9.94831e-07)
(2.86561e-05 1.20389e-05 3.35513e-07)
(3.67636e-05 1.26654e-05 1.98392e-06)
(4.30526e-05 1.19955e-05 3.33828e-06)
(4.71089e-05 1.06388e-05 3.00694e-06)
(5.03927e-05 9.51653e-06 1.16879e-06)
(4.35609e-06 2.16989e-05 3.90521e-05)
(-4.83117e-06 3.04887e-05 -6.42793e-06)
(-2.24007e-05 2.656e-05 -1.66213e-05)
(-3.53844e-05 2.47245e-05 -2.06028e-05)
(-3.6857e-05 2.92541e-05 -2.61307e-05)
(-2.31181e-05 3.32763e-05 -3.40672e-05)
(-5.48057e-07 2.7802e-05 -3.87091e-05)
(2.21963e-05 1.10365e-05 -2.91316e-05)
(4.13754e-05 -2.11974e-06 -9.04254e-06)
(6.38615e-05 2.03229e-06 2.39566e-06)
(6.93858e-05 1.0908e-05 1.41902e-06)
(5.54814e-05 1.31478e-05 -3.85641e-06)
(3.5747e-05 1.06626e-05 -6.03738e-06)
(2.55174e-05 9.05773e-06 -6.42516e-06)
(2.44612e-05 8.85856e-06 -6.96992e-06)
(2.73828e-05 8.49757e-06 -7.00338e-06)
(3.41429e-05 8.09583e-06 -6.33085e-06)
(4.09939e-05 5.23089e-06 -3.97601e-06)
(4.89585e-05 1.52908e-06 -1.46947e-06)
(5.35942e-05 -2.43374e-06 1.02504e-06)
(5.59446e-05 -5.46649e-06 2.94544e-06)
(5.8102e-05 -7.83641e-06 4.11092e-06)
(6.0291e-05 -9.95233e-06 3.46454e-06)
(6.19056e-05 -1.09724e-05 1.28457e-06)
(-9.38662e-07 1.97573e-05 3.34451e-05)
(-9.0586e-06 3.18856e-05 -3.1699e-06)
(-1.82091e-05 3.1108e-05 -1.16183e-05)
(-2.76939e-05 2.79001e-05 -1.66262e-05)
(-3.12459e-05 2.61208e-05 -2.21366e-05)
(-2.45041e-05 2.26228e-05 -2.88684e-05)
(-8.52918e-06 1.17079e-05 -3.13972e-05)
(1.22035e-05 -4.28896e-06 -2.25069e-05)
(3.5031e-05 -1.33033e-05 -6.9225e-06)
(5.97337e-05 -7.19192e-06 6.43249e-07)
(7.55111e-05 5.92707e-07 -2.62047e-06)
(7.18014e-05 3.02321e-06 -9.09605e-06)
(6.23202e-05 1.07561e-06 -1.28696e-05)
(5.33748e-05 -7.27257e-07 -1.35187e-05)
(5.06503e-05 -2.82797e-06 -1.34638e-05)
(5.13252e-05 -5.81933e-06 -1.22908e-05)
(5.17672e-05 -9.12546e-06 -9.22803e-06)
(5.33031e-05 -1.2629e-05 -5.23921e-06)
(5.61031e-05 -1.43457e-05 -1.93922e-06)
(6.08762e-05 -1.63795e-05 7.03131e-07)
(6.38367e-05 -1.85689e-05 2.52554e-06)
(6.53409e-05 -1.99163e-05 3.82616e-06)
(6.73004e-05 -2.09922e-05 3.35574e-06)
(6.85169e-05 -2.10328e-05 1.24843e-06)
(-3.54075e-06 1.37813e-05 2.15923e-05)
(-1.30277e-05 2.63792e-05 -2.1166e-06)
(-1.99889e-05 2.82105e-05 -1.04313e-05)
(-2.56673e-05 2.55406e-05 -1.52648e-05)
(-2.81627e-05 2.06005e-05 -2.02944e-05)
(-2.4583e-05 1.25014e-05 -2.53892e-05)
(-1.3727e-05 -2.20296e-07 -2.58758e-05)
(2.50788e-06 -1.29027e-05 -1.70236e-05)
(1.63685e-05 -1.19516e-05 -4.22316e-06)
(3.51823e-05 -7.54336e-06 -2.26657e-07)
(6.05442e-05 -2.38429e-06 -3.40851e-06)
(6.7591e-05 -1.92932e-06 -1.05812e-05)
(6.51537e-05 -7.14428e-06 -1.47938e-05)
(5.96227e-05 -1.1313e-05 -1.53413e-05)
(5.6242e-05 -1.39286e-05 -1.46278e-05)
(5.53027e-05 -1.60462e-05 -1.31447e-05)
(5.53682e-05 -1.81879e-05 -1.02544e-05)
(5.54767e-05 -1.92243e-05 -6.32544e-06)
(5.48034e-05 -1.76944e-05 -2.55586e-06)
(5.81337e-05 -1.74049e-05 3.08006e-07)
(6.03373e-05 -1.82998e-05 1.89688e-06)
(6.10625e-05 -1.88423e-05 3.10795e-06)
(6.24595e-05 -1.91841e-05 2.80464e-06)
(6.29529e-05 -1.89177e-05 1.03007e-06)
(-3.51221e-06 7.61947e-06 1.08533e-05)
(-1.31362e-05 1.63069e-05 -1.66374e-06)
(-2.03925e-05 2.00642e-05 -1.05316e-05)
(-2.47508e-05 1.85559e-05 -1.7163e-05)
(-2.55827e-05 1.2848e-05 -2.28724e-05)
(-2.17664e-05 2.78988e-06 -2.73291e-05)
(-1.20241e-05 -1.02647e-05 -2.69276e-05)
(1.62478e-06 -1.77037e-05 -1.56867e-05)
(1.40502e-05 -1.77227e-05 -7.26664e-06)
(2.4106e-05 -1.34136e-05 -2.70305e-06)
(3.05623e-05 -6.507e-06 -1.76369e-06)
(3.30008e-05 -2.63785e-06 -4.66458e-06)
(4.98305e-05 -6.01895e-06 -1.13589e-05)
(5.22319e-05 -1.05773e-05 -1.40572e-05)
(5.09743e-05 -1.33622e-05 -1.40001e-05)
(4.90268e-05 -1.46092e-05 -1.24499e-05)
(4.73637e-05 -1.54194e-05 -9.62386e-06)
(4.4992e-05 -1.51346e-05 -6.13835e-06)
(4.23571e-05 -1.43536e-05 -2.58448e-06)
(4.61645e-05 -1.44862e-05 7.15588e-08)
(5.07098e-05 -1.5718e-05 1.43192e-06)
(5.39132e-05 -1.66619e-05 2.56409e-06)
(5.64542e-05 -1.71714e-05 2.392e-06)
(5.7311e-05 -1.70612e-05 8.718e-07)
(-8.34935e-07 6.08744e-07 -4.65212e-08)
(-7.53889e-06 3.76569e-06 -1.58815e-06)
(-1.53009e-05 7.4992e-06 -7.4996e-06)
(-2.01214e-05 7.69579e-06 -1.49753e-05)
(-2.04375e-05 3.17166e-06 -2.12742e-05)
(-1.53272e-05 -5.6565e-06 -2.46554e-05)
(-5.21558e-06 -1.57282e-05 -2.201e-05)
(6.92507e-06 -1.76071e-05 -1.17272e-05)
(1.92725e-05 -1.86657e-05 -8.22706e-06)
(2.64256e-05 -1.57834e-05 -5.73785e-06)
(3.33736e-05 -1.40876e-05 -4.87523e-06)
(3.36892e-05 -1.03777e-05 -5.1177e-06)
(3.03898e-05 -7.3849e-06 -6.25804e-06)
(3.32248e-05 -8.52419e-06 -8.77396e-06)
(3.39996e-05 -1.00529e-05 -9.72735e-06)
(3.39144e-05 -1.12542e-05 -9.16345e-06)
(3.54411e-05 -1.26388e-05 -7.76968e-06)
(3.76414e-05 -1.38606e-05 -5.70992e-06)
(4.04922e-05 -1.49981e-05 -2.82067e-06)
(4.38146e-05 -1.49355e-05 -1.06636e-07)
(4.73972e-05 -1.55415e-05 1.15616e-06)
(4.95556e-05 -1.5929e-05 2.15111e-06)
(5.13412e-05 -1.62937e-05 2.0136e-06)
(5.16891e-05 -1.62759e-05 7.12321e-07)
(7.50925e-07 -4.03771e-06 -7.75946e-06)
(-1.91541e-06 -5.05887e-06 -2.13371e-06)
(-6.25524e-06 -4.20948e-06 -3.02279e-06)
(-1.03933e-05 -4.00758e-06 -7.53513e-06)
(-1.09159e-05 -6.70928e-06 -1.23611e-05)
(-6.3063e-06 -1.15961e-05 -1.40264e-05)
(2.2777e-06 -1.39675e-05 -1.05813e-05)
(1.33255e-05 -1.6624e-05 -9.77279e-06)
(2.19801e-05 -1.66249e-05 -9.32212e-06)
(2.49858e-05 -1.46381e-05 -6.59282e-06)
(2.74409e-05 -1.23277e-05 -4.76197e-06)
(3.18588e-05 -1.21721e-05 -5.57251e-06)