/*--------------------------------*- C++ -*----------------------------------*\
  =========                 |
  \\      /  F ield         | OpenFOAM: The Open Source CFD Toolbox
   \\    /   O peration     | Website:  https://openfoam.org
    \\  /    A nd           | Version:  6
     \\/     M anipulation  |
\*---------------------------------------------------------------------------*/
FoamFile
{
    version     2.0;
    format      ascii;
    class       volScalarField;
    location    "80";
    object      nut;
}
// * * * * * * * * * * * * * * * * * * * * * * * * * * * * * * * * * * * * * //

dimensions      [0 2 -1 0 0 0 0];

internalField   nonuniform List<scalar> 
3240
(
1.12484e-08
1.12487e-08
1.12489e-08
1.44219e-09
1.44232e-09
1.44235e-09
2.23012e-09
2.23031e-09
2.23036e-09
3.10735e-09
3.10765e-09
3.10774e-09
3.99211e-09
3.99249e-09
3.99264e-09
4.88294e-09
4.88338e-09
4.88358e-09
5.78692e-09
5.78739e-09
5.78762e-09
6.71288e-09
6.71339e-09
6.71362e-09
7.66705e-09
7.66756e-09
7.6678e-09
8.64545e-09
8.64592e-09
8.64617e-09
9.6232e-09
9.62356e-09
9.62386e-09
1.05459e-08
1.05461e-08
1.05465e-08
1.13335e-08
1.13335e-08
1.13339e-08
1.19129e-08
1.19128e-08
1.19133e-08
1.22343e-08
1.22342e-08
1.22347e-08
1.22343e-08
1.22342e-08
1.22347e-08
1.1913e-08
1.19129e-08
1.19134e-08
1.13337e-08
1.13338e-08
1.13342e-08
1.05463e-08
1.05465e-08
1.05468e-08
9.62378e-09
9.62413e-09
9.62443e-09
8.64584e-09
8.64631e-09
8.64656e-09
7.66743e-09
7.66793e-09
7.66817e-09
6.71305e-09
6.71355e-09
6.71379e-09
5.78687e-09
5.78734e-09
5.78757e-09
4.88278e-09
4.88322e-09
4.88341e-09
3.99192e-09
3.99231e-09
3.99245e-09
3.10714e-09
3.10744e-09
3.10753e-09
2.22983e-09
2.23003e-09
2.23008e-09
1.44203e-09
1.44216e-09
1.44219e-09
1.12473e-08
1.12476e-08
1.12478e-08
9.92224e-06
9.92233e-06
9.9224e-06
1.94735e-07
1.94749e-07
1.94753e-07
2.76067e-07
2.76087e-07
2.76092e-07
3.59325e-07
3.59353e-07
3.59361e-07
4.36487e-07
4.3652e-07
4.36532e-07
5.08733e-07
5.08768e-07
5.08784e-07
5.77448e-07
5.77485e-07
5.77501e-07
6.43769e-07
6.43806e-07
6.43822e-07
7.08395e-07
7.0843e-07
7.08445e-07
7.71238e-07
7.71269e-07
7.71284e-07
8.30983e-07
8.31004e-07
8.31022e-07
8.84861e-07
8.84872e-07
8.84893e-07
9.29109e-07
9.2911e-07
9.29134e-07
9.60707e-07
9.60701e-07
9.60727e-07
9.77899e-07
9.77889e-07
9.77916e-07
9.779e-07
9.7789e-07
9.77917e-07
9.60714e-07
9.60708e-07
9.60734e-07
9.29123e-07
9.29124e-07
9.29149e-07
8.84883e-07
8.84894e-07
8.84915e-07
8.31017e-07
8.31039e-07
8.31057e-07
7.71264e-07
7.71294e-07
7.71309e-07
7.08421e-07
7.08456e-07
7.08471e-07
6.43781e-07
6.43818e-07
6.43834e-07
5.77445e-07
5.77481e-07
5.77498e-07
5.0872e-07
5.08756e-07
5.08771e-07
4.36472e-07
4.36505e-07
4.36517e-07
3.59306e-07
3.59335e-07
3.59343e-07
2.76039e-07
2.76059e-07
2.76064e-07
1.94717e-07
1.94732e-07
1.94736e-07
9.92191e-06
9.922e-06
9.92207e-06
1.19587e-05
1.19588e-05
1.19589e-05
1.57881e-06
1.57889e-06
1.5789e-06
1.84896e-06
1.84905e-06
1.84906e-06
2.10887e-06
2.10898e-06
2.109e-06
2.3218e-06
2.32191e-06
2.32194e-06
2.50406e-06
2.50417e-06
2.5042e-06
2.66624e-06
2.66634e-06
2.66638e-06
2.81493e-06
2.81503e-06
2.81506e-06
2.95405e-06
2.95414e-06
2.95416e-06
3.085e-06
3.08507e-06
3.0851e-06
3.20631e-06
3.20636e-06
3.20639e-06
3.31354e-06
3.31356e-06
3.3136e-06
3.40028e-06
3.40028e-06
3.40033e-06
3.46153e-06
3.4615e-06
3.46156e-06
3.49459e-06
3.49455e-06
3.49461e-06
3.49459e-06
3.49456e-06
3.49461e-06
3.46155e-06
3.46152e-06
3.46157e-06
3.40032e-06
3.40031e-06
3.40036e-06
3.31359e-06
3.3136e-06
3.31365e-06
3.20638e-06
3.20643e-06
3.20646e-06
3.08505e-06
3.08513e-06
3.08515e-06
2.9541e-06
2.95419e-06
2.95422e-06
2.81496e-06
2.81506e-06
2.81509e-06
2.66624e-06
2.66634e-06
2.66637e-06
2.50404e-06
2.50415e-06
2.50418e-06
2.32176e-06
2.32187e-06
2.3219e-06
2.10882e-06
2.10892e-06
2.10894e-06
1.84887e-06
1.84895e-06
1.84897e-06
1.57873e-06
1.57881e-06
1.57883e-06
1.19583e-05
1.19584e-05
1.19585e-05
1.36314e-05
1.36315e-05
1.36316e-05
3.71423e-06
3.71442e-06
3.71446e-06
3.98934e-06
3.98952e-06
3.98955e-06
4.39189e-06
4.3921e-06
4.39213e-06
4.72912e-06
4.72934e-06
4.72938e-06
5.01868e-06
5.01889e-06
5.01894e-06
5.27612e-06
5.27632e-06
5.27637e-06
5.51177e-06
5.51196e-06
5.51201e-06
5.73193e-06
5.73211e-06
5.73214e-06
5.93896e-06
5.9391e-06
5.93914e-06
6.13068e-06
6.13077e-06
6.13082e-06
6.30016e-06
6.30019e-06
6.30026e-06
6.43722e-06
6.43719e-06
6.43727e-06
6.53385e-06
6.53377e-06
6.53387e-06
6.58588e-06
6.58579e-06
6.58589e-06
6.58589e-06
6.58579e-06
6.5859e-06
6.53387e-06
6.5338e-06
6.5339e-06
6.43727e-06
6.43724e-06
6.43733e-06
6.30024e-06
6.30027e-06
6.30034e-06
6.13081e-06
6.13089e-06
6.13095e-06
5.93905e-06
5.9392e-06
5.93923e-06
5.73203e-06
5.73221e-06
5.73224e-06
5.51183e-06
5.51202e-06
5.51207e-06
5.27613e-06
5.27633e-06
5.27638e-06
5.01865e-06
5.01887e-06
5.01892e-06
4.72908e-06
4.7293e-06
4.72934e-06
4.39182e-06
4.39203e-06
4.39206e-06
3.98919e-06
3.98938e-06
3.98941e-06
3.71413e-06
3.71432e-06
3.71435e-06
1.3631e-05
1.36311e-05
1.36312e-05
1.51117e-05
1.51118e-05
1.51119e-05
6.54465e-06
6.54505e-06
6.54511e-06
6.60304e-06
6.60341e-06
6.60345e-06
7.13154e-06
7.13192e-06
7.13198e-06
7.59965e-06
7.60004e-06
7.6001e-06
8.00727e-06
8.00764e-06
8.00771e-06
8.3714e-06
8.37176e-06
8.37183e-06
8.70538e-06
8.70572e-06
8.70578e-06
9.01781e-06
9.01811e-06
9.01816e-06
9.31197e-06
9.31222e-06
9.31227e-06
9.58479e-06
9.58494e-06
9.58501e-06
9.82626e-06
9.82629e-06
9.8264e-06
1.00216e-05
1.00215e-05
1.00217e-05
1.01592e-05
1.0159e-05
1.01592e-05
1.02331e-05
1.02329e-05
1.02331e-05
1.02331e-05
1.02329e-05
1.02331e-05
1.01592e-05
1.01591e-05
1.01592e-05
1.00217e-05
1.00216e-05
1.00218e-05
9.82639e-06
9.82642e-06
9.82652e-06
9.58498e-06
9.58513e-06
9.5852e-06
9.31212e-06
9.31237e-06
9.31242e-06
9.01796e-06
9.01827e-06
9.01832e-06
8.70548e-06
8.70582e-06
8.70588e-06
8.37143e-06
8.37179e-06
8.37186e-06
8.00725e-06
8.00762e-06
8.0077e-06
7.59961e-06
7.6e-06
7.60006e-06
7.13146e-06
7.13185e-06
7.1319e-06
6.60285e-06
6.60322e-06
6.60326e-06
6.54455e-06
6.54495e-06
6.54501e-06
1.51112e-05
1.51114e-05
1.51115e-05
1.64785e-05
1.64786e-05
1.64787e-05
1.01372e-05
1.0138e-05
1.0138e-05
9.69434e-06
9.695e-06
9.69507e-06
1.03017e-05
1.03023e-05
1.03024e-05
1.08972e-05
1.08978e-05
1.08979e-05
1.143e-05
1.14306e-05
1.14307e-05
1.19111e-05
1.19116e-05
1.19117e-05
1.23547e-05
1.23552e-05
1.23553e-05
1.27711e-05
1.27715e-05
1.27716e-05
1.31642e-05
1.31646e-05
1.31647e-05
1.35297e-05
1.353e-05
1.35301e-05
1.38538e-05
1.38539e-05
1.3854e-05
1.41161e-05
1.4116e-05
1.41162e-05
1.43006e-05
1.43004e-05
1.43007e-05
1.43996e-05
1.43994e-05
1.43996e-05
1.43996e-05
1.43994e-05
1.43996e-05
1.43007e-05
1.43005e-05
1.43007e-05
1.41162e-05
1.41161e-05
1.41163e-05
1.3854e-05
1.3854e-05
1.38542e-05
1.353e-05
1.35302e-05
1.35303e-05
1.31644e-05
1.31648e-05
1.31649e-05
1.27713e-05
1.27718e-05
1.27718e-05
1.23548e-05
1.23553e-05
1.23554e-05
1.19111e-05
1.19117e-05
1.19118e-05
1.143e-05
1.14306e-05
1.14307e-05
1.08971e-05
1.08978e-05
1.08979e-05
1.03016e-05
1.03023e-05
1.03023e-05
9.69412e-06
9.69478e-06
9.69485e-06
1.01372e-05
1.01379e-05
1.0138e-05
1.6478e-05
1.64781e-05
1.64782e-05
1.77756e-05
1.77757e-05
1.77758e-05
1.45365e-05
1.45377e-05
1.45378e-05
1.33097e-05
1.33108e-05
1.33109e-05
1.39138e-05
1.39149e-05
1.3915e-05
1.46199e-05
1.46209e-05
1.4621e-05
1.528e-05
1.5281e-05
1.52812e-05
1.58867e-05
1.58876e-05
1.58877e-05
1.6451e-05
1.64519e-05
1.6452e-05
1.69837e-05
1.69844e-05
1.69845e-05
1.74886e-05
1.74892e-05
1.74893e-05
1.79594e-05
1.79598e-05
1.79599e-05
1.83777e-05
1.83778e-05
1.8378e-05
1.87164e-05
1.87163e-05
1.87165e-05
1.89544e-05
1.89542e-05
1.89545e-05
1.90819e-05
1.90816e-05
1.90819e-05
1.90819e-05
1.90816e-05
1.90819e-05
1.89545e-05
1.89543e-05
1.89546e-05
1.87166e-05
1.87165e-05
1.87167e-05
1.83779e-05
1.83781e-05
1.83783e-05
1.79598e-05
1.79602e-05
1.79603e-05
1.74889e-05
1.74895e-05
1.74896e-05
1.6984e-05
1.69848e-05
1.69849e-05
1.64513e-05
1.64521e-05
1.64522e-05
1.58868e-05
1.58877e-05
1.58879e-05
1.52801e-05
1.52811e-05
1.52812e-05
1.46199e-05
1.46209e-05
1.46211e-05
1.39138e-05
1.39149e-05
1.3915e-05
1.33095e-05
1.33106e-05
1.33107e-05
1.45366e-05
1.45378e-05
1.45379e-05
1.77751e-05
1.77752e-05
1.77753e-05
1.90294e-05
1.90296e-05
1.90297e-05
1.97395e-05
1.97413e-05
1.97415e-05
1.7521e-05
1.75227e-05
1.75228e-05
1.80045e-05
1.80062e-05
1.80063e-05
1.87867e-05
1.87883e-05
1.87885e-05
1.95692e-05
1.95707e-05
1.95709e-05
2.03075e-05
2.03088e-05
2.0309e-05
2.10031e-05
2.10043e-05
2.10045e-05
2.16646e-05
2.16658e-05
2.16659e-05
2.22949e-05
2.22959e-05
2.2296e-05
2.28847e-05
2.28853e-05
2.28854e-05
2.34097e-05
2.341e-05
2.34102e-05
2.38351e-05
2.38351e-05
2.38354e-05
2.41339e-05
2.41337e-05
2.4134e-05
2.42937e-05
2.42935e-05
2.42938e-05
2.42938e-05
2.42935e-05
2.42939e-05
2.4134e-05
2.41338e-05
2.41342e-05
2.38353e-05
2.38354e-05
2.38357e-05
2.34101e-05
2.34103e-05
2.34106e-05
2.28852e-05
2.28858e-05
2.2886e-05
2.22953e-05
2.22963e-05
2.22964e-05
2.16651e-05
2.16662e-05
2.16664e-05
2.10034e-05
2.10047e-05
2.10049e-05
2.03077e-05
2.0309e-05
2.03092e-05
1.95694e-05
1.95708e-05
1.9571e-05
1.87868e-05
1.87884e-05
1.87886e-05
1.80045e-05
1.80062e-05
1.80064e-05
1.75208e-05
1.75225e-05
1.75226e-05
1.97398e-05
1.97416e-05
1.97418e-05
1.90289e-05
1.90291e-05
1.90292e-05
2.02562e-05
2.02564e-05
2.02565e-05
2.56913e-05
2.56937e-05
2.5694e-05
2.24124e-05
2.24149e-05
2.24151e-05
2.26289e-05
2.26315e-05
2.26316e-05
2.34312e-05
2.34335e-05
2.34337e-05
2.43209e-05
2.43231e-05
2.43233e-05
2.51926e-05
2.51946e-05
2.51948e-05
2.60287e-05
2.60305e-05
2.60308e-05
2.68319e-05
2.68335e-05
2.68337e-05
2.76019e-05
2.76033e-05
2.76034e-05
2.83252e-05
2.83262e-05
2.83264e-05
2.89707e-05
2.89712e-05
2.89715e-05
2.9494e-05
2.94942e-05
2.94946e-05
2.98615e-05
2.98614e-05
2.98619e-05
3.00579e-05
3.00578e-05
3.00583e-05
3.0058e-05
3.00579e-05
3.00583e-05
2.98616e-05
2.98616e-05
2.9862e-05
2.94943e-05
2.94946e-05
2.94949e-05
2.89712e-05
2.89717e-05
2.8972e-05
2.83259e-05
2.83269e-05
2.83271e-05
2.76024e-05
2.76038e-05
2.7604e-05
2.68325e-05
2.68342e-05
2.68343e-05
2.60292e-05
2.6031e-05
2.60312e-05
2.51929e-05
2.51949e-05
2.51951e-05
2.43211e-05
2.43233e-05
2.43235e-05
2.34314e-05
2.34337e-05
2.34339e-05
2.26292e-05
2.26317e-05
2.26319e-05
2.24124e-05
2.24149e-05
2.2415e-05
2.56919e-05
2.56943e-05
2.56946e-05
2.02557e-05
2.02558e-05
2.0256e-05
2.14647e-05
2.14648e-05
2.1465e-05
3.22911e-05
3.22943e-05
3.22946e-05
2.8068e-05
2.80714e-05
2.80716e-05
2.78583e-05
2.78619e-05
2.78621e-05
2.85988e-05
2.86022e-05
2.86024e-05
2.95669e-05
2.957e-05
2.95703e-05
3.05678e-05
3.05707e-05
3.0571e-05
3.15514e-05
3.15541e-05
3.15543e-05
3.25086e-05
3.2511e-05
3.25111e-05
3.34331e-05
3.34352e-05
3.34353e-05
3.43057e-05
3.43072e-05
3.43074e-05
3.50863e-05
3.50873e-05
3.50876e-05
3.57198e-05
3.57204e-05
3.57208e-05
3.61646e-05
3.6165e-05
3.61654e-05
3.64025e-05
3.64027e-05
3.64032e-05
3.64026e-05
3.64028e-05
3.64033e-05
3.61649e-05
3.61652e-05
3.61657e-05
3.57202e-05
3.57208e-05
3.57212e-05
3.50869e-05
3.50879e-05
3.50882e-05
3.43066e-05
3.43081e-05
3.43083e-05
3.34338e-05
3.34359e-05
3.3436e-05
3.25094e-05
3.25118e-05
3.2512e-05
3.15521e-05
3.15548e-05
3.1555e-05
3.05683e-05
3.05711e-05
3.05714e-05
2.95672e-05
2.95703e-05
2.95706e-05
2.85991e-05
2.86026e-05
2.86028e-05
2.78588e-05
2.78624e-05
2.78626e-05
2.80681e-05
2.80715e-05
2.80717e-05
3.22921e-05
3.22953e-05
3.22955e-05
2.14641e-05
2.14643e-05
2.14644e-05
2.26577e-05
2.26579e-05
2.2658e-05
3.94017e-05
3.94056e-05
3.94059e-05
3.45576e-05
3.4562e-05
3.45623e-05
3.37764e-05
3.37813e-05
3.37816e-05
3.43469e-05
3.43516e-05
3.43519e-05
3.53467e-05
3.53511e-05
3.53514e-05
3.6464e-05
3.6468e-05
3.64683e-05
3.75984e-05
3.76022e-05
3.76024e-05
3.87207e-05
3.87241e-05
3.87243e-05
3.98149e-05
3.98179e-05
3.98181e-05
4.08531e-05
4.08554e-05
4.08557e-05
4.17847e-05
4.17863e-05
4.17868e-05
4.25415e-05
4.25427e-05
4.25432e-05
4.30734e-05
4.30743e-05
4.30748e-05
4.33581e-05
4.33588e-05
4.33593e-05
4.33582e-05
4.33589e-05
4.33594e-05
4.30737e-05
4.30746e-05
4.30752e-05
4.25421e-05
4.25433e-05
4.25438e-05
4.17855e-05
4.17871e-05
4.17875e-05
4.08543e-05
4.08566e-05
4.08569e-05
3.98158e-05
3.98188e-05
3.98189e-05
3.87218e-05
3.87252e-05
3.87254e-05
3.75993e-05
3.7603e-05
3.76033e-05
3.64646e-05
3.64686e-05
3.64689e-05
3.53472e-05
3.53515e-05
3.53518e-05
3.43474e-05
3.43522e-05
3.43524e-05
3.37773e-05
3.37823e-05
3.37825e-05
3.4558e-05
3.45625e-05
3.45627e-05
3.9403e-05
3.9407e-05
3.94073e-05
2.26571e-05
2.26573e-05
2.26574e-05
2.38335e-05
2.38337e-05
2.38339e-05
4.68578e-05
4.68625e-05
4.68629e-05
4.19234e-05
4.19289e-05
4.19293e-05
4.04756e-05
4.04822e-05
4.04826e-05
4.07441e-05
4.07506e-05
4.0751e-05
4.17073e-05
4.17132e-05
4.17136e-05
4.29162e-05
4.29217e-05
4.2922e-05
4.41993e-05
4.42045e-05
4.42048e-05
4.5496e-05
4.55007e-05
4.55009e-05
4.67746e-05
4.67788e-05
4.6779e-05
4.79955e-05
4.79989e-05
4.79992e-05
4.90949e-05
4.90975e-05
4.9098e-05
4.99895e-05
4.99915e-05
4.99921e-05
5.06189e-05
5.06205e-05
5.06212e-05
5.09562e-05
5.09575e-05
5.09583e-05
5.09563e-05
5.09577e-05
5.09584e-05
5.06193e-05
5.06209e-05
5.06216e-05
4.99902e-05
4.99922e-05
4.99928e-05
4.90959e-05
4.90985e-05
4.9099e-05
4.7997e-05
4.80004e-05
4.80008e-05
4.67757e-05
4.67799e-05
4.67801e-05
4.54973e-05
4.5502e-05
4.55023e-05
4.42005e-05
4.42056e-05
4.42059e-05
4.2917e-05
4.29224e-05
4.29228e-05
4.17079e-05
4.17138e-05
4.17142e-05
4.0745e-05
4.07515e-05
4.07518e-05
4.04773e-05
4.04838e-05
4.04842e-05
4.19242e-05
4.19297e-05
4.19301e-05
4.68596e-05
4.68642e-05
4.68646e-05
2.38329e-05
2.38331e-05
2.38332e-05
2.49867e-05
2.49869e-05
2.4987e-05
5.44742e-05
5.44795e-05
5.448e-05
5.01684e-05
5.01748e-05
5.01754e-05
4.80506e-05
4.8059e-05
4.80595e-05
4.7871e-05
4.78796e-05
4.78801e-05
4.87037e-05
4.87116e-05
4.87121e-05
4.99637e-05
4.9971e-05
4.99714e-05
5.13857e-05
5.13926e-05
5.1393e-05
5.28627e-05
5.28691e-05
5.28694e-05
5.43398e-05
5.43456e-05
5.43458e-05
5.57607e-05
5.57656e-05
5.5766e-05
5.70456e-05
5.70495e-05
5.70502e-05
5.80932e-05
5.80964e-05
5.80972e-05
5.88316e-05
5.88343e-05
5.88352e-05
5.9228e-05
5.92304e-05
5.92313e-05
5.92281e-05
5.92305e-05
5.92315e-05
5.88321e-05
5.88348e-05
5.88357e-05
5.8094e-05
5.80973e-05
5.80981e-05
5.70468e-05
5.70508e-05
5.70514e-05
5.57626e-05
5.57675e-05
5.57679e-05
5.43411e-05
5.43469e-05
5.43471e-05
5.28644e-05
5.28708e-05
5.28711e-05
5.13871e-05
5.1394e-05
5.13944e-05
4.99647e-05
4.9972e-05
4.99724e-05
4.87045e-05
4.87124e-05
4.87129e-05
4.78723e-05
4.78809e-05
4.78814e-05
4.80532e-05
4.80616e-05
4.80621e-05
5.01697e-05
5.01762e-05
5.01767e-05
5.44764e-05
5.44817e-05
5.44821e-05
2.4986e-05
2.49862e-05
2.49863e-05
2.61088e-05
2.61091e-05
2.61092e-05
6.20526e-05
6.20586e-05
6.20591e-05
5.9248e-05
5.92553e-05
5.9256e-05
5.65884e-05
5.65987e-05
5.65994e-05
5.58183e-05
5.58295e-05
5.58302e-05
5.64001e-05
5.64105e-05
5.64111e-05
5.76507e-05
5.76604e-05
5.76609e-05
5.91911e-05
5.92002e-05
5.92005e-05
6.08494e-05
6.0858e-05
6.08583e-05
6.25371e-05
6.25449e-05
6.25452e-05
6.41752e-05
6.4182e-05
6.41825e-05
6.5664e-05
6.56698e-05
6.56705e-05
6.68808e-05
6.68857e-05
6.68866e-05
6.77404e-05
6.77447e-05
6.77457e-05
6.82031e-05
6.8207e-05
6.82081e-05
6.82033e-05
6.82072e-05
6.82083e-05
6.7741e-05
6.77453e-05
6.77464e-05
6.68819e-05
6.68868e-05
6.68877e-05
6.56655e-05
6.56713e-05
6.5672e-05
6.41777e-05
6.41845e-05
6.4185e-05
6.25387e-05
6.25465e-05
6.25468e-05
6.08516e-05
6.08601e-05
6.08604e-05
5.91928e-05
5.92019e-05
5.92023e-05
5.76519e-05
5.76616e-05
5.76621e-05
5.64011e-05
5.64115e-05
5.64121e-05
5.58203e-05
5.58315e-05
5.58322e-05
5.65922e-05
5.66026e-05
5.66033e-05
5.92499e-05
5.92572e-05
5.92579e-05
6.20551e-05
6.2061e-05
6.20615e-05
2.61081e-05
2.61083e-05
2.61085e-05
2.71904e-05
2.71906e-05
2.71908e-05
6.93899e-05
6.93963e-05
6.93969e-05
6.90667e-05
6.90746e-05
6.90756e-05
6.61562e-05
6.61685e-05
6.61695e-05
6.46847e-05
6.46987e-05
6.46998e-05
6.48706e-05
6.48841e-05
6.48849e-05
6.60271e-05
6.60395e-05
6.60402e-05
6.76508e-05
6.76625e-05
6.7663e-05
6.94846e-05
6.94957e-05
6.94961e-05
7.1392e-05
7.14023e-05
7.14027e-05
7.32637e-05
7.3273e-05
7.32736e-05
7.4975e-05
7.49831e-05
7.4984e-05
7.63778e-05
7.63849e-05
7.6386e-05
7.73717e-05
7.73781e-05
7.73793e-05
7.79083e-05
7.79142e-05
7.79154e-05
7.79085e-05
7.79144e-05
7.79157e-05
7.73724e-05
7.73788e-05
7.738e-05
7.63792e-05
7.63863e-05
7.63873e-05
7.49769e-05
7.4985e-05
7.49858e-05
7.32668e-05
7.32761e-05
7.32766e-05
7.13939e-05
7.14042e-05
7.14045e-05
6.94872e-05
6.94983e-05
6.94987e-05
6.7653e-05
6.76647e-05
6.76652e-05
6.60285e-05
6.60409e-05
6.60416e-05
6.48718e-05
6.48853e-05
6.48861e-05
6.46876e-05
6.47017e-05
6.47027e-05
6.61618e-05
6.61741e-05
6.61751e-05
6.90691e-05
6.9077e-05
6.90779e-05
6.93924e-05
6.93988e-05
6.93994e-05
2.71896e-05
2.71898e-05
2.719e-05
2.82216e-05
2.82218e-05
2.82219e-05
7.62875e-05
7.62943e-05
7.62949e-05
7.94791e-05
7.94873e-05
7.94885e-05
7.6788e-05
7.6802e-05
7.68035e-05
7.45708e-05
7.45881e-05
7.45895e-05
7.41998e-05
7.42167e-05
7.4218e-05
7.51494e-05
7.51651e-05
7.51661e-05
7.68029e-05
7.68177e-05
7.68184e-05
7.87961e-05
7.88103e-05
7.88108e-05
8.09279e-05
8.09412e-05
8.09417e-05
8.30479e-05
8.30601e-05
8.30608e-05
8.50001e-05
8.5011e-05
8.5012e-05
8.6606e-05
8.66159e-05
8.66172e-05
8.77477e-05
8.77567e-05
8.77581e-05
8.83664e-05
8.83749e-05
8.83763e-05
8.83666e-05
8.83751e-05
8.83766e-05
8.77486e-05
8.77577e-05
8.77591e-05
8.66077e-05
8.66176e-05
8.66188e-05
8.50024e-05
8.50133e-05
8.50143e-05
8.30518e-05
8.30639e-05
8.30646e-05
8.09301e-05
8.09433e-05
8.09438e-05
7.87993e-05
7.88135e-05
7.8814e-05
7.68055e-05
7.68203e-05
7.6821e-05
7.51511e-05
7.51668e-05
7.51678e-05
7.42014e-05
7.42184e-05
7.42196e-05
7.4575e-05
7.45925e-05
7.45938e-05
7.67958e-05
7.68097e-05
7.68112e-05
7.94818e-05
7.94901e-05
7.94911e-05
7.62899e-05
7.62967e-05
7.62973e-05
2.82207e-05
2.82209e-05
2.8221e-05
2.91937e-05
2.91938e-05
2.9194e-05
8.2563e-05
8.25702e-05
8.25709e-05
9.02948e-05
9.03032e-05
9.03045e-05
8.84706e-05
8.8486e-05
8.8488e-05
8.55707e-05
8.55915e-05
8.55934e-05
8.44821e-05
8.45029e-05
8.45048e-05
8.50826e-05
8.51021e-05
8.51035e-05
8.66887e-05
8.67071e-05
8.67081e-05
8.88119e-05
8.88296e-05
8.88303e-05
9.11658e-05
9.11826e-05
9.11833e-05
9.35458e-05
9.35614e-05
9.35623e-05
9.57562e-05
9.57706e-05
9.57717e-05
9.75823e-05
9.75956e-05
9.7597e-05
9.88856e-05
9.88979e-05
9.88994e-05
9.95948e-05
9.96065e-05
9.96081e-05
9.95952e-05
9.96069e-05
9.96085e-05
9.88867e-05
9.88991e-05
9.89006e-05
9.75844e-05
9.75976e-05
9.7599e-05
9.57591e-05
9.57734e-05
9.57745e-05
9.35506e-05
9.35662e-05
9.35671e-05
9.11684e-05
9.11851e-05
9.11858e-05
8.88158e-05
8.88335e-05
8.88342e-05
8.66918e-05
8.67102e-05
8.67112e-05
8.50845e-05
8.51041e-05
8.51053e-05
8.44841e-05
8.45051e-05
8.45068e-05
8.55767e-05
8.55974e-05
8.55995e-05
8.84808e-05
8.84962e-05
8.84981e-05
9.02973e-05
9.03056e-05
9.0307e-05
8.25651e-05
8.25723e-05
8.25729e-05
2.91927e-05
2.91929e-05
2.91931e-05
3.01004e-05
3.01006e-05
3.01007e-05
8.80628e-05
8.80704e-05
8.80711e-05
0.000101287
0.000101295
0.000101296
0.000101132
0.000101149
0.000101151
9.77595e-05
9.77837e-05
9.77863e-05
9.5819e-05
9.58444e-05
9.58468e-05
9.59011e-05
9.59249e-05
9.59268e-05
9.73542e-05
9.73766e-05
9.7378e-05
9.95601e-05
9.95816e-05
9.95826e-05
0.000102124
0.000102145
0.000102146
0.000104771
0.000104791
0.000104792
0.000107255
0.000107273
0.000107275
0.000109318
0.000109335
0.000109336
0.000110796
0.000110812
0.000110814
0.000111604
0.00011162
0.000111622
0.000111605
0.00011162
0.000111622
0.000110797
0.000110814
0.000110815
0.00010932
0.000109337
0.000109339
0.000107259
0.000107277
0.000107278
0.000104777
0.000104797
0.000104798
0.000102127
0.000102148
0.000102149
9.95647e-05
9.95863e-05
9.95872e-05
9.73577e-05
9.73801e-05
9.73815e-05
9.59031e-05
9.5927e-05
9.59288e-05
9.58215e-05
9.5847e-05
9.58493e-05
9.77678e-05
9.77919e-05
9.77946e-05
0.000101145
0.000101161
0.000101164
0.000101288
0.000101296
0.000101298
8.80643e-05
8.80718e-05
8.80725e-05
3.00994e-05
3.00996e-05
3.00997e-05
3.09387e-05
3.09388e-05
3.0939e-05
9.26746e-05
9.26825e-05
9.26832e-05
0.000112201
0.000112209
0.000112211
0.000114636
0.000114653
0.000114656
0.000111177
0.000111205
0.000111208
0.000108314
0.000108344
0.000108347
0.00010769
0.000107718
0.000107721
0.000108852
0.000108878
0.00010888
0.00011107
0.000111095
0.000111097
0.000113819
0.000113844
0.000113845
0.000116733
0.000116757
0.000116758
0.000119502
0.000119525
0.000119526
0.000121815
0.000121837
0.000121839
0.000123482
0.000123502
0.000123504
0.000124398
0.000124417
0.00012442
0.000124398
0.000124418
0.00012442
0.000123483
0.000123504
0.000123506
0.000121818
0.00012184
0.000121842
0.000119506
0.000119529
0.00011953
0.00011674
0.000116764
0.000116765
0.000113823
0.000113847
0.000113849
0.000111075
0.000111101
0.000111102
0.000108855
0.000108882
0.000108884
0.000107692
0.00010772
0.000107723
0.000108317
0.000108347
0.00010835
0.000111188
0.000111216
0.000111219
0.000114652
0.000114668
0.000114671
0.000112201
0.000112209
0.000112211
9.26752e-05
9.2683e-05
9.26838e-05
3.09376e-05
3.09377e-05
3.09379e-05
3.17087e-05
3.17089e-05
3.1709e-05
9.63379e-05
9.63461e-05
9.6347e-05
0.00012277
0.000122777
0.000122779
0.00012878
0.000128796
0.0001288
0.000125814
0.000125843
0.000125848
0.000122062
0.000122096
0.000122101
0.000120543
0.000120576
0.00012058
0.000121241
0.000121272
0.000121275
0.000123371
0.000123401
0.000123403
0.000126263
0.000126292
0.000126294
0.000129434
0.000129462
0.000129464
0.000132495
0.000132522
0.000132524
0.000135071
0.000135097
0.000135099
0.000136936
0.000136961
0.000136963
0.000137968
0.000137992
0.000137994
0.000137968
0.000137992
0.000137995
0.000136938
0.000136963
0.000136965
0.000135074
0.0001351
0.000135103
0.0001325
0.000132527
0.000132529
0.000129443
0.000129471
0.000129472
0.000126267
0.000126296
0.000126298
0.000123378
0.000123407
0.000123409
0.000121245
0.000121276
0.000121279
0.000120545
0.000120578
0.000120582
0.000122066
0.000122101
0.000122105
0.000125827
0.000125857
0.000125862
0.000128796
0.000128813
0.000128816
0.000122767
0.000122774
0.000122776
9.63372e-05
9.63454e-05
9.63463e-05
3.17075e-05
3.17077e-05
3.17078e-05
3.24143e-05
3.24144e-05
3.24146e-05
9.905e-05
9.90586e-05
9.90597e-05
0.000132724
0.000132731
0.000132733
0.000143296
0.000143311
0.000143315
0.000141589
0.00014162
0.000141625
0.000137136
0.000137175
0.000137181
0.000134563
0.000134601
0.000134606
0.000134592
0.000134628
0.000134632
0.0001365
0.000136533
0.000136536
0.000139467
0.0001395
0.000139502
0.000142871
0.000142903
0.000142905
0.000146223
0.000146254
0.000146257
0.000149068
0.000149098
0.000149101
0.000151141
0.00015117
0.000151173
0.000152295
0.000152324
0.000152326
0.000152296
0.000152324
0.000152327
0.000151143
0.000151173
0.000151176
0.000149072
0.000149103
0.000149105
0.000146229
0.00014626
0.000146263
0.000142882
0.000142914
0.000142916
0.000139472
0.000139504
0.000139507
0.000136507
0.00013654
0.000136543
0.000134597
0.000134632
0.000134636
0.000134564
0.000134602
0.000134607
0.000137141
0.00013718
0.000137186
0.000141606
0.000141637
0.000141642
0.000143313
0.000143328
0.000143332
0.000132717
0.000132724
0.000132726
9.9048e-05
9.90567e-05
9.90577e-05
3.2413e-05
3.24131e-05
3.24133e-05
3.30617e-05
3.30619e-05
3.3062e-05
0.000100866
0.000100876
0.000100877
0.000141808
0.000141815
0.000141817
0.000157867
0.000157881
0.000157885
0.000158344
0.000158376
0.000158382
0.00015357
0.000153613
0.000153619
0.000149851
0.000149894
0.0001499
0.000148987
0.000149026
0.000149031
0.000150494
0.000150531
0.000150535
0.000153439
0.000153475
0.000153478
0.000157034
0.000157069
0.000157072
0.000160665
0.0001607
0.000160702
0.00016378
0.000163814
0.000163817
0.000166064
0.000166098
0.000166101
0.000167346
0.000167379
0.000167382
0.000167347
0.000167379
0.000167383
0.000166068
0.000166101
0.000166104
0.000163785
0.000163819
0.000163822
0.000160672
0.000160707
0.00016071
0.000157046
0.000157081
0.000157084
0.000153444
0.00015348
0.000153483
0.000150502
0.000150539
0.000150542
0.000148991
0.00014903
0.000149035
0.000149852
0.000149894
0.000149901
0.000153576
0.000153618
0.000153625
0.000158363
0.000158395
0.000158401
0.000157881
0.000157895
0.0001579
0.000141795
0.000141802
0.000141804
0.000100863
0.000100872
0.000100873
3.30603e-05
3.30605e-05
3.30606e-05
3.36592e-05
3.36594e-05
3.36595e-05
0.000101892
0.000101903
0.000101904
0.000149795
0.000149803
0.000149806
0.000172135
0.000172147
0.000172153
0.000175832
0.000175863
0.00017587
0.000171334
0.000171378
0.000171386
0.000166501
0.000166547
0.000166555
0.000164515
0.000164557
0.000164564
0.000165401
0.000165441
0.000165445
0.000168185
0.000168222
0.000168226
0.000171902
0.000171939
0.000171943
0.000175785
0.000175822
0.000175826
0.000179162
0.000179199
0.000179203
0.000181658
0.000181694
0.000181698
0.000183069
0.000183105
0.000183109
0.00018307
0.000183106
0.00018311
0.000181662
0.000181698
0.000181702
0.000179168
0.000179205
0.000179209
0.000175793
0.00017583
0.000175834
0.000171916
0.000171953
0.000171956
0.00016819
0.000168228
0.000168232
0.000165409
0.000165448
0.000165453
0.000164518
0.00016456
0.000164566
0.0001665
0.000166546
0.000166554
0.00017134
0.000171385
0.000171393
0.000175852
0.000175883
0.00017589
0.000172145
0.000172157
0.000172162
0.000149774
0.000149782
0.000149785
0.000101887
0.000101898
0.000101899
3.36577e-05
3.36579e-05
3.3658e-05
3.42155e-05
3.42156e-05
3.42158e-05
0.000102271
0.000102282
0.000102284
0.000156503
0.000156512
0.000156515
0.000185723
0.000185733
0.000185739
0.000193721
0.00019375
0.000193758
0.000190313
0.000190358
0.000190368
0.000184573
0.000184621
0.00018463
0.000181274
0.000181318
0.000181326
0.000181275
0.000181314
0.00018132
0.000183707
0.000183745
0.00018375
0.000187444
0.000187481
0.000187485
0.000191532
0.000191569
0.000191573
0.000195151
0.000195189
0.000195193
0.00019785
0.000197887
0.000197892
0.000199389
0.000199426
0.00019943
0.00019939
0.000199427
0.000199432
0.000197855
0.000197892
0.000197897
0.000195158
0.000195196
0.000195201
0.000191541
0.000191578
0.000191583
0.000187459
0.000187496
0.0001875
0.000183714
0.000183751
0.000183756
0.000181283
0.000181322
0.000181328
0.000181274
0.000181318
0.000181326
0.000184569
0.000184618
0.000184627
0.000190319
0.000190364
0.000190374
0.000193739
0.000193767
0.000193775
0.000185723
0.000185733
0.00018574
0.000156472
0.000156481
0.000156485
0.000102264
0.000102276
0.000102277
3.42138e-05
3.4214e-05
3.42142e-05
3.47385e-05
3.47387e-05
3.47389e-05
0.000102164
0.000102177
0.000102178
0.000161807
0.000161819
0.000161822
0.000198249
0.000198258
0.000198265
0.000211598
0.000211623
0.000211632
0.000210291
0.000210334
0.000210345
0.000204073
0.000204122
0.000204133
0.000199354
0.000199399
0.000199408
0.000198174
0.000198212
0.00019822
0.000200005
0.000200039
0.000200045
0.000203609
0.000203643
0.000203649
0.000207827
0.000207861
0.000207867
0.000211653
0.000211689
0.000211694
0.000214538
0.000214573
0.000214579
0.000216198
0.000216233
0.000216239
0.0002162
0.000216235
0.00021624
0.000214543
0.000214579
0.000214584
0.000211662
0.000211698
0.000211703
0.000207838
0.000207872
0.000207878
0.000203626
0.00020366
0.000203665
0.000200012
0.000200046
0.000200052
0.000198181
0.000198219
0.000198226
0.000199352
0.000199396
0.000199406
0.000204067
0.000204115
0.000204126
0.000210295
0.000210338
0.000210348
0.000211609
0.000211634
0.000211643
0.000198236
0.000198244
0.000198251
0.000161766
0.000161777
0.000161781
0.000102156
0.000102169
0.00010217
3.47368e-05
3.47369e-05
3.47371e-05
3.52349e-05
3.52351e-05
3.52353e-05
0.000101733
0.000101747
0.000101749
0.000165655
0.000165669
0.000165673
0.000209353
0.00020936
0.000209368
0.000228988
0.000229006
0.000229017
0.000230932
0.00023097
0.000230981
0.000224923
0.000224968
0.000224981
0.000218826
0.000218867
0.000218878
0.00021616
0.000216195
0.000216203
0.000217065
0.000217094
0.000217102
0.000220323
0.000220351
0.000220357
0.000224556
0.000224584
0.00022459
0.000228533
0.000228563
0.000228569
0.000231573
0.000231603
0.000231609
0.000233342
0.000233372
0.000233378
0.000233344
0.000233374
0.00023338
0.000231579
0.00023161
0.000231616
0.000228543
0.000228573
0.000228579
0.000224568
0.000224597
0.000224602
0.00022034
0.000220367
0.000220374
0.000217073
0.000217102
0.000217109
0.000216165
0.000216199
0.000216208
0.000218819
0.00021886
0.000218871
0.000224912
0.000224957
0.000224969
0.00023093
0.000230968
0.000230979
0.000228987
0.000229006
0.000229016
0.000209321
0.000209327
0.000209336
0.000165601
0.000165615
0.00016562
0.000101723
0.000101738
0.00010174
3.52331e-05
3.52332e-05
3.52334e-05
3.5709e-05
3.57092e-05
3.57094e-05
0.000101124
0.00010114
0.000101142
0.000168067
0.000168085
0.00016809
0.000218713
0.000218719
0.000218729
0.00024537
0.000245382
0.000245393
0.000251776
0.000251806
0.000251818
0.000246921
0.00024696
0.000246973
0.000239702
0.000239738
0.00023975
0.000235283
0.00023531
0.00023532
0.000234861
0.000234881
0.000234889
0.00023747
0.000237487
0.000237494
0.000241548
0.000241565
0.000241572
0.00024559
0.000245609
0.000245615
0.000248739
0.00024876
0.000248767
0.000250596
0.000250617
0.000250623
0.000250598
0.000250619
0.000250625
0.000248747
0.000248768
0.000248774
0.000245602
0.000245621
0.000245627
0.000241561
0.000241579
0.000241585
0.000237486
0.000237503
0.00023751
0.000234869
0.000234889
0.000234897
0.000235284
0.000235311
0.000235321
0.000239688
0.000239724
0.000239737
0.000246902
0.000246942
0.000246955
0.000251764
0.000251794
0.000251807
0.000245351
0.000245363
0.000245375
0.000218657
0.000218663
0.000218673
0.000168001
0.000168019
0.000168024
0.000101114
0.00010113
0.000101132
3.57071e-05
3.57073e-05
3.57075e-05
3.61629e-05
3.61631e-05
3.61634e-05
0.000100457
0.000100475
0.000100477
0.000169145
0.000169166
0.000169172
0.000226072
0.000226079
0.00022609
0.000260206
0.000260212
0.000260224
0.000272249
0.000272269
0.000272282
0.000269713
0.000269744
0.000269757
0.000261901
0.000261928
0.000261941
0.000255557
0.000255576
0.000255586
0.000253331
0.00025334
0.000253348
0.000254872
0.000254876
0.000254883
0.000258545
0.000258548
0.000258554