/*--------------------------------*- C++ -*----------------------------------*\
  =========                 |
  \\      /  F ield         | OpenFOAM: The Open Source CFD Toolbox
   \\    /   O peration     | Website:  https://openfoam.org
    \\  /    A nd           | Version:  6
     \\/     M anipulation  |
\*---------------------------------------------------------------------------*/
FoamFile
{
    version     2.0;
    format      ascii;
    class       volScalarField;
    location    "80";
    object      omega;
}
// * * * * * * * * * * * * * * * * * * * * * * * * * * * * * * * * * * * * * //

dimensions      [0 0 -1 0 0 0 0];

internalField   nonuniform List<scalar> 
3240
(
1087.64
1087.64
1087.64
2172.9
2172.9
2172.9
2172.9
2172.9
2172.9
2172.9
2172.9
2172.9
2172.9
2172.9
2172.9
2172.9
2172.9
2172.9
2172.9
2172.9
2172.9
2172.9
2172.9
2172.9
2172.9
2172.9
2172.9
2172.9
2172.9
2172.9
2172.9
2172.9
2172.9
2172.9
2172.9
2172.9
2172.9
2172.9
2172.9
2172.9
2172.9
2172.9
2172.9
2172.9
2172.9
2172.9
2172.9
2172.9
2172.9
2172.9
2172.9
2172.9
2172.9
2172.9
2172.9
2172.9
2172.9
2172.9
2172.9
2172.9
2172.9
2172.9
2172.9
2172.9
2172.9
2172.9
2172.9
2172.9
2172.9
2172.9
2172.9
2172.9
2172.9
2172.9
2172.9
2172.9
2172.9
2172.9
2172.9
2172.9
2172.9
2172.9
2172.9
2172.9
2172.9
2172.9
2172.9
1087.64
1087.64
1087.64
5.84668
5.84673
5.84677
458.814
458.816
458.817
482.292
482.295
482.296
498.577
498.581
498.582
511.027
511.03
511.032
521.098
521.101
521.103
529.607
529.61
529.612
537.041
537.044
537.046
543.684
543.686
543.688
549.666
549.668
549.67
554.974
554.976
554.977
559.478
559.479
559.481
562.994
562.995
562.997
565.416
565.417
565.419
566.709
566.71
566.711
566.709
566.71
566.711
565.416
565.417
565.419
562.995
562.996
562.998
559.479
559.481
559.482
554.977
554.978
554.98
549.668
549.67
549.672
543.686
543.688
543.69
537.042
537.044
537.046
529.606
529.609
529.611
521.095
521.098
521.101
511.024
511.027
511.03
498.574
498.577
498.579
482.285
482.288
482.29
458.808
458.81
458.812
5.84648
5.84654
5.84658
7.04664
7.0467
7.04674
202.466
202.466
202.467
217.27
217.27
217.271
225.756
225.757
225.758
232.05
232.051
232.052
237.124
237.124
237.126
241.433
241.434
241.435
245.23
245.23
245.231
248.655
248.655
248.656
251.767
251.768
251.769
254.553
254.554
254.555
256.934
256.935
256.936
258.806
258.807
258.808
260.105
260.106
260.107
260.803
260.805
260.805
260.803
260.805
260.805
260.105
260.106
260.107
258.806
258.807
258.808
256.935
256.936
256.937
254.554
254.555
254.556
251.768
251.769
251.77
248.655
248.656
248.657
245.23
245.23
245.232
241.432
241.433
241.434
237.122
237.123
237.124
232.048
232.049
232.05
225.754
225.755
225.756
217.267
217.267
217.268
202.462
202.463
202.463
7.04642
7.04648
7.04653
8.03227
8.03234
8.03239
112.906
112.906
112.906
123.391
123.39
123.391
129.019
129.019
129.02
133.121
133.121
133.122
136.436
136.436
136.437
139.27
139.27
139.271
141.783
141.783
141.784
144.063
144.064
144.064
146.145
146.145
146.146
148.013
148.014
148.015
149.614
149.615
149.615
150.875
150.877
150.877
151.755
151.756
151.756
152.229
152.231
152.231
152.229
152.231
152.231
151.755
151.756
151.756
150.876
150.877
150.877
149.614
149.615
149.616
148.014
148.015
148.015
146.145
146.146
146.146
144.064
144.064
144.065
141.783
141.783
141.784
139.269
139.269
139.27
136.435
136.435
136.436
133.12
133.12
133.121
129.017
129.018
129.018
123.388
123.388
123.388
112.904
112.903
112.904
8.03203
8.0321
8.03215
8.90455
8.90462
8.90468
72.5418
72.541
72.541
80.3551
80.3543
80.3544
84.6433
84.643
84.6431
87.6793
87.6792
87.6795
90.1063
90.1063
90.1067
92.1736
92.1736
92.174
94.0046
94.0046
94.005
95.6641
95.6642
95.6647
97.1774
97.1777
97.1781
98.5341
98.5346
98.535
99.6953
99.6962
99.6965
100.611
100.612
100.613
101.251
101.252
101.253
101.598
101.599
101.599
101.598
101.599
101.599
101.251
101.252
101.253
100.611
100.612
100.613
99.6954
99.6964
99.6966
98.5345
98.5351
98.5354
97.1776
97.1779
97.1784
95.6643
95.6644
95.6649
94.0044
94.0044
94.0049
92.173
92.173
92.1734
90.1053
90.1053
90.1057
87.6781
87.6781
87.6784
84.6421
84.6417
84.6419
80.3533
80.3525
80.3526
72.5397
72.5389
72.539
8.90429
8.90437
8.90442
9.70993
9.71001
9.71007
51.1875
51.1866
51.1867
56.8694
56.8684
56.8684
60.3381
60.3374
60.3375
62.7374
62.7371
62.7372
64.6263
64.626
64.6263
66.2221
66.222
66.2223
67.6289
67.6288
67.629
68.8993
68.8993
68.8996
70.0542
70.0544
70.0547
71.0868
71.0873
71.0875
71.9692
71.97
71.9701
72.6652
72.6663
72.6664
73.1526
73.1539
73.1539
73.4174
73.4187
73.4187
73.4173
73.4187
73.4187
73.1526
73.1538
73.1539
72.6652
72.6663
72.6664
71.9692
71.9701
71.9702
71.0871
71.0875
71.0877
70.0544
70.0545
70.0548
68.8994
68.8994
68.8997
67.6287
67.6286
67.6288
66.2216
66.2214
66.2217
64.6254
64.6252
64.6254
62.7365
62.7361
62.7363
60.337
60.3363
60.3364
56.8679
56.8669
56.8669
51.1857
51.1848
51.1849
9.70965
9.70973
9.70979
10.4742
10.4743
10.4744
38.6136
38.6127
38.6127
42.496
42.4948
42.4948
45.3693
45.3683
45.3684
47.3444
47.3439
47.3439
48.8753
48.8749
48.875
50.1553
50.1551
50.1551
51.276
51.2757
51.2759
52.2828
52.2827
52.2829
53.1943
53.1944
53.1946
54.0066
54.0069
54.0071
54.6993
54.7
54.7001
55.2459
55.2468
55.2468
55.6294
55.6304
55.6304
55.8381
55.8391
55.8391
55.838
55.8391
55.8391
55.6293
55.6303
55.6303
55.2459
55.2468
55.2468
54.6994
54.7
54.7001
54.0067
54.0071
54.0072
53.1944
53.1944
53.1946
52.2829
52.2827
52.2829
51.2757
51.2755
51.2756
50.1548
50.1545
50.1546
48.8745
48.8741
48.8742
47.3436
47.343
47.3431
45.3683
45.3674
45.3674
42.4947
42.4935
42.4935
38.612
38.6111
38.6111
10.4739
10.474
10.4741
11.2131
11.2132
11.2132
30.6248
30.6239
30.6239
33
32.9987
32.9987
35.3816
35.3805
35.3805
37.0492
37.0485
37.0485
38.3267
38.3262
38.3262
39.383
39.3825
39.3826
40.3001
40.2997
40.2998
41.119
41.1188
41.1188
41.8566
41.8566
41.8567
42.5116
42.5118
42.5119
43.0691
43.0696
43.0696
43.5089
43.5096
43.5096
43.8179
43.8187
43.8187
43.9864
43.9872
43.9872
43.9863
43.9871
43.9871
43.8179
43.8186
43.8186
43.5089
43.5095
43.5096
43.0691
43.0695
43.0695
42.5117
42.5119
42.5119
41.8566
41.8566
41.8567
41.1189
41.1187
41.1188
40.2998
40.2995
40.2996
39.3825
39.3821
39.3821
38.326
38.3255
38.3255
37.0485
37.0478
37.0478
35.3807
35.3797
35.3797
32.9988
32.9976
32.9976
30.6233
30.6225
30.6225
11.2128
11.2129
11.2129
11.936
11.9361
11.9361
25.2456
25.2448
25.2448
26.3897
26.3884
26.3884
28.3298
28.3286
28.3286
29.7568
29.7559
29.7559
30.8456
30.8449
30.8449
31.7365
31.7359
31.7359
32.5031
32.5026
32.5026
33.1828
33.1824
33.1825
33.7917
33.7915
33.7915
34.3302
34.3302
34.3303
34.7875
34.7878
34.7878
35.1483
35.1488
35.1488
35.402
35.4026
35.4025
35.5404
35.541
35.5409
35.5403
35.5409
35.5409
35.402
35.4025
35.4025
35.1483
35.1487
35.1487
34.7875
34.7878
34.7878
34.3302
34.3302
34.3303
33.7916
33.7914
33.7915
33.1827
33.1823
33.1824
32.5028
32.5024
32.5024
31.736
31.7355
31.7355
30.845
30.8443
30.8443
29.7561
29.7552
29.7552
28.329
28.3278
28.3278
26.3886
26.3874
26.3874
25.2443
25.2435
25.2435
11.9356
11.9357
11.9358
12.648
12.6481
12.6482
21.4503
21.4496
21.4496
21.6167
21.6155
21.6155
23.1431
23.1419
23.1419
24.3678
24.3668
24.3668
25.3094
25.3087
25.3087
26.0738
26.0731
26.0731
26.7257
26.7251
26.7251
27.2993
27.2988
27.2988
27.8101
27.8098
27.8098
28.26
28.2598
28.2598
28.6411
28.6412
28.6411
28.9416
28.9418
28.9418
29.1529
29.1532
29.1532
29.2682
29.2685
29.2685
29.2682
29.2685
29.2685
29.1529
29.1532
29.1532
28.9415
28.9418
28.9417
28.641
28.6411
28.6411
28.2599
28.2598
28.2598
27.81
27.8097
27.8097
27.2992
27.2987
27.2987
26.7254
26.7249
26.7249
26.0734
26.0727
26.0727
25.3089
25.3081
25.3081
24.3672
24.3662
24.3662
23.1423
23.1411
23.1411
21.6158
21.6146
21.6146
21.4491
21.4483
21.4483
12.6477
12.6478
12.6479
13.351
13.3511
13.3512
18.6668
18.6661
18.6661
18.078
18.077
18.077
19.2125
19.2112
19.2112
20.256
20.2549
20.2549
21.0774
21.0765
21.0765
21.742
21.7412
21.7412
22.3041
22.3034
22.3034
22.795
22.7944
22.7944
23.2293
23.2289
23.2289
23.6102
23.6099
23.6099
23.932
23.9319
23.9319
24.1855
24.1856
24.1855
24.3637
24.3638
24.3638
24.4607
24.4609
24.4608
24.4607
24.4608
24.4608
24.3636
24.3637
24.3637
24.1854
24.1855
24.1854
23.9319
23.9318
23.9318
23.6101
23.6099
23.6098
23.2293
23.2288
23.2288
22.7948
22.7942
22.7942
22.3039
22.3032
22.3032
21.7416
21.7408
21.7408
21.0769
21.0761
21.0761
20.2554
20.2543
20.2543
19.2117
19.2105
19.2105
18.0772
18.0761
18.0761
18.6656
18.6649
18.6649
13.3507
13.3508
13.3508
14.0439
14.044
14.0441
16.5579
16.5573
16.5573
15.4014
15.4004
15.4004
16.1676
16.1664
16.1663
17.0409
17.0398
17.0397
17.7593
17.7583
17.7583
18.3426
18.3417
18.3417
18.833
18.8322
18.8322
19.258
19.2574
19.2574
19.6318
19.6312
19.6312
19.958
19.9576
19.9576
20.2327
20.2325
20.2324
20.4489
20.4488
20.4487
20.6006
20.6006
20.6005
20.6831
20.6831
20.683
20.683
20.683
20.683
20.6005
20.6005
20.6004
20.4488
20.4487
20.4486
20.2326
20.2324
20.2323
19.9579
19.9575
19.9574
19.6317
19.6312
19.6312
19.2579
19.2572
19.2572
18.8328
18.832
18.832
18.3423
18.3414
18.3414
17.7589
17.7579
17.7579
17.0404
17.0393
17.0393
16.1669
16.1656
16.1656
15.4005
15.3996
15.3996
16.5568
16.5562
16.5562
14.0435
14.0436
14.0437
14.7234
14.7235
14.7236
14.9166
14.916
14.916
13.3437
13.3429
13.3429
13.7706
13.7694
13.7694
14.4792
14.478
14.478
15.105
15.1039
15.1039
15.62
15.6191
15.6191
16.0518
16.0509
16.0509
16.4236
16.4228
16.4228
16.7485
16.7478
16.7478
17.0308
17.0302
17.0302
17.2676
17.2673
17.2672
17.4537
17.4534
17.4533
17.584
17.5838
17.5837
17.6545
17.6544
17.6543
17.6545
17.6544
17.6543
17.5839
17.5837
17.5836
17.4536
17.4533
17.4533
17.2675
17.2672
17.2671
17.0306
17.0301
17.03
16.7484
16.7478
16.7478
16.4234
16.4226
16.4226
16.0515
16.0507
16.0507
15.6197
15.6188
15.6188
15.1046
15.1036
15.1036
14.4788
14.4776
14.4776
13.7699
13.7687
13.7687
13.3429
13.3421
13.3421
14.9155
14.9149
14.9149
14.723
14.7231
14.7232
15.3846
15.3847
15.3848
13.6106
13.6101
13.6101
11.7396
11.7389
11.7389
11.8612
11.8601
11.8601
12.4086
12.4074
12.4074
12.9474
12.9463
12.9463
13.4029
13.4019
13.4019
13.7857
13.7847
13.7847
14.1137
14.1129
14.1129
14.3988
14.398
14.398
14.6453
14.6446
14.6446
14.8514
14.8509
14.8508
15.0129
15.0125
15.0124
15.1256
15.1252
15.1251
15.1864
15.1861
15.186
15.1863
15.186
15.1859
15.1255
15.1252
15.125
15.0128
15.0124
15.0123
14.8513
14.8508
14.8507
14.6451
14.6445
14.6444
14.3988
14.398
14.398
14.1136
14.1127
14.1127
13.7855
13.7845
13.7845
13.4027
13.4017
13.4017
12.9471
12.946
12.946
12.4081
12.4069
12.4069
11.8605
11.8594
11.8594
11.7389
11.7382
11.7382
13.6096
13.6091
13.6091
15.3842
15.3843
15.3844
16.0219
16.022
16.0221
12.5531
12.5526
12.5526
10.4728
10.4723
10.4723
10.3267
10.3257
10.3257
10.7165
10.7154
10.7154
11.171
11.1699
11.1699
11.5727
11.5717
11.5717
11.9134
11.9124
11.9124
12.2049
12.204
12.204
12.4571
12.4562
12.4562
12.6741
12.6734
12.6733
12.8549
12.8543
12.8542
12.9962
12.9957
12.9956
13.0943
13.0939
13.0938
13.147
13.1466
13.1465
13.147
13.1466
13.1465
13.0943
13.0938
13.0937
12.9961
12.9956
12.9955
12.8548
12.8542
12.8541
12.674
12.6732
12.6732
12.457
12.4562
12.4562
12.2048
12.2038
12.2038
11.9132
11.9123
11.9122
11.5725
11.5715
11.5715
11.1708
11.1697
11.1697
10.7161
10.715
10.715
10.326
10.325
10.3251
10.4722
10.4716
10.4716
12.5521
12.5517
12.5517
16.0215
16.0216
16.0217
16.6295
16.6296
16.6297
11.6854
11.6849
11.6849
9.45974
9.45929
9.45929
9.08508
9.08422
9.08422
9.32288
9.32174
9.32174
9.69366
9.69253
9.69251
10.0448
10.0437
10.0437
10.3484
10.3473
10.3473
10.6088
10.6078
10.6078
10.8334
10.8325
10.8324
11.026
11.0252
11.0251
11.1858
11.1851
11.185
11.3103
11.3097
11.3096
11.3964
11.3958
11.3957
11.4423
11.4418
11.4417
11.4423
11.4417
11.4416
11.3963
11.3957
11.3956
11.3102
11.3096
11.3095
11.1857
11.185
11.1849
11.0258
11.025
11.0249
10.8333
10.8324
10.8324
10.6086
10.6076
10.6076
10.3482
10.3472
10.3472
10.0446
10.0435
10.0435
9.69345
9.69232
9.69231
9.32249
9.32134
9.32134
9.08441
9.08355
9.08355
9.45914
9.45868
9.45869
11.6845
11.6841
11.6841
16.629
16.6291
16.6292
17.2023
17.2024
17.2025
10.9667
10.9663
10.9663
8.6392
8.63884
8.63884
8.07446
8.07372
8.07372
8.16834
8.16726
8.16726
8.45527
8.45416
8.45414
8.75726
8.75619
8.75618
9.02701
9.02598
9.02598
9.26035
9.25935
9.25934
9.46163
9.46068
9.46066
9.63382
9.63295
9.6329
9.77617
9.77537
9.77531
9.88665
9.88592
9.88585
9.9626
9.96193
9.96184
10.0028
10.0022
10.0021
10.0028
10.0021
10.0021
9.96253
9.96186
9.96177
9.88656
9.88582
9.88575
9.77605
9.77525
9.77519
9.63361
9.63274
9.6327
9.46158
9.46064
9.46062
9.26021
9.25921
9.2592
9.02687
9.02584
9.02584
8.75714
8.75606
8.75606
8.45511
8.45398
8.45397
8.16796
8.16689
8.16688
8.07381
8.07307
8.07306
8.63866
8.63831
8.63831
10.9659
10.9655
10.9655
17.2018
17.2019
17.202
17.7366
17.7367
17.7368
10.3682
10.3678
10.3678
7.96598
7.9657
7.96571
7.24719
7.24657
7.24656
7.20799
7.20699
7.20698
7.41109
7.40998
7.40998
7.66406
7.663
7.66299
7.90192
7.90089
7.90089
8.11113
8.11013
8.11012
8.29232
8.29136
8.29134
8.44723
8.44632
8.44628
8.57491
8.57406
8.574
8.67365
8.67286
8.67279
8.74111
8.74037
8.74029
8.77651
8.77581
8.77573
8.77649
8.77579
8.77571
8.74104
8.7403
8.74022
8.67355
8.67276
8.67269
8.57478
8.57393
8.57388
8.44701
8.4461
8.44606
8.29228
8.29132
8.2913
8.111
8.11
8.11
7.90181
7.90079
7.90078
7.66398
7.66291
7.66291
7.41097
7.40986
7.40985
7.20762
7.20662
7.20662
7.24656
7.24594
7.24593
7.96553
7.96525
7.96525
10.3675
10.3671
10.3671
17.736
17.7361
17.7362
18.2306
18.2307
18.2307
9.86855
9.8682
9.8682
7.4064
7.40619
7.40619
6.56586
6.56533
6.56533
6.40673
6.40582
6.40582
6.52693
6.52586
6.52586
6.7302
6.72915
6.72915
6.93699
6.93599
6.93599
7.12405
7.12307
7.12307
7.2876
7.28666
7.28664
7.42773
7.42681
7.42678
7.54302
7.54215
7.5421
7.63189
7.63106
7.631
7.6922
7.69142
7.69135
7.72356
7.72282
7.72275
7.72354
7.72279
7.72272
7.69213
7.69135
7.69129
7.63178
7.63096
7.6309
7.54289
7.54202
7.54197
7.4275
7.42659
7.42656
7.28757
7.28662
7.28661
7.12393
7.12296
7.12296
6.93691
6.93591
6.93591
6.73016
6.72912
6.72912
6.52684
6.52578
6.52577
6.40638
6.40547
6.40546
6.56526
6.56474
6.56474
7.40604
7.40583
7.40583
9.86788
9.86753
9.86753
18.2299
18.23
18.2301
18.6843
18.6844
18.6845
9.45198
9.45163
9.45164
6.93524
6.93508
6.93508
6.00073
6.00031
6.00031
5.73645
5.73564
5.73564
5.77612
5.77513
5.77512
5.92869
5.92768
5.92768
6.10436
6.1034
6.1034
6.27043
6.2695
6.2695
6.41813
6.41722
6.41721
6.54543
6.54454
6.54451
6.65016
6.6493
6.64926
6.73068
6.72985
6.7298
6.78498
6.78419
6.78413
6.81294
6.81218
6.81212
6.81291
6.81216
6.81209
6.78491
6.78412
6.78406
6.73058
6.72975
6.7297
6.65004
6.64918
6.64914
6.54521
6.54432
6.54429
6.41811
6.4172
6.41719
6.27034
6.26941
6.26941
6.10432
6.10336
6.10336
5.9287
5.9277
5.9277
5.77607
5.77507
5.77507
5.73612
5.7353
5.7353
6.00019
5.99977
5.99977
6.93499
6.93483
6.93482
9.45137
9.45102
9.45103
18.6836
18.6837
18.6838
19.1001
19.1001
19.1002
9.10643
9.10608
9.10608
6.53369
6.53355
6.53355
5.52811
5.52777
5.52777
5.17412
5.17342
5.17342
5.13737
5.13645
5.13645
5.23842
5.23749
5.23748
5.38228
5.38139
5.38139
5.52782
5.52695
5.52695
5.66085
5.66001
5.66
5.77679
5.77595
5.77593
5.87244
5.87161
5.87158
5.94585
5.94505
5.94501
5.99507
5.9943
5.99425
6.02016
6.01942
6.01937
6.02014
6.01939
6.01934
5.995
5.99423
5.99418
5.94575
5.94495
5.9449
5.87231
5.87149
5.87145
5.77658
5.77574
5.77572
5.66084
5.65999
5.65998
5.52775
5.52688
5.52688
5.38228
5.38139
5.38139
5.23848
5.23754
5.23754
5.13735
5.13643
5.13643
5.17382
5.17312
5.17312
5.52764
5.52731
5.52731
6.53356
6.53343
6.53343
9.10589
9.10553
9.10554
19.0993
19.0994
19.0995
19.4816
19.4817
19.4817
8.82269
8.82231
8.82231
6.1878
6.18767
6.18767
5.12901
5.12875
5.12875
4.70063
4.70003
4.70003
4.59322
4.59239
4.59239
4.6426
4.64175
4.64174
4.7536
4.75278
4.75278
4.87844
4.87766
4.87765
4.99747
4.9967
4.9967
5.10309
5.10233
5.10231
5.19077
5.19002
5.18999
5.25809
5.25734
5.2573
5.30301
5.30228
5.30224
5.32569
5.32498
5.32494
5.32566
5.32496
5.32492
5.30294
5.30221
5.30217
5.25798
5.25724
5.2572
5.19065
5.18989
5.18987
5.10289
5.10213
5.10211
4.99746
4.99669
4.99668
4.87839
4.87761
4.87761
4.75364
4.75282
4.75282
4.64271
4.64186
4.64185
4.59324
4.59241
4.59241
4.70037
4.69977
4.69977
5.12866
5.12841
5.1284
6.18782
6.18769
6.18769
8.82221
8.82183
8.82183
19.4807
19.4808
19.4809
19.8336
19.8337
19.8338
8.59374
8.59332
8.59333
5.88743
5.88729
5.88728
4.78837
4.78818
4.78816
4.29992
4.29943
4.29942
4.12905
4.12833
4.12833
4.12764
4.12687
4.12687
4.20465
4.20393
4.20392
4.30816
4.30748
4.30748
4.41335
4.41269
4.41269
4.50931
4.50865
4.50864
4.58985
4.58918
4.58916
4.65184
4.65117
4.65114
4.69309
4.69244
4.69241
4.71374
4.71311
4.71307
4.71372
4.71308
4.71305
4.69302
4.69237
4.69234
4.65174
4.65107
4.65104
4.58973
4.58906
4.58905
4.50912
4.50846
4.50845
4.41335
4.41269
4.41268
4.30815
4.30747
4.30746
4.20474
4.20402
4.20401
4.1278
4.12704
4.12702
4.1291
4.12838
4.12838
4.29973
4.29923
4.29923
4.78815
4.78797
4.78795
5.88761
5.88747
5.88746
8.59331
8.59289
8.59289
19.8327
19.8328
19.8329
20.1614
20.1615
20.1616
8.41429
8.41381
8.41382
5.62539
5.62523
5.62522
4.49431
4.49418
4.49415
3.95854
3.95815
3.95814
3.73236
3.73176
3.73176
3.6823
3.68163
3.68162
3.72449
3.72386
3.72385
3.80571
3.80514
3.80514
3.8968
3.89626
3.89625
3.98336
3.98281
3.98281
4.05728
4.05673
4.05672
4.11451
4.11395
4.11393
4.15259
4.15204
4.15201
4.17153
4.17099
4.17096
4.17151
4.17096
4.17094
4.15252
4.15197
4.15194
4.11441
4.11385
4.11383
4.05717
4.05662
4.0566
3.98319
3.98265
3.98264
3.8968
3.89626
3.89626
3.80572
3.80515
3.80515
3.72461
3.72399
3.72398
3.68249
3.68182
3.68182
3.73246
3.73185
3.73185
3.95843
3.95804
3.95803
4.49427
4.49414
4.49411
5.62575
5.62558
5.62557
8.41391
8.41343
8.41344
20.1604
20.1605
20.1606
20.4696
20.4697
20.4698
8.28026
8.27972
8.27972
5.39687
5.39666
5.39665
4.23767
4.23758
4.23754
3.66525
3.66497
3.66495
3.39237
3.39188
3.39188
3.29706
3.2965
3.2965
3.30421
3.30369
3.30369
3.36207
3.36162
3.36162
3.43843
3.43803
3.43802
3.51551
3.5151
3.5151
3.58306
3.58264
3.58263
3.6359
3.63546
3.63545
3.67115
3.67072
3.6707
3.68863
3.6882
3.68818
3.6886
3.68818
3.68816
3.67108
3.67065
3.67063
3.6358
3.63536
3.63535
3.58296
3.58254
3.58253
3.51537
3.51496
3.51496
3.43844
3.43803
3.43803
3.36212
3.36167
3.36167
3.30437
3.30386
3.30385
3.29729
3.29673
3.29672
3.39251
3.39202
3.39202
3.66526
3.66497
3.66495
4.23782
4.23773
4.23769
5.39741
5.3972
5.39719
8.27993
8.27939
8.27939
20.4686
20.4687
20.4688
20.7621
20.7622
20.7623
8.18827
8.18765
8.18766
5.19881
5.19854
5.19853
4.01158
4.01151
4.01146
3.41082
3.41063
3.41061
3.09969
3.09932
3.09931
2.96372
2.96329
2.96328
2.93652
2.93611
2.93611
2.97007
2.96974
2.96974
3.03082
3.03054
3.03054
3.09799
3.09773
3.09773
3.15913
3.15886
3.15885
3.20773
3.20743
3.20743
3.24039
3.24009
3.24008
3.25658
3.25628
3.25627
3.25656
3.25626
3.25625
3.24032
3.24002
3.24001
3.20763
3.20734
3.20734
3.15904
3.15877
3.15877
3.09789
3.09763
3.09762
3.03083
3.03055
3.03055
2.97015
2.96982
2.96982
2.93672
2.93632
2.93631
2.96399
2.96355
2.96354
3.09988
3.09951
3.09951
3.41095
3.41076
3.41073
4.01195
4.01188
4.01183
5.19954
5.19927
5.19926
8.188
8.18739
8.18738
20.761
20.7611
20.7612
21.0415
21.0416
21.0417
8.13505
8.13435
8.13436
5.02947
5.02914
5.02913
3.81113
3.81106
3.81101
3.18781
3.1877
3.18766
2.84626
2.84601
2.846
2.67512
2.6748
2.67479
2.61531
2.61502
2.61501
2.624
2.62378
2.62378
2.66812
2.66797
2.66797
2.7247
2.72457
2.72458
2.77912
2.77899
2.77899
2.82342
2.82327
2.82327
2.85357
2.85342
2.85341
2.86859
2.86844
2.86843
2.86857
2.86841
2.86841
2.85351
2.85335
2.85335
2.82333
2.82319
2.82319
2.77904
2.77892
2.77892
2.72463
2.72451
2.72451
2.66813
2.66798
2.66798
2.62411
2.62389
2.62389
2.61554
2.61525
2.61524
2.67541
2.67508
2.67508
2.84652
2.84627
2.84626
3.18809
3.18798
3.18794
3.81172
3.81166
3.8116
5.03039
5.03006
5.03004
8.13484
8.13414
8.13414
21.0403
21.0404
21.0406
21.3089
21.3091
21.3092
8.1169
8.11613
8.11613
4.88795
4.88756
4.88754
3.63306
3.63299
3.63293
2.99044
2.9904
2.99035
2.62529
2.62514
2.62512
2.42492
2.42471
2.42471
2.33538
2.33519
2.33519
2.31932
2.3192
2.3192
2.34585
2.3458
2.34581
2.39093
2.39093
2.39094
2.43807
2.43808
2.43809
2.47783
2.47782
2.47782
2.50543
2.50541
2.50541
2.51931
2.51929
2.51929
2.51929
2.51927
2.51927
2.50536
2.50535
2.50534
2.47775
2.47775
2.47775
2.43802
2.43802
2.43803
2.3909
2.3909
2.39091
2.34587
2.34583
2.34583
2.31945
2.31934
2.31933
2.33563
2.33543
2.33543
2.42524
2.42502
2.42502
2.62561
2.62546
2.62544
2.99087
2.99083
2.99078
3.63388
3.63381
3.63375
4.88905
4.88865
4.88864
8.11674
8.11597
8.11598
21.3077
21.3078
21.308
21.5644
21.5645
21.5647
8.12937
8.12855
8.12854
4.77373
4.77327
4.77326
3.4755
3.47541
3.47536
2.81448
2.81448
2.81443
2.43118
2.43112
2.4311
2.20763
2.20751
2.20751
2.09221
2.09211
2.09211
2.05239
2.05235
2.05236
2.06064
2.06068
2.06069
2.09322
2.09331
2.09332
2.13231
2.13243
2.13244
2.16709
2.16721
2.16721
2.19195
2.19206
2.19206
2.20468
2.20478
2.20478
2.20466
2.20476
2.20476
2.19189
2.192
2.192
2.16702
2.16714
2.16714
2.13228
2.13239
2.1324
2.09323
2.09332
2.09333
2.06067
2.0607
2.06072
2.05253
2.0525
2.0525
2.09247
2.09237
2.09237
2.20796
2.20785
2.20785
2.43157
2.43151
2.43149
2.81507
2.81507
2.81502
3.47655
3.47645
3.47639
4.77499
4.77452
4.77451
8.12927
8.12845
8.12844
21.5631
21.5632
21.5634
21.8065
21.8066
21.8068
8.16713
8.16624
8.16624
4.68623
4.68569
4.68568
3.33765
3.33752
3.33746
2.6571
2.65711
2.65707
2.25962
2.25962
2.2596
2.01859
2.01855
2.01855
1.88188
1.88186
1.88186
1.82027
1.82028
1.8203
1.81004
1.81012
1.81014
1.82912
1.82928
1.82929
1.85926
1.85946
1.85947
1.88848
1.88868
1.88868
1.9103
1.9105
1.9105
1.92178
1.92198
1.92198
1.92177
1.92196
1.92196
1.91025
1.91045
1.91045
1.88842
1.88862
1.88863
1.85924
1.85944
1.85945
1.82916
1.82932
1.82933
1.81007
1.81016
1.81017
1.82042
1.82043
1.82044
1.88214
1.88211
1.88211
2.01894
2.01891
2.0189
2.26008
2.26008
2.26006
2.65784
2.65785
2.65781
3.33888
3.33875
3.33869
4.68763
4.68708
4.68707
8.16708
8.1662
8.16619
21.8052
21.8053
21.8055
22.0329
22.033
22.0332
8.22394
8.223
8.22299
4.62428
4.62367
4.62366
3.21936
3.21917
3.21912
2.51672
2.51672
2.51668
2.10756
2.10758
2.10757
1.8541
1.85411
1.85411
1.70105
1.70108
1.70108
1.62053
1.62059
1.6206
1.5923
1.59241
1.59243
1.59709
1.59727
1.59728
1.61731
1.61754
1.61755
1.64028
1.64053
1.64053
1.6587
1.65894
1.65894
1.66878
1.66902
1.66902
1.66877
1.66901
1.66901
1.65865
1.65889
1.6589
1.64024
1.64048
1.64049
1.61731
1.61754
1.61755
1.59714
1.59733
1.59734
1.59233
1.59245
1.59246
1.62067
1.62073
1.62074
1.70131
1.70133
1.70133
1.85447
1.85448
1.85448
2.10808
2.1081
2.10809
2.51759
2.51759
2.51755
3.22075
3.22057
3.22052
4.62579
4.62517
4.62516
8.22392
8.22298
8.22297
22.0316
22.0317
22.0319
22.2402
22.2403
22.2405
8.29259
8.29158
8.29158
4.58561
4.58491
4.5849
3.12075
3.12051
3.12046
2.39286
2.39286
2.39282
1.97326
1.9733
1.97329
1.71159
1.71163
1.71163
1.54712
1.54718
1.54718
1.45129
1.45137
1.45137
1.40633
1.40644
1.40645
1.39639
1.39657
1.39657
1.40579
1.40601
1.40601
1.42179
1.42203
1.42203
1.43639
1.43662
1.43662
1.4449
1.44513
1.44513
1.44489
1.44511
1.44512
1.43635
1.43659
1.43659
1.42176
1.422
1.422
1.4058
1.40602
1.40602
1.39646
1.39663
1.39664
1.40636
1.40648
1.40648
1.45141
1.45149
1.45149
1.54736
1.54742
1.54742
1.71197
1.71201
1.71201
1.97384
1.97387
1.97386
2.39384
2.39383
2.39379
3.12228
3.12203
3.12198
4.58721
4.58651
4.5865
8.29259
8.29158
8.29158
22.2388
22.239
22.2392
22.4239
22.424
22.4242
8.36491
8.36387
8.36386
4.56632
4.56555
4.56555
3.04178
3.04148
3.04145
2.28615
2.28612
2.28608
1.85655
1.85658
1.85657
1.58995
1.59001
1.59001
1.41854
1.41862
1.41862
1.31133
1.31142
1.31143
1.25173
1.25183
1.25183
1.22721
1.22734
1.22735
1.22508
1.22524
1.22524
1.23348
1.23366
1.23366
1.24385
1.24403
1.24403
1.25062
1.25079
1.2508
1.25061
1.25079
1.25079
1.24382
1.244
1.244
1.23346
1.23364
1.23364
1.22509
1.22526
1.22526
1.22727
1.22741
1.22741
1.25175
1.25185
1.25185
1.31143
1.31152
1.31152
1.41876
1.41884
1.41884
1.59033
1.59038
1.59039
1.85715
1.85719
1.85718
2.28718
2.28716
2.28712
3.04339
3.04308
3.04305
4.56799
4.56722
4.56722
8.36491
8.36389
8.36387
22.4226
22.4227
22.4229
22.578
22.5782
22.5784
8.43223
8.43119
8.43117
4.56092
4.56015
4.56013
2.98203
2.98169
2.98167
2.19833
2.19829
2.19825
1.75914
1.75917
1.75916
1.48999
1.49006
1.49006
1.31531
1.31541
1.31541
1.20059
1.20069
1.20069
1.12911
1.1292
1.1292
1.09102
1.0911
1.0911
1.07717
1.07726
1.07726
1.07758
1.07767
1.07767
1.0835
1.08358
1.08358
1.0884
1.08848
1.08848
1.08839
1.08847
1.08847
1.08348
1.08356
1.08356
1.07757
1.07766
1.07766
1.07719
1.07728
1.07728
1.09107
1.09115
1.09115
1.12912
1.1292
1.12921
1.20065
1.20075
1.20075
1.31551
1.31561
1.31561
1.49037
1.49044
1.49044
1.75976
1.75979
1.75978
2.19939
2.19934
2.19931
2.98368
2.98334
2.98332
4.56265
4.56185
4.56185
8.43226
8.43122
8.4312
22.5767
22.5769
22.5771
22.6943
22.6945
22.6947
8.48602
8.48497
8.48496
4.56306
4.5623
4.56229
2.94102
2.94068
2.94067
2.13286
2.1328
2.13278
1.68533
1.68536
1.68536
1.41519
1.41527
1.41527
1.23974
1.23986
1.23986
1.12078
1.12089
1.1209
1.04078
1.04086
1.04085
0.991434
0.991464
0.991465
0.966893
0.966894
0.966891
0.95968
0.959664
0.959661
0.961307
0.961279
0.961274
0.96441
0.964376
0.96437
0.964404
0.96437
0.964364
0.961291
0.961264
0.96126
0.959674
0.959657
0.959654
0.966906
0.966908
0.966904
0.991463
0.991493
0.991493
1.04076
1.04084
1.04084
1.12082
1.12093
1.12093
1.23991
1.24003
1.24003
1.41555
1.41563
1.41563
1.68593
1.68597
1.68596
2.13389
2.13384
2.13382
2.94267
2.94234
2.94233
4.56485
4.56408
4.56407
8.48609
8.48505
8.48504
22.693
22.6932
22.6934
22.7611
22.7612
22.7614
8.51741
8.51637
8.51637
4.56635
4.56561
4.5656
2.91903
2.91872
2.91871
2.09556
2.09552
2.0955
1.64277
1.64282
1.64282
1.37245
1.37255
1.37255
1.19729
1.19743
1.19743
1.07653
1.07666
1.07666
0.991826
0.991904
0.991902
0.9355
0.935508
0.935503
0.903752
0.903695
0.903692
0.891173
0.891075
0.891073
0.889752
0.889635
0.889631
0.891577
0.891448
0.891444
0.891572
0.891444
0.89144
0.889741
0.889623
0.88962
0.891168
0.89107
0.891068
0.903759
0.903702
0.903698
0.935515
0.935521
0.935517
0.991797
0.991873
0.991872
1.07655
1.07668
1.07668
1.19745
1.19758
1.19758
1.3728
1.3729
1.3729
1.64336
1.6434
1.6434
2.09657
2.09653
2.09652
2.92068
2.92038
2.92037
4.56819
4.56745
4.56743
8.51754
8.51648
8.51649
22.7598
22.7599
22.7601
)
;

boundaryField
{
    freeSurface
    {
        type            slip;
    }
    inlet
    {
        type            cyclic;
    }
    outlet
    {
        type            cyclic;
    }
    sidewalls
    {
        type            omegaWallFunction;
        Cmu             0.09;
        kappa           0.41;
        E               9.8;
        beta1           0.075;
        blended         false;
        value           nonuniform List<scalar> 
216
(
1087.64
5.84668
7.04664
8.03227
8.90455
9.70993
10.4742
11.2131
11.936
12.648
13.351
14.0439
14.7234
15.3846
16.0219
16.6295
17.2023
17.7366
18.2306
18.6843
19.1001
19.4816
19.8336
20.1614
20.4696
20.7621
21.0415
21.3089
21.5644
21.8065
22.0329
22.2402
22.4239
22.578
22.6943
22.7611
1087.64
5.84673
7.0467
8.03234
8.90462
9.71001
10.4743
11.2132
11.9361
12.6481
13.3511
14.044
14.7235
15.3847
16.022
16.6296
17.2024
17.7367
18.2307
18.6844
19.1001
19.4817
19.8337
20.1615
20.4697
20.7622
21.0416
21.3091
21.5645
21.8066
22.033
22.2403
22.424
22.5782
22.6945
22.7612
1087.64
5.84677
7.04674
8.03239
8.90468
9.71007
10.4744
11.2132
11.9361
12.6482
13.3512
14.0441
14.7236
15.3848
16.0221
16.6297
17.2025
17.7368
18.2307
18.6845
19.1002
19.4817
19.8338
20.1616
20.4698
20.7623
21.0417
21.3092
21.5647
21.8068
22.0332
22.2405
22.4242
22.5784
22.6947
22.7614
1087.64
5.84648
7.04642
8.03203
8.90429
9.70965
10.4739
11.2128
11.9356
12.6477
13.3507
14.0435
14.723
15.3842
16.0215
16.629
17.2018
17.736
18.2299
18.6836
19.0993
19.4807
19.8327
20.1604
20.4686
20.761
21.0403
21.3077
21.5631
21.8052
22.0316
22.2388
22.4226
22.5767
22.693
22.7598
1087.64
5.84654
7.04648
8.0321
8.90437
9.70973
10.474
11.2129
11.9357
12.6478
13.3508
14.0436
14.7231
15.3843
16.0216
16.6291
17.2019
17.7361
18.23
18.6837
19.0994
19.4808
19.8328
20.1605
20.4687
20.7611
21.0404
21.3078
21.5632
21.8053
22.0317
22.239
22.4227
22.5769
22.6932
22.7599
1087.64
5.84658
7.04653
8.03215
8.90442
9.70979
10.4741
11.2129
11.9358
12.6479
13.3508
14.0437
14.7232
15.3844
16.0217
16.6292
17.202
17.7362
18.2301
18.6838
19.0995
19.4809
19.8329
20.1606
20.4688
20.7612
21.0406
21.308
21.5634
21.8055
22.0319
22.2392
22.4229
22.5771
22.6934
22.7601
)
;
    }
    noSlipWalls
    {
        type            omegaWallFunction;
        Cmu             0.09;
        kappa           0.41;
        E               9.8;
        beta1           0.075;
        blended         false;
        value           nonuniform List<scalar> 
90
(
1087.64
2172.9
2172.9
2172.9
2172.9
2172.9
2172.9
2172.9
2172.9
2172.9
2172.9
2172.9
2172.9
2172.9
2172.9
2172.9
2172.9
2172.9
2172.9
2172.9
2172.9
2172.9
2172.9
2172.9
2172.9
2172.9
2172.9
2172.9
2172.9
1087.64
1087.64
2172.9
2172.9
2172.9
2172.9
2172.9
2172.9
2172.9
2172.9
2172.9
2172.9
2172.9
2172.9
2172.9
2172.9
2172.9
2172.9
2172.9
2172.9
2172.9
2172.9
2172.9
2172.9
2172.9
2172.9
2172.9
2172.9
2172.9
2172.9
1087.64
1087.64
2172.9
2172.9
2172.9
2172.9
2172.9
2172.9
2172.9
2172.9
2172.9
2172.9
2172.9
2172.9
2172.9
2172.9
2172.9
2172.9
2172.9
2172.9
2172.9
2172.9
2172.9
2172.9
2172.9
2172.9
2172.9
2172.9
2172.9
2172.9
1087.64
)
;
    }
}


// ************************************************************************* //
