/*--------------------------------*- C++ -*----------------------------------*\
  =========                 |
  \\      /  F ield         | OpenFOAM: The Open Source CFD Toolbox
   \\    /   O peration     | Website:  https://openfoam.org
    \\  /    A nd           | Version:  6
     \\/     M anipulation  |
\*---------------------------------------------------------------------------*/
FoamFile
{
    version     2.0;
    format      ascii;
    class       volScalarField;
    location    "80";
    object      p;
}
// * * * * * * * * * * * * * * * * * * * * * * * * * * * * * * * * * * * * * //

dimensions      [0 2 -2 0 0 0 0];

internalField   nonuniform List<scalar> 
3240
(
-8.38263e-19
1.4678e-08
7.79052e-08
4.7345e-12
1.46274e-08
7.79797e-08
-4.06634e-11
1.48672e-08
7.7795e-08
-8.41979e-11
1.48279e-08
7.78852e-08
-1.61827e-10
1.49161e-08
7.78802e-08
-2.37565e-10
1.49991e-08
7.78744e-08
-3.19745e-10
1.51897e-08
7.77633e-08
-4.07782e-10
1.54234e-08
7.76167e-08
-4.37383e-10
1.54869e-08
7.7587e-08
-3.85165e-10
1.54655e-08
7.75601e-08
-2.55942e-10
1.5331e-08
7.75661e-08
-2.26628e-11
1.50525e-08
7.76138e-08
2.40737e-10
1.46974e-08
7.7707e-08
4.19679e-10
1.44128e-08
7.78173e-08
5.53087e-10
1.42155e-08
7.78818e-08
5.57418e-10
1.42131e-08
7.78836e-08
4.20213e-10
1.44177e-08
7.7826e-08
2.61559e-10
1.47297e-08
7.77401e-08
6.18406e-11
1.51458e-08
7.77268e-08
-3.69802e-10
1.5229e-08
7.74248e-08
-4.2882e-10
1.54514e-08
7.74978e-08
-4.54985e-10
1.54466e-08
7.75998e-08
-4.17313e-10
1.53448e-08
7.76765e-08
-3.32543e-10
1.51572e-08
7.77847e-08
-2.44042e-10
1.49971e-08
7.78611e-08
-1.65222e-10
1.49119e-08
7.78693e-08
-8.00326e-11
1.48105e-08
7.78858e-08
-2.93727e-11
1.48395e-08
7.78061e-08
2.74599e-11
1.4579e-08
7.8009e-08
5.16229e-11
1.45986e-08
7.79649e-08
2.0331e-12
1.46732e-08
7.7909e-08
5.10902e-12
1.46256e-08
7.79812e-08
-3.99263e-11
1.48643e-08
7.77971e-08
-8.3153e-11
1.48245e-08
7.78876e-08
-1.60586e-10
1.49128e-08
7.78822e-08
-2.36192e-10
1.49958e-08
7.78763e-08
-3.18338e-10
1.51864e-08
7.77652e-08
-4.06365e-10
1.54199e-08
7.76188e-08
-4.3606e-10
1.54837e-08
7.75888e-08
-3.8393e-10
1.54626e-08
7.75617e-08
-2.54689e-10
1.53285e-08
7.75673e-08
-2.13484e-11
1.50504e-08
7.76145e-08
2.42073e-10
1.46957e-08
7.77074e-08
4.21027e-10
1.44113e-08
7.78175e-08
5.5441e-10
1.42141e-08
7.78819e-08
5.58743e-10
1.42117e-08
7.78837e-08
4.21562e-10
1.44162e-08
7.78261e-08
2.62892e-10
1.4728e-08
7.77404e-08
6.29646e-11
1.51436e-08
7.77272e-08
-3.68327e-10
1.52267e-08
7.74263e-08
-4.2757e-10
1.54485e-08
7.74994e-08
-4.53657e-10
1.54435e-08
7.76017e-08
-4.15891e-10
1.53415e-08
7.76784e-08
-3.31126e-10
1.51539e-08
7.77866e-08
-2.42659e-10
1.49937e-08
7.7863e-08
-1.6397e-10
1.49086e-08
7.78714e-08
-7.89863e-11
1.48071e-08
7.78881e-08
-2.86567e-11
1.48366e-08
7.78082e-08
2.78241e-11
1.45773e-08
7.80104e-08
5.25732e-11
1.45942e-08
7.79683e-08
4.54651e-12
1.46687e-08
7.79133e-08
5.80451e-12
1.46228e-08
7.79833e-08
-3.84267e-11
1.48592e-08
7.78008e-08
-8.09315e-11
1.4818e-08
7.78918e-08
-1.57928e-10
1.49066e-08
7.78858e-08
-2.33232e-10
1.49894e-08
7.78798e-08
-3.15279e-10
1.51798e-08
7.77687e-08
-4.03255e-10
1.54129e-08
7.76228e-08
-4.33128e-10
1.54774e-08
7.75923e-08
-3.81201e-10
1.54568e-08
7.75648e-08
-2.51974e-10
1.53233e-08
7.75698e-08
-1.85698e-11
1.50459e-08
7.76162e-08
2.4484e-10
1.46917e-08
7.77086e-08
4.23763e-10
1.44077e-08
7.78184e-08
5.5707e-10
1.42107e-08
7.78826e-08
5.61408e-10
1.42083e-08
7.78844e-08
4.243e-10
1.44126e-08
7.7827e-08
2.65653e-10
1.4724e-08
7.77416e-08
6.52491e-11
1.51386e-08
7.77283e-08
-3.65043e-10
1.5222e-08
7.74295e-08
-4.24806e-10
1.54426e-08
7.75027e-08
-4.50712e-10
1.54371e-08
7.76051e-08
-4.12771e-10
1.53349e-08
7.76819e-08
-3.28044e-10
1.51474e-08
7.779e-08
-2.39674e-10
1.49872e-08
7.78665e-08
-1.61286e-10
1.49022e-08
7.78751e-08
-7.67587e-11
1.48006e-08
7.78924e-08
-2.71925e-11
1.48314e-08
7.78119e-08
2.84956e-11
1.45744e-08
7.80126e-08
5.28137e-11
1.45908e-08
7.79716e-08
7.24956e-12
1.46656e-08
7.79167e-08
6.98985e-12
1.46188e-08
7.79862e-08
-3.59852e-11
1.48515e-08
7.7806e-08
-7.72262e-11
1.4808e-08
7.78981e-08
-1.53402e-10
1.48966e-08
7.78912e-08
-2.28157e-10
1.49792e-08
7.78848e-08
-3.10038e-10
1.51693e-08
7.7774e-08
-3.97926e-10
1.54014e-08
7.7629e-08
-4.28061e-10
1.54669e-08
7.75976e-08
-3.76479e-10
1.5447e-08
7.75698e-08
-2.47361e-10
1.53144e-08
7.75741e-08
-1.39439e-11
1.5038e-08
7.76195e-08
2.49371e-10
1.46845e-08
7.77114e-08
4.28162e-10
1.44009e-08
7.78207e-08
5.61322e-10
1.42043e-08
7.78848e-08
5.65668e-10
1.42019e-08
7.78866e-08
4.28703e-10
1.44058e-08
7.78294e-08
2.7017e-10
1.47168e-08
7.77443e-08
6.88277e-11
1.51296e-08
7.77303e-08
-3.59218e-10
1.52142e-08
7.74353e-08
-4.20016e-10
1.54328e-08
7.75078e-08
-4.45615e-10
1.54266e-08
7.76105e-08
-4.07412e-10
1.53241e-08
7.76873e-08
-3.22756e-10
1.51368e-08
7.77952e-08
-2.34554e-10
1.49768e-08
7.78718e-08
-1.56708e-10
1.4892e-08
7.78806e-08
-7.3035e-11
1.47905e-08
7.78987e-08
-2.48036e-11
1.48237e-08
7.78173e-08
2.96282e-11
1.45705e-08
7.80154e-08
5.25113e-11
1.45894e-08
7.79732e-08
1.02674e-11
1.4662e-08
7.79205e-08
8.6985e-12
1.46141e-08
7.79893e-08
-3.2779e-11
1.48426e-08
7.78118e-08
-7.24302e-11
1.47958e-08
7.79055e-08
-1.47467e-10
1.48844e-08
7.78975e-08
-2.21453e-10
1.49667e-08
7.78906e-08
-3.03147e-10
1.51563e-08
7.77801e-08
-3.90916e-10
1.53869e-08
7.76366e-08
-4.21316e-10
1.54539e-08
7.76039e-08
-3.70148e-10
1.54347e-08
7.75758e-08
-2.41315e-10
1.53028e-08
7.75796e-08
-8.05859e-12
1.50272e-08
7.76244e-08
2.55011e-10
1.46742e-08
7.7716e-08
4.33558e-10
1.43911e-08
7.78251e-08
5.66506e-10
1.41948e-08
7.78891e-08
5.70864e-10
1.41923e-08
7.78908e-08
4.34107e-10
1.43961e-08
7.78338e-08
2.75788e-10
1.47065e-08
7.77489e-08
7.29593e-11
1.51171e-08
7.7733e-08
-3.51139e-10
1.52045e-08
7.74434e-08
-4.13574e-10
1.54204e-08
7.7514e-08
-4.38818e-10
1.54136e-08
7.76167e-08
-4.00347e-10
1.53108e-08
7.76935e-08
-3.15789e-10
1.51238e-08
7.78013e-08
-2.27776e-10
1.49638e-08
7.7878e-08
-1.50684e-10
1.48794e-08
7.78872e-08
-6.82016e-11
1.47783e-08
7.79061e-08
-2.16614e-11
1.48146e-08
7.78232e-08
3.1239e-11
1.45659e-08
7.80183e-08
5.23936e-11
1.45879e-08
7.79748e-08
1.35668e-11
1.46575e-08
7.7925e-08
1.09142e-11
1.46096e-08
7.79918e-08
-2.89168e-11
1.48337e-08
7.78169e-08
-6.681e-11
1.47832e-08
7.79125e-08
-1.40604e-10
1.48712e-08
7.79037e-08
-2.13581e-10
1.49531e-08
7.78963e-08
-2.95086e-10
1.51421e-08
7.77863e-08
-3.82695e-10
1.53705e-08
7.76448e-08
-4.13286e-10
1.54393e-08
7.76105e-08
-3.62491e-10
1.54206e-08
7.75822e-08
-2.34137e-10
1.52891e-08
7.75861e-08
-1.27674e-12
1.50139e-08
7.76309e-08
2.6138e-10
1.46611e-08
7.77227e-08
4.39621e-10
1.43783e-08
7.78318e-08
5.72314e-10
1.41823e-08
7.78957e-08
5.76688e-10
1.41798e-08
7.78975e-08
4.40184e-10
1.43834e-08
7.78404e-08
2.82127e-10
1.46934e-08
7.77555e-08
7.72518e-11
1.51015e-08
7.77364e-08
-3.4107e-10
1.51934e-08
7.74535e-08
-4.05759e-10
1.54062e-08
7.75206e-08
-4.30707e-10
1.5399e-08
7.76233e-08
-3.92043e-10
1.52961e-08
7.76999e-08
-3.07621e-10
1.51095e-08
7.78074e-08
-2.19797e-10
1.49495e-08
7.78842e-08
-1.43686e-10
1.48656e-08
7.78939e-08
-6.25209e-11
1.47654e-08
7.79132e-08
-1.78706e-11
1.48055e-08
7.78284e-08
3.32855e-11
1.45615e-08
7.80206e-08
5.25255e-11
1.4586e-08
7.79765e-08
1.68595e-11
1.46525e-08
7.79298e-08
1.36133e-11
1.4606e-08
7.7993e-08
-2.44351e-11
1.48261e-08
7.78202e-08
-6.03758e-11
1.47711e-08
7.79181e-08
-1.32948e-10
1.48581e-08
7.79091e-08
-2.04813e-10
1.49394e-08
7.79011e-08
-2.86154e-10
1.51274e-08
7.77921e-08
-3.73554e-10
1.53531e-08
7.76532e-08
-4.04204e-10
1.54237e-08
7.7617e-08
-3.53676e-10
1.54053e-08
7.75887e-08
-2.25942e-10
1.52738e-08
7.75933e-08
6.27125e-12
1.49986e-08
7.76387e-08
2.68404e-10
1.46456e-08
7.77312e-08
4.46403e-10
1.43628e-08
7.78405e-08
5.78715e-10
1.41671e-08
7.79046e-08
5.83107e-10
1.41645e-08
7.79063e-08
4.46985e-10
1.4368e-08
7.78491e-08
2.89111e-10
1.46778e-08
7.77639e-08
8.16093e-11
1.5083e-08
7.77403e-08
-3.29161e-10
1.51814e-08
7.74652e-08
-3.96733e-10
1.53907e-08
7.75274e-08
-4.21515e-10
1.53834e-08
7.76298e-08
-3.82789e-10
1.52808e-08
7.7706e-08
-2.98549e-10
1.50948e-08
7.78129e-08
-2.10886e-10
1.4935e-08
7.78897e-08
-1.35855e-10
1.48518e-08
7.78998e-08
-5.60004e-11
1.47531e-08
7.7919e-08
-1.3468e-11
1.47975e-08
7.78319e-08
3.57072e-11
1.45581e-08
7.80215e-08
5.28087e-11
1.45838e-08
7.79784e-08
2.00763e-11
1.46473e-08
7.79347e-08
1.67427e-11
1.46038e-08
7.79925e-08
-1.93469e-11
1.48205e-08
7.78209e-08
-5.31339e-11
1.47606e-08
7.79213e-08
-1.24421e-10
1.48461e-08
7.79125e-08
-1.95236e-10
1.49266e-08
7.79042e-08
-2.76443e-10
1.51132e-08
7.77966e-08
-3.63609e-10
1.53355e-08
7.76609e-08
-3.94271e-10
1.54079e-08
7.76229e-08
-3.43866e-10
1.53895e-08
7.75947e-08
-2.16795e-10
1.52573e-08
7.76006e-08
1.45556e-11
1.49815e-08
7.76474e-08
2.76211e-10
1.46279e-08
7.7741e-08
4.53962e-10
1.43451e-08
7.78506e-08
5.85769e-10
1.41495e-08
7.79151e-08
5.90182e-10
1.41469e-08
7.79168e-08
4.5457e-10
1.43504e-08
7.78592e-08
2.96868e-10
1.46602e-08
7.77736e-08
8.6073e-11
1.50622e-08
7.77443e-08
-3.15559e-10
1.51689e-08
7.7478e-08
-3.86652e-10
1.53746e-08
7.75339e-08
-4.1144e-10
1.53675e-08
7.76356e-08
-3.72699e-10
1.52657e-08
7.7711e-08
-2.88654e-10
1.50807e-08
7.78172e-08
-2.01135e-10
1.49211e-08
7.78937e-08
-1.27154e-10
1.48388e-08
7.7904e-08
-4.86403e-11
1.47423e-08
7.79223e-08
-8.47307e-12
1.47916e-08
7.78328e-08
3.84299e-11
1.45562e-08
7.80207e-08
5.3197e-11
1.45815e-08
7.79802e-08
2.31904e-11
1.46421e-08
7.79396e-08
2.02276e-11
1.46034e-08
7.799e-08
-1.36184e-11
1.48178e-08
7.7818e-08
-4.50572e-11
1.4753e-08
7.79208e-08
-1.15033e-10
1.48362e-08
7.79128e-08
-1.84856e-10
1.49155e-08
7.79047e-08
-2.6592e-10
1.51006e-08
7.77988e-08
-3.52873e-10
1.53189e-08
7.7667e-08
-3.83598e-10
1.53929e-08
7.76272e-08
-3.33246e-10
1.53739e-08
7.75996e-08
-2.06796e-10
1.52406e-08
7.76074e-08
2.36112e-11
1.49637e-08
7.76562e-08
2.84899e-10
1.4609e-08
7.77513e-08
4.62214e-10
1.43258e-08
7.78616e-08
5.93544e-10
1.41302e-08
7.79265e-08
5.9798e-10
1.41275e-08
7.79282e-08
4.62856e-10
1.43313e-08
7.78701e-08
3.05495e-10
1.46411e-08
7.77837e-08
9.07679e-11
1.50401e-08
7.77477e-08
-3.00467e-10
1.51567e-08
7.7491e-08
-3.75699e-10
1.53588e-08
7.75394e-08
-4.00593e-10
1.53526e-08
7.76398e-08
-3.61762e-10
1.52518e-08
7.7714e-08
-2.77914e-10
1.5068e-08
7.78191e-08
-1.90552e-10
1.49088e-08
7.78953e-08
-1.17603e-10
1.48278e-08
7.79052e-08
-4.04074e-11
1.47342e-08
7.79221e-08
-2.85758e-12
1.47884e-08
7.78302e-08
4.13827e-11
1.45562e-08
7.80177e-08
5.3686e-11
1.45792e-08
7.79819e-08
2.6203e-11
1.46371e-08
7.79441e-08
2.40606e-11
1.46051e-08
7.79852e-08
-7.36848e-12
1.48187e-08
7.78111e-08
-3.62703e-11
1.47496e-08
7.79155e-08
-1.04922e-10
1.48298e-08
7.79089e-08
-1.73745e-10
1.49076e-08
7.79014e-08
-2.54641e-10
1.50906e-08
7.77975e-08
-3.41419e-10
1.53045e-08
7.76701e-08
-3.72219e-10
1.538e-08
7.76288e-08
-3.21961e-10
1.53599e-08
7.76022e-08
-1.96108e-10
1.52247e-08
7.76125e-08
3.33551e-11
1.49461e-08
7.7664e-08
2.94297e-10
1.45898e-08
7.77611e-08
4.71181e-10
1.43061e-08
7.78723e-08
6.02139e-10
1.41103e-08
7.79378e-08
6.06599e-10
1.41075e-08
7.79394e-08
4.71865e-10
1.43117e-08
7.78808e-08
3.14818e-10
1.46219e-08
7.77932e-08
9.5704e-11
1.50177e-08
7.77496e-08
-2.84154e-10
1.51459e-08
7.75031e-08
-3.64007e-10
1.53446e-08
7.75427e-08
-3.8901e-10
1.53397e-08
7.76412e-08
-3.50034e-10
1.52404e-08
7.77137e-08
-2.6641e-10
1.5058e-08
7.78175e-08
-1.79207e-10
1.48994e-08
7.78931e-08
-1.07191e-10
1.48202e-08
7.79023e-08
-3.14306e-11
1.47302e-08
7.79169e-08
3.26976e-12
1.47888e-08
7.78235e-08
4.45639e-11
1.45584e-08
7.80122e-08
5.42857e-11
1.4577e-08
7.79834e-08
2.91313e-11
1.46324e-08
7.79482e-08
2.81165e-11
1.46091e-08
7.79779e-08
-8.99905e-13
1.48238e-08
7.77998e-08
-2.69811e-11
1.47517e-08
7.79041e-08
-9.42947e-11
1.48287e-08
7.78992e-08
-1.62053e-10
1.49043e-08
7.78928e-08
-2.42685e-10
1.5085e-08
7.77913e-08
-3.29323e-10
1.5294e-08
7.76687e-08
-3.60184e-10
1.53707e-08
7.76261e-08
-3.1012e-10
1.5349e-08
7.76012e-08
-1.8497e-10
1.52113e-08
7.76148e-08
4.33735e-11
1.49304e-08
7.76697e-08
3.03982e-10
1.45721e-08
7.77691e-08
4.80673e-10
1.42874e-08
7.78814e-08
6.11357e-10
1.40912e-08
7.79476e-08
6.1584e-10
1.40883e-08
7.79492e-08
4.81409e-10
1.42932e-08
7.78899e-08
3.24405e-10
1.46041e-08
7.7801e-08
1.00561e-10
1.49969e-08
7.77489e-08
-2.6697e-10
1.51379e-08
7.75127e-08
-3.51649e-10
1.53335e-08
7.75424e-08
-3.76741e-10
1.53305e-08
7.76383e-08
-3.37599e-10
1.5233e-08
7.77086e-08
-2.54319e-10
1.50524e-08
7.7811e-08
-1.67154e-10
1.48946e-08
7.78857e-08
-9.60086e-11
1.48176e-08
7.78935e-08
-2.20178e-11
1.47316e-08
7.79059e-08
9.7069e-12
1.47933e-08
7.78124e-08
4.79431e-11
1.45629e-08
7.80041e-08
5.50149e-11
1.45751e-08
7.79845e-08
3.19982e-11
1.46284e-08
7.79516e-08
3.21191e-11
1.46155e-08
7.79685e-08
5.44552e-12
1.48335e-08
7.7784e-08
-1.75112e-11
1.47607e-08
7.78856e-08
-8.34373e-11
1.48346e-08
7.78822e-08
-1.50074e-10
1.49077e-08
7.78773e-08
-2.30237e-10
1.50855e-08
7.77784e-08
-3.16752e-10
1.52893e-08
7.7661e-08
-3.47629e-10
1.53669e-08
7.76173e-08
-2.97874e-10
1.53433e-08
7.75946e-08
-1.73677e-10
1.52025e-08
7.76123e-08
5.32161e-11
1.49185e-08
7.76717e-08
3.13385e-10
1.45578e-08
7.7774e-08
4.89942e-10
1.42716e-08
7.78878e-08
6.20363e-10
1.40748e-08
7.79549e-08
6.24869e-10
1.40718e-08
7.79565e-08
4.90743e-10
1.42777e-08
7.78962e-08
3.33679e-10
1.45896e-08
7.78056e-08
1.0498e-10
1.49796e-08
7.77443e-08
-2.49318e-10
1.51347e-08
7.75181e-08
-3.38774e-10
1.53276e-08
7.75366e-08
-3.63926e-10
1.53269e-08
7.76292e-08
-3.24647e-10
1.52316e-08
7.76971e-08
-2.4189e-10
1.50529e-08
7.7798e-08
-1.54695e-10
1.48963e-08
7.78714e-08
-8.45048e-11
1.48219e-08
7.78774e-08
-1.23364e-11
1.47398e-08
7.78879e-08
1.61045e-11
1.48025e-08
7.77967e-08
5.12878e-11
1.45699e-08
7.79936e-08
5.58964e-11
1.45736e-08
7.79849e-08
3.48346e-11
1.46251e-08
7.79539e-08
3.59295e-11
1.4624e-08
7.79571e-08
1.12118e-11
1.48491e-08
7.7763e-08
-8.233e-12
1.47777e-08
7.78593e-08
-7.25904e-11
1.48497e-08
7.78561e-08
-1.38231e-10
1.492e-08
7.78529e-08
-2.17715e-10
1.50945e-08
7.7757e-08
-3.04045e-10
1.5293e-08
7.76448e-08
-3.34872e-10
1.53712e-08
7.76003e-08
-2.85507e-10
1.53452e-08
7.75802e-08
-1.62571e-10
1.52007e-08
7.7603e-08
6.25917e-11
1.49131e-08
7.76677e-08
3.22072e-10
1.45494e-08
7.77737e-08
4.98282e-10
1.42613e-08
7.78897e-08
6.28396e-10
1.40635e-08
7.79581e-08
6.3292e-10
1.40604e-08
7.79596e-08
4.99163e-10
1.42677e-08
7.7898e-08
3.42193e-10
1.45809e-08
7.7805e-08
1.0876e-10
1.49686e-08
7.77334e-08
-2.31646e-10
1.51387e-08
7.75168e-08
-3.25709e-10
1.53293e-08
7.75233e-08
-3.50883e-10
1.53313e-08
7.76119e-08
-3.11605e-10
1.52385e-08
7.76772e-08
-2.29356e-10
1.50618e-08
7.77764e-08
-1.42424e-10
1.49068e-08
7.78484e-08
-7.32588e-11
1.48354e-08
7.78525e-08
-2.66401e-12
1.47559e-08
7.78619e-08
2.19231e-11
1.48175e-08
7.77756e-08
5.43761e-11
1.45791e-08
7.79812e-08
5.69518e-11
1.45728e-08
7.79846e-08
3.76818e-11
1.4623e-08
7.7955e-08
3.96286e-11
1.46348e-08
7.79437e-08
1.65969e-11
1.48717e-08
7.77353e-08
4.75204e-13
1.48037e-08
7.78246e-08
-6.2165e-11
1.48763e-08
7.78189e-08
-1.26854e-10
1.4944e-08
7.78174e-08
-2.05698e-10
1.51146e-08
7.77249e-08
-2.91672e-10
1.53078e-08
7.76178e-08
-3.22356e-10
1.53864e-08
7.75726e-08
-2.73502e-10
1.53577e-08
7.75556e-08
-1.52075e-10
1.5209e-08
7.75841e-08
7.11606e-11
1.49172e-08
7.7655e-08
3.29745e-10
1.45498e-08
7.77656e-08
5.05412e-10
1.42595e-08
7.78843e-08
6.35152e-10
1.40604e-08
7.79543e-08
6.39684e-10
1.40572e-08
7.79558e-08
5.06391e-10
1.42661e-08
7.78925e-08
3.49641e-10
1.45811e-08
7.77964e-08
1.11649e-10
1.4967e-08
7.77138e-08
-2.14479e-10
1.51528e-08
7.75061e-08
-3.12916e-10
1.53418e-08
7.74998e-08
-3.38058e-10
1.53467e-08
7.75838e-08
-2.9904e-10
1.52565e-08
7.76467e-08
-2.17168e-10
1.5082e-08
7.7744e-08
-1.30823e-10
1.49289e-08
7.78144e-08
-6.26844e-11
1.48601e-08
7.78169e-08
6.39216e-12
1.4781e-08
7.78276e-08
2.73936e-11
1.48396e-08
7.77479e-08
5.72934e-11
1.45906e-08
7.79666e-08
5.82104e-11
1.45728e-08
7.79832e-08
4.06001e-11
1.46222e-08
7.79546e-08
4.32283e-11
1.46477e-08
7.79282e-08
2.40918e-11
1.48985e-08
7.77015e-08
7.83184e-12
1.48412e-08
7.77798e-08
-5.3358e-11
1.49162e-08
7.777e-08
-1.16576e-10
1.49825e-08
7.77684e-08
-1.9496e-10
1.5149e-08
7.76799e-08
-2.80329e-10
1.53369e-08
7.75776e-08
-3.10688e-10
1.54157e-08
7.75317e-08
-2.62457e-10
1.53842e-08
7.7518e-08
-1.42714e-10
1.52311e-08
7.75527e-08
7.84499e-11
1.49345e-08
7.76304e-08
3.35998e-10
1.4563e-08
7.77461e-08
5.10989e-10
1.42699e-08
7.78682e-08
6.40309e-10
1.40691e-08
7.79404e-08
6.44839e-10
1.40658e-08
7.79418e-08
5.12091e-10
1.42769e-08
7.78763e-08
3.55606e-10
1.4594e-08
7.77765e-08
1.13259e-10
1.49785e-08
7.76822e-08
-1.98446e-10
1.51806e-08
7.74828e-08
-3.00975e-10
1.53682e-08
7.74634e-08
-3.26057e-10
1.53761e-08
7.75425e-08
-2.87584e-10
1.52887e-08
7.76031e-08
-2.0615e-10
1.51163e-08
7.76986e-08
-1.20562e-10
1.49656e-08
7.77673e-08
-5.34118e-11
1.48982e-08
7.77693e-08
1.40532e-11
1.48174e-08
7.77832e-08
3.50116e-11
1.48658e-08
7.77139e-08
6.00893e-11
1.46043e-08
7.795e-08
5.97213e-11
1.45739e-08
7.79804e-08
4.36393e-11
1.46229e-08
7.79523e-08
4.67886e-11
1.46625e-08
7.7911e-08
3.42262e-11
1.49266e-08
7.76637e-08
1.40044e-11
1.48931e-08
7.77217e-08
-4.74041e-11
1.49716e-08
7.77085e-08
-1.09e-10
1.50386e-08
7.77045e-08
-1.86499e-10
1.52008e-08
7.76197e-08
-2.70928e-10
1.53835e-08
7.75217e-08
-3.00688e-10
1.54625e-08
7.7475e-08
-2.53109e-10
1.54283e-08
7.74645e-08
-1.3515e-10
1.52706e-08
7.75056e-08
8.38333e-11
1.49691e-08
7.75903e-08
3.40252e-10
1.45932e-08
7.77117e-08
5.14476e-10
1.42967e-08
7.78378e-08
6.43361e-10
1.40938e-08
7.79126e-08
6.47878e-10
1.40904e-08
7.79139e-08
5.15733e-10
1.4304e-08
7.78457e-08
3.59504e-10
1.46236e-08
7.77415e-08
1.13053e-10
1.50074e-08
7.76354e-08
-1.84307e-10
1.52259e-08
7.74437e-08
-2.90608e-10
1.54124e-08
7.74114e-08
-3.1569e-10
1.54231e-08
7.74853e-08
-2.78005e-10
1.53383e-08
7.7544e-08
-1.97255e-10
1.51681e-08
7.76379e-08
-1.12698e-10
1.50198e-08
7.7705e-08
-4.66325e-11
1.49517e-08
7.77087e-08
2.0521e-11
1.48684e-08
7.77255e-08
4.5358e-11
1.48933e-08
7.76757e-08
6.28625e-11
1.46197e-08
7.79316e-08
6.15248e-11
1.45763e-08
7.79761e-08
4.68656e-11
1.46254e-08
7.79479e-08
5.06107e-11
1.46786e-08
7.7892e-08
4.29177e-11
1.49588e-08
7.76233e-08
2.35982e-11
1.49549e-08
7.76504e-08
-4.51223e-11
1.50456e-08
7.7632e-08
-1.0611e-10
1.51152e-08
7.76249e-08
-1.8154e-10
1.52731e-08
7.75426e-08
-2.64674e-10
1.5451e-08
7.74482e-08
-2.93452e-10
1.553e-08
7.74002e-08
-2.46435e-10
1.54935e-08
7.73925e-08
-1.30305e-10
1.53318e-08
7.74395e-08
8.65177e-11
1.50253e-08
7.75314e-08
3.41747e-10
1.46447e-08
7.76587e-08
5.1514e-10
1.43445e-08
7.77892e-08
6.43595e-10
1.41389e-08
7.78671e-08
6.48087e-10
1.41355e-08
7.78684e-08
5.16585e-10
1.43521e-08
7.77969e-08
3.60572e-10
1.46745e-08
7.76878e-08
1.10328e-10
1.5058e-08
7.757e-08
-1.73084e-10
1.52925e-08
7.73854e-08
-2.82773e-10
1.54779e-08
7.7341e-08
-3.08035e-10
1.54909e-08
7.741e-08
-2.71474e-10
1.54084e-08
7.74674e-08
-1.91645e-10
1.52404e-08
7.75599e-08
-1.08749e-10
1.50945e-08
7.76262e-08
-4.39821e-11
1.5024e-08
7.76335e-08
3.03676e-11
1.49291e-08
7.76547e-08
5.3995e-11
1.49251e-08
7.76351e-08
6.59438e-11
1.46366e-08
7.79114e-08
6.36785e-11
1.45803e-08
7.79699e-08
5.03853e-11
1.46297e-08
7.79412e-08
5.48028e-11
1.4696e-08
7.78715e-08
4.64023e-11
1.49977e-08
7.75815e-08
3.3312e-11
1.50256e-08
7.75701e-08
-4.55078e-11
1.51431e-08
7.75347e-08
-1.08961e-10
1.52162e-08
7.75266e-08
-1.81576e-10
1.53692e-08
7.74465e-08
-2.63295e-10
1.55426e-08
7.73554e-08
-2.90481e-10
1.56214e-08
7.73059e-08
-2.43825e-10
1.55832e-08
7.73002e-08
-1.2959e-10
1.54184e-08
7.73521e-08
8.55305e-11
1.5107e-08
7.74507e-08
3.39534e-10
1.47221e-08
7.75834e-08
5.11925e-10
1.4418e-08
7.77188e-08
6.3998e-10
1.42093e-08
7.78002e-08
6.44432e-10
1.42058e-08
7.78015e-08
5.13598e-10
1.4426e-08
7.77263e-08
3.57862e-10
1.47512e-08
7.76119e-08
1.04206e-10
1.51344e-08
7.74831e-08
-1.66283e-10
1.53842e-08
7.73055e-08
-2.78818e-10
1.55681e-08
7.72502e-08
-3.04563e-10
1.55825e-08
7.73152e-08
-2.698e-10
1.55024e-08
7.73718e-08
-1.90871e-10
1.53365e-08
7.74629e-08
-1.10614e-10
1.51935e-08
7.75288e-08
-4.44045e-11
1.51197e-08
7.75379e-08
4.02187e-11
1.49985e-08
7.75752e-08
5.70052e-11
1.49635e-08
7.75935e-08
6.94215e-11
1.46546e-08
7.78898e-08
6.62804e-11
1.45858e-08
7.79616e-08
5.4292e-11
1.4636e-08
7.79321e-08
5.92514e-11
1.47146e-08
7.78495e-08
4.53558e-11
1.50421e-08
7.75387e-08
3.29784e-11
1.51122e-08
7.74839e-08
-4.12577e-11
1.52592e-08
7.74142e-08
-1.1546e-10
1.53481e-08
7.7401e-08
-1.88135e-10
1.54963e-08
7.7326e-08
-2.68554e-10
1.56637e-08
7.72398e-08
-2.93324e-10
1.57409e-08
7.71893e-08
-2.46663e-10
1.57011e-08
7.7185e-08
-1.3434e-10
1.55334e-08
7.72419e-08
7.97253e-11
1.52175e-08
7.7346e-08
3.32473e-10
1.48292e-08
7.74835e-08
5.03206e-10
1.45216e-08
7.76238e-08
6.30904e-10
1.43094e-08
7.7709e-08
6.35299e-10
1.4306e-08
7.77103e-08
5.05139e-10
1.453e-08
7.7631e-08
3.5023e-10
1.48574e-08
7.7511e-08
9.36418e-11
1.52398e-08
7.73726e-08
-1.65328e-10
1.55039e-08
7.72023e-08
-2.8009e-10
1.56871e-08
7.71363e-08
-3.06833e-10
1.57022e-08
7.71979e-08
-2.74787e-10
1.56257e-08
7.72536e-08
-1.9659e-10
1.54632e-08
7.73419e-08
-1.16767e-10
1.53235e-08
7.74047e-08
-4.0135e-11
1.52339e-08
7.74192e-08
3.99827e-11
1.50838e-08
7.74898e-08
5.55182e-11
1.50072e-08
7.75511e-08
7.31959e-11
1.46737e-08
7.78667e-08
6.94151e-11
1.4593e-08
7.79511e-08
5.86636e-11
1.4644e-08
7.79206e-08
6.39648e-11
1.47341e-08
7.78261e-08
4.33883e-11
1.50895e-08
7.74937e-08
2.47164e-11
1.52128e-08
7.73917e-08
-4.20936e-11
1.5397e-08
7.72771e-08
-1.16225e-10
1.55094e-08
7.72404e-08
-2.01222e-10
1.56664e-08
7.71691e-08
-2.78277e-10
1.58243e-08
7.7089e-08
-3.0112e-10
1.58997e-08
7.70383e-08
-2.53457e-10
1.58549e-08
7.70379e-08
-1.41971e-10
1.56788e-08
7.71041e-08
6.78454e-11
1.53615e-08
7.72138e-08
3.19317e-10
1.49693e-08
7.73565e-08
4.87477e-10
1.46591e-08
7.75019e-08
6.14873e-10
1.44429e-08
7.75914e-08
6.19185e-10
1.44395e-08
7.75926e-08
4.89695e-10
1.46679e-08
7.75088e-08
3.36442e-10
1.49964e-08
7.7383e-08
7.74798e-11
1.53791e-08
7.72351e-08
-1.67714e-10
1.56537e-08
7.70708e-08
-2.85237e-10
1.58429e-08
7.69901e-08
-3.14168e-10
1.58614e-08
7.70463e-08
-2.84265e-10
1.57883e-08
7.71005e-08
-2.08619e-10
1.56326e-08
7.71845e-08
-1.16941e-10
1.54829e-08
7.72453e-08
-4.0893e-11
1.53699e-08
7.72837e-08
3.18484e-11
1.51828e-08
7.73987e-08
5.32628e-11
1.50539e-08
7.75063e-08
7.73088e-11
1.46937e-08
7.78424e-08
7.31528e-11
1.46018e-08
7.79385e-08
6.35682e-11
1.46536e-08
7.7907e-08
6.88435e-11
1.47548e-08
7.78014e-08
4.16821e-11
1.51402e-08
7.74452e-08
1.42663e-11
1.53207e-08
7.72944e-08
-6.06598e-11
1.556e-08
7.71326e-08
-1.24478e-10
1.57038e-08
7.70541e-08
-2.17755e-10
1.58777e-08
7.69744e-08
-2.80189e-10
1.60195e-08
7.68959e-08
-3.06807e-10
1.60994e-08
7.68444e-08
-2.55572e-10
1.60475e-08
7.68473e-08
-1.40237e-10
1.586e-08
7.69212e-08
4.87855e-11
1.55522e-08
7.70421e-08
2.99069e-10
1.51495e-08
7.71965e-08
4.67868e-10
1.48325e-08
7.7348e-08
5.94972e-10
1.4612e-08
7.7442e-08
5.99166e-10
1.46087e-08
7.74432e-08
4.70376e-10
1.48417e-08
7.73546e-08
3.15614e-10
1.51747e-08
7.72223e-08
5.46977e-11
1.5565e-08
7.70589e-08
-1.61283e-10
1.58388e-08
7.68937e-08
-2.86191e-10
1.60356e-08
7.68032e-08
-3.19925e-10
1.60617e-08
7.68521e-08
-2.86144e-10
1.59854e-08
7.69054e-08
-2.22749e-10
1.58432e-08
7.6988e-08
-1.24279e-10
1.56757e-08
7.70596e-08
-5.91735e-11
1.55311e-08
7.71405e-08
2.14934e-11
1.52892e-08
7.73024e-08
5.137e-11
1.51038e-08
7.7458e-08
8.18137e-11
1.47147e-08
7.78166e-08
7.7555e-11
1.46119e-08
7.79238e-08
6.90367e-11
1.46645e-08
7.78914e-08
7.41932e-11
1.4777e-08
7.77746e-08
4.02616e-11
1.51951e-08
7.73922e-08
1.82459e-12
1.54226e-08
7.72051e-08
-8.85457e-11
1.57208e-08
7.69997e-08
-1.57393e-10
1.59201e-08
7.68707e-08
-2.46567e-10
1.61222e-08
7.67587e-08
-2.91682e-10
1.62512e-08
7.66758e-08
-3.21432e-10
1.63359e-08
7.66226e-08
-2.65616e-10
1.62793e-08
7.66255e-08
-1.45022e-10
1.60894e-08
7.66966e-08
2.21586e-11
1.57941e-08
7.68268e-08
2.71573e-10
1.53818e-08
7.69917e-08
4.59102e-10
1.50405e-08
7.71486e-08
5.85894e-10
1.48169e-08
7.72461e-08
5.89937e-10
1.48138e-08
7.72472e-08
4.61877e-10
1.50501e-08
7.71549e-08
2.87921e-10
1.54046e-08
7.70166e-08
2.49473e-11
1.58026e-08
7.68397e-08
-1.61955e-10
1.60715e-08
7.66743e-08
-2.94915e-10
1.62523e-08
7.66005e-08
-3.34681e-10
1.62985e-08
7.66305e-08
-2.97363e-10
1.62185e-08
7.66836e-08
-2.49274e-10
1.60874e-08
7.67703e-08
-1.56897e-10
1.58905e-08
7.68772e-08
-8.65166e-11
1.56902e-08
7.70085e-08
9.12118e-12
1.53896e-08
7.72141e-08
4.97316e-11
1.5158e-08
7.74053e-08
8.66312e-11
1.47372e-08
7.77892e-08
8.2672e-11
1.46231e-08
7.79073e-08
7.52075e-11
1.4676e-08
7.78744e-08
8.03084e-11
1.48014e-08
7.77448e-08
3.86742e-11
1.52558e-08
7.73336e-08
-1.47619e-11
1.55178e-08
7.71267e-08
-1.23227e-10
1.58713e-08
7.68838e-08
-2.05495e-10
1.61362e-08
7.67026e-08
-2.95131e-10
1.63797e-08
7.65498e-08
-3.34375e-10
1.65077e-08
7.64621e-08
-3.58242e-10
1.65872e-08
7.64081e-08
-2.9846e-10
1.6528e-08
7.64097e-08
-1.76564e-10
1.63434e-08
7.64741e-08
-1.30145e-11
1.60534e-08
7.66027e-08
2.35098e-10
1.56435e-08
7.67664e-08
4.42939e-10
1.52793e-08
7.69259e-08
5.70092e-10
1.5057e-08
7.70217e-08
5.73916e-10
1.50554e-08
7.70215e-08
4.45944e-10
1.52891e-08
7.6932e-08
2.51279e-10
1.56642e-08
7.67898e-08
-1.27621e-11
1.60585e-08
7.66119e-08
-1.89929e-10
1.6328e-08
7.64566e-08
-3.25716e-10
1.64841e-08
7.6405e-08
-3.7092e-10
1.655e-08
7.64157e-08
-3.39787e-10
1.64757e-08
7.6469e-08
-2.97941e-10
1.63449e-08
7.65614e-08
-2.04768e-10
1.61054e-08
7.671e-08
-1.20347e-10
1.58392e-08
7.68931e-08
-7.41376e-12
1.54833e-08
7.71366e-08
4.80032e-11
1.52179e-08
7.73469e-08
9.21204e-11
1.47616e-08
7.77591e-08
8.85059e-11
1.46349e-08
7.78895e-08
8.21245e-11
1.46879e-08
7.78562e-08
8.68789e-11
1.48288e-08
7.77115e-08
3.67321e-11
1.53249e-08
7.72668e-08
-3.65836e-11
1.56205e-08
7.7046e-08
-1.64526e-10
1.60233e-08
7.67731e-08
-2.63765e-10
1.63574e-08
7.65396e-08
-3.57337e-10
1.6634e-08
7.63577e-08
-3.94437e-10
1.67636e-08
7.62663e-08
-4.08933e-10
1.68325e-08
7.62136e-08
-3.44312e-10
1.67704e-08
7.6213e-08
-2.20833e-10
1.65908e-08
7.62709e-08
-5.70017e-11
1.63069e-08
7.63931e-08
1.88062e-10
1.59061e-08
7.65509e-08
3.96436e-10
1.5541e-08
7.67106e-08
5.24471e-10
1.53211e-08
7.68031e-08
5.28002e-10
1.53211e-08
7.68016e-08
3.99595e-10
1.55511e-08
7.67165e-08
2.03638e-10
1.5925e-08
7.65723e-08
-5.87494e-11
1.63092e-08
7.63992e-08
-2.31177e-10
1.65774e-08
7.62574e-08
-3.69326e-10
1.67265e-08
7.62121e-08
-4.20617e-10
1.67956e-08
7.62205e-08
-4.00161e-10
1.67321e-08
7.62731e-08
-3.60758e-10
1.65994e-08
7.63697e-08
-2.62242e-10
1.63257e-08
7.6547e-08
-1.60767e-10
1.59897e-08
7.67827e-08
-2.92007e-11
1.55847e-08
7.70568e-08
4.58976e-11
1.52863e-08
7.72804e-08
9.84857e-11
1.47888e-08
7.77253e-08
9.51935e-11
1.46469e-08
7.78707e-08
8.97057e-11
1.46997e-08
7.78375e-08
9.34387e-11
1.48598e-08
7.76745e-08
3.42978e-11
1.54052e-08
7.71893e-08
-6.34255e-11
1.57347e-08
7.69589e-08
-2.12611e-10
1.61773e-08
7.66672e-08
-3.29904e-10
1.65787e-08
7.63845e-08
-4.30143e-10
1.68919e-08
7.61727e-08
-4.65286e-10
1.70249e-08
7.6076e-08
-4.7004e-10
1.70785e-08
7.60287e-08
-4.00027e-10
1.70093e-08
7.60298e-08
-2.72686e-10
1.68329e-08
7.60807e-08
-1.08897e-10
1.65581e-08
7.61939e-08
1.3234e-10
1.61698e-08
7.63429e-08
3.36826e-10
1.58108e-08
7.65002e-08
4.65802e-10
1.55895e-08
7.65932e-08
4.69012e-10
1.55899e-08
7.65917e-08
3.40022e-10
1.58211e-08
7.65061e-08
1.47183e-10
1.61871e-08
7.63623e-08
-1.12174e-10
1.6558e-08
7.61975e-08
-2.80627e-10
1.6821e-08
7.60704e-08
-4.2191e-10
1.69689e-08
7.60283e-08
-4.8071e-10
1.70422e-08
7.6035e-08
-4.71294e-10
1.69938e-08
7.60827e-08
-4.33337e-10
1.68576e-08
7.61841e-08
-3.27931e-10
1.65463e-08
7.6392e-08
-2.0835e-10
1.61426e-08
7.66772e-08
-5.60756e-11
1.56977e-08
7.69704e-08
4.32076e-11
1.53659e-08
7.72033e-08
1.04928e-10
1.48196e-08
7.7688e-08
1.02671e-10
1.46587e-08
7.78513e-08
9.7636e-11
1.47113e-08
7.78186e-08
1.00255e-10
1.48946e-08
7.76334e-08
3.11906e-11
1.54965e-08
7.71015e-08
-9.45508e-11
1.58595e-08
7.68654e-08
-2.67193e-10
1.633e-08
7.65691e-08
-4.01774e-10
1.67893e-08
7.62457e-08
-5.11757e-10
1.71434e-08
7.60028e-08
-5.44678e-10
1.72823e-08
7.58981e-08
-5.39997e-10
1.73155e-08
7.58617e-08
-4.63337e-10
1.72319e-08
7.58705e-08
-3.30337e-10
1.7055e-08
7.59162e-08
-1.66323e-10
1.67907e-08
7.60186e-08
7.08755e-11
1.64181e-08
7.6156e-08
2.72117e-10
1.60674e-08
7.63083e-08
4.01781e-10
1.58449e-08
7.64018e-08
4.04667e-10
1.58454e-08
7.64006e-08
2.75228e-10
1.60777e-08
7.63143e-08
8.49098e-11
1.64336e-08
7.61734e-08
-1.70626e-10
1.67889e-08
7.60205e-08
-3.36895e-10
1.70442e-08
7.59091e-08
-4.81707e-10
1.7194e-08
7.58689e-08
-5.49495e-10
1.72796e-08
7.58674e-08
-5.51481e-10
1.72515e-08
7.59055e-08
-5.13971e-10
1.71094e-08
7.6013e-08
-3.99813e-10
1.67564e-08
7.62537e-08
-2.6279e-10
1.62945e-08
7.65796e-08
-8.73106e-11
1.58218e-08
7.68774e-08
3.98033e-11
1.54563e-08
7.7116e-08
1.11242e-10
1.4854e-08
7.76472e-08
1.1051e-10
1.46702e-08
7.78318e-08
1.05977e-10
1.47228e-08
7.77993e-08
1.07649e-10
1.4932e-08
7.7589e-08
2.68014e-11
1.55867e-08
7.7016e-08
-1.29097e-10
1.59933e-08
7.67664e-08
-3.26506e-10
1.64788e-08
7.64797e-08
-4.76727e-10
1.69784e-08
7.61316e-08
-5.97309e-10
1.73713e-08
7.58605e-08
-6.296e-10
1.7518e-08
7.57473e-08
-6.14721e-10
1.75251e-08
7.57268e-08
-5.29291e-10
1.74175e-08
7.57508e-08
-3.8943e-10
1.72333e-08
7.5797e-08
-2.25e-10
1.69784e-08
7.58896e-08
8.24022e-12
1.66238e-08
7.60129e-08
2.06436e-10
1.62836e-08
7.61576e-08
3.36385e-10
1.60618e-08
7.62501e-08
3.38989e-10
1.60626e-08
7.6249e-08
2.09419e-10
1.62938e-08
7.61639e-08
2.1328e-11
1.66374e-08
7.60283e-08
-2.29413e-10
1.69752e-08
7.58897e-08
-3.95391e-10
1.72233e-08
7.57926e-08
-5.44924e-10
1.73815e-08
7.57504e-08
-6.23588e-10
1.74899e-08
7.57324e-08
-6.37108e-10
1.74875e-08
7.57553e-08
-5.98336e-10
1.73378e-08
7.5869e-08
-4.74698e-10
1.69452e-08
7.61396e-08
-3.22136e-10
1.64429e-08
7.64903e-08
-1.22008e-10
1.59551e-08
7.67785e-08
3.54522e-11
1.55458e-08
7.70307e-08
1.18188e-10
1.48909e-08
7.76032e-08
1.18423e-10