/*--------------------------------*- C++ -*----------------------------------*\
  =========                 |
  \\      /  F ield         | OpenFOAM: The Open Source CFD Toolbox
   \\    /   O peration     | Website:  https://openfoam.org
    \\  /    A nd           | Version:  6
     \\/     M anipulation  |
\*---------------------------------------------------------------------------*/
FoamFile
{
    version     2.0;
    format      ascii;
    class       volVectorField;
    location    "80";
    object      U;
}
// * * * * * * * * * * * * * * * * * * * * * * * * * * * * * * * * * * * * * //

dimensions      [0 1 -1 0 0 0 0];

internalField   nonuniform List<vector> 
3240
(
(0.0446468 4.27445e-10 8.58352e-11)
(0.0446473 9.98318e-10 -2.06876e-10)
(0.0446477 -1.48576e-09 1.32604e-10)
(0.0301129 1.32e-09 6.49508e-12)
(0.0301137 -2.09233e-09 -1.43765e-11)
(0.030114 7.74093e-10 7.13656e-12)
(0.0356229 1.75619e-09 6.66004e-12)
(0.0356239 -2.44701e-09 -5.17176e-11)
(0.0356242 6.89059e-10 4.54252e-11)
(0.0401013 1.18659e-09 9.59603e-12)
(0.0401025 7.73362e-10 -5.92273e-11)
(0.040103 -1.95235e-09 4.96248e-11)
(0.0438304 1.12745e-09 1.99649e-11)
(0.0438318 1.43995e-10 -8.9206e-11)
(0.0438324 -1.26243e-09 6.91319e-11)
(0.0470821 9.2546e-10 2.84121e-11)
(0.0470835 -3.5925e-10 -1.0376e-10)
(0.0470842 -5.49954e-10 7.52624e-11)
(0.0500224 9.94735e-10 3.3063e-11)
(0.0500238 -1.20324e-09 -1.14827e-10)
(0.0500245 2.24407e-10 8.18402e-11)
(0.0527558 4.58091e-10 3.53791e-11)
(0.0527571 -6.79263e-10 -1.22829e-10)
(0.0527578 2.33436e-10 8.75738e-11)
(0.0553437 -5.49593e-10 3.55316e-11)
(0.0553449 4.82361e-10 -1.19379e-10)
(0.0553456 7.40137e-11 8.38616e-11)
(0.0578041 -1.56897e-09 3.76422e-11)
(0.0578051 1.8639e-09 -1.12667e-10)
(0.0578058 -2.88355e-10 7.50051e-11)
(0.0601017 -2.43476e-09 4.57558e-11)
(0.0601025 3.07975e-09 -9.91389e-11)
(0.0601032 -6.37238e-10 5.3402e-11)
(0.0621448 -2.77504e-09 5.72334e-11)
(0.0621452 3.61245e-09 -8.05589e-11)
(0.062146 -8.23842e-10 2.33203e-11)
(0.0638049 -2.33632e-09 6.61048e-11)
(0.0638051 3.21275e-09 -6.31052e-11)
(0.0638059 -8.63767e-10 -2.99414e-12)
(0.0649823 -1.59855e-09 7.17886e-11)
(0.0649822 2.23288e-09 -4.88422e-11)
(0.0649831 -6.20772e-10 -2.295e-11)
(0.0656207 -6.218e-10 7.45628e-11)
(0.0656205 8.38016e-10 -4.04977e-11)
(0.0656215 -2.04913e-10 -3.406e-11)
(0.0656208 6.02705e-10 7.46485e-11)
(0.0656206 -8.01853e-10 -4.05436e-11)
(0.0656215 2.21953e-10 -3.41253e-11)
(0.0649825 1.59136e-09 7.17647e-11)
(0.0649824 -2.20241e-09 -4.87388e-11)
(0.0649834 6.25409e-10 -2.29298e-11)
(0.0638054 2.30725e-09 6.60346e-11)
(0.0638056 -3.19218e-09 -6.28868e-11)
(0.0638064 8.66931e-10 -3.01401e-12)
(0.0621456 2.74927e-09 5.7056e-11)
(0.062146 -3.56502e-09 -8.04477e-11)
(0.0621468 8.77223e-10 2.20294e-11)
(0.060103 2.4403e-09 4.60319e-11)
(0.0601037 -3.12096e-09 -9.88227e-11)
(0.0601044 7.30252e-10 5.46178e-11)
(0.057805 1.52226e-09 3.74715e-11)
(0.0578061 -1.78297e-09 -1.12944e-10)
(0.0578067 2.23654e-10 7.52447e-11)
(0.0553446 4.55765e-10 3.55141e-11)
(0.0553459 -3.17639e-10 -1.19388e-10)
(0.0553465 -1.49461e-10 8.37548e-11)
(0.0527562 -4.89749e-10 3.55221e-11)
(0.0527575 7.52092e-10 -1.20432e-10)
(0.0527582 -2.61851e-10 8.48878e-11)
(0.0500222 -1.03486e-09 3.35307e-11)
(0.0500236 1.28524e-09 -1.14927e-10)
(0.0500243 -2.49307e-10 8.14086e-11)
(0.0470815 -9.87929e-10 2.80432e-11)
(0.0470829 4.13557e-10 -1.04445e-10)
(0.0470836 5.77433e-10 7.631e-11)
(0.0438297 -1.16807e-09 2.00525e-11)
(0.043831 -1.08689e-10 -8.98142e-11)
(0.0438316 1.28233e-09 6.97128e-11)
(0.0401003 -1.20821e-09 9.58601e-12)
(0.0401015 -7.58554e-10 -5.90426e-11)
(0.040102 1.97338e-09 4.94171e-11)
(0.0356213 -1.78583e-09 6.2347e-12)
(0.0356223 2.48734e-09 -5.20506e-11)
(0.0356226 -6.95822e-10 4.57347e-11)
(0.0301116 -1.34161e-09 7.31659e-12)
(0.0301124 2.12458e-09 -1.50047e-11)
(0.0301127 -7.80907e-10 7.64914e-12)
(0.0446446 -4.97105e-10 7.34578e-11)
(0.044645 -9.01833e-10 -2.01619e-10)
(0.0446455 1.39961e-09 1.28178e-10)
(0.061122 5.8684e-10 1.18617e-10)
(0.0611225 1.32613e-09 -3.28493e-10)
(0.061123 -1.96794e-09 2.14948e-10)
(0.0879223 3.5496e-09 1.08315e-10)
(0.0879243 -5.14419e-09 -4.46541e-10)
(0.0879251 1.67957e-09 3.33934e-10)
(0.101737 4.60598e-09 1.66081e-10)
(0.101739 -6.02359e-09 -7.59835e-10)
(0.10174 1.44628e-09 5.94629e-10)
(0.112032 2.88201e-09 2.29378e-10)
(0.112034 2.2904e-09 -8.69291e-10)
(0.112035 -5.12948e-09 6.3981e-10)
(0.120071 2.62951e-09 2.92e-10)
(0.120073 8.81975e-10 -9.11075e-10)
(0.120075 -3.47633e-09 6.19062e-10)
(0.126716 2.09671e-09 3.29717e-10)
(0.126718 -3.56518e-10 -9.36034e-10)
(0.12672 -1.69784e-09 6.06295e-10)
(0.132458 2.27292e-09 3.38035e-10)
(0.132461 -2.42054e-09 -9.33439e-10)
(0.132462 1.86087e-10 5.95458e-10)
(0.137592 9.68735e-10 3.33101e-10)
(0.137594 -1.27382e-09 -9.16626e-10)
(0.137596 3.39452e-10 5.83553e-10)
(0.142288 -1.40863e-09 3.07739e-10)
(0.14229 1.3364e-09 -8.54591e-10)
(0.142291 9.54381e-11 5.46884e-10)
(0.146618 -3.78613e-09 2.9243e-10)
(0.14662 4.52582e-09 -7.64007e-10)
(0.146621 -7.19917e-10 4.71575e-10)
(0.150555 -5.75538e-09 3.1258e-10)
(0.150556 7.25556e-09 -6.45603e-10)
(0.150557 -1.47909e-09 3.32985e-10)
(0.153975 -6.46799e-09 3.4999e-10)
(0.153976 8.35956e-09 -5.17131e-10)
(0.153977 -1.8563e-09 1.67088e-10)
(0.156702 -5.42739e-09 3.74497e-10)
(0.156703 7.38563e-09 -4.11194e-10)
(0.156704 -1.92511e-09 3.67157e-11)
(0.158611 -3.70022e-09 3.88254e-10)
(0.158611 5.10446e-09 -3.35889e-10)
(0.158612 -1.36964e-09 -5.23467e-11)
(0.159637 -1.43007e-09 3.91634e-10)
(0.159637 1.90484e-09 -2.91218e-10)
(0.159638 -4.4619e-10 -1.00428e-10)
(0.159637 1.38803e-09 3.92048e-10)
(0.159637 -1.81983e-09 -2.913e-10)
(0.159638 4.90376e-10 -1.00726e-10)
(0.158611 3.68537e-09 3.87956e-10)
(0.158611 -5.02466e-09 -3.35925e-10)
(0.158612 1.38763e-09 -5.19328e-11)
(0.156703 5.37228e-09 3.74016e-10)
(0.156704 -7.3232e-09 -4.0996e-10)
(0.156705 1.95455e-09 3.64261e-11)
(0.153976 6.38529e-09 3.49611e-10)
(0.153977 -8.2718e-09 -5.15622e-10)
(0.153978 1.93949e-09 1.66415e-10)
(0.150557 5.75136e-09 3.12366e-10)
(0.150558 -7.36337e-09 -6.4419e-10)
(0.15056 1.65802e-09 3.31511e-10)
(0.14662 3.69379e-09 2.91903e-10)
(0.146622 -4.33088e-09 -7.65513e-10)
(0.146623 6.26466e-10 4.72805e-10)
(0.14229 1.18918e-09 3.06945e-10)
(0.142292 -9.84695e-10 -8.53131e-10)
(0.142293 -2.05353e-10 5.45949e-10)
(0.137593 -1.04832e-09 3.32727e-10)
(0.137595 1.46622e-09 -9.14735e-10)
(0.137596 -4.08001e-10 5.81981e-10)
(0.132458 -2.37315e-09 3.39609e-10)
(0.13246 2.69404e-09 -9.32836e-10)
(0.132462 -3.10556e-10 5.93277e-10)
(0.126714 -2.24585e-09 3.28115e-10)
(0.126717 5.20254e-10 -9.32681e-10)
(0.126718 1.73939e-09 6.04567e-10)
(0.120069 -2.71978e-09 2.91072e-10)
(0.120072 -8.13916e-10 -9.08909e-10)
(0.120073 3.55043e-09 6.17898e-10)
(0.112029 -2.91584e-09 2.28093e-10)
(0.112032 -2.28756e-09 -8.67397e-10)
(0.112033 5.22148e-09 6.39438e-10)
(0.101733 -4.65125e-09 1.62648e-10)
(0.101735 6.07381e-09 -7.57666e-10)
(0.101736 -1.40834e-09 5.95206e-10)
(0.087919 -3.52541e-09 1.11065e-10)
(0.0879211 5.12482e-09 -4.47714e-10)
(0.0879218 -1.59547e-09 3.36918e-10)
(0.0611194 -6.54847e-10 1.11814e-10)
(0.0611199 -1.22406e-09 -3.22255e-10)
(0.0611204 1.87948e-09 2.10523e-10)
(0.0698783 6.4215e-10 1.71247e-10)
(0.0698789 1.4968e-09 -5.07017e-10)
(0.0698794 -2.21115e-09 3.45029e-10)
(0.125715 4.72452e-09 2.73428e-10)
(0.125718 -6.41561e-09 -1.12872e-09)
(0.125719 1.79704e-09 8.48067e-10)
(0.142656 6.09053e-09 4.31149e-10)
(0.142658 -7.61499e-09 -1.83832e-09)
(0.142659 1.56548e-09 1.40974e-09)
(0.154629 3.65953e-09 5.89913e-10)
(0.154632 3.22885e-09 -2.10009e-09)
(0.154633 -6.83008e-09 1.50998e-09)
(0.163835 3.24962e-09 7.18919e-10)
(0.163838 1.56338e-09 -2.10931e-09)
(0.16384 -4.76523e-09 1.39017e-09)
(0.171371 2.54123e-09 7.90963e-10)
(0.171373 -4.11473e-11 -2.12736e-09)
(0.171375 -2.44324e-09 1.3361e-09)
(0.177835 2.77165e-09 7.97636e-10)
(0.177837 -2.73497e-09 -2.09163e-09)
(0.177839 1.48431e-11 1.29421e-09)
(0.183579 1.10931e-09 7.77423e-10)
(0.183582 -1.34637e-09 -2.04011e-09)
(0.183583 2.82414e-10 1.26302e-09)
(0.188808 -1.88926e-09 7.1055e-10)
(0.18881 1.87937e-09 -1.88317e-09)
(0.188811 4.01743e-11 1.17273e-09)
(0.193609 -4.88494e-09 6.63074e-10)
(0.193611 5.84202e-09 -1.67348e-09)
(0.193612 -9.31261e-10 1.01033e-09)
(0.197956 -7.34698e-09 6.90383e-10)
(0.197957 9.2118e-09 -1.41277e-09)
(0.197959 -1.83734e-09 7.22256e-10)
(0.20172 -8.2092e-09 7.53433e-10)
(0.201721 1.05318e-08 -1.1402e-09)
(0.201722 -2.27709e-09 3.86605e-10)
(0.204713 -6.89176e-09 7.9098e-10)
(0.204713 9.31616e-09 -9.22286e-10)
(0.204715 -2.38162e-09 1.31314e-10)
(0.206803 -4.65315e-09 8.0669e-10)
(0.206803 6.39372e-09 -7.67673e-10)
(0.206805 -1.69566e-09 -3.90464e-11)
(0.207927 -1.79253e-09 8.0694e-10)
(0.207927 2.37703e-09 -6.76844e-10)
(0.207928 -5.47667e-10 -1.30225e-10)
(0.207927 1.74299e-09 8.07855e-10)
(0.207927 -2.27182e-09 -6.77161e-10)
(0.207929 6.04511e-10 -1.30863e-10)
(0.206804 4.63749e-09 8.06117e-10)
(0.206804 -6.29096e-09 -7.67579e-10)
(0.206805 1.72064e-09 -3.82133e-11)
(0.204714 6.83093e-09 7.90053e-10)
(0.204714 -9.23164e-09 -9.1964e-10)
(0.204716 2.42494e-09 1.30552e-10)
(0.201721 8.09433e-09 7.51097e-10)
(0.201722 -1.04404e-08 -1.13816e-09)
(0.201723 2.37355e-09 3.81703e-10)
(0.197958 7.33397e-09 6.918e-10)
(0.19796 -9.35798e-09 -1.40915e-09)
(0.197961 2.05093e-09 7.23865e-10)
(0.19361 4.77876e-09 6.62582e-10)
(0.193612 -5.58626e-09 -1.67754e-09)
(0.193614 8.26933e-10 1.0136e-09)
(0.18881 1.61356e-09 7.09012e-10)
(0.188812 -1.43201e-09 -1.88024e-09)
(0.188813 -1.71279e-10 1.17092e-09)
(0.18358 -1.21221e-09 7.76798e-10)
(0.183582 1.5939e-09 -2.03146e-09)
(0.183584 -3.66319e-10 1.25457e-09)
(0.177834 -2.90067e-09 8.00919e-10)
(0.177837 3.08158e-09 -2.09025e-09)
(0.177838 -1.66296e-10 1.28929e-09)
(0.171369 -2.73023e-09 7.88481e-10)
(0.171372 2.4901e-10 -2.12117e-09)
(0.171373 2.5004e-09 1.33235e-09)
(0.163833 -3.36479e-09 7.17208e-10)
(0.163836 -1.47668e-09 -2.10611e-09)
(0.163838 4.86445e-09 1.38872e-09)
(0.154626 -3.70377e-09 5.87126e-10)
(0.154629 -3.22456e-09 -2.0967e-09)
(0.15463 6.95286e-09 1.50961e-09)
(0.142651 -6.14976e-09 4.22588e-10)
(0.142654 7.67843e-09 -1.83351e-09)
(0.142655 -1.50929e-09 1.41117e-09)
(0.125711 -4.70146e-09 2.76925e-10)
(0.125714 6.3944e-09 -1.1292e-09)
(0.125715 -1.6869e-09 8.52762e-10)
(0.0698755 -7.29606e-10 1.58829e-10)
(0.069876 -1.37284e-09 -4.96194e-10)
(0.0698766 2.10327e-09 3.37499e-10)
(0.0782316 6.93963e-10 2.25432e-10)
(0.0782321 1.63092e-09 -7.58312e-10)
(0.0782327 -2.40665e-09 5.35356e-10)
(0.147363 5.22902e-09 4.49033e-10)
(0.147365 -6.71478e-09 -1.86556e-09)
(0.147366 1.57299e-09 1.40592e-09)
(0.166303 6.79059e-09 7.27579e-10)
(0.166305 -8.18113e-09 -3.00981e-09)
(0.166306 1.43045e-09 2.28575e-09)
(0.179211 4.00824e-09 1.00221e-09)
(0.179214 3.77301e-09 -3.46046e-09)
(0.179215 -7.72025e-09 2.45795e-09)
(0.189097 3.48738e-09 1.20497e-09)
(0.1891 2.09918e-09 -3.41236e-09)
(0.189102 -5.53416e-09 2.20715e-09)
(0.197183 2.68344e-09 1.31267e-09)
(0.197186 3.22411e-10 -3.41949e-09)
(0.197188 -2.94061e-09 2.10646e-09)
(0.204119 2.94034e-09 1.31695e-09)
(0.204121 -2.71492e-09 -3.34623e-09)
(0.204123 -1.65565e-10 2.02963e-09)
(0.210282 1.10634e-09 1.28121e-09)
(0.210285 -1.23825e-09 -3.25699e-09)
(0.210286 1.82813e-10 1.9763e-09)
(0.215892 -2.19073e-09 1.16924e-09)
(0.215894 2.26346e-09 -3.0069e-09)
(0.215895 -3.98338e-11 1.8379e-09)
(0.221041 -5.49449e-09 1.0837e-09)
(0.221043 6.5765e-09 -2.67564e-09)
(0.221044 -1.05342e-09 1.59188e-09)
(0.225701 -8.20401e-09 1.11273e-09)
(0.225702 1.02434e-08 -2.27019e-09)
(0.225704 -2.00853e-09 1.15726e-09)
(0.229733 -9.13786e-09 1.19689e-09)
(0.229734 1.16561e-08 -1.85292e-09)
(0.229735 -2.46736e-09 6.55809e-10)
(0.232938 -7.68344e-09 1.24417e-09)
(0.232938 1.03425e-08 -1.52564e-09)
(0.23294 -2.61125e-09 2.81488e-10)
(0.235175 -5.17417e-09 1.25994e-09)
(0.235176 7.09241e-09 -1.29496e-09)
(0.235177 -1.86803e-09 3.50096e-11)
(0.236379 -1.98853e-09 1.25393e-09)
(0.236379 2.63173e-09 -1.15748e-09)
(0.23638 -6.02084e-10 -9.66522e-11)
(0.236379 1.93653e-09 1.25538e-09)
(0.236379 -2.51703e-09 -1.15799e-09)
(0.23638 6.65359e-10 -9.76333e-11)
(0.235176 5.15928e-09 1.25899e-09)
(0.235176 -6.97771e-09 -1.29499e-09)
(0.235178 1.89649e-09 3.64526e-11)
(0.232939 7.62236e-09 1.24273e-09)
(0.232939 -1.02463e-08 -1.52144e-09)
(0.232941 2.66068e-09 2.80233e-10)
(0.229734 9.00543e-09 1.1928e-09)
(0.229735 -1.15698e-08 -1.84997e-09)
(0.229737 2.57506e-09 6.48845e-10)
(0.225703 8.18539e-09 1.11517e-09)
(0.225705 -1.04123e-08 -2.26443e-09)
(0.225706 2.24065e-09 1.15925e-09)
(0.221042 5.38455e-09 1.08329e-09)
(0.221044 -6.28589e-09 -2.68248e-09)
(0.221046 9.39662e-10 1.59728e-09)
(0.215894 1.88832e-09 1.16669e-09)
(0.215896 -1.75814e-09 -3.00197e-09)
(0.215897 -1.12641e-10 1.83507e-09)
(0.210283 -1.2212e-09 1.27995e-09)
(0.210285 1.51085e-09 -3.24505e-09)
(0.210287 -2.71693e-10 1.96505e-09)
(0.204118 -3.08386e-09 1.32159e-09)
(0.204121 3.07642e-09 -3.34371e-09)
(0.204123 2.32453e-11 2.02208e-09)
(0.197181 -2.89136e-09 1.30951e-09)
(0.197184 -1.02487e-10 -3.4086e-09)
(0.197186 3.01517e-09 2.09865e-09)
(0.189095 -3.61651e-09 1.20214e-09)
(0.189098 -1.99874e-09 -3.40664e-09)
(0.189099 5.64157e-09 2.20425e-09)
(0.179208 -4.06371e-09 9.97649e-10)
(0.179211 -3.75732e-09 -3.4555e-09)
(0.179212 7.84906e-09 2.45796e-09)
(0.166298 -6.86524e-09 7.14152e-10)
(0.1663 8.26463e-09 -3.00171e-09)
(0.166301 -1.37688e-09 2.28809e-09)
(0.147359 -5.2367e-09 4.53202e-10)
(0.147361 6.72716e-09 -1.86507e-09)
(0.147362 -1.4823e-09 1.41272e-09)
(0.0782286 -7.93135e-10 2.17194e-10)
(0.0782291 -1.49465e-09 -7.44632e-10)
(0.0782297 2.28878e-09 5.27768e-10)
(0.0864714 7.47301e-10 2.93754e-10)
(0.086472 1.72777e-09 -1.05532e-09)
(0.0864726 -2.55811e-09 7.6715e-10)
(0.161686 5.45965e-09 6.38563e-10)
(0.161688 -6.63653e-09 -2.62784e-09)
(0.161689 1.23376e-09 1.9753e-09)
(0.182496 7.16825e-09 1.06783e-09)
(0.182498 -8.33304e-09 -4.29903e-09)
(0.182499 1.19923e-09 3.23513e-09)
(0.196218 4.19948e-09 1.48564e-09)
(0.196221 4.14065e-09 -5.00795e-09)
(0.196222 -8.28036e-09 3.52176e-09)
(0.206668 3.58052e-09 1.78166e-09)
(0.206671 2.57286e-09 -4.90654e-09)
(0.206673 -6.09889e-09 3.12457e-09)
(0.215203 2.70643e-09 1.93484e-09)
(0.215206 7.13047e-10 -4.90922e-09)
(0.215208 -3.34844e-09 2.97391e-09)
(0.222522 2.97281e-09 1.93783e-09)
(0.222525 -2.54265e-09 -4.79775e-09)
(0.222527 -3.64253e-10 2.86046e-09)
(0.229025 1.04186e-09 1.8859e-09)
(0.229027 -1.04388e-09 -4.67215e-09)
(0.229029 5.65283e-11 2.78703e-09)
(0.234942 -2.42156e-09 1.72321e-09)
(0.234944 2.59162e-09 -4.32227e-09)
(0.234946 -1.35705e-10 2.59949e-09)
(0.240372 -5.90482e-09 1.59228e-09)
(0.240374 7.08593e-09 -3.8602e-09)
(0.240375 -1.15067e-09 2.26787e-09)
(0.245284 -8.75886e-09 1.61732e-09)
(0.245286 1.09098e-08 -3.29998e-09)
(0.245287 -2.11779e-09 1.68236e-09)
(0.249533 -9.73016e-09 1.71944e-09)
(0.249534 1.2363e-08 -2.72917e-09)
(0.249535 -2.57837e-09 1.00943e-09)
(0.252908 -8.19516e-09 1.77363e-09)
(0.252909 1.10022e-08 -2.28857e-09)
(0.25291 -2.75588e-09 5.14975e-10)
(0.255265 -5.51477e-09 1.78619e-09)
(0.255265 7.55278e-09 -1.97775e-09)
(0.255267 -1.98418e-09 1.91573e-10)
(0.256532 -2.11495e-09 1.7714e-09)
(0.256533 2.7989e-09 -1.78953e-09)
(0.256534 -6.39922e-10 1.78301e-11)
(0.256532 2.06213e-09 1.77352e-09)
(0.256533 -2.67853e-09 -1.79033e-09)
(0.256535 7.07483e-10 1.64409e-11)
(0.255265 5.50059e-09 1.78477e-09)
(0.255266 -7.43029e-09 -1.97794e-09)
(0.255267 2.01479e-09 1.93797e-10)
(0.252909 8.13447e-09 1.77158e-09)
(0.25291 -1.08993e-08 -2.28252e-09)
(0.252911 2.80841e-09 5.13167e-10)
(0.249534 9.58811e-09 1.71422e-09)
(0.249535 -1.22814e-08 -2.72415e-09)
(0.249537 2.69591e-09 1.00088e-09)
(0.245287 8.73749e-09 1.61981e-09)
(0.245288 -1.10923e-08 -3.29306e-09)
(0.24529 2.36215e-09 1.6841e-09)
(0.240374 5.79322e-09 1.59204e-09)
(0.240376 -6.77482e-09 -3.8706e-09)
(0.240377 1.03019e-09 2.276e-09)
(0.234944 2.10377e-09 1.71952e-09)
(0.234946 -2.04828e-09 -4.31503e-09)
(0.234948 -3.36367e-11 2.59551e-09)
(0.229025 -1.16433e-09 1.88389e-09)
(0.229028 1.3306e-09 -4.65627e-09)
(0.22903 -1.46831e-10 2.77243e-09)
(0.222521 -3.12522e-09 1.9439e-09)
(0.222524 2.90245e-09 -4.79383e-09)
(0.222526 2.38953e-10 2.84989e-09)
(0.215202 -2.92495e-09 1.93108e-09)
(0.215204 -4.91058e-10 -4.89339e-09)
(0.215206 3.4384e-09 2.96176e-09)
(0.206666 -3.71868e-09 1.77761e-09)
(0.206669 -2.46182e-09 -4.89811e-09)
(0.206671 6.20896e-09 3.12019e-09)
(0.196215 -4.26544e-09 1.47916e-09)
(0.196218 -4.11133e-09 -5.00146e-09)
(0.196219 8.40705e-09 3.52252e-09)
(0.182491 -7.25772e-09 1.0496e-09)
(0.182493 8.43761e-09 -4.28761e-09)
(0.182494 -1.15521e-09 3.23891e-09)
(0.161682 -5.50539e-09 6.43084e-10)
(0.161683 6.69303e-09 -2.62567e-09)
(0.161684 -1.17742e-09 1.98391e-09)
(0.0864682 -8.49879e-10 2.79321e-10)
(0.0864688 -1.58944e-09 -1.03431e-09)
(0.0864694 2.4404e-09 7.55531e-10)
(0.0947319 8.00831e-10 3.70152e-10)
(0.0947325 1.78523e-09 -1.40572e-09)
(0.0947332 -2.66648e-09 1.04116e-09)
(0.172195 5.56728e-09 8.43163e-10)
(0.172197 -6.39892e-09 -3.40784e-09)
(0.172198 8.6175e-10 2.5474e-09)
(0.19477 7.38468e-09 1.44831e-09)
(0.194772 -8.27843e-09 -5.68747e-09)
(0.194773 9.22982e-10 4.24289e-09)
(0.209256 4.32191e-09 2.03829e-09)
(0.209259 4.40739e-09 -6.73122e-09)
(0.20926 -8.67105e-09 4.69197e-09)
(0.220205 3.60475e-09 2.4458e-09)
(0.220208 3.01878e-09 -6.58771e-09)
(0.22021 -6.56743e-09 4.14142e-09)
(0.229129 2.66734e-09 2.65667e-09)
(0.229132 1.13156e-09 -6.59259e-09)
(0.229134 -3.72351e-09 3.93526e-09)
(0.236775 2.92973e-09 2.65861e-09)
(0.236777 -2.27028e-09 -6.4444e-09)
(0.236779 -5.88938e-10 3.78654e-09)
(0.243565 9.40499e-10 2.58987e-09)
(0.243568 -7.89078e-10 -6.28341e-09)
(0.243569 -9.41222e-11 3.69465e-09)
(0.249743 -2.61828e-09 2.37254e-09)
(0.249745 2.9001e-09 -5.82908e-09)
(0.249747 -2.46124e-10 3.45718e-09)
(0.25541 -6.21124e-09 2.19067e-09)
(0.255412 7.48705e-09 -5.22948e-09)
(0.255413 -1.24375e-09 3.03878e-09)
(0.260534 -9.15329e-09 2.20464e-09)
(0.260536 1.13927e-08 -4.51028e-09)
(0.260537 -2.20431e-09 2.30521e-09)
(0.264964 -1.01424e-08 2.31973e-09)
(0.264965 1.28568e-08 -3.78305e-09)
(0.264967 -2.65711e-09 1.46291e-09)
(0.268482 -8.55646e-09 2.377e-09)
(0.268483 1.14638e-08 -3.22883e-09)
(0.268485 -2.85356e-09 8.5188e-10)
(0.270939 -5.75835e-09 2.38345e-09)
(0.27094 7.88476e-09 -2.83727e-09)
(0.270942 -2.06973e-09 4.53858e-10)
(0.272261 -2.20389e-09 2.35781e-09)
(0.272262 2.91896e-09 -2.59511e-09)
(0.272264 -6.68775e-10 2.36878e-10)
(0.272261 2.15087e-09 2.36073e-09)
(0.272262 -2.79466e-09 -2.59626e-09)
(0.272264 7.3976e-10 2.3502e-10)
(0.27094 5.74456e-09 2.38144e-09)
(0.27094 -7.75633e-09 -2.83771e-09)
(0.270942 2.102e-09 4.57064e-10)
(0.268483 8.49608e-09 2.37422e-09)
(0.268484 -1.13568e-08 -3.22067e-09)
(0.268486 2.90815e-09 8.49471e-10)
(0.264965 9.99506e-09 2.31337e-09)
(0.264967 -1.27782e-08 -3.77554e-09)
(0.264968 2.78256e-09 1.45283e-09)
(0.260537 9.13074e-09 2.20695e-09)
(0.260538 -1.15828e-08 -4.50245e-09)
(0.26054 2.45699e-09 2.30664e-09)
(0.255412 6.09869e-09 2.19066e-09)
(0.255414 -7.1648e-09 -5.24413e-09)
(0.255415 1.12032e-09 3.05018e-09)
(0.249745 2.29093e-09 2.36756e-09)
(0.249747 -2.33236e-09 -5.81916e-09)
(0.249749 6.59812e-11 3.45185e-09)
(0.243566 -1.06843e-09 2.58696e-09)
(0.243568 1.08518e-09 -6.26279e-09)
(0.24357 3.84859e-12 3.676e-09)
(0.236774 -3.0882e-09 2.66623e-09)
(0.236776 2.6257e-09 -6.4388e-09)
(0.236778 4.79098e-10 3.77253e-09)
(0.229127 -2.8921e-09 2.65239e-09)
(0.22913 -9.0992e-10 -6.57215e-09)
(0.229132 3.82526e-09 3.91904e-09)
(0.220203 -3.74873e-09 2.4406e-09)
(0.220206 -2.9001e-09 -6.57663e-09)
(0.220208 6.67887e-09 4.13561e-09)
(0.209252 -4.39641e-09 2.02978e-09)
(0.209255 -4.36602e-09 -6.72335e-09)
(0.209257 8.79428e-09 4.69389e-09)
(0.194764 -7.48613e-09 1.42534e-09)
(0.194766 8.40037e-09 -5.67291e-09)
(0.194767 -8.88018e-10 4.24887e-09)
(0.17219 -5.6452e-09 8.47533e-10)
(0.172192 6.49394e-09 -3.4032e-09)
(0.172193 -8.36677e-10 2.55756e-09)
(0.0947285 -9.03093e-10 3.5199e-10)
(0.0947291 -1.6502e-09 -1.37779e-09)
(0.0947297 2.55446e-09 1.02667e-09)
(0.10308 8.56752e-10 4.6635e-10)
(0.10308 1.79494e-09 -1.83026e-09)
(0.103081 -2.72621e-09 1.37194e-09)
(0.180463 5.61384e-09 1.06222e-09)
(0.180465 -6.09725e-09 -4.18588e-09)
(0.180466 4.93758e-10 3.10314e-09)
(0.204668 7.50926e-09 1.86594e-09)
(0.20467 -8.10908e-09 -7.13933e-09)
(0.204671 6.25248e-10 5.27633e-09)
(0.219904 4.41262e-09 2.65431e-09)
(0.219906 4.60404e-09 -8.60367e-09)
(0.219908 -8.95935e-09 5.94783e-09)
(0.231319 3.59204e-09 3.19375e-09)
(0.231322 3.4532e-09 -8.44595e-09)
(0.231324 -6.98746e-09 5.2514e-09)
(0.240593 2.58956e-09 3.47366e-09)
(0.240596 1.58095e-09 -8.46354e-09)
(0.240598 -4.09167e-09 4.98898e-09)
(0.24853 2.83549e-09 3.47445e-09)
(0.248532 -1.91894e-09 -8.28018e-09)
(0.248534 -8.42441e-10 4.80672e-09)
(0.255574 8.11113e-10 3.38877e-09)
(0.255577 -4.82605e-10 -8.08654e-09)
(0.255578 -2.68814e-10 4.69926e-09)
(0.26198 -2.79821e-09 3.11564e-09)
(0.261982 3.20751e-09 -7.52766e-09)
(0.261984 -3.72132e-10 4.41291e-09)
(0.267853 -6.45649e-09 2.87979e-09)
(0.267855 7.8313e-09 -6.78747e-09)
(0.267857 -1.34116e-09 3.90766e-09)
(0.273161 -9.45014e-09 2.87558e-09)
(0.273163 1.17706e-08 -5.91007e-09)
(0.273165 -2.2835e-09 3.03391e-09)
(0.277748 -1.04435e-08 2.99742e-09)
(0.27775 1.32254e-08 -5.0285e-09)
(0.277751 -2.72208e-09 2.03056e-09)
(0.281391 -8.82493e-09 3.05373e-09)
(0.281392 1.18071e-08 -4.3641e-09)
(0.281394 -2.92596e-09 1.31044e-09)
(0.283934 -5.94211e-09 3.0546e-09)
(0.283936 8.13203e-09 -3.89135e-09)
(0.283937 -2.13083e-09 8.36805e-10)
(0.285304 -2.26957e-09 3.01438e-09)
(0.285305 3.00786e-09 -3.59328e-09)
(0.285306 -6.90047e-10 5.7834e-10)
(0.285304 2.21665e-09 3.01826e-09)
(0.285305 -2.8806e-09 -3.59491e-09)
(0.285306 7.641e-10 5.75967e-10)
(0.283935 5.92842e-09 3.05188e-09)
(0.283936 -7.99882e-09 -3.8921e-09)
(0.283938 2.16478e-09 8.41227e-10)
(0.281391 8.76474e-09 3.05005e-09)
(0.281393 -1.16973e-08 -4.35358e-09)
(0.281394 2.9823e-09 1.3074e-09)
(0.27775 1.02936e-08 2.9897e-09)
(0.277751 -1.31484e-08 -5.01827e-09)
(0.277753 2.85362e-09 2.01885e-09)
(0.273164 9.42722e-09 2.87767e-09)
(0.273166 -1.19644e-08 -5.90133e-09)
(0.273167 2.54174e-09 3.03512e-09)
(0.267855 6.34354e-09 2.88011e-09)
(0.267857 -7.50434e-09 -6.8071e-09)
(0.267858 1.21832e-09 3.92295e-09)
(0.261982 2.46499e-09 3.10925e-09)
(0.261984 -2.62483e-09 -7.5148e-09)
(0.261986 1.86321e-10 4.4061e-09)
(0.255575 -9.4324e-10 3.38482e-09)
(0.255577 7.8559e-10 -8.06049e-09)
(0.255579 1.79345e-10 4.67599e-09)
(0.248529 -2.99841e-09 3.48375e-09)
(0.248531 2.27053e-09 -8.27268e-09)
(0.248533 7.45107e-10 4.78888e-09)
(0.240591 -2.81794e-09 3.46889e-09)
(0.240594 -1.36001e-09 -8.43885e-09)
(0.240596 4.20204e-09 4.96904e-09)
(0.231316 -3.73961e-09 3.18748e-09)
(0.231319 -3.32917e-09 -8.43232e-09)
(0.231321 7.10009e-09 5.24429e-09)
(0.2199 -4.49387e-09 2.64367e-09)
(0.219903 -4.55265e-09 -8.59457e-09)
(0.219904 9.0795e-09 5.95132e-09)
(0.204662 -7.61975e-09 1.83824e-09)
(0.204664 8.24421e-09 -7.12181e-09)
(0.204665 -5.97133e-10 5.28531e-09)
(0.180458 -5.71556e-09 1.06567e-09)
(0.180459 6.2214e-09 -4.17797e-09)
(0.18046 -4.92171e-10 3.11486e-09)
(0.103076 -9.55642e-10 4.41467e-10)
(0.103077 -1.66776e-09 -1.79288e-09)
(0.103077 2.62471e-09 1.35268e-09)
(0.111543 9.1766e-10 5.84594e-10)
(0.111543 1.74636e-09 -2.34096e-09)
(0.111544 -2.72973e-09 1.76705e-09)
(0.187324 5.62944e-09 1.29492e-09)
(0.187325 -5.78439e-09 -4.94764e-09)
(0.187326 1.52647e-10 3.62907e-09)
(0.212982 7.57866e-09 2.31775e-09)
(0.212983 -7.87822e-09 -8.61891e-09)
(0.212984 3.22908e-10 6.30279e-09)
(0.228969 4.49094e-09 3.33226e-09)
(0.228972 4.74244e-09 -1.05989e-08)
(0.228973 -9.17615e-09 7.26437e-09)
(0.240836 3.55892e-09 4.02319e-09)
(0.240838 3.88403e-09 -1.04686e-08)
(0.24084 -7.38323e-09 6.4442e-09)
(0.250439 2.48465e-09 4.38499e-09)
(0.250442 2.0646e-09 -1.05155e-08)
(0.250444 -4.46757e-09 6.12928e-09)
(0.258642 2.70154e-09 4.38461e-09)
(0.258645 -1.49714e-09 -1.03035e-08)
(0.258647 -1.1274e-09 5.92015e-09)
(0.265917 6.57137e-10 4.28181e-09)
(0.265919 -1.26587e-10 -1.00825e-08)
(0.265921 -4.6867e-10 5.80258e-09)
(0.272527 -2.97093e-09 3.95087e-09)
(0.272529 3.52528e-09 -9.42157e-09)
(0.272531 -5.15498e-10 5.47186e-09)
(0.278585 -6.66291e-09 3.66101e-09)
(0.278587 8.14596e-09 -8.54152e-09)
(0.278589 -1.44772e-09 4.88048e-09)
(0.284057 -9.68192e-09 3.63262e-09)
(0.284059 1.20838e-08 -7.5104e-09)
(0.284061 -2.36323e-09 3.87702e-09)
(0.288784 -1.06692e-08 3.75458e-09)
(0.288785 1.35138e-08 -6.48043e-09)
(0.288787 -2.78256e-09 2.72519e-09)
(0.292536 -9.03023e-09 3.8087e-09)
(0.292538 1.20734e-08 -5.71193e-09)
(0.292539 -2.98481e-09 1.90331e-09)
(0.295158 -6.08534e-09 3.80237e-09)
(0.295159 8.32404e-09 -5.15898e-09)
(0.295161 -2.17742e-09 1.3567e-09)
(0.296569 -2.31936e-09 3.74527e-09)
(0.29657 3.07485e-09 -4.80234e-09)
(0.296572 -7.05493e-10 1.05634e-09)
(0.296569 2.26665e-09 3.75029e-09)
(0.29657 -2.94518e-09 -4.80455e-09)
(0.296572 7.82432e-10 1.05338e-09)
(0.295158 6.07149e-09 3.79881e-09)
(0.295159 -8.18668e-09 -5.16014e-09)
(0.295161 2.21316e-09 1.36258e-09)
(0.292537 8.97012e-09 3.80399e-09)
(0.292539 -1.19617e-08 -5.6988e-09)
(0.29254 3.04286e-09 1.89964e-09)
(0.288785 1.05181e-08 3.74536e-09)
(0.288787 -1.34372e-08 -6.46723e-09)
(0.288789 2.91863e-09 2.71181e-09)
(0.28406 9.659e-09 3.63447e-09)
(0.284062 -1.22785e-08 -7.50082e-09)
(0.284063 2.62495e-09 3.87808e-09)
(0.278587 6.55011e-09 3.66174e-09)
(0.278589 -7.81925e-09 -8.5668e-09)
(0.27859 1.32873e-09 4.90022e-09)
(0.272529 2.63448e-09 3.94295e-09)
(0.272531 -2.9348e-09 -9.40548e-09)
(0.272533 3.28335e-10 5.4634e-09)
(0.265917 -7.92627e-10 4.27661e-09)
(0.26592 4.35e-10 -1.00503e-08)
(0.265921 3.80489e-10 5.77415e-09)
(0.258641 -2.86793e-09 4.39594e-09)
(0.258644 1.84648e-09 -1.02939e-08)
(0.258645 1.03956e-09 5.89787e-09)
(0.250437 -2.71491e-09 4.37969e-09)
(0.250439 -1.84395e-09 -1.04871e-08)
(0.250441 4.58389e-09 6.10625e-09)
(0.240833 -3.70842e-09 4.01508e-09)
(0.240835 -3.75644e-09 -1.04526e-08)
(0.240837 7.49723e-09 6.43683e-09)
(0.228965 -4.57739e-09 3.31953e-09)
(0.228968 -4.68296e-09 -1.05887e-08)
(0.228969 9.29416e-09 7.26972e-09)
(0.212975 -7.6955e-09 2.28512e-09)
(0.212977 8.02258e-09 -8.59858e-09)
(0.212978 -2.98999e-10 6.31566e-09)
(0.187318 -5.74711e-09 1.29634e-09)
(0.187319 5.92813e-09 -4.93562e-09)
(0.18732 -1.65936e-10 3.64258e-09)
(0.111539 -1.0106e-09 5.5209e-10)
(0.111539 -1.63079e-09 -2.29273e-09)
(0.11154 2.64294e-09 1.7424e-09)
(0.120121 9.86682e-10 7.28688e-10)
(0.120122 1.6273e-09 -2.94832e-09)
(0.120122 -2.66841e-09 2.2332e-09)
(0.193268 5.63102e-09 1.54074e-09)
(0.193269 -5.49646e-09 -5.68443e-09)
(0.19327 -1.43212e-10 4.11709e-09)
(0.220167 7.61592e-09 2.8029e-09)
(0.220168 -7.62529e-09 -1.0092e-08)
(0.220169 3.23748e-11 7.28897e-09)
(0.236912 4.56912e-09 4.07303e-09)
(0.236914 4.82369e-09 -1.26877e-08)
(0.236915 -9.33474e-09 8.61143e-09)
(0.249228 3.51568e-09 4.93558e-09)
(0.24923 4.31383e-09 -1.26418e-08)
(0.249232 -7.76751e-09 7.70451e-09)
(0.259149 2.35911e-09 5.39001e-09)
(0.259151 2.58538e-09 -1.27418e-08)
(0.259153 -4.86041e-09 7.35019e-09)
(0.267603 2.5336e-09 5.38856e-09)
(0.267606 -1.00789e-09 -1.25098e-08)
(0.267608 -1.44637e-09 7.12277e-09)
(0.275092 4.7956e-10 5.26817e-09)
(0.275094 2.79779e-10 -1.22694e-08)
(0.275096 -6.9538e-10 7.00368e-09)
(0.281891 -3.1425e-09 4.87837e-09)
(0.281893 3.86153e-09 -1.15132e-08)
(0.281894 -6.78231e-10 6.6363e-09)
(0.288117 -6.84366e-09 4.53476e-09)
(0.288119 8.44754e-09 -1.04976e-08)
(0.288121 -1.56674e-09 5.9628e-09)
(0.293739 -9.86741e-09 4.47859e-09)
(0.29374 1.2356e-08 -9.32114e-09)
(0.293742 -2.44816e-09 4.84158e-09)
(0.298592 -1.08396e-08 4.59582e-09)
(0.298593 1.37477e-08 -8.1521e-09)
(0.298595 -2.84394e-09 3.55545e-09)
(0.302444 -9.18935e-09 4.64773e-09)
(0.302446 1.22867e-08 -7.28813e-09)
(0.302447 -3.03685e-09 2.64048e-09)
(0.305136 -6.19924e-09 4.6347e-09)
(0.305137 8.47775e-09 -6.65634e-09)
(0.305139 -2.21519e-09 2.02176e-09)
(0.306585 -2.35753e-09 4.55678e-09)
(0.306587 3.12634e-09 -6.23907e-09)
(0.306588 -7.17178e-10 1.68136e-09)
(0.306585 2.30507e-09 4.56311e-09)
(0.306587 -2.99457e-09 -6.24199e-09)
(0.306588 7.96928e-10 1.67776e-09)
(0.305136 6.18497e-09 4.63019e-09)
(0.305137 -8.33663e-09 -6.65799e-09)
(0.305139 2.25286e-09 2.02935e-09)
(0.302445 9.12924e-09 4.64183e-09)
(0.302447 -1.21737e-08 -7.27214e-09)
(0.302448 3.09672e-09 2.63616e-09)
(0.298593 1.06885e-08 4.58486e-09)
(0.298595 -1.36704e-08 -8.13575e-09)
(0.298597 2.98318e-09 3.54029e-09)
(0.293741 9.84465e-09 4.48027e-09)
(0.293743 -1.25491e-08 -9.31068e-09)
(0.293745 2.71166e-09 4.84259e-09)
(0.288119 6.73154e-09 4.536e-09)
(0.288121 -8.12521e-09 -1.05293e-08)
(0.288123 1.45467e-09 5.98761e-09)
(0.281893 2.80491e-09 4.86882e-09)
(0.281895 -3.26892e-09 -1.14937e-08)
(0.281896 4.93374e-10 6.62607e-09)
(0.275092 -6.17816e-10 5.26189e-09)
(0.275094 3.31135e-11 -1.22304e-08)
(0.275096 6.08846e-10 6.9692e-09)
(0.267602 -2.70281e-09 5.40214e-09)
(0.267605 1.35675e-09 -1.24979e-08)
(0.267607 1.36535e-09 7.09568e-09)
(0.259146 -2.59004e-09 5.38398e-09)
(0.259149 -2.36435e-09 -1.271e-08)
(0.259151 4.98049e-09 7.32458e-09)
(0.249225 -3.66583e-09 4.9243e-09)
(0.249227 -4.18409e-09 -1.26237e-08)
(0.249229 7.88324e-09 7.69855e-09)
(0.236908 -4.65942e-09 4.05837e-09)
(0.23691 -4.75782e-09 -1.26765e-08)
(0.236911 9.45165e-09 8.61875e-09)
(0.22016 -7.73678e-09 2.76489e-09)
(0.220162 7.77533e-09 -1.00689e-08)
(0.220162 -9.97948e-12 7.30672e-09)
(0.193262 -5.75795e-09 1.53871e-09)
(0.193263 5.65109e-09 -5.66735e-09)
(0.193264 1.23183e-10 4.13279e-09)
(0.120117 -1.0715e-09 6.87538e-10)
(0.120118 -1.5263e-09 -2.88795e-09)
(0.120118 2.59975e-09 2.20279e-09)
(0.128794 1.06752e-09 9.01718e-10)
(0.128795 1.42481e-09 -3.66017e-09)
(0.128796 -2.53339e-09 2.77472e-09)
(0.198612 5.62995e-09 1.80099e-09)
(0.198613 -5.26254e-09 -6.39092e-09)
(0.198614 -3.7709e-10 4.56059e-09)
(0.226514 7.63726e-09 3.31644e-09)
(0.226515 -7.38532e-09 -1.15266e-08)
(0.226516 -2.27563e-10 8.20793e-09)
(0.244014 4.6558e-09 4.87184e-09)
(0.244016 4.84091e-09 -1.48347e-08)