/*--------------------------------*- C++ -*----------------------------------*\
  =========                 |
  \\      /  F ield         | OpenFOAM: The Open Source CFD Toolbox
   \\    /   O peration     | Website:  https://openfoam.org
    \\  /    A nd           | Version:  6
     \\/     M anipulation  |
\*---------------------------------------------------------------------------*/
FoamFile
{
    version     2.0;
    format      ascii;
    class       volScalarField;
    location    "1.8";
    object      omega;
}
// * * * * * * * * * * * * * * * * * * * * * * * * * * * * * * * * * * * * * //

dimensions      [0 0 -1 0 0 0 0];

internalField   nonuniform List<scalar> 
380496
(
843.917
843.917
843.917
843.917
843.917
843.917
843.917
843.917
843.917
843.917
843.917
843.917
843.917
843.917
843.917
843.917
843.917
843.917
843.917
843.917
843.917
843.917
843.917
843.917
843.917
843.917
843.917
843.917
843.917
843.917
843.917
843.917
843.917
843.917
843.917
843.917
843.917
843.917
843.917
843.917
843.917
843.917
843.917
843.917
843.917
843.917
843.917
843.917
843.917
843.917
843.917
843.917
843.917
843.917
843.917
843.917
843.917
843.917
843.917
843.917
843.917
843.917
843.917
843.917
843.917
843.917
843.917
843.917
843.917
843.917
843.917
843.917
843.917
843.917
843.917
843.917
843.917
843.917
843.917
843.917
843.917
843.917
843.917
843.917
843.917
843.917
843.917
843.917
843.917
843.917
843.917
843.917
843.917
843.917
843.917
843.917
843.917
843.917
843.917
843.917
843.917
843.917
843.917
843.917
843.917
843.917
843.917
843.917
843.917
843.917
843.917
843.917
843.917
843.917
843.917
843.917
843.917
843.917
843.917
843.917
843.917
843.917
843.917
843.917
843.917
843.917
843.917
843.917
843.917
843.917
843.917
843.917
843.917
843.917
843.917
843.917
843.917
843.917
843.917
843.917
843.917
843.917
843.917
843.917
843.917
843.917
843.917
843.917
843.917
843.917
843.917
843.917
843.917
843.917
843.917
843.917
843.917
843.917
843.917
843.917
843.917
843.917
843.917
843.917
843.917
843.917
843.917
843.917
843.917
843.917
843.917
843.917
843.917
843.917
843.917
843.917
843.917
843.917
843.917
843.917
843.917
843.917
843.917
843.917
843.917
843.917
843.917
843.917
843.917
843.917
843.917
843.917
843.917
843.917
843.917
843.917
843.917
843.917
843.917
843.917
843.917
843.917
843.917
843.917
843.917
843.917
843.917
843.917
843.917
843.917
843.917
843.917
843.917
843.917
843.917
843.917
843.917
843.917
843.917
843.917
843.917
843.917
843.917
843.917
843.917
843.917
843.917
843.917
843.917
843.917
843.917
843.917
843.917
843.917
843.917
843.917
843.917
843.917
843.917
843.917
843.917
843.917
843.917
843.917
843.917
843.917
843.917
843.917
843.917
843.917
843.917
843.917
843.917
843.917
843.917
843.917
843.917
843.917
843.917
843.917
843.917
843.917
843.917
843.917
843.917
843.917
843.917
843.917
843.917
843.917
843.917
843.917
843.917
843.917
843.917
843.917
843.917
843.917
843.917
843.917
843.917
843.917
843.917
843.917
843.917
843.917
843.917
843.917
843.917
843.917
843.917
843.917
843.917
843.917
843.917
843.917
843.917
843.917
843.917
843.917
843.917
843.917
843.917
843.917
843.917
843.917
843.917
843.917
843.917
843.917
843.917
843.917
843.917
843.917
843.917
843.917
843.917
843.917
843.917
843.917
843.917
843.917
843.917
843.917
843.917
843.917
843.917
843.917
843.917
843.917
843.917
843.917
843.917
843.917
843.917
843.917
843.917
843.917
843.917
843.917
843.917
843.917
843.917
843.917
843.917
843.917
843.917
843.917
843.917
843.917
843.917
843.917
843.917
843.917
843.917
843.917
843.917
843.917
843.917
843.917
843.917
843.917
843.917
843.917
843.917
843.917
843.917
843.917
843.917
843.917
843.917
843.917
843.917
843.917
843.917
843.917
843.917
843.917
843.917
843.917
843.917
843.917
843.917
843.917
843.917
843.917
843.917
843.917
843.917
843.917
843.917
843.917
843.917
843.917
843.917
843.917
843.917
843.917
843.917
843.917
843.917
843.917
843.917
843.917
843.917
843.917
843.917
843.917
843.917
843.917
843.917
843.917
843.917
843.917
843.917
843.917
843.917
843.917
843.917
843.917
843.917
843.917
843.917
843.917
843.917
843.917
843.917
843.917
843.917
843.917
843.917
843.917
843.917
843.917
843.917
843.917
843.917
843.917
843.917
843.917
843.917
843.917
843.917
843.917
843.917
843.917
843.917
843.917
843.917
843.917
843.917
843.917
843.917
843.917
843.917
843.917
843.917
843.917
843.917
843.917
843.917
843.917
843.917
843.917
843.917
843.917
843.917
843.917
843.917
843.917
843.917
843.917
843.917
843.917
843.917
843.917
843.917
843.917
843.917
843.917
843.917
843.917
843.917
843.917
843.917
843.917
843.917
843.917
843.917
843.917
843.917
843.917
843.917
843.917
843.917
843.917
843.917
843.917
843.917
843.917
843.917
843.917
843.917
843.917
843.917
843.917
843.917
843.917
843.917
843.917
843.917
843.917
843.917
843.917
843.917
843.917
843.917
843.917
843.917
843.917
843.917
843.917
843.917
843.917
843.917
843.917
843.917
843.917
843.917
843.917
843.917
843.917
843.917
843.917
843.917
843.917
843.917
843.917
843.917
843.917
843.917
843.917
843.917
843.917
843.917
843.917
843.917
843.917
843.917
843.917
843.917
843.917
843.917
843.917
843.917
843.917
843.917
843.917
843.917
843.917
843.917
843.917
843.917
843.917
843.917
843.917
843.917
843.917
843.917
843.917
843.917
843.917
843.917
843.917
843.917
843.917
843.917
843.917
843.917
843.917
843.917
843.917
843.917
843.917
843.917
843.917
843.917
843.917
843.917
843.917
843.917
843.917
843.917
843.917
843.917
843.917
843.917
843.917
843.917
843.917
843.917
843.917
843.917
843.917
843.917
843.917
843.917
843.917
843.917
843.917
843.917
843.917
843.917
843.917
843.917
843.917
843.917
843.917
843.917
843.917
843.917
843.917
843.917
843.917
843.917
843.917
843.917
843.917
843.917
843.917
843.917
843.917
843.917
843.917
843.917
843.917
843.917
843.917
843.917
843.917
843.917
843.917
843.917
843.917
843.917
843.917
843.917
843.917
843.917
843.917
843.917
843.917
843.917
843.917
843.917
843.917
843.917
843.917
843.917
843.917
843.917
843.917
843.917
843.917
843.917
843.917
843.917
843.917
843.917
843.917
843.917
843.917
843.917
843.917
843.917
843.917
843.917
843.917
843.917
843.917
843.917
843.917
843.917
843.917
843.917
843.917
843.917
843.917
843.917
843.917
843.917
843.917
843.917
843.917
843.917
843.917
843.917
843.917
843.917
843.917
423.923
423.923
423.923
423.923
423.923
423.923
423.923
423.923
423.923
423.923
423.923
423.923
423.923
423.923
423.923
423.923
423.923
423.923
423.923
423.923
423.923
423.923
423.923
423.923
423.923
423.923
423.923
423.923
423.923
423.923
423.923
423.923
423.923
423.923
423.923
281.628
267.571
268.731
269.851
270.003
269.876
269.797
269.742
269.662
269.574
269.494
269.433
269.4
269.397
269.417
269.456
269.5
269.544
269.576
269.6
269.619
269.638
269.664
269.691
269.73
269.768
269.812
269.86
269.906
269.962
270.009
270.079
270.119
270.207
270.216
281.468
267.555
268.647
269.711
269.812
269.644
269.514
269.43
269.364
269.317
269.289
269.274
269.272
269.286
269.316
269.362
269.413
269.466
269.504
269.542
269.554
269.595
269.591
269.65
269.651
269.722
269.736
269.818
269.837
269.928
269.949
270.052
270.053
270.209
270.088
281.135
267.384
268.466
269.475
269.56
269.424
269.338
269.26
269.143
269.007
268.887
268.803
268.766
268.775
268.819
268.885
268.955
269.025
269.08
269.139
269.183
269.253
269.295
269.387
269.43
269.53
269.576
269.681
269.729
269.846
269.894
270.032
270.063
270.252
270.177
280.568
267.006
268.169
269.136
269.166
268.962
268.831
268.735
268.628
268.534
268.472
268.445
268.456
268.5
268.572
268.662
268.756
268.844
268.915
268.976
269.026
269.08
269.128
269.199
269.255
269.339
269.409
269.498
269.577
269.678
269.756
269.872
269.936
270.089
270.067
280.15
266.765
267.798
268.688
268.677
268.463
268.315
268.227
268.167
268.14
268.15
268.189
268.249
268.327
268.419
268.521
268.622
268.719
268.801
268.871
268.932
268.986
269.041
269.106
269.166
269.256
269.327
269.439
269.517
269.648
269.721
269.875
269.922
270.143
270.065
279.344
266.179
267.244
268.062
268.001
267.748
267.582
267.459
267.344
267.265
267.234
267.249
267.304
267.393
267.506
267.634
267.761
267.88
267.98
268.072
268.145
268.236
268.301
268.412
268.488
268.616
268.707
268.852
268.948
269.111
269.204
269.393
269.451
269.711
269.612
278.502
265.554
266.528
267.253
267.156
266.913
266.77
266.673
266.587
266.54
266.55
266.616
266.725
266.861
267.011
267.164
267.306
267.435
267.54
267.641
267.719
267.823
267.892
268.018
268.094
268.235
268.326
268.48
268.578
268.748
268.848
269.043
269.109
269.397
269.29
277.448
264.74
265.635
266.249
266.076
265.774
265.574
265.407
265.246
265.135
265.105
265.155
265.272
265.43
265.608
265.788
265.954
266.104
266.23
266.348
266.453
266.571
266.676
266.813
266.926
267.081
267.2
267.373
267.495
267.685
267.804
268.023
268.105
268.407
268.305
276.196
263.709
264.51
265.016
264.814
264.533
264.382
264.267
264.164
264.127
264.183
264.321
264.512
264.727
264.941
265.141
265.314
265.465
265.591
265.711
265.822
265.943
266.058
266.197
266.321
266.477
266.604
266.781
266.905
267.103
267.224
267.45
267.536
267.86
267.754
274.963
262.683
263.31
263.679
263.379
263.013
262.762
262.544
262.358
262.269
262.307
262.457
262.675
262.92
263.16
263.381
263.571
263.738
263.882
264.022
264.153
264.297
264.43
264.594
264.726
264.905
265.042
265.235
265.377
265.591
265.73
265.975
266.075
266.414
266.305
273.287
261.223
261.753
262.007
261.686
261.351
261.164
261.014
260.915
260.945
261.118
261.388
261.697
261.999
262.267
262.494
262.68
262.839
262.978
263.117
263.252
263.401
263.542
263.709
263.851
264.028
264.176
264.366
264.513
264.729
264.868
265.121
265.219
265.579
265.464
271.672
259.81
260.065
260.143
259.695
259.241
258.915
258.645
258.475
258.487
258.684
258.996
259.346
259.678
259.965
260.204
260.402
260.574
260.73
260.889
261.045
261.212
261.369
261.548
261.697
261.888
262.038
262.248
262.405
262.638
262.795
263.061
263.178
263.54
263.434
269.386
257.742
257.855
257.807
257.334
256.914
256.675
256.525
256.537
256.782
257.198
257.676
258.126
258.502
258.795
259.021
259.201
259.36
259.508
259.662
259.819
259.987
260.149
260.33
260.489
260.68
260.844
261.048
261.219
261.448
261.611
261.878
261.999
262.372
262.27
267.117
255.658
255.414
255.153
254.513
253.928
253.53
253.292
253.314
253.634
254.143
254.694
255.185
255.574
255.868
256.095
256.282
256.454
256.622
256.797
256.971
257.15
257.319
257.502
257.665
257.866
258.034
258.261
258.441
258.692
258.871
259.153
259.291
259.664
259.573
264.05
252.792
252.291
251.876
251.185
250.63
250.375
250.41
250.821
251.539
252.353
253.087
253.653
254.045
254.309
254.502
254.666
254.823
254.978
255.142
255.306
255.479
255.651
255.839
256.018
256.227
256.416
256.644
256.842
257.086
257.277
257.555
257.697
258.078
257.991
260.566
249.494
248.623
247.964
247.029
246.264
245.913
246.019
246.639
247.59
248.563
249.354
249.906
250.264
250.503
250.691
250.866
251.047
251.228
251.409
251.578
251.749
251.917
252.101
252.289
252.511
252.716
252.971
253.182
253.456
253.659
253.957
254.114
254.495
254.421
256.399
245.466
244.099
243.211
242.152
241.462
241.484
242.226
243.495
244.915
246.15
247.034
247.57
247.861
248.04
248.2
248.369
248.539
248.695
248.843
248.986
249.15
249.335
249.545
249.771
250.017
250.253
250.521
250.748
251.027
251.233
251.545
251.69
252.105
251.982
249.986
239.649
238.402
237.347
235.908
234.923
234.77
235.432
236.701
238.115
239.32
240.164
240.654
240.901
241.061
241.244
241.477
241.734
241.97
242.166
242.319
242.463
242.619
242.811
243.029
243.293
243.548
243.853
244.101
244.429
244.653
244.999
245.176
245.614
245.509
240.868
231.965
230.597
229.182
226.889
225.067
224.647
225.642
227.179
228.533
229.432
229.886
230.07
230.181
230.35
230.622
230.971
231.318
231.584
231.746
231.815
231.868
231.948
232.089
232.289
232.545
232.807
233.107
233.371
233.695
233.925
234.273
234.465
234.851
234.902
216.084
217.026
217.237
215.567
213.487
213.806
216.157
219.026
221.431
222.873
223.505
223.673
223.648
223.676
223.844
224.089
224.326
224.527
224.701
224.88
225.065
225.28
225.509
225.756
226.02
226.297
226.571
226.86
227.138
227.442
227.688
228.009
228.233
228.48
229.078
9.3863
9.33223
9.85779
10.0849
10.078
9.97406
9.88398
9.96736
9.95898
10.0551
10.0997
10.02
9.93832
9.94102
10.0083
10.0877
10.1475
10.1818
10.1988
10.2086
10.2156
10.2277
10.235
10.2524
10.2646
10.2757
10.2999
10.3018
10.3356
10.3193
10.3762
10.3304
10.4078
10.3175
10.441
135.247
128.876
128.551
129.063
129.295
129.321
129.292
129.24
129.161
129.066
128.977
128.906
128.863
128.846
128.853
128.876
128.907
128.937
128.961
128.978
128.991
129.003
129.018
129.037
129.061
129.089
129.119
129.152
129.189
129.226
129.27
129.314
129.364
129.42
129.473
135.076
128.675
128.312
128.796
129.005
129.006
128.952
128.891
128.827
128.768
128.721
128.687
128.669
128.668
128.682
128.71
128.746
128.78
128.81
128.831
128.849
128.86
128.878
128.893
128.923
128.945
128.988
129.018
129.071
129.105
129.169
129.208
129.271
129.342
129.357
134.795
128.384
128.003
128.469
128.68
128.705
128.676
128.611
128.503
128.37
128.245
128.151
128.098
128.085
128.104
128.142
128.187
128.23
128.269
128.302
128.336
128.368
128.407
128.445
128.491
128.529
128.58
128.618
128.675
128.715
128.783
128.829
128.901
128.974
129.01
134.361
127.975
127.617
128.077
128.265
128.254
128.196
128.12
128.022
127.92
127.836
127.785
127.769
127.785
127.828
127.887
127.951
128.009
128.057
128.094
128.125
128.152
128.182
128.215
128.255
128.297
128.345
128.393
128.447
128.5
128.559
128.621
128.674
128.762
128.771
134.043
127.648
127.234
127.649
127.804
127.771
127.7
127.632
127.57
127.522
127.497
127.497
127.52
127.562
127.619
127.685
127.754
127.817
127.87
127.912
127.946
127.974
128.003
128.035
128.076
128.119
128.176
128.231
128.301
128.36
128.441
128.505
128.584
128.681
128.713
133.489
127.125
126.728
127.133
127.278
127.236
127.153
127.058
126.95
126.852
126.783
126.751
126.757
126.796
126.86
126.938
127.018
127.092
127.154
127.204
127.247
127.285
127.326
127.369
127.422
127.474
127.539
127.599
127.675
127.738
127.822
127.891
127.967
128.068
128.078
132.923
126.586
126.152
126.505
126.617
126.565
126.486
126.399
126.3
126.213
126.164
126.161
126.202
126.276
126.37
126.469
126.562
126.642
126.708
126.761
126.808
126.85
126.897
126.944
127.001
127.056
127.124
127.185
127.263
127.328
127.414
127.487
127.565
127.68
127.695
132.247
125.95
125.504
125.827
125.916
125.843
125.735
125.6
125.44
125.293
125.196
125.164
125.195
125.272
125.374
125.484
125.588
125.678
125.753
125.815
125.871
125.924
125.98
126.038
126.103
126.166
126.239
126.306
126.385
126.455
126.54
126.618
126.689
126.805
126.799
131.463
125.215
124.735
124.996
125.042
124.954
124.851
124.728
124.586
124.469
124.417
124.44
124.525
124.648
124.784
124.914
125.026
125.118
125.191
125.252
125.308
125.362
125.42
125.481
125.548
125.614
125.689
125.758
125.841
125.912
126
126.08
126.155
126.282
126.286
130.7
124.509
123.984
124.201
124.216
124.095
123.941
123.749
123.537
123.367
123.286
123.301
123.392
123.526
123.671
123.808
123.925
124.022
124.103
124.174
124.242
124.308
124.377
124.445
124.517
124.587
124.663
124.733
124.816
124.89
124.979
125.063
125.135
125.263
125.246
129.71
123.582
123.027
123.178
123.147
123.004
122.845
122.655
122.461
122.338
122.329
122.424
122.586
122.773
122.951
123.102
123.221
123.313
123.388
123.454
123.52
123.587
123.658
123.729
123.804
123.876
123.954
124.027
124.111
124.186
124.276
124.361
124.437
124.574
124.567
128.742
122.698
122.065
122.152
122.076
121.878
121.637
121.357
121.093
120.937
120.928
121.045
121.231
121.434
121.618
121.768
121.887
121.982
122.065
122.144
122.223
122.302
122.382
122.458
122.534
122.605
122.681
122.753
122.837
122.915
123.006
123.097
123.17
123.308
123.283
127.444
121.485
120.811
120.825
120.685
120.438
120.167
119.884
119.673
119.629
119.759
120
120.276
120.531
120.737
120.891
121.003
121.089
121.163
121.235
121.309
121.386
121.464
121.541
121.618
121.693
121.772
121.849
121.936
122.017
122.109
122.202
122.278
122.424
122.41
126.126
120.282
119.501
119.438
119.226
118.88
118.491
118.116
117.878
117.867
118.059
118.359
118.67
118.935
119.136
119.279
119.385
119.474
119.558
119.644
119.732
119.817
119.899
119.975
120.049
120.12
120.199
120.277
120.367
120.452
120.549
120.648
120.724
120.87
120.841
124.415
118.701
117.842
117.682
117.36
116.901
116.445
116.106
116.031
116.258
116.675
117.132
117.528
117.821
118.018
118.149
118.245
118.326
118.402
118.476
118.55
118.625
118.701
118.776
118.855
118.936
119.022
119.11
119.205
119.296
119.396
119.497
119.575
119.728
119.707
122.448
116.89
115.941
115.704
115.246
114.608
114.012
113.645
113.662
114.04
114.594
115.13
115.544
115.819
115.99
116.101
116.191
116.279
116.37
116.46
116.543
116.618
116.689
116.758
116.835
116.915
117.007
117.101
117.205
117.304
117.411
117.52
117.599
117.756
117.721
120.09
114.756
113.643
113.243
112.548
111.677
111.014
110.838
111.213
111.931
112.717
113.37
113.808
114.057
114.195
114.298
114.397
114.493
114.575
114.638
114.691
114.746
114.812
114.891
114.985
115.085
115.195
115.304
115.418
115.524
115.637
115.748
115.831
116
115.958
116.394
111.471
110.616
110.184
109.134
107.882
107.019
106.803
107.178
107.915
108.72
109.38
109.802
110.011
110.106
110.188
110.307
110.459
110.608
110.724
110.795
110.837
110.875
110.924
110.999
111.092
111.208
111.326
111.455
111.576
111.705
111.826
111.931
112.102
112.082
110.88
106.805
106.049
105.644
104.16
102.198
100.8
100.688
101.476
102.5
103.338
103.844
104.053
104.099
104.125
104.234
104.449
104.713
104.942
105.079
105.116
105.1
105.081
105.092
105.153
105.25
105.375
105.505
105.647
105.785
105.921
106.061
106.178
106.34
106.389
96.1248
99.2726
100.032
98.9458
96.0789
94.0259
94.2609
95.7238
97.3586
98.5498
99.2109
99.4926
99.5343
99.5109
99.5539
99.6852
99.8522
100.002
100.111
100.19
100.251
100.319
100.399
100.496
100.608
100.734
100.864
100.995
101.131
101.265
101.398
101.52
101.669
101.716
102.05
11.8218
11.7407
12.4261
12.8129
12.9351
12.8819
12.7639
12.8234
12.8201
12.9139
12.9848
12.9333
12.8467
12.8233
12.8726
12.9532
13.0273
13.0787
13.1087
13.1263
13.1368
13.1516
13.161
13.1795
13.1972
13.2082
13.2389
13.2407
13.2845
13.2642
13.3318
13.2858
13.3737
13.2874
13.409
79.7816
77.2364
76.6749
76.7744
76.9224
77.0001
77.0273
77.0201
76.9801
76.9139
76.8388
76.7723
76.7245
76.6981
76.6914
76.6994
76.7166
76.7357
76.7522
76.7636
76.7699
76.7751
76.7789
76.7868
76.7952
76.8079
76.8219
76.836
76.8542
76.8684
76.8913
76.9064
76.9345
76.9506
76.9897
79.5942
77.0491
76.4724
76.5576
76.6921
76.7506
76.7567
76.7361
76.699
76.652
76.6044
76.5644
76.5366
76.5222
76.5223
76.5337
76.5546
76.5753
76.5975
76.6077
76.6229
76.6202
76.6356
76.6293
76.652
76.65
76.6814
76.6832
76.7226
76.726
76.7711
76.7774
76.8211
76.8428
76.8733
79.3534
76.8081
76.2199
76.2954
76.4353
76.5177
76.5526
76.5425
76.484
76.3891
76.284
76.1941
76.1337
76.1049
76.1032
76.1186
76.1437
76.168
76.1926
76.2089
76.2305
76.2415
76.2682
76.2781
76.3104
76.3191
76.3538
76.3594
76.398
76.4007
76.4459
76.4499
76.4977
76.5141
76.5542
79.0376
76.4955
75.9163
75.9953
76.1257
76.1858
76.195
76.1683
76.1084
76.0271
75.9461
75.8838
75.8495
75.8432
75.8603
75.8923
75.9319
75.9698
76.003
76.0263
76.0451
76.0564
76.072
76.0827
76.1036
76.1198
76.1454
76.1655
76.1948
76.216
76.248
76.2727
76.2999
76.3369
76.3481
78.7515
76.2196
75.6214
75.6723
75.7744
75.8072
75.7964
75.7657
75.7234
75.6772
75.6384
75.6154
75.6113
75.6249
75.6536
75.6923
75.7358
75.7771
75.8124
75.8387
75.8572
75.8692
75.8816
75.8903
75.9109
75.9246
75.9587
75.9771
76.0233
76.0423
76.097
76.1168
76.1711
76.2042
76.2496
78.3521
75.8286
75.242
75.3018
75.4139
75.4569
75.4491
75.4059
75.3341
75.2493
75.1726
75.1195
75.0967
75.1028
75.1323
75.1755
75.2254
75.2717
75.3135
75.3422
75.3692
75.3824
75.406
75.4164
75.4466
75.462
75.5013
75.5195
75.5682
75.585
75.6411
75.6574
75.7109
75.7379
75.7728
77.9264
75.4186
74.82
74.849
74.9307
74.954
74.9376
74.89
74.8136
74.7259
74.6529
74.6128
74.6113
74.6425
74.6957
74.7577
74.8201
74.873
74.9186
74.9486
74.9788
74.9931
75.0222
75.0337
75.0696
75.0856
75.1289
75.1479
75.1987
75.2177
75.2747
75.2954
75.3515
75.3869
75.432
77.4309
74.9444
74.355
74.3883
74.4768
74.5043
74.4793
74.4031
74.2814
74.1437
74.0276
73.9582
73.9417
73.969
74.0246
74.0913
74.1587
74.2172
74.2672
74.3042
74.3379
74.3619
74.3928
74.4141
74.4509
74.4728
74.5162
74.5371
74.5867
74.6053
74.6602
74.6792
74.7296
74.7609
74.7908
76.8701
74.4109
73.8149
73.8119
73.8595
73.8573
73.8148
73.7273
73.5994
73.4655
73.3676
73.3292
73.3505
73.4147
73.5003
73.5878
73.6663
73.7291
73.7786
73.8145
73.8461
73.8709
73.9014
73.926
73.9635
73.9884
74.0342
74.0563
74.1095
74.1292
74.1869
74.209
74.2631
74.3018
74.3423
76.3052
73.887
73.2958
73.295
73.3499
73.3469
73.2823
73.1504
72.9687
72.7882
72.6608
72.6109
72.6327
72.7019
72.7917
72.8809
72.9598
73.0236
73.0768
73.1185
73.159
73.1912
73.2312
73.2589
73.3014
73.3255
73.3702
73.391
73.441
73.4592
73.5152
73.5356
73.5864
73.6213
73.6498
75.6204
73.2381
72.6463
72.6105
72.6207
72.5777
72.4779
72.314
72.1131
71.9387
71.8445
71.8453
71.9213
72.037
72.1597
72.2676
72.3538
72.4176
72.467
72.5049
72.542
72.574
72.6133
72.6442
72.6869
72.7151
72.7603
72.7837
72.8363
72.8547
72.9149
72.9351
72.9916
73.0307
73.0703
74.9126
72.5925
72.0003
71.9635
71.9758
71.9165
71.7701
71.54
71.279
71.0702
70.9711
70.9861
71.0805
71.2085
71.3345
71.4396
71.5212
71.5832
71.6356
71.6813
71.7289
71.7709
71.8183
71.8517
71.8964
71.9197
71.9634
71.9818
72.0316
72.0493
72.106
72.1284
72.1796
72.2183
72.2449
74.0249
71.7617
71.1751
71.1045
71.0572
70.9241
70.7006
70.4111
70.1361
69.9698
69.9527
70.0592
70.2312
70.412
70.5668
70.6833
70.7663
70.825
70.872
70.9121
70.954
70.9924
71.036
71.0704
71.1132
71.1418
71.1847
71.2102
71.2605
71.2833
71.3421
71.3678
71.4216
71.4675
71.501
73.0796
70.9038
70.3183
70.2493
70.1886
70.002
69.6923
69.3232
69.0129
68.8629
68.8938
69.0523
69.2591
69.4518
69.6016
69.7059
69.7783
69.8332
69.8843
69.9341
69.9869
70.034
70.0818
70.1149
70.1559
70.1775
70.2196
70.2398
70.291
70.3132
70.3722
70.3997
70.4523
70.4953
70.5213
71.9008
69.8295
69.2559
69.1483
68.9857
68.6493
68.1942
67.7528
67.4832
67.4657
67.6573
67.9484
68.2384
68.4698
68.6299
68.7336
68.8043
68.8577
68.9048
68.9465
68.9876
69.0239
69.0622
69.0933
69.1334
69.163
69.2081
69.2402
69.2938
69.3244
69.3859
69.4173
69.4727
69.5223
69.5524
70.5226
68.5741
68.0355
67.9473
67.7261
67.2574
66.6693
66.1728
65.9457
66.0342
66.3419
66.7163
67.0404
67.2667
67.4036
67.4832
67.5389
67.5903
67.6454
67.699
67.7493
67.7894
67.8256
67.8522
67.8887
67.9138
67.9619
67.9923
68.0524
68.0832
68.1492
68.1831
68.2381
68.2878
68.3115
68.8598
67.1113
66.5904
66.4332
65.9902
65.2105
64.3853
63.857
63.7913
64.1093
64.6103
65.1019
65.4694
65.6918
65.8128
65.89
65.9589
66.0242
66.08
66.1189
66.1456
66.1648
66.1872
66.2147
66.2564
66.2969
66.3564
66.3999
66.4691
66.5036
66.5804
66.6096
66.677
66.7248
66.7598
66.4285
64.8739
64.6059
64.5095
63.8246
62.7163
61.6959
61.1223
61.0659
61.4137
61.9473
62.4586
62.8197
63.0061
63.0762
63.1146
63.178
63.2748
63.3816
63.467
63.5171
63.5326
63.5356
63.5351
63.557
63.5809
63.6405
63.6801
63.7593
63.7952
63.8826
63.9126
63.9927
64.0367
64.0852
62.8495
61.7337
61.6122
61.7111
60.8921
59.3069
57.7949
57.1733
57.4376
58.1112
58.7898
59.2691
59.4922
59.5251
59.4934
59.5133
59.6352
59.8278
60.0204
60.1482
60.1934
60.1748
60.137
60.1048
60.1097
60.13
60.1923
60.2373
60.3251
60.3668
60.4634
60.4978
60.5899
60.6291
60.7082
55.2428
58.6622
59.4385
58.7374
56.2637
53.679
52.8209
53.3918
54.4327
55.332
55.9002
56.1846
56.2692
56.2649
56.2736
56.3389
56.4443
56.5486
56.6241
56.664
56.6803
56.6896
56.706
56.7343
56.7801
56.8316
56.9006
56.9544
57.037
57.0795
57.1753
57.2002
57.3142
57.2958
57.4896
13.3312
13.2213
14.013
14.5335
14.7984
14.8504
14.741
14.7585
14.7456
14.8169
14.8982
14.8843
14.8142
14.7731
14.7944
14.8585
14.9328
14.9944
15.0367
15.0637
15.0794
15.0967
15.1085
15.1255
15.148
15.1571
15.1923
15.1921
15.2439
15.2214
15.2929
15.2514
15.3398
15.2694
15.3778
52.8612
51.8627
51.4576
51.3905
51.4346
51.4944
51.5408
51.5647
51.5607
51.5266
51.4724
51.4151
51.3683
51.3369
51.3213
51.3179
51.3241
51.3343
51.3452
51.3539
51.3583
51.3615
51.3611
51.3637
51.365
51.369
51.3749
51.3783
51.3878
51.389
51.4021
51.4001
51.4183
51.4109
51.4406
52.6899
51.7016
51.2951
51.2226
51.2606
51.3062
51.3337
51.341
51.33
51.302
51.2638
51.2249
51.1931
51.1715
51.1619
51.1614
51.1714
51.1817
51.1989
51.2034
51.2186
51.2102
51.2244
51.21
51.2264
51.2139
51.2356
51.225
51.252
51.2426
51.2726
51.2641
51.2939
51.2884
51.3203
52.4913
51.5089
51.098
51.0194
51.0615
51.1289
51.1877
51.2173
51.2046
51.15
51.0712
50.9923
50.9311
50.8936
50.8788
50.8789
50.89
50.9016
50.9175
50.9244
50.9404
50.9406
50.9606
50.9578
50.9812
50.9769
51.0014
50.9928
51.0195
51.0064
51.0362
51.0222
51.0535
51.0426
51.0768
52.2534
51.2725
50.8669
50.7947
50.8345
50.8889
50.9265
50.9366
50.9145
50.8622
50.7945
50.7318
50.6884
50.6677
50.6671
50.6798
50.7017
50.7251
50.7484
50.7649
50.7792
50.7843
50.7939
50.7949
50.8055
50.8095
50.8226
50.8285
50.8448
50.8494
50.8677
50.8725
50.8889
50.8949
50.91
52.0107
51.0439
50.6363
50.5493
50.5684
50.5957
50.6094
50.6071
50.5886
50.556
50.5178
50.4851
50.4654
50.4609
50.4704
50.4899
50.516
50.543
50.5675
50.5861
50.5985
50.6035
50.6093
50.6065
50.6169
50.6146
50.6354
50.6352
50.6659
50.6651
50.7024
50.7009
50.7391
50.7399
50.7814
51.7093
50.7477
50.3489
50.2755
50.3118
50.3605
50.3889
50.387
50.3534
50.294
50.2251
50.1657
50.128
50.1144
50.1214
50.1412
50.1701
50.1983
50.228
50.2462
50.267
50.27
50.2859
50.2823
50.3002
50.2983
50.323
50.3211
50.3542
50.3492
50.3883
50.3805
50.4201
50.4118
50.4508
51.3786
50.4291
50.0295
49.9385
49.9506
49.978
49.9921
49.9794
49.9342
49.8635
49.7881
49.7304
49.7033
49.7061
49.7314
49.7673
49.8086
49.8436
49.878
49.8966
49.9206
49.9227
49.9439
49.9399
49.9634
49.9619
49.9904
49.9897
50.0245
50.0222
50.062
50.058
50.1005
50.0976
50.1454
50.9984
50.0627
49.6768
49.6022
49.6358
49.6837
49.7057
49.681
49.605
49.4943
49.3811
49.2956
49.2525
49.249
49.2734
49.3112
49.3542
49.3931
49.4291
49.4541
49.4786
49.4899
49.5101
49.5147
49.5378
49.5403
49.5686
49.5681
49.6016
49.597
49.6354
49.6275
49.6666
49.6578
49.6979
50.5765
49.657
49.2749
49.1811
49.1822
49.1985
49.1944
49.1468
49.0514
48.9287
48.8157
48.7442
48.7252
48.7496
48.7995
48.8568
48.9122
48.9574
48.9946
49.0197
49.0418
49.0539
49.0725
49.0796
49.1031
49.1076
49.1387
49.1387
49.1758
49.1728
49.2134
49.2093
49.2508
49.2487
49.2949
50.142
49.2461
48.8813
48.8088
48.8379
48.8752
48.8711
48.7992
48.6641
48.5018
48.3614
48.2774
48.2568
48.284
48.3365
48.3943
48.4488
48.4929
48.5315
48.5592
48.5882
48.6048
48.6322
48.6413
48.6696
48.6734
48.7028
48.7011
48.735
48.7282
48.7675
48.7586
48.7991
48.7901
48.8321
49.6335
48.7595
48.4046
48.3173
48.313
48.3108
48.2622
48.1439
47.9703
47.7892
47.6551
47.5989
47.6168
47.6821
47.7646
47.842
47.9066
47.9542
47.992
48.0177
48.0435
48.0599
48.0853
48.097
48.1245
48.1318
48.1621
48.1619
48.1994
48.1924
48.2364
48.2279
48.2733
48.2684
48.3171
49.0888
48.2505
47.9173
47.8573
47.884
47.8935
47.8254
47.6619
47.4384
47.224
47.0815
47.0353
47.0692
47.1463
47.233
47.308
47.3674
47.411
47.4484
47.4782
47.5115
47.5356
47.569
47.583
47.6139
47.6166
47.6456
47.6405
47.6738
47.665
47.7046
47.6957
47.7372
47.7291
47.7723
48.4284
47.6285
47.3178
47.2521
47.2384
47.1796
47.0232
46.7757
46.5013
46.2845
46.1824
46.1989
46.2952
46.4202
46.5365
46.6266
46.6918
46.7364
46.7719
46.7988
46.8273
46.8488
46.877
46.8917
46.9188
46.9262
46.953
46.9545
46.9881
46.9844
47.026
47.0217
47.0645
47.0644
47.1097
47.7036
46.9559
46.6786
46.6538
46.6668
46.5913
46.378
46.065
45.7524
45.5401
45.4751
45.538
45.6694
45.8101
45.9251
46.005
46.0586
46.0962
46.1312
46.1633
46.2001
46.229
46.2626
46.277
46.3045
46.3051
46.3313
46.3264
46.3594
46.3533
46.3939
46.3884
46.4313
46.4257
46.4698
46.8169
46.1439
45.9132
45.8952
45.8415
45.6298
45.2524
44.8169
44.4721
44.3168
44.3567
44.5243
44.7318
44.9143
45.0457
45.1303
45.1861
45.226
45.2612
45.2898
45.318
45.3382
45.3613
45.3725
45.3952
45.4019
45.4282
45.4339
45.4686
45.4707
45.5144
45.5135
45.5586
45.5604
45.6055
45.7762
45.1798
45.0203
45.0733
45.0206
44.7253
44.2353
43.7338
43.4017
43.3202
43.4563
43.704
43.9539
44.1417
44.2567
44.3188
44.357
44.3892
44.4261
44.4621
44.4981
44.5235
44.547
44.556
44.5767
44.5781
44.6063
44.6081
44.6468
44.6471
44.6931
44.692
44.7376
44.7353
44.7819
44.5128
44.0589
43.9883
44.0534
43.8449
43.2587
42.4832
41.8387
41.538
41.5912
41.8734
42.2258
42.5256
42.7219
42.829
42.8893
42.9383
42.9862
43.0313
43.0635
43.0836
43.0916
43.0972
43.102
43.1191
43.1308
43.1647
43.1781
43.2241
43.2291
43.2846
43.2811
43.3377
43.3326
43.3929
42.9
42.4819
42.5993
42.7681
42.4233
41.5899
40.6404
39.9512
39.6754
39.776
40.1045
40.4861
40.7877
40.9557
41.0152
41.0303
41.0569
41.114
41.1908
41.2599
41.3051
41.319
41.3159
41.3003
41.3012
41.2951
41.3244
41.3309
41.3794
41.3833
41.4405
41.4397
41.4953
41.4951
41.5487
40.6507
40.4494
40.6376
41.0343
40.7289
39.6145
38.2934
37.4943
37.4251
37.8107
38.3235
38.7443
38.9705
39.0147
38.9673
38.9345
38.9822
39.1063
39.2593
39.3793
39.4396
39.439
39.4078
39.3664
39.3482
39.3341
39.361
39.3668
39.4209
39.4215
39.488
39.4817
39.5463
39.5406
39.6057
37.4991
40.7327
41.2004
40.5673
38.532
36.0873
34.745
34.7656
35.4063
36.0761
36.5375
36.7866
36.8813
36.8954
36.9019
36.9383
37.0051
37.0757
37.1284
37.1498
37.1486
37.135
37.1236
37.1203
37.1338
37.149
37.187
37.2031
37.2593
37.2594
37.3313
37.3195
37.3973
37.3745
37.4842
14.5028
14.3563
15.2431
15.8792
16.2651
16.4344
16.3692
16.352
16.3208
16.3612
16.4393
16.4577
16.4141
16.3689
16.3664
16.4079
16.4724
16.5366
16.5879
16.6242
16.6467
16.6669
16.6823
16.6967
16.7238
16.7302
16.7699
16.7658
16.8246
16.8011
16.8737
16.8378
16.9217
16.8692
16.9633
37.6222
37.2118
36.9874
36.8925
36.8724
36.8943
36.9329
36.9679
36.9868
36.9796
36.947
36.9022
36.86
36.8279
36.8079
36.7972
36.795
36.7976
36.8032
36.8097
36.8134
36.8171
36.8164
36.8173
36.8169
36.8164
36.8197
36.8174
36.824
36.8182