/*--------------------------------*- C++ -*----------------------------------*\
  =========                 |
  \\      /  F ield         | OpenFOAM: The Open Source CFD Toolbox
   \\    /   O peration     | Website:  https://openfoam.org
    \\  /    A nd           | Version:  6
     \\/     M anipulation  |
\*---------------------------------------------------------------------------*/
FoamFile
{
    version     2.0;
    format      ascii;
    class       volScalarField;
    location    "6";
    object      yPlus;
}
// * * * * * * * * * * * * * * * * * * * * * * * * * * * * * * * * * * * * * //

dimensions      [0 0 0 0 0 0 0];

internalField   uniform 0;

boundaryField
{
    inlet
    {
        type            calculated;
        value           uniform 0;
    }
    outlet
    {
        type            calculated;
        value           uniform 0;
    }
    roughCylinder
    {
        type            calculated;
        value           nonuniform List<scalar> 
5120
(
44.1817
52.0298
58.2963
64.4453
69.7397
74.0243
77.451
80.2159
82.4767
84.3717
86.0227
87.4992
88.8407
90.0799
91.2474
92.3736
93.4895
94.6232
95.7985
97.0316
98.3316
99.7006
101.135
102.627
104.167
105.743
107.34
108.936
110.493
111.944
113.141
113.85
43.4802
51.0495
57.1199
63.1307
68.3522
72.6016
76.0102
78.7673
81.0284
82.9302
84.5885
86.0672
87.3984
88.6218
89.7696
90.8736
91.965
93.0731
94.2212
95.4261
96.6966
98.0344
99.436
100.894
102.399
103.938
105.496
107.053
108.572
109.987
111.154
111.843
42.7419
50.0607
55.9433
61.8131
66.9585
71.1727
74.5657
77.3203
79.5899
81.5065
83.1765
84.6582
85.9824
87.1933
88.324
89.407
90.4755
91.5585
92.6805
93.8575
95.0985
96.4057
97.7752
99.1991
100.668
102.17
103.691
105.209
106.691
108.069
109.205
109.876
41.9451
49.0354
54.7353
60.4643
65.5361
69.7219
73.1094
75.8734
78.1636
80.1039
81.7908
83.279
84.6021
85.8022
86.9171
87.9815
89.0282
90.0882
91.1848
92.3354
93.5486
94.8258
96.1632
97.5546
98.9885
100.454
101.937
103.417
104.86
106.203
107.309
107.96
41.1456
48.0127
53.5252
59.1073
64.1044
68.2665
71.656
74.4366
76.7533
78.7217
80.4286
81.9266
83.2531
84.4458
85.5491
86.5967
87.6246
88.6625
89.736
90.861
92.0467
93.2951
94.6025
95.9604
97.3608
98.7906
100.237
101.68
103.086
104.394
105.47
106.104
40.299
46.9531
52.2762
57.7083
62.6327
66.7795
70.1827
72.9922
75.3456
77.3488
79.0812
80.595
81.929
83.1229
84.2175
85.2526
86.263
87.2819
88.3332
89.4349
90.5955
91.8162
93.0934
94.4208
95.7869
97.1817
98.5917
99.9975
101.366
102.64
103.687
104.301
39.4561
45.8959
51.0205
56.2932
61.1432
65.2819
68.7094
71.5559
73.9499
75.9907
77.7518
79.2845
80.6316
81.8307
82.9216
83.9462
84.9437
85.9449
86.9771
88.0564
89.192
90.3862
91.6353
92.931
94.2649
95.6259
97.0002
98.3701
99.7049
100.944
101.962
102.559
38.5593
44.7904
49.7104
54.8157
59.5896
63.7273
67.1912
70.0874
72.5344
74.6222
76.4198
77.9812
79.3472
80.5594
81.6555
82.6775
83.6645
84.6524
85.6666
86.726
87.8398
89.0089
90.2298
91.496
92.7975
94.1237
95.4629
96.7967
98.0943
99.301
100.291
100.869
37.6585
43.6759
48.378
53.3004
57.9915
62.1357
65.652
68.6119
71.1186
73.2583
75.0992
76.6917
78.0836
79.3124
80.4175
81.4401
82.4229
83.3996
84.4003
85.4416
86.5332
87.678
88.8722
90.1081
91.3784
92.6717
93.9765
95.2749
96.5399
97.7126
98.6746
99.2359
36.6779
42.4837
46.959
51.685
56.2854
60.4397
64.0196
67.0585
69.6449
71.8543
73.749
75.3886
76.8149
78.0706
79.1936
80.2284
81.2135
82.1852
83.1737
84.1997
85.273
86.3952
87.5633
88.7711
90.0086
91.2675
92.536
93.7992
95.0267
96.1676
97.1008
97.6429
35.6611
41.2522
45.4866
49.991
54.4813
58.6479
62.3162
65.4639
68.1441
70.4306
72.3949
74.0846
75.5541
76.8424
77.9901
79.0363
80.0272
80.9974
81.9812
82.9949
84.0496
85.149
86.2903
87.4675
88.6735
89.898
91.1322
92.3587
93.5533
94.6609
95.5677
96.0921
34.4997
39.8872
43.8706
48.1355
52.5009
56.6782
60.4419
63.7131
66.5241
68.9296
70.9771
72.742
74.2681
75.6008
76.7793
77.8533
78.8595
79.8359
80.8142
81.8178
82.8578
83.9376
85.0551
86.2039
87.3765
88.5654
89.7613
90.9528
92.1094
93.1842
94.0608
94.5657
33.2514
38.4366
42.1473
46.1273
50.3165
54.4842
58.381
61.8448
64.8178
67.3427
69.5117
71.3616
72.9574
74.3471
75.5769
76.6778
77.7016
78.6854
79.6681
80.6659
81.6915
82.7501
83.84
84.9585
86.0984
87.2529
88.4148
89.5662
90.6901
91.7324
92.5823
93.0699
31.7648
36.7611
40.1891
43.8651
47.8654
52.0224
56.0386
59.6802
62.8819
65.6379
67.9442
69.9158
71.6074
73.0683
74.3385
75.4857
76.5422
77.5477
78.5333
79.5268
80.5418
81.584
82.6534
83.7424
84.8477
85.9633
87.0825
88.2009
89.285
90.2922
91.1109
91.5767
30.0797
34.8988
38.0183
41.3015
44.9693
49.005
53.2003
57.2108
60.714
63.6614
66.2098
68.347
70.1561
71.7118
73.0834
74.2843
75.375
76.3984
77.4002
78.3965
79.4024
80.425
81.464
82.5222
83.5928
84.6725
85.7589
86.83
87.88
88.8566
89.6464
90.0956
27.935
32.6086
35.4227
38.3211
41.719
45.72
49.9914
54.1712
58.101
61.5653
64.3399
66.6752
68.6558
70.3392
71.7588
73.0266
74.174
75.2422
76.2583
77.2577
78.2577
79.2668
80.2893
81.3156
82.3478
83.3838
84.4187
85.4604
86.4671
87.4019
88.1607
88.5833
25.2691
29.8756
32.393
34.7459
37.3969
40.793
45.3299
50.3763
54.8571
58.5923
61.9607
64.6897
66.9047
68.7469
70.3616
71.7337
72.9416
74.0398
75.0881
76.1018
77.0987
78.0902
79.0767
80.0694
81.0635
82.0599
83.0639
84.0467
85.0173
85.9257
86.6462
87.0539
21.4666
26.1463
28.3406
30.1746
32.6233
36.3765
40.4819
45.1171
50.6525
55.7982
59.4765
62.5282
65.0594
67.1637
68.8474
70.3195
71.622
72.802
73.8807
74.9065
75.9039
76.8832
77.8577
78.815
79.7626
80.7075
81.6451
82.6007
83.5218
84.3729
85.0705
85.445
15.6071
20.9573
23.5558
25.1374
25.6601
25.9106
31.3731
39.0338
44.7083
49.8698
55.4647
59.5701
62.6854
65.0946
67.1565
68.8267
70.2344
71.4605
72.5952
73.6518
74.6522
75.6173
76.5452
77.4603
78.3644
79.2616
80.1699
81.0513
81.9309
82.7705
83.4032
83.7622
4.70926
10.8249
12.1496
12.2491
13.1147
13.2354
14.4423
19.8245
36.0959
46.4268
51.388
56.2273
59.9976
63.0051
65.2204
67.0812
68.6604
70.0385
71.2293
72.3111
73.3207
74.2716
75.1931
76.0675
76.9077
77.7403
78.5591
79.4102
80.2292
80.9754
81.6084
81.929
9.6251
10.8163
12.3089
14.9434
14.9653
14.1749
17.8707
20.3779
20.4305
27.4589
43.558
50.8123
56.2297
59.9598
62.9608
65.19
66.9607
68.4055
69.693
70.8302
71.8521
72.7915
73.6455
74.4583
75.2468
76.0162
76.8008
77.5591
78.3274
79.0966
79.6091
79.9067
14.3077
18.287
19.4198
19.0812
18.6407
17.7219
22.3511
22.7706
21.4593
22.8621
27.3857
43.6433
51.1678
56.5393
59.9928
62.7228
64.8478
66.6078
68.0027
69.1919
70.23
71.1541
72.0098
72.772
73.4554
74.1324
74.7929
75.5038
76.1889
76.794
77.3503
77.6057
20.7822
25.4762
27.6284
28.681
28.578
27.0458
23.8653
22.8425
22.0525
27.6784
29.5222
30.2517
44.1805
51.3206
56.64
60.0168
62.5374
64.3801
65.9492
67.2297
68.3098
69.2097
69.9528
70.6081
71.2288
71.8178
72.4184
73.0109
73.6268
74.3203
74.6592
74.8778
22.7137
27.7814
30.5888
32.7266
34.1067
34.5949
33.8811
31.484
27.6519
25.1711
30.2411
17.6504
27.5291
43.8926
50.7565
55.8787
59.2056
61.8006
63.5992
65.0057
66.0821
66.9858
67.7457
68.3313
68.7397
69.1615
69.5792
70.0784
70.5626
70.9639
71.3969
71.5614
23.4873
28.6172
31.603
34.0395
35.8921
37.1504
37.7948
37.7329
36.587
32.972
26.6893
22.7578
13.1332
30.8449
45.6671
51.3385
55.7127
58.3168
60.4448
61.9802
63.209
64.0096
64.5482
64.8989
65.2176
65.5264
65.7894
66.1262
66.5164
67.11
67.1846
67.3528
22.7664
28.043
31.1901
33.8573
36.0103
37.6467
38.7804
39.4273
39.5527
38.8167
36.039
29.6241
25.8643
17.6658
28.6395
43.346
49.3111
54.0656
56.7203
58.5852
59.6517
60.5522
61.1438
61.407
61.2271
61.1327
61.1055
61.2312
61.382
61.4292
61.5692
61.5464
21.2532
26.6634
29.8994
32.693
35.0186
36.8794
38.3035
39.3383
40.0313
40.3461
39.9192
37.1843
33.4754
22.3911
21.0179
31.7242
44.196
47.7854
51.0651
53.0194
54.6629
55.1042
55.1659
54.7188
54.246
54.1481
53.4722
53.4373
54.0404
53.8225
53.5964
54.8871
19.3224
24.8183
28.0715
30.9014
33.2982
35.274
36.8572
38.1086
39.1172
39.9541
40.5443
40.3642
37.8272
30.4915
29.1193
20.5607
28.7142
40.5873
44.4928
47.3163
47.9059
48.8844
49.1428
48.8481
47.2599
45.942
44.9165
43.8887
43.503
43.4025
42.1955
39.9458
17.2914
22.7477
25.9076
28.6597
31.0178
33.0092
34.6664
36.0485
37.254
38.3783
39.4556
40.3174
40.2905
37.6738
31.8797
24.4906
14.9357
23.5991
32.9174
35.8884
38.3856
37.2902
36.5504
33.0182
25.2401
24.795
14.3518
22.3487
45.2912
18.8919
17.842
38.2676
15.4106
20.7168
23.6998
26.2891
28.5234
30.443
32.0868
33.5118
34.8189
36.1061
37.4306
38.7427
39.694
39.258
34.7717
30.1709
27.6105
21.8076
14.9823
14.2788
16.3137
14.0643
11.2443
32.5221
32.8741
25.1491
33.4386
29.6005
37.8701
35.443
20.8163
43.3981
13.8836
18.982
21.7535
24.1415
26.2068
28.0006
29.5674
30.9629
32.2788
33.6101
35.0374
36.5756
38.0156
38.6082
36.5942
30.6591
33.3094
31.0842
16.9723
18.501
24.4256
12.2025
20.8078
22.3888
21.6479
34.3307
28.1634
32.9141
27.2212
28.6172
38.0348
43.8959
12.6959
17.5926
20.1665
22.3613
24.2564
25.9119
27.3775
28.7085
29.9826
31.281
32.6963
34.3076
36.0442
37.4465
37.3619
34.0464
28.5456
23.9719
26.9318
14.2565
30.1874
23.0148
31.634
27.9179
35.6621
36.3322
41.0799
40.8024
40.8942
41.3724
39.6586
39.2301
11.7952
16.5137
18.9206
20.9528
22.7036
24.2387
25.611
26.8735
28.0901
29.3269
30.6761
32.2512
34.0876
35.9531
37.2032
36.8298
33.7905
30.8364
30.2846
30.483
31.7112
35.4431
35.9056
39.6098
44.1993
43.6184
46.6365
46.5269
46.9227
46.465
44.8384
44.823
11.1497
15.702
17.9804
19.8891
21.5317
22.9767
24.2772
25.4818
26.6409
27.8106
29.0789
30.5695
32.3784
34.4294
36.3388
37.503
37.4848
37.2328
37.5696
38.7672
39.4748
41.4965
41.2614
43.5159
46.057
45.6747
47.5402
47.4696
48.0148
47.7054
46.5112
46.7972
10.6436
15.1107
17.2997
19.1247
20.6969
22.0855
23.3408
24.5044
25.6148
26.7213
27.9053
29.2858
30.9847
33.0317
35.2382
37.1777
38.4473
39.2732
40.1618
41.2158
42.0063
43.1706
43.1605
44.7694
46.4024
46.1859
47.3022
47.2886
47.8773
47.8562
47.015
46.9757
10.318
14.7149
16.8437
18.6189
20.1544
21.5173
22.7523
23.8925
24.968
26.0224
27.1279
28.3901
29.9298
31.8289
34.0368
36.2989
38.2438
39.7298
40.9312
41.955
42.6998
43.4949
43.6763
44.7994
45.8076
45.7334
46.365
46.4059
46.9891
47.1678
46.6397
46.3898
10.1334
14.4895
16.5869
18.3427
19.8704
21.2331
22.4684
23.6012
24.6568
25.6737
26.7135
27.8648
29.234
30.9148
32.9284
35.1519
37.3102
39.1393
40.5707
41.6207
42.3422
42.9462
43.2241
44.0332
44.7136
44.781
45.2141
45.3465
45.9277
46.2255
45.9858
45.7201
10.0909
14.4301
16.5191
18.2801
19.823
21.2047
22.4556
23.5955
24.6462
25.642
26.6342
27.6948
28.9109
30.3681
32.1138
34.1029
36.1616
38.0402
39.5599
40.657
41.4011
41.972
42.368
43.0543
43.6329
43.8906
44.3281
44.6055
45.2053
45.599
45.64
45.4775
10.1798
14.5272
16.6291
18.4166
19.9928
21.4082
22.6872
23.847
24.9079
25.9004
26.8675
27.8663
28.9652
30.2346
31.7252
33.4303
35.2507
37.0007
38.4939
39.6284
40.4463
41.0968
41.6514
42.358
42.9913
43.4694
44.0273
44.4794
45.1332
45.6343
45.9182
45.8982
10.3794
14.769
16.9071
18.7395
20.3624
21.8209
23.1375
24.3279
25.412
26.4184
27.3836
28.3526
29.3777
30.514
31.8066
33.2661
34.8404
36.4078
37.8201
38.9776
39.8925
40.6743
41.4052
42.2182
42.9915
43.6944
44.4212
45.0567
45.7961
46.4196
46.9001
47.0183
10.4187
10.2717
10.3636
10.4264
10.6001
10.7734
10.9892
11.2
11.4047
11.5461
11.7601
11.9333
12.0947
12.2283
12.3349
12.4096
12.4474
12.4449
12.4026
12.3357
12.3428
12.4168
12.4646
12.4722
12.4392
12.3687
12.2662
12.1361
11.9784
11.8087
11.5981
11.4597
11.2578
11.0497
10.8359
10.6649
10.4925
10.4312
10.339
10.4847
14.8371
14.6446
14.7153
14.765
14.9326
15.1048
15.3229
15.5414
15.7685
15.9866
16.207
16.4054
16.5898
16.7488
16.8804
16.9784
17.0359
17.0463
17.0085
16.9389
16.9471
17.0252
17.0694
17.0648
17.0128
16.9196
16.7926
16.6376
16.4574
16.263
16.0464
15.8321
15.6084
15.3933
15.1778
15.0084
14.8426
14.7947
14.7237
14.9144
16.9977
16.7914
16.8707
16.929
17.1117
17.3007
17.5383
17.7792
18.0334
18.2829
18.5302
18.7625
18.9811
19.1772
19.346
19.4805
19.5721
19.6122
19.5977
19.5448
19.5529
19.6152
19.6368
19.6031
19.5173
19.3881
19.2242
19.0325
18.8183
18.5902
18.347
18.1017
17.8514
17.6143
17.3798
17.1941
17.0134
16.9571
16.8773
17.0819
18.8527
18.644
18.7386
18.8109
19.0123
19.2209
19.4803
19.7454
20.0262
20.3045
20.5809
20.8466
21.0994
21.3321
21.5384
21.7098
21.8363
21.908
21.9207
21.8911
21.8987
21.9384
21.9334
21.8686
21.7482
21.5824
21.3812
21.1532
20.905
20.6438
20.3717
20.0978
19.8213
19.5605
19.3048
19.1001
18.9012
18.8311
18.7362
18.9431
20.4973
20.2905
20.3979
20.4822
20.6976
20.9219
21.1979
21.4814
21.7812
22.0803
22.3789
22.6695
22.9494
23.2115
23.4485
23.6505
23.8065
23.9054
23.9427
23.9346
23.9417
23.9604
23.9312
23.8394
23.6899
23.4936
23.262
23.0048
22.7297
22.4435
22.1494
21.8549
21.5597
21.281
21.0093
20.7895
20.577
20.4954
20.3881
20.5933
21.9761
21.7689
21.8822
21.9739
22.1977
22.4328
22.7195
23.0151
23.3271
23.6403
23.9549
24.2647
24.566
24.8517
25.1134
25.3404
25.5204
25.6417
25.6992
25.7079
25.7145
25.7166
25.6676
25.5536
25.3802
25.1592
24.9029
24.6223
24.3258
24.0205
23.7103
23.4019
23.0946
22.8041
22.5222
22.2922
22.072
21.9834
21.8706
22.0765
23.3111
23.0991
23.2128
23.3098
23.5387
23.7825
24.077
24.3818
24.7028
25.0274
25.3557
25.6817
26.0011
26.3064
26.5885
26.8357
27.0348
27.1735
27.2463
27.2666
27.2729
27.2635
27.1992
27.068
26.8755
26.6345
26.3579
26.0577
25.7431
25.4216
25.0978
24.7777
24.4615
24.1621
23.8727
23.6343
23.4095
23.3162
23.2034
23.4145
24.5185
24.2997
24.4129
24.5163
24.751
25.0048
25.3077
25.622
25.9521
26.2882
26.6293
26.9698
27.3047
27.6262
27.9244
28.1871
28.4003
28.5514
28.6346
28.6619
28.6681
28.6514
28.5769
28.4332
28.2266
27.9701
27.6774
27.3612
27.0311
26.6951
26.3584
26.0267
25.7012
25.3923
25.0947
24.8465
24.6161
24.5168
24.4048
24.6234
25.619
25.394
25.509
25.6224
25.8665
26.1334
26.4472
26.7728
27.1136
27.4613
27.8143
28.1673
28.5147
28.8484
29.1583
29.4315
29.6539
29.8123
29.9009
29.9316
29.9376
29.9173
29.8372
29.6862
29.4705
29.2034
28.8992
28.5706
28.2279
27.8794
27.5306
27.1872
26.8509
26.5306
26.222
25.9607
25.7211
25.6119
25.4983
25.7238
26.6394
26.4085
26.5283
26.6553
26.9128
27.1963
27.5241
27.8628
28.215
28.5739
28.9373
29.3004
29.657
29.999
30.316
30.5948
30.8211
30.9819
31.0716
31.1025
31.1086
31.0879
31.0064
30.8528
30.6329
30.3602
30.0488
29.7118
29.3598
29.0013
28.6419
28.2872
27.9392
27.6056
27.2829
27.0047
26.7516
26.6289
26.5106
26.7428
27.6105
27.3702
27.4951
27.6376
27.9114
28.2142
28.5583
28.9114
29.2753
29.6446
30.0169
30.3873
30.7499
31.0963
31.4159
31.6955
31.9211
32.08
32.1672
32.1957
32.2016
32.1831
32.1039
31.952
31.7328
31.4589
31.1448
30.8033
30.4453
30.0791
29.7109
29.3455
28.9856
28.6372
28.2978
28.0001
27.7303
27.5922
27.4691
27.7119
28.5666
28.3063
28.4313
28.5877
28.8785
29.2019
29.564
29.9327
30.3084
30.6873
31.0668
31.4424
31.8081
32.1554
32.4736
32.7499
32.9708
33.1242
33.2057
33.2299
33.2358
33.2214
33.1476
33.0008
32.7861
32.5153
32.2023
31.8598
31.4987
31.1271
30.7514
30.3762
30.004
29.6396
29.2818
28.9629
28.6759
28.5238
28.4012
28.6659
29.5451
29.2448
29.3579
29.5225
29.8281
30.1718
30.5528
30.938
31.3259
31.714
32.0996
32.4787
32.8448
33.1902
33.5038
33.7738
33.9869
34.1319
34.2057
34.2242
34.2302
34.2212
34.1547
34.0159
33.8087
33.5442
33.2355
32.8948
32.5328
32.1576
31.7754
31.3906
31.0061
30.6244
30.2472
29.9074
29.6052
29.4453
29.3357
29.6435
30.5861
30.216
30.2971
30.4592
30.7741
31.1358
31.5354
31.9381
32.3385
32.7357
33.1269
33.5081
33.8735
34.2146
34.5217
34.7829
34.986
35.1211
35.186
35.1982
35.204
35.2013
35.1434
35.0143
34.8166
34.5606
34.2583
33.9214
33.5601
33.1823
32.7942
32.3999
32.0022
31.6025
31.2059
30.8476
30.5358
30.3788
30.3031
30.6854
31.7252
31.2483
31.2704
31.4151
31.7304
32.1059
32.5225
32.9427
33.3563
33.7628
34.1595
34.5426
34.9062
35.2423
35.5416
35.7928
35.9849
36.1094
36.1652
36.1711
36.177
36.1803
36.1313
36.0126
35.8256
35.5792
35.2844
34.9523
34.5924
34.2123
33.8183
33.4141
33.0027
32.5846
32.1701
31.7973
31.485
31.3464
31.3324
31.8278
32.9789
32.3602
32.2949
32.405
32.7101
33.0936
33.5242
33.9609
34.3884
34.8047
35.2075
35.5927
35.9546
36.2855
36.5767
36.8178
36.9991
37.1131
37.1602
37.1605
37.1666
37.1753
37.1347
37.026
36.8497
36.6131
36.3261
35.9989
35.6401
35.2576
34.8569
34.4424
34.0163
33.5808
33.1512
32.7697
32.4675
32.3646
32.4419
33.087
34.3263
33.5479
33.3752
33.4365
33.7221
34.1078
34.5495
35.0011
35.4423
35.869
36.2787
36.6667
37.0277
37.3542
37.6378
37.8697
38.0409
38.1455
38.1852
38.1813
38.1873
38.2002
38.1668
38.0674
37.9008
37.6734
37.3935
37.0702
36.7121
36.3262
35.9182
35.4924
35.0515
34.6002
34.1586
33.7737
33.4906
33.4376
33.6265
34.4402
35.6995
34.7777
34.4991
34.5081
34.7704
35.1546
35.6049
36.0697
36.5243
36.9619
37.3791
37.7711
38.1322
38.4555
38.7331
38.957
39.1197
39.2165
39.2503
39.2437
39.2498
39.2654
39.2377
39.1459
38.9876
38.7677
38.4937
38.1734
37.8147
37.4242
37.008
36.5705
36.1152
35.6491
35.1976
34.8125
34.5518
34.5513
34.8496
35.8165
37.006
35.9932
35.6395
35.6089
35.853
36.2368
36.6951
37.1722
37.6393
38.088
38.5134
38.9103
39.2728
39.5943
39.8674
40.0852
40.2413
40.3321
40.362
40.3543
40.3604
40.3772
40.3534
40.2674
40.1156
39.9016
39.6315
39.3127
38.9522
38.5564
38.1312
37.6817
37.2125
36.7326
36.2709
35.8841
35.6394
35.6769
36.0522
37.1183
38.1812
37.1464
36.7685
36.7259
36.9668
37.3564
37.8247
38.3137
38.7925
39.252
39.6857
40.0879
40.4527
40.7736
41.0439
41.2573
41.4085
41.4954
41.5232
41.5159
41.522
41.5385
41.5168
41.4347
41.2877
41.0778
40.8104
40.4918
40.1284
39.7266
39.2924
38.8311
38.3488
37.855
37.3811
36.9856
36.7405
36.7858
37.1823
38.2695
39.225
38.2263
37.8759
37.8543
38.112
38.5167
38.9987
39.4999
39.9897
40.459
40.9004
41.3079
41.6752
41.9962
42.2646
42.4749
42.6227
42.7071
42.7343
42.7286
42.7347
42.7498
42.7287
42.6492
42.5054
42.2984
42.0326
41.7136
41.3472
40.9397
40.4969
40.0248
39.5304
39.0224
38.5323
38.1186
37.8525
37.8704
38.2303
39.266
40.1739
39.255
38.9733
39.0012
39.2938
39.7225
40.2213
40.735
41.2357
41.714
42.1621
42.574
42.9432
43.2641
43.531
43.7387
43.8841
43.9668
43.9945
43.9911
43.9972
44.0103
43.9889
43.9109
43.7696
43.565
43.3006
42.9812
42.6125
42.2
41.7501
41.2682
40.7621
40.2406
39.7319
39.2924
38.9892
38.9538
39.2375
40.1783
41.0559
40.257
40.0775
40.1775
40.5191
40.9793
41.498
42.0244
42.5351
43.0209
43.4741
43.8887
44.2588
44.579
44.8439
45.0491
45.192
45.2735
45.3019
45.3006
45.3069
45.318
45.2962
45.2195
45.0804
44.8782
44.6154
44.2966
43.9265
43.5108
43.055
42.5654
42.0488
41.5144
40.9863
40.5166
40.1673
40.0646
40.2507
41.0731
41.931
41.2755
41.2153
41.3978
41.795
42.2897
42.8291
43.3671
43.8866
44.3781
44.8348
45.2509
45.6206
45.939
46.2012
46.4035
46.5438
46.6238
46.6524
46.653
46.6594
46.6693
46.6474
46.5723
46.4356
46.2361
45.9757
45.658
45.2877
44.8699
44.4101
43.9139
43.3883
42.8422
42.2946
41.7933
41.3945
41.221
41.3079
42.0202
42.8927
42.3657
42.4128
42.6694
43.1173
43.6439
44.202
44.7502
45.2774
45.7739
46.2334
46.6503
47.0193
47.3356
47.5949
47.7941
47.9315
48.0096
48.0377
48.0394
48.0463
48.0557
48.0346
47.9615
47.8276
47.6309
47.3728
47.0566
46.6863
46.2667
45.8029
45.3004
44.7654
44.207
43.638
43.1017
42.6482
42.3959
42.3717
42.9544
43.9158
43.4961
43.6344
43.9565
44.4509
45.0074
45.5845
46.1457
46.6823
47.1852
47.6489
48.0677
48.4367
48.7517
49.0087
49.205
49.3396
49.4152
49.4421
49.4438
49.4513
49.4617
49.4423
49.3716
49.2402
49.0458
48.7893
48.4734
48.1019
47.679
47.2093
46.6984
46.1512
45.577
44.9834
44.409
43.8976
43.563
43.4214
43.8572
44.8853
44.5722
44.8003
45.1907
45.7353
46.3269
46.9282
47.5083
48.0594
48.5731
49.0444
49.4684
49.8403
50.1563
50.4129
50.6076
50.74
50.8132
50.838
50.8388
50.8474
50.8602
50.8434
50.7751
50.6458
50.4524
50.1955
49.8776
49.502
49.0724
48.5932
48.0691
47.5048
46.908
46.285
45.6697
45.1005
44.6878
44.4411
44.7492
45.6611
45.5043
45.8537
46.3317
46.9391
47.5744
48.2063
48.8095
49.3781
49.9053
50.3867
50.8177
51.1945
51.5132
51.7709
51.9651
52.0957
52.1661
52.1876
52.1861
52.196
52.2128
52.1999
52.1345
52.0065
51.8127
51.5537
51.2313
50.8486
50.4092
49.9167
49.3754
48.7894
48.165
47.5068
46.8448
46.2135
45.7199
45.3687
45.55
46.4412
46.3713
46.8024
47.3476
48.0089
48.6858
49.3497
49.9791
50.569
51.1136
51.6089
52.051
52.4362
52.7609
53.0222
53.2182
53.3485
53.4166
53.4342
53.4292
53.4411
53.4643
53.4573
53.3959
53.2697
53.0756
52.8141
52.4869
52.0967
51.6469
51.1411
50.5829
49.9762
49.3263
48.6375
47.9364
47.2553
46.7012
46.2775
46.3821
47.1352
47.1183
47.6005
48.1903
48.8907
49.6003
50.2918
50.9458
51.5574
52.1211
52.6329
53.089
53.4858
53.8198
54.0881
54.2887
54.4212
54.4888
54.503
54.494
54.51
54.544
54.5471
54.4931
54.372
54.181
53.9204
53.5922
53.199
52.7442
52.2308
51.6626
51.0429
50.3766
49.667
48.9367
48.2142
47.604
47.1056
47.1217
47.658
47.6586
48.1701
48.7891
49.5182
50.2533
50.9673
51.6418
52.2719
52.8521
53.3785
53.8471
54.2546
54.5973
54.8725
55.0778
55.2126
55.2794
55.2892
55.2737
55.2923
55.3386
55.3531
55.308
55.1939
55.0083
54.7518
54.4267
54.0356
53.582
53.069
52.5003
51.8794
51.211
50.4989
49.7603
49.0188
48.3747
47.8176
47.7458
47.8718
47.8697
48.3961
49.0361
49.7886
50.5464
51.2807
51.9728
52.6182
53.2117
53.7496
54.2281
54.6437
54.9932
55.2736
55.4827
55.6196
55.6864
55.6931
55.6717
55.6911
55.7465
55.7696
55.7312
55.6224
55.4412
55.1884
54.8664
54.4778
54.0258
53.5136
52.9446
52.3221
51.6501
50.9322
50.182
49.4194
48.7404
48.1297
47.9765
44.1762
52.0247
58.2915
64.4407
69.735
74.0193
77.4456
80.21
82.4706
84.3654
86.0161
87.4922
88.8331
90.0716
91.2384
92.3639
93.4791
94.6118
95.7862
97.0181
98.3169
99.6844
101.117
102.607
104.146
105.72
107.314
108.908
110.463
111.913
113.109
113.817
43.473
51.0432
57.1141
63.1251
68.3465
72.5958
76.0043
78.7615
81.0224
82.9238
84.5815
86.0597
87.3906
88.6136
89.7609
90.8642
91.9547
93.0619
94.2089
95.4127
96.6818
98.0182
99.4184
100.875
102.377
103.913
105.47
107.025
108.541
109.955
111.121
111.81
42.7376
50.0569
55.94
61.8101
66.9554
71.1693
74.5617
77.3156
79.5845
81.5008
83.1708
84.6522
85.9756
87.1857
88.3156
89.3977
90.4655
91.5475
92.6683
93.8441
95.0839
96.3894
97.7569
99.1791
100.646
102.146
103.664
105.18
106.659
108.036
109.171
109.842
41.9385
49.03
54.7304
60.4595
65.5311
69.7165
73.104
75.8683
78.1586
80.0987
81.7847
83.272
84.5945
85.7943
86.9087
87.9724
89.0181
90.0771
91.1726
92.3219
93.5335
94.8091
96.1451
97.5339
98.9658
100.429
101.909
103.387
104.827
106.169
107.274
107.926
41.1431
48.0108
53.5237
59.1061
64.1033
68.265
71.6538
74.4334
76.7488
78.7166
80.4236
81.9217
83.2474
84.4392
85.5414
86.5879
87.615
88.6517
89.724
90.8477
92.032
93.2786
94.5836
95.9399
97.3374
98.7653
100.209
101.649
103.053
104.36
105.435
106.068
40.2939
46.9494
52.2732
57.7056
62.6296
66.7758
70.1788
72.9886
75.3427
77.3459
79.0769
80.5891
81.9221
83.1153
84.2096
85.2439
86.2532
87.2712
88.3212
89.4214
90.5802
91.7992
93.0748
94.3996
95.7633
97.1553
98.5621
99.9653
101.332
102.604
103.65
104.265
39.456
45.8965
51.0215
56.2943
61.1441
65.2824
68.7093
71.5543
73.9461
75.9855
77.7471
79.2807
80.6275
81.8255
82.915
83.9383
84.9348
85.9345
86.9654
88.0432
89.1773
90.3696
91.616
92.9095
94.241
95.5988
96.9705
98.3381
99.6687
100.908
101.925
102.522
38.557
44.79
49.7113
54.8172
59.5907
63.7273
67.1901
70.0865
72.535
74.6236
76.4191
77.9771
79.3413
80.5526
81.6482
82.6695
83.6552
84.6422
85.655
86.7128
87.8245
88.9914
90.2107
91.4743
92.7729
94.0964
95.432
96.7624
98.0579
99.2629
100.252
100.831
37.6624
43.6805
48.3828
53.3049
57.9956
62.1396
65.6555
68.6135
71.1163
73.2526
75.094
76.6892
78.0819
79.3096
80.4126
81.4335
82.4152
83.3899
84.3889
85.4285
86.5183
87.6613
88.8525
90.086
91.3531
92.6432
93.9449
95.2417
96.5008
97.6739
98.6351
99.1967
36.6796
42.4882
46.9656
51.6928
56.2928
60.4449
64.0221
67.0602
69.6489
71.861
73.7537
75.3875
76.8098
78.0644
79.1876
80.2216
81.205
82.176
83.1629
84.1871
85.2582
86.3773
87.5436
88.7487
89.9829
91.2383
92.5033
93.7615
94.9874
96.1267
97.0595
97.6022
35.673
41.2645
45.4989
50.0026
54.4922
58.6587
62.3274
65.4736
68.1481
70.428
72.391
74.0851
75.5573
76.8443
77.9878
79.0316
80.0213
80.9889
81.9704
82.9818
84.0341
85.1324
86.2703
87.4442
88.6471
89.8681
91.0984
92.3237
93.5112
94.6197
95.5248
96.0503
34.5067
39.8977
43.884
48.151
52.516
56.6897
60.448
63.7155
66.5284
68.9378
70.9852
72.7426
74.2618
75.5932
76.7746
77.8485
78.8524
79.828
80.8048
81.8064
82.8442
83.9191
85.0345
86.181
87.3496
88.5347
89.7263
90.9107
92.0661
93.1402
94.0168
94.5219
33.279
38.4645
42.1757
46.1555
50.3444
54.5123
58.4092
61.8714
64.8378
67.3545
69.5183
71.3713
72.9723
74.3598
75.5797
76.6759
77.6981
78.6786
79.6582
80.6528
81.675
82.7336
83.82
84.9338
86.0705
87.2201
88.3777
89.53
90.6443
91.6872
92.5359
93.0245
31.7792
36.7795
40.2103
43.888
47.8864
52.0372
56.0465
59.6817
62.8815
65.638
67.9464
69.9124
71.5934
73.0527
74.334
75.4838
76.5376
77.542
78.526
79.5171
80.53
81.5648
82.6312
83.7191
84.8193
85.9307
87.0458
88.1529
89.2362
90.2444
91.0628
91.5287
30.134
34.9536
38.0767
41.3642
45.0386
49.0803
53.2707
57.2739
60.7715
63.713
66.2476
68.3799
70.1958
71.7487
73.097
74.2868
75.3748
76.3939
77.3915
78.384
79.3847
80.4084
81.4441
82.4954
83.5626
84.6364
85.7165
86.7919
87.8299
88.8049
89.5948
90.0459
27.9679
32.6439
35.4589
38.3544
41.7352
45.7089
49.981
54.1594
58.0691
61.5235
64.3138
66.6577
68.6249
70.3034
71.7503
73.0286
74.1736
75.2399
76.2542
77.2495
78.2474
79.2466
80.2648
81.292
82.3177
83.3482
84.3809
85.4059
86.4103
87.3503
88.1071
88.5295
25.3519
29.9632
32.4884
34.8545
37.5605
41.0479
45.5538
50.5528
55.066
58.7845
62.0912
64.7743
66.9888
68.8306
70.3976
71.744
72.9461
74.0386
75.0808
76.0913
77.0809
78.073
79.0569
80.0401
81.03
82.0195
83.0132
84.0035
84.9613
85.8623
86.5887
87.0005
21.5768
26.2275
28.4275
30.2789
32.5883
35.9931
40.1574
44.936
50.308
55.5282
59.3326
62.4695
65.0039
67.0926
68.8284
70.3272
71.6279
72.8054
73.8817
74.8988
75.8928
76.8615
77.8295
78.79
79.7308
80.6668
81.6063
82.5399
83.4526
84.3196
85.0068
85.3791
15.3989
20.9785
23.569
25.0617
26.1009
28.0966
33.308
40.0196
46.0922
50.7137
55.9067
59.7964
62.8492
65.2576
67.2342
68.8498
70.2463
71.4644
72.59
73.6466
74.6375
75.5979
76.5261
77.4298
78.3259
79.2157
80.1072
80.9988
81.8709
82.6858
83.3409
83.7074
7.2133
11.8405
12.7374
12.1138
10.5577
3.19908
20.4939
18.3909
31.9691
44.7455
50.8041
56.0655
59.9232
62.8927
65.1832
67.0995
68.6778
70.0502
71.2382
72.3006
73.3042
74.2473
75.1568
76.0376
76.8741
77.6909
78.5173
79.3423
80.1372
80.9254
81.5263
81.838
11.1873
13.1123
14.4781
15.0752
14.6052
13.6693
12.1468
9.70675
17.9398
30.6802
44.7368
51.3614
56.5428
60.2484
63.1196
65.2355
66.9815
68.419
69.6925
70.8386
71.8448
72.765
73.631
74.4319
75.2015
75.961
76.7219
77.4935
78.2716
78.9728
79.5437
79.8554
13.6676
18.2311
19.8222
20.8195
20.0525
19.2997
21.4864
21.1622
20.0674
20.3832
31.1085
44.6074
51.3253
56.4403
59.9217
62.7598
64.8941
66.6344
68.0228
69.1687
70.2035
71.1276
71.9518
72.7274
73.4186
74.0686
74.7429
75.4252
76.0511
76.7544
77.233
77.4642
20.6964
25.2762
27.2976
28.2346
28.1632
26.7235
24.5027
25.1391
20.9943
17.0884
25.6113
25.8649
44.2924
51.7576
56.9868
60.1158
62.5559
64.4076
65.962
67.2763
68.3106
69.1551
69.9565
70.6015
71.1789
71.7424
72.314
72.9305
73.6011
74.1302
74.5956
74.8255
22.2516
27.3269
30.1333
32.2816
33.6817
34.2014
33.531
31.3712
28.1889
21.2855
21.5258
25.5605
29.7925
44.0583
50.5873
55.9268
59.3401
61.8679
63.6398
64.9355
66.0476
66.9741
67.6275
68.2508
68.6964
69.0706
69.5122
69.9813
70.328
70.9411
71.2088
71.3209
23.0125
28.1231
31.0795
33.4948
35.3377
36.5912
37.2143
37.0583
35.7017
32.1966
26.8348
28.1603
29.1919
34.4072
46.7349
51.6396
55.6545
58.3482
60.4892
62.1457
63.2017
63.8355
64.6056
64.9524
65.1894
65.4024
65.64
66.0484
66.5884
66.8404
67.1773
67.1974
22.3577
27.6187
30.7422
33.3905
35.5328
37.168
38.3109
38.9792
39.129
38.3464
35.1429
27.9585
30.5102
12.8719
28.9895
43.1418
49.7448
54.278
56.8188
58.3493
59.6438
60.6574
60.8533
61.2554
61.1867
60.9729
61.0169
61.1087
60.891
61.4452
61.2167
61.1134
21.0032
26.3952
29.6114
32.3873
34.6983
36.5491
37.9688
39.0093
39.7337
40.1436
39.8769
37.6651
32.0378
21.6075
8.69338
32.6077
43.4308
47.6778
51.1932
53.6181
54.5449
54.4085
55.4002
54.9499
54.5213
53.9324
53.5727
53.5113
53.8901
54.2551
54.6941
53.0717
19.2178
24.696
27.9341
30.7502
33.1351
35.1016
36.6813
37.9391
38.9705
39.8557
40.5301
40.4549
37.7708
31.9255
28.1344
11.3569
28.0779
40.9384
44.8202
46.5394
48.328
50.0573
48.3203
48.8612
47.7151
45.5039
43.7393
44.4064
42.7612
42.2625
39.9526
40.6187
17.2653
22.7099
25.8598
28.6014
30.9488
32.9303
34.5807
35.9644
37.1864
38.3503
39.4826
40.343
39.9802
36.2354
31.3375
14.3399
29.9336
26.3429
33.2488
37.466
36.8914
34.4692
36.4777
31.9315
29.6746
24.2697
37.3621
21.4683
20.3056
45.3346
41.3334
35.8708
15.4332
20.734
23.7117
26.2941
28.5201
30.4306
32.0661
33.4873
34.8012
36.1144
37.4857
38.8263
39.6124
38.4384
32.4517
28.4592
25.4933
27.5788
13.0835
19.6226
23.0436
18.9913
30.9658
23.4225
30.2847
30.4352
40.5616
21.8264
19.0407
45.3911
42.5554
35.8321
13.9263
19.0264
21.7977
24.1828
26.2427
28.0289
29.5868
30.9744
32.2888
33.6329
35.0949
36.6789
38.1119
38.5014
36.056
30.6437
18.2373
19.3286
13.0019
24.7475
15.5671
33.2642
41.2207
29.1669
36.8366
33.4418
39.4193
36.1529
32.5813
40.6706
32.2331
32.6915
12.7398
17.6431
20.2203
22.416
24.3094
25.9602
27.419
28.7422
30.0112
31.3138
32.7517
34.4082
36.1983
37.6237
37.5261
34.3971
28.0568
23.5811
20.6219
31.7883
22.5586
26.7529
37.8471
27.8509
30.4429
37.2051
36.8586
37.7527
40.253
37.8947
40.6701
44.5543
11.8288
16.5553
18.9669
21.0018
22.753
24.286
25.654
26.9108
28.1224
29.3601
30.7228
32.3316
34.2239
36.153
37.4545
37.2553
35.4525
31.2921
30.0015
29.1144
31.1469
30.9112
36.6099
39.0179
39.7456
44.6309
44.6482
43.4151
45.5276
45.0025
47.0156
48.2397
11.167
15.7262
18.0088
19.9203
21.5638
23.0079
24.3058
25.5065
26.6621
27.8311
29.1057
30.6165
32.4668
34.5804
36.5594
37.8113
38.1402
37.2256
36.9069
36.6284
38.7547
39.0206
41.9544
43.1622
43.6813
46.3741
46.6466
45.3936
46.8806
47.0281
48.5766
49.0541
10.6435
15.1144
17.3057
19.1322
20.7044
22.0918
23.3449
24.5057
25.6134
26.7178
27.902
29.2887
31.0051
33.0846
35.329
37.2941
38.5978
39.0291
39.3749
39.7622
41.0775
41.6537
43.3231
44.2706