/*--------------------------------*- C++ -*----------------------------------*\
  =========                 |
  \\      /  F ield         | OpenFOAM: The Open Source CFD Toolbox
   \\    /   O peration     | Website:  https://openfoam.org
    \\  /    A nd           | Version:  6
     \\/     M anipulation  |
\*---------------------------------------------------------------------------*/
FoamFile
{
    version     2.0;
    format      ascii;
    class       volScalarField;
    location    "40";
    object      p;
}
// * * * * * * * * * * * * * * * * * * * * * * * * * * * * * * * * * * * * * //

dimensions      [0 2 -2 0 0 0 0];

internalField   nonuniform List<scalar> 
3240
(
-8.72239e-18
-1.89002e-08
-2.24463e-09
-3.08582e-10
-1.88816e-08
-2.2747e-09
-4.56652e-10
-1.88746e-08
-2.2489e-09
-4.96392e-10
-1.88033e-08
-2.2972e-09
-5.56479e-10
-1.86907e-08
-2.35984e-09
-6.27587e-10
-1.8539e-08
-2.46449e-09
-7.5737e-10
-1.82953e-08
-2.58573e-09
-9.48954e-10
-1.80003e-08
-2.69774e-09
-1.1997e-09
-1.75659e-08
-2.89248e-09
-1.39795e-09
-1.70976e-08
-3.17647e-09
-1.52086e-09
-1.66942e-08
-3.48208e-09
-1.64877e-09
-1.63265e-08
-3.73687e-09
-1.83873e-09
-1.5989e-08
-3.90129e-09
-2.08371e-09
-1.56722e-08
-3.98757e-09
-2.30787e-09
-1.54277e-08
-4.01427e-09
-2.31209e-09
-1.54684e-08
-4.01727e-09
-2.10005e-09
-1.57695e-08
-3.98335e-09
-1.60873e-09
-1.58991e-08
-3.66558e-09
-2.60252e-11
-1.49638e-08
-2.10727e-09
-3.83097e-09
-1.89052e-08
-5.72246e-09
-2.0708e-09
-1.7827e-08
-3.82656e-09
-1.63735e-09
-1.80572e-08
-3.32759e-09
-1.34166e-09
-1.84495e-08
-3.11521e-09
-1.14752e-09
-1.87827e-08
-2.94062e-09
-1.02646e-09
-1.90456e-08
-2.77991e-09
-9.70432e-10
-1.91987e-08
-2.66063e-09
-9.20943e-10
-1.93121e-08
-2.59938e-09
-8.97467e-10
-1.93751e-08
-2.55789e-09
-8.62703e-10
-1.93753e-08
-2.59127e-09
-8.7409e-10
-1.93833e-08
-2.57061e-09
-2.44911e-11
-1.89021e-08
-2.2421e-09
-3.08239e-10
-1.8883e-08
-2.27356e-09
-4.56196e-10
-1.88759e-08
-2.24792e-09
-4.95907e-10
-1.88046e-08
-2.2964e-09
-5.55818e-10
-1.86919e-08
-2.3593e-09
-6.26652e-10
-1.85401e-08
-2.46425e-09
-7.56153e-10
-1.82965e-08
-2.58571e-09
-9.4759e-10
-1.80015e-08
-2.69788e-09
-1.19844e-09
-1.75675e-08
-2.89217e-09
-1.39686e-09
-1.70993e-08
-3.17588e-09
-1.52021e-09
-1.66958e-08
-3.48111e-09
-1.64928e-09
-1.63275e-08
-3.73532e-09
-1.8401e-09
-1.59896e-08
-3.89926e-09
-2.08554e-09
-1.56728e-08
-3.98516e-09
-2.30981e-09
-1.54285e-08
-4.01157e-09
-2.31404e-09
-1.54692e-08
-4.01457e-09
-2.10188e-09
-1.57701e-08
-3.98096e-09
-1.61e-09
-1.58997e-08
-3.66348e-09
-3.61694e-11
-1.49739e-08
-2.11528e-09
-3.81913e-09
-1.88966e-08
-5.71048e-09
-2.06982e-09
-1.78288e-08
-3.8261e-09
-1.63597e-09
-1.80587e-08
-3.32714e-09
-1.34027e-09
-1.8451e-08
-3.11509e-09
-1.14631e-09
-1.87839e-08
-2.94053e-09
-1.02558e-09
-1.90466e-08
-2.77968e-09
-9.69817e-10
-1.91998e-08
-2.66015e-09
-9.2049e-10
-1.93133e-08
-2.59859e-09
-8.97116e-10
-1.93764e-08
-2.5569e-09
-8.62436e-10
-1.93767e-08
-2.59011e-09
-8.74771e-10
-1.93854e-08
-2.56787e-09
-6.72437e-11
-1.89032e-08
-2.24038e-09
-3.08171e-10
-1.88848e-08
-2.27159e-09
-4.56009e-10
-1.88777e-08
-2.24622e-09
-4.95566e-10
-1.88065e-08
-2.29488e-09
-5.55073e-10
-1.86939e-08
-2.35805e-09
-6.2541e-10
-1.85421e-08
-2.46335e-09
-7.54448e-10
-1.82988e-08
-2.58507e-09
-9.45665e-10
-1.80036e-08
-2.6977e-09
-1.19666e-09
-1.75703e-08
-2.89113e-09
-1.39542e-09
-1.71022e-08
-3.17433e-09
-1.51958e-09
-1.66984e-08
-3.47904e-09
-1.65062e-09
-1.63288e-08
-3.73261e-09
-1.8429e-09
-1.599e-08
-3.89612e-09
-2.08918e-09
-1.56727e-08
-3.98151e-09
-2.31371e-09
-1.54287e-08
-4.00746e-09
-2.31797e-09
-1.54694e-08
-4.01048e-09
-2.10557e-09
-1.57703e-08
-3.97736e-09
-1.6126e-09
-1.59e-08
-3.66011e-09
-5.98647e-11
-1.4996e-08
-2.13463e-09
-3.79262e-09
-1.88756e-08
-5.68294e-09
-2.06865e-09
-1.78321e-08
-3.82488e-09
-1.6339e-09
-1.80613e-08
-3.32577e-09
-1.33831e-09
-1.84537e-08
-3.11425e-09
-1.14464e-09
-1.87864e-08
-2.93974e-09
-1.02445e-09
-1.90484e-08
-2.77883e-09
-9.69173e-10
-1.92017e-08
-2.65904e-09
-9.20216e-10
-1.9315e-08
-2.5971e-09
-8.97135e-10
-1.93781e-08
-2.55518e-09
-8.6259e-10
-1.93786e-08
-2.5881e-09
-8.75487e-10
-1.93866e-08
-2.56585e-09
-1.08406e-10
-1.89025e-08
-2.24071e-09
-3.08811e-10
-1.8886e-08
-2.26933e-09
-4.56641e-10
-1.88788e-08
-2.24423e-09
-4.9598e-10
-1.88081e-08
-2.29287e-09
-5.54881e-10
-1.86961e-08
-2.35606e-09
-6.24611e-10
-1.85447e-08
-2.46145e-09
-7.53124e-10
-1.8302e-08
-2.58322e-09
-9.44097e-10
-1.80062e-08
-2.69675e-09
-1.19513e-09
-1.75739e-08
-2.88898e-09
-1.3944e-09
-1.71061e-08
-3.17147e-09
-1.51971e-09
-1.67016e-08
-3.47574e-09
-1.65318e-09
-1.63297e-08
-3.72918e-09
-1.84728e-09
-1.59888e-08
-3.89287e-09
-2.09472e-09
-1.56707e-08
-3.97797e-09
-2.31973e-09
-1.54267e-08
-4.00342e-09
-2.32403e-09
-1.54674e-08
-4.00648e-09
-2.11121e-09
-1.57685e-08
-3.97389e-09
-1.61668e-09
-1.58986e-08
-3.65648e-09
-9.76347e-11
-1.50295e-08
-2.16574e-09
-3.75193e-09
-1.88416e-08
-5.63944e-09
-2.06813e-09
-1.78364e-08
-3.82257e-09
-1.63194e-09
-1.80646e-08
-3.32309e-09
-1.33677e-09
-1.84573e-08
-3.11208e-09
-1.14338e-09
-1.87896e-08
-2.93767e-09
-1.02383e-09
-1.90506e-08
-2.77704e-09
-9.69148e-10
-1.92036e-08
-2.65727e-09
-9.20759e-10
-1.93163e-08
-2.59518e-09
-8.98174e-10
-1.9379e-08
-2.55318e-09
-8.63752e-10
-1.93797e-08
-2.58578e-09
-8.75964e-10
-1.93861e-08
-2.56576e-09
-1.41467e-10
-1.89011e-08
-2.24167e-09
-3.10108e-10
-1.88865e-08
-2.26694e-09
-4.57959e-10
-1.88791e-08
-2.2421e-09
-4.9707e-10
-1.88094e-08
-2.29046e-09
-5.55171e-10
-1.86985e-08
-2.35341e-09
-6.24164e-10
-1.85476e-08
-2.45865e-09
-7.52088e-10
-1.83059e-08
-2.58032e-09
-9.42781e-10
-1.80091e-08
-2.69513e-09
-1.19375e-09
-1.75784e-08
-2.88584e-09
-1.39367e-09
-1.71108e-08
-3.1674e-09
-1.52045e-09
-1.67052e-08
-3.47132e-09
-1.6568e-09
-1.63301e-08
-3.72508e-09
-1.85311e-09
-1.59862e-08
-3.88951e-09
-2.10203e-09
-1.56668e-08
-3.97449e-09
-2.32773e-09
-1.54227e-08
-3.99942e-09
-2.33211e-09
-1.54633e-08
-4.00252e-09
-2.11867e-09
-1.5765e-08
-3.9705e-09
-1.62211e-09
-1.58958e-08
-3.65253e-09
-1.49147e-10
-1.50743e-08
-2.20853e-09
-3.69712e-09
-1.87947e-08
-5.58031e-09
-2.06815e-09
-1.78419e-08
-3.81932e-09
-1.62997e-09
-1.80686e-08
-3.31919e-09
-1.33552e-09
-1.84618e-08
-3.10872e-09
-1.14246e-09
-1.87937e-08
-2.93445e-09
-1.02362e-09
-1.90531e-08
-2.77444e-09
-9.69667e-10
-1.92056e-08
-2.65496e-09
-9.22024e-10
-1.93172e-08
-2.59291e-09
-9.00118e-10
-1.93792e-08
-2.55105e-09
-8.65803e-10
-1.938e-08
-2.58332e-09
-8.76511e-10
-1.93852e-08
-2.56608e-09
-1.68541e-10
-1.88995e-08
-2.24274e-09
-3.12081e-10
-1.88863e-08
-2.26452e-09
-4.59819e-10
-1.88789e-08
-2.23988e-09
-4.98733e-10
-1.88106e-08
-2.28772e-09
-5.55845e-10
-1.87011e-08
-2.35017e-09
-6.23955e-10
-1.85511e-08
-2.45505e-09
-7.51203e-10
-1.83106e-08
-2.57649e-09
-9.41559e-10
-1.80125e-08
-2.69296e-09
-1.19235e-09
-1.75838e-08
-2.88181e-09
-1.39307e-09
-1.71164e-08
-3.16225e-09
-1.52161e-09
-1.67095e-08
-3.46586e-09
-1.66131e-09
-1.63303e-08
-3.72034e-09
-1.86026e-09
-1.59825e-08
-3.88597e-09
-2.11096e-09
-1.56613e-08
-3.97101e-09
-2.3376e-09
-1.54168e-08
-3.99533e-09
-2.34209e-09
-1.54575e-08
-3.99847e-09
-2.1278e-09
-1.576e-08
-3.96713e-09
-1.62871e-09
-1.58918e-08
-3.64818e-09
-2.12676e-10
-1.5129e-08
-2.26145e-09
-3.62985e-09
-1.87366e-08
-5.50743e-09
-2.06855e-09
-1.78486e-08
-3.81525e-09
-1.62782e-09
-1.80733e-08
-3.31416e-09
-1.3344e-09
-1.8467e-08
-3.10428e-09
-1.14172e-09
-1.87985e-08
-2.93021e-09
-1.02373e-09
-1.90559e-08
-2.77111e-09
-9.70632e-10
-1.92077e-08
-2.65218e-09
-9.23905e-10
-1.93177e-08
-2.59038e-09
-9.02837e-10
-1.93786e-08
-2.54885e-09
-8.686e-10
-1.93796e-08
-2.5808e-09
-8.77218e-10
-1.93841e-08
-2.56633e-09
-1.93116e-10
-1.88978e-08
-2.24385e-09
-3.14884e-10
-1.88854e-08
-2.26222e-09
-4.62146e-10
-1.88779e-08
-2.23769e-09
-5.00949e-10
-1.88114e-08
-2.28476e-09
-5.56899e-10
-1.87039e-08
-2.34642e-09
-6.23981e-10
-1.8555e-08
-2.45068e-09
-7.50464e-10
-1.8316e-08
-2.57179e-09
-9.40414e-10
-1.80164e-08
-2.69018e-09
-1.19091e-09
-1.759e-08
-2.87693e-09
-1.39254e-09
-1.71231e-08
-3.15604e-09
-1.52311e-09
-1.67144e-08
-3.45943e-09
-1.6666e-09
-1.63303e-08
-3.71503e-09
-1.86853e-09
-1.59778e-08
-3.88235e-09
-2.12133e-09
-1.56542e-08
-3.96763e-09
-2.34914e-09
-1.54093e-08
-3.99128e-09
-2.35375e-09
-1.54499e-08
-3.99448e-09
-2.13844e-09
-1.57536e-08
-3.9639e-09
-1.63632e-09
-1.58865e-08
-3.64355e-09
-2.87381e-10
-1.5193e-08
-2.32388e-09
-3.55094e-09
-1.86684e-08
-5.42173e-09
-2.06927e-09
-1.78565e-08
-3.81038e-09
-1.62546e-09
-1.80788e-08
-3.308e-09
-1.3334e-09
-1.84732e-08
-3.09879e-09
-1.14117e-09
-1.88041e-08
-2.92498e-09
-1.02413e-09
-1.9059e-08
-2.76709e-09
-9.72026e-10
-1.92098e-08
-2.64898e-09
-9.26365e-10
-1.93177e-08
-2.58768e-09
-9.06271e-10
-1.93772e-08
-2.5467e-09
-8.72072e-10
-1.93784e-08
-2.57837e-09
-8.78064e-10
-1.93829e-08
-2.56655e-09
-2.15627e-10
-1.88959e-08
-2.24501e-09
-3.18724e-10
-1.88836e-08
-2.26018e-09
-4.64881e-10
-1.88762e-08
-2.23567e-09
-5.03715e-10
-1.88118e-08
-2.28169e-09
-5.58364e-10
-1.87067e-08
-2.34221e-09
-6.24288e-10
-1.85594e-08
-2.44558e-09
-7.49935e-10
-1.8322e-08
-2.56621e-09
-9.39401e-10
-1.80209e-08
-2.68673e-09
-1.18946e-09
-1.75971e-08
-2.87121e-09
-1.39207e-09
-1.71306e-08
-3.14881e-09
-1.5249e-09
-1.67199e-08
-3.45208e-09
-1.67253e-09
-1.63301e-08
-3.70926e-09
-1.87772e-09
-1.5972e-08
-3.87885e-09
-2.13296e-09
-1.56456e-08
-3.9645e-09
-2.36212e-09
-1.54e-08
-3.98753e-09
-2.36689e-09
-1.54406e-08
-3.9908e-09
-2.1504e-09
-1.57457e-08
-3.96096e-09
-1.64473e-09
-1.58801e-08
-3.63883e-09
-3.71752e-10
-1.52651e-08
-2.39457e-09
-3.46196e-09
-1.85913e-08
-5.32488e-09
-2.07023e-09
-1.78655e-08
-3.80468e-09
-1.62291e-09
-1.8085e-08
-3.30072e-09
-1.33255e-09
-1.84801e-08
-3.09223e-09
-1.14087e-09
-1.88104e-08
-2.91878e-09
-1.02488e-09
-1.90623e-08
-2.7624e-09
-9.73871e-10
-1.92118e-08
-2.64544e-09
-9.29396e-10
-1.93172e-08
-2.58494e-09
-9.10379e-10
-1.93749e-08
-2.54476e-09
-8.76169e-10
-1.93764e-08
-2.57617e-09
-8.79043e-10
-1.93816e-08
-2.5668e-09
-2.36518e-10
-1.88938e-08
-2.24622e-09
-3.23812e-10
-1.8881e-08
-2.25846e-09
-4.6796e-10
-1.88735e-08
-2.23397e-09
-5.07023e-10
-1.88117e-08
-2.27864e-09
-5.60275e-10
-1.87094e-08
-2.33762e-09
-6.24931e-10
-1.85641e-08
-2.43976e-09
-7.49689e-10
-1.83287e-08
-2.55976e-09
-9.38589e-10
-1.80259e-08
-2.68251e-09
-1.18801e-09
-1.7605e-08
-2.86466e-09
-1.39165e-09
-1.71391e-08
-3.14059e-09
-1.52691e-09
-1.6726e-08
-3.44385e-09
-1.67896e-09
-1.63297e-08
-3.70314e-09
-1.88766e-09
-1.59652e-08
-3.87558e-09
-2.14569e-09
-1.56355e-08
-3.96179e-09
-2.37638e-09
-1.5389e-08
-3.98421e-09
-2.38134e-09
-1.54295e-08
-3.98756e-09
-2.16351e-09
-1.57364e-08
-3.95847e-09
-1.65383e-09
-1.58727e-08
-3.63419e-09
-4.64185e-10
-1.5344e-08
-2.47219e-09
-3.36459e-09
-1.85071e-08
-5.21863e-09
-2.07134e-09
-1.78756e-08
-3.79808e-09
-1.62022e-09
-1.80918e-08
-3.29233e-09
-1.33193e-09
-1.84877e-08
-3.08457e-09
-1.14089e-09
-1.88173e-08
-2.91159e-09
-1.02602e-09
-1.90659e-08
-2.75704e-09
-9.76188e-10
-1.92137e-08
-2.64161e-09
-9.32985e-10
-1.9316e-08
-2.58229e-09
-9.15107e-10
-1.93717e-08
-2.54318e-09
-8.80841e-10
-1.93734e-08
-2.57425e-09
-8.80156e-10
-1.938e-08
-2.5671e-09
-2.5602e-10
-1.88916e-08
-2.24747e-09
-3.30323e-10
-1.88775e-08
-2.25714e-09
-4.71322e-10
-1.88699e-08
-2.23273e-09
-5.10852e-10
-1.8811e-08
-2.27573e-09
-5.6267e-10
-1.87121e-08
-2.33271e-09
-6.25972e-10
-1.8569e-08
-2.43325e-09
-7.49809e-10
-1.83358e-08
-2.55243e-09
-9.38057e-10
-1.80315e-08
-2.67744e-09
-1.18663e-09
-1.76137e-08
-2.85725e-09
-1.39126e-09
-1.71485e-08
-3.1314e-09
-1.52909e-09
-1.67328e-08
-3.4348e-09
-1.68574e-09
-1.63292e-08
-3.6968e-09
-1.89812e-09
-1.59574e-08
-3.8727e-09
-2.15927e-09
-1.56239e-08
-3.95971e-09
-2.39172e-09
-1.53763e-08
-3.98154e-09
-2.3969e-09
-1.54167e-08
-3.98498e-09
-2.17751e-09
-1.57258e-08
-3.95661e-09
-1.66347e-09
-1.58643e-08
-3.62985e-09
-5.6313e-10
-1.54285e-08
-2.55552e-09
-3.26042e-09
-1.84172e-08
-5.10464e-09
-2.07245e-09
-1.78866e-08
-3.79045e-09
-1.61749e-09
-1.80994e-08
-3.28283e-09
-1.3316e-09
-1.8496e-08
-3.07578e-09
-1.1413e-09
-1.88247e-08
-2.90341e-09
-1.02762e-09
-1.90696e-08
-2.75104e-09
-9.78999e-10
-1.92152e-08
-2.63757e-09
-9.37112e-10
-1.93141e-08
-2.57985e-09
-9.20381e-10
-1.93673e-08
-2.54208e-09
-8.8603e-10
-1.93695e-08
-2.57271e-09
-8.81407e-10
-1.93783e-08
-2.56746e-09
-2.74208e-10
-1.88893e-08
-2.24876e-09
-3.38379e-10
-1.88731e-08
-2.2563e-09
-4.74923e-10
-1.88653e-08
-2.23205e-09
-5.15174e-10
-1.88095e-08
-2.27309e-09
-5.65594e-10
-1.87144e-08
-2.32757e-09
-6.27491e-10
-1.85741e-08
-2.42607e-09
-7.50395e-10
-1.83433e-08
-2.5442e-09
-9.37908e-10
-1.80377e-08
-2.67137e-09
-1.18536e-09
-1.76232e-08
-2.84897e-09
-1.3909e-09
-1.71589e-08
-3.12127e-09
-1.53137e-09
-1.67402e-08
-3.42499e-09
-1.69266e-09
-1.63286e-08
-3.69037e-09
-1.90881e-09
-1.59488e-08
-3.87042e-09
-2.17342e-09
-1.56108e-08
-3.95845e-09
-2.40785e-09
-1.53619e-08
-3.97976e-09
-2.41328e-09
-1.54023e-08
-3.9833e-09
-2.19211e-09
-1.57137e-08
-3.95559e-09
-1.67345e-09
-1.58552e-08
-3.62612e-09
-6.67039e-10
-1.55173e-08
-2.64336e-09
-3.151e-09
-1.83231e-08
-4.98458e-09
-2.07337e-09
-1.78982e-08
-3.78161e-09
-1.61481e-09
-1.81077e-08
-3.27223e-09
-1.33166e-09
-1.85049e-08
-3.06579e-09
-1.14222e-09
-1.88326e-08
-2.89424e-09
-1.02973e-09
-1.90735e-08
-2.74439e-09
-9.82336e-10
-1.92164e-08
-2.63337e-09
-9.41755e-10
-1.93112e-08
-2.57776e-09
-9.26121e-10
-1.93619e-08
-2.54159e-09
-8.91675e-10
-1.93648e-08
-2.57162e-09
-8.82796e-10
-1.93763e-08
-2.56792e-09
-2.91145e-10
-1.88868e-08
-2.25008e-09
-3.48012e-10
-1.88678e-08
-2.25593e-09
-4.78749e-10
-1.88597e-08
-2.23204e-09
-5.19959e-10
-1.88071e-08
-2.27084e-09
-5.69109e-10
-1.87164e-08
-2.3223e-09
-6.29585e-10
-1.85792e-08
-2.41824e-09
-7.5157e-10
-1.83512e-08
-2.53503e-09
-9.38267e-10
-1.80445e-08
-2.66418e-09
-1.18428e-09
-1.76333e-08
-2.83979e-09
-1.39058e-09
-1.71701e-08
-3.1102e-09
-1.53368e-09
-1.67483e-08
-3.4145e-09
-1.69938e-09
-1.6328e-08
-3.68415e-09
-1.91937e-09
-1.59396e-08
-3.8689e-09
-2.18778e-09
-1.55965e-08
-3.95825e-09
-2.42445e-09
-1.53458e-08
-3.97916e-09
-2.43016e-09
-1.53862e-08
-3.98281e-09
-2.20692e-09
-1.57005e-08
-3.95561e-09
-1.68357e-09
-1.58456e-08
-3.62331e-09
-7.7433e-10
-1.56094e-08
-2.73453e-09
-3.03785e-09
-1.82262e-08
-4.86007e-09
-2.07387e-09
-1.79104e-08
-3.77132e-09
-1.61232e-09
-1.81167e-08
-3.26059e-09
-1.33222e-09
-1.85144e-08
-3.05454e-09
-1.14375e-09
-1.88407e-08
-2.88402e-09
-1.03245e-09
-1.90773e-08
-2.73712e-09
-9.8624e-10
-1.92171e-08
-2.62911e-09
-9.46892e-10
-1.93074e-08
-2.57613e-09
-9.32239e-10
-1.93553e-08
-2.54181e-09
-8.97708e-10
-1.93591e-08
-2.57099e-09
-8.84318e-10
-1.9374e-08
-2.56848e-09
-3.06928e-10
-1.88843e-08
-2.2513e-09
-3.5916e-10
-1.8862e-08
-2.25591e-09
-4.82824e-10
-1.8853e-08
-2.23277e-09
-5.25186e-10
-1.88038e-08
-2.26911e-09
-5.73287e-10
-1.87177e-08
-2.31703e-09
-6.32368e-10
-1.85843e-08
-2.40977e-09
-7.5348e-10
-1.83594e-08
-2.52487e-09
-9.39285e-10
-1.80519e-08
-2.65573e-09
-1.1835e-09
-1.7644e-08
-2.8297e-09
-1.39034e-09
-1.7182e-08
-3.0983e-09
-1.53596e-09
-1.67569e-08
-3.40358e-09
-1.70552e-09
-1.63275e-08
-3.67836e-09
-1.92939e-09
-1.59301e-08
-3.86821e-09
-2.20181e-09
-1.55812e-08
-3.95936e-09
-2.44108e-09
-1.53283e-08
-3.98e-09
-2.44709e-09
-1.53686e-08
-3.98378e-09
-2.22139e-09
-1.56863e-08
-3.95689e-09
-1.69359e-09
-1.58361e-08
-3.62165e-09
-8.83283e-10
-1.57036e-08
-2.82809e-09
-2.92242e-09
-1.81277e-08
-4.73279e-09
-2.0737e-09
-1.79226e-08
-3.75939e-09
-1.61018e-09
-1.81264e-08
-3.24794e-09
-1.33343e-09
-1.85242e-08
-3.04195e-09
-1.14603e-09
-1.88492e-08
-2.87272e-09
-1.03588e-09
-1.9081e-08
-2.72921e-09
-9.9077e-10
-1.9217e-08
-2.6249e-09
-9.52517e-10
-1.93025e-08
-2.5751e-09
-9.38654e-10
-1.93477e-08
-2.54282e-09
-9.04054e-10
-1.93528e-08
-2.5707e-09
-8.85979e-10
-1.93717e-08
-2.56901e-09
-3.21687e-10
-1.88817e-08
-2.25242e-09
-3.71666e-10
-1.88556e-08
-2.25616e-09
-4.87173e-10
-1.88453e-08
-2.23432e-09
-5.30843e-10
-1.87992e-08
-2.26809e-09
-5.78209e-10
-1.87181e-08
-2.31196e-09
-6.35969e-10
-1.85892e-08
-2.40071e-09
-7.56289e-10
-1.83676e-08
-2.51366e-09
-9.41156e-10
-1.80599e-08
-2.64592e-09
-1.18313e-09
-1.76553e-08
-2.81869e-09
-1.39023e-09
-1.71945e-08
-3.08573e-09
-1.53798e-09
-1.67658e-08
-3.3925e-09
-1.71069e-09
-1.63274e-08
-3.67319e-09
-1.93867e-09
-1.59203e-08
-3.86852e-09
-2.21506e-09
-1.55653e-08
-3.96185e-09
-2.45708e-09
-1.53098e-08
-3.98243e-09
-2.46344e-09
-1.53501e-08
-3.98635e-09
-2.23503e-09
-1.56714e-08
-3.95949e-09
-1.70354e-09
-1.58268e-08
-3.62149e-09
-9.92016e-10
-1.57986e-08
-2.92326e-09
-2.80615e-09
-1.80289e-08
-4.60452e-09
-2.07256e-09
-1.79344e-08
-3.74561e-09
-1.60859e-09
-1.81368e-08
-3.23435e-09
-1.33546e-09
-1.85344e-08
-3.02796e-09
-1.14923e-09
-1.88577e-08
-2.8603e-09
-1.04015e-09
-1.90844e-08
-2.72071e-09
-9.95996e-10
-1.9216e-08
-2.62092e-09
-9.58631e-10
-1.92964e-08
-2.57485e-09
-9.45251e-10
-1.9339e-08
-2.54465e-09
-9.10644e-10
-1.9346e-08
-2.57067e-09
-8.87796e-10
-1.93692e-08
-2.56952e-09
-3.35585e-10
-1.8879e-08
-2.25356e-09
-3.85288e-10
-1.88488e-08
-2.25675e-09
-4.91701e-10
-1.88367e-08
-2.23683e-09
-5.36842e-10
-1.87932e-08
-2.26801e-09
-5.83966e-10
-1.87173e-08
-2.30724e-09
-6.40541e-10
-1.85937e-08
-2.39109e-09
-7.60176e-10
-1.83759e-08
-2.50137e-09
-9.44113e-10
-1.80681e-08
-2.63464e-09
-1.18332e-09
-1.76669e-08
-2.80679e-09
-1.3901e-09
-1.72074e-08
-3.07267e-09
-1.53912e-09
-1.67756e-08
-3.38141e-09
-1.71443e-09
-1.63278e-08
-3.66899e-09
-1.94695e-09
-1.59102e-08
-3.87007e-09
-2.22745e-09
-1.55486e-08
-3.96589e-09
-2.47204e-09
-1.52906e-08
-3.98656e-09
-2.47877e-09
-1.5331e-08
-3.99063e-09
-2.24774e-09
-1.56557e-08
-3.96352e-09
-1.71335e-09
-1.5818e-08
-3.62332e-09
-1.09873e-09
-1.58935e-08
-3.01895e-09
-2.69007e-09
-1.79319e-08
-4.47697e-09
-2.07007e-09
-1.79453e-08
-3.72979e-09
-1.60777e-09
-1.81477e-08
-3.2199e-09
-1.33855e-09
-1.85446e-08
-3.01253e-09
-1.15351e-09
-1.88662e-08
-2.84674e-09
-1.04539e-09
-1.90875e-08
-2.71165e-09
-1.002e-09
-1.92137e-08
-2.61733e-09
-9.6516e-10
-1.92888e-08
-2.5756e-09
-9.51786e-10
-1.93293e-08
-2.54747e-09
-9.17411e-10
-1.93387e-08
-2.571e-09
-8.89789e-10
-1.93664e-08
-2.57016e-09
-3.48801e-10
-1.88759e-08
-2.25482e-09
-3.99663e-10
-1.88414e-08
-2.25779e-09
-4.96429e-10
-1.88273e-08
-2.2403e-09
-5.42851e-10
-1.87861e-08
-2.26894e-09
-5.90553e-10
-1.87153e-08
-2.30303e-09
-6.46247e-10
-1.85976e-08
-2.381e-09
-7.65357e-10
-1.83839e-08
-2.48791e-09
-9.48195e-10
-1.80768e-08
-2.62181e-09
-1.18396e-09
-1.76788e-08
-2.79407e-09
-1.38913e-09
-1.72216e-08
-3.05925e-09
-1.53899e-09
-1.67867e-08
-3.3703e-09
-1.7164e-09
-1.63288e-08
-3.66589e-09
-1.95364e-09
-1.59002e-08
-3.8731e-09
-2.23883e-09
-1.55312e-08
-3.97169e-09
-2.48625e-09
-1.52704e-08
-3.99254e-09
-2.49339e-09
-1.53108e-08
-3.99676e-09
-2.25929e-09
-1.56392e-08
-3.96918e-09
-1.72262e-09
-1.58102e-08
-3.6277e-09
-1.20177e-09
-1.59873e-08
-3.11384e-09
-2.57538e-09
-1.78384e-08
-4.35181e-09
-2.06564e-09
-1.7955e-08
-3.7117e-09
-1.60774e-09
-1.81591e-08
-3.20472e-09
-1.34271e-09
-1.85549e-08
-2.99561e-09
-1.15907e-09
-1.88744e-08
-2.83197e-09
-1.05175e-09
-1.909e-08
-2.70208e-09
-1.00877e-09
-1.92101e-08
-2.61425e-09
-9.71791e-10
-1.92801e-08
-2.57742e-09
-9.58115e-10
-1.93189e-08
-2.55129e-09
-9.24232e-10
-1.93308e-08
-2.57176e-09
-8.91983e-10
-1.93631e-08
-2.57101e-09
-3.61521e-10
-1.88725e-08
-2.25622e-09
-4.14156e-10
-1.88337e-08
-2.25936e-09
-5.01594e-10
-1.88173e-08
-2.24451e-09
-5.48765e-10
-1.8778e-08
-2.27084e-09
-5.97562e-10
-1.87123e-08
-2.29942e-09
-6.53271e-10
-1.86006e-08
-2.37052e-09
-7.72034e-10
-1.83917e-08
-2.47322e-09
-9.5261e-10
-1.80868e-08
-2.60733e-09
-1.18401e-09
-1.76921e-08
-2.78058e-09
-1.38693e-09
-1.72372e-08
-3.04554e-09
-1.53773e-09
-1.67988e-08
-3.35928e-09
-1.71634e-09
-1.63306e-08
-3.664e-09
-1.9582e-09
-1.58906e-08
-3.87784e-09
-2.24855e-09
-1.55135e-08
-3.97946e-09
-2.49936e-09
-1.5249e-08
-4.00074e-09
-2.50694e-09
-1.52895e-08
-4.00512e-09
-2.26899e-09
-1.56222e-08
-3.97669e-09
-1.73113e-09
-1.58041e-08
-3.63506e-09
-1.29961e-09
-1.6079e-08
-3.20676e-09
-2.46367e-09
-1.77498e-08
-4.23067e-09
-2.05784e-09
-1.7964e-08
-3.69106e-09
-1.60788e-09
-1.81718e-08
-3.18896e-09
-1.34711e-09
-1.85663e-08
-2.97712e-09
-1.1661e-09
-1.88823e-08
-2.81595e-09
-1.05941e-09
-1.90915e-08
-2.69211e-09
-1.01591e-09
-1.92054e-08
-2.61178e-09
-9.78413e-10
-1.92703e-08
-2.58027e-09
-9.64325e-10
-1.93078e-08
-2.55586e-09
-9.30748e-10
-1.93227e-08
-2.5731e-09
-8.94402e-10
-1.93594e-08
-2.57214e-09
-3.7394e-10
-1.88686e-08
-2.25784e-09
-4.28326e-10
-1.88261e-08
-2.26132e-09
-5.07421e-10
-1.88068e-08
-2.24922e-09
-5.54781e-10
-1.87689e-08
-2.27363e-09
-6.04926e-10
-1.87082e-08
-2.29648e-09
-6.61776e-10
-1.86025e-08
-2.35977e-09
-7.80234e-10
-1.83992e-08
-2.45728e-09
-9.57031e-10
-1.80986e-08
-2.59107e-09
-1.18327e-09
-1.77069e-08
-2.76638e-09
-1.38401e-09
-1.72538e-08
-3.03167e-09
-1.53519e-09
-1.68119e-08
-3.34857e-09
-1.71408e-09
-1.63334e-08
-3.66334e-09
-1.96024e-09
-1.58817e-08
-3.88446e-09
-2.25593e-09
-1.54958e-08
-3.98961e-09
-2.51036e-09
-1.52271e-08
-4.01167e-09
-2.51837e-09
-1.52676e-08
-4.01623e-09
-2.27612e-09
-1.5605e-08
-3.98644e-09
-1.73873e-09
-1.58002e-08
-3.64584e-09
-1.39075e-09
-1.61675e-08
-3.29647e-09
-2.3562e-09
-1.76671e-08
-4.11532e-09
-2.04588e-09
-1.79723e-08
-3.66765e-09
-1.60761e-09
-1.81861e-08
-3.17266e-09
-1.35141e-09
-1.85791e-08
-2.95701e-09
-1.1746e-09
-1.88897e-08
-2.79871e-09
-1.06851e-09
-1.9092e-08
-2.68187e-09
-1.02337e-09
-1.91997e-08
-2.60996e-09
-9.85183e-10
-1.92596e-08
-2.58403e-09
-9.70523e-10
-1.92961e-08
-2.56097e-09
-9.3678e-10
-1.93146e-08
-2.57496e-09
-8.97094e-10
-1.93551e-08
-2.5736e-09
-3.86246e-10
-1.8864e-08
-2.25973e-09
-4.42081e-10
-1.88186e-08
-2.26346e-09
-5.14126e-10
-1.87958e-08
-2.25414e-09
-5.61049e-10
-1.87587e-08
-2.27713e-09
-6.13149e-10
-1.87026e-08
-2.29423e-09
-6.70942e-10
-1.86038e-08
-2.34896e-09
-7.90071e-10
-1.84062e-08
-2.4402e-09
-9.6225e-10
-1.81113e-08
-2.57304e-09
-1.18263e-09
-1.77221e-08
-2.75159e-09
-1.38023e-09
-1.72709e-08
-3.01803e-09
-1.53099e-09
-1.68259e-08
-3.33855e-09
-1.70955e-09
-1.63373e-08
-3.66377e-09
-1.95916e-09
-1.58737e-08
-3.89328e-09
-2.2606e-09
-1.54782e-08
-4.00228e-09
-2.51873e-09
-1.52049e-08
-4.02555e-09
-2.52718e-09
-1.52455e-08
-4.0303e-09
-2.28027e-09
-1.55877e-08
-3.99856e-09
-1.74506e-09
-1.57988e-08
-3.66064e-09
-1.4739e-09
-1.62518e-08
-3.38163e-09
-2.2541e-09
-1.75916e-08
-4.0075e-09
-2.0301e-09
-1.79789e-08
-3.64154e-09
-1.60733e-09
-1.82016e-08
-3.15602e-09
-1.35677e-09
-1.85922e-08
-2.93535e-09
-1.18465e-09
-1.88964e-08
-2.78039e-09
-1.07823e-09
-1.90918e-08
-2.67154e-09
-1.03165e-09
-1.91924e-08
-2.60881e-09
-9.92215e-10
-1.92478e-08
-2.58851e-09
-9.76843e-10
-1.92841e-08
-2.56632e-09
-9.42466e-10
-1.93066e-08
-2.5771e-09
-9.00121e-10
-1.93501e-08
-2.57545e-09
-3.98627e-10
-1.88587e-08
-2.26193e-09
-4.5538e-10
-1.88112e-08
-2.2657e-09
-5.21662e-10
-1.87847e-08
-2.25908e-09
-5.67835e-10
-1.87476e-08
-2.28102e-09
-6.22215e-10
-1.86954e-08
-2.29267e-09
-6.80522e-10
-1.86046e-08
-2.33833e-09
-8.01879e-10
-1.84121e-08
-2.42219e-09
-9.68973e-10
-1.81241e-08
-2.55344e-09
-1.1823e-09
-1.77373e-08
-2.7366e-09
-1.37522e-09
-1.72886e-08
-3.00519e-09
-1.52475e-09
-1.68408e-08
-3.32963e-09
-1.7027e-09
-1.63426e-08
-3.66524e-09
-1.95468e-09
-1.58668e-08
-3.9043e-09
-2.26242e-09
-1.54611e-08
-4.01735e-09
-2.52418e-09
-1.51826e-08
-4.04245e-09
-2.53306e-09
-1.52233e-08
-4.04738e-09
-2.28131e-09
-1.55705e-08
-4.01294e-09
-1.75009e-09
-1.58005e-08
-3.67964e-09
-1.5479e-09
-1.63308e-08
-3.461e-09
-2.15852e-09
-1.75245e-08
-3.90862e-09
-2.01025e-09
-1.7983e-08
-3.61304e-09
-1.6075e-09
-1.8217e-08
-3.1394e-09
-1.36569e-09
-1.86029e-08
-2.91241e-09
-1.19666e-09
-1.89019e-08
-2.76121e-09
-1.08836e-09
-1.90912e-08
-2.66136e-09
-1.04073e-09
-1.91836e-08
-2.60831e-09
-9.99734e-10
-1.92352e-08
-2.59336e-09
-9.83198e-10
-1.9272e-08
-2.57173e-09
-9.47934e-10
-1.92986e-08
-2.57943e-09
-9.03577e-10
-1.93442e-08
-2.57774e-09
-4.11251e-10
-1.88524e-08
-2.26447e-09
-4.68209e-10
-1.88038e-08
-2.26801e-09
-5.29323e-10
-1.87738e-08
-2.26435e-09
-5.75525e-10
-1.87357e-08
-2.28494e-09
-6.3217e-10
-1.86867e-08
-2.2917e-09
-6.91591e-10
-1.86036e-08
-2.32808e-09
-8.16005e-10
-1.84163e-08
-2.40362e-09
-9.79661e-10
-1.81341e-08
-2.53261e-09
-1.18199e-09
-1.77519e-08
-2.72208e-09
-1.36869e-09
-1.73064e-08
-2.99366e-09
-1.51692e-09
-1.68563e-08
-3.32168e-09
-1.69366e-09
-1.63492e-08
-3.66753e-09
-1.94686e-09
-1.58615e-08
-3.91712e-09
-2.26106e-09
-1.54446e-08
-4.03489e-09
-2.52649e-09
-1.51605e-08
-4.06236e-09
-2.53578e-09
-1.52014e-08
-4.06744e-09
-2.2789e-09
-1.55538e-08
-4.02967e-09
-1.75402e-09
-1.58057e-08
-3.7026e-09
-1.612e-09
-1.64038e-08
-3.53334e-09
-2.07066e-09
-1.74662e-08
-3.81985e-09
-1.98618e-09
-1.79844e-08
-3.58249e-09
-1.60777e-09
-1.82322e-08
-3.12306e-09
-1.37889e-09
-1.86103e-08
-2.88849e-09
-1.2113e-09
-1.8905e-08
-2.74153e-09
-1.09999e-09
-1.90886e-08
-2.65152e-09
-1.05069e-09
-1.91732e-08
-2.60835e-09
-1.00803e-09
-1.92219e-08
-2.59818e-09
-9.88915e-10
-1.92602e-08
-2.57755e-09
-9.53265e-10
-1.92905e-08
-2.58196e-09
-9.07572e-10
-1.93373e-08
-2.58052e-09
-4.24262e-10
-1.88452e-08
-2.26733e-09
-4.80554e-10
-1.87965e-08
-2.27034e-09
-5.36777e-10
-1.87634e-08
-2.26991e-09
-5.84315e-10
-1.87231e-08
-2.28858e-09
-6.43128e-10
-1.86766e-08
-2.29111e-09
-7.04774e-10
-1.86e-08
-2.31831e-09
-8.33213e-10
-1.84176e-08
-2.38484e-09
-9.95115e-10
-1.81402e-08
-2.5109e-09
-1.1812e-09
-1.77662e-08
-2.70838e-09
-1.36079e-09
-1.73243e-08
-2.98345e-09
-1.50867e-09
-1.6872e-08
-3.31393e-09
-1.68273e-09
-1.63573e-08
-3.67025e-09
-1.93538e-09
-1.58582e-08
-3.9316e-09
-2.25599e-09
-1.54293e-08
-4.05507e-09
-2.52527e-09
-1.51389e-08
-4.08535e-09
-2.53494e-09
-1.51799e-08
-4.09054e-09
-2.27258e-09
-1.55379e-08
-4.04891e-09
-1.75657e-09
-1.58149e-08
-3.72945e-09
-1.66572e-09
-1.647e-08
-3.59756e-09
-1.99189e-09
-1.7417e-08
-3.74171e-09
-1.95791e-09
-1.79832e-08
-3.5503e-09
-1.60765e-09
-1.82469e-08
-3.10732e-09
-1.39471e-09
-1.86158e-08
-2.86386e-09
-1.22896e-09
-1.8905e-08
-2.72175e-09
-1.11343e-09
-1.90838e-08
-2.64209e-09
-1.06165e-09
-1.91615e-08
-2.6087e-09
-1.01719e-09
-1.92081e-08
-2.60263e-09
-9.93764e-10
-1.92489e-08
-2.5837e-09
-9.58474e-10
-1.92825e-08
-2.58464e-09
-9.12222e-10
-1.93293e-08
-2.58375e-09
-4.3779e-10
-1.88368e-08
-2.27047e-09
-4.92438e-10
-1.87892e-08
-2.27268e-09
-5.44376e-10
-1.87537e-08
-2.27506e-09
-5.94328e-10
-1.87103e-08
-2.29149e-09
-6.5537e-10
-1.86651e-08
-2.29061e-09
-7.22396e-10
-1.85917e-08
-2.30897e-09
-8.54053e-10
-1.84151e-08
-2.36616e-09
-1.01366e-09
-1.81438e-08
-2.48864e-09
-1.18017e-09
-1.77802e-08
-2.69527e-09
-1.35214e-09
-1.7342e-08
-2.97417e-09
-1.50088e-09
-1.68878e-08
-3.30567e-09
-1.6704e-09
-1.63669e-08
-3.67284e-09
-1.9199e-09
-1.58574e-08
-3.94759e-09
-2.24659e-09
-1.54155e-08
-4.07801e-09
-2.51992e-09
-1.51183e-08
-4.11155e-09
-2.52993e-09
-1.51594e-08
-4.11681e-09
-2.26186e-09
-1.55232e-08
-4.07079e-09
-1.7574e-09
-1.58285e-08
-3.75999e-09
-1.70904e-09
-1.6529e-08
-3.65273e-09
-1.92357e-09
-1.73771e-08
-3.6738e-09
-1.92605e-09
-1.79794e-08
-3.51682e-09
-1.60713e-09
-1.82607e-08
-3.09193e-09
-1.41349e-09
-1.86189e-08
-2.83873e-09
-1.25018e-09
-1.8901e-08
-2.70221e-09
-1.12917e-09
-1.90762e-08
-2.63308e-09
-1.07379e-09
-1.91486e-08
-2.60905e-09
-1.02728e-09
-1.91942e-08
-2.60618e-09
-9.98241e-10
-1.92384e-08
-2.58948e-09
-9.63557e-10
-1.92744e-08
-2.58746e-09
-9.17647e-10
-1.93202e-08
-2.58738e-09
-4.51959e-10
-1.88269e-08
-2.27417e-09
-5.03888e-10
-1.87818e-08
-2.27511e-09
-5.52108e-10
-1.87448e-08
-2.27954e-09
-6.05685e-10
-1.86977e-08
-2.29317e-09
-6.69722e-10
-1.86518e-08
-2.28976e-09
-7.45172e-10
-1.85781e-08
-2.29978e-09
-8.7875e-10
-1.84088e-08
-2.34757e-09
-1.0356e-09
-1.81442e-08
-2.4661e-09
-1.18102e-09
-1.77919e-08
-2.6825e-09
-1.34341e-09
-1.73592e-08
-2.96548e-09
-1.49366e-09
-1.69035e-08
-3.29678e-09
-1.65729e-09
-1.63782e-08
-3.67461e-09
-1.9004e-09
-1.58595e-08
-3.96467e-09
-2.2323e-09
-1.54039e-08
-4.10373e-09
-2.50984e-09
-1.50993e-08
-4.14097e-09
-2.52013e-09
-1.51405e-08
-4.14623e-09
-2.24627e-09
-1.55106e-08
-4.09539e-09
-1.75638e-09
-1.58468e-08
-3.7936e-09
-1.74235e-09
-1.65807e-08
-3.69807e-09
-1.86648e-09
-1.73466e-08
-3.61555e-09
-1.89195e-09
-1.79733e-08
-3.48181e-09
-1.60777e-09
-1.82714e-08
-3.07686e-09
-1.43591e-09
-1.86186e-08
-2.81336e-09
-1.27562e-09
-1.88926e-08
-2.68264e-09
-1.14973e-09
-1.90635e-08
-2.62421e-09
-1.08748e-09
-1.91345e-08
-2.60897e-09
-1.03852e-09
-1.91807e-08
-2.60821e-09
-1.00244e-09
-1.92288e-08
-2.59465e-09
-9.68497e-10
-1.92663e-08
-2.5905e-09
-9.23989e-10
-1.93095e-08
-2.59163e-09
-4.66818e-10
-1.8815e-08
-2.27869e-09
-5.1485e-10
-1.87745e-08
-2.27768e-09
-5.59774e-10
-1.87368e-08
-2.28338e-09
-6.18477e-10
-1.86858e-08
-2.29312e-09
-6.86599e-10
-1.8637e-08
-2.2879e-09
-7.71447e-10
-1.85613e-08
-2.2904e-09
-9.07809e-10
-1.83982e-08
-2.32884e-09
-1.06199e-09
-1.81398e-08
-2.44395e-09
-1.19028e-09
-1.7795e-08
-2.67005e-09
-1.3358e-09
-1.73758e-08
-2.95633e-09
-1.48607e-09
-1.69198e-08
-3.28772e-09
-1.64412e-09
-1.6391e-08
-3.67481e-09
-1.8775e-09
-1.58649e-08
-3.98186e-09
-2.21267e-09
-1.5395e-08
-4.13202e-09
-2.49443e-09
-1.50827e-08
-4.17344e-09
-2.50493e-09
-1.51238e-08
-4.17862e-09
-2.22547e-09
-1.55005e-08
-4.12258e-09
-1.7539e-09
-1.58698e-08
-3.82902e-09
-1.7665e-09
-1.66253e-08
-3.73308e-09
-1.82015e-09
-1.73254e-08
-3.56642e-09
-1.857e-09
-1.79655e-08
-3.44517e-09
-1.61617e-09
-1.82725e-08
-3.06141e-09
-1.46272e-09
-1.86131e-08
-2.78881e-09
-1.30544e-09
-1.88802e-08
-2.66262e-09
-1.17597e-09
-1.90453e-08
-2.61515e-09
-1.1036e-09
-1.9119e-08
-2.60781e-09
-1.05069e-09
-1.9168e-08
-2.60848e-09
-1.00622e-09
-1.92202e-08
-2.59929e-09
-9.73182e-10
-1.92582e-08
-2.59381e-09
-9.31328e-10
-1.92969e-08
-2.59681e-09
-4.82433e-10
-1.88015e-08
-2.28372e-09
-5.25348e-10
-1.87673e-08
-2.28023e-09
-5.67649e-10
-1.87297e-08
-2.28628e-09
-6.32799e-10
-1.86749e-08
-2.29077e-09
-7.06391e-10
-1.86216e-08
-2.2839e-09
-8.0172e-10
-1.85408e-08
-2.2807e-09
-9.40963e-10
-1.83827e-08
-2.31098e-09
-1.09332e-09
-1.81284e-08
-2.4238e-09
-1.21045e-09