/*--------------------------------*- C++ -*----------------------------------*\
  =========                 |
  \\      /  F ield         | OpenFOAM: The Open Source CFD Toolbox
   \\    /   O peration     | Website:  https://openfoam.org
    \\  /    A nd           | Version:  6
     \\/     M anipulation  |
\*---------------------------------------------------------------------------*/
FoamFile
{
    version     2.0;
    format      ascii;
    class       surfaceScalarField;
    location    "40";
    object      phi;
}
// * * * * * * * * * * * * * * * * * * * * * * * * * * * * * * * * * * * * * //

dimensions      [0 3 -1 0 0 0 0];

internalField   nonuniform List<scalar> 
8442
(
2.4059e-07
5.11766e-14
-1.52613e-13
2.4059e-07
8.67718e-14
-4.77009e-13
-8.95286e-14
5.81203e-13
3.31492e-07
-1.78569e-14
8.30656e-13
3.31494e-07
-5.49532e-14
-1.1907e-12
7.98304e-14
4.01444e-13
4.48591e-07
-7.77957e-14
9.4885e-13
4.48593e-07
-3.74333e-13
-1.31863e-12
4.37801e-13
3.91131e-13
5.70684e-07
-2.4207e-14
9.65599e-13
5.70685e-07
-7.45993e-13
-1.16011e-12
7.59266e-13
1.91123e-13
7.07345e-07
1.23978e-13
1.11509e-12
7.07346e-07
-1.14903e-12
-8.71269e-13
1.01733e-12
-2.47033e-13
8.63603e-07
3.7715e-13
1.45256e-12
8.63604e-07
-1.58496e-12
-5.62213e-13
1.19792e-12
-8.88167e-13
1.04445e-06
5.87868e-13
1.85313e-12
1.04445e-06
-1.95579e-12
-3.21951e-13
1.36274e-12
-1.53589e-12
1.25554e-06
5.02748e-13
2.13852e-12
1.25554e-06
-2.14526e-12
-3.772e-13
1.64502e-12
-1.76902e-12
1.50327e-06
7.2834e-14
1.97176e-12
1.50327e-06
-1.9832e-12
-5.33944e-13
1.9199e-12
-1.44483e-12
1.79439e-06
-4.06775e-13
2.27344e-12
1.79439e-06
-1.56981e-12
-6.3533e-13
1.98986e-12
-1.64187e-12
2.1353e-06
-7.15309e-13
2.62752e-12
2.1353e-06
-1.14112e-12
-1.31598e-12
1.86541e-12
-1.30724e-12
2.53148e-06
-7.80332e-13
2.07381e-12
2.53149e-06
-7.86799e-13
-2.72838e-12
1.57306e-12
6.57628e-13
2.98753e-06
-6.30802e-13
1.60224e-12
2.98753e-06
-5.28366e-13
-5.08372e-12
1.16292e-12
3.48366e-12
3.50766e-06
-3.50852e-13
1.58486e-12
3.50767e-06
-2.94128e-13
-7.23169e-12
6.45889e-13
5.64968e-12
4.09569e-06
1.68017e-14
2.2516e-12
4.0957e-06
-1.61268e-15
-9.49383e-12
-1.64935e-14
7.24444e-12
4.09569e-06
3.84548e-13
2.2526e-12
4.0957e-06
2.89718e-13
-9.49016e-12
-6.74859e-13
7.23684e-12
3.50764e-06
6.57603e-13
1.64867e-12
3.50765e-06
5.23947e-13
-7.25061e-12
-1.19118e-12
5.61097e-12
2.98751e-06
7.19416e-13
1.77723e-12
2.98751e-06
6.9391e-13
-5.0163e-12
-1.69098e-12
3.5071e-12
2.53146e-06
9.80404e-13
1.9098e-12
2.53146e-06
1.3428e-12
-3.03622e-12
-1.65863e-12
1.84182e-13
2.13527e-06
2.99077e-13
3.04203e-12
2.13527e-06
1.46394e-12
-9.85268e-13
-2.13621e-12
-1.01899e-12
1.79436e-06
-6.61937e-14
2.14574e-12
1.79436e-06
1.98263e-12
-7.42863e-13
-1.93864e-12
-1.75386e-12
1.50324e-06
-5.03142e-13
2.00374e-12
1.50324e-06
2.16591e-12
-6.0141e-13
-1.66415e-12
-1.42316e-12
1.25551e-06
-5.92563e-13
2.2148e-12
1.25551e-06
2.02112e-12
-4.76801e-13
-1.42573e-12
-1.74221e-12
1.04442e-06
-3.76483e-13
1.86132e-12
1.04442e-06
1.64321e-12
-3.5058e-13
-1.2628e-12
-1.51183e-12
8.63583e-07
-1.18162e-13
1.43625e-12
8.63584e-07
1.17949e-12
-5.49727e-13
-1.05976e-12
-8.84166e-13
7.0733e-07
2.97769e-14
1.10345e-12
7.07331e-07
7.5293e-13
-8.43346e-13
-7.78293e-13
-2.6295e-13
5.70672e-07
7.54193e-14
9.70099e-13
5.70673e-07
3.56212e-13
-1.17149e-12
-4.29703e-13
2.03881e-13
4.48582e-07
3.23588e-14
9.4235e-13
4.48584e-07
2.10494e-14
-1.3442e-12
-5.21429e-14
4.02512e-13
3.31487e-07
5.81563e-15
8.01972e-13
3.31488e-07
-1.29922e-13
-1.1947e-12
1.24668e-13
3.93435e-13
2.40587e-07
-1.00128e-13
2.40588e-07
-5.30504e-13
6.31195e-13
3.29517e-07
1.56482e-14
-3.08971e-13
3.29518e-07
1.41752e-13
-9.6423e-13
-1.41095e-13
1.20848e-12
5.73306e-07
-7.55682e-14
1.55751e-12
5.73308e-07
-7.9339e-14
-2.58194e-12
1.45616e-13
1.09142e-12
7.57413e-07
-1.41069e-13
1.80822e-12
7.57415e-07
-5.81203e-13
-2.82113e-12
6.95697e-13
1.05155e-12
9.47672e-07
-5.61936e-14
1.90178e-12
9.47674e-07
-1.17554e-12
-2.56039e-12
1.21123e-12
6.49145e-13
1.16012e-06
1.88451e-13
2.27168e-12
1.16012e-06
-1.81331e-12
-2.08142e-12
1.60804e-12
-1.97145e-13
1.40271e-06
5.80218e-13
3.04085e-12
1.40271e-06
-2.4819e-12
-1.60354e-12
1.88492e-12
-1.43518e-12
1.68302e-06
9.03524e-13
3.97268e-12
1.68302e-06
-3.0544e-12
-1.3173e-12
2.14152e-12
-2.6675e-12
2.00948e-06
7.60517e-13
4.66379e-12
2.00948e-06
-3.31996e-12
-1.61903e-12
2.56178e-12
-3.06417e-12
2.39157e-06
9.65481e-14
4.40217e-12
2.39158e-06
-3.06105e-12
-2.11851e-12
2.97774e-12
-2.30158e-12
2.83936e-06
-6.41621e-13
4.88931e-12
2.83937e-06
-2.42155e-12
-2.51376e-12
3.08076e-12
-2.38364e-12
3.36268e-06
-1.12143e-12
5.19955e-12
3.36268e-06
-1.7499e-12
-3.8293e-12
2.884e-12
-1.36103e-12
3.97047e-06
-1.22499e-12
3.05025e-12
3.97047e-06
-1.19501e-12
-5.83221e-12
2.4281e-12
2.78959e-12
4.67088e-06
-9.90021e-13
1.08793e-12
4.67088e-06
-7.97063e-13
-9.59725e-12
1.79191e-12
8.51476e-12
5.47196e-06
-5.54609e-13
1.40486e-13
5.47197e-06
-4.40867e-13
-1.33511e-11
9.96573e-13
1.32172e-11
6.38171e-06
2.57075e-14
6.9013e-13
6.38172e-06
-4.43864e-15
-1.77041e-11
-2.56816e-14
1.70217e-11
6.3817e-06
6.05537e-13
7.03244e-13
6.38171e-06
4.30796e-13
-1.7701e-11
-1.04126e-12
1.69976e-11
5.47194e-06
1.03845e-12
2.72454e-13
5.47195e-06
7.94268e-13
-1.34163e-11
-1.82977e-12
1.3145e-11
4.67085e-06
1.19377e-12
1.45041e-12
4.67085e-06
1.10876e-12
-9.49671e-12
-2.54698e-12
8.56172e-12
3.97044e-06
1.31915e-12
2.86634e-12
3.97044e-06
1.87509e-12
-6.43247e-12
-2.7707e-12
1.9559e-12
3.36264e-06
5.72024e-13
5.94157e-12
3.36264e-06
2.34256e-12
-3.30686e-12
-3.21401e-12
-8.73966e-13
2.83932e-06
-7.37198e-14
4.68162e-12
2.83933e-06
3.07483e-12
-2.73776e-12
-2.99831e-12
-2.59707e-12
2.39153e-06
-7.57387e-13
4.48968e-12
2.39153e-06
3.36071e-12
-2.27029e-12
-2.59613e-12
-2.24461e-12
2.00944e-06
-9.11028e-13
4.8308e-12
2.00944e-06
3.14747e-12
-1.84893e-12
-2.22697e-12
-2.98836e-12
1.68299e-06
-5.81113e-13
3.99155e-12
1.68299e-06
2.56834e-12
-1.39539e-12
-1.97785e-12
-2.59714e-12
1.40268e-06
-1.82225e-13
2.99946e-12
1.40268e-06
1.86135e-12
-1.57666e-12
-1.67298e-12
-1.41721e-12
1.1601e-06
6.23651e-14
2.24154e-12
1.1601e-06
1.18709e-12
-2.0191e-12
-1.24249e-12
-2.26115e-13
9.47657e-07
1.34449e-13
1.90347e-12
9.47659e-07
5.55028e-13
-2.57243e-12
-6.85639e-13
6.74577e-13
7.57402e-07
7.94413e-14
1.79064e-12
7.57404e-07
2.70786e-14
-2.86458e-12
-1.03945e-13
1.07586e-12
5.73299e-07
1.30677e-14
1.51293e-12
5.73301e-07
-1.99684e-13
-2.60038e-12
1.87897e-13
1.08944e-12
3.29515e-07
-2.34705e-13
3.29515e-07
-1.0856e-12
1.32215e-12
4.03972e-07
-4.97724e-14
-4.27404e-13
4.03972e-07
1.80594e-13
-1.48244e-12
-1.70917e-13
1.88522e-12
7.52149e-07
-1.52815e-13
2.15578e-12
7.52151e-07
-9.59684e-14
-4.05434e-12
1.99801e-13
1.97445e-12
9.88977e-07
-1.94511e-13
2.53767e-12
9.88979e-07
-7.28802e-13
-4.41239e-12
8.8378e-13
1.9039e-12
1.23241e-06
-7.51054e-14
2.78666e-12
1.23241e-06
-1.48591e-12
-4.1254e-12
1.53506e-12
1.3157e-12
1.50373e-06
2.40021e-13
3.46169e-12
1.50373e-06
-2.29529e-12
-3.56544e-12
2.03289e-12
9.32988e-14
1.81331e-06
7.32873e-13
4.75608e-12
1.81332e-06
-3.13131e-12
-3.05597e-12
2.3764e-12
-1.69831e-12
2.17081e-06
1.13943e-12
6.327e-12
2.17082e-06
-3.85366e-12
-2.88045e-12
2.70193e-12
-3.46841e-12
2.58686e-06
9.57172e-13
7.51376e-12
2.58686e-06
-4.19564e-12
-3.55068e-12
3.24165e-12
-3.99797e-12
3.0734e-06
1.22269e-13
7.19754e-12
3.0734e-06
-3.87408e-12
-4.53007e-12
3.76937e-12
-2.69976e-12
3.64313e-06
-8.06237e-13
7.76223e-12
3.64314e-06
-3.06538e-12
-5.35354e-12
3.89454e-12
-2.42215e-12
4.30857e-06
-1.41584e-12
7.71467e-12
4.30857e-06
-2.20893e-12
-7.22993e-12
3.64151e-12
-4.6933e-13
5.08131e-06
-1.55083e-12
3.17806e-12
5.08132e-06
-1.50114e-12
-9.13844e-12
3.06252e-12
5.9742e-12
5.97213e-06
-1.2523e-12
-1.04799e-12
5.97213e-06
-1.00209e-12
-1.35386e-11
2.26083e-12
1.45961e-11
6.99187e-06
-7.03067e-13
-3.6519e-12
6.99187e-06
-5.53781e-13
-1.84392e-11
1.25842e-12
2.21026e-11
8.15147e-06
3.22307e-14
-3.84493e-12
8.15148e-06
-5.94001e-15
-2.4707e-11
-3.19818e-14
2.8567e-11
8.15146e-06
7.68724e-13
-3.81252e-12
8.15147e-06
5.42674e-13
-2.47105e-11
-1.31172e-12
2.85175e-11
6.99184e-06
1.33297e-12
-3.46164e-12
6.99184e-06
1.01704e-12
-1.85856e-11
-2.28734e-12
2.19854e-11
5.97209e-06
1.52319e-12
-4.51418e-13
5.9721e-06
1.40156e-12
-1.33976e-11
-3.19887e-12
1.47013e-11
5.08127e-06
1.55133e-12
3.07221e-12
5.08128e-06
2.26098e-12
-1.00236e-11
-3.61135e-12
4.86608e-12
4.30853e-06
7.68082e-13
8.70399e-12
4.30853e-06
3.01013e-12
-6.64055e-12
-4.01382e-12
1.33861e-13
3.64309e-06
-6.15952e-14
7.49089e-12
3.64309e-06
3.91905e-12
-5.72182e-12
-3.75865e-12
-2.7567e-12
3.07335e-06
-9.47822e-13
7.38222e-12
3.07335e-06
4.25037e-12
-4.75831e-12
-3.2778e-12
-2.57508e-12
2.58681e-06
-1.14909e-12
7.78676e-12
2.58681e-06
3.97646e-12
-3.94441e-12
-2.81294e-12
-3.83851e-12
2.17077e-06
-7.3533e-13
6.35969e-12
2.17077e-06
3.24924e-12
-3.02641e-12
-2.50066e-12
-3.33308e-12
1.81328e-06
-2.33103e-13
4.68236e-12
1.81328e-06
2.35954e-12
-3.00641e-12
-2.11678e-12
-1.66678e-12
1.5037e-06
8.2576e-14
3.40622e-12
1.50371e-06
1.49897e-12
-3.45882e-12
-1.57286e-12
4.99007e-14
1.23239e-06
1.80983e-13
2.78332e-12
1.23239e-06
6.92187e-13
-4.12581e-12
-8.68422e-13
1.35204e-12
9.88964e-07
1.22618e-13
2.52667e-12
9.88966e-07
2.32611e-14
-4.4636e-12
-1.42705e-13
1.94043e-12
7.52141e-07
2.63995e-14
2.10847e-12
7.52143e-07
-2.56668e-13
-4.09383e-12
2.31879e-13
1.98891e-12
4.03969e-07
-3.85222e-13
4.03969e-07
-1.69e-12
2.07868e-12
4.91941e-07
-9.08417e-14
-5.23375e-13
4.91941e-07
2.2635e-13
-2.05057e-12
-2.04009e-13
2.61781e-12
9.29807e-07
-2.20879e-13
2.62783e-12
9.29809e-07
-1.03291e-13
-5.53533e-12
2.49964e-13
2.98909e-12
1.22129e-06
-2.4797e-13
3.13243e-12
1.22129e-06
-8.62042e-13
-6.01954e-12
1.0612e-12
2.8909e-12
1.51949e-06
-9.28606e-14
3.60821e-12
1.51949e-06
-1.778e-12
-5.80179e-12
1.84054e-12
2.15205e-12
1.85113e-06
2.92697e-13
4.67799e-12
1.85113e-06
-2.75858e-12
-5.28898e-12
2.43913e-12
5.96956e-13
2.22918e-06
8.82372e-13
6.59898e-12
2.22918e-06
-3.76018e-12
-4.8997e-12
2.85128e-12
-1.6977e-12
2.66548e-06
1.36579e-12
8.91712e-12
2.66548e-06
-4.62714e-12
-5.00026e-12
3.24663e-12
-3.95053e-12
3.17295e-06
1.1486e-12
1.0683e-11
3.17295e-06
-5.0507e-12
-6.14051e-12
3.90644e-12
-4.59646e-12
3.76607e-06
1.49261e-13
1.03426e-11
3.76607e-06
-4.6731e-12
-7.71668e-12
4.54573e-12
-2.67576e-12
4.46026e-06
-9.67808e-13
1.08582e-11
4.46027e-06
-3.69737e-12
-9.0708e-12
4.69345e-12
-1.80721e-12
5.27078e-06
-1.70838e-12
1.01424e-11
5.27078e-06
-2.65929e-12
-1.13844e-11
4.38847e-12
1.26485e-12
6.21192e-06
-1.87355e-12
2.5096e-12
6.21193e-06
-1.80304e-12
-1.24931e-11
3.68976e-12
1.0005e-11
7.2971e-06
-1.50929e-12
-4.67371e-12
7.29711e-06
-1.20451e-12
-1.67134e-11
2.722e-12
2.14016e-11
8.53995e-06
-8.48476e-13
-9.62298e-12
8.53995e-06
-6.65609e-13
-2.22438e-11
1.51635e-12
3.18841e-11
9.95435e-06
3.86569e-14
-1.11762e-11
9.95435e-06
-7.16312e-15
-3.01611e-11
-3.80629e-14
4.13612e-11
9.95433e-06
9.27703e-13
-1.11163e-11
9.95434e-06
6.52905e-13
-3.01767e-11
-1.57894e-12
4.12791e-11
8.53992e-06
1.61188e-12
-9.3758e-12
8.53992e-06
1.22805e-12
-2.24964e-11
-2.74668e-12
3.17188e-11
7.29706e-06
1.84961e-12
-3.80806e-12
7.29706e-06
1.69053e-12
-1.65325e-11
-3.84378e-12
2.15896e-11
6.21188e-06
1.8281e-12
2.52932e-12
6.21188e-06
2.68056e-12
-1.36963e-11
-4.39549e-12
8.66488e-12
5.27073e-06
9.44946e-13
1.13579e-11
5.27074e-06
3.6514e-12
-1.07934e-11
-4.81395e-12
1.96357e-12
4.46021e-06
-6.58811e-14
1.05402e-11
4.46021e-06
4.73524e-12
-9.61477e-12
-4.51921e-12
-2.2808e-12
3.76601e-06
-1.13544e-12
1.06542e-11
3.76601e-06
5.11682e-12
-8.02444e-12
-3.94639e-12
-2.46578e-12
3.17289e-06
-1.3777e-12
1.10742e-11
3.17289e-06
4.77847e-12
-6.73001e-12
-3.38298e-12
-4.32317e-12
2.66543e-06
-8.86126e-13
8.96704e-12
2.66543e-06
3.90782e-12
-5.23123e-12
-3.00553e-12
-3.734e-12
2.22915e-06
-2.8477e-13
6.48648e-12
2.22915e-06
2.83808e-12
-4.81976e-12
-2.54107e-12
-1.65362e-12
1.8511e-06
1.02228e-13
4.58952e-12
1.8511e-06
1.79255e-12
-5.12855e-12
-1.88453e-12
5.38327e-13
1.51947e-06
2.30893e-13
3.59455e-12
1.51947e-06
8.15635e-13
-5.77667e-12
-1.04095e-12
2.19633e-12
1.22127e-06
1.70684e-13
3.13482e-12
1.22127e-06
1.16802e-14
-6.06711e-12
-1.7873e-13
2.93773e-12
9.29798e-07
4.30752e-14
2.57698e-12
9.298e-07
-3.19384e-13
-5.60073e-12
2.7816e-13
3.0291e-12
4.91937e-07
-5.39363e-13
4.91937e-07
-2.36138e-12
2.90604e-12
5.95869e-07
-1.21197e-13
-6.02214e-13
5.95869e-07
2.81447e-13
-2.69124e-12
-2.42544e-13
3.41962e-12
1.11793e-06
-2.85723e-13
2.98962e-12
1.11793e-06
-1.01064e-13
-6.97767e-12
2.98483e-13
4.07565e-12
1.4684e-06
-3.05398e-13
3.60767e-12
1.4684e-06
-9.87049e-13
-7.5863e-12
1.23641e-12
3.95015e-12
1.82589e-06
-1.11641e-13
4.37264e-12
1.82589e-06
-2.06759e-12
-7.54262e-12
2.14471e-12
3.10694e-12
2.22258e-06
3.48826e-13
5.9277e-12
2.22259e-06
-3.22867e-12
-7.21862e-12
2.84902e-12
1.27318e-12
2.67433e-06
1.03981e-12
8.58142e-12
2.67433e-06
-4.40712e-12
-7.10811e-12
3.33667e-12
-1.47191e-12
3.19534e-06
1.60255e-12
1.17599e-11
3.19535e-06
-5.42662e-12
-7.65365e-12
3.80719e-12
-4.15368e-12
3.80106e-06
1.34823e-12
1.41974e-11
3.80106e-06
-5.93225e-12
-9.3655e-12
4.58962e-12
-4.90834e-12
4.5087e-06
1.77188e-13
1.38643e-11
4.5087e-06
-5.49454e-12
-1.16458e-11
5.34355e-12
-2.28894e-12
5.33661e-06
-1.13697e-12
1.42014e-11
5.33661e-06
-4.34831e-12
-1.36116e-11
5.51881e-12
-6.16928e-13
6.30301e-06
-2.01383e-12
1.25242e-11
6.30301e-06
-3.12548e-12
-1.62215e-11
5.16418e-12
3.72882e-12
7.4251e-06
-2.20851e-12
1.15257e-12
7.4251e-06
-2.11713e-12
-1.58438e-11
4.34159e-12
1.47216e-11
8.71912e-06
-1.77517e-12
-9.62264e-12
8.71912e-06
-1.41554e-12
-1.90695e-11
3.2008e-12
2.87124e-11
1.02016e-05
-9.98749e-13
-1.75776e-11
1.02017e-05
-7.82522e-13
-2.46908e-11
1.78439e-12
4.22928e-11
1.18897e-05
4.53504e-14
-2.10864e-11
1.18897e-05
-8.38075e-15
-3.39461e-11
-4.43804e-14
5.50668e-11
1.18897e-05
1.09152e-12
-2.09904e-11
1.18897e-05
7.67615e-13
-3.39789e-11
-1.85722e-12
5.49462e-11
1.02016e-05
1.89473e-12
-1.72704e-11
1.02016e-05
1.44249e-12
-2.5069e-11
-3.22935e-12
4.208e-11
8.71907e-06
2.1912e-12
-8.46175e-12
8.71907e-06
1.99351e-12
-1.88546e-11
-4.51286e-12
2.90014e-11
7.42504e-06
2.13778e-12
1.3253e-12
7.42505e-06
3.13373e-12
-1.74125e-11
-5.19044e-12
1.31758e-11
6.30295e-06
1.12294e-12
1.39688e-11
6.30296e-06
4.30554e-12
-1.56676e-11
-5.64752e-12
4.52697e-12
5.33654e-06
-7.93893e-14
1.38556e-11
5.33655e-06
5.56668e-12
-1.43625e-11
-5.31138e-12
-1.2434e-12
4.50863e-06
-1.33248e-12
1.43255e-11
4.50863e-06
6.00946e-12
-1.20425e-11
-4.63558e-12
-1.98451e-12
3.80099e-06
-1.61691e-12
1.47179e-11
3.80099e-06
5.60521e-12
-1.01802e-11
-3.96769e-12
-4.49578e-12
3.19529e-06
-1.04483e-12
1.18304e-11
3.19529e-06
4.58261e-12
-7.98523e-12
-3.51899e-12
-3.84159e-12
2.67429e-06
-3.39841e-13
8.42445e-12
2.67429e-06
3.32278e-12
-6.99135e-12
-2.96846e-12
-1.41568e-12
2.22255e-06
1.23058e-13
5.79855e-12
2.22256e-06
2.08399e-12
-6.99531e-12
-2.19524e-12
1.19874e-12
1.82587e-06
2.86806e-13
4.342e-12
1.82587e-06
9.31919e-13
-7.4776e-12
-1.21227e-12
3.15516e-12
1.46839e-06
2.26404e-13
3.6219e-12
1.46839e-06
-7.3604e-15
-7.61864e-12
-2.14947e-13
4.00455e-12
1.11792e-06
6.34327e-14
2.93091e-12
1.11792e-06
-3.89615e-13
-7.07259e-12
3.28292e-13
4.14901e-12
5.95865e-07
-6.88078e-13
5.95865e-07
-3.1206e-12
3.81609e-12
7.18538e-07
-1.53325e-13
-6.52869e-13
7.18538e-07
3.4606e-13
-3.43115e-12
-2.8522e-13
4.30267e-12
1.3229e-06
-3.56232e-13
3.26662e-12
1.3229e-06
-8.94681e-14
-8.34522e-12
3.47483e-13
5.17192e-12
1.73806e-06
-3.69681e-13
3.98837e-12
1.73806e-06
-1.10637e-12
-9.06228e-12
1.41335e-12
5.00992e-12
2.16109e-06
-1.31564e-13
5.09803e-12
2.16109e-06
-2.36152e-12
-9.29948e-12
2.45437e-12
4.1144e-12
2.62955e-06
4.10633e-13
7.2282e-12
2.62955e-06
-3.7165e-12
-9.31309e-12
3.27113e-12
2.06318e-12
3.16243e-06
1.20984e-12
1.07234e-11
3.16243e-06
-5.0865e-12
-9.63877e-12
3.84213e-12
-1.08346e-12
3.77661e-06
1.85613e-12
1.48783e-11
3.77662e-06
-6.26986e-12
-1.07902e-11
4.39489e-12
-4.15123e-12
4.49032e-06
1.56149e-12
1.80928e-11
4.49032e-06
-6.86051e-12
-1.3172e-11
5.30606e-12
-5.02316e-12
5.32379e-06
2.07197e-13
1.78067e-11
5.3238e-06
-6.3591e-12
-1.62598e-11
6.18252e-12
-1.641e-12
6.29862e-06
-1.31801e-12
1.78436e-11
6.29862e-06
-5.03526e-12
-1.88986e-11
6.39214e-12
1.01954e-12
7.43628e-06
-2.33951e-12
1.49463e-11
7.43629e-06
-3.6197e-12
-2.16582e-11
5.98832e-12
6.75322e-12
8.75718e-06
-2.56284e-12
-6.97511e-13
8.75718e-06
-2.45228e-12
-1.91634e-11
5.03409e-12
1.99015e-11
1.02806e-05
-2.05522e-12
-1.55983e-11
1.02806e-05
-1.64151e-12
-2.0638e-11
3.70891e-12
3.62634e-11
1.20265e-05
-1.15669e-12
-2.71432e-11
1.20265e-05
-9.08166e-13
-2.5829e-11
2.06899e-12
5.30046e-11
1.40151e-05
5.24921e-14
-3.31398e-11
1.40151e-05
-9.62301e-15
-3.60921e-11
-5.10987e-14
6.92786e-11
1.40151e-05
1.26373e-12
-3.29997e-11
1.40151e-05
8.9082e-13
-3.61475e-11
-2.15286e-12
6.91142e-11
1.20264e-05
2.19094e-12
-2.67713e-11
1.20264e-05
1.6702e-12
-2.63488e-11
-3.74339e-12
5.27446e-11
1.02806e-05
2.55196e-12
-1.41168e-11
1.02806e-05
2.31729e-12
-2.03946e-11
-5.22301e-12
3.6668e-11
8.75711e-06
2.47501e-12
-3.61082e-13
8.75711e-06
3.6217e-12
-2.11469e-11
-6.02675e-12
1.81729e-11
7.43622e-06
1.31043e-12
1.66296e-11
7.43622e-06
4.99325e-12
-2.11664e-11
-6.5327e-12
7.66395e-12
6.29854e-06
-9.70222e-14
1.74871e-11
6.29855e-06
6.43963e-12
-1.98887e-11
-6.1486e-12
2.28257e-13
5.32371e-06
-1.54329e-12
1.84377e-11
5.32372e-06
6.94945e-12
-1.67568e-11
-5.35921e-12
-1.23543e-12
4.49024e-06
-1.87302e-12
1.87535e-11
4.49024e-06
6.47533e-12
-1.42388e-11
-4.57899e-12
-4.44928e-12
3.77655e-06
-1.21611e-12
1.49728e-11
3.77655e-06
5.28898e-12
-1.12361e-11
-4.05151e-12
-3.73116e-12
3.16238e-06
-4.00524e-13
1.05175e-11
3.16238e-06
3.82506e-12
-9.47924e-12
-3.4079e-12
-1.01614e-12
2.62951e-06
1.45138e-13
7.0511e-12
2.62952e-06
2.38005e-12
-9.01739e-12
-2.51182e-12
1.97153e-12
2.16107e-06
3.50266e-13
5.0442e-12
2.16107e-06
1.04319e-12
-9.17966e-12
-1.38608e-12
4.16101e-12
1.73804e-06
2.91983e-13
4.01034e-12
1.73804e-06
-3.44059e-14
-9.06763e-12
-2.53012e-13
5.06791e-12
1.32289e-06
8.92009e-14
3.19662e-12
1.32289e-06
-4.68219e-13
-8.47209e-12
3.81411e-13
5.28498e-12
7.18533e-07
-8.16611e-13
7.18533e-07
-3.99328e-12
4.81969e-12
8.63103e-07
-1.91086e-13
-6.61191e-13
8.63103e-07
4.20712e-13
-4.29958e-12
-3.30849e-13
5.28065e-12
1.54967e-06
-4.36058e-13
3.48831e-12
1.54967e-06
-6.7618e-14
-9.6121e-12
3.98055e-13
6.22152e-12
2.0362e-06
-4.42536e-13
4.30417e-12
2.03621e-06
-1.21976e-12
-1.04026e-11
1.59327e-12
5.99788e-12
2.53247e-06
-1.52715e-13
5.80757e-12
2.53248e-06
-2.66195e-12
-1.10243e-11
2.77177e-12
5.10352e-12
3.08101e-06
4.79769e-13
8.60056e-12
3.08102e-06
-4.22703e-12
-1.15305e-11
3.70874e-12
2.90384e-12
3.70429e-06
1.39561e-12
1.30469e-11
3.7043e-06
-5.80592e-12
-1.24491e-11
4.37211e-12
-5.96837e-13
4.42218e-06
2.13056e-12
1.82976e-11
4.42218e-06
-7.1667e-12
-1.43596e-11
5.01556e-12
-4.01883e-12
5.25598e-06
1.79155e-12
2.24108e-11
5.25598e-06
-7.84711e-12
-1.75098e-11
6.06424e-12
-5.03257e-12
6.22935e-06
2.39399e-13
2.22271e-11
6.22935e-06
-7.27882e-12
-2.1511e-11
7.07464e-12
-8.36585e-13
7.36747e-06
-1.5147e-12
2.18579e-11
7.36747e-06
-5.76754e-12
-2.48772e-11
7.32659e-12
2.97473e-12
8.69548e-06
-2.69097e-12
1.75183e-11
8.69548e-06
-4.14899e-12
-2.76429e-11
6.87351e-12
1.01766e-11
1.02373e-05
-2.94106e-12
-2.83428e-12
1.02373e-05
-2.81424e-12
-2.24652e-11
5.77758e-12
2.53512e-11
1.20158e-05
-2.3567e-12
-2.2298e-11
1.20158e-05
-1.88677e-12
-2.14955e-11
4.25798e-12
4.38284e-11
1.40543e-05
-1.32894e-12
-3.79247e-11
1.40543e-05
-1.04513e-12
-2.57664e-11
2.37942e-12
6.37327e-11
1.63769e-05
6.02172e-14
-4.68962e-11
1.63769e-05
-1.09049e-14
-3.67017e-11
-5.8345e-14
8.3659e-11
1.63769e-05
1.45149e-12
-4.67049e-11
1.63769e-05
1.02514e-12
-3.67848e-11
-2.47542e-12
8.34464e-11
1.40542e-05
2.5088e-12
-3.74833e-11
1.40542e-05
1.91615e-12
-2.64412e-11
-4.30004e-12
6.34254e-11
1.20157e-05
2.93653e-12
-2.04711e-11
1.20157e-05
2.66761e-12
-2.12276e-11
-5.98489e-12
4.4361e-11
1.02372e-05
2.84258e-12
-2.33628e-12
1.02373e-05
4.14884e-12
-2.49118e-11
-6.92022e-12
2.34611e-11
8.69541e-06
1.51248e-12
1.94531e-11
8.69541e-06
5.72496e-12
-2.72287e-11
-7.4818e-12
1.12183e-11
7.36738e-06
-1.17682e-13
2.15053e-11
7.36739e-06
7.3673e-12
-2.6139e-11
-7.04205e-12
2.00833e-12
6.22926e-06
-1.77079e-12
2.30462e-11
6.22926e-06
7.94875e-12
-2.21211e-11
-6.12577e-12
-3.24133e-13
5.25589e-06
-2.15002e-12
2.32227e-11
5.25589e-06
7.39871e-12
-1.88524e-11
-5.22267e-12
-4.2787e-12
4.4221e-06
-1.40306e-12
1.84198e-11
4.42211e-06
6.03445e-12
-1.49317e-11
-4.60747e-12
-3.48034e-12
3.70424e-06
-4.68431e-13
1.2789e-11
3.70424e-06
4.34984e-12
-1.22414e-11
-3.86266e-12
-5.20295e-13
3.08098e-06
1.68568e-13
8.36916e-12
3.08098e-06
2.68296e-12
-1.11527e-11
-2.83658e-12
2.7926e-12
2.53245e-06
4.22796e-13
5.72531e-12
2.53245e-06
1.14927e-12
-1.08346e-11
-1.56373e-12
5.14148e-12
2.03618e-06
3.69432e-13
4.3288e-12
2.03619e-06
-7.02639e-14
-1.03693e-11
-2.94121e-13
6.05443e-12
1.54966e-06
1.22103e-13
3.40494e-12
1.54966e-06
-5.55434e-13
-9.77248e-12
4.36031e-13
6.37938e-12
8.63097e-07
-9.09258e-13
8.63097e-07
-5.00739e-12
5.92915e-12
1.03313e-06
-2.36923e-13
-6.07931e-13
1.03313e-06
5.05865e-13
-5.32929e-12
-3.77714e-13
6.36587e-12
1.80288e-06
-5.27749e-13
3.68802e-12
1.80289e-06
-3.40355e-14
-1.07605e-11
4.50789e-13
7.17247e-12
2.36835e-06
-5.25443e-13
4.59071e-12
2.36835e-06
-1.32563e-12
-1.15674e-11
1.77614e-12
6.84e-12
2.94686e-06
-1.75011e-13
6.53004e-12
2.94686e-06
-2.96871e-12
-1.26681e-11
3.09673e-12
5.99692e-12
3.58537e-06
5.57874e-13
1.00694e-11
3.58537e-06
-4.76223e-12
-1.3825e-11
4.16227e-12
3.72455e-12
4.31006e-06
1.59984e-12
1.55745e-11
4.31006e-06
-6.56979e-12
-1.54892e-11
4.92841e-12
-8.49822e-14
5.14414e-06
2.42901e-12
2.20431e-11
5.14414e-06
-8.1235e-12
-1.83011e-11
5.67246e-12
-3.84221e-12
6.11241e-06
2.04075e-12
2.71946e-11
6.11241e-06
-8.89931e-12
-2.23195e-11
6.86914e-12
-5.03928e-12
7.24234e-06
2.73586e-13
2.71899e-11
7.24235e-06
-8.26105e-12
-2.73475e-11
8.02745e-12
7.67993e-15
8.56316e-06
-1.73056e-12
2.63308e-11
8.56316e-06
-6.55068e-12
-3.14917e-11
8.3312e-12
5.10641e-12
1.01041e-05
-3.07263e-12
2.03716e-11
1.01041e-05
-4.71787e-12
-3.41265e-11
7.82873e-12
1.38187e-11
1.18931e-05
-3.3534e-12
-5.00618e-12
1.18931e-05
-3.20765e-12
-2.57792e-11
6.58703e-12
3.08494e-11
1.39569e-05
-2.6911e-12
-2.93484e-11
1.39569e-05
-2.15527e-12
-2.17566e-11
4.86352e-12
5.11487e-11
1.63228e-05
-1.51927e-12
-4.94548e-11
1.63228e-05
-1.19586e-12
-2.46619e-11
2.72197e-12
7.41685e-11
1.90191e-05
6.88298e-14
-6.18094e-11
1.90191e-05
-1.22017e-14
-3.59429e-11
-6.64347e-14
9.78301e-11
1.90191e-05
1.65897e-12
-6.15605e-11
1.90191e-05
1.1731e-12
-3.6059e-11
-2.83158e-12
9.7566e-11
1.63227e-05
2.86043e-12
-4.89389e-11
1.63227e-05
2.18443e-12
-2.55025e-11
-4.91495e-12
7.38128e-11
1.39568e-05
3.35552e-12
-2.7152e-11
1.39568e-05
3.04941e-12
-2.14673e-11
-6.81378e-12
5.18203e-11
1.18931e-05
3.24377e-12
-4.36001e-12
1.18931e-05
4.71875e-12
-2.87355e-11
-7.88137e-12
2.88186e-11
1.0104e-05
1.73334e-12
2.25711e-11
1.0104e-05
6.50682e-12
-3.37971e-11
-8.50357e-12
1.50132e-11
8.56306e-06
-1.40772e-13
2.5994e-11
8.56307e-06
8.35745e-12
-3.3057e-11
-7.99931e-12
3.95697e-12
7.24224e-06
-2.0172e-12
2.82135e-11
7.24225e-06
9.01483e-12
-2.80843e-11
-6.94032e-12
6.31825e-13
6.11231e-06
-2.45098e-12
2.81687e-11
6.11231e-06
8.38144e-12
-2.39581e-11
-5.90173e-12
-4.09031e-12
5.14405e-06
-1.60832e-12
2.21963e-11
5.14406e-06
6.82303e-12
-1.90093e-11
-5.18825e-12
-3.1771e-12
4.31e-06
-5.45161e-13
1.52637e-11
4.31e-06
4.89896e-12
-1.52288e-11
-4.33294e-12
-1.92321e-15
3.58533e-06
1.93297e-13
9.77874e-12
3.58533e-06
2.99257e-12
-1.33555e-11
-3.16936e-12
3.59013e-12
2.94683e-06
5.0592e-13
6.41541e-12
2.94683e-06
1.24876e-12
-1.23937e-11
-1.74537e-12
6.01766e-12
2.36833e-06
4.60803e-13
4.61255e-12
2.36833e-06
-1.16282e-13
-1.14838e-11
-3.38988e-13
6.88891e-12
1.80287e-06
1.64308e-13
3.59034e-12
1.80287e-06
-6.51396e-13
-1.09552e-11
4.90102e-13
7.37923e-12
1.03312e-06
-9.45443e-13
1.03312e-06
-6.19409e-12
7.15505e-12
1.23261e-06
-2.93246e-13
-4.70607e-13
1.23261e-06
6.01163e-13
-6.55448e-12
-4.22888e-13
7.5687e-12
2.08732e-06
-6.33563e-13
3.90016e-12
2.08732e-06
1.2426e-14
-1.17787e-11
5.06743e-13
7.97794e-12
2.74008e-06
-6.198e-13
4.88674e-12
2.74008e-06
-1.42148e-12
-1.25212e-11
1.9611e-12
7.46359e-12
3.41117e-06
-1.98166e-13
7.29696e-12
3.41117e-06
-3.2799e-12
-1.41814e-11
3.42719e-12
6.71402e-12
4.15113e-06
6.46775e-13
1.16604e-11
4.15114e-06
-5.32222e-12
-1.61479e-11
4.63014e-12
4.45092e-12
4.99006e-06
1.82513e-12
1.83272e-11
4.99006e-06
-7.38088e-12
-1.87054e-11
5.51133e-12
3.77645e-13
5.95488e-06
2.75422e-12
2.61361e-11
5.95489e-06
-9.14499e-12
-2.25513e-11
6.3677e-12
-3.70641e-12
7.07434e-06
2.31101e-12
3.24853e-11
7.07434e-06
-1.00219e-11
-2.75417e-11
7.72364e-12
-5.14368e-12
8.38019e-06
3.09269e-13
3.27636e-11
8.3802e-06
-9.30975e-12
-3.37202e-11
9.04543e-12
7.74409e-13
9.90624e-06
-1.96927e-12
3.13569e-11
9.90625e-06
-7.38736e-12
-3.8694e-11
9.41227e-12
7.27198e-12
1.16864e-05
-3.48833e-12
2.36465e-11
1.16864e-05
-5.32904e-12
-4.10699e-11
8.86052e-12
1.74997e-11
1.3753e-05
-3.80365e-12
-6.95942e-12
1.3753e-05
-3.63675e-12
-2.91512e-11
7.47048e-12
3.61877e-11
1.61372e-05
-3.06339e-12
-3.63599e-11
1.61372e-05
-2.45103e-12
-2.15563e-11
5.53456e-12
5.79699e-11
1.88707e-05
-1.73022e-12
-6.12469e-11
1.88707e-05
-1.36292e-12
-2.27038e-11
3.10177e-12
8.40141e-11
2.19868e-05
7.84283e-14
-7.73077e-11
2.19868e-05
-1.34503e-14
-3.40181e-11
-7.55103e-14
1.11423e-10
2.19868e-05
1.88892e-12
-7.6996e-11
2.19868e-05
1.33737e-12
-3.41724e-11
-3.22673e-12
1.11105e-10
1.88707e-05
3.25096e-12
-6.06521e-11
1.88707e-05
2.47919e-12
-2.37185e-11
-5.5973e-12
8.36087e-11
1.61371e-05
3.81289e-12
-3.37716e-11
1.61371e-05
3.46756e-12
-2.12477e-11
-7.71792e-12
5.87906e-11
1.37529e-05
3.6816e-12
-6.18749e-12
1.37529e-05
5.33382e-12
-3.2661e-11
-8.91788e-12
3.40365e-11
1.16863e-05
1.97723e-12
2.61232e-11
1.16863e-05
7.34202e-12
-4.08252e-11
-9.60418e-12
1.88717e-11
9.90613e-06
-1.6566e-13
3.10445e-11
9.90614e-06
9.41431e-12
-4.05936e-11
-9.02514e-12
5.93455e-12
8.38008e-06
-2.28436e-12
3.40056e-11
8.38009e-06
1.01525e-11
-3.4597e-11
-7.80588e-12
1.51361e-12
7.07423e-06
-2.77853e-12
3.36318e-11
7.07423e-06
9.42787e-12
-2.94925e-11
-6.61791e-12
-3.98812e-12
5.95479e-06
-1.83437e-12
2.63241e-11
5.95479e-06
7.65689e-12
-2.34027e-11
-5.79356e-12
-2.90899e-12
4.98999e-06
-6.32496e-13
1.79644e-11
4.99e-06
5.47225e-12
-1.83892e-11
-4.81684e-12
4.63756e-13
4.15108e-06
2.19081e-13
1.13072e-11
4.15109e-06
3.30705e-12
-1.55775e-11
-3.5081e-12
4.28863e-12
3.41113e-06
6.01188e-13
7.14743e-12
3.41114e-06
1.33947e-12
-1.3808e-11
-1.93036e-12
6.7076e-12
2.74006e-06
5.68225e-13
4.90026e-12
2.74006e-06
-1.73132e-13
-1.2376e-11
-3.89077e-13
7.49773e-12
2.08731e-06
2.18347e-13
3.78795e-12
2.08731e-06
-7.55158e-13
-1.20078e-11
5.40124e-13
8.2369e-12
1.2326e-06
-9.01265e-13
1.2326e-06
-7.5853e-12
8.5054e-12
1.466e-06
-3.62392e-13
-2.22108e-13
1.466e-06
7.05508e-13
-8.0101e-12
-4.62349e-13
8.89506e-12
2.40817e-06
-7.55616e-13
4.16066e-12
2.40817e-06
7.26815e-14
-1.26594e-11
5.67313e-13
8.59451e-12
3.1574e-06
-7.2691e-13
5.23382e-12
3.1574e-06
-1.50416e-12
-1.32342e-11
2.14664e-12
7.7983e-12
3.93274e-06
-2.21628e-13
8.14188e-12
3.93274e-06
-3.59213e-12
-1.55149e-11
3.75939e-12
7.17255e-12
4.78735e-06
7.48629e-13
1.33989e-11
4.78736e-06
-5.90563e-12
-1.84464e-11
5.10898e-12
5.00461e-12
5.75531e-06
2.07411e-12
2.13228e-11
5.75532e-06
-8.24101e-12
-2.20381e-11
6.12025e-12
7.13371e-13
6.86765e-06
3.10869e-12
3.05933e-11
6.86765e-06
-1.02353e-11
-2.70409e-11
7.10301e-12
-3.69703e-12
8.15753e-06
2.604e-12
3.83198e-11
8.15753e-06
-1.12177e-11
-3.31147e-11
8.62908e-12
-5.44416e-12
9.66157e-06
3.45712e-13
3.90161e-11
9.66158e-06
-1.04258e-11
-4.05797e-11
1.01301e-11
1.3468e-12
1.14187e-05
-2.23486e-12
3.70345e-11
1.14187e-05
-8.27743e-12
-4.64361e-11
1.05736e-11
9.32511e-12
1.34682e-05
-3.94143e-12
2.74895e-11
1.34682e-05
-5.98339e-12
-4.84324e-11
9.9731e-12
2.10323e-11
1.58473e-05
-4.29503e-12
-8.42157e-12
1.58473e-05
-4.10552e-12
-3.26304e-11
8.43521e-12
4.11427e-11
1.85922e-05
-3.47901e-12
-4.2912e-11
1.85922e-05
-2.77845e-12
-2.10467e-11
6.28102e-12
6.40235e-11
2.17398e-05
-1.96452e-12
-7.27722e-11
2.17398e-05
-1.54913e-12
-2.01022e-11
3.52448e-12
9.29505e-11
2.53285e-05
8.91025e-14
-9.27707e-11
2.53285e-05
-1.45419e-14
-3.11556e-11
-8.57362e-14
1.24045e-10
2.53284e-05
2.14422e-12
-9.23918e-11
2.53284e-05
1.521e-12
-3.13532e-11
-3.66682e-12
1.23672e-10
2.17397e-05
3.68592e-12
-7.20945e-11
2.17397e-05
2.80492e-12
-2.12961e-11
-6.35724e-12
9.24936e-11
1.85921e-05
4.31203e-12
-3.99117e-11
1.85921e-05
3.92721e-12
-2.07207e-11
-8.70497e-12
6.50031e-11
1.58472e-05
4.15882e-12
-7.55645e-12
1.58472e-05
5.9952e-12
-3.67334e-11
-1.00351e-11
3.88932e-11
1.3468e-05
2.24873e-12
3.02536e-11
1.34681e-05
8.23091e-12
-4.82653e-11
-1.07874e-11
2.26081e-11
1.14186e-05
-1.91662e-13
3.67519e-11
1.14186e-05
1.05387e-11
-4.86987e-11
-1.01216e-11
7.79901e-12
9.66145e-06
-2.57386e-12
4.04878e-11
9.66146e-06
1.1365e-11
-4.16104e-11
-8.72391e-12
2.20306e-12
8.15741e-06
-3.13504e-12
3.96477e-11
8.15741e-06
1.05416e-11
-3.53894e-11
-7.37249e-12
-4.07415e-12
6.86754e-06
-2.08373e-12
3.08197e-11
6.86755e-06
8.53717e-12
-2.80401e-11
-6.42206e-12
-2.76443e-12
5.75524e-06
-7.32549e-13
2.09113e-11
5.75524e-06
6.06803e-12
-2.16644e-11
-5.31057e-12
7.98487e-13
4.7873e-06
2.45414e-13
1.29819e-11
4.78731e-06
3.62304e-12
-1.77669e-11
-3.84898e-12
4.80876e-12
3.9327e-06
7.10145e-13
7.95635e-12
3.9327e-06
1.4186e-12
-1.50289e-11
-2.11745e-12
7.1278e-12
3.15737e-06
6.93878e-13
5.23363e-12
3.15737e-06
-2.4112e-13
-1.30167e-11
-4.46282e-13
7.8099e-12
2.40816e-06
2.87025e-13
4.03403e-12
2.40816e-06
-8.64927e-13
-1.29224e-11
5.8146e-13
8.90835e-12
1.46599e-06
-7.47734e-13
1.46599e-06
-9.2129e-12
9.98303e-12
1.73823e-06
-4.46586e-13
1.68753e-13
1.73823e-06
8.16786e-13
-9.7299e-12
-4.90908e-13
1.03447e-11
2.77121e-06
-8.95989e-13
4.50634e-12
2.77122e-06
1.47071e-13
-1.34004e-11
6.34517e-13
8.98354e-12
3.6269e-06
-8.47943e-13