/*--------------------------------*- C++ -*----------------------------------*\
  =========                 |
  \\      /  F ield         | OpenFOAM: The Open Source CFD Toolbox
   \\    /   O peration     | Website:  https://openfoam.org
    \\  /    A nd           | Version:  6
     \\/     M anipulation  |
\*---------------------------------------------------------------------------*/
FoamFile
{
    version     2.0;
    format      ascii;
    class       volVectorField;
    location    "23";
    object      wallShearStress;
}
// * * * * * * * * * * * * * * * * * * * * * * * * * * * * * * * * * * * * * //

dimensions      [0 2 -2 0 0 0 0];

internalField   uniform (0 0 0);

boundaryField
{
    inlet
    {
        type            calculated;
        value           uniform (0 0 0);
    }
    outlet
    {
        type            calculated;
        value           uniform (0 0 0);
    }
    roughCylinder
    {
        type            calculated;
        value           nonuniform List<vector> 
5120
(
(-0.000250471 -0.000356708 -0.00018369)
(-0.000306994 -0.000461 -4.20898e-05)
(-0.000340493 -0.000554735 -7.71442e-07)
(-0.00038615 -0.000644712 5.39216e-05)
(-0.000443086 -0.000722833 0.000117097)
(-0.000507751 -0.000784642 0.000180595)
(-0.000576691 -0.000827295 0.000239904)
(-0.000645247 -0.000851223 0.000292254)
(-0.00070935 -0.000858883 0.000335553)
(-0.00076691 -0.00085531 0.000369066)
(-0.000818162 -0.000848763 0.000394276)
(-0.000863417 -0.000844912 0.000413086)
(-0.000899683 -0.000843785 0.000424235)
(-0.000930254 -0.000848136 0.000428835)
(-0.000956432 -0.000857183 0.000427928)
(-0.000979562 -0.000870213 0.000422572)
(-0.00100106 -0.000886448 0.000413809)
(-0.00102216 -0.000905243 0.000402544)
(-0.00104381 -0.000926112 0.000389444)
(-0.00106665 -0.00094876 0.000374928)
(-0.00109105 -0.000973017 0.000359205)
(-0.00111712 -0.000998747 0.000342295)
(-0.0011448 -0.00102583 0.000324097)
(-0.00117396 -0.00105409 0.000304422)
(-0.00120432 -0.00108329 0.000282996)
(-0.00123556 -0.00111311 0.000259468)
(-0.00126724 -0.00114307 0.000233332)
(-0.00129881 -0.00117254 0.000203921)
(-0.00132932 -0.00120054 0.000170047)
(-0.0013574 -0.00122572 0.000130267)
(-0.00137991 -0.00124597 8.23701e-05)
(-0.00139277 -0.001258 2.78521e-05)
(-0.000268969 -0.000345024 -0.00017353)
(-0.000328599 -0.000446558 -4.45569e-05)
(-0.000364677 -0.000538979 -6.52935e-06)
(-0.00041245 -0.000628671 4.4757e-05)
(-0.000471063 -0.000707804 0.000105304)
(-0.000537274 -0.000771403 0.000167012)
(-0.00060761 -0.000816234 0.000225175)
(-0.000677657 -0.000842586 0.000276899)
(-0.000743945 -0.000853299 0.000320196)
(-0.000804911 -0.000853995 0.00035476)
(-0.000860343 -0.000851521 0.000381961)
(-0.000909132 -0.000849251 0.000402617)
(-0.000948251 -0.000846857 0.00041486)
(-0.00098037 -0.000850106 0.000420047)
(-0.00100808 -0.000858438 0.000419457)
(-0.00103265 -0.000871109 0.000414325)
(-0.00105556 -0.000887217 0.000405741)
(-0.00107808 -0.00090602 0.000394646)
(-0.00110119 -0.00092698 0.000381743)
(-0.00112556 -0.000949743 0.000367474)
(-0.00115151 -0.000974104 0.000352046)
(-0.0011792 -0.000999923 0.00033549)
(-0.00120855 -0.00102706 0.000317705)
(-0.0012394 -0.00105535 0.000298491)
(-0.00127147 -0.00108454 0.000277573)
(-0.00130441 -0.00111431 0.000254596)
(-0.00133777 -0.00114419 0.000229044)
(-0.00137096 -0.00117356 0.000200263)
(-0.00140301 -0.00120143 0.000167065)
(-0.00143247 -0.00122648 0.000128033)
(-0.00145604 -0.0012466 8.09776e-05)
(-0.00146951 -0.00125854 2.73754e-05)
(-0.000287313 -0.000328151 -0.000156115)
(-0.00034971 -0.000426692 -4.75419e-05)
(-0.000388173 -0.000517043 -1.29499e-05)
(-0.000437657 -0.000605771 3.47212e-05)
(-0.000497645 -0.000685385 9.23425e-05)
(-0.000565251 -0.000750531 0.000152015)
(-0.000637049 -0.000797695 0.000208942)
(-0.000708941 -0.00082712 0.000260191)
(-0.00077795 -0.000841823 0.000303929)
(-0.000842611 -0.00084711 0.000339915)
(-0.000901946 -0.000848277 0.000368911)
(-0.000954008 -0.000847521 0.000390852)
(-0.000996703 -0.00084518 0.000404398)
(-0.0010305 -0.000846886 0.000410109)
(-0.00105977 -0.000854331 0.00040983)
(-0.00108587 -0.000866459 0.00040497)
(-0.00111029 -0.000882272 0.000396615)
(-0.00113431 -0.00090093 0.000385752)
(-0.00115894 -0.000921809 0.000373108)
(-0.00118486 -0.000944521 0.00035914)
(-0.00121243 -0.000968821 0.000344073)
(-0.00124176 -0.000994551 0.00032793)
(-0.00127279 -0.00102156 0.000310618)
(-0.00130534 -0.00104968 0.000291928)
(-0.00133911 -0.00107867 0.000271579)
(-0.00137375 -0.00110818 0.000249213)
(-0.00140876 -0.00113778 0.000224307)
(-0.00144355 -0.00116684 0.000196219)
(-0.00147708 -0.00119438 0.000163764)
(-0.00150788 -0.00121911 0.000125556)
(-0.0015325 -0.00123896 7.94357e-05)
(-0.00154655 -0.00125071 2.68488e-05)
(-0.000303609 -0.000307371 -0.000134222)
(-0.000368358 -0.000402405 -5.06017e-05)
(-0.000408769 -0.000489954 -1.9616e-05)
(-0.000459383 -0.000577078 2.42606e-05)
(-0.000520311 -0.000656673 7.868e-05)
(-0.000589084 -0.000723171 0.000136046)
(-0.000662414 -0.000772838 0.000191582)
(-0.000736472 -0.00080583 0.000242364)
(-0.000808516 -0.00082503 0.00028668)
(-0.000876873 -0.000834964 0.000324143)
(-0.000939923 -0.000839512 0.000354799)
(-0.000995431 -0.000840461 0.000377951)
(-0.00104179 -0.000839029 0.000392785)
(-0.00107817 -0.000839179 0.000399182)
(-0.00110914 -0.000845646 0.000399351)
(-0.00113692 -0.000857067 0.000394809)
(-0.00116293 -0.000872448 0.000386754)
(-0.00118853 -0.000890826 0.00037619)
(-0.00121474 -0.000911516 0.000363867)
(-0.00124225 -0.000934058 0.000350264)
(-0.00127143 -0.00095817 0.000335608)
(-0.00130239 -0.000983672 0.000319937)
(-0.00133507 -0.00101041 0.000303145)
(-0.00136926 -0.0010382 0.000285026)
(-0.00140466 -0.00106681 0.000265288)
(-0.0014409 -0.0010959 0.00024357)
(-0.00147746 -0.00112504 0.000219346)
(-0.00151376 -0.00115363 0.000191986)
(-0.00154869 -0.00118068 0.000160308)
(-0.00158075 -0.00120497 0.000122965)
(-0.00160632 -0.00122442 7.78261e-05)
(-0.0016209 -0.00123592 2.63004e-05)
(-0.000316808 -0.000282999 -0.000109995)
(-0.000383507 -0.000373987 -5.338e-05)
(-0.000425372 -0.000458082 -2.61872e-05)
(-0.000476529 -0.000542974 1.37037e-05)
(-0.00053797 -0.000622054 6.46304e-05)
(-0.000607747 -0.000689714 0.000119363)
(-0.000682737 -0.000742057 0.000173273)
(-0.000759271 -0.000778946 0.000223504)
(-0.000834552 -0.000802777 0.00026836)
(-0.000906504 -0.000817097 0.000307166)
(-0.00097311 -0.000824761 0.000339334)
(-0.00103214 -0.000827492 0.000363737)
(-0.00108203 -0.000827178 0.000379679)
(-0.00112233 -0.000826952 0.000387238)
(-0.00115525 -0.000831865 0.000387975)
(-0.00118483 -0.000842376 0.000383858)
(-0.00121256 -0.000857136 0.000376198)
(-0.00123981 -0.000875088 0.000366012)
(-0.00126761 -0.000895421 0.000354084)
(-0.00129671 -0.00091763 0.000340908)
(-0.00132747 -0.000941403 0.000326728)
(-0.00136002 -0.000966527 0.000311582)
(-0.00139428 -0.000992829 0.000295363)
(-0.00143003 -0.00102013 0.000277861)
(-0.00146697 -0.00104818 0.000258777)
(-0.00150469 -0.00107668 0.000237744)
(-0.00154269 -0.00110518 0.000214233)
(-0.00158035 -0.00113311 0.000187627)
(-0.00161655 -0.00115951 0.00015675)
(-0.00164976 -0.00118317 0.000120298)
(-0.00167619 -0.00120212 7.61737e-05)
(-0.00169124 -0.0012133 2.57385e-05)
(-0.000326861 -0.000256421 -8.5194e-05)
(-0.000395006 -0.000342827 -5.5745e-05)
(-0.000437757 -0.00042291 -3.24546e-05)
(-0.000488852 -0.000504999 3.29788e-06)
(-0.000550335 -0.000583056 5.04362e-05)
(-0.000620881 -0.000651613 0.000102184)
(-0.000697513 -0.000706578 0.000154178)
(-0.000776598 -0.000747336 0.000203666)
(-0.000855143 -0.000775581 0.000248903)
(-0.000930678 -0.000793903 0.00028885)
(-0.00100088 -0.000804462 0.000322385)
(-0.00106355 -0.000809 0.000348077)
(-0.00111718 -0.000809842 0.00036513)
(-0.00116156 -0.00081005 0.000373937)
(-0.00119759 -0.000813373 0.000375567)
(-0.00122917 -0.000822717 0.000372067)
(-0.00125876 -0.00083659 0.000364907)
(-0.00128774 -0.000853858 0.000355203)
(-0.00131721 -0.000873676 0.000343763)
(-0.00134792 -0.000895404 0.000331095)
(-0.00138024 -0.00091867 0.000317458)
(-0.00141432 -0.000943243 0.000302898)
(-0.00145007 -0.000968937 0.000287305)
(-0.00148728 -0.00099556 0.000270466)
(-0.0015256 -0.00102288 0.000252072)
(-0.00156467 -0.00105058 0.000231758)
(-0.00160394 -0.00107826 0.000208985)
(-0.00164282 -0.00110537 0.000183157)
(-0.00168013 -0.00113095 0.0001531)
(-0.00171437 -0.00115386 0.000117565)
(-0.00174154 -0.00117216 7.4486e-05)
(-0.00175696 -0.00118296 2.51662e-05)
(-0.000332589 -0.000227973 -6.07867e-05)
(-0.000401652 -0.000309328 -5.75222e-05)
(-0.000444692 -0.000384833 -3.82086e-05)
(-0.000495054 -0.000463502 -6.7875e-06)
(-0.000556015 -0.00053997 3.62037e-05)
(-0.000627004 -0.000609086 8.45306e-05)
(-0.000705235 -0.000666595 0.000134236)
(-0.000787003 -0.000711222 0.000182725)
(-0.000868953 -0.00074372 0.000228126)
(-0.000948174 -0.000765752 0.000268983)
(-0.0010221 -0.000779017 0.000303732)
(-0.00108859 -0.000785378 0.000330721)
(-0.00114621 -0.000787443 0.000349033)
(-0.00119473 -0.000788392 0.000359064)
(-0.00123513 -0.000791287 0.000362014)
(-0.00126924 -0.00079869 0.000359325)
(-0.00130088 -0.000811414 0.000352835)
(-0.00133177 -0.000827848 0.000343745)
(-0.00136295 -0.000846908 0.00033289)
(-0.00139526 -0.000867945 0.000320815)
(-0.00142912 -0.000890538 0.000307801)
(-0.00146467 -0.000914402 0.000293894)
(-0.00150182 -0.000939333 0.000278986)
(-0.00154036 -0.000965133 0.000262861)
(-0.00157996 -0.000991571 0.000245204)
(-0.00162021 -0.00101835 0.000225642)
(-0.00166059 -0.00104507 0.000203632)
(-0.0017005 -0.00107118 0.0001786)
(-0.00173876 -0.00109579 0.000149378)
(-0.00177388 -0.00111781 0.000114779)
(-0.00180167 -0.00113537 7.27726e-05)
(-0.00181738 -0.00114572 2.45873e-05)
(-0.000334053 -0.000198767 -3.77599e-05)
(-0.000403404 -0.000274645 -5.87085e-05)
(-0.000446132 -0.000345146 -4.33481e-05)
(-0.000495103 -0.000419866 -1.63668e-05)
(-0.00055492 -0.000494181 2.21683e-05)
(-0.000625883 -0.000563379 6.66509e-05)
(-0.000705408 -0.000623053 0.000113629)
(-0.00078961 -0.000671151 0.000160713)
(-0.000874817 -0.000707484 0.000205908)
(-0.000957779 -0.000732936 0.000247384)
(-0.0010357 -0.000748838 0.000283199)
(-0.00110632 -0.000757101 0.000311496)
(-0.0011682 -0.000760477 0.000331228)
(-0.00122097 -0.000762153 0.000342618)
(-0.00126557 -0.000765143 0.00034688)
(-0.00130382 -0.00077152 0.000345487)
(-0.00133798 -0.000782443 0.000339893)
(-0.0013709 -0.000797392 0.000331543)
(-0.00140391 -0.000815525 0.000321429)
(-0.0014379 -0.000835727 0.000310065)
(-0.00147328 -0.000857482 0.000297761)
(-0.00151022 -0.000880477 0.000284581)
(-0.00154866 -0.000904487 0.000270422)
(-0.00158838 -0.000929303 0.000255061)
(-0.00162903 -0.000954692 0.000238176)
(-0.00167025 -0.000980372 0.000219399)
(-0.00171149 -0.001006 0.000198174)
(-0.00175223 -0.00103107 0.00017396)
(-0.00179124 -0.00105464 0.000145588)
(-0.00182711 -0.00107567 0.000111943)
(-0.00185534 -0.00109242 7.10369e-05)
(-0.0018712 -0.00110234 2.40033e-05)
(-0.000329956 -0.000168867 -1.66421e-05)
(-0.00039899 -0.000238931 -5.91415e-05)
(-0.000440747 -0.000303958 -4.76796e-05)
(-0.000487545 -0.000374097 -2.5232e-05)
(-0.000545395 -0.000445508 8.52187e-06)
(-0.000615677 -0.000514131 4.86548e-05)
(-0.000696144 -0.000575548 9.23598e-05)
(-0.000782764 -0.000626918 0.000137548)
(-0.000871405 -0.000666991 0.00018213)
(-0.000958323 -0.000695759 0.000223907)
(-0.00104044 -0.000714222 0.000260588)
(-0.00111545 -0.000724392 0.000290146)
(-0.00118184 -0.000729118 0.000311405)
(-0.00123921 -0.000731643 0.000324405)
(-0.0012882 -0.000734817 0.000330157)
(-0.0013305 -0.000740739 0.000330144)
(-0.00136834 -0.000750436 0.000325812)
(-0.00140431 -0.000764118 0.000318636)
(-0.00143925 -0.000780798 0.000309413)
(-0.00147488 -0.000799807 0.000298861)
(-0.00151174 -0.000820518 0.000287371)
(-0.00155 -0.000842517 0.000275007)
(-0.00158959 -0.000865527 0.000261669)
(-0.00163031 -0.000889316 0.000247133)
(-0.00167184 -0.000913657 0.000231072)
(-0.00171382 -0.000938259 0.000213115)
(-0.00175564 -0.000962743 0.000192688)
(-0.00179681 -0.000986603 0.000169282)
(-0.00183623 -0.00100899 0.00014175)
(-0.00187261 -0.00102892 0.000109071)
(-0.00190109 -0.00104479 6.92894e-05)
(-0.00191686 -0.00105419 2.34172e-05)
(-0.000320854 -0.000139596 1.90645e-06)
(-0.000388761 -0.000203202 -5.90626e-05)
(-0.000428942 -0.000262759 -5.11672e-05)
(-0.000472956 -0.000327819 -3.3199e-05)
(-0.000528051 -0.000395661 -4.41933e-06)
(-0.000596871 -0.000462967 3.09336e-05)
(-0.000677619 -0.000525428 7.0786e-05)
(-0.000766083 -0.000579413 0.000113448)
(-0.000857741 -0.000622685 0.000156816)
(-0.000948606 -0.000654565 0.000198451)
(-0.00103529 -0.000675663 0.000235788)
(-0.00111512 -0.000687835 0.000266567)
(-0.00118645 -0.000693993 0.000289444)
(-0.0012486 -0.000697299 0.00030421)
(-0.00130216 -0.000700671 0.000311696)
(-0.00134861 -0.000706179 0.000313253)
(-0.00139019 -0.000715046 0.000310386)
(-0.00142912 -0.000727581 0.000304507)
(-0.00146658 -0.000742899 0.00029644)
(-0.00150421 -0.000760659 0.000286945)
(-0.00154259 -0.000780169 0.000276426)
(-0.001582 -0.000800984 0.000264981)
(-0.00162246 -0.0008228 0.000252533)
(-0.0016638 -0.00084537 0.000238869)
(-0.00170571 -0.000868435 0.000223655)
(-0.0017479 -0.000891731 0.000206526)
(-0.00178981 -0.000914844 0.000186903)
(-0.00183113 -0.000937329 0.000164336)
(-0.00187069 -0.000958393 0.000137684)
(-0.00190738 -0.000977158 0.000106027)
(-0.00193585 -0.000992039 6.74406e-05)
(-0.00195136 -0.00100082 2.27977e-05)
(-0.000303676 -0.000110363 1.74978e-05)
(-0.000372297 -0.000168124 -5.81166e-05)
(-0.000409467 -0.000221632 -5.37151e-05)
(-0.000449708 -0.000280946 -3.9993e-05)
(-0.000500944 -0.000344304 -1.63176e-05)
(-0.000567193 -0.000409258 1.37901e-05)
(-0.000647463 -0.000471974 4.90851e-05)
(-0.000737598 -0.000528265 8.84843e-05)
(-0.000832577 -0.000574809 0.000130021)
(-0.00092765 -0.000609865 0.00017103)
(-0.00101902 -0.000633579 0.000208685)
(-0.00110396 -0.000647788 0.000240558)
(-0.00118049 -0.000655329 0.00026506)
(-0.00124793 -0.000659484 0.000281782)
(-0.00130645 -0.000663069 0.000291255)
(-0.00135743 -0.000668242 0.000294684)
(-0.00140283 -0.000676261 0.000293498)
(-0.00144491 -0.000687652 0.000289109)
(-0.00148489 -0.000701642 0.000282372)
(-0.00152441 -0.00071803 0.000274089)
(-0.00156425 -0.000736195 0.000264686)
(-0.00160471 -0.000755661 0.000254286)
(-0.00164588 -0.000776092 0.000242828)
(-0.00168761 -0.000797235 0.000230114)
(-0.00172969 -0.000818856 0.000215813)
(-0.00177183 -0.000840671 0.000199566)
(-0.00181361 -0.00086229 0.000180792)
(-0.00185478 -0.000883272 0.000159107)
(-0.00189417 -0.000902898 0.000133375)
(-0.00193088 -0.000920392 0.000102795)
(-0.00195916 -0.000934239 6.54859e-05)
(-0.0019743 -0.00094235 2.21448e-05)
(-0.000279957 -8.24492e-05 3.00699e-05)
(-0.000349701 -0.000134957 -5.63623e-05)
(-0.000383683 -0.000182143 -5.52963e-05)
(-0.000419331 -0.000235424 -4.54774e-05)
(-0.000465752 -0.000293601 -2.67938e-05)
(-0.000528305 -0.000355212 -2.21047e-06)
(-0.000606958 -0.000417129 2.78778e-05)
(-0.00069762 -0.000474725 6.31452e-05)
(-0.000794915 -0.000523764 0.000101959)
(-0.000893979 -0.000561836 0.000141673)
(-0.000990573 -0.000588477 0.000179292)
(-0.0010811 -0.000604935 0.000212093)
(-0.00116348 -0.000614036 0.000238264)
(-0.00123646 -0.000618928 0.000257031)
(-0.00130025 -0.000622618 0.000268695)
(-0.00135592 -0.000627317 0.000274235)
(-0.0014055 -0.000634492 0.000275024)
(-0.00145084 -0.000644616 0.000272354)
(-0.00149348 -0.000657215 0.000267167)
(-0.00153505 -0.000672179 0.000260296)
(-0.0015763 -0.000688855 0.000252163)
(-0.00161768 -0.000706802 0.000242933)
(-0.00165936 -0.00072571 0.000232571)
(-0.00170125 -0.000745293 0.000220896)
(-0.00174313 -0.000765296 0.00020757)
(-0.00178485 -0.000785476 0.00019225)
(-0.00182604 -0.000805428 0.000174356)
(-0.00186667 -0.000824787 0.00015359)
(-0.0019056 -0.000842905 0.000128818)
(-0.00194212 -0.000859067 9.93772e-05)
(-0.00196989 -0.000871799 6.34244e-05)
(-0.00198445 -0.000879178 2.14578e-05)
(-0.000248995 -5.66033e-05 3.93821e-05)
(-0.000318975 -0.000103492 -5.3557e-05)
(-0.000349836 -0.000144331 -5.55713e-05)
(-0.000380136 -0.000191128 -4.92326e-05)
(-0.000420405 -0.000243119 -3.53212e-05)
(-0.000477633 -0.000299993 -1.64448e-05)
(-0.000553311 -0.000359859 7.74279e-06)
(-0.000644111 -0.000418289 3.79184e-05)
(-0.000744254 -0.000470107 7.31154e-05)
(-0.000847529 -0.000511388 0.000110765)
(-0.00094895 -0.000540822 0.000147716)
(-0.00104527 -0.000559669 0.00018113)
(-0.00113363 -0.000570332 0.000208833)
(-0.00121275 -0.000576072 0.000229768)
(-0.0012823 -0.000579852 0.000243848)
(-0.00134329 -0.000584083 0.000251821)
(-0.00139722 -0.000590244 0.000254845)
(-0.00144618 -0.000599047 0.000254199)
(-0.00149158 -0.000610128 0.000250807)
(-0.00153508 -0.000623459 0.000245522)
(-0.00157769 -0.000638504 0.000238831)
(-0.00161988 -0.000654824 0.00023092)
(-0.00166185 -0.000672068 0.00022177)
(-0.0017036 -0.000689963 0.000211221)
(-0.00174502 -0.000708281 0.000198949)
(-0.00178599 -0.000726747 0.000184612)
(-0.00182633 -0.000745011 0.000167644)
(-0.00186614 -0.00076271 0.000147834)
(-0.00190421 -0.000779244 0.000124046)
(-0.00194024 -0.000793999 9.57923e-05)
(-0.00196728 -0.000805614 6.12756e-05)
(-0.00198114 -0.000812272 2.0745e-05)
(-0.000212867 -3.42297e-05 4.5327e-05)
(-0.000281669 -7.49845e-05 -4.98455e-05)
(-0.000309984 -0.000109873 -5.4699e-05)
(-0.000335063 -0.000150284 -5.13156e-05)
(-0.000368556 -0.00019564 -4.16449e-05)
(-0.000419136 -0.000246709 -2.82755e-05)
(-0.000490049 -0.000303032 -1.04126e-05)
(-0.000578652 -0.000360576 1.36923e-05)
(-0.000679153 -0.000413635 4.40421e-05)
(-0.000785798 -0.00045782 7.85914e-05)
(-0.000893149 -0.000490897 0.000114269)
(-0.000995761 -0.000512573 0.000147868)
(-0.00109086 -0.000525228 0.000176978)
(-0.00117643 -0.000531863 0.000200075)
(-0.00125212 -0.000535692 0.000216731)
(-0.00131844 -0.000539219 0.000227337)
(-0.00137719 -0.000544289 0.000232923)
(-0.00142989 -0.000551577 0.000234572)
(-0.00147825 -0.000561031 0.000233254)
(-0.00152397 -0.000572683 0.000229822)
(-0.00156791 -0.000585982 0.000224767)
(-0.00161072 -0.000600538 0.000218322)
(-0.00165276 -0.000616029 0.000210503)
(-0.00169407 -0.000632165 0.000201175)
(-0.00173457 -0.000648695 0.00019001)
(-0.00177433 -0.000665377 0.000176693)
(-0.00181324 -0.000681847 0.00016066)
(-0.00185173 -0.000697813 0.000141825)
(-0.00188862 -0.000712754 0.000119046)
(-0.00192393 -0.000726101 9.20354e-05)
(-0.00194988 -0.000736558 5.90356e-05)
(-0.00196276 -0.00074247 2.00046e-05)
(-0.00017089 -1.56737e-05 4.75602e-05)
(-0.000236321 -4.95677e-05 -4.48355e-05)
(-0.000262198 -7.84958e-05 -5.22226e-05)
(-0.000281971 -0.000112274 -5.12527e-05)
(-0.000307689 -0.000150181 -4.50989e-05)
(-0.000349568 -0.000193842 -3.67132e-05)
(-0.000413506 -0.000244786 -2.53207e-05)
(-0.000499331 -0.000300704 -8.19929e-06)
(-0.00060153 -0.00035573 1.60786e-05)
(-0.000711798 -0.000403167 4.63071e-05)
(-0.000823036 -0.000439144 7.95495e-05)
(-0.000931746 -0.000463916 0.000112653)
(-0.00103344 -0.000478735 0.000142738)
(-0.001126 -0.000486617 0.000167922)
(-0.00120825 -0.000490628 0.000187261)
(-0.00128079 -0.000493638 0.000200813)
(-0.0013445 -0.00049745 0.000209218)
(-0.00140134 -0.000503161 0.000213496)
(-0.00145277 -0.000510836 0.000214523)
(-0.00150046 -0.000520581 0.000213147)
(-0.00154565 -0.00053201 0.000209929)
(-0.00158898 -0.000544737 0.000205119)
(-0.00163083 -0.000558408 0.000198757)
(-0.00167135 -0.000572741 0.00019074)
(-0.00171061 -0.000587498 0.000180759)
(-0.00174877 -0.000602411 0.000168507)
(-0.001786 -0.000617165 0.000153442)
(-0.00182289 -0.000631468 0.000135611)
(-0.0018582 -0.00064483 0.000113851)
(-0.00189246 -0.000656727 8.81241e-05)
(-0.00191708 -0.000666083 5.67232e-05)
(-0.00192884 -0.00067131 1.92441e-05)
(-0.000126339 -2.1222e-06 4.64164e-05)
(-0.000186251 -2.88579e-05 -3.87785e-05)
(-0.000210736 -5.22018e-05 -4.84315e-05)
(-0.000226786 -7.99299e-05 -4.94841e-05)
(-0.000245596 -0.000110729 -4.59726e-05)
(-0.000278631 -0.000146694 -4.15821e-05)
(-0.000333683 -0.00019075 -3.6218e-05)
(-0.000411941 -0.000241968 -2.66122e-05)
(-0.00050909 -0.000295014 -9.67055e-06)
(-0.000619854 -0.000344352 1.48227e-05)
(-0.000737713 -0.000385225 4.45576e-05)
(-0.000852957 -0.000413868 7.61976e-05)
(-0.000962052 -0.000431714 0.000106742)
(-0.00106169 -0.000441187 0.000133714)
(-0.00115091 -0.000445678 0.000155726)
(-0.00122932 -0.00044803 0.000172275)
(-0.0012985 -0.000450668 0.000183785)
(-0.00135952 -0.000454661 0.000190944)
(-0.00141423 -0.000460488 0.000194607)
(-0.00146428 -0.00046835 0.000195585)
(-0.00151069 -0.000477848 0.00019442)
(-0.00155428 -0.000488671 0.000191401)
(-0.00159565 -0.000500498 0.000186616)
(-0.00163503 -0.000513034 0.000180005)
(-0.00167252 -0.000526016 0.000171253)
(-0.00170853 -0.000539174 0.000160084)
(-0.0017434 -0.0005522 0.000145976)
(-0.00177807 -0.000564829 0.000129152)
(-0.00181135 -0.000576649 0.000108418)
(-0.00184437 -0.000587156 8.40336e-05)
(-0.00186725 -0.000595432 5.43217e-05)
(-0.00187758 -0.000599993 1.8457e-05)
(-7.90547e-05 7.62653e-06 4.23052e-05)
(-0.00013075 -1.16075e-05 -3.09513e-05)
(-0.000152157 -2.86313e-05 -4.24341e-05)
(-0.000164203 -4.98615e-05 -4.48652e-05)
(-0.000176272 -7.30893e-05 -4.32934e-05)
(-0.000196786 -9.93155e-05 -4.15644e-05)
(-0.000238637 -0.000133915 -4.05661e-05)
(-0.000308397 -0.000179712 -3.79018e-05)
(-0.000407096 -0.000233827 -2.9601e-05)
(-0.000520996 -0.000286164 -1.34208e-05)
(-0.000638806 -0.000329278 1.06554e-05)
(-0.000759558 -0.000362288 3.95989e-05)
(-0.00087521 -0.000383579 6.96104e-05)
(-0.000982458 -0.000395511 9.78832e-05)
(-0.00107863 -0.000400921 0.000122322)
(-0.00116397 -0.00040324 0.000141994)
(-0.0012385 -0.000404738 0.000156719)
(-0.00130413 -0.000407151 0.000167032)
(-0.0013621 -0.000411078 0.00017357)
(-0.00141408 -0.000416881 0.000177083)
(-0.00146153 -0.000424399 0.000178172)
(-0.00150523 -0.000433332 0.000177118)
(-0.00154582 -0.000443339 0.000174034)
(-0.00158364 -0.000454122 0.000168915)
(-0.001619 -0.000465426 0.00016146)
(-0.00165245 -0.000476965 0.000151407)
(-0.00168469 -0.000488422 0.000138275)
(-0.0017169 -0.000499533 0.00012248)
(-0.00174789 -0.000509948 0.000102781)
(-0.00177929 -0.000519075 7.97782e-05)
(-0.00180016 -0.000526373 5.18483e-05)
(-0.0018089 -0.000530359 1.76512e-05)
(-3.99225e-05 1.04093e-05 3.4573e-05)
(-7.91556e-05 -3.24587e-06 -2.14079e-05)
(-0.000101796 -1.43866e-05 -3.09986e-05)
(-0.000114498 -2.91104e-05 -3.96202e-05)
(-0.000120302 -4.77096e-05 -3.87484e-05)
(-0.000135875 -6.57272e-05 -3.56021e-05)
(-0.000169684 -8.93794e-05 -3.72919e-05)
(-0.000229834 -0.000123164 -4.35405e-05)
(-0.000300217 -0.000168 -4.77037e-05)
(-0.000400884 -0.000220903 -3.77591e-05)
(-0.000526743 -0.000271149 -1.95995e-05)
(-0.000652486 -0.000308788 4.53757e-06)
(-0.000775358 -0.000334943 3.27596e-05)
(-0.000889252 -0.000349892 6.14042e-05)
(-0.000992738 -0.000357119 8.78306e-05)
(-0.00108397 -0.000359568 0.000110297)
(-0.00116435 -0.000360428 0.000128293)
(-0.00123429 -0.000361356 0.000141846)
(-0.00129566 -0.000363524 0.000151471)
(-0.00135005 -0.000367481 0.000157796)
(-0.00139849 -0.00037308 0.000161339)
(-0.00144194 -0.000380151 0.00016239)
(-0.00148139 -0.000388396 0.000161112)
(-0.00151722 -0.000397523 0.000157564)
(-0.00154984 -0.00040725 0.000151436)
(-0.00158005 -0.000417256 0.000142492)
(-0.0016089 -0.000427194 0.000130301)
(-0.00163803 -0.00043687 0.000115535)
(-0.00166596 -0.000445903 9.68505e-05)
(-0.00169567 -0.000453766 7.53021e-05)
(-0.00171409 -0.000460166 4.92666e-05)
(-0.00172093 -0.000463639 1.6812e-05)
(-1.76006e-05 1.00334e-05 2.13321e-05)
(-2.42924e-05 -1.27511e-06 -1.45646e-05)
(-2.85712e-05 -5.50591e-06 -1.83287e-05)
(-3.53438e-05 -1.29149e-05 -2.19801e-05)
(-3.88472e-05 -2.00031e-05 -1.7872e-05)
(-4.22319e-05 -2.20881e-05 -1.67576e-05)
(-5.54404e-05 -3.07647e-05 -2.55112e-05)
(-0.000105169 -7.77372e-05 -3.5827e-05)
(-0.000195873 -0.000117822 -3.29335e-05)
(-0.000294204 -0.000158869 -4.72906e-05)
(-0.00040177 -0.00020708 -4.44977e-05)
(-0.000532684 -0.000252675 -2.6579e-05)
(-0.000660786 -0.000283931 -2.09667e-06)
(-0.000782585 -0.000303846 2.56422e-05)
(-0.000892386 -0.000313695 5.30846e-05)
(-0.000990543 -0.000317551 7.79479e-05)
(-0.00107592 -0.000318151 9.8908e-05)
(-0.0011505 -0.000318137 0.000115723)
(-0.00121502 -0.000318765 0.000128511)
(-0.00127093 -0.000320858 0.000137707)
(-0.00131998 -0.000324629 0.000143842)
(-0.00136294 -0.000329988 0.000147135)
(-0.00140089 -0.000336615 0.000147756)
(-0.00143429 -0.00034423 0.00014585)
(-0.00146376 -0.000352568 0.0001411)
(-0.0014904 -0.000361248 0.000133278)
(-0.00151574 -0.000369916 0.000122039)
(-0.00154139 -0.000378337 0.000108313)
(-0.00156648 -0.000386281 9.06732e-05)
(-0.00159399 -0.000392896 7.06189e-05)
(-0.00160974 -0.000398545 4.65947e-05)
(-0.00161451 -0.000401614 1.59467e-05)
(3.42254e-06 1.07796e-05 2.03589e-05)
(-1.05338e-06 2.26301e-06 -9.39151e-06)
(-4.2155e-06 2.23427e-06 -1.63882e-05)
(-1.07259e-05 -4.82043e-06 -2.02633e-05)
(-1.746e-05 -1.09653e-05 -1.93043e-05)
(-2.2676e-05 -1.33858e-05 -2.45234e-05)
(-4.15299e-05 -3.41195e-05 -4.20172e-05)
(-3.21799e-05 -3.44546e-05 -2.15027e-05)
(-7.15684e-05 -6.25637e-05 -1.93906e-05)
(-0.000164683 -9.81783e-05 -3.01447e-05)
(-0.0002919 -0.000144251 -5.39341e-05)
(-0.000406656 -0.000192141 -5.29484e-05)
(-0.000538592 -0.000232159 -3.2913e-05)
(-0.000663543 -0.000256621 -7.59012e-06)
(-0.000779862 -0.000270707 1.96499e-05)
(-0.000882863 -0.000276542 4.58118e-05)
(-0.000973959 -0.000278123 6.92463e-05)
(-0.00105228 -0.000277662 8.89939e-05)
(-0.00111976 -0.000277245 0.000104895)
(-0.00117785 -0.000278044 0.000117098)
(-0.00122742 -0.000280285 0.000125938)
(-0.0012694 -0.000284116 0.000131542)
(-0.00130536 -0.000289307 0.000134106)
(-0.00133583 -0.000295592 0.000133883)
(-0.00136147 -0.000302704 0.000130508)
(-0.00138372 -0.000310167 0.000123754)
(-0.00140451 -0.000317573 0.000113391)
(-0.00142648 -0.000324963 0.000100738)
(-0.00144734 -0.00033173 8.40835e-05)
(-0.00147298 -0.00033732 6.56341e-05)
(-0.00148545 -0.000342255 4.37605e-05)
(-0.00148789 -0.000345003 1.50287e-05)
(2.15359e-05 7.04139e-06 2.76096e-05)
(2.15773e-05 1.04239e-05 3.387e-06)
(1.51275e-05 1.35261e-05 -7.9068e-06)
(9.2549e-06 7.9272e-06 -1.64891e-05)
(4.36763e-06 1.16948e-06 -2.1053e-05)
(-1.96824e-06 -5.86815e-06 -2.12116e-05)
(-1.16802e-05 -1.23534e-05 -2.24241e-05)
(-2.16881e-05 -1.5865e-05 -2.62527e-05)
(-2.23967e-05 -2.00327e-05 -2.29278e-05)
(-3.67291e-05 -3.05699e-05 -2.0953e-05)
(-0.000134531 -8.76958e-05 -4.27969e-05)
(-0.000276175 -0.000135495 -5.48727e-05)
(-0.000404533 -0.000174748 -5.43747e-05)
(-0.000537357 -0.000208655 -3.53878e-05)
(-0.000657007 -0.000227365 -1.07213e-05)
(-0.000765326 -0.000237004 1.53732e-05)
(-0.000859401 -0.000240057 4.01912e-05)
(-0.000941601 -0.00024024 6.23679e-05)
(-0.00101154 -0.000239435 8.11015e-05)
(-0.00107004 -0.000239149 9.60743e-05)
(-0.00111931 -0.000240154 0.000107566)
(-0.00115989 -0.000242789 0.000115497)
(-0.00119348 -0.000246828 0.000120009)
(-0.00122056 -0.000252006 0.000121486)
(-0.00124204 -0.000258148 0.0001195)
(-0.00125985 -0.00026464 0.000113809)
(-0.00127673 -0.000271143 0.000104366)
(-0.00129395 -0.00027754 9.27556e-05)
(-0.00131176 -0.000283586 7.71742e-05)
(-0.00133452 -0.000288085 6.03567e-05)
(-0.00134399 -0.000292504 4.0796e-05)
(-0.00134397 -0.000295049 1.40677e-05)
(3.40849e-05 1.30498e-05 3.68638e-05)
(4.25842e-05 9.27407e-06 -8.11154e-06)
(4.38201e-05 3.82727e-06 -1.33309e-05)
(4.21731e-05 -4.52298e-06 -1.62038e-05)
(3.87046e-05 -1.20912e-05 -1.55289e-05)
(3.14014e-05 -1.64877e-05 -9.23554e-06)
(1.5181e-05 -1.14417e-05 -3.51307e-06)
(-5.3142e-06 -3.03403e-06 -1.01589e-05)
(-2.37221e-05 -2.89042e-07 -3.07122e-05)
(-2.77142e-05 -1.92534e-05 -3.52347e-05)
(-5.04974e-05 -4.54518e-05 -3.24125e-05)
(-0.000137428 -7.48968e-05 -3.98723e-05)
(-0.000279026 -0.000117113 -6.24563e-05)
(-0.000400741 -0.000156186 -5.52157e-05)
(-0.000524532 -0.000182805 -3.51576e-05)
(-0.000635035 -0.00019646 -1.15674e-05)
(-0.000734421 -0.000203418 1.30378e-05)
(-0.000818657 -0.000205127 3.65688e-05)
(-0.000890098 -0.00020479 5.75608e-05)
(-0.000950085 -0.000204501 7.51258e-05)
(-0.000999106 -0.000204891 8.91715e-05)
(-0.0010376 -0.000206698 9.93312e-05)
(-0.00106819 -0.000209886 0.000105687)
(-0.00109136 -0.000214183 0.00010882)
(-0.00110795 -0.000219524 0.000108152)
(-0.00112023 -0.000225009 0.000103372)
(-0.00113114 -0.000230283 9.46782e-05)
(-0.0011449 -0.000236224 8.42757e-05)
(-0.00115734 -0.000241144 6.9659e-05)
(-0.00117859 -0.000245025 5.46625e-05)
(-0.00118378 -0.000248688 3.75617e-05)
(-0.00118112 -0.000251132 1.30134e-05)
(4.51517e-05 1.45694e-05 4.44613e-05)
(6.16828e-05 1.17277e-05 -8.04957e-06)
(6.8081e-05 7.812e-06 -1.52383e-05)
(7.01901e-05 8.55289e-08 -1.89739e-05)
(6.85034e-05 -8.79937e-06 -1.97412e-05)
(6.24824e-05 -1.69779e-05 -1.77637e-05)
(4.98068e-05 -2.33303e-05 -1.34964e-05)
(3.06284e-05 -2.42849e-05 -8.17018e-06)
(8.08675e-06 -1.67578e-05 -9.98727e-06)
(-5.65328e-06 -1.05887e-05 -1.77193e-05)
(-2.30806e-05 -1.20086e-05 -2.23015e-05)
(-6.17668e-05 -3.23738e-05 -3.89712e-05)
(-0.000146638 -6.3485e-05 -5.07459e-05)
(-0.000277709 -0.000105227 -6.13939e-05)
(-0.000392047 -0.000136052 -5.27169e-05)
(-0.000505198 -0.00015798 -3.37065e-05)
(-0.000601788 -0.000167445 -1.10161e-05)
(-0.000687959 -0.000172124 1.27521e-05)
(-0.000760398 -0.000173312 3.51773e-05)
(-0.000818394 -0.000173266 5.45677e-05)
(-0.00086544 -0.000173452 7.07356e-05)
(-0.000901174 -0.00017488 8.28879e-05)
(-0.000928413 -0.000177657 9.08947e-05)
(-0.000947373 -0.000181299 9.55923e-05)
(-0.000958928 -0.000186084 9.61859e-05)
(-0.000966516 -0.000190736 9.23197e-05)
(-0.000974615 -0.000195503 8.45756e-05)
(-0.000981673 -0.000200487 7.5194e-05)
(-0.000991316 -0.000204751 6.17452e-05)
(-0.00100886 -0.000207801 4.85438e-05)
(-0.00101149 -0.000210932 3.41365e-05)
(-0.0010064 -0.00021355 1.18918e-05)
(5.29863e-05 1.37128e-05 4.59715e-05)
(7.45014e-05 1.091e-05 -7.04741e-06)
(8.45183e-05 7.35782e-06 -1.55215e-05)
(9.00852e-05 8.92294e-08 -2.08492e-05)