/*--------------------------------*- C++ -*----------------------------------*\
  =========                 |
  \\      /  F ield         | OpenFOAM: The Open Source CFD Toolbox
   \\    /   O peration     | Website:  https://openfoam.org
    \\  /    A nd           | Version:  6
     \\/     M anipulation  |
\*---------------------------------------------------------------------------*/
FoamFile
{
    version     2.0;
    format      ascii;
    class       volScalarField;
    location    "23";
    object      yPlus;
}
// * * * * * * * * * * * * * * * * * * * * * * * * * * * * * * * * * * * * * //

dimensions      [0 0 0 0 0 0 0];

internalField   uniform 0;

boundaryField
{
    inlet
    {
        type            calculated;
        value           uniform 0;
    }
    outlet
    {
        type            calculated;
        value           uniform 0;
    }
    roughCylinder
    {
        type            calculated;
        value           nonuniform List<scalar> 
5120
(
43.4944
51.314
57.5423
63.6684
68.9573
73.2473
76.6847
79.4632
81.738
83.6435
85.2991
86.7816
88.1282
89.373
90.547
91.6806
92.8045
93.9469
95.1313
96.3748
97.6871
99.0703
100.522
102.034
103.597
105.198
106.821
108.443
110.026
111.499
112.714
113.433
42.778
50.3139
56.3433
62.3296
67.5452
71.8003
75.2198
77.9902
80.2648
82.1766
83.8409
85.3273
86.6658
87.897
89.0533
90.1658
91.2662
92.3836
93.5423
94.7586
96.042
97.3951
98.8149
100.294
101.822
103.387
104.973
106.556
108.101
109.539
110.724
111.424
41.9954
49.282
55.1235
60.9697
66.1115
70.3346
73.7422
76.5132
78.7982
80.726
82.4042
83.8957
85.2303
86.4505
87.5901
88.6828
89.7614
90.8554
91.9882
93.1775
94.4329
95.7564
97.1447
98.5912
100.085
101.614
103.163
104.709
106.216
107.617
108.772
109.454
41.1774
48.23
53.8848
59.5877
64.6558
68.8516
72.2542
75.0336
77.3378
79.29
80.9875
82.4881
83.8245
85.0359
86.163
87.239
88.2974
89.3686
90.4782
91.6425
92.8707
94.1654
95.5234
96.9376
98.3973
99.8908
101.402
102.911
104.381
105.747
106.872
107.535
40.3231
47.1518
52.6173
58.1727
63.1673
67.3423
70.7507
73.5509
75.8859
77.8695
79.5907
81.1046
82.4469
83.6562
84.773
85.834
86.8749
87.9269
89.0135
90.1531
91.3556
92.6229
93.9516
95.3347
96.7617
98.2212
99.6974
101.17
102.603
103.935
105.03
105.675
39.4439
46.052
51.3221
56.7236
61.6459
65.8089
69.234
72.0636
74.4349
76.4554
78.2055
79.7377
81.0912
82.3039
83.4157
84.4668
85.4928
86.5257
87.5931
88.7115
89.8896
91.1306
92.4311
93.7839
95.1783
96.6036
98.0441
99.4799
100.878
102.175
103.242
103.869
38.5265
44.9186
49.9865
55.2258
60.0735
64.231
67.685
70.5587
72.9789
75.0429
76.8261
78.3827
79.7529
80.9769
82.0904
83.1347
84.1496
85.1695
86.218
87.3144
88.4699
89.686
90.9594
92.283
93.6475
95.0401
96.4462
97.8476
99.2091
100.475
101.512
102.122
37.5819
43.7543
48.6079
53.6731
58.4444
62.6074
66.1061
69.0341
71.5082
73.6232
75.4493
77.0372
78.4313
79.6693
80.7915
81.8358
82.8442
83.8503
84.8847
85.9651
87.0996
88.2922
89.5396
90.8349
92.1677
93.5269
94.8993
96.2643
97.5927
98.824
99.8351
100.426
36.5683
42.5256
47.1555
52.0328
56.7201
60.8923
64.45
67.4543
70.0048
72.1824
74.0557
75.6833
77.1075
78.3716
79.5094
80.5623
81.5697
82.5728
83.5943
84.6561
85.7715
86.942
88.1647
89.4324
90.7368
92.0655
93.4039
94.7363
96.0287
97.2293
98.2113
98.7864
35.5227
41.2531
45.6426
50.3105
54.9028
59.0936
62.7314
65.826
68.4564
70.7089
72.6498
74.3279
75.795
77.0867
78.2455
79.3098
80.3239
81.322
82.3363
83.3891
84.4879
85.6378
86.8366
88.0777
89.3504
90.6457
91.9504
93.245
94.5058
95.6724
96.6286
97.1843
34.3142
39.8326
43.9736
48.412
52.891
57.0975
60.8336
64.0594
66.8218
69.1769
71.1909
72.934
74.4484
75.7853
76.9766
78.0652
79.0903
80.0982
81.1091
82.148
83.2319
84.363
85.5387
86.7529
87.9985
89.2634
90.5338
91.7972
93.0204
94.1582
95.085
95.6244
33.0588
38.3639
42.2368
46.4135
50.7525
54.9757
58.8356
62.2087
65.0949
67.5687
69.6951
71.517
73.1039
74.4884
75.7182
76.8315
77.8772
78.8867
79.8979
80.9369
82.0096
83.1233
84.2771
85.4657
86.6791
87.9089
89.1458
90.3696
91.5628
92.6647
93.5658
94.0864
31.4878
36.5933
40.175
44.0479
48.2018
52.4181
56.4194
60.0204
63.1593
65.8238
68.0756
70.0165
71.6799
73.1365
74.4208
75.5798
76.6505
77.6867
78.7063
79.7357
80.7983
81.8966
83.03
84.1925
85.3797
86.5807
87.7812
88.976
90.1286
91.2038
92.0754
92.5783
29.858
34.7778
38.0659
41.601
45.5216
49.712
53.8856
57.7255
61.0571
63.9258
66.3843
68.4457
70.2311
71.77
73.1206
74.3235
75.4358
76.4822
77.5102
78.5517
79.6094
80.6944
81.8073
82.9452
84.0992
85.2622
86.4288
87.5798
88.7042
89.7411
90.5841
91.0693
27.5758
32.3252
35.2635
38.3572
41.9323
46.019
50.3442
54.5775
58.4481
61.7126
64.4029
66.7146
68.6405
70.297
71.7346
73.0135
74.1666
75.2631
76.3169
77.3536
78.4071
79.4808
80.5764
81.6887
82.8162
83.951
85.0793
86.2024
87.2815
88.2925
89.108
89.5714
25.1247
29.7963
32.479
35.168
38.3212
42.2069
46.7806
51.3942
55.5109
59.1622
62.3054
64.8058
66.9471
68.7566
70.3131
71.6667
72.8971
74.0166
75.0877
76.1538
77.2111
78.2764
79.352
80.4395
81.5325
82.6244
83.715
84.788
85.8408
86.8095
87.5897
88.0382
21.1102
25.7994
28.0378
30.019
32.5825
36.2665
40.5598
45.8083
51.3361
55.8925
59.4593
62.5701
65.0174
67.0384
68.7403
70.2224
71.5122
72.7139
73.8382
74.9037
75.9634
77.0216
78.0843
79.1462
80.2103
81.2729
82.3231
83.371
84.3679
85.3107
86.0662
86.4875
16.2458
21.323
23.9205
25.6608
26.2976
27.4329
34.1851
40.9255
46.1822
51.6705
56.5326
59.9213
62.7819
65.1171
67.0515
68.6648
70.0993
71.3479
72.4986
73.6215
74.6983
75.7547
76.7962
77.831
78.8575
79.8702
80.8732
81.8563
82.8332
83.7269
84.4367
84.8435
6.83894
11.3095
11.8057
13.8365
18.4711
19.7647
21.6594
25.4676
38.3556
45.7568
51.1694
56.4181
60.0801
62.8783
65.0971
66.9525
68.4758
69.8577
71.1099
72.2333
73.3191
74.3732
75.4061
76.4145
77.4072
78.3861
79.3472
80.3151
81.2108
82.0818
82.7623
83.1402
8.31137
8.02624
10.1678
10.0847
11.5601
13.1735
16.6884
23.9228
21.6535
36.6702
46.9481
52.0343
56.6341
60.1319
62.8407
64.9476
66.759
68.2344
69.5221
70.755
71.8827
72.944
73.9543
74.9288
75.876
76.7929
77.6862
78.5564
79.45
80.252
80.8852
81.237
11.2902
15.7831
16.7908
16.5029
14.3442
12.1341
11.6731
21.1212
20.1553
17.1061
31.4578
45.0059
51.8268
56.631
60.0499
62.6853
64.6435
66.3603
67.8521
69.0797
70.2195
71.2864
72.2898
73.2357
74.1411
75.0138
75.8646
76.7431
77.5023
78.2987
78.8706
79.2054
19.6959
24.2225
26.2497
27.2678
27.2162
25.9963
23.6064
20.8875
16.8077
22.4896
25.6677
32.1867
45.3462
51.9667
56.5291
59.7041
62.3061
64.2075
65.739
67.186
68.4242
69.5111
70.4939
71.3877
72.2286
73.015
73.7544
74.4741
75.2625
75.9368
76.4816
76.7564
21.9304
26.9196
29.6401
31.6632
32.8803
33.1266
32.157
29.4851
24.9718
24.9361
28.937
33.8573
33.3512
45.1658
51.7535
56.2503
59.0901
61.5148
63.5002
64.9239
66.1659
67.2779
68.2451
69.1078
69.8906
70.609
71.3071
72.0696
72.631
73.3562
73.7567
74.0364
22.5944
27.689
30.619
32.9839
34.7406
35.8593
36.2764
35.8142
33.9504
29.8925
27.5192
32.4985
34.1315
34.2891
45.2865
50.9139
55.469
58.2386
60.2454
62.1436
63.6267
64.7768
65.7357
66.4949
67.1688
67.7455
68.2266
68.7423
69.3529
69.8199
70.2287
70.3973
22.0605
27.2801
30.3528
32.9196
34.9386
36.3967
37.293
37.624
37.3059
35.7902
32.0106
29.6109
26.9713
24.9549
33.5323
44.9293
49.4798
53.6817
56.8201
58.6177
60.0393
61.2758
62.1772
62.9035
63.4717
63.921
64.3913
64.9598
65.2257
65.8917
66.0515
66.1771
20.6326
25.9799
29.1383
31.8286
34.0211
35.7129
36.9243
37.6962
38.0757
38.0456
37.2166
34.0681
27.3427
29.7903
28.8345
30.8455
43.1885
47.8352
50.8945
53.8628
55.9412
57.2131
58.1446
58.5939
58.9547
59.1184
59.0074
59.3029
59.4797
59.5013
59.6188
59.5789
18.742
24.172
27.3524
30.0874
32.3654
34.1983
35.6153
36.6772
37.4752
38.1014
38.5305
38.1667
35.4287
32.1233
25.5242
31.86
29.6327
38.9675
45.2712
47.4696
48.9476
50.6155
51.2477
51.7304
51.7026
51.6419
51.8677
51.7886
52.2866
52.5387
53.5339
52.1966
16.5684
21.9801
25.0894
27.7745
30.0521
31.9573
33.5332
34.841
35.974
37.0356
38.0919
39.0133
39.0606
36.2415
28.2115
29.758
33.196
26.3644
31.8949
37.8374
42.1082
43.6856
44.1819
43.7671
43.5136
42.3598
40.4238
41.5571
38.0962
38.1378
36.2628
34.4418
14.3656
19.6236
22.5602
25.0966
27.2821
29.1749
30.833
32.3219
33.725
35.1362
36.612
38.1114
39.3545
39.1477
36.0494
25.2775
31.282
27.6857
34.1276
28.8158
20.1159
25.1912
25.8061
23.343
19.2076
32.1872
19.1198
17.8461
40.185
23.0628
36.091
27.9687
12.4094
17.3937
20.0826
22.3987
24.4246
26.2375
27.9059
29.4956
31.0751
32.7182
34.4788
36.3369
38.1288
39.3674
39.0132
35.4271
31.4166
19.4002
33.2221
34.8929
18.5195
24.7648
6.19223
26.2411
18.3189
42.9904
30.1532
17.0611
39.1966
24.2108
41.9457
21.815
10.8923
15.5317
17.9544
20.03
21.8708
23.5675
25.1927
26.8064
28.4606
30.2043
32.0843
34.1145
36.2138
38.0905
39.1981
38.9085
35.253
28.7342
28.4974
32.2751
14.7033
30.8036
23.8955
31.8899
29.3228
39.1667
36.8157
35.607
31.2694
36.5432
33.8118
33.0386
9.76777
14.1647
16.3609
18.2335
19.9175
21.5074
23.0698
24.6509
26.2864
28.009
29.8573
31.8692
34.0457
36.2634
38.176
39.3317
38.6604
37.1751
32.3977
30.899
28.5095
26.7698
30.0558
32.6481
35.4154
35.8219
37.8858
36.925
39.8018
38.7065
35.6905
43.8696
9.16564
13.3729
15.4095
17.1505
18.7396
20.2623
21.7689
23.2876
24.8393
26.4489
28.153
30.0001
32.0358
34.2565
36.5243
38.5175
39.5562
39.7062
37.4269
37.6316
38.1129
36.1913
37.8482
40.3072
41.8861
42.0739
42.9218
40.1292
44.1887
42.1902
41.1777
45.9128
8.98695
13.1061
15.0723
16.7657
18.3285
19.8303
21.3014
22.7541
24.1992
25.6584
27.1667
28.7726
30.5344
32.5052
34.686
36.944
38.8367
39.978
39.7226
40.3418
40.8643
40.2291
40.8964
42.3155
43.018
43.0918
43.5182
41.221
44.2906
42.6075
42.1345
45.4062
9.16041
13.2697
15.2386
16.9532
18.544
20.0621
21.5208
22.9221
24.2731
25.5933
26.9142
28.2777
29.7362
31.3524
33.1839
35.2323
37.305
39.0453
39.9564
40.8933
41.5118
41.3409
41.6019
42.3348
42.6859
42.6491
42.7782
41.0892
43.1984
41.9937
41.4192
43.8927
9.58999
13.7411
15.7613
17.5433
19.1986
20.761
22.2319
23.6072
24.8931
26.1087
27.2826
28.4493
29.6495
30.9341
32.3638
33.9904
35.7804
37.5634
38.9979
40.2526
41.0927
41.254
41.376
41.5216
41.5449
41.3458
41.1494
40.0146
41.3427
40.5188
39.9349
41.8379
10.2212
14.4441
16.5392
18.4091
20.1444
21.7638
23.2612
24.6314
25.8824
27.0342
28.1129
29.146
30.162
31.1957
32.2934
33.5074
34.8654
36.3316
37.7369
39.0399
40.0124
40.3948
40.4744
40.266
40.0216
39.6565
39.2506
38.5061
39.3437
38.8045
38.3635
39.8607
11.0019
15.3243
17.5069
19.4711
21.288
22.9654
24.4941
25.8714
27.1093
28.2305
29.2595
30.218
31.1238
31.9968
32.8659
33.7697
34.7455
35.8105
36.9112
37.9958
38.8853
39.3292
39.3903
39.0319
38.6071
38.1136
37.6175
37.136
37.6855
37.409
37.2169
38.4103
11.8422
16.3332
18.6117
20.67
22.5647
24.2968
25.8577
27.2495
28.4898
29.6041
30.6163
31.5438
32.3966
33.1837
33.9194
34.626
35.3323
36.0654
36.8215
37.5801
38.2317
38.5823
38.5858
38.1729
37.6427
37.0715
36.5614
36.2441
36.6519
36.6184
36.6818
37.6719
12.8257
17.4388
19.8114
21.9606
23.9284
25.7118
27.305
28.7164
29.9694
31.0929
32.1097
33.0342
33.8715
34.6234
35.295
35.8954
36.4403
36.9492
37.4329
37.8901
38.2658
38.4356
38.3287
37.8742
37.2795
36.6673
36.1742
35.9588
36.3113
36.4859
36.767
37.6264
13.6064
14.029
14.5158
14.9074
15.2857
15.5863
15.8483
16.0512
16.2137
16.3279
16.4048
16.4427
16.4457
16.4151
16.355
16.268
16.1565
16.0259
15.8877
15.7732
15.7775
15.8943
16.032
16.1609
16.2703
16.3548
16.4125
16.4407
16.4351
16.3947
16.3154
16.1988
16.0338
15.8283
15.5636
15.2598
14.8788
14.4847
13.9958
13.5726
18.3474
18.7862
19.2929
19.7026
20.0991
20.4214
20.7063
20.9341
21.1226
21.2644
21.3693
21.4361
21.4675
21.4635
21.4264
21.3582
21.2601
21.1361
20.9972
20.8766
20.8801
21.002
21.1394
21.2608
21.3561
21.4213
21.4556
21.4569
21.4228
21.3535
21.2463
21.102
20.9112
20.681
20.3935
20.0684
19.6692
19.2569
18.748
18.3083
20.7993
21.2635
21.8003
22.2356
22.6607
23.0137
23.3333
23.5986
23.8276
24.0129
24.1627
24.276
24.3545
24.3967
24.4029
24.3741
24.3104
24.2147
24.0966
23.9882
23.9909
24.0995
24.2151
24.3075
24.3676
24.3931
24.3836
24.3384
24.2571
24.1415
23.9894
23.802
23.5709
23.3035
22.9817
22.6262
22.1986
21.7608
21.2218
20.7565
23.0101
23.4935
24.0532
24.5083
24.9579
25.3384
25.6903
25.9914
26.2597
26.488
26.6824
26.8416
26.9669
27.0557
27.1065
27.1186
27.0917
27.028
26.9369
26.8499
26.8514
26.9375
27.0254
27.085
27.1077
27.0917
27.0373
26.9453
26.8171
26.6555
26.4589
26.2288
25.9587
25.6558
25.3023
24.9197
24.468
24.0108
23.4491
22.9644
25.0172
25.5049
26.0724
26.5341
26.9957
27.3917
27.7639
28.0897
28.3862
28.6472
28.8776
29.0745
29.2383
29.3655
29.4536
29.5007
29.5057
29.4707
29.4055
29.3403
29.3408
29.404
29.4655
29.4958
29.4861
29.4346
29.3425
29.2119
29.0451
28.8457
28.6133
28.3507
28.0528
27.7257
27.3523
26.9548
26.4917
26.0283
25.4591
24.9703
26.8202
27.2958
27.8572
28.3134
28.7757
29.177
29.5601
29.9033
30.2227
30.5106
30.7711
31.0002
31.1968
31.3569
31.4769
31.554
31.5866
31.5763
31.5331
31.4854
31.4851
31.5301
31.5688
31.5739
31.5361
31.4541
31.3297
31.166
30.9663
30.7348
30.4724
30.1831
29.8628
29.5188
29.1351
28.7329
28.2699
27.8125
27.2499
26.7733
28.4192
28.8716
29.4194
29.8646
30.323
30.7273
31.1209
31.4809
31.8216
32.1345
32.4226
32.6808
32.9069
33.0962
33.2445
33.3479
33.4042
33.4147
33.389
33.3536
33.3527
33.3846
33.4052
33.389
33.327
33.2184
33.0654
32.8721
32.6428
32.382
32.0922
31.7781
31.4367
31.0765
30.6829
30.2787
29.8202
29.3745
28.8261
28.3729
29.8306
30.256
30.7896
31.2254
31.6827
32.0942
32.4998
32.8775
33.2389
33.5758
33.8893
34.1739
34.4267
34.642
34.815
34.941
35.0172
35.0444
35.0317
35.0044
35.003
35.0262
35.0332
34.9997
34.9175
34.7858
34.6078
34.3882
34.1321
33.8447
33.5294
33.1914
32.8295
32.4519
32.0466
31.636
31.1794
30.7441
30.2103
29.7847
31.0841
31.4842
32.0077
32.439
32.8996
33.3204
33.7393
34.1342
34.515
34.8736
35.2098
35.5179
35.7938
36.0314
36.2252
36.3699
36.4622
36.5022
36.4987
36.4761
36.4744
36.4922
36.4895
36.4428
36.344
36.1932
35.994
35.7519
35.4723
35.1614
34.8233
34.4636
34.0824
33.6877
33.2696
32.85
32.3907
31.9606
31.4375
31.0377
32.2108
32.5887
33.1062
33.537
34.0021
34.4327
34.8638
35.2742
35.6722
36.0494
36.405
36.7329
37.028
37.2841
37.4949
37.6546
37.7593
37.8087
37.8112
37.7912
37.7892
37.8039
37.7947
37.7381
37.6264
37.4602
37.2437
36.9829
36.6837
36.353
35.9952
35.6168
35.2184
34.8084
34.3782
33.949
33.4855
33.0563
32.54
32.1628
33.2326
33.5898
34.1032
34.5338
35.0033
35.4423
35.8841
36.3076
36.72
37.1128
37.4844
37.8283
38.139
38.4097
38.6339
38.8052
38.9193
38.9757
38.9823
38.9635
38.9613
38.9743
38.9605
38.8964
38.7749
38.5967
38.3665
38.0907
37.7757
37.4287
37.0549
36.6608
36.248
35.8248
35.384
34.9465
34.4787
34.0498
33.5379
33.1813
34.1606
34.4956
35.0037
35.4336
35.9064
36.3525
36.8029
37.2375
37.6616
38.0672
38.4517
38.8084
39.1316
39.4138
39.6484
39.8288
39.9504
40.0125
40.0228
40.0058
40.0033
40.0141
39.9961
39.9259
39.7965
39.6089
39.3679
39.0802
38.7527
38.3925
38.0057
37.5987
37.174
36.7399
36.2903
35.8456
35.3747
34.9464
34.4397
34.1048
34.9957
35.3062
35.8071
36.2352
36.7101
37.1621
37.6199
38.0636
38.4977
38.9137
39.3086
39.6756
40.0085
40.3
40.5428
40.7306
40.8586
40.9264
40.9415
40.9277
40.9249
40.9319
40.9087
40.8326
40.6964
40.5011
40.2515
39.9543
39.6168
39.2461
38.8486
38.431
37.9963
37.5529
37.0959
36.6453
36.1719
35.7454
35.2456
34.9349
35.7368
36.0188
36.5098
36.9348
37.4112
37.8683
38.3328
38.7845
39.2272
39.652
40.0556
40.431
40.7717
41.0704
41.3199
41.514
41.648
41.7219
41.7433
41.7348
41.7315
41.7328
41.7029
41.6204
41.4778
41.276
41.0194
40.7148
40.3691
39.9899
39.5835
39.1569
38.7135
38.2617
37.7979
37.342
36.867
36.4432
35.9527
35.6698
36.3832
36.6301
37.1075
37.5282
38.0054
38.4675
38.9384
39.3979
39.8484
40.2812
40.6924
41.0748
41.422
41.7267
41.982
42.1816
42.3217
42.4025
42.4317
42.4296
42.426
42.4202
42.3821
42.2923
42.1435
41.9358
41.6733
41.3623
41.0098
40.6233
40.2092
39.7745
39.323
38.8633
38.3928
37.9316
37.4555
37.0354
36.5579
36.3093
36.9363
37.1368
37.5953
38.0097
38.4871
38.9542
39.4317
39.8992
40.3575
40.798
41.2163
41.6051
41.9582
42.2683
42.5286
42.7337
42.8799
42.968
43.0056
43.0103
43.0064
42.993
42.9461
42.8488
42.6935
42.4801
42.2123
41.8957
41.5373
41.1441
40.7227
40.2801
39.8206
39.3528
38.8755
38.4088
37.9319
37.5174
37.0571
36.8533
37.3988
37.5352
37.9672
38.372
38.8484
39.3207
39.8053
40.2811
40.7476
41.196
41.6214
42.0165
42.3751
42.6902
42.9555
43.1658
43.3181
43.4136
43.4595
43.4704
43.4659
43.4457
43.3903
43.2852
43.1236
42.9048
42.6317
42.3099
41.9458
41.5462
41.1175
40.6669
40.1989
39.7226
39.2379
38.7657
38.2892
37.8829
37.4479
37.3068
37.7767
37.8221
38.2125
38.605
39.0784
39.5557
40.0477
40.5325
41.0079
41.4647
41.8974
42.299
42.6633
42.9834
43.2536
43.4691
43.6274
43.7299
43.7831
43.7993
43.7944
43.7684
43.705
43.5927
43.4249
43.2006
42.9225
42.5955
42.2256
41.8193
41.3832
40.9241
40.4473
39.9616
39.4695
38.9918
38.5178
38.1228
37.7286
37.6774
38.0768
37.9977
38.3248
38.6955
39.1639
39.6454
40.1449
40.6392
41.1242
41.5899
42.0306
42.4393
42.8095
43.135
43.4102
43.6309
43.7948
43.9037
43.9632
43.9837
43.9785
43.9474
43.8773
43.7582
43.5845
43.3549
43.0717
42.7392
42.3632
41.9499
41.5057
41.0376
40.5512
40.0562
39.5563
39.0743
38.6045
38.2309
37.9004
37.9728
38.2947
38.0604
38.2988
38.6337
39.0915
39.576
40.0824
40.5862
41.081
41.5563
42.0056
42.4217
42.7984
43.1296
43.41
43.6358
43.8052
43.9196
43.9845
44.0084
44.0028
43.9677
43.8918
43.7668
43.5874
43.3525
43.0638
42.7256
42.3431
41.9224
41.4697
40.9922
40.4962
39.9917
39.485
39
38.5417
38.2057
37.9665
38.1978
38.4049
38.0003
38.1303
38.4136
38.8517
39.3371
39.8488
40.3618
40.8659
41.3507
41.8087
42.2326
42.6161
42.9532
43.2388
43.4696
43.644
43.7632
43.8323
43.8589
43.8529
43.8146
43.7339
43.6036
43.4191
43.179
42.885
42.5409
42.1516
41.7233
41.2621
40.7752
40.2702
39.7573
39.2462
38.7616
38.3251
38.0443
37.9191
38.3298
38.362
37.7975
37.815
38.0364
38.4454
38.9256
39.4424
39.9628
40.4754
40.9686
41.4346
41.8657
42.2555
42.5981
42.8887
43.124
43.3024
43.4254
43.4977
43.526
43.5197
43.4788
43.3945
43.26
43.0711
42.8263
42.5274
42.1777
41.7822
41.3468
40.878
40.3832
39.8701
39.3505
38.8351
38.3578
37.9532
37.7379
37.7286
38.3027
38.1251
37.4322
37.3531
37.5147
37.8916
38.3614
38.8797
39.4042
39.9227
40.422
40.8939
41.3304
41.7251
42.0719
42.3661
42.6043
42.7855
42.9106
42.9845
43.0136
43.0069
42.9644
42.8777
42.7405
42.5486
42.3006
41.9979
41.644
41.2439
40.8033
40.3287
39.8282
39.3099
38.7868
38.2712
37.806
37.4354
37.2813
37.3672
38.0631
37.6282
36.8832
36.7554
36.8767
37.2271
37.6836
38.1987
38.7262
39.247
39.749
40.2232
40.6619
41.0583
41.4064
41.7014
41.9403
42.1214
42.2464
42.3198
42.3484
42.341
42.298
42.211
42.0734
41.8808
41.632
41.3283
40.973
40.5711
40.1284
39.6517
39.1488
38.6285
38.103
37.5911
37.1394
36.7952
36.6805
36.8141
37.5613
37.0006
36.229
36.0792
36.1796
36.5141
36.9603
37.4711
37.9978
38.5172
39.0179
39.4905
39.9274
40.3216
40.6673
40.9597
41.1954
41.3732
41.4947
41.5646
41.5908
41.5826
41.5405
41.4558
41.3209
41.1311
40.8848
40.5835
40.2304
39.8305
39.3896
38.9146
38.4133
37.8947
37.3705
36.8639
36.4231
36.0953
36.002
36.1572
36.9296
36.3651
35.6038
35.4575
35.5509
35.8755
36.3113
36.8131
37.3326
37.8449
38.3387
38.8042
39.234
39.6208
39.9591
40.2439
40.4718
40.6417
40.755
40.8174
40.8382
40.8287
40.7897
40.7108
40.5829
40.4001
40.1608
39.8663
39.52
39.1269
38.6927
38.2246
37.73
37.2187
36.7022
36.205
35.7753
35.4585
35.3744
35.5317
36.3056
35.9114
35.1626
35.0225
35.1128
35.4294
35.854
36.3434
36.8502
37.3509
37.8332
38.2871
38.7051
39.0802
39.4066
39.6794
39.8953
40.0527
40.1534
40.2038
40.2159
40.2048
40.172
40.1036
39.9872
39.8162
39.5887
39.3061
38.9721
38.5913
38.1699
37.7149
37.2341
36.7371
36.2368
35.7556
35.3401
35.0325
34.9501
35.0936
35.8423
35.6462
34.9893
34.9046
35.0165
35.3354
35.7481
36.2185
36.7029
37.1822
37.6431
38.0764
38.4743
38.8298
39.1373
39.3917
39.5896
39.729
39.8115
39.8437
39.8412
39.8267
39.8031
39.7493
39.6485
39.493
39.2811
39.0146
38.6971
38.3338
37.9305
37.4944
37.0338
36.5586
36.0827
35.6247
35.2288
34.9335
34.8531
34.98
35.6931
35.6491
35.0759
35.046
35.1902
35.5213
35.9326
36.3912
36.8579
37.3185
37.7602
38.1739
38.552
38.888
39.1763
39.4122
39.5922
39.7138
39.7781
39.7912
39.7718
39.7537
39.743
39.7067
39.6233
39.485
39.2908
39.0429
38.7452
38.4027
38.0218
37.6094
37.1742
36.7267
36.2822
35.8573
35.4917
35.2214
35.1605
35.299
36.0259
36.14
35.5944
35.5835
35.7323
36.0564
36.4503
36.8858
37.3278
37.7635
38.1802
38.5692
38.9231
39.2358
39.502
39.7171
39.8776
39.9809
40.0273
40.0221
39.9848
39.9614
39.963
39.9428
39.8754
39.7539
39.5778
39.3495
39.0732
38.7538
38.3971
38.01
37.6009
37.1798
36.761
36.3604
36.0106
35.7393
35.6543
35.7336
36.3585
36.9477
36.3804
36.3475
36.4641
36.7541
37.1109
37.5094
37.9187
38.3246
38.7139
39.0776
39.4082
39.6994
39.9459
40.1434
40.288
40.3773
40.4112
40.3944
40.3464
40.3204
40.3319
40.3235
40.269
40.1616
40.0013
39.7906
39.5336
39.2349
38.9002
38.5359
38.1497
37.7509
37.3529
36.9698
36.6315
36.3579
36.2495
36.2727
36.799
37.3364
36.8968
36.937
37.0799
37.372
37.7134
38.0902
38.4733
38.8523
39.2146
39.5524
39.8586
40.1272
40.3531
40.5319
40.6599
40.7347
40.7559
40.7279
40.669
40.6347
40.6454
40.6399
40.5902
40.4894
40.3373
40.1365
39.891
39.6054
39.2855
38.9378
38.5701
38.1924
37.8186
37.4641
37.1619
36.93
36.8717
36.9532
37.5621
43.4864
51.3074
57.5365
63.6633
68.9526
73.2429
76.6805
79.459
81.7336
83.639
85.2947
86.7772
88.1239
89.3689
90.543
91.6768
92.8008
93.9434
95.1279
96.3716
97.684
99.0676
100.519
102.032
103.595
105.196
106.819
108.439
110.021
111.49
112.704
113.413
42.7805
50.3154
56.3441
62.3294
67.544
71.7981
75.2168
77.9866
80.2611
82.1729
83.8372
85.3235
86.662
87.8932
89.0494
90.1618
91.2623
92.3799
93.5387
94.7553
96.039
97.3924
98.8125
100.291
101.82
103.385
104.97
106.553
108.097
109.53
110.713
111.403
41.9863
49.2743
55.1166
60.9633
66.1056
70.3295
73.7376
76.5088
78.7937
80.7214
82.3996
83.8911
85.2258
86.4462
87.586
88.6789
89.7577
90.8518
91.9847
93.1742
94.4299
95.7537
97.1423
98.5893
100.083
101.612
103.161
104.705
106.212
107.608
108.762
109.432
41.1815
48.2334
53.8876
59.5897
64.6565
68.8508
72.2519
75.0303
77.3342
79.2864
80.9838
82.4842
83.8205
85.0319
86.159
87.2349
88.2933
89.3647
90.4746
91.6393
92.8677
94.1628
95.5211
96.9352
98.3954
99.8889
101.401
102.908
104.377
105.738
106.861
107.512
40.313
47.1429
52.6087
58.1643
63.1593
67.3354
70.7449
73.5461
75.8813
77.8648
79.586
81.1001
82.4425
83.6519
84.7688
85.83
86.8711
87.9232
89.0099
90.1497
91.3526
92.6203
93.9495
95.3328
96.7603
98.2194
99.6956
101.165
102.599
103.925
105.019
105.65
39.4498
46.0579
51.3281
56.7294
61.6506
65.8118
69.2344
72.0619
74.4321
76.4522
78.202
79.7337
81.087
82.2996
83.4115
84.4625
85.4886
86.5217
87.5894
88.7082
89.8867
91.128
92.4288
93.7816
95.177
96.6022
98.0423
99.4769
100.874
102.165
103.23
103.842
38.5164
44.9089
49.976
55.2144
60.0618
64.22
67.676
70.5518
72.9733
75.0377
76.8214
78.3786
79.7491
80.9731
82.0864
83.1308
84.1458
85.1657
86.2143
87.3109
88.4669
89.6836
90.9576
92.2816
93.6465
95.0383
96.4453
97.8433
99.2062
100.464
101.501
102.093
37.5885
43.7623
48.6177
53.6843
58.4559
62.6175
66.1131
69.0374
71.5085
73.6219
75.4464
77.0331
78.4263
79.6641
80.7867
81.8311
82.8397
83.8463
84.881
85.9619
87.0968
88.2897
89.5377
90.833
92.1664
93.5264
94.898
96.2621
97.5893
98.8135
99.8226
100.395
36.5621
42.5181
47.1454
52.0195
56.704
60.8751
64.4343
67.4418
69.9953
72.1751
74.0506
75.6797
77.1049
78.3692
79.5063
80.559
81.5662
82.569
83.5905
84.6526
85.7686
86.94
88.1633
89.4319
90.7363
92.0641
93.4039
94.7316
96.0262
97.218
98.1997
98.7518
35.5262
41.2599
45.6536
50.326
54.9218
59.1138
62.7494
65.839
68.464
70.7119
72.6486
74.3241
75.7892
77.0801
78.2397
79.3042
80.3185
81.3177
82.3326
83.3859
84.4852
85.6356
86.835
88.0761
89.35
90.6462
91.9504
93.2446
94.5033
95.6612
96.6154
97.1471
34.3196
39.8351
43.9716
48.4034
52.8749
57.0755
60.8099
64.0385
66.8061
69.1666
71.1857
72.931
74.4473
75.7846
76.9747
78.063
79.088
80.0947
81.1054
82.1447
83.2293
84.3613
85.5379
86.7531
87.999
89.2625
90.5355
91.7921
93.0192
94.1462
95.0731
95.5823
33.0526
38.3624
42.2413
46.4267
50.7751
55.0052
58.8663
62.2345
65.1117
67.5758
69.6935
71.513
73.0974
74.4805
75.7115
76.8245
77.8699
78.8814
79.8941
80.9338
82.0072
83.1215
84.2763
85.4651
86.6796
87.9111
89.1467
90.3705
91.562
92.6531
93.5531
94.04
31.5172
36.6196
40.1964
44.059
48.1979
52.3992
56.3925
59.9949
63.142
65.8171
68.0787
70.0175
71.6807
73.1379
74.4192
75.5786
76.6502
77.6843
78.7028
79.7327
80.7959
81.8955
83.0297
84.1934
85.3813
86.5802
87.786
88.9697
90.1295
91.191
92.0627
92.5249
29.8307
34.7548
38.0486
41.597
45.5385
49.7483
53.9284
57.7599
61.0745
63.9262
66.3687
68.4365
70.2244
71.7603
73.1142
74.3154
75.4251
76.4744
77.5058
78.5484
79.6075
80.6935
81.8078
82.9464
84.1012
85.2665
86.4306
87.5828
88.7054
89.7283
90.5722
91.0097
27.6519
32.4004
35.3389
38.4203
41.9636
46.0135
50.3212
54.5643
58.4577
61.7363
64.4421
66.7305
68.6422
70.3007
71.7315
73.0113
74.1688
75.263
76.3134
77.3509
78.4051
79.4803
80.5767
81.6898
82.8194
83.9517
85.0888
86.1951
87.2857
88.2792
89.0935
89.5025
25.0465
29.718
32.3965
35.1009
38.3077
42.2513
46.8507
51.4303
55.4865
59.1189
62.2347
64.779
66.9468
68.7466
70.308
71.6584
72.8817
74.004
75.0826
76.1502
77.21
78.2766
79.3548
80.444
81.5364
82.6311
83.7172
84.7931
85.8441
86.7953
87.5802
87.9584
21.2796
25.9761
28.25
30.2367
32.7005
36.2977
40.4883
45.8318
51.4854
56.0293
59.6227
62.6316
65.0099
67.0393
68.7319
70.2162
71.5161
72.7173
73.8337
74.9011
75.9617
77.0221
78.0854
79.147
80.2154
81.2758
82.3408
83.3614
84.379
85.2959
86.0515
86.3953
15.974
21.0579
23.5408
25.2068
26.0071
27.1261
34.8393
41.0269
45.9061
51.4879
56.2802
59.8313
62.8086
65.1154
67.05
68.6547
70.0766
71.3274
72.494
73.6183
74.6985
75.7569
76.8021
77.8406
78.8643
79.88
80.8764
81.8654
82.8388
83.7135
84.4293
84.7319
6.24069
10.943
11.7723
14.7202
18.878
19.5193
18.9359
26.1582
39.3724
46.2459
51.7549
56.6613
60.0542
62.8652
65.0706
66.9387
68.4802
69.8651
71.1003
72.229
73.3174
74.3748
75.409
76.4151
77.4143
78.3923
79.3758
80.2993
81.2369
82.0598
82.7528
83.0133
7.67549
5.77967
5.56774
6.69329
7.49551
14.3816
17.2754
18.8978
19.1122
36.5437
46.2498
51.6719
56.6851
60.122
62.8433
64.9233
66.7189
68.2004
69.5229
70.7559
71.8858
72.9495
73.9643
74.945
75.8874
76.8083
77.6957
78.5734
79.4583
80.2478
80.8785
81.0718
12.1496
16.526
17.5667
17.1697
15.7077
12.5057
9.15793
6.91912
20.8661
13.1089
32.7158
46.0231
51.8919
56.672
59.9707
62.6576
64.6525
66.3748
67.827
69.0667
70.216
71.2895
72.2968
73.2379
74.1487
75.0244
75.9045
76.7139
77.5581
78.257
78.8773
79.0232
19.9795
24.4374
26.3287
27.0776
26.6071
25.1436
23.3701
18.3252
17.8921
17.3256
19.5462
31.2803
45.0614
51.5683
56.4892
59.6182
62.2128
64.1424
65.7563
67.2029
68.4361
69.523
70.5092
71.4143
72.2477
73.0418
73.7852
74.5007
75.2816
75.9579
76.4778
76.4887
22.0258
26.9913
29.6715
31.6214
32.7162
32.7827
31.6235
29.3019
24.9933
24.564
23.1793
17.8723
34.9889
46.4085
51.4927
56.1845
59.1271
61.5567
63.4401
64.8828
66.1537
67.2822
68.2604
69.1141
69.8914
70.6291
71.3569
72.0188
72.7437
73.2802
73.7972
73.7573
22.7192
27.7918
30.694
33.0182
34.7222
35.7743
36.0861
35.3956
32.9934
28.1491
30.2575
21.5853
27.2856
26.7048
44.7437
50.6268
55.2224
58.0806
60.2929
62.2099
63.6655
64.8036
65.7607
66.5468
67.2017
67.7968
68.3199
68.7632
69.4218
69.8859
70.2505
69.9113
22.1792
27.3959
30.4684
33.0328
35.0465
36.4956
37.3773
37.6769
37.2873
35.7238
32.3116
25.2128
22.9118
28.9138
31.4193
44.8469
49.6838
53.8513
56.6716
58.4829
60.0015
61.271
62.205
62.9208
63.4299
63.9827
64.4469
64.8691
65.4386
65.8241
66.1353
65.6905
20.7997
26.1537
29.3274
32.038
34.2573
35.9817
37.2285
38.0278
38.4069
38.3217
37.3253
34.5742
31.2066
34.1051
32.6568
32.0391
42.4488
47.284
50.9154
54.0808
56.0591
57.28
58.1889
58.7383
59.0257
59.2082
59.3134
59.2219
59.7646
59.6128
59.7197
58.587
18.8927
24.3422
27.5457
30.3088
32.6226
34.5004
35.9671
37.0717
37.878
38.4156
38.5349
37.4107
32.5023
34.9731
30.8604
33.749
31.173
39.7647
44.4648
46.8314
48.8293
50.4734
51.2664
51.7568
51.4932
52.0173
52.107
51.5689
52.0815
53.6937
53.0656
50.9822
16.6813
22.1133
25.2444
27.9557
30.2663
32.2131
33.8369
35.1898
36.3473
37.3769
38.2584
38.6994
37.5801
33.3911
26.3684
31.6849
10.2992
20.1571
31.3326
38.9342
42.5768
43.5342
44.2573
44.5638
43.6288
42.4879
41.2681
40.6801
41.1838
37.6089
36.4213
34.2743
14.4341
19.7082
22.6612
25.2175
27.4285
29.3541
31.0517
32.5824
34.0174
35.429
36.8332
38.0995
38.7955
37.9228
34.1624
32.0687
21.2109
27.1457
26.9489
16.8333
22.7619
24.9207
24.6075
24.9073
31.1694
23.219
29.5037
6.63019
20.5079
32.9331
30.6241
41.0596
12.4469
17.4411
20.1405
22.4696
24.5124
26.3471
28.0427
29.6641
31.2754
32.9388
34.6919
36.4745
38.0568
38.9618
38.4413
34.9613
28.0812
25.8817
2.04097
25.9373
2.90616
29.0616
30.03
25.7784
40.2466
33.3381
35.2185
16.7083
21.2616
39.9103
34.9203
31.3202
10.9076
15.5512
17.9808
20.0656
21.918
23.6293
25.2724
26.9076
28.5864
30.3546
32.2543
34.2849
36.3432
38.1365
39.1751
38.4573
36.7167
32.877
22.1653
24.8426
26.1331
20.9274
17.5936
32.1192
35.7996
35.9035
38.8735
34.575
38.3037
42.2623
31.4791
34.3408
9.77093
14.1694
16.3706
18.2503
19.943
21.5434
23.1179
24.7133
26.3656
28.1081
29.9792
32.0126
34.2025
36.4185
38.3233
39.368
39.7317
38.0248
35.8677
30.5907
28.0505
28.5115
28.8272
30.0256
34.9933
34.2343
33.2078
39.6947
37.6935
34.9589
40.3543
42.4119
9.16528
13.3728
15.4138
17.161
18.7575
20.2883
21.8034
23.3314
24.8938
26.5165
28.2362
30.1014
32.156
34.3919
36.6649
38.6134
39.9942
40.1668
40.032
38.3835
35.7431
37.1467
38.8155
37.263
42.2165
40.6965
40.2335
42.8401
39.1908
40.0289
44.3647
44.515
8.98836
13.108
15.0787
16.7784
18.348
19.8563
21.3336
22.7925
24.2443
25.7113
27.229
28.8456
30.6187
32.598
34.7768
37.0052
39.0076
40.2482
41.0063
40.7607
39.6585
40.4526
41.4345
40.3831
43.465
42.2069
42.0907
42.6035
40.4082
42.0131
44.5861
44.2434
9.16726
13.278
15.2519
16.9727
18.5694
20.0926
21.5557
22.961
24.3164
25.6416
26.9684
28.3385
29.8035
31.4238
33.2519
35.2797
37.3787
39.1876
40.5937
41.1618
40.9404
41.3723
41.9933
41.2555
43.04
42.1058
41.9542