/*--------------------------------*- C++ -*----------------------------------*\
  =========                 |
  \\      /  F ield         | OpenFOAM: The Open Source CFD Toolbox
   \\    /   O peration     | Website:  https://openfoam.org
    \\  /    A nd           | Version:  6
     \\/     M anipulation  |
\*---------------------------------------------------------------------------*/
FoamFile
{
    version     2.0;
    format      ascii;
    class       volScalarField;
    location    "14";
    object      yPlus;
}
// * * * * * * * * * * * * * * * * * * * * * * * * * * * * * * * * * * * * * //

dimensions      [0 0 0 0 0 0 0];

internalField   uniform 0;

boundaryField
{
    inlet
    {
        type            calculated;
        value           uniform 0;
    }
    outlet
    {
        type            calculated;
        value           uniform 0;
    }
    roughCylinder
    {
        type            calculated;
        value           nonuniform List<scalar> 
3840
(
45.8695
54.2854
62.2083
69.2303
74.5595
78.5282
81.5567
83.9649
86.0291
87.8473
89.4983
91.0451
92.5592
94.1093
95.7491
97.5101
99.399
101.406
103.508
105.674
107.859
109.983
111.858
113.098
45.0552
53.1987
60.9066
67.8279
73.1236
77.0785
80.1058
82.5249
84.5939
86.4002
88.0281
89.5469
91.0292
92.5447
94.1488
95.8709
97.7187
99.6811
101.737
103.854
105.988
108.062
109.891
111.098
44.2189
52.1093
59.605
66.4158
71.6757
75.6222
78.6601
81.0994
83.1769
84.9768
86.5868
88.0798
89.5322
91.0156
92.5835
94.2677
96.0748
97.9944
100.003
102.072
104.156
106.179
107.962
109.139
43.3046
50.9548
58.2527
64.9641
70.2036
74.1603
77.2246
79.694
81.7856
83.5866
85.1797
86.6505
88.0758
89.5277
91.063
92.7109
94.4786
96.3557
98.3194
100.34
102.374
104.348
106.084
107.23
42.3943
49.8094
56.8993
63.5025
68.7227
72.6949
75.794
78.3006
80.4132
82.222
83.8072
85.2594
86.6604
88.0854
89.588
91.2011
92.9312
94.7676
96.6878
98.6613
100.647
102.572
104.265
105.379
41.4456
48.5906
55.4718
61.9777
67.2017
71.2163
74.3673
76.9202
79.0598
80.8813
82.4641
83.9038
85.2852
86.6837
88.159
89.7398
91.4339
93.2302
95.1074
97.0352
98.9733
100.85
102.498
103.582
40.4661
47.3745
54.0351
60.4371
65.6664
69.7245
72.9319
75.5368
77.712
79.555
81.1509
82.5828
83.9483
85.3275
86.7746
88.3248
89.9847
91.7434
93.5794
95.4628
97.3546
99.1839
100.79
101.845
39.5261
46.0936
52.5031
58.7962
64.0564
68.1975
71.4849
74.1557
76.3749
78.2464
79.8534
81.2902
82.6485
84.0086
85.4353
86.9583
88.5858
90.3074
92.1029
93.9416
95.7873
97.5706
99.1329
100.158
38.4258
44.7534
50.9173
57.1052
62.4004
66.6231
70.0008
72.7476
75.0239
76.9355
78.576
80.0242
81.3796
82.7319
84.1367
85.6336
87.2309
88.9181
90.6746
92.4709
94.2722
96.0089
97.5301
98.5272
37.4989
43.3898
49.2246
55.2655
60.6165
64.9806
68.4803
71.3239
73.6691
75.6327
77.2996
78.77
80.137
81.4826
82.8762
84.3524
85.9211
87.5733
89.2903
91.043
92.7976
94.4894
95.9669
96.9341
36.1625
41.8263
47.3785
53.2875
58.701
63.2023
66.8592
69.8291
72.2707
74.3005
76.029
77.5312
78.9091
80.2613
81.6419
83.0978
84.6405
86.2606
87.9395
89.6504
91.3616
93.007
94.4444
95.3835
35.1179
40.3153
45.4312
51.1094
56.5839
61.3215
65.1746
68.2969
70.8456
72.9641
74.7385
76.2838
77.695
79.0518
80.433
81.8764
83.3944
84.9815
86.622
88.2881
89.9515
91.5528
92.9454
93.854
33.7462
38.5392
43.1804
48.6158
54.1596
59.0968
63.2407
66.5957
69.3224
71.5493
73.4312
75.0371
76.4754
77.8571
79.235
80.6642
82.1617
83.7193
85.3227
86.9477
88.5699
90.1228
91.4755
92.3564
32.4003
36.8143
40.8728
45.8427
51.3588
56.7164
61.2015
64.8301
67.7326
70.1201
72.0729
73.7505
75.2533
76.6542
78.0477
79.4751
80.9518
82.4785
84.0434
85.6217
87.1926
88.7008
90.0063
90.8555
30.3389
34.399
37.8623
42.4381
48.0154
53.5433
58.5906
62.6756
65.9444
68.5135
70.6573
72.4422
73.9926
75.4454
76.8488
78.269
79.7321
81.2317
82.7597
84.2969
85.8274
87.2857
88.5497
89.371
28.3457
32.1911
34.9481
38.5042
43.5787
50.0465
55.7087
60.3863
63.9715
66.8715
69.1422
71.0441
72.7086
74.1991
75.6379
77.0706
78.5172
79.9875
81.4757
82.9616
84.4359
85.8458
87.058
87.8447
24.707
28.3461
30.366
33.4492
38.7548
44.6189
51.5971
57.1973
61.6451
64.8849
67.4947
69.5871
71.3286
72.9135
74.3815
75.8156
77.257
78.7019
80.1523
81.5972
83.0275
84.3864
85.5539
86.3113
21.3231
25.2924
26.6899
27.4497
30.5629
39.0637
46.3599
53.6379
58.7219
62.715
65.6339
67.9488
69.8972
71.5463
73.0772
74.5442
75.9742
77.3905
78.7967
80.1782
81.5505
82.8493
83.956
84.6765
12.0806
17.7002
18.2343
14.282
3.22703
20.9753
38.9009
47.7116
55.1868
59.9775
63.5224
66.1835
68.261
70.0798
71.6728
73.1524
74.5872
75.9793
77.3452
78.6905
80.0009
81.2496
82.31
82.9909
7.10006
14.8045
17.5889
17.8821
14.0785
16.7239
22.1242
40.965
49.7068
56.4327
60.8551
64.033
66.521
68.4565
70.1568
71.7028
73.1337
74.4949
75.8056
77.0552
78.3196
79.4858
80.4562
81.1108
12.4961
16.4476
18.8047
22.8102
13.4215
13.3662
13.7831
24.2725
42.641
51.9112
57.7282
61.6168
64.3565
66.6132
68.44
70.0154
71.4655
72.8043
74.0706
75.3089
76.4539
77.5705
78.5126
79.0894
22.5567
25.6605
26.6094
26.3296
24.7347
20.0783
24.9793
28.435
29.1427
44.8308
53.0847
58.3063
61.9568
64.4596
66.4862
68.1953
69.6532
70.9523
72.1361
73.1905
74.3433
75.3363
76.1001
76.6962
25.4293
29.4576
31.8221
33.1765
33.3056
30.9363
24.6352
30.3424
32.7969
34.7966
47.4126
54.3726
58.6437
61.8219
64.1184
65.8842
67.3878
68.6679
69.8034
70.93
71.8078
72.7463
73.5623
73.984
26.6162
30.7139
33.3386
35.1891
36.1286
35.8491
33.2711
25.9267
30.1031
29.484
35.3463
48.2109
54.7658
58.5193
61.2288
63.2917
64.8269
66.0418
67.0216
67.737
68.7788
69.5084
69.9059
70.4563
26.0841
30.3597
33.2495
35.4699
36.9006
37.4535
36.9417
34.5705
33.9915
35.7396
33.6954
39.1435
48.7158
54.1058
57.4856
59.604
61.2212
62.4159
63.3633
64.3761
64.7706
65.3987
66.1065
66.3183
23.9927
28.5956
31.7558
34.3137
36.1519
37.2556
37.6166
36.9091
33.0269
35.5122
34.8498
26.5515
42.0135
48.339
52.4162
55.323
57.0499
58.1012
58.6332
58.6586
59.632
59.8291
59.4374
59.9551
21.1144
26.0788
29.4478
32.2613
34.4398
36.0025
37.0535
37.6351
37.1173
33.8891
32.6689
15.5571
25.5242
39.551
46.5214
48.4054
50.2128
50.9698
51.8493
52.6367
52.5826
51.8924
52.766
53.3924
18.1726
23.3251
26.7187
29.6122
31.9918
33.9167
35.5057
36.8635
37.8732
37.334
34.1787
26.9402
27.2218
28.5942
33.3307
40.0322
42.3165
43.2186
42.3637
41.42
40.823
39.9939
39.1479
38.2985
15.6194
20.6955
23.9109
26.6975
29.1121
31.2584
33.2633
35.2548
37.1856
38.5898
38.5824
30.6808
33.7027
33.9361
34.7516
28.2045
28.2027
20.6012
24.6408
22.3949
43.0959
16.0437
14.7244
30.3465
13.3235
18.2268
21.1962
23.8007
26.1551
28.3904
30.6296
32.9865
35.5021
37.8801
39.4222
37.466
28.5302
35.3409
37.3479
19.5723
33.836
8.73536
29.874
21.3921
40.3399
33.0407
28.888
39.5605
11.6849
16.2982
18.974
21.3484
23.5747
25.7855
28.0849
30.564
33.296
36.201
38.7598
39.4525
34.5083
27.5763
22.4444
28.9775
35.0296
25.1012
35.5732
24.5769
28.8845
34.8349
32.409
41.4308
10.7494
15.0456
17.4695
19.6442
21.734
23.8486
26.0616
28.4475
31.0967
34.0615
37.1307
39.3275
38.7413
35.9364
29.9379
30.3625
29.4109
33.33
33.6426
35.7879
37.5735
39.8063
36.9584
36.9491
10.3476
14.5068
16.7681
18.8165
20.8025
22.7969
24.8425
26.9996
29.3658
32.0615
35.1084
38.0649
39.6515
40.0011
38.4399
36.0407
38.3563
40.7827
41.0552
41.9162
43.1651
43.2611
41.6447
41.6818
10.4726
14.5533
16.7556
18.7636
20.6973
22.5893
24.4587
26.3558
28.3718
30.6369
33.2857
36.2686
38.9462
40.8289
40.9727
39.425
41.4305
42.5494
43.0539
43.1828
43.6286
42.944
42.6329
42.9121
10.9083
15.0128
17.2458
19.2841
21.2147
23.0434
24.7745
26.4503
28.1499
29.9846
32.1026
34.6317
37.4188
40.0467
41.2858
40.6682
42.0885
42.6856
43.0756
42.9825
42.7672
41.8611
42.2789
42.4757
11.5324
15.7561
18.0606
20.1698
22.1369
23.9452
25.5915
27.114
28.5792
30.072
31.7107
33.6503
35.9726
38.5385
40.3787
40.6431
41.7186
41.9849
42.0388
41.7384
41.2408
40.3558
40.8631
41.0512
12.4259
16.7109
19.0961
21.2892
23.3086
25.1235
26.7304
28.1675
29.4895
30.7544
32.0412
33.4731
35.1836
37.2138
39.0498
39.8249
40.7238
40.7817
40.5148
40.0381
39.4747
38.731
39.1375
39.4204
13.4507
17.8034
20.2796
22.5608
24.6375
26.4732
28.0709
29.4724
30.7248
31.8639
32.9331
34.0099
35.2067
36.6171
38.0575
38.9256
39.629
39.5407
39.0429
38.432
37.8988
37.3685
37.7054
38.13
14.5467
18.9855
21.5578
23.9276
26.064
27.9302
29.5396
30.9395
32.1721
33.2584
34.2163
35.0843
35.9325
36.8465
37.7962
38.46
38.8903
38.6588
38.0043
37.3016
36.8105
36.5088
36.8739
37.4344
15.6527
20.2091
22.8892
25.351
27.5494
29.4534
31.0887
32.5089
33.7527
34.8316
35.7483
36.5153
37.164
37.7487
38.2875
38.6401
38.7533
38.3528
37.5743
36.804
36.3437
36.2483
36.7037
37.3716
16.3935
16.8523
17.3275
17.6861
18.0134
18.2569
18.4651
18.6126
18.7253
18.7935
18.8323
18.8359
18.8115
18.7575
18.6772
18.5721
18.4457
18.3022
18.153
18.0317
18.0523
18.1896
18.3454
18.4926
18.6214
18.7288
18.811
18.867
18.8934
18.8921
18.8557
18.7903
18.6799
18.5346
18.3284
18.0869
17.7611
17.4048
16.9309
16.4756
21.0563
21.503
21.9868
22.3623
22.7161
22.9948
23.2416
23.4344
23.5938
23.7117
23.8001
23.8547
23.8793
23.8719
23.8331
23.7629
23.6636
23.5381
23.3968
23.2745
23.2952
23.4329
23.5797
23.7078
23.8088
23.8807
23.921
23.9302
23.9077
23.8555
23.7697
23.6548
23.4977
23.3073
23.0627
22.7859
22.4337
22.0602
21.5774
21.1329
23.8146
24.283
24.8034
25.2142
25.6136
25.9429
26.2453
26.4985
26.7221
26.9062
27.0611
27.1835
27.2753
27.3334
27.3566
27.343
27.2936
27.2108
27.1045
27.0096
27.0267
27.1363
27.2478
27.333
27.384
27.3988
27.3771
27.3211
27.2318
27.1124
26.9609
26.7801
26.5595
26.3096
26.0102
25.6835
25.2862
24.8775
24.3583
23.8916
26.3302
26.8067
27.3486
27.7801
28.2098
28.5736
28.9158
29.2134
29.487
29.726
29.9375
30.1175
30.2663
30.38
30.4563
30.4925
30.4883
30.4459
30.3765
30.3136
30.3262
30.4029
30.4776
30.5221
30.5277
30.4927
30.4179
30.3062
30.1602
29.9837
29.776
29.541
29.2715
28.9784
28.6399
28.2795
27.8526
27.4234
26.8832
26.4079
28.5573
29.0192
29.5608
29.9931
30.4328
30.8133
31.1814
31.5122
31.8231
32.1044
32.3602
32.5858
32.7801
32.9383
33.0572
33.1334
33.1652
33.1552
33.1144
33.0733
33.0832
33.1366
33.1824
33.1941
33.1631
33.0879
32.9704
32.8142
32.6227
32.4007
32.149
31.8723
31.5663
31.2406
30.8772
30.5014
30.0651
29.6356
29.0957
28.6345
30.4762
30.9105
31.4428
31.8701
32.317
32.7142
33.1045
33.4644
33.8078
34.1254
34.4191
34.6837
34.9166
35.1124
35.2668
35.3757
35.4365
35.4514
35.4306
35.4025
35.4108
35.4498
35.4746
35.461
35.4004
35.2922
35.1387
34.9447
34.7144
34.4533
34.1637
33.851
33.5129
33.1584
32.7736
32.3817
31.9394
31.5153
30.9847
30.5507
32.126
32.5336
33.06
33.4892
33.9459
34.3603
34.772
35.1585
35.5306
35.8795
36.2058
36.5034
36.7685
36.9954
37.1787
37.3133
37.3966
37.4295
37.4218
37.4009
37.4085
37.439
37.4498
37.4173
37.3337
37.1988
37.0161
36.7907
36.5278
36.2335
35.9114
35.5672
35.2005
34.8199
34.4139
34.0052
33.5531
33.1281
32.6035
32.1957
33.5641
33.9494
34.4753
34.9083
35.3751
35.8053
36.2357
36.6445
37.0406
37.4153
37.7677
38.0918
38.3825
38.6337
38.8391
38.9935
39.0933
39.1389
39.1399
39.123
39.13
39.1555
39.1566
39.1105
39.0096
38.8544
38.6489
38.3987
38.1099
37.7889
37.4403
37.0704
36.6796
36.2766
35.8521
35.4277
34.9658
34.537
34.0132
33.6275
34.8259
35.1888
35.7132
36.1494
36.6243
37.0675
37.5129
37.9397
38.3547
38.7496
39.1225
39.4669
39.7772
40.0466
40.2689
40.438
40.5503
40.6059
40.614
40.6008
40.6072
40.6278
40.621
40.5641
40.45
40.2794
40.0565
39.7874
39.4786
39.1369
38.7676
38.3772
37.9673
37.5463
37.1066
36.6692
36.199
35.7669
35.2442
34.8804
35.9165
36.2541
36.7741
37.2119
37.693
38.1468
38.6046
39.0459
39.4761
39.8869
40.2757
40.6356
40.9606
41.2439
41.479
41.6597
41.7824
41.8476
41.8645
41.8573
41.8626
41.8758
41.8596
41.7925
41.6673
41.4844
41.2482
40.9646
40.6406
40.2829
39.8974
39.4908
39.0655
38.6297
38.1774
37.7292
37.2525
36.8183
36.2993
35.9597
36.8306
37.1371
37.649
38.0869
38.5732
39.0367
39.5056
39.9596
40.4029
40.827
41.2286
41.6007
41.9374
42.2316
42.4767
42.6673
42.8
42.8756
42.9034
42.9046
42.9085
42.9118
42.8839
42.8058
42.6702
42.4768
42.2298
41.9349
41.5986
41.2281
40.8294
40.4091
39.9703
39.5214
39.0577
38.5993
38.1171
37.6822
37.1704
36.8608
37.5663
37.829
38.3259
38.762
39.2525
39.7259
40.2059
40.6727
41.1285
41.5648
41.9777
42.3604
42.7069
43.0103
43.2643
43.464
43.6065
43.6934
43.7331
43.7431
43.7455
43.7381
43.6973
43.6075
43.4614
43.2585
43.002
42.6973
42.3506
41.969
41.5584
41.1254
40.6737
40.2117
39.7364
39.2677
38.7804
38.3466
37.8475
37.5805
38.1251
38.317
38.7885
39.2187
39.7124
40.1958
40.6878
41.1679
41.6367
42.0852
42.5094
42.9023
43.2578
43.5696
43.832
44.0402
44.1924
44.2902
44.3412
44.3588
44.3598
44.3427
44.2896
44.1881
44.0318
43.8196
43.5542
43.2404
42.8841
42.4917
42.0694
41.6236
41.1585
40.6827
40.1949
39.7155
39.224
38.7943
38.3196
38.1234
38.5236
38.5942
39.0124
39.4307
39.9238
40.4173
40.9217
41.4163
41.8989
42.3607
42.7966
43.1999
43.5647
43.885
44.1554
44.372
44.5332
44.6409
44.7012
44.7249
44.7247
44.6995
44.6356
44.5234
44.3572
44.136
43.8617
43.5388
43.1725
42.7691
42.3344
41.8749
41.3955
40.9049
40.4043
39.9143
39.4222
39.004
38.5829
38.5094
38.7744
38.6588
38.9783
39.3634
39.8515
40.3526
40.8692
41.3787
41.8762
42.3521
42.8009
43.2155
43.5904
43.9195
44.1982
44.423
44.5925
44.7086
44.7765
44.8046
44.8033
44.7716
44.6986
44.5767
44.4011
44.1708
43.8873
43.5546
43.1776
42.7621
42.314
41.8399
41.3453
40.8394
40.3263
39.8279
39.3416
38.9582
38.6384
38.7551
38.8468
38.5018
38.6793
38.9997
39.4654
39.9712
40.4972
41.0204
41.5321
42.0222
42.4839
42.9104
43.2956
43.6339
43.921
44.1536
44.3306
44.4537
44.5274
44.5586
44.5562
44.5192
44.4387
44.3083
44.1241
43.8847
43.5919
43.249
42.8608
42.433
41.9714
41.4829
40.9741
40.4546
39.9325
39.4308
38.969
38.6524
38.4737
38.8133
38.6414
38.0818
38.107
38.3424
38.7669
39.2646
39.7981
40.3314
40.8549
41.3566
41.8296
42.2663
42.6607
43.0073
43.3017
43.5408
43.7236
43.8517
43.9292
43.9622
43.9585
43.9174
43.8311
43.6938
43.5019
43.2544
42.9526
42.6
42.2011
41.7616
41.2874
40.7859
40.2642
39.7338
39.2035
38.7104
38.2922
38.0665
38.0515
38.6253
38.1412
37.4099
37.3044
37.4516
37.8236
38.2976
38.8259
39.3631
39.8914
40.3992
40.878
41.3203
41.7198
42.0707
42.3688
42.6109
42.7961
42.9258
43.0041
43.0371
43.0323
42.9888
42.8993
42.7583
42.5621
42.3097
42.0025
41.6438
41.2382
40.7913
40.3096
39.8001
39.2712
38.7334
38.2051
37.7324
37.3623
37.2184
37.3237
38.0503
37.2691
36.4784
36.3192
36.4187
36.7557
37.2075
37.725
38.2588
38.7841
39.29
39.7668
40.2073
40.6047
40.9532
41.2485
41.4873
41.6688
41.7945
41.8691
41.8992
41.8927
41.8492
41.7607
41.6208
41.4254
41.1735
40.8662
40.507
40.1005
39.6525
39.1695
38.6587
38.1291
37.591
37.0706
36.6186
36.2853
36.1947
36.3666
37.1727
36.2862
35.528
35.3807
35.4741
35.7983
36.2356
36.74
37.2628
37.7779
38.2737
38.7406
39.171
39.5582
39.8964
40.181
40.4088
40.579
40.6933
40.7576
40.7811
40.7737
40.7348
40.6545
40.5239
40.3379
40.0952
39.7971
39.447
39.0496
38.611
38.1376
37.6372
37.1191
36.5962
36.0965
35.6712
35.3695
35.3141
35.5178
36.3586
35.8737
35.1133
34.9597
35.0324
35.3312
35.7396
36.2145
36.7089
37.1993
37.6724
38.118
38.5278
38.8949
39.2133
39.4784
39.6867
39.8371
39.9314
39.9769
39.9874
39.979
39.9512
39.8873
39.7745
39.6062
39.3811
39.1007
38.7687
38.3902
37.9711
37.5186
37.0409
36.5485
36.055
35.5853
35.1889
34.9129
34.8772
35.0861
35.9207
35.778
35.1212
35.0327
35.1392
35.4462
35.8444
36.2968
36.7619
37.2238
37.6684
38.086
38.4684
38.8089
39.1015
39.3417
39.5258
39.6521
39.722
39.743
39.7351
39.728
39.7203
39.682
39.5948
39.4523
39.2536
39.0013
38.6992
38.3526
37.9675
37.5511
37.1124
36.6615
36.2137
35.7856
35.4201
35.1555
35.1052
35.2558
35.9879
36.6577
35.9917
35.8863
35.954
36.2143
36.557
36.9524
37.3663
37.782
38.1843
38.563
38.9094
39.2167
39.4789
39.6912
39.8498
39.9524
39.9993
39.9971
39.9687
39.9627
39.9761
39.961
39.8966
39.7775
39.6041
39.3792
39.1066
38.7916
38.4399
38.0585
37.6556
37.2412
36.8299
36.4376
36.0979
35.8412
35.7759
35.8813
36.5409
37.3741
36.7238
36.6207
36.6736
36.9111
37.2247
37.5915
37.9774
38.366
38.7422
39.0959
39.4187
39.7037
39.9454
40.1388
40.2803
40.3674
40.4
40.384
40.3429
40.3359
40.3593
40.3552
40.3026
40.197
40.0388
39.831
39.5778
39.284
38.9556
38.5995
38.2238
37.8388
37.4593
37.1012
36.7978
36.5703
36.5253
36.6305
37.2727
45.8691
54.2852
62.2079
69.2287
74.5567
78.5251
81.5534
83.9613
86.0251
87.8427
89.4931
91.0396
92.5529
94.1024
95.7414
97.5013
99.3891
101.394
103.495
105.66
107.842
109.969
111.844
113.085
45.0559
53.1981
60.9076
67.8289
73.1227
77.0759
80.1024
82.5209
84.5897
86.3958
88.0234
89.5414
91.0232
92.538
94.1412
95.8624
97.7088
99.6699
101.723
103.839
105.97
108.048
109.876
111.086
44.196
52.0948
59.597
66.4117
71.6728
75.6199
78.658
81.097
83.174
84.9728
86.582
88.0747
89.5263
91.009
92.576
94.259
96.0649
97.9828
99.9898
102.057
104.138
106.165
107.947
109.126
43.2998
50.9539
58.2553
64.9675
70.2053
74.1595
77.222
79.6906
81.7819
83.5831
85.176
86.6457
88.0703
89.5213
91.0556
92.7025
94.4688
96.3438
98.3054
100.325
102.355
104.333
106.069
107.217
42.373
49.7978
56.893
63.4988
68.7206
72.6942
75.7942
78.3007
80.4124
82.2193
83.8028
85.2549
86.655
88.0793
89.581
91.1926
92.9213
94.7558
96.6735
98.6454
100.627
102.557
104.249
105.366
41.4559
48.6031
55.4848
61.9886
67.2089
71.219
74.3667
76.9177
79.0565
80.8789
82.4622
83.9001
85.2806
86.678
88.152
89.7319
91.4241
93.2185
95.0928
97.019
98.9522
100.834
102.482
103.569
40.4571
47.3717
54.0342
60.4363
65.6661
69.7264
72.9355
75.5406
77.7152
79.5549
81.1473
82.5791
83.9437
85.3221
86.7684
88.3166
89.9751
91.7316
93.5649
95.4463
97.3328
99.1689
100.773
101.831
39.5466
46.1163
52.5265
58.8172
64.0717
68.2049
71.487
74.1549
76.372
78.2449
79.854
81.2887
82.6454
84.004
85.4288
86.951
88.5762
90.2957
92.0876
93.9248
95.764
97.5549
99.1157
100.145
38.427
44.7583
50.923
57.1092
62.404
66.6306
70.0105
72.7567
75.0327
76.9396
78.5742
80.0221
81.3764
82.7278
84.1319
85.6263
87.2219
88.9062
90.6589
92.4538
94.2477
95.9932
97.5135
98.5132
37.519
43.4165
49.256
55.2978
60.6422
64.9927
68.4833
71.3245
73.6667
75.6322
77.3034
78.7712
80.1361
81.4795
82.8704
84.3462
85.9121
87.5619
89.2748
91.0255
92.7711
94.473
95.9495
96.9206
36.1804
41.8463
47.3972
53.3003
58.7114
63.2218
66.8836
69.8489
72.2888
74.312
76.0305
77.5319
78.9087
80.2593
81.6397
83.092
84.6327
86.2491
87.9238
89.6322
91.3339
92.9907
94.427
95.3696
35.1358
40.3435
45.4722
51.1607
56.6308
61.34
65.1725
68.2949
70.8417
72.9631
74.7467
76.2887
77.6967
79.0511
80.4283
81.8718
83.3866
84.9705
86.6054
88.2695
89.9204
91.5356
92.9272
93.8405
33.7903
38.5843
43.2189
48.6338
54.1648
59.1308
63.2953
66.6384
69.3577
71.576
73.438
75.0426
76.4796
77.8587
79.2368
80.6612
82.1555
83.7086
85.3068
86.9282
88.5371
90.1056
91.4574
92.3421
32.4143
36.8409
40.9282
45.946
51.4843
56.7665
61.1888
64.8196
67.7248
70.1118
72.0863
73.7603
75.2579
76.6566
78.0449
79.4725
80.9461
82.4682
84.025
85.602
87.1546
88.6832
89.9877
90.842
30.4104
34.4675
37.9071
42.3942
47.8964
53.5496
58.6937
62.7583
66.0037
68.5704
70.6747
72.4547
74.0046
75.4526
76.856
78.2703
79.7283
81.2221
82.7446
84.2752
85.788
87.2668
88.5306
89.3558
28.2961
32.1659
34.9909
38.789
44.0943
50.2591
55.6914
60.3672
63.9742
66.8517
69.1617
71.0616
72.7169
74.2053
75.638
77.071
78.515
79.9781
81.4539
82.9407
84.3871
85.828
87.0384
87.8314
24.6502
28.2926
30.2822
32.8837
37.6758
44.3131
51.7706
57.3448
61.7183
64.9802
67.5291
69.61
71.3524
72.9298
74.3967
75.8234
77.257
78.6939
80.1397
81.5712
82.981
84.364
85.5345
86.2955
20.3073
24.7387
26.2165
28.0589
32.5673
39.8235
46.3318
53.6233
58.7945
62.7123
65.6721
67.9806
69.9117
71.5571
73.0811
74.5498
75.9779
77.3825
78.7687
80.1579
81.4805
82.832
83.9359
84.6617
12.6207
13.6147
15.6596
11.8867
6.8752
21.4525
39.3623
47.9257
55.2428
60.0924
63.5725
66.2217
68.3008
70.1111
71.7018
73.1699
74.5937
75.9729
77.337
78.6541
79.9502
81.2217
82.2871
82.9771
9.93813
10.7423
10.8245
10.1516
0.60282
21.0508
18.5445
41.0511
49.9275
56.5324
60.9552
64.096
66.5514
68.4733
70.1634
71.7171
73.1475
74.4896
75.7688
77.0422
78.2019
79.4682
80.4412
81.087
14.9216
17.1981
16.5427
13.8034
8.42947
10.929
17.1259
22.6746
43.3982
52.0799
57.806
61.6817
64.4132
66.6694
68.4977
70.0508
71.4847
72.7979
74.0665
75.2441
76.4149
77.536
78.4771
79.0847
23.7014
26.9917
28.3739
27.8568
24.9535
17.6159
18.0322
4.42717
25.0555
44.7603
53.2906
58.4371
62.0288
64.4852
66.4891
68.2229
69.6864
70.9524
72.0893
73.2061
74.1155
75.3146
76.1057
76.6478
25.9922
29.9662
32.5837
34.1641
34.2021
31.9969
25.2089
21.9384
19.6261
35.1469
47.5921
54.5241
58.7009
61.9209
64.2364
65.9565
67.4357
68.6536
69.7948
70.7896
71.8195
72.7068
73.5031
73.992
27.0006
31.1152
33.9954
36.1003
37.2269
37.1879
35.2067
28.3701
26.4143
12.4461
37.8383
48.5351
54.9512
58.5446
61.2153
63.3427
64.9018
66.053
66.9673
67.8307
68.2991
69.4719
69.9454
70.3557
26.7907
31.055
34.0239
36.3581
37.9235
38.6777
38.549
36.8115
29.8894
15.3317
19.7308
40.7041
48.6937
54.2962
57.6917
59.744
61.3458
62.3578
63.2985
64.0409
64.9002
65.3738
66.0732
66.2754
24.6608
29.2582
32.4651
35.0976
37.0381
38.2871
38.8843
38.637
35.8796
33.2266
14.442
32.1474
41.7933
48.103
52.3842
55.442
57.2254
58.1296
58.6052
58.9462
58.5273
59.7473
59.4622
59.7499
21.5863
26.5713
29.9882
32.8645
35.1257
36.7958
38.0014
38.8295
38.8139
35.2428
33.575
35.4826
34.1238
39.5799
45.7207
48.4492
50.4574
50.7278
51.1541
51.7254
52.3368
52.0736
53.7466
52.1974
18.4357
23.6225
27.0623
30.0084
32.4487
34.4458
36.125
37.63
38.8552
38.586
34.1085
34.6313
34.0037
32.6581
35.6802
41.1224
43.122
42.4373
42.8329
41.7917
41.0255
40.5417
37.5761
38.3569
15.7589
20.8593
24.1057
26.9266
29.3767
31.5579
33.5986
35.638
37.639
39.0292
38.4501
28.0487
34.0136
38.0831
17.7642
18.4638
24.3815
20.1885
8.57572
18.6142
14.3441
18.7108
28.3339
1.3804
13.3913
18.3111
21.3002
23.9251
26.2971
28.5451
30.7947
33.1638
35.6962
38.0835
39.4735
36.8374
26.9314
32.2715
29.4539
9.91906
28.5312
27.9116
15.7504
19.6979
24.8957
27.099
35.8376
19.5649
11.7109
16.337
19.0266
21.4134
23.6483
25.8627
28.163
30.6424
33.3788
36.2955
38.8616
39.633
35.5086
30.4832
24.9397
25.3703
30.7925
20.1849
24.4041
35.0527
29.6883
38.0236
29.2648
31.6389
10.7516
15.0572
17.4906
19.6732
21.7684
23.8863
26.1018
28.4911
31.1479
34.1346
37.2496
39.5711
39.4405
38.1009
34.4262
31.0307
29.1001
35.5527
37.2644
35.6308
33.2909
37.3243
36.6162
41.7072
10.3311
14.4956
16.763
18.8168
20.8078
22.808
24.8605
27.0261
29.4052
32.1261
35.2234
38.2802
40.0439
40.672
39.6904
38.8046
38.4287
42.716
43.2586
40.9639
39.5061
42.3913
42.3793
44.4867
10.4424
14.5219
16.7267
18.7387
20.678
22.578
24.4577
26.367
28.3987
30.6875
33.3761
36.4205
39.1474
40.9516
41.3072
41.4481
41.6488
44.1224
44.1307
42.2756
41.3948
43.0971
43.5075
44.4506
10.8795
14.9684
17.1999
19.2404
21.1759
23.013
24.7558
26.4457
28.1618
30.0171
32.163
34.726
37.5179
39.9999
41.3621
42.0471
42.3648
43.8966
43.6834
42.178
41.66
42.3669
42.9222
43.409
11.5305
15.6996
18.003
20.1138
22.0848
23.9007
25.5584
27.0947
28.576
30.0873
31.747
33.7062
36.0248
38.4838
40.3958
41.52
41.9795
42.8318
42.41
41.0788
40.6443
40.701
41.3012
41.6665
12.3347
16.642
19.0313
21.2254
23.2475
25.0689
26.6859
28.1353
29.4721
30.754
32.0591
33.5072
35.2187
37.1976
39.0647
40.3508
40.9059
41.3333
40.7514
39.497
39.0736
38.7797
39.4402
39.8335
13.3854
17.7377
20.2114
22.4913
24.5698
26.411
28.0172
29.4292
30.6947
31.8494
32.9354
34.0284
35.2331
36.6282
38.0777
39.2061
39.7207
39.8693
39.1885
38.0159
37.5892
37.1988
37.9204
38.401
14.4642
18.9109
21.4838
23.8534
25.9914
27.8621
29.4785
30.8871
32.1312
33.2314
34.2051
35.0898
35.9507
36.8664
37.8176
38.595
38.9243
38.848
38.1025
37.0106
36.5855
36.2493
37.0353
37.6131
15.5738
20.1349
22.8139
25.2743
27.4734
29.3808
31.0219
32.4496
33.7034
34.7949
35.7259
36.5097
37.1737
37.7673
38.3082
38.704
38.7678
38.473
37.6621
36.63
36.2089
35.9899
36.8356
37.4983
45.8817
44.2136
43.3855
41.7659
40.8022
39.2728
38.1763
36.7366
35.7415
34.4217
33.4546
32.2356
31.3646
30.2775
29.4777
28.5681
27.9437
27.405
27.0013
26.576
26.574
27.0251
27.3527
27.9688
28.5666
29.399
30.3301
31.3825
32.2697
33.4331
34.4225
35.7294
36.8052
38.2503
39.2565
40.7909
41.8253
43.3938
44.2094
45.8637
54.507
53.0077
52.21
50.8002
49.8482
48.5761
47.495
46.3467
45.4072
44.3046
43.3616
42.4077
41.6361
40.7285
40.1053
39.3572
38.7779
38.3358
38.1112
37.8324
37.8325
38.1155
38.3262
38.804
39.3834
40.0024
40.7131
41.6355
42.4103
43.3739
44.2699
45.3549
46.3537
47.5948
48.5326
49.8555
50.8444
52.2094
52.9982
54.4932
62.5495
61.127
60.3183
58.979
58.0443
56.815
55.8184
54.7079
53.7604
52.7383
51.8301
50.9385
50.146
49.3632
48.7048
48.0739
47.5479
47.1302
46.8553
46.6694
46.6697
46.8566
47.1312
47.5511
48.0817
48.6841
49.355
50.1455
50.9372
51.8407
52.7261
53.7462
54.7012
55.8498
56.8073
58.0487
58.9931
60.3185
61.1237
62.5426
69.5611
68.1222
67.2288
65.8721
64.8828
63.6289
62.611
61.4721
60.4861
59.4631
58.5435
57.6504
56.8396
56.0831
55.4122
54.8157
54.3142
53.9171
53.6394
53.4864
53.4868
53.6405
53.9191
54.3166
54.8187
55.4118
56.0837
56.8417
57.6523
58.5484
59.4637
60.4873
61.4732
62.6184
63.6307
64.886
65.8768
67.2305
68.1235
69.56
74.8427
73.3495
72.3644
70.9618
69.9017
68.6127
67.5433
66.3772
65.3513
64.3129
63.3716
62.4693
61.6492
60.8954
60.2266
59.6429
59.1564
58.7759
58.5116
58.3715
58.3718
58.5127
58.7777
59.1587
59.6454
60.2287
60.8979
61.6522
62.4726
63.3756
64.3162
65.3548
66.3808
67.5475
68.6162
69.9053
70.9655
72.367
73.3524
74.8443
78.7709
77.2348
76.1793
74.7456
73.6301
72.3217
71.2119
70.0332
68.9812
67.9352
66.9816
66.0766
65.2547
64.5052
63.8429
63.2701
62.7963
62.429
62.1759
62.0436
62.044
62.177
62.4306
62.7984
63.2725
63.8455
64.508
65.2579
66.0802
66.9856
67.9391
68.9852
70.0371
71.2159
72.3255
73.634
74.7494
76.1826
77.2382
78.7738
81.7661
80.2026
79.0925
77.6448
76.4877
75.1713
74.0335
72.8495
71.7819
70.7327
69.7733
68.8685
68.0475
67.3025
66.6464
66.0819
65.6173
65.2591
65.0138
64.8864
64.8867
65.0147
65.2607
65.6194
66.0843
66.649
67.3055
68.0508
68.8721
69.7772
70.7367
71.7859
72.8534
74.0376
75.1752
76.4919
77.6488
79.0964
80.2062
81.7698
84.1421
82.5597
81.4044
79.9512
78.7644
77.4449
76.2889
75.1015
74.0243
72.9726
72.0093
71.1041
70.2832
69.5403
68.8872
68.3269
67.8671
67.5135
67.272
67.147
67.1474
67.2729
67.515
67.8691
68.3293
68.8898
69.5432
70.2864
71.1076
72.013
72.9765
74.0282
75.1054
76.293
77.449
78.7686
79.9553
81.4087
82.5637
84.1462
86.1812
84.5809
83.3903
81.9268
80.7169
79.3884
78.2174
77.0216
75.9339
74.8755
73.9049
72.9946
72.1688
71.4226
70.7667
70.2048
69.744
69.3899
69.148
69.0226
69.0229
69.1489
69.3913
69.7459
70.2071
70.7694
71.4255
72.172
72.9981
73.9086
74.8793
75.9379
77.0257
78.2215
79.3927
80.7214
81.9312
83.3948
84.5852
86.1857
87.9912
86.3633
85.1504
83.6691
82.4416
81.0995
79.9138
78.7067
77.6067
76.5383
75.5574
74.6383
73.8041
73.0502
72.3876
71.8198
71.3539
70.9956
70.7505
70.6228
70.6231
70.7513
70.997
71.3558
71.8221
72.3902
73.0532
73.8072
74.6418
75.5611
76.5422
77.6108
78.7109
79.9182
81.104
82.4462
83.6737
85.1551
86.368
87.9959
89.6434
87.9861
86.7539
85.2523
84.0068
82.6486
81.4464
80.2248
79.11
78.0282
77.0339
76.1024
75.256
74.491
73.8178
73.2404
72.766
72.4007
72.15
72.0187
72.019
72.1509
72.4021
72.7679
73.2427
73.8205
74.4939
75.2593
76.1059
77.0376
78.0321
79.1142
80.2292
81.451
82.6533
84.0117
85.2573
86.759
87.9913
89.6485
91.1976
89.5086
88.2603
86.7351
85.4721
84.0945
82.8749
81.636
80.5043
79.4062
78.3961
77.4493
76.588
75.8088
75.1221
74.5322
74.0467
73.6718
73.4139
73.2777
73.278
73.4148
73.6733
74.0486
74.5346
75.1248
75.8119
76.5914
77.4529
78.4
79.4104
80.5087
81.6405
82.8797
84.0995
85.4774
86.7404
88.2658
89.5141
91.2033
92.7214
90.9987
89.7355
88.1845
86.9036
85.5043
84.2659
83.0074
81.8571
80.7406
79.7124
78.7479
77.8694
77.0735
76.3708
75.766
75.2669
74.8806
74.6137
74.4718
74.4721
74.6146
74.882
75.2689
75.7684
76.3737
77.0767
77.873
78.7517
79.7165
80.745
81.8618
83.0123
84.2711
85.5096
86.9092
88.1902
89.7414
91.0048
92.7276
94.2819
92.5238
91.2453
89.6662
88.3663
86.9431
85.6844
84.4041
83.2333
82.0962
81.0479
80.0636
79.1656
78.3507
77.6297
77.0075
76.4926
76.0927
75.8154
75.6669
75.6673
75.8164
76.0943
76.4947
77.0101
77.6327
78.3541
79.1693
80.0676
81.0522
82.1009
83.2383
84.4093
85.6899
86.9489
88.3723
89.6724
91.2518
92.5304
94.2888
95.9331
94.1366
92.8418
91.232
89.9115
88.4619
87.181
85.8766
84.6833
83.5233
82.4527
81.4463
80.5266
79.6904
78.9486
78.3067
77.7736
77.358
77.0685
76.9124
76.9128
77.0696
77.3596
77.7758
78.3094
78.9518
79.694
80.5306
81.4506
82.4574
83.5283
84.6886
85.8822
87.1869
88.4682
89.918
91.2388
92.8489
94.1439
95.9407
97.7051
95.8678
94.5548
92.9119
91.5685
90.0904
88.7849
87.4542
86.236
85.051
83.9559
82.9251
81.9814
81.1215
80.3565
79.6922
79.1382
78.7043
78.4007
78.2359
78.2363
78.4019
78.7062
79.1406
79.6951
80.3598
81.1253
81.9856
82.9298
83.9608
85.0563
86.2418
87.4602
88.7913
90.0972
91.5757
92.9194
94.5627
95.876
97.7135
99.6052
97.7253
96.3921
94.714
93.3458
91.8368
90.5047
89.1456
87.9006
86.6884
85.5667
84.5095
83.5396
82.6536
81.863
81.1736
80.596
80.141
79.8208
79.6458
79.6462
79.822
80.1429
80.5985
81.1768
81.8666
82.6578
83.5441
84.5145
85.5721
86.6942
87.9068
89.1522
90.5118
91.8443
93.3537
94.7223
96.4008
97.7344
99.6148
101.623
99.6996
98.345
96.63
95.2353
93.6943
92.3341
90.9449
89.6715
88.4305
87.2806
86.1953
85.1974
84.2834
83.4648
82.7478
82.1435
81.6642
81.3244
81.1374
81.1379
81.3258
81.6664
82.1463
82.7513
83.4688
84.2879
85.2023
86.2007
87.2865
88.4369
89.6783
90.9522
92.3419
93.7026
95.2442
96.6395
98.3546
99.7098
101.635
103.738
101.77
100.393
98.6413
97.2194
95.6455
94.2558
92.8359
91.5333
90.2626
89.0837
87.969
86.9421
85.9986
85.1503
84.4033
83.7693
83.2621
82.899
82.6976
82.6982
82.9006
83.2644
83.7723
84.407
85.1546
86.0035
86.9473
87.9751
89.0902
90.2696
91.5408
92.844
94.2649
95.6546
97.2295
98.6519
100.404
101.782
103.751
105.918
103.907
102.508
100.719
99.2705
97.6638
96.2452
94.7948
93.4626
92.1624
90.9536
89.8099
88.7528
87.7792
86.8997
86.1211
85.4543
84.9153
84.5245
84.3053
84.306
84.5262
84.9178
85.4577
86.1249
86.9044
87.7843
88.7588
89.8159
90.9604
92.1698
93.4704
94.8031
96.2544
97.6736