/*--------------------------------*- C++ -*----------------------------------*\
  =========                 |
  \\      /  F ield         | OpenFOAM: The Open Source CFD Toolbox
   \\    /   O peration     | Website:  https://openfoam.org
    \\  /    A nd           | Version:  6
     \\/     M anipulation  |
\*---------------------------------------------------------------------------*/
FoamFile
{
    version     2.0;
    format      ascii;
    class       volScalarField;
    location    "0";
    object      nut;
}
// * * * * * * * * * * * * * * * * * * * * * * * * * * * * * * * * * * * * * //

dimensions      [0 2 -1 0 0 0 0];

internalField   nonuniform List<scalar> 
63552
(
1.88756e-06
1.90535e-06
1.92428e-06
1.9442e-06
1.96496e-06
1.98638e-06
2.00821e-06
2.03022e-06
2.05212e-06
2.07361e-06
2.09437e-06
2.11405e-06
2.1323e-06
2.14875e-06
2.16305e-06
1.8921e-06
1.90906e-06
1.92698e-06
1.94575e-06
1.96521e-06
1.9852e-06
2.00551e-06
2.02593e-06
2.0462e-06
2.06606e-06
2.08521e-06
2.10337e-06
2.12021e-06
2.13543e-06
2.1487e-06
1.9118e-06
1.92876e-06
1.94642e-06
1.96466e-06
1.98333e-06
2.00223e-06
2.02118e-06
2.03996e-06
2.05832e-06
2.07602e-06
2.09278e-06
2.10835e-06
2.12244e-06
2.13479e-06
1.91364e-06
1.92967e-06
1.94629e-06
1.96338e-06
1.98081e-06
1.99842e-06
2.01602e-06
2.03342e-06
2.05041e-06
2.06678e-06
2.08229e-06
2.0967e-06
2.10978e-06
2.12129e-06
1.92978e-06
1.94541e-06
1.96143e-06
1.97771e-06
1.99411e-06
2.01047e-06
2.02661e-06
2.04236e-06
2.05752e-06
2.07188e-06
2.08524e-06
2.0974e-06
2.10815e-06
1.92915e-06
1.94385e-06
1.95886e-06
1.97407e-06
1.98935e-06
2.00457e-06
2.01956e-06
2.03417e-06
2.04822e-06
2.06155e-06
2.07396e-06
2.08528e-06
2.09534e-06
1.92783e-06
1.94165e-06
1.95572e-06
1.96994e-06
1.98419e-06
1.99835e-06
2.01228e-06
2.02585e-06
2.0389e-06
2.05128e-06
2.06283e-06
2.0734e-06
2.08283e-06
1.93887e-06
1.95206e-06
1.96535e-06
1.97865e-06
1.99184e-06
2.00481e-06
2.01742e-06
2.02956e-06
2.04108e-06
2.05185e-06
2.06173e-06
2.07059e-06
1.93555e-06
1.94792e-06
1.96035e-06
1.97276e-06
1.98506e-06
1.99714e-06
2.00889e-06
2.02019e-06
2.03093e-06
2.04098e-06
2.05024e-06
2.05858e-06
1.93173e-06
1.94333e-06
1.95496e-06
1.96656e-06
1.97804e-06
1.9893e-06
2.00025e-06
2.01079e-06
2.02082e-06
2.03023e-06
2.03892e-06
2.04679e-06
1.92746e-06
1.93833e-06
1.94923e-06
1.96007e-06
1.97079e-06
1.9813e-06
1.99152e-06
2.00137e-06
2.01074e-06
2.01956e-06
2.02774e-06
2.03518e-06
1.93297e-06
1.94317e-06
1.95331e-06
1.96333e-06
1.97315e-06
1.9827e-06
1.99191e-06
2.00069e-06
2.00898e-06
2.01668e-06
2.02373e-06
1.92725e-06
1.93681e-06
1.9463e-06
1.95567e-06
1.96486e-06
1.97379e-06
1.98242e-06
1.99066e-06
1.99845e-06
2.00573e-06
2.01242e-06
1.92123e-06
1.93018e-06
1.93907e-06
1.94784e-06
1.95643e-06
1.9648e-06
1.97289e-06
1.98063e-06
1.98797e-06
1.99486e-06
2.00123e-06
1.91491e-06
1.9233e-06
1.93162e-06
1.93983e-06
1.94788e-06
1.95573e-06
1.96332e-06
1.9706e-06
1.97753e-06
1.98406e-06
1.99013e-06
1.90833e-06
1.91619e-06
1.92398e-06
1.93167e-06
1.93921e-06
1.94657e-06
1.9537e-06
1.96056e-06
1.96711e-06
1.97331e-06
1.97911e-06
1.9015e-06
1.90887e-06
1.91616e-06
1.92336e-06
1.93043e-06
1.93733e-06
1.94403e-06
1.9505e-06
1.9567e-06
1.96259e-06
1.96814e-06
1.89446e-06
1.90135e-06
1.90818e-06
1.91491e-06
1.92153e-06
1.92801e-06
1.93431e-06
1.94041e-06
1.94628e-06
1.95189e-06
1.95721e-06
1.89365e-06
1.90003e-06
1.90633e-06
1.91253e-06
1.91861e-06
1.92453e-06
1.93029e-06
1.93585e-06
1.94119e-06
1.9463e-06
1.88579e-06
1.89175e-06
1.89763e-06
1.90343e-06
1.90912e-06
1.91469e-06
1.92012e-06
1.92539e-06
1.93048e-06
1.93539e-06
4.69538e-06
4.70181e-06
4.70859e-06
4.71567e-06
4.72297e-06
4.73044e-06
4.73797e-06
4.74549e-06
4.75291e-06
4.76011e-06
4.76701e-06
4.77349e-06
4.77945e-06
4.78478e-06
4.78938e-06
4.69698e-06
4.7031e-06
4.70952e-06
4.71618e-06
4.72302e-06
4.72999e-06
4.73701e-06
4.744e-06
4.75088e-06
4.75756e-06
4.76395e-06
4.76995e-06
4.77548e-06
4.78043e-06
4.78473e-06
4.70404e-06
4.71011e-06
4.71638e-06
4.7228e-06
4.72931e-06
4.73585e-06
4.74235e-06
4.74874e-06
4.75494e-06
4.76086e-06
4.76643e-06
4.77156e-06
4.77618e-06
4.7802e-06
4.70466e-06
4.71039e-06
4.71629e-06
4.72231e-06
4.7284e-06
4.7345e-06
4.74055e-06
4.74649e-06
4.75224e-06
4.75774e-06
4.76292e-06
4.76769e-06
4.772e-06
4.77577e-06
4.71039e-06
4.71594e-06
4.72159e-06
4.72728e-06
4.73298e-06
4.73862e-06
4.74414e-06
4.74949e-06
4.7546e-06
4.75942e-06
4.76387e-06
4.76789e-06
4.77143e-06
4.71013e-06
4.71535e-06
4.72065e-06
4.72598e-06
4.7313e-06
4.73655e-06
4.7417e-06
4.74668e-06
4.75144e-06
4.75593e-06
4.76008e-06
4.76385e-06
4.76718e-06
4.70962e-06
4.71454e-06
4.71951e-06
4.7245e-06
4.72947e-06
4.73437e-06
4.73917e-06
4.74381e-06
4.74825e-06
4.75244e-06
4.75632e-06
4.75986e-06
4.76299e-06
4.71351e-06
4.71818e-06
4.72285e-06
4.7275e-06
4.73209e-06
4.73657e-06
4.7409e-06
4.74504e-06
4.74895e-06
4.75259e-06
4.75591e-06
4.75888e-06
4.71229e-06
4.71668e-06
4.72106e-06
4.72541e-06
4.7297e-06
4.73388e-06
4.73793e-06
4.74181e-06
4.74547e-06
4.74888e-06
4.75201e-06
4.75482e-06
4.71089e-06
4.71501e-06
4.71913e-06
4.7232e-06
4.72721e-06
4.73113e-06
4.73492e-06
4.73855e-06
4.74198e-06
4.74519e-06
4.74814e-06
4.7508e-06
4.70933e-06
4.7132e-06
4.71706e-06
4.72088e-06
4.72464e-06
4.72831e-06
4.73186e-06
4.73527e-06
4.73849e-06
4.74151e-06
4.7443e-06
4.74683e-06
4.71125e-06
4.71488e-06
4.71846e-06
4.72199e-06
4.72543e-06
4.72876e-06
4.73195e-06
4.73499e-06
4.73784e-06
4.74048e-06
4.74289e-06
4.70917e-06
4.71258e-06
4.71595e-06
4.71925e-06
4.72248e-06
4.72561e-06
4.72862e-06
4.73148e-06
4.73417e-06
4.73668e-06
4.73898e-06
4.70697e-06
4.71018e-06
4.71334e-06
4.71644e-06
4.71948e-06
4.72242e-06
4.72525e-06
4.72795e-06
4.7305e-06
4.73288e-06
4.73508e-06
4.70467e-06
4.70767e-06
4.71064e-06
4.71356e-06
4.71642e-06
4.71918e-06
4.72185e-06
4.7244e-06
4.72682e-06
4.72909e-06
4.7312e-06
4.70225e-06
4.70508e-06
4.70787e-06
4.71062e-06
4.7133e-06
4.7159e-06
4.71842e-06
4.72083e-06
4.72313e-06
4.7253e-06
4.72732e-06
4.69974e-06
4.7024e-06
4.70502e-06
4.7076e-06
4.71012e-06
4.71258e-06
4.71496e-06
4.71724e-06
4.71942e-06
4.72149e-06
4.72344e-06
4.69715e-06
4.69964e-06
4.7021e-06
4.70452e-06
4.7069e-06
4.70921e-06
4.71145e-06
4.71362e-06
4.7157e-06
4.71768e-06
4.71955e-06
4.6968e-06
4.69911e-06
4.70139e-06
4.70362e-06
4.7058e-06
4.70791e-06
4.70997e-06
4.71194e-06
4.71384e-06
4.71564e-06
4.6939e-06
4.69606e-06
4.69819e-06
4.70028e-06
4.70233e-06
4.70433e-06
4.70628e-06
4.70816e-06
4.70998e-06
4.71172e-06
9.69261e-06
9.69749e-06
9.70265e-06
9.70806e-06
9.71365e-06
9.71936e-06
9.72513e-06
9.7309e-06
9.73658e-06
9.7421e-06
9.74738e-06
9.75235e-06
9.75693e-06
9.76103e-06
9.76458e-06
9.69416e-06
9.6988e-06
9.70368e-06
9.70876e-06
9.71399e-06
9.71932e-06
9.72469e-06
9.73004e-06
9.73531e-06
9.74043e-06
9.74533e-06
9.74993e-06
9.75418e-06
9.758e-06
9.76133e-06
9.69984e-06
9.70445e-06
9.70922e-06
9.71412e-06
9.71909e-06
9.7241e-06
9.72907e-06
9.73396e-06
9.73871e-06
9.74325e-06
9.74753e-06
9.75148e-06
9.75504e-06
9.75816e-06
9.70063e-06
9.70498e-06
9.70946e-06
9.71405e-06
9.7187e-06
9.72336e-06
9.72799e-06
9.73254e-06
9.73695e-06
9.74117e-06
9.74514e-06
9.74882e-06
9.75215e-06
9.75508e-06
9.70529e-06
9.70951e-06
9.71381e-06
9.71815e-06
9.7225e-06
9.72681e-06
9.73104e-06
9.73514e-06
9.73906e-06
9.74277e-06
9.7462e-06
9.74931e-06
9.75207e-06
9.7054e-06
9.70937e-06
9.7134e-06
9.71746e-06
9.72152e-06
9.72554e-06
9.72948e-06
9.7333e-06
9.73695e-06
9.7404e-06
9.74361e-06
9.74653e-06
9.74912e-06
9.70532e-06
9.70906e-06
9.71284e-06
9.71664e-06
9.72043e-06
9.72418e-06
9.72786e-06
9.73142e-06
9.73482e-06
9.73805e-06
9.74105e-06
9.74379e-06
9.74624e-06
9.70859e-06
9.71214e-06
9.7157e-06
9.71924e-06
9.72275e-06
9.72618e-06
9.7295e-06
9.73269e-06
9.7357e-06
9.73851e-06
9.74109e-06
9.74341e-06
9.70797e-06
9.71131e-06
9.71464e-06
9.71796e-06
9.72124e-06
9.72445e-06
9.72755e-06
9.73053e-06
9.73336e-06
9.736e-06
9.73843e-06
9.74063e-06
9.70723e-06
9.71036e-06
9.71349e-06
9.7166e-06
9.71967e-06
9.72267e-06
9.72558e-06
9.72837e-06
9.73102e-06
9.73351e-06
9.7358e-06
9.73789e-06
9.70635e-06
9.7093e-06
9.71224e-06
9.71515e-06
9.71803e-06
9.72084e-06
9.72357e-06
9.72619e-06
9.72868e-06
9.73103e-06
9.7332e-06
9.73518e-06
9.70814e-06
9.7109e-06
9.71363e-06
9.71633e-06
9.71897e-06
9.72153e-06
9.724e-06
9.72634e-06
9.72856e-06
9.73062e-06
9.73251e-06
9.70688e-06
9.70948e-06
9.71205e-06
9.71458e-06
9.71706e-06
9.71947e-06
9.72179e-06
9.724e-06
9.7261e-06
9.72805e-06
9.72986e-06
9.70554e-06
9.70798e-06
9.7104e-06
9.71278e-06
9.71511e-06
9.71737e-06
9.71956e-06
9.72165e-06
9.72364e-06
9.7255e-06
9.72722e-06
9.70411e-06
9.70641e-06
9.70868e-06
9.71092e-06
9.71312e-06
9.71525e-06
9.71732e-06
9.7193e-06
9.72118e-06
9.72295e-06
9.72461e-06
9.70261e-06
9.70478e-06
9.70692e-06
9.70902e-06
9.71109e-06
9.7131e-06
9.71505e-06
9.71693e-06
9.71872e-06
9.72041e-06
9.722e-06
9.70105e-06
9.70308e-06
9.70509e-06
9.70708e-06
9.70903e-06
9.71092e-06
9.71277e-06
9.71455e-06
9.71625e-06
9.71787e-06
9.7194e-06
9.69941e-06
9.70133e-06
9.70322e-06
9.70509e-06
9.70693e-06
9.70872e-06
9.71046e-06
9.71215e-06
9.71377e-06
9.71532e-06
9.7168e-06
9.69952e-06
9.7013e-06
9.70306e-06
9.70479e-06
9.70648e-06
9.70813e-06
9.70974e-06
9.71128e-06
9.71277e-06
9.71419e-06
9.69767e-06
9.69934e-06
9.70099e-06
9.70262e-06
9.70422e-06
9.70578e-06
9.7073e-06
9.70878e-06
9.7102e-06
9.71157e-06
1.60962e-05
1.61015e-05
1.61071e-05
1.6113e-05
1.6119e-05
1.61253e-05
1.61316e-05
1.61378e-05
1.6144e-05
1.61501e-05
1.61558e-05
1.61612e-05
1.61662e-05
1.61707e-05
1.61746e-05
1.60981e-05
1.61031e-05
1.61084e-05
1.61139e-05
1.61196e-05
1.61254e-05
1.61313e-05
1.61371e-05
1.61428e-05
1.61484e-05
1.61538e-05
1.61588e-05
1.61634e-05
1.61676e-05
1.61712e-05
1.61044e-05
1.61094e-05
1.61146e-05
1.612e-05
1.61254e-05
1.61308e-05
1.61362e-05
1.61416e-05
1.61467e-05
1.61517e-05
1.61564e-05
1.61607e-05
1.61646e-05
1.6168e-05
1.61055e-05
1.61102e-05
1.61151e-05
1.61201e-05
1.61251e-05
1.61302e-05
1.61352e-05
1.61402e-05
1.6145e-05
1.61496e-05
1.61539e-05
1.6158e-05
1.61616e-05
1.61648e-05
1.61108e-05
1.61153e-05
1.612e-05
1.61247e-05
1.61295e-05
1.61342e-05
1.61388e-05
1.61432e-05
1.61475e-05
1.61516e-05
1.61553e-05
1.61587e-05
1.61618e-05
1.61111e-05
1.61154e-05
1.61198e-05
1.61242e-05
1.61286e-05
1.6133e-05
1.61373e-05
1.61414e-05
1.61454e-05
1.61492e-05
1.61527e-05
1.61559e-05
1.61587e-05
1.61112e-05
1.61152e-05
1.61194e-05
1.61235e-05
1.61276e-05
1.61317e-05
1.61357e-05
1.61396e-05
1.61433e-05
1.61468e-05
1.61501e-05
1.61531e-05
1.61558e-05
1.61149e-05
1.61188e-05
1.61227e-05
1.61265e-05
1.61303e-05
1.61341e-05
1.61377e-05
1.61412e-05
1.61445e-05
1.61475e-05
1.61504e-05
1.61529e-05
1.61145e-05
1.61181e-05
1.61217e-05
1.61253e-05
1.61289e-05
1.61324e-05
1.61358e-05
1.6139e-05
1.61421e-05
1.6145e-05
1.61477e-05
1.61501e-05
1.61139e-05
1.61173e-05
1.61207e-05
1.61241e-05
1.61274e-05
1.61307e-05
1.61338e-05
1.61369e-05
1.61398e-05
1.61425e-05
1.6145e-05
1.61473e-05
1.61131e-05
1.61163e-05
1.61195e-05
1.61227e-05
1.61258e-05
1.61289e-05
1.61319e-05
1.61347e-05
1.61375e-05
1.614e-05
1.61424e-05
1.61446e-05
1.61153e-05
1.61183e-05
1.61213e-05
1.61242e-05
1.61271e-05
1.61299e-05
1.61326e-05
1.61351e-05
1.61376e-05
1.61398e-05
1.61419e-05
1.61141e-05
1.61169e-05
1.61197e-05
1.61225e-05
1.61252e-05
1.61278e-05
1.61304e-05
1.61328e-05
1.61351e-05
1.61373e-05
1.61393e-05
1.61129e-05
1.61155e-05
1.61182e-05
1.61208e-05
1.61233e-05
1.61258e-05
1.61282e-05
1.61305e-05
1.61327e-05
1.61347e-05
1.61366e-05
1.61115e-05
1.6114e-05
1.61165e-05
1.6119e-05
1.61214e-05
1.61237e-05
1.6126e-05
1.61281e-05
1.61302e-05
1.61322e-05
1.6134e-05
1.61101e-05
1.61125e-05
1.61148e-05
1.61171e-05
1.61194e-05
1.61216e-05
1.61237e-05
1.61258e-05
1.61278e-05
1.61296e-05
1.61314e-05
1.61087e-05
1.61109e-05
1.61131e-05
1.61152e-05
1.61174e-05
1.61195e-05
1.61215e-05
1.61234e-05
1.61253e-05
1.61271e-05
1.61288e-05
1.61071e-05
1.61092e-05
1.61113e-05
1.61133e-05
1.61153e-05
1.61173e-05
1.61192e-05
1.61211e-05
1.61229e-05
1.61246e-05
1.61262e-05
1.61075e-05
1.61094e-05
1.61113e-05
1.61132e-05
1.61151e-05
1.61169e-05
1.61187e-05
1.61204e-05
1.6122e-05
1.61236e-05
1.61057e-05
1.61075e-05
1.61093e-05
1.61111e-05
1.61129e-05
1.61146e-05
1.61163e-05
1.61179e-05
1.61195e-05
1.6121e-05
2.37859e-05
2.37919e-05
2.37983e-05
2.38049e-05
2.38118e-05
2.38189e-05
2.3826e-05
2.38332e-05
2.38402e-05
2.3847e-05
2.38536e-05
2.38597e-05
2.38654e-05
2.38705e-05
2.38749e-05
2.37883e-05
2.3794e-05
2.38e-05
2.38062e-05
2.38127e-05
2.38192e-05
2.38259e-05
2.38325e-05
2.3839e-05
2.38453e-05
2.38514e-05
2.38571e-05
2.38624e-05
2.38671e-05
2.38713e-05
2.37957e-05
2.38013e-05
2.38072e-05
2.38132e-05
2.38194e-05
2.38256e-05
2.38317e-05
2.38378e-05
2.38436e-05
2.38492e-05
2.38545e-05
2.38595e-05
2.38639e-05
2.38678e-05
2.37971e-05
2.38024e-05
2.38079e-05
2.38136e-05
2.38193e-05
2.38251e-05
2.38308e-05
2.38364e-05
2.38419e-05
2.38471e-05
2.3852e-05
2.38566e-05
2.38607e-05
2.38644e-05
2.38033e-05
2.38084e-05
2.38137e-05
2.38191e-05
2.38244e-05
2.38297e-05
2.3835e-05
2.384e-05
2.38449e-05
2.38495e-05
2.38538e-05
2.38577e-05
2.38611e-05
2.38038e-05
2.38087e-05
2.38136e-05
2.38186e-05
2.38236e-05
2.38286e-05
2.38335e-05
2.38382e-05
2.38427e-05
2.3847e-05
2.3851e-05
2.38547e-05
2.38579e-05
2.38042e-05
2.38087e-05
2.38134e-05
2.38181e-05
2.38227e-05
2.38274e-05
2.38319e-05
2.38363e-05
2.38405e-05
2.38445e-05
2.38483e-05
2.38517e-05
2.38548e-05
2.38086e-05
2.38129e-05
2.38173e-05
2.38217e-05
2.3826e-05
2.38303e-05
2.38344e-05
2.38383e-05
2.38421e-05
2.38456e-05
2.38488e-05
2.38518e-05
2.38083e-05
2.38124e-05
2.38165e-05
2.38206e-05
2.38246e-05
2.38286e-05
2.38324e-05
2.38361e-05
2.38396e-05
2.38429e-05
2.3846e-05
2.38488e-05
2.38078e-05
2.38116e-05
2.38155e-05
2.38193e-05
2.38231e-05
2.38268e-05
2.38304e-05
2.38339e-05
2.38372e-05
2.38403e-05
2.38432e-05
2.38458e-05
2.38072e-05
2.38108e-05
2.38144e-05
2.3818e-05
2.38215e-05
2.3825e-05
2.38284e-05
2.38317e-05
2.38348e-05
2.38377e-05
2.38405e-05
2.3843e-05
2.38098e-05
2.38132e-05
2.38166e-05
2.38199e-05
2.38232e-05
2.38264e-05
2.38294e-05
2.38324e-05
2.38351e-05
2.38377e-05
2.38401e-05
2.38087e-05
2.38119e-05
2.38151e-05
2.38182e-05
2.38213e-05
2.38243e-05
2.38272e-05
2.38299e-05
2.38326e-05
2.3835e-05
2.38373e-05
2.38075e-05
2.38105e-05
2.38135e-05
2.38165e-05
2.38194e-05
2.38222e-05
2.38249e-05
2.38275e-05
2.383e-05
2.38324e-05
2.38346e-05
2.38062e-05
2.38091e-05
2.38119e-05
2.38147e-05
2.38174e-05
2.38201e-05
2.38226e-05
2.38251e-05
2.38275e-05
2.38297e-05
2.38318e-05
2.38049e-05
2.38075e-05
2.38102e-05
2.38128e-05
2.38154e-05
2.38179e-05
2.38203e-05
2.38227e-05
2.38249e-05
2.38271e-05
2.38291e-05
2.38034e-05
2.38059e-05
2.38084e-05
2.38109e-05
2.38133e-05
2.38157e-05
2.3818e-05
2.38203e-05
2.38224e-05
2.38245e-05
2.38264e-05
2.38019e-05
2.38043e-05
2.38066e-05
2.3809e-05
2.38112e-05
2.38135e-05
2.38157e-05
2.38178e-05
2.38199e-05
2.38218e-05
2.38237e-05
2.38025e-05
2.38048e-05
2.3807e-05
2.38091e-05
2.38113e-05
2.38133e-05
2.38154e-05
2.38173e-05
2.38192e-05
2.3821e-05
2.38008e-05
2.38029e-05
2.38049e-05
2.3807e-05
2.3809e-05
2.3811e-05
2.38129e-05
2.38148e-05
2.38166e-05
2.38183e-05
3.28161e-05
3.2823e-05
3.28304e-05
3.28381e-05
3.28462e-05
3.28544e-05
3.28627e-05
3.2871e-05
3.28791e-05
3.28871e-05
3.28947e-05
3.29018e-05
3.29084e-05
3.29143e-05
3.29195e-05
3.28191e-05
3.28257e-05
3.28326e-05
3.28399e-05
3.28473e-05
3.2855e-05
3.28627e-05
3.28704e-05
3.2878e-05
3.28853e-05
3.28924e-05
3.2899e-05
3.29051e-05
3.29106e-05
3.29155e-05
3.28279e-05
3.28344e-05
3.28412e-05
3.28482e-05
3.28554e-05
3.28625e-05
3.28697e-05
3.28767e-05
3.28835e-05
3.28901e-05
3.28962e-05
3.29019e-05
3.29071e-05
3.29117e-05
3.28297e-05
3.28359e-05
3.28423e-05
3.28488e-05
3.28555e-05
3.28622e-05
3.28688e-05
3.28753e-05
3.28817e-05
3.28877e-05
3.28935e-05
3.28988e-05
3.29036e-05
3.29079e-05
3.28371e-05
3.28431e-05
3.28492e-05
3.28554e-05
3.28616e-05
3.28678e-05
3.28739e-05
3.28798e-05
3.28854e-05
3.28908e-05
3.28957e-05
3.29003e-05
3.29043e-05
3.28379e-05
3.28436e-05
3.28493e-05
3.28551e-05
3.28609e-05
3.28667e-05
3.28723e-05
3.28778e-05
3.28831e-05
3.28881e-05
3.28927e-05
3.2897e-05
3.29008e-05
3.28386e-05
3.28438e-05
3.28492e-05
3.28546e-05
3.28601e-05
3.28654e-05
3.28707e-05
3.28758e-05
3.28808e-05
3.28854e-05
3.28898e-05
3.28938e-05
3.28974e-05
3.28439e-05
3.28489e-05
3.2854e-05
3.28591e-05
3.28641e-05
3.2869e-05
3.28738e-05
3.28784e-05
3.28828e-05
3.28869e-05
3.28907e-05
3.28941e-05
3.28437e-05
3.28485e-05
3.28532e-05
3.2858e-05
3.28627e-05
3.28673e-05
3.28718e-05
3.28761e-05
3.28802e-05
3.2884e-05
3.28876e-05
3.28909e-05
3.28434e-05
3.28478e-05
3.28523e-05
3.28568e-05
3.28612e-05
3.28655e-05
3.28697e-05
3.28737e-05
3.28776e-05
3.28812e-05
3.28846e-05
3.28877e-05
3.28429e-05
3.28471e-05
3.28513e-05
3.28554e-05
3.28596e-05
3.28636e-05
3.28675e-05
3.28713e-05
3.2875e-05
3.28784e-05
3.28816e-05
3.28846e-05
3.28462e-05
3.28501e-05
3.2854e-05
3.28579e-05
3.28617e-05
3.28654e-05
3.2869e-05
3.28724e-05
3.28756e-05
3.28787e-05
3.28815e-05
3.28451e-05
3.28488e-05
3.28525e-05
3.28562e-05
3.28597e-05
3.28632e-05
3.28666e-05
3.28698e-05
3.28729e-05
3.28758e-05
3.28785e-05
3.2844e-05
3.28475e-05
3.28509e-05
3.28544e-05
3.28577e-05
3.2861e-05
3.28642e-05
3.28673e-05
3.28702e-05
3.28729e-05
3.28755e-05
3.28427e-05
3.2846e-05
3.28493e-05
3.28525e-05
3.28557e-05
3.28588e-05
3.28618e-05
3.28647e-05
3.28675e-05
3.28701e-05
3.28726e-05
3.28414e-05
3.28445e-05
3.28475e-05
3.28506e-05
3.28536e-05
3.28565e-05
3.28594e-05
3.28621e-05
3.28648e-05
3.28673e-05
3.28696e-05
3.28399e-05
3.28428e-05
3.28457e-05
3.28486e-05
3.28514e-05
3.28542e-05
3.28569e-05
3.28595e-05
3.28621e-05
3.28645e-05
3.28667e-05
3.28384e-05
3.28411e-05
3.28439e-05
3.28466e-05
3.28493e-05
3.28519e-05
3.28545e-05
3.28569e-05
3.28594e-05
3.28617e-05
3.28639e-05
3.28394e-05
3.2842e-05
3.28445e-05
3.28471e-05
3.28495e-05
3.2852e-05
3.28544e-05
3.28567e-05
3.28589e-05
3.2861e-05
3.28375e-05
3.284e-05
3.28424e-05
3.28448e-05
3.28472e-05
3.28495e-05
3.28517e-05
3.28539e-05
3.28561e-05
3.28581e-05
4.32811e-05
4.32891e-05
4.32977e-05
4.33068e-05
4.33162e-05
4.33258e-05
4.33355e-05
4.33452e-05
4.33548e-05
4.33641e-05
4.3373e-05
4.33813e-05
4.3389e-05
4.3396e-05
4.34021e-05
4.32848e-05
4.32924e-05
4.33005e-05
4.3309e-05
4.33178e-05
4.33267e-05
4.33358e-05
4.33448e-05
4.33536e-05
4.33622e-05
4.33705e-05
4.33783e-05
4.33854e-05
4.33919e-05
4.33976e-05
4.32953e-05
4.33029e-05
4.33108e-05
4.3319e-05
4.33274e-05
4.33358e-05
4.33441e-05
4.33524e-05
4.33604e-05
4.3368e-05
4.33752e-05
4.33819e-05
4.3388e-05
4.33934e-05
4.32977e-05
4.33049e-05
4.33123e-05
4.332e-05
4.33277e-05
4.33356e-05
4.33433e-05
4.3351e-05
4.33584e-05
4.33655e-05
4.33722e-05
4.33785e-05
4.33842e-05
4.33892e-05
4.33064e-05
4.33134e-05
4.33206e-05
4.33279e-05
4.33351e-05
4.33424e-05
4.33495e-05
4.33564e-05
4.3363e-05
4.33693e-05
4.33751e-05
4.33805e-05
4.33852e-05
4.33077e-05
4.33143e-05
4.3321e-05
4.33278e-05
4.33345e-05
4.33413e-05
4.33479e-05
4.33543e-05
4.33605e-05
4.33664e-05
4.33718e-05
4.33769e-05
4.33814e-05
4.33086e-05
4.33148e-05
4.33211e-05
4.33274e-05
4.33338e-05
4.33401e-05
4.33462e-05
4.33522e-05
4.3358e-05
4.33635e-05
4.33686e-05
4.33733e-05
4.33776e-05
4.33151e-05
4.3321e-05
4.33269e-05
4.33329e-05
4.33387e-05
4.33445e-05
4.33501e-05
4.33555e-05
4.33606e-05
4.33655e-05
4.33699e-05
4.3374e-05
4.33152e-05
4.33207e-05
4.33263e-05
4.33318e-05
4.33373e-05
4.33427e-05
4.33479e-05
4.3353e-05
4.33578e-05
4.33623e-05
4.33666e-05
4.33704e-05
4.3315e-05
4.33202e-05
4.33254e-05
4.33306e-05
4.33358e-05
4.33408e-05
4.33457e-05
4.33505e-05
4.3355e-05
4.33593e-05
4.33633e-05
4.33669e-05
4.33147e-05
4.33195e-05
4.33244e-05
4.33293e-05
4.33341e-05
4.33389e-05
4.33435e-05
4.3348e-05
4.33522e-05
4.33563e-05
4.336e-05
4.33635e-05
4.33187e-05
4.33233e-05
4.33279e-05
4.33324e-05
4.33369e-05
4.33412e-05
4.33454e-05
4.33494e-05
4.33533e-05
4.33569e-05
4.33602e-05
4.33177e-05
4.33221e-05
4.33264e-05
4.33306e-05
4.33348e-05
4.33389e-05
4.33429e-05
4.33467e-05
4.33503e-05
4.33537e-05
4.33569e-05
4.33166e-05
4.33207e-05
4.33248e-05
4.33288e-05
4.33327e-05
4.33366e-05
4.33403e-05
4.33439e-05
4.33474e-05
4.33506e-05
4.33537e-05
4.33154e-05
4.33193e-05
4.33231e-05
4.33269e-05
4.33306e-05
4.33342e-05
4.33378e-05
4.33412e-05
4.33445e-05
4.33476e-05
4.33505e-05
4.33141e-05
4.33177e-05
4.33213e-05
4.33249e-05
4.33284e-05
4.33318e-05
4.33352e-05
4.33384e-05
4.33416e-05
4.33445e-05
4.33473e-05
4.33126e-05
4.33161e-05
4.33195e-05
4.33228e-05
4.33262e-05
4.33294e-05
4.33326e-05
4.33357e-05
4.33387e-05
4.33415e-05
4.33442e-05
4.33111e-05
4.33143e-05
4.33176e-05
4.33207e-05
4.33239e-05
4.3327e-05
4.333e-05
4.33329e-05
4.33358e-05
4.33385e-05
4.33411e-05
4.33125e-05
4.33156e-05
4.33186e-05
4.33216e-05
4.33245e-05
4.33274e-05
4.33302e-05
4.33329e-05
4.33355e-05
4.3338e-05
4.33107e-05
4.33135e-05
4.33164e-05
4.33192e-05
4.3322e-05
4.33247e-05
4.33274e-05
4.333e-05
4.33325e-05
4.3335e-05
5.52971e-05
5.53065e-05
5.53166e-05
5.53272e-05
5.53382e-05
5.53494e-05
5.53608e-05
5.53722e-05
5.53834e-05
5.53943e-05
5.54047e-05
5.54145e-05
5.54235e-05
5.54316e-05
5.54388e-05
5.53017e-05
5.53107e-05
5.53201e-05
5.53301e-05
5.53403e-05
5.53508e-05
5.53614e-05
5.53719e-05
5.53823e-05
5.53924e-05
5.5402e-05
5.54111e-05
5.54195e-05
5.54271e-05
5.54338e-05
5.53142e-05
5.53232e-05
5.53325e-05
5.5342e-05
5.53518e-05
5.53616e-05
5.53714e-05
5.53811e-05
5.53904e-05
5.53994e-05
5.54078e-05
5.54157e-05
5.54228e-05
5.54291e-05
5.53173e-05
5.53257e-05
5.53344e-05
5.53434e-05
5.53525e-05
5.53616e-05
5.53707e-05
5.53797e-05
5.53884e-05
5.53967e-05
5.54046e-05
5.54119e-05
5.54186e-05
5.54245e-05
5.53278e-05
5.5336e-05
5.53444e-05
5.53529e-05
5.53614e-05
5.53699e-05
5.53782e-05
5.53863e-05
5.5394e-05
5.54014e-05
5.54082e-05
5.54145e-05
5.54201e-05
5.53296e-05
5.53372e-05
5.53451e-05
5.5353e-05
5.53609e-05
5.53688e-05
5.53766e-05
5.53841e-05
5.53914e-05
5.53982e-05
5.54046e-05
5.54105e-05
5.54159e-05
5.53309e-05
5.53381e-05
5.53455e-05
5.53529e-05
5.53603e-05
5.53677e-05
5.53749e-05
5.53819e-05
5.53887e-05
5.53951e-05
5.54011e-05
5.54067e-05
5.54117e-05
5.53387e-05
5.53456e-05
5.53525e-05
5.53595e-05
5.53664e-05
5.53731e-05
5.53797e-05
5.5386e-05
5.5392e-05
5.53977e-05
5.54029e-05
5.54077e-05
5.53391e-05
5.53455e-05
5.5352e-05
5.53585e-05
5.53649e-05
5.53712e-05
5.53774e-05
5.53833e-05
5.5389e-05
5.53943e-05
5.53993e-05
5.54038e-05
5.53391e-05
5.53452e-05
5.53513e-05
5.53574e-05
5.53634e-05
5.53693e-05
5.53751e-05
5.53806e-05
5.5386e-05
5.5391e-05
5.53957e-05
5.54e-05
5.5339e-05
5.53447e-05
5.53504e-05
5.53561e-05
5.53618e-05
5.53673e-05
5.53727e-05
5.5378e-05
5.5383e-05
5.53877e-05
5.53922e-05
5.53963e-05
5.5344e-05
5.53494e-05
5.53547e-05
5.536e-05
5.53653e-05
5.53703e-05
5.53753e-05
5.538e-05
5.53845e-05
5.53887e-05
5.53927e-05
5.53431e-05
5.53482e-05
5.53532e-05
5.53582e-05
5.53631e-05
5.53679e-05
5.53726e-05
5.53771e-05
5.53813e-05
5.53854e-05
5.53891e-05
5.53421e-05
5.53469e-05
5.53516e-05
5.53563e-05
5.5361e-05
5.53655e-05
5.53699e-05
5.53741e-05
5.53782e-05
5.5382e-05
5.53856e-05
5.53409e-05
5.53454e-05
5.53499e-05
5.53544e-05
5.53587e-05
5.5363e-05
5.53672e-05
5.53712e-05
5.5375e-05
5.53787e-05
5.53822e-05
5.53397e-05
5.53439e-05
5.53481e-05
5.53523e-05
5.53565e-05
5.53605e-05
5.53645e-05
5.53683e-05
5.53719e-05
5.53755e-05
5.53788e-05
5.53383e-05
5.53423e-05
5.53463e-05
5.53502e-05
5.53541e-05
5.5358e-05
5.53617e-05
5.53654e-05
5.53689e-05
5.53722e-05
5.53754e-05
5.53367e-05
5.53405e-05
5.53443e-05
5.53481e-05
5.53518e-05
5.53554e-05
5.5359e-05
5.53624e-05
5.53658e-05
5.5369e-05
5.53721e-05
5.53387e-05
5.53423e-05
5.53459e-05
5.53494e-05
5.53528e-05
5.53562e-05
5.53595e-05
5.53627e-05
5.53658e-05
5.53688e-05
5.53368e-05
5.53402e-05
5.53436e-05
5.53469e-05
5.53502e-05
5.53534e-05
5.53566e-05
5.53596e-05
5.53626e-05
5.53655e-05
6.8989e-05
6.9e-05
6.90117e-05
6.9024e-05
6.90368e-05
6.905e-05
6.90633e-05
6.90766e-05
6.90896e-05
6.91023e-05
6.91144e-05
6.91258e-05
6.91364e-05
6.91458e-05
6.91541e-05
6.89947e-05
6.90051e-05
6.90161e-05
6.90277e-05
6.90396e-05
6.90518e-05
6.90642e-05
6.90765e-05
6.90886e-05
6.91004e-05
6.91116e-05
6.91222e-05
6.9132e-05
6.91409e-05
6.91487e-05
6.90096e-05
6.90199e-05
6.90308e-05
6.90419e-05
6.90533e-05
6.90648e-05
6.90762e-05
6.90874e-05
6.90983e-05
6.91088e-05
6.91186e-05
6.91278e-05
6.91361e-05
6.91435e-05
6.90134e-05
6.90232e-05
6.90333e-05
6.90438e-05
6.90544e-05
6.9065e-05
6.90757e-05
6.90861e-05
6.90962e-05
6.91059e-05
6.91151e-05
6.91237e-05
6.91315e-05
6.91385e-05
6.9026e-05
6.90355e-05
6.90452e-05
6.90551e-05
6.90651e-05
6.90749e-05
6.90846e-05
6.90941e-05
6.91031e-05
6.91117e-05
6.91197e-05
6.9127e-05
6.91336e-05
6.90283e-05
6.90372e-05
6.90463e-05
6.90556e-05
6.90648e-05
6.9074e-05
6.9083e-05
6.90918e-05
6.91003e-05
6.91083e-05
6.91158e-05
6.91227e-05
6.91289e-05
6.90302e-05
6.90385e-05
6.90471e-05
6.90557e-05
6.90643e-05
6.90729e-05
6.90814e-05
6.90896e-05
6.90975e-05
6.9105e-05
6.9112e-05
6.91185e-05
6.91244e-05
6.90395e-05
6.90475e-05
6.90556e-05
6.90637e-05
6.90717e-05
6.90796e-05
6.90872e-05
6.90946e-05
6.91017e-05
6.91083e-05
6.91144e-05
6.912e-05
6.90402e-05
6.90477e-05
6.90553e-05
6.90628e-05
6.90703e-05
6.90777e-05
6.90849e-05
6.90918e-05
6.90984e-05
6.91047e-05
6.91105e-05
6.91158e-05
6.90406e-05
6.90476e-05
6.90547e-05
6.90618e-05
6.90688e-05
6.90757e-05
6.90825e-05
6.9089e-05
6.90952e-05
6.91011e-05
6.91066e-05
6.91117e-05
6.90407e-05
6.90473e-05
6.9054e-05
6.90606e-05
6.90672e-05
6.90737e-05
6.908e-05
6.90862e-05
6.9092e-05
6.90976e-05
6.91028e-05
6.91077e-05
6.90468e-05
6.90531e-05
6.90593e-05
6.90655e-05
6.90716e-05
6.90776e-05
6.90833e-05
6.90889e-05
6.90942e-05
6.90991e-05
6.91037e-05
6.90461e-05
6.9052e-05
6.90579e-05
6.90637e-05
6.90695e-05
6.90751e-05
6.90805e-05
6.90858e-05
6.90908e-05
6.90955e-05
6.90999e-05
6.90452e-05
6.90508e-05
6.90563e-05
6.90618e-05
6.90672e-05
6.90725e-05
6.90777e-05
6.90827e-05
6.90874e-05
6.90919e-05
6.90961e-05
6.90442e-05
6.90495e-05
6.90547e-05
6.90599e-05
6.9065e-05
6.907e-05
6.90749e-05
6.90796e-05
6.90841e-05
6.90884e-05
6.90925e-05
6.9043e-05
6.9048e-05
6.90529e-05
6.90578e-05
6.90626e-05
6.90674e-05
6.9072e-05
6.90765e-05
6.90808e-05
6.90849e-05
6.90888e-05
6.90417e-05
6.90464e-05
6.90511e-05
6.90557e-05
6.90603e-05
6.90648e-05
6.90692e-05
6.90734e-05
6.90775e-05
6.90815e-05
6.90852e-05
6.90403e-05
6.90447e-05
6.90491e-05
6.90535e-05
6.90578e-05
6.90621e-05
6.90663e-05
6.90704e-05
6.90743e-05
6.90781e-05
6.90817e-05
6.90429e-05
6.90471e-05
6.90513e-05
6.90554e-05
6.90594e-05
6.90634e-05
6.90673e-05
6.90711e-05
6.90747e-05
6.90782e-05
6.90411e-05
6.9045e-05
6.9049e-05
6.90529e-05
6.90567e-05
6.90605e-05
6.90642e-05
6.90678e-05
6.90713e-05
6.90747e-05
8.4479e-05
8.44917e-05
8.45052e-05
8.45195e-05
8.45344e-05
8.45496e-05
8.45651e-05
8.45805e-05
8.45956e-05
8.46103e-05
8.46243e-05
8.46375e-05
8.46497e-05
8.46607e-05
8.46703e-05
8.44859e-05
8.44979e-05
8.45107e-05
8.45241e-05
8.4538e-05
8.45521e-05
8.45664e-05
8.45807e-05
8.45947e-05
8.46083e-05
8.46214e-05
8.46336e-05
8.4645e-05
8.46553e-05
8.46643e-05
8.45035e-05
8.45155e-05
8.4528e-05
8.45409e-05
8.45541e-05
8.45674e-05
8.45807e-05
8.45937e-05
8.46063e-05
8.46184e-05
8.46298e-05
8.46404e-05
8.46501e-05
8.46586e-05
8.45083e-05
8.45196e-05
8.45313e-05
8.45434e-05
8.45557e-05
8.45681e-05
8.45804e-05
8.45924e-05
8.46042e-05
8.46155e-05
8.46261e-05
8.4636e-05
8.46451e-05
8.46532e-05
8.45231e-05
8.45341e-05
8.45454e-05
8.45569e-05
8.45684e-05
8.45798e-05
8.45911e-05
8.4602e-05
8.46125e-05
8.46224e-05
8.46317e-05
8.46402e-05
8.46479e-05
8.45261e-05
8.45365e-05
8.4547e-05
8.45577e-05
8.45684e-05
8.45791e-05
8.45896e-05
8.45998e-05
8.46096e-05
8.46188e-05
8.46275e-05
8.46356e-05
8.46428e-05
8.45287e-05
8.45383e-05
8.45482e-05
8.45582e-05
8.45682e-05
8.45782e-05
8.45879e-05
8.45975e-05
8.46066e-05
8.46153e-05
8.46235e-05
8.46311e-05
8.46379e-05
8.45398e-05
8.45491e-05
8.45584e-05
8.45678e-05
8.45771e-05
8.45862e-05
8.45951e-05
8.46037e-05
8.46118e-05
8.46195e-05
8.46267e-05
8.46332e-05
8.45409e-05
8.45496e-05
8.45584e-05
8.45672e-05
8.45758e-05
8.45844e-05
8.45927e-05
8.46007e-05
8.46084e-05
8.46157e-05
8.46224e-05
8.46287e-05
8.45417e-05
8.45499e-05
8.45581e-05
8.45663e-05
8.45745e-05
8.45825e-05
8.45903e-05
8.45978e-05
8.46051e-05
8.46119e-05
8.46183e-05
8.46242e-05
8.45422e-05
8.45499e-05
8.45576e-05
8.45653e-05
8.45729e-05
8.45805e-05
8.45878e-05
8.45949e-05
8.46017e-05
8.46082e-05
8.46143e-05
8.46199e-05
8.45496e-05
8.45569e-05
8.45641e-05
8.45713e-05
8.45784e-05
8.45853e-05
8.4592e-05
8.45984e-05
8.46046e-05
8.46104e-05
8.46158e-05
8.45492e-05
8.4556e-05
8.45628e-05
8.45696e-05
8.45762e-05
8.45828e-05
8.45891e-05
8.45952e-05
8.4601e-05
8.46065e-05
8.46117e-05
8.45485e-05
8.4555e-05
8.45614e-05
8.45678e-05
8.4574e-05
8.45802e-05
8.45862e-05
8.45919e-05
8.45975e-05
8.46027e-05
8.46077e-05
8.45477e-05
8.45537e-05
8.45598e-05
8.45658e-05
8.45718e-05
8.45776e-05
8.45833e-05
8.45887e-05
8.4594e-05
8.4599e-05
8.46038e-05
8.45467e-05
8.45524e-05
8.45581e-05
8.45638e-05
8.45694e-05
8.4575e-05
8.45803e-05
8.45856e-05
8.45906e-05
8.45954e-05
8.46e-05
8.45455e-05
8.45509e-05
8.45564e-05
8.45617e-05
8.45671e-05
8.45723e-05
8.45774e-05
8.45824e-05
8.45872e-05
8.45918e-05
8.45962e-05
8.45442e-05
8.45494e-05
8.45545e-05
8.45596e-05
8.45646e-05
8.45696e-05
8.45745e-05
8.45792e-05
8.45838e-05
8.45882e-05
8.45925e-05
8.45477e-05
8.45525e-05
8.45574e-05
8.45622e-05
8.45669e-05
8.45715e-05
8.45761e-05
8.45805e-05
8.45847e-05
8.45888e-05
8.45459e-05
8.45505e-05
8.45551e-05
8.45597e-05
8.45642e-05
8.45686e-05
8.45729e-05
8.45771e-05
8.45812e-05
8.45852e-05
0.000101877
0.000101892
0.000101907
0.000101924
0.000101941
0.000101958
0.000101976
0.000101994
0.000102011
0.000102028
0.000102044
0.000102059
0.000102073
0.000102086
0.000102097
0.000101886
0.000101899
0.000101914
0.000101929
0.000101945
0.000101962
0.000101978
0.000101995
0.000102011
0.000102026
0.000102041
0.000102055
0.000102068
0.00010208
0.000102091
0.000101906
0.00010192
0.000101934
0.000101949
0.000101964
0.00010198
0.000101995
0.00010201
0.000102024
0.000102038
0.000102051
0.000102063
0.000102075
0.000102084
0.000101912
0.000101925