/*--------------------------------*- C++ -*----------------------------------*\
  =========                 |
  \\      /  F ield         | OpenFOAM: The Open Source CFD Toolbox
   \\    /   O peration     | Website:  https://openfoam.org
    \\  /    A nd           | Version:  6
     \\/     M anipulation  |
\*---------------------------------------------------------------------------*/
FoamFile
{
    version     2.0;
    format      ascii;
    class       volScalarField;
    location    "18";
    object      omega;
}
// * * * * * * * * * * * * * * * * * * * * * * * * * * * * * * * * * * * * * //

dimensions      [0 0 -1 0 0 0 0];

internalField   nonuniform List<scalar> 
380496
(
843.917
843.917
843.917
843.917
843.917
843.917
843.917
843.917
843.917
843.917
843.917
843.917
843.917
843.917
843.917
843.917
843.917
843.917
843.917
843.917
843.917
843.917
843.917
843.917
843.917
843.917
843.917
843.917
843.917
843.917
843.917
843.917
843.917
843.917
843.917
843.917
843.917
843.917
843.917
843.917
843.917
843.917
843.917
843.917
843.917
843.917
843.917
843.917
843.917
843.917
843.917
843.917
843.917
843.917
843.917
843.917
843.917
843.917
843.917
843.917
843.917
843.917
843.917
843.917
843.917
843.917
843.917
843.917
843.917
843.917
843.917
843.917
843.917
843.917
843.917
843.917
843.917
843.917
843.917
843.917
843.917
843.917
843.917
843.917
843.917
843.917
843.917
843.917
843.917
843.917
843.917
843.917
843.917
843.917
843.917
843.917
843.917
843.917
843.917
843.917
843.917
843.917
843.917
843.917
843.917
843.917
843.917
843.917
843.917
843.917
843.917
843.917
843.917
843.917
843.917
843.917
843.917
843.917
843.917
843.917
843.917
843.917
843.917
843.917
843.917
843.917
843.917
843.917
843.917
843.917
843.917
843.917
843.917
843.917
843.917
843.917
843.917
843.917
843.917
843.917
843.917
843.917
843.917
843.917
843.917
843.917
843.917
843.917
843.917
843.917
843.917
843.917
843.917
843.917
843.917
843.917
843.917
843.917
843.917
843.917
843.917
843.917
843.917
843.917
843.917
843.917
843.917
843.917
843.917
843.917
843.917
843.917
843.917
843.917
843.917
843.917
843.917
843.917
843.917
843.917
843.917
843.917
843.917
843.917
843.917
843.917
843.917
843.917
843.917
843.917
843.917
843.917
843.917
843.917
843.917
843.917
843.917
843.917
843.917
843.917
843.917
843.917
843.917
843.917
843.917
843.917
843.917
843.917
843.917
843.917
843.917
843.917
843.917
843.917
843.917
843.917
843.917
843.917
843.917
843.917
843.917
843.917
843.917
843.917
843.917
843.917
843.917
843.917
843.917
843.917
843.917
843.917
843.917
843.917
843.917
843.917
843.917
843.917
843.917
843.917
843.917
843.917
843.917
843.917
843.917
843.917
843.917
843.917
843.917
843.917
843.917
843.917
843.917
843.917
843.917
843.917
843.917
843.917
843.917
843.917
843.917
843.917
843.917
843.917
843.917
843.917
843.917
843.917
843.917
843.917
843.917
843.917
843.917
843.917
843.917
843.917
843.917
843.917
843.917
843.917
843.917
843.917
843.917
843.917
843.917
843.917
843.917
843.917
843.917
843.917
843.917
843.917
843.917
843.917
843.917
843.917
843.917
843.917
843.917
843.917
843.917
843.917
843.917
843.917
843.917
843.917
843.917
843.917
843.917
843.917
843.917
843.917
843.917
843.917
843.917
843.917
843.917
843.917
843.917
843.917
843.917
843.917
843.917
843.917
843.917
843.917
843.917
843.917
843.917
843.917
843.917
843.917
843.917
843.917
843.917
843.917
843.917
843.917
843.917
843.917
843.917
843.917
843.917
843.917
843.917
843.917
843.917
843.917
843.917
843.917
843.917
843.917
843.917
843.917
843.917
843.917
843.917
843.917
843.917
843.917
843.917
843.917
843.917
843.917
843.917
843.917
843.917
843.917
843.917
843.917
843.917
843.917
843.917
843.917
843.917
843.917
843.917
843.917
843.917
843.917
843.917
843.917
843.917
843.917
843.917
843.917
843.917
843.917
843.917
843.917
843.917
843.917
843.917
843.917
843.917
843.917
843.917
843.917
843.917
843.917
843.917
843.917
843.917
843.917
843.917
843.917
843.917
843.917
843.917
843.917
843.917
843.917
843.917
843.917
843.917
843.917
843.917
843.917
843.917
843.917
843.917
843.917
843.917
843.917
843.917
843.917
843.917
843.917
843.917
843.917
843.917
843.917
843.917
843.917
843.917
843.917
843.917
843.917
843.917
843.917
843.917
843.917
843.917
843.917
843.917
843.917
843.917
843.917
843.917
843.917
843.917
843.917
843.917
843.917
843.917
843.917
843.917
843.917
843.917
843.917
843.917
843.917
843.917
843.917
843.917
843.917
843.917
843.917
843.917
843.917
843.917
843.917
843.917
843.917
843.917
843.917
843.917
843.917
843.917
843.917
843.917
843.917
843.917
843.917
843.917
843.917
843.917
843.917
843.917
843.917
843.917
843.917
843.917
843.917
843.917
843.917
843.917
843.917
843.917
843.917
843.917
843.917
843.917
843.917
843.917
843.917
843.917
843.917
843.917
843.917
843.917
843.917
843.917
843.917
843.917
843.917
843.917
843.917
843.917
843.917
843.917
843.917
843.917
843.917
843.917
843.917
843.917
843.917
843.917
843.917
843.917
843.917
843.917
843.917
843.917
843.917
843.917
843.917
843.917
843.917
843.917
843.917
843.917
843.917
843.917
843.917
843.917
843.917
843.917
843.917
843.917
843.917
843.917
843.917
843.917
843.917
843.917
843.917
843.917
843.917
843.917
843.917
843.917
843.917
843.917
843.917
843.917
843.917
843.917
843.917
843.917
843.917
843.917
843.917
843.917
843.917
843.917
843.917
843.917
843.917
843.917
843.917
843.917
843.917
843.917
843.917
843.917
843.917
843.917
843.917
843.917
843.917
843.917
843.917
843.917
843.917
843.917
843.917
843.917
843.917
843.917
843.917
843.917
843.917
843.917
843.917
843.917
843.917
843.917
843.917
843.917
843.917
843.917
843.917
843.917
843.917
843.917
843.917
843.917
843.917
843.917
843.917
843.917
843.917
843.917
843.917
843.917
843.917
843.917
843.917
843.917
843.917
843.917
843.917
843.917
843.917
843.917
843.917
843.917
843.917
843.917
843.917
843.917
843.917
843.917
843.917
843.917
843.917
843.917
843.917
843.917
843.917
843.917
843.917
843.917
843.917
843.917
843.917
843.917
843.917
843.917
843.917
843.917
843.917
843.917
843.917
843.917
843.917
843.917
843.917
843.917
843.917
843.917
843.917
843.917
843.917
843.917
843.917
843.917
843.917
843.917
843.917
843.917
843.917
843.917
843.917
843.917
843.917
843.917
843.917
843.917
843.917
843.917
843.917
843.917
843.917
843.917
843.917
843.917
843.917
423.923
423.923
423.923
423.923
423.923
423.923
423.923
423.923
423.923
423.923
423.923
423.923
423.923
423.923
423.923
423.923
423.923
423.923
423.923
423.923
423.923
423.923
423.923
423.923
423.923
423.923
423.923
423.923
423.923
423.923
423.923
423.923
423.923
423.923
423.923
281.629
267.584
268.723
269.805
269.904
269.749
269.645
269.581
269.554
269.533
269.53
269.525
269.531
269.535
269.548
269.557
269.573
269.587
269.607
269.624
269.649
269.669
269.7
269.723
269.76
269.787
269.83
269.86
269.909
269.94
269.994
270.023
270.076
270.106
270.143
281.467
267.569
268.646
269.68
269.755
269.596
269.486
269.424
269.394
269.378
269.374
269.375
269.382
269.394
269.407
269.427
269.444
269.47
269.491
269.523
269.548
269.586
269.615
269.661
269.693
269.748
269.781
269.845
269.876
269.951
269.973
270.06
270.05
270.171
270.04
281.133
267.394
268.472
269.474
269.523
269.358
269.243
269.185
269.155
269.146
269.144
269.156
269.166
269.192
269.209
269.244
269.266
269.309
269.337
269.388
269.42
269.48
269.518
269.585
269.631
269.704
269.758
269.835
269.897
269.975
270.041
270.118
270.174
270.268
270.237
280.565
267.015
268.175
269.151
269.167
268.989
268.871
268.815
268.789
268.788
268.793
268.815
268.835
268.87
268.899
268.945
268.98
269.036
269.077
269.142
269.189
269.265
269.318
269.405
269.463
269.562
269.624
269.735
269.796
269.921
269.973
270.115
270.133
270.322
270.216
280.148
266.779
267.827
268.736
268.732
268.551
268.432
268.378
268.356
268.36
268.371
268.4
268.428
268.473
268.512
268.57
268.616
268.685
268.739
268.821
268.882
268.976
269.044
269.152
269.227
269.348
269.43
269.562
269.648
269.791
269.874
270.033
270.089
270.294
270.228
279.34
266.188
267.273
268.136
268.1
267.91
267.793
267.746
267.732
267.747
267.77
267.812
267.853
267.912
267.965
268.038
268.099
268.185
268.255
268.354
268.433
268.547
268.634
268.763
268.859
269.002
269.104
269.262
269.368
269.541
269.642
269.835
269.906
270.156
270.091
278.498
265.57
266.592
267.386
267.322
267.126
267.011
266.97
266.965
266.99
267.024
267.078
267.132
267.205
267.271
267.359
267.436
267.538
267.625
267.743
267.84
267.974
268.082
268.231
268.349
268.515
268.642
268.823
268.955
269.153
269.282
269.501
269.6
269.886
269.837
277.443
264.751
265.707
266.426
266.334
266.134
266.025
265.992
265.999
266.036
266.084
266.151
266.22
266.306
266.389
266.491
266.585
266.704
266.81
266.945
267.062
267.215
267.345
267.516
267.656
267.846
267.994
268.202
268.357
268.583
268.735
268.987
269.106
269.431
269.392
276.189
263.732
264.63
265.27
265.148
264.944
264.846
264.826
264.849
264.901
264.967
265.05
265.136
265.238
265.337
265.456
265.568
265.704
265.828
265.982
266.12
266.293
266.443
266.636
266.798
267.01
267.183
267.414
267.593
267.844
268.021
268.3
268.443
268.802
268.776
274.955
262.703
263.452
264.003
263.86
263.66
263.57
263.561
263.596
263.66
263.739
263.834
263.933
264.048
264.162
264.294
264.422
264.572
264.714
264.884
265.039
265.23
265.4
265.611
265.794
266.027
266.22
266.474
266.674
266.948
267.146
267.45
267.613
268.003
267.985
273.277
261.259
261.957
262.429
262.259
262.064
261.995
262.008
262.067
262.153
262.253
262.368
262.487
262.62
262.752
262.902
263.048
263.216
263.376
263.564
263.74
263.949
264.14
264.371
264.575
264.829
265.044
265.318
265.54
265.837
266.057
266.384
266.568
266.986
266.977
271.66
259.85
260.315
260.684
260.499
260.314
260.259
260.286
260.358
260.458
260.572
260.699
260.832
260.977
261.124
261.287
261.449
261.632
261.809
262.013
262.207
262.434
262.643
262.894
263.118
263.391
263.627
263.922
264.165
264.483
264.724
265.073
265.276
265.722
265.719
269.373
257.804
258.19
258.481
258.278
258.115
258.094
258.155
258.261
258.389
258.53
258.68
258.836
259.002
259.17
259.352
259.534
259.735
259.933
260.156
260.371
260.617
260.848
261.118
261.364
261.658
261.916
262.233
262.497
262.837
263.099
263.471
263.694
264.166
264.17
267.102
255.735
255.828
256.012
255.804
255.663
255.667
255.752
255.878
256.025
256.185
256.352
256.525
256.707
256.892
257.09
257.29
257.507
257.724
257.964
258.199
258.463
258.715
259.004
259.272
259.585
259.865
260.202
260.489
260.849
261.133
261.526
261.768
262.266
262.276
264.032
252.898
252.819
252.927
252.722
252.626
252.68
252.81
252.976
253.158
253.348
253.543
253.741
253.945
254.153
254.371
254.593
254.83
255.069
255.329
255.586
255.87
256.145
256.455
256.746
257.08
257.383
257.742
258.051
258.433
258.739
259.154
259.416
259.939
259.955
260.551
249.613
249.245
249.28
249.092
249.049
249.152
249.329
249.532
249.75
249.968
250.19
250.411
250.638
250.867
251.105
251.348
251.604
251.864
252.142
252.421
252.724
253.022
253.351
253.665
254.02
254.347
254.726
255.059
255.462
255.791
256.227
256.51
257.057
257.079
256.376
245.607
244.861
244.816
244.658
244.685
244.847
245.075
245.314
245.566
245.808
246.055
246.294
246.542
246.787
247.044
247.303
247.577
247.854
248.15
248.449
248.77
249.09
249.437
249.775
250.149
250.501
250.9
251.258
251.687
252.038
252.504
252.808
253.386
253.423
249.996
239.625
238.831
238.837
238.744
238.868
239.116
239.421
239.715
240.018
240.293
240.575
240.835
241.109
241.369
241.648
241.919
242.213
242.505
242.822
243.138
243.481
243.822
244.198
244.562
244.969
245.351
245.787
246.177
246.64
247.026
247.521
247.866
248.461
248.542
240.798
231.462
230.495
230.67
230.749
231.005
231.325
231.661
231.962
232.261
232.524
232.797
233.044
233.313
233.563
233.844
234.112
234.414
234.706
235.035
235.367
235.751
236.131
236.551
236.962
237.411
237.847
238.324
238.774
239.28
239.731
240.271
240.692
241.316
241.521
214.296
212.133
212.397
213.331
213.974
214.72
215.453
216.138
216.753
217.338
217.871
218.399
218.891
219.394
219.87
220.368
220.843
221.346
221.829
222.346
222.844
223.376
223.889
224.437
224.965
225.524
226.066
226.63
227.181
227.743
228.296
228.843
229.393
229.878
230.579
9.02169
7.66416
7.59231
7.56026
7.61393
7.6871
7.78048
7.87432
7.978
8.07324
8.1737
8.26315
8.35754
8.44085
8.53058
8.60966
8.69711
8.77386
8.86122
8.93692
9.02601
9.10088
9.19321
9.26632
9.36364
9.43278
9.53753
9.59863
9.7147
9.76087
9.89467
9.91358
10.0762
10.0403
10.2503
135.248
128.879
128.553
129.047
129.245
129.24
129.189
129.14
129.104
129.076
129.057
129.044
129.036
129.032
129.032
129.035
129.04
129.048
129.058
129.071
129.086
129.104
129.124
129.148
129.173
129.205
129.234
129.275
129.31
129.364
129.403
129.477
129.513
129.619
129.649
135.076
128.678
128.313
128.783
128.969
128.959
128.904
128.854
128.816
128.79
128.771
128.76
128.754
128.753
128.755
128.762
128.771
128.783
128.799
128.816
128.837
128.859
128.887
128.914
128.949
128.982
129.026
129.063
129.12
129.16
129.232
129.273
129.358
129.411
129.477
134.794
128.386
128.005
128.461
128.638
128.623
128.566
128.515
128.478
128.453
128.437
128.429
128.428
128.432
128.44
128.452
128.468
128.486
128.509
128.534
128.564
128.594
128.631
128.668
128.712
128.757
128.809
128.862
128.921
128.987
129.049
129.136
129.185
129.326
129.303
134.361
127.975
127.613
128.066
128.232
128.209
128.149
128.098
128.062
128.04
128.028
128.025
128.029
128.038
128.052
128.071
128.094
128.119
128.149
128.182
128.219
128.258
128.304
128.348
128.403
128.454
128.519
128.575
128.654
128.713
128.807
128.869
128.971
129.054
129.127
134.043
127.65
127.239
127.655
127.804
127.774
127.71
127.657
127.62
127.599
127.589
127.588
127.595
127.608
127.627
127.651
127.678
127.71
127.746
127.785
127.83
127.876
127.929
127.982
128.045
128.105
128.179
128.246
128.331
128.404
128.5
128.584
128.679
128.798
128.842
133.489
127.122
126.721
127.124
127.259
127.22
127.152
127.099
127.065
127.048
127.042
127.048
127.061
127.081
127.106
127.137
127.172
127.211
127.255
127.302
127.354
127.409
127.471
127.533
127.605
127.674
127.756
127.832
127.927
128.008
128.114
128.203
128.309
128.432
128.487
132.924
126.585
126.16
126.531
126.645
126.596
126.524
126.469
126.437
126.422
126.421
126.431
126.449
126.475
126.506
126.543
126.585
126.631
126.682
126.736
126.797
126.859
126.929
127
127.08
127.158
127.249
127.334
127.437
127.528
127.642
127.743
127.852
127.99
128.044
132.248
125.942
125.496
125.833
125.925
125.865
125.788
125.733
125.702
125.692
125.695
125.711
125.735
125.767
125.805
125.848
125.896
125.95
126.008
126.07
126.138
126.209
126.286
126.365
126.454
126.54
126.64
126.734
126.845
126.944
127.066
127.175
127.291
127.439
127.494
131.463
125.209
124.747
125.048
125.114
125.041
124.96
124.907
124.88
124.875
124.885
124.908
124.939
124.978
125.023
125.074
125.129
125.19
125.256
125.326
125.401
125.48
125.565
125.653
125.749
125.845
125.952
126.055
126.173
126.282
126.41
126.529
126.649
126.81
126.863
130.701
124.495
123.979
124.228
124.267
124.183
124.099
124.045
124.021
124.02
124.035
124.062
124.099
124.144
124.194
124.251
124.312
124.379
124.451
124.528
124.609
124.696
124.788
124.883
124.986
125.089
125.203
125.314
125.439
125.556
125.69
125.817
125.941
126.112
126.164
129.711
123.569
123.043
123.255
123.267
123.17
123.084
123.035
123.019
123.026
123.05
123.086
123.131
123.185
123.243
123.308
123.377
123.452
123.531
123.616
123.705
123.799
123.899
124.002
124.113
124.224
124.345
124.464
124.596
124.721
124.861
124.997
125.125
125.307
125.357
128.745
122.677
122.061
122.201
122.179
122.07
121.982
121.935
121.922
121.935
121.964
122.006
122.057
122.116
122.181
122.251
122.327
122.408
122.494
122.585
122.681
122.782
122.889
123
123.118
123.236
123.366
123.491
123.631
123.763
123.91
124.054
124.186
124.379
124.426
127.448
121.46
120.821
120.918
120.866
120.746
120.661
120.623
120.622
120.647
120.688
120.742
120.803
120.872
120.946
121.026
121.11
121.2
121.294
121.394
121.498
121.608
121.723
121.842
121.968
122.095
122.232
122.367
122.514
122.655
122.808
122.961
123.097
123.302
123.346
126.136
120.247
119.484
119.493
119.401
119.27
119.187
119.155
119.163
119.196
119.246
119.308
119.378
119.455
119.537
119.624
119.716
119.814
119.916
120.023
120.136
120.253
120.377
120.504
120.638
120.774
120.919
121.062
121.217
121.366
121.527
121.689
121.83
122.046
122.088
124.43
118.648
117.81
117.755
117.629
117.492
117.418
117.402
117.425
117.474
117.539
117.614
117.697
117.785
117.878
117.976
118.078
118.185
118.296
118.413
118.535
118.662
118.794
118.931
119.074
119.219
119.373
119.525
119.689
119.848
120.017
120.188
120.335
120.564
120.602
122.481
116.821
115.842
115.702
115.538
115.398
115.335
115.335
115.375
115.44
115.52
115.609
115.704
115.804
115.908
116.016
116.128
116.244
116.365
116.49
116.621
116.757
116.899
117.045
117.197
117.352
117.515
117.677
117.85
118.018
118.195
118.376
118.53
118.772
118.806
120.129
114.623
113.443
113.187
112.976
112.836
112.79
112.81
112.868
112.951
113.044
113.145
113.25
113.36
113.471
113.587
113.707
113.831
113.959
114.093
114.232
114.377
114.527
114.682
114.844
115.008
115.181
115.353
115.537
115.715
115.905
116.097
116.263
116.52
116.559
116.507
111.184
110.004
109.76
109.548
109.425
109.402
109.447
109.524
109.624
109.728
109.842
109.954
110.073
110.192
110.317
110.443
110.577
110.714
110.858
111.007
111.163
111.325
111.494
111.67
111.852
112.042
112.233
112.435
112.633
112.841
113.051
113.238
113.508
113.568
111.046
106.318
104.834
104.5
104.273
104.175
104.176
104.246
104.339
104.46
104.581
104.717
104.849
104.995
105.137
105.293
105.447
105.615
105.782
105.964
106.146
106.337
106.532
106.736
106.945
107.159
107.381
107.604
107.838
108.068
108.311
108.552
108.783
109.074
109.213
95.7376
95.7832
94.6648
94.3753
94.1704
94.1469
94.2636
94.4635
94.6992
94.9613
95.2266
95.5024
95.7734
96.0516
96.3236
96.6029
96.8766
97.1581
97.435
97.7201
98.0021
98.2923
98.5806
98.8762
99.1707
99.4712
99.7706
100.075
100.377
100.682
100.985
101.282
101.598
101.848
102.257
11.4423
9.87673
9.84259
9.88789
10.005
10.1293
10.2665
10.3956
10.5312
10.6527
10.778
10.8881
11.0028
11.1029
11.2101
11.3036
11.4066
11.4963
11.5981
11.6857
11.7887
11.8747
11.9808
12.0643
12.1756
12.2544
12.3735
12.4432
12.5746
12.6281
12.7783
12.8037
12.9827
12.9586
13.175
79.7826
77.2362
76.6743
76.7672
76.8934
76.9374
76.9305
76.9074
76.8805
76.8576
76.8369
76.8217
76.8085
76.8
76.7929
76.7897
76.7872
76.7885
76.7895
76.7947
76.7985
76.8077
76.8137
76.8272
76.8351
76.854
76.8633
76.889
76.8986
76.9344
76.9419
76.9941
76.9946
77.072
77.0651
79.595
77.0488
76.4702
76.5479
76.6657
76.7043
76.6944
76.6685
76.6405
76.6161
76.5959
76.5802
76.5687
76.5605
76.556
76.5535
76.5547
76.5564
76.5624
76.5676
76.5781
76.5859
76.6012
76.6111
76.6322
76.6431
76.6718
76.6822
76.7213
76.7288
76.7821
76.7845
76.8523
76.8515
76.9317
79.354
76.8066
76.2183
76.2869
76.3991
76.4333
76.421
76.3929
76.3645
76.3394
76.3206
76.3053
76.2964
76.2892
76.2885
76.2875
76.2934
76.297
76.3084
76.3159
76.3322
76.3433
76.364
76.3792
76.4038
76.4241
76.4516
76.4792
76.5074
76.5468
76.5701
76.6321
76.6345
76.7439
76.6968
79.0384
76.493
75.9087
75.9766
76.085
76.115
76.0994
76.0693
76.0402
76.0154
75.9977
75.9843
75.9777
75.9734
75.9756
75.978
75.9873
75.9947
76.0102
76.0214
76.0428
76.0571
76.0846
76.1013
76.1359
76.1539
76.1971
76.215
76.2693
76.285
76.3529
76.3658
76.4445
76.4606
76.5449
78.7526
76.2178
75.6161
75.6643
75.7595
75.7813
75.7605
75.7269
75.6955
75.6695
75.6515
75.6384
75.6328
75.6298
75.634
75.6383
75.6503
75.6601
75.6788
75.6929
75.7181
75.7356
75.7673
75.7879
75.8265
75.8497
75.8958
75.9213
75.9756
76.0035
76.0653
76.0994
76.1604
76.2141
76.2596
78.3535
75.824
75.2267
75.2709
75.3589
75.3741
75.3485
75.3122
75.2799
75.2542
75.2375
75.2265
75.2235
75.2234
75.2308
75.2386
75.2541
75.2677
75.2904
75.3085
75.3378
75.3596
75.3959
75.4206
75.4644
75.4912
75.5434
75.5715
75.6334
75.6621
75.7333
75.7652
75.8381
75.8849
75.9472
77.928
75.414
74.8112
74.841
74.9156
74.921
74.8889
74.8487
74.8144
74.7882
74.7721
74.7624
74.7613
74.7635
74.7736
74.7842
74.8028
74.8196
74.8457
74.8673
74.9004
74.926
74.9662
74.9951
75.0427
75.0743
75.1301
75.1635
75.2284
75.2629
75.3365
75.3748
75.4491
75.503
75.5658
77.4333
74.9363
74.3305
74.3455
74.4053
74.3996
74.3603
74.3159
74.2797
74.2534
74.2381
74.2302
74.2312
74.2362
74.2489
74.2628
74.2845
74.3049
74.3343
74.3598
74.3965
74.4261
74.4701
74.503
74.555
74.5902
74.6509
74.6875
74.7576
74.7949
74.8737
74.9146
74.9931
75.0498
75.1151
76.8736
74.4021
73.7981
73.799
73.8423
73.8239
73.7765
73.7281
73.6904
73.6647
73.6509
73.6456
73.6493
73.6577
73.6736
73.6911
73.7162
73.7404
73.7733
73.8027
73.843
73.8766
73.9245
73.9614
74.0172
74.0567
74.1212
74.1621
74.2358
74.2775
74.3594
74.4049
74.4856
74.5471
74.6136
76.3105
73.8741
73.2583
73.234
73.2562
73.224
73.1685
73.1159
73.0764
73.0507
73.0379
73.0344
73.0403
73.0513
73.0697
73.0902
73.1182
73.1455
73.1815
73.2142
73.2577
73.2949
73.346
73.3867
73.4459
73.489
73.5571
73.6015
73.6789
73.7239
73.8092
73.8582
73.9412
74.0067
74.074
75.627
73.2226
72.6135
72.576
72.5801
72.5336
72.4698
72.4137
72.3739
72.3499
72.3399
72.34
72.3495
72.3645
72.3868
72.4113
72.443
72.4744
72.514
72.5508
72.5979
72.6391
72.694
72.7386
72.8016
72.8487
72.9205
72.9689
73.0499
73.0988
73.1874
73.2403
73.3256
73.3956
73.4635
74.9229
72.5722
71.9389
71.8628
71.8372
71.7727
71.6995
71.6394
71.5985
71.5754
71.5671
71.5698
71.5821
71.6002
71.6255
71.6535
71.6883
71.7233
71.7662
71.8067
71.8572
71.9022
71.9606
72.0091
72.0758
72.1268
72.2023
72.2545
72.3392
72.3919
72.4839
72.5407
72.6283
72.7029
72.7713
74.0388
71.7342
71.1044
71.0099
70.9615
70.8804
70.799
70.7366
70.6971
70.6774
70.6735
70.6811
70.6982
70.7213
70.7512
70.784
70.8231
70.8628
70.9098
70.9549
71.0095
71.059
71.1215
71.1745
71.2453
71.3007
71.3805
71.4369
71.5258
71.5826
71.6785
71.7396
71.83
71.9097
71.9787
73.1017
70.8707
70.2026
70.0569
69.9703
69.8676
69.7767
69.7115
69.6727
69.6558
69.6557
69.6677
69.6891
69.7169
69.7511
69.7885
69.8319
69.8761
69.9272
69.9769
70.0357
70.0898
70.1564
70.2141
70.2891
70.3492
70.4332
70.4942
70.5875
70.6486
70.7487
70.8143
70.9077
70.9929
71.0621
71.9317
69.7751
69.0896
68.9085
68.7887
68.6661
68.5677
68.502
68.4668
68.4553
68.4612
68.4792
68.5066
68.5403
68.58
68.623
68.6713
68.7209
68.7767
68.8316
68.8949
68.9543
69.0254
69.0883
69.1679
69.233
69.3218
69.3877
69.4858
69.5517
69.6565
69.7269
69.824
69.9154
69.9858
70.575
68.5115
67.7775
67.5407
67.3789
67.2337
67.1273
67.0613
67.0301
67.0242
67.0367
67.0612
67.095
67.1346
67.18
67.2284
67.2816
67.3363
67.3965
67.4565
67.5239
67.5884
67.6636
67.7319
67.8157
67.8863
67.9795
68.0508
68.1538
68.2247
68.3347
68.4099
68.5116
68.6088
68.6806
68.9305
66.9869
66.1745
65.8555
65.6359
65.4634
65.3493
65.2841
65.2573
65.2562
65.2738
65.3024
65.3402
65.383
65.4314
65.4825
65.5385
65.5962
65.6593
65.723
65.7937
65.8628
65.9416
66.0151
66.1031
66.1794
66.2777
66.3545
66.4645
66.5389
66.6586
66.7358
66.8482
66.9507
67.0283
66.5753
64.6695
63.85
63.5264
63.2876
63.1002
62.9782
62.908
62.8781
62.8737
62.889
62.9147
62.9512
62.9925
63.0416
63.0935
63.1524
63.2132
63.2811
63.3499
63.4269
63.5029
63.5898
63.6706
63.7679
63.8523
63.9615
64.047
64.1689
64.2529
64.3851
64.4713
64.5983
64.7063
64.8027
63.0743
61.5354
60.4578
59.9526
59.6032
59.3594
59.2107
59.1296
59.0989
59.1004
59.1274
59.1684
59.2248
59.2875
59.3618
59.4391
59.5266
59.6153
59.7136
59.813
59.9215
60.0254
60.139
60.2473
60.3675
60.4797
60.6083
60.7219
60.8614
60.9718
61.1223
61.2306
61.3829
61.5031
61.6441
55.4846
57.2199
56.1491
55.3616
54.7627
54.3518
54.1134
53.9893
53.9521
53.963
54.0165
54.0876
54.1832
54.2831
54.4005
54.5157
54.6458
54.7703
54.909
55.0401
55.1852
55.322
55.4727
55.6153
55.7703
55.9188
56.0767
56.2306
56.3903
56.5475
56.7113
56.8616
57.0463
57.1582
57.4176
13.0138
11.4078
11.4214
11.551
11.7361
11.91
12.0852
12.241
12.398
12.5344
12.6727
12.7916
12.9148
13.0203
13.1333
13.23
13.3373
13.4287
13.5338
13.6222
13.7278
13.814
13.9223
14.0058
14.1189
14.1976
14.3185
14.3884
14.521
14.5757
14.7259
14.7558
14.9307
14.9217
15.1228
52.8625
51.8611
51.4542
51.3869
51.4239
51.4587
51.4681
51.4624
51.4471
51.4316
51.4146
51.4009
51.3875
51.3777
51.3682
51.3622
51.356
51.3535
51.3496
51.3502
51.3479
51.3517
51.3502
51.3571
51.3559
51.3665
51.3647
51.3802
51.3763
51.399
51.3907
51.4251
51.4088
51.4599
51.435
52.6912
51.7
51.2901
51.2153
51.2471
51.2773
51.2843
51.2756
51.2593
51.2417
51.2249
51.2098
51.1976
51.1868
51.1795
51.1725
51.1695
51.1656
51.1664
51.1646
51.169
51.1684
51.1766
51.1763
51.189
51.1876
51.2063
51.202
51.229
51.2194
51.2575
51.24
51.2916
51.2621
51.3351
52.4925
51.5063
51.0936
51.0136
51.0421
51.0687
51.0737
51.0622
51.0452
51.0257
51.0093
50.993
50.9822
50.9707
50.9657
50.9582
50.9583
50.9541
50.9583
50.9568
50.9644
50.9653
50.9756
50.9793
50.991
50.9986
51.0102
51.0239
51.0323
51.0569
51.056
51.1006
51.0787
51.1576
51.1025
52.255
51.2694
50.8582
50.7781
50.8055
50.8299
50.8326
50.819
50.8005
50.78
50.7634
50.7473
50.7371
50.7266
50.7229
50.7169
50.7188
50.7161
50.723
50.7226
50.7342
50.7351
50.7515
50.7527
50.7746
50.7748
50.8036
50.801
50.8386
50.8314
50.8797
50.8665
50.926
50.9051
50.9823
52.0125
51.0412
50.6277
50.5393
50.5585
50.5763
50.574
50.5566
50.5355
50.513
50.4952
50.4784
50.4682
50.4576
50.4546
50.4491
50.4523
50.4503
50.459
50.4595
50.4732
50.4754
50.4939
50.4971
50.5206
50.5243
50.553
50.5567
50.5909
50.595
50.6336
50.6406
50.6793
50.6937
50.7318
51.7113
50.7437
50.3339
50.2454
50.2617
50.2754
50.2692
50.2486
50.2253
50.2014
50.1831
50.1663
50.1567
50.1469
50.1452
50.141
50.1459
50.1457
50.1563
50.1588
50.1747
50.1789
50.2002
50.205
50.2321
50.2366
50.2701
50.2736
50.3141
50.316
50.3632
50.3653
50.4155
50.4203
50.4752
51.381
50.4246
50.017
49.9237
49.9329
49.9397
49.9277
49.9027
49.8763
49.8505
49.8312
49.814
49.8045
49.7954
49.7946
49.7914
49.7977
49.7987
49.8111
49.815
49.8329
49.8388
49.862
49.869
49.8978
49.9051
49.94
49.9466
49.9884
49.9938
50.042
50.0476
50.099
50.1071
50.1635
51.0013
50.057
49.6534
49.5561
49.5575
49.5564
49.5375
49.5077
49.4778
49.4501
49.4295
49.4122
49.4029
49.3946
49.3946
49.393
49.4005
49.4034
49.4172
49.4231
49.4428
49.4506
49.4761
49.4848
49.5164
49.525
49.5634
49.5708
49.6164
49.6224
49.6746
49.6807
49.7354
49.7444
49.8028
50.5805
49.6501
49.2537
49.1537
49.147
49.1369
49.1104
49.0752
49.0417
49.0121
48.9905
48.9733
48.9644
48.9573
48.9584
48.9583
48.9673
48.9719
48.9874
48.9953
49.0168
49.0266
49.054
49.0649
49.0985
49.1093
49.1497
49.1594
49.207
49.2153
49.2695
49.2777
49.3345
49.345
49.4061
50.1474
49.2385
48.8453
48.7368
48.7177
48.6966
48.6618
48.621
48.5838
48.5523
48.5298
48.5127
48.5042
48.498
48.5001
48.5015
48.5118
48.5181
48.5351
48.5448
48.568
48.5797
48.6089
48.6217
48.6573
48.6699
48.7125
48.724
48.774
48.7838
48.8404
48.8501
48.909
48.921
48.9837
49.6404
48.7495
48.3676
48.258
48.2303
48.1989
48.1554
48.1088
48.0679
48.0347
48.0116
47.9949
47.9872
47.9825
47.986
47.9892
48.001
48.0094
48.0281
48.0399
48.0649
48.0787
48.1099
48.1247
48.1624
48.1771
48.2219
48.2353
48.2877
48.2993
48.3582
48.3698
48.4306
48.4444
48.5088
49.0986
48.2403
47.8585
47.7333
47.6866
47.6396
47.5855
47.5325
47.4879
47.4533
47.4297
47.4138
47.4069
47.4039
47.4088
47.414
47.4275
47.438
47.4585
47.4725
47.4993
47.5154
47.5486
47.5656
47.6055
47.6223
47.6694
47.6849
47.7397
47.7533
47.8145
47.828
47.891
47.9067
47.9728
48.442
47.6136
47.2449
47.1169
47.0581
46.9977
46.9333
46.8737
46.8255
46.7895
46.7659
46.751
46.7454
46.7444
46.751
46.7585
46.7739
46.7869
46.8094
46.8258
46.8547
46.8733
46.9087
46.9281
46.9704
46.9895
47.0392
47.0569
47.1143
47.13
47.194
47.2096
47.2749
47.2927
47.3608
47.7238
46.9424
46.5694
46.4186
46.3339
46.2535
46.1765
46.11
46.0585
46.0219
45.9988
45.9856
45.9818
45.9833
45.9921
46.0025
46.0201
46.036
46.0607
46.08
46.1112
46.1326
46.1703
46.1925
46.2373
46.2591
46.3114
46.3316
46.392
46.41
46.4769
46.4947
46.5626
46.5828
46.6529
46.8461
46.1177
45.7525
45.5891
45.483
45.3835
45.2938
45.22
45.1652
45.1277
45.1051
45.0935
45.0916
45.0954
45.1063
45.1194
45.139
45.1577
45.1844
45.2067
45.2398
45.2642
45.304
45.3292
45.3762
45.4009
45.4558
45.4786
45.542
45.5623
45.6325
45.6526
45.7237
45.7463
45.8194
45.8228
45.159
44.7863
44.5956
44.4586
44.3348
44.2305
44.1484
44.0903
44.0517
44.03
44.0199
44.0198
44.0259
44.0388
44.0543
44.0756
44.0969
44.125
44.15
44.1844
44.2117
44.2529
44.2812
44.33
44.3577
44.4149
44.4406
44.5068
44.5297
44.6033
44.6256
44.7005
44.7249
44.8019
44.5801
44.0026
43.6094
43.3737
43.1915
43.0357
42.9135
42.8212
42.7586
42.7169
42.6942
42.6825
42.682
42.687
42.6992
42.7141
42.735
42.7564
42.7843
42.8106
42.8452
42.8749
42.9167
42.9482
42.9982
43.0295
43.0889
43.118
43.1881
43.2132
43.2925
43.3162
43.3974
43.4247
43.5076
43.0294
42.4148
41.9891
41.7319
41.5219
41.3378
41.1939
41.0818
41.0046
40.9484
40.9156
40.8931
40.886
40.8836
40.8927
40.9038
40.9242
40.9451
40.9746
41.003
41.0407
41.0745
41.1205
41.1573
41.212
41.2496
41.314
41.3501
41.4254
41.458
41.5433
41.5736
41.663
41.6944
41.7888
40.8418
40.5276
39.9108
39.4664
39.1193
38.8447
38.6469
38.5007
38.4072
38.3414
38.3098
38.2899
38.2939
38.3008
38.3264
38.3504
38.3903
38.4262
38.4764
38.5216
38.5803
38.6314
38.6943
38.7484
38.8157
38.8715
38.9447
38.9999
39.0814
39.1331
39.2237
39.2713
39.3686
39.4137
39.5213
37.8608
40.6877
39.8747
38.9225
38.121
37.5044
37.0669
36.7533
36.5456
36.398
36.311
36.2495
36.2266
36.2114
36.2245
36.2358
36.2706
36.2982
36.3468
36.3852
36.443
36.4897
36.5541
36.6081
36.6768
36.7379
36.8091
36.8767
36.9498
37.0214
37.1
37.1663
37.265
37.3051
37.4584
14.2728
12.6917
12.771
12.983
13.2344
13.4542
13.6628
13.8399
14.0129
14.1585
14.3044
14.4265
14.5532
14.6588
14.773
14.8679
14.9751
15.0636
15.1677
15.2525
15.3564
15.4386
15.5448
15.6241
15.7348
15.8096
15.9274
15.9943
16.1228
16.1765
16.3203
16.3535
16.5174
16.5206
16.7032
37.6238
37.2104
36.9818
36.8889
36.8739
36.8852
36.8929
36.8944
36.8872
36.8784
36.8663
36.8558
36.8442
36.8353
36.8257
36.8192
36.8116
36.8076
36.8015
36.8
36.7947
36.7957
36.7905
36.794
36.7885
36.7946
36.7879
36.7975
36.7882
36.8027
36.7893
36.8111