/*--------------------------------*- C++ -*----------------------------------*\
  =========                 |
  \\      /  F ield         | OpenFOAM: The Open Source CFD Toolbox
   \\    /   O peration     | Website:  https://openfoam.org
    \\  /    A nd           | Version:  6
     \\/     M anipulation  |
\*---------------------------------------------------------------------------*/
FoamFile
{
    version     2.0;
    format      ascii;
    class       volVectorField;
    location    "18";
    object      wallShearStress;
}
// * * * * * * * * * * * * * * * * * * * * * * * * * * * * * * * * * * * * * //

dimensions      [0 2 -2 0 0 0 0];

internalField   uniform (0 0 0);

boundaryField
{
    inlet
    {
        type            calculated;
        value           uniform (0 0 0);
    }
    outlet
    {
        type            calculated;
        value           uniform (0 0 0);
    }
    roughCylinder
    {
        type            calculated;
        value           nonuniform List<vector> 
3840
(
(-0.000114373 -0.000146337 -6.45352e-05)
(-0.000182199 -0.000311542 -4.40368e-05)
(-0.000264082 -0.000460815 2.84324e-05)
(-0.000322377 -0.000527631 8.60483e-05)
(-0.000386996 -0.000572662 0.000135898)
(-0.00043132 -0.000573861 0.000168453)
(-0.000471175 -0.000568144 0.000191148)
(-0.00049753 -0.000553568 0.000204156)
(-0.000522649 -0.000547781 0.000215244)
(-0.000538125 -0.00054163 0.000220503)
(-0.000555143 -0.000544423 0.000223113)
(-0.000565438 -0.000546566 0.000219886)
(-0.000562699 -0.000541046 0.00020918)
(-0.000558344 -0.000536436 0.000195833)
(-0.000574561 -0.000551962 0.00018698)
(-0.00057423 -0.000553538 0.000170818)
(-0.00057056 -0.000552782 0.000152671)
(-0.000563995 -0.000549336 0.000133166)
(-0.000555268 -0.000543501 0.000112927)
(-0.000564868 -0.000554793 9.56591e-05)
(-0.000573032 -0.000564536 7.7105e-05)
(-0.0005658 -0.000559588 5.58451e-05)
(-0.000561682 -0.000557253 3.42987e-05)
(-0.000561862 -0.00055819 1.17235e-05)
(-9.68882e-05 -0.000110271 -4.71897e-05)
(-0.000193137 -0.00029899 -4.92163e-05)
(-0.000281175 -0.000453095 1.99183e-05)
(-0.0003423 -0.000524478 7.76868e-05)
(-0.000409332 -0.000572678 0.000127825)
(-0.000457008 -0.000578748 0.000161522)
(-0.000500304 -0.000577255 0.000185404)
(-0.000530029 -0.000566165 0.000200298)
(-0.000559161 -0.000562696 0.000213594)
(-0.000576993 -0.000555635 0.000219949)
(-0.000593269 -0.00055602 0.000222274)
(-0.000602486 -0.000556333 0.000218758)
(-0.000599894 -0.000550859 0.000208519)
(-0.000599139 -0.000549394 0.000196645)
(-0.000616098 -0.000564743 0.00018775)
(-0.00061621 -0.000566798 0.000171831)
(-0.000614831 -0.000568339 0.000154379)
(-0.000607474 -0.000564576 0.000134744)
(-0.000598154 -0.000558823 0.000114437)
(-0.000607585 -0.000569693 9.6915e-05)
(-0.000615478 -0.000578906 7.80974e-05)
(-0.000608187 -0.000574381 5.66621e-05)
(-0.000604413 -0.000572702 3.48714e-05)
(-0.000604408 -0.000573475 1.19267e-05)
(-0.000146578 -0.000146079 -5.83664e-05)
(-0.000205494 -0.00028535 -5.4817e-05)
(-0.000297458 -0.000439375 1.05176e-05)
(-0.000361658 -0.000515759 6.80021e-05)
(-0.0004319 -0.000568389 0.000118591)
(-0.00048204 -0.000578426 0.000153285)
(-0.000528228 -0.000580787 0.000178463)
(-0.000561772 -0.000573972 0.000195509)
(-0.000593379 -0.000571642 0.000210119)
(-0.000613993 -0.000564431 0.000217626)
(-0.000632592 -0.000564884 0.000220884)
(-0.000641027 -0.000563517 0.000217281)
(-0.000638797 -0.000558121 0.0002076)
(-0.000641031 -0.000558887 0.000196886)
(-0.000657378 -0.000572817 0.000187644)
(-0.000657678 -0.000575079 0.000171997)
(-0.000658366 -0.000578503 0.000155224)
(-0.000650189 -0.000574549 0.00013561)
(-0.00064332 -0.000571623 0.000115904)
(-0.000654492 -0.000583776 9.84439e-05)
(-0.000662611 -0.000592952 7.93844e-05)
(-0.000655273 -0.000588922 5.76997e-05)
(-0.000651876 -0.000587931 3.5584e-05)
(-0.000651252 -0.000588177 1.21711e-05)
(-0.000129282 -0.000111703 -3.96825e-05)
(-0.000214419 -0.000265872 -5.96041e-05)
(-0.000311087 -0.000420143 4.94325e-07)
(-0.000378412 -0.000501642 5.71754e-05)
(-0.000450975 -0.000557765 0.000107787)
(-0.000505499 -0.000574433 0.00014404)
(-0.000556529 -0.000582903 0.000171355)
(-0.000593786 -0.000580087 0.000190587)
(-0.00062966 -0.000580533 0.000206995)
(-0.000653882 -0.000574518 0.000215959)
(-0.000672012 -0.000571665 0.000219102)
(-0.000680082 -0.000568939 0.000215702)
(-0.000679816 -0.000564648 0.000207054)
(-0.000685223 -0.000567486 0.000197457)
(-0.00070091 -0.000580062 0.000187939)
(-0.000702086 -0.000583087 0.000172738)
(-0.000704698 -0.00058813 0.00015653)
(-0.000695224 -0.000583746 0.000136839)
(-0.000688638 -0.000581604 0.000117278)
(-0.000700116 -0.00059375 9.96876e-05)
(-0.000707303 -0.000601991 8.03312e-05)
(-0.000700143 -0.000598709 5.85101e-05)
(-0.000697216 -0.000598496 3.61618e-05)
(-0.000696253 -0.000598551 1.23765e-05)
(-0.000120538 -8.92756e-05 -2.62418e-05)
(-0.000219338 -0.000241556 -6.31954e-05)
(-0.000321492 -0.000395939 -9.73713e-06)
(-0.000391489 -0.000481883 4.53983e-05)
(-0.000467923 -0.00054354 9.61017e-05)
(-0.000526375 -0.000566226 0.000133691)
(-0.000580657 -0.000579123 0.000162698)
(-0.000622345 -0.000581021 0.000184316)
(-0.00066091 -0.000582889 0.000202017)
(-0.000687027 -0.000577225 0.000211852)
(-0.000709298 -0.000575355 0.000216505)
(-0.000718571 -0.000571671 0.000213868)
(-0.000720314 -0.000568272 0.000206245)
(-0.000727881 -0.000572028 0.000197448)
(-0.000741763 -0.000582446 0.000187527)
(-0.000743486 -0.000585906 0.000172783)
(-0.000747428 -0.000592012 0.000157088)
(-0.000737229 -0.000587858 0.000137573)
(-0.000733994 -0.000588924 0.000118726)
(-0.000747609 -0.000602528 0.000101263)
(-0.000754543 -0.000610519 8.1645e-05)
(-0.000747479 -0.000607946 5.95838e-05)
(-0.000744863 -0.00060838 3.68964e-05)
(-0.000743183 -0.000607983 1.26304e-05)
(-0.000155711 -9.75692e-05 -2.06631e-05)
(-0.000225376 -0.000218886 -6.68122e-05)
(-0.000327209 -0.000366282 -1.98781e-05)
(-0.000400579 -0.000457342 3.28639e-05)
(-0.000479494 -0.000523027 8.30293e-05)
(-0.000543116 -0.000553043 0.00012203)
(-0.00060348 -0.00057298 0.000153415)
(-0.000649241 -0.000578877 0.000177254)
(-0.000692127 -0.000583561 0.00019681)
(-0.000722329 -0.000580157 0.000208268)
(-0.000745246 -0.000577071 0.000213457)
(-0.000756315 -0.000572469 0.000211788)
(-0.000761319 -0.000569897 0.000205521)
(-0.000771333 -0.000574595 0.000197622)
(-0.000783934 -0.00058343 0.000187571)
(-0.000786779 -0.000587709 0.000173417)
(-0.000791885 -0.000594711 0.000158173)
(-0.000781069 -0.000590992 0.000138837)
(-0.000778095 -0.000592789 0.000120134)
(-0.000791784 -0.000606445 0.000102563)
(-0.000797126 -0.000613539 8.26387e-05)
(-0.000790516 -0.000612224 6.0463e-05)
(-0.000788265 -0.000613552 3.75212e-05)
(-0.000786207 -0.000613158 1.28546e-05)
(-0.000133189 -6.93967e-05 -7.04824e-06)
(-0.000218214 -0.000185556 -6.61711e-05)
(-0.000328529 -0.000333009 -2.94457e-05)
(-0.000403688 -0.000427154 1.96765e-05)
(-0.000487051 -0.000499169 6.90479e-05)
(-0.000556122 -0.000536455 0.000109314)
(-0.000620007 -0.000560582 0.000142296)
(-0.000670926 -0.000571184 0.000168465)
(-0.000716891 -0.000577659 0.000189522)
(-0.000748515 -0.000574651 0.000201985)
(-0.000775806 -0.000573714 0.000208907)
(-0.000790968 -0.000570485 0.000208936)
(-0.000799893 -0.000568901 0.000204262)
(-0.000811435 -0.000573267 0.000197124)
(-0.000822037 -0.000580016 0.000186954)
(-0.00082549 -0.000584726 0.000173393)
(-0.000831332 -0.000592483 0.000158642)
(-0.000820759 -0.000590153 0.000139769)
(-0.000820631 -0.000594703 0.000121677)
(-0.000835647 -0.000609431 0.000104163)
(-0.000840082 -0.000616384 8.3968e-05)
(-0.000833348 -0.000615968 6.15465e-05)
(-0.000830877 -0.000617814 3.82478e-05)
(-0.000827994 -0.00061717 1.31069e-05)
(-0.000137899 -5.86018e-05 2.8863e-06)
(-0.000221634 -0.000163219 -6.83443e-05)
(-0.00032307 -0.000295211 -3.7921e-05)
(-0.000401046 -0.000392963 6.22115e-06)
(-0.000486852 -0.000469357 5.38325e-05)
(-0.000561321 -0.000513696 9.49431e-05)
(-0.000632694 -0.000545231 0.000130106)
(-0.000688485 -0.000559772 0.000158354)
(-0.000739094 -0.000569151 0.000181325)
(-0.000776184 -0.000569597 0.000196038)
(-0.00080499 -0.000568672 0.000204101)
(-0.000822372 -0.00056573 0.000205468)
(-0.000835541 -0.000565701 0.000202546)
(-0.000849618 -0.000570386 0.000196513)
(-0.000859489 -0.000576087 0.000186717)
(-0.000863898 -0.000581448 0.000173882)
(-0.000870307 -0.000589898 0.000159609)
(-0.000859733 -0.000588866 0.000141121)
(-0.000858514 -0.000593268 0.000122986)
(-0.000872359 -0.000607103 0.000105248)
(-0.000874377 -0.000612809 8.47449e-05)
(-0.000868077 -0.000613566 6.2256e-05)
(-0.000865501 -0.000615918 3.87446e-05)
(-0.000862219 -0.000615346 1.32864e-05)
(-0.000147166 -4.96339e-05 1.31747e-05)
(-0.00019978 -0.000125132 -6.20894e-05)
(-0.000312196 -0.000255796 -4.50214e-05)
(-0.000389828 -0.000353158 -7.02276e-06)
(-0.000479668 -0.00043566 3.78538e-05)
(-0.000561042 -0.000488171 7.95465e-05)
(-0.000636206 -0.000523411 0.000115882)
(-0.000698251 -0.00054259 0.000146226)
(-0.000753144 -0.00055439 0.000170926)
(-0.000791882 -0.000555496 0.000187013)
(-0.000825715 -0.000557275 0.000197293)
(-0.000848174 -0.000556739 0.000200882)
(-0.000865104 -0.000558015 0.000199699)
(-0.000880629 -0.000562631 0.000194712)
(-0.000889173 -0.000567203 0.000185398)
(-0.000893903 -0.000572753 0.000173309)
(-0.000900615 -0.000581603 0.000159597)
(-0.000890756 -0.000582162 0.000141708)
(-0.000891213 -0.000588195 0.000124019)
(-0.000905506 -0.000602214 0.000106314)
(-0.000906549 -0.000607754 8.56654e-05)
(-0.000900099 -0.000609223 6.30294e-05)
(-0.000896944 -0.000611748 3.92631e-05)
(-0.000892962 -0.000611064 1.34688e-05)
(-0.000147097 -3.77035e-05 2.24939e-05)
(-0.000201052 -0.000104703 -6.16962e-05)
(-0.00029281 -0.000213257 -4.99162e-05)
(-0.000371395 -0.000310331 -1.94474e-05)
(-0.000462702 -0.000396686 2.13314e-05)
(-0.000548737 -0.000455397 6.24539e-05)
(-0.000632994 -0.000498529 0.000100341)
(-0.000701243 -0.000521673 0.000132523)
(-0.000761571 -0.000536211 0.000159125)
(-0.000807804 -0.00054173 0.000178008)
(-0.000844569 -0.00054452 0.000190182)
(-0.000869259 -0.000544467 0.000195494)
(-0.000889808 -0.00054699 0.000196167)
(-0.000907291 -0.00055204 0.000192513)
(-0.000915812 -0.000556536 0.000184106)
(-0.000921185 -0.000562505 0.000172893)
(-0.00092826 -0.000571742 0.000159787)
(-0.000918608 -0.00057349 0.000142409)
(-0.000916677 -0.000578543 0.00012461)
(-0.000928672 -0.00059093 0.000106713)
(-0.000926722 -0.000595054 8.58852e-05)
(-0.000920668 -0.000597535 6.3326e-05)
(-0.000916998 -0.00060029 3.94924e-05)
(-0.000912719 -0.000599797 1.35579e-05)
(-0.000145393 -2.59839e-05 3.11295e-05)
(-0.000165405 -6.99044e-05 -4.92109e-05)
(-0.000269407 -0.000172163 -5.24599e-05)
(-0.000342897 -0.000263278 -3.00196e-05)
(-0.000435619 -0.00035332 4.99901e-06)
(-0.00052943 -0.000420775 4.47033e-05)
(-0.000617448 -0.000467496 8.27714e-05)
(-0.000693465 -0.000495517 0.000116695)
(-0.000760275 -0.000512848 0.000145268)
(-0.000808819 -0.000518741 0.000165767)
(-0.000851079 -0.000524146 0.000180503)
(-0.000881667 -0.000526889 0.000188545)
(-0.000905707 -0.000530625 0.000191246)
(-0.000924147 -0.000535688 0.000188938)
(-0.000931982 -0.000539899 0.000181513)
(-0.000937224 -0.000545868 0.000171205)
(-0.000944126 -0.000555114 0.000158779)
(-0.000934983 -0.000558179 0.000142109)
(-0.000933701 -0.000564243 0.00012477)
(-0.000945067 -0.000576096 0.000106972)
(-0.000941916 -0.000580085 8.61829e-05)
(-0.000935258 -0.000582909 6.36162e-05)
(-0.000930483 -0.000585574 3.9697e-05)
(-0.00092555 -0.000585078 1.3633e-05)
(-0.000145688 -1.51256e-05 4.00055e-05)
(-0.000165599 -5.51602e-05 -4.68892e-05)
(-0.000236722 -0.00013 -5.09196e-05)
(-0.000306637 -0.000215078 -3.78302e-05)
(-0.000398187 -0.000306209 -1.02477e-05)
(-0.000493871 -0.000377865 2.6064e-05)
(-0.000592312 -0.000433597 6.3994e-05)
(-0.000676089 -0.000466473 9.91619e-05)
(-0.00074968 -0.000486301 0.000129712)
(-0.000808279 -0.000496389 0.000153421)
(-0.000854955 -0.000502975 0.000170562)
(-0.000887447 -0.000505948 0.000180691)
(-0.000914187 -0.000510458 0.00018549)
(-0.000934098 -0.00051598 0.00018485)
(-0.000942553 -0.000520796 0.000178829)
(-0.0009479 -0.000526984 0.00016957)
(-0.000954379 -0.000536095 0.000157846)
(-0.0009445 -0.000539781 0.000141725)
(-0.000939567 -0.000544472 0.000124306)
(-0.000947614 -0.000554191 0.000106411)
(-0.000940705 -0.000556657 8.56041e-05)
(-0.000933923 -0.000560102 6.32922e-05)
(-0.000928111 -0.000562812 3.95254e-05)
(-0.000922851 -0.000562563 1.35832e-05)
(-0.000144315 -4.19192e-06 4.85019e-05)
(-0.000136356 -3.45774e-05 -3.62118e-05)
(-0.000203573 -9.32923e-05 -4.6454e-05)
(-0.00026143 -0.000165843 -4.13888e-05)
(-0.000348255 -0.000254434 -2.31224e-05)
(-0.000451181 -0.000334448 8.00617e-06)
(-0.000551879 -0.000393458 4.38847e-05)
(-0.000644443 -0.00043237 7.95549e-05)
(-0.000727286 -0.000456528 0.000112176)
(-0.000789529 -0.00046621 0.000137961)
(-0.000841966 -0.000474022 0.000157846)
(-0.000881001 -0.000479155 0.000171058)
(-0.000910675 -0.000484624 0.000178157)
(-0.000930933 -0.000490193 0.000179231)
(-0.000938895 -0.000495143 0.000174621)
(-0.000943348 -0.000501107 0.000166417)
(-0.000948518 -0.00050961 0.000155416)
(-0.000938115 -0.000514151 0.000140041)
(-0.000933044 -0.000519881 0.000123184)
(-0.000939394 -0.000528943 0.00010552)
(-0.000930882 -0.000531529 8.4997e-05)
(-0.000922617 -0.000534837 6.28602e-05)
(-0.000915075 -0.000537346 3.92638e-05)
(-0.000909029 -0.000537074 1.34959e-05)
(-0.000142407 6.40634e-06 5.66697e-05)
(-0.000152275 -2.81236e-05 -3.73804e-05)
(-0.00016331 -5.99525e-05 -3.74102e-05)
(-0.000210041 -0.000118551 -3.97693e-05)
(-0.000290721 -0.000202039 -3.23707e-05)
(-0.00038866 -0.000281522 -8.69271e-06)
(-0.000500399 -0.000350618 2.37021e-05)
(-0.0006014 -0.000395707 5.88087e-05)
(-0.000691353 -0.000423357 9.27215e-05)
(-0.000766251 -0.000438325 0.000122086)
(-0.000825005 -0.000446975 0.00014509)
(-0.000865717 -0.000451092 0.000160712)
(-0.00089704 -0.000456294 0.000170065)
(-0.000918052 -0.000462002 0.00017308)
(-0.000926536 -0.000467624 0.000170188)
(-0.000930148 -0.000473717 0.000163149)
(-0.000933424 -0.000481821 0.000152886)
(-0.000920632 -0.000486532 0.000138063)
(-0.000910607 -0.000490816 0.000121177)
(-0.00091256 -0.00049793 0.000103596)
(-0.000899492 -0.000499153 8.32991e-05)
(-0.000890182 -0.000502515 6.16407e-05)
(-0.000881085 -0.000504904 3.85161e-05)
(-0.000874483 -0.00050474 1.32435e-05)
(-0.000136595 1.60942e-05 6.2743e-05)
(-0.000129632 -1.63594e-05 -2.90574e-05)
(-0.000120646 -3.38808e-05 -2.56731e-05)
(-0.000154846 -7.54486e-05 -3.24575e-05)
(-0.00021974 -0.00014545 -3.55687e-05)
(-0.000322455 -0.000230849 -2.26179e-05)
(-0.000431741 -0.000300822 4.02457e-06)
(-0.000541527 -0.000353024 3.71454e-05)
(-0.000642795 -0.000387521 7.20938e-05)
(-0.000721194 -0.000403386 0.0001034)
(-0.000785629 -0.000413143 0.000129416)
(-0.000833427 -0.000419265 0.000148484)
(-0.000867281 -0.000424787 0.000160413)
(-0.000887887 -0.000430127 0.000165343)
(-0.000895247 -0.000435532 0.000164008)
(-0.000896757 -0.00044118 0.000158049)
(-0.000896918 -0.000448426 0.0001485)
(-0.000882458 -0.000453588 0.000134511)
(-0.00087173 -0.000458782 0.00011831)
(-0.000870927 -0.000464967 0.000101111)
(-0.000855691 -0.000466468 8.13808e-05)
(-0.000843865 -0.000469103 6.01468e-05)
(-0.000832461 -0.000470923 3.75605e-05)
(-0.000824716 -0.0004706 1.29102e-05)
(-0.000127893 2.35621e-05 6.53235e-05)
(-0.000124237 -9.8748e-06 -2.51264e-05)
(-8.77595e-05 -1.81901e-05 -1.52629e-05)
(-9.50985e-05 -3.78222e-05 -1.94922e-05)
(-0.000151412 -9.54336e-05 -3.3211e-05)
(-0.000233829 -0.00016867 -3.09429e-05)
(-0.000354059 -0.000249241 -1.34921e-05)
(-0.000471445 -0.000308158 1.60993e-05)
(-0.000578223 -0.000346708 5.08421e-05)
(-0.000670009 -0.0003701 8.50525e-05)
(-0.000741385 -0.000382654 0.000114303)
(-0.000789905 -0.000388121 0.000135855)
(-0.000824207 -0.000393172 0.000150084)
(-0.000844628 -0.000398439 0.000157053)
(-0.000851695 -0.000404136 0.000157492)
(-0.000851134 -0.000409526 0.000152664)
(-0.000847635 -0.000415895 0.00014377)
(-0.000829256 -0.000420268 0.000130271)
(-0.000811983 -0.000423329 0.000113989)
(-0.000805316 -0.000426952 9.69862e-05)
(-0.000785002 -0.000426929 7.78249e-05)
(-0.000770982 -0.000428699 5.74221e-05)
(-0.000757668 -0.00042984 3.58329e-05)
(-0.000749022 -0.000429326 1.23114e-05)
(-0.000119 2.83039e-05 6.40705e-05)
(-0.000118636 -5.70961e-06 -2.16044e-05)
(-7.8848e-05 -1.21016e-05 -8.76849e-06)
(-5.69308e-05 -1.6464e-05 -8.38359e-06)
(-6.65648e-05 -4.01799e-05 -1.88413e-05)
(-0.000154477 -0.000115802 -3.46423e-05)
(-0.000259627 -0.000189029 -2.71208e-05)
(-0.000384244 -0.000255526 -3.04736e-06)
(-0.000503447 -0.000303564 3.08928e-05)
(-0.000596134 -0.000328784 6.58998e-05)
(-0.000670459 -0.000343828 9.70835e-05)
(-0.000725051 -0.000352854 0.000121512)
(-0.000760964 -0.000359051 0.000138052)
(-0.000779785 -0.000364121 0.000146742)
(-0.000784178 -0.000369088 0.000148513)
(-0.000779873 -0.0003734 0.000144556)
(-0.000771215 -0.000378104 0.000136144)
(-0.000750304 -0.000381806 0.000123475)
(-0.000732508 -0.000385341 0.00010812)
(-0.00072274 -0.000387677 9.17774e-05)
(-0.000700268 -0.000387325 7.36124e-05)
(-0.000683288 -0.000387503 5.40975e-05)
(-0.00066763 -0.000387413 3.36807e-05)
(-0.000657613 -0.000386252 1.15543e-05)
(-0.000108889 2.8641e-05 5.62305e-05)
(-0.00011257 -3.84553e-06 -1.83869e-05)
(-6.94967e-05 -8.01364e-06 -1.9392e-06)
(-3.33558e-05 -5.69555e-06 7.23944e-07)
(-2.44267e-05 -1.58771e-05 -8.59246e-06)
(-4.85721e-05 -4.20215e-05 -2.02434e-05)
(-0.000167466 -0.000130479 -3.54678e-05)
(-0.000294394 -0.000202409 -1.80392e-05)
(-0.000413149 -0.000253615 1.39177e-05)
(-0.000517567 -0.000288549 4.96711e-05)
(-0.000596702 -0.000308365 8.2245e-05)
(-0.000648902 -0.000317883 0.00010758)
(-0.000682864 -0.000324456 0.000125352)
(-0.00069992 -0.000329776 0.000135473)
(-0.000702734 -0.000334708 0.000138632)
(-0.000695311 -0.000338255 0.000135534)
(-0.000681943 -0.00034143 0.000127547)
(-0.000656664 -0.000343076 0.000115287)
(-0.000630818 -0.000342671 9.97293e-05)
(-0.000613907 -0.000341159 8.37454e-05)
(-0.000586897 -0.000338375 6.67187e-05)
(-0.000566918 -0.000336343 4.86792e-05)
(-0.000549575 -0.000334803 3.01924e-05)
(-0.000538555 -0.000332839 1.03338e-05)
(-0.000102221 2.68898e-05 4.61377e-05)
(-0.000106204 -2.46941e-06 -1.57062e-05)
(-6.47546e-05 -4.54078e-06 4.44421e-06)
(-1.6774e-05 2.54733e-06 8.27411e-06)
(6.22378e-06 2.01771e-06 -1.09543e-06)
(-3.68563e-06 -1.13042e-05 -1.28449e-05)
(-6.54042e-05 -5.74507e-05 -2.83885e-05)
(-0.000192725 -0.000138985 -2.44828e-05)
(-0.000320783 -0.00020305 3.61182e-06)
(-0.000417955 -0.000239286 3.65397e-05)
(-0.000494392 -0.00026227 6.71975e-05)
(-0.00055011 -0.000276839 9.24959e-05)
(-0.000583954 -0.000285575 0.000110711)
(-0.000597875 -0.000290912 0.000121363)
(-0.00059585 -0.000294353 0.000124892)
(-0.00058294 -0.000295779 0.000121954)
(-0.000563252 -0.000296095 0.000113948)
(-0.000535315 -0.000295607 0.000102443)
(-0.000510627 -0.000295226 8.83887e-05)
(-0.000492305 -0.00029233 7.3724e-05)
(-0.000464487 -0.000288395 5.84334e-05)
(-0.00044271 -0.000284269 4.22007e-05)
(-0.000424003 -0.000280951 2.59802e-05)
(-0.000412076 -0.000277854 8.8538e-06)
(-8.88739e-05 2.41078e-05 3.42429e-05)
(-0.000100361 -4.62071e-07 -1.3989e-05)
(-5.42843e-05 1.26433e-06 7.19161e-06)
(-6.6405e-06 9.04208e-06 7.61013e-06)
(2.16788e-05 1.14908e-05 7.12432e-07)
(1.77694e-05 8.90304e-06 -3.49611e-06)
(-1.74875e-05 -1.71517e-05 -1.83399e-05)
(-0.000110006 -8.29659e-05 -1.82412e-05)
(-0.000216843 -0.000144291 3.25073e-06)
(-0.000319247 -0.00019229 3.07924e-05)
(-0.000395512 -0.000221103 5.71086e-05)
(-0.000443887 -0.000235858 7.86953e-05)
(-0.000472892 -0.000244853 9.51271e-05)
(-0.000483442 -0.000250189 0.000105385)
(-0.000479142 -0.000253297 0.000109247)
(-0.000463207 -0.000253509 0.000106507)
(-0.00043972 -0.000251625 9.85107e-05)
(-0.000408753 -0.000248032 8.7337e-05)
(-0.00037567 -0.000241238 7.30184e-05)
(-0.000350021 -0.000232339 5.90246e-05)
(-0.000319778 -0.000224746 4.57758e-05)
(-0.000295498 -0.000216871 3.2204e-05)
(-0.00027635 -0.000211347 1.94787e-05)
(-0.000264052 -0.00020675 6.57084e-06)
(-7.24427e-05 2.10908e-05 2.48919e-05)
(-9.31097e-05 1.62241e-06 -1.25484e-05)
(-4.94363e-05 3.74806e-06 6.03473e-06)
(7.62082e-06 6.76598e-06 4.53616e-06)
(2.18415e-05 9.22648e-06 9.42017e-06)
(1.80024e-05 1.06052e-05 1.29048e-05)
(1.90944e-06 3.49098e-07 7.34687e-06)
(-2.5953e-05 -2.07455e-05 3.05079e-06)
(-0.000127305 -9.42075e-05 1.55122e-05)
(-0.000203217 -0.000136328 3.09706e-05)
(-0.000267883 -0.000165986 4.72058e-05)
(-0.000318168 -0.000186432 6.32985e-05)
(-0.000346151 -0.000197619 7.65384e-05)
(-0.000353007 -0.000202424 8.49751e-05)
(-0.000342335 -0.000202457 8.72885e-05)
(-0.00031996 -0.000198548 8.32217e-05)
(-0.000291175 -0.000191922 7.43704e-05)
(-0.000259213 -0.000184523 6.38668e-05)
(-0.000231959 -0.000178157 5.24779e-05)
(-0.000211006 -0.000169254 4.14412e-05)
(-0.000183636 -0.000160296 3.10665e-05)
(-0.000161827 -0.000150924 2.10184e-05)
(-0.000143999 -0.000143656 1.21912e-05)
(-0.00013275 -0.000137899 4.02505e-06)
(-5.40594e-05 1.62093e-05 1.67058e-05)
(-8.53483e-05 3.52941e-06 -1.0639e-05)
(-4.2242e-05 2.45624e-06 7.09933e-06)
(6.05411e-06 8.23084e-06 1.35879e-05)
(2.15647e-05 1.17647e-05 2.47787e-05)
(2.43576e-05 8.01035e-06 2.70459e-05)
(1.95523e-05 1.034e-06 2.96902e-05)
(2.53646e-06 -1.09681e-05 2.45762e-05)
(-3.19749e-05 -3.91396e-05 2.79919e-05)
(-9.84164e-05 -8.83107e-05 3.7148e-05)
(-0.000158809 -0.00012174 4.28406e-05)
(-0.000196677 -0.000137834 4.84091e-05)
(-0.000217862 -0.00014692 5.55893e-05)
(-0.000220957 -0.000150179 6.08586e-05)
(-0.000209937 -0.000149452 6.21e-05)
(-0.000188163 -0.000144199 5.75569e-05)
(-0.000160835 -0.000135339 4.86234e-05)
(-0.000130501 -0.000124397 3.86598e-05)
(-9.77357e-05 -0.000107652 2.70108e-05)
(-7.25722e-05 -8.80653e-05 1.7192e-05)
(-4.80985e-05 -7.30841e-05 9.95663e-06)
(-2.89805e-05 -5.58835e-05 4.59499e-06)
(-1.63398e-05 -4.44491e-05 1.56506e-06)
(-9.504e-06 -3.5417e-05 3.23318e-07)
(-4.16973e-05 1.51708e-05 1.22874e-05)
(-7.7955e-05 6.32668e-06 -1.17607e-05)
(-4.68011e-05 8.55034e-06 4.69124e-06)
(-8.98399e-06 1.65981e-05 1.35433e-05)
(8.34398e-06 1.80846e-05 1.68994e-05)
(2.71558e-05 1.89153e-05 2.53226e-05)
(3.60748e-05 1.00374e-05 3.11994e-05)
(3.98399e-05 2.6981e-07 4.08365e-05)
(2.40367e-05 -1.31148e-05 3.72603e-05)
(-3.65952e-07 -2.19184e-05 2.16154e-05)
(-2.50045e-05 -4.06015e-05 2.00635e-05)
(-6.69549e-05 -7.26508e-05 2.57327e-05)
(-9.02896e-05 -8.54584e-05 2.87351e-05)
(-9.25665e-05 -8.74031e-05 3.02017e-05)
(-7.68832e-05 -8.00204e-05 2.7295e-05)
(-5.12887e-05 -6.44644e-05 1.91004e-05)
(-2.59047e-05 -4.36739e-05 9.13739e-06)
(-6.97623e-06 -2.25546e-05 1.96761e-06)
(2.6996e-06 -2.43373e-05 -2.419e-06)
(6.10757e-06 -1.16914e-05 -3.57634e-06)
(1.54832e-05 -6.63712e-06 -6.34789e-06)
(1.534e-05 -6.13864e-08 -4.49679e-06)
(2.07663e-05 4.86511e-06 -3.82771e-06)
(2.31842e-05 7.96391e-06 -1.46989e-06)
(-1.96498e-05 1.3412e-05 1.1578e-05)
(-6.15746e-05 9.21472e-06 -1.54093e-05)
(-5.50734e-05 1.2809e-05 -6.5378e-06)
(-3.61026e-05 2.76924e-05 3.88386e-06)
(-9.7496e-06 4.53937e-05 5.89317e-06)
(1.86258e-05 4.59804e-05 2.86091e-06)
(3.66473e-05 2.7633e-05 8.5848e-06)
(4.69486e-05 1.74246e-05 2.06475e-05)
(3.86099e-05 8.4221e-06 2.3168e-05)
(4.15546e-05 2.44776e-06 2.59569e-05)
(2.73835e-05 -8.45411e-06 1.63492e-05)
(8.53945e-06 -1.60099e-05 6.04744e-06)
(-4.30376e-07 -1.75588e-05 1.27975e-06)
(-1.67208e-06 -2.17836e-05 -1.3541e-06)
(3.41423e-06 -1.28489e-05 -3.87155e-06)
(1.38787e-05 -1.07105e-05 -1.06727e-05)
(2.08413e-05 -2.32074e-06 -1.44857e-05)
(1.92488e-05 4.3637e-06 -1.15617e-05)
(2.16226e-05 1.00531e-05 -1.03819e-05)
(2.18307e-05 1.24902e-05 -8.52692e-06)
(3.38592e-05 2.18137e-05 -9.57435e-06)
(2.55552e-05 1.70113e-05 -4.60192e-06)
(3.71437e-05 2.51207e-05 -4.14678e-06)
(3.13065e-05 2.09415e-05 -1.21601e-06)
(7.7287e-06 1.23781e-05 2.05402e-05)
(-3.0543e-05 1.26644e-05 -1.528e-05)
(-4.75888e-05 1.34796e-05 -1.61827e-05)
(-4.84659e-05 2.50258e-05 -1.22921e-05)
(-2.80201e-05 4.37016e-05 -1.37753e-05)
(8.21951e-06 5.10782e-05 -1.93353e-05)
(3.77969e-05 4.51661e-05 -1.93414e-05)
(5.143e-05 2.811e-05 -6.0989e-06)
(4.37554e-05 1.5258e-05 9.29319e-06)
(3.82294e-05 1.14251e-05 1.26834e-05)
(3.76999e-05 1.03642e-05 1.06585e-05)
(4.16138e-05 1.15389e-05 6.13244e-06)
(2.45587e-05 7.42803e-06 -2.76104e-06)
(2.93085e-05 1.04559e-05 -1.14648e-05)
(2.1693e-05 9.90126e-06 -1.10037e-05)
(3.07426e-05 1.66659e-05 -1.50076e-05)
(2.37615e-05 1.37567e-05 -9.97358e-06)
(2.46385e-05 1.42064e-05 -8.06698e-06)
(2.53646e-05 1.36698e-05 -6.35052e-06)
(2.52358e-05 1.21123e-05 -5.90031e-06)
(2.83943e-05 1.14839e-05 -5.31378e-06)
(3.72009e-05 1.28233e-05 -4.76193e-06)
(4.30107e-05 1.29343e-05 -3.8467e-06)
(4.4852e-05 1.19776e-05 -1.45988e-06)
(1.22929e-05 1.56264e-05 3.12809e-05)
(-5.54326e-06 2.02048e-05 -1.07822e-05)
(-2.83489e-05 1.62346e-05 -1.78451e-05)
(-4.34112e-05 2.29872e-05 -2.0582e-05)
(-3.75645e-05 3.65466e-05 -2.52651e-05)
(-1.01447e-05 4.44088e-05 -3.15276e-05)
(2.10741e-05 3.80141e-05 -3.26038e-05)
(4.35526e-05 2.15666e-05 -2.14365e-05)
(5.83054e-05 1.07011e-05 -2.17272e-06)
(6.8203e-05 8.54417e-06 9.87265e-06)
(6.82808e-05 1.20677e-05 9.67525e-06)
(4.90511e-05 1.21569e-05 3.14175e-06)
(3.14417e-05 9.73501e-06 -1.36857e-06)
(2.77371e-05 1.0418e-05 -4.49172e-06)
(2.58066e-05 1.03019e-05 -6.45768e-06)
(2.58401e-05 9.15051e-06 -7.3502e-06)
(3.29467e-05 9.27577e-06 -9.27552e-06)
(4.19103e-05 8.07606e-06 -1.06164e-05)
(4.96667e-05 5.50527e-06 -1.09808e-05)
(5.31757e-05 1.84348e-06 -1.14154e-05)
(5.90572e-05 -2.24161e-06 -1.04305e-05)
(6.01624e-05 -4.60339e-06 -7.38275e-06)
(6.10274e-05 -6.50597e-06 -5.24754e-06)
(6.14036e-05 -7.9102e-06 -1.93531e-06)
(8.44205e-06 1.39742e-05 2.92413e-05)
(2.50546e-06 2.49754e-05 -3.57027e-06)
(-1.68698e-05 2.44838e-05 -1.65053e-05)
(-3.38855e-05 2.5206e-05 -2.25612e-05)
(-3.6822e-05 3.04839e-05 -2.82041e-05)
(-2.19523e-05 3.35193e-05 -3.50007e-05)
(2.92925e-06 2.56273e-05 -3.72916e-05)
(2.77629e-05 8.85224e-06 -2.70552e-05)
(4.89377e-05 -3.49633e-06 -8.91983e-06)
(6.80429e-05 -6.25748e-06 3.29902e-06)
(8.39762e-05 3.54258e-07 4.40398e-06)
(8.05635e-05 3.12038e-06 -1.93143e-06)
(6.93522e-05 2.52325e-06 -6.29016e-06)
(5.58333e-05 2.00837e-06 -9.04769e-06)
(5.30024e-05 -3.16596e-08 -1.2208e-05)
(5.54639e-05 -3.47026e-06 -1.44299e-05)
(5.73067e-05 -6.95643e-06 -1.49143e-05)
(5.99349e-05 -1.03459e-05 -1.41788e-05)
(6.23744e-05 -1.25545e-05 -1.30136e-05)
(6.44691e-05 -1.46831e-05 -1.29575e-05)
(6.52525e-05 -1.71482e-05 -1.09442e-05)
(6.63238e-05 -1.76986e-05 -8.05121e-06)
(6.66546e-05 -1.84607e-05 -5.68138e-06)
(6.64525e-05 -1.86947e-05 -2.08798e-06)
(5.58727e-06 8.67027e-06 1.92723e-05)
(-2.06665e-07 1.89354e-05 -1.11331e-07)
(-1.11456e-05 2.32091e-05 -1.09801e-05)
(-2.48131e-05 2.3716e-05 -1.97027e-05)
(-3.22656e-05 2.42512e-05 -2.70209e-05)
(-2.75022e-05 2.24627e-05 -3.37294e-05)
(-1.12354e-05 1.38701e-05 -3.51934e-05)
(1.0786e-05 4.49285e-07 -2.7507e-05)
(2.97142e-05 -1.06694e-05 -1.34236e-05)
(4.98586e-05 -1.32651e-05 -1.27298e-06)
(7.17334e-05 -6.10723e-06 1.5119e-07)
(7.83842e-05 -6.06885e-06 -6.04182e-06)
(7.24602e-05 -8.72484e-06 -9.67752e-06)
(6.63815e-05 -1.15919e-05 -1.22868e-05)
(6.25468e-05 -1.40105e-05 -1.417e-05)
(6.10141e-05 -1.59306e-05 -1.51827e-05)
(6.1524e-05 -1.77871e-05 -1.54743e-05)
(6.305e-05 -1.88585e-05 -1.47366e-05)
(6.28268e-05 -1.81008e-05 -1.33152e-05)
(6.25568e-05 -1.75523e-05 -1.27139e-05)
(6.34676e-05 -1.87555e-05 -1.08992e-05)
(6.02517e-05 -1.69859e-05 -7.69189e-06)
(5.81257e-05 -1.63918e-05 -5.19036e-06)
(5.61953e-05 -1.58044e-05 -1.86525e-06)
(5.55152e-06 8.46746e-07 5.43373e-06)
(3.46769e-07 4.77576e-06 2.04182e-07)
(-9.35961e-06 1.15069e-05 -6.66482e-06)
(-1.97141e-05 1.47112e-05 -1.63551e-05)
(-2.71637e-05 1.44834e-05 -2.5839e-05)
(-2.76075e-05 1.04998e-05 -3.44118e-05)
(-1.95706e-05 6.21357e-07 -3.87415e-05)
(-5.07817e-06 -1.30787e-05 -3.37936e-05)
(7.82966e-06 -1.68737e-05 -1.33168e-05)
(2.33925e-05 -1.62457e-05 -3.27233e-06)
(3.63134e-05 -7.48222e-06 -6.8937e-07)
(5.42739e-05 -6.73845e-06 -4.95905e-06)
(6.18297e-05 -9.47601e-06 -9.82252e-06)
(6.07388e-05 -1.3321e-05 -1.25869e-05)
(5.80072e-05 -1.55511e-05 -1.39888e-05)
(5.61248e-05 -1.64087e-05 -1.46016e-05)
(5.42343e-05 -1.63868e-05 -1.41832e-05)
(5.19693e-05 -1.55016e-05 -1.2867e-05)
(4.80954e-05 -1.43108e-05 -1.09145e-05)
(4.71217e-05 -1.40355e-05 -1.00172e-05)
(4.7495e-05 -1.46598e-05 -8.52659e-06)
(4.62163e-05 -1.41293e-05 -6.33796e-06)
(4.58635e-05 -1.41988e-05 -4.37335e-06)
(4.5387e-05 -1.42142e-05 -1.62043e-06)
(7.02357e-06 -5.32967e-06 -5.87417e-06)
(4.95214e-06 -6.59506e-06 -1.62382e-06)
(-1.64523e-06 -4.0687e-06 -2.97899e-06)
(-1.11421e-05 -3.62711e-07 -1.03435e-05)
(-1.82294e-05 6.38025e-08 -2.0223e-05)
(-1.97132e-05 -4.39694e-06 -2.92691e-05)
(-1.36745e-05 -1.4258e-05 -3.33604e-05)
(-1.62022e-06 -2.34864e-05 -2.56181e-05)
(1.10661e-05 -2.24546e-05 -1.16449e-05)
(2.37604e-05 -1.91163e-05 -5.92981e-06)
(3.4405e-05 -1.61625e-05 -3.71745e-06)
(3.1731e-05 -9.68665e-06 -2.99989e-06)
(3.31294e-05 -8.37438e-06 -5.07975e-06)
(3.94141e-05 -1.08469e-05 -8.30961e-06)
(4.06917e-05 -1.26565e-05 -1.0215e-05)
(4.02918e-05 -1.35018e-05 -1.09169e-05)
(4.02762e-05 -1.3844e-05 -1.10021e-05)
(4.1061e-05 -1.41315e-05 -1.07122e-05)
(4.26929e-05 -1.48052e-05 -1.0096e-05)
(4.46427e-05 -1.52589e-05 -9.68144e-06)
(4.6984e-05 -1.6077e-05 -8.64775e-06)
(4.62245e-05 -1.56446e-05 -6.57847e-06)
(4.58543e-05 -1.55678e-05 -4.51166e-06)
(4.53013e-05 -1.54709e-05 -1.67116e-06)
(7.29927e-06 -7.76744e-06 -9.15613e-06)
(9.36922e-06 -1.15767e-05 -1.99507e-06)
(4.79486e-06 -1.03455e-05 -9.62794e-07)
(-5.9841e-07 -1.06522e-05 -3.77238e-06)
(-5.55274e-06 -1.13576e-05 -9.66096e-06)
(-6.63485e-06 -1.45867e-05 -1.56465e-05)
(-2.11076e-06 -1.91544e-05 -1.70773e-05)
(6.25132e-06 -2.01203e-05 -1.21939e-05)
(1.77395e-05 -2.11313e-05 -9.3282e-06)
(2.59565e-05 -1.7846e-05 -6.89457e-06)
(2.99517e-05 -1.49815e-05 -4.72006e-06)
(4.06319e-05 -1.63718e-05 -5.46934e-06)