/*--------------------------------*- C++ -*----------------------------------*\
  =========                 |
  \\      /  F ield         | OpenFOAM: The Open Source CFD Toolbox
   \\    /   O peration     | Website:  https://openfoam.org
    \\  /    A nd           | Version:  6
     \\/     M anipulation  |
\*---------------------------------------------------------------------------*/
FoamFile
{
    version     2.0;
    format      ascii;
    class       volVectorField;
    location    "39";
    object      wallShearStress;
}
// * * * * * * * * * * * * * * * * * * * * * * * * * * * * * * * * * * * * * //

dimensions      [0 2 -2 0 0 0 0];

internalField   uniform (0 0 0);

boundaryField
{
    inlet
    {
        type            calculated;
        value           uniform (0 0 0);
    }
    outlet
    {
        type            calculated;
        value           uniform (0 0 0);
    }
    roughCylinder
    {
        type            calculated;
        value           nonuniform List<vector> 
5120
(
(-0.000250027 -0.00035623 -0.000183575)
(-0.000306477 -0.000460424 -4.20656e-05)
(-0.000339929 -0.000554092 -7.68002e-07)
(-0.000385541 -0.000644018 5.39025e-05)
(-0.00044243 -0.000722093 0.000117058)
(-0.000507052 -0.000783865 0.000180541)
(-0.000575953 -0.000826497 0.000239839)
(-0.00064448 -0.000850416 0.000292183)
(-0.000708562 -0.000858077 0.000335484)
(-0.000766112 -0.000854516 0.000369005)
(-0.000817352 -0.000847959 0.000394221)
(-0.000862601 -0.000844098 0.000413038)
(-0.000898862 -0.000842954 0.000424185)
(-0.000929424 -0.000847296 0.000428786)
(-0.000955596 -0.000856324 0.000427877)
(-0.000978716 -0.000869343 0.000422515)
(-0.0010002 -0.000885567 0.000413753)
(-0.00102129 -0.000904346 0.000402483)
(-0.00104293 -0.000925207 0.000389377)
(-0.00106577 -0.000947849 0.00037486)
(-0.00109015 -0.000972093 0.000359133)
(-0.00111621 -0.000997817 0.000342216)
(-0.00114389 -0.00102489 0.000324016)
(-0.00117304 -0.00105315 0.000304337)
(-0.00120341 -0.00108236 0.00028291)
(-0.00123466 -0.00111218 0.000259385)
(-0.00126636 -0.00114215 0.000233257)
(-0.00129793 -0.00117163 0.000203851)
(-0.00132845 -0.00119963 0.000170012)
(-0.00135648 -0.00122477 0.00013019)
(-0.00137911 -0.00124512 8.22798e-05)
(-0.00139198 -0.00125718 2.78406e-05)
(-0.000268462 -0.000344496 -0.000173371)
(-0.000328018 -0.000445941 -4.45337e-05)
(-0.000364051 -0.000538297 -6.53059e-06)
(-0.000411775 -0.000627936 4.47309e-05)
(-0.000470339 -0.000707028 0.000105256)
(-0.000536509 -0.000770597 0.000166944)
(-0.000606806 -0.000815415 0.00022509)
(-0.000676819 -0.000841768 0.00027681)
(-0.000743089 -0.00085249 0.000320114)
(-0.000804039 -0.000853189 0.000354684)
(-0.00085946 -0.000850713 0.000381892)
(-0.000908243 -0.000848433 0.000402554)
(-0.000947369 -0.000846032 0.000414799)
(-0.000979484 -0.000849273 0.000419988)
(-0.00100719 -0.000857597 0.000419399)
(-0.00103175 -0.000870251 0.000414268)
(-0.00105465 -0.000886349 0.000405683)
(-0.00107716 -0.000905138 0.000394584)
(-0.00110026 -0.000926084 0.000381678)
(-0.00112461 -0.000948836 0.000367404)
(-0.00115056 -0.000973188 0.000351972)
(-0.00117823 -0.000999 0.000335412)
(-0.00120758 -0.00102614 0.000317621)
(-0.00123843 -0.00105442 0.000298403)
(-0.0012705 -0.00108362 0.000277484)
(-0.00130346 -0.00111339 0.000254508)
(-0.00133683 -0.00114329 0.000228966)
(-0.00137004 -0.00117267 0.000200192)
(-0.00140208 -0.00120054 0.000167035)
(-0.00143146 -0.00122553 0.00012795)
(-0.0014552 -0.00124577 8.08759e-05)
(-0.00146868 -0.00125773 2.73638e-05)
(-0.000286811 -0.000327674 -0.000155972)
(-0.000349125 -0.000426124 -4.75216e-05)
(-0.000387539 -0.000516411 -1.29522e-05)
(-0.000436971 -0.000605089 3.46954e-05)
(-0.000496909 -0.000684657 9.2291e-05)
(-0.000564462 -0.000749776 0.000151941)
(-0.000636216 -0.00079692 0.000208857)
(-0.000708068 -0.000826337 0.000260099)
(-0.000777052 -0.000841045 0.00030384)
(-0.000841694 -0.000846337 0.000339835)
(-0.000901017 -0.000847499 0.00036884)
(-0.000953074 -0.000846737 0.000390786)
(-0.000995773 -0.000844392 0.000404339)
(-0.00102956 -0.000846079 0.000410051)
(-0.00105883 -0.000853505 0.000409774)
(-0.00108492 -0.000865618 0.000404912)
(-0.00110932 -0.000881421 0.000396556)
(-0.00113333 -0.000900064 0.000385694)
(-0.00115795 -0.000920931 0.000373045)
(-0.00118386 -0.000943628 0.000359072)
(-0.00121141 -0.000967922 0.000343999)
(-0.00124073 -0.000993641 0.000327854)
(-0.00127176 -0.00102065 0.000310532)
(-0.0013043 -0.00104877 0.000291837)
(-0.00133809 -0.00107776 0.000271486)
(-0.00137273 -0.00110728 0.00024912)
(-0.00140775 -0.00113689 0.000224225)
(-0.00144256 -0.00116596 0.000196146)
(-0.00147609 -0.0011935 0.000163739)
(-0.0015068 -0.00121817 0.000125467)
(-0.0015316 -0.00123815 7.93211e-05)
(-0.00154568 -0.00124992 2.68371e-05)
(-0.00030302 -0.000306844 -0.000134049)
(-0.000367684 -0.000401786 -5.05752e-05)
(-0.000408041 -0.000489267 -1.96236e-05)
(-0.000458597 -0.000576337 2.42231e-05)
(-0.000519471 -0.000655892 7.86158e-05)
(-0.000588195 -0.000722365 0.000135955)
(-0.000661482 -0.00077203 0.000191475)
(-0.000735513 -0.000805031 0.000242251)
(-0.000807533 -0.000824246 0.000286568)
(-0.000875863 -0.00083418 0.00032404)
(-0.000938899 -0.000838724 0.000354703)
(-0.000994399 -0.00083967 0.000377862)
(-0.00104076 -0.000838238 0.000392706)
(-0.00107716 -0.000838383 0.000399116)
(-0.00110813 -0.000844834 0.00039929)
(-0.0011359 -0.000856246 0.000394752)
(-0.00116191 -0.000871614 0.000386698)
(-0.00118749 -0.000889975 0.00037613)
(-0.00121368 -0.000910656 0.000363805)
(-0.00124118 -0.000933182 0.000350198)
(-0.00127033 -0.000957281 0.000335537)
(-0.00130129 -0.000982778 0.000319859)
(-0.00133396 -0.00100951 0.000303058)
(-0.00136815 -0.00103731 0.000284931)
(-0.00140356 -0.00106592 0.000265189)
(-0.00143981 -0.00109502 0.000243473)
(-0.0014764 -0.00112417 0.000219262)
(-0.00151272 -0.00115277 0.000191913)
(-0.00154763 -0.00117982 0.000160293)
(-0.00157958 -0.00120404 0.00012287)
(-0.00160538 -0.00122363 7.76964e-05)
(-0.00161999 -0.00123516 2.62885e-05)
(-0.00031623 -0.000282531 -0.000109847)
(-0.000382842 -0.000373431 -5.33571e-05)
(-0.00042465 -0.000457464 -2.61974e-05)
(-0.000475753 -0.000542314 1.36664e-05)
(-0.000537138 -0.000621357 6.45663e-05)
(-0.000606861 -0.000688993 0.000119274)
(-0.000681791 -0.000741316 0.000173167)
(-0.000758273 -0.00077819 0.000223385)
(-0.000833511 -0.000802021 0.000268239)
(-0.000905438 -0.00081634 0.000307054)
(-0.000972038 -0.000824011 0.000339231)
(-0.00103107 -0.00082675 0.000363647)
(-0.00108096 -0.000826431 0.000379601)
(-0.00112126 -0.000826194 0.000387173)
(-0.00115418 -0.000831082 0.000387914)
(-0.00118375 -0.00084158 0.000383801)
(-0.00121146 -0.000856322 0.000376141)
(-0.0012387 -0.000874255 0.000365958)
(-0.00126649 -0.000894576 0.000354027)
(-0.00129556 -0.000916775 0.000340847)
(-0.00132631 -0.000940534 0.000326659)
(-0.00135884 -0.000965648 0.000311504)
(-0.00139309 -0.000991944 0.000295275)
(-0.00142885 -0.00101924 0.000277763)
(-0.0014658 -0.0010473 0.000258672)
(-0.00150355 -0.00107581 0.000237642)
(-0.00154156 -0.00110433 0.000214143)
(-0.00157926 -0.00113227 0.000187552)
(-0.00161542 -0.00115866 0.000156745)
(-0.0016485 -0.00118226 0.000120196)
(-0.00167519 -0.00120135 7.60259e-05)
(-0.00169027 -0.00121255 2.57268e-05)
(-0.000326177 -0.000255908 -8.50314e-05)
(-0.000394218 -0.000342218 -5.57131e-05)
(-0.000436902 -0.000422222 -3.24579e-05)
(-0.000487925 -0.000504247 3.25548e-06)
(-0.000549339 -0.000582256 5.03533e-05)
(-0.000619827 -0.000650796 0.000102066)
(-0.000696418 -0.000705769 0.00015404)
(-0.000775481 -0.000746553 0.000203521)
(-0.000854008 -0.000774822 0.000248762)
(-0.000929524 -0.000793154 0.000288715)
(-0.000999707 -0.000803713 0.000322258)
(-0.00106236 -0.000808242 0.00034796)
(-0.00111599 -0.000809085 0.000365025)
(-0.00116039 -0.000809297 0.00037385)
(-0.00119643 -0.000812614 0.000375495)
(-0.00122801 -0.000821939 0.000372005)
(-0.0012576 -0.000835794 0.000364851)
(-0.00128656 -0.000853048 0.000355149)
(-0.00131601 -0.000872852 0.000343707)
(-0.0013467 -0.000894568 0.000331036)
(-0.001379 -0.000917819 0.000317391)
(-0.00141306 -0.000942384 0.000302819)
(-0.00144881 -0.000968072 0.000287214)
(-0.00148601 -0.000994696 0.000270362)
(-0.00152436 -0.00102202 0.000251961)
(-0.00156345 -0.00104974 0.00023165)
(-0.00160274 -0.00107744 0.00020889)
(-0.00164168 -0.00110456 0.000183082)
(-0.00167894 -0.00113013 0.000153112)
(-0.001713 -0.00115295 0.000117454)
(-0.00174049 -0.00117143 7.43169e-05)
(-0.00175595 -0.00118224 2.51545e-05)
(-0.000331921 -0.000227522 -6.06448e-05)
(-0.000400886 -0.00030879 -5.7496e-05)
(-0.000443871 -0.00038424 -3.82181e-05)
(-0.000494183 -0.000462872 -6.83011e-06)
(-0.000555092 -0.000539318 3.61235e-05)
(-0.000626016 -0.000608416 8.44211e-05)
(-0.000704176 -0.000665903 0.000134107)
(-0.000785863 -0.000710503 0.000182577)
(-0.000867748 -0.000742986 0.000227967)
(-0.000946932 -0.000765017 0.000268827)
(-0.00102085 -0.000778291 0.000303587)
(-0.00108735 -0.00078467 0.000330596)
(-0.00114499 -0.000786746 0.00034893)
(-0.00119352 -0.000787695 0.000358978)
(-0.00123392 -0.00079057 0.000361945)
(-0.00126802 -0.000797957 0.000359267)
(-0.00129965 -0.000810652 0.000352784)
(-0.00133052 -0.000827068 0.000343698)
(-0.00136167 -0.000846111 0.00033284)
(-0.00139395 -0.000867136 0.000320764)
(-0.00142779 -0.00088971 0.000307738)
(-0.00146332 -0.000913566 0.000293816)
(-0.00150047 -0.000938495 0.000278894)
(-0.00153901 -0.000964297 0.000262753)
(-0.00157863 -0.000990741 0.000245085)
(-0.00161893 -0.00101754 0.000225528)
(-0.00165931 -0.00104426 0.000203528)
(-0.00169929 -0.0010704 0.000178524)
(-0.00173748 -0.00109499 0.000149409)
(-0.00177239 -0.00111692 0.000114658)
(-0.00180056 -0.00113466 7.25779e-05)
(-0.00181631 -0.00114503 2.4575e-05)
(-0.000333253 -0.000198277 -3.76186e-05)
(-0.00040248 -0.000274052 -5.86645e-05)
(-0.000445119 -0.000344458 -4.33449e-05)
(-0.000493992 -0.000419098 -1.64113e-05)
(-0.000553715 -0.00049335 2.20753e-05)
(-0.000624606 -0.000562522 6.651e-05)
(-0.000704092 -0.000622213 0.000113458)
(-0.00078829 -0.000670357 0.000160527)
(-0.000873501 -0.000706741 0.000205721)
(-0.000956461 -0.000732226 0.000247207)
(-0.00103436 -0.000748136 0.000283033)
(-0.00110497 -0.000756398 0.000311342)
(-0.00116683 -0.000759773 0.000331094)
(-0.00121961 -0.000761447 0.000342506)
(-0.00126424 -0.000764438 0.000346792)
(-0.0013025 -0.000770812 0.000345421)
(-0.00133666 -0.000781716 0.000339843)
(-0.00136956 -0.000796647 0.000331503)
(-0.00140255 -0.000814757 0.000321387)
(-0.00143651 -0.000834939 0.000310018)
(-0.00147186 -0.000856686 0.000297702)
(-0.00150878 -0.00087967 0.000284505)
(-0.00154721 -0.000903676 0.000270327)
(-0.00158692 -0.000928488 0.000254947)
(-0.00162761 -0.000953892 0.000238047)
(-0.00166887 -0.000979587 0.000219274)
(-0.00171015 -0.00100524 0.000198063)
(-0.00175098 -0.00103034 0.000173886)
(-0.00178989 -0.00105389 0.000145645)
(-0.00182545 -0.00107481 0.000111812)
(-0.00185418 -0.00109176 7.08124e-05)
(-0.00187009 -0.0011017 2.39911e-05)
(-0.000329184 -0.000168446 -1.65208e-05)
(-0.000398112 -0.000238422 -5.91061e-05)
(-0.000439825 -0.0003034 -4.76825e-05)
(-0.000486584 -0.00037351 -2.52793e-05)
(-0.000544393 -0.00044491 8.43176e-06)
(-0.00061461 -0.000513525 4.85288e-05)
(-0.000694984 -0.000574915 9.22049e-05)
(-0.000781485 -0.000626238 0.000137365)
(-0.00087002 -0.000666277 0.000181924)
(-0.000956881 -0.000695039 0.000223696)
(-0.001039 -0.000713523 0.000260388)
(-0.00111402 -0.000723725 0.000289972)
(-0.00118043 -0.000728473 0.000311263)
(-0.00123783 -0.000731007 0.0003243)
(-0.00128682 -0.000734174 0.000330078)
(-0.00132911 -0.000740075 0.000330086)
(-0.00136694 -0.000749758 0.00032577)
(-0.00140289 -0.000763419 0.000318601)
(-0.0014378 -0.000780078 0.000309383)
(-0.00147339 -0.000799067 0.000298824)
(-0.00151021 -0.000819766 0.000287318)
(-0.00154844 -0.000841753 0.000274932)
(-0.00158802 -0.000864759 0.000261572)
(-0.00162876 -0.000888555 0.000247014)
(-0.00167032 -0.000912906 0.000230933)
(-0.00171237 -0.00093753 0.000212983)
(-0.00175419 -0.00096201 0.000192562)
(-0.00179549 -0.000985902 0.000169206)
(-0.00183475 -0.00100825 0.000141838)
(-0.00187078 -0.00102811 0.000108927)
(-0.00189985 -0.00104416 6.90276e-05)
(-0.00191568 -0.00105358 2.3404e-05)
(-0.000319915 -0.000139141 2.01615e-06)
(-0.000387687 -0.00020264 -5.90059e-05)
(-0.000427737 -0.000262083 -5.11468e-05)
(-0.000471615 -0.000327031 -3.32294e-05)
(-0.000526577 -0.000394779 -4.51077e-06)
(-0.000595293 -0.000462034 3.07806e-05)
(-0.000676017 -0.00052452 7.05811e-05)
(-0.000764521 -0.000578592 0.000113215)
(-0.000856237 -0.000621961 0.000156579)
(-0.000947119 -0.000653893 0.00019822)
(-0.00103378 -0.000675007 0.000235564)
(-0.00111359 -0.000687184 0.000266364)
(-0.00118492 -0.000693349 0.000289274)
(-0.00124706 -0.000696651 0.000304074)
(-0.00130063 -0.000700023 0.000311594)
(-0.00134709 -0.000705536 0.000313189)
(-0.00138866 -0.000714394 0.000310347)
(-0.00142756 -0.000726909 0.000304478)
(-0.001465 -0.000742218 0.000296418)
(-0.00150259 -0.000759962 0.000286916)
(-0.00154092 -0.000779462 0.000276376)
(-0.0015803 -0.000800269 0.000264905)
(-0.00162075 -0.00082208 0.000252429)
(-0.00166209 -0.000844646 0.000238736)
(-0.00170405 -0.000867725 0.000223497)
(-0.00174631 -0.00089103 0.000206376)
(-0.00178828 -0.000914163 0.000186761)
(-0.00182978 -0.00093668 0.000164263)
(-0.00186914 -0.000957709 0.000137814)
(-0.0019053 -0.000976363 0.000105865)
(-0.00193453 -0.000991454 6.71361e-05)
(-0.00195015 -0.00100025 2.2784e-05)
(-0.000302759 -0.000109971 1.75917e-05)
(-0.000371309 -0.000167664 -5.80661e-05)
(-0.000408451 -0.000221122 -5.37137e-05)
(-0.000448686 -0.000280426 -4.00436e-05)
(-0.000499921 -0.0003438 -1.64143e-05)
(-0.000566121 -0.000408756 1.36479e-05)
(-0.000646252 -0.000471426 4.89012e-05)
(-0.00073617 -0.000527611 8.82555e-05)
(-0.000830956 -0.000574078 0.000129748)
(-0.00092596 -0.000609138 0.000170745)
(-0.00101737 -0.000632909 0.000208421)
(-0.00110236 -0.000647171 0.000240329)
(-0.00117891 -0.000654731 0.000264875)
(-0.00124637 -0.000658901 0.000281646)
(-0.00130491 -0.000662497 0.000291166)
(-0.00135586 -0.000667653 0.000294631)
(-0.00140123 -0.000675659 0.000293471)
(-0.00144326 -0.000687031 0.000289098)
(-0.00148319 -0.000701008 0.000282364)
(-0.00152265 -0.00071738 0.000274069)
(-0.00156242 -0.000735527 0.000264641)
(-0.00160285 -0.000754979 0.000254206)
(-0.001644 -0.000775413 0.000242714)
(-0.00168576 -0.000796561 0.000229968)
(-0.00172789 -0.000818193 0.000215636)
(-0.00177016 -0.000840036 0.000199402)
(-0.00181195 -0.000861638 0.000180626)
(-0.00185336 -0.000882652 0.000159033)
(-0.00189245 -0.000902236 0.000133553)
(-0.00192856 -0.000919636 0.000102617)
(-0.00195774 -0.000933689 6.51299e-05)
(-0.00197301 -0.000941807 2.21296e-05)
(-0.00027889 -8.20491e-05 3.01446e-05)
(-0.000348465 -0.000134449 -5.62826e-05)
(-0.000382277 -0.000181497 -5.52501e-05)
(-0.000417704 -0.000234616 -4.54781e-05)
(-0.000463895 -0.000292636 -2.68609e-05)
(-0.000526286 -0.000354144 -2.35354e-06)
(-0.000604958 -0.000416104 2.76567e-05)
(-0.000695813 -0.00047388 6.28741e-05)
(-0.000793299 -0.000523094 0.00010167)
(-0.000892413 -0.000561247 0.000141378)
(-0.000988913 -0.000587869 0.000178998)
(-0.00107939 -0.00060432 0.000211824)
(-0.00116179 -0.000613451 0.00023805)
(-0.00123478 -0.000618351 0.000256875)
(-0.00129854 -0.000622034 0.000268589)
(-0.0013542 -0.000626735 0.000274179)
(-0.00140376 -0.000633907 0.000275003)
(-0.00144904 -0.000644021 0.000272352)
(-0.00149161 -0.00065661 0.000267172)
(-0.00153312 -0.000671562 0.000260287)
(-0.0015743 -0.000688227 0.000252121)
(-0.00161564 -0.000706172 0.000242849)
(-0.0016573 -0.00072507 0.000232447)
(-0.00169921 -0.00074465 0.000220729)
(-0.00174116 -0.000764673 0.000207366)
(-0.001783 -0.000784864 0.00019206)
(-0.00182428 -0.000804828 0.000174162)
(-0.00186528 -0.000824233 0.000153522)
(-0.0019038 -0.000842307 0.000129063)
(-0.00193948 -0.000858332 9.91765e-05)
(-0.00196838 -0.000871293 6.30076e-05)
(-0.00198314 -0.000878696 2.14413e-05)
(-0.000247941 -5.62798e-05 3.94293e-05)
(-0.000317844 -0.000103091 -5.34832e-05)
(-0.00034874 -0.000143893 -5.55581e-05)
(-0.000379138 -0.000190717 -4.92818e-05)
(-0.000419523 -0.000242783 -3.54296e-05)
(-0.000476775 -0.000299702 -1.66148e-05)
(-0.000552199 -0.000359461 7.50941e-06)
(-0.000642514 -0.000417639 3.76151e-05)
(-0.000742272 -0.000469275 7.27432e-05)
(-0.000845451 -0.000510552 0.000110366)
(-0.00094708 -0.000540142 0.000147356)
(-0.00104357 -0.000559109 0.000180838)
(-0.00113192 -0.000569781 0.000208602)
(-0.00121103 -0.000575535 0.000229608)
(-0.00128059 -0.000579328 0.000243761)
(-0.00134153 -0.000583561 0.000251788)
(-0.00139539 -0.000589707 0.00025485)
(-0.00144428 -0.000598502 0.000254224)
(-0.00148959 -0.00060958 0.000250838)
(-0.00153298 -0.000622888 0.000245531)
(-0.00157549 -0.000637923 0.000238795)
(-0.00161763 -0.000654231 0.000230829)
(-0.00165959 -0.000671475 0.000221631)
(-0.00170139 -0.000689382 0.000211037)
(-0.00174287 -0.000707713 0.000198716)
(-0.00178405 -0.000726211 0.000184404)
(-0.00182444 -0.000744451 0.000167413)
(-0.00186469 -0.000762176 0.000147766)
(-0.0019022 -0.000778667 0.000124367)
(-0.00193727 -0.000793328 9.55679e-05)
(-0.00196567 -0.000805151 6.07879e-05)
(-0.00197974 -0.000811819 2.07266e-05)
(-0.000211727 -3.39026e-05 4.53601e-05)
(-0.000280303 -7.45375e-05 -4.97338e-05)
(-0.000308389 -0.000109269 -5.46203e-05)
(-0.000333087 -0.000149444 -5.12633e-05)
(-0.000366077 -0.000194488 -4.164e-05)
(-0.000416258 -0.000245302 -2.83386e-05)
(-0.000487328 -0.000301715 -1.05827e-05)
(-0.000576593 -0.00035968 1.34006e-05)
(-0.000677639 -0.000413106 4.36761e-05)
(-0.000784469 -0.000457434 7.82076e-05)
(-0.000891526 -0.000490375 0.000113879)
(-0.000993927 -0.000511968 0.000147518)
(-0.00108909 -0.000524676 0.000176725)
(-0.0011747 -0.000531355 0.000199922)
(-0.00125032 -0.000535182 0.000216655)
(-0.00131657 -0.000538709 0.000227323)
(-0.00137523 -0.000543777 0.000232952)
(-0.00142781 -0.000551055 0.000234623)
(-0.00147604 -0.000560501 0.000233305)
(-0.00152164 -0.000572154 0.00022985)
(-0.00156547 -0.00058545 0.000224738)
(-0.00160824 -0.000600005 0.000218225)
(-0.00165027 -0.000615494 0.000210347)
(-0.00169161 -0.000631633 0.000200965)
(-0.00173221 -0.000648178 0.00018974)
(-0.00177215 -0.000664868 0.000176449)
(-0.00181121 -0.000681338 0.000160382)
(-0.00185038 -0.000697357 0.00014177)
(-0.00188652 -0.00071226 0.000119473)
(-0.0019205 -0.000725473 9.17794e-05)
(-0.00194814 -0.000736137 5.8463e-05)
(-0.00196136 -0.000742077 1.99848e-05)
(-0.000169748 -1.55293e-05 4.75008e-05)
(-0.000235042 -4.93015e-05 -4.47e-05)
(-0.000261041 -7.82024e-05 -5.21443e-05)
(-0.000281175 -0.000112075 -5.12357e-05)
(-0.000307518 -0.000150242 -4.51591e-05)
(-0.00034993 -0.000194189 -3.69472e-05)
(-0.000413231 -0.000244885 -2.57525e-05)
(-0.000497611 -0.000300093 -8.72148e-06)
(-0.000598953 -0.000354664 1.55022e-05)
(-0.000709025 -0.000402014 4.57061e-05)
(-0.000820945 -0.000438375 7.90461e-05)
(-0.000930127 -0.000463399 0.00011229)
(-0.00103178 -0.000478226 0.000142494)
(-0.00112419 -0.000486086 0.000167782)
(-0.00120639 -0.000490122 0.000187216)
(-0.00127884 -0.00049315 0.000200839)
(-0.00134243 -0.00049697 0.000209291)
(-0.00139915 -0.000502686 0.000213594)
(-0.00145045 -0.000510379 0.000214624)
(-0.00149793 -0.000520105 0.000213206)
(-0.00154295 -0.000531532 0.000209909)
(-0.00158622 -0.000544258 0.000205011)
(-0.00162806 -0.000557933 0.000198579)
(-0.00166866 -0.000572278 0.000190506)
(-0.00170804 -0.000587047 0.00018045)
(-0.0017465 -0.000601995 0.000168238)
(-0.00178385 -0.000616726 0.000153105)
(-0.00182153 -0.000631022 0.000135558)
(-0.00185583 -0.000644372 0.0001144)
(-0.00188857 -0.0006562 8.7834e-05)
(-0.00191525 -0.000665723 5.60512e-05)
(-0.00192737 -0.000670957 1.92221e-05)
(-0.000125226 -1.69695e-06 4.65152e-05)
(-0.000184921 -2.83274e-05 -3.86384e-05)
(-0.000209151 -5.14993e-05 -4.83805e-05)
(-0.000224462 -7.89061e-05 -4.95281e-05)
(-0.000241556 -0.000109054 -4.61293e-05)
(-0.000272198 -0.000144177 -4.14123e-05)
(-0.000327887 -0.000188464 -3.57459e-05)
(-0.000409018 -0.000240642 -2.66314e-05)
(-0.000507866 -0.000294504 -1.02214e-05)
(-0.000619522 -0.000344357 1.41631e-05)
(-0.000736586 -0.000384829 4.39643e-05)
(-0.000851278 -0.000413244 7.57788e-05)
(-0.000960431 -0.000431165 0.000106523)
(-0.00106013 -0.000440727 0.000133657)
(-0.00114919 -0.000445229 0.000155765)
(-0.00122739 -0.000447578 0.000172372)
(-0.00129635 -0.000450211 0.000183914)
(-0.00135715 -0.000454209 0.000191092)
(-0.00141158 -0.000460035 0.000194742)
(-0.00146147 -0.00046792 0.000195682)
(-0.0015077 -0.00047744 0.000194413)
(-0.00155123 -0.000488266 0.000191281)
(-0.00159261 -0.000500104 0.000186417)
(-0.00163203 -0.000512639 0.000179735)
(-0.00166968 -0.000525632 0.000170894)
(-0.00170596 -0.000538808 0.000159769)
(-0.00174103 -0.000551806 0.000145557)
(-0.00177693 -0.000564444 0.000129119)
(-0.00180886 -0.000576298 0.000109131)
(-0.00183985 -0.000586721 8.36967e-05)
(-0.00186524 -0.000595105 5.35299e-05)
(-0.00187612 -0.000599706 1.84338e-05)
(-7.82286e-05 7.23076e-06 4.18835e-05)
(-0.000129573 -1.17792e-05 -3.07507e-05)
(-0.000151134 -2.86956e-05 -4.20963e-05)
(-0.000163642 -4.99257e-05 -4.3942e-05)
(-0.000177776 -7.29333e-05 -4.10192e-05)
(-0.000203866 -9.91483e-05 -4.04856e-05)
(-0.000244062 -0.000133298 -4.2768e-05)
(-0.000308728 -0.000178909 -4.06619e-05)
(-0.000404744 -0.000232615 -3.15162e-05)
(-0.000517135 -0.000284419 -1.46129e-05)
(-0.000636862 -0.00032843 9.99739e-06)
(-0.000758629 -0.000361849 3.92494e-05)
(-0.000873957 -0.000383068 6.94972e-05)
(-0.000980702 -0.000394907 9.79056e-05)
(-0.00107663 -0.000400349 0.000122426)
(-0.00116181 -0.00040272 0.000142149)
(-0.00123619 -0.000404273 0.000156914)
(-0.00130163 -0.00040673 0.000167258)
(-0.00135941 -0.000410718 0.000173796)
(-0.00141103 -0.000416517 0.000177238)
(-0.00145818 -0.000424059 0.000178176)
(-0.00150185 -0.000433011 0.000176979)
(-0.00154242 -0.000443015 0.000173802)
(-0.00158036 -0.000453819 0.000168611)
(-0.00161589 -0.000465136 0.000161049)
(-0.00164974 -0.000476704 0.000151056)
(-0.00168223 -0.000488126 0.000137761)
(-0.00171589 -0.000499152 0.000122462)
(-0.00174506 -0.000509659 0.000103685)
(-0.00177413 -0.000518789 7.93876e-05)
(-0.0017981 -0.000526129 5.09202e-05)
(-0.00180741 -0.000530125 1.76268e-05)
(-3.85093e-05 1.08362e-05 3.46576e-05)
(-7.65543e-05 -2.44094e-06 -2.19021e-05)
(-9.97436e-05 -1.39998e-05 -3.0815e-05)
(-0.000114343 -2.87961e-05 -3.74993e-05)
(-0.000119661 -4.50673e-05 -3.99635e-05)
(-0.000126626 -6.39418e-05 -3.76026e-05)
(-0.000176572 -9.41005e-05 -3.68446e-05)
(-0.000218813 -0.000122702 -4.37501e-05)
(-0.000295065 -0.000167735 -4.66997e-05)
(-0.000403085 -0.000221201 -3.80963e-05)
(-0.000527037 -0.000270473 -2.05084e-05)
(-0.000651358 -0.000307894 4.30636e-06)
(-0.000774336 -0.000334327 3.29042e-05)
(-0.000888281 -0.000349482 6.16797e-05)
(-0.000991386 -0.000356722 8.81324e-05)
(-0.00108217 -0.00035916 0.000110595)
(-0.00116213 -0.000360007 0.000128593)
(-0.00123166 -0.000360941 0.000142165)
(-0.0012925 -0.000363126 0.000151759)
(-0.00134664 -0.000367156 0.000158019)
(-0.00139478 -0.000372833 0.000161367)
(-0.00143818 -0.000379915 0.000162224)
(-0.00147767 -0.00038818 0.00016085)
(-0.00151358 -0.000397314 0.000157214)
(-0.0015464 -0.000407043 0.000150965)
(-0.00157701 -0.000417067 0.000142086)
(-0.00160618 -0.00042694 0.000129651)
(-0.00163732 -0.000436498 0.000115545)
(-0.00166296 -0.000445754 9.80027e-05)
(-0.00168964 -0.00045362 7.48389e-05)
(-0.00171179 -0.000459941 4.81747e-05)
(-0.00171944 -0.000463464 1.67886e-05)
(-1.54509e-05 1.05439e-05 2.45868e-05)
(-2.49653e-05 1.6289e-06 -1.16157e-05)
(-3.18279e-05 -5.75814e-07 -2.24445e-05)
(-3.53561e-05 -1.09901e-05 -2.90489e-05)
(-3.78408e-05 -2.15364e-05 -2.68557e-05)
(-4.02409e-05 -2.50372e-05 -3.9129e-05)
(-4.81982e-05 -7.84074e-05 -3.05132e-05)
(-0.000107366 -7.53239e-05 6.24784e-06)
(-0.000201712 -0.000105965 -4.1448e-05)
(-0.000295468 -0.000155947 -5.37326e-05)
(-0.000403837 -0.00020743 -4.52782e-05)
(-0.000534875 -0.000252855 -2.63614e-05)
(-0.000660567 -0.000283461 -1.6202e-06)
(-0.000780776 -0.000303038 2.61538e-05)
(-0.000890107 -0.000312926 5.34995e-05)
(-0.000988107 -0.000316913 7.8304e-05)
(-0.00107338 -0.000317618 9.92757e-05)
(-0.00114774 -0.000317692 0.00011616)
(-0.00121196 -0.000318464 0.000128956)
(-0.00126727 -0.000320594 0.000138038)
(-0.00131574 -0.000324453 0.000143887)
(-0.0013588 -0.000329854 0.000146932)
(-0.00139673 -0.000336482 0.000147448)
(-0.0014303 -0.000344126 0.000145454)
(-0.00146002 -0.000352457 0.000140567)
(-0.00148713 -0.000361192 0.000132826)
(-0.00151288 -0.000369741 0.000121227)
(-0.00154116 -0.000377946 0.000108369)
(-0.00156305 -0.000386236 9.21158e-05)
(-0.00158716 -0.000392951 7.007e-05)
(-0.0016074 -0.000398391 4.53211e-05)
(-0.00161306 -0.000401498 1.59278e-05)
(1.01184e-05 1.0302e-05 2.13765e-05)
(1.75359e-06 4.24527e-06 -1.2925e-05)
(-5.40928e-06 -2.5813e-06 -1.91008e-05)
(-8.70068e-06 -6.29387e-06 -2.10307e-05)
(-1.69286e-05 -1.24414e-05 -2.75479e-05)
(-3.72061e-05 -2.56291e-05 -3.12659e-05)
(-2.53973e-05 -2.67269e-05 -2.86299e-05)
(-3.978e-05 -2.97287e-05 -2.54241e-05)
(-6.40909e-05 -4.87785e-05 -2.74349e-05)
(-0.000171774 -0.000105187 -3.92331e-05)
(-0.000286661 -0.000146208 -4.87243e-05)
(-0.000402298 -0.00019019 -4.92497e-05)
(-0.00053795 -0.000231426 -3.08596e-05)
(-0.000663688 -0.000256365 -6.66138e-06)
(-0.000779341 -0.000270469 2.02354e-05)
(-0.00088147 -0.000276192 4.62985e-05)
(-0.000971932 -0.000277671 6.97309e-05)
(-0.0010496 -0.000277168 8.95849e-05)
(-0.0011161 -0.000276823 0.000105462)
(-0.00117375 -0.000277775 0.000117559)
(-0.00122276 -0.00028022 0.000126026)
(-0.00126477 -0.000284071 0.000131275)
(-0.00130085 -0.000289279 0.000133756)
(-0.00133144 -0.000295594 0.00013343)
(-0.00135738 -0.000302668 0.00012991)
(-0.00138007 -0.000310231 0.000123243)
(-0.00140154 -0.000317454 0.00011237)
(-0.00142659 -0.000324461 0.000100837)
(-0.0014437 -0.000331864 8.58894e-05)
(-0.00146494 -0.000337489 6.49602e-05)
(-0.00148296 -0.000342127 4.22808e-05)
(-0.00148644 -0.000344922 1.50194e-05)
(2.25513e-05 8.20004e-06 2.59691e-05)
(2.74349e-05 5.52389e-06 -1.12971e-06)
(2.14718e-05 6.75722e-06 -1.2755e-06)
(1.04791e-05 7.08901e-06 -8.5109e-06)
(3.67398e-06 2.732e-06 -1.6493e-05)
(-1.17996e-06 -6.76861e-06 2.65534e-07)
(-2.58712e-05 2.22808e-05 -1.66074e-05)
(-1.96283e-05 -1.12638e-05 -4.24874e-05)
(-3.1632e-05 -2.9679e-05 -3.20381e-05)
(-6.66027e-05 -6.34769e-05 -2.91121e-05)
(-0.000152966 -8.57452e-05 -2.80302e-05)
(-0.000294619 -0.000128766 -5.74242e-05)
(-0.000406231 -0.000173732 -5.56222e-05)
(-0.00053398 -0.00020766 -3.46471e-05)
(-0.000653663 -0.000226337 -9.99129e-06)
(-0.000762537 -0.000236202 1.58507e-05)
(-0.000856778 -0.000239291 4.06755e-05)
(-0.000938838 -0.000239555 6.31375e-05)
(-0.00100815 -0.000239049 8.19314e-05)
(-0.00106575 -0.000238881 9.67381e-05)
(-0.00111393 -0.00024013 0.000107685)
(-0.0011549 -0.000242859 0.000115154)
(-0.00118853 -0.000246859 0.0001196)
(-0.00121577 -0.000252113 0.000120971)
(-0.00123767 -0.000258175 0.000118849)
(-0.00125582 -0.000264873 0.000113245)
(-0.00127334 -0.000270963 0.000103057)
(-0.00129515 -0.000276991 9.29645e-05)
(-0.00130749 -0.000283829 7.93887e-05)
(-0.0013257 -0.000288418 5.95438e-05)
(-0.00134138 -0.000292402 3.90907e-05)
(-0.00134264 -0.000294983 1.40787e-05)
(3.56704e-05 1.39827e-05 4.03111e-05)
(4.64926e-05 1.16269e-05 -7.61763e-06)
(4.72278e-05 6.52521e-06 -1.31258e-05)
(4.37337e-05 -1.99079e-06 -1.60783e-05)
(3.8853e-05 -9.3578e-06 -1.66091e-05)
(3.10189e-05 -1.25581e-05 -1.39801e-05)
(3.22697e-06 -1.55219e-05 -1.63909e-05)
(5.43834e-06 -1.04372e-05 -1.96708e-05)
(-2.31397e-05 -1.5092e-05 -3.38688e-05)
(-3.7029e-05 -2.63113e-05 -4.82261e-05)
(-5.08331e-05 -4.35363e-05 -3.92998e-05)
(-0.000134466 -8.51967e-05 -4.16128e-05)
(-0.000277185 -0.000122873 -5.3124e-05)
(-0.000402252 -0.000156123 -5.34646e-05)
(-0.0005257 -0.000182953 -3.53776e-05)
(-0.000634455 -0.000196392 -1.14336e-05)
(-0.000733279 -0.000202856 1.35061e-05)
(-0.000816584 -0.000204235 3.75991e-05)
(-0.000886076 -0.000204092 5.86547e-05)
(-0.000945348 -0.000204096 7.60342e-05)
(-0.000993246 -0.000204954 8.93686e-05)
(-0.00103205 -0.000206838 9.88449e-05)
(-0.0010629 -0.000209949 0.00010522)
(-0.00108619 -0.000214388 0.000108237)
(-0.00110327 -0.000219539 0.000107457)
(-0.00111578 -0.00022545 0.000102769)
(-0.00112823 -0.000230105 9.30775e-05)
(-0.00114646 -0.000235392 8.45653e-05)
(-0.00115293 -0.000241582 7.23731e-05)
(-0.00116807 -0.000245174 5.36251e-05)
(-0.00118128 -0.000248648 3.56319e-05)
(-0.0011798 -0.000250952 1.30559e-05)
(4.71757e-05 1.58073e-05 4.67508e-05)
(6.41496e-05 1.32528e-05 -8.11134e-06)
(7.05845e-05 9.44536e-06 -1.59819e-05)
(7.26237e-05 1.96425e-06 -2.03272e-05)
(7.09038e-05 -6.74039e-06 -2.20255e-05)
(6.54379e-05 -1.468e-05 -2.16071e-05)
(5.53919e-05 -2.19501e-05 -2.06014e-05)
(4.57155e-05 -2.38504e-05 -1.69946e-05)
(2.57215e-05 -2.20789e-05 -7.50559e-06)
(-2.30513e-05 2.12254e-06 -3.27542e-05)
(-3.16795e-05 -2.45141e-05 -5.05943e-05)
(-5.31324e-05 -4.35679e-05 -3.11479e-05)
(-0.000142622 -6.73384e-05 -3.83556e-05)
(-0.000270934 -0.000103533 -6.00962e-05)
(-0.000388417 -0.000136076 -5.26756e-05)
(-0.000502643 -0.000157018 -3.34877e-05)
(-0.000599662 -0.000166103 -1.07257e-05)
(-0.000686025 -0.000170619 1.414e-05)
(-0.000756902 -0.000172435 3.67522e-05)
(-0.000813629 -0.000172668 5.58352e-05)
(-0.000858537 -0.000173402 7.09911e-05)
(-0.000895356 -0.000175158 8.22209e-05)
(-0.000922882 -0.000177664 9.03641e-05)
(-0.000941775 -0.000181566 9.49219e-05)
(-0.000954214 -0.000186014 9.54968e-05)
(-0.000961423 -0.000191437 9.16755e-05)
(-0.000970696 -0.00019484 8.24807e-05)
(-0.000985144 -0.000199574 7.57186e-05)
(-0.000985796 -0.000205069 6.4963e-05)
(-0.000998198 -0.000207842 4.72943e-05)
(-0.001009 -0.000211055 3.19772e-05)
(-0.00100523 -0.000213002 1.19833e-05)
(5.43206e-05 1.4485e-05 4.72932e-05)
(7.59352e-05 1.17669e-05 -7.26907e-06)
(8.6102e-05 8.0557e-06 -1.58047e-05)
(9.17119e-05 5.81429e-07 -2.10474e-05)