/*--------------------------------*- C++ -*----------------------------------*\
  =========                 |
  \\      /  F ield         | OpenFOAM: The Open Source CFD Toolbox
   \\    /   O peration     | Website:  https://openfoam.org
    \\  /    A nd           | Version:  6
     \\/     M anipulation  |
\*---------------------------------------------------------------------------*/
FoamFile
{
    version     2.0;
    format      ascii;
    class       volVectorField;
    location    "25";
    object      wallShearStress;
}
// * * * * * * * * * * * * * * * * * * * * * * * * * * * * * * * * * * * * * //

dimensions      [0 2 -2 0 0 0 0];

internalField   uniform (0 0 0);

boundaryField
{
    inlet
    {
        type            calculated;
        value           uniform (0 0 0);
    }
    outlet
    {
        type            calculated;
        value           uniform (0 0 0);
    }
    roughCylinder
    {
        type            calculated;
        value           nonuniform List<vector> 
5120
(
(-0.00024165 -0.000342706 -0.000172161)
(-0.000296107 -0.000444969 -3.95706e-05)
(-0.00032931 -0.0005359 1.4697e-06)
(-0.000374355 -0.000622527 5.51514e-05)
(-0.000430107 -0.000697096 0.000116455)
(-0.00049309 -0.000755274 0.000177562)
(-0.00055972 -0.00079459 0.000234181)
(-0.000625391 -0.000815687 0.000283652)
(-0.000686235 -0.000821274 0.000324024)
(-0.000740637 -0.000816749 0.000354924)
(-0.000789101 -0.000810631 0.000378251)
(-0.000831453 -0.000806943 0.000395322)
(-0.00086548 -0.000806408 0.000405221)
(-0.000894219 -0.000810935 0.000408913)
(-0.000918857 -0.000819878 0.000407473)
(-0.000940717 -0.000832524 0.000401904)
(-0.000961132 -0.000848143 0.000393206)
(-0.000981248 -0.000866124 0.00038221)
(-0.00100194 -0.000886032 0.000369533)
(-0.00102378 -0.000907593 0.000355555)
(-0.00104709 -0.000930648 0.000340457)
(-0.00107196 -0.000955069 0.000324252)
(-0.00109833 -0.000980735 0.000306839)
(-0.00112604 -0.00100748 0.000288043)
(-0.00115484 -0.00103506 0.000267607)
(-0.0011844 -0.00106317 0.000245195)
(-0.0012143 -0.00109133 0.00022033)
(-0.00124398 -0.00111896 0.000192354)
(-0.0012726 -0.00114513 0.000160195)
(-0.00129873 -0.00116853 0.000122489)
(-0.00131964 -0.00118735 7.72773e-05)
(-0.00133141 -0.00119842 2.60983e-05)
(-0.000259518 -0.000331586 -0.000162629)
(-0.000317057 -0.00043118 -4.2052e-05)
(-0.000352739 -0.000520896 -4.20727e-06)
(-0.000399803 -0.000607326 4.62217e-05)
(-0.000457164 -0.000682931 0.000105063)
(-0.000521615 -0.000742837 0.000164511)
(-0.000589564 -0.000784212 0.000220066)
(-0.000656689 -0.000807638 0.00026897)
(-0.000719775 -0.00081629 0.000309438)
(-0.000777631 -0.000816053 0.00034153)
(-0.00083008 -0.00081355 0.000366771)
(-0.000875947 -0.00081116 0.000385635)
(-0.00091233 -0.000809154 0.000396416)
(-0.00094252 -0.000812655 0.000400613)
(-0.000968612 -0.000820941 0.000399462)
(-0.000991846 -0.00083326 0.000394099)
(-0.00101361 -0.000848758 0.000385567)
(-0.00103509 -0.000866747 0.000374736)
(-0.00105718 -0.000886731 0.000362248)
(-0.00108047 -0.000908394 0.000348508)
(-0.00110527 -0.000931542 0.000333693)
(-0.00113169 -0.000956043 0.000317829)
(-0.00115965 -0.000981757 0.000300814)
(-0.00118897 -0.00100852 0.000282462)
(-0.0012194 -0.00103609 0.000262515)
(-0.00125057 -0.00106414 0.000240628)
(-0.00128206 -0.00109223 0.000216324)
(-0.00131326 -0.00111973 0.000188941)
(-0.00134331 -0.00114579 0.000157421)
(-0.00137072 -0.00116905 0.000120415)
(-0.00139263 -0.00118774 7.5987e-05)
(-0.00140496 -0.00119872 2.56614e-05)
(-0.000277188 -0.000315428 -0.000146229)
(-0.000337496 -0.000412106 -4.50329e-05)
(-0.000375471 -0.000499886 -1.0529e-05)
(-0.000424174 -0.000585483 3.6437e-05)
(-0.000482867 -0.000661634 9.25247e-05)
(-0.000548661 -0.000723084 0.000150085)
(-0.00061803 -0.000766733 0.000204519)
(-0.000686994 -0.000793183 0.000253036)
(-0.00075283 -0.000805794 0.000294047)
(-0.000814332 -0.000810004 0.000327623)
(-0.000870512 -0.000810733 0.000354553)
(-0.000919454 -0.000809621 0.000374626)
(-0.000959086 -0.000807204 0.000386517)
(-0.000990838 -0.000809418 0.000391224)
(-0.00101844 -0.000816876 0.000390353)
(-0.00104313 -0.000828693 0.00038524)
(-0.00106633 -0.000843922 0.000376925)
(-0.00108925 -0.000861773 0.000366313)
(-0.00111279 -0.000881679 0.000354075)
(-0.00113758 -0.000903284 0.000340624)
(-0.00116392 -0.000926367 0.000326155)
(-0.00119191 -0.000950777 0.000310691)
(-0.00122147 -0.000976366 0.00029413)
(-0.00125241 -0.00100296 0.000276282)
(-0.00128445 -0.00103032 0.00025688)
(-0.00131722 -0.00105813 0.000235578)
(-0.00135027 -0.00108594 0.000211893)
(-0.00138296 -0.00111315 0.000185166)
(-0.00141442 -0.00113889 0.000154348)
(-0.00144307 -0.00116185 0.000118115)
(-0.00146595 -0.00118029 7.45565e-05)
(-0.00147881 -0.00119109 2.51788e-05)
(-0.000292918 -0.000295513 -0.000125632)
(-0.000355573 -0.00038874 -4.80884e-05)
(-0.00039539 -0.000473864 -1.71035e-05)
(-0.000445153 -0.000557989 2.62218e-05)
(-0.000504748 -0.000634197 7.92896e-05)
(-0.000571675 -0.000697005 0.000134701)
(-0.000642552 -0.000743131 0.000187859)
(-0.000713685 -0.000773125 0.000236021)
(-0.00078256 -0.000790171 0.000277716)
(-0.000847662 -0.000798805 0.00031279)
(-0.000907399 -0.000802567 0.000341289)
(-0.000959613 -0.000802956 0.000362474)
(-0.00100293 -0.00080129 0.000375649)
(-0.00103681 -0.000801832 0.000380915)
(-0.00106602 -0.000808366 0.00038043)
(-0.00109229 -0.000819539 0.000375625)
(-0.00111702 -0.000834359 0.000367585)
(-0.00114143 -0.000851944 0.000357256)
(-0.00116649 -0.000871669 0.000345328)
(-0.0011928 -0.000893108 0.000332226)
(-0.00122067 -0.000916003 0.000318158)
(-0.00125022 -0.000940189 0.000303143)
(-0.00128135 -0.000965512 0.000287083)
(-0.00131386 -0.000991795 0.000269782)
(-0.00134744 -0.00101879 0.000250968)
(-0.00138173 -0.00104619 0.000230287)
(-0.00141624 -0.00107357 0.000207256)
(-0.00145033 -0.00110031 0.000181215)
(-0.00148311 -0.0011256 0.000151134)
(-0.0015129 -0.00114812 0.000115709)
(-0.00153669 -0.0011662 7.30632e-05)
(-0.00155003 -0.00117677 2.46765e-05)
(-0.000305664 -0.000272105 -0.000102829)
(-0.00037028 -0.000361372 -5.08803e-05)
(-0.00041147 -0.000443219 -2.359e-05)
(-0.000461753 -0.000525295 1.59063e-05)
(-0.000521882 -0.000601126 6.56604e-05)
(-0.000589837 -0.000665188 0.000118616)
(-0.000662395 -0.000714016 0.000170311)
(-0.000736014 -0.000747872 0.00021806)
(-0.000808066 -0.000769408 0.000260394)
(-0.000876629 -0.000782144 0.000296816)
(-0.000939761 -0.00078871 0.000326746)
(-0.00099534 -0.000790679 0.000349099)
(-0.00104204 -0.000789975 0.000363344)
(-0.00107943 -0.000789738 0.000369598)
(-0.00111048 -0.000794966 0.000369661)
(-0.00113847 -0.000805258 0.000365251)
(-0.00116483 -0.000819509 0.000357591)
(-0.00119082 -0.000836683 0.000347624)
(-0.00121739 -0.000856062 0.000336069)
(-0.0012452 -0.000877177 0.000323377)
(-0.0012746 -0.00089974 0.000309762)
(-0.00130566 -0.000923557 0.000295252)
(-0.00133828 -0.000948459 0.000279742)
(-0.00137228 -0.000974261 0.000263033)
(-0.00140731 -0.00100073 0.000244846)
(-0.001443 -0.00102756 0.000224822)
(-0.00147887 -0.00105432 0.000202476)
(-0.00151423 -0.00108044 0.000177146)
(-0.00154819 -0.0011051 0.000147822)
(-0.00157903 -0.00112705 0.000113233)
(-0.00160364 -0.00114465 7.15307e-05)
(-0.00161738 -0.00115491 2.41633e-05)
(-0.000315406 -0.000246586 -7.94804e-05)
(-0.000381463 -0.000331348 -5.32729e-05)
(-0.000423463 -0.000409353 -2.9789e-05)
(-0.000473656 -0.000488798 5.70836e-06)
(-0.000533851 -0.000563751 5.18489e-05)
(-0.000602591 -0.000628801 0.000102001)
(-0.000676809 -0.000680279 0.000151947)
(-0.00075297 -0.000717973 0.000199107)
(-0.000828243 -0.000743777 0.000241928)
(-0.000900285 -0.000760287 0.000279506)
(-0.000966882 -0.000769493 0.000310761)
(-0.00102598 -0.000773086 0.000334332)
(-0.00107627 -0.000773414 0.000349615)
(-0.00111771 -0.000773429 0.000357086)
(-0.0011514 -0.000776929 0.000357929)
(-0.00118128 -0.000786232 0.000354102)
(-0.00120939 -0.000799621 0.0003469)
(-0.00123702 -0.000816164 0.00033739)
(-0.00126518 -0.000835049 0.0003263)
(-0.00129453 -0.000855695 0.000314095)
(-0.00132541 -0.000877773 0.000300999)
(-0.00135793 -0.000901053 0.00028705)
(-0.00139198 -0.000925371 0.000272141)
(-0.00142735 -0.000950526 0.000256067)
(-0.00146372 -0.000976295 0.000238547)
(-0.00150067 -0.00100236 0.000219209)
(-0.00153773 -0.00102835 0.000197574)
(-0.00157419 -0.00105367 0.000172975)
(-0.00160923 -0.00107757 0.000144429)
(-0.00164098 -0.00109879 0.000110697)
(-0.00166629 -0.0011158 6.99646e-05)
(-0.00168036 -0.0011257 2.36413e-05)
(-0.000320974 -0.000219253 -5.64918e-05)
(-0.00038797 -0.000299055 -5.51049e-05)
(-0.000430215 -0.000372693 -3.55113e-05)
(-0.000479711 -0.000448949 -4.20385e-06)
(-0.000539477 -0.000522534 3.79743e-05)
(-0.000608767 -0.000588324 8.49157e-05)
(-0.000684667 -0.000642439 0.000132785)
(-0.000763519 -0.000683952 0.000179126)
(-0.000842123 -0.000713836 0.000222225)
(-0.000917701 -0.000733778 0.000260736)
(-0.000987863 -0.000745443 0.000293166)
(-0.00105062 -0.000750681 0.000317984)
(-0.00110472 -0.00075207 0.000334445)
(-0.00115012 -0.000752702 0.000343076)
(-0.00118799 -0.000755596 0.000345175)
(-0.00122001 -0.000762904 0.000342053)
(-0.00125006 -0.000775313 0.000335485)
(-0.0012795 -0.000791052 0.000326546)
(-0.00130927 -0.000809211 0.000316011)
(-0.00134015 -0.000829201 0.000304369)
(-0.00137249 -0.00085063 0.000291868)
(-0.00140641 -0.000873235 0.000278544)
(-0.0014418 -0.000896818 0.000264292)
(-0.00147844 -0.000921188 0.000248903)
(-0.001516 -0.000946116 0.000232089)
(-0.00155406 -0.0009713 0.000213472)
(-0.00159217 -0.000996363 0.000192575)
(-0.00162959 -0.00102075 0.000168724)
(-0.00166551 -0.00104373 0.000140968)
(-0.00169805 -0.00106412 0.000108113)
(-0.00172396 -0.00108044 6.83747e-05)
(-0.00173825 -0.00108992 2.31144e-05)
(-0.000322422 -0.00019117 -3.48084e-05)
(-0.000389719 -0.000265581 -5.63583e-05)
(-0.000431603 -0.000334403 -4.06424e-05)
(-0.000479725 -0.000406918 -1.36544e-05)
(-0.000538429 -0.000478551 2.424e-05)
(-0.000607781 -0.000544589 6.75413e-05)
(-0.000685017 -0.000600932 0.000112897)
(-0.000766309 -0.000645867 0.000158018)
(-0.000848116 -0.000679445 0.000201032)
(-0.000927361 -0.000702627 0.000240219)
(-0.00100139 -0.000716742 0.000273713)
(-0.00106813 -0.00072373 0.000299804)
(-0.00112635 -0.00072632 0.000317638)
(-0.00117588 -0.000727624 0.000327581)
(-0.00121776 -0.000730504 0.000330917)
(-0.00125372 -0.000736684 0.000329016)
(-0.00128593 -0.000747262 0.000323245)
(-0.00131728 -0.000761664 0.000315001)
(-0.0013488 -0.000778963 0.000305169)
(-0.00138127 -0.000798152 0.000294199)
(-0.00141505 -0.000818779 0.000282375)
(-0.0014503 -0.000840553 0.000269747)
(-0.00148691 -0.000863253 0.000256211)
(-0.00152466 -0.000886686 0.000241555)
(-0.00156324 -0.00091062 0.000225486)
(-0.00160221 -0.000934763 0.000207619)
(-0.00164114 -0.000958757 0.000187482)
(-0.00167927 -0.000982144 0.000164395)
(-0.00171594 -0.00100416 0.000137446)
(-0.00174907 -0.0010236 0.000105484)
(-0.00177543 -0.00103918 6.6764e-05)
(-0.00178984 -0.00104828 2.25852e-05)
(-0.000318533 -0.000162419 -1.49213e-05)
(-0.000385565 -0.00023114 -5.68851e-05)
(-0.000426471 -0.000294697 -4.5015e-05)
(-0.000472494 -0.000362893 -2.24457e-05)
(-0.000529404 -0.000431907 1.08416e-05)
(-0.000598262 -0.000497632 5.00264e-05)
(-0.000676604 -0.000555879 9.23701e-05)
(-0.000760388 -0.000604087 0.000135831)
(-0.000845589 -0.00064125 0.000178391)
(-0.000928653 -0.000667512 0.000217951)
(-0.00100672 -0.000683977 0.000252327)
(-0.00107767 -0.000692698 0.00027966)
(-0.00114018 -0.000696491 0.00029896)
(-0.00119404 -0.000698493 0.000310426)
(-0.00124003 -0.000701426 0.000315151)
(-0.00127981 -0.00070708 0.000314541)
(-0.00131553 -0.000716402 0.000309965)
(-0.00134964 -0.000729531 0.000302802)
(-0.00138293 -0.000745445 0.000293797)
(-0.00141695 -0.000763503 0.000283598)
(-0.00145214 -0.000783136 0.000272548)
(-0.00148863 -0.000803958 0.000260696)
(-0.00152634 -0.000825708 0.000247947)
(-0.00156505 -0.000848165 0.000234082)
(-0.00160445 -0.000871093 0.000218806)
(-0.00164413 -0.000894207 0.000201723)
(-0.00168367 -0.000917151 0.000182371)
(-0.00172217 -0.000939407 0.000160042)
(-0.00175922 -0.000960302 0.000133886)
(-0.00179278 -0.000978737 0.000102829)
(-0.00181938 -0.000993496 6.51443e-05)
(-0.00183362 -0.00100211 2.20561e-05)
(-0.000309845 -0.000134271 2.53111e-06)
(-0.000375669 -0.000196613 -5.69145e-05)
(-0.000415023 -0.000254895 -4.8555e-05)
(-0.000458328 -0.000318238 -3.03808e-05)
(-0.000512624 -0.000383937 -1.92272e-06)
(-0.000580188 -0.000448585 3.27006e-05)
(-0.000658934 -0.000508006 7.14396e-05)
(-0.000744603 -0.000558823 0.000112607)
(-0.00083281 -0.000599075 0.000154133)
(-0.000919761 -0.000628294 0.00019366)
(-0.00100226 -0.00064722 0.00022874)
(-0.00107786 -0.000657797 0.000257296)
(-0.00114515 -0.000662926 0.000278188)
(-0.00120368 -0.000665677 0.000291378)
(-0.00125406 -0.000668744 0.000297754)
(-0.00129776 -0.000673931 0.000298621)
(-0.00133695 -0.000682369 0.000295409)
(-0.00137383 -0.000694342 0.000289463)
(-0.0014095 -0.000708947 0.000281547)
(-0.0014454 -0.000725817 0.000272345)
(-0.00148202 -0.000744304 0.000262213)
(-0.00151961 -0.000763997 0.000251235)
(-0.00155815 -0.000784609 0.000239335)
(-0.00159744 -0.000805903 0.000226303)
(-0.00163722 -0.000827633 0.000211845)
(-0.00167709 -0.000849521 0.000195559)
(-0.00171672 -0.000871206 0.000176996)
(-0.00175523 -0.000892135 0.00015544)
(-0.00179248 -0.000911824 0.000130119)
(-0.00182616 -0.000929127 0.000100014)
(-0.00185282 -0.000942982 6.34303e-05)
(-0.00186677 -0.00095102 2.14989e-05)
(-0.000293399 -0.000106188 1.71615e-05)
(-0.000359851 -0.000162731 -5.61098e-05)
(-0.000396241 -0.000215194 -5.12134e-05)
(-0.000435896 -0.000273056 -3.72173e-05)
(-0.000486555 -0.000334583 -1.37215e-05)
(-0.000551829 -0.000397215 1.58733e-05)
(-0.00063035 -0.000457136 5.03404e-05)
(-0.000717855 -0.000510342 8.85346e-05)
(-0.000809435 -0.000553797 0.000128466)
(-0.000900544 -0.000586033 0.00016753)
(-0.000987641 -0.000607408 0.00020303)
(-0.00106818 -0.000619854 0.000232711)
(-0.00114042 -0.000626201 0.000255194)
(-0.00120384 -0.000629619 0.00027024)
(-0.00125882 -0.000632754 0.000278482)
(-0.00130675 -0.000637535 0.000281102)
(-0.00134958 -0.000645141 0.000279481)
(-0.00138943 -0.000655985 0.000274938)
(-0.00142743 -0.000669291 0.000268268)
(-0.0014651 -0.000684851 0.000260206)
(-0.00150309 -0.00070205 0.000251128)
(-0.00154167 -0.000720453 0.000241138)
(-0.00158088 -0.000739755 0.000230185)
(-0.00162056 -0.0007597 0.000218062)
(-0.00166048 -0.000780052 0.000204484)
(-0.00170028 -0.000800531 0.000189043)
(-0.00173976 -0.000820819 0.000171315)
(-0.00177808 -0.000840344 0.000150575)
(-0.00181517 -0.000858669 0.000126119)
(-0.0018488 -0.000874809 9.70284e-05)
(-0.00187529 -0.000887687 6.16155e-05)
(-0.00188881 -0.000895095 2.09118e-05)
(-0.000270502 -7.93239e-05 2.89327e-05)
(-0.000338088 -0.000130667 -5.45084e-05)
(-0.000371266 -0.000176999 -5.29239e-05)
(-0.000406416 -0.000229054 -4.27812e-05)
(-0.000452449 -0.000285675 -2.41757e-05)
(-0.000514303 -0.000345289 8.30621e-08)
(-0.000591512 -0.000404694 2.96146e-05)
(-0.000679761 -0.000459339 6.39724e-05)
(-0.000773719 -0.00050524 0.000101437)
(-0.000868742 -0.000540331 0.000139392)
(-0.000960802 -0.000564385 0.000174959)
(-0.00104672 -0.000578895 0.000205622)
(-0.00112461 -0.000586694 0.00022978)
(-0.00119348 -0.000590823 0.000246849)
(-0.00125357 -0.000594049 0.00025721)
(-0.00130598 -0.00059835 0.000261839)
(-0.00135268 -0.000605073 0.00026206)
(-0.00139555 -0.000614668 0.000259125)
(-0.00143606 -0.000626642 0.00025392)
(-0.00147564 -0.000640828 0.000247183)
(-0.00151496 -0.000656609 0.000239301)
(-0.00155442 -0.000673577 0.000230423)
(-0.00159411 -0.000691416 0.000220514)
(-0.00163393 -0.000709874 0.000209382)
(-0.00167369 -0.00072871 0.000196748)
(-0.00171309 -0.000747653 0.0001822)
(-0.00175202 -0.000766382 0.000165343)
(-0.00178967 -0.000784357 0.00014544)
(-0.00182644 -0.0008013 0.000121894)
(-0.00185963 -0.000816148 9.38683e-05)
(-0.00188575 -0.000828008 5.96991e-05)
(-0.00189866 -0.000834745 2.0296e-05)
(-0.000240619 -5.44683e-05 3.76275e-05)
(-0.000308552 -0.00010028 -5.18833e-05)
(-0.000338601 -0.000140443 -5.33762e-05)
(-0.000368499 -0.000186255 -4.66844e-05)
(-0.000408633 -0.000236994 -3.27754e-05)
(-0.000465511 -0.000292246 -1.40843e-05)
(-0.000540005 -0.000349891 9.79308e-06)
(-0.00062856 -0.000405507 3.9384e-05)
(-0.000725531 -0.000454232 7.35594e-05)
(-0.000824906 -0.000492495 0.000109735)
(-0.000922052 -0.000519352 0.000144873)
(-0.0010137 -0.000536115 0.000176276)
(-0.00109727 -0.000545264 0.000201985)
(-0.0011718 -0.000550013 0.000221139)
(-0.00123715 -0.00055315 0.00023378)
(-0.00129444 -0.000556898 0.000240692)
(-0.00134528 -0.000562641 0.000243032)
(-0.00139159 -0.000570968 0.000242007)
(-0.00143463 -0.000581468 0.000238479)
(-0.00147601 -0.000594086 0.000233232)
(-0.0015166 -0.000608311 0.000226707)
(-0.00155681 -0.000623713 0.000219074)
(-0.00159681 -0.000639985 0.000210324)
(-0.00163651 -0.000656847 0.000200272)
(-0.0016758 -0.000674073 0.000188653)
(-0.00171446 -0.000691398 0.000175047)
(-0.00175258 -0.000708534 0.000159112)
(-0.00178936 -0.000724976 0.000140084)
(-0.00182532 -0.000740391 0.000117459)
(-0.00185796 -0.000753983 9.05588e-05)
(-0.00188344 -0.000764771 5.76983e-05)
(-0.00189557 -0.000770827 1.96587e-05)
(-0.000205647 -3.29009e-05 4.31817e-05)
(-0.000272571 -7.26829e-05 -4.8379e-05)
(-0.000300064 -0.000107056 -5.2709e-05)
(-0.000324717 -0.000146652 -4.89523e-05)
(-0.000358116 -0.000190943 -3.92349e-05)
(-0.000408604 -0.000240726 -2.59252e-05)
(-0.000479082 -0.000295411 -8.14096e-06)
(-0.000566249 -0.000350673 1.56937e-05)
(-0.000663935 -0.00040079 4.53665e-05)
(-0.000766645 -0.000441809 7.87405e-05)
(-0.000869009 -0.000471789 0.000112778)
(-0.000966529 -0.000491065 0.000144498)
(-0.00105668 -0.000502075 0.00017169)
(-0.00113756 -0.000507686 0.000193019)
(-0.00120894 -0.000510886 0.000208184)
(-0.00127144 -0.000513974 0.000217632)
(-0.00132672 -0.00051861 0.000222375)
(-0.00137642 -0.000525432 0.000223493)
(-0.00142226 -0.000534377 0.000221913)
(-0.0014657 -0.000545392 0.000218405)
(-0.00150754 -0.000557949 0.000213418)
(-0.00154838 -0.000571687 0.000207174)
(-0.00158842 -0.000586279 0.000199693)
(-0.0016277 -0.000601469 0.000190805)
(-0.00166616 -0.000617015 0.000180262)
(-0.00170365 -0.000632664 0.000167636)
(-0.00174044 -0.000648123 0.000152648)
(-0.0017757 -0.000662915 0.00013449)
(-0.00181079 -0.000676875 0.00011282)
(-0.00184236 -0.000689106 8.70875e-05)
(-0.001867 -0.000698832 5.56094e-05)
(-0.00187813 -0.000704213 1.89995e-05)
(-0.000165094 -1.51002e-05 4.5214e-05)
(-0.000228857 -4.81174e-05 -4.35828e-05)
(-0.000254008 -7.67132e-05 -5.04343e-05)
(-0.00027357 -0.000109927 -4.90629e-05)
(-0.000299742 -0.000147139 -4.28386e-05)
(-0.000342267 -0.00019004 -3.46059e-05)
(-0.000405473 -0.00023943 -2.32843e-05)
(-0.000489279 -0.000292969 -6.11658e-06)
(-0.000588769 -0.000345165 1.79217e-05)
(-0.000695407 -0.000389517 4.7408e-05)
(-0.000802916 -0.000422908 7.94737e-05)
(-0.000906896 -0.000445283 0.000110994)
(-0.00100329 -0.000458177 0.000139281)
(-0.00109056 -0.000464714 0.000162669)
(-0.00116787 -0.000467861 0.00018039)
(-0.00123594 -0.000470279 0.000192601)
(-0.00129592 -0.000473695 0.000200019)
(-0.00134961 -0.000479036 0.000203627)
(-0.00139827 -0.000486259 0.000204241)
(-0.00144353 -0.000495449 0.000202654)
(-0.00148653 -0.00050622 0.000199391)
(-0.00152782 -0.000518203 0.000194688)
(-0.00156774 -0.000531079 0.000188604)
(-0.00160628 -0.000544561 0.000180973)
(-0.00164355 -0.00055842 0.000171574)
(-0.0016795 -0.00057241 0.00015997)
(-0.00171468 -0.000586245 0.000145971)
(-0.00174829 -0.000599533 0.00012871)
(-0.00178189 -0.000611932 0.000107983)
(-0.00181235 -0.000622908 8.3483e-05)
(-0.00183581 -0.000631559 5.34481e-05)
(-0.00184576 -0.000636305 1.83253e-05)
(-0.000122027 -1.97985e-06 4.42715e-05)
(-0.000180566 -2.79447e-05 -3.78206e-05)
(-0.00020429 -5.10747e-05 -4.70078e-05)
(-0.000219649 -7.82754e-05 -4.77565e-05)
(-0.000237613 -0.000108189 -4.42794e-05)
(-0.000269507 -0.000143135 -3.95475e-05)
(-0.000326141 -0.000186823 -3.37069e-05)
(-0.000405796 -0.000237151 -2.41784e-05)
(-0.000501615 -0.000288009 -7.42751e-06)
(-0.000609554 -0.000334588 1.67119e-05)
(-0.000721766 -0.000371698 4.56023e-05)
(-0.000831344 -0.000397379 7.59897e-05)
(-0.000934998 -0.000413127 0.00010495)
(-0.00102936 -0.000421223 0.000130212)
(-0.00111357 -0.000424851 0.000150579)
(-0.00118754 -0.000426706 0.000165712)
(-0.00125259 -0.000428926 0.000176059)
(-0.00131001 -0.000432546 0.000182356)
(-0.00136172 -0.000437998 0.000185443)
(-0.0014092 -0.000445393 0.000186063)
(-0.00145336 -0.000454329 0.000184724)
(-0.00149495 -0.00046451 0.000181719)
(-0.00153439 -0.000475617 0.00017714)
(-0.00157184 -0.000487396 0.00017085)
(-0.00160749 -0.000499587 0.000162649)
(-0.00164136 -0.000511939 0.000152087)
(-0.00167434 -0.000524151 0.00013909)
(-0.00170542 -0.000535867 0.000122691)
(-0.00173756 -0.000546857 0.000102934)
(-0.00176625 -0.000556513 7.97089e-05)
(-0.00178837 -0.000564157 5.11985e-05)
(-0.00179686 -0.000568316 1.7631e-05)
(-7.62927e-05 7.27588e-06 4.03839e-05)
(-0.000126539 -1.11817e-05 -3.0342e-05)
(-0.000147605 -2.83672e-05 -4.1132e-05)
(-0.000159671 -4.94797e-05 -4.27252e-05)
(-0.000173307 -7.20466e-05 -3.99043e-05)
(-0.00019936 -9.82918e-05 -3.93775e-05)
(-0.000238794 -0.00013156 -4.0635e-05)
(-0.000304593 -0.000175962 -3.7451e-05)
(-0.000401912 -0.00022855 -2.81437e-05)
(-0.000511875 -0.000277645 -1.13802e-05)
(-0.000627888 -0.000318885 1.28264e-05)
(-0.000744245 -0.000349218 4.09998e-05)
(-0.000853982 -0.000368011 6.97033e-05)
(-0.000955021 -0.000378054 9.63173e-05)
(-0.00104544 -0.000382274 0.000119032)
(-0.00112543 -0.000383816 0.000137098)
(-0.00119554 -0.000384909 0.000150509)
(-0.00125747 -0.000387053 0.000159809)
(-0.00131222 -0.000390686 0.000165596)
(-0.00136144 -0.000396099 0.000168581)
(-0.00140656 -0.000403139 0.000169347)
(-0.00144824 -0.000411505 0.000168192)
(-0.00148702 -0.000420893 0.000165252)
(-0.00152301 -0.00043101 0.000160391)
(-0.00155662 -0.000441617 0.000153452)
(-0.00158802 -0.000452455 0.000143961)
(-0.00161853 -0.000463197 0.000132008)
(-0.00164709 -0.000473604 0.000116492)
(-0.00167704 -0.000483114 9.76667e-05)
(-0.00170405 -0.000491647 7.57963e-05)
(-0.00172442 -0.000498301 4.88741e-05)
(-0.00173125 -0.000501952 1.69233e-05)
(-3.86152e-05 1.03175e-05 3.40083e-05)
(-7.73427e-05 -1.93921e-06 -2.11781e-05)
(-9.9332e-05 -1.33836e-05 -3.06818e-05)
(-0.00011177 -2.81779e-05 -3.6481e-05)
(-0.000117516 -4.39409e-05 -3.80785e-05)
(-0.000126365 -6.3593e-05 -3.53273e-05)
(-0.000167304 -8.87391e-05 -3.45266e-05)
(-0.000231428 -0.000122291 -4.34118e-05)
(-0.000298154 -0.000165803 -4.71657e-05)
(-0.000402578 -0.000218102 -3.5634e-05)
(-0.000521013 -0.000263188 -1.71635e-05)
(-0.000640483 -0.000297718 7.20942e-06)
(-0.000757566 -0.000321297 3.45067e-05)
(-0.000865823 -0.000334496 6.16366e-05)
(-0.00096359 -0.00034048 8.63367e-05)
(-0.00104977 -0.000342251 0.000107171)
(-0.00112535 -0.000342637 0.000123706)
(-0.00119101 -0.000343229 0.000136045)
(-0.00124887 -0.000345146 0.000144727)
(-0.00130039 -0.000348808 0.000150345)
(-0.00134646 -0.000354022 0.000153404)
(-0.00138802 -0.00036062 0.000154245)
(-0.00142569 -0.000368318 0.000153039)
(-0.0014598 -0.000376868 0.000149683)
(-0.00149085 -0.00038599 0.000144044)
(-0.00151916 -0.000395408 0.000135621)
(-0.0015465 -0.000404741 0.000124713)
(-0.00157138 -0.000413817 0.000110009)
(-0.00159932 -0.000422061 9.21376e-05)
(-0.00162383 -0.000429425 7.16749e-05)
(-0.00164233 -0.000435212 4.64395e-05)
(-0.0016472 -0.000438417 1.61897e-05)
(-1.6268e-05 1.02444e-05 2.4292e-05)
(-2.55797e-05 1.08134e-06 -1.2985e-05)
(-3.1338e-05 -3.09269e-06 -1.9305e-05)
(-3.60273e-05 -1.06859e-05 -2.38127e-05)
(-3.91149e-05 -1.89291e-05 -2.48461e-05)
(-4.00636e-05 -2.56231e-05 -2.49123e-05)
(-5.01201e-05 -3.81161e-05 -2.58641e-05)
(-0.000100934 -8.25338e-05 -2.73007e-05)
(-0.000202478 -0.000116055 -2.96109e-05)
(-0.000291575 -0.000153076 -4.8247e-05)
(-0.000405404 -0.000204926 -4.102e-05)
(-0.00053046 -0.000246087 -2.2762e-05)
(-0.00065106 -0.000274153 1.15767e-06)
(-0.000765106 -0.000291284 2.75805e-05)
(-0.000868387 -0.000299428 5.33427e-05)
(-0.000960445 -0.000302141 7.64756e-05)
(-0.00104078 -0.000302201 9.58895e-05)
(-0.00111116 -0.000301932 0.000111379)
(-0.001172 -0.000302369 0.000123052)
(-0.00122484 -0.000304224 0.00013134)
(-0.00127149 -0.000307685 0.000136809)
(-0.0013126 -0.000312617 0.000139765)
(-0.00134897 -0.000318791 0.00014041)
(-0.00138078 -0.00032591 0.000138629)
(-0.00140885 -0.000333722 0.000134335)
(-0.00143369 -0.000341913 0.000126993)
(-0.00145768 -0.000350063 0.000117177)
(-0.00147913 -0.000358184 0.000103303)
(-0.00150429 -0.000365116 8.63261e-05)
(-0.00152658 -0.000371588 6.73835e-05)
(-0.00154276 -0.000376544 4.3909e-05)
(-0.00154552 -0.000379403 1.54368e-05)
(7.0826e-06 9.1197e-06 1.84678e-05)
(1.16904e-06 2.5041e-06 -9.281e-06)
(-3.01076e-06 6.2456e-07 -1.49923e-05)
(-7.45912e-06 -3.50082e-06 -1.94577e-05)
(-1.32635e-05 -9.36504e-06 -2.35339e-05)
(-2.21021e-05 -1.61902e-05 -2.70695e-05)
(-2.81425e-05 -2.67422e-05 -2.66821e-05)
(-3.59959e-05 -3.94245e-05 -2.18612e-05)
(-7.17973e-05 -5.85402e-05 -1.65155e-05)
(-0.000195974 -9.85068e-05 -3.43976e-05)
(-0.000285802 -0.00013816 -5.24449e-05)
(-0.000402969 -0.000187846 -4.53833e-05)
(-0.000530579 -0.000223779 -2.76245e-05)
(-0.000650599 -0.000246441 -4.17528e-06)
(-0.00076085 -0.000258773 2.13402e-05)
(-0.000858405 -0.000263482 4.59234e-05)
(-0.000944048 -0.000264274 6.78203e-05)
(-0.00101745 -0.000263354 8.61132e-05)
(-0.00108092 -0.000262728 0.000100725)
(-0.00113587 -0.000263345 0.000111828)
(-0.00118305 -0.000265335 0.000119803)
(-0.00122343 -0.000268801 0.000124961)
(-0.00125789 -0.000273585 0.000127501)
(-0.00128692 -0.000279442 0.000127336)
(-0.00131141 -0.000286116 0.000124395)
(-0.00133211 -0.000293209 0.000118092)
(-0.00135198 -0.000300259 0.000109364)
(-0.00136851 -0.000307383 9.6205e-05)
(-0.00139125 -0.000313232 8.01405e-05)
(-0.00141032 -0.000318773 6.28e-05)
(-0.00142415 -0.000323022 4.12134e-05)
(-0.00142446 -0.000325572 1.46378e-05)
(2.20959e-05 6.77921e-06 2.36446e-05)
(2.34702e-05 7.45975e-06 5.14524e-07)
(1.72967e-05 8.5991e-06 -5.36279e-06)
(9.64369e-06 5.32605e-06 -1.13103e-05)
(1.59848e-06 6.64767e-07 -1.51283e-05)
(-5.38358e-06 -5.00361e-06 -1.43374e-05)
(-1.42147e-05 -7.04158e-06 -1.48132e-05)
(-2.63571e-05 -8.85377e-06 -2.53663e-05)
(-3.68839e-05 -2.31318e-05 -3.83978e-05)
(-6.14444e-05 -6.24411e-05 -2.62377e-05)
(-0.000195614 -9.13689e-05 -2.43421e-05)
(-0.00028826 -0.000128699 -5.83642e-05)
(-0.000405625 -0.000171834 -5.07071e-05)
(-0.000529715 -0.000201585 -3.16e-05)
(-0.000642789 -0.000217988 -8.0406e-06)
(-0.000745112 -0.000225847 1.67371e-05)
(-0.000833909 -0.00022803 4.01719e-05)
(-0.000911581 -0.000227769 6.08993e-05)
(-0.000977369 -0.00022674 7.82163e-05)
(-0.00103258 -0.000226279 9.18873e-05)
(-0.00107957 -0.000227077 0.000102308)
(-0.00111874 -0.000229343 0.00010968)
(-0.0011511 -0.000233044 0.000114162)
(-0.00117693 -0.000237852 0.000115632)
(-0.00119746 -0.000243619 0.000114053)
(-0.00121377 -0.000249814 0.00010877)
(-0.00122959 -0.000256006 0.000101202)
(-0.00124187 -0.000262548 8.87867e-05)
(-0.00126154 -0.000267295 7.35597e-05)
(-0.00127795 -0.000272227 5.79855e-05)
(-0.00128905 -0.000275809 3.83755e-05)
(-0.00128694 -0.000278129 1.38015e-05)
(3.31531e-05 1.34628e-05 3.8071e-05)
(4.18944e-05 1.05771e-05 -7.54521e-06)
(4.26296e-05 5.24351e-06 -1.2046e-05)
(3.98026e-05 -2.23651e-06 -1.40694e-05)
(3.41827e-05 -9.14517e-06 -1.3195e-05)
(2.51059e-05 -1.1881e-05 -1.04178e-05)
(1.09759e-05 -8.62255e-06 -7.81468e-06)
(-4.6398e-06 -1.14683e-06 -1.74444e-05)
(-3.22888e-05 -1.14156e-05 -4.50299e-05)
(-4.12051e-05 -3.15832e-05 -7.26481e-05)
(-5.07739e-05 -9.53376e-05 -4.94643e-05)
(-0.000152003 -8.95815e-05 -1.68503e-05)
(-0.000279483 -0.0001123 -5.86924e-05)
(-0.000398222 -0.00015261 -5.26302e-05)
(-0.000517169 -0.000176572 -3.26693e-05)
(-0.000622307 -0.000188425 -9.52669e-06)
(-0.000715247 -0.000193744 1.42764e-05)
(-0.000793973 -0.000194536 3.64208e-05)
(-0.000861065 -0.000193903 5.5927e-05)
(-0.000917754 -0.000193408 7.20035e-05)
(-0.000964475 -0.000193574 8.47415e-05)
(-0.00100203 -0.000195 9.42666e-05)
(-0.00103148 -0.000197865 0.000100613)
(-0.00105361 -0.000201838 0.00010368)
(-0.00106956 -0.000206884 0.0001034)
(-0.00108087 -0.000212237 9.90417e-05)
(-0.00109178 -0.000217569 9.26271e-05)
(-0.00109796 -0.000223276 8.07888e-05)
(-0.00111502 -0.000227175 6.64155e-05)
(-0.00112773 -0.000231457 5.27437e-05)
(-0.00113604 -0.000234374 3.52658e-05)
(-0.00113116 -0.000236369 1.28743e-05)
(4.42868e-05 1.45733e-05 4.32936e-05)
(6.03491e-05 1.20203e-05 -8.23725e-06)
(6.61788e-05 8.0377e-06 -1.56042e-05)
(6.77062e-05 4.47605e-07 -1.93983e-05)
(6.55374e-05 -7.99737e-06 -2.05378e-05)
(5.94304e-05 -1.5957e-05 -1.96957e-05)
(4.93152e-05 -2.17848e-05 -1.72562e-05)
(3.43638e-05 -2.21313e-05 -1.45256e-05)
(2.06963e-05 -2.07665e-05 -1.14989e-05)
(-3.95592e-05 -3.23755e-06 -3.66187e-05)
(-1.08662e-05 -2.30507e-05 -4.5866e-05)
(-5.61804e-05 -3.94749e-05 -2.93123e-05)
(-0.000158988 -6.52782e-05 -4.70081e-05)
(-0.000279556 -0.000102822 -5.92008e-05)
(-0.000387106 -0.000132779 -5.02817e-05)
(-0.000494749 -0.000150852 -3.08578e-05)
(-0.000586713 -0.00015939 -8.52835e-06)
(-0.000668578 -0.000163337 1.379e-05)
(-0.000736258 -0.000164101 3.468e-05)
(-0.000790963 -0.000163811 5.24178e-05)
(-0.000836174 -0.000163806 6.70567e-05)
(-0.000871431 -0.000164781 7.85187e-05)
(-0.000897885 -0.000167272 8.66199e-05)
(-0.000915939 -0.000170597 9.11834e-05)
(-0.000927134 -0.000175168 9.21356e-05)
(-0.000933469 -0.000179697 8.86356e-05)
(-0.000940133 -0.000184369 8.35123e-05)
(-0.000941577 -0.000189409 7.2321e-05)
(-0.00095608 -0.000192726 5.87412e-05)
(-0.000965799 -0.000196669 4.71942e-05)
(-0.000971579 -0.000199012 3.19573e-05)
(-0.000964318 -0.000200692 1.18797e-05)
(5.20006e-05 1.32746e-05 4.41373e-05)
(7.2748e-05 1.06605e-05 -7.22182e-06)
(8.22085e-05 6.6884e-06 -1.53295e-05)