/*--------------------------------*- C++ -*----------------------------------*\
  =========                 |
  \\      /  F ield         | OpenFOAM: The Open Source CFD Toolbox
   \\    /   O peration     | Website:  https://openfoam.org
    \\  /    A nd           | Version:  6
     \\/     M anipulation  |
\*---------------------------------------------------------------------------*/
FoamFile
{
    version     2.0;
    format      ascii;
    class       volScalarField;
    location    "25";
    object      yPlus;
}
// * * * * * * * * * * * * * * * * * * * * * * * * * * * * * * * * * * * * * //

dimensions      [0 0 0 0 0 0 0];

internalField   uniform 0;

boundaryField
{
    inlet
    {
        type            calculated;
        value           uniform 0;
    }
    outlet
    {
        type            calculated;
        value           uniform 0;
    }
    roughCylinder
    {
        type            calculated;
        value           nonuniform List<scalar> 
5120
(
42.6223
50.3859
56.5532
62.5612
67.7026
71.8474
75.156
77.8228
80.0024
81.8309
83.4272
84.8576
86.1603
87.3671
88.5079
89.6124
90.7103
91.8284
92.9888
94.2075
95.493
96.847
98.2662
99.7434
101.268
102.829
104.407
105.98
107.508
108.923
110.082
110.758
41.9393
49.4191
55.3903
61.2622
66.3325
70.4424
73.7323
76.3908
78.5711
80.4071
82.0111
83.4441
84.7374
85.9293
87.0517
88.135
89.2094
90.3029
91.4381
92.63
93.8872
95.2117
96.6
98.0447
99.536
101.06
102.602
104.138
105.63
107.01
108.14
108.798
41.1677
48.4034
54.1926
59.9317
64.9343
69.0162
72.2966
74.9568
77.1474
78.9985
80.6143
82.051
83.3386
84.5194
85.6256
86.6892
87.7422
88.8123
89.9219
91.0873
92.317
93.6123
94.97
96.3826
97.8403
99.3298
100.836
102.335
103.79
105.136
106.237
106.877
40.3895
47.3893
52.9933
58.5927
63.5234
67.5769
70.8503
73.5182
75.7292
77.6054
79.2398
80.6845
81.9725
83.1435
84.2356
85.282
86.3146
87.3624
88.4493
89.59
90.7929
92.0602
93.388
94.7691
96.1932
97.6481
99.1177
100.58
102
103.312
104.384
105.007
39.5439
46.3237
51.7438
57.2036
62.0686
66.1077
69.392
72.0839
74.3255
76.2304
77.8847
79.3402
80.6323
81.7993
82.8816
83.9131
84.9285
85.9569
87.0207
88.1373
89.315
90.5552
91.8544
93.2052
94.5973
96.0185
97.4539
98.881
100.265
101.544
102.588
103.193
38.7078
45.2655
50.4927
55.8032
60.5984
64.6236
67.9198
70.6372
72.9139
74.856
76.5393
78.013
79.316
80.4854
81.561
82.5815
83.5812
84.591
85.6363
86.7316
87.8854
89.0999
90.3713
91.6923
93.053
94.4411
95.841
97.2328
98.5829
99.828
100.845
101.433
37.7981
44.1421
49.171
54.3275
59.0575
63.086
66.4196
69.1873
71.5142
73.4963
75.2079
76.7016
78.0175
79.1952
80.2713
81.2848
82.2737
83.2698
84.2955
85.3696
86.5012
87.6912
88.9362
90.2289
91.5591
92.915
94.2824
95.6406
96.9551
98.17
99.1599
99.7296
36.8965
43.0211
47.8408
52.8308
57.4897
61.522
64.892
67.7043
70.0791
72.1108
73.8653
75.3916
76.7327
77.9257
79.0098
80.0213
81.002
81.9848
82.9974
84.055
85.1658
86.3328
87.5523
88.8169
90.1172
91.4411
92.7743
94.0969
95.3798
96.5616
97.5247
98.0773
35.8961
41.8051
46.4025
51.2113
55.7956
59.8477
63.2883
66.1874
68.6432
70.7348
72.5318
74.0914
75.4563
76.6689
77.765
78.7842
79.7636
80.7416
81.7397
82.7796
83.8717
85.017
86.2124
87.4505
88.7217
90.0148
91.3167
92.6073
93.8551
95.0075
95.9446
96.4794
34.8863
40.5717
44.937
49.5491
54.0496
58.1223
61.6328
64.6055
67.1282
69.2895
71.1517
72.7634
74.1741
75.419
76.538
77.567
78.5508
79.5243
80.5168
81.5466
82.622
83.7472
84.9189
86.1303
87.3723
88.6335
89.9008
91.1551
92.3722
93.4919
94.4023
94.9196
33.7107
39.1795
43.2945
47.6809
52.0763
56.1752
59.7964
62.9145
65.578
67.841
69.7727
71.4409
72.8896
74.1681
75.311
76.3612
77.3558
78.3361
79.3218
80.3387
81.3996
82.506
83.6556
84.8415
86.0547
87.2849
88.5212
89.7448
90.9253
92.0174
92.9017
93.3998
32.4716
37.7329
41.5899
45.7326
50.0077
54.1347
57.8756
61.1208
63.8856
66.255
68.2909
70.0401
71.5653
72.8999
74.0876
75.1629
76.1745
77.1575
78.1468
79.162
80.2113
81.3008
82.4283
83.5884
84.7724
85.9701
87.1703
88.3554
89.5074
90.5644
91.423
91.9024
30.9714
36.0279
39.5915
43.4331
47.5325
51.6634
55.5514
59.0352
62.0649
64.6259
66.7868
68.6386
70.2257
71.6143
72.8408
73.9544
74.9913
75.9964
76.9875
77.9941
79.0335
80.1077
81.2159
82.3513
83.5069
84.6735
85.8428
86.9989
88.1114
89.1433
89.9741
90.434
29.3235
34.2001
37.4748
40.9907
44.8746
49.0004
53.0902
56.8116
60.0042
62.7465
65.0891
67.0703
68.7867
70.2692
71.5739
72.7347
73.8068
74.8235
75.8292
76.8455
77.8795
78.9407
80.0281
81.1385
82.2644
83.3969
84.5277
85.6403
86.7265
87.7203
88.5262
88.965
27.1844
31.8889
34.824
37.9266
41.515
45.5771
49.7658
53.8366
57.5715
60.7042
63.2945
65.4849
67.3109
68.8844
70.2503
71.4732
72.5885
73.6497
74.6695
75.682
76.7117
77.7615
78.8327
79.9191
81.016
82.1163
83.2156
84.3012
85.3435
86.314
87.0894
87.5072
24.662
29.2881
31.94
34.5748
37.6401
41.4438
46.0986
50.7208
54.69
58.1893
61.1467
63.5594
65.6247
67.363
68.8647
70.17
71.3494
72.4329
73.4814
74.5198
75.5526
76.594
77.6454
78.7068
79.772
80.8346
81.8911
82.9253
83.9428
84.87
85.6198
86.0134
20.9407
25.571
27.8366
29.9365
32.7206
36.5991
40.6517
45.5078
50.8564
55.1844
58.674
61.5736
63.8534
65.7626
67.369
68.7764
70.0239
71.186
72.2674
73.3069
74.342
75.3767
76.4155
77.4525
78.4872
79.515
80.5378
81.5471
82.5141
83.4204
84.1353
84.5048
16.1257
21.213
23.6839
25.3314
26.5904
28.6325
34.615
40.9514
45.7494
51.1031
55.5033
58.8322
61.6352
63.8685
65.7292
67.2836
68.6482
69.8481
70.9773
72.0676
73.1179
74.1501
75.169
76.1796
77.1782
78.1614
79.1338
80.0776
81.0204
81.8744
82.5628
82.9018
6.77753
11.2957
11.6925
11.2255
10.3983
5.59231
13.0953
24.4722
38.6841
45.5615
51.3052
55.9637
59.2092
61.8094
63.8737
65.6177
67.0914
68.4301
69.6231
70.7193
71.7804
72.8117
73.8222
74.8066
75.7705
76.7138
77.6482
78.5693
79.4529
80.2882
80.9349
81.245
6.70544
9.78782
9.96619
9.12992
7.13166
7.76922
12.2042
14.8991
20.6746
37.47
45.5428
51.0582
55.7514
59.0842
61.6967
63.7228
65.4301
66.835
68.1077
69.2983
70.3942
71.4307
72.4197
73.3736
74.2923
75.1779
76.047
76.8778
77.7344
78.5034
79.1191
79.3872
10.8977
15.2514
16.5238
16.4501
14.5251
11.8335
12.5161
15.1904
17.1569
19.5506
35.9312
46.1259
51.653
55.9929
59.0448
61.4951
63.3951
65.0632
66.4599
67.6605
68.7803
69.8248
70.8114
71.7341
72.6098
73.4436
74.2681
75.0784
75.866
76.6169
77.1818
77.4118
19.4434
23.7576
25.4795
26.0346
25.2778
22.91
18.717
15.5125
19.4693
26.6999
24.0301
33.5378
45.1719
51.1335
55.6678
58.705
61.1335
62.9308
64.4754
65.863
67.0551
68.1185
69.0772
69.9605
70.7704
71.5219
72.2484
72.9226
73.6669
74.3316
74.85
75.0143
21.66
26.5678
29.2145
31.1297
32.2239
32.3555
31.2359
28.2506
23.0329
25.6777
26.8179
25.585
34.5786
45.6857
50.9978
55.2494
58.0588
60.426
62.2239
63.6168
64.8598
65.9478
66.9167
67.7551
68.5037
69.1757
69.8484
70.5001
71.1782
71.811
72.2785
72.3831
22.4876
27.4923
30.35
32.6111
34.2415
35.2155
35.4578
34.7179
32.2812
26.8891
29.2705
11.6684
14.2278
32.3305
44.8144
50.2541
54.4759
57.0949
59.2158
61.0355
62.4339
63.5694
64.4906
65.2701
65.9023
66.4355
66.931
67.3551
67.9183
68.4525
68.8009
68.7894
21.9456
27.0913
30.1225
32.635
34.5963
36.002
36.8582
37.1585
36.7984
35.2179
31.3616
23.3927
21.2118
21.236
32.9189
43.9438
48.9036
53.0317
55.6932
57.4277
58.9402
60.1441
61.0978
61.799
62.3131
62.7185
63.1399
63.5468
64.1022
64.5009
64.9183
64.7891
20.5538
25.831
28.9591
31.6129
33.7693
35.4315
36.6259
37.3956
37.7816
37.7344
36.7143
33.4465
28.1435
26.5348
19.4837
32.7545
42.5763
46.7285
50.2136
53.1574
55.0487
56.3371
57.1976
57.7685
58.046
58.1006
58.1551
58.1414
58.2721
58.6875
58.5095
58.1144
18.6738
24.0523
27.2164
29.93
32.1882
34.008
35.4217
36.4899
37.2942
37.8955
38.2095
37.6504
33.8635
30.9776
18.52
10.3063
27.474
39.1138
44.0194
46.1467
48.2177
49.8792
50.6366
51.1287
50.9519
51.1099
51.0403
51.6703
51.3986
50.8891
52.1533
51.8028
16.5068
21.8833
24.9863
27.6588
29.923
31.8187
33.3914
34.7014
35.8364
36.8828
37.8578
38.5656
38.1624
34.408
29.4464
24.1159
30.6699
27.4401
31.7708
38.2478
41.8654
43.3223
43.9988
44.0813
43.3092
41.9123
38.8622
37.8223
38.6571
39.6284
36.8093
34.5104
14.288
19.5221
22.4574
24.9859
27.1618
29.0471
30.7021
32.1937
33.6015
35.0103
36.4571
37.8509
38.8331
38.5246
34.7629
28.4683
30.8694
18.3
6.16514
14.6031
20.7314
25.9863
24.6646
24.2918
19.4029
23.0572
35.2116
40.895
25.6466
34.3735
20.3767
23.4808
12.3129
17.2761
19.963
22.2709
24.2867
26.0904
27.753
29.3433
30.9318
32.5892
34.3666
36.2265
37.97
39.1412
38.8248
35.1389
25.6548
24.9354
18.014
24.2644
14.3998
28.0503
14.803
24.4306
4.88497
29.3436
25.07
43.9691
26.4207
10.4411
27.9952
32.6516
10.7854
15.3992
17.8152
19.8789
21.7063
23.3903
25.0056
26.6154
28.2756
30.0382
31.9534
34.0357
36.1994
38.1676
39.4009
39.1108
35.9601
31.0374
28.5356
25.3937
20.0634
31.8224
20.9752
30.0342
25.2783
37.7332
31.3686
41.1661
35.3913
33.6912
30.8771
30.2741
9.65374
14.0216
16.2058
18.0623
19.7294
21.3035
22.853
24.4266
26.0632
27.8
29.6807
31.7488
34.0103
36.3449
38.4017
39.6303
39.6113
37.6676
35.2203
31.6656
27.6247
29.3238
28.9766
29.2817
34.356
33.9528
37.9828
35.1224
38.2268
39.4803
39.1959
40.207
9.04992
13.2243
15.2451
16.9671
18.5373
20.0428
21.5351
23.0439
24.5921
26.2079
27.9318
29.8182
31.9187
34.2343
36.6133
38.6727
39.9715
40.0527
39.5815
38.7613
37.5826
35.3048
38.1049
38.7777
41.2295
40.2242
42.8827
41.0432
42.0405
42.8163
42.7384
43.3261
8.87134
12.9564
14.9053
16.5794
18.1235
19.6086
21.0657
22.5076
23.946
25.4044
26.9206
28.5471
30.3469
32.3771
34.6311
36.9403
38.9478
40.156
40.6922
40.7927
40.4263
39.3713
41.0194
41.479
42.4582
41.7908
43.1698
42.102
42.3667
42.7987
42.949
43.5439
9.04719
13.1221
15.0745
16.7713
18.3454
19.8486
21.2943
22.6842
24.0261
25.3404
26.6607
28.0317
29.5092
31.1593
33.038
35.1312
37.2691
39.0714
40.3692
41.0955
41.2193
40.693
41.6358
41.939
42.1662
41.7471
42.4011
41.5348
41.7127
41.9465
42.0559
42.3901
9.47959
13.5964
15.6018
17.3686
19.0098
20.5593
22.0179
23.3813
24.656
25.8623
27.0302
28.1961
29.4033
30.706
32.1663
33.8323
35.6778
37.515
39.144
40.313
40.8719
40.7868
41.3059
41.3539
41.0862
40.6677
40.8019
40.0672
40.1618
40.358
40.4263
40.4961
10.1142
14.3027
16.3851
18.2422
19.9654
21.5728
23.0577
24.4151
25.6533
26.7933
27.8623
28.889
29.904
30.9449
32.0607
33.3052
34.7097
36.2258
37.7406
39.011
39.8136
40.0284
40.3302
40.1805
39.6256
39.121
38.9141
38.2967
38.3165
38.5358
38.6734
38.6026
10.899
15.1874
17.359
19.312
21.1174
22.7825
24.2975
25.6603
26.8836
27.9908
29.0071
29.9548
30.8533
31.7247
32.6007
33.5226
34.5304
35.6334
36.7967
37.87
38.6568
38.9875
39.1594
38.8948
38.2224
37.6331
37.2234
36.7248
36.712
36.985
37.2676
37.2015
11.742
16.201
18.4698
20.5175
22.4
24.1183
25.6635
27.0386
28.2622
29.3603
30.3569
31.2698
32.11
32.8881
33.6206
34.3323
35.054
35.8085
36.5963
37.347
37.9345
38.2079
38.2538
37.9165
37.2163
36.5717
36.0641
35.6671
35.6735
36.012
36.4527
36.4821
12.7315
17.3116
19.6747
21.8125
23.7665
25.5338
27.1089
28.5013
29.7355
30.8405
31.8391
32.7459
33.5659
34.3027
34.9626
35.5568
36.1022
36.6166
37.1099
37.555
37.8855
37.9987
37.8964
37.4842
36.7776
36.1
35.5562
35.2385
35.2964
35.7037
36.276
36.4307
13.4076
13.8421
14.334
14.7316
15.1121
15.4144
15.6771
15.8808
16.0432
16.158
16.2359
16.2748
16.2788
16.2504
16.1933
16.1097
16.0027
15.8782
15.7493
15.6513
15.681
15.8074
15.9496
16.0814
16.193
16.2797
16.3392
16.3695
16.3663
16.328
16.2507
16.1358
15.9724
15.7675
15.5032
15.1974
14.8141
14.4141
13.9195
13.4855
18.1072
18.5583
19.0703
19.4862
19.8853
20.2101
20.4967
20.7262
20.9158
21.0593
21.1663
21.2354
21.2688
21.2676
21.2342
21.1699
21.0764
20.9584
20.8282
20.7235
20.7521
20.8836
21.0251
21.1488
21.2455
21.312
21.3472
21.3498
21.3172
21.2493
21.1433
21.0003
20.8108
20.5812
20.2942
19.9677
19.5671
19.1499
18.6366
18.1872
20.5436
21.0198
21.5617
22.0032
22.4311
22.7873
23.1095
23.3777
23.6091
23.7972
23.9502
24.0671
24.149
24.195
24.2056
24.1815
24.1231
24.0337
23.9242
23.8309
23.857
23.9746
24.0936
24.1873
24.248
24.2737
24.2645
24.2198
24.1392
24.0241
23.873
23.6865
23.4566
23.1899
22.8689
22.5126
22.0843
21.6423
21.0997
20.6252
22.7345
23.2291
23.7933
24.2541
24.7066
25.0907
25.4456
25.7504
26.022
26.2539
26.4519
26.6156
26.7451
26.8383
26.8939
26.9111
26.8898
26.8325
26.7501
26.6773
26.6991
26.7937
26.8843
26.9449
26.9676
26.9511
26.8964
26.8045
26.6766
26.5155
26.3201
26.0912
25.8228
25.5214
25.1696
24.7875
24.3363
23.8764
23.3126
22.8202
24.7165
25.2141
25.7854
26.2525
26.7169
27.1166
27.4918
27.8217
28.1222
28.3877
28.6223
28.8242
28.9927
29.1248
29.2178
29.2702
29.2809
29.2522
29.1955
29.1438
29.1613
29.2328
29.2968
29.3277
29.3176
29.2655
29.1727
29.0419
28.8752
28.6765
28.4455
28.1846
27.8893
27.5647
27.1943
26.7988
26.338
25.874
25.3048
24.8103
26.4901
26.9746
27.5394
28.001
28.4663
28.8719
29.2586
29.6069
29.931
30.2242
30.4896
30.7239
30.9256
31.0907
31.2159
31.2983
31.3364
31.3324
31.2974
31.2619
31.2762
31.329
31.3704
31.3758
31.3374
31.2545
31.1293
30.9651
30.7654
30.5346
30.2737
29.9866
29.6692
29.3285
28.9488
28.5502
28.091
27.6351
27.0746
26.5947
28.0581
28.5189
29.0702
29.5213
29.9838
30.3938
30.7923
31.1581
31.5044
31.8232
32.1166
32.3802
32.6116
32.806
32.9593
33.0678
33.1293
33.1457
33.1275
33.1033
33.1153
33.1547
33.1779
33.1619
33.099
32.989
32.835
32.6411
32.4117
32.1517
31.8634
31.5516
31.2136
30.8572
30.4683
30.0686
29.6153
29.1728
28.6281
28.174
29.4397
29.8738
30.4119
30.8547
31.3174
31.7357
32.1474
32.5315
32.899
33.242
33.5611
33.8513
34.1092
34.3294
34.5071
34.6378
34.7187
34.7511
34.7451
34.728
34.7387
34.7689
34.7782
34.7446
34.6611
34.5279
34.3486
34.1282
33.8719
33.5853
33.2717
32.9365
32.5783
32.2051
31.8051
31.3996
30.9492
30.5184
29.9896
29.5649
30.6665
31.0761
31.6052
32.045
32.5121
32.9404
33.3658
33.7674
34.1546
34.5192
34.861
35.1745
35.4553
35.6975
35.8956
36.0445
36.1408
36.1854
36.1876
36.1744
36.1839
36.2083
36.2076
36.1602
36.0598
35.9071
35.7063
35.4633
35.1835
34.8736
34.5374
34.1808
33.8037
33.4141
33.002
32.5884
32.136
31.7116
31.1947
30.7973
31.7696
32.1581
32.6822
33.1222
33.5944
34.0327
34.4705
34.8878
35.2921
35.6754
36.0364
36.3694
36.6691
36.9293
37.1439
37.3071
37.4152
37.4684
37.4759
37.4643
37.4731
37.4939
37.4859
37.428
37.3141
37.1456
36.9273
36.6653
36.3661
36.0363
35.6809
35.3059
34.9123
34.508
34.0845
33.6625
33.2068
32.7843
32.2755
31.9023
32.7703
33.1388
33.6594
34.0995
34.5764
35.0234
35.472
35.9023
36.3209
36.7196
37.0963
37.4449
37.7597
38.0341
38.2614
38.4357
38.5526
38.612
38.6228
38.612
38.62
38.6381
38.6247
38.5587
38.4342
38.2532
38.0208
37.7435
37.4285
37.0825
36.7112
36.3211
35.9135
35.4969
35.0636
34.6342
34.1754
33.7546
33.2514
32.9006
33.6784
34.0255
34.541
34.9808
35.4611
35.9151
36.3726
36.8138
37.244
37.655
38.0443
38.4052
38.7319
39.0173
39.2544
39.437
39.5607
39.6252
39.6391
39.6294
39.6363
39.6511
39.6325
39.5593
39.4263
39.2353
38.9917
38.7024
38.3747
38.0157
37.6317
37.2291
36.8102
36.3832
35.9422
35.5066
35.0457
34.6272
34.1308
33.8036
34.4943
34.8177
35.3262
35.7643
36.2469
36.7069
37.1717
37.6218
38.0616
38.4827
38.882
39.2527
39.5885
39.8822
40.1269
40.3161
40.4454
40.5149
40.5332
40.5263
40.5316
40.541
40.516
40.436
40.2954
40.0961
39.8435
39.5446
39.2068
38.8375
38.443
38.0302
37.602
37.1665
36.7187
36.2783
35.8163
35.4011
34.9135
34.613
35.2171
35.5123
36.0112
36.4464
36.9306
37.3957
37.867
38.3251
38.7731
39.2027
39.6101
39.9885
40.3315
40.6317
40.8823
41.077
41.2117
41.2867
41.311
41.3087
41.3118
41.3138
41.2806
41.1931
41.0453
40.8389
40.5789
40.2722
39.9262
39.5485
39.1454
38.7239
38.2875
37.8444
37.3907
36.9461
36.4839
36.0729
35.5973
35.3279
35.8457
36.1062
36.5917
37.0227
37.5076
37.9778
38.4554
38.921
39.3766
39.8136
40.2281
40.613
40.9618
41.2674
41.5228
41.7224
41.8624
41.9438
41.9753
41.9787
41.9792
41.9721
41.9294
41.8337
41.6788
41.4658
41.1994
40.886
40.5331
40.1481
39.7375
39.3083
38.8643
38.4139
37.9545
37.5058
37.044
36.6392
36.1795
35.9489
36.3813
36.5957
37.0624
37.4872
37.9723
38.4474
38.9316
39.4048
39.8678
40.3122
40.7332
41.1239
41.4777
41.7878
42.0476
42.2517
42.3971
42.4851
42.5244
42.5331
42.5311
42.5147
42.462
42.3576
42.1955
41.9762
41.7039
41.3847
41.0256
40.634
40.2162
39.7795
39.328
38.8703
38.4051
37.9523
37.4919
37.0953
36.6573
36.4779
36.8258
36.9767
37.4167
37.8322
38.3162
38.7962
39.2872
39.7685
40.2394
40.6911
41.1186
41.5149
41.8736
42.1879
42.4517
42.6602
42.8108
42.9053
42.9516
42.9649
42.9605
42.9355
42.873
42.7601
42.5908
42.3655
42.0875
41.7628
41.3978
40.9997
40.575
40.1307
39.6715
39.206
38.7346
38.2781
37.8204
37.4357
37.0289
36.9204
37.1858
37.2463
37.6441
38.0469
38.5278
39.0125
39.5105
40.0004
40.4798
40.9394
41.3737
41.7758
42.1393
42.4579
42.7256
42.9383
43.0939
43.1943
43.2467
43.2635
43.2567
43.2243
43.153
43.0319
42.8557
42.6244
42.3409
42.0106
41.6398
41.2352
40.8033
40.351
39.8835
39.4099
38.9324
38.4724
38.0201
37.6514
37.2921
37.2829
37.4658
37.4037
37.7376
38.1179
38.5932
39.0817
39.5866
40.0857
40.574
41.0421
41.4838
41.8922
42.261
42.584
42.8559
43.0728
43.2329
43.3385
43.3957
43.4151
43.4062
43.3676
43.2884
43.1598
42.9771
42.7398
42.4509
42.115
41.738
41.3265
40.887
40.4262
39.9501
39.4681
38.9846
38.5223
38.0776
37.7351
37.4467
37.5714
37.6674
37.4494
37.6932
38.036
38.4992
38.9895
39.5007
40.0087
40.5063
40.9833
41.433
41.8483
42.2227
42.5506
42.8269
43.0479
43.2122
43.3222
43.3833
43.4044
43.3936
43.3497
43.2639
43.1286
42.9396
42.6966
42.402
42.0602
41.6769
41.2583
40.8106
40.3412
39.8563
39.366
38.8771
38.4135
37.9826
37.6809
37.4885
37.7774
37.7627
37.3718
37.5044
37.7935
38.235
38.7252
39.2408
39.757
40.2635
40.7495
41.2073
41.6296
42.0102
42.3432
42.6238
42.8487
43.017
43.1305
43.1945
43.2167
43.2041
43.156
43.0646
42.9235
42.7289
42.4803
42.1801
41.8324
41.4426
41.0167
40.5611
40.0832
39.5901
39.0923
38.5997
38.1373
37.7297
37.4841
37.4061
37.8713
37.6916
37.1444
37.1648
37.3913
37.8021
38.2852
38.8049
39.3278
39.8421
40.3359
40.8011
41.23
41.6162
41.9539
42.2385
42.4669
42.6381
42.7542
42.8201
42.8428
42.8288
42.7773
42.6815
42.5356
42.3361
42.0826
41.7773
41.4241
41.0282
40.5957
40.1331
39.6478
39.1475
38.6438
38.1474
37.6929
37.3178
37.1375
37.1748
37.7976
37.4343
36.7558
36.6767
36.8416
37.2187
37.69
38.2097
38.7361
39.2555
39.7548
40.2252
40.6589
41.0492
41.3901
41.6773
41.9077
42.0805
42.1977
42.264
42.2865
42.2711
42.2173
42.1185
41.9694
41.7664
41.5093
41.2001
40.8428
40.4423
40.0049
39.537
39.0464
38.5411
38.033
37.537
37.0964
36.7584
36.6437
36.7844
37.5401
36.9423
36.1935
36.0558
36.1766
36.5252
36.9814
37.4964
38.0241
38.545
39.046
39.518
39.9529
40.3439
40.6851
40.9721
41.2017
41.3734
41.4891
41.5538
41.5748
41.5582
41.5032
41.4034
41.2531
41.0489
40.7904
40.4796
40.1205
39.7182
39.2786
38.8085
38.3156
37.8087
37.2987
36.8074
36.3832
36.0771
36.012
36.2177
37.0489
36.2968
35.5234
35.3637
35.4612
35.791
36.2342
36.7416
37.2661
37.7835
38.2815
38.7503
39.1818
39.5691
39.9063
40.1888
40.4138
40.5805
40.6911
40.7512
40.769
40.751
40.6965
40.5984
40.4499
40.2476
39.9909
39.682
39.3246
38.924
38.4863
38.018
37.5268
37.0216
36.5131
36.0282
35.6164
35.3279
35.2832
35.5029
36.3416
35.5776
34.8475
34.7111
34.8103
35.1336
35.566
36.0628
36.5772
37.085
37.5736
38.033
38.455
38.8329
39.1603
39.4331
39.648
39.8046
39.9052
39.9563
39.968
39.9485
39.8965
39.8031
39.6601
39.4631
39.2118
38.9082
38.5562
38.1611
37.7287
37.2658
36.7798
36.2794
35.7775
35.3018
34.9016
34.6252
34.5915
34.8139
35.6553
35.1279
34.3981
34.2632
34.3571
34.6709
35.0904
35.5729
36.0728
36.567
37.042
37.4878
37.8961
38.2597
38.573
38.8312
39.0313
39.1726
39.2581
39.2954
39.2976
39.2769
39.2308
39.1462
39.0127
38.8251
38.5832
38.2891
37.9469
37.5616
37.1394
36.687
36.2118
35.7226
35.2322
34.7679
34.3778
34.1072
34.0734
34.2855
35.1125
35.0077
34.2929
34.1651
34.2536
34.5544
34.9546
35.4141
35.8895
36.3614
36.815
37.2401
37.6279
37.9713
38.2646
38.503
38.6834
38.8049
38.8699
38.8877
38.8761
38.8543
38.818
38.7463
38.6257
38.451
38.2219
37.9411
37.6129
37.2425
36.8359
36.4001
35.9428
35.4735
35.0045
34.5591
34.1838
33.92
33.8822
34.0713
34.8572
35.097
34.4728
34.3959
34.502
34.8001
35.1835
35.6186
36.0667
36.5115
36.9383
37.3371
37.6994
38.0181
38.2873
38.5026
38.6606
38.7598
38.8022
38.797
38.7676
38.7457
38.7226
38.6661
38.5602
38.3999
38.1862
37.9219
37.6116
37.2604
36.8745
36.4607
36.0271
35.5833
35.1426
34.7223
34.3656
34.1096
34.0657
34.2287
34.9723
35.6275
35.0416
34.9843
35.0845
35.3643
35.7185
36.1196
36.5347
36.9478
37.3442
37.7138
38.0482
38.3406
38.585
38.7771
38.9132
38.9917
39.0136
38.9873
38.9397
38.918
38.9078
38.8647
38.7716
38.625
38.4263
38.1787
37.8869
37.556
37.1921
36.8021
36.3941
35.9777
35.5675
35.1786
34.8476
34.6077
34.5681
34.7178
35.4335
36.1646
35.5887
35.54
35.6426
35.9172
36.2599
36.6468
37.0458
37.4416
37.82
38.1714
38.4876
38.7623
38.9899
39.166
39.2875
39.3521
39.3611
39.3222
39.2633
39.243
39.2427
39.2098
39.1278
38.994
38.8099
38.5791
38.3062
37.9965
37.656
37.2914
36.9113
36.5254
36.1483
35.7961
35.5016
35.2894
35.2659
35.4071
36.0901
36.7626
36.1574
36.083
36.1553
36.4014
36.716
37.0796
37.4582
37.836
38.1982
38.5348
38.8375
39.1001
39.3168
39.4833
39.5962
39.6536
39.6566
39.6128
39.5507
39.5335
39.5392
39.5134
39.4395
39.315
39.1416
38.9228
38.6629
38.3672
38.0413
37.6917
37.3261
36.9539
36.588
36.243
35.9491
35.7251
35.6724
35.7591
36.3585
42.5988
50.3652
56.533
62.5406
67.6804
71.8234
75.1304
77.7957
79.9741
81.8015
83.3969
84.8264
86.1285
87.3348
88.4753
89.5795
90.6771
91.7951
92.9555
94.1744
95.4601
96.8145
98.2343
99.7122
101.238
102.799
104.378
105.952
107.482
108.895
110.056
110.734
41.9123
49.396
55.3685
61.2406
66.3101
70.4188
73.7075
76.3646
78.5434
80.3779
81.9811
83.4134
84.7059
85.8971
87.0189
88.1018
89.176
90.2694
91.4046
92.5966
93.8543
95.1791
96.5679
98.0134
99.5053
101.031
102.574
104.11
105.603
106.982
108.114
108.775
41.1472
48.3857
54.1754
59.9137
64.9142
68.9935
72.2715
74.9299
77.1193
78.9695
80.5845
82.0202
83.3068
84.4871
85.5928
86.656
87.7087
88.7787
89.8883
91.054
92.2838
93.5797
94.9381
96.3515
97.8099
99.3003
100.808
102.307
103.764
105.108
106.211
106.854
40.3654
47.3692
52.9746
58.5742
63.5041
67.5566
70.8289
73.4953
75.7044
77.5786
79.2114
80.6549
81.9418
83.1118
84.2031
85.249
86.2814
87.3291
88.4159
89.5567
90.7601
92.0278
93.3562
94.7382
96.1637
97.6194
99.0904
100.554
101.974
103.284
104.359
104.984
39.527
46.31
51.731
57.1898
62.052
66.0875
69.3683
72.0577
74.2978
76.2019
77.8557
79.31
80.6013
81.7676
82.8494
83.8804
84.8953
85.9235
86.9874
88.1042
89.2822
90.523
91.823
93.1746
94.568
95.9902
97.4273
98.8548
100.24
101.517
102.563
103.171
38.6889
45.2507
50.4797
55.7907
60.585
64.6091
67.9044
70.6206
72.895
74.8342
76.5148
77.9865
79.2876
80.4552
81.5294
82.5491
83.5487
84.5584
85.6035
86.699
87.8532
89.0682
90.3402
91.6622
93.0242
94.4134
95.8151
97.2077
98.5582
99.801
100.822
101.411
37.7852
44.1333
49.164
54.3195
59.0462
63.0698
66.3983
69.162
71.4867
73.4679
75.1792
76.6721
77.9875
79.1647
80.2405
81.2536
82.2414
83.2371
84.263
85.3373
86.4691
87.6597
88.9058
90.1994
91.531
92.8884
94.2577
95.6161
96.9324
98.144
99.1368
99.71
36.8869
43.0161
47.838
52.8288
57.4866
61.5175
64.8865
67.6976
70.0699
72.0976
73.8481
75.3711
76.7089
77.8989
78.9804
79.9903
80.971
81.9535
82.9658
84.0233
85.1347
86.3023
87.5224
88.7883
90.09
91.4157
92.7506
94.0744
95.3576
96.5349
97.5034
98.0592
35.8879
41.8025
46.4026
51.2113
55.7919
59.8376
63.2709
66.1638
68.6158
70.7059
72.5027
74.0615
75.4267
76.6399
77.7363
78.7557
79.7333
80.7104
81.7086
82.7488
83.8411
84.9871
86.1837
87.4229
88.6957
89.9903
91.2945
92.5858
93.8352
94.9836
95.9234
96.4634
34.8925
40.583
44.9516
49.5652
54.0648
58.1353
61.6435
64.6141
67.1335
69.2897
71.1461
72.7538
74.1588
75.3983
76.5129
77.5384
78.5222
79.4954
80.4873
81.5169
82.5928
83.7188
84.8911
86.104
87.3479
88.6112
89.8809
91.1372
92.3537
93.4672
94.3846
94.905
33.7098
39.1854
43.3044
47.6916
52.083
56.1738
59.7858
62.8954
65.5525
67.8121
69.743
71.4089
72.8591
74.1396
75.2846
76.3371
77.329
78.3075
79.2933
80.3106
81.3717
82.4788
83.6298
84.8169
86.032
87.2641
88.5027
89.7274
90.9103
91.9962
92.8837
93.389
32.5032
37.7707
41.6337
45.7807
50.0567
54.1807
57.9144
61.1514
63.9104
66.2739
68.3024
70.0477
71.5643
72.8902
74.0701
75.1378
76.1492
77.1324
78.1209
79.1355
80.1852
81.2756
82.4039
83.5658
84.7521
85.9526
87.1561
88.3445
89.4937
90.5424
91.41
91.8936
30.9836
36.047
39.6149
43.4568
47.5492
51.6681
55.5497
59.0296
62.0505
64.6016
66.758
68.6026
70.1918
71.5847
72.8157
73.9357
74.9698
75.9718
76.9628
77.97
79.0096
80.0844
81.1941
82.331
83.489
84.6579
85.8304
86.9867
88.1029
89.1251
89.9603
90.4306
29.3955
34.28
37.5679
41.1008
45.0021
49.1346
53.1944
56.8755
60.0485
62.787
65.1232
67.1052
68.809
70.2775
71.5696
72.7156
73.7857
74.8034
75.8081
76.8235
77.8578
78.92
80.0086
81.1212
82.2501
83.3863
84.5215
85.6395
86.7201
87.7012
88.5187
88.9637
27.2201
31.9282
34.8619
37.9481
41.4926
45.5057
49.7357
53.8664
57.6064
60.7081
63.2768
65.4409
67.2687
68.8504
70.2237
71.4608
72.5747
73.6309
74.6503
75.6634
76.6934
77.7439
78.8166
79.9047
81.0046
82.1079
83.2116
84.2978
85.3438
86.2995
87.0801
87.5135
24.7951
29.4326
32.1194
34.8347
38.0501
42.0001
46.4739
50.849
54.7247
58.2349
61.2023
63.6402
65.6869
67.4011
68.8836
70.1608
71.3341
72.4195
73.467
74.504
75.5369
76.5794
77.6326
78.6966
79.766
80.8339
81.8961
82.9392
83.9464
84.8548
85.6211
86.0231
20.9878
25.6223
27.8669
29.8474
32.2941
35.715
40.2017
45.6374
51.0984
55.3117
58.7088
61.5132
63.7912
65.7158
67.3336
68.7702
70.0206
71.1759
72.256
73.2961
74.3314
75.3669
76.407
77.446
78.4844
79.5164
80.5456
81.5568
82.5262
83.4095
84.1316
84.5251
16.0072
21.1826
23.7284
25.6377
27.451
30.7082
35.9232
40.9566
45.5342
51.0495
55.5551
59.0039
61.7738
63.9605
65.7905
67.2924
68.6416
69.844
70.9718
72.0603
73.1104
74.1436
75.1655
76.1793
77.1838
78.175
79.1548
80.1133
81.0394
81.8635
82.5749
82.9274
5.72772
11.2473
12.6304
12.289
12.0382
11.9659
14.9326
27.7946
40.1111
46.1587
51.4908
55.8438
59.0936
61.7286
63.8117
65.6137
67.1015
68.4323
69.6238
70.7199
71.7809
72.813
73.8244
74.8111
75.7801
76.7294
77.6734
78.6011
79.4806
80.2823
80.9369
81.2846
8.86344
2.89629
13.2098
14.7214
8.23571
16.9633
18.0948
12.6548
18.603
37.0971
45.6486
51.4844
56.0563
59.2903
61.8441
63.7685
65.4395
66.8448
68.1141
69.3026
70.398
71.4358
72.4298
73.3874
74.3148
75.2123
76.0924
76.9479
77.7784
78.4961
79.147
79.4375
10.9674
15.1298
15.9063
15.1334
12.1249
11.3858
7.60423
14.345
18.2726
15.6196
35.1461
45.6395
51.4211
55.8122
58.9095
61.4784
63.4191
65.0828
66.4811
67.6795
68.7974
69.8426
70.8289
71.754
72.637
73.4818
74.32
75.1506
75.9133
76.6183
77.1893
77.4802
19.2747
23.6175
25.3564
25.8815
25.114
22.9098
19.4575
13.5585
16.3519
16.7313
22.4492
35.1872
45.7622
51.6441
56.009
58.8368
61.1846
62.9696
64.4996
65.884
67.0754
68.1401
69.1089
69.9961
70.8191
71.5873
72.3332
73.0476
73.7578
74.3213
74.9013
75.1066
21.6224
26.5236
29.1532
31.0313
32.0441
32.0147
30.6782
27.7003
22.4916
21.5227
8.72245
20.1404
33.8647
45.1383
50.6772
55.1743
58.0763
60.4671
62.2883
63.672
64.904
65.992
66.9578
67.7974
68.5581
69.2547
69.9492
70.6592
71.2457
71.8334
72.2902
72.5013
22.4546
27.4638
30.3298
32.6035
34.252
35.2565
35.5572
34.938
32.7138
27.6264
25.5815
27.7722
27.0084
34.0582
45.514
50.5452
54.6697
57.2209
59.2766
61.0839
62.4833
63.6188
64.563
65.347
65.9993
66.5516
67.0815
67.5719
68.1153
68.4041
68.8956
68.9699
21.9645
27.1148
30.1517
32.6691
34.6311
36.0303
36.8686
37.1312
36.6879
34.9576
30.1517
28.319
9.67323
18.0606
32.0617
43.8649
48.7366
53.0855
55.8817
57.5774
59.0316
60.2325
61.1806
61.874
62.4144
62.8687
63.3801
63.9008
64.1743
64.6547
64.935
65.0074
20.5829
25.8684
29.0042
31.6664
33.8325
35.5047
36.7079
37.4822
37.863
37.7933
36.7721
33.1302
25.8844
26.6331
22.3264
31.9045
43.1896
47.1593
50.453
53.2753
55.1632
56.4549
57.3648
57.9516
58.2539
58.3438
58.3399
58.4877
58.7223
58.3191
58.7043
58.602
18.6892
24.075
27.2453
29.9658
32.2324
34.0626
35.4869
36.5644
37.3749
37.9761
38.2689
37.5678
33.8204
30.6469
13.898
15.3966
27.1417
39.7959
45.0299
46.776
48.4123
49.9853
50.8127
51.2769
51.1864
51.1352
52.0515
51.6204
51.5091
52.4183
52.7154
52.5044
16.4975
21.8789
24.9861
27.664
29.9356
31.8416
33.4267
34.75
35.8982
36.9563
37.9358
38.6108
38.1647
34.1749
25.8142
25.3514
13.2537
23.9803
31.7705
38.3228
42.078
43.9419
44.4288
44.7675
43.6385
42.6954
39.8076
40.8573
39.4912
36.598
35.6937
34.7568
14.2585
19.4946
22.4324
24.9645
27.1457
29.0383
30.7035
32.2071
33.6281
35.0509
36.5124
37.9187
38.9257
38.6177
35.2725
29.9476
21.0424
30.7673
33.5556
29.089
20.9815
24.7659
25.5053
24.9918
25.4784
18.4529
27.8225
16.1552
19.2923
24.4699
29.3601
32.3389
12.2609
17.2221
19.9096
22.2193
24.2384
26.0469
27.7158
29.3141
30.9115
32.5773
34.3609
36.2206
37.9599
39.1336
38.9762
35.4104
27.5632
23.5173
33.3496
29.4427
19.6893
24.4236
14.6207
26.6315
35.7066
11.9489
31.3143
16.6544
30.27
29.8117
33.0459
34.7041
10.7154
15.3221
17.7369
19.8014
21.631
23.3184
24.9377
26.5518
28.2162
29.9822
31.8984
33.976
36.1269
38.0827
39.3499
39.0883
36.2061
27.5621
28.6046
31.0694
16.9592
29.2275
18.4634
31.1972
29.2735
31.0861
34.6947
31.5183
37.2688
27.232
29.8004
26.5613
9.5713
13.9277
16.11
17.9672
19.6364
21.2133
22.7654
24.3406
25.9775
27.7125
29.5884
31.6463
33.8885
36.1952
38.235
39.4491
39.161
36.6035
31.5325
29.0372
28.0863
25.3287
26.9459
26.9111
33.1956
35.0701
35.4556
37.2879
37.747
37.626
38.162
39.0808
8.96109
13.1216
15.1405
16.8638
18.4365
19.9443
21.4378
22.9459
24.4911
26.1014
27.8165
29.6885
31.7666
34.0478
36.3831
38.3919
39.4763
39.2844
36.3666
36.443
37.6571
35.3993
37.8363
37.5461
41.073
40.7645
41.5471
42.092
42.3206
41.5404
42.7501
43.1231
8.77998
12.8505
14.7982
16.4745
18.0214
19.5079
20.9642
22.403
23.8364
25.2875
26.7932
28.4039
30.1801
32.1747
34.3798
36.6267
38.4887
39.5097
38.93
39.5022
40.2434
39.5358
40.8797
40.9143
42.5142
41.6825
42.58
42.5643
42.5724
41.9492
43.3484
43.7048
8.95653
13.0182
14.97
16.6691
18.2448
19.7472
21.1892
22.5737
23.9089
25.2155
26.526
27.8831
29.3397
30.9579
32.7898
34.8211
36.8599
38.5545
39.3329
40.2485
40.9087
40.7044
41.4882
41.6212
42.2939
41.3543
42.0551
41.8865
41.4869
41.1489
42.4933
42.7738
9.39315
13.4994