/*--------------------------------*- C++ -*----------------------------------*\
  =========                 |
  \\      /  F ield         | OpenFOAM: The Open Source CFD Toolbox
   \\    /   O peration     | Website:  https://openfoam.org
    \\  /    A nd           | Version:  6
     \\/     M anipulation  |
\*---------------------------------------------------------------------------*/
FoamFile
{
    version     2.0;
    format      ascii;
    class       volVectorField;
    location    "46";
    object      wallShearStress;
}
// * * * * * * * * * * * * * * * * * * * * * * * * * * * * * * * * * * * * * //

dimensions      [0 2 -2 0 0 0 0];

internalField   uniform (0 0 0);

boundaryField
{
    inlet
    {
        type            calculated;
        value           uniform (0 0 0);
    }
    outlet
    {
        type            calculated;
        value           uniform (0 0 0);
    }
    roughCylinder
    {
        type            calculated;
        value           nonuniform List<vector> 
3840
(
(-0.000270517 -0.000396836 -0.000163229)
(-0.000326847 -0.000510288 -2.22309e-05)
(-0.000376057 -0.000631699 4.17092e-05)
(-0.000451114 -0.00073518 0.000123589)
(-0.000539161 -0.000809282 0.000206026)
(-0.000630494 -0.000849725 0.0002782)
(-0.000715439 -0.000860532 0.000334945)
(-0.000789236 -0.000853053 0.000374812)
(-0.000852341 -0.000846642 0.0004021)
(-0.000900991 -0.000845253 0.000416438)
(-0.000939717 -0.000852902 0.000419809)
(-0.000971903 -0.000868044 0.000414373)
(-0.00100062 -0.000889073 0.00040268)
(-0.0010288 -0.000914492 0.000386802)
(-0.00105846 -0.000943362 0.000368163)
(-0.00109072 -0.000975169 0.000347428)
(-0.00112593 -0.0010096 0.000324671)
(-0.0011639 -0.00104631 0.000299592)
(-0.00120411 -0.00108477 0.000271578)
(-0.00124578 -0.0011242 0.000239806)
(-0.00128767 -0.00116329 0.000202798)
(-0.00132803 -0.00120021 0.00015849)
(-0.00136245 -0.0012314 0.000103022)
(-0.00138464 -0.00125157 3.57108e-05)
(-0.00029007 -0.000384463 -0.000155785)
(-0.000349742 -0.000494799 -2.6211e-05)
(-0.000401526 -0.000615807 3.31943e-05)
(-0.000478926 -0.000720495 0.000111573)
(-0.000568893 -0.000797175 0.000192027)
(-0.000662186 -0.000840581 0.00026312)
(-0.000750142 -0.000855501 0.000319836)
(-0.000828869 -0.000854158 0.000361738)
(-0.000896922 -0.000850957 0.000391572)
(-0.000949582 -0.000848362 0.000407433)
(-0.000990289 -0.000854676 0.000411455)
(-0.00102442 -0.000869162 0.000406339)
(-0.00105503 -0.00088998 0.000394884)
(-0.00108512 -0.000915413 0.000379229)
(-0.00111677 -0.000944403 0.000360881)
(-0.00115113 -0.000976337 0.000340526)
(-0.00118852 -0.00101086 0.000318247)
(-0.00122874 -0.00104761 0.000293745)
(-0.00127123 -0.00108605 0.000266391)
(-0.00131517 -0.0011254 0.000235354)
(-0.00135924 -0.00116436 0.000199152)
(-0.00140162 -0.0012011 0.000155746)
(-0.00143769 -0.00123209 0.000101282)
(-0.00146095 -0.00125212 3.50961e-05)
(-0.000309644 -0.00036665 -0.000142751)
(-0.000371967 -0.000473597 -3.07373e-05)
(-0.000426121 -0.000593113 2.3842e-05)
(-0.000505374 -0.00069833 9.83401e-05)
(-0.000597156 -0.000777454 0.000176537)
(-0.000692791 -0.000824568 0.000246677)
(-0.000784458 -0.000844745 0.000304028)
(-0.00086809 -0.000849338 0.000348046)
(-0.0009407 -0.000849069 0.000379766)
(-0.000998065 -0.000846513 0.000397315)
(-0.00104089 -0.000851126 0.000401978)
(-0.00107704 -0.000864749 0.000397204)
(-0.00110965 -0.000885135 0.000386048)
(-0.00114177 -0.000910388 0.000370705)
(-0.00117548 -0.000939277 0.000352724)
(-0.00121198 -0.000971114 0.000332827)
(-0.00125158 -0.00100549 0.000311108)
(-0.00129407 -0.00104204 0.000287264)
(-0.00133883 -0.00108019 0.00026065)
(-0.00138501 -0.00111919 0.000230431)
(-0.00143124 -0.00115774 0.000195117)
(-0.0014756 -0.00119405 0.000152706)
(-0.00151326 -0.0012246 9.93539e-05)
(-0.00153756 -0.00124435 3.44153e-05)
(-0.000327075 -0.000344523 -0.000126039)
(-0.000391279 -0.00044745 -3.54057e-05)
(-0.000447254 -0.000564503 1.4045e-05)
(-0.000527762 -0.000669709 8.43202e-05)
(-0.000621276 -0.000751253 0.00015995)
(-0.000719587 -0.000802688 0.000229113)
(-0.000815285 -0.000828744 0.000287304)
(-0.000903764 -0.00083906 0.000333367)
(-0.000981073 -0.00084189 0.000366839)
(-0.00104352 -0.000840676 0.000386248)
(-0.00108915 -0.000843103 0.000391577)
(-0.00112747 -0.000855658 0.000387261)
(-0.00116223 -0.000875427 0.000376496)
(-0.00119643 -0.00090032 0.000361543)
(-0.00123227 -0.00092895 0.000344014)
(-0.00127092 -0.000960523 0.00032465)
(-0.00131271 -0.000994575 0.000303561)
(-0.00135739 -0.0010307 0.000280438)
(-0.00140433 -0.00106836 0.000254621)
(-0.00145264 -0.00110678 0.00022527)
(-0.00150089 -0.0011447 0.000190893)
(-0.00154711 -0.00118037 0.000149528)
(-0.00158624 -0.00121031 9.73392e-05)
(-0.00161149 -0.00122966 3.37037e-05)
(-0.000341377 -0.000318601 -0.000107349)
(-0.000406907 -0.000416982 -3.98639e-05)
(-0.000464 -0.00053059 4.17233e-06)
(-0.000545126 -0.000635163 6.98305e-05)
(-0.000640278 -0.00071903 0.000142508)
(-0.000741537 -0.000775126 0.00021053)
(-0.000841443 -0.00080721 0.000269476)
(-0.000934685 -0.000822905 0.0003174)
(-0.00101674 -0.000828839 0.000352649)
(-0.00108382 -0.000829121 0.000373628)
(-0.001134 -0.000830055 0.000380122)
(-0.00117469 -0.000841347 0.000376529)
(-0.00121176 -0.000860221 0.000366247)
(-0.00124815 -0.000884563 0.000351805)
(-0.00128612 -0.000912727 0.000334814)
(-0.00132688 -0.000943817 0.000316064)
(-0.00137079 -0.000977328 0.000295677)
(-0.00141758 -0.00101282 0.00027334)
(-0.00146657 -0.00104974 0.000248376)
(-0.00151685 -0.00108736 0.000219939)
(-0.00156696 -0.00112441 0.000186537)
(-0.00161487 -0.0011592 0.000146257)
(-0.0016553 -0.00118835 9.52686e-05)
(-0.00168142 -0.00120718 3.29722e-05)
(-0.000352487 -0.000290227 -8.79656e-05)
(-0.000418342 -0.000383201 -4.39742e-05)
(-0.000475785 -0.000492539 -5.54474e-06)
(-0.000556926 -0.000595901 5.50945e-05)
(-0.000653561 -0.000681909 0.000124379)
(-0.000757883 -0.000742712 0.000190984)
(-0.000862053 -0.000780578 0.000250437)
(-0.000960082 -0.000801228 0.000299985)
(-0.001047 -0.000810167 0.000336994)
(-0.00111894 -0.000812036 0.000359466)
(-0.00117486 -0.000813047 0.000367696)
(-0.0012183 -0.000822015 0.000364905)
(-0.00125784 -0.000839773 0.000355283)
(-0.00129652 -0.000863235 0.000341467)
(-0.00133666 -0.000890724 0.000325131)
(-0.00137955 -0.000921137 0.000307094)
(-0.0014255 -0.000953882 0.000287486)
(-0.00147426 -0.000988504 0.000265999)
(-0.00152513 -0.00102445 0.000241941)
(-0.00157719 -0.00106101 0.000214461)
(-0.00162894 -0.00109696 0.000182068)
(-0.00167835 -0.00113068 0.000142907)
(-0.00171989 -0.00115884 9.31507e-05)
(-0.00174675 -0.00117703 3.22231e-05)
(-0.000359071 -0.000259647 -6.85802e-05)
(-0.00042485 -0.000346946 -4.75417e-05)
(-0.0004818 -0.00045117 -1.49172e-05)
(-0.00056218 -0.000552624 4.02432e-05)
(-0.000659908 -0.000640383 0.000105599)
(-0.000767235 -0.000705723 0.000170372)
(-0.000875807 -0.000749141 0.000229993)
(-0.000978808 -0.000774451 0.000280909)
(-0.00107083 -0.000786332 0.000319651)
(-0.00114795 -0.000789855 0.000343763)
(-0.00120938 -0.000791583 0.000353723)
(-0.00125753 -0.00079864 0.000352257)
(-0.0012998 -0.00081464 0.000343534)
(-0.00134098 -0.000837039 0.000330527)
(-0.00138333 -0.000863564 0.000314965)
(-0.00142827 -0.000893054 0.000297736)
(-0.00147618 -0.000924829 0.000278998)
(-0.00152678 -0.000958384 0.000258436)
(-0.00157936 -0.00099316 0.000235341)
(-0.001633 -0.00102846 0.00020886)
(-0.00168618 -0.00106312 0.000177508)
(-0.00173685 -0.00109554 0.000139495)
(-0.0017793 -0.00112256 9.09972e-05)
(-0.00180678 -0.00114001 3.14605e-05)
(-0.000361843 -0.000228467 -5.00234e-05)
(-0.000426013 -0.000309151 -5.05932e-05)
(-0.000481449 -0.000407482 -2.37392e-05)
(-0.000560215 -0.000506208 2.55391e-05)
(-0.00065855 -0.000595182 8.63519e-05)
(-0.000768723 -0.000664733 0.000148742)
(-0.000881616 -0.000713272 0.000208043)
(-0.000989705 -0.000742926 0.000259989)
(-0.00108712 -0.000757716 0.000300393)
(-0.00116987 -0.00076303 0.000326368)
(-0.00123687 -0.000765547 0.000338106)
(-0.00129068 -0.000771866 0.000338378)
(-0.00133673 -0.000785757 0.000330928)
(-0.00138054 -0.000806291 0.00031889)
(-0.00142521 -0.00083166 0.000304286)
(-0.00147223 -0.000860033 0.000287997)
(-0.00152199 -0.000890629 0.000270223)
(-0.00157424 -0.000922899 0.000250659)
(-0.00162828 -0.000956288 0.000228581)
(-0.0016832 -0.000990174 0.000203141)
(-0.0017375 -0.00102344 0.00017286)
(-0.00178921 -0.0010545 0.00013603)
(-0.00183231 -0.00108027 8.88141e-05)
(-0.00186024 -0.00109696 3.06863e-05)
(-0.000358046 -0.000195912 -3.25137e-05)
(-0.000420841 -0.000270049 -5.26919e-05)
(-0.0004739 -0.000361774 -3.18488e-05)
(-0.000550004 -0.000456953 1.11248e-05)
(-0.000648081 -0.000546321 6.67371e-05)
(-0.000760641 -0.000619512 0.000126028)
(-0.000877927 -0.000672933 0.000184428)
(-0.000991448 -0.000706856 0.000237038)
(-0.00109473 -0.000724634 0.000279006)
(-0.00118344 -0.000731774 0.000306979)
(-0.00125642 -0.000735215 0.000320778)
(-0.00131584 -0.000741291 0.000322971)
(-0.00136678 -0.00075375 0.000317197)
(-0.00141442 -0.000772644 0.00030662)
(-0.00146144 -0.000796283 0.00029314)
(-0.00151044 -0.000823215 0.000277914)
(-0.00156192 -0.000852465 0.000261216)
(-0.00161563 -0.000883374 0.000242738)
(-0.00167088 -0.000915355 0.000221744)
(-0.00172673 -0.000947728 0.000197371)
(-0.00178169 -0.000979401 0.000168163)
(-0.00183395 -0.00100887 0.000132521)
(-0.00187732 -0.0010333 8.66016e-05)
(-0.00190544 -0.00104911 2.98985e-05)
(-0.000351029 -0.000164529 -1.68131e-05)
(-0.000409633 -0.000231246 -5.45321e-05)
(-0.000459084 -0.00031564 -3.87923e-05)
(-0.000531381 -0.00040602 -2.47008e-06)
(-0.00062827 -0.000494807 4.71465e-05)
(-0.000742768 -0.000571051 0.000102503)
(-0.000864151 -0.000628864 0.00015924)
(-0.000983149 -0.000666839 0.000212006)
(-0.00109258 -0.000687558 0.000255338)
(-0.00118781 -0.000696639 0.000285433)
(-0.0012671 -0.000700972 0.000301557)
(-0.00133234 -0.000706891 0.000305948)
(-0.00138824 -0.000718303 0.000302127)
(-0.00143964 -0.000735667 0.000293209)
(-0.0014896 -0.000757569 0.00028116)
(-0.00154077 -0.000782912 0.000267236)
(-0.00159375 -0.000810579 0.000251748)
(-0.00164846 -0.000839867 0.000234435)
(-0.00170433 -0.000870156 0.000214564)
(-0.00176053 -0.000900746 0.000191287)
(-0.00181571 -0.000930563 0.000163192)
(-0.00186822 -0.000958311 0.00012881)
(-0.00191146 -0.000981195 8.42564e-05)
(-0.00193954 -0.000996009 2.90611e-05)
(-0.000334269 -0.000133766 -2.95379e-06)
(-0.000391554 -0.000191325 -5.37744e-05)
(-0.000436021 -0.000268413 -4.49334e-05)
(-0.000503137 -0.00035324 -1.5317e-05)
(-0.000597363 -0.000440283 2.77844e-05)
(-0.000712806 -0.000518676 7.82038e-05)
(-0.00083829 -0.00058077 0.00013239)
(-0.000963166 -0.000622975 0.000184737)
(-0.00107943 -0.000646935 0.000229237)
(-0.00118162 -0.000657958 0.000261474)
(-0.00126781 -0.000663224 0.000280204)
(-0.00133933 -0.000669034 0.000287151)
(-0.00140038 -0.00067939 0.000285578)
(-0.00145581 -0.000695238 0.000278592)
(-0.0015087 -0.000715358 0.000268204)
(-0.00156185 -0.00073889 0.000255762)
(-0.00161618 -0.000764744 0.000241642)
(-0.00167166 -0.000792164 0.000225616)
(-0.00172785 -0.000820529 0.000206957)
(-0.00178407 -0.000849133 0.000184845)
(-0.00183917 -0.000876961 0.000157932)
(-0.00189146 -0.000902801 0.000124879)
(-0.00193428 -0.000924076 8.17724e-05)
(-0.00196215 -0.000937823 2.81734e-05)
(-0.00031221 -0.000105639 5.22128e-06)
(-0.000369353 -0.000156058 -5.022e-05)
(-0.000406982 -0.000222357 -4.90902e-05)
(-0.000466675 -0.000300629 -2.6645e-05)
(-0.00055656 -0.000384602 9.24842e-06)
(-0.000671938 -0.000464252 5.37259e-05)
(-0.000800592 -0.00052991 0.000104276)
(-0.000931144 -0.000576187 0.000155421)
(-0.00105431 -0.000603356 0.000200663)
(-0.00116414 -0.000616513 0.000235052)
(-0.00125768 -0.00062262 0.000256582)
(-0.00133585 -0.000628195 0.000266405)
(-0.00140253 -0.000637478 0.00026746)
(-0.00146205 -0.000651616 0.000262686)
(-0.00151801 -0.000669838 0.000254231)
(-0.00157325 -0.000691447 0.000243506)
(-0.00162877 -0.000715296 0.000230923)
(-0.00168471 -0.000740655 0.000216309)
(-0.00174079 -0.000766884 0.000198948)
(-0.00179653 -0.000793308 0.00017806)
(-0.00185102 -0.000818969 0.000152382)
(-0.00190275 -0.000842816 0.000120736)
(-0.00194461 -0.000862339 7.91465e-05)
(-0.00197202 -0.000874935 2.72327e-05)
(-0.000280653 -7.7053e-05 1.24114e-05)
(-0.000339374 -0.000123576 -4.83351e-05)
(-0.000369527 -0.000178653 -5.07914e-05)
(-0.000419845 -0.000248286 -3.53811e-05)
(-0.000503108 -0.000326967 -7.6827e-06)
(-0.000616559 -0.000406288 2.94996e-05)
(-0.000748458 -0.000475519 7.51075e-05)
(-0.000885027 -0.00052624 0.000124076)
(-0.00101598 -0.00055725 0.000169618)
(-0.00113387 -0.000572678 0.000206008)
(-0.00123544 -0.000579697 0.00023053)
(-0.00132093 -0.000585001 0.000243592)
(-0.00139351 -0.000593013 0.000247628)
(-0.00145768 -0.000605398 0.000245477)
(-0.00151681 -0.000621559 0.000239254)
(-0.00157392 -0.000640972 0.000230448)
(-0.00163042 -0.00066264 0.000219584)
(-0.00168651 -0.000685783 0.000206521)
(-0.00174211 -0.00070977 0.000190561)
(-0.001797 -0.000733935 0.00017097)
(-0.00185048 -0.000757366 0.000146583)
(-0.00190112 -0.00077911 0.000116402)
(-0.00194175 -0.000796904 7.64045e-05)
(-0.0019685 -0.000808336 2.62484e-05)
(-0.000244067 -5.08934e-05 1.83326e-05)
(-0.000303575 -9.45444e-05 -4.73817e-05)
(-0.000327225 -0.000139681 -5.08994e-05)
(-0.000366947 -0.000199359 -4.14774e-05)
(-0.000441428 -0.000270982 -2.21979e-05)
(-0.000551197 -0.000348402 6.6339e-06)
(-0.000683724 -0.000419477 4.57804e-05)
(-0.00082547 -0.000474336 9.13287e-05)
(-0.000963763 -0.000509179 0.000136335)
(-0.00109041 -0.000527331 0.000174497)
(-0.00120053 -0.000535351 0.000202084)
(-0.00129366 -0.000540212 0.000218652)
(-0.00137278 -0.000546879 0.000226096)
(-0.0014416 -0.000557201 0.000226896)
(-0.00150406 -0.000571134 0.000223237)
(-0.00156327 -0.000588303 0.000216652)
(-0.00162057 -0.000607649 0.000207705)
(-0.00167644 -0.000628457 0.000196329)
(-0.001731 -0.000650074 0.000181846)
(-0.00178438 -0.000671862 0.000163589)
(-0.00183632 -0.000692996 0.000140533)
(-0.00188546 -0.000712638 0.000111887)
(-0.00192415 -0.000728602 7.35344e-05)
(-0.00194995 -0.000738844 2.52153e-05)
(-0.000199725 -2.81512e-05 2.22045e-05)
(-0.000258083 -6.76047e-05 -4.53384e-05)
(-0.000276293 -0.000103734 -4.92803e-05)
(-0.00030442 -0.000152125 -4.43839e-05)
(-0.000366618 -0.000213916 -3.31548e-05)
(-0.000469114 -0.000286687 -1.37552e-05)
(-0.000603158 -0.000360081 1.72017e-05)
(-0.00075024 -0.000419587 5.77125e-05)
(-0.00089684 -0.000459339 0.000101235)
(-0.00103234 -0.000480622 0.000140618)
(-0.00115159 -0.000490011 0.000171223)
(-0.0012532 -0.000494633 0.000191581)
(-0.00133902 -0.000499747 0.00020276)
(-0.0014132 -0.000507998 0.000206971)
(-0.00147915 -0.000519554 0.000206221)
(-0.00154009 -0.000534208 0.000202084)
(-0.00159794 -0.000551117 0.000195263)
(-0.00165319 -0.000569525 0.000185717)
(-0.00170636 -0.00058879 0.000172814)
(-0.00175786 -0.00060827 0.000155951)
(-0.00180772 -0.000627115 0.000134259)
(-0.00185479 -0.000644653 0.000107202)
(-0.00189136 -0.000658941 7.05637e-05)
(-0.00191598 -0.000668024 2.41425e-05)
(-0.000152523 -1.09585e-05 2.36784e-05)
(-0.000208934 -4.53229e-05 -4.24115e-05)
(-0.000224457 -7.43235e-05 -4.70446e-05)
(-0.00024252 -0.000112173 -4.48306e-05)
(-0.000291359 -0.000162971 -4.00534e-05)
(-0.000384426 -0.000229152 -3.0415e-05)
(-0.000512012 -0.000300097 -9.24054e-06)
(-0.000661838 -0.000363355 2.45895e-05)
(-0.000815129 -0.000407886 6.51281e-05)
(-0.000960084 -0.000433293 0.000104985)
(-0.00108876 -0.000444563 0.000138306)
(-0.00119882 -0.000449019 0.000162482)
(-0.00129213 -0.000452767 0.000177764)
(-0.00137147 -0.000458687 0.000185682)
(-0.00144099 -0.000467739 0.00018818)
(-0.001504 -0.000479913 0.000186826)
(-0.00156217 -0.000494331 0.000182342)
(-0.00161637 -0.000510332 0.000174768)
(-0.0016674 -0.000527213 0.000163499)
(-0.00171618 -0.00054435 0.000148038)
(-0.00176352 -0.000560998 0.000127747)
(-0.00180801 -0.000576506 0.000102342)
(-0.00184154 -0.000589065 6.74603e-05)
(-0.00186469 -0.000597024 2.3018e-05)
(-9.97745e-05 2.13511e-06 2.27447e-05)
(-0.000150615 -2.52774e-05 -3.75675e-05)
(-0.000163811 -4.71856e-05 -4.31759e-05)
(-0.000171375 -7.38672e-05 -4.19565e-05)
(-0.000203485 -0.000110764 -4.12979e-05)
(-0.000278282 -0.000165206 -3.9991e-05)
(-0.000406488 -0.00023697 -3.01883e-05)
(-0.000558455 -0.000303693 -6.24804e-06)
(-0.000719077 -0.000354685 2.93688e-05)
(-0.000872481 -0.000384863 6.82949e-05)
(-0.00101074 -0.000398939 0.000103681)
(-0.00113019 -0.000404052 0.00013162)
(-0.00123068 -0.000406474 0.000151105)
(-0.00131597 -0.000410343 0.00016312)
(-0.0013892 -0.000416886 0.000169193)
(-0.00145368 -0.000426389 0.000170833)
(-0.00151185 -0.000438305 0.000168896)
(-0.00156452 -0.000451941 0.00016343)
(-0.00161309 -0.000466603 0.000153894)
(-0.0016589 -0.000481632 0.000139889)
(-0.00170294 -0.000496124 0.000121)
(-0.00174433 -0.00050972 9.7304e-05)
(-0.00177473 -0.000520827 6.42535e-05)
(-0.00179619 -0.000527741 2.18519e-05)
(-4.96392e-05 7.22761e-06 1.8351e-05)
(-9.5583e-05 -1.43401e-05 -2.90424e-05)
(-0.0001129 -2.9132e-05 -3.60505e-05)
(-0.000118215 -4.61967e-05 -3.82275e-05)
(-0.000137581 -7.22399e-05 -3.87247e-05)
(-0.00020068 -0.000113506 -4.38469e-05)
(-0.000296772 -0.000171571 -4.66713e-05)
(-0.000445389 -0.000242837 -3.23018e-05)
(-0.000609245 -0.000298866 -4.14187e-06)
(-0.000771555 -0.000335749 3.20351e-05)
(-0.000919121 -0.000353798 6.83209e-05)
(-0.00104696 -0.000360063 9.94335e-05)
(-0.00115549 -0.000361954 0.000123185)
(-0.00124605 -0.000363795 0.000139389)
(-0.00132283 -0.00036791 0.000149277)
(-0.0013892 -0.000374978 0.000154221)
(-0.00144707 -0.000384473 0.000155029)
(-0.00149767 -0.000395864 0.000151795)
(-0.00154279 -0.000408348 0.000144009)
(-0.00158446 -0.00042129 0.00013142)
(-0.00162502 -0.000433887 0.000113982)
(-0.00166268 -0.000445706 9.20556e-05)
(-0.00168891 -0.000455359 6.08828e-05)
(-0.00170833 -0.000461292 2.06209e-05)
(-1.22993e-05 7.92637e-06 1.27866e-05)
(-3.00588e-05 -3.68373e-06 -2.05476e-05)
(-3.93324e-05 -1.4405e-05 -2.63936e-05)
(-3.88605e-05 -2.01557e-05 -2.20404e-05)
(-4.23135e-05 -2.63008e-05 -2.02646e-05)
(-7.94211e-05 -5.21655e-05 -2.66826e-05)
(-0.000206283 -0.000114885 -4.47537e-05)
(-0.000322528 -0.000174574 -5.04561e-05)
(-0.00048932 -0.000241131 -3.27584e-05)
(-0.000656433 -0.000284332 -2.15774e-06)
(-0.000812597 -0.000308087 3.32656e-05)
(-0.000949959 -0.000317321 6.67111e-05)
(-0.00106526 -0.000319216 9.4274e-05)
(-0.00116176 -0.000319835 0.000114748)
(-0.00124208 -0.000321874 0.000128604)
(-0.00130932 -0.000326505 0.000136952)
(-0.00136643 -0.000333734 0.000140667)
(-0.00141439 -0.000343063 0.000139772)
(-0.00145593 -0.000353702 0.000133824)
(-0.00149349 -0.000364942 0.000122699)
(-0.00152954 -0.000375696 0.000106676)
(-0.00156308 -0.000385956 8.65913e-05)
(-0.0015851 -0.000394472 5.73772e-05)
(-0.00160239 -0.000399559 1.93381e-05)
(1.02403e-05 8.77585e-06 7.94215e-06)
(2.2463e-06 -3.53451e-06 -1.64857e-05)
(-5.68391e-06 -8.20331e-06 -2.03221e-05)
(-1.34506e-05 -1.14081e-05 -2.09917e-05)
(-2.2478e-05 -1.78586e-05 -2.50534e-05)
(-4.98636e-05 -3.96601e-05 -4.44368e-05)
(-6.80103e-05 -6.78476e-05 -2.92063e-05)
(-0.000217113 -0.000116916 -3.27471e-05)
(-0.000359179 -0.000174738 -5.35786e-05)
(-0.000532539 -0.000232088 -3.13467e-05)
(-0.000695568 -0.00026237 3.24166e-07)
(-0.000839444 -0.000275334 3.44563e-05)
(-0.000962235 -0.0002789 6.5205e-05)
(-0.00106323 -0.00027885 8.95504e-05)
(-0.00114643 -0.000279314 0.000107311)
(-0.00121506 -0.000282088 0.000119231)
(-0.00127097 -0.000287333 0.000125966)
(-0.0013156 -0.00029485 0.000127466)
(-0.00135216 -0.000303713 0.000123294)
(-0.00138417 -0.000313274 0.000113538)
(-0.00141582 -0.000322558 9.8992e-05)
(-0.00144448 -0.000331374 8.08134e-05)
(-0.00146142 -0.000338819 5.36372e-05)
(-0.00147618 -0.000343101 1.79656e-05)
(3.80564e-05 9.74889e-06 2.52339e-05)
(3.59005e-05 6.9093e-06 -1.79531e-06)
(2.15154e-05 8.51379e-06 -1.13111e-05)
(9.24667e-06 9.38058e-07 -1.98022e-05)
(-3.09897e-06 -4.81164e-06 -1.99471e-05)
(-2.81051e-05 -1.83007e-05 -3.24376e-05)
(-4.97169e-05 -4.31421e-05 -4.18467e-05)
(-7.94546e-05 -5.90977e-05 -2.86205e-05)
(-0.000244912 -0.000117482 -4.76916e-05)
(-0.000396297 -0.000171222 -5.39017e-05)
(-0.000565365 -0.000214508 -2.8454e-05)
(-0.000718376 -0.000233918 4.25697e-06)
(-0.000845802 -0.000240145 3.67618e-05)
(-0.000951539 -0.000240968 6.43724e-05)
(-0.00103725 -0.00024074 8.57632e-05)
(-0.00110551 -0.000241928 0.000101057)
(-0.00115953 -0.000245573 0.000110827)
(-0.00120027 -0.000251626 0.000114745)
(-0.00123227 -0.000259198 0.000112416)
(-0.00125906 -0.000267516 0.000104054)
(-0.00128528 -0.000275407 9.09315e-05)
(-0.00130915 -0.000283076 7.47566e-05)
(-0.00132082 -0.000289644 4.9701e-05)
(-0.00133301 -0.00029322 1.65207e-05)
(5.16401e-05 1.77657e-05 3.76755e-05)
(5.84841e-05 1.17313e-05 -1.00848e-05)
(5.5321e-05 1.76878e-06 -1.45912e-05)
(4.75852e-05 -8.47285e-06 -1.57499e-05)
(3.21531e-05 -1.37508e-05 -1.39786e-05)
(1.05728e-05 -1.57937e-05 -9.60278e-06)
(-3.179e-05 2.6784e-06 -3.12107e-05)
(-4.01701e-05 -3.18648e-05 -4.46864e-05)
(-0.000102764 -6.63346e-05 -3.50867e-05)
(-0.00027787 -0.000116277 -5.54397e-05)
(-0.000435396 -0.000164085 -5.22508e-05)
(-0.000587766 -0.000191841 -2.26944e-05)
(-0.000720247 -0.000203001 1.0356e-05)
(-0.000828024 -0.000205744 3.99603e-05)
(-0.000914806 -0.000205839 6.4303e-05)
(-0.000983483 -0.000206508 8.28004e-05)
(-0.00103504 -0.000209067 9.55107e-05)
(-0.00107094 -0.000213986 0.000101744)
(-0.00109624 -0.000220202 0.000101036)
(-0.00111648 -0.000227223 9.39334e-05)
(-0.00113751 -0.000234116 8.22931e-05)
(-0.00115532 -0.000240518 6.81705e-05)
(-0.00116159 -0.000246307 4.53987e-05)
(-0.00117123 -0.000249211 1.49501e-05)
(6.07068e-05 1.79733e-05 3.9814e-05)
(7.57764e-05 1.21841e-05 -1.07341e-05)
(7.96219e-05 5.01278e-06 -1.75684e-05)
(7.62302e-05 -6.11077e-06 -1.96881e-05)
(6.58952e-05 -1.62991e-05 -1.84521e-05)
(4.74615e-05 -2.07422e-05 -1.48771e-05)
(1.47281e-05 -2.22989e-05 -1.44239e-05)
(-2.59872e-05 -7.86904e-06 -3.82352e-05)
(-4.41834e-05 -3.27793e-05 -4.25981e-05)
(-0.000132524 -7.07774e-05 -4.50758e-05)
(-0.000295115 -0.000115248 -5.68711e-05)
(-0.000454896 -0.000149017 -4.25732e-05)
(-0.000586314 -0.000165659 -1.25931e-05)
(-0.000695751 -0.000172588 1.73361e-05)
(-0.000782621 -0.000174335 4.35939e-05)
(-0.000848602 -0.0001749 6.45297e-05)
(-0.000896691 -0.000176938 7.98846e-05)
(-0.000927414 -0.000181156 8.82814e-05)
(-0.00094788 -0.000186688 8.92523e-05)
(-0.00096173 -0.000192518 8.33503e-05)
(-0.000977223 -0.000198679 7.31729e-05)
(-0.000990601 -0.000204258 6.12617e-05)
(-0.000990929 -0.000209176 4.08281e-05)
(-0.000997432 -0.000211247 1.32785e-05)
(6.85334e-05 1.59624e-05 3.85854e-05)
(8.87759e-05 9.58998e-06 -1.15535e-05)
(9.6777e-05 2.39281e-06 -1.94316e-05)
(9.74399e-05 -8.55554e-06 -2.33535e-05)
(9.11616e-05 -1.91902e-05 -2.40662e-05)
(7.77444e-05 -2.76477e-05 -2.20515e-05)
(5.59029e-05 -2.87769e-05 -1.57865e-05)
(1.97791e-05 -2.45626e-05 -1.62282e-05)
(-2.29725e-05 -1.30875e-05 -3.73641e-05)
(-5.68546e-05 -3.64315e-05 -3.94201e-05)
(-0.000176151 -6.68331e-05 -4.62422e-05)
(-0.00031806 -0.00010172 -5.41833e-05)
(-0.000451635 -0.000129117 -3.01879e-05)
(-0.000557446 -0.000140215 -2.33342e-06)
(-0.000641872 -0.000144846 2.42751e-05)
(-0.000706963 -0.000146882 4.68775e-05)
(-0.000750944 -0.000149001 6.44151e-05)
(-0.000775222 -0.000152711 7.45766e-05)
(-0.000786925 -0.000157012 7.66924e-05)
(-0.000794655 -0.000161337 7.19218e-05)
(-0.000804466 -0.000167298 6.32027e-05)
(-0.000810479 -0.000171265 5.34555e-05)
(-0.000806077 -0.000175401 3.56814e-05)
(-0.000810752 -0.000176464 1.14447e-05)
(7.20742e-05 1.35397e-05 3.7389e-05)
(9.59055e-05 7.34023e-06 -1.12141e-05)
(0.000107259 6.48465e-07 -2.03667e-05)
(0.000111173 -1.02907e-05 -2.55226e-05)
(0.000108384 -2.16706e-05 -2.73603e-05)
(9.92689e-05 -3.13237e-05 -2.6103e-05)
(8.33643e-05 -3.75949e-05 -2.23035e-05)
(5.64582e-05 -3.44858e-05 -1.45604e-05)
(1.34847e-05 -2.46822e-05 -1.60238e-05)
(-3.88569e-05 -2.412e-06 -3.14406e-05)
(-5.94675e-05 -2.28046e-05 -3.04852e-05)
(-0.00020802 -5.80656e-05 -5.11856e-05)
(-0.000311447 -8.50679e-05 -4.17045e-05)
(-0.000419824 -0.00010856 -1.76535e-05)
(-0.000499773 -0.000116641 7.22042e-06)
(-0.000558282 -0.000120206 2.9964e-05)
(-0.000596785 -0.0001228 4.89036e-05)
(-0.000614955 -0.000126306 6.04286e-05)
(-0.000623647 -0.00013041 6.38229e-05)
(-0.000623625 -0.000132563 5.98856e-05)
(-0.000629057 -0.000138991 5.27761e-05)
(-0.000633302 -0.000142079 4.54661e-05)
(-0.00062347 -0.000145103 3.02902e-05)
(-0.000625554 -0.000145344 9.51545e-06)
(7.03732e-05 1.03843e-05 3.53225e-05)
(9.65189e-05 5.10081e-06 -9.39465e-06)
(0.000109317 -3.83586e-07 -1.94803e-05)
(0.0001163 -1.06854e-05 -2.58606e-05)
(0.000116961 -2.2559e-05 -2.8714e-05)
(0.000111836 -3.35357e-05 -2.81831e-05)
(0.000100888 -4.14218e-05 -2.44546e-05)
(8.25727e-05 -4.44016e-05 -1.8751e-05)
(4.99615e-05 -3.47771e-05 -9.37166e-06)
(-9.83007e-06 -1.23313e-05 -2.8466e-05)
(-3.36514e-05 -1.7006e-05 -4.2663e-05)
(-8.94368e-05 -3.81147e-05 -3.39445e-05)
(-0.000231162 -4.06867e-05 -3.58668e-05)
(-0.00028597 -7.38136e-05 -3.02277e-05)
(-0.000357729 -8.78853e-05 -6.41333e-06)
(-0.000415313 -9.50724e-05 1.48592e-05)
(-0.000448022 -9.86999e-05 3.4218e-05)
(-0.000457945 -0.000100961 4.62279e-05)
(-0.000455169 -0.000104235 4.9825e-05)
(-0.000448222 -9.88859e-05 4.70691e-05)
(-0.000452711 -0.000111221 4.1235e-05)
(-0.000447661 -0.000112404 3.60322e-05)
(-0.000434856 -0.000114196 2.39459e-05)
(-0.000430699 -0.000110927 7.36175e-06)
(6.44094e-05 6.88903e-06 3.20192e-05)
(9.15063e-05 2.52566e-06 -6.9115e-06)
(0.000105005 -1.93117e-06 -1.66906e-05)
(0.000113372 -1.06402e-05 -2.35355e-05)
(0.00011746 -2.19264e-05 -2.74394e-05)
(0.000116409 -3.34783e-05 -2.802e-05)
(0.000110281 -4.29811e-05 -2.53413e-05)
(9.79106e-05 -4.81782e-05 -2.00063e-05)
(7.66193e-05 -4.52589e-05 -1.30904e-05)
(3.44492e-05 -3.20548e-05 -1.31099e-05)
(-1.52264e-05 -7.39734e-06 -4.15441e-05)
(-5.6884e-05 -1.65534e-05 -5.5991e-05)
(-0.000106851 -6.94087e-05 -3.47322e-05)
(-0.00017397 -4.5093e-05 -1.50938e-05)
(-0.000226111 -5.09722e-05 -1.6696e-05)
(-0.000272138 -6.82664e-05 1.41051e-06)
(-0.00029623 -7.20497e-05 2.00971e-05)
(-0.000301514 -6.98589e-05 3.20925e-05)
(-0.000301916 -7.60596e-05 3.70319e-05)
(-0.000321718 -5.90778e-05 3.40468e-05)
(-0.000288493 -8.25876e-05 2.9482e-05)
(-0.000286731 -7.99931e-05 2.75141e-05)
(-0.000272734 -8.07535e-05 1.8627e-05)
(-0.000287586 -6.75134e-05 5.71869e-06)
(5.60344e-05 3.85504e-06 2.82897e-05)
(8.26579e-05 -1.57017e-08 -4.66864e-06)
(9.61174e-05 -3.87256e-06 -1.31894e-05)
(0.000105114 -1.12076e-05 -1.94362e-05)
(0.000111056 -2.08176e-05 -2.36831e-05)
(0.000113796 -3.17596e-05 -2.5402e-05)
(0.00011233 -4.18421e-05 -2.42257e-05)
(0.000105737 -4.88904e-05 -2.04186e-05)
(9.14908e-05 -5.04824e-05 -1.47231e-05)
(6.49619e-05 -4.31328e-05 -9.66936e-06)
(2.73496e-05 -2.77382e-05 -1.69347e-05)
(-5.16283e-05 -1.16839e-05 -5.01548e-05)
(-5.00057e-05 -3.67813e-05 -4.44931e-05)
(-8.04178e-05 -2.4415e-05 -1.64014e-05)
(-0.000163669 -1.51418e-05 -1.68924e-05)
(-0.000166725 -4.03992e-05 -7.53889e-06)
(-0.000185734 -4.29126e-05 8.35085e-06)
(-0.000209868 -3.82561e-05 1.92534e-05)
(-0.000169057 -4.59658e-05 1.77768e-05)
(-0.000179015 -7.59042e-05 1.84225e-05)
(-0.000152055 -5.02738e-05 2.32844e-05)
(-0.000150811 -4.66207e-05 1.7613e-05)
(-0.000133179 -4.63428e-05 9.59706e-06)
(-0.000136023 -5.66983e-05 2.43043e-06)
(4.70765e-05 1.844e-06 2.47639e-05)
(7.19499e-05 -2.07519e-06 -3.30468e-06)
(8.46075e-05 -5.87789e-06 -1.02095e-05)
(9.35171e-05 -1.22683e-05 -1.52192e-05)
(0.000100215 -2.04006e-05 -1.89358e-05)
(0.000105375 -2.97858e-05 -2.1065e-05)
(0.000107936 -3.92883e-05 -2.11421e-05)
(0.000106521 -4.70225e-05 -1.91862e-05)
(9.88842e-05 -5.13035e-05 -1.52592e-05)
(8.09787e-05 -5.04794e-05 -1.08065e-05)
(5.12252e-05 -3.79779e-05 -5.79071e-06)
(9.63165e-06 -2.97328e-05 -6.35453e-06)
(-4.56564e-05 4.67037e-05 -4.40209e-05)
(-3.95397e-05 -5.13104e-06 -5.19421e-05)
(-7.27247e-05 -9.50729e-05 -2.91897e-05)
(-5.23028e-05 -2.26894e-05 -1.02466e-06)
(-6.41375e-05 -2.52731e-05 -5.88672e-06)
(-8.30923e-05 -7.11649e-05 5.79692e-06)
(-6.05381e-05 -2.61067e-05 6.75678e-06)
(-9.83471e-05 -7.9931e-05 1.45709e-05)
(-3.79707e-05 -1.8987e-05 8.44729e-06)
(-3.55729e-05 -2.10035e-05 5.76106e-06)
(-2.86326e-05 -2.08553e-05 1.8336e-06)
(-5.07022e-05 -5.13504e-05 2.36551e-06)
(3.81957e-05 7.24328e-07 2.13109e-05)
(6.06778e-05 -3.54073e-06 -2.80045e-06)
(7.21083e-05 -7.70597e-06 -8.19093e-06)
(8.05311e-05 -1.37064e-05 -1.18227e-05)
(8.74679e-05 -2.08894e-05 -1.45026e-05)
(9.37377e-05 -2.8749e-05 -1.63004e-05)
(9.91146e-05 -3.69138e-05 -1.69906e-05)
(0.000101716 -4.41211e-05 -1.64352e-05)
(9.96905e-05 -4.95431e-05 -1.46764e-05)
(8.95446e-05 -5.17757e-05 -1.17479e-05)
(6.80786e-05 -4.7982e-05 -8.58242e-06)
(3.164e-05 -3.15238e-05 -5.93357e-06)
(-2.34532e-05 -1.36528e-05 -2.84104e-05)
(-4.68319e-05 -1.97557e-05 -5.23457e-05)
(-1.70731e-05 -3.16332e-05 -3.7723e-05)
(-2.97807e-05 -2.34269e-05 -2.01197e-05)
(-2.96703e-05 -2.64017e-05 -1.15663e-05)
(-3.98919e-05 -4.37695e-05 4.18146e-06)
(-2.11157e-05 -2.35809e-05 5.27856e-06)
(-3.17662e-05 -9.08266e-06 1.03427e-05)
(-8.6421e-06 -1.88788e-05 4.32148e-06)
(-1.33698e-05 -2.17434e-05 7.42975e-06)
(-8.04049e-06 -2.17825e-05 5.97148e-06)
(-1.57616e-05 -7.47521e-06 5.05521e-06)
(3.09416e-05 -7.97154e-08 1.81643e-05)
(5.07197e-05 -4.88056e-06 -2.82693e-06)
(6.07259e-05 -9.60952e-06 -6.9508e-06)
(6.84245e-05 -1.55843e-05 -9.34548e-06)
(7.52667e-05 -2.2238e-05 -1.09302e-05)
(8.20144e-05 -2.90773e-05 -1.20646e-05)
(8.86008e-05 -3.57478e-05 -1.27897e-05)
(9.3701e-05 -4.18704e-05 -1.30188e-05)
(9.56276e-05 -4.70084e-05 -1.27401e-05)
(9.19712e-05 -5.08288e-05 -1.19115e-05)
(7.89531e-05 -5.09823e-05 -1.05885e-05)
(5.3566e-05 -4.38772e-05 -1.17435e-05)
(1.26376e-05 -3.27019e-05 -2.09238e-05)
(1.10754e-05 -2.83499e-05 -2.22336e-05)
(-2.15585e-05 5.11748e-05 -3.59212e-05)
(-5.89033e-06 -3.19219e-06 -3.33387e-05)
(-6.11412e-06 -7.50823e-06 -1.21154e-05)