/*--------------------------------*- C++ -*----------------------------------*\
  =========                 |
  \\      /  F ield         | OpenFOAM: The Open Source CFD Toolbox
   \\    /   O peration     | Website:  https://openfoam.org
    \\  /    A nd           | Version:  6
     \\/     M anipulation  |
\*---------------------------------------------------------------------------*/
FoamFile
{
    version     2.0;
    format      ascii;
    class       volScalarField;
    location    "28";
    object      omega;
}
// * * * * * * * * * * * * * * * * * * * * * * * * * * * * * * * * * * * * * //

dimensions      [0 0 -1 0 0 0 0];

internalField   nonuniform List<scalar> 
380496
(
843.917
843.917
843.917
843.917
843.917
843.917
843.917
843.917
843.917
843.917
843.917
843.917
843.917
843.917
843.917
843.917
843.917
843.917
843.917
843.917
843.917
843.917
843.917
843.917
843.917
843.917
843.917
843.917
843.917
843.917
843.917
843.917
843.917
843.917
843.917
843.917
843.917
843.917
843.917
843.917
843.917
843.917
843.917
843.917
843.917
843.917
843.917
843.917
843.917
843.917
843.917
843.917
843.917
843.917
843.917
843.917
843.917
843.917
843.917
843.917
843.917
843.917
843.917
843.917
843.917
843.917
843.917
843.917
843.917
843.917
843.917
843.917
843.917
843.917
843.917
843.917
843.917
843.917
843.917
843.917
843.917
843.917
843.917
843.917
843.917
843.917
843.917
843.917
843.917
843.917
843.917
843.917
843.917
843.917
843.917
843.917
843.917
843.917
843.917
843.917
843.917
843.917
843.917
843.917
843.917
843.917
843.917
843.917
843.917
843.917
843.917
843.917
843.917
843.917
843.917
843.917
843.917
843.917
843.917
843.917
843.917
843.917
843.917
843.917
843.917
843.917
843.917
843.917
843.917
843.917
843.917
843.917
843.917
843.917
843.917
843.917
843.917
843.917
843.917
843.917
843.917
843.917
843.917
843.917
843.917
843.917
843.917
843.917
843.917
843.917
843.917
843.917
843.917
843.917
843.917
843.917
843.917
843.917
843.917
843.917
843.917
843.917
843.917
843.917
843.917
843.917
843.917
843.917
843.917
843.917
843.917
843.917
843.917
843.917
843.917
843.917
843.917
843.917
843.917
843.917
843.917
843.917
843.917
843.917
843.917
843.917
843.917
843.917
843.917
843.917
843.917
843.917
843.917
843.917
843.917
843.917
843.917
843.917
843.917
843.917
843.917
843.917
843.917
843.917
843.917
843.917
843.917
843.917
843.917
843.917
843.917
843.917
843.917
843.917
843.917
843.917
843.917
843.917
843.917
843.917
843.917
843.917
843.917
843.917
843.917
843.917
843.917
843.917
843.917
843.917
843.917
843.917
843.917
843.917
843.917
843.917
843.917
843.917
843.917
843.917
843.917
843.917
843.917
843.917
843.917
843.917
843.917
843.917
843.917
843.917
843.917
843.917
843.917
843.917
843.917
843.917
843.917
843.917
843.917
843.917
843.917
843.917
843.917
843.917
843.917
843.917
843.917
843.917
843.917
843.917
843.917
843.917
843.917
843.917
843.917
843.917
843.917
843.917
843.917
843.917
843.917
843.917
843.917
843.917
843.917
843.917
843.917
843.917
843.917
843.917
843.917
843.917
843.917
843.917
843.917
843.917
843.917
843.917
843.917
843.917
843.917
843.917
843.917
843.917
843.917
843.917
843.917
843.917
843.917
843.917
843.917
843.917
843.917
843.917
843.917
843.917
843.917
843.917
843.917
843.917
843.917
843.917
843.917
843.917
843.917
843.917
843.917
843.917
843.917
843.917
843.917
843.917
843.917
843.917
843.917
843.917
843.917
843.917
843.917
843.917
843.917
843.917
843.917
843.917
843.917
843.917
843.917
843.917
843.917
843.917
843.917
843.917
843.917
843.917
843.917
843.917
843.917
843.917
843.917
843.917
843.917
843.917
843.917
843.917
843.917
843.917
843.917
843.917
843.917
843.917
843.917
843.917
843.917
843.917
843.917
843.917
843.917
843.917
843.917
843.917
843.917
843.917
843.917
843.917
843.917
843.917
843.917
843.917
843.917
843.917
843.917
843.917
843.917
843.917
843.917
843.917
843.917
843.917
843.917
843.917
843.917
843.917
843.917
843.917
843.917
843.917
843.917
843.917
843.917
843.917
843.917
843.917
843.917
843.917
843.917
843.917
843.917
843.917
843.917
843.917
843.917
843.917
843.917
843.917
843.917
843.917
843.917
843.917
843.917
843.917
843.917
843.917
843.917
843.917
843.917
843.917
843.917
843.917
843.917
843.917
843.917
843.917
843.917
843.917
843.917
843.917
843.917
843.917
843.917
843.917
843.917
843.917
843.917
843.917
843.917
843.917
843.917
843.917
843.917
843.917
843.917
843.917
843.917
843.917
843.917
843.917
843.917
843.917
843.917
843.917
843.917
843.917
843.917
843.917
843.917
843.917
843.917
843.917
843.917
843.917
843.917
843.917
843.917
843.917
843.917
843.917
843.917
843.917
843.917
843.917
843.917
843.917
843.917
843.917
843.917
843.917
843.917
843.917
843.917
843.917
843.917
843.917
843.917
843.917
843.917
843.917
843.917
843.917
843.917
843.917
843.917
843.917
843.917
843.917
843.917
843.917
843.917
843.917
843.917
843.917
843.917
843.917
843.917
843.917
843.917
843.917
843.917
843.917
843.917
843.917
843.917
843.917
843.917
843.917
843.917
843.917
843.917
843.917
843.917
843.917
843.917
843.917
843.917
843.917
843.917
843.917
843.917
843.917
843.917
843.917
843.917
843.917
843.917
843.917
843.917
843.917
843.917
843.917
843.917
843.917
843.917
843.917
843.917
843.917
843.917
843.917
843.917
843.917
843.917
843.917
843.917
843.917
843.917
843.917
843.917
843.917
843.917
843.917
843.917
843.917
843.917
843.917
843.917
843.917
843.917
843.917
843.917
843.917
843.917
843.917
843.917
843.917
843.917
843.917
843.917
843.917
843.917
843.917
843.917
843.917
843.917
843.917
843.917
843.917
843.917
843.917
843.917
843.917
843.917
843.917
843.917
843.917
843.917
843.917
843.917
843.917
843.917
843.917
843.917
843.917
843.917
843.917
843.917
843.917
843.917
843.917
843.917
843.917
843.917
843.917
843.917
843.917
843.917
843.917
843.917
843.917
843.917
843.917
843.917
843.917
843.917
843.917
843.917
843.917
843.917
843.917
843.917
843.917
843.917
843.917
843.917
843.917
843.917
843.917
843.917
843.917
843.917
843.917
843.917
843.917
843.917
843.917
843.917
843.917
843.917
843.917
843.917
843.917
843.917
843.917
843.917
843.917
843.917
843.917
843.917
843.917
843.917
843.917
843.917
843.917
843.917
843.917
843.917
843.917
843.917
843.917
843.917
843.917
843.917
843.917
843.917
843.917
843.917
843.917
843.917
843.917
843.917
843.917
843.917
843.917
423.923
423.923
423.923
423.923
423.923
424.288
424.268
424.281
424.272
424.295
424.32
424.34
424.363
424.382
424.405
424.425
424.45
424.471
424.498
424.521
424.551
424.576
424.609
424.636
424.673
424.702
424.743
424.772
424.819
424.846
424.901
424.921
424.989
424.99
425.072
275.638
262.144
263.673
264.573
264.559
264.419
264.333
264.29
264.265
264.255
264.249
264.25
264.252
264.26
264.267
264.28
264.289
264.307
264.318
264.343
264.357
264.389
264.408
264.446
264.471
264.518
264.551
264.607
264.649
264.713
264.765
264.838
264.896
264.985
265.025
275.378
261.96
263.393
264.253
264.226
264.084
263.997
263.955
263.93
263.923
263.918
263.924
263.929
263.943
263.952
263.972
263.985
264.011
264.027
264.06
264.08
264.122
264.147
264.197
264.228
264.287
264.327
264.394
264.444
264.519
264.576
264.661
264.713
264.83
264.79
274.938
261.626
263.023
263.851
263.811
263.668
263.58
263.542
263.52
263.52
263.519
263.534
263.543
263.566
263.583
263.612
263.634
263.669
263.697
263.74
263.774
263.825
263.866
263.927
263.976
264.047
264.104
264.187
264.253
264.347
264.419
264.526
264.59
264.738
264.71
274.255
261.102
262.54
263.341
263.28
263.131
263.045
263.012
262.997
263.004
263.011
263.035
263.053
263.086
263.11
263.15
263.181
263.228
263.266
263.32
263.366
263.428
263.483
263.555
263.619
263.703
263.775
263.871
263.951
264.06
264.144
264.27
264.34
264.513
264.48
273.787
260.732
262.024
262.77
262.702
262.553
262.469
262.438
262.427
262.438
262.451
262.48
262.504
262.544
262.576
262.624
262.663
262.72
262.766
262.833
262.888
262.966
263.029
263.119
263.193
263.295
263.378
263.493
263.585
263.713
263.811
263.955
264.041
264.236
264.21
272.915
260.038
261.328
262.034
261.947
261.796
261.717
261.695
261.693
261.715
261.739
261.778
261.814
261.863
261.907
261.965
262.017
262.084
262.144
262.222
262.291
262.38
262.459
262.561
262.65
262.766
262.864
262.994
263.101
263.245
263.357
263.519
263.615
263.836
263.807
272.061
259.34
260.531
261.181
261.08
260.93
260.857
260.842
260.85
260.88
260.914
260.962
261.007
261.067
261.12
261.189
261.25
261.33
261.4
261.492
261.572
261.676
261.767
261.885
261.987
262.119
262.232
262.377
262.499
262.659
262.786
262.967
263.074
263.32
263.291
271.026
258.479
259.567
260.157
260.044
259.896
259.832
259.829
259.847
259.889
259.933
259.992
260.047
260.117
260.181
260.26
260.333
260.424
260.506
260.609
260.703
260.82
260.925
261.056
261.172
261.319
261.446
261.607
261.743
261.92
262.059
262.257
262.375
262.644
262.612
269.807
257.456
258.457
258.985
258.857
258.716
258.666
258.677
258.712
258.768
258.826
258.897
258.964
259.045
259.121
259.212
259.296
259.399
259.494
259.61
259.716
259.846
259.964
260.11
260.24
260.401
260.541
260.718
260.867
261.059
261.212
261.426
261.555
261.845
261.811
268.657
256.454
257.277
257.74
257.61
257.478
257.442
257.466
257.513
257.579
257.647
257.727
257.804
257.894
257.979
258.079
258.174
258.287
258.392
258.519
258.636
258.779
258.909
259.067
259.209
259.384
259.536
259.726
259.888
260.094
260.257
260.487
260.624
260.933
260.896
267.087
255.101
255.846
256.251
256.111
255.995
255.985
256.033
256.102
256.188
256.273
256.369
256.46
256.563
256.662
256.774
256.881
257.006
257.124
257.264
257.394
257.549
257.692
257.864
258.018
258.206
258.372
258.576
258.75
258.97
259.145
259.389
259.534
259.863
259.821
265.666
253.803
254.279
254.616
254.485
254.389
254.4
254.465
254.549
254.645
254.742
254.847
254.949
255.061
255.169
255.291
255.409
255.545
255.674
255.825
255.967
256.135
256.29
256.474
256.642
256.843
257.021
257.239
257.425
257.659
257.845
258.104
258.258
258.605
258.558
263.602
251.962
252.321
252.61
252.487
252.426
252.479
252.58
252.695
252.817
252.937
253.06
253.179
253.306
253.43
253.566
253.698
253.846
253.99
254.154
254.31
254.491
254.66
254.858
255.039
255.255
255.446
255.678
255.877
256.125
256.323
256.597
256.759
257.127
257.073
261.657
250.111
250.128
250.362
250.265
250.245
250.335
250.462
250.599
250.738
250.874
251.01
251.143
251.282
251.419
251.566
251.712
251.872
252.029
252.205
252.375
252.569
252.752
252.963
253.159
253.388
253.593
253.839
254.051
254.314
254.524
254.813
254.984
255.372
255.308
258.961
247.586
247.37
247.584
247.529
247.576
247.73
247.906
248.083
248.253
248.415
248.572
248.725
248.88
249.034
249.195
249.355
249.528
249.699
249.888
250.072
250.279
250.476
250.701
250.91
251.153
251.373
251.633
251.858
252.136
252.359
252.664
252.845
253.254
253.181
255.939
244.637
244.052
244.272
244.29
244.421
244.642
244.868
245.083
245.283
245.469
245.645
245.815
245.983
246.149
246.32
246.492
246.674
246.857
247.055
247.252
247.469
247.68
247.917
248.141
248.397
248.632
248.908
249.148
249.442
249.68
250.002
250.196
250.627
250.548
252.317
240.988
239.927
240.186
240.311
240.557
240.862
241.145
241.394
241.616
241.813
241.995
242.167
242.336
242.504
242.677
242.852
243.038
243.229
243.434
243.643
243.871
244.099
244.35
244.594
244.868
245.124
245.419
245.682
245.997
246.258
246.602
246.821
247.275
247.211
246.448
235.384
234.178
234.679
234.989
235.387
235.784
236.121
236.391
236.625
236.818
237.002
237.169
237.342
237.513
237.698
237.887
238.093
238.306
238.538
238.776
239.035
239.296
239.581
239.862
240.17
240.465
240.795
241.098
241.448
241.747
242.122
242.383
242.857
242.842
238.155
227.579
225.862
226.733
227.334
227.911
228.379
228.738
229.006
229.249
229.452
229.667
229.865
230.089
230.304
230.55
230.789
231.06
231.326
231.623
231.916
232.237
232.555
232.9
233.24
233.605
233.961
234.344
234.708
235.106
235.469
235.888
236.219
236.72
236.84
218.095
211.367
210.037
211.657
212.786
213.68
214.361
214.897
215.336
215.74
216.089
216.438
216.75
217.081
217.384
217.72
218.033
218.387
218.722
219.104
219.465
219.87
220.258
220.688
221.103
221.552
221.988
222.45
222.9
223.367
223.821
224.284
224.72
225.121
225.374
9.50423
8.83565
9.16122
9.29924
9.37672
9.42571
9.47162
9.50706
9.53642
9.5716
9.61553
9.64928
9.69258
9.72572
9.77094
9.80583
9.85462
9.89244
9.94557
9.98667
10.0444
10.0887
10.1518
10.1986
10.2679
10.3156
10.3928
10.4379
10.5261
10.5626
10.6676
10.685
10.8161
10.7939
10.9557
133.59
127.215
127.094
127.666
127.852
127.835
127.782
127.738
127.708
127.688
127.675
127.669
127.666
127.667
127.67
127.675
127.683
127.692
127.704
127.717
127.733
127.75
127.771
127.793
127.82
127.847
127.882
127.917
127.96
128.004
128.056
128.114
128.172
128.256
128.314
133.311
126.951
126.79
127.334
127.509
127.487
127.432
127.388
127.358
127.339
127.328
127.324
127.323
127.327
127.333
127.343
127.354
127.368
127.384
127.402
127.423
127.445
127.472
127.499
127.533
127.566
127.608
127.648
127.699
127.746
127.809
127.864
127.933
128.012
128.048
132.937
126.596
126.417
126.944
127.109
127.085
127.028
126.985
126.956
126.941
126.933
126.933
126.936
126.945
126.957
126.972
126.989
127.009
127.031
127.056
127.085
127.115
127.15
127.186
127.229
127.272
127.323
127.373
127.435
127.491
127.565
127.631
127.711
127.804
127.852
132.435
126.122
125.96
126.48
126.635
126.605
126.547
126.506
126.479
126.468
126.465
126.47
126.479
126.494
126.511
126.533
126.556
126.583
126.612
126.644
126.68
126.717
126.76
126.804
126.854
126.905
126.965
127.022
127.093
127.157
127.239
127.311
127.397
127.495
127.547
132.014
125.739
125.522
126
126.14
126.104
126.044
126.002
125.977
125.967
125.966
125.975
125.987
126.006
126.027
126.053
126.081
126.113
126.147
126.186
126.227
126.272
126.321
126.372
126.43
126.488
126.555
126.621
126.699
126.772
126.861
126.943
127.034
127.145
127.198
131.387
125.155
124.944
125.405
125.53
125.487
125.426
125.387
125.366
125.362
125.367
125.382
125.401
125.426
125.453
125.485
125.52
125.559
125.6
125.645
125.694
125.746
125.802
125.861
125.926
125.993
126.067
126.141
126.226
126.306
126.402
126.491
126.587
126.706
126.761
130.745
124.568
124.324
124.747
124.852
124.801
124.739
124.701
124.684
124.685
124.695
124.715
124.739
124.77
124.803
124.841
124.881
124.926
124.973
125.025
125.08
125.139
125.202
125.269
125.341
125.415
125.497
125.578
125.67
125.758
125.86
125.957
126.057
126.186
126.242
129.997
123.88
123.603
123.985
124.068
124.01
123.947
123.913
123.9
123.907
123.923
123.949
123.979
124.016
124.054
124.099
124.145
124.196
124.25
124.308
124.369
124.435
124.505
124.579
124.658
124.739
124.828
124.916
125.015
125.11
125.217
125.322
125.426
125.563
125.618
129.152
123.104
122.799
123.139
123.199
123.132
123.07
123.041
123.036
123.051
123.075
123.108
123.145
123.189
123.234
123.285
123.338
123.396
123.456
123.521
123.589
123.661
123.738
123.819
123.905
123.993
124.088
124.184
124.289
124.391
124.504
124.616
124.723
124.869
124.924
128.333
122.355
121.978
122.26
122.296
122.223
122.163
122.139
122.141
122.161
122.191
122.23
122.273
122.322
122.373
122.429
122.487
122.55
122.616
122.687
122.76
122.839
122.922
123.009
123.101
123.195
123.297
123.398
123.509
123.617
123.736
123.854
123.964
124.118
124.171
127.304
121.401
120.996
121.234
121.245
121.165
121.112
121.098
121.111
121.143
121.184
121.233
121.284
121.341
121.4
121.463
121.528
121.598
121.67
121.748
121.828
121.914
122.003
122.096
122.195
122.296
122.404
122.512
122.63
122.744
122.868
122.993
123.106
123.269
123.32
126.312
120.489
119.958
120.117
120.1
120.017
119.971
119.966
119.988
120.028
120.076
120.132
120.19
120.253
120.317
120.386
120.457
120.533
120.611
120.695
120.781
120.873
120.968
121.068
121.173
121.281
121.395
121.51
121.633
121.754
121.883
122.015
122.132
122.303
122.351
125.004
119.264
118.671
118.778
118.737
118.654
118.621
118.635
118.674
118.73
118.792
118.859
118.928
119.001
119.074
119.152
119.231
119.315
119.4
119.492
119.585
119.685
119.787
119.894
120.006
120.121
120.242
120.364
120.494
120.622
120.757
120.896
121.016
121.197
121.242
123.705
118.045
117.265
117.276
117.208
117.129
117.114
117.143
117.198
117.267
117.34
117.418
117.496
117.577
117.658
117.743
117.829
117.92
118.013
118.111
118.212
118.318
118.428
118.542
118.661
118.783
118.911
119.04
119.177
119.312
119.453
119.599
119.723
119.915
119.954
122.019
116.445
115.512
115.453
115.364
115.301
115.313
115.371
115.451
115.54
115.631
115.723
115.814
115.906
115.998
116.092
116.186
116.285
116.386
116.492
116.6
116.714
116.83
116.952
117.078
117.208
117.343
117.48
117.624
117.766
117.914
118.068
118.197
118.401
118.434
120.108
114.604
113.423
113.275
113.175
113.137
113.185
113.274
113.38
113.491
113.601
113.707
113.811
113.913
114.013
114.115
114.217
114.322
114.429
114.541
114.656
114.776
114.9
115.029
115.162
115.299
115.442
115.586
115.737
115.888
116.044
116.206
116.342
116.557
116.585
117.825
112.372
110.841
110.583
110.476
110.478
110.574
110.704
110.84
110.973
111.097
111.214
111.325
111.432
111.537
111.642
111.748
111.857
111.969
112.085
112.206
112.332
112.463
112.599
112.741
112.887
113.04
113.194
113.356
113.517
113.685
113.858
114.007
114.237
114.273
114.184
108.832
107.096
106.874
106.837
106.924
107.089
107.27
107.438
107.594
107.73
107.855
107.968
108.079
108.186
108.297
108.408
108.526
108.647
108.775
108.909
109.05
109.197
109.351
109.51
109.675
109.847
110.021
110.202
110.383
110.571
110.762
110.933
111.177
111.229
108.727
103.939
101.682
101.432
101.489
101.683
101.915
102.133
102.312
102.478
102.62
102.763
102.895
103.036
103.171
103.32
103.465
103.623
103.781
103.951
104.121
104.302
104.486
104.678
104.874
105.075
105.282
105.491
105.706
105.921
106.142
106.365
106.574
106.845
106.965
94.0524
94.1823
91.3701
90.7409
90.7688
91.0939
91.5103
91.916
92.2902
92.6448
92.9662
93.2735
93.5518
93.8234
94.0722
94.3217
94.5562
94.7974
95.0282
95.2654
95.493
95.7294
95.9617
96.204
96.4445
96.6934
96.9416
97.1952
97.45
97.704
97.9666
98.2062
98.4902
98.6504
98.9526
11.5219
10.7696
11.096
11.221
11.3001
11.3518
11.4004
11.4367
11.4739
11.5061
11.5486
11.5799
11.623
11.6546
11.7005
11.7344
11.7844
11.8215
11.8762
11.9166
11.9763
12.0198
12.0848
12.1307
12.202
12.2483
12.3276
12.3703
12.4609
12.4939
12.6015
12.6144
12.7479
12.7217
12.8853
79.3735
76.7492
76.2134
76.3798
76.5396
76.5868
76.5787
76.5549
76.5315
76.5121
76.4978
76.487
76.4805
76.4757
76.4746
76.4737
76.4768
76.4784
76.4852
76.4885
76.4989
76.5039
76.5177
76.5246
76.5422
76.5517
76.573
76.5864
76.6109
76.6309
76.6569
76.689
76.7124
76.7641
76.7868
79.1303
76.5262
75.9807
76.1315
76.2815
76.3233
76.3122
76.2864
76.2623
76.2426
76.2291
76.219
76.2141
76.2106
76.2118
76.2126
76.2186
76.2221
76.2323
76.2379
76.2522
76.2594
76.2781
76.2872
76.3104
76.3217
76.3499
76.3639
76.3978
76.4145
76.4551
76.4753
76.5202
76.5486
76.5928
78.8429
76.2491
75.6996
75.841
75.9839
76.0211
76.0076
75.9805
75.9563
75.9371
75.925
75.9165
75.914
75.9128
75.9168
75.9206
75.9297
75.937
75.9504
75.9605
75.9781
75.9907
76.0129
76.0277
76.0551
76.0721
76.1057
76.1247
76.1657
76.1864
76.2359
76.2601
76.3141
76.3512
76.3991
78.4941
75.9018
75.3598
75.5004
75.6382
75.6707
75.654
75.6257
75.6018
75.5838
75.5739
75.5678
75.5683
75.5702
75.5779
75.585
75.598
75.6091
75.6265
75.6409
75.6626
75.68
75.7063
75.7265
75.7583
75.7805
75.8192
75.8428
75.8899
75.9141
75.9705
75.9965
76.0573
76.0942
76.148
78.1501
75.5902
75.0361
75.1538
75.2761
75.3
75.2787
75.2481
75.2232
75.2053
75.1962
75.1914
75.1936
75.1974
75.2074
75.2168
75.2327
75.2462
75.2673
75.2841
75.3102
75.3301
75.3615
75.3843
75.4216
75.4469
75.491
75.5184
75.5704
75.5996
75.6597
75.6924
75.7555
75.8005
75.8576
77.7112
75.162
74.6156
74.7272
74.8399
74.8565
74.8309
74.7989
74.7744
74.7584
74.7516
74.7501
74.7554
74.763
74.7763
74.7899
74.8092
74.8271
74.8516
74.8732
74.9029
74.9276
74.963
74.9906
75.0321
75.0622
75.1108
75.1429
75.1996
75.2329
75.2981
75.3338
75.4025
75.4484
75.5119
77.2391
74.7181
74.1676
74.2598
74.3559
74.3621
74.3311
74.297
74.2726
74.2579
74.2533
74.2544
74.2626
74.2732
74.2898
74.3065
74.3294
74.3504
74.3789
74.4037
74.4376
74.4659
74.5055
74.5369
74.5829
74.617
74.6701
74.7063
74.7675
74.8049
74.8746
74.9143
74.987
75.0369
75.1044
76.6972
74.2067
73.6529
73.7238
73.8012
73.7957
73.7589
73.7231
73.6992
73.6865
73.6846
73.6889
73.7004
73.7145
73.7345
73.7548
73.7812
73.8061
73.8381
73.8669
73.9045
73.9369
73.9805
74.016
74.0663
74.1044
74.1621
74.202
74.268
74.3089
74.3831
74.4263
74.5027
74.5559
74.6263
76.0999
73.6405
73.0851
73.1342
73.1911
73.1723
73.1295
73.0926
73.0703
73.0607
73.0625
73.0709
73.0865
73.1047
73.1287
73.153
73.1832
73.212
73.2479
73.2806
73.3223
73.3585
73.4063
73.4458
73.5003
73.5424
73.6045
73.6483
73.7186
73.7632
73.8416
73.8885
73.9684
74.0253
74.0985
75.4988
73.0835
72.509
72.5232
72.5547
72.5223
72.4742
72.4368
72.4161
72.4095
72.4145
72.4265
72.4455
72.4673
72.4946
72.5224
72.5559
72.5882
72.6275
72.6636
72.7088
72.7486
72.8001
72.8431
72.9015
72.9472
73.0132
73.0605
73.1349
73.1828
73.2651
73.3151
73.3982
73.4585
73.5337
74.7877
72.4069
71.8275
71.8171
71.8252
71.7785
71.7255
71.6888
71.6718
71.6702
71.6806
71.698
71.7222
71.7489
71.7809
71.8132
71.8511
71.8876
71.931
71.9713
72.0205
72.0644
72.12
72.167
72.2296
72.2792
72.3495
72.4005
72.4792
72.5306
72.617
72.6705
72.7568
72.821
72.898
74.0535
71.7341
71.1101
71.0453
71.0185
70.9556
70.8986
70.8635
70.8504
70.8537
70.869
70.8912
70.9198
70.9509
70.9869
71.0233
71.0649
71.1054
71.1525
71.1967
71.2497
71.2975
71.357
71.408
71.4747
71.5281
71.6026
71.6573
71.7403
71.7953
71.8859
71.943
72.0325
72.1009
72.1791
73.1494
70.8786
70.2307
70.1295
70.0732
69.9955
69.936
69.9051
69.8989
69.9101
69.933
69.9626
69.9979
70.0354
70.0771
70.119
70.1658
70.2113
70.2632
70.3122
70.3699
70.4222
70.4864
70.5418
70.6131
70.6708
70.7501
70.8089
70.8967
70.9555
71.0506
71.1116
71.2047
71.278
71.3572
72.1923
69.9974
69.2694
69.0937
68.9939
68.8996
68.8397
68.8149
68.8169
68.8366
68.8674
68.9044
68.9462
68.9899
69.0371
69.0844
69.136
69.1865
69.2429
69.2966
69.3587
69.4156
69.4842
69.544
69.62
69.682
69.7661
69.8289
69.9218
69.9844
70.0845
70.1494
70.2464
70.3248
70.4044
71.0025
68.881
68.0803
67.8421
67.7033
67.5955
67.539
67.5244
67.5385
67.57
67.6115
67.6581
67.7082
67.7595
67.8132
67.8669
67.9241
67.9802
68.0416
68.1005
68.1673
68.2292
68.3026
68.3672
68.4482
68.5147
68.6041
68.6712
68.7696
68.8362
68.9421
69.0111
69.113
69.1974
69.2788
69.6099
67.5791
66.6556
66.3306
66.147
66.0288
65.9803
65.9794
66.008
66.0529
66.106
66.1626
66.2211
66.2799
66.3398
66.3995
66.4615
66.5228
66.5885
66.6523
66.7234
66.7903
66.8681
66.9377
67.0234
67.0948
67.1895
67.2615
67.3659
67.437
67.5495
67.6227
67.7309
67.8207
67.9046
67.9186
65.9889
64.882
64.4394
64.1988
64.0706
64.0341
64.0508
64.0961
64.155
64.2192
64.2845
64.3498
64.4143
64.479
64.5433
64.6093
64.6751
64.7446
64.8132
64.8883
64.9606
65.043
65.1187
65.2099
65.2881
65.3891
65.468
65.5799
65.6578
65.7792
65.8587
65.9775
66.0749
66.1701
65.3965
63.5126
62.2588
61.7692
61.5195
61.409
61.3992
61.4408
61.5061
61.5805
61.6563
61.7301
61.802
61.8719
61.9417
62.0113
62.083
62.1556
62.2323
62.3099
62.3937
62.4769
62.5693
62.6576
62.7596
62.8514
62.9642
63.0571
63.1816
63.2729
63.4084
63.4993
63.6348
63.7399
63.8519
61.5623
60.0531
58.4392
57.7749
57.4766
57.38
57.4013
57.4699
57.558
57.651
57.7469
57.841
57.9375
58.0322
58.1309
58.2284
58.3309
58.4324
58.5396
58.646
58.7587
58.8702
58.9888
59.105
59.2306
59.35
59.4836
59.6038
59.747
59.8646
60.0185
60.1328
60.2918
60.4151
60.5697
52.9315
55.1642
53.2042
51.9869
51.3897
51.1883
51.2129
51.3257
51.487
51.6576
51.842
52.016
52.1957
52.3589
52.5282
52.6795
52.8401
52.9833
53.1377
53.2741
53.422
53.5543
53.6992
53.8325
53.9773
54.1141
54.2598
54.3993
54.5484
54.6852
54.8462
54.962
55.1605
55.2057
55.4718
13.0788
12.358
12.7412
12.8832
12.967
13.0168
13.0623
13.0939
13.1306
13.1574
13.1967
13.2236
13.265
13.2934
13.3389
13.3703
13.4208
13.4559
13.5117
13.5506
13.6117
13.654
13.7208
13.7654
13.8388
13.8836
13.9653
14.0063
14.0995
14.1305
14.2407
14.2516
14.387
14.3611
14.5244
52.7832
51.7578
51.3204
51.2781
51.3468
51.394
51.4081
51.4019
51.3893
51.3748
51.3626
51.3513
51.3436
51.3362
51.3328
51.3279
51.3284
51.325
51.3289
51.3262
51.333
51.3309
51.3402
51.3388
51.3502
51.35
51.3628
51.3651
51.3777
51.3852
51.3951
51.4119
51.4166
51.4453
51.45
52.5867
51.5747
51.1397
51.0912
51.1538
51.196
51.2072
51.1984
51.1849
51.1691
51.1572
51.1455
51.139
51.1315
51.1301
51.1254
51.1283
51.1252
51.132
51.1296
51.14
51.1379
51.1517
51.1499
51.1667
51.1655
51.1851
51.1846
51.2077
51.2072
51.2349
51.2335
51.2669
51.2609
51.3083
52.3671
51.3603
50.9262
50.874
50.9323
50.9704
50.979
50.9678
50.9534
50.9364
50.925
50.9131
50.9078
50.9009
50.9008
50.8976
50.9017
50.9009
50.9086
50.9093
50.9205
50.922
50.9368
50.9386
50.9573
50.9589
50.9821
50.983
51.0115
51.0114
51.0457
51.0455
51.084
51.0863
51.1295
52.1144
51.1046
50.6739
50.6226
50.6789
50.714
50.7197
50.7063
50.6908
50.6733
50.6625
50.6509
50.6473
50.6413
50.6435
50.6416
50.6481
50.6493
50.6593
50.6627
50.6759
50.6807
50.6975
50.7028
50.7239
50.7287
50.7554
50.7586
50.7919
50.7927
50.8331
50.8326
50.8767
50.8787
50.9248
51.844
50.8526
50.4247
50.3646
50.4106
50.4379
50.4382
50.4215
50.404
50.3855
50.3743
50.3629
50.3599
50.3546
50.3581
50.3571
50.3656
50.3674
50.3802
50.3839
50.4006
50.4056
50.4263
50.4319
50.4572
50.4628
50.4932
50.4981
50.5343
50.5384
50.5803
50.5846
50.6301
50.6363
50.6872
51.5236
50.5345
50.1128
50.0522
50.0935
50.1152
50.1109
50.0912
50.0719
50.0531
50.0419
50.0319
50.0296
50.0266
50.0311
50.0329
50.0426
50.0475
50.0617
50.0685
50.087
50.095
50.1179
50.1264
50.1542
50.1627
50.196
50.2035
50.2432
50.2492
50.2955
50.3003
50.3512
50.3564
50.4131
51.1696
50.1935
49.7765
49.7091
49.7402
49.753
49.7423
49.7188
49.6974
49.6779
49.6669
49.6576
49.6567
49.6549
49.6614
49.6644
49.6766
49.6826
49.6996
49.7077
49.7291
49.7386
49.7644
49.7748
49.8054
49.8159
49.8521
49.8618
49.9046
49.9126
49.9623
49.9689
50.0234
50.0302
50.0908
50.7657
49.8042
49.3929
49.318
49.3373
49.3398
49.3217
49.294
49.2704
49.2504
49.2398
49.2316
49.2322
49.2321
49.2405
49.2455
49.2597
49.268
49.287
49.2976
49.3211
49.3331
49.3614
49.374
49.4076
49.4201
49.4598
49.4712
49.5177
49.5272
49.5806
49.5889
49.6467
49.6548
49.7187
50.3251
49.3784
48.9731
48.8904
48.8966
48.8874
48.8612
48.829
48.8034
48.7833
48.7735
48.7668
48.7692
48.7712
48.7817
48.789
48.8054
48.816
48.8373
48.85
48.8761
48.8902
48.9213
48.9361
48.9725
48.9872
49.0297
49.0433
49.0929
49.1044
49.1612
49.171
49.2323
49.2417
49.3092
49.8716
48.9497
48.5449
48.4466
48.4346
48.4115
48.3769
48.3406
48.3134
48.2935
48.2848
48.2798
48.284
48.2882
48.3007
48.3102
48.3287
48.3414
48.365
48.3798
48.4082
48.4244
48.4579
48.4747
48.5138
48.5305
48.576
48.5913
48.6441
48.6572
48.7172
48.7286
48.7929
48.8037
48.874
49.3498
48.4479
48.0479
47.9395
47.9116
47.8746
47.8309
47.7902
47.7616
47.7423
47.735
47.7323
47.7389
47.7457
47.7607
47.7728
47.7938
47.8091
47.8352
47.8525
47.8835
47.9021
47.9383
47.9575
47.9994
48.0183
48.0668
48.0843
48.1402
48.1552
48.2185
48.2317
48.299
48.3115
48.3845
48.7893
47.9266
47.5169
47.3802
47.3246
47.2688
47.2153
47.171
47.1419
47.1243
47.1193
47.1196
47.1289
47.1387
47.1565
47.1714
47.195
47.213
47.2416
47.2615
47.295
47.3161
47.355
47.3766
47.4214
47.4425
47.4941
47.5137
47.5729
47.5899
47.6564
47.6716
47.7419
47.7564
47.8318
48.1201
47.293
46.8805
46.7253
46.6467
46.5732
46.5096
46.4614
46.4319
46.4162
46.4139
46.4177
46.4303
46.4438
46.4647
46.4831
46.5098
46.531
46.5626
46.5855
46.6221
46.646
46.688
46.7123
46.7603
46.784
46.8391
46.8609
46.9238
46.9429
47.0131
47.0303
47.1039
47.1209
47.1989
47.384
46.6132
46.1743
45.9756
45.8588
45.7621
45.6882
45.638
45.6101
45.5985
45.6004
45.609
45.6257
45.6436
45.6682
45.6904
45.7203
45.745
45.7796
45.8057
45.8452
45.872
45.9171
45.944
45.9955
46.0216
46.0803
46.1043
46.1712
46.1922
46.2666
46.2857
46.363
46.3823
46.4629
46.4841
45.7767
45.3134
45.0764
44.9236
44.8041
44.72
44.668
44.6421
44.6348
44.6411
44.6549
44.6758
44.6984
44.7265
44.753
44.786
44.8144
44.8519
44.8814
44.9239
44.954
45.0022
45.0322
45.0872
45.116
45.1787
45.2051
45.2765
45.2995
45.3788
45.3999
45.4819
45.5038
45.5886
45.4148
44.7866
44.275
43.9805
43.7816
43.6367
43.5436
43.4915
43.4691
43.4673
43.4787
43.4979
43.5229
43.5501
43.5814
43.6119
43.6474
43.6797
43.7195
43.7529
43.7978
43.8317
43.8827
43.9163
43.9746
44.0069
44.0736
44.1031
44.1793
44.2049
44.2898
44.313
44.401
44.4251
44.5152
44.1001
43.5679
42.9759
42.5983
42.3372
42.1594
42.0547
42.0009
41.9817
41.984
41.9998
42.0233
42.052
42.0833
42.1177
42.1525
42.1908
42.2277
42.2703
42.3086
42.3564
42.3956
42.4498
42.4891
42.551
42.589
42.6602
42.6951
42.7768
42.8072
42.8991
42.9262
43.0229
43.0507
43.1521
42.3715
41.8215
41.1163
40.6655
40.3557
40.1518
40.0391
39.9836
39.9685
39.9749
39.9975
40.026
40.0615
40.0981
40.1388
40.1795
40.224
40.2679
40.3166
40.3634
40.4173
40.4662
40.5266
40.5766
40.6449
40.6942
40.772
40.8183
40.9073
40.9482
41.0489
41.0844
41.1925
41.2254
41.3406
39.7933
39.442
38.4703
37.8254
37.4174
37.181
37.0766
37.0386
37.051
37.0792
37.1297
37.1786
37.2415
37.2976
37.3652
37.425
37.495
37.5575
37.6293
37.6944
37.768
37.8355
37.9116
37.9808
38.0607
38.1302
38.2159
38.2831
38.3771
38.4391
38.5437
38.5985
38.7136
38.763
38.8939
35.627
38.2627
37.0517
35.8411
35.0303
34.5623
34.3387
34.2393
34.229
34.2504
34.3132
34.3752
34.4635
34.5377
34.634
34.7098
34.8069
34.8808
34.9759
35.047
35.138
35.2071
35.2941
35.3639
35.448
35.5204
35.6027
35.677
35.7608
35.832
35.9262
35.9802
36.1044
36.1158
36.2871
14.3882
13.784
14.2555
14.4353
14.5281
14.5734
14.6112
14.6327
14.663
14.6811
14.7143
14.7342
14.7719
14.7948
14.8382
14.8653
14.9149
14.9465
15.0022
15.0381
15.0998
15.1394
15.2073
15.2495
15.3243
15.3668
15.4501
15.4889
15.5838
15.6129
15.7244
15.7346
15.8695
15.8469
16.0058
37.6296
37.229
36.9733
36.8767
36.8773
36.8993
36.9146
36.9169
36.9127
36.9039
36.8954
36.8856
36.8787
36.8705
36.8666
36.8597
36.8591
36.8527
36.8552
36.8489
36.8538
36.8478
36.8544
36.8488
36.8566
36.8516
36.8596
36.8565
36.8629
36.8639
36.8666
36.8735
36.8727