/*--------------------------------*- C++ -*----------------------------------*\
  =========                 |
  \\      /  F ield         | OpenFOAM: The Open Source CFD Toolbox
   \\    /   O peration     | Website:  https://openfoam.org
    \\  /    A nd           | Version:  6
     \\/     M anipulation  |
\*---------------------------------------------------------------------------*/
FoamFile
{
    version     2.0;
    format      ascii;
    class       volVectorField;
    location    "28";
    object      wallShearStress;
}
// * * * * * * * * * * * * * * * * * * * * * * * * * * * * * * * * * * * * * //

dimensions      [0 2 -2 0 0 0 0];

internalField   uniform (0 0 0);

boundaryField
{
    inlet
    {
        type            calculated;
        value           uniform (0 0 0);
    }
    outlet
    {
        type            calculated;
        value           uniform (0 0 0);
    }
    roughCylinder
    {
        type            calculated;
        value           nonuniform List<vector> 
3840
(
(-0.000464425 -0.000670747 -0.000282173)
(-0.000330165 -0.000502118 -1.79268e-05)
(-0.000364872 -0.000578635 4.11286e-05)
(-0.000451817 -0.000683725 0.000109972)
(-0.000544094 -0.000754945 0.000175813)
(-0.000635025 -0.000794577 0.000231495)
(-0.000717558 -0.00080797 0.000274006)
(-0.000789572 -0.000809018 0.000303804)
(-0.00085116 -0.000812057 0.00032348)
(-0.00089983 -0.000820581 0.000332788)
(-0.000940042 -0.00083663 0.000333623)
(-0.000974152 -0.000858708 0.000328559)
(-0.00100571 -0.000885155 0.000319813)
(-0.00103767 -0.000914785 0.000308849)
(-0.00107171 -0.000946944 0.000296285)
(-0.0011084 -0.000981354 0.000282223)
(-0.00114788 -0.00101793 0.00026656)
(-0.00118979 -0.00105632 0.000248986)
(-0.00123359 -0.00109599 0.000228928)
(-0.00127841 -0.00113603 0.000205375)
(-0.00132285 -0.00117506 0.000176493)
(-0.00136469 -0.00121107 0.00013969)
(-0.00139959 -0.00124101 9.10035e-05)
(-0.00142059 -0.0012595 3.13691e-05)
(-0.000513603 -0.000676651 -0.000287683)
(-0.000356236 -0.00049745 -2.24408e-05)
(-0.00038382 -0.000562006 3.33846e-05)
(-0.000472595 -0.00066696 9.90017e-05)
(-0.000567359 -0.00074046 0.000163088)
(-0.000661256 -0.000783363 0.000217926)
(-0.000747765 -0.000801271 0.000260617)
(-0.000825059 -0.000807306 0.000292045)
(-0.000891916 -0.000812186 0.000313767)
(-0.000943194 -0.000818712 0.000323791)
(-0.000985193 -0.000833489 0.00032492)
(-0.00102127 -0.000854843 0.000320075)
(-0.00105475 -0.000880872 0.000311508)
(-0.0010885 -0.000910103 0.000300719)
(-0.00112434 -0.000941876 0.00028841)
(-0.00116307 -0.000976008 0.000274752)
(-0.00120457 -0.00101219 0.000259575)
(-0.00124857 -0.00105015 0.000242586)
(-0.00129445 -0.0010893 0.000223188)
(-0.00134133 -0.00112878 0.000200376)
(-0.00138774 -0.00116725 0.000172322)
(-0.00143138 -0.00120272 0.000136465)
(-0.00146777 -0.00123221 8.89208e-05)
(-0.00148965 -0.0012504 3.06447e-05)
(-0.000537475 -0.000636917 -0.000271167)
(-0.000376064 -0.000480724 -2.66107e-05)
(-0.000401345 -0.000538955 2.48979e-05)
(-0.000491593 -0.000643622 8.70014e-05)
(-0.000588652 -0.000719286 0.000149259)
(-0.000685474 -0.000765635 0.000203393)
(-0.000776545 -0.000788781 0.000246751)
(-0.000859162 -0.000799855 0.000279772)
(-0.000930575 -0.000806908 0.0003029)
(-0.000985226 -0.000811636 0.000313628)
(-0.00102946 -0.00082522 0.000315316)
(-0.00106755 -0.00084555 0.00031073)
(-0.00110283 -0.000870769 0.000302376)
(-0.00113851 -0.000899455 0.000291867)
(-0.00117634 -0.000930741 0.000279926)
(-0.00121687 -0.000964182 0.000266682)
(-0.00126032 -0.000999693 0.000252048)
(-0.0013063 -0.0010369 0.000235693)
(-0.0013542 -0.00107528 0.000217023)
(-0.00140304 -0.00111394 0.000195012)
(-0.00145133 -0.00115157 0.000167848)
(-0.00149666 -0.00118625 0.000133006)
(-0.00153444 -0.00121509 8.66889e-05)
(-0.00155713 -0.00123286 2.98691e-05)
(-0.000520115 -0.000555463 -0.000228968)
(-0.000396099 -0.000458826 -3.17975e-05)
(-0.000414851 -0.000511174 1.57471e-05)
(-0.000505756 -0.00061398 7.42772e-05)
(-0.000605113 -0.000691943 0.000134469)
(-0.000705643 -0.000742876 0.000188022)
(-0.000801294 -0.000771424 0.000232115)
(-0.000888776 -0.000787019 0.000266538)
(-0.000964259 -0.000795913 0.000290637)
(-0.00102424 -0.000801096 0.00030275)
(-0.00107052 -0.000812604 0.000304932)
(-0.00111072 -0.000831666 0.000300697)
(-0.00114814 -0.000856067 0.000292723)
(-0.00118566 -0.000883923 0.000282546)
(-0.00122521 -0.000914356 0.000270989)
(-0.00126777 -0.000947133 0.000258291)
(-0.00131314 -0.000981816 0.000244266)
(-0.00136106 -0.00101813 0.000228608)
(-0.0014108 -0.0010555 0.000210698)
(-0.00146144 -0.0010931 0.000189522)
(-0.00151142 -0.00112967 0.000163277)
(-0.00155828 -0.00116335 0.000129476)
(-0.00159732 -0.00119137 8.44133e-05)
(-0.00162074 -0.0012086 2.908e-05)
(-0.000472829 -0.000455106 -0.000174538)
(-0.000412624 -0.000428839 -3.79097e-05)
(-0.000423762 -0.000478775 6.67398e-06)
(-0.000514847 -0.000579357 6.11328e-05)
(-0.000616467 -0.000659573 0.000118972)
(-0.00071998 -0.00071438 0.000171541)
(-0.000820228 -0.000748363 0.000216239)
(-0.000912715 -0.000768505 0.000252023)
(-0.000993169 -0.000779954 0.000277329)
(-0.00105758 -0.000785723 0.000290619)
(-0.00110761 -0.000795326 0.000293691)
(-0.00115018 -0.000813032 0.00029004)
(-0.00118955 -0.000836076 0.000282475)
(-0.00122909 -0.000862981 0.000272779)
(-0.00127071 -0.000892621 0.000261775)
(-0.00131488 -0.000924274 0.000249616)
(-0.001362 -0.000957865 0.000236249)
(-0.00141161 -0.000992991 0.000221323)
(-0.00146309 -0.00102915 0.000204227)
(-0.00151537 -0.00106547 0.000183925)
(-0.00156687 -0.00110077 0.000158627)
(-0.0016151 -0.00113324 0.000125892)
(-0.00165525 -0.00116026 8.21067e-05)
(-0.0016793 -0.00117687 2.82813e-05)
(-0.000584072 -0.000498375 -0.000186388)
(-0.000422022 -0.00039979 -4.17064e-05)
(-0.000427804 -0.00044196 -2.26765e-06)
(-0.00051729 -0.000539863 4.74831e-05)
(-0.000620653 -0.000621892 0.000102534)
(-0.000728297 -0.000681583 0.000154089)
(-0.000833185 -0.000720718 0.000199173)
(-0.000930327 -0.000744782 0.000236073)
(-0.00101483 -0.000757947 0.000262388)
(-0.00108501 -0.000765684 0.000277166)
(-0.00113996 -0.00077428 0.000281463)
(-0.00118504 -0.000789546 0.000278531)
(-0.00122698 -0.000811388 0.000271666)
(-0.00126852 -0.000836995 0.000262546)
(-0.00131172 -0.000865269 0.000252099)
(-0.00135792 -0.000895899 0.000240662)
(-0.0014068 -0.000928265 0.00022804)
(-0.00145812 -0.000962085 0.000213923)
(-0.00151112 -0.00099677 0.000197671)
(-0.00156483 -0.00103159 0.000178269)
(-0.00161766 -0.00106538 0.000153938)
(-0.00166707 -0.00109644 0.00012228)
(-0.00170819 -0.00112228 7.97862e-05)
(-0.00173275 -0.00113816 2.74795e-05)
(-0.000532461 -0.000405732 -0.000141246)
(-0.000431499 -0.000367689 -4.64922e-05)
(-0.000426127 -0.000403189 -1.13006e-05)
(-0.000513096 -0.0004973 3.37694e-05)
(-0.00061843 -0.000581266 8.55702e-05)
(-0.00072855 -0.000644172 0.00013541)
(-0.000837837 -0.000687971 0.000180486)
(-0.000940004 -0.000715931 0.000218354)
(-0.0010306 -0.000732181 0.000246202)
(-0.00110495 -0.000740578 0.0002621)
(-0.00116551 -0.000749436 0.000267884)
(-0.0012152 -0.000762995 0.000266212)
(-0.0012594 -0.000782374 0.000260114)
(-0.0013032 -0.000806459 0.000251773)
(-0.00134871 -0.000833606 0.000242145)
(-0.00139633 -0.000862643 0.000231413)
(-0.00144672 -0.000893493 0.000219587)
(-0.00149942 -0.000925695 0.000206312)
(-0.00155384 -0.000958771 0.000190968)
(-0.00160882 -0.000991904 0.000172507)
(-0.00166279 -0.00102402 0.000149173)
(-0.00171322 -0.00105352 0.000118617)
(-0.00175516 -0.00107807 7.74371e-05)
(-0.00178014 -0.00109312 2.66697e-05)
(-0.00060696 -0.000409833 -0.000131702)
(-0.000430145 -0.00033017 -5.07101e-05)
(-0.000417039 -0.000361443 -1.93632e-05)
(-0.000500264 -0.000451125 1.99711e-05)
(-0.000605828 -0.000535495 6.77107e-05)
(-0.00072013 -0.000603048 0.000115579)
(-0.000834247 -0.000651545 0.000160304)
(-0.000941668 -0.000683201 0.000198898)
(-0.00103625 -0.00070084 0.000227732)
(-0.00111744 -0.000711532 0.000245515)
(-0.00118311 -0.000720454 0.000252801)
(-0.0012375 -0.000732874 0.000252541)
(-0.00128612 -0.000750696 0.00024782)
(-0.00133247 -0.000772794 0.000240486)
(-0.00137945 -0.000797833 0.000231651)
(-0.0014292 -0.000825435 0.000221864)
(-0.00148125 -0.000854669 0.000210952)
(-0.00153545 -0.000885199 0.000198616)
(-0.001591 -0.000916415 0.000184207)
(-0.00164701 -0.000947664 0.000166711)
(-0.00170188 -0.000977901 0.000144387)
(-0.00175309 -0.00100561 0.000114938)
(-0.00179567 -0.00102867 7.50807e-05)
(-0.00182093 -0.00104287 2.58594e-05)
(-0.000518265 -0.0003093 -9.15645e-05)
(-0.000425425 -0.000293516 -5.36714e-05)
(-0.000401966 -0.00031909 -2.73449e-05)
(-0.000478693 -0.000402517 6.33037e-06)
(-0.000585581 -0.000488277 4.9524e-05)
(-0.000701207 -0.000557946 9.44482e-05)
(-0.00081942 -0.000610356 0.000138154)
(-0.000932019 -0.000645451 0.000177081)
(-0.00103457 -0.000666973 0.000207624)
(-0.0011203 -0.000678185 0.000226886)
(-0.00119201 -0.000687597 0.000236094)
(-0.00125182 -0.000699476 0.000237621)
(-0.00130411 -0.000715613 0.000234319)
(-0.00135367 -0.000735885 0.000228279)
(-0.0014038 -0.000759479 0.000220699)
(-0.00145494 -0.000784997 0.000211886)
(-0.00150833 -0.000812303 0.000201968)
(-0.00156358 -0.000840832 0.000190618)
(-0.00162021 -0.00087013 0.000177229)
(-0.00167708 -0.000899407 0.000160757)
(-0.00173269 -0.000927687 0.000139488)
(-0.00178462 -0.000953574 0.000111187)
(-0.00182776 -0.000975134 7.26892e-05)
(-0.00185309 -0.000988407 2.50394e-05)
(-0.000557303 -0.000292651 -7.64521e-05)
(-0.000406351 -0.000250402 -5.6241e-05)
(-0.000377458 -0.000274804 -3.38948e-05)
(-0.000447529 -0.000351923 -6.7054e-06)
(-0.000551412 -0.000435549 3.07988e-05)
(-0.00067089 -0.000509342 7.21979e-05)
(-0.000794101 -0.000566184 0.00011434)
(-0.000913191 -0.000605379 0.000153401)
(-0.00101945 -0.000627773 0.000184647)
(-0.0011136 -0.000641638 0.000206215)
(-0.00119139 -0.000651307 0.000217573)
(-0.00125619 -0.000662242 0.000221068)
(-0.00131332 -0.00067723 0.000219622)
(-0.00136626 -0.000695764 0.000215108)
(-0.00141798 -0.000717034 0.000208732)
(-0.00147163 -0.000740996 0.00020124)
(-0.00152668 -0.000766482 0.000192502)
(-0.00158326 -0.000793137 0.000182291)
(-0.00164056 -0.000820317 0.000169976)
(-0.00169793 -0.000847475 0.000154578)
(-0.00175392 -0.000873701 0.000134407)
(-0.00180619 -0.000897704 0.000107296)
(-0.00184958 -0.00091769 7.02093e-05)
(-0.00187483 -0.000929961 2.41899e-05)
(-0.000442835 -0.000203116 -4.90046e-05)
(-0.000383891 -0.000212196 -5.6979e-05)
(-0.000345783 -0.000230638 -3.94382e-05)
(-0.000404767 -0.000298859 -1.86951e-05)
(-0.000509297 -0.000383092 1.24156e-05)
(-0.000628187 -0.000457524 4.90317e-05)
(-0.000755029 -0.000517808 8.86085e-05)
(-0.000879016 -0.000560062 0.000126963)
(-0.000995992 -0.000587578 0.000159853)
(-0.00109528 -0.000601811 0.000183137)
(-0.00117999 -0.000611881 0.000196996)
(-0.00125132 -0.000622421 0.000203011)
(-0.00131258 -0.000635658 0.000203567)
(-0.00136894 -0.000652301 0.000200824)
(-0.00142442 -0.000672176 0.00019617)
(-0.00147914 -0.000693728 0.000189946)
(-0.00153516 -0.00071698 0.000182442)
(-0.00159223 -0.000741313 0.000173403)
(-0.00165012 -0.00076634 0.000162274)
(-0.00170774 -0.000791304 0.00014803)
(-0.0017638 -0.000815394 0.000129026)
(-0.00181612 -0.00083745 0.000103173)
(-0.00185953 -0.000855832 6.7583e-05)
(-0.00188452 -0.000867052 2.3292e-05)
(-0.000418093 -0.000165291 -3.48859e-05)
(-0.000349986 -0.000172976 -5.64839e-05)
(-0.000307354 -0.000187766 -4.34884e-05)
(-0.000354472 -0.000246951 -2.90619e-05)
(-0.000449794 -0.000324503 -5.25122e-06)
(-0.000571837 -0.000402358 2.55156e-05)
(-0.000703362 -0.000466906 6.15468e-05)
(-0.000835694 -0.000514442 9.89387e-05)
(-0.000955504 -0.0005423 0.000131941)
(-0.00106524 -0.000559768 0.000157744)
(-0.0011575 -0.000570254 0.000174377)
(-0.00123452 -0.000579657 0.00018305)
(-0.00130157 -0.000591678 0.000186172)
(-0.00136199 -0.000606496 0.000185553)
(-0.00141869 -0.000623605 0.000182478)
(-0.00147627 -0.000643457 0.000177947)
(-0.00153393 -0.000664703 0.000171906)
(-0.00159216 -0.000686998 0.000164232)
(-0.00165018 -0.000709673 0.000154335)
(-0.00170766 -0.000732317 0.000141289)
(-0.00176342 -0.000754191 0.000123486)
(-0.00181542 -0.000774216 9.89243e-05)
(-0.00185852 -0.000790912 6.48744e-05)
(-0.0018831 -0.000801048 2.23678e-05)
(-0.000339289 -0.000114964 -2.01579e-05)
(-0.000312153 -0.000137893 -5.46713e-05)
(-0.000262402 -0.000146855 -4.59702e-05)
(-0.000288578 -0.000191211 -3.6085e-05)
(-0.000384452 -0.00026853 -2.09831e-05)
(-0.000502091 -0.000344445 2.49712e-06)
(-0.000636507 -0.000412315 3.35715e-05)
(-0.000772392 -0.000462579 6.84853e-05)
(-0.000906613 -0.000497724 0.000102482)
(-0.00102196 -0.00051571 0.000129983)
(-0.00112207 -0.000526584 0.000149559)
(-0.00120709 -0.000535667 0.000161495)
(-0.00127893 -0.000545713 0.000167332)
(-0.00134315 -0.000558361 0.000169078)
(-0.00140471 -0.000574099 0.000168282)
(-0.00146301 -0.000591186 0.000165349)
(-0.00152125 -0.000609904 0.000160801)
(-0.00157935 -0.00062959 0.000154488)
(-0.0016375 -0.000649962 0.000145944)
(-0.00169462 -0.000670283 0.00013418)
(-0.00174977 -0.000689904 0.000117643)
(-0.00180118 -0.000707899 9.44406e-05)
(-0.00184377 -0.000722904 6.20196e-05)
(-0.00186774 -0.000731945 2.13957e-05)
(-0.000286757 -8.2607e-05 -8.64312e-06)
(-0.000259299 -0.000102555 -5.19139e-05)
(-0.000209787 -0.000108829 -4.52999e-05)
(-0.000222973 -0.000141784 -3.98895e-05)
(-0.000296881 -0.00020364 -3.24671e-05)
(-0.000418187 -0.000283122 -1.82782e-05)
(-0.000555713 -0.000354811 5.9473e-06)
(-0.000702407 -0.00041262 3.76136e-05)
(-0.000837006 -0.000447621 7.04934e-05)
(-0.000965126 -0.000470255 0.000100185)
(-0.00107444 -0.000482199 0.000122879)
(-0.00116567 -0.000490031 0.000138047)
(-0.00124442 -0.000498823 0.000147152)
(-0.00131363 -0.000509561 0.000151672)
(-0.0013758 -0.000522028 0.000152864)
(-0.00143754 -0.000537338 0.000152047)
(-0.00149756 -0.000553951 0.000149272)
(-0.00155684 -0.000571554 0.000144568)
(-0.00161453 -0.000589445 0.000137412)
(-0.00167084 -0.000607371 0.000126958)
(-0.00172498 -0.000624721 0.00011171)
(-0.00177539 -0.000640638 8.98788e-05)
(-0.0018171 -0.00065392 5.91137e-05)
(-0.00184031 -0.000661871 2.04088e-05)
(-0.000190241 -4.61704e-05 1.03247e-06)
(-0.0001956 -7.02705e-05 -4.71344e-05)
(-0.000153126 -7.49859e-05 -4.1615e-05)
(-0.000133824 -8.27619e-05 -3.32264e-05)
(-0.00021549 -0.000146695 -3.9332e-05)
(-0.00032137 -0.000217847 -3.49813e-05)
(-0.000460534 -0.000293475 -1.95128e-05)
(-0.000607222 -0.000353446 6.57738e-06)
(-0.000761378 -0.000399828 3.82994e-05)
(-0.000894524 -0.000423729 6.8888e-05)
(-0.00101208 -0.000436715 9.44289e-05)
(-0.00111296 -0.000444879 0.000113289)
(-0.00119687 -0.000451646 0.000125654)
(-0.00127003 -0.000459975 0.00013306)
(-0.00133865 -0.00047125 0.000137105)
(-0.0014006 -0.000483479 0.000138219)
(-0.0014607 -0.000497329 0.000137191)
(-0.00151906 -0.000512123 0.000134029)
(-0.0015764 -0.000527692 0.000128394)
(-0.00163172 -0.000543296 0.000119339)
(-0.00168451 -0.000558414 0.000105442)
(-0.00173368 -0.000572324 8.50564e-05)
(-0.00177434 -0.000583934 5.60445e-05)
(-0.00179656 -0.000590823 1.93683e-05)
(-7.59305e-05 -1.49266e-05 7.47716e-06)
(-0.00011476 -3.77289e-05 -3.59093e-05)
(-9.68231e-05 -4.48549e-05 -3.72297e-05)
(-6.09552e-05 -3.84048e-05 -2.27822e-05)
(-7.45972e-05 -5.23647e-05 -2.12812e-05)
(-0.0002116 -0.000146539 -4.14957e-05)
(-0.000350325 -0.000225647 -3.92388e-05)
(-0.000512832 -0.000298752 -2.21542e-05)
(-0.00066099 -0.000344073 6.12971e-06)
(-0.00080956 -0.000375815 3.71046e-05)
(-0.000937585 -0.00039166 6.50808e-05)
(-0.00104414 -0.000399062 8.70996e-05)
(-0.00113614 -0.000405152 0.000103074)
(-0.00121532 -0.000411849 0.000113726)
(-0.00128326 -0.000419412 0.000120063)
(-0.0013495 -0.000429965 0.000123691)
(-0.00141173 -0.000441773 0.000124747)
(-0.00147146 -0.0004546 0.000123441)
(-0.00152772 -0.000467711 0.00011934)
(-0.0015815 -0.000480993 0.000111696)
(-0.00163254 -0.000493937 9.91529e-05)
(-0.00167999 -0.000505868 8.02046e-05)
(-0.00171919 -0.000515818 5.29532e-05)
(-0.0017403 -0.000521705 1.83232e-05)
(-7.02141e-06 4.80084e-07 8.86033e-06)
(-2.41421e-05 -6.85014e-06 -1.18637e-05)
(-3.23477e-05 -1.54291e-05 -2.13587e-05)
(-3.87269e-05 -2.765e-05 -2.39239e-05)
(-4.97667e-05 -3.93667e-05 -2.27395e-05)
(-0.000100801 -7.3944e-05 -3.17787e-05)
(-0.000236759 -0.000154273 -4.86737e-05)
(-0.000385356 -0.000226667 -4.44271e-05)
(-0.000562203 -0.000292618 -2.30362e-05)
(-0.000712046 -0.000326753 6.2933e-06)
(-0.00084741 -0.000345586 3.55358e-05)
(-0.000965276 -0.000355334 6.0581e-05)
(-0.00106169 -0.000359942 7.96886e-05)
(-0.00114432 -0.000364422 9.33713e-05)
(-0.0012209 -0.000371424 0.000102968)
(-0.00128641 -0.000378755 0.000108766)
(-0.00134783 -0.000387704 0.00011176)
(-0.0014056 -0.000397678 0.000112143)
(-0.00146103 -0.000408616 0.000109713)
(-0.00151315 -0.00041976 0.00010357)
(-0.00156207 -0.000430673 9.24483e-05)
(-0.00160758 -0.000440767 7.50227e-05)
(-0.00164519 -0.000449197 4.96527e-05)
(-0.00166494 -0.000454131 1.72084e-05)
(6.57949e-06 6.40976e-06 1.4878e-05)
(4.70643e-06 2.89151e-07 -7.44634e-06)
(-3.62995e-06 -8.24332e-06 -2.00729e-05)
(-1.71e-05 -2.26592e-05 -2.75644e-05)
(-3.50447e-05 -3.74497e-05 -3.04381e-05)
(-4.4101e-05 -3.66615e-05 -2.32576e-05)
(-0.000132303 -8.98672e-05 -4.48191e-05)
(-0.00027818 -0.000164602 -5.7097e-05)
(-0.000430705 -0.000225577 -4.54017e-05)
(-0.000601383 -0.000275259 -2.12324e-05)
(-0.000747159 -0.000300241 7.38855e-06)
(-0.000867955 -0.00031071 3.39832e-05)
(-0.000973671 -0.000316516 5.59957e-05)
(-0.00106317 -0.000320423 7.27909e-05)
(-0.00113644 -0.000323594 8.46587e-05)
(-0.00120732 -0.000329758 9.32055e-05)
(-0.00127157 -0.000337069 9.85284e-05)
(-0.00133103 -0.000345393 0.000100972)
(-0.00138464 -0.000354096 0.000100192)
(-0.0014344 -0.000363179 9.55307e-05)
(-0.00148078 -0.000372207 8.58088e-05)
(-0.00152383 -0.000380568 6.98714e-05)
(-0.00155938 -0.00038754 4.63646e-05)
(-0.00157769 -0.000391636 1.61005e-05)
(1.31344e-05 1.1305e-05 2.17892e-05)
(2.4108e-05 7.50259e-06 -7.53084e-06)
(2.21208e-05 -1.34586e-07 -1.48358e-05)
(1.26569e-05 -9.66818e-06 -1.64203e-05)
(-7.24297e-07 -2.50275e-05 -2.45286e-05)
(-2.89965e-05 -3.3667e-05 -2.93235e-05)
(-6.87909e-05 -5.25609e-05 -3.79776e-05)
(-8.15903e-05 -4.89868e-05 -2.58438e-05)
(-0.000321968 -0.000168294 -5.92476e-05)
(-0.000480173 -0.000220537 -4.31773e-05)
(-0.000631692 -0.000252748 -1.76294e-05)
(-0.000765508 -0.000269403 8.99131e-06)
(-0.000872496 -0.000275064 3.26464e-05)
(-0.000963847 -0.000277811 5.17879e-05)
(-0.00104876 -0.000281954 6.6818e-05)
(-0.00111702 -0.000285121 7.75073e-05)
(-0.0011787 -0.000289705 8.47833e-05)
(-0.00123483 -0.000295412 8.89695e-05)
(-0.00128707 -0.000302323 8.99564e-05)
(-0.00133443 -0.000309667 8.68588e-05)
(-0.00137785 -0.000317035 7.86018e-05)
(-0.00141825 -0.000323911 6.42613e-05)
(-0.00145167 -0.000329638 4.27806e-05)
(-0.00146824 -0.000332966 1.48912e-05)
(2.31492e-05 1.32814e-05 2.39684e-05)
(3.66905e-05 1.02131e-05 -8.73274e-06)
(5.2452e-05 3.83809e-06 -1.9802e-05)
(2.96246e-05 -6.62774e-06 -1.32057e-05)
(2.2619e-05 -1.57448e-05 -1.30257e-05)
(4.01559e-06 -2.56786e-05 -1.81041e-05)
(-2.02935e-05 -1.95217e-05 -1.68955e-05)
(-5.22654e-05 -3.26716e-05 -2.45755e-05)
(-0.000143892 -7.44039e-05 -4.00159e-05)
(-0.000353713 -0.000162776 -5.54034e-05)
(-0.000510672 -0.000205432 -3.76559e-05)
(-0.000641428 -0.000224987 -1.32637e-05)
(-0.000759865 -0.000235578 1.0618e-05)
(-0.000858178 -0.000239872 3.15223e-05)
(-0.000934592 -0.000240498 4.81702e-05)
(-0.00100963 -0.000243762 6.14292e-05)
(-0.00107535 -0.000247689 7.10676e-05)
(-0.00113353 -0.000252409 7.73864e-05)
(-0.00118298 -0.00025755 8.00525e-05)
(-0.00122706 -0.000263306 7.84513e-05)
(-0.00126712 -0.000269266 7.16018e-05)
(-0.00130428 -0.000274816 5.87816e-05)
(-0.00133503 -0.000279414 3.92662e-05)
(-0.0013499 -0.000282128 1.37084e-05)
(3.30383e-05 1.42645e-05 2.51992e-05)
(7.41499e-05 1.63449e-05 -1.40711e-05)
(8.48176e-05 6.21899e-06 -2.39644e-05)
(6.24614e-05 -7.45164e-06 -1.93779e-05)
(6.18271e-05 -2.37112e-05 -1.94102e-05)
(2.64636e-05 -2.30339e-05 -7.41434e-06)
(1.77396e-06 -2.48296e-05 -9.85668e-06)
(-4.33363e-05 -3.05793e-05 -2.78717e-05)
(-0.000107389 -5.67953e-05 -4.29755e-05)
(-0.000205543 -9.50811e-05 -4.86405e-05)
(-0.000375193 -0.000152978 -4.8709e-05)
(-0.000523425 -0.000185148 -3.14427e-05)
(-0.000635622 -0.00019707 -9.08379e-06)
(-0.000732909 -0.000202271 1.21901e-05)
(-0.000825658 -0.000206873 3.08669e-05)
(-0.000894361 -0.000207812 4.57306e-05)
(-0.000954193 -0.0002095 5.69691e-05)
(-0.00100686 -0.000212157 6.48404e-05)
(-0.00105438 -0.000216215 6.92334e-05)
(-0.00109525 -0.000220846 6.91674e-05)
(-0.00113143 -0.000225694 6.37793e-05)
(-0.00116526 -0.000230248 5.26268e-05)
(-0.00119338 -0.000233998 3.53091e-05)
(-0.00120613 -0.000236162 1.23687e-05)
(3.97017e-05 1.46921e-05 2.73517e-05)
(9.21687e-05 1.91464e-05 -1.2616e-05)
(0.000112012 9.85335e-06 -2.7136e-05)
(0.000112306 -6.98879e-06 -3.20337e-05)
(8.42869e-05 -2.22492e-05 -2.42754e-05)
(3.28247e-05 -1.80261e-05 -7.78483e-06)
(1.98127e-05 -2.31126e-05 -2.20951e-06)
(-6.62505e-06 -2.10174e-05 -5.08458e-06)
(-4.03894e-05 -2.3023e-05 -2.01874e-05)
(-8.16193e-05 -3.83664e-05 -2.73237e-05)
(-0.000248763 -0.000101777 -4.95313e-05)
(-0.000379759 -0.000137755 -4.20284e-05)
(-0.000506855 -0.000159857 -2.48054e-05)
(-0.000610377 -0.000169687 -4.92992e-06)
(-0.000684471 -0.000170982 1.38867e-05)
(-0.000762158 -0.000174425 3.02932e-05)
(-0.000827851 -0.000177228 4.34291e-05)
(-0.000883589 -0.000180167 5.32495e-05)
(-0.000926908 -0.000183164 5.91569e-05)
(-0.000963455 -0.000186859 6.04823e-05)
(-0.000995518 -0.000190908 5.64429e-05)
(-0.00102537 -0.000194649 4.68101e-05)
(-0.00105022 -0.000197676 3.15452e-05)
(-0.00106115 -0.000199471 1.10978e-05)
(4.53317e-05 1.49761e-05 2.99349e-05)
(0.000102581 2.15618e-05 -1.05003e-05)
(0.000129053 1.50441e-05 -2.8247e-05)
(0.000133925 -1.37807e-06 -3.62624e-05)
(0.000121386 -2.08881e-05 -3.51444e-05)
(8.29972e-05 -3.25592e-05 -2.23882e-05)
(2.9688e-05 -2.16474e-05 -4.67443e-06)
(1.18114e-05 -1.83661e-05 1.98432e-06)
(-1.7464e-05 -2.2785e-05 -8.20179e-06)
(-4.74177e-05 -2.38818e-05 -2.1016e-05)
(-7.41125e-05 -3.1064e-05 -2.1645e-05)
(-0.000253365 -9.61469e-05 -4.49633e-05)
(-0.000369792 -0.000120942 -3.45791e-05)
(-0.000466174 -0.000133765 -1.83546e-05)
(-0.000565966 -0.000144221 -6.0662e-07)
(-0.000630157 -0.000145996 1.61411e-05)
(-0.000684735 -0.000147341 2.99497e-05)
(-0.000730155 -0.000148748 4.05851e-05)
(-0.00077098 -0.000151682 4.78695e-05)
(-0.000803528 -0.000155013 5.05086e-05)
(-0.000830762 -0.000158544 4.78352e-05)
(-0.000856673 -0.00016182 3.99375e-05)
(-0.000878507 -0.000164445 2.70781e-05)
(-0.000887006 -0.000165885 9.57056e-06)
(4.84971e-05 1.49775e-05 3.28141e-05)
(0.000101388 2.19313e-05 -7.43075e-06)
(0.000130213 1.90606e-05 -2.66099e-05)
(0.000142938 6.01176e-06 -3.77836e-05)
(0.000137048 -1.33965e-05 -4.00355e-05)
(0.000117174 -3.18778e-05 -3.40775e-05)
(7.21913e-05 -3.69622e-05 -1.7591e-05)
(2.50726e-05 -2.28323e-05 -2.22809e-06)
(1.06545e-05 -2.81941e-05 3.95135e-06)
(-2.19092e-05 -1.70992e-05 -9.83358e-06)
(-7.81589e-05 -3.70496e-05 -3.23207e-05)
(-0.00013799 -5.35638e-05 -3.61441e-05)
(-0.000234195 -8.05893e-05 -3.67261e-05)
(-0.00034151 -0.000102908 -2.78353e-05)
(-0.000402693 -0.000108323 -1.19461e-05)
(-0.000481411 -0.000116556 3.62199e-06)
(-0.000543999 -0.000121549 1.78267e-05)
(-0.000597231 -0.000125639 2.98136e-05)
(-0.000632194 -0.000128358 3.81134e-05)
(-0.000659253 -0.000131347 4.18234e-05)
(-0.000681914 -0.000134687 4.03277e-05)
(-0.000703297 -0.000137604 3.3885e-05)
(-0.000721374 -0.000139874 2.31069e-05)
(-0.000728149 -0.000141104 8.21693e-06)
(4.96585e-05 1.44222e-05 3.54965e-05)
(9.62332e-05 2.12772e-05 -4.31847e-06)
(0.000124825 2.08716e-05 -2.34044e-05)
(0.000137885 1.15578e-05 -3.51743e-05)
(0.000139786 -4.65152e-06 -4.06369e-05)
(0.000127383 -2.32462e-05 -3.81795e-05)
(0.000106687 -3.89593e-05 -2.97938e-05)
(6.03689e-05 -3.71541e-05 -1.26559e-05)
(4.60027e-05 -4.73484e-05 -1.27761e-06)
(5.44071e-06 -2.65237e-05 -3.96046e-08)
(-3.31551e-05 -2.24073e-05 -1.97122e-05)
(-8.39316e-05 -3.60147e-05 -3.32917e-05)
(-0.000106725 -3.9834e-05 -2.63918e-05)
(-0.00019029 -6.04836e-05 -2.65788e-05)
(-0.000298552 -8.4924e-05 -2.08237e-05)
(-0.000350182 -9.06426e-05 -6.3876e-06)
(-0.000394445 -9.4572e-05 6.86613e-06)
(-0.000425015 -9.65899e-05 1.79292e-05)
(-0.000456379 -0.000100329 2.65802e-05)
(-0.000479102 -0.000103463 3.09821e-05)
(-0.000495981 -0.000106755 3.05886e-05)
(-0.0005128 -0.000109377 2.59556e-05)
(-0.000527732 -0.000111594 1.78683e-05)
(-0.000532161 -0.000112529 6.39267e-06)
(4.96653e-05 1.42223e-05 3.88961e-05)
(8.81303e-05 2.05365e-05 -1.9202e-06)
(0.000115429 2.16907e-05 -2.01694e-05)
(0.000128454 1.4748e-05 -3.14196e-05)
(0.000131745 2.13527e-06 -3.75601e-05)
(0.000128044 -1.43078e-05 -3.85843e-05)
(0.000113597 -3.02781e-05 -3.32145e-05)
(9.6561e-05 -4.28366e-05 -2.53002e-05)
(5.23763e-05 -3.60367e-05 -1.11719e-05)
(2.38973e-05 -2.96085e-05 -3.87598e-06)
(-1.26792e-06 -1.69614e-05 -7.03328e-06)
(-2.10529e-05 -1.30257e-05 -1.37613e-05)
(-6.52009e-05 -2.76508e-05 -2.56515e-05)
(-0.000121382 -4.40813e-05 -2.84448e-05)
(-8.80138e-05 -2.66909e-05 -1.13084e-05)
(-0.000194472 -5.51409e-05 -1.12378e-05)
(-0.00025411 -6.72759e-05 -1.35116e-06)
(-0.00030576 -7.63693e-05 9.54076e-06)
(-0.000329659 -8.00536e-05 1.82302e-05)
(-0.000347476 -8.35036e-05 2.30771e-05)
(-0.000358224 -8.62243e-05 2.35166e-05)
(-0.000372439 -8.88559e-05 2.01659e-05)
(-0.000383334 -9.08017e-05 1.39702e-05)
(-0.000386761 -9.19986e-05 5.0273e-06)
(4.81214e-05 1.51603e-05 4.29118e-05)
(7.87918e-05 2.07479e-05 -8.63839e-07)
(0.000101954 2.21093e-05 -1.73843e-05)
(0.000113299 1.65665e-05 -2.67295e-05)
(0.000117948 6.36941e-06 -3.25144e-05)
(0.000117487 -7.05288e-06 -3.48159e-05)
(0.000113622 -2.26097e-05 -3.33532e-05)
(0.000101711 -3.53511e-05 -2.7679e-05)
(8.99432e-05 -4.51683e-05 -2.24799e-05)
(4.43098e-05 -3.2675e-05 -1.09556e-05)
(1.51057e-05 -2.01304e-05 -7.02152e-06)
(-4.71805e-06 -1.33462e-05 -1.28064e-05)
(-3.94656e-05 -2.25485e-05 -2.98366e-05)
(-3.77833e-05 -1.70014e-05 -1.59994e-05)
(-9.71254e-05 -3.69998e-05 -2.31954e-05)
(-6.40524e-05 -2.20012e-05 -7.94553e-06)
(-8.76101e-05 -2.73821e-05 -3.73983e-06)
(-9.67596e-05 -2.76553e-05 1.25333e-06)
(-0.000131324 -3.60408e-05 6.3378e-06)
(-0.000136717 -3.91231e-05 9.28502e-06)
(-0.000152627 -4.2503e-05 1.07856e-05)
(-0.000153508 -4.356e-05 8.93337e-06)
(-0.00016316 -4.60982e-05 6.46327e-06)
(-0.00016008 -4.65262e-05 2.2825e-06)
(4.42863e-05 1.71955e-05 4.66859e-05)
(6.48522e-05 2.05573e-05 -7.87513e-07)
(8.22564e-05 2.12211e-05 -1.42217e-05)
(9.15685e-05 1.66143e-05 -2.07955e-05)
(9.69247e-05 8.59991e-06 -2.52248e-05)
(0.00010002 -2.44797e-06 -2.81235e-05)
(0.000101198 -1.59908e-05 -2.84913e-05)
(0.000102541 -2.97985e-05 -2.72084e-05)
(9.43571e-05 -3.83564e-05 -2.39454e-05)
(8.33621e-05 -4.51937e-05 -2.2648e-05)
(3.8992e-05 -3.09065e-05 -1.46997e-05)
(1.6253e-05 -2.66764e-05 -1.90876e-05)
(-7.73961e-06 -1.54073e-05 -2.24979e-05)
(-3.08233e-05 -1.9315e-05 -3.04975e-05)
(-2.86877e-05 -1.49875e-05 -1.46345e-05)
(-5.89617e-05 -2.61481e-05 -1.56731e-05)
(-6.7559e-05 -2.75482e-05 -8.506e-06)
(-5.18686e-05 -1.96636e-05 -1.62549e-06)
(-0.000113739 -4.30989e-05 3.4191e-06)
(-9.60708e-05 -3.65787e-05 6.47845e-06)
(-0.000124511 -4.89909e-05 9.42229e-06)
(-5.87601e-05 -2.37533e-05 3.78901e-06)
(-6.00861e-05 -2.42948e-05 2.73759e-06)
(-0.000111618 -4.42193e-05 1.91804e-06)
(3.81425e-05 1.9563e-05 4.89274e-05)
(5.15664e-05 2.05299e-05 -1.31446e-06)
(6.06118e-05 1.89502e-05 -1.12516e-05)
(6.56903e-05 1.44053e-05 -1.46348e-05)
(7.05734e-05 8.19281e-06 -1.70953e-05)
(7.6034e-05 -7.02396e-07 -1.93935e-05)
(8.35106e-05 -1.23783e-05 -2.1091e-05)
(9.07937e-05 -2.42326e-05 -2.18299e-05)
(9.68181e-05 -3.45976e-05 -2.29945e-05)
(8.8513e-05 -3.93969e-05 -2.29632e-05)
(7.48322e-05 -4.30959e-05 -2.51102e-05)
(3.39639e-05 -2.83043e-05 -1.99761e-05)
(1.03368e-05 -1.68583e-05 -2.0444e-05)
(-3.25122e-06 -9.23905e-06 -1.88922e-05)
(-1.84799e-05 -1.65818e-05 -2.8824e-05)
(-1.78864e-05 -1.15996e-05 -1.34991e-05)
(-3.84222e-05 -2.25441e-05 -1.48813e-05)
(-5.5246e-05 -3.10869e-05 -9.54581e-06)
(-2.91773e-05 -1.6865e-05 -7.91047e-07)
(-6.61457e-05 -3.76157e-05 3.68498e-06)
(-3.02839e-05 -1.85212e-05 2.5608e-06)
(-5.38268e-05 -3.27377e-05 4.21695e-06)
(-5.87144e-05 -3.55873e-05 3.34503e-06)
(-7.45525e-05 -4.41612e-05 1.66284e-06)
(3.06302e-05 2.15253e-05 4.89372e-05)
(4.02658e-05 2.07106e-05 -2.30402e-06)
(4.33939e-05 1.66332e-05 -9.76941e-06)
(4.41419e-05 1.13112e-05 -1.0681e-05)
(4.64337e-05 5.71437e-06 -1.11025e-05)
(5.29665e-05 -1.86131e-06 -1.21333e-05)
(6.37743e-05 -1.18272e-05 -1.33855e-05)
(7.75913e-05 -2.19247e-05 -1.54542e-05)
(8.66585e-05 -2.98972e-05 -1.7949e-05)
(9.15209e-05 -3.68965e-05 -2.15391e-05)
(8.16524e-05 -3.91109e-05 -2.44888e-05)
(6.60059e-05 -4.02325e-05 -3.03024e-05)
(3.17533e-05 -2.68979e-05 -2.82274e-05)
(1.77155e-05 -2.4932e-05 -4.14449e-05)
(7.27042e-07 -1.76707e-05 -3.99957e-05)
(-7.60747e-06 -1.64159e-05 -3.48121e-05)
(-7.03804e-06 -9.7882e-06 -1.48104e-05)
(-1.3242e-05 -1.58849e-05 -1.30442e-05)
(-2.02066e-05 -2.377e-05 -9.92158e-06)
(-1.8969e-05 -2.49082e-05 -3.317e-06)
(-1.98189e-05 -2.96804e-05 -2.05544e-07)
(-1.82478e-05 -2.61499e-05 6.56217e-07)
(-1.04584e-05 -1.41649e-05 4.42458e-07)
(-1.90581e-05 -2.80079e-05 2.63867e-07)
(2.30292e-05 2.25927e-05 4.62802e-05)
(3.05012e-05 2.0435e-05 -3.85853e-06)
(3.15746e-05 1.47544e-05 -9.82427e-06)
(3.16169e-05 8.91994e-06 -9.85583e-06)
(3.28274e-05 2.62425e-06 -9.15106e-06)
(3.95441e-05 -5.54962e-06 -8.78685e-06)
(5.20319e-05 -1.50969e-05 -8.7359e-06)
(6.54752e-05 -2.29439e-05 -9.89056e-06)
(7.81685e-05 -2.92601e-05 -1.31487e-05)
(8.3386e-05 -3.36098e-05 -1.70751e-05)
(8.48307e-05 -3.78056e-05 -2.25383e-05)
(7.48796e-05 -3.83832e-05 -2.88479e-05)
(6.02325e-05 -3.7762e-05 -3.85871e-05)
(3.53574e-05 -2.93962e-05 -4.12872e-05)
(2.05647e-05 -2.61788e-05 -4.85748e-05)
(1.02812e-05 -2.24214e-05 -5.0655e-05)
(4.59465e-06 -1.93389e-05 -4.2949e-05)