/*--------------------------------*- C++ -*----------------------------------*\
  =========                 |
  \\      /  F ield         | OpenFOAM: The Open Source CFD Toolbox
   \\    /   O peration     | Website:  https://openfoam.org
    \\  /    A nd           | Version:  6
     \\/     M anipulation  |
\*---------------------------------------------------------------------------*/
FoamFile
{
    version     2.0;
    format      ascii;
    class       volScalarField;
    location    "1.2";
    object      omega;
}
// * * * * * * * * * * * * * * * * * * * * * * * * * * * * * * * * * * * * * //

dimensions      [0 0 -1 0 0 0 0];

internalField   nonuniform List<scalar> 
63264
(
843.917
843.917
843.917
843.917
843.917
843.917
843.917
843.917
843.917
843.917
843.917
843.917
843.917
843.917
843.917
843.917
843.917
843.917
843.917
843.917
843.917
843.917
843.917
843.917
843.917
843.917
843.917
843.917
843.917
843.917
843.917
843.917
843.917
843.917
843.917
843.917
843.917
843.917
843.917
843.917
843.917
843.917
843.917
843.917
843.917
843.917
843.917
843.917
843.917
843.917
843.917
843.917
843.917
843.917
843.917
843.917
843.917
843.917
843.917
843.917
843.917
843.917
843.917
843.917
843.917
843.917
843.917
843.917
843.917
843.917
843.917
843.917
843.917
843.917
843.917
843.917
843.917
843.917
843.917
843.917
843.917
843.917
843.917
843.917
843.917
843.917
843.917
843.917
843.917
843.917
843.917
843.917
843.917
843.917
843.917
843.917
843.917
843.917
843.917
843.917
843.917
843.917
843.917
843.917
843.917
843.917
843.917
843.917
843.917
843.917
843.917
843.917
843.917
843.917
843.917
843.917
843.917
843.917
843.917
843.917
843.917
843.917
843.917
843.917
843.917
843.917
843.917
843.917
843.917
843.917
843.917
843.917
843.917
843.917
843.917
843.917
843.917
843.917
843.917
843.917
843.917
843.917
843.917
843.917
843.917
843.917
843.917
843.917
843.917
843.917
843.917
843.917
843.917
843.917
843.917
843.917
843.917
843.917
843.917
843.917
843.917
843.917
843.917
843.917
843.917
843.917
843.917
843.917
843.917
843.917
843.917
843.917
843.917
843.917
843.917
843.917
843.917
843.917
843.917
843.917
843.917
843.917
843.917
843.917
843.917
843.917
843.917
843.917
843.917
843.917
843.917
843.917
843.917
843.917
843.917
843.917
843.917
843.917
843.917
843.917
843.917
843.917
843.917
843.917
843.917
843.917
843.917
843.917
843.917
843.917
843.917
843.917
843.917
843.917
843.917
843.917
843.917
843.917
843.917
843.917
843.917
843.917
843.917
843.917
843.917
843.917
843.917
843.917
843.917
843.917
843.917
843.917
843.917
843.917
843.917
843.917
843.917
843.917
843.917
843.917
843.917
843.917
843.917
843.917
843.917
843.917
843.917
843.917
843.917
843.917
843.917
843.917
843.917
843.917
843.917
843.917
843.917
843.917
843.917
843.917
843.917
843.917
843.917
843.917
843.917
843.917
843.917
843.917
843.917
843.917
843.917
843.917
843.917
843.917
843.917
843.917
843.917
843.917
843.917
843.917
843.917
843.917
843.917
843.917
843.917
843.917
843.917
843.917
843.917
843.917
843.917
843.917
843.917
843.917
843.917
843.917
843.917
843.917
843.917
843.917
843.917
843.917
843.917
843.917
843.917
843.917
843.917
843.917
843.917
843.917
843.917
843.917
843.917
843.917
843.917
843.917
843.917
843.917
843.917
843.917
843.917
843.917
843.917
843.917
843.917
843.917
843.917
843.917
843.917
843.917
843.917
843.917
843.917
843.917
843.917
843.917
843.917
843.917
843.917
843.917
843.917
843.917
843.917
843.917
843.917
843.917
843.917
843.917
843.917
843.917
843.917
843.917
843.917
843.917
843.917
843.917
843.917
843.917
843.917
843.917
843.917
843.917
843.917
843.917
843.917
843.917
843.917
843.917
843.917
843.917
843.917
843.917
843.917
843.917
843.917
843.917
843.917
843.917
843.917
843.917
843.917
843.917
843.917
843.917
843.917
843.917
843.917
843.917
843.917
843.917
843.917
843.917
843.917
843.917
843.917
843.917
843.917
843.917
843.917
843.917
843.917
843.917
843.917
843.917
843.917
843.917
843.917
843.917
843.917
843.917
843.917
843.917
843.917
843.917
843.917
843.917
843.917
843.917
843.917
843.917
843.917
843.917
843.917
843.917
843.917
843.917
843.917
843.917
843.917
843.917
843.917
843.917
843.917
843.917
843.917
843.917
843.917
843.917
843.917
843.917
843.917
843.917
843.917
843.917
843.917
843.917
843.917
843.917
843.917
843.917
843.917
843.917
843.917
843.917
843.917
843.917
843.917
843.917
843.917
843.917
843.917
843.917
843.917
843.917
843.917
843.917
843.917
843.917
843.917
843.917
843.917
843.917
843.917
843.917
843.917
843.917
843.917
843.917
843.917
843.917
843.917
843.917
843.917
843.917
843.917
843.917
843.917
843.917
843.917
843.917
843.917
843.917
843.917
843.917
843.917
843.917
843.917
843.917
843.917
843.917
843.917
843.917
843.917
843.917
843.917
843.917
843.917
843.917
843.917
843.917
843.917
843.917
843.917
843.917
843.917
843.917
843.917
843.917
843.917
843.917
843.917
843.917
843.917
843.917
843.917
843.917
843.917
843.917
843.917
843.917
843.917
843.917
843.917
843.917
843.917
843.917
843.917
843.917
843.917
843.917
843.917
843.917
843.917
843.917
843.917
843.917
843.917
843.917
843.917
843.917
843.917
843.917
843.917
843.917
843.917
843.917
843.917
843.917
843.917
843.917
843.917
843.917
843.917
843.917
843.917
843.917
843.917
843.917
843.917
843.917
843.917
843.917
843.917
843.917
843.917
843.917
843.917
843.917
843.917
843.917
843.917
843.917
843.917
843.917
843.917
843.917
843.917
843.917
843.917
843.917
843.917
843.917
843.917
843.917
843.917
843.917
843.917
843.917
843.917
843.917
843.917
843.917
843.917
843.917
843.917
843.917
843.917
843.917
843.917
843.917
843.917
843.917
843.917
843.917
843.917
843.917
843.917
843.917
843.917
843.917
843.917
843.917
843.917
843.917
843.917
843.917
843.917
843.917
843.917
843.917
843.917
843.917
843.917
843.917
843.917
843.917
843.917
843.917
843.917
843.917
843.917
843.917
843.917
843.917
843.917
843.917
843.917
843.917
843.917
843.917
843.917
843.917
843.917
843.917
843.917
843.917
843.917
843.917
843.917
843.917
843.917
843.917
843.917
843.917
843.917
843.917
843.917
843.917
843.917
843.917
843.917
843.917
843.917
843.917
843.917
843.917
843.917
843.917
843.917
843.917
843.917
843.917
843.917
843.917
843.917
843.917
843.917
843.917
843.917
843.917
843.917
843.917
843.917
843.917
843.917
843.917
843.917
843.917
843.917
843.917
276.225
262.561
264.165
265.229
265.23
264.948
264.666
264.429
264.298
264.242
264.211
264.227
264.279
264.319
264.324
264.309
264.297
264.298
264.312
264.332
264.353
264.371
264.39
264.409
264.43
264.451
264.495
264.504
264.583
264.589
264.68
264.7
264.807
264.793
265.061
276.541
262.679
264.219
265.252
265.276
265.106
264.988
264.904
264.85
264.818
264.792
264.793
264.825
264.857
264.861
264.838
264.805
264.776
264.758
264.751
264.755
264.766
264.783
264.801
264.822
264.836
264.873
264.868
264.926
264.922
264.985
264.993
265.064
265.059
265.201
276.869
262.87
264.383
265.464
265.514
265.329
265.178
265.059
264.979
264.943
264.897
264.88
264.931
264.992
265
264.96
264.907
264.866
264.844
264.836
264.839
264.844
264.853
264.86
264.865
264.877
264.881
264.898
264.903
264.93
264.942
264.974
264.997
265.029
265.087
277.088
262.945
264.501
265.687
265.801
265.595
265.365
265.165
265.023
264.967
264.922
264.896
264.937
264.996
265.007
264.968
264.915
264.876
264.858
264.855
264.858
264.862
264.859
264.858
264.85
264.845
264.841
264.84
264.842
264.847
264.858
264.871
264.897
264.904
264.989
277.224
262.979
264.625
265.877
266.008
265.793
265.542
265.326
265.17
265.091
265.042
265.014
265.024
265.046
265.046
265.019
264.984
264.958
264.944
264.94
264.939
264.938
264.928
264.922
264.907
264.896
264.891
264.871
264.889
264.858
264.894
264.87
264.914
264.873
265.005
277.393
262.95
264.436
265.635
265.78
265.643
265.525
265.445
265.382
265.346
265.312
265.285
265.295
265.322
265.325
265.294
265.244
265.195
265.158
265.132
265.113
265.102
265.088
265.081
265.071
265.054
265.058
265.028
265.038
265.013
265.015
265.004
265.017
264.988
265.046
277.563
263.036
264.501
265.727
265.888
265.749
265.623
265.545
265.466
265.432
265.393
265.325
265.336
265.411
265.446
265.408
265.333
265.261
265.209
265.178
265.16
265.147
265.135
265.121
265.105
265.089
265.068
265.05
265.03
265.01
264.99
264.973
264.959
264.945
264.939
277.649
263.033
264.525
265.832
266.053
265.916
265.742
265.613
265.491
265.442
265.406
265.329
265.331
265.41
265.454
265.42
265.341
265.266
265.213
265.182
265.164
265.152
265.138
265.118
265.097
265.067
265.043
265.008
264.98
264.952
264.917
264.892
264.87
264.837
264.835
277.665
263
264.563
265.921
266.16
266.016
265.833
265.684
265.565
265.5
265.455
265.408
265.4
265.429
265.444
265.416
265.361
265.303
265.257
265.226
265.203
265.184
265.164
265.139
265.115
265.077
265.053
265.003
264.98
264.93
264.902
264.853
264.829
264.77
264.786
277.711
262.842
264.227
265.536
265.793
265.697
265.599
265.543
265.509
265.486
265.467
265.451
265.448
265.453
265.45
265.428
265.388
265.341
265.295
265.256
265.222
265.193
265.167
265.142
265.117
265.089
265.063
265.026
264.998
264.955
264.922
264.876
264.845
264.789
264.773
277.782
262.869
264.238
265.563
265.834
265.741
265.641
265.591
265.552
265.53
265.506
265.453
265.442
265.491
265.533
265.517
265.456
265.384
265.323
265.278
265.246
265.22
265.194
265.17
265.14
265.109
265.074
265.035
264.992
264.949
264.898
264.848
264.792
264.739
264.672
277.845
262.877
264.234
265.598
265.908
265.823
265.7
265.632
265.559
265.528
265.514
265.411
265.372
265.468
265.561
265.557
265.479
265.385
265.311
265.262
265.231
265.208
265.185
265.16
265.127
265.092
265.05
265.005
264.953
264.901
264.841
264.782
264.712
264.649
264.564
277.816
262.828
264.229
265.635
265.97
265.886
265.751
265.657
265.576
265.532
265.505
265.429
265.399
265.464
265.535
265.534
265.469
265.385
265.315
265.265
265.231
265.205
265.179
265.152
265.116
265.076
265.028
264.977
264.916
264.856
264.788
264.714
264.638
264.557
264.471
277.764
262.766
264.215
265.661
266.022
265.943
265.802
265.691
265.606
265.554
265.519
265.476
265.458
265.481
265.506
265.496
265.449
265.389
265.334
265.291
265.257
265.228
265.197
265.164
265.123
265.077
265.026
264.967
264.904
264.833
264.761
264.674
264.592
264.491
264.409
277.751
262.602
263.899
265.295
265.676
265.625
265.532
265.478
265.448
265.431
265.417
265.406
265.402
265.406
265.407
265.393
265.364
265.325
265.285
265.247
265.213
265.181
265.148
265.117
265.079
265.038
264.995
264.938
264.885
264.817
264.746
264.665
264.58
264.482
264.39
277.774
262.607
263.896
265.293
265.679
265.631
265.541
265.492
265.463
265.444
265.426
265.383
265.361
265.397
265.447
265.455
265.414
265.353
265.296
265.251
265.217
265.188
265.158
265.127
265.089
265.047
264.998
264.942
264.879
264.809
264.731
264.643
264.547
264.442
264.329
277.791
262.605
263.889
265.299
265.699
265.654
265.557
265.504
265.462
265.437
265.423
265.341
265.282
265.35
265.458
265.491
265.44
265.358
265.286
265.235
265.202
265.176
265.149
265.121
265.082
265.039
264.988
264.928
264.86
264.785
264.701
264.608
264.504
264.392
264.268
277.787
262.593
263.884
265.305
265.713
265.671
265.57
265.512
265.465
265.435
265.421
265.331
265.262
265.334
265.455
265.495
265.444
265.358
265.283
265.23
265.195
265.169
265.142
265.114
265.075
265.031
264.977
264.915
264.845
264.766
264.678
264.579
264.47
264.351
264.22
277.756
262.564
263.874
265.31
265.73
265.691
265.588
265.519
265.47
265.439
265.415
265.361
265.327
265.368
265.435
265.455
265.417
265.351
265.289
265.241
265.205
265.176
265.147
265.114
265.075
265.027
264.972
264.909
264.836
264.754
264.663
264.561
264.448
264.322
264.187
277.718
262.534
263.867
265.317
265.745
265.708
265.602
265.526
265.475
265.443
265.419
265.393
265.379
265.391
265.409
265.407
265.378
265.334
265.29
265.252
265.219
265.188
265.156
265.119
265.078
265.028
264.971
264.906
264.832
264.749
264.656
264.552
264.437
264.308
264.171
133.995
127.594
127.565
128.291
128.535
128.431
128.217
128.008
127.872
127.806
127.77
127.765
127.794
127.832
127.851
127.848
127.835
127.826
127.825
127.832
127.84
127.849
127.856
127.867
127.873
127.891
127.902
127.928
127.944
127.985
128
128.056
128.08
128.123
128.212
134.271
127.825
127.75
128.435
128.694
128.684
128.604
128.519
128.45
128.404
128.371
128.357
128.368
128.39
128.399
128.388
128.362
128.334
128.312
128.301
128.299
128.306
128.316
128.332
128.342
128.362
128.372
128.395
128.404
128.44
128.447
128.494
128.514
128.552
128.63
134.527
128.065
127.982
128.679
128.942
128.913
128.804
128.689
128.599
128.546
128.503
128.475
128.489
128.529
128.553
128.54
128.503
128.464
128.434
128.417
128.411
128.41
128.413
128.415
128.418
128.421
128.426
128.429
128.439
128.443
128.463
128.465
128.505
128.491
128.58
134.734
128.248
128.179
128.918
129.205
129.15
128.974
128.79
128.652
128.58
128.536
128.506
128.513
128.549
128.573
128.563
128.53
128.493
128.466
128.452
128.445
128.44
128.435
128.428
128.419
128.41
128.403
128.397
128.394
128.393
128.397
128.398
128.419
128.406
128.481
134.906
128.421
128.385
129.144
129.429
129.357
129.16
128.959
128.807
128.718
128.666
128.633
128.624
128.633
128.639
128.629
128.607
128.582
128.563
128.55
128.541
128.533
128.521
128.51
128.494
128.484
128.466
128.462
128.446
128.451
128.433
128.449
128.437
128.441
128.476
135.062
128.547
128.469
129.183
129.47
129.464
129.376
129.282
129.201
129.142
129.097
129.061
129.044
129.044
129.042
129.022
128.987
128.945
128.908
128.878
128.856
128.84
128.824
128.814
128.799
128.79
128.774
128.767
128.748
128.746
128.726
128.728
128.719
128.71
128.739
135.213
128.693
128.613
129.329
129.613
129.599
129.502
129.404
129.315
129.254
129.204
129.154
129.13
129.145
129.163
129.15
129.104
129.046
128.994
128.955
128.928
128.907
128.889
128.872
128.853
128.833
128.812
128.79
128.77
128.746
128.728
128.701
128.696
128.654
128.678
135.324
128.802
128.734
129.472
129.774
129.748
129.611
129.471
129.349
129.275
129.226
129.175
129.146
129.159
129.18
129.169
129.124
129.065
129.011
128.971
128.941
128.919
128.896
128.874
128.847
128.819
128.789
128.758
128.727
128.697
128.668
128.634
128.616
128.571
128.581
135.405
128.903
128.863
129.613
129.91
129.87
129.718
129.562
129.436
129.353
129.297
129.251
129.221
129.214
129.212
129.195
129.157
129.109
129.062
129.023
128.991
128.964
128.935
128.909
128.876
128.846
128.808
128.776
128.734
128.704
128.659
128.628
128.589
128.544
128.534
135.474
128.967
128.921
129.63
129.911
129.902
129.814
129.728
129.656
129.599
129.551
129.509
129.475
129.449
129.425
129.394
129.353
129.305
129.257
129.212
129.17
129.133
129.098
129.066
129.032
129
128.962
128.927
128.885
128.848
128.803
128.763
128.721
128.671
128.649
135.552
129.043
128.999
129.708
129.989
129.977
129.888
129.803
129.73
129.672
129.62
129.57
129.531
129.516
129.508
129.483
129.435
129.374
129.313
129.259
129.213
129.174
129.137
129.101
129.063
129.023
128.982
128.937
128.892
128.842
128.795
128.738
128.693
128.625
128.591
135.625
129.11
129.069
129.784
130.073
130.055
129.947
129.843
129.749
129.684
129.627
129.57
129.524
129.516
129.526
129.511
129.459
129.386
129.315
129.254
129.206
129.165
129.128
129.089
129.049
129.004
128.957
128.906
128.854
128.798
128.744
128.681
128.626
128.554
128.505
135.655
129.16
129.138
129.861
130.15
130.125
130.001
129.876
129.771
129.696
129.636
129.581
129.538
129.522
129.521
129.503
129.455
129.388
129.318
129.257
129.207
129.163
129.123
129.081
129.036
128.987
128.935
128.879
128.821
128.759
128.697
128.629
128.565
128.487
128.431
135.675
129.206
129.205
129.934
130.224
130.195
130.062
129.925
129.813
129.732
129.671
129.62
129.578
129.551
129.531
129.502
129.456
129.399
129.339
129.284
129.234
129.188
129.143
129.096
129.047
128.994
128.937
128.878
128.813
128.749
128.679
128.608
128.535
128.453
128.386
135.685
129.231
129.253
129.944
130.208
130.184
130.082
129.982
129.902
129.838
129.783
129.734
129.691
129.651
129.614
129.573
129.525
129.472
129.416
129.361
129.307
129.256
129.205
129.155
129.101
129.047
128.988
128.928
128.862
128.795
128.723
128.649
128.573
128.489
128.416
135.711
129.255
129.278
129.967
130.232
130.21
130.11
130.015
129.936
129.872
129.814
129.76
129.714
129.682
129.657
129.623
129.571
129.507
129.441
129.379
129.323
129.27
129.22
129.168
129.114
129.056
128.996
128.931
128.863
128.791
128.717
128.637
128.557
128.468
128.385
135.733
129.275
129.3
129.991
130.257
130.234
130.129
130.028
129.943
129.878
129.814
129.754
129.705
129.678
129.667
129.642
129.588
129.514
129.439
129.371
129.313
129.261
129.212
129.16
129.106
129.047
128.984
128.917
128.846
128.771
128.693
128.61
128.526
128.434
128.345
135.746
129.293
129.323
130.014
130.281
130.255
130.145
130.04
129.95
129.882
129.815
129.753
129.703
129.676
129.667
129.644
129.59
129.515
129.437
129.367
129.307
129.254
129.204
129.152
129.097
129.037
128.973
128.904
128.831
128.754
128.674
128.589
128.501
128.407
128.313
135.746
129.305
129.345
130.038
130.305
130.277
130.163
130.05
129.957
129.883
129.82
129.762
129.715
129.682
129.659
129.628
129.577
129.51
129.439
129.373
129.313
129.259
129.206
129.152
129.095
129.033
128.967
128.897
128.822
128.744
128.661
128.575
128.485
128.389
128.292
135.743
129.317
129.366
130.06
130.326
130.296
130.177
130.059
129.962
129.886
129.825
129.771
129.724
129.684
129.648
129.608
129.557
129.499
129.438
129.378
129.322
129.267
129.212
129.156
129.096
129.033
128.965
128.894
128.819
128.739
128.656
128.568
128.477
128.38
128.282
79.6311
77.0087
76.5378
76.8429
77.1073
77.1504
77.0497
76.9072
76.7937
76.727
76.6897
76.6739
76.6828
76.7066
76.7266
76.7322
76.7261
76.7168
76.71
76.7076
76.7072
76.709
76.708
76.712
76.7069
76.7204
76.7073
76.7373
76.7154
76.7591
76.7353
76.7843
76.7661
76.8111
76.8072
79.8447
77.2036
76.6923
76.9451
77.1979
77.2963
77.293
77.2445
77.1883
77.1424
77.1088
77.0894
77.0889
77.102
77.1139
77.1127
77.0974
77.0749
77.0532
77.0382
77.03
77.0305
77.0316
77.0421
77.041
77.0599
77.0488
77.0788
77.0586
77.0967
77.0773
77.1167
77.1088
77.1402
77.1617
80.0214
77.3893
76.8816
77.1419
77.3975
77.4851
77.4616
77.3925
77.322
77.2698
77.2307
77.2031
77.1997
77.2211
77.2456
77.2517
77.2357
77.2079
77.18
77.1597
77.1466
77.1406
77.1376
77.1354
77.1364
77.1315
77.1357
77.1276
77.1361
77.125
77.1404
77.1244
77.1518
77.1255
77.1752
80.186
77.5428
77.0379
77.32
77.5935
77.6672
77.5998
77.4803
77.3731
77.3043
77.2629
77.2353
77.228
77.2451
77.2685
77.2768
77.2644
77.2404
77.2164
77.198
77.1865
77.1779
77.1713
77.1631
77.1548
77.1463
77.1374
77.1304
77.1236
77.1178
77.1161
77.1078
77.1191
77.097
77.1369
80.343
77.6967
77.206
77.4981
77.7701
77.833
77.7514
77.6198
77.5023
77.4232
77.3752
77.3448
77.3301
77.331
77.3378
77.3386
77.3293
77.3136
77.2977
77.2841
77.274
77.264
77.2542
77.2441
77.2291
77.2237
77.2003
77.2071
77.1738
77.1932
77.1554
77.1779
77.1469
77.1591
77.1442
80.465
77.8107
77.3017
77.5548
77.8103
77.908
77.9007
77.8485
77.7874
77.7351
77.6937
77.6622
77.6428
77.6373
77.6374
77.6308
77.6125
77.5852
77.5563
77.5304
77.5099
77.4943
77.4804
77.4731
77.4568
77.4569
77.4338
77.4391
77.4132
77.418
77.3955
77.3984
77.3817
77.3793
77.3803
80.5742
77.9266
77.4234
77.6773
77.9298
78.0212
78.0085
77.9531
77.8889
77.8356
77.7905
77.7528
77.7275
77.7259
77.7388
77.7432
77.7262
77.6922
77.653
77.6184
77.591
77.5708
77.5542
77.5398
77.5261
77.5107
77.4968
77.4798
77.4652
77.4462
77.4346
77.4089
77.4073
77.3694
77.383
80.6733
78.0226
77.5222
77.785
78.0476
78.1334
78.0965
78.0104
77.9225
77.8583
77.8116
77.775
77.748
77.744
77.7572
77.764
77.7492
77.7159
77.6762
77.6407
77.612
77.5909
77.5711
77.5551
77.5346
77.5172
77.4949
77.4748
77.4538
77.4302
77.413
77.3857
77.374
77.338
77.3428
80.7658
78.1188
77.6314
77.8997
78.1585
78.2347
78.1857
78.0894
77.996
77.9259
77.8771
77.8406
77.8139
77.8014
77.7992
77.7947
77.7785
77.7507
77.7177
77.6863
77.6584
77.6364
77.6131
77.5965
77.5696
77.5552
77.5216
77.5095
77.4719
77.4592
77.4232
77.4057
77.3756
77.3466
77.3283
80.8364
78.1887
77.7196
77.9671
78.203
78.2877
78.2777
78.2304
78.176
78.1266
78.0843
78.0483
78.0184
77.9952
77.9765
77.9567
77.9314
77.9003
77.866
77.8322
77.8003
77.7727
77.746
77.724
77.6988
77.6789
77.6511
77.6321
77.6
77.5806
77.5467
77.5244
77.4934
77.4635
77.4424
80.8973
78.2518
77.7873
78.0348
78.2692
78.3521
78.3418
78.2954
78.2417
78.1935
78.1477
78.1089
78.0781
78.0584
78.0484
78.0366
78.0129
77.9766
77.9341
77.892
77.8547
77.8218
77.7937
77.7661
77.7409
77.7132
77.687
77.6568
77.6296
77.5951
77.5687
77.5283
77.5051
77.4557
77.4386
80.9551
78.308
77.8458
78.0943
78.3311
78.4104
78.3891
78.3285
78.2607
78.2085
78.1559
78.1153
78.0837
78.0658
78.0639
78.061
78.0404
78.0006
77.9512
77.9026
77.8609
77.8254
77.7957
77.7665
77.7393
77.7087
77.6794
77.6454
77.6146
77.5768
77.5462
77.5037
77.475
77.426
77.4007
81.0034
78.3593
77.9051
78.1562
78.392
78.4655
78.4322
78.3575
78.2798
78.2187
78.1664
78.1255
78.0936
78.0733
78.0659
78.059
78.0384
78.0015
77.955
77.9079
77.866
77.8292
77.7979
77.7666
77.7375
77.7043
77.6724
77.6359
77.6012
77.562
77.5253
77.4832
77.4476
77.3983
77.368
81.0487
78.4085
77.9628
78.2151
78.4496
78.5206
78.4816
78.3997
78.317
78.2506
78.1992
78.1589
78.1264
78.1014
78.0835
78.0659
78.041
78.0067
77.9665
77.9253
77.8868
77.851
77.8183
77.7855
77.7527
77.7189
77.6821
77.6466
77.6058
77.5686
77.5248
77.4852
77.4414
77.3945
77.3546
81.0735
78.4422
78.0362
78.2795
78.4899
78.5537
78.5283
78.4698
78.4079
78.3529
78.3058
78.2647
78.2283
78.1956
78.1658
78.1362
78.1037
78.0671
78.0279
77.9877
77.9487
77.9108
77.8746
77.8393
77.8027
77.7686
77.7282
77.6931
77.6501
77.6108
77.5673
77.5232
77.4796
77.4311
77.3887
81.094
78.463
78.0589
78.3017
78.5114
78.576
78.5534
78.4984
78.4388
78.3858
78.336
78.2928
78.2582
78.2298
78.2061
78.1821
78.1511
78.111
78.0654
78.0188
77.9751
77.9338
77.8963
77.8585
77.8224
77.784
77.7453
77.7048
77.6632
77.6198
77.5757
77.5291
77.4842
77.4326
77.3881
81.1124
78.4805
78.0775
78.3199
78.5299
78.5936
78.5683
78.5098
78.4455
78.3931
78.3381
78.2919
78.2603
78.2359
78.2181
78.2002
78.1713
78.1284
78.0772
78.025
77.9774
77.9342
77.8959
77.8578
77.821
77.7819
77.7417
77.6998
77.6566
77.6114
77.5662
77.518
77.4715
77.4198
77.3726
81.1287
78.4974
78.0972
78.3397
78.5488
78.6105
78.5818
78.5195
78.4515
78.3975
78.3404
78.2929
78.2616
78.2376
78.2206
78.2039
78.1756
78.1322
78.0795
78.0255
77.9764
77.932
77.893
77.8544
77.8173
77.7778
77.7369
77.6943
77.6501
77.6041
77.5574
77.5087
77.4604
77.4083
77.359
81.1415
78.5125
78.1162
78.3588
78.5672
78.6277
78.5957
78.5286
78.4581
78.3984
78.3447
78.2996
78.2652
78.2371
78.2143
78.1917
78.1615
78.1208
78.0729
78.0237
77.9767
77.9339
77.8935
77.8553
77.8159
77.7762
77.7344
77.691
77.6461
77.5996
77.552
77.5028
77.4533
77.4013
77.3505
81.1531
78.5261
78.1339
78.3766
78.5837
78.6421
78.6068
78.5357
78.4625
78.3999
78.3479
78.3044
78.2675
78.2349
78.2052
78.1757
78.1423
78.1037
78.0612
78.0179
77.9754
77.935
77.8952
77.8566
77.8164
77.776
77.7335
77.6897
77.6444
77.5976
77.5496
77.5001
77.45
77.3979
77.3463
52.9646
51.9407
51.5265
51.5752
51.7504
51.8452
51.825
51.745
51.6609
51.5998
51.5638
51.5454
51.5415
51.5494
51.5612
51.569
51.5698
51.5661
51.5609
51.5574
51.5538
51.5531
51.5481
51.5512
51.5385
51.555
51.5261
51.5617
51.522
51.5645
51.5256
51.5697
51.5305
51.578
51.5349
53.1285
52.0965
51.6525
51.6513
51.8001
51.9201
51.9669
51.9573
51.9218
51.8826
51.8512
51.8313
51.8242
51.828
51.8356
51.838
51.8312
51.8172
51.8004
51.787
51.7765
51.7746
51.7703
51.7795
51.7697
51.7924
51.7672
51.8026
51.7697
51.8062
51.7768
51.8108
51.7876
51.8202
51.8035
53.2562
52.2351
51.8009
51.8081
51.96
52.0744
52.1082
52.0843
52.0401
51.9957
51.9605
51.9367
51.9262
51.9314
51.9455
51.9555
51.9532
51.9399
51.9211
51.9041
51.8904
51.8823
51.8777
51.8726
51.874
51.866
51.8706
51.859
51.8666
51.8518
51.8617
51.8454
51.8573
51.8395
51.8557
53.385
52.3566
51.9215
51.9405
52.1061
52.215
52.2215
52.1607
52.0883
52.0297
51.9909
51.9675
51.956
51.9584
51.9705
51.981
51.9813
51.9712
51.9565
51.9418
51.9311
51.9217
51.9156
51.9084
51.9014
51.8949
51.8869
51.8808
51.8738
51.868
51.864
51.855
51.8588
51.8419
51.8564
53.5143
52.4821
52.0549
52.0807
52.2457
52.3469
52.3439
52.2752
52.1953
52.131
52.0882
52.0615
52.0459
52.0404
52.0421
52.0446
52.0429
52.036
52.0269
52.0168
52.0089
52.0002
51.9923
51.9857
51.9708
51.9731
51.9449
51.9624
51.9211
51.9486
51.9059
51.9308
51.8933
51.9135
51.8778
53.6095
52.5733
52.1373
52.1331
52.2754
52.3902
52.4354
52.4254
52.3905
52.3506
52.3154
52.2889
52.2714
52.263
52.2609
52.2586
52.2504
52.2351
52.2163
52.197
52.1807
52.168
52.1553
52.1528
52.1348
52.1435
52.1177
52.13
52.1054
52.1128
52.0919
52.0993
52.0768
52.0857
52.0665
53.6906
52.6607
52.2333
52.2328
52.3736
52.4836
52.5259
52.5131
52.4779
52.4392
52.4006
52.371
52.3506
52.3425
52.3466
52.3531
52.3506
52.3353
52.3116
52.2865
52.2639
52.2464
52.2324
52.2207
52.2115
52.2004
52.1914
52.1806
52.1705
52.1575
52.1503
52.1319
52.1292
52.1049
52.1056
53.7721
52.7383
52.3098
52.3122
52.4597
52.5682
52.597
52.5626
52.5096
52.4621
52.4209
52.3921
52.372
52.3628
52.3663
52.3739
52.3731
52.3593
52.3362
52.3112
52.288
52.2707
52.2541
52.2434
52.228
52.2183
52.2028
52.1902
52.1781
52.161
52.1508
52.134
52.1243
52.1026
52.1002
53.8542
52.819
52.3973
52.4039
52.5492
52.6513
52.6702
52.6296
52.5718
52.5197
52.479
52.4499
52.4292
52.4164
52.4118
52.4102
52.4047
52.3916
52.3723
52.3512
52.3301
52.3144
52.2953
52.2871
52.2644
52.2622
52.233
52.2335
52.203
52.2006
52.1732
52.1665
52.143
52.1302
52.1077
53.9168
52.8759
52.4709
52.4709
52.5979
52.6987
52.7395
52.7336
52.7047
52.6698
52.6365
52.6079
52.5846
52.5662
52.5518
52.5388
52.5238
52.5049
52.4828
52.4601
52.4373
52.4184
52.3989
52.3854
52.3674
52.3578
52.3372
52.3306
52.3067
52.2997
52.2751
52.2667
52.2425
52.2315
52.2096
53.9638
52.9249
52.5249
52.5265
52.6527
52.7521
52.7932
52.7881
52.7608
52.7285
52.6929
52.6625
52.6398
52.6239
52.6146
52.6079
52.597
52.578
52.5522
52.5233
52.4962
52.471
52.4507
52.4307
52.4146
52.3968
52.3815
52.3624
52.3482
52.3259
52.3126
52.2869
52.2754
52.2456
52.2337
54.0092
52.9688
52.5695
52.5706
52.6979
52.7951
52.8307
52.8154
52.7776
52.7437
52.702
52.6692
52.6481
52.6344
52.6296
52.6293
52.6232
52.6048
52.5759
52.5425
52.511
52.4826
52.4603
52.4386
52.4212
52.4012
52.3844
52.363
52.3467
52.3228
52.3072
52.2811
52.2665
52.2383
52.2234
54.0554
53.0133
52.6169
52.619
52.7451
52.8384
52.8652
52.8399
52.7944
52.7524
52.7113
52.6789
52.6569
52.6418
52.6342
52.6308
52.6235
52.6063
52.5798
52.5483
52.5179
52.4895
52.4667
52.444
52.4257
52.4044
52.3862
52.3639
52.3446
52.3221
52.3011
52.2776
52.2586
52.2311
52.2139
54.1012
53.0568
52.6627
52.6645
52.7892
52.8814
52.9045
52.8755
52.8268
52.78
52.7401
52.7089
52.6856
52.6675
52.654
52.643
52.6299
52.6114
52.5876
52.5605
52.534
52.5083
52.4859
52.4639
52.4429
52.4232
52.4004
52.3813
52.3561
52.3378
52.3105
52.2912
52.2657
52.2425
52.2186
54.1291
53.0831
52.7194
52.7279
52.8392
52.9224
52.95
52.9355
52.9013
52.8631
52.8274
52.7962
52.7693
52.7456
52.7243
52.7043
52.6837
52.6608
52.6358
52.6091
52.5831
52.5572
52.5332
52.5108
52.4864
52.468
52.4414
52.4233
52.3975
52.3758
52.3516
52.3279
52.3034
52.2796
52.2546
54.1449
53.0996
52.7379
52.7466
52.8573
52.9409
52.9708
52.9594
52.9275
52.8921
52.8551
52.822
52.7972
52.7777
52.7612
52.7458
52.7281
52.7051
52.677
52.6457
52.6151
52.585
52.5592
52.533
52.51
52.4863
52.4632
52.4397
52.416
52.3919
52.3674
52.3423
52.3188
52.2917
52.2684
54.1597
53.1136
52.7521
52.7601
52.8708
52.9538
52.9826
52.969
52.9333
52.8993
52.8592
52.8225
52.8003
52.7856
52.774
52.7635
52.7492
52.7265
52.6956
52.66
52.6254
52.5923
52.5645
52.5373
52.5132
52.489
52.4648
52.4403
52.4161
52.3906
52.3661
52.34
52.316
52.2894
52.2654
54.1745
53.1278
52.7676
52.7755
52.8855
52.9668
52.9933
52.9769
52.9383
52.9031
52.8616
52.8237
52.8019
52.7881
52.7773
52.7677
52.7542
52.7317
52.7002
52.6635
52.6276
52.5934
52.5647
52.5371
52.5127
52.4883
52.4637
52.4391
52.4142
52.3886
52.3633
52.3372
52.3124
52.2859
52.2612
54.1891
53.1417
52.7825
52.79
52.8991
52.9798
53.004
52.9843
52.9443
52.9039
52.8641
52.8295
52.8052
52.7869
52.7716
52.7575
52.741
52.7185
52.6896
52.657
52.6237
52.5928
52.5637
52.5379
52.5123
52.4879
52.4633
52.4382
52.4129
52.3873
52.3617
52.3356
52.3101
52.284
52.2591
54.203
53.1543
52.7961
52.8033
52.9114
52.9909
53.0126
52.9901
52.9482
52.9049
52.8659
52.8331
52.8067
52.7842
52.7639
52.7445
52.7241
52.7007
52.674
52.6456
52.6167
52.5893
52.5622
52.5374
52.512
52.4877
52.4629
52.4377
52.4123
52.3867
52.3609
52.3348
52.3091
52.2831
52.258
37.7666
37.3692
37.1048
37.0463
37.1271
37.2157
37.2362
37.2019
37.1469
37.0959
37.0631
37.046
37.0369
37.0333
37.035
37.0396
37.0437
37.0455
37.0446
37.0435
37.04
37.0401
37.033
37.0387
37.0201
37.0426
37.0044
37.0438
36.9987
37.0386
36.9953
37.0375
36.9893
37.0373
36.9829
37.8944
37.4937
37.2104
37.1117
37.1615
37.2549
37.3185
37.3356
37.3206
37.2916
37.2646
37.2466
37.2369
37.2341
37.2355
37.2371
37.2349
37.228
37.2175
37.2083
37.1983
37.1972
37.1891
37.2004
37.1832
37.2114
37.1782
37.2161
37.1802
37.2141
37.182
37.2143
37.1825
37.2192
37.183
37.991
37.5984
37.3264
37.2373
37.291
37.382
37.4373
37.4443
37.4244
37.3915
37.3612
37.342
37.3309
37.3263
37.3285
37.3341
37.3371
37.3344
37.3257
37.3155
37.3049
37.2972
37.2934
37.2869
37.2895
37.2809
37.2858
37.2748
37.281
37.2691
37.2729
37.264
37.2629
37.2576
37.2537
38.0928
37.6954
37.4215
37.3386
37.4022
37.4918
37.531
37.5113
37.4695
37.4247
37.39
37.3706
37.3601
37.3547
37.3553
37.3601
37.3642
37.3636
37.3586
37.3504
37.3434
37.3357
37.331
37.3256
37.32
37.316
37.3093
37.3057
37.2989
37.2957
37.2902
37.2851
37.2833
37.275
37.2748
38.1971
37.7964
37.5286
37.4514
37.5152
37.599
37.6314
37.6066
37.5589
37.5112
37.4748
37.4522
37.4385
37.4299
37.426
37.4258
37.4264
37.4253
37.4224
37.4173
37.4129
37.407
37.4006
37.3988
37.3828
37.3932
37.3613
37.3871
37.3439
37.3746
37.3338
37.3602
37.3214
37.3474
37.3062
38.2724
37.8691
37.597
37.499
37.5408
37.6259
37.6878
37.7057
37.6939
37.6682
37.6403
37.6188
37.6043
37.5951
37.5901
37.5873
37.5833
37.5759
37.5656
37.5536
37.542
37.5339
37.5216
37.5249
37.5049
37.52
37.4946
37.5097
37.489