/*--------------------------------*- C++ -*----------------------------------*\
  =========                 |
  \\      /  F ield         | OpenFOAM: The Open Source CFD Toolbox
   \\    /   O peration     | Website:  https://openfoam.org
    \\  /    A nd           | Version:  6
     \\/     M anipulation  |
\*---------------------------------------------------------------------------*/
FoamFile
{
    version     2.0;
    format      ascii;
    class       volScalarField;
    location    "1.2";
    object      p;
}
// * * * * * * * * * * * * * * * * * * * * * * * * * * * * * * * * * * * * * //

dimensions      [0 2 -2 0 0 0 0];

internalField   nonuniform List<scalar> 
63264
(
0.0124637
0.0128393
0.0125853
0.0125203
0.0124728
0.0124199
0.0123705
0.0123213
0.0122719
0.0122215
0.012169
0.0121134
0.0120544
0.0119928
0.0119295
0.0118655
0.0118007
0.0117352
0.0116688
0.0116016
0.0115326
0.0114622
0.011389
0.0113137
0.0112344
0.0111516
0.011064
0.0109714
0.0108726
0.0107675
0.0106541
0.010534
0.0103978
0.010266
0.0100681
0.0124885
0.0128734
0.0126105
0.012539
0.0124875
0.0124319
0.0123814
0.0123326
0.0122848
0.0122372
0.0121883
0.0121371
0.0120832
0.0120271
0.0119699
0.0119123
0.0118545
0.0117967
0.0117384
0.01168
0.0116204
0.0115602
0.0114977
0.0114339
0.0113671
0.0112974
0.0112237
0.0111459
0.0110627
0.0109746
0.010879
0.0107806
0.0106678
0.010569
0.0104194
0.0125122
0.012905
0.0126354
0.0125593
0.0125051
0.0124477
0.0123963
0.0123472
0.0122996
0.0122529
0.0122058
0.0121575
0.0121073
0.0120558
0.012004
0.0119526
0.0119016
0.0118512
0.0118011
0.0117512
0.011701
0.0116505
0.0115989
0.0115461
0.0114913
0.0114341
0.0113736
0.0113095
0.0112403
0.0111664
0.0110848
0.0109994
0.0109003
0.0108077
0.0106865
0.0125326
0.012934
0.0126575
0.0125765
0.0125195
0.0124605
0.0124087
0.0123602
0.0123139
0.0122692
0.0122248
0.01218
0.0121342
0.0120875
0.012041
0.0119955
0.011951
0.0119077
0.0118652
0.0118237
0.0117826
0.011742
0.011701
0.0116597
0.0116171
0.0115731
0.0115267
0.0114776
0.0114245
0.0113676
0.0113041
0.0112373
0.0111569
0.0110826
0.0109694
0.0125513
0.0129629
0.0126801
0.0125956
0.0125367
0.0124765
0.012424
0.0123753
0.0123294
0.0122858
0.0122432
0.012201
0.0121586
0.0121161
0.0120744
0.0120343
0.011996
0.0119595
0.0119245
0.0118912
0.0118589
0.011828
0.0117971
0.0117671
0.0117361
0.011705
0.011672
0.0116373
0.0115993
0.0115584
0.0115112
0.0114621
0.011397
0.0113432
0.0112302
0.0125677
0.0129875
0.0127001
0.012612
0.0125508
0.0124891
0.0124361
0.0123878
0.0123431
0.0123013
0.0122613
0.0122222
0.0121835
0.0121453
0.0121084
0.0120737
0.0120413
0.0120114
0.0119836
0.0119583
0.0119345
0.011913
0.0118924
0.0118732
0.0118546
0.0118362
0.0118174
0.0117978
0.0117762
0.0117531
0.0117253
0.0116973
0.011658
0.0116294
0.0115651
0.0125839
0.0130108
0.0127201
0.0126296
0.0125671
0.0125046
0.0124511
0.0124027
0.0123584
0.0123176
0.0122792
0.0122426
0.0122071
0.0121725
0.0121399
0.0121101
0.0120834
0.0120599
0.0120392
0.0120214
0.0120062
0.0119936
0.011983
0.0119745
0.0119675
0.0119617
0.0119564
0.0119514
0.0119455
0.0119388
0.0119289
0.0119182
0.0118998
0.0118855
0.0118544
0.0125976
0.0130318
0.0127373
0.0126439
0.0125798
0.0125166
0.0124631
0.0124154
0.0123721
0.0123328
0.0122964
0.0122624
0.0122301
0.0121991
0.0121707
0.0121456
0.0121242
0.0121065
0.0120923
0.0120819
0.0120745
0.0120706
0.0120696
0.0120716
0.0120761
0.0120827
0.0120911
0.0121009
0.012111
0.0121217
0.0121307
0.0121398
0.0121432
0.0121501
0.0121394
0.01261
0.0130523
0.0127544
0.0126592
0.0125944
0.0125307
0.012477
0.0124293
0.0123865
0.0123482
0.0123133
0.0122813
0.0122516
0.012224
0.0121994
0.0121787
0.0121621
0.0121501
0.012142
0.0121384
0.0121386
0.0121432
0.0121512
0.0121632
0.0121785
0.0121971
0.0122185
0.0122423
0.0122678
0.0122949
0.0123216
0.0123498
0.012372
0.0124008
0.0124015
0.0126208
0.0130705
0.0127698
0.0126722
0.0126058
0.0125414
0.0124878
0.0124405
0.0123986
0.0123617
0.0123287
0.012299
0.0122719
0.0122476
0.0122267
0.0122101
0.0121982
0.0121912
0.0121889
0.0121917
0.0121991
0.0122114
0.0122282
0.0122497
0.0122755
0.0123057
0.0123398
0.0123776
0.0124185
0.0124625
0.0125081
0.0125568
0.0126035
0.0126576
0.0126974
0.012631
0.0130862
0.012784
0.0126852
0.0126183
0.0125537
0.0125
0.0124529
0.0124114
0.0123754
0.0123437
0.0123159
0.0122912
0.0122695
0.0122516
0.0122388
0.0122312
0.0122291
0.0122324
0.0122412
0.0122553
0.012275
0.0123
0.0123304
0.0123662
0.0124072
0.0124532
0.0125042
0.0125595
0.0126191
0.012682
0.0127488
0.0128166
0.0128893
0.0129592
0.0126404
0.0131003
0.0127964
0.0126959
0.0126281
0.0125633
0.0125097
0.0124632
0.0124226
0.0123876
0.0123573
0.0123314
0.0123092
0.0122898
0.0122747
0.0122652
0.0122616
0.0122638
0.0122721
0.0122863
0.0123066
0.0123329
0.0123654
0.0124042
0.0124492
0.0125004
0.0125578
0.0126212
0.0126903
0.0127652
0.012845
0.01293
0.0130189
0.0131126
0.0132085
0.0126479
0.0131133
0.0128077
0.0127063
0.0126381
0.0125733
0.0125199
0.0124737
0.0124335
0.0123993
0.0123701
0.0123455
0.012325
0.012308
0.0122956
0.0122891
0.012289
0.0122952
0.0123079
0.0123271
0.0123529
0.0123855
0.0124249
0.0124713
0.0125247
0.0125854
0.012653
0.0127279
0.0128097
0.0128984
0.0129936
0.0130955
0.0132028
0.0133168
0.0134343
0.0126545
0.0131249
0.0128173
0.0127147
0.0126461
0.0125813
0.0125281
0.0124822
0.0124427
0.0124093
0.0123812
0.012358
0.0123392
0.0123243
0.0123144
0.0123106
0.0123134
0.012323
0.0123394
0.012363
0.0123937
0.0124318
0.0124773
0.0125306
0.0125916
0.0126607
0.0127378
0.0128231
0.0129164
0.0130179
0.0131273
0.0132447
0.0133686
0.0135017
0.0136346
0.0126599
0.0131352
0.0128264
0.0127229
0.0126536
0.0125886
0.0125355
0.0124898
0.0124507
0.0124181
0.0123909
0.0123689
0.0123513
0.0123383
0.0123305
0.0123291
0.0123346
0.0123472
0.012367
0.0123945
0.0124295
0.0124724
0.0125233
0.0125826
0.0126503
0.0127268
0.0128122
0.0129066
0.0130103
0.0131233
0.0132455
0.0133774
0.0135178
0.0136694
0.0138263
0.0126646
0.0131429
0.0128334
0.0127291
0.0126596
0.0125945
0.0125416
0.0124962
0.0124575
0.0124254
0.0123991
0.0123782
0.0123621
0.0123504
0.0123441
0.0123445
0.0123522
0.0123674
0.0123902
0.0124209
0.0124596
0.0125065
0.012562
0.0126263
0.0126997
0.0127825
0.012875
0.0129774
0.0130898
0.0132126
0.0133458
0.0134897
0.0136439
0.0138095
0.0139846
0.0126687
0.0131492
0.0128393
0.0127344
0.0126646
0.0125996
0.0125468
0.0125016
0.0124632
0.0124316
0.0124058
0.0123858
0.0123709
0.0123602
0.0123549
0.0123568
0.0123664
0.0123837
0.012409
0.0124423
0.0124839
0.0125342
0.0125933
0.0126618
0.0127398
0.0128277
0.0129259
0.0130348
0.0131545
0.0132854
0.0134277
0.0135818
0.0137475
0.0139257
0.0141155
0.0126716
0.0131541
0.0128435
0.0127383
0.0126684
0.0126034
0.0125507
0.0125057
0.0124676
0.0124363
0.0124109
0.0123916
0.0123774
0.0123676
0.0123633
0.0123662
0.0123772
0.0123961
0.012423
0.0124583
0.0125022
0.012555
0.0126169
0.0126885
0.01277
0.0128619
0.0129645
0.0130782
0.0132034
0.0133405
0.0134897
0.0136515
0.0138259
0.0140136
0.0142142
0.0126735
0.0131576
0.0128464
0.0127409
0.012671
0.012606
0.0125535
0.0125085
0.0124706
0.0124395
0.0124146
0.0123954
0.0123815
0.0123723
0.0123689
0.0123728
0.0123845
0.0124044
0.0124325
0.012469
0.0125144
0.0125688
0.0126327
0.0127064
0.0127903
0.0128848
0.0129904
0.0131075
0.0132364
0.0133777
0.0135316
0.0136987
0.013879
0.0140734
0.0142814
0.0126745
0.0131597
0.012848
0.0127423
0.0126723
0.0126074
0.0125549
0.0125101
0.0124722
0.0124412
0.0124164
0.0123973
0.0123835
0.0123747
0.0123718
0.0123762
0.0123883
0.0124086
0.0124372
0.0124744
0.0125204
0.0125757
0.0126405
0.0127153
0.0128004
0.0128963
0.0130034
0.0131222
0.013253
0.0133964
0.0135527
0.0137223
0.0139057
0.0141033
0.014315
0.0124628
0.0128376
0.0125852
0.0125203
0.0124728
0.0124198
0.0123704
0.0123213
0.0122719
0.0122215
0.012169
0.0121134
0.0120544
0.0119928
0.0119296
0.0118655
0.0118007
0.0117352
0.0116688
0.0116016
0.0115326
0.0114622
0.011389
0.0113137
0.0112344
0.0111516
0.011064
0.0109714
0.0108727
0.0107675
0.0106542
0.0105341
0.010398
0.0102661
0.0100683
0.0124877
0.0128717
0.0126105
0.012539
0.0124875
0.0124319
0.0123814
0.0123326
0.0122848
0.0122372
0.0121883
0.0121371
0.0120831
0.0120271
0.0119699
0.0119123
0.0118545
0.0117967
0.0117384
0.01168
0.0116204
0.0115602
0.0114978
0.011434
0.0113671
0.0112974
0.0112238
0.0111459
0.0110628
0.0109746
0.0108791
0.0107807
0.010668
0.0105692
0.0104196
0.0125113
0.0129033
0.0126354
0.0125593
0.0125051
0.0124477
0.0123963
0.0123472
0.0122996
0.0122529
0.0122058
0.0121575
0.0121073
0.0120558
0.012004
0.0119526
0.0119016
0.0118512
0.0118011
0.0117512
0.011701
0.0116505
0.0115989
0.0115461
0.0114913
0.0114341
0.0113736
0.0113095
0.0112404
0.0111665
0.0110849
0.0109995
0.0109004
0.0108079
0.0106867
0.0125318
0.0129323
0.0126574
0.0125764
0.0125194
0.0124604
0.0124087
0.0123601
0.0123139
0.0122692
0.0122248
0.01218
0.0121341
0.0120875
0.012041
0.0119955
0.011951
0.0119077
0.0118652
0.0118237
0.0117826
0.011742
0.011701
0.0116597
0.0116171
0.0115731
0.0115267
0.0114776
0.0114245
0.0113676
0.0113041
0.0112374
0.011157
0.0110827
0.0109696
0.0125507
0.0129612
0.01268
0.0125955
0.0125366
0.0124764
0.0124239
0.0123752
0.0123294
0.0122858
0.0122432
0.012201
0.0121585
0.0121161
0.0120744
0.0120343
0.011996
0.0119595
0.0119245
0.0118912
0.0118589
0.0118279
0.0117971
0.011767
0.0117361
0.011705
0.011672
0.0116373
0.0115993
0.0115584
0.0115113
0.0114621
0.0113971
0.0113433
0.0112304
0.0125672
0.0129858
0.0127001
0.012612
0.0125507
0.0124891
0.012436
0.0123877
0.012343
0.0123013
0.0122612
0.0122222
0.0121834
0.0121452
0.0121084
0.0120737
0.0120413
0.0120114
0.0119836
0.0119583
0.0119345
0.011913
0.0118924
0.0118732
0.0118545
0.0118361
0.0118173
0.0117978
0.0117762
0.0117531
0.0117254
0.0116973
0.011658
0.0116295
0.0115652
0.0125833
0.0130091
0.0127201
0.0126295
0.012567
0.0125045
0.012451
0.0124027
0.0123583
0.0123176
0.0122792
0.0122426
0.012207
0.0121724
0.0121398
0.0121101
0.0120834
0.0120598
0.0120391
0.0120214
0.0120061
0.0119935
0.011983
0.0119745
0.0119674
0.0119617
0.0119564
0.0119514
0.0119455
0.0119388
0.0119289
0.0119182
0.0118998
0.0118856
0.0118544
0.0125971
0.0130301
0.0127373
0.0126438
0.0125797
0.0125165
0.012463
0.0124153
0.012372
0.0123327
0.0122964
0.0122624
0.01223
0.0121991
0.0121706
0.0121456
0.0121242
0.0121065
0.0120923
0.0120818
0.0120745
0.0120706
0.0120696
0.0120715
0.012076
0.0120827
0.012091
0.0121009
0.012111
0.0121216
0.0121307
0.0121398
0.0121432
0.0121501
0.0121394
0.0126096
0.0130506
0.0127543
0.012659
0.0125942
0.0125306
0.0124769
0.0124292
0.0123864
0.0123481
0.0123133
0.0122813
0.0122515
0.0122239
0.0121993
0.0121787
0.0121621
0.01215
0.012142
0.0121384
0.0121386
0.0121431
0.0121512
0.0121632
0.0121785
0.0121971
0.0122184
0.0122423
0.0122677
0.0122949
0.0123216
0.0123497
0.0123719
0.0124008
0.0124015
0.0126206
0.0130689
0.0127697
0.0126721
0.0126057
0.0125414
0.0124877
0.0124404
0.0123985
0.0123617
0.0123286
0.0122989
0.0122719
0.0122475
0.0122266
0.0122101
0.0121981
0.0121911
0.0121889
0.0121917
0.012199
0.0122113
0.0122281
0.0122496
0.0122754
0.0123057
0.0123397
0.0123775
0.0124184
0.0124624
0.012508
0.0125567
0.0126034
0.0126575
0.0126973
0.0126307
0.0130846
0.0127839
0.012685
0.0126181
0.0125536
0.0124999
0.0124528
0.0124114
0.0123753
0.0123436
0.0123158
0.0122911
0.0122694
0.0122516
0.0122387
0.0122312
0.0122291
0.0122324
0.0122411
0.0122553
0.0122749
0.0122999
0.0123303
0.0123661
0.0124071
0.0124531
0.0125041
0.0125594
0.012619
0.0126819
0.0127487
0.0128165
0.0128892
0.0129591
0.0126401
0.0130987
0.0127963
0.0126956
0.012628
0.0125632
0.0125096
0.0124631
0.0124225
0.0123875
0.0123572
0.0123314
0.0123091
0.0122897
0.0122746
0.0122651
0.0122615
0.0122638
0.012272
0.0122862
0.0123065
0.0123328
0.0123653
0.0124041
0.0124491
0.0125003
0.0125576
0.0126211
0.0126902
0.012765
0.0128448
0.0129299
0.0130187
0.0131124
0.0132084
0.0126477
0.0131118
0.0128076
0.012706
0.0126379
0.0125732
0.0125198
0.0124736
0.0124334
0.0123992
0.01237
0.0123455
0.0123249
0.0123079
0.0122955
0.0122891
0.0122889
0.0122951
0.0123078
0.012327
0.0123528
0.0123854
0.0124248
0.0124712
0.0125246
0.0125852
0.0126529
0.0127277
0.0128095
0.0128983
0.0129935
0.0130953
0.0132026
0.0133166
0.0134341
0.0126544
0.0131234
0.0128171
0.0127144
0.0126459
0.0125811
0.012528
0.0124821
0.0124426
0.0124093
0.0123812
0.012358
0.0123391
0.0123242
0.0123143
0.0123105
0.0123133
0.0123229
0.0123394
0.0123629
0.0123936
0.0124317
0.0124772
0.0125305
0.0125915
0.0126606
0.0127376
0.0128229
0.0129162
0.0130178
0.0131271
0.0132445
0.0133684
0.0135015
0.0136344
0.0126599
0.0131338
0.0128264
0.0127225
0.0126533
0.0125884
0.0125354
0.0124897
0.0124506
0.012418
0.0123908
0.0123688
0.0123512
0.0123382
0.0123304
0.012329
0.0123345
0.0123471
0.0123669
0.0123944
0.0124293
0.0124723
0.0125232
0.0125824
0.0126501
0.0127266
0.012812
0.0129064
0.0130101
0.0131231
0.0132452
0.0133771
0.0135176
0.0136691
0.013826
0.0126647
0.0131415
0.0128333
0.0127287
0.0126593
0.0125944
0.0125415
0.012496
0.0124574
0.0124253
0.012399
0.0123781
0.012362
0.0123503
0.012344
0.0123444
0.0123521
0.0123673
0.0123901
0.0124208
0.0124594
0.0125064
0.0125619
0.0126262
0.0126996
0.0127824
0.0128748
0.0129771
0.0130896
0.0132124
0.0133456
0.0134895
0.0136437
0.0138093
0.0139843
0.0126687
0.0131479
0.0128392
0.012734
0.0126644
0.0125994
0.0125467
0.0125015
0.0124631
0.0124315
0.0124057
0.0123858
0.0123708
0.01236
0.0123548
0.0123567
0.0123663
0.0123836
0.0124089
0.0124421
0.0124838
0.012534
0.0125932
0.0126616
0.0127396
0.0128275
0.0129257
0.0130346
0.0131542
0.0132851
0.0134274
0.0135815
0.0137473
0.0139254
0.0141152
0.0126717
0.0131527
0.0128434
0.0127379
0.0126681
0.0126032
0.0125506
0.0125056
0.0124675
0.0124361
0.0124109
0.0123915
0.0123773
0.0123674
0.0123631
0.0123661
0.0123771
0.012396
0.0124229
0.0124582
0.0125021
0.0125548
0.0126168
0.0126883
0.0127698
0.0128617
0.0129643
0.013078
0.0132032
0.0133403
0.0134895
0.0136512
0.0138256
0.0140133
0.0142139
0.0126736
0.0131563
0.0128463
0.0127405
0.0126707
0.0126059
0.0125533
0.0125084
0.0124705
0.0124394
0.0124145
0.0123953
0.0123814
0.0123722
0.0123688
0.0123727
0.0123844
0.0124043
0.0124324
0.0124689
0.0125142
0.0125687
0.0126325
0.0127062
0.0127901
0.0128846
0.0129902
0.0131073
0.0132362
0.0133775
0.0135314
0.0136984
0.0138787
0.0140731
0.0142811
0.0126746
0.0131584
0.0128479
0.0127419
0.012672
0.0126073
0.0125548
0.0125099
0.0124721
0.0124411
0.0124163
0.0123972
0.0123834
0.0123746
0.0123717
0.012376
0.0123882
0.0124085
0.0124371
0.0124742
0.0125203
0.0125755
0.0126404
0.0127151
0.0128002
0.0128961
0.0130032
0.0131219
0.0132528
0.0133961
0.0135524
0.0137221
0.0139054
0.014103
0.0143147
0.0124659
0.0128347
0.0125851
0.0125205
0.0124729
0.0124199
0.0123705
0.0123213
0.0122719
0.0122215
0.012169
0.0121134
0.0120544
0.0119928
0.0119296
0.0118655
0.0118007
0.0117352
0.0116688
0.0116016
0.0115326
0.0114622
0.011389
0.0113137
0.0112344
0.0111516
0.011064
0.0109714
0.0108727
0.0107675
0.0106542
0.0105341
0.010398
0.010266
0.0100681
0.0124908
0.0128686
0.0126104
0.0125392
0.0124876
0.0124319
0.0123814
0.0123326
0.0122848
0.0122372
0.0121883
0.0121371
0.0120832
0.0120271
0.0119699
0.0119123
0.0118545
0.0117967
0.0117384
0.01168
0.0116204
0.0115602
0.0114978
0.011434
0.0113671
0.0112974
0.0112238
0.0111459
0.0110628
0.0109747
0.0108791
0.0107807
0.010668
0.0105692
0.0104197
0.0125145
0.0129002
0.0126353
0.0125595
0.0125052
0.0124478
0.0123963
0.0123472
0.0122996
0.0122529
0.0122058
0.0121575
0.0121073
0.0120558
0.012004
0.0119526
0.0119016
0.0118512
0.0118011
0.0117512
0.011701
0.0116505
0.0115989
0.0115461
0.0114913
0.0114341
0.0113736
0.0113095
0.0112403
0.0111665
0.0110849
0.0109995
0.0109004
0.0108079
0.0106867
0.012535
0.0129291
0.0126573
0.0125766
0.0125195
0.0124605
0.0124087
0.0123601
0.0123138
0.0122691
0.0122248
0.01218
0.0121342
0.0120875
0.0120411
0.0119955
0.011951
0.0119076
0.0118652
0.0118237
0.0117826
0.011742
0.011701
0.0116597
0.0116171
0.0115731
0.0115267
0.0114776
0.0114245
0.0113676
0.0113041
0.0112374
0.011157
0.0110827
0.0109696
0.0125539
0.0129578
0.0126799
0.0125957
0.0125368
0.0124765
0.0124239
0.0123752
0.0123294
0.0122857
0.0122432
0.012201
0.0121585
0.0121161
0.0120745
0.0120343
0.011996
0.0119594
0.0119245
0.0118912
0.0118588
0.0118279
0.0117971
0.011767
0.0117361
0.0117049
0.011672
0.0116372
0.0115993
0.0115584
0.0115113
0.0114621
0.0113971
0.0113433
0.0112303
0.0125704
0.0129824
0.0126999
0.0126121
0.0125509
0.0124891
0.0124361
0.0123877
0.012343
0.0123013
0.0122612
0.0122222
0.0121835
0.0121452
0.0121084
0.0120737
0.0120413
0.0120114
0.0119836
0.0119583
0.0119345
0.011913
0.0118924
0.0118732
0.0118546
0.0118361
0.0118173
0.0117978
0.0117762
0.0117531
0.0117254
0.0116973
0.011658
0.0116295
0.0115653
0.0125866
0.0130057
0.0127199
0.0126297
0.0125672
0.0125046
0.012451
0.0124027
0.0123583
0.0123175
0.0122792
0.0122426
0.012207
0.0121724
0.0121398
0.0121101
0.0120834
0.0120598
0.0120391
0.0120214
0.0120061
0.0119935
0.011983
0.0119745
0.0119674
0.0119617
0.0119564
0.0119514
0.0119455
0.0119388
0.0119289
0.0119182
0.0118998
0.0118856
0.0118545
0.0126004
0.0130266
0.0127371
0.012644
0.0125799
0.0125165
0.012463
0.0124153
0.012372
0.0123327
0.0122964
0.0122624
0.01223
0.0121991
0.0121707
0.0121456
0.0121242
0.0121065
0.0120923
0.0120818
0.0120745
0.0120706
0.0120696
0.0120715
0.012076
0.0120827
0.012091
0.0121009
0.012111
0.0121216
0.0121307
0.0121398
0.0121432
0.0121501
0.0121394
0.0126129
0.0130469
0.0127541
0.0126593
0.0125944
0.0125307
0.0124769
0.0124292
0.0123864
0.0123481
0.0123132
0.0122813
0.0122515
0.0122239
0.0121993
0.0121787
0.0121621
0.01215
0.012142
0.0121384
0.0121386
0.0121431
0.0121512
0.0121631
0.0121785
0.0121971
0.0122184
0.0122422
0.0122677
0.0122949
0.0123216
0.0123497
0.0123719
0.0124008
0.0124014
0.0126239
0.0130652
0.0127695
0.0126723
0.0126059
0.0125415
0.0124877
0.0124404
0.0123985
0.0123617
0.0123286
0.0122989
0.0122719
0.0122475
0.0122266
0.0122101
0.0121981
0.0121911
0.0121889
0.0121916
0.012199
0.0122113
0.0122281
0.0122496
0.0122755
0.0123057
0.0123397
0.0123775
0.0124184
0.0124624
0.012508
0.0125567
0.0126034
0.0126575
0.0126974
0.0126341
0.0130809
0.0127837
0.0126852
0.0126183
0.0125537
0.0124999
0.0124528
0.0124114
0.0123753
0.0123436
0.0123158
0.0122912
0.0122694
0.0122516
0.0122387
0.0122312
0.0122291
0.0122323
0.0122411
0.0122552
0.0122749
0.0122999
0.0123303
0.0123661
0.0124071
0.0124531
0.0125041
0.0125594
0.012619
0.0126819
0.0127487
0.0128165
0.0128892
0.0129591
0.0126434
0.0130949
0.0127961
0.0126959
0.0126282
0.0125633
0.0125097
0.0124631
0.0124225
0.0123875
0.0123572
0.0123314
0.0123091
0.0122897
0.0122747
0.0122652
0.0122615
0.0122638
0.012272
0.0122862
0.0123065
0.0123328
0.0123653
0.0124041
0.0124491
0.0125003
0.0125576
0.0126211
0.0126902
0.012765
0.0128448
0.0129299
0.0130187
0.0131124
0.0132084
0.0126511
0.013108
0.0128074
0.0127062
0.0126382
0.0125733
0.0125199
0.0124736
0.0124334
0.0123992
0.01237
0.0123455
0.0123249
0.0123079
0.0122956
0.0122891
0.0122889
0.0122951
0.0123078
0.012327
0.0123528
0.0123854
0.0124248
0.0124712
0.0125246
0.0125852
0.0126529
0.0127278
0.0128096
0.0128983
0.0129935
0.0130953
0.0132026
0.0133166
0.0134341
0.0126578
0.0131195
0.0128169
0.0127147
0.0126461
0.0125812
0.012528
0.0124821
0.0124426
0.0124092
0.0123812
0.012358
0.0123391
0.0123242
0.0123143
0.0123105
0.0123133
0.0123229
0.0123394
0.0123629
0.0123936
0.0124317
0.0124772
0.0125305
0.0125915
0.0126606
0.0127376
0.0128229
0.0129162
0.0130178
0.0131271
0.0132446
0.0133684
0.0135015
0.0136344
0.0126633
0.0131298
0.0128261
0.0127228
0.0126536
0.0125885
0.0125355
0.0124897
0.0124506
0.012418
0.0123908
0.0123688
0.0123512
0.0123382
0.0123304
0.012329
0.0123345
0.0123471
0.0123669
0.0123944
0.0124293
0.0124723
0.0125232
0.0125824
0.0126502
0.0127266
0.012812
0.0129065
0.0130101
0.0131231
0.0132453
0.0133772
0.0135176
0.0136691
0.0138261
0.012668
0.0131375
0.012833
0.012729
0.0126596
0.0125945
0.0125415
0.0124961
0.0124574
0.0124253
0.012399
0.0123781
0.012362
0.0123503
0.012344
0.0123444
0.0123521
0.0123673
0.0123901
0.0124208
0.0124594
0.0125064
0.0125619
0.0126262
0.0126996
0.0127824
0.0128748
0.0129772
0.0130896
0.0132124
0.0133456
0.0134895
0.0136437
0.0138093
0.0139843
0.012672
0.0131439
0.0128389
0.0127343
0.0126646
0.0125996
0.0125467
0.0125015
0.0124631
0.0124315
0.0124057
0.0123858
0.0123708
0.01236
0.0123548
0.0123567
0.0123663
0.0123836
0.0124088
0.0124421
0.0124838
0.012534
0.0125932
0.0126616
0.0127396
0.0128276
0.0129258
0.0130346
0.0131543
0.0132852
0.0134274
0.0135815
0.0137473
0.0139254
0.0141152
0.012675
0.0131487
0.0128432
0.0127381
0.0126684
0.0126033
0.0125506
0.0125056
0.0124675
0.0124361
0.0124109
0.0123915
0.0123773
0.0123675
0.0123632
0.0123662
0.0123771
0.012396
0.0124229
0.0124582
0.0125021
0.0125548
0.0126168
0.0126883
0.0127698
0.0128617
0.0129643
0.013078
0.0132032
0.0133403
0.0134895
0.0136512
0.0138257
0.0140133
0.0142139
0.0126769
0.0131522
0.0128461
0.0127408
0.0126709
0.012606
0.0125534
0.0125084
0.0124705
0.0124394
0.0124145
0.0123953
0.0123814
0.0123722
0.0123688
0.0123727
0.0123845
0.0124043
0.0124323
0.0124689
0.0125142
0.0125687
0.0126325
0.0127062
0.0127901
0.0128846
0.0129902
0.0131073
0.0132362
0.0133775
0.0135314
0.0136984
0.0138788
0.0140731
0.0142811
0.012678
0.0131543
0.0128476
0.0127422
0.0126723
0.0126074
0.0125548
0.0125099
0.0124721
0.0124411
0.0124163
0.0123972
0.0123834
0.0123746
0.0123717
0.0123761
0.0123882
0.0124085
0.0124371
0.0124742
0.0125203
0.0125756
0.0126404
0.0127151
0.0128002
0.0128961
0.0130032
0.013122
0.0132528
0.0133961
0.0135524
0.0137221
0.0139054
0.014103
0.0143148
0.0124695
0.0128308
0.0125849
0.0125205
0.012473
0.0124199
0.0123705
0.0123213
0.0122718
0.0122215
0.012169
0.0121134
0.0120544
0.0119928
0.0119296
0.0118655
0.0118007
0.0117352
0.0116688
0.0116016
0.0115326
0.0114622
0.011389
0.0113137
0.0112344
0.0111516
0.0110641
0.0109714
0.0108727
0.0107675
0.0106542
0.0105341
0.010398
0.010266
0.0100678
0.0124946
0.0128647
0.0126101
0.0125392
0.0124877
0.012432
0.0123815
0.0123326
0.0122848
0.0122371
0.0121882
0.0121371
0.0120831
0.0120271
0.0119699
0.0119123
0.0118545
0.0117967
0.0117384
0.01168
0.0116204
0.0115602
0.0114978
0.011434
0.0113671
0.0112974
0.0112238
0.011146
0.0110628
0.0109747
0.0108791
0.0107807
0.010668
0.0105693
0.0104199
0.0125183
0.0128962
0.012635
0.0125595
0.0125054
0.0124479
0.0123964
0.0123472
0.0122996
0.0122528
0.0122058
0.0121574
0.0121073
0.0120558
0.012004
0.0119526
0.0119016
0.0118512
0.011801
0.0117512
0.011701
0.0116505
0.0115989
0.0115461
0.0114913
0.0114341
0.0113736
0.0113095
0.0112404
0.0111665
0.0110849
0.0109995
0.0109004
0.0108079
0.0106868
0.0125389
0.012925
0.012657
0.0125766
0.0125196
0.0124605
0.0124087
0.0123601
0.0123138
0.0122691
0.0122248
0.01218
0.0121341
0.0120875
0.0120411
0.0119955
0.011951
0.0119076
0.0118652
0.0118237
0.0117826
0.011742
0.011701
0.0116597
0.0116171
0.0115731
0.0115267
0.0114776
0.0114245
0.0113676
0.0113041
0.0112374
0.011157
0.0110827
0.0109696
0.012558
0.0129536
0.0126796
0.0125958
0.0125369
0.0124765
0.0124239
0.0123752
0.0123293
0.0122857
0.0122432
0.012201
0.0121585
0.0121161
0.0120745
0.0120343
0.011996
0.0119594
0.0119245
0.0118912
0.0118588
0.0118279
0.0117971
0.011767
0.0117361
0.0117049
0.011672
0.0116372
0.0115993
0.0115584
0.0115113
0.0114621
0.0113971
0.0113432
0.0112302
0.0125745
0.0129781
0.0126996
0.0126122
0.012551
0.0124892
0.0124361
0.0123877
0.012343
0.0123012
0.0122612
0.0122221
0.0121834
0.0121452
0.0121084
0.0120737
0.0120413
0.0120114
0.0119835
0.0119583
0.0119345
0.0119129
0.0118924
0.0118732
0.0118546
0.0118361
0.0118173
0.0117978
0.0117762
0.0117531
0.0117254
0.0116973
0.0116581
0.0116295
0.0115654
0.0125907
0.0130013
0.0127196
0.0126298
0.0125673
0.0125047
0.0124511
0.0124027
0.0123583
0.0123175
0.0122791
0.0122426
0.012207
0.0121724
0.0121399
0.0121101
0.0120834
0.0120598
0.0120391
0.0120214
0.0120061
0.0119935
0.0119829
0.0119744
0.0119674
0.0119617
0.0119564
0.0119514
0.0119455
0.0119388
0.0119289
0.0119182
0.0118998
0.0118856
0.0118546
0.0126046
0.0130222
0.0127368
0.012644
0.01258
0.0125166
0.012463
0.0124153
0.012372
0.0123327
0.0122963
0.0122624
0.01223
0.0121991
0.0121707
0.0121456
0.0121242
0.0121065
0.0120923
0.0120818
0.0120744
0.0120705
0.0120696
0.0120715
0.012076
0.0120827
0.012091
0.0121008
0.012111
0.0121216
0.0121307
0.0121398
0.0121431
0.0121501
0.0121395
0.0126172
0.0130425
0.0127538
0.0126593
0.0125945
0.0125307
0.012477
0.0124292
0.0123864
0.0123481
0.0123132
0.0122812
0.0122515
0.0122239
0.0121993
0.0121787
0.0121621
0.01215
0.0121419
0.0121384
0.0121385
0.0121431
0.0121511
0.0121631
0.0121785
0.012197
0.0122184
0.0122422
0.0122677
0.0122948
0.0123215
0.0123497
0.0123719
0.0124007
0.0124014
0.0126283
0.0130606
0.0127692
0.0126723
0.012606
0.0125415
0.0124877
0.0124404
0.0123985
0.0123616
0.0123286
0.0122989
0.0122718
0.0122475
0.0122266
0.0122101
0.0121981
0.0121911
0.0121889
0.0121916
0.012199
0.0122113
0.0122281
0.0122496
0.0122754
0.0123056
0.0123397
0.0123775
0.0124184
0.0124624
0.012508
0.0125567
0.0126034
0.0126575
0.0126974
0.0126385
0.0130763
0.0127834
0.0126853
0.0126185
0.0125538
0.0125
0.0124528
0.0124114
0.0123753
0.0123436
0.0123158
0.0122911
0.0122694
0.0122516
0.0122387
0.0122312
0.0122291
0.0122323
0.0122411
0.0122552
0.0122748
0.0122998
0.0123303
0.0123661
0.0124071
0.0124531
0.0125041
0.0125593
0.012619
0.0126818
0.0127487
0.0128165
0.0128892
0.0129591
0.0126479
0.0130903
0.0127957
0.0126959
0.0126283
0.0125634
0.0125097
0.0124631
0.0124225
0.0123875
0.0123572
0.0123314
0.0123091
0.0122897
0.0122747
0.0122652
0.0122615
0.0122638
0.012272
0.0122862
0.0123064
0.0123328
0.0123653
0.012404
0.012449
0.0125003
0.0125576
0.012621
0.0126902
0.012765
0.0128448
0.0129299
0.0130187
0.0131124
0.0132084
0.0126556
0.0131033
0.012807
0.0127063
0.0126383
0.0125734
0.0125199
0.0124736
0.0124334
0.0123992
0.01237
0.0123455
0.0123249
0.0123079
0.0122956
0.0122891
0.0122889
0.0122951
0.0123078
0.012327
0.0123528
0.0123853
0.0124247
0.0124712
0.0125246
0.0125852
0.0126529
0.0127277
0.0128095
0.0128982
0.0129934
0.0130953
0.0132026
0.0133166
0.0134341
0.0126624
0.0131148
0.0128166
0.0127147
0.0126462
0.0125813
0.012528
0.0124821
0.0124426
0.0124092
0.0123811
0.0123579
0.0123391
0.0123242
0.0123143
0.0123105
0.0123133
0.0123229
0.0123393
0.0123629
0.0123936
0.0124317
0.0124772
0.0125305
0.0125914
0.0126605
0.0127376
0.0128229
0.0129162
0.0130177
0.013127
0.0132445
0.0133683
0.0135015
0.0136344
0.0126679
0.013125
0.0128258
0.0127228
0.0126537
0.0125886
0.0125355
0.0124897
0.0124506
0.012418
0.0123908
0.0123687
0.0123512
0.0123381
0.0123304
0.012329
0.0123345
0.0123471
0.0123669
0.0123943
0.0124293
0.0124722
0.0125231
0.0125824
0.0126501
0.0127266
0.0128119
0.0129064
0.01301
0.0131231
0.0132452
0.0133771
0.0135176
0.0136691
0.013826
0.0126727
0.0131327
0.0128327
0.012729
0.0126597
0.0125946
0.0125416
0.0124961
0.0124574
0.0124253
0.012399
0.0123781
0.012362
0.0123503
0.012344
0.0123444
0.0123521
0.0123673
0.0123901
0.0124207
0.0124594
0.0125063
0.0125618
0.0126261
0.0126995
0.0127823
0.0128748
0.0129771
0.0130896
0.0132124
0.0133455
0.0134894
0.0136436
0.0138092
0.0139843
0.0126767
0.0131391
0.0128386
0.0127343
0.0126647
0.0125996
0.0125467
0.0125015
0.0124631
0.0124314
0.0124057
0.0123857
0.0123707
0.01236
0.0123548
0.0123567
0.0123663
0.0123836
0.0124088
0.0124421
0.0124837
0.012534
0.0125931
0.0126616
0.0127396
0.0128275
0.0129257
0.0130345
0.0131542
0.0132851
0.0134274
0.0135815
0.0137472
0.0139254
0.0141152
0.0126797
0.0131439
0.0128428
0.0127382
0.0126685
0.0126034
0.0125506
0.0125056
0.0124674
0.0124361
0.0124108
0.0123915
0.0123773
0.0123674
0.0123632
0.0123662
0.0123771
0.0123959
0.0124229
0.0124582
0.012502
0.0125548
0.0126167
0.0126883
0.0127698
0.0128617
0.0129642
0.013078
0.0132032
0.0133402
0.0134894
0.0136512
0.0138256
0.0140133
0.0142139
0.0126816
0.0131474
0.0128457
0.0127408
0.012671
0.012606
0.0125534
0.0125084
0.0124705
0.0124394
0.0124144
0.0123953
0.0123814
0.0123722
0.0123688
0.0123727
0.0123845
0.0124043
0.0124323
0.0124689
0.0125142
0.0125686
0.0126325
0.0127061
0.01279
0.0128846
0.0129902
0.0131072
0.0132362
0.0133774
0.0135313
0.0136983
0.0138787
0.014073
0.014281
0.0126827
0.0131495
0.0128472
0.0127422
0.0126724
0.0126074
0.0125548
0.0125099
0.012472
0.0124411
0.0124163
0.0123972
0.0123834
0.0123746
0.0123717
0.0123761
0.0123882
0.0124085
0.012437
0.0124742
0.0125203
0.0125755
0.0126403
0.0127151
0.0128002
0.0128961
0.0130032
0.0131219
0.0132527
0.0133961
0.0135524
0.013722
0.0139053
0.014103
0.0143147
0.0124741
0.0128261
0.0125846
0.0125205
0.0124731
0.01242
0.0123705
0.0123213
0.0122718
0.0122215
0.012169
0.0121134
0.0120544
0.0119928
0.0119296
0.0118655
0.0118007
0.0117352
0.0116688
0.0116016
0.0115326
0.0114622
0.011389
0.0113136
0.0112345
0.0111516
0.0110641
0.0109714
0.0108727
0.0107675
0.0106543
0.0105341
0.010398
0.0102659
0.0100673
0.0124993
0.0128598
0.0126098
0.0125392
0.0124878
0.0124321
0.0123815
0.0123327
0.0122848
0.0122371
0.0121882
0.012137
0.0120831
0.0120271
0.0119699
0.0119123
0.0118545
0.0117967
0.0117384
0.01168
0.0116204
0.0115602
0.0114978
0.0114339
0.0113672
0.0112974
0.0112238
0.011146
0.0110628
0.0109747
0.0108792
0.0107807
0.010668
0.0105692
0.01042
0.0125231
0.0128913
0.0126347
0.0125595
0.0125054
0.012448
0.0123964
0.0123472
0.0122996
0.0122528
0.0122057
0.0121574
0.0121073
0.0120558
0.012004
0.0119526
0.0119016
0.0118512
0.011801
0.0117512
0.011701
0.0116505
0.0115989
0.0115461
0.0114913
0.0114341
0.0113736
0.0113095
0.0112404
0.0111665
0.0110849
0.0109995
0.0109004
0.010808
0.0106869
0.0125438
0.01292
0.0126566
0.0125766
0.0125197
0.0124606
0.0124087
0.0123601
0.0123138
0.0122691
0.0122248
0.01218
0.0121341
0.0120875
0.0120411
0.0119955
0.011951
0.0119076
0.0118652
0.0118237
0.0117826
0.0117419
0.011701
0.0116597
0.0116171
0.0115731
0.0115267
0.0114776
0.0114245
0.0113676
0.0113041
0.0112374
0.011157
0.0110827
0.0109695
0.012563
0.0129484
0.0126792
0.0125957
0.0125369
0.0124766
0.0124239
0.0123752
0.0123293
0.0122857
0.0122431
0.012201
0.0121585
0.0121161
0.0120744
0.0120343
0.011996
0.0119595
0.0119245
0.0118912
0.0118588
0.0118279
0.0117971
0.011767