/*--------------------------------*- C++ -*----------------------------------*\
  =========                 |
  \\      /  F ield         | OpenFOAM: The Open Source CFD Toolbox
   \\    /   O peration     | Website:  https://openfoam.org
    \\  /    A nd           | Version:  6
     \\/     M anipulation  |
\*---------------------------------------------------------------------------*/
FoamFile
{
    version     2.0;
    format      ascii;
    class       volScalarField;
    location    "43";
    object      yPlus;
}
// * * * * * * * * * * * * * * * * * * * * * * * * * * * * * * * * * * * * * //

dimensions      [0 0 0 0 0 0 0];

internalField   uniform 0;

boundaryField
{
    inlet
    {
        type            calculated;
        value           uniform 0;
    }
    outlet
    {
        type            calculated;
        value           uniform 0;
    }
    roughCylinder
    {
        type            calculated;
        value           nonuniform List<scalar> 
5120
(
15.977
24.8224
36.2745
39.9543
43.0079
44.3175
45.2108
45.4423
45.6615
45.7716
45.8762
45.7269
45.5774
45.4135
45.2617
45.0624
44.6988
43.9315
43.571
43.0072
42.806
42.8996
43.6688
42.4641
43.5833
42.5938
42.442
41.7678
41.0907
40.61
40.1535
39.8235
13.0799
24.2648
36.0203
39.7721
42.8229
44.1711
45.0604
45.3594
45.6626
45.7874
45.8673
45.6664
45.5334
45.5975
45.5214
45.2539
44.9635
44.3521
43.9899
43.3068
43.1549
43.1391
43.6657
42.6421
43.8594
42.8132
42.7891
42.2532
41.6789
41.2867
40.9322
40.6671
17.7019
24.506
35.6356
39.5709
42.6657
44.113
45.0632
45.3835
45.7027
45.8777
45.9424
45.7523
45.5784
45.4196
45.3504
45.2679
45.0079
44.5112
44.1512
43.4785
43.5379
43.5115
43.9569
43.2273
44.5232
43.4744
43.4311
42.8441
42.2783
41.8249
41.4416
41.1471
17.8088
23.8184
35.3328
39.4291
42.5467
44.0748
45.0767
45.4916
45.8666
46.0135
46.0698
45.8278
45.7185
45.789
45.7707
45.602
45.4162
45.0568
44.6838
44.0105
44.133
43.9242
44.2114
43.5847
44.8643
43.769
43.8097
43.3317
42.8558
42.5068
42.2216
41.9995
8.23559
23.636
34.8591
39.2091
42.4547
44.1166
45.1781
45.6194
46.0271
46.2283
46.252
46.0881
45.9133
45.7931
45.7934
45.7752
45.6206
45.3081
44.9017
44.3035
44.5712
44.3161
44.6203
44.2281
45.5257
44.5297
44.5662
44.0578
43.6028
43.2042
42.8723
42.6112
10.9404
23.1173
34.4131
38.9992
42.3008
44.0713
45.2423
45.8172
46.2569
46.4107
46.4702
46.2509
46.1961
46.2922
46.2897
46.1682
46.0693
45.8619
45.4953
44.9912
45.2891
44.9132
45.1422
44.7721
45.9267
44.9122
44.9806
44.5441
44.1626
43.8702
43.6253
43.4425
11.9205
22.9206
33.828
38.6924
42.1766
44.104
45.3295
45.9325
46.4403
46.6851
46.7181
46.6198
46.4805
46.4027
46.4458
46.4573
46.3832
46.1782
45.7823
45.3654
45.7133
45.3388
45.6206
45.4176
46.5459
45.7099
45.7932
45.3634
45.0207
44.6937
44.3975
44.1698
11.532
22.237
33.1496
38.2754
41.8602
43.947
45.3494
46.1337
46.6686
46.8721
46.9719
46.8343
46.862
46.9787
46.9508
46.8469
46.8021
46.6706
46.3714
46.0928
46.455
46.0825
46.3341
46.1138
47.0279
46.1805
46.2475
45.8507
45.56
45.3239
45.1011
44.9528
16.7004
22.148
32.4004
37.7817
41.6058
43.8814
45.3478
46.1795
46.8312
47.158
47.2705
47.2593
47.1846
47.1451
47.2107
47.2351
47.2038
47.0589
46.7379
46.52
46.8629
46.5406
46.8234
46.7123
47.5919
46.96
47.0678
46.7252
46.4954
46.2432
45.9788
45.7867
18.6027
21.442
31.4567
37.088
41.0672
43.5774
45.2915
46.3335
47.0087
47.3329
47.5085
47.507
47.6317
47.757
47.695
47.5958
47.5709
47.4724
47.279
47.206
47.5809
47.3621
47.6343
47.5142
48.1762
47.5264
47.5744
47.226
47.0201
46.8304
46.6236
46.5045
25.1943
21.8736
30.5043
36.2904
40.5599
43.3048
45.1256
46.2701
47.1294
47.5811
47.8439
47.9328
47.9382
47.9403
48.0367
48.0742
48.0555
47.9526
47.7453
47.6921
48.0092
47.8422
48.0924
48.0359
48.6713
48.2364
48.3495
48.1048
47.9812
47.7957
47.5683
47.4127
29.2954
22.0487
29.4019
35.3121
39.7933
42.8559
44.9789
46.3277
47.1973
47.7209
48.0086
48.1867
48.416
48.5481
48.4672
48.3798
48.3658
48.2953
48.218
48.2934
48.6737
48.6564
48.9099
48.8803
49.3413
48.8915
48.9057
48.615
48.4791
48.321
48.1316
48.0376
35.4431
23.3711
28.3619
34.1431
38.8441
42.1878
44.519
46.0965
47.2425
47.8674
48.3393
48.5387
48.6394
48.7111
48.8676
48.9288
48.9164
48.8651
48.7876
48.848
49.1496
49.1355
49.3066
49.2982
49.735
49.4733
49.5686
49.4285
49.3971
49.2683
49.0899
48.9707
40.1687
24.7983
27.3549
32.8886
37.8196
41.555
44.2106
45.9495
47.1087
47.9191
48.3638
48.7566
49.103
49.262
49.194
49.1422
49.1594
49.1377
49.1672
49.327
49.7131
49.8498
50.0514
50.1179
50.4437
50.192
50.1599
49.9325
49.8436
49.7054
49.5358
49.4625
45.1163
27.1027
26.6499
31.3732
36.2111
40.2067
43.2583
45.4592
47.0073
47.8855
48.6173
48.9384
49.1616
49.3585
49.6203
49.7287
49.7367
49.7582
49.809
49.9417
50.2364
50.306
50.3707
50.4046
50.6905
50.5701
50.6214
50.5801
50.6216
50.5402
50.4265
50.344
48.1286
29.12
26.0585
29.8803
34.8596
39.2244
42.5558
44.8467
46.5046
47.743
48.439
49.0921
49.5639
49.7714
49.76
49.7859
49.8752
49.9311
50.0497
50.2413
50.6156
50.8128
50.9538
51.1141
51.3591
51.3018
51.2283
51.069
51.0057
50.8837
50.7357
50.6787
51.443
31.6641
25.9769
28.1994
32.4644
36.8787
40.835
43.9548
46.0786
47.3926
48.4916
48.997
49.3968
49.7871
50.1812
50.3496
50.4071
50.517
50.6787
50.8657
51.1552
51.24
51.2171
51.2824
51.461
51.4409
51.4321
51.4691
51.5661
51.5284
51.4943
51.451
52.5698
33.8247
26.0604
26.5537
30.6023
35.1698
39.1836
42.2949
44.9004
46.8251
47.9981
49.0556
49.7144
49.9867
50.0758
50.226
50.4181
50.5738
50.7661
50.9661
51.2967
51.4756
51.5792
51.8239
52.0353
52.1403
52.0421
51.9417
51.8802
51.7625
51.6277
51.5829
52.6968
35.6244
26.6204
24.9638
27.6073
31.6197
36.3757
40.7594
43.6947
45.8516
47.5462
48.4361
49.2063
49.9216
50.5019
50.7396
50.8696
51.0729
51.3334
51.5664
51.8285
51.8869
51.8131
51.862
51.9276
51.9067
51.8275
51.9043
52.0333
52.0321
52.0939
52.0915
51.2213
36.5499
27.0816
23.3229
24.5046
28.1504
32.4399
36.6897
41.2591
44.3531
46.5147
48.2501
49.2353
49.6735
49.9445
50.3147
50.6634
50.9296
51.1615
51.3328
51.5652
51.6761
51.7699
52.0478
52.2478
52.4603
52.3786
52.3181
52.2369
52.106
51.9458
51.8972
48.5013
36.6785
27.3727
21.6453
21.4466
23.3969
28.0569
34.041
37.9304
42.0562
44.8091
46.5865
48.1288
49.4278
50.3089
50.6489
50.8741
51.1713
51.5121
51.7829
52.0002
52.0428
51.9745
51.9116
51.8029
51.5538
51.3344
51.329
51.422
51.3994
51.5662
51.5954
45.1658
36.0434
27.4682
19.9431
14.4402
12.106
14.0872
21.4481
32.9233
38.1746
42.8596
45.7502
47.3116
48.0983
48.7827
49.5954
50.2256
50.638
50.8518
50.9057
50.9345
50.9119
50.9696
51.122
51.266
51.4802
51.4703
51.4152
51.2773
51.0759
50.7856
50.6911
41.5348
34.9798
26.9059
17.4843
12.0475
9.79361
12.8296
8.53909
17.2277
32.6598
37.6193
41.9401
45.1269
47.5128
48.8107
49.2733
49.6278
50.0224
50.4229
50.6967
50.8688
50.9481
50.9437
50.5949
50.1045
49.0733
48.4479
47.9872
47.7659
47.4799
47.7251
47.7255
37.0747
33.8313
26.9969
16.2754
13.3012
5.40098
7.86103
6.99601
10.1128
18.8871
34.7487
39.2141
41.8965
43.3031
45.0663
46.8701
48.075
48.7116
48.7564
48.4473
48.0107
47.6196
47.3794
46.8796
46.7044
46.8546
47.0322
46.8876
46.6254
46.1948
45.3738
45.0391
28.7808
31.7075
26.4049
15.0879
8.27476
12.8766
9.76847
7.90081
6.24633
4.8315
15.9348
29.9267
37.0485
42.2479
43.9571
44.3754
44.857
45.3215
45.7446
45.9191
46.0895
46.3419
46.4142
45.4534
43.9205
39.4539
36.4179
32.7265
28.2934
23.4779
20.9898
18.4127
17.2986
28.4799
26.3328
14.5078
2.99893
9.2044
14.195
8.88793
10.8363
8.61461
14.0004
16.7085
16.0995
19.8957
31.2812
38.0412
41.1728
42.3968
41.7297
40.0087
37.5329
34.3003
30.8252
23.3116
14.2743
19.5424
13.4922
20.9565
16.3501
14.2279
14.7876
18.8316
11.4918
22.915
25.7024
18.438
9.262
13.2075
17.6624
19.0622
18.736
16.6499
8.31682
11.8524
15.1231
15.3525
13.5056
19.071
13.5196
16.2252
16.0627
11.5238
20.535
10.373
11.8259
13.4093
11.645
19.8281
14.2807
14.9908
13.2766
5.94631
14.4496
18.3339
11.0804
17.3191
22.0101
19.9534
13.7866
12.9073
18.6149
23.1357
25.2872
25.9718
24.3953
18.2388
9.14475
15.478
3.46279
15.335
10.1543
10.156
11.7377
16.4456
11.8896
17.8735
15.3746
16.1149
17.466
19.0779
11.9783
16.7823
20.0424
22.353
23.6785
24.7397
11.4236
16.7033
19.0866
19.3021
16.3886
14.0145
16.77
21.459
25.0659
26.6408
25.3774
22.1727
19.0949
14.9516
9.32265
14.704
8.00508
18.0269
10.094
19.1888
11.2233
16.7477
20.0245
22.9749
25.5015
26.221
27.1485
27.6915
28.1588
28.6318
29.1058
29.3713
11.3423
17.5628
19.1467
19.8638
18.817
16.9335
17.1656
19.9078
22.8088
24.0925
24.056
24.1029
23.5102
23.1997
23.6329
23.4076
23.0767
23.3843
24.2874
26.2929
27.4984
28.5626
29.4539
30.2496
30.6174
31.1852
31.0713
31.1833
31.2954
31.4458
31.6756
31.7757
10.6636
17.0811
19.2417
20.7276
20.9212
20.054
19.5548
20.4597
22.0128
23.4893
24.9797
25.8585
25.7577
25.9023
26.6822
27.4113
28.0564
28.774
29.6701
30.6333
31.5618
32.4494
33.1806
33.6983
33.5798
33.7305
32.9452
32.3872
31.904
31.6256
31.5686
31.4853
7.38401
15.003
18.1031
20.4896
21.8355
22.206
22.3288
23.013
24.2181
25.5569
26.4757
26.4315
25.8389
26.3393
27.9584
29.4152
30.4914
31.4011
32.2693
33.0242
33.6012
34.1649
34.5461
34.5318
33.8915
33.6372
32.4228
31.3554
30.5088
30.046
29.935
29.8435
4.78174
13.1565
16.6864
19.6072
21.8316
23.3334
24.4517
25.5145
26.503
27.2591
27.3038
26.3911
25.1711
25.3128
27.0455
28.9442
30.4022
31.4561
32.2088
32.6806
32.9598
33.2402
33.3399
33.0329
32.2869
32.0051
30.9362
29.8953
29.1756
28.8805
28.9273
28.9552
3.76697
12.4172
15.9942
19.0883
21.7693
23.9142
25.5789
26.8153
27.6431
27.9655
27.627
26.5491
25.2087
24.7823
25.6399
27.136
28.5528
29.59
30.2523
30.635
30.8956
31.1653
31.2714
31.0613
30.5432
30.3963
29.6817
28.8193
28.193
27.9399
28.0049
28.0784
3.67847
12.3335
15.9439
19.0502
21.8321
24.1317
25.8986
27.1492
27.849
27.9583
27.428
26.2733
24.8796
24.1166
24.31
25.2452
26.4401
27.4816
28.2647
28.8394
29.2799
29.608
29.6682
29.3193
28.516
28.1682
27.6688
27.1328
26.7866
26.7788
27.047
27.2877
3.79103
12.42
16.0643
19.0922
21.765
23.9924
25.7192
26.9325
27.5676
27.5754
26.8825
25.4598
23.6026
22.0676
21.6841
22.6712
24.1645
25.5189
26.6173
27.485
28.1426
28.5471
28.5295
27.9378
26.8693
26.1765
25.9651
25.9505
26.0492
26.3845
26.8965
27.3004
3.86324
12.446
16.079
18.9883
21.4975
23.6087
25.2957
26.4789
27.0682
26.9702
26.0617
24.262
21.7493
19.2417
18.5168
20.0838
22.2657
24.2376
25.9108
27.3017
28.3884
29.0748
29.1906
28.5698
27.2032
25.7395
25.242
25.5158
26.0227
26.7286
27.5113
28.0554
3.98108
12.5709
16.1479
18.9065
21.2575
23.2583
24.8766
25.985
26.4697
26.203
25.0222
22.7778
19.4505
16.1351
16.5808
19.6151
22.5798
25.1096
27.2755
29.0955
30.5214
31.4387
31.6732
31.031
29.4185
27.2011
25.864
25.9825
26.7621
27.8497
28.9343
29.6029
4.03608
12.6185
16.1241
18.7289
20.9431
22.8409
24.3452
25.3272
25.6581
25.1842
23.6969
20.9259
16.5403
14.0495
17.456
21.4845
24.7946
27.6218
30.0786
32.1719
33.8387
34.9499
35.3117
34.6883
32.9156
30.2185
27.9846
27.5702
28.4542
29.9102
31.3026
32.075
4.13674
12.8617
16.3346
18.8137
20.8888
22.6447
23.9744
24.7577
24.8556
24.0814
22.1514
18.4884
13.2494
15.3025
20.4563
24.5808
28.0131
31.0213
33.6773
35.9726
37.8368
39.1307
39.6376
39.0799
37.2309
34.2392
31.3725
30.3418
31.1765
32.9167
34.5632
35.4115
4.03455
4.3161
4.55401
3.80251
4.35612
5.0715
5.47412
5.33391
4.97048
4.87759
4.20133
3.27367
1.3214
1.55786
0.267898
1.00888
1.00572
2.55834
1.16807
2.03458
1.32909
2.70312
0.176863
2.25293
1.96845
0.973614
0.932885
1.15627
0.624547
0.588628
1.25352
2.46209
3.35348
3.7571
3.76907
3.67656
3.62223
3.68827
3.84088
4.02388
13.5134
14.5699
15.1521
13.258
13.2727
13.3279
13.4023
13.0029
12.0983
11.7235
10.4746
8.46483
2.25549
2.98396
5.2965
5.15837
5.27537
3.92337
5.32332
6.15109
3.03551
4.45745
5.08171
3.24004
2.40824
3.03402
2.67577
3.88966
2.2298
3.14911
2.36866
6.74291
9.2602
10.6361
11.2512
11.4096
11.4802
11.7185
12.1732
12.6377
19.0369
19.6571
19.7615
17.629
17.0577
16.6284
16.2154
15.0425
13.4129
12.2854
8.9162
2.17112
2.60583
6.69195
3.26646
7.21154
8.04586
5.15791
9.37303
7.83826
7.68248
9.98011
10.4102
11.4804
10.2379
7.37203
5.42893
1.63987
4.02939
2.75952
3.14838
5.23789
9.34594
11.1158
12.1241
13.0851
13.8337
14.573
15.2662
15.9393
22.7084
22.6867
22.3609
20.1112
19.2407
18.4261
17.4268
14.9794
12.2061
8.42502
7.75192
2.44182
3.60922
8.70804
4.34273
6.94503
10.9236
12.7619
15.5846
17.4365
18.7041
19.2291
19.4675
19.1083
18.8081
18.1267
16.8726
14.8441
11.8882
4.49138
3.41977
2.46581
7.78851
10.9546
12.7225
14.2097
15.3433
16.3768
17.3066
18.2006
25.2741
24.6231
23.8907
21.5798
20.3828
18.8879
16.7902
12.1917
5.81444
5.39834
4.19437
5.20954
10.2715
11.6952
14.6577
18.175
20.5144
22.2937
23.4021
24.1386
24.5591
24.7355
24.6433
24.3234
23.6719
22.8064
21.6364
20.1679
18.2551
14.6687
9.85069
5.52827
2.22308
10.0888
12.8269
14.91
16.4197
17.7372
18.9179
20.0482
26.9428
25.7633
24.6556
22.2056
20.3992
17.7064
12.7321
9.23961
9.42386
2.63838
11.1656
14.9507
18.657
21.2349
23.2642
24.8555
26.1993
27.2518
28.0629
28.6138
28.9107
28.9676
28.7897
28.3514
27.6836
26.7577
25.5819
24.0835
22.2107
19.9541
16.8048
8.0615
2.73684
6.96872
11.9793
15.0672
17.072
18.7227
20.1873
21.576
27.8221
26.2199
24.6674
21.8391
18.9131
13.8668
4.56198
8.63756
13.0738
17.5819
20.4794
22.8325
24.7911
26.5461
28.0697
29.3847
30.4715
31.3344
31.9672
32.377
32.5649
32.541
32.3009
31.8325
31.1355
30.2175
29.0473
27.5944
25.8065
23.6241
20.9994
17.6893
9.1574
4.52269
9.92193
14.228
17.1219
19.2046
21.0031
22.6732
27.9259
25.9177
23.7076
20.0676
14.8842
10.4129
12.7466
17.4759
20.8257
23.3472
25.5356
27.4531
29.1496
30.6373
31.9343
33.0527
33.9953
34.7518
35.3125
35.6709
35.8233
35.7691
35.5035
35.0158
34.3133
33.3968
32.2527
30.8478
29.1469
27.1078
24.6718
21.7919
18.0151
10.5887
9.01831
11.2986
16.1782
18.9941
21.2173
23.2112
27.1436
24.5641
21.3274
16.29
11.7632
15.4542
19.7673
22.9262
25.4922
27.6703
29.5618
31.2343
32.7251
34.0526
35.2294
36.2633
37.148
37.8617
38.387
38.7143
38.8404
38.7642
38.4815
37.9862
37.2876
36.3884
35.2703
33.914
32.2978
30.3912
28.1419
25.4867
22.4057
18.2761
11.5878
4.59998
13.2306
17.6933
20.6093
23.0205
25.1847
21.7064
17.3773
14.061
17.3552
21.3935
24.5422
27.1391
29.3238
31.2198
32.902
34.4136
35.7838
37.0294
38.154
39.1514
40.0036
40.6887
41.1898
41.4971
41.6115
41.5272
41.2395
40.7491
40.0668
39.1926
38.1121
36.8135
35.2814
33.4938
31.4211
29.0137
26.1839
22.9316
18.7438
11.4681
7.15075
14.2813
18.7379
21.8309
21.7806
17.7543
15.8127
18.7501
22.6334
25.7615
28.3915
30.6063
32.5314
34.2366
35.7774
37.188
38.4945
39.7018
40.8001
41.7764
42.6095
43.2804
43.7698
44.0698
44.1867
44.1054
43.8237
43.3517
42.6949
41.8517
40.8122
39.5746
38.1273
36.4503
34.5187
32.3074
29.7814
26.8531
23.4873
19.414
12.4728
8.84067
14.3819
19.1579
18.1447
16.9315
19.891
23.5424
26.6738
29.3313
31.5935
33.5529
35.2903
36.8598
38.3066
39.6583
40.9298
42.118
43.204
44.1665
44.9837
45.6453
46.1229
46.4217
46.5555
46.486
46.2238
45.7892
45.1687
44.3636
43.3747
42.2034
40.8402
39.2714
37.4784
35.436
33.1196
30.5088
27.54
24.1568
20.229
14.7242
11.1229
13.7351
18.1632
20.5754
24.1975
27.2717
29.9982
32.3062
34.3214
36.093
37.6956
39.169
40.5546
41.8714
43.1276
44.3125
45.3921
46.3278
47.1056
47.7353
48.1773
48.4831
48.6677
48.6305
48.4215
48.0524
47.4773
46.7199
45.7918
44.692
43.4162
41.9535
40.2906
38.4092
36.2864
33.8994
31.2395
28.2797
24.9818
21.2835
16.9563
12.5462
21.3584
24.3829
27.6102
30.3347
32.7551
34.8245
36.6597
38.2952
39.7992
41.2048
42.5509
43.8583
45.1241
46.3089
47.3409
48.1518
48.7862
49.3437
49.7997
50.1213
50.3
50.3679
50.33
50.1016
49.6105
48.9202
48.055
47.0278
45.8423
44.4877
42.9528
41.2209
39.2737
37.093
34.6624
31.9843
29.0669
25.9157
22.5294
18.909
24.6344
27.4388
30.3895
32.8438
35.0535
36.9523
38.6587
40.1959
41.629
42.9911
44.3301
45.6522
46.9274
48.0697
48.894
49.6274
50.3977
51.0349
51.5183
51.85
52.0415
52.0979
52.0206
51.8206
51.5388
50.9644
50.1748
49.2177
48.1147
46.8656
45.4555
43.8683
42.0846
40.0862
37.8598
35.4012
32.7219
29.867
26.8713
23.8594
27.2998
29.8801
32.6153
34.8825
36.9476
38.7301
40.3485
41.8187
43.207
44.5577
45.9119
47.2531
48.5222
49.5397
50.2889
51.1538
51.9142
52.5218
53.0016
53.3411
53.5493
53.6391
53.6178
53.4903
53.246
52.869
52.1743
51.2876
50.2579
49.1004
47.8069
46.3551
44.7237
42.8924
40.8426
38.5691
36.0774
33.4076
30.5972
27.8219
29.3435
31.7608
34.3433
36.4952
38.4706
40.1845
41.7518
43.1853
44.5577
45.9181
47.2942
48.6574
49.9249
50.8457
51.6181
52.478
53.2377
53.867
54.3644
54.7224
54.9572
55.0838
55.1126
55.0487
54.8897
54.6653
54.0823
53.2755
52.317
51.2381
50.0417
48.7098
47.2135
45.5286
43.6333
41.5163
39.1729
36.6418
33.94
31.2704
30.8056
33.1084
35.6098
37.7048
39.6452
41.335
42.8883
44.314
45.6928
47.0712
48.4718
49.8638
51.1585
52.0841
52.8198
53.6625
54.431
55.069
55.5831
55.9711
56.2475
56.4281
56.5248
56.5458
56.49
56.394
55.9593
55.2434
54.3564
53.3466
52.2263
50.9862
49.5989
48.0332
46.2613
44.2689
42.0406
39.6115
36.9738
34.3559
31.7236
33.9528
36.4347
38.5267
40.4846
42.1943
43.7705
45.2168
46.6161
48.0146
49.4397
50.867
52.2225
53.2726
53.9471
54.7391
55.5225
56.1875
56.7363
57.1704
57.5048
57.756
57.9336
58.0469
58.1
58.1197
57.8688
57.2581
56.4462
55.497
54.4332
53.2535
51.9375
50.4519
48.7635
46.8542
44.6998
42.3336
39.7231
37.1188
32.1411
34.323
36.8297
38.9684
40.9919
42.7655
44.4024
45.8984
47.3329
48.7546
50.2034
51.6675
53.1027
54.3705
55.1059
55.7817
56.5714
57.2867
57.8931
58.3968
58.8109
59.1491
59.4213
59.6313
59.7889
59.9084
59.8751
59.3837
58.6469
57.7457
56.7138
55.5588
54.2686
52.8154
51.1596
49.2814
47.1494
44.7972
42.1709
39.5425
32.1055
34.2392
36.7954
39.0214
41.1545
43.0364
44.7742
46.3559
47.8513
49.3083
50.7852
52.2862
53.7887
55.2107
56.3301
56.9258
57.6433
58.4242
59.119
59.7178
60.232
60.6694
61.042
61.35
61.5972
61.7918
61.9787
61.6211
60.9553
60.0821
59.051
57.8811
56.5687
55.0928
53.4125
51.5065
49.338
46.9429
44.2508
41.5545
31.6394
33.688
36.2938
38.6378
40.9219
42.9612
44.8475
46.5613
48.1625
49.6858
51.206
52.7519
54.3174
55.8597
57.2732
58.2626
58.8376
59.6083
60.4101
61.1242
61.7512
62.2922
62.7593
63.1542
63.4738
63.7267
63.999
63.8358
63.2387
62.3693
61.3053
60.0801
58.6988
57.1465
55.3848
53.3909
51.1254
48.6283
45.8202
43.0106
30.6815
32.571
35.2001
37.6836
40.1606
42.4136
44.5078
46.414
48.1824
49.8324
51.4315
53.04
54.674
56.3112
57.8996
59.3148
60.1988
60.8102
61.6383
62.4699
63.2111
63.8491
64.3957
64.857
65.226
65.5085
65.7609
65.7826
65.2187
64.3193
63.188
61.8707
60.3799
58.7049
56.8094
54.672
52.255
49.6028
46.6364
43.6768
29.0381
30.6315
33.2278
35.8708
38.5934
41.1354
43.5159
45.6931
47.704
49.5615
51.3103
53.0145
54.7273
56.4477
58.1475
59.7676
61.1768
61.9745
62.6273
63.4785
64.3151
65.0349
65.639
66.1404
66.5317
66.8149
67.0407
67.0972
66.4991
65.5265
64.2934
62.8513
61.2164
59.3785
57.3029
54.9743
52.3615
49.5146
46.3658
43.242
26.5542
27.5378
29.9453
32.7429
35.7835
38.7231
41.5036
44.0626
46.4155
48.5735
50.5725
52.4538
54.276
56.0798
57.8587
59.5786
61.1803
62.5446
63.2839
63.9229
64.7265
65.4818
66.1094
66.6161
66.9974
67.2526
67.4597
67.3578
66.6449
65.5528
64.1854
62.5901
60.7803
58.7444
56.4523
53.8988
51.0654
48.0101
44.6877
41.4271
23.7813
23.4076
25.0816
27.8688
31.2919
34.7737
38.1109
41.1967
44.0183
46.5839
48.9308
51.0984
53.1205
55.0403
56.8939
58.6718
60.3356
61.8337
63.0881
63.789
64.3394
64.9773
65.5582
66.0217
66.3532
66.5555
66.7245
66.2871
65.3904
64.1463
62.6236
60.8574
58.8531
56.598
54.0794
51.3027
48.2661
45.0395
41.6093
38.3076
22.636
20.0394
19.5661
21.6508
25.4189
29.5842
33.6343
37.3726
40.7596
43.8065
46.5581
49.0629
51.3577
53.4636
55.4145
57.2403
58.9249
60.4276
61.7166
62.7924
63.4341
63.8245
64.2215
64.5715
64.8184
64.9885
64.8137
64.142
63.082
61.699
60.0372
58.1204
55.9514
53.5262
50.8492
47.94
44.8156
41.5612
38.1963
35.0667
23.3324
19.5229
16.4413
16.8274
20.7252
25.5203
30.1919
34.4636
38.2912
41.7045
44.7576
47.5082
50.0017
52.2607
54.3
56.1539
57.8336
59.3068
60.5411
61.5484
62.4078
62.863
63.0747
63.2512
63.3968
63.4009
62.9576
62.1549
61.0107
59.5587
57.8322
55.8528
53.6284
51.1662
48.4829
45.6078
42.5733
39.4735
36.347
33.5497
23.5707
19.6674
16.3184
16.6628
20.6881
25.5828
30.3107
34.6206
38.4827
41.9267
45.0052
47.7733
50.2739
52.5286
54.5501
56.3706
58.006
59.4272
60.5992
61.5204
62.2922
62.8546
63.0127
63.0725
63.1185
62.9961
62.4861
61.6669
60.529
59.0959
57.3987
55.4634
53.3035
50.928
48.3547
45.6136
42.7355
39.8086
36.8611
34.2425
23.1806
19.6495
17.726
19.498
23.6956
28.3595
32.8169
36.8869
40.5445
43.8164
46.7508
49.3953
51.7847
53.9363
55.868
57.6166
59.1888
60.552
61.6712
62.5397
63.2545
63.7776
63.8825
63.88
63.8546
63.7799
63.3106
62.5371
61.4582
60.0916
58.4672
56.6147
54.554
52.2948
49.8451
47.2292
44.4684
41.6394
38.7447
36.1231
22.9638
20.0327
19.4243
22.0394
26.2889
30.7769
35.027
38.9028
42.3892
45.5145
48.3229
50.8568
53.1455
55.2047
57.0599
58.7473
60.2652
61.5792
62.6552
63.4857
64.1668
64.6607
64.73
64.6964
64.632
64.5385
64.1976
63.4866
62.4856
61.2006
59.6575
57.887
55.9137
53.7498
51.3987
48.8777
46.1988
43.432
40.5577
37.9116
22.9138
20.2482
20.0433
22.8713
27.1333
31.5678
35.7483
39.5552
42.9782
46.0468
48.8047
51.2931
53.5394
55.5589
57.3774
59.0303
60.5148
61.7972
62.8433
63.6441
64.2936
64.8047
64.8928
64.8386
64.7465
64.6252
64.3539
63.6916
62.7603
61.5492
60.0778
58.3751
56.4662
54.3667
52.081
49.6211
46.9958
44.2737
41.4258
38.7932
17.1409
23.8768
36.5883
40.3913
43.6918
45.0223
46.0038
46.2227
46.4601
46.4973
46.6176
46.5218
46.3978
46.1146
45.6478
45.2777
44.9405
44.4103
44.2318
43.3466
43.8975
43.972
43.4394
44.3682
43.7246
42.9087
42.1679
42.0039
41.3504
41.1147
40.5201
40.2234
17.2538
23.7046
36.2629
40.3143
43.5851
44.9948
45.9959
46.2651
46.5465
46.6229
46.7454
46.6144
46.4501
46.1355
45.6911
45.4054
45.1678
44.6618
44.5275
43.6109
44.2538
44.3387
44.0176
44.8174
44.0745
43.3826
42.6157
42.4202
41.8272
41.6138
41.0368
40.7677
17.1451
23.7688
35.8062
40.1119
43.407
44.9298
45.9734
46.3056
46.6388
46.7719
46.8963
46.7497
46.5773
46.2698
45.8846
45.6826
45.502
45.0183
44.8863
43.9273
44.6594
44.6903
44.5424
45.2264
44.4682
43.9229
43.211
43.0564
42.5698
42.3799
41.8273
41.575
15.2385
23.4425
35.3449
39.9409
43.2716
44.8976
45.9791
46.3904
46.7895
46.957
47.0607
46.9102
46.7279
46.4679
46.1752
46.0409
45.8883
45.4139
45.2671
44.312
45.1376
45.1323
45.1584
45.6826
44.9307
44.4555
43.7365
43.5504
43.1299
42.9692
42.45
42.2296
4.44661
23.0314
34.7174
39.6278
43.0484
44.8076
45.9658
46.4742
46.9214
47.1199
47.2489
47.1104
46.9802
46.7901
46.5856
46.4929
46.3283
45.8607
45.6839
44.7647
45.6276
45.5624
45.7321
46.1183
45.4577
45.0858
44.4386
44.2697
43.9271
43.7667
43.2655
43.0541
15.3838
22.3591
33.9928
39.2455
42.8051
44.7195
45.9541
46.5456
47.0548
47.3257
47.4527
47.3562
47.2524
47.1231
46.9965
46.93
46.7576
46.3103
46.1238
45.311
46.1779
46.1001
46.3791
46.5632
45.9926
45.6512
45.0236
44.832
44.559
44.4364
43.9834
43.8055
6.65827
21.5819
33.0765
38.7079
42.4705
44.5625
45.9015
46.6232
47.2213
47.4968
47.667
47.6136
47.5766
47.5281
47.4705
47.4087
47.2052
46.7697
46.5735
45.8938
46.7141
46.6327
46.986
47.0175
46.6146
46.3362
45.7874
45.592
45.3629
45.2249
44.786
44.6137
11.635
20.6724
31.966
37.981
42.0059
44.3368
45.8375
46.681
47.2977
47.6726
47.893
47.9038
47.9158
47.9108
47.8901
47.8303
47.6211
47.2289
47.0587
46.5538
47.3026
47.2565
47.6217
47.4416
47.1876
46.9158
46.4155
46.2182
46.0596
45.9663
45.5864
45.4462
12.7823
19.6065
30.5703
37.01
41.3932
44.0294
45.694
46.6613
47.4443
47.8626
48.1086
48.1821
48.2472
48.2993
48.3306
48.2718
48.0487
47.679
47.5283
47.2013
47.8735
47.8701
48.2293
47.9258
47.8748
47.6284
47.1988
46.9861
46.8373
46.7211
46.354
46.2195
14.5582
18.6225
28.9383
35.745
40.5235
43.5037
45.4305
46.6543
47.4665
47.9454
48.3055
48.4525
48.5832
48.6728
48.7139
48.657
48.4513
48.1415
48.0454
47.8936
48.4775
48.5201
48.8097
48.3366
48.4524
48.2055
47.8447
47.6574
47.5764
47.5084
47.206
47.0994
16.6281
17.4806
26.8563
33.9984
39.2912
42.8019
45.0938
46.4481
47.4503
48.1066
48.4848
48.7039
48.8741
48.9955
49.0852
49.0467
48.8514
48.571
48.5116
48.528
49.0577
49.1403
49.3765
48.8536
49.1544
48.9026
48.5888
48.3834
48.2835
48.1927
47.906
47.8074
19.6933
16.7054
24.5802
31.8698
37.6958
41.7149
44.36
46.1597
47.3932
48.056
48.5851
48.8875
49.1396
49.3213
49.4248
49.4009
49.2419
49.0271
49.0314
49.1746
49.628
49.7266
49.8613
49.2465
49.688
49.4485
49.2134
49.0619
49.0254
48.9812
48.7592
48.6823
22.5929
16.3176
21.7035
28.9094
35.2353
40.0811
43.5227
45.6635
47.0255
48.0465
48.6622
49.0589
49.351
49.5494
49.7052
49.7228
49.5957
49.4156
49.4628
49.7351
50.1647
50.2753
50.3564
49.7761
50.334
50.0668
49.8438
49.6744
49.6009
49.5389
49.3411
49.2767
24.905
16.5776
18.8718
25.1989
32.1963
37.8898
41.8378
44.5988
46.6897
47.8001
48.598
49.0993
49.4829
49.7733
49.9705
50.0232
49.9462
49.8339
49.94
50.2669
50.6235
50.7092
50.7003
50.1151
50.749
50.5233
50.3818
50.2948
50.2871
50.2667
50.1295
50.0808
25.5032
17.18
15.1617
20.6995
27.3141
33.8997
39.6048
43.4878
45.6375
47.3245
48.4164
49.1148
49.5884
49.8978
50.134
50.2242
50.1923
50.1274
50.2796
50.6852
51.0346
51.1261
51.0992
50.6161
51.2827
51.02
50.8602
50.7478
50.7006
50.673
50.5725
50.5424
24.2307
17.4975
11.2739
10.7695
20.0793
29.2924
35.5482
40.3038
44.4373
46.6193
48.009
48.9052
49.5284
49.9751
50.3055
50.4633
50.4931
50.4913
50.6888
51.0833
51.3432
51.3782
51.2958
50.8784
51.546
51.3664
51.2927
51.282
51.2932
51.2841
51.2321
51.2072
21.6937
16.9014
9.74107
11.5919
12.3521
9.94641
27.5885
37.3185
41.467
44.9416
47.1828
48.5338
49.4034
49.9485
50.3063
50.5168
50.6025
50.6662
50.9148
51.3444
51.6041
51.6539
51.58
51.284
51.867
51.634
51.4996
51.4636
51.4582
51.4583
51.4619
51.465
18.3531
15.0259
7.35803
11.1967
11.0085
11.3354
15.1829
21.1196
37.4036
42.8857
45.8824
47.7534
48.9373
49.7231
50.2818
50.5968
50.7631
50.9008
51.167
51.5086
51.6461
51.6227
51.542
51.3592
51.851
51.763
51.7155
51.7734
51.8092
51.788
51.8214
51.8145
14.5281
12.1401
6.11026
11.266
11.3549
11.6534
11.6011
14.2965
18.1456
36.8389
43.4283
46.4811
48.2388
49.3034
49.9444
50.3523
50.6176
50.843
51.1564
51.4978
51.6502
51.6465
51.5757
51.4924
51.7356
51.5622
51.3832
51.392
51.429
51.4126
51.5089
51.5346
10.7586
9.60996
6.20466
11.6461
12.0628
6.67727
5.91157
6.75321
16.1456
27.9235
39.18
44.2915
46.8645
48.382
49.3996
50.0262
50.4269
50.744
51.0357
51.2093
51.1803
51.0548
50.9777
50.9582
50.9667
51.0112
50.8919
50.9615
51.0055
50.9089
51.0034
50.9899
7.63401
7.29552
8.3785
7.28093
13.311
8.25876
5.16941
8.29295
12.7589
5.22037
33.6615
40.9467
44.8046
46.9889
48.2147
48.9844
49.5514
49.9784
50.3034
50.4678
50.4842
50.3548
50.2471
50.2268
49.6952
49.4957
49.0157
48.8971
48.8692
48.6759
48.7893
48.7873
9.66807
10.5672
5.76144
7.21182
11.2691
12.1345
10.2819
10.4388
14.0437
15.6142
27.4468
35.9902
41.1948
44.2445
46.2757
47.5839
48.3901
48.9189
49.1354
48.9766
48.5946
48.079
47.7941
47.5036
46.3243
46.5175
46.0362
45.8737
45.7295
45.2446
45.1535
44.9462
11.8282
6.40662
1.11095
7.44102
20.6345
24.7218
21.5375
13.4454
13.7026
14.6784
8.09758
25.4565
34.9765
39.9653
42.5121
44.0053
45.1371
45.7972
45.9631
45.7636
45.4794
44.8843
44.3755
43.6041
40.8242
38.8497
35.7577
33.1871
30.8687
28.2866
26.5299
25.3097
6.75177
4.12418
12.0268
9.52428
18.0613
25.6027
29.503
29.0177
20.461
12.6153
15.2136
6.82928
18.9062
26.3381
34.2261
38.7093
40.7158
41.4106
41.0157
39.4275
36.8801
32.6392
28.6675
21.3028
22.0473
9.57902
5.44498
16.7437
20.1694
10.857
19.2034
19.2506
0.495291
9.55173
12.0233
12.5376
14.8301
18.9913
23.0821
25.314
26.9852
22.7385
14.3425
15.2666
14.6951
10.674
18.9185
16.1395
14.1887
16.0279
10.5295
17.7795
20.3093
9.31538
9.45982
18.5671
17.9173
18.7474
14.6103
10.4244
10.8977
17.7458
9.97649
13.4411
5.91246
13.8439
17.8971
20.5308
22.7314
24.7088
26.1835
26.7011
24.5873
21.7912
17.571
8.98004
11.4675
11.8146
13.2201
16.8658
2.82923
12.331
16.8246
9.11988
9.56907
5.87732
12.6336
16.0172
17.1734
20.7174
22.4407
24.267
25.7666
26.718
27.6998
27.7405
9.49056
19.616
23.8326
27.0687
29.2711
30.4774
30.7206
29.9387
27.9406
24.1685
21.7388
21.5517
20.2153
20.2752
19.1614
17.4888
13.6619
15.3353
17.1532
20.3135
23.6892
26.6775
28.9764
30.5327
32.3155
33.701
33.612
33.2434
32.3943
31.6797
31.6589
31.5522
9.60168
19.3782
23.7678
27.259
29.6828
30.8875
30.7795
29.3968
27.1097
25.1429
24.292
25.0814
27.2754
28.5551
30.3592
31.3591
32.1819
31.8608
32.7558
33.5579
34.1414
34.6472
34.7836
35.4125
35.5775
35.092
34.6412
33.8789
33.2795
32.7614
32.3973
32.2875
8.30764
17.7087
21.8401
25.1253
27.4585
28.6582
28.559
27.1205
24.4796
21.4107
20.3613
21.9793
24.1159
27.0183
30.0107
32.2859
33.1704
34.179
34.7319
35.3177
35.9964
36.6764
37.0979
37.6874
37.5103
37.1921
36.2065
34.8599
33.1784
31.9178
31.578
31.3373
7.18563
16.2512
20.158
23.1848
25.314
26.4088
26.261
24.5537
20.6983
14.2073
7.50174
10.9859
16.8675
23.2042
29.4008
33.3901
35.4648
36.4424
37.1921
37.6683
37.8766
37.8438
37.5778
37.2318
36.4358
35.5102
34.4271
32.9618
31.5558
30.5058
30.1123
29.9507
7.00644
16.0817
19.8268
22.6053
24.4992
25.4195
25.1805
23.5209
20.437
16.2578
15.812
17.7109
17.2758
16.9351
22.4927
28.6015
32.2109
34.1143
34.97
35.2478
35.2946
35.3319
35.3437
35.3631
35.0432
34.8398
34.3425
33.5007
32.3195
31.2902
30.9258
30.6395
7.0489
16.3356
20.0718
22.7584
24.5558
25.4227
25.2878
24.1956
22.6238
21.798
21.9277
22.0518
22.726
23.1929
24.0365
26.9038
29.7795
31.8087
33.0827
33.8788
34.4253
34.75
34.854
34.7129
34.3159
33.9964
33.5482
32.7438
31.7118
30.696
30.1537
29.7641
6.73202
16.3234
20.0701
22.6848
24.4935
25.4794
25.6501
25.1496
24.29
23.3556
22.156
20.7313
19.1006
19.8851
23.7108
27.1283
29.4572
30.9478
31.7879
32.1192
32.1677
32.1472
32.1035
32.0369
31.9402
32.1136
32.2837
32.0609
31.3578
30.489
30.0227
29.6654
6.05922
15.9278
19.7775
22.4326
24.3898
25.6269
26.1445
25.9994
25.3076
24.2103
23.0797
21.9674
20.6517
18.3187
18.266
22.1747
25.0905
26.7534
27.7071
28.3206
28.8251
29.2973
29.7717
30.1933
30.6165
31.2214
31.8276
32.021
31.6345
30.8912
30.3896
30.0121
5.4915
15.5041
19.5377
22.3405
24.507
25.998
26.8012
26.9479
26.541
25.7701
24.7472
23.4863
21.9528
21.0797
20.7286
21.0565
22.7461
24.3533
25.6468
26.6389
27.3993
28.0384
28.5769
29.0298
29.4775
30.1889