/*--------------------------------*- C++ -*----------------------------------*\
  =========                 |
  \\      /  F ield         | OpenFOAM: The Open Source CFD Toolbox
   \\    /   O peration     | Website:  https://openfoam.org
    \\  /    A nd           | Version:  6
     \\/     M anipulation  |
\*---------------------------------------------------------------------------*/
FoamFile
{
    version     2.0;
    format      ascii;
    class       volScalarField;
    location    "22";
    object      p;
}
// * * * * * * * * * * * * * * * * * * * * * * * * * * * * * * * * * * * * * //

dimensions      [0 2 -2 0 0 0 0];

internalField   nonuniform List<scalar> 
380496
(
0.0125307
0.0128815
0.0126357
0.0125593
0.0125012
0.012438
0.0123759
0.0123111
0.0122432
0.0121729
0.0121003
0.0120257
0.0119493
0.0118714
0.0117918
0.0117105
0.0116275
0.0115424
0.0114548
0.0113645
0.011271
0.0111737
0.0110722
0.0109656
0.0108535
0.0107352
0.0106101
0.0104773
0.0103368
0.0101872
0.0100298
0.00986151
0.00968939
0.00950087
0.00932816
0.0124987
0.0128405
0.0126056
0.0125345
0.0124799
0.0124189
0.0123574
0.0122919
0.0122224
0.0121495
0.0120736
0.011995
0.011914
0.0118307
0.0117453
0.0116576
0.0115676
0.011475
0.0113796
0.0112809
0.0111787
0.0110723
0.0109614
0.0108454
0.0107238
0.0105959
0.0104615
0.0103196
0.0101705
0.0100123
0.00984707
0.00966913
0.0094894
0.00928044
0.00910004
0.0124634
0.0127987
0.0125742
0.0125089
0.0124581
0.0123992
0.0123381
0.0122716
0.0121999
0.0121238
0.0120439
0.0119605
0.0118739
0.0117845
0.0116923
0.0115972
0.0114992
0.011398
0.0112934
0.011185
0.0110725
0.0109554
0.0108334
0.0107058
0.0105723
0.0104324
0.0102858
0.0101317
0.00997056
0.00980056
0.00962467
0.00943614
0.00924949
0.00903296
0.00885518
0.0124213
0.0127538
0.0125417
0.0124838
0.0124379
0.0123819
0.0123217
0.0122546
0.0121812
0.0121025
0.0120191
0.0119315
0.0118403
0.0117455
0.0116475
0.0115462
0.0114414
0.011333
0.0112209
0.0111045
0.0109839
0.0108582
0.0107276
0.0105912
0.0104491
0.0103005
0.0101456
0.00998332
0.00981451
0.00963715
0.00945458
0.00925916
0.009067
0.00884195
0.00866057
0.0123825
0.0127059
0.0125093
0.0124596
0.0124189
0.0123658
0.0123064
0.0122386
0.0121632
0.0120816
0.0119945
0.0119026
0.0118064
0.0117062
0.0116022
0.0114944
0.0113827
0.011267
0.0111471
0.0110227
0.0108936
0.0107594
0.0106199
0.0104746
0.0103235
0.010166
0.0100023
0.00983148
0.00965457
0.00946946
0.00928008
0.00907815
0.00888175
0.00865167
0.00847178
0.0123321
0.0126549
0.0124759
0.0124361
0.0124017
0.0123521
0.0122938
0.0122254
0.0121483
0.012064
0.0119734
0.0118775
0.0117768
0.0116716
0.0115622
0.0114485
0.0113307
0.0112085
0.0110819
0.0109505
0.0108142
0.0106727
0.0105258
0.0103732
0.0102148
0.0100502
0.00987972
0.0097025
0.00951963
0.00932904
0.00913491
0.00892848
0.00872906
0.00849462
0.00831485
0.0122806
0.0126009
0.0124425
0.012414
0.0123865
0.0123406
0.0122834
0.0122144
0.0121354
0.0120483
0.0119543
0.0118543
0.0117491
0.011639
0.0115243
0.011405
0.0112813
0.0111528
0.0110197
0.0108816
0.0107385
0.01059
0.0104362
0.0102766
0.0101115
0.00994027
0.00976343
0.00958023
0.00939186
0.00919623
0.00899788
0.00878758
0.00858596
0.00834851
0.00817061
0.0122212
0.0125442
0.01241
0.0123942
0.0123743
0.0123321
0.012276
0.0122063
0.0121254
0.0120355
0.0119382
0.0118344
0.011725
0.0116103
0.0114908
0.0113664
0.0112372
0.0111032
0.0109643
0.0108203
0.0106712
0.0105167
0.010357
0.0101915
0.0100207
0.00984404
0.00966212
0.00947421
0.00928166
0.0090823
0.00888098
0.00866797
0.00846513
0.00822542
0.00804958
0.0121548
0.0124865
0.0123789
0.0123772
0.0123655
0.0123271
0.0122719
0.0122015
0.0121187
0.0120262
0.0119257
0.0118184
0.0117051
0.0115864
0.0114625
0.0113336
0.0111997
0.0110608
0.010917
0.0107679
0.0106137
0.010454
0.0102892
0.0101188
0.00994324
0.00976211
0.009576
0.00938428
0.00918837
0.00898606
0.00878248
0.00856744
0.0083639
0.00812254
0.00794891
0.0120908
0.0124345
0.0123535
0.0123653
0.0123609
0.0123255
0.0122708
0.0121993
0.0121146
0.0120197
0.0119163
0.011806
0.0116894
0.0115672
0.0114397
0.011307
0.0111692
0.0110263
0.0108783
0.0107251
0.0105667
0.010403
0.0102341
0.0100598
0.00988056
0.00969598
0.00950672
0.00931219
0.00911388
0.00890955
0.00870452
0.0084882
0.0082845
0.00804202
0.00787061
0.0120116
0.0123804
0.0123282
0.0123554
0.012359
0.0123267
0.0122723
0.0121998
0.0121131
0.0120157
0.0119097
0.0117964
0.0116767
0.0115513
0.0114205
0.0112844
0.0111432
0.0109967
0.0108451
0.0106882
0.0105263
0.010359
0.0101866
0.0100091
0.00982665
0.00963917
0.00944732
0.00925051
0.00905031
0.00884442
0.00863836
0.00842116
0.00821758
0.00797432
0.00780516
0.0119345
0.012332
0.0123083
0.0123503
0.012361
0.0123305
0.012276
0.012202
0.0121133
0.0120135
0.0119049
0.0117889
0.0116666
0.0115383
0.0114046
0.0112655
0.0111213
0.0109717
0.0108171
0.0106571
0.0104921
0.0103218
0.0101466
0.00996631
0.00978136
0.00959157
0.00939768
0.00919913
0.00899755
0.00879059
0.00858395
0.00836627
0.00816309
0.00791937
0.00775242
0.0118369
0.012284
0.0122895
0.0123481
0.0123662
0.0123374
0.0122823
0.0122067
0.0121157
0.0120135
0.0119024
0.011784
0.011659
0.0115282
0.0113919
0.0112502
0.0111033
0.0109511
0.0107938
0.0106312
0.0104635
0.0102907
0.0101131
0.0099305
0.00974345
0.00955178
0.00935626
0.00915636
0.00895377
0.0087461
0.00853917
0.00832135
0.00811876
0.00787492
0.00771011
0.0117397
0.0122438
0.0122756
0.0123501
0.0123739
0.0123457
0.0122897
0.0122122
0.012119
0.0120146
0.0119012
0.0117804
0.0116533
0.0115202
0.0113817
0.0112378
0.0110886
0.0109342
0.0107746
0.0106098
0.01044
0.0102651
0.0100855
0.00990107
0.00971234
0.00951919
0.00932242
0.00912155
0.00891829
0.00871023
0.00850328
0.00828561
0.00808373
0.00784005
0.00767711
0.0116228
0.0122092
0.0122655
0.0123571
0.0123861
0.0123575
0.0122999
0.01222
0.0121245
0.0120176
0.011902
0.0117791
0.0116498
0.0115148
0.0113742
0.0112283
0.0110772
0.0109209
0.0107594
0.0105928
0.0104212
0.0102446
0.0100633
0.00987739
0.0096873
0.00949299
0.00929528
0.0090937
0.00889001
0.00868183
0.00847509
0.00825789
0.00805687
0.00781398
0.00765284
0.0114988
0.0121834
0.0122575
0.0123654
0.0123983
0.012369
0.0123096
0.0122275
0.0121297
0.0120208
0.0119032
0.0117784
0.0116474
0.0115107
0.0113685
0.011221
0.0110683
0.0109104
0.0107474
0.0105794
0.0104063
0.0102284
0.0100458
0.00985875
0.00966762
0.00947245
0.00927404
0.00907202
0.00886811
0.00866002
0.00845361
0.00823713
0.00803681
0.007795
0.00763446
0.0113646
0.0121704
0.0122577
0.0123819
0.0124161
0.0123843
0.0123222
0.0122373
0.0121369
0.0120258
0.0119062
0.0117797
0.011647
0.0115088
0.0113652
0.0112163
0.0110623
0.0109031
0.0107389
0.0105696
0.0103954
0.0102164
0.0100329
0.00984492
0.00965299
0.00945719
0.00925829
0.009056
0.00885203
0.00864422
0.0084383
0.00822292
0.00802352
0.00778437
0.00762443
0.0112129
0.0121649
0.0122542
0.0123951
0.0124306
0.0123968
0.0123323
0.012245
0.0121426
0.0120296
0.0119086
0.0117807
0.0116469
0.0115075
0.0113629
0.011213
0.0110581
0.010898
0.0107328
0.0105627
0.0103877
0.0102079
0.0100237
0.00983509
0.00964263
0.00944642
0.0092472
0.00904481
0.00884087
0.00863344
0.00842796
0.0082139
0.00801462
0.00777822
0.00761371
0.0110666
0.0121803
0.0122644
0.012418
0.0124506
0.0124129
0.0123452
0.0122551
0.0121503
0.0120356
0.011913
0.0117838
0.0116489
0.0115085
0.011363
0.0112123
0.0110566
0.0108958
0.01073
0.0105592
0.0103837
0.0102034
0.0100186
0.00982959
0.00963676
0.00944028
0.0092409
0.00903849
0.00883467
0.00862769
0.00842284
0.00821036
0.00801239
0.00778197
0.00761499
0.010912
0.0121878
0.0122638
0.0124338
0.0124645
0.0124243
0.0123543
0.0122622
0.012156
0.0120401
0.0119167
0.0117867
0.0116512
0.0115102
0.0113642
0.011213
0.0110569
0.0108956
0.0107295
0.0105583
0.0103824
0.0102018
0.0100167
0.00982745
0.00963444
0.00943781
0.00923833
0.00903598
0.00883221
0.00862569
0.0084211
0.00821042
0.00801182
0.00778738
0.00760734
0.0108348
0.0122128
0.0122753
0.0124538
0.0124811
0.0124383
0.012366
0.0122719
0.0121642
0.0120471
0.0119227
0.0117919
0.0116558
0.0115142
0.0113678
0.0112162
0.0110597
0.0108981
0.0107317
0.0105603
0.0103843
0.0102035
0.0100184
0.00982897
0.00963592
0.00943927
0.00923985
0.00903753
0.00883399
0.00862765
0.00842376
0.00821391
0.00801974
0.00779989
0.00765459
0.0125299
0.0128801
0.0126356
0.0125593
0.0125013
0.012438
0.0123759
0.0123111
0.0122432
0.0121729
0.0121003
0.0120257
0.0119493
0.0118714
0.0117918
0.0117106
0.0116275
0.0115424
0.0114548
0.0113646
0.011271
0.0111738
0.0110722
0.0109656
0.0108536
0.0107352
0.0106101
0.0104774
0.0103369
0.0101873
0.0100299
0.00986169
0.00968957
0.00950112
0.00932843
0.0124978
0.0128391
0.0126056
0.0125345
0.0124799
0.0124189
0.0123574
0.0122919
0.0122224
0.0121495
0.0120736
0.011995
0.011914
0.0118307
0.0117453
0.0116576
0.0115676
0.011475
0.0113796
0.0112809
0.0111787
0.0110723
0.0109615
0.0108454
0.0107239
0.010596
0.0104616
0.0103197
0.0101706
0.0100124
0.00984721
0.00966932
0.0094896
0.00928071
0.00910036
0.0124625
0.0127974
0.0125741
0.0125089
0.0124581
0.0123992
0.0123381
0.0122715
0.0121999
0.0121238
0.0120439
0.0119605
0.0118739
0.0117845
0.0116923
0.0115972
0.0114992
0.011398
0.0112934
0.011185
0.0110726
0.0109554
0.0108334
0.0107058
0.0105724
0.0104324
0.0102859
0.0101318
0.00997065
0.00980068
0.00962479
0.00943631
0.00924966
0.0090332
0.00885543
0.0124204
0.0127524
0.0125417
0.0124838
0.012438
0.0123819
0.0123217
0.0122546
0.0121812
0.0121024
0.0120191
0.0119315
0.0118403
0.0117456
0.0116475
0.0115462
0.0114414
0.011333
0.0112209
0.0111046
0.0109839
0.0108583
0.0107276
0.0105913
0.0104492
0.0103006
0.0101457
0.00998341
0.00981461
0.00963727
0.00945471
0.00925932
0.00906717
0.00884218
0.00866082
0.0123815
0.0127046
0.0125092
0.0124597
0.0124189
0.0123658
0.0123064
0.0122386
0.0121632
0.0120816
0.0119945
0.0119026
0.0118064
0.0117062
0.0116022
0.0114944
0.0113827
0.011267
0.0111471
0.0110227
0.0108937
0.0107594
0.01062
0.0104747
0.0103236
0.0101661
0.0100024
0.00983156
0.00965465
0.00946957
0.00928019
0.00907831
0.00888189
0.00865188
0.00847199
0.0123311
0.0126536
0.0124758
0.0124362
0.0124017
0.0123521
0.0122938
0.0122254
0.0121483
0.0120639
0.0119734
0.0118775
0.0117768
0.0116716
0.0115622
0.0114486
0.0113308
0.0112086
0.0110819
0.0109505
0.0108143
0.0106727
0.0105259
0.0103732
0.0102149
0.0100503
0.00987978
0.00970258
0.00951971
0.00932914
0.00913502
0.00892862
0.00872919
0.00849481
0.00831505
0.0122795
0.0125996
0.0124425
0.0124141
0.0123865
0.0123406
0.0122834
0.0122144
0.0121354
0.0120483
0.0119543
0.0118543
0.0117491
0.011639
0.0115243
0.011405
0.0112813
0.0111529
0.0110198
0.0108816
0.0107386
0.0105901
0.0104362
0.0102767
0.0101115
0.00994033
0.00976349
0.0095803
0.00939194
0.00919632
0.00899798
0.0087877
0.00858607
0.00834868
0.00817077
0.0122201
0.012543
0.01241
0.0123943
0.0123743
0.0123321
0.012276
0.0122063
0.0121254
0.0120355
0.0119382
0.0118344
0.011725
0.0116103
0.0114908
0.0113664
0.0112373
0.0111032
0.0109644
0.0108204
0.0106713
0.0105168
0.010357
0.0101916
0.0100207
0.00984409
0.00966217
0.00947428
0.00928173
0.00908238
0.00888106
0.00866808
0.00846523
0.00822557
0.00804972
0.0121537
0.0124853
0.0123788
0.0123773
0.0123655
0.0123271
0.0122719
0.0122015
0.0121187
0.0120262
0.0119257
0.0118184
0.0117051
0.0115864
0.0114625
0.0113336
0.0111998
0.0110609
0.010917
0.0107679
0.0106137
0.0104541
0.0102892
0.0101189
0.00994328
0.00976215
0.00957605
0.00938433
0.00918842
0.00898613
0.00878255
0.00856753
0.00836398
0.00812267
0.00794903
0.0120896
0.0124334
0.0123534
0.0123654
0.0123609
0.0123255
0.0122708
0.0121993
0.0121146
0.0120197
0.0119163
0.011806
0.0116894
0.0115672
0.0114397
0.011307
0.0111692
0.0110263
0.0108783
0.0107251
0.0105667
0.010403
0.0102341
0.0100599
0.0098806
0.00969602
0.00950676
0.00931224
0.00911393
0.00890961
0.00870458
0.00848829
0.00828457
0.00804214
0.00787071
0.0120105
0.0123793
0.0123281
0.0123554
0.0123591
0.0123267
0.0122723
0.0121998
0.0121131
0.0120157
0.0119097
0.0117964
0.0116767
0.0115513
0.0114205
0.0112844
0.0111432
0.0109967
0.0108451
0.0106883
0.0105263
0.010359
0.0101867
0.0100091
0.00982668
0.00963921
0.00944736
0.00925055
0.00905036
0.00884448
0.00863842
0.00842124
0.00821764
0.00797443
0.00780525
0.0119333
0.012331
0.0123082
0.0123503
0.012361
0.0123305
0.012276
0.012202
0.0121133
0.0120135
0.0119049
0.0117889
0.0116666
0.0115383
0.0114046
0.0112655
0.0111213
0.0109718
0.0108171
0.0106571
0.0104921
0.0103219
0.0101466
0.00996633
0.00978139
0.0095916
0.00939771
0.00919917
0.00899759
0.00879064
0.00858399
0.00836634
0.00816314
0.00791947
0.0077525
0.0118358
0.012283
0.0122894
0.0123482
0.0123662
0.0123374
0.0122823
0.0122067
0.0121157
0.0120135
0.0119024
0.011784
0.011659
0.0115282
0.0113919
0.0112502
0.0111033
0.0109511
0.0107938
0.0106312
0.0104635
0.0102908
0.0101131
0.00993052
0.00974347
0.00955181
0.00935629
0.0091564
0.00895381
0.00874615
0.00853921
0.0083214
0.0081188
0.00787501
0.00771018
0.0117385
0.0122429
0.0122756
0.0123501
0.012374
0.0123457
0.0122897
0.0122122
0.012119
0.0120146
0.0119012
0.0117804
0.0116533
0.0115202
0.0113817
0.0112378
0.0110886
0.0109342
0.0107746
0.0106098
0.01044
0.0102651
0.0100855
0.00990109
0.00971236
0.00951921
0.00932245
0.00912158
0.00891832
0.00871027
0.00850332
0.00828566
0.00808377
0.00784013
0.00767716
0.0116217
0.0122084
0.0122654
0.0123571
0.0123861
0.0123575
0.0122999
0.01222
0.0121245
0.0120176
0.011902
0.0117791
0.0116498
0.0115148
0.0113742
0.0112283
0.0110772
0.0109209
0.0107594
0.0105928
0.0104212
0.0102446
0.0100633
0.00987741
0.00968732
0.00949302
0.0092953
0.00909373
0.00889004
0.00868187
0.00847512
0.00825793
0.0080569
0.00781406
0.00765289
0.0114977
0.0121827
0.0122575
0.0123654
0.0123983
0.012369
0.0123096
0.0122275
0.0121297
0.0120207
0.0119031
0.0117784
0.0116474
0.0115107
0.0113685
0.011221
0.0110683
0.0109104
0.0107474
0.0105794
0.0104063
0.0102284
0.0100458
0.00985877
0.00966764
0.00947247
0.00927406
0.00907205
0.00886814
0.00866006
0.00845364
0.00823718
0.00803684
0.00779508
0.0076345
0.0113636
0.0121698
0.0122577
0.0123819
0.0124161
0.0123843
0.0123222
0.0122373
0.0121369
0.0120257
0.0119062
0.0117796
0.011647
0.0115088
0.0113652
0.0112163
0.0110623
0.0109031
0.0107389
0.0105696
0.0103955
0.0102165
0.0100329
0.00984493
0.00965301
0.00945721
0.00925831
0.00905603
0.00885206
0.00864426
0.00843833
0.00822297
0.00802355
0.00778444
0.00762448
0.0112121
0.0121644
0.0122542
0.0123951
0.0124306
0.0123968
0.0123323
0.012245
0.0121426
0.0120296
0.0119086
0.0117807
0.0116469
0.0115075
0.0113629
0.011213
0.0110581
0.010898
0.0107329
0.0105627
0.0103877
0.010208
0.0100237
0.00983511
0.00964266
0.00944645
0.00924724
0.00904484
0.0088409
0.00863349
0.008428
0.00821395
0.00801466
0.0077783
0.00761375
0.0110657
0.01218
0.0122644
0.012418
0.0124506
0.0124129
0.0123452
0.012255
0.0121504
0.0120356
0.011913
0.0117838
0.0116489
0.0115085
0.011363
0.0112123
0.0110567
0.0108958
0.0107301
0.0105593
0.0103837
0.0102034
0.0100187
0.00982962
0.0096368
0.00944031
0.00924094
0.00903853
0.00883471
0.00862773
0.00842288
0.00821042
0.00801244
0.00778204
0.00761501
0.0109111
0.0121878
0.0122639
0.0124339
0.0124646
0.0124244
0.0123544
0.0122622
0.0121561
0.0120402
0.0119167
0.0117868
0.0116513
0.0115103
0.0113643
0.0112131
0.011057
0.0108957
0.0107295
0.0105583
0.0103825
0.0102018
0.0100168
0.00982749
0.00963448
0.00943785
0.00923838
0.00903602
0.00883226
0.00862574
0.00842115
0.00821047
0.00801187
0.00778742
0.00760731
0.0108361
0.0122132
0.0122754
0.0124539
0.0124811
0.0124383
0.0123659
0.0122718
0.0121641
0.012047
0.0119226
0.0117919
0.0116557
0.0115142
0.0113677
0.0112161
0.0110596
0.0108981
0.0107317
0.0105603
0.0103842
0.0102034
0.0100183
0.0098289
0.00963586
0.0094392
0.00923979
0.00903747
0.00883392
0.00862759
0.00842369
0.00821385
0.00801966
0.00779984
0.0076546
0.0125324
0.0128774
0.0126354
0.0125594
0.0125013
0.0124381
0.0123759
0.0123111
0.0122432
0.0121729
0.0121003
0.0120257
0.0119493
0.0118714
0.0117918
0.0117105
0.0116275
0.0115424
0.0114548
0.0113646
0.011271
0.0111737
0.0110722
0.0109656
0.0108536
0.0107352
0.0106101
0.0104774
0.0103369
0.0101873
0.0100299
0.0098617
0.00968958
0.00950116
0.00932854
0.0125003
0.0128366
0.0126054
0.0125346
0.01248
0.0124189
0.0123574
0.0122919
0.0122224
0.0121495
0.0120736
0.011995
0.011914
0.0118307
0.0117453
0.0116576
0.0115676
0.011475
0.0113796
0.0112809
0.0111787
0.0110723
0.0109615
0.0108454
0.0107239
0.010596
0.0104616
0.0103198
0.0101706
0.0100124
0.00984724
0.00966936
0.00948965
0.00928076
0.00910043
0.012465
0.0127949
0.012574
0.012509
0.0124582
0.0123992
0.0123381
0.0122715
0.0121999
0.0121238
0.0120439
0.0119604
0.0118739
0.0117845
0.0116923
0.0115972
0.0114992
0.011398
0.0112934
0.011185
0.0110726
0.0109554
0.0108334
0.0107058
0.0105724
0.0104324
0.0102859
0.0101318
0.00997065
0.0098007
0.00962479
0.00943634
0.00924966
0.00903324
0.00885547
0.0124229
0.01275
0.0125415
0.0124839
0.012438
0.0123819
0.0123217
0.0122546
0.0121812
0.0121024
0.0120191
0.0119315
0.0118403
0.0117456
0.0116475
0.0115462
0.0114414
0.011333
0.0112209
0.0111046
0.0109839
0.0108583
0.0107277
0.0105913
0.0104492
0.0103006
0.0101457
0.00998344
0.00981463
0.0096373
0.00945474
0.00925936
0.00906721
0.00884223
0.0086609
0.0123839
0.0127022
0.012509
0.0124597
0.012419
0.0123658
0.0123064
0.0122386
0.0121632
0.0120816
0.0119945
0.0119026
0.0118064
0.0117062
0.0116022
0.0114944
0.0113827
0.011267
0.0111471
0.0110227
0.0108937
0.0107594
0.01062
0.0104747
0.0103236
0.0101661
0.0100024
0.00983158
0.00965467
0.0094696
0.00928021
0.00907834
0.00888191
0.00865193
0.00847206
0.0123335
0.0126513
0.0124757
0.0124362
0.0124018
0.0123521
0.0122937
0.0122254
0.0121483
0.0120639
0.0119734
0.0118775
0.0117768
0.0116716
0.0115622
0.0114486
0.0113308
0.0112086
0.0110819
0.0109505
0.0108143
0.0106727
0.0105259
0.0103732
0.0102149
0.0100503
0.0098798
0.0097026
0.00951973
0.00932918
0.00913505
0.00892866
0.00872922
0.00849487
0.00831514
0.0122818
0.0125974
0.0124423
0.0124141
0.0123866
0.0123406
0.0122834
0.0122144
0.0121354
0.0120483
0.0119543
0.0118543
0.0117491
0.011639
0.0115243
0.011405
0.0112813
0.0111529
0.0110198
0.0108817
0.0107386
0.0105901
0.0104363
0.0102767
0.0101115
0.00994035
0.00976351
0.00958032
0.00939196
0.00919636
0.008998
0.00878774
0.0085861
0.00834875
0.00817087
0.0122224
0.0125408
0.0124098
0.0123943
0.0123743
0.0123321
0.012276
0.0122063
0.0121254
0.0120355
0.0119382
0.0118344
0.011725
0.0116103
0.0114908
0.0113664
0.0112373
0.0111032
0.0109644
0.0108204
0.0106713
0.0105168
0.010357
0.0101916
0.0100207
0.00984411
0.00966219
0.0094743
0.00928175
0.00908241
0.00888108
0.00866812
0.00846526
0.00822564
0.00804983
0.0121559
0.0124833
0.0123787
0.0123773
0.0123655
0.0123271
0.0122719
0.0122015
0.0121187
0.0120261
0.0119257
0.0118184
0.0117051
0.0115864
0.0114625
0.0113336
0.0111998
0.0110609
0.010917
0.0107679
0.0106137
0.0104541
0.0102892
0.0101189
0.00994329
0.00976217
0.00957606
0.00938436
0.00918845
0.00898617
0.00878257
0.00856758
0.008364
0.00812275
0.00794914
0.0120917
0.0124315
0.0123533
0.0123654
0.0123609
0.0123255
0.0122708
0.0121993
0.0121146
0.0120196
0.0119163
0.0118059
0.0116894
0.0115672
0.0114397
0.011307
0.0111692
0.0110263
0.0108783
0.0107251
0.0105667
0.010403
0.0102341
0.0100599
0.00988061
0.00969604
0.00950678
0.00931227
0.00911396
0.00890965
0.00870461
0.00848833
0.0082846
0.00804222
0.00787082
0.0120125
0.0123774
0.012328
0.0123554
0.0123591
0.0123267
0.0122723
0.0121998
0.0121131
0.0120157
0.0119097
0.0117964
0.0116767
0.0115513
0.0114205
0.0112844
0.0111432
0.0109967
0.0108451
0.0106883
0.0105263
0.010359
0.0101867
0.0100091
0.00982669
0.00963923
0.00944738
0.00925058
0.00905038
0.00884451
0.00863844
0.00842128
0.00821766
0.00797451
0.00780536
0.0119352
0.0123293
0.0123081
0.0123504
0.012361
0.0123305
0.012276
0.012202
0.0121133
0.0120135
0.0119049
0.0117889
0.0116665
0.0115383
0.0114046
0.0112655
0.0111213
0.0109718
0.0108171
0.0106572
0.0104921
0.0103219
0.0101466
0.00996635
0.0097814
0.00959163
0.00939773
0.0091992
0.00899761
0.00879068
0.00858402
0.00836638
0.00816317
0.00791955
0.00775262
0.0118376
0.0122814
0.0122893
0.0123482
0.0123662
0.0123374
0.0122823
0.0122067
0.0121157
0.0120135
0.0119024
0.0117839
0.011659
0.0115282
0.0113919
0.0112502
0.0111033
0.0109511
0.0107938
0.0106312
0.0104635
0.0102908
0.0101131
0.00993054
0.00974349
0.00955183
0.0093563
0.00915642
0.00895383
0.00874618
0.00853923
0.00832145
0.00811883
0.00787509
0.0077103
0.0117402
0.0122415
0.0122755
0.0123501
0.012374
0.0123457
0.0122897
0.0122122
0.012119
0.0120146
0.0119012
0.0117804
0.0116533
0.0115202
0.0113817
0.0112378
0.0110886
0.0109342
0.0107746
0.0106098
0.01044
0.0102652
0.0100855
0.00990111
0.00971237
0.00951924
0.00932247
0.00912161
0.00891834
0.0087103
0.00850334
0.0082857
0.00808379
0.00784022
0.00767729
0.0116233
0.0122071
0.0122653
0.0123571
0.0123861
0.0123575
0.0122998
0.01222
0.0121244
0.0120176
0.011902
0.0117791
0.0116498
0.0115148
0.0113742
0.0112283
0.0110772
0.0109209
0.0107594
0.0105928
0.0104212
0.0102446
0.0100633
0.00987742
0.00968733
0.00949304
0.00929532
0.00909376
0.00889006
0.00868191
0.00847514
0.00825798
0.00805693
0.00781415
0.00765301
0.0114991
0.0121815
0.0122574
0.0123654
0.0123983
0.012369
0.0123096
0.0122275
0.0121297
0.0120207
0.0119031
0.0117784
0.0116474
0.0115107
0.0113685
0.011221
0.0110683
0.0109104
0.0107474
0.0105794
0.0104063
0.0102284
0.0100458
0.00985878
0.00966765
0.0094725
0.00927408
0.00907208
0.00886816
0.0086601
0.00845367
0.00823723
0.00803687
0.00779518
0.00763462
0.0113648
0.0121688
0.0122576
0.0123819
0.0124161
0.0123843
0.0123221
0.0122372
0.0121369
0.0120257
0.0119062
0.0117796
0.011647
0.0115088
0.0113652
0.0112163
0.0110623
0.0109031
0.0107389
0.0105696
0.0103955
0.0102165
0.0100329
0.00984496
0.00965303
0.00945724
0.00925834
0.00905607
0.00885209
0.00864431
0.00843837
0.00822303
0.00802359
0.00778455
0.00762462
0.0112133
0.0121635
0.0122542
0.0123951
0.0124306
0.0123967
0.0123323
0.012245
0.0121425
0.0120296
0.0119085
0.0117807
0.0116469
0.0115075
0.0113629
0.011213
0.0110581
0.010898
0.0107329
0.0105627
0.0103878
0.010208
0.0100237
0.00983515
0.0096427
0.00944649
0.00924728
0.0090449
0.00884095
0.00863355
0.00842805
0.00821403
0.0080147
0.00777841
0.00761388
0.0110666
0.0121795
0.0122644
0.012418
0.0124506
0.0124129
0.0123452
0.012255
0.0121503
0.0120356
0.011913
0.0117838
0.0116489
0.0115086
0.0113631
0.0112124
0.0110567
0.0108959
0.0107301
0.0105593
0.0103838
0.0102035
0.0100187
0.00982968
0.00963686
0.00944038
0.009241
0.0090386
0.00883477
0.00862781
0.00842295
0.0082105
0.0080125
0.00778215
0.0076151
0.0109117
0.0121876
0.0122641
0.0124342
0.0124649
0.0124246
0.0123546
0.0122624
0.0121562
0.0120403
0.0119168
0.0117869
0.0116513
0.0115104
0.0113644
0.0112132
0.011057
0.0108957
0.0107296
0.0105584
0.0103825
0.0102018
0.0100168
0.00982754
0.00963453
0.0094379
0.00923843
0.00903607
0.00883232
0.0086258
0.00842122
0.00821052
0.00801193
0.00778741
0.00760686
0.0108371
0.0122136
0.0122756
0.0124539
0.012481
0.0124382
0.0123658
0.0122717
0.0121641
0.0120469
0.0119225
0.0117918
0.0116556
0.0115141
0.0113676
0.011216
0.0110596
0.010898
0.0107316
0.0105602
0.0103841
0.0102033
0.0100182
0.00982883
0.00963579
0.00943913
0.00923971
0.0090374
0.00883384
0.00862752
0.00842361
0.00821378
0.00801957
0.00779983
0.00765485
0.0125359
0.0128739
0.0126352
0.0125595
0.0125014
0.0124381
0.0123759
0.0123111
0.0122432
0.0121729
0.0121003
0.0120257
0.0119493
0.0118714
0.0117918
0.0117105
0.0116275
0.0115423
0.0114548
0.0113645
0.011271
0.0111737
0.0110722
0.0109656
0.0108536
0.0107352
0.0106101
0.0104774
0.0103369
0.0101873
0.0100299
0.00986173
0.00968959
0.00950122
0.00932878
0.0125036
0.0128332
0.0126051
0.0125346
0.0124801
0.0124189
0.0123574
0.0122919
0.0122224
0.0121495
0.0120736
0.011995
0.011914
0.0118307
0.0117453
0.0116576
0.0115676
0.011475
0.0113796
0.0112809
0.0111787
0.0110723
0.0109615
0.0108454
0.0107239
0.010596
0.0104617
0.0103198
0.0101706
0.0100125
0.0098473
0.00966944
0.00948973
0.00928087
0.0091006
0.0124683
0.0127915
0.0125737
0.012509
0.0124583
0.0123992
0.0123381
0.0122715
0.0121999
0.0121238
0.0120439
0.0119604
0.0118739
0.0117845
0.0116923
0.0115972
0.0114992
0.011398
0.0112934
0.011185
0.0110726
0.0109554
0.0108334
0.0107058
0.0105724
0.0104324
0.0102859
0.0101318
0.00997066
0.00980073
0.00962481
0.00943638
0.00924968
0.00903333
0.0088556
0.0124262
0.0127466
0.0125413
0.012484
0.0124381
0.0123819
0.0123217
0.0122546
0.0121812
0.0121024
0.012019
0.0119315
0.0118403
0.0117455
0.0116475
0.0115462
0.0114414
0.011333
0.0112209
0.0111046
0.0109839
0.0108583
0.0107277
0.0105913
0.0104492
0.0103006
0.0101457
0.00998347
0.00981467
0.00963735
0.00945478
0.00925943
0.00906727
0.00884233
0.00866109
0.012387
0.012699
0.0125088
0.0124598
0.012419
0.0123658
0.0123064
0.0122386
0.0121632
0.0120816
0.0119945
0.0119026
0.0118064
0.0117062
0.0116022
0.0114944
0.0113827
0.011267
0.0111471
0.0110227
0.0108937
0.0107594
0.01062
0.0104747
0.0103236
0.0101661
0.0100024
0.00983161
0.00965469
0.00946963
0.00928023
0.00907839
0.00888195
0.00865202
0.00847224
0.0123366
0.0126482
0.0124755
0.0124363
0.0124018
0.0123521
0.0122938
0.0122254
0.0121483
0.0120639
0.0119734
0.0118775
0.0117768
0.0116716
0.0115622
0.0114486
0.0113308
0.0112086
0.0110819
0.0109505
0.0108143
0.0106727
0.0105259
0.0103732
0.0102149
0.0100503
0.00987982
0.00970264
0.00951976
0.00932922
0.00913508
0.00892873
0.00872927
0.00849498
0.00831534
0.0122848
0.0125944
0.0124421
0.0124142
0.0123866
0.0123406
0.0122834
0.0122144
0.0121354
0.0120483
0.0119543
0.0118543
0.0117491
0.011639
0.0115243
0.011405
0.0112813
0.0111529
0.0110198
0.0108817
0.0107386
0.0105901
0.0104363
0.0102767
0.0101116
0.00994037
0.00976352
0.00958035
0.00939198
0.0091964
0.00899803
0.0087878
0.00858614
0.00834885
0.00817108
0.0122253
0.0125379
0.0124096
0.0123944
0.0123744
0.0123321
0.012276
0.0122062
0.0121254
0.0120355
0.0119381
0.0118344
0.011725
0.0116103
0.0114908
0.0113664
0.0112373
0.0111032
0.0109644
0.0108204
0.0106713
0.0105168
0.010357
0.0101916
0.0100208
0.00984414
0.00966221
0.00947433
0.00928177
0.00908246
0.00888112
0.00866818
0.0084653
0.00822575
0.00805006
0.0121587
0.0124805
0.0123785
0.0123773
0.0123655
0.0123271
0.0122719
0.0122014
0.0121186
0.0120261
0.0119256
0.0118183
0.0117051
0.0115864
0.0114625
0.0113336
0.0111998
0.0110609
0.010917
0.0107679
0.0106137
0.0104541
0.0102892
0.0101189
0.0099433
0.00976219
0.00957608
0.00938439
0.00918847
0.00898621
0.0087826
0.00856763
0.00836404
0.00812285
0.00794937
0.0120944
0.0124288
0.0123531
0.0123654
0.0123609
0.0123255
0.0122708
0.0121993
0.0121146
0.0120196
0.0119163
0.0118059
0.0116894
0.0115672
0.0114397
0.011307
0.0111692
0.0110263
0.0108783
0.0107251
0.0105667
0.010403
0.0102341
0.0100599
0.00988062
0.00969606
0.0095068
0.00931229
0.00911398
0.00890969
0.00870463
0.00848839
0.00828463
0.00804232
0.00787106
0.0120151
0.0123748
0.0123278
0.0123555
0.0123591
0.0123267
0.0122723
0.0121997
0.0121131
0.0120157
0.0119096
0.0117963
0.0116767
0.0115513
0.0114205
0.0112844
0.0111432
0.0109967
0.0108451
0.0106883
0.0105263
0.010359
0.0101867
0.0100091
0.0098267
0.00963925
0.00944739
0.00925061
0.0090504
0.00884455
0.00863846
0.00842133
0.00821769
0.00797462
0.0078056
0.0119376
0.0123269
0.0123079
0.0123504
0.012361
0.0123305
0.0122759
0.012202
0.0121132
0.0120135
0.0119049
0.0117889
0.0116665
0.0115383
0.0114046
0.0112655
0.0111213
0.0109718
0.0108171
0.0106572
0.0104921
0.0103219
0.0101466
0.00996636
0.00978141
0.00959164
0.00939774
0.00919922
0.00899763
0.00879071
0.00858404
0.00836643
0.00816319
0.00791966
0.00775286
0.0118399
0.012279
0.0122892
0.0123482
0.0123662
0.0123374
0.0122823
0.0122066
0.0121157
0.0120135
0.0119024
0.0117839
0.011659
0.0115282
0.0113919
0.0112502
0.0111033
0.0109511
0.0107938
0.0106312
0.0104635
0.0102908
0.0101131
0.00993055
0.00974349
0.00955184
0.00935631
0.00915645
0.00895384
0.00874621
0.00853925
0.0083215
0.00811885
0.0078752
0.00771054
0.0117423
0.0122394
0.0122753
0.0123501
0.012374
0.0123457
0.0122897
0.0122122
0.012119
0.0120145
0.0119012
0.0117804
0.0116532
0.0115202
0.0113817
0.0112377
0.0110886
0.0109342
0.0107746
0.0106098
0.01044
0.0102652
0.0100855
0.00990111
0.00971237
0.00951925
0.00932247
0.00912163
0.00891835
0.00871033
0.00850336
0.00828575
0.00808381
0.00784033
0.00767754
0.0116253
0.0122051
0.0122653
0.0123571
0.0123861
0.0123575
0.0122998
0.01222
0.0121244
0.0120176
0.011902
0.0117791
0.0116498
0.0115147
0.0113742
0.0112283
0.0110772
0.0109209
0.0107594
0.0105928
0.0104212
0.0102446
0.0100633
0.00987743
0.00968733
0.00949305
0.00929532
0.00909378
0.00889008
0.00868194
0.00847516
0.00825803
0.00805694
0.00781426
0.00765326
0.0115009
0.0121798
0.0122573
0.0123654
0.0123983
0.0123689
0.0123095
0.0122275
0.0121296
0.0120207
0.0119031
0.0117783
0.0116474
0.0115106
0.0113685
0.011221
0.0110683
0.0109104
0.0107474
0.0105793
0.0104063
0.0102284
0.0100458
0.00985878
0.00966765
0.00947251
0.00927409
0.0090721
0.00886818
0.00866013
0.00845369
0.00823728
0.00803689
0.00779529
0.00763488
0.0113663
0.0121674
0.0122576
0.0123819
0.0124162
0.0123843
0.0123221
0.0122372
0.0121368
0.0120257
0.0119061
0.0117796
0.011647
0.0115087
0.0113651
0.0112163
0.0110623
0.0109031
0.0107389
0.0105696
0.0103955
0.0102165
0.0100329
0.00984497
0.00965304
0.00945726
0.00925836
0.0090561
0.00885212
0.00864435
0.00843839
0.00822309
0.00802361
0.00778468
0.00762488
0.0112146
0.0121623
0.0122542
0.0123951
0.0124306
0.0123967
0.0123322
0.0122449
0.0121425
0.0120296
0.0119085
0.0117806
0.0116469
0.0115075
0.0113629
0.011213
0.0110581
0.010898
0.0107329
0.0105628
0.0103878
0.010208
0.0100238
0.00983518
0.00964272
0.00944653
0.00924731
0.00904494
0.00884099
0.00863361
0.00842809
0.0082141
0.00801474
0.00777854
0.0076141
0.0110678
0.0121788
0.0122645
0.012418
0.0124506
0.0124129
0.0123452
0.012255
0.0121503
0.0120356
0.011913
0.0117838
0.011649
0.0115086
0.0113631
0.0112124
0.0110567
0.0108959
0.0107302
0.0105594
0.0103838
0.0102035
0.0100188
0.00982973
0.00963691
0.00944043
0.00924105
0.00903866
0.00883483
0.00862788
0.008423
0.00821058
0.00801254
0.00778227
0.0076153
0.0109137
0.0121871
0.0122644
0.0124344
0.0124651
0.0124248
0.0123547
0.0122626
0.0121564