/*--------------------------------*- C++ -*----------------------------------*\
  =========                 |
  \\      /  F ield         | OpenFOAM: The Open Source CFD Toolbox
   \\    /   O peration     | Website:  https://openfoam.org
    \\  /    A nd           | Version:  6
     \\/     M anipulation  |
\*---------------------------------------------------------------------------*/
FoamFile
{
    version     2.0;
    format      ascii;
    class       volVectorField;
    location    "22";
    object      wallShearStress;
}
// * * * * * * * * * * * * * * * * * * * * * * * * * * * * * * * * * * * * * //

dimensions      [0 2 -2 0 0 0 0];

internalField   uniform (0 0 0);

boundaryField
{
    inlet
    {
        type            calculated;
        value           uniform (0 0 0);
    }
    outlet
    {
        type            calculated;
        value           uniform (0 0 0);
    }
    roughCylinder
    {
        type            calculated;
        value           nonuniform List<vector> 
3840
(
(-0.000102009 -0.000131211 -5.79032e-05)
(-0.000191935 -0.000325623 -4.31557e-05)
(-0.00028074 -0.00048287 3.26861e-05)
(-0.00034178 -0.000549917 9.15431e-05)
(-0.000408789 -0.000594743 0.000142137)
(-0.000454453 -0.000595087 0.000174808)
(-0.000494077 -0.000587187 0.000196803)
(-0.000518671 -0.000570316 0.000208924)
(-0.000542882 -0.000563401 0.000219304)
(-0.000556965 -0.000556525 0.000223502)
(-0.000569665 -0.000555955 0.000223995)
(-0.00057441 -0.000553538 0.000218486)
(-0.000578747 -0.000554643 0.000210046)
(-0.00057633 -0.000552002 0.000196926)
(-0.000579217 -0.000555756 0.000183449)
(-0.000569912 -0.000549548 0.000164875)
(-0.000560317 -0.000542572 0.000145735)
(-0.000581197 -0.000564052 0.000132974)
(-0.000576017 -0.000562201 0.00011341)
(-0.000579619 -0.00056819 9.50588e-05)
(-0.000586455 -0.000576478 7.63325e-05)
(-0.000576929 -0.00056946 5.50629e-05)
(-0.000577711 -0.000571735 3.40071e-05)
(-0.00057069 -0.000566101 1.14327e-05)
(-0.00012906 -0.00014778 -6.34567e-05)
(-0.000207104 -0.000318369 -4.92674e-05)
(-0.000299404 -0.000475464 2.41631e-05)
(-0.000363963 -0.000547894 8.34408e-05)
(-0.000434229 -0.000596663 0.000134627)
(-0.00048237 -0.00060038 0.000168065)
(-0.000525505 -0.000596762 0.000191307)
(-0.000555056 -0.000584919 0.000205935)
(-0.000580444 -0.000577113 0.000217402)
(-0.000594209 -0.000567303 0.000221804)
(-0.000606826 -0.000565302 0.000222359)
(-0.000612993 -0.000563574 0.000217545)
(-0.000618086 -0.000565117 0.000209534)
(-0.00061613 -0.000563004 0.000196863)
(-0.00062008 -0.000567502 0.000183792)
(-0.000612715 -0.000563575 0.000166025)
(-0.00060347 -0.000557577 0.0001472)
(-0.000624394 -0.000578205 0.00013413)
(-0.00062129 -0.000578552 0.000114949)
(-0.000628256 -0.00058755 9.69163e-05)
(-0.000633067 -0.000593823 7.76077e-05)
(-0.000622246 -0.000586159 5.59854e-05)
(-0.000622093 -0.00058764 3.45477e-05)
(-0.000615411 -0.000582724 1.16325e-05)
(-0.000113067 -0.000113572 -4.57738e-05)
(-0.000220083 -0.000303752 -5.49099e-05)
(-0.000318145 -0.000463031 1.4738e-05)
(-0.000385526 -0.000539748 7.39816e-05)
(-0.000458125 -0.000591366 0.000125376)
(-0.000510155 -0.000600679 0.000160185)
(-0.00055743 -0.000602243 0.000185175)
(-0.000589264 -0.000592873 0.000201383)
(-0.000619605 -0.000588735 0.000215147)
(-0.00063662 -0.000579001 0.000220899)
(-0.000650161 -0.000576316 0.000221991)
(-0.000656653 -0.000573957 0.00021741)
(-0.000661853 -0.000575162 0.000209575)
(-0.000660964 -0.00057399 0.000197494)
(-0.000665094 -0.000578357 0.000184524)
(-0.000657497 -0.000574647 0.000166931)
(-0.00064741 -0.000568601 0.000148179)
(-0.000666741 -0.000586946 0.000134574)
(-0.000665235 -0.000588881 0.000115759)
(-0.000674944 -0.000600018 9.80323e-05)
(-0.000678729 -0.000605374 7.84536e-05)
(-0.000670103 -0.000600321 5.69045e-05)
(-0.000670265 -0.000602238 3.51607e-05)
(-0.000664705 -0.000598741 1.18695e-05)
(-0.00013789 -0.000120435 -4.34838e-05)
(-0.000232231 -0.000286329 -6.04554e-05)
(-0.000333886 -0.00044427 4.63467e-06)
(-0.000404651 -0.000526035 6.33946e-05)
(-0.00048122 -0.000582795 0.000115243)
(-0.000536974 -0.000597636 0.000151439)
(-0.00058814 -0.0006042 0.000178298)
(-0.000625611 -0.000600689 0.00019728)
(-0.000657065 -0.00059648 0.000211815)
(-0.000674805 -0.000585312 0.000218167)
(-0.000688707 -0.000580706 0.000219615)
(-0.000696743 -0.000578622 0.000215719)
(-0.000703489 -0.000580551 0.000208591)
(-0.00070352 -0.000580017 0.000197093)
(-0.000708611 -0.000584885 0.000184527)
(-0.000702437 -0.000582793 0.000167603)
(-0.000694207 -0.000579017 0.000149567)
(-0.000712896 -0.000596089 0.000135651)
(-0.000713574 -0.000599996 0.000117197)
(-0.000726902 -0.000613787 9.97691e-05)
(-0.000728443 -0.000617392 7.96904e-05)
(-0.000718656 -0.000611967 5.78224e-05)
(-0.000717689 -0.000613136 3.57048e-05)
(-0.000712634 -0.00061046 1.20698e-05)
(-0.000169444 -0.000127289 -3.87007e-05)
(-0.000241016 -0.000264209 -6.50637e-05)
(-0.000347223 -0.000421183 -5.73088e-06)
(-0.000420869 -0.000507276 5.18983e-05)
(-0.000499673 -0.00056721 0.000103578)
(-0.000560374 -0.000589138 0.000141342)
(-0.000616788 -0.000602153 0.000170494)
(-0.00065645 -0.000601145 0.000191197)
(-0.000692738 -0.000600486 0.000207717)
(-0.000715324 -0.000592172 0.000216029)
(-0.00073189 -0.000586884 0.000218469)
(-0.000740652 -0.000583979 0.000215071)
(-0.000747696 -0.000585287 0.000208247)
(-0.000749653 -0.000585948 0.000197551)
(-0.000754746 -0.000590506 0.000185119)
(-0.000747611 -0.000588091 0.000168284)
(-0.000740232 -0.000585635 0.00015073)
(-0.000756218 -0.000599992 0.000136233)
(-0.000758248 -0.000605098 0.000118066)
(-0.000773967 -0.000620323 0.00010085)
(-0.00077437 -0.000623323 8.05614e-05)
(-0.000767052 -0.000620564 5.87609e-05)
(-0.000766563 -0.000622412 3.63475e-05)
(-0.000762701 -0.000621085 1.23134e-05)
(-0.000134587 -8.59472e-05 -1.97125e-05)
(-0.000247091 -0.000239318 -6.85728e-05)
(-0.000355589 -0.000391919 -1.61149e-05)
(-0.000432324 -0.000482528 3.94879e-05)
(-0.000515994 -0.000548771 9.11626e-05)
(-0.000581606 -0.000577475 0.000130406)
(-0.000641891 -0.000595273 0.000161452)
(-0.000687895 -0.000600384 0.000185021)
(-0.000726379 -0.000600823 0.000202818)
(-0.000749082 -0.000591673 0.000211628)
(-0.000768052 -0.00058617 0.00021511)
(-0.0007789 -0.000582627 0.000212686)
(-0.000788279 -0.000584647 0.000206855)
(-0.000791641 -0.000585873 0.000196873)
(-0.000797481 -0.000590698 0.000184891)
(-0.000791238 -0.000589452 0.000168691)
(-0.000787474 -0.000590257 0.00015218)
(-0.000802216 -0.000603316 0.000137424)
(-0.000806276 -0.000610073 0.000119569)
(-0.000824947 -0.000626981 0.000102529)
(-0.000823216 -0.000628976 8.18474e-05)
(-0.00081477 -0.000626207 5.97379e-05)
(-0.000813005 -0.000627596 3.69433e-05)
(-0.000809556 -0.000627085 1.25283e-05)
(-0.000151965 -8.13408e-05 -1.05348e-05)
(-0.000250582 -0.000212774 -7.10755e-05)
(-0.00036069 -0.000359988 -2.61473e-05)
(-0.000440132 -0.000454455 2.65166e-05)
(-0.000525825 -0.000524094 7.73787e-05)
(-0.000596929 -0.000560017 0.000117965)
(-0.000663677 -0.000584694 0.000151358)
(-0.000712335 -0.000592327 0.00017669)
(-0.00075556 -0.000596092 0.000196491)
(-0.000784574 -0.00059113 0.000207633)
(-0.000807147 -0.000586846 0.000212548)
(-0.000820567 -0.000582982 0.000211266)
(-0.000830669 -0.000583647 0.000206022)
(-0.000836553 -0.000585664 0.000196983)
(-0.000842334 -0.000590101 0.000185283)
(-0.000835009 -0.000588642 0.000169316)
(-0.000832815 -0.000591124 0.000153431)
(-0.000844187 -0.000601842 0.000138193)
(-0.000849235 -0.000609703 0.000120588)
(-0.000869038 -0.000627141 0.000103615)
(-0.000866037 -0.000629116 8.27847e-05)
(-0.000859753 -0.000628881 6.07007e-05)
(-0.000858469 -0.000631274 3.76171e-05)
(-0.000855911 -0.00063195 1.27767e-05)
(-0.000147452 -6.48981e-05 2.22544e-07)
(-0.000248374 -0.00018341 -7.15232e-05)
(-0.000358809 -0.000322831 -3.5235e-05)
(-0.000440159 -0.000420051 1.30062e-05)
(-0.000531373 -0.000496748 6.28171e-05)
(-0.000608582 -0.000540035 0.000104666)
(-0.000679281 -0.000568809 0.000139684)
(-0.000735273 -0.000582471 0.000167742)
(-0.000782316 -0.000588552 0.000189322)
(-0.000811493 -0.000583155 0.000201325)
(-0.000836493 -0.000579583 0.000207512)
(-0.000852989 -0.000576481 0.000207656)
(-0.000867009 -0.000578021 0.000203912)
(-0.000875026 -0.00058033 0.000195889)
(-0.000881585 -0.000584934 0.000184865)
(-0.000875302 -0.000584807 0.000169711)
(-0.000876675 -0.000590197 0.000154845)
(-0.000886618 -0.00060032 0.000139521)
(-0.000893058 -0.000609597 0.000122162)
(-0.000913839 -0.000627491 0.000105152)
(-0.000908723 -0.000628965 8.40054e-05)
(-0.000900993 -0.00062851 6.16074e-05)
(-0.000898057 -0.00063031 3.81646e-05)
(-0.000895491 -0.00063141 1.29672e-05)
(-0.000152122 -5.38033e-05 9.99631e-06)
(-0.000244072 -0.000154695 -7.09742e-05)
(-0.000352683 -0.000284461 -4.31935e-05)
(-0.000435656 -0.000383653 -5.06947e-07)
(-0.000528188 -0.000463613 4.71361e-05)
(-0.000610925 -0.000513562 8.97003e-05)
(-0.000689575 -0.000549339 0.000126791)
(-0.000749315 -0.000565615 0.000156539)
(-0.000801191 -0.00057467 0.000180057)
(-0.000838445 -0.000574546 0.000194969)
(-0.000867802 -0.000573034 0.000203094)
(-0.000886993 -0.000570539 0.000204694)
(-0.000902429 -0.00057163 0.000201976)
(-0.0009134 -0.000574933 0.000195254)
(-0.000920174 -0.000579428 0.000184869)
(-0.000913194 -0.000579487 0.000170217)
(-0.000914907 -0.000585388 0.000155782)
(-0.00092151 -0.000593751 0.000140184)
(-0.000928016 -0.000603276 0.000122959)
(-0.000947598 -0.000619974 0.000105786)
(-0.000941406 -0.000621705 8.46116e-05)
(-0.000935652 -0.000623313 6.22929e-05)
(-0.000933446 -0.000626176 3.86813e-05)
(-0.000931562 -0.000628133 1.31566e-05)
(-0.000159567 -4.39162e-05 1.98434e-05)
(-0.0002343 -0.000124626 -6.76733e-05)
(-0.000338348 -0.000242845 -4.94765e-05)
(-0.000420455 -0.000340799 -1.3535e-05)
(-0.000517958 -0.000427373 3.09259e-05)
(-0.000607948 -0.000485178 7.3896e-05)
(-0.000690771 -0.000524377 0.000112127)
(-0.000759024 -0.000546281 0.000144269)
(-0.000816829 -0.000558554 0.000169885)
(-0.000854623 -0.000558288 0.000186042)
(-0.000886838 -0.000558 0.000195934)
(-0.000909389 -0.000556792 0.000199361)
(-0.000928827 -0.000559294 0.000198455)
(-0.000941592 -0.000562961 0.000192947)
(-0.00094916 -0.000567834 0.000183522)
(-0.000943541 -0.000569355 0.000169902)
(-0.000947568 -0.000576932 0.000156331)
(-0.000953673 -0.000585461 0.000140989)
(-0.000961083 -0.000595637 0.000123996)
(-0.000979834 -0.000611368 0.000106687)
(-0.000971883 -0.000613006 8.53936e-05)
(-0.000964457 -0.000614248 6.28698e-05)
(-0.00096023 -0.000616358 3.90236e-05)
(-0.000957895 -0.000618384 1.3271e-05)
(-0.000164892 -3.31916e-05 2.95813e-05)
(-0.000226266 -9.85657e-05 -6.36883e-05)
(-0.000319169 -0.000201501 -5.38104e-05)
(-0.000400167 -0.000297324 -2.55214e-05)
(-0.000497068 -0.000386031 1.44144e-05)
(-0.000591657 -0.000449557 5.65138e-05)
(-0.000684153 -0.000496228 9.61275e-05)
(-0.000757847 -0.000520863 0.000129825)
(-0.000820793 -0.000535236 0.000157203)
(-0.000868563 -0.000540726 0.000176606)
(-0.000906281 -0.000543136 0.000189015)
(-0.000932023 -0.000543048 0.00019443)
(-0.000952745 -0.000545385 0.000194915)
(-0.000967977 -0.000549865 0.000190883)
(-0.00097584 -0.00055492 0.00018242)
(-0.000969759 -0.000556859 0.000169543)
(-0.000972213 -0.000563836 0.000156255)
(-0.000975703 -0.000571276 0.000140979)
(-0.000982108 -0.000580812 0.000124084)
(-0.000997622 -0.000594187 0.000106565)
(-0.000988675 -0.000596265 8.54476e-05)
(-0.000982709 -0.000599082 6.31179e-05)
(-0.000979142 -0.000602163 3.92778e-05)
(-0.000977176 -0.000604777 1.33675e-05)
(-0.000179178 -2.33429e-05 4.15582e-05)
(-0.000209795 -7.28886e-05 -5.64733e-05)
(-0.000293104 -0.000159887 -5.51193e-05)
(-0.00036747 -0.000248777 -3.51976e-05)
(-0.000466384 -0.000341274 -1.56542e-06)
(-0.000568506 -0.000412721 3.86827e-05)
(-0.000664999 -0.000462714 7.83212e-05)
(-0.000748649 -0.000492945 0.000113956)
(-0.000820326 -0.000510824 0.000143705)
(-0.000869256 -0.000515703 0.000164547)
(-0.000910144 -0.000519341 0.000179075)
(-0.000939755 -0.000520889 0.000186839)
(-0.000964532 -0.000524799 0.000189527)
(-0.000981164 -0.000529592 0.000186992)
(-0.000989616 -0.000535104 0.000179779)
(-0.000984668 -0.000538459 0.000168103)
(-0.000987764 -0.000546243 0.000155609)
(-0.000991517 -0.000554249 0.000140918)
(-0.000997629 -0.000563557 0.000124238)
(-0.00101075 -0.000575224 0.000106623)
(-0.00100002 -0.000577382 8.56025e-05)
(-0.000991907 -0.000579617 6.32133e-05)
(-0.000985626 -0.000581677 3.93092e-05)
(-0.000982598 -0.000584015 1.33691e-05)
(-0.000200911 -1.22897e-05 5.69561e-05)
(-0.000201647 -5.4074e-05 -5.11529e-05)
(-0.00026219 -0.000120406 -5.30599e-05)
(-0.000329955 -0.000201677 -4.19937e-05)
(-0.000424363 -0.000292718 -1.60828e-05)
(-0.000528022 -0.000367859 2.02836e-05)
(-0.000635361 -0.000426339 5.94308e-05)
(-0.000726109 -0.000460361 9.6001e-05)
(-0.000803746 -0.000479729 0.000127478)
(-0.000864901 -0.000489713 0.000151825)
(-0.000912634 -0.000495639 0.000169264)
(-0.000945654 -0.000498407 0.000179438)
(-0.00097141 -0.000502264 0.000183981)
(-0.000989775 -0.000507602 0.000183206)
(-0.000998199 -0.000513358 0.000177275)
(-0.000992283 -0.000517173 0.000166516)
(-0.000992129 -0.000523896 0.000154288)
(-0.000993284 -0.000530807 0.000139875)
(-0.000996767 -0.000538586 0.000123234)
(-0.00100511 -0.000547515 0.000105471)
(-0.000993005 -0.000550143 8.48469e-05)
(-0.00098551 -0.000553452 6.28136e-05)
(-0.000979505 -0.000556409 3.91593e-05)
(-0.000976481 -0.000559215 1.33244e-05)
(-0.000206791 1.51698e-06 6.92657e-05)
(-0.000178821 -3.54122e-05 -4.22569e-05)
(-0.000229208 -8.54553e-05 -4.78397e-05)
(-0.000281014 -0.000152787 -4.39731e-05)
(-0.000370998 -0.000241093 -2.78576e-05)
(-0.000480576 -0.00032298 2.76286e-06)
(-0.000589968 -0.000384325 3.95221e-05)
(-0.000691346 -0.000424901 7.65434e-05)
(-0.000780702 -0.000449466 0.000110348)
(-0.000844234 -0.000458144 0.000136633)
(-0.000895606 -0.00046407 0.000156482)
(-0.000932907 -0.00046771 0.000169336)
(-0.000962446 -0.000472852 0.000176387)
(-0.000981536 -0.000478357 0.00017742)
(-0.000989765 -0.000484471 0.000172988)
(-0.000983989 -0.000489596 0.000163532)
(-0.000983237 -0.000496966 0.000152142)
(-0.000984452 -0.00050433 0.000138487)
(-0.000985953 -0.000511517 0.000122036)
(-0.000991097 -0.000519188 0.000104373)
(-0.000976614 -0.000521902 8.40908e-05)
(-0.00096619 -0.000524343 6.21909e-05)
(-0.000956493 -0.000526025 3.87169e-05)
(-0.000951707 -0.000528291 1.31555e-05)
(-0.000211269 1.57457e-05 8.14517e-05)
(-0.000175608 -2.40087e-05 -3.81919e-05)
(-0.00019067 -5.50003e-05 -3.88895e-05)
(-0.000230421 -0.00010874 -4.13791e-05)
(-0.000308791 -0.000188551 -3.55997e-05)
(-0.000412648 -0.000269398 -1.29146e-05)
(-0.00053306 -0.000339929 1.98513e-05)
(-0.000641939 -0.00038557 5.59118e-05)
(-0.000736853 -0.000412482 9.06053e-05)
(-0.000815034 -0.000427147 0.000120563)
(-0.000874771 -0.000435147 0.000143813)
(-0.000915796 -0.000438957 0.000159518)
(-0.000945751 -0.000443324 0.000168687)
(-0.000965546 -0.000448856 0.000171688)
(-0.000972723 -0.000455058 0.000168748)
(-0.00096475 -0.000460585 0.000160288)
(-0.000959549 -0.000467047 0.000149212)
(-0.000956834 -0.000472886 0.000135847)
(-0.000953876 -0.000478546 0.000119433)
(-0.000953267 -0.000483879 0.000101821)
(-0.000936617 -0.000486758 8.21901e-05)
(-0.000925724 -0.000489593 6.08623e-05)
(-0.000915815 -0.000491977 3.79734e-05)
(-0.000910639 -0.000494427 1.29013e-05)
(-0.000210963 2.94871e-05 9.13585e-05)
(-0.000150096 -1.27446e-05 -2.97858e-05)
(-0.000155914 -3.28373e-05 -2.87829e-05)
(-0.000171581 -6.74044e-05 -3.26225e-05)
(-0.000235945 -0.000134676 -3.73186e-05)
(-0.000341529 -0.000218533 -2.54644e-05)
(-0.000458446 -0.000289287 1.14806e-06)
(-0.000577356 -0.000342236 3.49705e-05)
(-0.000686027 -0.000376807 7.07572e-05)
(-0.000766213 -0.000391539 0.000102406)
(-0.00082968 -0.000399829 0.000128309)
(-0.000875246 -0.000404339 0.000146994)
(-0.000908602 -0.000409575 0.000158889)
(-0.00092816 -0.000414834 0.00016387)
(-0.000933806 -0.000421022 0.000162523)
(-0.00092475 -0.000427426 0.00015537)
(-0.000918097 -0.000434438 0.000145173)
(-0.00091426 -0.000440301 0.000132593)
(-0.000907463 -0.000445136 0.000116338)
(-0.000903493 -0.000449548 9.90778e-05)
(-0.000883532 -0.000452091 8.00549e-05)
(-0.000868636 -0.000453527 5.91163e-05)
(-0.000853824 -0.000454045 3.67664e-05)
(-0.000846247 -0.000455434 1.24565e-05)
(-0.000201883 3.99552e-05 9.49923e-05)
(-0.000159819 -6.80194e-06 -2.87805e-05)
(-0.000106088 -1.53771e-05 -1.57058e-05)
(-0.000116376 -3.53144e-05 -2.05506e-05)
(-0.000163743 -8.63289e-05 -3.31694e-05)
(-0.000248618 -0.000158269 -3.19791e-05)
(-0.000375261 -0.000237706 -1.49222e-05)
(-0.000500037 -0.000295938 1.49625e-05)
(-0.000611742 -0.000333105 4.99899e-05)
(-0.000707271 -0.000356057 8.43711e-05)
(-0.000779311 -0.000368045 0.000113514)
(-0.000828108 -0.000373456 0.000135028)
(-0.000860815 -0.000377938 0.000149042)
(-0.000879736 -0.000382993 0.000156025)
(-0.000882899 -0.000388997 0.000156187)
(-0.000870355 -0.000395129 0.000149932)
(-0.000858229 -0.000400653 0.000139948)
(-0.000847899 -0.000404028 0.000127439)
(-0.000834787 -0.000406906 0.000111165)
(-0.000824443 -0.000408781 9.41529e-05)
(-0.000801409 -0.000410545 7.61329e-05)
(-0.000785051 -0.000411528 5.61704e-05)
(-0.000770169 -0.00041242 3.49888e-05)
(-0.000761963 -0.000413489 1.1836e-05)
(-0.000185742 4.55154e-05 9.04341e-05)
(-0.000132531 -1.67946e-06 -2.17487e-05)
(-9.20708e-05 -8.87706e-06 -8.61482e-06)
(-5.85682e-05 -1.16019e-05 -6.98482e-06)
(-8.07543e-05 -3.83678e-05 -1.9646e-05)
(-0.000165373 -0.000107148 -3.36021e-05)
(-0.000275282 -0.000178759 -2.65039e-05)
(-0.000407396 -0.000244171 -2.53345e-06)
(-0.000533707 -0.000291389 3.15004e-05)
(-0.000627692 -0.000314966 6.62016e-05)
(-0.000701055 -0.00032875 9.67999e-05)
(-0.00075293 -0.000336415 0.000120482)
(-0.000787965 -0.000342463 0.000136801)
(-0.000805144 -0.000347415 0.000145492)
(-0.000804952 -0.000352973 0.000146993)
(-0.000790078 -0.000358949 0.000141822)
(-0.000775914 -0.000364107 0.000132627)
(-0.00076349 -0.00036696 0.000120917)
(-0.000745661 -0.000368528 0.000104831)
(-0.000732936 -0.000369494 8.8549e-05)
(-0.000706408 -0.000369783 7.1565e-05)
(-0.000685393 -0.000368356 5.24547e-05)
(-0.000664647 -0.000366193 3.24218e-05)
(-0.000653828 -0.000365607 1.09061e-05)
(-0.000172473 4.67443e-05 8.06641e-05)
(-0.0001415 8.20138e-07 -2.12266e-05)
(-8.33278e-05 -5.13279e-06 -2.33889e-06)
(-4.27107e-05 -3.45963e-06 3.95354e-07)
(-2.8964e-05 -1.19805e-05 -7.29146e-06)
(-5.96379e-05 -4.2007e-05 -1.99625e-05)
(-0.000179169 -0.000122685 -3.25931e-05)
(-0.000310504 -0.000191472 -1.53384e-05)
(-0.000432245 -0.00023979 1.59171e-05)
(-0.000540247 -0.000273891 5.08989e-05)
(-0.000619785 -0.00029303 8.25674e-05)
(-0.000672184 -0.000302723 0.00010734)
(-0.0007044 -0.000308825 0.000124638)
(-0.000719022 -0.000313822 0.000134617)
(-0.000715039 -0.000318858 0.000137177)
(-0.00069597 -0.000323587 0.000132555)
(-0.000675603 -0.00032608 0.000123284)
(-0.000653955 -0.000324815 0.000111212)
(-0.000629042 -0.000323418 9.50958e-05)
(-0.000609806 -0.000320725 7.93222e-05)
(-0.000579889 -0.000318557 6.38938e-05)
(-0.000557322 -0.000315669 4.65555e-05)
(-0.000538034 -0.000313759 2.87605e-05)
(-0.000526917 -0.000312433 9.62785e-06)
(-0.000160646 4.4845e-05 6.67449e-05)
(-0.000120001 2.10183e-06 -1.65964e-05)
(-7.66625e-05 -2.09602e-06 3.43831e-06)
(-2.9458e-05 3.13855e-06 7.9422e-06)
(-4.2611e-06 4.28241e-07 -1.19391e-07)
(-9.92403e-06 -1.12691e-05 -1.09651e-05)
(-7.39821e-05 -5.54473e-05 -2.48333e-05)
(-0.000204056 -0.000131469 -1.96851e-05)
(-0.000337243 -0.000192852 7.49271e-06)
(-0.000433673 -0.000226167 3.89634e-05)
(-0.000508687 -0.000247509 6.80468e-05)
(-0.000561626 -0.000260645 9.19175e-05)
(-0.00059425 -0.000269067 0.000109462)
(-0.000605384 -0.000274059 0.000119787)
(-0.000596247 -0.000277762 0.000122631)
(-0.000573641 -0.000280856 0.000118389)
(-0.000550758 -0.00028169 0.000109637)
(-0.000528494 -0.000279943 9.86734e-05)
(-0.000500456 -0.000276782 8.3083e-05)
(-0.000481566 -0.000273176 6.87344e-05)
(-0.000449857 -0.000268577 5.50783e-05)
(-0.000423585 -0.000262429 3.94704e-05)
(-0.000398451 -0.00025586 2.38528e-05)
(-0.000385097 -0.000252176 7.87535e-06)
(-0.00014641 4.19555e-05 5.14554e-05)
(-0.000113536 3.82576e-06 -1.48939e-05)
(-6.79903e-05 2.27953e-06 6.76955e-06)
(-1.76916e-05 1.0205e-05 1.02988e-05)
(1.40643e-05 1.16675e-05 7.23814e-07)
(1.42914e-05 7.48498e-06 -5.00409e-06)
(-1.97069e-05 -1.5625e-05 -1.2086e-05)
(-0.000116389 -7.82605e-05 -1.20096e-05)
(-0.000220931 -0.00013358 8.23534e-06)
(-0.000326057 -0.000179973 3.40973e-05)
(-0.000402742 -0.000207636 5.84937e-05)
(-0.000451378 -0.000222361 7.88013e-05)
(-0.000478603 -0.000230668 9.42752e-05)
(-0.000485468 -0.000235282 0.000103884)
(-0.000472454 -0.000237864 0.000106562)
(-0.0004463 -0.000238751 0.000102173)
(-0.00041815 -0.000235853 9.29979e-05)
(-0.000385498 -0.000227605 8.1038e-05)
(-0.000351521 -0.000219677 6.56008e-05)
(-0.000326794 -0.000210398 5.22096e-05)
(-0.000292931 -0.000201352 4.08823e-05)
(-0.000266962 -0.000192969 2.8528e-05)
(-0.000247067 -0.000187244 1.70068e-05)
(-0.000235523 -0.000183203 5.5245e-06)
(-0.000125328 3.772e-05 3.80676e-05)
(-0.000108781 5.99849e-06 -1.38209e-05)
(-6.32374e-05 5.45406e-06 7.31097e-06)
(-9.45839e-06 1.1252e-05 6.53241e-06)
(1.51992e-05 9.5468e-06 4.97931e-06)
(1.41571e-05 1.00307e-05 1.28206e-05)
(-2.51219e-06 -1.57874e-06 9.25224e-06)
(-2.80819e-05 -2.05398e-05 6.13018e-06)
(-0.000132377 -9.02672e-05 2.17791e-05)
(-0.000203679 -0.000127092 3.45128e-05)
(-0.000265697 -0.000153732 4.8132e-05)
(-0.000313704 -0.000172205 6.22413e-05)
(-0.000340421 -0.000182622 7.4203e-05)
(-0.000343443 -0.000186459 8.15081e-05)
(-0.000324794 -0.000185815 8.23173e-05)
(-0.00029503 -0.000182884 7.70117e-05)
(-0.000264983 -0.000176482 6.79975e-05)
(-0.000237734 -0.000168764 5.82649e-05)
(-0.000206586 -0.000159403 4.46214e-05)
(-0.000188231 -0.000150522 3.42398e-05)
(-0.000157742 -0.000139396 2.57804e-05)
(-0.000132218 -0.000127499 1.66453e-05)
(-0.000108808 -0.000114664 8.68928e-06)
(-9.55244e-05 -0.000106684 2.58597e-06)
(-9.92318e-05 3.04484e-05 2.56587e-05)
(-9.80087e-05 6.86922e-06 -1.16523e-05)
(-6.03146e-05 5.14911e-06 8.44668e-06)
(-3.14633e-06 6.95943e-06 1.17392e-05)
(1.06651e-05 7.78058e-06 1.90013e-05)
(1.69173e-05 5.68723e-06 2.74406e-05)
(1.68745e-05 -9.66535e-07 3.64116e-05)
(9.57817e-07 -1.1844e-05 2.75395e-05)
(-2.23238e-05 -2.75974e-05 2.38233e-05)
(-9.10323e-05 -8.02033e-05 3.91758e-05)
(-0.000153209 -0.000112607 4.35667e-05)
(-0.000191368 -0.000128103 4.75534e-05)
(-0.000211174 -0.000136021 5.32206e-05)
(-0.000209945 -0.000137694 5.67393e-05)
(-0.000190609 -0.00013513 5.56721e-05)
(-0.000161216 -0.000129389 4.96457e-05)
(-0.000131374 -0.000118883 4.05424e-05)
(-9.68066e-05 -9.97717e-05 2.8782e-05)
(-6.48785e-05 -8.18782e-05 1.61199e-05)
(-4.45862e-05 -6.16934e-05 8.22316e-06)
(-1.99245e-05 -3.99038e-05 2.8754e-06)
(-5.29914e-06 -2.00873e-05 -1.26496e-08)
(5.40253e-07 -1.57031e-05 -8.80158e-07)
(4.56581e-06 -1.75663e-05 -5.55879e-07)
(-7.05163e-05 2.40907e-05 1.50869e-05)
(-8.98941e-05 8.88097e-06 -1.28957e-05)
(-5.90506e-05 9.53602e-06 6.23118e-06)
(-1.48058e-05 1.65924e-05 1.49915e-05)
(2.22968e-06 1.75955e-05 1.90002e-05)
(2.26398e-05 1.98952e-05 2.87288e-05)
(3.9981e-05 1.38268e-05 3.9893e-05)
(3.23657e-05 1.20642e-06 3.42291e-05)
(2.19749e-05 -8.98611e-06 3.12694e-05)
(5.6925e-06 -2.63692e-05 3.13953e-05)
(-1.45134e-05 -2.77109e-05 1.51207e-05)
(-5.14782e-05 -5.80217e-05 2.09342e-05)
(-7.3632e-05 -7.10133e-05 2.26263e-05)
(-7.27565e-05 -7.12502e-05 2.19274e-05)
(-5.22416e-05 -6.13054e-05 1.65766e-05)
(-2.60199e-05 -4.55758e-05 8.39691e-06)
(-5.24384e-06 -2.05448e-05 8.36127e-07)
(4.00994e-06 -2.05977e-05 -4.17111e-06)
(1.56083e-05 -1.17802e-05 -1.01634e-05)
(1.77837e-05 -5.88653e-06 -1.05922e-05)
(1.67077e-05 2.46716e-06 -7.2557e-06)
(2.75001e-05 1.03186e-05 -8.37251e-06)
(2.1033e-05 1.11454e-05 -3.82915e-06)
(2.51801e-05 1.49289e-05 -1.42102e-06)
(-2.58446e-05 1.42727e-05 9.48668e-06)
(-7.33868e-05 1.11346e-05 -1.74677e-05)
(-6.70671e-05 1.36413e-05 -4.67896e-06)
(-4.05509e-05 2.71612e-05 8.89608e-06)
(-1.66895e-05 4.70983e-05 1.49708e-05)
(1.02224e-05 5.53439e-05 9.06337e-06)
(3.56887e-05 3.8004e-05 1.07129e-05)
(3.5228e-05 1.64825e-05 1.3688e-05)
(4.29969e-05 1.01566e-05 2.34616e-05)
(3.56582e-05 3.79841e-06 2.06074e-05)
(2.55661e-05 -2.95353e-06 1.28303e-05)
(1.67556e-05 -1.25963e-05 5.96836e-06)
(4.85703e-06 -1.21932e-05 -1.05089e-06)
(6.13992e-06 -1.36092e-05 -6.12134e-06)
(1.03845e-05 -6.19784e-06 -8.79533e-06)
(1.68199e-05 2.41834e-07 -1.18628e-05)
(2.77225e-05 7.54385e-06 -1.7035e-05)
(3.25274e-05 1.51127e-05 -1.65356e-05)
(2.40463e-05 1.36934e-05 -9.30429e-06)
(3.32242e-05 2.08035e-05 -1.10604e-05)
(2.45035e-05 1.54187e-05 -5.94877e-06)
(3.40073e-05 2.09758e-05 -5.75149e-06)
(3.88098e-05 2.29169e-05 -4.16473e-06)
(2.59255e-05 1.4803e-05 -8.93921e-07)
(5.26984e-06 1.37253e-05 2.02927e-05)
(-4.09915e-05 1.40759e-05 -1.93843e-05)
(-6.06437e-05 1.44639e-05 -1.61372e-05)
(-5.48639e-05 2.52637e-05 -5.72148e-06)
(-3.71727e-05 5.04846e-05 -1.89387e-06)
(1.01939e-06 6.3594e-05 -9.17979e-06)
(3.53018e-05 6.05696e-05 -1.52418e-05)
(5.54468e-05 3.97654e-05 -1.01974e-05)
(4.99031e-05 1.55752e-05 6.648e-06)
(4.39736e-05 1.06159e-05 1.34182e-05)
(4.95703e-05 1.32133e-05 1.32649e-05)
(3.20711e-05 9.4889e-06 4.44192e-06)
(3.5077e-05 1.22639e-05 -2.78043e-06)
(3.26747e-05 1.36584e-05 -1.00424e-05)
(3.25569e-05 1.59138e-05 -1.30002e-05)
(3.54286e-05 1.86926e-05 -1.29217e-05)
(3.46319e-05 1.81507e-05 -1.03194e-05)
(3.81125e-05 1.86259e-05 -9.90085e-06)
(2.71521e-05 1.17315e-05 -6.51337e-06)
(3.046e-05 1.10061e-05 -6.89003e-06)
(4.13235e-05 1.15582e-05 -7.75893e-06)
(4.69975e-05 1.00854e-05 -6.94631e-06)
(5.10371e-05 8.17115e-06 -5.17037e-06)
(5.32519e-05 6.888e-06 -1.79511e-06)
(1.04494e-05 1.87148e-05 3.48221e-05)
(-1.37075e-05 2.2091e-05 -1.62253e-05)
(-3.9587e-05 1.67892e-05 -2.01587e-05)
(-5.18982e-05 2.24072e-05 -1.58503e-05)
(-5.11675e-05 4.34659e-05 -1.66082e-05)
(-2.00839e-05 5.84002e-05 -2.37783e-05)
(1.55102e-05 5.4858e-05 -3.04241e-05)
(4.19577e-05 3.06666e-05 -2.69063e-05)
(5.63564e-05 6.21738e-06 -6.09897e-06)
(6.77126e-05 2.24096e-06 9.64307e-06)
(7.16369e-05 8.17948e-06 9.87594e-06)
(5.48933e-05 1.03769e-05 2.99019e-06)
(3.49559e-05 8.89606e-06 -1.62971e-06)
(2.89099e-05 8.8306e-06 -4.44356e-06)
(2.89245e-05 8.65923e-06 -6.45524e-06)
(3.94033e-05 9.47685e-06 -9.48602e-06)
(4.6247e-05 7.37619e-06 -1.08436e-05)
(5.1562e-05 3.83311e-06 -1.20509e-05)
(5.64528e-05 2.95304e-07 -1.2943e-05)
(5.86385e-05 -4.54726e-06 -1.24093e-05)
(6.07716e-05 -8.0538e-06 -1.08949e-05)
(6.18593e-05 -1.07097e-05 -8.84844e-06)
(6.24977e-05 -1.2624e-05 -6.12938e-06)
(6.30817e-05 -1.32936e-05 -2.0731e-06)
(7.42196e-06 1.70798e-05 3.4586e-05)
(-2.5191e-06 2.92482e-05 -7.71195e-06)
(-2.81114e-05 2.57722e-05 -2.1041e-05)
(-4.62519e-05 2.47063e-05 -2.13711e-05)
(-5.31333e-05 3.5003e-05 -2.42023e-05)
(-3.71019e-05 4.40835e-05 -3.18286e-05)
(-7.23538e-06 3.76121e-05 -3.89067e-05)
(2.17423e-05 1.25043e-05 -3.30161e-05)
(4.54025e-05 -1.00342e-05 -1.09241e-05)
(6.6174e-05 -1.28699e-05 4.3166e-06)
(8.21418e-05 -5.71529e-06 4.81708e-06)
(7.89204e-05 -3.03215e-06 -1.8109e-06)
(6.90007e-05 -2.8624e-06 -6.3497e-06)
(6.04773e-05 -3.10648e-06 -9.54608e-06)
(5.84465e-05 -5.27135e-06 -1.21385e-05)
(5.87531e-05 -8.49215e-06 -1.31725e-05)
(6.04658e-05 -1.18245e-05 -1.34504e-05)
(6.19981e-05 -1.48477e-05 -1.39337e-05)
(6.2379e-05 -1.7005e-05 -1.37014e-05)
(6.60805e-05 -2.02341e-05 -1.3221e-05)
(6.74507e-05 -2.17387e-05 -1.1905e-05)
(6.73393e-05 -2.22221e-05 -9.65651e-06)
(6.62852e-05 -2.20639e-05 -6.60013e-06)
(6.53352e-05 -2.11665e-05 -2.21263e-06)
(3.79437e-06 1.25446e-05 2.55949e-05)
(-4.64469e-06 2.60061e-05 -2.06866e-06)
(-2.01025e-05 2.7695e-05 -1.51056e-05)
(-3.85572e-05 2.55361e-05 -2.15677e-05)
(-4.92404e-05 2.73066e-05 -2.65357e-05)
(-4.44567e-05 2.86206e-05 -3.37069e-05)
(-2.43472e-05 1.94172e-05 -3.85005e-05)
(2.68677e-06 -1.16972e-06 -3.04784e-05)
(2.62262e-05 -1.61747e-05 -1.1703e-05)
(4.98238e-05 -1.8092e-05 2.87922e-07)
(7.12628e-05 -1.19743e-05 8.76573e-07)
(7.75178e-05 -1.23398e-05 -5.43293e-06)
(7.26392e-05 -1.52494e-05 -9.40199e-06)
(6.65463e-05 -1.72912e-05 -1.15839e-05)
(6.35126e-05 -1.91369e-05 -1.32496e-05)
(6.36133e-05 -2.10417e-05 -1.42229e-05)
(6.4038e-05 -2.1811e-05 -1.44255e-05)
(6.29921e-05 -2.163e-05 -1.45975e-05)
(6.14614e-05 -2.15615e-05 -1.36828e-05)
(6.39039e-05 -2.18241e-05 -1.28604e-05)
(6.16271e-05 -2.0796e-05 -1.12807e-05)
(5.82359e-05 -1.94413e-05 -8.78732e-06)
(5.4818e-05 -1.84466e-05 -5.80747e-06)
(5.21002e-05 -1.73952e-05 -1.91716e-06)
(2.88924e-06 5.35982e-06 1.29271e-05)
(-5.75888e-06 1.46802e-05 -5.61776e-07)
(-1.72873e-05 1.98158e-05 -1.13844e-05)
(-3.06837e-05 1.91166e-05 -1.97006e-05)
(-4.11774e-05 1.70586e-05 -2.66519e-05)
(-4.23264e-05 1.31305e-05 -3.41128e-05)
(-3.11086e-05 2.05641e-06 -3.84932e-05)
(-1.09367e-05 -1.43639e-05 -3.12163e-05)
(7.43363e-06 -1.77174e-05 -1.08767e-05)
(2.42763e-05 -1.82372e-05 -2.78553e-06)
(3.42246e-05 -1.09611e-05 -3.46567e-07)
(5.08705e-05 -1.101e-05 -3.81976e-06)
(6.23487e-05 -1.55228e-05 -9.20285e-06)
(6.23556e-05 -1.92284e-05 -1.19751e-05)
(5.99825e-05 -2.07547e-05 -1.32862e-05)
(5.69272e-05 -2.04674e-05 -1.34647e-05)
(5.32458e-05 -1.90374e-05 -1.28678e-05)
(4.96028e-05 -1.81244e-05 -1.22806e-05)
(4.77654e-05 -1.81206e-05 -1.09889e-05)
(4.97021e-05 -1.77173e-05 -1.03939e-05)
(4.93277e-05 -1.76822e-05 -9.59472e-06)
(4.82467e-05 -1.75308e-05 -7.79328e-06)
(4.7444e-05 -1.75623e-05 -5.37674e-06)
(4.65251e-05 -1.73477e-05 -1.84569e-06)
(4.92703e-06 -1.67189e-06 1.56736e-06)
(-1.37157e-06 1.35227e-06 -1.38644e-06)
(-1.17257e-05 6.53098e-06 -8.34718e-06)
(-2.22778e-05 7.90057e-06 -1.69292e-05)
(-2.99367e-05 5.174e-06 -2.45363e-05)
(-3.12665e-05 -1.19222e-06 -3.12297e-05)
(-2.28476e-05 -1.24239e-05 -3.38043e-05)
(-5.70555e-06 -2.28025e-05 -2.47638e-05)
(1.07386e-05 -2.25203e-05 -1.13076e-05)
(2.46182e-05 -2.15372e-05 -6.58396e-06)
(3.52933e-05 -2.09347e-05 -3.87004e-06)