/*--------------------------------*- C++ -*----------------------------------*\
  =========                 |
  \\      /  F ield         | OpenFOAM: The Open Source CFD Toolbox
   \\    /   O peration     | Website:  https://openfoam.org
    \\  /    A nd           | Version:  6
     \\/     M anipulation  |
\*---------------------------------------------------------------------------*/
FoamFile
{
    version     2.0;
    format      ascii;
    class       volVectorField;
    location    "46";
    object      wallShearStress;
}
// * * * * * * * * * * * * * * * * * * * * * * * * * * * * * * * * * * * * * //

dimensions      [0 2 -2 0 0 0 0];

internalField   uniform (0 0 0);

boundaryField
{
    inlet
    {
        type            calculated;
        value           uniform (0 0 0);
    }
    outlet
    {
        type            calculated;
        value           uniform (0 0 0);
    }
    roughCylinder
    {
        type            calculated;
        value           nonuniform List<vector> 
5120
(
(-0.000123695 -0.00014012 -6.70086e-05)
(-0.000189277 -0.000300261 -8.40751e-05)
(-0.000268016 -0.000461168 -1.46786e-05)
(-0.000320048 -0.000545715 4.37926e-05)
(-0.00038064 -0.000612212 9.57483e-05)
(-0.000431564 -0.000642375 0.000137563)
(-0.000476193 -0.000652966 0.000169278)
(-0.000508082 -0.000643753 0.000189503)
(-0.000533749 -0.000629215 0.00020216)
(-0.000553534 -0.000615493 0.000210979)
(-0.000571975 -0.000606075 0.000219106)
(-0.000586841 -0.000599674 0.000224754)
(-0.000599176 -0.000596706 0.000227595)
(-0.000605102 -0.000592386 0.000226454)
(-0.000606643 -0.00058776 0.000222166)
(-0.000606675 -0.000584457 0.000215834)
(-0.000608927 -0.000584929 0.000208665)
(-0.00061045 -0.000585972 0.000199696)
(-0.000607647 -0.000584166 0.000188355)
(-0.00060251 -0.000580747 0.000175803)
(-0.00061804 -0.000596397 0.000168171)
(-0.000632236 -0.000611404 0.000158924)
(-0.000634086 -0.000615196 0.000145951)
(-0.000631134 -0.000614728 0.000131668)
(-0.000622846 -0.000608808 0.000116267)
(-0.000626344 -0.000613978 0.000102861)
(-0.000628102 -0.000617445 8.87839e-05)
(-0.000619174 -0.000610542 7.31178e-05)
(-0.000621366 -0.000613848 5.83247e-05)
(-0.000615458 -0.000609503 4.23587e-05)
(-0.000611742 -0.000606864 2.60287e-05)
(-0.000609257 -0.000605036 8.83228e-06)
(-0.000152059 -0.000152689 -6.82464e-05)
(-0.000207635 -0.000296751 -9.14819e-05)
(-0.000287874 -0.000453598 -2.40062e-05)
(-0.000343011 -0.000542645 3.43508e-05)
(-0.000406097 -0.00061214 8.6966e-05)
(-0.000459664 -0.000645896 0.000130023)
(-0.000506367 -0.000658675 0.000162483)
(-0.000540403 -0.00065196 0.000183109)
(-0.00056893 -0.000641218 0.000196873)
(-0.000591547 -0.000630312 0.000207429)
(-0.000612347 -0.000622266 0.000217155)
(-0.000629043 -0.00061494 0.000223772)
(-0.000641847 -0.000610851 0.000227019)
(-0.000648498 -0.000606113 0.000226288)
(-0.000651413 -0.000602087 0.000222635)
(-0.000653946 -0.000600611 0.000217185)
(-0.000657405 -0.000601896 0.000210314)
(-0.000658542 -0.000602615 0.000201183)
(-0.00065361 -0.000599149 0.000189342)
(-0.000651962 -0.000599076 0.000177864)
(-0.000667179 -0.000613729 0.000169827)
(-0.000681738 -0.000628369 0.000160372)
(-0.000682548 -0.000631218 0.000147107)
(-0.000681436 -0.000632756 0.000133199)
(-0.000671251 -0.000625694 0.000117506)
(-0.000676488 -0.000632372 0.000104258)
(-0.000678716 -0.000636289 9.00833e-05)
(-0.000670299 -0.00063041 7.43686e-05)
(-0.000672394 -0.000633577 5.93244e-05)
(-0.000666716 -0.000629831 4.31429e-05)
(-0.0006631 -0.000627516 2.6535e-05)
(-0.000660577 -0.000625811 9.00624e-06)
(-0.000115919 -0.000101351 -3.94266e-05)
(-0.000221745 -0.000282404 -9.66755e-05)
(-0.000306387 -0.000438128 -3.39499e-05)
(-0.000364957 -0.000531992 2.34687e-05)
(-0.000430768 -0.00060498 7.65813e-05)
(-0.000487343 -0.000642952 0.000120842)
(-0.00053668 -0.000658974 0.000154163)
(-0.000573631 -0.000656154 0.000175737)
(-0.000605387 -0.00064978 0.000191133)
(-0.000630927 -0.000641817 0.000203559)
(-0.000653871 -0.00063502 0.000214517)
(-0.000672351 -0.000627565 0.000222121)
(-0.000685719 -0.000621724 0.000225784)
(-0.00069333 -0.00061663 0.000225498)
(-0.000698139 -0.000613383 0.000222574)
(-0.00070276 -0.000613055 0.000217782)
(-0.000707245 -0.000614841 0.000211152)
(-0.000707828 -0.000615116 0.000201897)
(-0.000701449 -0.00061075 0.000189884)
(-0.000703974 -0.000614262 0.000179566)
(-0.000719509 -0.000628497 0.000171348)
(-0.000734796 -0.000643071 0.000161809)
(-0.000734481 -0.000645035 0.000148294)
(-0.000735618 -0.000648735 0.000134799)
(-0.000723743 -0.000640924 0.000118886)
(-0.000730047 -0.000648356 0.000105657)
(-0.000731359 -0.00065148 9.12151e-05)
(-0.00072362 -0.000646754 7.54893e-05)
(-0.000725953 -0.000650114 6.02556e-05)
(-0.000720803 -0.000647238 4.38934e-05)
(-0.000717742 -0.000645666 2.70369e-05)
(-0.000715533 -0.000644419 9.18326e-06)
(-0.000168471 -0.000126743 -3.82569e-05)
(-0.000237955 -0.000268331 -0.000102576)
(-0.000324393 -0.000419229 -4.44404e-05)
(-0.000385555 -0.000516667 1.1576e-05)
(-0.000453597 -0.00059262 6.49719e-05)
(-0.000513001 -0.00063461 0.000110188)
(-0.000565127 -0.000654354 0.00014429)
(-0.000605443 -0.000656355 0.00016717)
(-0.000640776 -0.000654805 0.00018458)
(-0.000669639 -0.000650198 0.000199094)
(-0.00069541 -0.000645226 0.000211481)
(-0.000716255 -0.000638705 0.000220172)
(-0.000731938 -0.000632379 0.000224728)
(-0.000741218 -0.000627044 0.000225151)
(-0.000747748 -0.000624011 0.000222795)
(-0.000754044 -0.00062422 0.000218466)
(-0.00075888 -0.000625818 0.000211887)
(-0.000759072 -0.000625792 0.000202615)
(-0.000751836 -0.000621085 0.00019064)
(-0.000757808 -0.000627194 0.000181183)
(-0.000772749 -0.00064028 0.000172634)
(-0.000787763 -0.000653957 0.000162856)
(-0.000786187 -0.000655065 0.000149156)
(-0.000790094 -0.000661117 0.000136158)
(-0.000776679 -0.000652856 0.000120103)
(-0.000784842 -0.000661642 0.000107017)
(-0.000786244 -0.000664946 9.24571e-05)
(-0.000779229 -0.000661369 7.66964e-05)
(-0.000781057 -0.000664297 6.12026e-05)
(-0.000776168 -0.000662022 4.46353e-05)
(-0.00077313 -0.000660697 2.75115e-05)
(-0.000770875 -0.00065958 9.34605e-06)
(-0.000165208 -0.00010549 -1.91474e-05)
(-0.000249179 -0.000246924 -0.000106042)
(-0.0003377 -0.000392718 -5.44613e-05)
(-0.000401661 -0.000493581 -1.03866e-06)
(-0.000472081 -0.000572952 5.20604e-05)
(-0.000534819 -0.000619727 9.79237e-05)
(-0.000590561 -0.000644448 0.000132852)
(-0.000635065 -0.000652333 0.00015741)
(-0.00067443 -0.000655931 0.000177097)
(-0.000706935 -0.000654878 0.000193811)
(-0.000735771 -0.000651873 0.00020773)
(-0.000759001 -0.000646234 0.000217393)
(-0.000777043 -0.000639986 0.000222887)
(-0.000788299 -0.000633806 0.00022408)
(-0.000796595 -0.000630833 0.00022233)
(-0.000804 -0.000630821 0.000218301)
(-0.000809126 -0.000632112 0.000211839)
(-0.000809229 -0.000632004 0.000202722)
(-0.000802239 -0.000627838 0.000191124)
(-0.00081174 -0.0006363 0.000182507)
(-0.000826844 -0.000648916 0.000173881)
(-0.000841804 -0.000661967 0.000163974)
(-0.000839012 -0.000662409 0.000150148)
(-0.000845359 -0.000670297 0.000137547)
(-0.000830963 -0.000662195 0.000121453)
(-0.000839993 -0.000671453 0.00010836)
(-0.000840362 -0.000674104 9.35724e-05)
(-0.000834664 -0.000672139 7.78446e-05)
(-0.000836642 -0.000675275 6.21636e-05)
(-0.000832608 -0.000674108 4.54187e-05)
(-0.000830269 -0.000673619 2.80346e-05)
(-0.000828454 -0.000673046 9.53118e-06)
(-0.00015161 -8.07342e-05 -1.46891e-06)
(-0.000262112 -0.000226288 -0.000109794)
(-0.000349115 -0.000363386 -6.4079e-05)
(-0.000414758 -0.00046606 -1.41051e-05)
(-0.000487209 -0.000548643 3.80901e-05)
(-0.00055337 -0.000600374 8.43085e-05)
(-0.000612946 -0.000630423 0.000120052)
(-0.000661853 -0.00064429 0.000146445)
(-0.000705429 -0.00065283 0.000168486)
(-0.00074191 -0.000655359 0.000187426)
(-0.000774234 -0.000654558 0.000203)
(-0.000800401 -0.000650164 0.00021382)
(-0.000821629 -0.00064501 0.0002204)
(-0.000836463 -0.000639346 0.000222839)
(-0.000846567 -0.000635414 0.000221731)
(-0.000854837 -0.000634927 0.000217985)
(-0.000859874 -0.000635494 0.000211612)
(-0.00086006 -0.000635329 0.000202764)
(-0.000853776 -0.000631929 0.000191674)
(-0.00086555 -0.000641526 0.000183593)
(-0.000880118 -0.000653186 0.000174826)
(-0.000894593 -0.000665379 0.000164796)
(-0.000891024 -0.00066565 0.000150998)
(-0.000899731 -0.000675143 0.00013878)
(-0.000884917 -0.000667755 0.000122755)
(-0.000895354 -0.000677864 0.000109738)
(-0.000895542 -0.000680638 9.48321e-05)
(-0.000890625 -0.000679787 7.90538e-05)
(-0.000891662 -0.000682326 6.31024e-05)
(-0.000887857 -0.000681732 4.6149e-05)
(-0.000885395 -0.000681397 2.84955e-05)
(-0.000883537 -0.000680968 9.68936e-06)
(-0.000159299 -6.92005e-05 1.42475e-05)
(-0.00026609 -0.000198161 -0.000109759)
(-0.000354346 -0.000328324 -7.2227e-05)
(-0.000421414 -0.000431786 -2.71897e-05)
(-0.000495908 -0.000517734 2.29615e-05)
(-0.000565861 -0.000575026 6.9062e-05)
(-0.000629884 -0.000611151 0.000105619)
(-0.00068398 -0.00063155 0.000134005)
(-0.000732534 -0.000645283 0.0001585)
(-0.000773619 -0.00065155 0.0001797)
(-0.000809735 -0.000653009 0.000196983)
(-0.000839469 -0.000650267 0.000209207)
(-0.000863601 -0.00064593 0.000216839)
(-0.00088127 -0.000640749 0.000220252)
(-0.000894004 -0.000636444 0.000220057)
(-0.000902876 -0.000634466 0.00021668)
(-0.00090818 -0.000634336 0.000210589)
(-0.000909052 -0.000634446 0.000202248)
(-0.000904509 -0.000632402 0.000191941)
(-0.000918475 -0.000642899 0.000184418)
(-0.000933247 -0.000654182 0.000175746)
(-0.000947238 -0.000665603 0.000165659)
(-0.000942932 -0.000665834 0.000151933)
(-0.000953021 -0.000676071 0.00013994)
(-0.000938316 -0.000669853 0.000124069)
(-0.00094905 -0.0006802 0.000111022)
(-0.00094839 -0.000682882 9.59698e-05)
(-0.000945158 -0.000683986 8.02425e-05)
(-0.000946252 -0.000686973 6.41135e-05)
(-0.000943517 -0.000687731 4.69786e-05)
(-0.00094182 -0.000688361 2.90476e-05)
(-0.000940445 -0.000688559 9.88476e-06)
(-0.000175242 -6.05943e-05 3.17209e-05)
(-0.000273911 -0.000172934 -0.000109434)
(-0.000355857 -0.000291326 -7.98078e-05)
(-0.000422774 -0.000393448 -4.00282e-05)
(-0.00049873 -0.000482318 6.97103e-06)
(-0.000572576 -0.00054545 5.24518e-05)
(-0.000641428 -0.000587973 8.97899e-05)
(-0.000701039 -0.000614807 0.000120144)
(-0.000754753 -0.000633355 0.000146968)
(-0.000800568 -0.000643025 0.000170304)
(-0.000841188 -0.000647042 0.000189416)
(-0.000874498 -0.000645837 0.000203116)
(-0.000902223 -0.000642787 0.000212105)
(-0.000923306 -0.000638545 0.000216692)
(-0.000938797 -0.00063458 0.000217457)
(-0.000949476 -0.000631995 0.000214834)
(-0.000955399 -0.000631049 0.000209316)
(-0.000957097 -0.000631049 0.000201589)
(-0.000954347 -0.000630043 0.000192093)
(-0.00096922 -0.000640439 0.000184932)
(-0.000983712 -0.000651124 0.000176365)
(-0.000997257 -0.000662059 0.000166335)
(-0.000993031 -0.000663089 0.000152879)
(-0.00100421 -0.000674071 0.000141105)
(-0.000990169 -0.000669574 0.000125481)
(-0.00100122 -0.000680262 0.000112425)
(-0.000999862 -0.000683109 9.72419e-05)
(-0.000996919 -0.000685149 8.14178e-05)
(-0.000996434 -0.000687552 6.50117e-05)
(-0.000993596 -0.00068882 4.76647e-05)
(-0.000991454 -0.000689563 2.94723e-05)
(-0.000989924 -0.000689923 1.00303e-05)
(-0.000219144 -5.74887e-05 5.8906e-05)
(-0.000279013 -0.000146666 -0.00010641)
(-0.00035083 -0.000251126 -8.54767e-05)
(-0.000416056 -0.000349759 -5.17738e-05)
(-0.000492779 -0.000440913 -9.4804e-06)
(-0.000570546 -0.000510086 3.44894e-05)
(-0.000644533 -0.000559278 7.23535e-05)
(-0.0007101 -0.00059255 0.000104493)
(-0.000769594 -0.000615956 0.000133481)
(-0.000821331 -0.000629532 0.000158981)
(-0.000866699 -0.000635969 0.000179894)
(-0.000904656 -0.000636906 0.000195363)
(-0.000936161 -0.000635189 0.000205872)
(-0.000960345 -0.000631684 0.000211717)
(-0.000978062 -0.000627882 0.000213458)
(-0.000990237 -0.000625087 0.000211686)
(-0.000997574 -0.000624011 0.00020705)
(-0.00100127 -0.000624523 0.000200322)
(-0.00100125 -0.000624934 0.00019194)
(-0.00101708 -0.000635222 0.000185277)
(-0.00103171 -0.000645614 0.000176991)
(-0.00104406 -0.000655702 0.000166971)
(-0.0010394 -0.000657271 0.000153741)
(-0.00105014 -0.000668079 0.000142001)
(-0.00103689 -0.000665352 0.000126639)
(-0.00104733 -0.000675703 0.000113498)
(-0.00104522 -0.000678619 9.8226e-05)
(-0.0010438 -0.000682281 8.24386e-05)
(-0.00104318 -0.000685129 6.58847e-05)
(-0.0010413 -0.000687548 4.83773e-05)
(-0.00103975 -0.000689083 2.9942e-05)
(-0.00103859 -0.00068994 1.01962e-05)
(-0.000256401 -4.67953e-05 9.13447e-05)
(-0.000285674 -0.000122267 -0.00010264)
(-0.000341111 -0.000210259 -8.90511e-05)
(-0.000402091 -0.000303092 -6.1776e-05)
(-0.000478256 -0.000395125 -2.5703e-05)
(-0.000559438 -0.00047 1.56085e-05)
(-0.000638732 -0.000525992 5.35387e-05)
(-0.000710797 -0.000565763 8.71825e-05)
(-0.000776959 -0.000594208 0.000118137)
(-0.000834496 -0.000611076 0.000145536)
(-0.000885494 -0.000620164 0.000168326)
(-0.000928072 -0.000622914 0.000185568)
(-0.000963587 -0.000622543 0.000197757)
(-0.000991264 -0.000620043 0.000205126)
(-0.001012 -0.000617042 0.000208233)
(-0.00102624 -0.000614608 0.000207637)
(-0.00103525 -0.000613789 0.000204097)
(-0.0010408 -0.000614858 0.00019848)
(-0.00104308 -0.000616318 0.000191212)
(-0.00105878 -0.000625855 0.000184972)
(-0.00107322 -0.000635711 0.000177018)
(-0.00108481 -0.000645245 0.000167179)
(-0.00108073 -0.000647865 0.000154365)
(-0.00109088 -0.000658369 0.000142676)
(-0.00107875 -0.000657448 0.000127611)
(-0.00108865 -0.000667558 0.00011443)
(-0.00108556 -0.000670411 9.90801e-05)
(-0.00108395 -0.00067449 8.3212e-05)
(-0.00108147 -0.000676724 6.64584e-05)
(-0.00107927 -0.000679378 4.88075e-05)
(-0.00107716 -0.000680917 3.02024e-05)
(-0.00107582 -0.000681887 1.02854e-05)
(-0.000280236 -2.94037e-05 0.000124286)
(-0.000289199 -9.82017e-05 -9.6616e-05)
(-0.000326612 -0.00016968 -8.96146e-05)
(-0.000379423 -0.000253793 -6.88559e-05)
(-0.000452982 -0.000344409 -4.0676e-05)
(-0.000536705 -0.000424305 -3.64013e-06)
(-0.000621418 -0.000487243 3.34595e-05)
(-0.000700437 -0.000533646 6.8048e-05)
(-0.000773123 -0.000566646 0.000100487)
(-0.000837851 -0.000587377 0.000129708)
(-0.000895146 -0.000599075 0.000154347)
(-0.000943393 -0.000603931 0.000173538)
(-0.000983746 -0.000605185 0.000187656)
(-0.00101537 -0.000603893 0.000196828)
(-0.00103884 -0.000601575 0.000201494)
(-0.00105513 -0.000599605 0.000202309)
(-0.00106618 -0.000599329 0.000200132)
(-0.00107421 -0.000601311 0.000195882)
(-0.00107915 -0.000603948 0.000189883)
(-0.00109488 -0.0006129 0.00018422)
(-0.00110923 -0.000622256 0.000176712)
(-0.00111891 -0.000630637 0.00016697)
(-0.00111465 -0.000633782 0.000154515)
(-0.00112316 -0.000643437 0.000142813)
(-0.00111221 -0.000644179 0.000128092)
(-0.00112091 -0.000653728 0.000114888)
(-0.00111726 -0.000656806 9.95781e-05)
(-0.00111687 -0.000662122 8.37974e-05)
(-0.00111425 -0.000664924 6.69962e-05)
(-0.00111276 -0.000668455 4.92577e-05)
(-0.001111 -0.000670597 3.05007e-05)
(-0.00110987 -0.000671914 1.03916e-05)
(-0.000302072 -8.866e-06 0.000160854)
(-0.000292533 -7.57733e-05 -8.97854e-05)
(-0.000307932 -0.000131135 -8.68902e-05)
(-0.000349227 -0.000204268 -7.21151e-05)
(-0.000417593 -0.00029063 -5.31615e-05)
(-0.000501994 -0.000374022 -2.23031e-05)
(-0.000591281 -0.000443324 1.26012e-05)
(-0.000676942 -0.000496088 4.71986e-05)
(-0.000757962 -0.000534807 8.07154e-05)
(-0.000830624 -0.000559497 0.000111516)
(-0.000894827 -0.000573629 0.00013796)
(-0.000949267 -0.000580288 0.000159147)
(-0.000994537 -0.000582802 0.000175266)
(-0.00103006 -0.000582529 0.000186419)
(-0.00105711 -0.000581351 0.000193067)
(-0.00107625 -0.000580322 0.00019571)
(-0.00108991 -0.000580907 0.000195223)
(-0.00110014 -0.000583604 0.000192449)
(-0.00110703 -0.00058694 0.000187709)
(-0.00112196 -0.000594944 0.000182633)
(-0.001136 -0.000603696 0.000175665)
(-0.00114462 -0.000611497 0.000166277)
(-0.00114104 -0.00061561 0.000154367)
(-0.0011478 -0.000624501 0.0001427)
(-0.00113784 -0.000626656 0.000128321)
(-0.00114508 -0.000635634 0.000115133)
(-0.00113979 -0.000638363 9.98116e-05)
(-0.00113831 -0.000643529 8.3992e-05)
(-0.00113359 -0.000645835 6.71117e-05)
(-0.0011313 -0.000649315 4.93292e-05)
(-0.00112886 -0.000651435 3.05352e-05)
(-0.00112746 -0.000652805 1.04042e-05)
(-0.000313728 1.36008e-05 0.000194935)
(-0.00029928 -5.56617e-05 -8.33543e-05)
(-0.000287318 -9.68659e-05 -8.11872e-05)
(-0.000311812 -0.000156133 -7.06317e-05)
(-0.000370794 -0.000234321 -6.14113e-05)
(-0.00045309 -0.000318716 -3.89605e-05)
(-0.000546094 -0.000393798 -8.22025e-06)
(-0.000639503 -0.000453856 2.50754e-05)
(-0.000728375 -0.000497994 5.87098e-05)
(-0.000809096 -0.00052665 9.05842e-05)
(-0.000881896 -0.000543911 0.000118885)
(-0.000943548 -0.000552253 0.000142228)
(-0.000994969 -0.000556019 0.000160601)
(-0.00103567 -0.000557125 0.000174104)
(-0.00106646 -0.000557053 0.000183047)
(-0.00108859 -0.000556963 0.000187834)
(-0.0011049 -0.000558358 0.000189279)
(-0.00111767 -0.000561886 0.000188226)
(-0.00112658 -0.000565929 0.000184905)
(-0.00114085 -0.000573197 0.000180596)
(-0.00115404 -0.000581098 0.000174204)
(-0.00115992 -0.000587573 0.000165043)
(-0.0011556 -0.000591895 0.000153562)
(-0.00115986 -0.0005998 0.000141924)
(-0.00115069 -0.000603127 0.00012792)
(-0.00115614 -0.000611483 0.000114815)
(-0.0011502 -0.00061449 9.96589e-05)
(-0.00114924 -0.000620444 8.3985e-05)
(-0.00114415 -0.000623402 6.71762e-05)
(-0.00114194 -0.000627391 4.94006e-05)
(-0.00113936 -0.00062987 3.05843e-05)
(-0.00113783 -0.000631403 1.04238e-05)
(-0.00031024 3.46747e-05 0.000219905)
(-0.00030447 -3.62786e-05 -7.62926e-05)
(-0.000264981 -6.78066e-05 -7.29151e-05)
(-0.000269693 -0.000112264 -6.41712e-05)
(-0.00031501 -0.000178637 -6.38922e-05)
(-0.000391375 -0.000260513 -5.18889e-05)
(-0.00048565 -0.000339623 -2.77741e-05)
(-0.000584284 -0.000405445 2.27399e-06)
(-0.000681665 -0.000455773 3.47511e-05)
(-0.000773356 -0.000490425 6.71616e-05)
(-0.000855024 -0.000510885 9.70044e-05)
(-0.000925223 -0.000521276 0.000122685)
(-0.000983397 -0.000525906 0.000143605)
(-0.001029 -0.000527469 0.000159687)
(-0.001064 -0.000528065 0.000171181)
(-0.0010895 -0.000529023 0.000178391)
(-0.00110882 -0.000531393 0.000182125)
(-0.00112367 -0.00053546 0.000182941)
(-0.00113372 -0.000539772 0.000181068)
(-0.00114674 -0.000546132 0.000177597)
(-0.00115907 -0.00055323 0.000171912)
(-0.00116357 -0.000559228 0.000163309)
(-0.0011591 -0.00056411 0.000152405)
(-0.0011606 -0.000571166 0.000140804)
(-0.00115147 -0.000575244 0.000127105)
(-0.00115451 -0.000583047 0.000114114)
(-0.00114591 -0.000585458 9.90308e-05)
(-0.00114265 -0.000590853 8.33812e-05)
(-0.00113524 -0.00059354 6.66562e-05)
(-0.00113158 -0.000597281 4.89748e-05)
(-0.00112818 -0.000599774 3.0306e-05)
(-0.00112621 -0.000601325 1.03299e-05)
(-0.000291889 5.0382e-05 0.000229175)
(-0.000305507 -1.82312e-05 -6.83963e-05)
(-0.000243354 -4.48951e-05 -6.3099e-05)
(-0.000224135 -7.46777e-05 -5.29494e-05)
(-0.000250929 -0.000125574 -5.90136e-05)
(-0.000315519 -0.000199589 -5.85507e-05)
(-0.000407087 -0.000279762 -4.40739e-05)
(-0.00051165 -0.000352126 -1.99448e-05)
(-0.000619001 -0.000409931 9.58673e-06)
(-0.000719424 -0.000449404 4.12655e-05)
(-0.000812049 -0.000474519 7.22849e-05)
(-0.000891692 -0.000487526 0.000100314)
(-0.00095796 -0.000493344 0.000124166)
(-0.00101025 -0.000495841 0.00014335)
(-0.00105023 -0.000497075 0.000157923)
(-0.00107957 -0.000498509 0.000167946)
(-0.00110167 -0.000501226 0.000174094)
(-0.00111839 -0.000505567 0.000176881)
(-0.00112933 -0.000510155 0.00017655)
(-0.0011409 -0.000515949 0.000174043)
(-0.00115114 -0.000522098 0.000169057)
(-0.00115199 -0.000526835 0.00016084)
(-0.00114556 -0.000531681 0.000150376)
(-0.00114393 -0.00053808 0.000138854)
(-0.00113454 -0.000542678 0.000125485)
(-0.00113524 -0.000550158 0.000112742)
(-0.0011256 -0.000552956 9.79803e-05)
(-0.00112179 -0.00055884 8.25573e-05)
(-0.00111339 -0.000562068 6.60436e-05)
(-0.00110885 -0.000565971 4.85032e-05)
(-0.00110457 -0.000568489 2.9996e-05)
(-0.00110203 -0.000570015 1.02246e-05)
(-0.000265194 5.84105e-05 0.00022239)
(-0.000297158 -2.4937e-06 -5.93274e-05)
(-0.000221046 -2.77882e-05 -5.20068e-05)
(-0.000177464 -4.54233e-05 -3.82283e-05)
(-0.000182907 -7.9114e-05 -4.66167e-05)
(-0.000230603 -0.000140111 -5.67632e-05)
(-0.000314727 -0.000217592 -5.48709e-05)
(-0.000420288 -0.000293496 -4.00299e-05)
(-0.000533358 -0.000356472 -1.58969e-05)
(-0.00064739 -0.000404249 1.36311e-05)
(-0.000751622 -0.000434671 4.51016e-05)
(-0.000842346 -0.000451486 7.54322e-05)
(-0.000917686 -0.000459322 0.000102531)
(-0.000976492 -0.000462237 0.00012513)
(-0.00102123 -0.000463845 0.00014298)
(-0.00105409 -0.000465434 0.000156066)
(-0.00107878 -0.000468256 0.000164802)
(-0.00109672 -0.00047251 0.000169631)
(-0.00110771 -0.000477029 0.000170866)
(-0.00111757 -0.000482341 0.000169429)
(-0.00112605 -0.000487975 0.000165344)
(-0.00112512 -0.000492581 0.000157919)
(-0.00111686 -0.000497691 0.000147986)
(-0.0011114 -0.000503403 0.000136466)
(-0.0011006 -0.000507935 0.000123301)
(-0.00109781 -0.000514647 0.000110784)
(-0.00108427 -0.000516627 9.61869e-05)
(-0.00107689 -0.000521545 8.08729e-05)
(-0.00106592 -0.000524507 6.46416e-05)
(-0.00105926 -0.00052795 4.73874e-05)
(-0.00105399 -0.0005304 2.92783e-05)
(-0.00105081 -0.000531857 9.98032e-06)
(-0.000236048 5.84621e-05 0.000199924)
(-0.000280588 8.56956e-06 -5.00647e-05)
(-0.000198864 -1.64638e-05 -4.01159e-05)
(-0.000131494 -2.51588e-05 -2.18907e-05)
(-0.000116625 -4.27189e-05 -2.86236e-05)
(-0.000140714 -8.49975e-05 -4.49408e-05)
(-0.000205843 -0.00015085 -5.59509e-05)
(-0.00030791 -0.000227625 -5.47717e-05)
(-0.000432426 -0.000300239 -4.03563e-05)
(-0.000556584 -0.000354355 -1.48692e-05)
(-0.000673927 -0.000391298 1.63426e-05)
(-0.000776161 -0.000412612 4.87993e-05)
(-0.000860864 -0.000423248 7.92414e-05)
(-0.00092738 -0.000427843 0.00010564)
(-0.000977965 -0.000430107 0.000127166)
(-0.00101487 -0.000432058 0.000143471)
(-0.00104186 -0.000434917 0.000154879)
(-0.00106055 -0.000438973 0.000161827)
(-0.00107098 -0.000443274 0.000164657)
(-0.00107828 -0.000447944 0.000164259)
(-0.00108302 -0.000452504 0.000160892)
(-0.00107727 -0.000455977 0.000153944)
(-0.00106568 -0.000460848 0.000144412)
(-0.00105652 -0.000466103 0.000132921)
(-0.00104418 -0.000470459 0.00011997)
(-0.00103829 -0.000476602 0.000107854)
(-0.001023 -0.000479087 9.37634e-05)
(-0.00101365 -0.000483935 7.87632e-05)
(-0.00100061 -0.000486922 6.29238e-05)
(-0.000991854 -0.000489998 4.60308e-05)
(-0.000984858 -0.000492004 2.83837e-05)
(-0.00098062 -0.000493172 9.67196e-06)
(-0.000211624 5.14982e-05 0.000166271)
(-0.000257344 1.40333e-05 -4.08283e-05)
(-0.000173753 -1.02989e-05 -2.74975e-05)
(-7.2227e-05 -1.08669e-05 -5.83792e-06)
(-4.24792e-05 -1.34325e-05 -6.77743e-06)
(-5.13804e-05 -3.5879e-05 -2.0988e-05)
(-9.62928e-05 -8.81663e-05 -4.48579e-05)
(-0.000185429 -0.00015954 -6.23144e-05)
(-0.000306338 -0.000232372 -6.07094e-05)
(-0.000445746 -0.000297377 -4.2321e-05)
(-0.000578148 -0.000342764 -1.23266e-05)
(-0.00069342 -0.000370276 2.20874e-05)
(-0.000788137 -0.000385029 5.58094e-05)
(-0.000861446 -0.000391945 8.57858e-05)
(-0.000916348 -0.000395241 0.000110663)
(-0.000956072 -0.000397508 0.000129926)
(-0.000984578 -0.000400271 0.000143831)
(-0.00100308 -0.000403891 0.000152729)
(-0.00101227 -0.000407827 0.000157054)
(-0.00101706 -0.000412023 0.000157724)
(-0.00101884 -0.000416151 0.000155267)
(-0.00101042 -0.000419836 0.000149225)
(-0.000994757 -0.000424424 0.000140034)
(-0.0009805 -0.000428787 0.000128336)
(-0.000965259 -0.000432332 0.000115433)
(-0.000955085 -0.000437169 0.000103714)
(-0.000934815 -0.000438495 8.9979e-05)
(-0.000921014 -0.000441878 7.52612e-05)
(-0.000905308 -0.000444267 6.00213e-05)
(-0.000894035 -0.000446585 4.37625e-05)
(-0.000885889 -0.000448259 2.69285e-05)
(-0.000880859 -0.000449176 9.17415e-06)
(-0.000193617 4.00323e-05 0.000127095)
(-0.000232829 1.38132e-05 -3.14817e-05)
(-0.000142526 -7.90377e-06 -1.48851e-05)
(-5.87485e-05 -8.80708e-06 2.92265e-06)
(-2.03962e-05 -8.5439e-06 4.97712e-06)
(-2.67461e-07 -1.40769e-05 -1.05443e-06)
(-9.35316e-07 -2.2648e-05 -1.38162e-05)
(-4.69159e-05 -7.43119e-05 -4.70514e-05)
(-0.000174013 -0.000161389 -7.5082e-05)
(-0.000323068 -0.000234449 -6.64424e-05)
(-0.000469349 -0.000289439 -3.78108e-05)
(-0.000596196 -0.000323912 -1.68218e-06)
(-0.000699113 -0.000343533 3.45706e-05)
(-0.000778445 -0.00035398 6.72713e-05)
(-0.000837941 -0.00035979 9.48019e-05)
(-0.000880566 -0.000363464 0.000116499)
(-0.000909822 -0.000366624 0.000132463)
(-0.000927372 -0.000370059 0.000143014)
(-0.00093443 -0.000373589 0.000148596)
(-0.000935557 -0.000377021 0.000150093)
(-0.000932016 -0.000379949 0.000148179)
(-0.000917587 -0.00038244 0.000142586)
(-0.000897431 -0.00038641 0.000133698)
(-0.000878965 -0.000390027 0.000121839)
(-0.000861262 -0.000392607 0.00010903)
(-0.000847623 -0.000396181 9.79548e-05)
(-0.000824926 -0.000397248 8.49909e-05)
(-0.000808024 -0.000399555 7.07692e-05)
(-0.000789388 -0.000400861 5.62567e-05)
(-0.000775226 -0.000402016 4.08121e-05)
(-0.000764891 -0.000402628 2.50001e-05)
(-0.000758551 -0.000402915 8.50671e-06)
(-0.000179954 3.16984e-05 9.14637e-05)
(-0.000209343 1.24489e-05 -2.51658e-05)
(-0.000106204 -4.84135e-06 -5.70625e-06)
(-4.58785e-05 -5.00399e-06 1.06306e-05)
(3.4507e-06 9.81855e-08 1.28795e-05)
(3.83847e-05 3.41125e-07 5.54429e-06)
(5.01529e-05 -1.29262e-06 -3.13943e-06)
(3.52884e-05 -1.23751e-05 -2.68918e-05)
(-2.94324e-05 -5.45882e-05 -5.38317e-05)
(-0.000187663 -0.000155451 -7.80957e-05)
(-0.000349083 -0.000227249 -5.35417e-05)
(-0.000486133 -0.000271955 -1.74297e-05)
(-0.000595563 -0.000298421 1.91737e-05)
(-0.000678805 -0.00031358 5.23909e-05)
(-0.000739977 -0.000322258 8.05838e-05)
(-0.000783014 -0.000327521 0.000103161)
(-0.000811745 -0.000331465 0.000120174)
(-0.000827419 -0.000334951 0.000131721)
(-0.000831939 -0.000338228 0.000138179)
(-0.000829775 -0.000341162 0.000140365)
(-0.000822218 -0.000343478 0.000139097)
(-0.000804127 -0.000345587 0.000134268)
(-0.000778275 -0.000348159 0.000125403)
(-0.000753967 -0.000349901 0.000112986)
(-0.000732899 -0.000350608 0.000100116)
(-0.000714931 -0.000351962 8.97461e-05)
(-0.00068703 -0.000350861 7.74875e-05)
(-0.00066576 -0.000350903 6.39096e-05)
(-0.000644785 -0.000350767 5.05431e-05)
(-0.000628357 -0.00035059 3.6418e-05)
(-0.000616949 -0.000350371 2.21883e-05)
(-0.000609897 -0.000350124 7.53886e-06)
(-0.000160219 2.88395e-05 6.43384e-05)
(-0.000185732 1.41751e-05 -2.27768e-05)
(-9.06332e-05 -9.70675e-07 -2.48481e-06)
(-3.73051e-05 4.60165e-06 1.23807e-05)
(2.28239e-05 7.11496e-06 4.03494e-06)
(6.32278e-05 5.21663e-06 9.69192e-07)
(6.75356e-05 8.65482e-06 7.9574e-06)
(5.59683e-05 1.66909e-05 -9.4966e-07)
(2.62149e-05 2.17639e-06 -3.40736e-05)
(-7.14694e-05 -6.67311e-05 -6.24893e-05)
(-0.000227691 -0.000156237 -5.01207e-05)
(-0.000366876 -0.000214131 -1.81636e-05)
(-0.000477658 -0.000248955 1.39214e-05)
(-0.000561787 -0.000270016 4.35583e-05)
(-0.000624158 -0.000282987 6.94625e-05)
(-0.000668052 -0.000291083 9.09865e-05)
(-0.00069574 -0.000296287 0.000107691)
(-0.000708746 -0.000299923 0.000119311)
(-0.000709676 -0.000302693 0.000125943)
(-0.000702894 -0.00030455 0.000128221)
(-0.000689103 -0.000305131 0.000126953)
(-0.000664406 -0.000305137 0.000122217)
(-0.000633632 -0.000306014 0.000113378)
(-0.000605411 -0.000305999 0.000100545)
(-0.000582458 -0.000304784 8.78059e-05)
(-0.000561938 -0.000303962 7.85223e-05)
(-0.000532003 -0.00030142 6.75336e-05)
(-0.000507908 -0.000299256 5.49284e-05)
(-0.000484488 -0.000296837 4.29652e-05)
(-0.000465616 -0.000294576 3.05769e-05)
(-0.000452471 -0.000292693 1.84187e-05)
(-0.000444398 -0.000291436 6.22921e-06)
(-0.000126394 2.30875e-05 4.30422e-05)
(-0.000161006 1.45502e-05 -1.93077e-05)
(-8.27579e-05 1.40759e-06 -1.06266e-06)
(-2.80772e-05 4.4394e-06 8.60005e-06)
(4.65794e-05 1.2295e-06 3.57925e-06)
(6.41384e-05 3.02921e-06 1.29436e-05)
(6.82174e-05 8.7974e-06 2.19691e-05)
(5.5986e-05 1.56641e-05 2.37328e-05)
(3.13287e-05 1.6719e-05 1.13772e-05)
(-1.31813e-05 -1.2186e-05 -1.18595e-05)
(-0.000118057 -8.89639e-05 -1.65909e-05)
(-0.000240409 -0.000153461 1.26699e-06)
(-0.000346915 -0.000196913 2.15713e-05)
(-0.000429744 -0.000224479 4.22817e-05)
(-0.000490666 -0.000241416 6.18709e-05)
(-0.000532309 -0.000251528 7.93138e-05)
(-0.000557489 -0.000257662 9.37116e-05)
(-0.000567516 -0.000261393 0.000104166)
(-0.000565293 -0.000263706 0.000110238)
(-0.000555152 -0.000264679 0.000112248)
(-0.000537597 -0.000263998 0.000110951)
(-0.000509658 -0.000262577 0.000106515)
(-0.000473454 -0.000260519 9.72505e-05)
(-0.000440197 -0.000257032 8.35411e-05)
(-0.000415436 -0.000252831 7.09188e-05)
(-0.000392034 -0.000248464 6.27679e-05)
(-0.000358365 -0.000242048 5.30799e-05)
(-0.000331581 -0.000236462 4.19149e-05)
(-0.000307278 -0.00023145 3.20457e-05)
(-0.000287678 -0.000227106 2.23043e-05)
(-0.000274363 -0.00022388 1.3163e-05)
(-0.000266262 -0.000221833 4.4071e-06)
(-8.79749e-05 1.56554e-05 2.54693e-05)
(-0.000131936 1.25452e-05 -1.53405e-05)
(-7.37067e-05 2.44265e-06 5.76996e-07)
(-1.48844e-05 -1.05794e-07 1.42013e-05)
(4.00749e-05 4.69057e-06 1.73962e-05)
(5.3184e-05 7.42345e-06 2.48432e-05)
(6.82324e-05 8.42246e-06 3.49475e-05)
(6.23392e-05 5.24847e-06 3.97102e-05)
(5.41326e-05 1.60836e-06 4.67296e-05)
(1.99084e-05 -7.42426e-06 3.14087e-05)
(-2.78558e-05 -4.84488e-05 3.93082e-05)
(-0.00011373 -0.000101945 3.57165e-05)
(-0.000204727 -0.000145744 3.9202e-05)
(-0.000281772 -0.000176552 4.68433e-05)
(-0.000341466 -0.000196907 5.68038e-05)
(-0.000383404 -0.000209782 6.78688e-05)
(-0.00040753 -0.000217062 7.82722e-05)
(-0.000414568 -0.000220411 8.62189e-05)
(-0.000408462 -0.000221347 9.05964e-05)
(-0.000393737 -0.000220071 9.12662e-05)
(-0.000370743 -0.00021612 8.87705e-05)
(-0.000337258 -0.000210508 8.34459e-05)
(-0.000297421 -0.000204546 7.37315e-05)
(-0.000263058 -0.00019787 5.98554e-05)
(-0.000240269 -0.000191463 4.81442e-05)
(-0.000218245 -0.000184399 4.17764e-05)
(-0.000186258 -0.000175346 3.42459e-05)
(-0.000160319 -0.000166746 2.52934e-05)
(-0.000136571 -0.00015833 1.7989e-05)