/*--------------------------------*- C++ -*----------------------------------*\
  =========                 |
  \\      /  F ield         | OpenFOAM: The Open Source CFD Toolbox
   \\    /   O peration     | Website:  https://openfoam.org
    \\  /    A nd           | Version:  6
     \\/     M anipulation  |
\*---------------------------------------------------------------------------*/
FoamFile
{
    version     2.0;
    format      ascii;
    class       volScalarField;
    location    "0";
    object      omega;
}
// * * * * * * * * * * * * * * * * * * * * * * * * * * * * * * * * * * * * * //

dimensions      [0 0 -1 0 0 0 0];

internalField   nonuniform List<scalar> 
507328
(
1225.56
1223.81
1221.88
1219.68
1217.08
1213.83
1209.35
1202.26
1188.41
1152.39
1026.9
1095.45
1168.53
1192.97
1204.4
1211.39
1216.55
1220.84
1224.68
1228.29
1231.77
1235.18
1238.56
1241.94
1245.32
1248.73
1252.16
1255.62
1272.36
1269.05
1265.95
1263.04
1260.29
1257.69
1255.21
1225.53
1223.79
1221.85
1219.65
1217.05
1213.83
1209.48
1202.87
1191.03
1164.91
1099.97
1130.63
1176.18
1195.03
1205.05
1211.61
1216.62
1220.85
1224.68
1228.27
1231.75
1235.16
1238.54
1241.92
1245.31
1248.71
1252.14
1255.6
1272.34
1269.04
1265.94
1263.03
1260.29
1257.68
1255.21
1225.09
1223.42
1221.6
1219.57
1217.23
1214.41
1210.72
1205.21
1195.15
1170.74
1100.98
1135.01
1181.67
1198.76
1207.38
1213.04
1217.48
1221.33
1224.9
1228.32
1231.66
1234.98
1238.29
1241.61
1244.95
1248.32
1251.72
1255.16
1271.91
1268.62
1265.54
1262.64
1259.92
1257.34
1254.89
1225.03
1223.35
1221.51
1219.45
1217.06
1214.14
1210.26
1204.31
1192.83
1161.84
1036.88
1108.07
1176.05
1196.81
1206.45
1212.5
1217.11
1221.07
1224.7
1228.16
1231.53
1234.87
1238.2
1241.53
1244.89
1248.27
1251.68
1255.13
1271.88
1268.58
1265.49
1262.59
1259.85
1257.27
1254.81
1225.02
1223.34
1221.49
1219.42
1217.04
1214.16
1210.39
1204.88
1195.41
1175.75
1132.43
1152.35
1184.17
1198.82
1207.07
1212.72
1217.2
1221.1
1224.71
1228.16
1231.53
1234.86
1238.19
1241.52
1244.88
1248.25
1251.66
1255.11
1271.87
1268.57
1265.49
1262.59
1259.86
1257.27
1254.82
1224.35
1222.73
1220.96
1219.01
1216.8
1214.17
1210.81
1205.86
1196.62
1171.41
1064.51
1125.22
1183.21
1200.06
1208.01
1213.22
1217.37
1221.04
1224.49
1227.82
1231.11
1234.38
1237.67
1240.97
1244.3
1247.66
1251.06
1254.5
1271.28
1267.99
1264.9
1262.01
1259.28
1256.71
1254.27
1224.32
1222.69
1220.91
1218.94
1216.71
1214.05
1210.65
1205.67
1196.65
1173.87
1087.24
1135.48
1184.31
1200.01
1207.83
1213.06
1217.23
1220.93
1224.4
1227.75
1231.05
1234.34
1237.62
1240.93
1244.27
1247.63
1251.04
1254.48
1271.26
1267.97
1264.88
1261.99
1259.26
1256.68
1254.24
1223.49
1221.9
1220.18
1218.31
1216.22
1213.8
1210.81
1206.62
1199.2
1179.56
1092.76
1142.71
1188.86
1202.18
1208.78
1213.36
1217.17
1220.64
1223.96
1227.21
1230.44
1233.68
1236.93
1240.22
1243.53
1246.89
1250.29
1253.73
1270.55
1267.25
1264.17
1261.28
1258.55
1255.98
1253.55
1223.46
1221.86
1220.13
1218.24
1216.13
1213.66
1210.6
1206.26
1198.5
1177.82
1077.25
1137.93
1187.59
1201.56
1208.42
1213.12
1217
1220.51
1223.86
1227.13
1230.37
1233.62
1236.88
1240.18
1243.5
1246.86
1250.26
1253.71
1270.53
1267.23
1264.15
1261.25
1258.52
1255.95
1253.51
1222.45
1220.88
1219.2
1217.38
1215.37
1213.1
1210.38
1206.74
1200.65
1185.24
1115.11
1156.29
1192.6
1203.29
1208.91
1213.03
1216.6
1219.93
1223.16
1226.35
1229.55
1232.76
1236
1239.28
1242.59
1245.95
1249.35
1252.8
1269.68
1266.38
1263.29
1260.39
1257.66
1255.09
1252.66
1222.42
1220.84
1219.15
1217.32
1215.29
1212.98
1210.18
1206.37
1199.79
1181.88
1074.63
1143.46
1190.56
1202.56
1208.53
1212.8
1216.43
1219.81
1223.06
1226.28
1229.49
1232.71
1235.96
1239.24
1242.56
1245.93
1249.33
1252.78
1269.67
1266.36
1263.27
1260.36
1257.63
1255.06
1252.62
1221.18
1219.63
1217.97
1216.18
1214.24
1212.07
1209.53
1206.28
1201.12
1188.58
1128.16
1164.64
1194.65
1203.52
1208.46
1212.26
1215.66
1218.89
1222.07
1225.23
1228.41
1231.61
1234.85
1238.13
1241.45
1244.81
1248.22
1251.68
1268.64
1265.33
1262.22
1259.32
1256.58
1254.01
1251.57
1221.16
1219.6
1217.93
1216.13
1214.17
1211.96
1209.37
1205.97
1200.4
1185.57
1083.73
1151.83
1192.87
1202.91
1208.15
1212.07
1215.53
1218.79
1221.99
1225.17
1228.36
1231.57
1234.81
1238.1
1241.42
1244.79
1248.21
1251.66
1268.63
1265.31
1262.21
1259.3
1256.56
1253.98
1251.54
1219.62
1218.07
1216.42
1214.66
1212.75
1210.64
1208.24
1205.24
1200.71
1189.88
1125.92
1167.23
1195.23
1202.96
1207.44
1211.03
1214.31
1217.49
1220.63
1223.78
1226.95
1230.16
1233.4
1236.69
1240.02
1243.4
1246.83
1250.3
1267.37
1264.03
1260.91
1257.99
1255.25
1252.66
1250.21
1219.61
1218.05
1216.39
1214.62
1212.7
1210.57
1208.12
1205.03
1200.25
1188.21
1100.91
1160.69
1194.19
1202.56
1207.22
1210.89
1214.22
1217.42
1220.58
1223.73
1226.91
1230.12
1233.37
1236.67
1240
1243.39
1246.82
1250.29
1267.36
1264.02
1260.9
1257.98
1255.23
1252.64
1250.19
1217.61
1216.06
1214.41
1212.66
1210.77
1208.7
1206.38
1203.57
1199.49
1189.89
1113.78
1167.24
1194.73
1201.63
1205.78
1209.22
1212.44
1215.58
1218.72
1221.86
1225.04
1228.26
1231.52
1234.83
1238.18
1241.59
1245.04
1248.54
1265.73
1262.37
1259.23
1256.29
1253.52
1250.91
1248.45
1217.6
1216.05
1214.4
1212.63
1210.73
1208.65
1206.3
1203.44
1199.28
1189.73
1131.05
1169.97
1194.47
1201.43
1205.65
1209.14
1212.38
1215.54
1218.68
1221.84
1225.02
1228.24
1231.51
1234.82
1238.17
1241.58
1245.03
1248.53
1265.73
1262.36
1259.22
1256.28
1253.51
1250.9
1248.44
1214.84
1213.28
1211.62
1209.86
1207.98
1205.94
1203.66
1200.98
1197.26
1188.91
1108.71
1168.2
1193.17
1199.32
1203.21
1206.56
1209.74
1212.88
1216.02
1219.18
1222.38
1225.62
1228.91
1232.25
1235.64
1239.08
1242.56
1246.1
1263.48
1260.08
1256.91
1253.94
1251.14
1248.51
1246.02
1040.59
1038.02
1035.32
1032.48
1029.5
1026.37
1023.11
1019.76
1016.5
1014.33
1016.52
1016.16
1015.61
1019.17
1023.53
1028.18
1033.01
1037.97
1043.05
1048.23
1053.51
1058.89
1064.36
1069.93
1075.59
1081.33
1087.17
1093.09
1122.28
1116.59
1111.27
1106.29
1101.61
1097.21
1093.05
1040.45
1037.84
1035.08
1032.15
1029.04
1025.7
1022.04
1017.88
1012.56
1002.58
949.73
983.741
1007.66
1015.77
1021.64
1026.98
1032.17
1037.35
1042.56
1047.84
1053.19
1058.62
1064.13
1069.73
1075.41
1081.18
1087.03
1092.97
1122.18
1116.47
1111.14
1106.15
1101.46
1097.04
1092.87
737.958
737.928
737.882
737.812
737.697
737.501
737.138
736.369
734.348
726.14
617.47
699.37
730.245
734.873
736.345
736.988
737.322
737.514
737.632
737.708
737.757
737.789
737.81
737.822
737.828
737.83
737.828
737.824
737.76
737.766
737.77
737.772
737.773
737.771
737.768
571.891
572.796
573.798
574.935
576.273
577.942
580.222
583.802
590.69
607.965
661.781
633.531
600.34
588.437
582.724
579.183
576.547
574.338
572.345
570.464
568.641
566.843
565.051
563.253
561.441
559.609
557.753
555.872
546.62
548.466
550.188
551.8
553.314
554.741
556.092
571.897
572.803
573.805
574.94
576.27
577.915
580.117
583.433
589.29
601.886
631.372
617.763
596.502
587.319
582.335
579.027
576.478
574.306
572.329
570.456
568.637
566.842
565.052
563.255
561.444
559.613
557.759
555.879
546.623
548.467
550.187
551.797
553.31
554.736
556.085
569.312
570.181
571.129
572.185
573.397
574.856
576.758
579.582
584.686
596.736
628.764
613.564
591.403
582.869
578.483
575.574
573.284
571.281
569.421
567.629
565.867
564.113
562.353
560.578
558.782
556.962
555.115
553.239
543.956
545.8
547.518
549.124
550.631
552.05
553.389
569.334
570.209
571.166
572.236
573.47
574.968
576.952
579.975
585.725
600.778
655.309
625.386
593.955
583.737
578.89
575.808
573.438
571.392
569.505
567.696
565.922
564.158
562.391
560.61
558.809
556.985
555.133
553.253
543.969
545.817
547.538
549.148
550.658
552.081
553.424
569.336
570.21
571.167
572.234
573.459
574.934
576.844
579.615
584.321
593.873
614.112
604.934
589.811
582.626
578.508
575.65
573.362
571.351
569.48
567.679
565.91
564.15
562.385
560.606
558.807
556.985
555.135
553.258
543.97
545.815
547.534
549.141
550.649
552.069
553.411
566.419
567.27
568.193
569.209
570.358
571.716
573.451
575.99
580.679
593.154
641.213
614.824
587.379
578.945
574.894
572.213
570.066
568.155
566.354
564.601
562.865
561.128
559.377
557.608
555.814
553.992
552.142
550.26
540.933
542.785
544.508
546.119
547.629
549.049
550.389
566.429
567.282
568.208
569.229
570.384
571.75
573.491
576.015
580.536
591.704
631.27
609.787
586.627
578.856
574.915
572.25
570.101
568.185
566.379
564.622
562.882
561.142
559.39
557.619
555.823
554.001
552.15
550.268
540.938
542.79
544.514
546.125
547.635
549.056
550.397
563.14
563.976
564.875
565.855
566.945
568.202
569.754
571.922
575.731
585.622
625.907
603.37
580.982
574.214
570.814
568.441
566.459
564.644
562.902
561.186
559.474
557.75
556.008
554.242
552.448
550.625
548.77
546.883
537.501
539.36
541.089
542.704
544.218
545.64
546.981
563.15
563.989
564.892
565.877
566.976
568.248
569.824
572.04
575.958
586.199
632.202
605.172
581.394
574.416
570.934
568.521
566.516
564.687
562.936
561.213
559.496
557.769
556.024
554.256
552.46
550.635
548.778
546.89
537.506
539.367
541.097
542.714
544.228
545.652
546.995
559.413
560.24
561.125
562.081
563.13
564.317
565.738
567.636
570.794
578.681
612.201
592.982
574.941
569.437
566.516
564.365
562.5
560.751
559.047
557.354
555.654
553.937
552.196
550.427
548.629
546.799
544.935
543.038
533.59
535.459
537.198
538.821
540.342
541.77
543.115
559.422
560.252
561.14
562.101
563.158
564.359
565.806
567.764
571.115
580.074
629.5
598.59
575.76
569.707
566.649
564.446
562.556
560.792
559.08
557.38
555.676
553.955
552.211
550.44
548.64
546.807
544.943
543.044
533.595
535.466
537.206
538.831
540.353
541.782
543.129
555.078
555.902
556.779
557.72
558.743
559.882
561.211
562.919
565.619
572.133
601.712
584.221
569
564.373
561.788
559.792
558.006
556.299
554.618
552.936
551.24
549.521
547.774
545.998
544.19
542.348
540.473
538.562
529.033
530.917
532.669
534.304
535.834
537.271
538.624
555.085
555.911
556.79
557.735
558.765
559.914
561.264
563.019
565.875
573.358
621.014
589.85
569.692
564.587
561.892
559.855
558.049
556.332
554.644
552.957
551.257
549.535
547.786
546.008
544.198
542.355
540.478
538.566
529.037
530.922
532.675
534.311
535.843
537.281
538.636
549.839
550.664
551.539
552.473
553.482
554.591
555.859
557.436
559.823
565.514
597.123
577.107
562.719
558.651
556.294
554.4
552.664
550.982
549.31
547.629
545.927
544.2
542.443
540.653
538.83
536.973
535.08
533.151
523.524
525.427
527.196
528.846
530.39
531.84
533.205
549.843
550.669
551.545
552.482
553.494
554.609
555.888
557.489
559.947
566.042
607.694
579.645
563.026
558.756
556.348
554.435
552.688
551
549.324
547.64
545.937
544.208
542.449
540.659
538.835
536.976
535.083
533.153
523.526
525.43
527.199
528.85
530.395
531.846
533.211
543.127
543.956
544.834
545.768
546.771
547.863
549.091
550.577
552.732
557.8
595.401
569.474
555.256
551.612
549.42
547.597
545.89
544.217
542.543
540.854
539.141
537.398
535.624
533.815
531.972
530.093
528.177
526.225
516.477
518.404
520.194
521.864
523.427
524.894
526.274
543.127
543.956
544.835
545.769
546.772
547.865
549.095
550.579
552.716
557.518
585.964
567.26
555.139
551.602
549.421
547.599
545.891
544.218
542.544
540.855
539.141
537.398
535.624
533.815
531.972
530.093
528.177
526.225
516.477
518.403
520.194
521.863
523.426
524.893
526.273
533.528
534.365
535.249
536.188
537.19
538.274
539.476
540.892
542.851
547.233
587.087
557.92
545.003
541.774
539.718
537.944
536.254
534.58
532.898
531.195
529.463
527.7
525.904
524.071
522.203
520.298
518.355
516.375
506.483
508.437
510.254
511.948
513.532
515.02
516.419
460.571
461.156
461.779
462.448
463.174
463.983
464.927
466.148
468.134
473.598
521.185
487.687
470.868
467.232
465.352
463.926
462.656
461.443
460.249
459.054
457.848
456.626
455.385
454.122
452.837
451.527
450.194
448.835
442.064
443.404
444.65
445.813
446.901
447.923
448.885
460.521
461.093
461.696
462.336
463.018
463.753
464.564
465.508
466.786
469.519
494.769
475.947
468.128
466.066
464.705
463.512
462.366
461.228
460.081
458.919
457.737
456.533
455.305
454.053
452.776
451.473
450.145
448.792
442.027
443.363
444.605
445.763
446.846
447.863
448.82
254.143
255.625
257.183
258.823
260.549
262.364
264.268
266.25
268.256
269.931
264.693
269.364
269.007
266.692
264.086
261.362
258.559
255.69
252.761
249.773
246.73
243.631
240.479
237.273
234.016
230.707
227.348
223.94
207.146
210.424
213.485
216.352
219.044
221.579
223.972
220.303
220.456
220.626
220.818
221.044
221.326
221.712
222.317
223.482
226.41
235.557
230.752
225.117
223.101
222.135
221.536
221.09
220.717
220.38
220.062
219.753
219.449
219.146
218.842
218.536
218.226
217.912
217.594
216.029
216.341
216.632
216.905
217.161
217.403
217.631
220.302
220.454
220.623
220.813
221.036
221.31
221.677
222.227
223.199
225.299
230.294
227.978
224.398
222.87
222.041
221.49
221.065
220.701
220.369
220.053
219.747
219.444
219.142
218.839
218.533
218.224
217.91
217.592
216.027
216.339
216.63
216.902
217.158
217.399
217.626
218.147
218.293
218.453
218.631
218.836
219.083
219.407
219.889
220.763
222.819
228.217
225.666
221.912
220.454
219.705
219.21
218.822
218.484
218.17
217.869
217.573
217.279
216.983
216.686
216.385
216.08
215.77
215.456
213.901
214.21
214.498
214.767
215.02
215.257
215.482
218.148
218.295
218.455
218.634
218.84
219.09
219.421
219.925
220.884
223.402
232.573
227.534
222.259
220.552
219.743
219.229
218.833
218.491
218.176
217.873
217.576
217.281
216.985
216.687
216.386
216.08
215.77
215.456
213.901
214.211
214.499
214.768
215.021
215.259
215.484
218.146
218.291
218.45
218.627
218.83
219.072
219.385
219.836
220.598
222.145
225.482
223.956
221.484
220.32
219.65
219.183
218.806
218.473
218.163
217.863
217.568
217.275
216.98
216.683
216.382
216.077
215.768
215.454
213.899
214.208
214.496
214.764
215.017
215.254
215.479
215.681
215.822
215.974
216.143
216.334
216.56
216.849
217.272
218.057
220.141
228.12
223.746
219.177
217.768
217.091
216.645
216.288
215.97
215.672
215.381
215.094
214.806
214.516
214.223
213.926
213.625
213.319
213.007
211.464
211.771
212.056
212.322
212.572
212.807
213.029
215.68
215.82
215.973
216.14
216.33
216.553
216.837
217.246
217.977
219.788
226.333
222.758
218.962
217.703
217.064
216.63
216.279
215.964
215.667
215.378
215.091
214.803
214.514
214.221
213.925
213.624
213.317
213.006
211.463
211.769
212.055
212.321
212.571
212.805
213.027
212.896
213.032
213.18
213.34
213.519
213.726
213.982
214.341
214.976
216.624
223.245
219.557
215.853
214.725
214.161
213.769
213.443
213.145
212.86
212.579
212.299
212.018
211.734
211.445
211.153
210.855
210.553
210.245
208.715
209.018
209.3
209.564
209.811
210.043
210.262
212.895
213.032
213.178
213.338
213.516
213.722
213.976
214.332
214.958
216.598
224.107
219.672
215.827
214.71
214.151
213.763
213.438
213.142
212.857
212.577
212.298
212.017
211.732
211.444
211.152
210.854
210.552
210.244
208.714
209.017
209.299
209.563
209.81
210.042
210.261
209.742
209.875
210.017
210.171
210.34
210.533
210.764
211.075
211.598
212.909
218.382
215.266
212.289
211.376
210.896
210.545
210.243
209.961
209.686
209.414
209.141
208.865
208.586
208.302
208.013
207.72
207.421
207.117
205.602
205.902
206.181
206.441
206.685
206.914
207.13
209.741
209.874
210.016
210.169
210.338
210.53
210.76
211.07
211.6
213.015
220.954
215.967
212.332
211.376
210.892
210.541
210.24
209.958
209.684
209.412
209.14
208.864
208.585
208.301
208.012
207.719
207.42
207.116
205.601
205.901
206.18
206.441
206.684
206.913
207.129
206.099
206.229
206.367
206.515
206.677
206.858
207.07
207.346
207.787
208.863
213.664
210.85
208.347
207.587
207.168
206.849
206.565
206.295
206.03
205.765
205.498
205.228
204.953
204.674
204.39
204.101
203.807
203.507
202.011
202.307
202.582
202.839
203.079
203.305
203.517
206.098
206.228
206.365
206.513
206.674
206.854
207.065
207.337
207.779
208.934
216.43
211.504
208.367
207.578
207.16
206.843
206.561
206.292
206.028
205.763
205.497
205.227
204.952
204.673
204.389
204.1
203.806
203.506
202.01
202.306
202.581
202.838
203.078
203.304
203.516
201.744
201.87
202.005
202.148
202.303
202.474
202.671
202.919
203.299
204.222
209.252
206.095
203.77
203.116
202.744
202.45
202.182
201.923
201.666
201.409
201.148
200.884
200.615
200.341
200.063
199.779
199.489
199.195
197.724
198.015
198.285
198.537
198.773
198.995
199.203
201.743
201.869
202.002
202.145
202.299
202.469
202.662
202.903
203.27
204.174
210.519
206.211
203.725
203.09
202.729
202.439
202.174
201.917
201.662
201.405
201.145
200.881
200.613
200.34
200.061
199.777
199.488
199.193
197.723
198.013
198.284
198.536
198.772
198.993
199.202
196.225
196.347
196.477
196.614
196.763
196.925
197.108
197.331
197.66
198.448
204.218
200.265
198.053
197.492
197.161
196.889
196.635
196.388
196.141
195.892
195.64
195.383
195.122
194.856
194.584
194.308
194.026
193.739
192.305
192.588
192.852
193.097
193.327
193.543
193.746
196.223
196.345
196.473
196.61
196.757
196.916
197.094
197.306
197.605
198.26
202.268
199.592
197.934
197.445
197.135
196.872
196.624
196.38
196.134
195.887
195.635
195.379
195.119
194.853
194.582
194.306
194.024
193.737
192.303
192.586
192.85
193.095
193.325
193.541
193.744
188.194
188.309
188.43
188.559
188.696
188.845
189.011
189.208
189.482
190.11
195.983
191.668
189.791
189.333
189.047
188.802
188.569
188.34
188.109
187.876
187.638
187.397
187.151
186.9
186.644
186.383
186.118
185.846
184.493
184.76
185.009
185.241
185.458
185.661
185.853
151.365
151.364
151.365
151.371
151.383
151.41
151.464
151.587
151.918
153.23
165.766
157.039
152.586
151.838
151.601
151.503
151.457
151.436
151.428
151.428
151.432
151.44
151.449
151.461
151.474
151.488
151.503
151.519
151.607
151.591
151.576
151.563
151.551
151.54
151.53
151.342
151.334
151.326
151.319
151.31
151.302
151.295
151.289
151.291
151.349
154.392
151.746
151.317
151.295
151.3
151.31
151.322
151.336
151.35
151.365
151.38
151.396
151.412
151.429
151.446
151.463
151.481
151.499
151.59
151.572
151.555
151.54
151.526
151.512
151.499
41.2883
41.4849
41.6904
41.9042
42.1251
42.3497
42.5692
42.7579
42.8223
42.216
30.9351
39.4608
42.5064
42.6644
42.4632
42.1616
41.8179
41.4507
41.0678
40.6728
40.2674
39.8529
39.4299
38.9989
38.5603
38.1143
37.6611
37.2011
34.9291
35.3719
35.7851
36.172
36.5352
36.8769
37.1993
122.363
122.408
122.457
122.514
122.58
122.662
122.774
122.951
123.292
124.151
126.85
125.43
123.771
123.18
122.898
122.723
122.593
122.484
122.385
122.293
122.202
122.114
122.025
121.936
121.847
121.756
121.664
121.571
121.114
121.205
121.291
121.37
121.445
121.516
121.582
122.361
122.405
122.454
122.509
122.573
122.651
122.755
122.909
123.183
123.78
125.244
124.559
123.522
123.089
122.855
122.699
122.578
122.473
122.377
122.286
122.197
122.109
122.021
121.933
121.844
121.754
121.662
121.57
121.113
121.204
121.288
121.368
121.442
121.513
121.579
120.913
120.956
121.003
121.056
121.117
121.191
121.288
121.434
121.7
122.323
123.921
123.171
122.05
121.608
121.381
121.232
121.116
121.015
120.922
120.834
120.747
120.66
120.574
120.486
120.398
120.309
120.218
120.126
119.672
119.763
119.847
119.925
119.999
120.069
120.135
120.912
120.954
121.001
121.053
121.113
121.186
121.282
121.428
121.706
122.44
125.144
123.654
122.107
121.61
121.375
121.226
121.111
121.011
120.919
120.831
120.744
120.658
120.572
120.485
120.397
120.307
120.217
120.125
119.671
119.761
119.846
119.924
119.998
120.068
120.133
120.909
120.951
120.997
121.048
121.106
121.174
121.261
121.386
121.594
122.016
122.962
122.523
121.834
121.516
121.331
121.201
121.094
121
120.91
120.824
120.739
120.653
120.568
120.481
120.394
120.305
120.215
120.123
119.669
119.759
119.843
119.922
119.995
120.064
120.13
119.249
119.291
119.335
119.385
119.441
119.508
119.593
119.719
119.953
120.573
122.921
121.638
120.287
119.867
119.666
119.534
119.429
119.335
119.248
119.163
119.078
118.994
118.91
118.824
118.737
118.649
118.56
118.469
118.018
118.108
118.191
118.269
118.342
118.41
118.475
119.247
119.288
119.332
119.381
119.435
119.499
119.58
119.694
119.898
120.406
122.318
121.262
120.173
119.82
119.641
119.518
119.418
119.327
119.242
119.158
119.074
118.991
118.907
118.821
118.735
118.647
118.558
118.467
118.017
118.106
118.189
118.267
118.34
118.408
118.473
117.375
117.415
117.458
117.506
117.558
117.62
117.696
117.804
117.997
118.498
120.461
119.376
118.265
117.922
117.752
117.635
117.538
117.45
117.366
117.284
117.202
117.12
117.036
116.952
116.867
116.78
116.691
116.602
116.155
116.244
116.326
116.403
116.475
116.543
116.607
117.374
117.413
117.456
117.502
117.553
117.612
117.685
117.786
117.961
118.423
120.619
119.309
118.204
117.89
117.733
117.622
117.529
117.443
117.361
117.28
117.198
117.117
117.034
116.95
116.865
116.778
116.69
116.6
116.154
116.242
116.324
116.401
116.473
116.541
116.605
115.258
115.297
115.338
115.384
115.434
115.491
115.56
115.655
115.817
116.226
117.878
116.95
116.034
115.75
115.603
115.497
115.408
115.324
115.243
115.164
115.084
115.003
114.921
114.838
114.754
114.669
114.581
114.493
114.051
114.139
114.22
114.296
114.367
114.434
114.497
115.256
115.295
115.336
115.381
115.43
115.485
115.551
115.639
115.789
116.19
118.515
117.042
115.996
115.725
115.587
115.487
115.4
115.318
115.239
115.16
115.081
115
114.919
114.837
114.753
114.667
114.58
114.491
114.05
114.137
114.219
114.294
114.365
114.432
114.495
112.821
112.859
112.9
112.944
112.991
113.045
113.109
113.193
113.332
113.676
115.163
114.305
113.512
113.271
113.142
113.045
112.961
112.881
112.803
112.726
112.648
112.569
112.489
112.407
112.324
112.24
112.154
112.067
111.632
111.718
111.798
111.873
111.943
112.008
112.07
112.82
112.858
112.898
112.941
112.987
113.039
113.099
113.177
113.302
113.628
115.819
114.365
113.467
113.245
113.126
113.035
112.953
112.875
112.799
112.722
112.645
112.566
112.486
112.405
112.323
112.239
112.153
112.066
111.63
111.717
111.797
111.871
111.941
112.007
112.069
109.918
109.955
109.994
110.037
110.082
110.133
110.192
110.267
110.387
110.685
112.261
111.287
110.54
110.331
110.217
110.128
110.049
109.973
109.897
109.822
109.746
109.669
109.591
109.512
109.431
109.348
109.264
109.179
108.752
108.836
108.915
108.988
109.056
109.121
109.181
109.917
109.953
109.992
110.033
110.078
110.126
110.181
110.249
110.351
110.598
112.432
111.167
110.475
110.3
110.199
110.116
110.04
109.966
109.893
109.818
109.743
109.667
109.589
109.51
109.429
109.347
109.263
109.177
108.751
108.835
108.913
108.986
109.055
109.119
109.18
106.232
106.267
106.304
106.344
106.387
106.435
106.489
106.556
106.658
106.91
108.716
107.492
106.784
106.607
106.507
106.426
106.352
106.28
106.209
106.137
106.064
105.99
105.915
105.838
105.76
105.68
105.599
105.516
105.104
105.185
105.261
105.332
105.398
105.46
105.519
106.23
106.265
106.302
106.341
106.382
106.427
106.476
106.534
106.612
106.772
107.829
107.098
106.691
106.568
106.485
106.412
106.342
106.273
106.203
106.132
106.06
105.987
105.912
105.836
105.758
105.678
105.597
105.515
105.102
105.184
105.26
105.33
105.396
105.458
105.516
100.808
100.84
100.874
100.91
100.948
100.989
101.036
101.092
101.171
101.359
103.21
101.841
101.264
101.129
101.047
100.978
100.913
100.849
100.785
100.721
100.655
100.588
100.52
100.45
100.379
100.307
100.234
100.158
99.7836
99.8577
99.9265
99.9907
100.051
100.107
100.16
79.8645
79.8393
79.814
79.7893
79.7666
79.749
79.7432
79.7684
79.8913
80.4803
86.2635
82.2613
80.1933
79.8795
79.8108
79.8096
79.8347
79.8726
79.9178
79.9678
80.0213
80.0775
80.1359
80.1964
80.2587
80.3227
80.3883
80.4554
80.7955
80.729
80.6673
80.61
80.5565
80.5065
80.4597
79.8518
79.823
79.7926
79.7605
79.7264
79.6897
79.6497
79.6041
79.5459
79.4456
80.1038
79.3644
79.4947
79.5805
79.6447
79.7032
79.7602
79.8172
79.8748
79.9333
79.9928
80.0535
80.1155
80.1787
80.2431
80.3089
80.3759
80.4443
80.7859
80.7184
80.6557
80.5973
80.5426
80.4912
80.4429
26.5891
26.6932
26.802
26.9153
27.0323
27.1512
27.2674
27.3674
27.4016
27.0806
21.1092
25.622
27.2343
27.3179
27.2113
27.0516
26.8696
26.6751
26.4723
26.2631
26.0484
25.8289
25.6049
25.3766
25.1443
24.9081
24.6681
24.4244
23.2211
23.4556
23.6745
23.8794
24.0717
24.2527
24.4235
80.0783
80.0958
80.1152
80.1372
80.1631
80.1953
80.2393
80.3085
80.4422
80.781
81.8553
81.2888
80.631
80.3984
80.2876
80.2191
80.1682
80.1255
80.0869
80.0505
80.0152
79.9804
79.9457
79.9108
79.8757
79.8402
79.8043
79.7678
79.5887
79.6245
79.6579
79.6891
79.7184
79.7461
79.7723
80.0767
80.0937
80.1124
80.1334
80.1576
80.1871
80.2258
80.2831
80.3839
80.6083
81.1854
80.9117
80.5102
80.3484
80.2617
80.2033
80.1575
80.1176
80.0809
80.0457
80.0113
79.9771
79.9429
79.9084
79.8736
79.8384
79.8027
79.7664
79.5874
79.623
79.6562
79.6873
79.7164
79.7439
79.7698
79.0214
79.0385
79.0572
79.0783
79.1027
79.1326
79.1724
79.2328
79.3434
79.6004
80.238
79.9423
79.4885
79.3057
79.2119
79.151
79.104
79.0638
79.0268
78.9916
78.9572
78.9231
78.8891
78.8548
78.8201
78.7851
78.7496
78.7135
78.5356
78.571
78.604
78.6349
78.6639
78.6912
78.717
79.0201
79.0367
79.0549
79.0752
79.0986
79.1268
79.1641
79.2206
79.3284
79.6149
80.688
80.0943
79.4842
79.2909
79.1998
79.1419
79.0972
79.0584
79.0226
78.9881
78.9543
78.9207
78.8869
78.8529
78.8185
78.7836
78.7482
78.7122
78.5345
78.5698
78.6027
78.6335
78.6624
78.6896
78.7153
79.0183
79.0345
79.052
79.0712
79.0929
79.1183
79.15
79.1943
79.267
79.4152
79.7682
79.5998
79.3504
79.2385
79.1729
79.1255
79.086
79.0502
79.0163
78.9831
78.9502
78.9172
78.8839
78.8503
78.8162
78.7816
78.7465
78.7107
78.5331
78.5683
78.601
78.6316
78.6603
78.6873
78.7127
77.804
77.8202
77.8378
77.8573
77.8794
77.9058
77.9399
77.9904
78.0846
78.3339
79.2616
78.757
78.2193
78.0505
77.9698
77.917
77.8753
77.8385
77.804
77.7706
77.7376
77.7047
77.6715
77.638
77.6041
77.5697
77.5347
77.4992
77.3232
77.3582
77.3907
77.4211
77.4497
77.4765
77.5018
77.8024
77.8181
77.8351
77.8537
77.8744
77.8985
77.9284
77.9705
78.0443
78.2307
78.9779
78.5581
78.144
78.0153
77.9497
77.904
77.8661
77.8316
77.7986
77.7663
77.734
77.7016
77.6689
77.6358
77.6021
77.5679
77.5332
77.4978
77.322
77.3568
77.3892
77.4195
77.4478
77.4745
77.4997
76.4284
76.4441
76.461
76.4796
76.5005
76.525
76.5558
76.6
76.6797
76.8869
77.6697
77.2425
76.791
76.6494
76.5796
76.5323
76.4937
76.4589
76.4259
76.3936
76.3615
76.3293
76.2969
76.264
76.2307
76.1968
76.1624
76.1274
75.9536
75.988
76.0201
76.0501
76.0782
76.1046
76.1295
76.4269
76.4422
76.4586
76.4764
76.496
76.5185
76.5457
76.5829
76.6471
76.8168
77.6751
77.1549
76.7357
76.6205
76.5623
76.5208
76.4855
76.4528
76.4211
76.3897
76.3583
76.3266
76.2946
76.262
76.2289
76.1952
76.161
76.1261
75.9525
75.9868
76.0188
76.0486
76.0766
76.1028
76.1276
74.8685
74.8837
74.9001
74.9179
74.9377
74.9605
74.9887
75.0278
75.0962
75.2711
75.9468
75.5744
75.1895
75.0689
75.0077
74.9647
74.9288
74.8958
74.8641
74.8328
74.8016
74.7702
74.7385
74.7063
74.6736
74.6404
74.6066
74.5722
74.4011
74.435
74.4665
74.4959
74.5235
74.5495
74.5739
74.8672
74.8821
74.898
74.9151
74.9338
74.9548
74.9798
75.013
75.0683
75.2167
76.1245
75.5417
75.1443
75.0441
74.9927
74.9548
74.9217
74.8905
74.8599
74.8295
74.7989
74.7679
74.7365
74.7046
74.6721
74.639
74.6053
74.5711
74.4001
74.4339
74.4654
74.4947
74.5222
74.548
74.5723
73.0656
73.0803
73.0961
73.1131
73.132
73.1534
73.1792
73.2142
73.2737
73.4255
74.055
73.6997
73.3537
73.2488
73.1945
73.1552
73.1215
73.0902
73.0597
73.0296
72.9993
72.9688
72.9379
72.9065
72.8746
72.8421
72.8091
72.7754
72.6079
72.6411
72.6719
72.7007
72.7276
72.753
72.7769
73.0644
73.0787
73.0941
73.1104
73.1282
73.1479
73.1706
73.1996
73.2454
73.3643
74.2155
73.6421
73.3053
73.2238
73.1797
73.1455
73.1147
73.0851
73.0557
73.0264
72.9967
72.9666
72.936
72.9048
72.8731
72.8408
72.8079
72.7743
72.607
72.6401
72.6708
72.6995
72.7263
72.7516
72.7753
70.9019
70.916
70.9311
70.9473
70.9651
70.985
71.0086
71.0397
71.091
71.2242
71.9009
71.4919
71.1598
71.0685
71.0206
70.9849
70.9536
70.924
70.895
70.8661
70.8371
70.8077
70.7778
70.7475
70.7166
70.6852
70.6533
70.6207
70.4583
70.4905
70.5203
70.5482
70.5743
70.5988
70.6219
70.9007
70.9144
70.929
70.9445
70.9612
70.9793
70.9997
71.0242
71.0598
71.1442
71.84
71.3473
71.1016
71.0412
71.005
70.9747
70.9464
70.9186
70.8909
70.8628
70.8343
70.8053
70.7758
70.7458
70.7151
70.6839
70.652
70.6196
70.4574
70.4894
70.5192
70.547
70.5729
70.5973
70.6203
68.1168
68.13
68.144
68.159
68.1753
68.1934
68.2144
68.2411
68.2837
68.3949
69.168
68.6528
68.3398
68.2639
68.2231
68.1916
68.1632
68.136
68.1092
68.0823
68.0551
68.0276
67.9996
67.9711
67.9421
67.9126
67.8825
67.8518
67.6989
67.7291
67.7572
67.7834
67.808
67.8311
67.8528
68.1154
68.1282
68.1417
68.1559
68.1709
68.1869
68.2042
68.2233
68.2465
68.2869
68.6177
68.3708
68.2659
68.2317
68.205
68.18
68.1551
68.13
68.1045
68.0785
68.052
68.025
67.9974
67.9692
67.9404
67.9111
67.8811
67.8506
67.6978
67.7279
67.7559
67.782
67.8064
67.8294
67.8509
64.067
64.0784
64.0904
64.1032
64.117
64.132
64.1488
64.1692
64.1989
64.2716
65.0295
64.4643
64.2347
64.1835
64.1533
64.1283
64.1049
64.0819
64.059
64.0358
64.0123
63.9883
63.964
63.9391
63.9138
63.888
63.8617
63.8349
63.7009
63.7273
63.7519
63.7748
63.7963
63.8164
63.8354
50.8061
50.7848
50.763
50.7412
50.7202
50.7016
50.6893
50.6941
50.7536
51.0762
54.282
52.0724
50.9197
50.7544
50.7282
50.7405
50.7681
50.8032
50.8428
50.8854
50.9303
50.9771
51.0255
51.0754
51.1266
51.1792
51.2329
51.2879
51.5653
51.5109
51.4604
51.4134
51.3696
51.3286
51.2901
50.7983
50.7748
50.75
50.7236
50.6956
50.6654
50.6321
50.5936
50.5424
50.4441
50.547
50.3069
50.4927
50.5716
50.6267
50.6755
50.7225
50.7693
50.8165
50.8643
50.9129
50.9625
51.013
51.0646
51.1171
51.1707
51.2254
51.2811
51.5594
51.5044
51.4533
51.4057
51.3611
51.3192
51.2798
20.358
20.42
20.4848
20.5523
20.622
20.6928
20.762
20.8216
20.842
20.651
17.0968
19.7827
20.7424
20.7922
20.7286
20.6335
20.5251
20.4092
20.2885
20.1638
20.036
19.9052
19.7718
19.6358
19.4975
19.3568
19.2138
19.0687
18.352
18.4917
18.622
18.7441
18.8586
18.9664
19.0681
57.2931
57.3014
57.3107
57.3211
57.3334
57.3487
57.3696
57.4025
57.4662
57.6288
58.1503
57.8744
57.5567
57.4453
57.3926
57.36
57.3358
57.3155
57.2971
57.2798
57.263
57.2465
57.23
57.2134
57.1967
57.1798
57.1627
57.1453
57.06
57.0771
57.093
57.1078
57.1218
57.1349
57.1474
57.2918
57.2997
57.3084
57.3181
57.3292
57.3425
57.3597
57.3848