/*--------------------------------*- C++ -*----------------------------------*\
  =========                 |
  \\      /  F ield         | OpenFOAM: The Open Source CFD Toolbox
   \\    /   O peration     | Website:  https://openfoam.org
    \\  /    A nd           | Version:  6
     \\/     M anipulation  |
\*---------------------------------------------------------------------------*/
FoamFile
{
    version     2.0;
    format      ascii;
    class       volVectorField;
    location    "48";
    object      wallShearStress;
}
// * * * * * * * * * * * * * * * * * * * * * * * * * * * * * * * * * * * * * //

dimensions      [0 2 -2 0 0 0 0];

internalField   uniform (0 0 0);

boundaryField
{
    inlet
    {
        type            calculated;
        value           uniform (0 0 0);
    }
    outlet
    {
        type            calculated;
        value           uniform (0 0 0);
    }
    roughCylinder
    {
        type            calculated;
        value           nonuniform List<vector> 
3840
(
(-0.000133781 -0.000171252 -7.59208e-05)
(-0.00021533 -0.000366742 -5.13284e-05)
(-0.000302942 -0.000524116 3.31439e-05)
(-0.000368393 -0.000594116 9.79466e-05)
(-0.00043728 -0.000635111 0.000150875)
(-0.000482258 -0.000628801 0.00018272)
(-0.000522666 -0.000618079 0.000203508)
(-0.000550588 -0.000603595 0.000216214)
(-0.000577004 -0.000597722 0.000226815)
(-0.000590161 -0.000589579 0.000229945)
(-0.00060516 -0.00059112 0.000230504)
(-0.000604563 -0.000583887 0.000222329)
(-0.000599229 -0.000575676 0.000209834)
(-0.000613623 -0.000588263 0.000201328)
(-0.000611828 -0.000588277 0.000185446)
(-0.000601057 -0.000580227 0.000165727)
(-0.000606946 -0.000587935 0.000149671)
(-0.00061553 -0.000598529 0.000133182)
(-0.000625797 -0.000610485 0.000115945)
(-0.000619945 -0.000607444 9.52671e-05)
(-0.000618163 -0.000608242 7.5116e-05)
(-0.000613642 -0.000605903 5.44662e-05)
(-0.00060911 -0.000603083 3.33145e-05)
(-0.000607878 -0.000602751 1.13227e-05)
(-0.000129007 -0.000147266 -6.36994e-05)
(-0.000232288 -0.000359013 -5.83714e-05)
(-0.00032382 -0.000518367 2.38421e-05)
(-0.000393056 -0.00059433 8.95888e-05)
(-0.000464789 -0.000638598 0.000143355)
(-0.000512798 -0.000636244 0.000176242)
(-0.000556941 -0.000629938 0.000198465)
(-0.000588458 -0.000618439 0.000213179)
(-0.000617983 -0.000612974 0.000225453)
(-0.000632299 -0.000603387 0.000229358)
(-0.000648172 -0.000604225 0.000230187)
(-0.000648483 -0.000597429 0.000222581)
(-0.000643819 -0.000589837 0.000210567)
(-0.000658344 -0.000601699 0.000201837)
(-0.000659393 -0.000604341 0.000186811)
(-0.000647619 -0.000596175 0.000167068)
(-0.000654098 -0.000604054 0.000150988)
(-0.000663515 -0.000615255 0.000134502)
(-0.000675182 -0.000628138 0.000117308)
(-0.000668585 -0.000624835 9.64277e-05)
(-0.000668108 -0.000627063 7.62476e-05)
(-0.00066299 -0.000624506 5.53082e-05)
(-0.000658419 -0.000621958 3.38694e-05)
(-0.000657299 -0.000621829 1.1524e-05)
(-0.000114076 -0.00011439 -4.6484e-05)
(-0.000252194 -0.000350156 -6.62681e-05)
(-0.000344987 -0.0005071 1.34454e-05)
(-0.000418003 -0.000588976 7.98005e-05)
(-0.000492776 -0.000637045 0.000134432)
(-0.000544419 -0.000639775 0.000168861)
(-0.000592577 -0.000638333 0.000192979)
(-0.000627782 -0.000630134 0.000209755)
(-0.000660106 -0.000625535 0.000223486)
(-0.00067617 -0.000614484 0.000228184)
(-0.000692966 -0.000614423 0.000229375)
(-0.000694674 -0.000608217 0.000222452)
(-0.000691931 -0.000602196 0.000211296)
(-0.000706673 -0.000613373 0.000202414)
(-0.000710826 -0.000618571 0.000188242)
(-0.000698479 -0.00061072 0.000168601)
(-0.000703924 -0.000617364 0.000152148)
(-0.000713428 -0.000628459 0.000135558)
(-0.000726039 -0.000641739 0.000118364)
(-0.000717722 -0.000637427 9.72251e-05)
(-0.000720221 -0.000642453 7.72579e-05)
(-0.000715484 -0.000640645 5.61475e-05)
(-0.000711697 -0.000639148 3.44647e-05)
(-0.00071067 -0.000639204 1.17395e-05)
(-0.000174784 -0.000152404 -5.5902e-05)
(-0.000260115 -0.000323402 -7.1069e-05)
(-0.000364041 -0.000489936 2.26269e-06)
(-0.000439863 -0.000576559 6.84741e-05)
(-0.000518136 -0.000629464 0.000123842)
(-0.00057423 -0.000638726 0.00016016)
(-0.0006268 -0.000642762 0.000186553)
(-0.000665721 -0.000637956 0.000205492)
(-0.000700718 -0.000634335 0.000220475)
(-0.000719611 -0.000623067 0.000226345)
(-0.000737923 -0.000622062 0.000228139)
(-0.000741609 -0.000616566 0.000222019)
(-0.000740232 -0.000611371 0.000211507)
(-0.000754492 -0.000621271 0.000202381)
(-0.000761256 -0.000628299 0.000188927)
(-0.000749634 -0.000621815 0.000169759)
(-0.000754185 -0.000627571 0.000153085)
(-0.000764873 -0.000639484 0.000136654)
(-0.000778845 -0.00065348 0.000119526)
(-0.000769155 -0.000648663 9.81921e-05)
(-0.000773905 -0.000655593 7.82968e-05)
(-0.000768453 -0.000653609 5.69264e-05)
(-0.00076484 -0.000652588 3.49922e-05)
(-0.000764087 -0.000652996 1.19355e-05)
(-0.000226801 -0.000170646 -5.28198e-05)
(-0.000282723 -0.000312292 -7.9673e-05)
(-0.000378769 -0.000465581 -9.50277e-06)
(-0.00045888 -0.000558735 5.60364e-05)
(-0.000540867 -0.000616939 0.000111934)
(-0.000601894 -0.000633441 0.000150262)
(-0.000659072 -0.000643125 0.000179113)
(-0.000702007 -0.000641965 0.000200381)
(-0.000740281 -0.00063989 0.000216786)
(-0.000762642 -0.000629554 0.000224094)
(-0.000783029 -0.000627102 0.000226597)
(-0.000788745 -0.000622059 0.000221324)
(-0.000789786 -0.000618189 0.00021173)
(-0.000803845 -0.000627054 0.000202531)
(-0.000812871 -0.000635393 0.000189679)
(-0.000802142 -0.000630307 0.000170999)
(-0.000804468 -0.000634342 0.000153927)
(-0.000815722 -0.000646478 0.000137579)
(-0.000830757 -0.000660925 0.000120507)
(-0.000819346 -0.000655551 9.89963e-05)
(-0.000827927 -0.000665493 7.93441e-05)
(-0.00082291 -0.000664415 5.78025e-05)
(-0.00082 -0.000664343 3.56051e-05)
(-0.000819127 -0.00066477 1.21553e-05)
(-0.00017182 -0.000109828 -2.59745e-05)
(-0.000277286 -0.000271221 -8.03986e-05)
(-0.000390016 -0.000436422 -2.11709e-05)
(-0.00047286 -0.000534289 4.2422e-05)
(-0.000558971 -0.000598534 9.85034e-05)
(-0.000625703 -0.000623088 0.0001389)
(-0.000688008 -0.000638726 0.000170343)
(-0.00073531 -0.000641353 0.00019404)
(-0.000777131 -0.000641018 0.000212011)
(-0.000802634 -0.000631732 0.000220622)
(-0.000826593 -0.000629089 0.000224323)
(-0.000834966 -0.000623956 0.000220103)
(-0.000837934 -0.000620759 0.000211316)
(-0.000851349 -0.000628179 0.000202066)
(-0.00086211 -0.000637205 0.000189757)
(-0.000853323 -0.00063421 0.000171838)
(-0.000854543 -0.000637708 0.000154731)
(-0.000866995 -0.000650506 0.000138605)
(-0.000883028 -0.000665348 0.000121579)
(-0.000870171 -0.000659842 9.99369e-05)
(-0.000881072 -0.000671306 8.03355e-05)
(-0.000875412 -0.00067033 5.8567e-05)
(-0.000872957 -0.00067099 3.61387e-05)
(-0.000872421 -0.000671911 1.23563e-05)
(-0.000337723 -0.000181661 -2.55681e-05)
(-0.000294571 -0.000252748 -8.66418e-05)
(-0.000395518 -0.000401403 -3.2943e-05)
(-0.000481945 -0.000505058 2.78056e-05)
(-0.000572588 -0.000575914 8.37653e-05)
(-0.000645455 -0.000608717 0.000126198)
(-0.000713171 -0.00063015 0.000160227)
(-0.000765487 -0.000636773 0.00018646)
(-0.000811492 -0.00063857 0.000206254)
(-0.000841414 -0.000631314 0.000216556)
(-0.00086886 -0.000628963 0.000221485)
(-0.000880594 -0.000623661 0.000218513)
(-0.000886171 -0.000620702 0.000210754)
(-0.000899369 -0.000627007 0.000201686)
(-0.000911381 -0.000636233 0.000189854)
(-0.000904104 -0.000634857 0.000172615)
(-0.00090351 -0.000637494 0.000155446)
(-0.000916494 -0.000650376 0.000139474)
(-0.000933391 -0.000665728 0.000122534)
(-0.00091955 -0.00066091 0.00010087)
(-0.000933822 -0.000674789 8.14238e-05)
(-0.000928585 -0.000675069 5.9489e-05)
(-0.000926573 -0.000676661 3.67764e-05)
(-0.000925479 -0.000677417 1.2582e-05)
(-0.000326062 -0.000144881 -1.21886e-06)
(-0.000290395 -0.00021619 -8.63074e-05)
(-0.000395359 -0.000362402 -4.39539e-05)
(-0.000484044 -0.000470149 1.24125e-05)
(-0.000579124 -0.000547824 6.75534e-05)
(-0.000658695 -0.000589168 0.000111834)
(-0.000732742 -0.00061677 0.000148437)
(-0.000790688 -0.000627481 0.00017722)
(-0.000841629 -0.000631813 0.00019906)
(-0.000875401 -0.000626105 0.000211042)
(-0.0009064 -0.000624342 0.000217316)
(-0.000922286 -0.000619845 0.000215874)
(-0.000931033 -0.000617204 0.000209419)
(-0.000943894 -0.000621858 0.000200697)
(-0.000956938 -0.000630961 0.000189406)
(-0.000952149 -0.000631825 0.000173113)
(-0.000951494 -0.000635194 0.000156313)
(-0.000964862 -0.000648324 0.000140531)
(-0.000981663 -0.000663663 0.000123563)
(-0.000966549 -0.000659549 0.000101848)
(-0.000981608 -0.000673888 8.23212e-05)
(-0.000975688 -0.000674752 6.02033e-05)
(-0.00097411 -0.000677322 3.72819e-05)
(-0.000973225 -0.000678483 1.27707e-05)
(-0.000392818 -0.000141083 2.39917e-05)
(-0.000292059 -0.000186228 -8.71074e-05)
(-0.000387813 -0.000319354 -5.35188e-05)
(-0.000478613 -0.000430501 -3.34914e-06)
(-0.000578407 -0.000515497 5.01328e-05)
(-0.000665354 -0.000565595 9.59778e-05)
(-0.000745891 -0.000598921 0.000134915)
(-0.000810416 -0.000613928 0.000166267)
(-0.000866741 -0.0006208 0.000190259)
(-0.000906176 -0.000617775 0.0002045)
(-0.000941218 -0.000616972 0.000212436)
(-0.000960676 -0.000613163 0.000212553)
(-0.000972665 -0.000611205 0.000207545)
(-0.000986114 -0.000614844 0.000199529)
(-0.000999822 -0.000623563 0.000188877)
(-0.000996481 -0.00062586 0.000173415)
(-0.000994999 -0.000629558 0.000156951)
(-0.00100798 -0.000642486 0.000141305)
(-0.0010246 -0.000657719 0.000124335)
(-0.00100951 -0.000655146 0.000102731)
(-0.00102603 -0.000670134 8.31913e-05)
(-0.00102014 -0.000672016 6.09401e-05)
(-0.0010184 -0.000675059 3.77736e-05)
(-0.00101662 -0.000675937 1.29405e-05)
(-0.000427654 -0.000120571 5.16343e-05)
(-0.000294801 -0.000157333 -8.6764e-05)
(-0.000373941 -0.000274557 -6.15739e-05)
(-0.000464274 -0.000386153 -1.89041e-05)
(-0.000567934 -0.000477952 3.16028e-05)
(-0.000662179 -0.000536484 7.83239e-05)
(-0.000750536 -0.0005761 0.000119399)
(-0.000822472 -0.000595403 0.00015322)
(-0.00088537 -0.00060522 0.000179563)
(-0.000929894 -0.00060421 0.000196048)
(-0.000968715 -0.000604235 0.000205835)
(-0.000992205 -0.000601548 0.000207848)
(-0.00100733 -0.000600355 0.000204445)
(-0.00102146 -0.000603436 0.0001974)
(-0.00103593 -0.000611962 0.000187601)
(-0.00103498 -0.000616109 0.000173236)
(-0.00103429 -0.00062104 0.000157443)
(-0.00104618 -0.000633201 0.00014187)
(-0.00106128 -0.000647475 0.000124787)
(-0.00104569 -0.000646084 0.000103284)
(-0.00106141 -0.000660115 8.36232e-05)
(-0.00105523 -0.000662762 6.13385e-05)
(-0.00105405 -0.000666718 3.80829e-05)
(-0.00105229 -0.000668014 1.30612e-05)
(-0.000445726 -9.31749e-05 7.8257e-05)
(-0.000289507 -0.000126469 -8.24002e-05)
(-0.000351507 -0.000227422 -6.68696e-05)
(-0.000439661 -0.000337391 -3.34014e-05)
(-0.000546591 -0.000435585 1.24249e-05)
(-0.000649218 -0.00050325 5.91301e-05)
(-0.000745653 -0.000548917 0.000101857)
(-0.000826027 -0.000572552 0.000138046)
(-0.000895999 -0.000584959 0.000166748)
(-0.000947385 -0.000586697 0.000185931)
(-0.000991253 -0.000588207 0.000198093)
(-0.00101869 -0.000586593 0.000202246)
(-0.00103686 -0.000586191 0.000200655)
(-0.00105169 -0.000588964 0.000194795)
(-0.00106624 -0.000597026 0.000185877)
(-0.00106623 -0.000602062 0.000172459)
(-0.00106573 -0.000607736 0.000157333)
(-0.00107672 -0.000619261 0.000141974)
(-0.00109048 -0.000632739 0.000124902)
(-0.00107597 -0.000633481 0.000103704)
(-0.00109127 -0.000646751 8.39978e-05)
(-0.0010847 -0.000650115 6.16983e-05)
(-0.00108276 -0.000654155 3.83229e-05)
(-0.0010797 -0.000655154 1.3144e-05)
(-0.000471606 -6.61595e-05 0.000107145)
(-0.000297492 -0.000103664 -8.00646e-05)
(-0.000323461 -0.000180995 -6.89269e-05)
(-0.00040494 -0.000285737 -4.57965e-05)
(-0.000513242 -0.000388633 -6.6905e-06)
(-0.000622903 -0.000464391 3.84106e-05)
(-0.000728393 -0.000516745 8.2066e-05)
(-0.000818662 -0.000545211 0.000120457)
(-0.000897111 -0.000560251 0.000151677)
(-0.000955396 -0.000564052 0.000173612)
(-0.00100375 -0.000566537 0.000188282)
(-0.00103537 -0.000566126 0.000194927)
(-0.00105684 -0.000566746 0.000195483)
(-0.0010729 -0.000569711 0.000191166)
(-0.00108799 -0.000577697 0.000183411)
(-0.00108969 -0.000584002 0.000171197)
(-0.00109013 -0.000590742 0.000156933)
(-0.00109891 -0.000600925 0.000141705)
(-0.00110939 -0.000612657 0.000124524)
(-0.0010945 -0.000614636 0.00010356)
(-0.00110757 -0.000626087 8.38038e-05)
(-0.0011007 -0.000630242 6.16568e-05)
(-0.00109908 -0.000635022 3.83543e-05)
(-0.00109585 -0.000636539 1.31708e-05)
(-0.000472583 -3.5136e-05 0.000130991)
(-0.000302529 -8.15207e-05 -7.55807e-05)
(-0.000290055 -0.000136521 -6.68838e-05)
(-0.000358974 -0.000231683 -5.45206e-05)
(-0.00046552 -0.000336391 -2.46172e-05)
(-0.000582658 -0.000420734 1.6784e-05)
(-0.000698099 -0.000480532 6.0238e-05)
(-0.000798821 -0.000514029 0.000100351)
(-0.000887064 -0.000531778 0.000134256)
(-0.00095364 -0.000537291 0.00015928)
(-0.00100811 -0.000541187 0.000176947)
(-0.00104435 -0.000542136 0.000186506)
(-0.00106893 -0.000543695 0.000189478)
(-0.00108585 -0.000546817 0.000186888)
(-0.0011004 -0.000554324 0.000180316)
(-0.00110197 -0.000560929 0.000169159)
(-0.00110252 -0.000568197 0.00015575)
(-0.00110983 -0.000577561 0.000140896)
(-0.00111766 -0.000588097 0.00012379)
(-0.00110391 -0.000592167 0.00010325)
(-0.00111492 -0.000601927 8.35035e-05)
(-0.00110669 -0.00060633 6.14875e-05)
(-0.00110347 -0.000610796 3.82411e-05)
(-0.00109854 -0.000612114 1.31323e-05)
(-0.000463694 -5.37658e-06 0.000150292)
(-0.000308118 -6.18327e-05 -7.01339e-05)
(-0.000253484 -9.65014e-05 -6.05482e-05)
(-0.00030355 -0.000177684 -5.79807e-05)
(-0.000404718 -0.000280751 -3.98654e-05)
(-0.000526664 -0.000371987 -4.90818e-06)
(-0.000651219 -0.000438992 3.65547e-05)
(-0.000764508 -0.000479098 7.76718e-05)
(-0.000863544 -0.000500058 0.0001142)
(-0.000939828 -0.000507233 0.000142771)
(-0.0010002 -0.000511436 0.000163721)
(-0.0010408 -0.000512888 0.000176359)
(-0.00106849 -0.000515502 0.000182014)
(-0.00108688 -0.000519271 0.00018156)
(-0.00110155 -0.000526793 0.00017651)
(-0.00110355 -0.000534071 0.000166644)
(-0.00110388 -0.000541649 0.000154121)
(-0.00110784 -0.000549374 0.000139477)
(-0.00111054 -0.000558092 0.000122314)
(-0.00109566 -0.000563055 0.000102094)
(-0.00110348 -0.000570977 8.24682e-05)
(-0.00109444 -0.000576042 6.08275e-05)
(-0.00109095 -0.000581049 3.78736e-05)
(-0.00108567 -0.000583051 1.30257e-05)
(-0.000440219 2.0104e-05 0.000161185)
(-0.000313441 -4.43781e-05 -6.37839e-05)
(-0.000217443 -6.37157e-05 -5.06897e-05)
(-0.000240789 -0.000126055 -5.46827e-05)
(-0.000328943 -0.000221193 -5.0212e-05)
(-0.000452541 -0.000317312 -2.52424e-05)
(-0.000588201 -0.000393294 1.18128e-05)
(-0.000713842 -0.000440195 5.26572e-05)
(-0.000825731 -0.000465916 9.1645e-05)
(-0.000912273 -0.0004749 0.000124018)
(-0.000979885 -0.0004797 0.000148816)
(-0.00102589 -0.000481737 0.000165138)
(-0.00105663 -0.000484658 0.000173741)
(-0.00107562 -0.00048848 0.000175425)
(-0.00108877 -0.000495557 0.00017181)
(-0.00108918 -0.000502844 0.000163101)
(-0.00108844 -0.00051057 0.000151486)
(-0.00109022 -0.000517655 0.00013737)
(-0.00108925 -0.000525729 0.000120459)
(-0.00107438 -0.00053215 0.000100701)
(-0.00107873 -0.00053843 8.12421e-05)
(-0.00106697 -0.00054321 5.99378e-05)
(-0.0010608 -0.000547517 3.72804e-05)
(-0.00105346 -0.000549333 1.28232e-05)
(-0.000402695 3.79463e-05 0.000160599)
(-0.000309621 -2.86407e-05 -5.52753e-05)
(-0.000182339 -3.90333e-05 -3.80766e-05)
(-0.000172743 -7.94001e-05 -4.36232e-05)
(-0.000241885 -0.000160784 -5.3148e-05)
(-0.000363394 -0.000259191 -4.24324e-05)
(-0.000505951 -0.000341734 -1.30335e-05)
(-0.000646473 -0.000397466 2.59944e-05)
(-0.000771132 -0.000428449 6.68761e-05)
(-0.000869873 -0.000441009 0.000103368)
(-0.000945284 -0.000446362 0.000132472)
(-0.000995744 -0.000448464 0.000152571)
(-0.00102906 -0.000451457 0.00016429)
(-0.00104907 -0.000455562 0.000168351)
(-0.0010614 -0.000462712 0.000166457)
(-0.00106058 -0.000470348 0.000159092)
(-0.00105751 -0.000477812 0.000148291)
(-0.00105456 -0.000483383 0.000134481)
(-0.00104673 -0.00048962 0.000117579)
(-0.00102953 -0.000496167 9.81717e-05)
(-0.00102981 -0.000500766 7.90582e-05)
(-0.00101641 -0.000505731 5.84033e-05)
(-0.00100917 -0.000510205 3.63384e-05)
(-0.0010013 -0.000512648 1.25205e-05)
(-0.00036075 4.64103e-05 0.000149165)
(-0.000295196 -1.6207e-05 -4.50838e-05)
(-0.000148402 -2.24043e-05 -2.36742e-05)
(-0.000109347 -4.30728e-05 -2.72657e-05)
(-0.000148297 -0.000102266 -4.67369e-05)
(-0.000254083 -0.000193267 -5.30551e-05)
(-0.000406428 -0.000285179 -3.64323e-05)
(-0.000561315 -0.000349866 -1.28268e-06)
(-0.000701377 -0.000388398 4.10882e-05)
(-0.000810958 -0.000404867 8.14739e-05)
(-0.000893732 -0.000411744 0.000114963)
(-0.000949563 -0.000414436 0.000139108)
(-0.000985372 -0.000417698 0.000153972)
(-0.00100521 -0.000421719 0.00016031)
(-0.00101474 -0.000428232 0.00015994)
(-0.00101089 -0.000435438 0.000153749)
(-0.00100498 -0.000442512 0.000143776)
(-0.000998854 -0.000447597 0.000130601)
(-0.000986345 -0.000453398 0.000114067)
(-0.000967375 -0.000460276 9.51091e-05)
(-0.000962631 -0.000463034 7.6363e-05)
(-0.000945019 -0.000466849 5.63392e-05)
(-0.000933954 -0.00046997 3.49553e-05)
(-0.000923758 -0.000471873 1.20412e-05)
(-0.000322877 4.60333e-05 0.000128705)
(-0.000271437 -8.13498e-06 -3.40346e-05)
(-0.00011601 -1.28884e-05 -9.59848e-06)
(-3.68351e-05 -1.26364e-05 -5.97399e-06)
(-5.22993e-05 -4.63347e-05 -2.6717e-05)
(-0.000141073 -0.000128584 -5.55203e-05)
(-0.000289511 -0.000220926 -5.59561e-05)
(-0.000460852 -0.000297355 -2.72307e-05)
(-0.000614721 -0.000343852 1.59799e-05)
(-0.00073664 -0.000366566 5.99469e-05)
(-0.000826908 -0.000376656 9.74858e-05)
(-0.00088614 -0.000380502 0.000125144)
(-0.000923084 -0.000383999 0.000142784)
(-0.000942617 -0.000388179 0.000151298)
(-0.000949896 -0.000394458 0.000152535)
(-0.000942996 -0.000401284 0.000147541)
(-0.000932319 -0.000407298 0.000138147)
(-0.000919683 -0.000410553 0.000125232)
(-0.000899383 -0.000414358 0.000108791)
(-0.000877078 -0.000420196 9.02959e-05)
(-0.000867412 -0.000421184 7.22286e-05)
(-0.000847513 -0.000424349 5.32861e-05)
(-0.000834676 -0.00042692 3.30105e-05)
(-0.000823754 -0.000428803 1.13831e-05)
(-0.000291661 3.91285e-05 0.000103043)
(-0.000241228 -4.05875e-06 -2.32143e-05)
(-6.6343e-05 -6.72331e-06 1.25518e-06)
(-1.50662e-05 -7.08182e-06 6.07113e-06)
(7.16494e-06 -1.22547e-05 -6.63175e-06)
(-1.84406e-05 -4.21017e-05 -2.97031e-05)
(-0.000164007 -0.000149491 -6.74208e-05)
(-0.000347498 -0.000237852 -4.8533e-05)
(-0.000516132 -0.000295808 -5.22279e-06)
(-0.000646044 -0.000324811 4.09149e-05)
(-0.000740371 -0.000338685 8.08855e-05)
(-0.000802363 -0.000345124 0.000110966)
(-0.00084001 -0.00034981 0.000130674)
(-0.000857875 -0.000354145 0.000140783)
(-0.00086104 -0.000359587 0.000143162)
(-0.000849967 -0.000365399 0.00013914)
(-0.000834879 -0.000370388 0.000130401)
(-0.000818045 -0.000372727 0.000118127)
(-0.000792572 -0.000375346 0.000102121)
(-0.000767361 -0.000379794 8.42034e-05)
(-0.000751837 -0.00037831 6.69006e-05)
(-0.000727127 -0.000379047 4.91134e-05)
(-0.000710015 -0.000379409 3.02279e-05)
(-0.000696826 -0.00038007 1.04022e-05)
(-0.000266102 3.45922e-05 7.7976e-05)
(-0.000211069 -4.84184e-07 -1.59884e-05)
(-7.83605e-05 -3.86527e-06 1.05437e-05)
(1.07692e-05 2.86028e-06 1.18516e-05)
(5.07666e-05 4.00161e-06 -1.09092e-06)
(3.32707e-05 -4.32872e-06 -1.51721e-05)
(-3.97963e-05 -5.8103e-05 -5.19228e-05)
(-0.000228893 -0.000169433 -5.82457e-05)
(-0.000405 -0.00024129 -1.74668e-05)
(-0.000541997 -0.000279901 2.76644e-05)
(-0.000639853 -0.000299867 6.74375e-05)
(-0.000702047 -0.000309459 9.77881e-05)
(-0.000738077 -0.000315445 0.000118026)
(-0.000753509 -0.00032013 0.000128888)
(-0.000752931 -0.000324975 0.000132071)
(-0.000737497 -0.000329493 0.000128784)
(-0.000716122 -0.000332374 0.000120306)
(-0.00069158 -0.000331811 0.000108135)
(-0.000658543 -0.00033129 9.22926e-05)
(-0.000629889 -0.000333232 7.51857e-05)
(-0.000609508 -0.000329131 5.91664e-05)
(-0.000582802 -0.000328038 4.32019e-05)
(-0.000564014 -0.000326955 2.64062e-05)
(-0.000550357 -0.000326888 9.06709e-06)
(-0.000233237 3.51363e-05 5.75059e-05)
(-0.000185986 4.85683e-06 -1.40065e-05)
(-5.61027e-05 5.28317e-06 8.63217e-06)
(2.95247e-05 6.09293e-06 3.5759e-06)
(6.89795e-05 8.91408e-06 4.35548e-06)
(5.12949e-05 1.4872e-05 3.61196e-06)
(1.02719e-05 -4.12786e-06 -2.10309e-05)
(-0.000118918 -9.54573e-05 -4.48139e-05)
(-0.000289615 -0.000183027 -1.44903e-05)
(-0.000423818 -0.000230729 2.33217e-05)
(-0.000519028 -0.000256601 5.79122e-05)
(-0.000579575 -0.000270182 8.52053e-05)
(-0.000613666 -0.000278229 0.000103962)
(-0.000625796 -0.000283162 0.000114236)
(-0.000620287 -0.000286677 0.000117313)
(-0.000600234 -0.000289249 0.000114353)
(-0.00057436 -0.00029016 0.000106309)
(-0.000545995 -0.000287673 9.47915e-05)
(-0.000509015 -0.000284574 7.95254e-05)
(-0.000478054 -0.000283668 6.35482e-05)
(-0.000453598 -0.000276306 4.917e-05)
(-0.000423292 -0.000271442 3.52436e-05)
(-0.00040124 -0.000267062 2.11261e-05)
(-0.00038584 -0.000264865 7.16755e-06)
(-0.00018795 3.10175e-05 4.14379e-05)
(-0.000159078 8.44376e-06 -1.14763e-05)
(-5.64284e-05 4.58553e-06 7.70141e-06)
(4.52266e-05 2.7431e-06 6.6369e-06)
(7.20529e-05 7.70167e-06 2.21599e-05)
(5.0972e-05 1.20312e-05 2.36767e-05)
(2.95695e-05 7.83483e-06 1.80269e-05)
(-3.79638e-05 -3.72678e-05 -1.52923e-06)
(-0.000169859 -0.00012344 7.51716e-06)
(-0.000295456 -0.000179934 2.96107e-05)
(-0.000388175 -0.00021297 5.37503e-05)
(-0.000445655 -0.000230422 7.42988e-05)
(-0.00047574 -0.000239745 8.89395e-05)
(-0.000483944 -0.000244412 9.70051e-05)
(-0.000474464 -0.000246418 9.91629e-05)
(-0.000450221 -0.000246422 9.59872e-05)
(-0.000418786 -0.000243753 8.78255e-05)
(-0.000383327 -0.000236105 7.61503e-05)
(-0.000341073 -0.000227617 6.11803e-05)
(-0.000308543 -0.000222807 4.69645e-05)
(-0.000281671 -0.000211403 3.50791e-05)
(-0.000251703 -0.000203629 2.41807e-05)
(-0.000230685 -0.000197426 1.39748e-05)
(-0.000216282 -0.000194097 4.61365e-06)
(-0.000142031 2.43616e-05 2.87646e-05)
(-0.000129606 1.06236e-05 -7.95886e-06)
(-3.57661e-05 1.05123e-06 1.01521e-05)
(3.61312e-05 8.74401e-06 1.80255e-05)
(5.01913e-05 8.797e-06 2.70804e-05)
(5.61261e-05 6.06179e-06 3.55655e-05)
(5.44203e-05 -2.49684e-06 4.87302e-05)
(1.32695e-05 -1.54878e-05 2.94341e-05)
(-5.97702e-05 -7.81177e-05 4.15003e-05)
(-0.000158939 -0.000129446 4.23145e-05)
(-0.000240304 -0.000163455 5.15424e-05)
(-0.000292629 -0.000183042 6.19561e-05)
(-0.000319555 -0.000193368 6.99537e-05)
(-0.000324507 -0.000197165 7.40016e-05)
(-0.000311166 -0.000196376 7.3887e-05)
(-0.000283999 -0.000192842 6.98784e-05)
(-0.000250931 -0.000186844 6.20625e-05)
(-0.000217016 -0.000176412 5.15832e-05)
(-0.000176873 -0.000163991 3.78662e-05)
(-0.000145733 -0.000155454 2.61834e-05)
(-0.000121904 -0.000140611 1.79052e-05)
(-9.26778e-05 -0.000127401 1.02897e-05)
(-7.09714e-05 -0.000115346 4.747e-06)
(-5.67453e-05 -0.00010802 1.23475e-06)
(-9.68534e-05 2.29955e-05 1.99386e-05)
(-0.000104065 1.56479e-05 -1.1121e-05)
(-3.18815e-05 9.5305e-06 5.88192e-06)
(1.55961e-05 2.49009e-05 1.4992e-05)
(4.67755e-05 2.74188e-05 1.95392e-05)
(7.7976e-05 2.21071e-05 3.03879e-05)
(6.30302e-05 2.49946e-06 3.15197e-05)
(6.69139e-05 -1.47996e-05 4.71315e-05)
(3.54388e-05 -3.68234e-05 4.8513e-05)
(-2.52551e-05 -7.56797e-05 4.74039e-05)
(-9.67403e-05 -0.000114099 4.84666e-05)
(-0.000144746 -0.000134694 4.81916e-05)
(-0.000167727 -0.000143793 4.77328e-05)
(-0.000170159 -0.000145298 4.62982e-05)
(-0.000156081 -0.000141384 4.31535e-05)
(-0.000128788 -0.00013347 3.76212e-05)
(-9.53495e-05 -0.000121617 2.94089e-05)
(-5.91961e-05 -9.92862e-05 1.83026e-05)
(-2.44783e-05 -7.40911e-05 6.00191e-06)
(-2.30544e-06 -5.86038e-05 -1.3985e-06)
(5.70527e-06 -3.20045e-05 -3.12379e-06)
(2.13397e-05 -3.07976e-05 -8.10307e-06)
(2.20993e-05 -1.66683e-05 -5.72593e-06)
(2.02946e-05 -9.2882e-06 -1.97568e-06)
(-3.61129e-05 1.73575e-05 1.37667e-05)
(-7.41517e-05 1.7365e-05 -2.28525e-05)
(-4.11989e-05 1.81125e-05 -1.46294e-05)
(-1.36345e-05 3.69065e-05 -1.52054e-05)
(2.60255e-05 5.44482e-05 -2.26888e-05)
(6.39402e-05 5.28827e-05 -2.84796e-05)
(6.89978e-05 2.36167e-05 -1.22324e-05)
(7.72779e-05 5.78114e-06 6.4037e-06)
(5.57429e-05 -6.17869e-06 1.88168e-05)
(3.70412e-05 -1.6333e-05 2.25979e-05)
(1.7126e-05 -3.3052e-05 2.15419e-05)
(-3.2882e-06 -4.54685e-05 1.6295e-05)
(-1.91385e-05 -6.28292e-05 1.35055e-05)
(-2.23488e-05 -6.4199e-05 7.93684e-06)
(-1.30718e-05 -5.40715e-05 2.16014e-06)
(1.95079e-06 -3.6272e-05 -3.28854e-06)
(1.86184e-05 -3.21476e-05 -1.18408e-05)
(2.06593e-05 -1.34675e-05 -1.34477e-05)
(4.17899e-05 -6.37728e-06 -2.91865e-05)
(3.93531e-05 3.18384e-06 -2.69857e-05)
(3.73314e-05 7.30269e-06 -2.47952e-05)
(4.29515e-05 1.34891e-05 -2.484e-05)
(4.38192e-05 1.68361e-05 -1.7468e-05)
(4.39706e-05 1.85414e-05 -6.45161e-06)
(1.27352e-05 1.39482e-06 9.67191e-06)
(-4.76335e-06 3.94846e-06 -1.58633e-05)
(-1.83189e-05 9.92541e-06 -3.08322e-05)
(-1.61444e-05 1.79587e-05 -4.36455e-05)
(4.0702e-06 2.49093e-05 -5.71827e-05)
(3.65899e-05 2.88566e-05 -6.80605e-05)
(6.83217e-05 2.7334e-05 -6.77441e-05)
(7.27547e-05 1.66738e-05 -3.8807e-05)
(4.77052e-05 9.30783e-06 -5.82158e-06)
(4.85989e-05 8.68765e-06 9.60678e-06)
(4.61869e-05 2.49748e-06 1.02338e-05)
(5.24864e-05 -3.7437e-06 5.18214e-06)
(4.47791e-05 -8.38363e-06 -7.15627e-06)
(3.35399e-05 -7.04181e-06 -1.5363e-05)
(4.16445e-05 -4.19596e-06 -2.78174e-05)
(4.41862e-05 2.84155e-06 -3.36513e-05)
(3.76365e-05 7.32849e-06 -2.95887e-05)
(5.54998e-05 1.61225e-05 -4.43136e-05)
(3.77722e-05 1.36596e-05 -3.05583e-05)
(4.02371e-05 1.60833e-05 -3.15359e-05)
(3.69877e-05 1.51703e-05 -2.74734e-05)
(5.69678e-05 2.27814e-05 -3.56349e-05)
(4.02552e-05 1.56281e-05 -1.7171e-05)
(4.47525e-05 1.66122e-05 -6.98587e-06)
(2.8072e-05 -2.78848e-06 1.06826e-05)
(3.03226e-05 -6.55025e-06 -4.20856e-06)
(2.74997e-05 -4.90108e-06 -1.30349e-05)
(2.78147e-05 -3.46205e-06 -2.82118e-05)
(3.07506e-05 -1.18152e-06 -4.45745e-05)
(3.96727e-05 -7.6076e-07 -5.45718e-05)
(4.90623e-05 -1.88483e-06 -4.78226e-05)
(5.66125e-05 3.14715e-07 -3.13363e-05)
(5.32647e-05 8.94581e-06 -9.86657e-06)
(3.93755e-05 1.10531e-05 2.42306e-06)
(4.76672e-05 1.05204e-05 3.40576e-06)
(4.90322e-05 9.64103e-06 -2.16655e-08)
(4.58589e-05 9.20003e-06 -6.78087e-06)
(5.64954e-05 1.25188e-05 -1.91189e-05)
(4.01774e-05 1.01354e-05 -2.05993e-05)
(3.97265e-05 1.09314e-05 -2.48481e-05)
(4.14453e-05 1.11556e-05 -2.83029e-05)
(5.74907e-05 1.33544e-05 -4.20216e-05)
(6.72353e-05 1.23277e-05 -5.24391e-05)
(7.27453e-05 1.06869e-05 -5.74429e-05)
(7.19588e-05 6.5456e-06 -5.49691e-05)
(7.3601e-05 2.61461e-06 -4.8152e-05)
(7.5641e-05 -8.69571e-07 -3.43779e-05)
(7.6941e-05 -3.10494e-06 -1.28506e-05)
(2.54365e-05 4.91371e-07 9.42071e-06)
(3.40066e-05 -8.51905e-06 -5.81654e-06)
(4.1209e-05 -1.10211e-05 -4.50249e-06)
(4.62754e-05 -1.22979e-05 -8.51475e-06)
(4.74199e-05 -1.27676e-05 -1.63716e-05)
(4.74617e-05 -1.54949e-05 -2.23638e-05)
(4.68009e-05 -1.86071e-05 -1.9546e-05)
(4.41581e-05 -1.63181e-05 -6.9954e-06)
(5.01329e-05 -9.96761e-06 4.78377e-06)
(6.78108e-05 -5.64398e-06 6.94154e-06)
(9.53367e-05 -2.95611e-06 1.84389e-06)
(0.000105383 5.28086e-07 -5.87313e-06)
(9.91329e-05 3.47064e-06 -1.63682e-05)
(9.04139e-05 4.36055e-06 -2.75497e-05)
(8.47489e-05 3.39672e-06 -3.80857e-05)
(8.73541e-05 3.82484e-07 -4.98102e-05)
(9.08148e-05 -4.59447e-06 -5.95595e-05)
(9.21208e-05 -1.1496e-05 -6.69862e-05)
(9.23521e-05 -1.82969e-05 -7.30945e-05)
(9.06057e-05 -2.27627e-05 -7.33324e-05)
(8.77226e-05 -2.71126e-05 -6.78729e-05)
(8.47829e-05 -3.00827e-05 -5.57172e-05)
(8.36013e-05 -3.21058e-05 -3.76002e-05)
(8.29057e-05 -3.30625e-05 -1.36687e-05)
(2.47794e-05 -4.18129e-06 3.62943e-06)
(3.81043e-05 -1.55241e-05 -7.21929e-06)
(4.59979e-05 -2.1086e-05 -2.19893e-06)
(4.74849e-05 -2.32533e-05 -2.37041e-06)
(4.61981e-05 -2.60633e-05 -5.91535e-06)
(4.33373e-05 -3.14708e-05 -8.01386e-06)
(4.0081e-05 -3.65659e-05 -4.77526e-06)
(3.98912e-05 -3.79021e-05 3.08162e-06)
(4.9405e-05 -3.4836e-05 9.00966e-06)
(7.67878e-05 -3.23605e-05 6.92025e-06)
(0.000107069 -2.79303e-05 -1.18126e-06)
(0.00011925 -2.33508e-05 -1.1362e-05)
(0.000120693 -2.09702e-05 -2.32997e-05)
(0.000115528 -2.15154e-05 -3.57968e-05)
(0.000109884 -2.45853e-05 -4.75425e-05)
(0.00010609 -2.90493e-05 -5.73343e-05)
(0.000104746 -3.44315e-05 -6.53942e-05)
(0.000104523 -4.0192e-05 -7.24056e-05)
(0.000101991 -4.44918e-05 -7.67576e-05)
(9.85571e-05 -4.70897e-05 -7.56748e-05)
(9.44864e-05 -4.7264e-05 -6.88979e-05)
(9.07356e-05 -4.64162e-05 -5.61292e-05)
(8.85294e-05 -4.4925e-05 -3.74779e-05)
(8.73449e-05 -4.40619e-05 -1.36184e-05)
(2.40759e-05 -9.47852e-06 -2.21684e-06)
(3.69678e-05 -1.95646e-05 -4.94893e-06)
(4.50889e-05 -2.67067e-05 -2.19002e-06)
(4.71491e-05 -3.14508e-05 -3.33095e-06)
(4.5862e-05 -3.62122e-05 -6.13852e-06)
(4.28384e-05 -4.14867e-05 -7.39703e-06)
(3.87793e-05 -4.36341e-05 -4.70524e-06)
(3.50578e-05 -3.9341e-05 1.49425e-07)
(4.4931e-05 -3.89161e-05 3.24993e-06)
(6.64188e-05 -3.58421e-05 1.39153e-06)
(8.88827e-05 -3.11221e-05 -4.82213e-06)
(0.00010839 -2.95782e-05 -1.36974e-05)
(0.000118917 -3.02558e-05 -2.48599e-05)
(0.000120603 -3.39387e-05 -3.68905e-05)
(0.000118016 -3.8864e-05 -4.80271e-05)
(0.000116051 -4.3672e-05 -5.80423e-05)
(0.000115732 -4.75278e-05 -6.67232e-05)
(0.000114069 -4.93942e-05 -7.30981e-05)
(0.000109516 -4.99193e-05 -7.61254e-05)
(0.000105121 -5.02579e-05 -7.42912e-05)
(9.76951e-05 -4.68891e-05 -6.59437e-05)
(8.93461e-05 -4.2389e-05 -5.14415e-05)
(8.31423e-05 -3.80733e-05 -3.30891e-05)
(8.00683e-05 -3.61462e-05 -1.18327e-05)
(2.32717e-05 -1.24708e-05 -4.25232e-06)
(4.24975e-05 -2.36431e-05 -2.51937e-06)
(5.16424e-05 -3.07119e-05 -2.70854e-06)
(5.51768e-05 -3.60265e-05 -4.78323e-06)
(5.5168e-05 -4.07637e-05 -7.53466e-06)
(5.28613e-05 -4.45641e-05 -9.27849e-06)
(4.80998e-05 -4.44573e-05 -8.10274e-06)
(4.07222e-05 -3.70923e-05 -5.00305e-06)
(4.08642e-05 -3.22893e-05 -4.01823e-06)
(4.9094e-05 -3.10111e-05 -4.94973e-06)
(5.66998e-05 -2.64364e-05 -6.16296e-06)
(7.15133e-05 -2.43094e-05 -9.84686e-06)
(9.2258e-05 -2.52605e-05 -1.85438e-05)
(0.000106693 -2.94019e-05 -3.06195e-05)