/*--------------------------------*- C++ -*----------------------------------*\
  =========                 |
  \\      /  F ield         | OpenFOAM: The Open Source CFD Toolbox
   \\    /   O peration     | Website:  https://openfoam.org
    \\  /    A nd           | Version:  6
     \\/     M anipulation  |
\*---------------------------------------------------------------------------*/
FoamFile
{
    version     2.0;
    format      ascii;
    class       volScalarField;
    location    "48";
    object      yPlus;
}
// * * * * * * * * * * * * * * * * * * * * * * * * * * * * * * * * * * * * * //

dimensions      [0 0 0 0 0 0 0];

internalField   uniform 0;

boundaryField
{
    inlet
    {
        type            calculated;
        value           uniform 0;
    }
    outlet
    {
        type            calculated;
        value           uniform 0;
    }
    roughCylinder
    {
        type            calculated;
        value           nonuniform List<scalar> 
3840
(
17.4414
31.0864
41.3879
44.2032
46.5826
46.7055
47.3648
47.3688
47.8524
47.6534
47.9662
47.0529
45.8517
46.5382
45.8339
44.3409
44.3481
44.591
44.9805
44.0344
43.4865
42.7738
42.1404
41.9003
14.977
30.8448
41.089
44.1123
46.4972
46.7178
47.4068
47.4458
47.9128
47.7372
48.0379
47.2059
46.0875
46.6898
46.225
44.7094
44.7183
44.9832
45.4294
44.4536
44.0189
43.2835
42.671
42.4458
11.4597
30.9785
40.8492
44.091
46.484
46.7925
47.5041
47.5835
48.0344
47.8536
48.1419
47.4131
46.4653
46.9959
46.7583
45.2541
45.1386
45.3678
45.8301
44.7588
44.5508
43.8694
43.3373
43.1241
17.8748
29.5942
40.5952
43.9664
46.4118
46.8422
47.5928
47.7024
48.1274
47.959
48.267
47.6635
46.8171
47.23
47.155
45.7549
45.5436
45.8228
46.332
45.202
45.1455
44.4377
43.9365
43.748
22.7134
30.4545
40.1699
43.8799
46.3777
46.9289
47.7173
47.8693
48.2976
48.165
48.47
47.9713
47.2811
47.6062
47.6494
46.3503
45.9664
46.2518
46.7896
45.5878
45.7761
45.1228
44.6859
44.4944
14.9673
28.0372
39.7476
43.6636
46.2567
46.9686
47.8211
48.0233
48.4532
48.3303
48.6584
48.279
47.6878
47.9018
48.0166
46.8786
46.4193
46.755
47.3221
46.0763
46.3952
45.7287
45.3378
45.1759
32.3877
28.7824
39.1387
43.4381
46.1683
47.0445
47.9533
48.2208
48.6696
48.6238
48.9607
48.6539
48.181
48.3178
48.4658
47.447
46.8812
47.2276
47.8256
46.5749
47.0865
46.4782
46.134
45.9537
29.6657
27.2853
38.4289
43.0746
45.9742
47.0502
48.0623
48.401
48.8899
48.8541
49.1987
48.985
48.593
48.6474
48.8147
47.9679
47.417
47.774
48.3728
47.1276
47.7004
47.1083
46.827
46.6756
35.9706
26.8656
37.4827
42.6166
45.7768
47.0931
48.1819
48.6128
49.1321
49.1945
49.5596
49.3927
49.0802
49.0765
49.2352
48.499
47.9419
48.2981
48.9112
47.7487
48.4247
47.8933
47.6417
47.4602
39.4335
26.7231
36.4389
41.9966
45.4521
47.0122
48.253
48.785
49.3738
49.4605
49.8115
49.7092
49.4654
49.4226
49.5905
49.018
48.5538
48.8791
49.4475
48.3431
49.0059
48.5238
48.3482
48.1955
42.008
25.8644
34.9953
41.1166
44.9975
46.9327
48.309
48.9538
49.5944
49.7793
50.1694
50.1084
49.919
49.8458
49.9947
49.5086
49.1109
49.4337
49.9877
49.0376
49.7253
49.2976
49.1357
48.9479
46.7221
26.693
33.3906
39.9924
44.3819
46.6641
48.2478
49.0535
49.7781
50.0228
50.3965
50.38
50.2572
50.1926
50.3629
50.0167
49.7393
50.0079
50.4678
49.6063
50.2414
49.8904
49.8135
49.6616
49.9127
27.5653
31.4504
38.3928
43.3874
46.2507
48.1365
49.0892
49.9113
50.2409
50.6785
50.7264
50.6548
50.5867
50.7364
50.4453
50.263
50.5425
50.9674
50.2955
50.9041
50.5902
50.5097
50.3245
53.199
29.0465
29.2034
36.2821
42.088
45.5823
47.7771
49.0204
49.9483
50.3869
50.8329
50.9196
50.9218
50.9044
51.0912
50.9082
50.8237
51.0352
51.327
50.7496
51.2985
51.0787
51.091
50.9619
55.555
31.2448
26.9261
33.4619
40.0024
44.3745
47.258
48.7754
49.924
50.4499
50.9711
51.1395
51.2088
51.2094
51.3728
51.2202
51.2237
51.4661
51.7479
51.3651
51.8686
51.6673
51.6595
51.5046
56.1133
33.1797
24.5603
29.3483
36.9942
42.7821
46.2399
48.3306
49.6935
50.4432
51.0418
51.259
51.3834
51.4509
51.6669
51.6065
51.6702
51.8354
51.9578
51.67
52.115
52.023
52.1175
52.0477
55.0603
34.4219
22.0246
24.5811
32.4172
39.4116
44.6891
47.4772
49.3387
50.2687
50.9649
51.2989
51.518
51.6207
51.8134
51.781
51.9161
52.1324
52.2682
52.1618
52.5109
52.4063
52.4537
52.372
52.6034
34.544
19.2001
9.49002
22.0196
35.2623
41.8659
46.1202
48.5551
49.9517
50.8769
51.2861
51.5647
51.7415
51.9871
52.0284
52.1624
52.2539
52.2279
52.2337
52.4944
52.5221
52.6762
52.704
49.1118
32.9992
10.323
12.9999
8.20993
16.2917
36.9472
43.753
47.4628
49.2866
50.4094
51.0071
51.4183
51.6477
51.8724
51.9536
52.1433
52.2802
52.2761
52.4517
52.5189
52.4912
52.5554
52.577
45.5311
30.4662
17.4794
12.334
12.8504
8.04109
22.5926
39.5698
45.4151
48.2848
49.9013
50.6776
51.1686
51.4698
51.7417
51.8796
51.9931
51.8782
51.6566
51.9439
51.791
51.9018
52.0619
52.2312
41.9856
28.747
13.9003
8.64738
13.6356
7.16995
12.9536
32.572
42.5926
46.5277
48.5528
49.6222
50.3233
50.7041
50.9459
51.1125
51.2579
51.1318
50.8907
51.3438
50.8039
50.7424
50.6796
50.7942
38.1456
27.324
17.4906
9.4514
14.8628
9.56229
15.9622
22.9892
37.8478
43.9021
46.9414
48.4208
49.2551
49.6918
49.9578
50.1167
50.02
49.2225
48.442
48.9176
47.6843
47.6588
47.6619
48.0092
33.2837
25.3586
14.2359
5.3782
11.4085
8.36756
15.1247
11.436
32.8524
39.417
43.0614
45.0813
46.3121
46.8699
46.9923
47.0293
46.8208
45.8739
44.8637
45.3797
43.1462
42.1535
40.4796
39.9744
28.3761
23.5047
11.9253
13.6244
16.4939
18.4708
11.7368
15.7562
19.3837
29.0122
37.3254
40.9371
42.5597
43.1163
43.1152
42.7198
41.432
36.1871
30.3002
28.1964
16.6053
23.4128
16.1093
4.79553
21.0727
23.7958
15.2409
18.9483
25.7473
26.5957
17.1292
15.7987
8.13801
10.2629
15.4062
17.5836
24.6167
26.19
23.8171
18.0587
22.2016
13.028
20.549
15.4787
13.8621
15.3149
15.2687
14.9905
6.7236
18.4673
17.9834
19.7239
23.3581
26.5249
28.6372
22.1178
7.13785
11.0297
9.45821
16.8979
18.2124
14.764
18.6385
17.4353
12.5603
19.2714
10.6182
12.2911
10.7155
19.9157
12.98
14.7925
6.44609
8.09014
13.7923
18.6371
22.33
24.616
22.9665
22.1117
19.3554
10.3104
11.0601
9.85523
10.8229
16.5773
11.1089
2.06778
12.158
18.6633
22.9044
25.6214
26.5484
27.683
29.1523
29.7459
5.61759
8.39265
16.2852
21.6248
24.6386
25.7619
25.1629
22.1673
22.8001
24.1352
26.8042
28.0574
27.3077
26.6904
26.7409
29.1628
31.1046
32.0086
32.5837
32.6358
32.4328
31.4222
31.0513
30.6988
6.7417
14.1521
19.6783
23.563
25.7136
25.6678
23.9044
22.6594
22.9553
25.8084
28.7438
30.0631
31.4691
32.3497
33.0442
33.2345
33.394
33.7299
33.5021
33.1618
32.448
31.4681
30.8797
30.572
5.55827
14.0179
18.5808
21.8539
23.4835
22.9949
20.3477
16.4502
17.8207
20.852
23.4811
27.1151
30.1001
32.0438
33.1555
33.9438
34.5339
34.4356
33.7247
33.1135
31.5223
29.2625
27.5981
26.8172
8.26133
16.282
19.886
22.5048
23.7698
23.1007
20.2043
15.2072
13.4948
14.5444
14.8973
18.0012
23.5298
28.1675
30.8779
32.1122
32.2594
31.736
30.8829
30.0564
28.458
26.46
25.2427
24.8182
9.08118
17.6846
21.8315
24.71
26.0998
25.7639
24.1446
23.0867
23.2861
24.0987
24.6683
23.5478
23.1631
24.9966
27.5106
29.1494
30.0663
30.3764
30.3429
29.9397
28.6326
26.9716
25.8446
25.5429
9.26485
17.9335
22.3028
25.2535
26.7934
26.9308
26.3443
25.9909
25.1891
23.708
22.3639
24.0963
26.9524
28.8067
29.8901
30.5255
30.5236
30.0943
29.3143
28.5094
27.0443
25.4387
24.4489
23.9776
8.59268
17.9174
22.5806
25.6166
27.3662
27.945
27.7205
26.6106
24.9254
22.2048
18.7233
15.3133
18.1809
23.3993
26.5719
27.7062
27.7868
27.3471
26.8312
26.3484
25.2961
24.1251
23.3746
23.1642
8.64365
17.9167
22.7805
26.0207
28.0798
29.0497
29.0369
28.2277
26.3063
24.106
23.0677
23.4602
22.9397
23.3612
24.8528
25.9785
26.4278
26.4779
26.2456
25.823
24.9637
24.0318
23.516
23.368
8.80039
17.6705
22.6186
26.0093
28.2839
29.4851
29.6421
28.6346
26.5788
23.721
21.0535
20.5506
22.7561
24.4571
25.4862
26.1841
26.4632
26.2878
25.8378
25.3467
24.5817
23.8536
23.4739
23.3825
9.20993
17.6442
22.5901
26.1037
28.5498
29.8402
29.8822
28.5257
25.7606
22.7007
20.6327
19.6368
20.1448
22.2207
24.1163
25.293
25.7767
25.6699
25.1948
24.6675
24.0209
23.4891
23.3119
23.3377
9.43934
18.7711
23.7993
27.1505
29.233
30.0132
29.5026
27.5733
24.6764
21.8364
20.4658
20.8688
21.6979
22.638
23.9116
25.0946
25.7362
25.6252
24.9559
24.2405
23.596
23.2382
23.2931
23.4833
8.55023
19.2481
24.5339
27.5865
29.0285
29.1215
28.05
25.853
23.0433
21.0336
20.2592
20.1397
20.9334
22.3598
23.9989
25.4631
26.2533
26.0598
25.0887
24.051
23.344
23.1641
23.5152
23.9213
5.78755
17.1454
22.8787
25.7224
26.9119
26.9339
25.9067
23.748
21.4159
20.5398
20.8181
21.1432
21.5917
22.8348
24.6977
26.466
27.4154
27.1302
25.7925
24.2985
23.4286
23.4594
24.2132
24.9002
4.93058
4.96655
4.93894
4.8565
4.79278
4.83813
4.86914
4.95905
4.9361
4.9449
5.0488
5.25481
5.49026
5.79472
6.05455
6.3416
6.69486
7.09709
6.94993
6.42981
5.35226
2.39304
0.70632
5.13586
1.21474
2.40758
3.85963
1.30209
2.5647
2.39505
3.76092
5.82635
6.47884
6.96824
6.83638
5.52
2.16753
1.52708
5.44784
5.11648
12.335
11.9401
11.6513
11.4344
11.3082
11.2464
11.1963
11.2743
11.3048
11.3489
11.6021
11.9359
12.3779
12.8689
13.3907
13.9086
14.3812
14.6391
15.097
15.0241
14.9776
14.5808
13.6534
11.6294
11.0121
7.42094
7.18377
5.07024
5.56887
0.396543
7.59684
11.2282
12.9195
14.6602
15.7862
15.7298
14.6767
13.6227
17.3922
17.9855
14.9902
14.3336
13.8808
13.562
13.313
13.148
13.1133
13.3172
13.8343
14.6642
15.7189
16.8912
18.0967
19.2323
20.248
21.1026
21.7785
22.3593
22.749
23.01
23.0657
22.8865
22.4737
21.7053
20.4943
18.6329
15.8424
11.2134
10.7522
4.09427
7.11187
4.88653
12.2396
15.0617
17.6584
18.9774
19.137
18.5018
21.4666
22.8358
17.1502
16.283
15.6734
15.2393
14.9286
14.7897
14.9928
15.7396
17.04
18.6832
20.4034
22.0021
23.4034
24.5691
25.5122
26.2331
26.7835
27.2201
27.5306
27.6952
27.6984
27.5384
27.213
26.6937
25.9604
24.936
23.5259
21.4706
18.6475
15.1716
10.7601
7.98214
6.4248
11.4956
15.458
19.343
20.838
20.9809
23.4325
24.9891
18.9792
17.8976
17.1021
16.5206
16.174
16.3127
17.2718
19.0251
21.1494
23.2236
25.029
26.5198
27.7226
28.6779
29.4268
29.9997
30.4522
30.8299
31.0859
31.2103
31.1941
31.0341
30.743
30.3226
29.7609
29.0355
28.1175
26.9515
25.4978
23.7261
21.656
19.278
16.5614
13.0977
11.4775
15.8894
19.9831
21.6122
24.2196
25.8507
20.2912
19.0242
18.0441
17.3803
17.3819
18.5427
20.7411
23.2799
25.6149
27.5568
29.1068
30.3338
31.3093
32.0813
32.6851
33.1454
33.5115
33.8197
34.0274
34.1234
34.084
33.9077
33.6227
33.2393
32.7541
32.1643
31.4574
30.6167
29.6237
28.4566
27.0981
25.505
23.5966
21.2601
18.1309
14.9159
16.5749
20.0253
23.606
25.7599
20.9219
19.5016
18.4492
18.2652
19.641
22.2708
25.1397
27.6375
29.6535
31.2627
32.5514
33.5816
34.3997
35.0308
35.5032
35.8373
36.1007
36.2999
36.4535
36.5407
36.4917
36.3065
36.0225
35.6505
35.1934
34.6625
34.0559
33.3678
32.5827
31.6828
30.6372
29.4052
27.9096
26.0703
23.7274
20.7573
17.5439
17.5197
21.2409
24.3967
20.7137
19.2975
18.9705
20.6344
23.6763
26.7662
29.3388
31.4025
33.0775
34.4476
35.5597
36.4398
37.1076
37.573
37.8862
38.1326
38.3126
38.4307
38.4697
38.5055
38.5059
38.3539
38.0863
37.7113
37.255
36.7431
36.1764
35.555
34.8665
34.0945
33.2058
32.1648
30.905
29.37
27.4455
25.0752
22.2059
19.2838
19.2471
21.9784
19.7231
19.4938
21.6093
24.9962
28.1734
30.7528
32.8601
34.6226
36.0982
37.3107
38.2713
38.9838
39.4246
39.7393
39.9968
40.1819
40.2919
40.3409
40.3257
40.2777
40.127
40.0156
39.8761
39.5349
39.0752
38.5482
37.9792
37.3769
36.7259
36.0077
35.1909
34.24
33.0998
31.7176
30.0196
27.958
25.5233
22.8521
20.5573
20.7845
19.9942
22.6783
26.2124
29.3201
31.8844
34.0581
35.9255
37.5193
38.8536
39.9274
40.7185
41.1758
41.5121
41.7835
41.9835
42.1048
42.1509
42.1363
42.0318
41.9366
41.799
41.5338
41.4247
41.1712
40.7119
40.1615
39.5664
38.9466
38.2955
37.5871
36.7857
35.8583
34.7479
33.4135
31.7781
29.8373
27.5309
25.1225
22.6363
21.5826
23.8018
27.1374
30.1517
32.7299
34.9866
36.9606
38.6795
40.1581
41.39
42.3413
42.9174
43.2712
43.5642
43.782
43.9189
43.974
43.9521
43.8653
43.7094
43.5555
43.3774
43.112
42.9875
42.7382
42.2418
41.6446
41.0054
40.3463
39.665
38.9308
38.0998
37.1386
35.9872
34.6078
32.9205
30.9316
28.5762
26.1334
23.6468
22.328
27.7574
30.6017
33.2441
35.5783
37.6696
39.5268
41.1684
42.5925
43.7716
44.6409
45.0636
45.39
45.6457
45.8195
45.9055
45.9036
45.8296
45.6908
45.4884
45.3062
45.0718
44.8312
44.7564
44.3734
43.7784
43.1038
42.3982
41.6786
40.9385
40.1412
39.236
38.1883
36.9348
35.4386
33.6155
31.4762
28.952
26.3536
23.7829
22.4615
30.7398
33.3125
35.7821
37.9938
40.009
41.8249
43.4527
44.8786
46.0622
46.9155
47.2798
47.5944
47.8395
47.9999
48.067
48.042
47.9432
47.7732
47.5534
47.3437
47.041
46.9
46.7293
46.1711
45.4568
44.6838
43.8876
43.0809
42.2493
41.3493
40.3297
39.156
37.7646
36.1229
34.1479
31.8643
29.2084
26.546
23.9691
22.827
33.0631
35.501
37.8953
40.0622
42.0664
43.8963
45.5594
47.0355
48.2778
49.1888
49.5557
49.8853
50.1535
50.3359
50.4194
50.403
50.3012
50.1187
49.8953
49.639
49.3034
49.2306
48.8708
48.166
47.3249
46.4346
45.5249
44.6067
43.6581
42.6331
41.4854
40.1833
38.6714
36.9262
34.8834
32.5879
30.0073
27.5057
25.1332
24.0982
34.8838
37.2518
39.6221
41.7875
43.8164
45.6904
47.4162
48.9702
50.3024
51.3076
51.7317
52.0921
52.4051
52.6308
52.7502
52.7579
52.6626
52.4774
52.2482
51.9391
51.6149
51.5455
50.9906
50.142
49.1749
48.1656
47.1413
46.1112
45.0489
43.9113
42.6592
41.2682
39.6951
37.9312
35.9345
33.7695
31.4196
29.2096
27.1
26.091
36.1803
38.5004
40.8585
43.0293
45.083
46.9969
48.777
50.3993
51.8154
52.9221
53.4488
53.8309
54.1892
54.4611
54.6202
54.6573
54.5749
54.403
54.1714
53.8209
53.6305
53.4074
52.6593
51.6921
50.6288
49.5315
48.4236
47.3117
46.1655
44.9482
43.6296
42.1927
40.6061
38.8721
36.9648
34.9561
32.832
30.8736
28.9766
27.9932
36.8006
39.0733
41.409
43.5703
45.625
47.5469
49.3421
50.9889
52.4457
53.6269
54.3302
54.7
55.0876
55.4002
55.6008
55.6755
55.6289
55.5114
55.2692
55.0387
55.0353
54.4452
53.5469
52.5113
51.4063
50.2728
49.1282
47.972
46.7692
45.4941
44.1248
42.6489
41.0438
39.3182
37.4562
35.53
33.527
31.7013
29.932
28.9945
36.6131
38.8483
41.1624
43.3108
45.352
47.2578
49.0319
50.6572
52.1042
53.3207
54.2148
54.6219
55.0113
55.3563
55.5988
55.7255
55.7607
55.6826
55.5837
55.6808
55.2559
54.4937
53.557
52.5257
51.437
50.3122
49.1637
47.976
46.7184
45.3758
43.9323
42.3783
40.6969
38.8989
36.9775
35.0054
32.9869
31.1686
29.4635
28.6157
35.5943
37.8154
40.1369
42.3051
44.3558
46.2587
48.0133
49.6058
51.0162
52.218
53.182
53.8553
54.2148
54.5628
54.8437
55.0367
55.1409
55.3094
55.3516
55.0591
54.5166
53.7673
52.8773
51.8971
50.8543
49.7582
48.6063
47.3734
46.0446
44.6098
43.0538
41.367
39.5356
37.5707
35.4762
33.331
31.1755
29.2837
27.6331
26.9813
34.1338
36.3011
38.6329
40.8538
42.9554
44.8962
46.6646
48.2467
49.6276
50.7973
51.766
52.5754
53.1734
53.5266
53.8368
54.1674
54.4175
54.3826
54.2429
53.9841
53.5116
52.8387
52.0215
51.1025
50.1086
49.038
47.8688
46.5875
45.1866
43.6559
41.9785
40.1423
38.1339
35.9628
33.6419
31.2642
28.9157
26.9387
25.3984
25.0537
33.1556
35.1956
37.4809
39.729
41.8804
43.8742
45.6798
47.275
48.6436
49.7832
50.7263
51.539
52.2225
52.7653
53.1614
53.4217
53.56
53.6254
53.6282
53.4543
53.0475
52.436
51.6775
50.8096
49.859
48.8158
47.6537
46.3648
44.941
43.3701
41.6345
39.7206
37.6143
35.3229
32.8615
30.3268
27.835
25.7538
24.2341
24.0048
33.2263
35.2329
37.4978
39.7533
41.9235
43.9388
45.7567
47.3483
48.6971
49.8082
50.7377
51.5463
52.2319
52.7866
53.2105
53.5167
53.7235
53.8901
53.9583
53.8219
53.449
52.8759
52.1583
51.3305
50.4186
49.4203
48.3026
47.0551
45.6699
44.1348
42.4324
40.5476
38.4664
36.1924
33.7411
31.1914
28.6646
26.4673
24.7628
24.2781
34.0499
36.1045
38.3865
40.6414
42.8023
44.802
46.5949
48.1493
49.4504
50.5135
51.4193
52.2106
52.8843
53.4358
53.8688
54.1978
54.4434
54.6629
54.7598
54.6424
54.2902
53.7444
53.0588
52.264
51.3843
50.4303
49.3728
48.1885
46.8686
45.4028
43.7755
41.9718
39.9783
37.7953
35.4338
32.9621
30.4658
28.2106
26.3015
25.4542
34.8141
36.8595
39.114
41.3318
43.4548
45.4165
47.1685
48.6761
49.9257
50.9423
51.8186
52.5865
53.243
53.7863
54.222
54.5652
54.8376
55.0915
55.2061
55.1026
54.7679
54.246
53.5884
52.8236
51.9724
51.0484
50.0346
48.9002
47.6325
46.2206
44.6496
42.9052
40.9741
38.857
36.5622
34.1556
31.6998
29.4382
27.4395
26.3994
17.0112
28.7164
39.3712
42.2569
44.9233
45.1211
45.7138
45.5573
45.8035
45.6655
45.5506
45.5795
45.4532
45.7888
44.2819
42.895
43.5214
42.3294
41.8662
41.5062
41.8859
41.0774
40.5529
39.9194
6.59049
28.0871
39.1344
42.0328
44.653
44.9784
45.6485
45.4501
45.9689
45.7581
45.5682
45.3105
45.3838
45.6362
44.5201
43.0962
43.7749
42.7872
42.4845
42.2072
42.5286
41.6889
41.1522
40.51
15.1233
27.9485
38.6259
41.812
44.5311
44.8669
45.5365
45.5546
45.8924
45.8261
45.771
45.6809
45.6025
45.8498
45.009
43.5572
44.1091
43.1987
42.9002
42.4988
42.7445
42.0093
41.56
41.0113
11.2791
26.9575
38.4114
41.6513
44.3124
44.8764
45.6549
45.5932
46.1624
46.0636
45.8117
45.5182
45.6631
45.7955
45.1925
43.7954
44.3035
43.6646
43.5952
43.1949
43.4577
42.7238
42.2737
41.729
11.7785
26.9962
37.8232
41.3873
44.2145
44.8058
45.6255
45.7985
46.2317
46.127
46.0933
45.9534
45.999
46.0864
45.6583
44.3761
44.7286
44.1781
44.1667
43.5704
43.7602
43.0944
42.7136
42.2584
11.1918
25.5314
37.4631
41.168
43.9771
44.8557
45.7695
45.9184
46.4734
46.4411
46.1448
45.9238
46.169
46.1331
45.8098
44.661
44.9402
44.6292
44.8402
44.2712
44.5022
43.8849
43.517
43.0771
9.83929
25.6102
36.7735
40.8288
43.8159
44.7398
45.7821
46.078
46.6171
46.481
46.534
46.4172
46.5471
46.4652
46.2574
45.3169
45.4868
45.226
45.4976
44.7455
44.8703
44.2925
43.9693
43.6067
15.2608
23.8941
36.1295
40.4478
43.5585
44.8176
45.8597
46.2548
46.8011
46.8558
46.6124
46.516
46.7939
46.6178
46.4399
45.6347
45.7357
45.6468
46.0862
45.4326
45.6062
45.1279
44.8365
44.5002
13.5261
23.8
35.3323
40.028
43.2877
44.6154
45.9244
46.3353
46.9814
46.9001
47.1196
47.0366
47.156
46.9675
46.8821
46.3033
46.3771
46.3131
46.7989
46.0096
46.0373
45.5679
45.2937
45.0152
14.8664
21.8441
34.2858
39.3908
42.9943
44.6982
45.8993
46.5407
47.1352
47.316
47.1939
47.2245
47.4664
47.2371
47.1467
46.6458
46.6548
46.6949
47.2791
46.6474
46.7393
46.412
46.1919
45.9497
17.2098
21.7807
33.332
38.7746
42.496
44.3777
45.9771
46.5525
47.2994
47.3717
47.7752
47.706
47.7745
47.5789
47.5697
47.2715
47.3375
47.404
48.0232
47.3053
47.2204
46.8613
46.6296
46.4198
18.8055
19.7262
31.7691
37.7902
42.0916
44.3105
45.8101
46.7019
47.4372
47.7558
47.7795
47.9275
48.1334
47.9511
47.9216
47.6313
47.6199
47.7245
48.3689
47.8292
47.8384
47.6572
47.5079
47.3451
21.3618
19.7184
30.4709
36.6705
41.1101
43.8427
45.7757
46.6438
47.4859
47.7955
48.3654
48.2983
48.3483
48.2297
48.2701
48.1575
48.2737
48.4278
49.1081
48.5309
48.3478
48.0792
47.8854
47.726
22.9174
17.9879
28.4645
35.2628
40.4226
43.2726
45.3947
46.5826
47.5843
48.03
48.2152
48.506
48.7314
48.6647
48.6809
48.5307
48.538
48.6534
49.2742
48.8562
48.7964
48.7421
48.6671
48.5667
26.5997
18.232
26.4069
33.116
38.5756
42.6182
44.9834
46.4191
47.3921
48.0101
48.7277
48.6801
48.7855
48.7926
48.87
48.8865
49.067
49.276
49.9443
49.5404
49.2977
49.0931
48.9378
48.813
29.8203
17.5162
24.422
31.2699
37.187
40.9044
44.2811
45.9052
47.3937
47.9741
48.3589
48.8315
49.1455
49.2194
49.2843
49.2465
49.2801
49.3701
49.8945
49.6146
49.5041
49.5556
49.5704
49.5186
32.4634
18.4714
21.1622
27.5061
34.0794
39.9555
42.914
45.4756
46.7739
47.8846
48.7474
48.7517
48.9652
49.1112
49.2415
49.3739
49.608
49.866
50.4631
50.267
50.0034
49.8287
49.6905
49.5773
34.6923
18.9077
20.0426
24.9576
30.8137
35.8851
41.7294
44.0935
46.4832
47.3382
48.0922
48.8599
49.2998
49.5057
49.6516
49.7401
49.7854
49.7968
50.1124
49.9405
49.7748
49.9083
50.0237
50.0067
35.4236
19.0063
14.9124
18.6465
26.275
34.1359
38.0534
42.9539
45.0781
47.09
48.1912
48.3351
48.7448
49.0484
49.2439
49.4601
49.7071
50.0136
50.4522
50.477
50.2406
50.054
49.8786
49.7481
36.0686
19.2079
13.5116
12.251
12.9242
24.3019
35.8957
39.8453
43.9781
45.4649
47.0529
48.3575
48.976
49.3129
49.5787
49.7915
49.8151
49.6702
49.6174
49.4103
49.0694
49.1917
49.3842
49.3652
34.7318
18.5249
13.7768
11.9233
5.2769
8.79904
25.1478
36.7203
41.1552
44.8729
46.3125
46.8042
47.638
48.1756
48.4385
48.6222
48.7461
49.0714
49.2083
49.4134
49.2578
48.9855
48.6215
48.3926
33.7785
18.734
11.1431
5.67455
9.6598
13.2377
6.93198
29.5455
37.6583
40.8065
44.3546
46.5819
47.4175
47.898
48.3122
48.6316
48.6031
48.1531
47.4461
46.6759
45.7296
45.4523
45.5324
45.378
29.5824
18.6267
8.84635
8.0947
13.4388
8.31882
8.40979
14.8369
32.5536
39.354
40.9903
42.4037
44.3017
45.2894
45.5442
45.3377
44.8757
44.9839
44.4038
44.7744
44.8421
44.3368
43.2593
42.6621
20.5266
17.5355
13.8311
10.2756
8.03445
12.1276
9.47687
9.9352
12.0659
26.9879
37.6462
41.5649
42.5012
43.1448
43.6382
44.0482
43.9685
42.8207
40.7027
36.6481
31.3341
25.7036
20.7261
15.7134
13.4136
14.5107
9.10584
11.6154
16.5832
16.7243
10.3013
8.91406
14.7822
16.3768
9.85249
25.4944
33.7667
36.0445
35.9775
32.9619
27.8148
23.2249
11.4554
21.1248
14.2247
16.1746
18.0889
14.2292
12.3526
13.6635
9.23981
9.01005
15.6894
20.0803
20.216
15.9491
9.99876
15.1791
15.5536
16.9329
19.1188
15.4771
8.03132
7.46435
15.6592
17.9686
2.20655
7.46654
5.62205
13.8893
4.44756
14.9319
12.9767
16.2249
13.4225
11.3716
14.8937
19.7734
22.2462
21.7118
18.168
11.5866
15.8454
10.4358
12.3054
16.7942
12.3442
10.2528
9.01941
18.8339
15.9823
9.84969
15.3816
19.811
22.0862
22.9674
13.0761
18.7584
19.0012
18.3737
19.4602
22.236
24.393
24.8807
23.8125
22.7914
21.8217
18.9126
13.8979
9.78227
11.373
15.9216
19.3355
22.2201
24.4896
26.265
26.9522
27.5126
27.8034
27.8488
12.5641
19.7595
22.017
23.0555
24.0295
25.5033
26.6805
26.8906
26.6464
26.7098
26.6975
26.1526
25.5338
25.2862
25.8873
26.9729
28.1704
29.167
30.0034
30.331
30.354
30.297
29.9905
29.6778
11.7787
19.5911
22.7129
24.7773
26.198
27.303
27.8621
27.8041
27.6088
28.0197
28.6667
29.0044
29.2064
29.5124
30.0397
30.8274
31.6973
32.2975
32.5811
32.1268
31.3385
30.3534
29.3046
28.5602
10.6614
18.4699
22.0562
24.7175
26.5663
27.6843
28.0801
27.9513
27.5055
27.3312
27.7031
28.9088
30.4128
31.458
32.0216
32.3996
32.7167
32.7399
32.4268
31.4607
30.1403
28.5531
27.1937
26.3748
7.98965
16.8113
20.838
23.8624
26.001
27.2521
27.7308
27.7062
27.4102
26.739
26.0843
26.6997
29.0115
30.8839
31.5663
31.5916
31.4862
31.2277
30.7962
29.8986
28.6577
27.0919
25.8315
25.1275
5.8777
15.3464
19.5736
22.7485
25.0374
26.4513
27.1161
27.2498
26.9781
26.2638
25.1883
25.056
26.9261
28.9753
29.7877
29.8006
29.6816
29.4984
29.2128
28.4725
27.2637
25.5825
24.3246
23.7295
4.91533
14.3044
18.4892
21.66
24.0157
25.5895
26.4463
26.6757
26.2488
25.1037
23.5614
23.0482
24.6755
26.6357
27.4752
27.5282
27.4215
27.2381
27.0041
26.4813
25.594
24.3089
23.3941
23.0609
4.61131
13.6216
17.6532
20.7464
23.1305
24.837
25.8356
26.0949
25.4924
23.9681
21.8406
20.5255
21.5567
23.3768
24.3716
24.7606
25.0099
25.1624
25.2542
25.1652
24.7375
23.9373
23.3961
23.3071
4.51605
13.1943
17.042
20.0347
22.4271
24.2084
25.2765
25.5239
24.7866
23.0148
20.4877
18.6166
19.1484
20.9238
22.3881
23.406
24.0992
24.4523
24.6132
24.7304
24.6464
24.2514
24.0311
24.1463
4.51134
12.9267
16.5789
19.4562
21.8265
23.6148
24.678
24.8684
24.0217
22.0861
19.3156
17.493
18.4519
20.6767
22.6415
24.071
24.9471
25.2473
25.1691
25.143
25.1696
25.0493
25.1034
25.4021
4.59222
12.7928
16.2262
18.9574
21.2554
22.9798
23.9683
24.0615
23.1145
21.0327
18.2832
17.6866
20.006
22.7053
24.8174
26.2952
27.1244
27.2518
26.8094
26.3807
26.2867
26.3384
26.6488
27.1191
4.68714
12.6614
15.8564
18.4209
20.6107
22.2331
23.1192
23.112
22.0701
19.8653
18.1056
20.0153
23.3092
25.9928
27.9919
29.3938
30.1339
30.1091
29.3626
28.4685
28.0852
28.2057
28.7399
29.3545
4.85921
12.6367
15.6251
18.0326
20.0686
21.5382
22.2792
22.1426
20.9669
19.1475
20.1399
23.9379
27.2366
29.7189
31.6094
32.9498
33.6208
33.4938
32.5582
31.2969
30.5782
30.6912
31.4023
32.1201
6.52453
12.4007
13.1382
11.7605
14.6036
9.80104
13.1243
13.7758
13.0872
11.7252
11.6915
9.73692
10.0758
7.78518
8.5827
7.12364
7.21666
3.84718
6.73775
6.84634
3.73407
7.04852
4.37351
8.14454
1.91989
9.06456
9.2456
4.7011
6.38479
6.52058
12.0897
12.0202
6.98279
8.926
14.7627
15.8164
9.63795
9.7541
12.6014
6.83089
28.3643
26.4361
25.6607
23.6737
22.8638
20.563
19.8969
18.0022
17.2608
15.4988
15.3633
13.8813
13.3764
12.8721
12.0688
11.7114
11.628
11.4583
11.136
11.6814
11.1524
11.492
11.6363
11.7971
12.0487
11.6647
12.3944
13.5922
14.1096
15.8173
16.6072
18.7248
19.6068
21.7097
22.504
24.8493
25.4131
27.9389
28.2672
31.0072
39.295
37.6845
36.9532
35.4219
34.617
33.2176
32.2895
31.0821
30.1208
29.2194
28.2884
27.7178
27.0047
26.5546
26.0419
25.5493
25.0221
24.7844
24.358
24.3309
24.5396
24.7436
25.0083
25.0848
25.6201
26.1035
27.0376
27.5276
28.6387
29.4003
30.5884
31.5614
32.6694
33.7281
34.8086
35.913
37.0547
38.2665
39.4897
40.8785
41.8937
40.4071
39.3727
37.9967
36.9
35.6108
34.5058
33.3359
32.3149
31.2908
30.5537
29.7338
29.3483
28.8466
28.4478
28.1313
27.6847
27.3655
27.2972
27.2605
27.4651
27.6105
27.5567
27.6665
28.0676
28.4678
29.0623
29.7455
30.6288
31.5774
32.6354
33.7031
34.7714
35.9246
36.9587
38.2556
39.3211
40.8087
41.9757
43.622
44.5134
43.1881
42.1305
40.8725
39.7522
38.5308
37.3861
36.2562
35.1926
34.1807
33.3261
32.6193
32.0518
31.7983
31.3233
30.9666
30.5243
30.2841
30.0963
30.123
30.305
30.3531
30.2272
30.4075
30.7893
31.2041
31.9085
32.5717
33.6029
34.5034
35.6265
36.5614
37.6354
38.6221
39.721
40.8266
41.9922
43.2554
44.5134
45.96
44.7023
43.4621
42.3812
41.2029
40.0436
38.819
37.7111
36.5419
35.596
34.5204
33.7402
33.0084
32.5638
32.3397
32.0501
31.6665
31.1677
30.9009
30.9655
30.9902
31.1957
31.0829
30.7675
31.0455
31.3389
31.77
32.3244
33.0848
34.0263
34.9559
35.93
36.7647
37.7507
38.6781
39.7813
40.8783
42.0623
43.315
44.5987
46.0228
45.3345
44.1272
43.1326
41.8994
40.8144
39.453
38.389
37.2066
36.2804
35.3154
34.3956
33.7768
33.25
33.1689
32.892
32.5403
31.9741
31.6915
31.8447
31.9627
32.0974
31.7441
31.418
31.8711
32.1001
32.5173
33.1302
33.9111
34.8715
35.7347
36.5614
37.3606
38.2815
39.2401
40.3879
41.4835
42.7278
43.9337
45.2709
46.6419
45.0649
43.917
42.9124
41.6929
40.5573
39.1933
37.992
36.9383
36.008
35.2409
34.3067
33.652
33.2112
33.0363
32.9101
32.5176
31.8311
31.4709
31.9156
32.128
32.1431
31.5178
31.3135
31.9392
32.0398
32.6063
33.1903
33.9688
34.8153
35.4744
36.157
36.9344
37.8313
38.8727
40.0102
41.1787
42.4376
43.7241
45.1411
46.5698
45.3992
44.0559
43.0074
41.7944
40.5788
39.3339
37.9636
37.007
36.0921
35.4908
34.6369
33.9006
33.4152
33.0765
32.9074
32.6697
31.8407
31.3526
31.9286
32.3784
32.0651
31.2996
31.5806
32.1427
32.3276
33.0707
33.7081
34.3263
34.9466
35.3457
36.0835
36.955
37.9813
39.0287
40.1582
41.3749
42.6975
44.1032
45.5703
47.0607
45.0157
43.7806
42.5626
41.4781
40.3101
39.2309
38.0707
37.0572
36.2061
35.6176
34.8974
34.0534
33.3364
32.7553
32.3574
32.3456
31.5457
31.0615
31.3705
32.171
31.2835
31.0111
31.7753
31.8515
32.4384
33.3221
33.9969
34.323
34.6972
35.1684
36.1126
37.0251
38.0243
38.9579
40.0321
41.1927
42.5047
43.9119
45.3727
46.8772
44.7769
43.5551
42.2702
41.3062
40.197
39.4203
38.2986
37.5164
36.3402
35.8393
34.9955
34.2813
33.0692
32.6822
31.9386
31.9221
31.4744
31.097
30.8854
31.9687
30.5595
31.1028
31.8046
31.5796
32.2954
33.0165
33.5947
33.924
34.6929
35.5446
36.4509
37.1295
38.0016
38.8922
40.087
41.343
42.7826
44.2225
45.7142
47.2057
44.5915
43.6147
41.9966
41.1586
39.7463
39.1394
38.0388
37.5142
36.3888
35.5525
34.5888
34.0562
33.2963
32.3293
31.4407
30.5102
30.8657
30.5519
30.8133
31.4859
30.3699
30.6987
31.0699
31.4177
31.3319
31.6342
32.5414
33.1536
34.022
34.8157
35.8199
36.726
37.8236
38.8493
40.0054
41.1001
42.3099
43.5304
44.8737
46.27
44.7023
43.5244
42.1146
40.9052
39.5113
38.3226
37.1359
36.207
35.2812
34.36
33.3661
32.8522
32.3347
32.2056
31.6216
30.6955
29.5719
30.5568
30.3648
30.876
30.0864
30.8359
31.5794
31.026
30.4399
31.0094
31.8186
32.3931
33.2674
33.8582
34.8008
35.6454
36.8545
37.8612
39.0347
39.993
41.1652
42.2457
43.6219
44.9395
45.0027
43.8492
42.3498
41.1475
39.5324
38.2029
36.5584
35.4127
34.1732
33.3939
32.4186
31.8339
31.0598
31.1797
31.1491
30.8682
30.3279
30.2603
29.2778
29.8447
30.2391
30.095
29.745
29.5575
30.3781
30.9855
31.5161
31.891
32.7427
33.3734
34.4514
35.4547
36.8259
37.8875
39.1579
40.2013
41.5332
42.7453
44.2409
45.631
43.1809
41.7124
40.1542
38.962
37.7664
36.8803
35.8541
34.9539
33.8795
33.0315
32.1504
31.4335
30.7909
30.4656
30.3708
29.9601
30.0915
29.5924
28.6083
28.3561
28.0852
27.7731
29.2034
29.6977
30.0232
29.7907
30.7993
31.4536
32.3683
32.8231
33.8727
34.373
35.2409
35.8767
37.0256
38.0911
39.6173
41.0875
42.8866
44.5831
41.9138
40.542
38.9642
37.6581
36.3004
35.2605
34.2439
33.4042
32.5295
31.8123
31.0593
30.3442
29.5132
28.8248
28.3314
27.8236
27.617
27.7339
26.8554
26.9544
27.2421
27.023
27.8867
27.8412
28.1702
28.4044
29.4763
29.5651
30.2814
30.4837
31.4348
32.1619
33.6355
34.8456
36.478
37.7564
39.2954
40.4976
42.0241
43.3081
42.5568
40.9752
39.2612
37.6497
36.0385
34.6722
33.4762
32.5716
31.7301
30.9317
30.0492
29.3976
28.8665
27.7788
27.1045
27.3899
25.9535
26.9886
27.1866
26.1545
26.2555
27.2721
27.4027
26.7074
27.6377
27.7437
28.5289
28.7787
30.0288
30.6835
32.0199
32.7781
34.1514
35.061
36.4845
37.5613
39.0258
40.267
41.8457
43.2848
41.42
39.9012
38.4756
37.0655
35.7799
34.5203
33.3805
32.3
31.3
30.3864
29.5951
29.1962
28.8949
28.6389
27.9074
27.3701
27.5496
26.6492
26.0903
25.3326
25.8063
25.5741
26.263
26.1734
26.636
27.4605
28.6282
29.2242
30.3272
30.7474
31.8711
32.5467
33.9025
34.858
36.3544
37.5186
39.1011
40.4561
42.0974
43.5893
41.057
39.5311
38.3188
36.9515
35.8856
34.6341
33.6432
32.5186
31.6275
30.6713
29.8961
29.0853
28.432
27.8799
27.4798
27.2192
27.0489
27.3584
26.9604
27.0521
26.7067
26.7995
27.2923
27.2774
28.221
28.1107
28.981
29.2266
30.2287
30.8158
32.0096
32.8191
34.1123
35.1224
36.527
37.7658
39.2991
40.7466
42.3751
43.9711
40.6558
38.8684
37.3882
35.64
34.2315
32.642
31.4462
30.2023
29.3777
28.5921
28.1487
27.7295
27.4553
27.0973
26.6319
26.0901
25.4926
25.2682
25.2593
25.2932
25.2071
25.1204
25.5532
25.6303
26.2671
26.6543
27.5116
28.0461
29.0525
29.8341
31.0041
31.994
33.2861
34.431
35.8183
37.1168
38.59
40.0414
41.5817
43.1326