/*--------------------------------*- C++ -*----------------------------------*\
  =========                 |
  \\      /  F ield         | OpenFOAM: The Open Source CFD Toolbox
   \\    /   O peration     | Website:  https://openfoam.org
    \\  /    A nd           | Version:  6
     \\/     M anipulation  |
\*---------------------------------------------------------------------------*/
FoamFile
{
    version     2.0;
    format      ascii;
    class       volScalarField;
    location    "0.8";
    object      omega;
}
// * * * * * * * * * * * * * * * * * * * * * * * * * * * * * * * * * * * * * //

dimensions      [0 0 -1 0 0 0 0];

internalField   nonuniform List<scalar> 
380496
(
843.917
843.917
843.917
843.917
843.917
843.917
843.917
843.917
843.917
843.917
843.917
843.917
843.917
843.917
843.917
843.917
843.917
843.917
843.917
843.917
843.917
843.917
843.917
843.917
843.917
843.917
843.917
843.917
843.917
843.917
843.917
843.917
843.917
843.917
843.917
843.917
843.917
843.917
843.917
843.917
843.917
843.917
843.917
843.917
843.917
843.917
843.917
843.917
843.917
843.917
843.917
843.917
843.917
843.917
843.917
843.917
843.917
843.917
843.917
843.917
843.917
843.917
843.917
843.917
843.917
843.917
843.917
843.917
843.917
843.917
843.917
843.917
843.917
843.917
843.917
843.917
843.917
843.917
843.917
843.917
843.917
843.917
843.917
843.917
843.917
843.917
843.917
843.917
843.917
843.917
843.917
843.917
843.917
843.917
843.917
843.917
843.917
843.917
843.917
843.917
843.917
843.917
843.917
843.917
843.917
843.917
843.917
843.917
843.917
843.917
843.917
843.917
843.917
843.917
843.917
843.917
843.917
843.917
843.917
843.917
843.917
843.917
843.917
843.917
843.917
843.917
843.917
843.917
843.917
843.917
843.917
843.917
843.917
843.917
843.917
843.917
843.917
843.917
843.917
843.917
843.917
843.917
843.917
843.917
843.917
843.917
843.917
843.917
843.917
843.917
843.917
843.917
843.917
843.917
843.917
843.917
843.917
843.917
843.917
843.917
843.917
843.917
843.917
843.917
843.917
843.917
843.917
843.917
843.917
843.917
843.917
843.917
843.917
843.917
843.917
843.917
843.917
843.917
843.917
843.917
843.917
843.917
843.917
843.917
843.917
843.917
843.917
843.917
843.917
843.917
843.917
843.917
843.917
843.917
843.917
843.917
843.917
843.917
843.917
843.917
843.917
843.917
843.917
843.917
843.917
843.917
843.917
843.917
843.917
843.917
843.917
843.917
843.917
843.917
843.917
843.917
843.917
843.917
843.917
843.917
843.917
843.917
843.917
843.917
843.917
843.917
843.917
843.917
843.917
843.917
843.917
843.917
843.917
843.917
843.917
843.917
843.917
843.917
843.917
843.917
843.917
843.917
843.917
843.917
843.917
843.917
843.917
843.917
843.917
843.917
843.917
843.917
843.917
843.917
843.917
843.917
843.917
843.917
843.917
843.917
843.917
843.917
843.917
843.917
843.917
843.917
843.917
843.917
843.917
843.917
843.917
843.917
843.917
843.917
843.917
843.917
843.917
843.917
843.917
843.917
843.917
843.917
843.917
843.917
843.917
843.917
843.917
843.917
843.917
843.917
843.917
843.917
843.917
843.917
843.917
843.917
843.917
843.917
843.917
843.917
843.917
843.917
843.917
843.917
843.917
843.917
843.917
843.917
843.917
843.917
843.917
843.917
843.917
843.917
843.917
843.917
843.917
843.917
843.917
843.917
843.917
843.917
843.917
843.917
843.917
843.917
843.917
843.917
843.917
843.917
843.917
843.917
843.917
843.917
843.917
843.917
843.917
843.917
843.917
843.917
843.917
843.917
843.917
843.917
843.917
843.917
843.917
843.917
843.917
843.917
843.917
843.917
843.917
843.917
843.917
843.917
843.917
843.917
843.917
843.917
843.917
843.917
843.917
843.917
843.917
843.917
843.917
843.917
843.917
843.917
843.917
843.917
843.917
843.917
843.917
843.917
843.917
843.917
843.917
843.917
843.917
843.917
843.917
843.917
843.917
843.917
843.917
843.917
843.917
843.917
843.917
843.917
843.917
843.917
843.917
843.917
843.917
843.917
843.917
843.917
843.917
843.917
843.917
843.917
843.917
843.917
843.917
843.917
843.917
843.917
843.917
843.917
843.917
843.917
843.917
843.917
843.917
843.917
843.917
843.917
843.917
843.917
843.917
843.917
843.917
843.917
843.917
843.917
843.917
843.917
843.917
843.917
843.917
843.917
843.917
843.917
843.917
843.917
843.917
843.917
843.917
843.917
843.917
843.917
843.917
843.917
843.917
843.917
843.917
843.917
843.917
843.917
843.917
843.917
843.917
843.917
843.917
843.917
843.917
843.917
843.917
843.917
843.917
843.917
843.917
843.917
843.917
843.917
843.917
843.917
843.917
843.917
843.917
843.917
843.917
843.917
843.917
843.917
843.917
843.917
843.917
843.917
843.917
843.917
843.917
843.917
843.917
843.917
843.917
843.917
843.917
843.917
843.917
843.917
843.917
843.917
843.917
843.917
843.917
843.917
843.917
843.917
843.917
843.917
843.917
843.917
843.917
843.917
843.917
843.917
843.917
843.917
843.917
843.917
843.917
843.917
843.917
843.917
843.917
843.917
843.917
843.917
843.917
843.917
843.917
843.917
843.917
843.917
843.917
843.917
843.917
843.917
843.917
843.917
843.917
843.917
843.917
843.917
843.917
843.917
843.917
843.917
843.917
843.917
843.917
843.917
843.917
843.917
843.917
843.917
843.917
843.917
843.917
843.917
843.917
843.917
843.917
843.917
843.917
843.917
843.917
843.917
843.917
843.917
843.917
843.917
843.917
843.917
843.917
843.917
843.917
843.917
843.917
843.917
843.917
843.917
843.917
843.917
843.917
843.917
843.917
843.917
843.917
843.917
843.917
843.917
843.917
843.917
843.917
843.917
843.917
843.917
843.917
843.917
843.917
843.917
843.917
843.917
843.917
843.917
843.917
843.917
843.917
843.917
843.917
843.917
843.917
843.917
843.917
843.917
843.917
843.917
843.917
843.917
843.917
843.917
843.917
843.917
843.917
843.917
843.917
843.917
843.917
843.917
843.917
843.917
843.917
843.917
843.917
843.917
843.917
843.917
843.917
843.917
843.917
843.917
843.917
843.917
843.917
843.917
843.917
843.917
843.917
843.917
843.917
843.917
843.917
843.917
843.917
843.917
843.917
843.917
843.917
843.917
843.917
843.917
843.917
843.917
843.917
843.917
843.917
843.917
843.917
843.917
843.917
843.917
843.917
843.917
843.917
843.917
843.917
843.917
843.917
843.917
843.917
843.917
843.917
843.917
843.917
843.917
843.917
843.917
843.917
843.917
843.917
843.917
843.917
843.917
843.917
843.917
843.917
843.917
843.917
843.917
843.917
843.917
843.917
843.917
843.917
843.917
423.923
423.923
423.923
423.923
423.923
423.923
423.923
423.923
423.923
423.923
423.923
423.923
423.923
423.923
423.923
423.923
423.923
423.923
423.923
423.923
423.923
423.923
423.923
423.923
423.923
423.923
423.923
423.923
423.923
423.923
423.923
423.923
423.923
423.923
423.923
281.433
268.384
270.59
271.768
271.466
271.007
270.803
270.731
270.846
270.693
270.764
271.278
271.62
271.521
271.231
271.006
270.906
270.882
270.88
270.879
270.874
270.872
270.87
270.882
270.88
270.909
270.92
270.936
270.983
271.025
271.031
271.042
271.048
271.115
271.176
281.28
268.215
270.195
271.359
271.193
270.854
270.698
270.656
270.724
270.676
270.786
271.135
271.346
271.27
271.062
270.889
270.801
270.776
270.781
270.794
270.806
270.819
270.829
270.851
270.855
270.891
270.905
270.928
270.969
271.043
270.99
271.098
270.969
271.226
271.011
280.992
268.497
270.695
271.593
271.003
270.38
270.132
270.092
270.199
270.133
270.248
270.61
270.817
270.766
270.623
270.527
270.492
270.485
270.482
270.48
270.482
270.494
270.511
270.547
270.569
270.627
270.663
270.71
270.785
270.868
270.877
270.962
270.93
271.15
271.04
280.45
267.962
270.032
270.933
270.496
270.025
269.867
269.847
270.03
269.892
270.056
270.64
270.963
270.834
270.544
270.343
270.271
270.273
270.297
270.321
270.343
270.366
270.39
270.43
270.453
270.511
270.548
270.591
270.671
270.734
270.77
270.804
270.824
270.966
270.972
280.026
267.567
269.429
270.38
270.126
269.793
269.691
269.725
269.849
269.872
270.035
270.357
270.527
270.457
270.288
270.16
270.114
270.129
270.171
270.218
270.263
270.306
270.346
270.399
270.433
270.502
270.547
270.598
270.69
270.754
270.808
270.846
270.868
271.076
270.954
279.293
267.311
269.211
269.845
269.254
268.73
268.58
268.597
268.813
268.706
268.924
269.493
269.772
269.647
269.405
269.257
269.227
269.259
269.306
269.35
269.392
269.438
269.486
269.551
269.601
269.689
269.753
269.83
269.932
270.047
270.063
270.199
270.157
270.428
270.323
278.418
266.537
268.316
268.945
268.455
268.062
268.033
268.153
268.406
268.382
268.616
269.122
269.363
269.254
269.045
268.918
268.894
268.928
268.979
269.032
269.086
269.143
269.2
269.271
269.325
269.416
269.48
269.558
269.656
269.779
269.778
269.947
269.872
270.204
270.025
277.453
265.989
267.574
267.801
266.981
266.423
266.355
266.481
266.765
266.729
266.996
267.524
267.765
267.676
267.509
267.427
267.435
267.484
267.54
267.593
267.647
267.707
267.772
267.855
267.923
268.033
268.114
268.211
268.338
268.46
268.515
268.628
268.659
268.903
268.824
276.154
264.783
266.249
266.515
265.883
265.547
265.667
265.914
266.278
266.252
266.56
267.145
267.388
267.257
267.05
266.951
266.96
267.019
267.089
267.157
267.225
267.297
267.37
267.458
267.529
267.638
267.719
267.814
267.938
268.06
268.111
268.229
268.264
268.531
268.415
275.003
263.993
265.064
264.822
263.847
263.383
263.496
263.776
264.127
264.16
264.456
264.93
265.148
265.109
265.023
265
265.033
265.086
265.142
265.199
265.264
265.339
265.422
265.522
265.609
265.737
265.834
265.95
266.095
266.235
266.292
266.447
266.447
266.769
266.634
273.28
262.325
263.221
263.045
262.371
262.251
262.626
263.039
263.5
263.474
263.844
264.466
264.697
264.561
264.381
264.32
264.356
264.429
264.508
264.586
264.665
264.751
264.839
264.942
265.028
265.154
265.247
265.36
265.499
265.636
265.689
265.841
265.859
266.182
266.054
271.757
261.117
261.368
260.602
259.618
259.441
259.853
260.317
260.732
260.813
261.126
261.556
261.755
261.768
261.759
261.785
261.83
261.878
261.929
261.991
262.068
262.158
262.257
262.374
262.475
262.62
262.729
262.861
263.022
263.17
263.24
263.404
263.423
263.758
263.62
269.441
258.752
258.654
258.072
257.667
258.053
258.813
259.409
259.927
259.908
260.317
260.929
261.129
261.009
260.874
260.848
260.902
260.986
261.076
261.168
261.263
261.364
261.467
261.584
261.683
261.824
261.928
262.055
262.209
262.354
262.416
262.58
262.611
262.953
262.837
267.296
256.804
255.77
254.611
254.06
254.513
255.348
255.976
256.419
256.485
256.826
257.255
257.446
257.481
257.507
257.55
257.595
257.641
257.699
257.776
257.872
257.981
258.097
258.228
258.346
258.504
258.624
258.774
258.95
259.101
259.186
259.356
259.402
259.749
259.62
264.239
253.453
251.769
251.149
251.634
252.899
254.124
254.859
255.362
255.349
255.765
256.328
256.499
256.387
256.272
256.266
256.346
256.461
256.582
256.699
256.815
256.932
257.05
257.179
257.293
257.447
257.561
257.706
257.875
258.022
258.1
258.268
258.325
258.674
258.578
260.948
250.125
247.237
246.288
246.946
248.418
249.707
250.402
250.815
250.811
251.199
251.654
251.834
251.857
251.871
251.904
251.95
252.016
252.105
252.214
252.336
252.465
252.599
252.743
252.876
253.048
253.179
253.347
253.536
253.688
253.792
253.963
254.056
254.394
254.317
256.906
245.185
241.425
241.827
244.157
246.599
248.199
248.906
249.286
249.28
249.672
250.193
250.333
250.157
249.988
250
250.162
250.368
250.552
250.705
250.839
250.97
251.103
251.244
251.376
251.543
251.67
251.835
252.02
252.162
252.271
252.424
252.556
252.853
252.788
250.932
239.264
234.201
234.528
236.94
239.287
240.722
241.285
241.594
241.521
241.908
242.38
242.641
242.718
242.685
242.635
242.648
242.744
242.89
243.05
243.209
243.367
243.527
243.694
243.858
244.051
244.207
244.41
244.619
244.783
244.911
245.132
245.248
245.716
245.448
242.884
230.457
220.926
219.768
222.26
224.814
226.157
226.589
226.75
226.754
226.772
227.301
228.271
228.942
228.862
228.372
227.988
227.899
228.015
228.204
228.4
228.592
228.785
228.983
229.186
229.407
229.6
229.851
230.08
230.242
230.413
230.674
230.979
231.404
231.527
224.275
214.59
207.879
213.223
218.915
221.785
222.72
222.94
223.079
223.113
223.357
223.583
223.691
223.647
223.606
223.711
223.939
224.192
224.417
224.615
224.801
224.987
225.178
225.375
225.575
225.79
225.981
226.229
226.438
226.573
226.74
227.012
227.404
227.699
228.363
10.1455
10.5152
10.8608
10.6944
10.629
10.6648
10.6949
10.7382
10.6731
10.9223
10.4856
10.3664
10.5571
10.719
10.7808
10.7887
10.7822
10.775
10.7678
10.7609
10.7537
10.7463
10.7386
10.7328
10.7196
10.7279
10.6915
10.7143
10.7002
10.6529
10.6293
10.6187
10.6763
10.6294
10.7745
135.151
129.034
129.171
129.849
129.913
129.707
129.538
129.461
129.454
129.402
129.411
129.564
129.714
129.728
129.64
129.543
129.486
129.467
129.467
129.47
129.472
129.474
129.478
129.483
129.492
129.503
129.515
129.532
129.556
129.578
129.596
129.612
129.634
129.672
129.711
134.972
128.767
128.835
129.538
129.691
129.561
129.427
129.359
129.345
129.324
129.353
129.465
129.557
129.556
129.485
129.408
129.362
129.35
129.357
129.372
129.387
129.4
129.415
129.427
129.444
129.46
129.48
129.497
129.537
129.546
129.595
129.582
129.638
129.676
129.675
134.714
128.657
128.792
129.351
129.254
128.934
128.722
128.649
128.653
128.632
128.662
128.78
128.884
128.906
128.876
128.841
128.822
128.814
128.81
128.807
128.807
128.811
128.822
128.835
128.854
128.876
128.9
128.927
128.968
128.995
129.034
129.047
129.091
129.141
129.153
134.283
128.189
128.29
128.879
128.876
128.651
128.496
128.449
128.477
128.446
128.489
128.678
128.841
128.857
128.771
128.68
128.633
128.625
128.637
128.653
128.668
128.682
128.699
128.716
128.737
128.76
128.783
128.812
128.847
128.88
128.907
128.929
128.956
129.007
129.019
133.947
127.766
127.808
128.468
128.595
128.46
128.345
128.312
128.335
128.351
128.414
128.534
128.619
128.612
128.546
128.483
128.458
128.468
128.497
128.531
128.564
128.592
128.62
128.646
128.676
128.707
128.736
128.774
128.814
128.857
128.888
128.926
128.954
129.044
129.03
133.436
127.436
127.493
127.964
127.864
127.583
127.413
127.375
127.42
127.404
127.469
127.667
127.827
127.843
127.77
127.698
127.667
127.673
127.694
127.717
127.74
127.762
127.787
127.813
127.845
127.879
127.914
127.951
128.005
128.039
128.086
128.107
128.142
128.215
128.186
132.832
126.784
126.835
127.354
127.316
127.095
126.984
126.997
127.076
127.1
127.187
127.372
127.505
127.509
127.438
127.376
127.355
127.369
127.399
127.43
127.461
127.49
127.522
127.553
127.588
127.623
127.661
127.698
127.755
127.786
127.841
127.863
127.909
128.003
127.983
132.212
126.358
126.342
126.608
126.327
125.966
125.809
125.821
125.913
125.934
126.026
126.227
126.38
126.408
126.363
126.319
126.306
126.319
126.341
126.365
126.388
126.413
126.442
126.473
126.51
126.549
126.589
126.634
126.689
126.735
126.774
126.812
126.833
126.922
126.88
131.379
125.483
125.456
125.779
125.59
125.329
125.265
125.348
125.487
125.532
125.649
125.874
126.026
126.028
125.953
125.896
125.888
125.913
125.949
125.985
126.018
126.05
126.086
126.121
126.16
126.201
126.241
126.287
126.342
126.388
126.428
126.475
126.499
126.62
126.587
130.68
125.03
124.858
124.853
124.391
124.002
123.918
124.016
124.164
124.222
124.333
124.523
124.662
124.706
124.7
124.688
124.69
124.703
124.721
124.742
124.767
124.795
124.829
124.866
124.908
124.953
124.998
125.047
125.108
125.156
125.202
125.239
125.266
125.362
125.302
129.639
123.957
123.723
123.736
123.388
123.157
123.212
123.401
123.606
123.668
123.809
124.06
124.216
124.22
124.157
124.116
124.118
124.147
124.183
124.219
124.254
124.289
124.327
124.367
124.41
124.455
124.499
124.548
124.608
124.656
124.701
124.747
124.772
124.905
124.856
128.754
123.387
122.896
122.484
121.858
121.542
121.616
121.836
122.038
122.126
122.246
122.415
122.544
122.611
122.642
122.658
122.667
122.676
122.687
122.706
122.732
122.765
122.805
122.847
122.894
122.944
122.993
123.047
123.112
123.163
123.21
123.253
123.28
123.385
123.32
127.423
122.033
121.332
120.911
120.497
120.46
120.745
121.073
121.336
121.411
121.568
121.815
121.961
121.97
121.926
121.903
121.914
121.946
121.985
122.023
122.062
122.103
122.146
122.19
122.237
122.287
122.334
122.388
122.451
122.501
122.547
122.597
122.621
122.763
122.708
126.229
121.213
120.069
119.163
118.54
118.507
118.848
119.204
119.447
119.539
119.663
119.827
119.956
120.037
120.086
120.11
120.118
120.121
120.132
120.155
120.188
120.229
120.275
120.323
120.375
120.429
120.481
120.541
120.609
120.663
120.711
120.76
120.79
120.904
120.838
124.544
119.498
117.865
116.961
116.756
117.179
117.803
118.265
118.544
118.62
118.773
119.007
119.147
119.158
119.117
119.094
119.112
119.155
119.206
119.256
119.304
119.351
119.4
119.449
119.501
119.554
119.606
119.665
119.731
119.784
119.83
119.885
119.912
120.06
120.001
122.776
118.133
115.817
114.466
114.231
114.772
115.465
115.928
116.174
116.242
116.366
116.534
116.665
116.748
116.79
116.804
116.806
116.815
116.84
116.878
116.924
116.974
117.027
117.08
117.137
117.195
117.252
117.318
117.388
117.445
117.494
117.551
117.588
117.71
117.66
120.619
115.837
112.596
111.423
111.954
113.133
114.113
114.63
114.871
114.921
115.057
115.295
115.443
115.417
115.32
115.28
115.327
115.418
115.506
115.578
115.636
115.689
115.744
115.798
115.856
115.915
115.972
116.039
116.108
116.166
116.208
116.282
116.3
116.47
116.39
117.335
113.136
108.767
107.11
107.598
108.774
109.715
110.171
110.366
110.398
110.484
110.644
110.85
111.005
111.036
110.981
110.929
110.93
110.977
111.043
111.111
111.177
111.243
111.308
111.378
111.449
111.519
111.599
111.681
111.743
111.808
111.87
111.94
112.112
112.038
112.728
109.427
102.096
98.9775
99.4508
100.998
102.05
102.456
102.597
102.645
102.425
102.442
103.03
103.704
103.89
103.633
103.313
103.158
103.16
103.231
103.314
103.393
103.469
103.545
103.627
103.711
103.789
103.889
103.988
104.047
104.086
104.155
104.28
104.497
104.603
102.515
102.054
93.6606
93.1957
96.2099
98.3446
99.1818
99.4179
99.5224
99.5677
99.7095
99.8133
99.8929
99.9162
99.8738
99.8536
99.9071
100.006
100.109
100.199
100.279
100.355
100.432
100.51
100.592
100.675
100.754
100.856
100.951
100.999
101.019
101.081
101.256
101.4
101.831
12.8492
13.2767
13.6968
13.5982
13.5121
13.538
13.5731
13.6319
13.5471
13.8308
13.4295
13.239
13.3973
13.5828
13.6737
13.6958
13.6928
13.6859
13.6794
13.6733
13.6671
13.6609
13.6539
13.6504
13.6355
13.6495
13.6121
13.6296
13.6304
13.5901
13.5621
13.5324
13.5949
13.5347
13.6874
79.7428
77.1421
76.7471
77.0331
77.1854
77.1363
77.0326
76.9725
76.9297
76.9087
76.9048
76.921
76.9602
76.9929
76.9935
76.9694
76.9438
76.9299
76.927
76.9287
76.9315
76.9323
76.9364
76.936
76.9436
76.9468
76.9511
76.9608
76.9725
76.9776
76.9871
76.9928
77.0068
77.0224
77.0398
79.5493
76.9189
76.4999
76.8063
77.0126
77.0111
76.9328
76.874
76.8358
76.8209
76.8246
76.8417
76.8663
76.8796
76.8701
76.8466
76.8261
76.8181
76.8218
76.8311
76.8422
76.8507
76.8618
76.8664
76.8798
76.885
76.898
76.9015
76.9371
76.9119
76.9742
76.9248
77
76.9789
77.0215
79.3193
76.7501
76.3596
76.5893
76.6452
76.5132
76.3711
76.3027
76.2703
76.2618
76.2658
76.2802
76.3091
76.3397
76.3577
76.3619
76.3591
76.3549
76.3509
76.3475
76.3462
76.3458
76.3516
76.3538
76.3665
76.3733
76.3843
76.3961
76.4207
76.4177
76.4534
76.4362
76.4884
76.4799
76.5153
79.0023
76.412
76.01
76.2608
76.3714
76.2978
76.1916
76.146
76.1171
76.1159
76.1263
76.1502
76.197
76.2388
76.2473
76.2292
76.2087
76.2005
76.2039
76.2123
76.2217
76.229
76.2397
76.2449
76.2589
76.2678
76.277
76.2941
76.3092
76.321
76.3348
76.3409
76.3642
76.378
76.3787
78.7043
76.0692
75.6473
75.9539
76.1535
76.1424
76.0648
76.0188
76.0015
76.0079
76.0303
76.0603
76.0873
76.0947
76.0793
76.0569
76.0455
76.0514
76.0695
76.0915
76.1127
76.1296
76.1478
76.1593
76.1783
76.1928
76.2047
76.2297
76.244
76.2678
76.2791
76.2994
76.3259
76.3545
76.3765
78.3253
75.7891
75.3843
75.5784
75.6236
75.5026
75.3748
75.3279
75.3056
75.3146
75.3337
75.3632
75.412
75.456
75.4696
75.4588
75.4459
75.4443
75.4528
75.465
75.4777
75.4882
75.5025
75.5114
75.5307
75.5427
75.5602
75.5757
75.6093
75.6046
75.6504
75.6339
75.677
75.6902
75.6882
77.8738
75.2887
74.8976
75.1444
75.2331
75.1391
75.0373
75.0142
75.0178
75.0472
75.0827
75.1192
75.1599
75.1871
75.1886
75.1766
75.1703
75.1775
75.1939
75.2127
75.231
75.2465
75.2649
75.2771
75.2991
75.3123
75.3329
75.3466
75.3872
75.3748
75.4359
75.4103
75.473
75.4893
75.5175
77.4056
74.9561
74.5539
74.64
74.5511
74.3467
74.2037
74.178
74.1839
74.2162
74.2495
74.2852
74.3365
74.3875
74.4138
74.4158
74.4119
74.414
74.4226
74.4336
74.4453
74.4558
74.471
74.4813
74.5023
74.5165
74.5344
74.5564
74.5834
74.5949
74.6197
74.6316
74.6512
74.6757
74.6737
76.8122
74.3111
73.9216
74.0643
74.0293
73.869
73.7689
73.7837
73.8176
73.873
73.924
73.9699
74.0186
74.0529
74.0594
74.0516
74.0509
74.0635
74.0836
74.104
74.1228
74.1386
74.1577
74.1711
74.1942
74.2099
74.2289
74.2519
74.2796
74.2932
74.318
74.3397
74.3582
74.4057
74.423
76.2805
73.9784
73.5534
73.4766
73.2366
72.9724
72.8507
72.8708
72.9137
72.9705
73.0129
73.0447
73.0928
73.1519
73.1946
73.2124
73.2168
73.2198
73.2256
73.2337
73.2443
73.2556
73.2725
73.2846
73.3087
73.324
73.3448
73.3677
73.4002
73.4043
73.4451
73.4404
73.4804
73.4999
73.486
75.5594
73.2235
72.783
72.7269
72.5294
72.3291
72.2769
72.358
72.4305
72.5115
72.5728
72.619
72.6676
72.7097
72.7284
72.7313
72.7371
72.7519
72.7711
72.7897
72.8075
72.8236
72.8436
72.8582
72.8834
72.8998
72.9213
72.9447
72.9766
72.9846
73.0197
73.0324
73.0572
73.1126
73.1081
74.8986
72.8285
72.2907
71.9403
71.5265
71.2485
71.2006
71.2928
71.3754
71.4542
71.4987
71.5233
71.5736
71.6456
71.7046
71.7338
71.7407
71.7397
71.7401
71.7449
71.7549
71.7675
71.7865
71.8005
71.8269
71.8431
71.8655
71.8913
71.9231
71.9296
71.9695
71.9703
72.0115
72.0305
72.0241
73.9827
71.9226
71.2963
70.915
70.5625
70.4101
70.483
70.6593
70.7703
70.8722
70.9352
70.9715
71.0213
71.0711
71.0979
71.1079
71.1174
71.1324
71.1508
71.1695
71.1885
71.2067
71.229
71.2452
71.273
71.29
71.3132
71.3394
71.3714
71.3792
71.4164
71.4305
71.4558
71.5183
71.4986
73.113
71.3768
70.5472
69.8218
69.2837
69.1033
69.2067
69.3972
69.5162
69.6092
69.6488
69.6644
69.7179
69.8024
69.872
69.9043
69.9084
69.9031
69.9012
69.9067
69.9192
69.9351
69.9566
69.9733
70.0015
70.0186
70.0429
70.071
70.1015
70.1103
70.1498
70.1551
70.1968
70.218
70.2125
71.9445
70.2961
69.2247
68.3865
67.9822
68.0403
68.3252
68.6023
68.7392
68.8445
68.8972
68.9302
68.9873
69.042
69.0661
69.0711
69.0784
69.0955
69.1183
69.1419
69.1651
69.1868
69.2113
69.2298
69.2594
69.2773
69.3025
69.3313
69.3618
69.3724
69.4082
69.4275
69.4506
69.5171
69.4895
70.6901
69.4398
68.0165
66.8266
66.326
66.4275
66.7635
67.053
67.1836
67.2795
67.3046
67.3063
67.3633
67.4553
67.5237
67.5487
67.5479
67.544
67.5484
67.5616
67.5808
67.6017
67.626
67.6453
67.6752
67.6931
67.7199
67.7502
67.7783
67.7919
67.8271
67.8428
67.8804
67.9053
67.9125
69.1682
68.0953
66.1042
64.7479
64.5474
65.0274
65.5736
65.9232
66.0605
66.1388
66.1725
66.2189
66.2937
66.333
66.3202
66.3021
66.3145
66.3527
66.3963
66.4332
66.4629
66.4882
66.5148
66.5362
66.5682
66.5881
66.6164
66.6499
66.6754
66.6991
66.7159
66.7691
66.7601
66.8499
66.8267
66.9865
66.4359
63.7717
61.9114
61.5675
62.0356
62.5827
62.9126
63.0168
63.105
63.0908
63.0654
63.1614
63.3109
63.3899
63.3785
63.3364
63.3149
63.3241
63.3508
63.3819
63.4114
63.4414
63.467
63.5017
63.525
63.5593
63.5945
63.6284
63.642
63.694
63.6935
63.7642
63.7867
63.8201
63.926
64.3612
60.1703
57.3711
56.973
57.6991
58.3694
58.6714
58.7825
58.8538
58.6536
58.4931
58.7459
59.2017
59.438
59.3677
59.1851
59.06
59.0253
59.0421
59.0728
59.1019
59.13
59.1533
59.1861
59.2085
59.2395
59.275
59.3095
59.3284
59.3417
59.3355
59.3896
59.4438
59.5492
58.6655
61.4265
55.4195
53.1902
54.3308
55.6857
56.3314
56.5338
56.5997
56.6387
56.7108
56.7527
56.8078
56.8576
56.8405
56.7944
56.7784
56.8018
56.8422
56.8819
56.916
56.9464
56.9771
57.0042
57.0399
57.0666
57.0989
57.1395
57.1788
57.2014
57.1942
57.1869
57.251
57.2883
57.5467
14.4354
14.9536
15.4877
15.4938
15.4049
15.41
15.4395
15.5089
15.4134
15.6963
15.383
15.1567
15.2545
15.4312
15.5399
15.5778
15.582
15.5776
15.5725
15.568
15.5636
15.5594
15.5538
15.5536
15.5384
15.5562
15.5243
15.5333
15.5448
15.5184
15.4961
15.4514
15.5104
15.4428
15.5814
52.8595
51.7104
51.3165
51.3996
51.5288
51.5445
51.4905
51.4513
51.4046
51.3938
51.393
51.3677
51.3544
51.3749
51.403
51.4138
51.4089
51.401
51.3974
51.3975
51.3995
51.3998
51.4034
51.4012
51.4063
51.4072
51.4075
51.4116
51.419
51.4165
51.4208
51.4194
51.4278
51.4318
51.4446
52.6846
51.5293
51.1302
51.2289
51.3919
51.4385
51.403
51.3622
51.3227
51.3103
51.309
51.2951
51.2862
51.2941
51.3054
51.3075
51.3025
51.2987
51.3002
51.3056
51.313
51.3182
51.3266
51.3273
51.3372
51.3374
51.3477
51.3391
51.3767
51.3342
51.3964
51.3371
51.4044
51.3668
51.4188
52.4914
51.3633
50.9798
51.0383
51.1083
51.064
50.9769
50.9251
50.8858
50.88
50.8804
50.8616
50.8523
50.8709
50.9006
50.9214
50.929
50.9289
50.926
50.9228
50.921
50.9188
50.9221
50.92
50.9277
50.929
50.9338
50.9354
50.9556
50.9376
50.9706
50.9377
50.9885
50.9602
50.9985
52.2519
51.1159
50.7311
50.8034
50.9053
50.8972
50.8332
50.7995
50.7567
50.7606
50.7678
50.7397
50.727
50.7553
50.7923
50.8086
50.8069
50.802
50.8017
50.8053
50.8108
50.8144
50.8213
50.8218
50.8303
50.8341
50.8358
50.8451
50.8529
50.8533
50.8626
50.8556
50.8755
50.8789
50.8722
52.0028
50.842
50.4507
50.5646
50.73
50.7675
50.7258
50.6874
50.6588
50.6583
50.6676
50.6643
50.6606
50.6644
50.6674
50.665
50.6627
50.6669
50.6781
50.692
50.706
50.7162
50.7282
50.733
50.744
50.7526
50.7536
50.7714
50.7738
50.7868
50.7909
50.7932
50.82
50.8204
50.8508
51.7102
50.6107
50.2398
50.2875
50.347
50.3019
50.2166
50.1774
50.1354
50.1457
50.1563
50.13
50.1205
50.1524
50.1917
50.21
50.2109
50.209
50.2116
50.2173
50.2245
50.2294
50.238
50.2396
50.2513
50.2544
50.2639
50.2651
50.2938
50.2704
50.3108
50.2825
50.318
50.313
50.3252
51.3648
50.2232
49.8642
49.958
50.0518
50.0203
49.9458
49.9159
49.892
49.9135
49.9345
49.9203
49.9118
49.9304
49.9543
49.9661
49.9699
49.9751
49.9844
49.9955
50.0067
50.0149
50.0263
50.03
50.044
50.0474
50.0608
50.058
50.0966
50.0617
50.1198
50.0794
50.1339
50.1245
50.1661
50.9957
49.9501
49.606
49.6001
49.5658
49.4482
49.3376
49.3037
49.2782
49.304
49.3211
49.3001
49.2983
49.3375
49.3822
49.4048
49.409
49.4085
49.4106
49.415
49.4206
49.4247
49.433
49.4347
49.4468
49.4513
49.4583
49.4676
49.4841
49.4808
49.4961
49.4939
49.5152
49.5092
49.5305
50.5542
49.4602
49.128
49.1707
49.1739
49.0768
48.985
48.9733
48.964
49.0077
49.039
49.0232
49.0177
49.0453
49.0762
49.0909
49.0964
49.1037
49.1147
49.1265
49.1374
49.1453
49.1563
49.1603
49.1741
49.18
49.188
49.1988
49.2153
49.2156
49.2283
49.2368
49.2546
49.2632
49.303
50.1337
49.1854
48.8659
48.7722
48.6259
48.4441
48.33
48.3178
48.3178
48.36
48.3803
48.361
48.3654
48.4109
48.4609
48.4883
48.4954
48.495
48.4949
48.4967
48.5006
48.5042
48.5127
48.5147
48.5283
48.5324
48.5417
48.5491
48.5727
48.5569
48.5912
48.5705
48.6078
48.6035
48.6095
49.6021
48.6227
48.3035
48.2283
48.0976
47.9393
47.858
47.8852
47.8993
47.9658
48.0024
47.9815
47.9789
48.0159
48.0548
48.0744
48.0823
48.0898
48.0994
48.1091
48.1183
48.1256
48.1365
48.1407
48.1557
48.1611
48.1712
48.1803
48.2024
48.1933
48.2182
48.2182
48.2373
48.26
48.2752
49.0787
48.297
47.9613
47.7037
47.4097
47.1793
47.0943
47.1254
47.1579
47.2159
47.2361
47.2167
47.2275
47.2816
47.3388
47.3704
47.3777
47.3741
47.3698
47.3683
47.3705
47.374
47.3828
47.3856
47.4
47.404
47.4137
47.4233
47.4443
47.4313
47.4634
47.4467
47.4867
47.4751
47.4946
48.397
47.6338
47.2679
46.9771
46.6881
46.5112
46.4922
46.5815
46.6259
46.7102
46.7449
46.7204
46.7247
46.7697
46.812
46.8323
46.8396
46.8453
46.8527
46.8609
46.8698
46.8776
46.8892
46.8942
46.9102
46.9154
46.9261
46.9372
46.958
46.9493
46.9744
46.9772
46.9935
47.0247
47.0237
47.7091
47.2017
46.7654
46.2508
45.8094
45.5932
45.5944
45.695
45.7584
45.8307
45.8459
45.819
45.833
45.896
45.9593
45.9917
45.9963
45.9892
45.9823
45.9803
45.9834
45.9884
45.9982
46.0024
46.0175
46.0214
46.0317
46.0429
46.0614
46.05
46.0815
46.0674
46.1083
46.0958
46.1171
46.8219
46.43
45.8817
45.2481
44.8233
44.7223
44.8326
44.9987
45.0729
45.1605
45.1854
45.161
45.175
45.2254
45.2648
45.2789
45.2816
45.2859
45.2944
45.3047
45.3157
45.3255
45.3381
45.3443
45.361
45.3662
45.3777
45.3907
45.4087
45.4023
45.4256
45.4327
45.4454
45.4806
45.4715
45.8461
45.7904
45.0859
44.2033
43.6757
43.5916
43.7465
43.9286
44.0069
44.0873
44.0907
44.0494
44.0641
44.1325
44.195
44.2221
44.2227
44.2158
44.2124
44.215
44.2219
44.23
44.241
44.2467
44.2621
44.266
44.2773
44.2902
44.3046
44.2982
44.324
44.3187
44.3554
44.3407
44.3763
44.6646
44.8641
43.8413
42.7376
42.2891
42.4038
42.6977
42.9327
43.0187
43.0867
43.0945
43.0787
43.1095
43.1566
43.1735
43.1673
43.1656
43.1785
43.1988
43.218
43.2337
43.246
43.2593
43.2672
43.2846
43.2908
43.3031
43.3212
43.3298
43.3403
43.3398
43.3792
43.3661
43.4048
43.4233
43.1788
43.7516
42.3547
40.8652
40.2743
40.387
40.6988
40.9328
40.9953
41.0774
41.0589
40.9876
41.0099
41.1122
41.1925
41.2069
41.1828
41.1601
41.155
41.1633
41.1764
41.1892
41.202
41.2109
41.2269
41.2327
41.2475
41.262
41.2772
41.2708
41.3077
41.2866
41.3416
41.319
41.3679
41.1429
42.5902
40.4664
38.3855
37.7337
38.012
38.4345
38.6507
38.7405
38.8034
38.671
38.4864
38.5494
38.8245
39.0417
39.0671
38.976
38.8852
38.8418
38.8349
38.8416
38.8487
38.8558
38.8569
38.8674
38.8662
38.8739
38.8823
38.8902
38.8891
38.8949
38.863
38.8849
38.8705
38.9466
39.1697
42.1592
38.011
35.6222
35.8089
36.6204
37.0961
37.2554
37.3032
37.325
37.3639
37.4
37.4514
37.4985
37.4856
37.4329
37.3914
37.3812
37.3916
37.4074
37.4215
37.4325
37.4442
37.4507
37.4665
37.4718
37.4832
37.4991
37.513
37.5246
37.5149
37.4933
37.5117
37.5018
37.6583
15.6034
16.2
16.8743
17.0041
16.9309
16.9153
16.934
17.0105
16.9113
17.1738
16.956
16.7232
16.7614
16.9126
17.0282
17.0799
17.0929
17.0922
17.0891
17.0864
17.0838
17.0819
17.0779
17.0811
17.0667
17.0862
17.063
17.064
17.0809
17.0676
17.0571
17.0042
17.0572
16.9877
17.1039
37.6373
37.0823
36.804
36.8094
36.8957
36.9269
36.9027
36.8794
36.8411
36.8341
36.8363
36.807
36.779
36.7874
36.8165
36.8375
36.8419
36.8382
36.8346
36.8334
36.8342
36.834
36.8365
36.8342
36.8372
36.8373
36.8365
36.8365
36.8424
36.8371
36.8394
36.8343
36.8396
36.836
36.8507