/*--------------------------------*- C++ -*----------------------------------*\
  =========                 |
  \\      /  F ield         | OpenFOAM: The Open Source CFD Toolbox
   \\    /   O peration     | Website:  https://openfoam.org
    \\  /    A nd           | Version:  6
     \\/     M anipulation  |
\*---------------------------------------------------------------------------*/
FoamFile
{
    version     2.0;
    format      ascii;
    class       volScalarField;
    location    "0.8";
    object      yPlus;
}
// * * * * * * * * * * * * * * * * * * * * * * * * * * * * * * * * * * * * * //

dimensions      [0 0 0 0 0 0 0];

internalField   uniform 0;

boundaryField
{
    inlet
    {
        type            calculated;
        value           uniform 0;
    }
    outlet
    {
        type            calculated;
        value           uniform 0;
    }
    roughCylinder
    {
        type            calculated;
        value           nonuniform List<scalar> 
3840
(
22.0513
33.5558
42.6331
45.6054
47.7703
48.1534
48.733
48.6149
48.5939
48.1193
47.9338
47.7283
47.807
48.0763
48.1574
47.3764
47.0936
46.0909
44.8646
44.3908
43.7414
43.1892
42.3621
41.8997
40.3297
32.7355
42.4382
45.501
47.6827
48.1251
48.7232
48.6437
48.6499
48.2224
48.0716
47.9035
48.0069
48.2602
48.2903
47.5947
47.3456
46.4303
45.3181
44.8507
44.2422
43.7188
42.9114
42.5128
37.8853
32.5908
42.2539
45.4148
47.6224
48.1414
48.7688
48.7307
48.7615
48.3843
48.2631
48.1265
48.2443
48.481
48.4853
47.8675
47.648
46.8235
45.8193
45.3496
44.7863
44.2885
43.5054
43.1678
18.6595
32.5205
42.05
45.3361
47.5808
48.1928
48.8573
48.8638
48.9193
48.5884
48.496
48.3841
48.5034
48.7327
48.7433
48.1843
47.9982
47.2614
46.3602
45.8862
45.3727
44.8999
44.1507
43.8664
39.8511
32.1985
41.8443
45.265
47.5625
48.2846
48.9925
49.0453
49.1251
48.8405
48.7661
48.6685
48.7858
49.0236
49.0668
48.5365
48.3917
47.7372
46.9296
46.4543
45.9907
45.5431
44.838
44.5986
45.8702
32.0625
41.599
45.1931
47.5593
48.4028
49.1592
49.2611
49.3669
49.1189
49.0588
48.9723
49.083
49.3417
49.4372
48.915
48.8206
48.2404
47.5212
47.051
46.636
46.216
45.5645
45.3609
52.6498
31.7759
41.3815
45.1154
47.5758
48.5505
49.3596
49.5127
49.6451
49.4331
49.3823
49.3028
49.4094
49.6982
49.8512
49.3193
49.2809
48.7688
48.1315
47.674
47.303
46.9134
46.3227
46.1469
62.3749
32.2128
41.0698
45.0265
47.5981
48.7119
49.5786
49.7855
49.9435
49.7618
49.72
49.6521
49.7569
50.0763
50.292
49.7488
49.7652
49.3129
48.7525
48.3163
47.986
47.6302
47.1053
46.9506
62.2781
33.2737
40.7432
44.924
47.6251
48.8871
49.8144
50.0769
50.2599
50.1161
50.0885
50.0367
50.1422
50.4862
50.7565
50.2017
50.2725
49.8783
49.3909
48.9835
48.689
48.3708
47.9139
47.776
57.3816
33.9135
40.2865
44.7841
47.6367
49.0553
50.0494
50.3706
50.5813
50.4769
50.4684
50.4383
50.5495
50.9091
51.2369
50.6783
50.7921
50.4479
50.0278
49.6577
49.3978
49.1201
48.7298
48.6062
62.8246
35.361
39.8765
44.6064
47.6309
49.2176
50.2846
50.669
50.9097
50.8524
50.8753
50.8764
50.9917
51.3522
51.7281
51.1724
51.3318
51.0386
50.6819
50.3555
50.128
49.8933
49.5673
49.4591
58.8102
36.2719
39.3196
44.3441
47.5778
49.349
50.499
50.9529
51.2296
51.2274
51.2923
51.3264
51.4486
51.8028
52.2288
51.6812
51.8721
51.6216
51.3228
51.0476
50.8545
50.6648
50.3971
50.3055
63.4865
37.9481
38.8916
44.0102
47.4786
49.453
50.7006
51.2348
51.5552
51.6131
51.7216
51.7993
51.9291
52.2647
52.7322
52.2008
52.4311
52.22
51.9702
51.7486
51.5893
51.4458
51.2346
51.1642
58.5597
38.8169
38.3099
43.5351
47.2851
49.4978
50.8628
51.4885
51.8584
51.9861
52.1549
52.2757
52.4122
52.7286
53.2301
52.714
52.9693
52.7937
52.5954
52.4328
52.3095
52.2118
52.0511
52.0045
63.0817
40.4924
37.9276
42.9505
47.0036
49.4878
50.9989
51.7343
52.1688
52.3705
52.5863
52.7486
52.8959
53.1909
53.72
53.2317
53.5185
53.3669
53.208
53.1031
53.0196
52.9696
52.8592
52.8406
57.619
41.1975
37.4334
42.1741
46.5586
49.3749
51.0717
51.9376
52.4413
52.7215
53.0038
53.2157
53.3716
53.6463
54.1802
53.7172
54.0238
53.9029
53.7909
53.7397
53.6917
53.6858
53.6238
53.6367
62.3036
42.8137
37.2489
41.2587
45.9555
49.1622
51.0978
52.1205
52.7128
53.08
53.4123
53.6541
53.8253
54.0882
54.6263
54.2022
54.5189
54.4103
54.3385
54.343
54.3414
54.3829
54.3694
54.4151
56.3861
43.2083
36.9412
40.1106
45.0861
48.7601
51.0122
52.242
52.9321
53.38
53.7734
54.0684
54.2545
54.4994
55.0096
54.6228
54.9482
54.864
54.8366
54.8888
54.9324
55.0221
55.0551
55.134
60.1305
44.4483
37.0141
38.8205
43.9349
48.167
50.834
52.3154
53.1385
53.6815
54.1164
54.437
54.6456
54.8875
55.3702
55.0301
55.3559
55.3047
55.3281
55.4235
55.5124
55.6467
55.7281
55.8431
58.3398
44.6964
36.9285
37.3075
42.36
47.2109
50.4249
52.2807
53.2721
53.9219
54.4196
54.7692
54.9863
55.2188
55.6721
55.3904
55.6976
55.6686
55.7379
55.8769
56.0161
56.2025
56.3301
56.4803
53.9369
44.9336
36.9912
35.6462
40.2531
45.8494
49.8118
52.12
53.3711
54.1425
54.6852
55.0688
55.3239
55.5503
55.9427
55.7173
56.0095
56.0108
56.1158
56.2825
56.4672
56.6969
56.8754
57.0626
55.4917
44.9062
36.8972
33.7978
37.4465
43.7169
48.6748
51.7199
53.3273
54.2681
54.9051
55.314
55.5653
55.7878
56.1388
55.9598
56.2018
56.2289
56.3771
56.5834
56.8206
57.1088
57.3349
57.5662
57.9423
45.188
36.7126
31.7967
33.7364
40.4456
46.9857
51.0224
53.162
54.3401
55.0322
55.5035
55.8122
56.0067
56.2643
56.1447
56.3458
56.3837
56.5484
56.782
57.0739
57.4041
57.6912
57.9599
55.469
44.4168
36.086
29.1644
28.4384
35.3983
43.7691
49.6535
52.6949
54.2511
55.1129
55.6055
55.8738
56.0749
56.2755
56.1729
56.3059
56.3551
56.5205
56.7676
57.1027
57.5021
57.8515
58.1888
57.8297
44.0328
34.9406
25.4289
15.8777
20.7305
38.3297
47.5499
51.9306
54.008
55.023
55.6214
55.9719
56.0998
56.1673
56.0694
56.0897
56.084
56.2057
56.4567
56.8401
57.2714
57.714
58.1036
56.3283
42.728
32.8597
16.3959
6.29387
15.2515
16.8836
42.5073
50.4369
53.4999
54.8483
55.4418
55.6902
55.8386
55.7949
55.5942
55.4658
55.3855
55.3779
55.5456
55.9277
56.4354
56.9932
57.5216
58.7737
41.5706
29.6173
12.7086
14.2113
6.97219
8.56282
34.8177
48.1955
52.6351
54.3293
55.1532
55.4737
55.3647
55.0549
54.7198
54.2488
53.8671
53.5959
53.6428
54.0108
54.5221
55.2711
55.9332
56.6098
40.2479
26.908
10.1901
10.0696
14.5677
15.3371
21.8151
44.6991
51.4241
53.6277
54.2994
54.4045
54.3244
53.6402
52.7818
51.8052
50.9532
50.0896
49.6818
49.7899
50.2681
51.3802
52.4891
57.7921
41.5116
27.7065
8.18992
21.9779
12.3263
15.1156
9.62969
42.258
49.6471
52.3459
53.352
53.3065
52.3752
50.9008
49.3178
47.0957
44.1843
40.6707
38.336
37.3576
37.5126
39.5213
41.8096
55.5434
43.2139
31.6032
19.0279
28.6881
17.0222
6.90401
23.6388
40.2927
47.694
50.4335
50.7444
50.0897
48.8428
45.7294
40.4722
33.2816
24.1503
14.069
6.83136
22.7738
22.6168
8.73838
16.2501
53.1089
45.5272
36.9169
26.8759
31.7673
12.4316
11.3114
28.0939
37.7817
44.7252
47.2583
47.6048
45.6567
40.1352
29.1397
12.6918
17.3087
20.9374
17.7929
16.753
20.6203
18.3498
8.80476
18.7143
44.5358
43.8704
38.6601
31.1941
27.3302
15.6082
19.1477
23.4224
33.5277
39.8032
40.4505
36.8259
27.6026
5.34566
21.4478
17.5887
21.8757
21.6436
24.4443
26.1615
28.1582
26.1462
26.542
23.8583
34.5101
39.5751
36.9845
31.3607
19.1314
13.6021
8.32417
17.8332
15.9105
18.6274
14.4462
20.7939
5.73909
10.268
24.3934
31.9315
35.6501
37.9119
37.7657
36.0634
35.143
34.4958
33.312
32.9754
27.9046
35.2936
33.4775
26.8512
14.9394
7.77319
14.0356
18.2605
15.6858
20.1377
11.2636
19.4071
32.0494
40.0666
43.1285
42.3565
41.8639
40.3912
39.2772
37.4306
36.7715
35.0533
34.0606
33.7877
23.5325
31.3688
28.6521
16.4629
18.6072
15.6789
12.2776
22.1624
29.8609
33.8737
38.9563
41.5728
43.0814
43.941
45.5937
45.7449
45.8598
45.3167
44.2193
41.9468
40.8505
38.7802
37.7506
36.4937
21.1246
27.598
21.9312
2.95563
12.3742
16.8434
29.0675
34.5741
38.0595
41.1415
41.382
42.9728
45.2303
49.0177
51.6822
51.41
50.6766
49.2875
48.0073
45.8646
45.3331
44.0577
42.7915
42.3036
18.5661
23.6823
13.3584
13.1541
9.71432
26.1742
28.3536
32.0541
36.727
41.3104
44.9135
47.4135
50.3627
53.0841
55.1146
53.5173
51.9834
50.6766
49.8822
48.2969
48.382
47.2996
46.9379
46.6273
16.5267
19.738
5.74353
14.6617
22.9076
28.8416
27.9869
30.7899
38.02
43.6474
46.4634
48.7908
51.6377
53.5109
54.2073
52.4763
51.4849
51.2063
51.1863
50.1081
50.3587
49.9023
49.586
49.6298
15.9457
18.0063
16.4933
15.6856
29.4358
31.8157
31.0215
30.8252
34.9198
41.5375
44.2959
45.636
48.9037
50.3723
51.8467
51.9944
51.3766
51.0836
51.3151
50.7031
51.4994
51.6867
51.7756
52.3401
14.2737
17.1096
15.1112
27.437
33.6232
34.6406
33.7498
32.8526
34.5593
36.606
30.6947
32.2688
45.9944
51.0019
50.4057
49.1682
47.0721
46.3771
47.1517
47.1607
48.9313
49.7506
50.9527
52.167
12.0376
7.54017
3.16456
10.3416
14.0147
21.6957
62.5833
58.8321
62.0462
51.3503
59.3603
42.7209
57.4664
39.362
53.6653
37.8601
47.9646
35.8105
43.2744
37.189
37.3628
43.216
35.7652
47.7325
38.2238
53.7008
39.9017
57.554
43.0677
59.4311
51.7937
62.3112
59.1268
62.8034
21.1549
13.4525
11.5423
10.951
8.20622
12.1517
16.9424
19.4369
10.9619
12.0468
15.2579
44.0867
48.729
37.7118
42.8856
34.9681
43.1054
33.8023
43.3974
35.981
43.8318
39.5867
45.1516
43.3733
47.0611
47.0826
47.1476
47.0605
43.3797
45.1223
39.6532
43.8527
36.1335
43.4218
33.9635
43.0743
35.1325
42.9273
37.8144
48.8752
44.096
15.4544
12.1548
10.9236
19.4651
17.2824
13.3287
14.5014
4.23246
17.9157
34.205
40.7541
38.5704
35.8046
38.556
35.0772
40.144
36.2033
42.2142
39.422
44.438
43.3577
47.179
47.3242
49.838
50.8315
50.8637
49.8458
47.3353
47.1895
43.378
44.4506
39.4577
42.2218
36.2501
40.1032
35.1236
38.5293
35.7984
38.598
40.7432
34.1883
17.5572
3.8954
14.7969
13.5975
22.3124
1.75552
12.7893
27.5361
34.824
37.3389
37.2575
37.6381
38.2098
37.776
40.1895
39.3434
42.5486
42.1857
45.1229
45.3722
47.9193
48.5133
50.5781
51.9805
51.9968
50.5986
48.5348
47.9554
45.3886
45.1454
42.1874
42.5512
39.3442
40.1515
37.7748
38.1633
37.6079
37.2104
37.2908
34.76
27.3508
12.599
2.32606
22.3617
27.9533
17.169
11.8202
27.6436
34.7304
36.8621
38.7397
38.719
39.5712
39.6396
40.6946
41.2648
42.6119
43.3921
44.9139
45.8616
47.4746
48.6113
50.5111
52.5132
52.5235
50.5396
48.6459
47.5203
45.8914
44.9379
43.3986
42.6007
41.2639
40.6387
39.6339
39.5211
38.6648
38.7072
36.7576
34.6875
27.4734
11.4038
17.1392
27.9737
28.4431
7.88269
18.4836
27.562
35.838
38.4095
40.731
40.0132
41.3105
40.9036
41.1566
42.281
42.2567
43.8488
44.4271
46.0284
47.2516
49.0731
51.1605
53.8028
53.8118
51.191
49.1096
47.3069
46.0578
44.4714
43.8371
42.2816
42.2272
41.1588
40.8366
41.2889
39.9586
40.6388
38.4317
35.5897
27.7342
18.9613
7.37358
28.4127
27.8189
19.4265
3.00508
25.6602
37.0673
41.4819
42.2058
42.1123
43.246
42.2163
42.0924
42.6352
42.3257
44.3534
44.5478
46.8613
47.9914
50.434
52.7504
55.8445
55.854
52.7778
50.4768
48.0404
46.9097
44.5741
44.39
42.2899
42.6715
41.9872
42.2624
43.1413
42.1363
42.0986
41.4959
36.9813
25.32
13.255
19.7787
27.7365
27.2095
20.8494
11.3423
21.3107
41.503
43.9354
45.0847
43.0361
45.2091
42.4417
43.2633
42.9801
43.1907
44.9745
45.9159
48.1277
49.7013
52.2765
54.8587
58.2327
58.2422
54.8851
52.3173
49.7609
48.164
45.9877
44.9517
43.2731
42.8663
43.3585
42.2698
45.3077
42.8946
45.125
43.8563
41.3371
21.6268
12.0629
20.9989
27.3069
28.5466
7.44501
9.33472
26.4204
49.9857
48.3132
44.1686
44.1312
43.3987
42.8816
43.259
43.7825
44.1918
46.8023
47.5087
50.15
51.57
54.3399
56.9647
60.4306
60.4404
56.9867
54.3928
51.6219
50.2195
47.5512
46.8599
44.1823
43.8201
43.1765
42.8936
43.3243
44.08
44.3144
47.8751
50.967
22.4853
4.48288
9.62664
28.5613
24.9712
13.0067
25.2318
49.8531
51.7397
42.9422
36.8048
36.1707
39.2293
42.1641
43.0666
45.1869
46.4808
48.8999
49.9329
52.3174
53.6596
56.4955
59.1972
62.5652
62.5735
59.2248
56.5471
53.7221
52.3874
50.0103
48.9492
46.5495
45.1687
43.1108
42.0647
39.2144
36.036
36.777
42.8618
52.1376
49.4598
25.069
20.0891
24.9402
9.76236
5.10436
25.9274
38.5311
20.2308
19.9269
7.59055
26.1476
39.2997
42.8608
44.8992
48.4623
49.2942
51.7733
52.5409
54.537
55.8677
58.4549
61.1988
64.268
64.2758
61.2285
58.5055
55.9399
54.5961
52.6511
51.8101
49.4238
48.4498
45.0098
42.8092
39.3103
26.0446
7.0984
19.9769
20.7313
38.1766
25.8087
6.52567
10.1568
21.5
16.2464
18.9411
21.9849
14.8231
16.0764
14.1533
31.7244
43.3862
46.0124
49.6621
52.0065
52.9237
54.7203
55.1614
56.8271
58.0662
60.2569
62.7007
65.3298
65.3353
62.7275
60.3027
58.1251
56.8924
55.2466
54.7968
53.0106
52.0899
49.7288
46.0983
43.4162
31.756
14.1643
15.9662
14.8192
22.0564
18.8686
16.4492
21.3366
47.5713
36.5193
25.3195
8.08889
1.18009
15.4503
24.47
45.2155
47.3166
52.5565
53.9117
55.8025
56.4266
57.353
58.0231
59.06
60.3252
61.9409
63.956
65.8983
65.9044
63.9716
61.9754
60.3684
59.1202
58.0937
57.4272
56.5217
55.8756
54.0313
52.5975
47.488
45.1251
25.0366
14.8014
13.8388
7.94687
25.2394
36.5255
47.493
47.4466
27.8689
9.48749
14.1016
17.0003
29.6374
47.543
50.01
55.3685
56.0971
58.4008
58.4713
59.5895
59.7693
60.6881
61.2661
62.5356
63.7631
65.3225
66.3591
66.3657
65.3257
63.7836
62.5601
61.3195
60.7389
59.8552
59.6614
58.5823
58.4914
56.1974
55.4984
49.9998
47.8208
29.1405
17.8552
14.2558
9.64039
27.951
47.4676
39.5719
22.8771
5.62842
18.0694
33.9486
47.7656
52.5554
55.8115
58.716
59.2418
60.9196
60.8451
61.9942
62.1616
63.1166
63.751
64.812
65.7323
66.5018
66.8681
66.8751
66.5066
65.7519
64.843
63.8053
63.1853
62.2522
62.0961
60.959
61.049
59.3519
58.8599
55.8774
52.6733
47.7834
33.7929
17.8496
5.5606
22.9116
39.5956
37.2213
22.3148
9.12132
25.2142
41.678
50.9241
55.041
57.9166
60.286
60.9508
62.4684
62.7214
63.8333
64.2787
65.1592
65.892
66.6264
67.2674
67.5181
67.6866
67.6925
67.5295
67.2882
66.6752
65.9605
65.2516
64.3943
63.9619
62.8698
62.6151
61.1104
60.4212
58.0514
55.1155
50.9499
41.6705
24.7554
8.20783
22.3313
37.3163
35.9735
23.767
12.5583
18.3097
41.0618
50.8144
54.8049
58.4755
60.739
61.9972
63.4315
64.1264
65.1683
65.9299
66.7658
67.5997
68.2051
68.6674
68.734
68.8329
68.8395
68.7354
68.702
68.2516
67.6864
66.8702
66.064
65.3281
64.2751
63.6369
62.1312
60.933
58.5927
54.8401
50.9375
40.81
17.5814
12.4072
23.8857
36.0489
36.6751
26.8406
21.4801
15.066
33.1538
49.7615
53.3056
58.2521
60.8147
62.6806
64.2818
65.3744
66.3407
67.4401
68.2996
69.3095
69.926
70.368
70.3995
70.483
70.4868
70.4101
70.3919
69.9798
69.402
68.4243
67.5822
66.5288
65.5457
64.4984
62.8464
60.9964
58.3743
53.3311
49.8649
32.8257
8.12848
21.0157
26.9713
36.6785
38.1636
30.1895
17.0144
22.0048
12.5411
47.6187
51.7103
57.6476
61.1012
63.0723
65.212
66.4288
67.7015
68.8131
69.9197
71.0173
71.7824
72.2308
72.348
72.3886
72.3984
72.3309
72.2899
71.8129
71.1544
70.0244
69.015
67.8768
66.6582
65.4237
63.2711
61.2911
57.7568
51.7714
47.6116
11.159
21.8039
17.2815
30.5557
38.4908
39.1256
32.3845
24.899
18.0135
14.4259
39.5882
52.1689
56.8248
61.9036
63.6284
66.2229
67.4655
68.9452
70.0971
71.3655
72.5865
73.4821
74.0269
74.1938
74.207
74.2134
74.1938
74.0667
73.5473
72.706
71.5175
70.2899
69.1701
67.6933
66.4814
63.8116
62.1515
56.8516
52.3047
39.6572
27.5731
16.3979
24.9539
32.4346
39.2003
40.9049
33.5624
28.6648
24.5311
16.6599
30.0185
53.3837
56.0535
63.2202
64.1963
67.2741
68.3937
69.9519
71.2214
72.5118
73.8955
74.8585
75.5159
75.734
75.6958
75.7039
75.7303
75.5561
74.9332
74.0209
72.6714
71.4403
70.1693
68.6736
67.504
64.461
63.3978
56.2048
53.4425
29.4774
15.8583
24.4745
28.995
33.9768
41.2884
43.1752
34.432
30.2571
24.3519
9.1974
14.6876
54.9133
55.4936
64.352
64.8514
68.0736
69.1976
70.7046
72.1007
73.3933
74.8803
75.9201
76.6416
76.8737
76.8101
76.8119
76.8854
76.6689
76.0296
74.9548
73.6397
72.2246
71.0588
69.344
68.4777
64.9681
64.6731
55.6149
54.8854
14.2022
8.94715
24.4407
30.6052
34.5068
42.8795
44.326
35.6011
31.1591
14.4
13.5495
28.1888
52.2128
56.5879
64.4277
65.6472
68.4581
69.8265
71.1912
72.699
74.0226
75.5277
76.686
77.4226
77.633
77.5574
77.5591
77.6651
77.4545
76.7525
75.673
74.1983
72.926
71.4412
70.1303
68.6837
66.0159
64.4544
57.146
51.4662
24.7681
16.5436
14.0693
31.0817
35.6281
44.4262
46.9017
37.3867
31.7661
20.387
27.4065
26.9132
49.929
57.5832
63.6886
66.6647
68.2157
70.4772
71.3075
73.1398
74.3524
75.9508
77.1274
77.9126
78.1148
78.0066
78.0107
78.1382
77.9429
77.209
76.0957
74.5416
73.3592
71.6066
70.7118
68.5951
66.8095
64.109
57.4514
51.1314
31.7094
12.8591
19.7505
31.576
37.2256
46.8424
14.9539
33.799
42.6283
45.618
47.7905
48.1871
48.8023
48.7564
48.8533
48.5178
48.4148
48.1989
48.0722
47.9678
47.8599
47.5934
47.1564
46.2889
45.0189
44.2808
43.8359
42.9978
42.3031
41.8089
42.3481
32.9
42.4416
45.5193
47.7062
48.1643
48.8016
48.7979
48.9192
48.6182
48.5279
48.3386
48.2415
48.1509
48.0424
47.7928
47.3861
46.5562
45.3566
44.8273
44.3027
43.5479
42.8932
42.4363
29.9885
32.7856
42.2552
45.4347
47.6469
48.1863
48.8541
48.89
49.0223
48.7524
48.6826
48.5291
48.4642
48.3733
48.2701
48.0395
47.6569
46.8598
45.7146
45.4035
44.8094
44.133
43.522
43.1013
34.3246
32.4974
42.061
45.3545
47.6076
48.2412
48.9449
49.0154
49.1533
48.9145
48.884
48.7726
48.732
48.6302
48.5454
48.3374
47.9776
47.2116
46.1133
46.0182
45.3727
44.77
44.2062
43.8195
41.4259
32.5165
41.8297
45.2815
47.582
48.3256
49.0655
49.1661
49.3091
49.1145
49.1323
49.0586
49.0367
48.9204
48.8663
48.6766
48.3371
47.604
46.5481
46.6473
45.9678
45.4315
44.9158
44.5628
30.8906
31.7482
41.6333
45.1967
47.5676
48.4262
49.2013
49.3309
49.487
49.3445
49.4202
49.3805
49.3666
49.238
49.2264
49.0547
48.7374
48.0404
47.0296
47.2979
46.606
46.1312
45.6645
45.3453
49.0863
32.5107
41.318
45.1106
47.5595
48.5397
49.3503
49.5124
49.6931
49.6175
49.7502
49.734
49.7231
49.5904
49.6224
49.4617
49.168
48.5128
47.5497
47.9531
47.2655
46.8454
46.4256
46.1412
31.6137
31.3239
41.0634
45.0066
47.5552
48.6613
49.5099
49.7113
49.9268
49.9231
50.1074
50.1102
50.0976
49.9685
50.0478
49.8997
49.6313
49.0199
48.1079
48.6198
47.9543
47.585
47.2101
46.9618
49.3086
31.6593
40.6986
44.883
47.5503
48.79
49.6823
49.9319
50.1915
50.268
50.4957
50.5132
50.4964
50.3777
50.4954
50.3581
50.1191
49.5583
48.7007
49.2924
48.6596
48.338
48.0048
47.7938
60.5443
32.9957
40.2725
44.7336
47.5395
48.9227
49.8674
50.175
50.4847
50.6366
50.8953
50.9247
50.9076
50.804
50.9619
50.8414
50.627
50.115
49.3135
49.9688
49.379
49.1033
48.8088
48.6357
57.4666
34.0855
39.8115
44.5466
47.517
49.0587
50.068
50.444
50.806
51.027
51.3099
51.3546
51.3374
51.2477
51.4365
51.3409
51.1561
50.6987
49.9578
50.6557
50.1132
49.8833
49.6255
49.4907
62.5801
35.8391
39.3172
44.2947
47.4675
49.1875
50.2758
50.7285
51.1416
51.4233
51.7237
51.7823
51.7731
51.6993
51.9229
51.8576
51.6907
51.2844
50.6085
51.3372
50.8481
50.6627
50.4398
50.3422
57.9774
36.934
38.8317
43.9727
47.3808
49.3029
50.4907
51.0321
51.4967
51.8266
52.1333
52.2141
52.2207
52.1578
52.4114
52.3896
52.2444
51.8906
51.2818
52.0193
51.5847
51.4442
51.2586
51.1978
62.3458
38.5709
38.3152
43.5276
47.2198
49.3816
50.6904
51.3291
51.8399
52.2136
52.535
52.6388
52.6684
52.6179
52.9018
52.9177
52.7809
52.4807
51.9512
52.6848
52.3092
52.2111
52.0628
52.0367
58.6673
39.9672
37.9113
42.9694
46.9726
49.4112
50.8726
51.6249
52.1896
52.6011
52.924
53.0502
53.114
53.074
53.3893
53.4558
53.3309
53.0764
52.6237
53.3317
53.0199
52.9639
52.8585
52.8658
57.9463
41.2133
37.5031
42.2332
46.5724
49.3483
51.0009
51.8829
52.4991
52.9488
53.2924
53.4547
53.555
53.5252
53.8598
53.9582
53.8411
53.6422
53.279
53.9413
53.6934
53.6785
53.617
53.6568
56.2802
42.3069
37.2271
41.3337
46.0035
49.1779
51.0754
52.1112
52.7948
53.2903
53.651
53.833
53.9793
53.9643
54.3237
54.4594
54.3463
54.1852
53.9062
54.5182
54.3432
54.3701
54.3582
54.4286
61.3014
43.6821
37.1188
40.2305
45.1704
48.8161
51.0338
52.2704
53.0289
53.5707
53.9613
54.1927
54.3825
54.3773
54.7375
54.8863
54.7884
54.6765
54.4851
55.0349
54.9329
55.0073
55.0445
55.1434
55.4664
44.0376
37.0177
38.9371
44.0372
48.2467
50.8818
52.364
53.237
53.8442
54.2599
54.5183
54.7567
54.7702
55.1324
55.2922
55.2146
55.1575
55.057
55.5426
55.5118
55.6316
55.7215
55.8512
55.859
45.0168
37.1695
37.4728
42.4815
47.3057
50.4885
52.3373
53.3606
54.0525
54.5239
54.8158
55.0811
55.1084
55.4719
55.6376
55.5743
55.5569
55.538
55.9692
56.0106
56.1913
56.3311
56.4889
52.6665
44.7035
37.0325
35.8088
40.3786
45.941
49.8703
52.1671
53.4377
54.2397
54.7556
55.0912
55.4077
55.4516
55.7833
55.9396
55.9076
55.9326
55.9803
56.3556
56.457
56.6923
56.8893
57.0775
56.142
45.3324
37.1607
34.0148
37.5803
43.7959
48.7201
51.748
53.3658
54.3301
54.9472
55.3179
55.6334
55.6994
56.0163
56.1437
56.115
56.1739
56.2904
56.6401
56.8001
57.1143
57.3636
57.5854
56.5079
44.878
36.79
32.026
33.8713
40.491
46.9943
51.0191
53.1678
54.3694
55.0534
55.5008
55.8717
55.9322
56.1774
56.2838
56.274
56.3461
56.5023
56.8349
57.044
57.4237
57.7401
57.9912
52.9055
44.6946
36.333
29.4523
28.5884
35.3735
43.7385
49.6161
52.6673
54.2517
55.1165
55.5948
55.9139
56.0088
56.2155
56.2577
56.2395
56.3221
56.495
56.8233
57.0581
57.5384
57.9219
58.2232
52.5929
43.8191
35.1008
25.784
16.0652
20.4953
38.2002
47.4738
51.8746
53.9867
55.0205
55.6203
56.0051
56.0474
56.1327
56.1035
56.0245
56.0486
56.1948
56.536
56.784
57.3298
57.8098
58.1524
52.7906
42.8777
33.1506
17.0198
6.64969
15.3103
16.6454
42.4042
50.3581
53.4637
54.8384
55.4374
55.7001
55.7914
55.7777
55.5764
55.3909
55.3364
55.3601
55.6563
55.8557
56.5219
57.1194
57.566
57.1139
41.4007
29.8195
12.962
14.4276
8.86778
8.60687
34.7794
48.1181
52.5952
54.3333
55.1764
55.4817
55.3292
55.0595
54.6655
54.1533
53.7992
53.5768
53.826
53.9322
54.6452
55.4277
55.9894
56.4783
40.7291
27.3864
10.4959
11.1148
10.9442
15.8581
21.8763
44.6396
51.388
53.6338
54.3228
54.3908
54.2952
53.6657
52.6989
51.6757
50.8617
50.0583
49.965
49.716
50.4166
51.5285
52.5075
56.0501
40.5888
27.5196
9.2512
22.4615
12.7489
15.2307
9.39833
42.2142
49.6294
52.3922
53.4243
53.2974
52.3587
50.9747
49.2586
46.8918
44.0931
40.7885
38.6837
37.2859
37.6685
39.5382
41.8239
58.1134
43.8578
31.8534
19.4968
28.791
16.2115
7.77248
23.4941
40.2465
47.6919
50.4965
50.828
50.0666
48.848
45.9047
40.5874
32.9152
24.3199
15.241
5.5673
22.7572
3.36146
8.18449
14.9415
54.608
46.2673
37.3015
27.218
31.8038
14.3096
13.8205
27.8918
37.76
44.7826
47.4094
47.7715
45.6478
40.147
29.8308
13.6193
17.2904
21.0602
17.9379
8.0404
20.4404
18.6869
8.7703
20.4474
45.046
44.2109
38.8738
31.3476
27.6658
15.6286
17.0094
22.789
33.6209
39.9511
40.6951
37.0498
27.4489
5.71066
21.7285
17.6668
21.8305
22.5746
25.066
27.8391
28.0773
26.6809
26.6705
25.5482
34.758
39.741
37.1019
31.4829
19.2106
13.5068
5.02852
17.6523
16.1602
19.0888
15.1116
20.8201
4.91157
11.3635
26.2723
32.0064
35.4004
38.108
37.8789
35.7954
35.0076
34.7637
33.8729
32.879
28.2702
35.4753
33.63
27.0382
14.961
8.22423
15.1613
18.3076
15.7416
20.1307
10.7167
19.473
31.7438
39.9484
42.6722
42.4203
41.4895
40.5722
39.3378
37.5468
36.6288
35.458
34.445
34.2034
23.6766
31.5553
28.8351
16.5826
18.7828
16.7844
17.2269
21.6189
30.0046
33.8576
38.7957
41.7584
43.1247
44.1106
45.7839
45.7376
45.4502
45.5257
44.2644
41.9324
40.6845
39.1947
37.944
37.2815
21.244
27.711
21.9627
2.9563
13.4958
17.1765
27.9514
34.8961
38.0358
41.2591
41.2131
42.9463
45.1522
48.8759
51.6425
51.439
50.2174
49.4726
48.0622
45.8923
45.1396
44.4552
43.2246
42.5391
18.4212
23.7517
13.6403
14.6366
16.8357
24.5968
29.0297
31.9084
36.6293
41.4549
44.8804
47.3723
50.4084
53.0713
55.106
53.4874
51.4657
50.8379
49.8837
48.2927
48.1529
47.719
47.1419
47.1324
16.1091
19.6404
4.34042
12.3044
22.3917
29.1433
28.1539
30.8152
37.9809
43.6543
46.5277
48.7355
51.6002
53.4187
54.1732
52.4335
51.1347
51.3067
51.129
50.0998
50.1377
50.2532
49.7191
49.955
15.4239
17.7445
16.3902
15.6104
29.3836
31.9033
31.037
30.7697
34.9766
41.5064
44.2892
45.6349
48.8641
50.3149
51.8092
51.9674
51.2674
51.0977
51.2488
50.6741
51.2745
51.987
51.8157
52.4003
13.7895
16.8353
14.8703
27.4185
33.608
34.6424
33.7188
32.7531
34.5072
36.6569
30.5256
32.36
46.0539
51.0055
50.3799
49.0889
47.0211
46.4057
46.9917
47.1271
48.6605
50.1069
50.8442
52.4195
34.2222
6.15442
12.8554
10.7426
8.85996
8.84843
5.63421
13.1223
13.113
7.96763
5.67668
4.09323
10.7323
6.42504
8.8045
8.41746
7.60571
7.4355
3.90856
3.5339
3.54434
3.69629
4.4672
7.64481
8.56754
1.48624
5.82223
6.91784
5.92431
4.8585
8.20201
11.9961
8.2386
13.2743
11.5055
16.8346
12.3689
20.7728
9.17192
39.824
32.6122
31.7941
29.5657
28.3275
26.6285
25.0496
23.8202
21.8801
20.9792
18.8791
18.3195
16.569
15.972
14.7912
14.3089
13.5272
12.7849
12.5236
11.9031
11.8901
11.8956
12.0035
12.5191
12.9161
13.3828
14.4402
14.8792
16.199
16.5838
18.3349
19.0892
20.9694
22.0854
23.7422
25.1998
26.5511
28.558
29.2804
31.7962
32.504
42.2518
40.472
39.5381
37.7795
36.8845
35.2801
34.3492
33.0329
32.0606
31.0283
30.062
29.2865
28.4166
27.8367
27.0816
26.7443
26.2356
25.9804
25.7202
25.5973
25.5978
25.7027
25.9977
26.2176
26.7813
27.0548
27.8754
28.3877
29.3308
30.1156
30.9955
32.1473
32.9674
34.4216
35.2783
36.9341
37.7841
39.5823
40.4897
42.2448
45.0507
43.3417
42.0699
40.502
39.2339
37.8496
36.6577
35.4245
34.3464
33.2853
32.3273
31.4786
30.6715
30.027
29.4092
28.9463
28.4988
28.2659
27.9786
27.9157
27.9149
27.9948
28.2988
28.5336
28.9037
29.4399
30.0323
30.7605
31.4843
32.3597
33.3426
34.3327
35.4927
36.6646
37.8759
39.2585
40.527
42.076
43.3456
45.0522
47.1859
45.6016
44.2989
42.8318
41.5899
40.2605
39.1024
37.9601
36.8853
35.9311
34.9684
34.1955
33.3865
32.7944
32.1238
31.7662
31.2859
31.0513
30.8004
30.7062
30.7053
30.7939
31.0834
31.2672
31.7504
32.1075
32.8637
33.3856
34.2349
34.997
35.911
36.9277
37.9376
39.1146
40.2734
41.6048
42.8391
44.3061
45.5963
47.1711
47.5286
45.99
44.6495
43.2346
41.9538
40.6915
39.5058
38.4165
37.3445
36.4213
35.4642
34.7358
33.9313
33.3841
32.7442
32.3612
31.9405
31.715
31.4552
31.4
31.3966
31.4654
31.7618
31.9332
32.2869
32.7883
33.4038
34.012
34.7297
35.4808
36.4209
37.3242
38.3988
39.5004
40.69
41.9592
43.236
44.6383
45.9678
47.5013
48.133
46.6588
45.3093
43.9603
42.6773
41.4585
40.2747
39.2362
38.1707
37.296
36.3377
35.6324
34.8513
34.2978
33.6738
33.3387
32.8897
32.6737
32.4206
32.3518
32.3476
32.4269
32.7293
32.8165
33.267
33.6905
34.4108
34.8732
35.6508
36.3285
37.2327
38.1208
39.1598
40.2322
41.4303
42.6579
43.9313
45.2666
46.6043
48.0693
48.0549
46.5927
45.2341
43.9064
42.6224
41.4212
40.2258
39.2167
38.1592
37.3225
36.3582
35.6773
34.903
34.3934
33.7381
33.4611
33.0365
32.8176
32.5449
32.5127
32.505
32.5746
32.8859
32.9235
33.3209
33.8566
34.4937
34.9778
35.6517
36.2843
37.1865
38.0057
39.0597
40.1286
41.3476
42.5598
43.8306
45.1353
46.4757
47.9217
48.1191
46.6609
45.2848
43.9805
42.6922
41.5199
40.3019
39.323
38.2713
37.4869
36.5348
35.8584
35.0979
34.6114
33.9712
33.7436
33.3517
33.1224
32.8364
32.8111
32.8007
32.8908
33.1913
33.0968
33.598
34.1519
34.8076
35.1543
35.7846
36.3488
37.2018
37.9719
39.0617
40.1275
41.3848
42.5658
43.8323
45.096
46.4436
47.8698
47.7435
46.2738
44.8635
43.5641
42.2516
41.1051
39.8634
38.8835
37.82
37.0724
36.1626
35.5096
34.7371
34.2929
33.6499
33.5527
33.2271
32.9974
32.6601
32.6967
32.6804
32.7764
33.0165
32.8237
33.4251
34.0196
34.545
34.8007
35.3371
35.8243
36.6396
37.4094
38.5634
39.6396
40.9311
42.0759
43.3502
44.5842
45.9468
47.3562
47.6338
46.1726
44.7251
43.4189
42.0779
40.9401
39.6944
38.6912
37.5764
36.8068
35.925
35.3281
34.4854
33.9897
33.3895
33.3359
33.1474
32.9189
32.5242
32.6125
32.5932
32.7129
32.7812
32.7123
33.412
33.8382
34.2721
34.5339
35.0854
35.5511
36.3884
37.2225
38.4275
39.5123
40.7978
41.9072
43.1784
44.384
45.7559
47.1486
47.4078
45.9619
44.5091
43.2011
41.8458
40.7107
39.4776
38.4964
37.3624
36.5609
35.6616
35.142
34.3418
33.7205
33.0319
33.0449
32.8147
32.6616
32.1931
32.3109
32.2994
32.3653
32.3362
32.747
33.2227
33.4147
33.9153
34.2352
34.8223
35.3112
36.2277
37.1114
38.3299
39.3899
40.632
41.7053
42.9487
44.1378
45.5121
46.9121
47.2572
45.8108
44.3508
43.0393
41.6688
40.5297
39.2937
38.3446
37.2179
36.4133
35.4602
34.958
34.2745
33.7546
32.8403
32.7616
32.3999
32.6371
31.9553
32.083
32.0903
31.9947
32.3783
32.6897
32.858
33.0294
33.6134
33.9634
34.6182
35.2063
36.2249
37.1274
38.3288
39.3261
40.5331
41.5872
42.8494
44.0757
45.501
46.9484
47.1319
45.6682
44.2011
42.8953
41.5174
40.3768
39.115
38.1725
37.05
36.2604
35.2544
34.6767
33.9759
33.6694
32.9188
32.4301
31.8014
32.378
31.6606
31.7329
31.7419
31.6094
32.461
31.7566
32.5393
32.8356
33.4327
33.8165
34.6072
35.3
36.3509
37.1977
38.3134
39.2272
40.419
41.5097
42.866
44.1969
45.7016
47.2121
47.0251
45.5548
44.073
42.7555
41.3699
40.2138
38.9367
37.9517
36.8052
35.9906
34.9472
34.2564
33.3478
32.9695
32.4746
32.4052
31.1784
31.6253
31.1765
31.1098
31.112
31.2731
31.4804
31.4052
32.3385
32.5419
33.125
33.6716
34.6091
35.3318
36.3042
37.0589
38.0758
38.9904
40.227
41.4397
42.91
44.3237
45.8618
47.356
46.7514
45.2804
43.794
42.4688
41.0737
39.9082
38.6116
37.6062
36.4117
35.575
34.521
33.8865
32.9487
32.4075
31.5552
31.5763
30.8466
30.6357
30.3801
30.3416
30.3708
30.3843
30.7626
30.8233
31.6648
31.6309
32.4984
32.9398
33.8424
34.4337
35.4494
36.2636
37.4864
38.5315
39.8579
41.0239
42.3802
43.6551
45.0942
46.5276
46.2882
44.7981
43.2822
41.9276
40.4901
39.2757
37.9137
36.8395
35.5621
34.6466
33.4664
32.7415
31.7178
31.3223
30.3231
30.2273
29.5514
29.5289
29.0444
29.1201
29.1624
29.1353
29.5837
29.6838
30.4455
30.5769
31.5109
32.0091
32.9243
33.64
34.7465
35.636
36.8383
37.8712
39.1809
40.3783
41.8018
43.1632
44.689
46.1962
45.3875
43.9001
42.33
40.956
39.4486
38.1856
36.7147
35.5189
34.0382
32.9345
31.5139
30.6318
29.357
28.8978
27.8988
27.8974
27.0637
27.5041
26.698
26.9833
27.0208
26.6423
27.5686
27.4527
28.5158
28.704
29.7155
30.2658
31.3115
32.0807
33.2603
34.2001
35.4856
36.5811
37.9533
39.1915
40.6561
42.0341
43.605
45.1185
44.0505
42.5459
40.9001
39.4998
37.907
36.5973
34.9866
33.6519
31.8763
30.5147
28.7184
27.7065
26.2998
25.9421
24.984
25.0635
24.3132
24.1359
24.6408
24.4036
24.0849
23.5964
24.5475
24.6031
25.5458
26.1881
27.2353
27.9618
29.2138
30.0959
31.406
32.4272
33.8018
34.9433
36.3793
37.6469
39.1846
40.5935
42.245
43.789
43.1415
41.546
39.8487
38.4288
36.8879
35.6837
34.3215
33.3483
32.148
31.3759
30.3049
29.711
28.774
28.3868
27.5757
27.3655
26.719
26.6854
26.3893
26.25
26.0501
26.3295
26.5273
26.6685
27.1561
27.3896
28.1145
28.5521
29.4726
30.1491
31.2851
32.1706
33.445
34.4894
35.8924
37.1166
38.6729
40.0825
41.7615
43.312