/*--------------------------------*- C++ -*----------------------------------*\
  =========                 |
  \\      /  F ield         | OpenFOAM: The Open Source CFD Toolbox
   \\    /   O peration     | Website:  https://openfoam.org
    \\  /    A nd           | Version:  6
     \\/     M anipulation  |
\*---------------------------------------------------------------------------*/
FoamFile
{
    version     2.0;
    format      ascii;
    class       volVectorField;
    location    "46";
    object      wallShearStress;
}
// * * * * * * * * * * * * * * * * * * * * * * * * * * * * * * * * * * * * * //

dimensions      [0 2 -2 0 0 0 0];

internalField   uniform (0 0 0);

boundaryField
{
    inlet
    {
        type            calculated;
        value           uniform (0 0 0);
    }
    outlet
    {
        type            calculated;
        value           uniform (0 0 0);
    }
    roughCylinder
    {
        type            calculated;
        value           nonuniform List<vector> 
5120
(
(-0.000240836 -0.000342077 -0.000172323)
(-0.000295194 -0.000444182 -3.94232e-05)
(-0.000328361 -0.000535004 1.65311e-06)
(-0.000373388 -0.000621506 5.53526e-05)
(-0.000429122 -0.00069593 0.000116648)
(-0.000492067 -0.000753956 0.000177728)
(-0.000558652 -0.000793133 0.000234311)
(-0.000624268 -0.000814122 0.000283742)
(-0.000685069 -0.000819628 0.000324084)
(-0.000739434 -0.000815053 0.000354952)
(-0.000787868 -0.000808916 0.000378258)
(-0.000830172 -0.000805196 0.000395291)
(-0.000864166 -0.000804663 0.000405151)
(-0.000892879 -0.000809184 0.000408809)
(-0.000917495 -0.000818121 0.000407326)
(-0.000939332 -0.000830767 0.000401725)
(-0.000959725 -0.000846383 0.000392999)
(-0.000979828 -0.000864358 0.000381983)
(-0.00100051 -0.000884261 0.00036929)
(-0.00102235 -0.000905824 0.000355304)
(-0.00104565 -0.000928876 0.000340203)
(-0.00107052 -0.000953295 0.000323998)
(-0.00109689 -0.000978957 0.000306589)
(-0.0011246 -0.0010057 0.0002878)
(-0.0011534 -0.00103328 0.000267369)
(-0.00118297 -0.00106139 0.000244971)
(-0.00121287 -0.00108956 0.000220117)
(-0.00124257 -0.0011172 0.00019217)
(-0.00127116 -0.00114336 0.00016002)
(-0.00129735 -0.00116681 0.000122327)
(-0.00131829 -0.00118564 7.71159e-05)
(-0.00133026 -0.00119689 2.59863e-05)
(-0.000258645 -0.000330918 -0.000162728)
(-0.000316093 -0.000430377 -4.1913e-05)
(-0.000351748 -0.000520002 -4.03895e-06)
(-0.000398802 -0.000606327 4.64043e-05)
(-0.000456149 -0.000681811 0.000105238)
(-0.000520573 -0.000741588 0.000164663)
(-0.000588481 -0.000782842 0.000220184)
(-0.000655553 -0.000806163 0.000269054)
(-0.000718597 -0.000814742 0.000309492)
(-0.000776419 -0.000814458 0.000341562)
(-0.000828834 -0.00081192 0.000366779)
(-0.000874653 -0.000809493 0.000385608)
(-0.000910975 -0.000807467 0.000396344)
(-0.000941137 -0.000810966 0.000400499)
(-0.000967207 -0.000819256 0.000399309)
(-0.000990421 -0.000831569 0.000393915)
(-0.00101217 -0.000847067 0.00038535)
(-0.00103363 -0.000865056 0.000374498)
(-0.00105572 -0.000885039 0.000362)
(-0.001079 -0.000906697 0.000348248)
(-0.0011038 -0.000929843 0.000333433)
(-0.00113022 -0.000954338 0.000317568)
(-0.00115817 -0.000980051 0.000300557)
(-0.0011875 -0.00100681 0.000282213)
(-0.00121793 -0.00103438 0.000262269)
(-0.00124911 -0.00106244 0.000240398)
(-0.00128059 -0.00109053 0.000216104)
(-0.00131181 -0.00111805 0.000188754)
(-0.00134184 -0.00114409 0.000157242)
(-0.00136931 -0.0011674 0.000120244)
(-0.00139124 -0.00118611 7.58089e-05)
(-0.00140381 -0.00119727 2.55352e-05)
(-0.000276344 -0.000314847 -0.000146334)
(-0.00033655 -0.000411384 -4.49102e-05)
(-0.000374484 -0.000499073 -1.03813e-05)
(-0.000423167 -0.000584563 3.66032e-05)
(-0.000481833 -0.000660588 9.26819e-05)
(-0.000547584 -0.000721902 0.000150216)
(-0.000616898 -0.000765427 0.000204614)
(-0.00068581 -0.00079178 0.0002531)
(-0.000751606 -0.000804325 0.000294085)
(-0.000813074 -0.000808494 0.000327642)
(-0.000869226 -0.000809185 0.000354555)
(-0.00091812 -0.000808021 0.000374593)
(-0.000957686 -0.000805563 0.00038643)
(-0.00098941 -0.000807793 0.000391098)
(-0.00101699 -0.000815252 0.000390193)
(-0.00104166 -0.000827074 0.000385046)
(-0.00106485 -0.000842302 0.000376701)
(-0.00108775 -0.00086015 0.000366068)
(-0.00111129 -0.000880056 0.000353816)
(-0.00113608 -0.00090166 0.000340357)
(-0.00116241 -0.000924744 0.000325885)
(-0.0011904 -0.000949151 0.000310425)
(-0.00121996 -0.000974737 0.000293868)
(-0.0012509 -0.00100133 0.000276026)
(-0.00128294 -0.00102869 0.000256629)
(-0.00131573 -0.00105651 0.000235342)
(-0.00134877 -0.00108432 0.000211667)
(-0.00138149 -0.00111154 0.000184976)
(-0.00141291 -0.00113726 0.000154166)
(-0.00144162 -0.00116028 0.000117936)
(-0.00146453 -0.00117874 7.43606e-05)
(-0.00147768 -0.00118974 2.50362e-05)
(-0.000291984 -0.00029489 -0.000125708)
(-0.000354543 -0.000388 -4.79714e-05)
(-0.000394329 -0.000473043 -1.6968e-05)
(-0.00044408 -0.000557085 2.63644e-05)
(-0.000503662 -0.000633199 7.94238e-05)
(-0.000570563 -0.000695905 0.000134812)
(-0.0006414 -0.000741938 0.000187945)
(-0.000712492 -0.000771852 0.000236082)
(-0.000781329 -0.000788835 0.000277755)
(-0.000846393 -0.000797417 0.000312812)
(-0.000906093 -0.000801123 0.000341288)
(-0.000958256 -0.00080145 0.000362434)
(-0.00100152 -0.000799731 0.000375563)
(-0.00103533 -0.000800271 0.000380779)
(-0.00106453 -0.000806808 0.000380257)
(-0.00109079 -0.000817989 0.000375419)
(-0.0011155 -0.00083281 0.000367353)
(-0.00113991 -0.0008504 0.000357004)
(-0.00116496 -0.000870123 0.000345062)
(-0.00119126 -0.00089156 0.000331954)
(-0.00121914 -0.000914453 0.00031788)
(-0.00124868 -0.00093864 0.000302871)
(-0.00127981 -0.00096396 0.000286814)
(-0.00131232 -0.000990242 0.000269521)
(-0.00134591 -0.00101724 0.00025071)
(-0.0013802 -0.00104465 0.000230045)
(-0.00141471 -0.00107202 0.000207025)
(-0.00144883 -0.00109878 0.000181023)
(-0.00148155 -0.00112404 0.000150948)
(-0.00151142 -0.00114662 0.000115521)
(-0.00153525 -0.00116472 7.2846e-05)
(-0.00154892 -0.0011755 2.4515e-05)
(-0.000304762 -0.000271572 -0.000102934)
(-0.000369263 -0.00036072 -5.07812e-05)
(-0.000410414 -0.000442489 -2.34749e-05)
(-0.000460669 -0.000524482 1.60288e-05)
(-0.000520766 -0.000600208 6.57757e-05)
(-0.000588671 -0.000664156 0.000118705)
(-0.000661167 -0.000712869 0.000170365)
(-0.000734722 -0.00074664 0.000218083)
(-0.000806737 -0.000768118 0.000260398)
(-0.00087527 -0.000780813 0.000296804)
(-0.000938372 -0.000787331 0.000326717)
(-0.000993918 -0.000789244 0.000349038)
(-0.00104058 -0.000788496 0.00036324)
(-0.00107791 -0.000788235 0.000369445)
(-0.00110895 -0.000793484 0.000369476)
(-0.00113693 -0.000803776 0.000365036)
(-0.00116328 -0.000818031 0.000357346)
(-0.00118926 -0.000835208 0.000347359)
(-0.00121583 -0.00085459 0.00033579)
(-0.00124365 -0.000875708 0.000323094)
(-0.00127304 -0.000898272 0.000309481)
(-0.0013041 -0.000922084 0.000294974)
(-0.00133673 -0.000946987 0.000279468)
(-0.00137072 -0.000972788 0.000262768)
(-0.00140576 -0.000999257 0.000244582)
(-0.00144146 -0.00102609 0.000224575)
(-0.00147732 -0.00105285 0.000202239)
(-0.00151271 -0.00107899 0.000176953)
(-0.00154662 -0.00110363 0.000147636)
(-0.00157753 -0.00112562 0.000113036)
(-0.00160218 -0.00114325 7.12896e-05)
(-0.00161631 -0.00115374 2.39798e-05)
(-0.000314379 -0.000246013 -7.95714e-05)
(-0.000380326 -0.000330664 -5.31742e-05)
(-0.000422287 -0.000408598 -2.96901e-05)
(-0.000472463 -0.000487977 5.80711e-06)
(-0.000532647 -0.00056286 5.19343e-05)
(-0.000601366 -0.000627843 0.000102062)
(-0.000675562 -0.000679265 0.000151987)
(-0.0007517 -0.000716907 0.000199128)
(-0.000826943 -0.000742665 0.000241936)
(-0.000898942 -0.000759108 0.000279498)
(-0.000965496 -0.000768243 0.000310724)
(-0.00102455 -0.00077177 0.000334259)
(-0.00107479 -0.000772038 0.000349498)
(-0.00111618 -0.000772006 0.000356922)
(-0.00114984 -0.000775507 0.000357727)
(-0.00117971 -0.000784825 0.000353871)
(-0.00120781 -0.00079822 0.000346644)
(-0.00123544 -0.00081477 0.000337114)
(-0.00126361 -0.000833659 0.000326015)
(-0.00129296 -0.000854308 0.000313805)
(-0.00132384 -0.000876381 0.000300711)
(-0.00135636 -0.000899664 0.000286767)
(-0.00139041 -0.000923976 0.000271863)
(-0.00142578 -0.000949132 0.000255798)
(-0.00146214 -0.000974901 0.000238276)
(-0.00149911 -0.00100098 0.000218956)
(-0.00153617 -0.00102695 0.000197331)
(-0.00157268 -0.0010523 0.000172783)
(-0.00160761 -0.00107615 0.000144242)
(-0.00163945 -0.00109743 0.00011049)
(-0.00166481 -0.00111447 6.96954e-05)
(-0.00167935 -0.00112462 2.34327e-05)
(-0.000319968 -0.000218766 -5.66203e-05)
(-0.000386838 -0.000298458 -5.5019e-05)
(-0.000429038 -0.000372028 -3.54263e-05)
(-0.000478505 -0.000448218 -4.12918e-06)
(-0.000538237 -0.000521731 3.80302e-05)
(-0.000607471 -0.00058743 8.49471e-05)
(-0.00068329 -0.000641443 0.00013278)
(-0.000762069 -0.000682877 0.000179088)
(-0.000840618 -0.000712699 0.000222165)
(-0.000916174 -0.000732599 0.000260662)
(-0.000986324 -0.000744218 0.00029307)
(-0.00104907 -0.000749414 0.000317858)
(-0.00110316 -0.000750765 0.000334289)
(-0.00114855 -0.00075137 0.000342888)
(-0.00118642 -0.000754257 0.000344957)
(-0.00121842 -0.000761562 0.000341805)
(-0.00124846 -0.000773987 0.000335212)
(-0.0012779 -0.000789729 0.000326257)
(-0.00130768 -0.000807895 0.000315711)
(-0.00133857 -0.00082789 0.000304069)
(-0.00137092 -0.000849317 0.000291574)
(-0.00140484 -0.000871921 0.000278258)
(-0.00144023 -0.000895505 0.00026401)
(-0.00147687 -0.000919874 0.000248631)
(-0.00151442 -0.000944802 0.000231813)
(-0.00155251 -0.000969994 0.000213213)
(-0.00159062 -0.000995055 0.000192325)
(-0.00162808 -0.00101946 0.000168535)
(-0.0016639 -0.00104241 0.000140786)
(-0.00169651 -0.00106283 0.000107896)
(-0.00172248 -0.00107919 6.80736e-05)
(-0.00173733 -0.00108893 2.28761e-05)
(-0.000321255 -0.000190645 -3.49384e-05)
(-0.000388416 -0.000264943 -5.62711e-05)
(-0.000430246 -0.000333693 -4.05699e-05)
(-0.000478342 -0.000406149 -1.36002e-05)
(-0.000537028 -0.000477732 2.42667e-05)
(-0.000606371 -0.000543732 6.75371e-05)
(-0.000683611 -0.000600061 0.000112867)
(-0.000764909 -0.000644987 0.000157973)
(-0.00084671 -0.00067854 0.000200979)
(-0.000925927 -0.000701664 0.000240149)
(-0.000999922 -0.000715714 0.000273617)
(-0.00106662 -0.00072263 0.000299672)
(-0.0011248 -0.000725153 0.000317463)
(-0.00117429 -0.0007264 0.000327367)
(-0.00121616 -0.000729254 0.000330674)
(-0.00125212 -0.000735424 0.000328749)
(-0.00128432 -0.000746008 0.000322957)
(-0.00131569 -0.000760428 0.000314699)
(-0.00134722 -0.000777734 0.000304859)
(-0.0013797 -0.000796921 0.000293892)
(-0.00141349 -0.000817549 0.000282075)
(-0.00144874 -0.000839319 0.000269457)
(-0.00148534 -0.00086202 0.000255927)
(-0.0015231 -0.00088545 0.00024128)
(-0.00156166 -0.000909382 0.000225204)
(-0.00160067 -0.000933537 0.000207354)
(-0.0016396 -0.000957522 0.000187225)
(-0.00167779 -0.000980929 0.000164212)
(-0.00171427 -0.00100288 0.000137267)
(-0.00174752 -0.00102238 0.000105257)
(-0.00177394 -0.00103798 6.64242e-05)
(-0.00178903 -0.00104735 2.23119e-05)
(-0.000317361 -0.000161964 -1.50845e-05)
(-0.000384246 -0.00023058 -5.68087e-05)
(-0.000425102 -0.000294075 -4.49557e-05)
(-0.000471104 -0.000362223 -2.24125e-05)
(-0.000527981 -0.000431185 1.08377e-05)
(-0.000596778 -0.000496846 4.99825e-05)
(-0.000675022 -0.000555007 9.2284e-05)
(-0.000758701 -0.000603129 0.000135702)
(-0.00084383 -0.00064023 0.000178229)
(-0.000926869 -0.000666454 0.000217766)
(-0.00100494 -0.000682889 0.000252122)
(-0.0010759 -0.000691583 0.000279434)
(-0.00113846 -0.000695364 0.000298716)
(-0.00119239 -0.000697368 0.000310173)
(-0.00123842 -0.000700291 0.000314882)
(-0.00127822 -0.000705926 0.000314254)
(-0.00131393 -0.000715224 0.000309655)
(-0.00134804 -0.000728351 0.000302475)
(-0.00138135 -0.000744266 0.000293467)
(-0.0014154 -0.000762332 0.000283276)
(-0.00145061 -0.000781968 0.00027224)
(-0.0014871 -0.000802787 0.000260404)
(-0.0015248 -0.000824534 0.000247661)
(-0.00156351 -0.000846991 0.000233805)
(-0.00160289 -0.000869919 0.000218517)
(-0.00164262 -0.000893048 0.000201451)
(-0.00168216 -0.000915988 0.000182108)
(-0.00172074 -0.000938262 0.000159868)
(-0.0017576 -0.000959122 0.000133722)
(-0.00179122 -0.000977591 0.000102591)
(-0.00181794 -0.000992378 6.47613e-05)
(-0.00183302 -0.00100126 2.17425e-05)
(-0.000308482 -0.000133798 2.3484e-06)
(-0.00037413 -0.000196016 -5.68233e-05)
(-0.000413406 -0.00025421 -4.84941e-05)
(-0.000456663 -0.000317486 -3.03647e-05)
(-0.000510931 -0.000383139 -1.95549e-06)
(-0.000578487 -0.000447769 3.26154e-05)
(-0.000657262 -0.000507215 7.13149e-05)
(-0.000742986 -0.000558072 0.00011246)
(-0.000831234 -0.000598346 0.000153971)
(-0.000918189 -0.000627543 0.000193483)
(-0.00100068 -0.000646423 0.000228543)
(-0.00107627 -0.000656945 0.000257077)
(-0.00114353 -0.000662001 0.000277933)
(-0.001202 -0.000664675 0.000291085)
(-0.00125239 -0.000667698 0.000297437)
(-0.00129612 -0.000672863 0.000298291)
(-0.00133537 -0.000681299 0.000295074)
(-0.00137229 -0.000693257 0.000289121)
(-0.001408 -0.00070786 0.000281207)
(-0.00144393 -0.000724728 0.000272018)
(-0.00148057 -0.000743213 0.000261904)
(-0.00151815 -0.000762904 0.000250948)
(-0.00155668 -0.000783511 0.000239054)
(-0.00159597 -0.000804802 0.000226031)
(-0.00163572 -0.00082653 0.000211555)
(-0.00167564 -0.000848431 0.000195283)
(-0.00171527 -0.000870124 0.000176729)
(-0.00175391 -0.000891099 0.000155283)
(-0.00179082 -0.000910706 0.000129967)
(-0.00182463 -0.00092808 9.97676e-05)
(-0.00185137 -0.000941938 6.2995e-05)
(-0.0018664 -0.000950272 2.11382e-05)
(-0.000291962 -0.000105764 1.69407e-05)
(-0.000358256 -0.000162203 -5.6021e-05)
(-0.000394591 -0.000214592 -5.1163e-05)
(-0.000434228 -0.000272409 -3.72227e-05)
(-0.000484862 -0.000333903 -1.3787e-05)
(-0.000550074 -0.000396492 1.57485e-05)
(-0.000628485 -0.000456344 5.01556e-05)
(-0.000715848 -0.000509461 8.82863e-05)
(-0.000807315 -0.000552848 0.000128163)
(-0.000898388 -0.000585057 0.000167188)
(-0.000985503 -0.000606428 0.000202662)
(-0.00106608 -0.000618868 0.000232326)
(-0.00113844 -0.000625234 0.000254813)
(-0.00120205 -0.000628698 0.000269878)
(-0.00125716 -0.000631845 0.000278128)
(-0.00130516 -0.000636604 0.000280744)
(-0.00134801 -0.000644168 0.00027911)
(-0.0013879 -0.000654987 0.000274565)
(-0.00142597 -0.000668291 0.00026791)
(-0.0014637 -0.000683851 0.000259873)
(-0.00150172 -0.00070105 0.000250823)
(-0.0015403 -0.000719451 0.000240862)
(-0.00157948 -0.000738748 0.000229914)
(-0.00161916 -0.000758694 0.000217798)
(-0.00165905 -0.000779046 0.000204195)
(-0.00169892 -0.000799545 0.000188766)
(-0.00173839 -0.000819833 0.000171045)
(-0.0017768 -0.000839398 0.000150433)
(-0.00181357 -0.000857682 0.000125995)
(-0.00184722 -0.000873839 9.67703e-05)
(-0.00187391 -0.000886754 6.11215e-05)
(-0.00188869 -0.000894451 2.04966e-05)
(-0.000268864 -7.89219e-05 2.86667e-05)
(-0.000336242 -0.000130136 -5.43965e-05)
(-0.000369312 -0.000176357 -5.28554e-05)
(-0.000404388 -0.000228319 -4.27787e-05)
(-0.000450366 -0.000284877 -2.42519e-05)
(-0.000512201 -0.00034447 -7.44454e-08)
(-0.000589446 -0.000403909 2.9379e-05)
(-0.000677799 -0.000458647 6.3683e-05)
(-0.000771874 -0.000504634 0.000101121)
(-0.000866959 -0.000539758 0.000139055)
(-0.000959066 -0.000563809 0.000174608)
(-0.00104504 -0.000578309 0.000205263)
(-0.00112294 -0.000586052 0.000229405)
(-0.0011917 -0.000590063 0.000246436)
(-0.00125179 -0.000593219 0.000256781)
(-0.00130428 -0.000597486 0.000261411)
(-0.00135111 -0.000604203 0.000261646)
(-0.00139409 -0.000613787 0.000258726)
(-0.00143469 -0.000625756 0.000253546)
(-0.00147433 -0.000639934 0.000246842)
(-0.00151368 -0.000655703 0.000238999)
(-0.00155314 -0.000672669 0.000230159)
(-0.00159279 -0.000690503 0.000220255)
(-0.0016326 -0.000708965 0.000209126)
(-0.00167232 -0.000727797 0.000196457)
(-0.0017118 -0.000746759 0.000181916)
(-0.00175072 -0.0007655 0.000165066)
(-0.00178854 -0.000783539 0.000145326)
(-0.00182473 -0.000800364 0.000121793)
(-0.00185807 -0.000815298 9.36012e-05)
(-0.00188433 -0.000827149 5.91336e-05)
(-0.00189885 -0.000834204 1.98181e-05)
(-0.000238811 -5.41062e-05 3.72939e-05)
(-0.000306541 -9.98011e-05 -5.17594e-05)
(-0.000336536 -0.000139862 -5.33073e-05)
(-0.000366412 -0.000185604 -4.66956e-05)
(-0.000406508 -0.000236291 -3.28767e-05)
(-0.00046331 -0.000291492 -1.42709e-05)
(-0.000537711 -0.000349088 9.51287e-06)
(-0.000626119 -0.000404641 3.90035e-05)
(-0.000722951 -0.000453309 7.30914e-05)
(-0.000822276 -0.000491567 0.0001092)
(-0.000919444 -0.00051845 0.000144299)
(-0.00101112 -0.000535213 0.000175679)
(-0.00109485 -0.000544407 0.000201397)
(-0.00116976 -0.000549279 0.000220611)
(-0.00123541 -0.000552472 0.000233296)
(-0.00129285 -0.000556206 0.000240227)
(-0.00134376 -0.000561894 0.000242572)
(-0.00139015 -0.000570179 0.000241563)
(-0.00143333 -0.000580669 0.000238073)
(-0.00147481 -0.00059329 0.000232879)
(-0.00151546 -0.000607511 0.000226412)
(-0.00155566 -0.000622908 0.00021883)
(-0.00159559 -0.000639172 0.00021008)
(-0.00163527 -0.000656039 0.000200027)
(-0.00167451 -0.000673265 0.000188361)
(-0.00171328 -0.000690614 0.000174757)
(-0.00175137 -0.000707754 0.000158826)
(-0.00178826 -0.00072422 0.00013999)
(-0.00182371 -0.000739611 0.000117404)
(-0.00185629 -0.0007532 9.02765e-05)
(-0.0018821 -0.000764042 5.70526e-05)
(-0.0018961 -0.000770384 1.91072e-05)
(-0.00020368 -3.26567e-05 4.27248e-05)
(-0.000270318 -7.22801e-05 -4.82107e-05)
(-0.000297721 -0.000106524 -5.25984e-05)
(-0.000322332 -0.000146012 -4.89224e-05)
(-0.000355743 -0.00019024 -3.93077e-05)
(-0.00040628 -0.000240015 -2.61334e-05)
(-0.000476697 -0.000294677 -8.48864e-06)
(-0.000563877 -0.000349995 1.52457e-05)
(-0.000661702 -0.000400241 4.48573e-05)
(-0.000764531 -0.000441353 7.81961e-05)
(-0.000867025 -0.000471395 0.000112218)
(-0.000964764 -0.000490745 0.00014395)
(-0.00105503 -0.000501743 0.00017115)
(-0.0011357 -0.000507181 0.000192441)
(-0.00120701 -0.000510264 0.000207592)
(-0.00126963 -0.000513313 0.000217056)
(-0.00132517 -0.00051795 0.000221841)
(-0.0013751 -0.000524766 0.000223006)
(-0.0014211 -0.000533698 0.000221481)
(-0.00146465 -0.000544698 0.000218041)
(-0.00150654 -0.000557241 0.000213129)
(-0.00154734 -0.00057097 0.000206952)
(-0.0015873 -0.000585565 0.000199467)
(-0.00162655 -0.000600758 0.000190572)
(-0.00166493 -0.000616302 0.000179966)
(-0.00170255 -0.000631969 0.000167332)
(-0.00173933 -0.000647431 0.000152344)
(-0.00177485 -0.000662294 0.000134437)
(-0.00180899 -0.000676135 0.000112805)
(-0.00184072 -0.000688459 8.67976e-05)
(-0.00186556 -0.000698162 5.48648e-05)
(-0.00187907 -0.000703852 1.83625e-05)
(-0.000162848 -1.49315e-05 4.46105e-05)
(-0.000226313 -4.77945e-05 -4.33851e-05)
(-0.000251395 -7.62318e-05 -5.03255e-05)
(-0.000270822 -0.000109276 -4.90782e-05)
(-0.000296672 -0.000146284 -4.29813e-05)
(-0.000338729 -0.000188941 -3.47732e-05)
(-0.00040211 -0.00023837 -2.34871e-05)
(-0.00048615 -0.000291989 -6.49429e-06)
(-0.000585614 -0.000344196 1.73586e-05)
(-0.000692232 -0.000388592 4.67094e-05)
(-0.000799755 -0.000422034 7.86874e-05)
(-0.000903665 -0.000444387 0.00011015)
(-0.00100018 -0.000457325 0.000138433)
(-0.00108813 -0.000464111 0.000161918)
(-0.001166 -0.000467399 0.000179723)
(-0.00123437 -0.000469823 0.000191981)
(-0.00129449 -0.000473179 0.000199423)
(-0.00134833 -0.000478454 0.000203071)
(-0.00139719 -0.00048566 0.00020376)
(-0.00144263 -0.000494837 0.000202274)
(-0.00148572 -0.000505608 0.000199115)
(-0.00152697 -0.000517585 0.000194504)
(-0.00156671 -0.000530456 0.000188403)
(-0.00160523 -0.000543945 0.000180752)
(-0.00164241 -0.000557805 0.000171274)
(-0.00167853 -0.000571815 0.000159651)
(-0.00171371 -0.000585647 0.000145645)
(-0.00174747 -0.000598937 0.000128687)
(-0.00178023 -0.000611357 0.000108044)
(-0.00181048 -0.000622312 8.31727e-05)
(-0.00183447 -0.000631026 5.2593e-05)
(-0.00184715 -0.000636008 1.75885e-05)
(-0.000119513 -1.97522e-06 4.32207e-05)
(-0.000177529 -2.77247e-05 -3.75036e-05)
(-0.000201196 -5.06846e-05 -4.66957e-05)
(-0.000216878 -7.78102e-05 -4.745e-05)
(-0.000235801 -0.000107844 -4.39607e-05)
(-0.000269248 -0.000143075 -3.97221e-05)
(-0.000325086 -0.000186493 -3.44835e-05)
(-0.00040348 -0.00023659 -2.49511e-05)
(-0.000499006 -0.000287532 -8.10354e-06)
(-0.000606956 -0.000334176 1.59956e-05)
(-0.000719387 -0.000371409 4.48247e-05)
(-0.000829494 -0.000397297 7.52118e-05)
(-0.000933547 -0.000413151 0.000104211)
(-0.00102748 -0.000420971 0.000129436)
(-0.00111145 -0.000424412 0.000149782)
(-0.00118556 -0.000426205 0.000164933)
(-0.00125102 -0.000428445 0.000175344)
(-0.00130885 -0.00043207 0.000181728)
(-0.00136086 -0.000437503 0.000184919)
(-0.00140852 -0.000444867 0.000185668)
(-0.00145273 -0.000453787 0.000184463)
(-0.00149424 -0.000463956 0.000181578)
(-0.00153348 -0.000475083 0.000176972)
(-0.0015709 -0.000486864 0.000170644)
(-0.00160641 -0.000499059 0.000162342)
(-0.00164048 -0.000511423 0.000151742)
(-0.00167348 -0.000523623 0.000138729)
(-0.00170499 -0.00053539 0.00012273)
(-0.00173557 -0.0005463 0.000103066)
(-0.00176443 -0.000556074 7.93927e-05)
(-0.00178686 -0.000563671 5.02071e-05)
(-0.0017988 -0.000568057 1.67791e-05)
(-7.40628e-05 6.64634e-06 3.91082e-05)
(-0.000124255 -1.15814e-05 -2.97962e-05)
(-0.000145628 -2.84163e-05 -4.09498e-05)
(-0.000157451 -4.91555e-05 -4.32671e-05)
(-0.00016881 -7.12918e-05 -4.15417e-05)
(-0.000190648 -9.71621e-05 -4.01405e-05)
(-0.000231792 -0.000130731 -3.9445e-05)
(-0.000300809 -0.000175213 -3.66115e-05)
(-0.000398208 -0.000227579 -2.83287e-05)
(-0.00050814 -0.00027681 -1.20395e-05)
(-0.000624116 -0.000318026 1.18947e-05)
(-0.000740186 -0.00034821 3.99402e-05)
(-0.000849772 -0.000366944 6.86148e-05)
(-0.000951972 -0.000377451 9.5344e-05)
(-0.00104337 -0.000381959 0.000118154)
(-0.00112391 -0.000383565 0.000136272)
(-0.00119426 -0.000384585 0.000149713)
(-0.00125641 -0.00038665 0.000159083)
(-0.00131149 -0.000390234 0.000165)
(-0.00136099 -0.000395629 0.000168165)
(-0.00140621 -0.000402666 0.000169115)
(-0.00144779 -0.000411026 0.000168123)
(-0.00148621 -0.000420436 0.000165127)
(-0.00152217 -0.000430561 0.0001602)
(-0.00155561 -0.000441174 0.000153137)
(-0.0015873 -0.000452025 0.000143586)
(-0.00161784 -0.000462735 0.0001316)
(-0.00164669 -0.000473096 0.000116575)
(-0.00167525 -0.00048274 9.7924e-05)
(-0.00170181 -0.000491232 7.54534e-05)
(-0.00172299 -0.000497951 4.77329e-05)
(-0.00173378 -0.000501705 1.59386e-05)
(-3.49118e-05 9.72239e-06 3.08683e-05)
(-7.12249e-05 -2.4016e-06 -2.15954e-05)
(-9.19314e-05 -1.39934e-05 -3.07833e-05)
(-0.000104169 -2.90797e-05 -3.54529e-05)
(-0.000113823 -4.51768e-05 -3.52669e-05)
(-0.000130093 -6.4117e-05 -3.46137e-05)
(-0.000165777 -8.85866e-05 -3.65846e-05)
(-0.000224574 -0.000122941 -4.38366e-05)
(-0.000294613 -0.000166272 -4.58775e-05)
(-0.00039914 -0.000217816 -3.56997e-05)
(-0.000518091 -0.000263025 -1.79743e-05)
(-0.000638762 -0.000297879 6.20687e-06)
(-0.000756904 -0.000321787 3.35927e-05)
(-0.000864139 -0.000334479 6.07016e-05)
(-0.000961231 -0.00034014 8.53416e-05)
(-0.00104752 -0.000341837 0.000106144)
(-0.00112375 -0.000342264 0.000122734)
(-0.00119011 -0.000342884 0.000135203)
(-0.00124846 -0.000344772 0.000144066)
(-0.00130026 -0.000348381 0.000149913)
(-0.00134638 -0.000353578 0.000153206)
(-0.00138777 -0.000360172 0.000154264)
(-0.00142498 -0.000367939 0.000152972)
(-0.00145908 -0.000376491 0.000149507)
(-0.00148989 -0.00038562 0.000143716)
(-0.00151852 -0.000395032 0.000135198)
(-0.00154597 -0.000404316 0.000124234)
(-0.00157156 -0.000413375 0.000110183)
(-0.00159702 -0.000421677 9.25115e-05)
(-0.00162167 -0.000429183 7.133e-05)
(-0.00164063 -0.000434888 4.51169e-05)
(-0.00165043 -0.00043816 1.50541e-05)
(-1.45899e-05 7.84359e-06 2.04267e-05)
(-2.41368e-05 -5.74933e-08 -1.05784e-05)
(-3.04754e-05 -3.48432e-06 -1.72237e-05)
(-3.59618e-05 -1.04875e-05 -2.2977e-05)
(-3.79826e-05 -1.97111e-05 -2.32843e-05)
(-4.01627e-05 -2.62572e-05 -1.85104e-05)
(-4.59536e-05 -2.91287e-05 -1.83079e-05)
(-9.95978e-05 -7.19567e-05 -3.08858e-05)
(-0.000199467 -0.000114966 -3.68672e-05)
(-0.00028511 -0.000153355 -4.94095e-05)
(-0.000400332 -0.000204006 -4.22076e-05)
(-0.000525356 -0.000244747 -2.39244e-05)
(-0.000644965 -0.000272421 2.17574e-07)
(-0.000761002 -0.000290408 2.66784e-05)
(-0.000866009 -0.000299099 5.23328e-05)
(-0.000958961 -0.00030201 7.53934e-05)
(-0.00103973 -0.000302008 9.48042e-05)
(-0.00111046 -0.000301633 0.000110398)
(-0.00117179 -0.000301993 0.000122286)
(-0.00122506 -0.0003038 0.000130887)
(-0.00127181 -0.000307268 0.000136671)
(-0.0013127 -0.000312212 0.00013992)
(-0.00134831 -0.000318477 0.000140415)
(-0.00138013 -0.00032559 0.000138459)
(-0.00140795 -0.000333417 0.000133995)
(-0.00143323 -0.000341608 0.000126516)
(-0.00145737 -0.000349658 0.000116603)
(-0.00147939 -0.000357609 0.000103541)
(-0.00150226 -0.000364932 8.69015e-05)
(-0.00152373 -0.000371306 6.70021e-05)
(-0.00154112 -0.000376317 4.23905e-05)
(-0.00154948 -0.000379117 1.41312e-05)
(7.81287e-06 8.94412e-06 2.12879e-05)
(3.29349e-06 4.47984e-06 -7.64033e-06)
(-3.96408e-06 1.98601e-06 -1.71756e-05)
(-1.08788e-05 -5.35114e-06 -2.13029e-05)
(-1.51489e-05 -1.15098e-05 -2.32385e-05)
(-1.95618e-05 -1.73812e-05 -2.32717e-05)
(-2.53895e-05 -2.3974e-05 -2.23445e-05)
(-3.22228e-05 -3.05988e-05 -2.24144e-05)
(-6.52399e-05 -6.31096e-05 -2.22784e-05)
(-0.00018172 -9.98054e-05 -3.05952e-05)
(-0.000283167 -0.000140093 -5.52839e-05)
(-0.000403063 -0.000188138 -4.67919e-05)
(-0.000532667 -0.000225067 -2.83621e-05)
(-0.000649666 -0.000246644 -5.00332e-06)
(-0.000758132 -0.000258338 2.02623e-05)
(-0.000855697 -0.000263006 4.46116e-05)
(-0.000942397 -0.000263905 6.64826e-05)
(-0.0010169 -0.000263052 8.49567e-05)
(-0.0010812 -0.000262378 9.98603e-05)
(-0.0011366 -0.00026291 0.000111365)
(-0.00118376 -0.000264901 0.000119738)
(-0.00122379 -0.000268383 0.000125288)
(-0.00125727 -0.000273341 0.000127604)
(-0.00128641 -0.000279189 0.000127168)
(-0.00131055 -0.000285859 0.000124037)
(-0.00133169 -0.000292936 0.000117533)
(-0.00135189 -0.000299841 0.000108653)
(-0.00136965 -0.000306773 9.6571e-05)
(-0.00138844 -0.000312991 8.09046e-05)
(-0.00140765 -0.000318625 6.24217e-05)
(-0.00142217 -0.00032277 3.94677e-05)
(-0.00142927 -0.000325274 1.31471e-05)
(2.02334e-05 8.57449e-06 2.47092e-05)
(2.32572e-05 7.14013e-06 -4.2483e-06)
(1.95211e-05 5.34844e-06 -8.36431e-06)
(1.2957e-05 6.46489e-07 -8.38334e-06)
(2.22619e-06 3.33437e-07 -9.86109e-06)
(-4.90422e-06 -2.12277e-06 -1.46471e-05)
(-1.07512e-05 -8.06272e-06 -1.96988e-05)
(-2.62275e-05 -1.99426e-05 -2.78033e-05)
(-3.97764e-05 -3.52026e-05 -3.30511e-05)
(-4.5921e-05 -3.92876e-05 -2.0036e-05)
(-0.000168223 -8.60229e-05 -3.94281e-05)
(-0.000282591 -0.00012783 -5.89614e-05)
(-0.000396106 -0.000167626 -4.93027e-05)
(-0.000522972 -0.000199828 -3.11207e-05)
(-0.000639692 -0.000217178 -8.8846e-06)
(-0.000743545 -0.000225688 1.52833e-05)
(-0.000833178 -0.000227847 3.86213e-05)
(-0.000911419 -0.000227486 5.95504e-05)
(-0.000977965 -0.000226322 7.72064e-05)
(-0.00103382 -0.000225764 9.14143e-05)
(-0.00108085 -0.000226627 0.000102356)
(-0.00111956 -0.000228921 0.000110259)
(-0.00115042 -0.000232858 0.000114387)
(-0.00117643 -0.000237637 0.000115437)
(-0.00119661 -0.000243387 0.000113673)
(-0.00121355 -0.000249598 0.000108124)
(-0.00122975 -0.000255544 0.000100302)
(-0.00124318 -0.00026163 8.92382e-05)
(-0.00125915 -0.000267268 7.46381e-05)
(-0.00127428 -0.000271866 5.75551e-05)
(-0.00128707 -0.000275527 3.63954e-05)
(-0.00129252 -0.000277818 1.21135e-05)
(3.25873e-05 1.43442e-05 4.00164e-05)
(4.25349e-05 1.17105e-05 -8.00014e-06)
(4.42984e-05 6.53974e-06 -1.31153e-05)
(4.22443e-05 -1.1891e-06 -1.50825e-05)
(3.5058e-05 -9.42749e-06 -1.45427e-05)
(2.59357e-05 -1.38451e-05 -1.30057e-05)
(1.55308e-05 -1.30523e-05 -9.66331e-06)
(2.90079e-06 -7.33397e-06 -9.73163e-06)
(-1.42284e-05 -5.4134e-06 -2.1761e-05)
(-3.39288e-05 -2.84857e-05 -4.24714e-05)
(-4.13126e-05 -3.59253e-05 -2.35951e-05)
(-0.000155634 -7.65779e-05 -4.09659e-05)
(-0.000309902 -0.000120364 -5.65493e-05)
(-0.000398955 -0.00015084 -5.15775e-05)
(-0.000513942 -0.000175518 -3.39737e-05)
(-0.00061882 -0.000187823 -1.13406e-05)
(-0.000713769 -0.000193298 1.23498e-05)
(-0.000794 -0.000194199 3.48362e-05)
(-0.000862362 -0.000193458 5.47706e-05)
(-0.000919759 -0.000192807 7.15454e-05)
(-0.000966264 -0.000193061 8.4925e-05)
(-0.00100319 -0.000194518 9.51656e-05)
(-0.00103069 -0.000197734 0.000101)
(-0.00105323 -0.000201687 0.000103435)
(-0.00106874 -0.000206645 0.000102998)
(-0.00108055 -0.000212 9.82631e-05)
(-0.00109225 -0.000217037 9.147e-05)
(-0.00110059 -0.000222154 8.14112e-05)
(-0.00111152 -0.000227021 6.7784e-05)
(-0.00112442 -0.000230971 5.23228e-05)
(-0.00113379 -0.000233876 3.30414e-05)
(-0.00113768 -0.000236192 1.09907e-05)
(4.45781e-05 1.57211e-05 4.56579e-05)
(6.1268e-05 1.34899e-05 -8.16834e-06)
(6.77093e-05 9.65835e-06 -1.6188e-05)
(6.98563e-05 2.11814e-06 -2.05757e-05)
(6.80918e-05 -6.46864e-06 -2.24326e-05)
(6.25559e-05 -1.4559e-05 -2.2395e-05)
(5.33511e-05 -2.06815e-05 -2.08052e-05)
(3.89442e-05 -2.31558e-05 -1.80518e-05)
(2.04314e-05 -2.25436e-05 -1.11004e-05)
(-1.12188e-05 -4.82604e-06 -2.38577e-05)
(-2.25381e-05 -2.23926e-05 -3.53606e-05)
(-5.48441e-05 -2.24406e-05 -3.5956e-05)
(-0.000135055 -0.000105203 -6.04285e-05)
(-0.000267976 -0.000109341 -3.64372e-05)
(-0.000379496 -0.000128644 -5.14563e-05)
(-0.000492257 -0.000150798 -3.30321e-05)
(-0.000586564 -0.000159288 -1.09377e-05)
(-0.000669147 -0.00016305 1.20149e-05)
(-0.000738005 -0.000163518 3.33363e-05)
(-0.000793673 -0.000162996 5.19827e-05)
(-0.000838731 -0.000163259 6.74328e-05)
(-0.000873209 -0.000164253 7.98602e-05)
(-0.000896751 -0.000167123 8.71978e-05)
(-0.000915475 -0.000170477 9.08168e-05)
(-0.000926254 -0.000174826 9.17022e-05)
(-0.000933375 -0.000179473 8.77357e-05)
(-0.000940917 -0.000183742 8.20052e-05)
(-0.000944683 -0.000187826 7.3047e-05)
(-0.000953202 -0.000192811 6.05792e-05)
(-0.000961321 -0.000195497 4.66989e-05)
(-0.000969137 -0.000198087 2.94965e-05)
(-0.000971384 -0.00020066 9.80923e-06)
(5.23946e-05 1.47495e-05 4.68459e-05)
(7.37539e-05 1.25516e-05 -7.18178e-06)
(8.39142e-05 8.94113e-06 -1.59447e-05)