/*--------------------------------*- C++ -*----------------------------------*\
  =========                 |
  \\      /  F ield         | OpenFOAM: The Open Source CFD Toolbox
   \\    /   O peration     | Website:  https://openfoam.org
    \\  /    A nd           | Version:  6
     \\/     M anipulation  |
\*---------------------------------------------------------------------------*/
FoamFile
{
    version     2.0;
    format      ascii;
    class       volScalarField;
    location    "46";
    object      yPlus;
}
// * * * * * * * * * * * * * * * * * * * * * * * * * * * * * * * * * * * * * //

dimensions      [0 0 0 0 0 0 0];

internalField   uniform 0;

boundaryField
{
    inlet
    {
        type            calculated;
        value           uniform 0;
    }
    outlet
    {
        type            calculated;
        value           uniform 0;
    }
    roughCylinder
    {
        type            calculated;
        value           nonuniform List<scalar> 
5120
(
42.6115
50.376
56.5446
62.5537
67.6949
71.8389
75.1466
77.8126
79.9918
81.82
83.4161
84.8463
86.1488
87.3553
88.4958
89.5999
90.6975
91.8153
92.9756
94.1943
95.4798
96.8339
98.2531
99.7304
101.255
102.815
104.394
105.967
107.495
108.912
110.071
110.753
41.9181
49.4013
55.3754
61.25
66.3219
70.4326
73.7227
76.381
78.5606
80.396
81.9995
83.4322
84.725
85.9165
87.0385
88.1216
89.1957
90.289
91.424
92.6158
93.873
95.1975
96.5857
98.0304
99.5214
101.046
102.588
104.124
105.615
106.998
108.128
108.792
41.1548
48.3911
54.1813
59.9214
64.9236
69.0044
72.2836
74.9429
77.1334
78.9846
80.6006
82.0372
83.3246
84.5054
85.6113
86.6745
87.7272
88.7971
89.9066
91.072
92.3017
93.5971
94.9548
96.3674
97.8248
99.3141
100.82
102.319
103.774
105.122
106.223
106.87
40.3643
47.367
52.9737
58.5759
63.5087
67.564
70.8387
73.5071
75.7177
77.5932
79.2268
80.6708
81.9581
83.1285
84.2202
85.2664
86.2988
87.3466
88.4333
89.5738
90.7768
92.044
93.3718
94.7528
96.177
97.6316
99.101
100.564
101.982
103.297
104.37
104.999
39.5276
46.3079
51.7291
57.1899
62.0546
66.0923
69.3746
72.0652
74.3067
76.2124
77.8674
79.3232
80.6157
81.783
82.8652
83.8964
84.9115
85.9397
87.0035
88.1202
89.2981
90.5383
91.8375
93.1881
94.5803
96.0013
97.436
98.8634
100.247
101.528
102.573
103.185
38.6776
45.2373
50.4666
55.78
60.578
64.6063
67.9057
70.6254
72.9027
74.8439
76.526
77.9984
79.3001
80.4683
81.5434
82.564
83.5638
84.5736
85.6188
86.714
87.8677
89.0822
90.3535
91.6744
93.0347
94.4226
95.8223
97.2144
98.5621
99.811
100.828
101.424
37.7765
44.1211
49.1516
54.3095
59.0397
63.0666
66.3971
69.1621
71.4883
73.4716
75.1848
76.6798
77.9974
79.1766
80.2532
81.2665
82.255
83.2509
84.2768
85.3511
86.4829
87.673
88.9179
90.2104
91.5404
92.8962
94.2631
95.621
96.9354
98.1518
99.1428
99.7215
36.8594
42.9848
47.8055
52.7977
57.46
61.4972
64.8734
67.6914
70.0691
72.1004
73.8534
75.3777
76.7162
77.9067
78.9899
80.0017
80.9832
81.9662
82.9788
84.0362
85.147
86.3139
87.5333
88.7978
90.0976
91.4212
92.7537
94.0775
95.3568
96.5427
97.506
98.0697
35.8661
41.7759
46.3754
51.187
55.773
59.8239
63.26
66.1537
68.6071
70.6998
72.4992
74.0614
75.4303
76.6476
77.7456
78.7648
79.7434
80.7212
81.7198
82.7602
83.8526
84.9981
86.1933
87.4311
88.702
89.9951
91.2958
92.5862
93.8339
94.9874
95.926
96.4722
34.8398
40.5239
44.888
49.5005
54.0043
58.0838
61.6049
64.589
67.119
69.2819
71.1431
72.7532
74.1596
75.3982
76.5151
77.5447
78.5305
79.5049
80.4976
81.5273
82.6026
83.7278
84.8993
86.1105
87.3519
88.6128
89.8791
91.135
92.3468
93.4719
94.3821
94.9133
33.6655
39.1354
43.2533
47.6446
52.0446
56.1442
59.7606
62.8702
65.5279
67.7912
69.7259
71.3969
72.8525
74.142
75.2904
76.3415
77.3346
78.3144
79.301
80.3189
81.3804
82.487
83.6363
84.8217
86.0344
87.2648
88.4996
89.7217
90.903
91.9945
92.8824
93.3948
32.4103
37.6681
41.5209
45.6612
49.9384
54.0741
57.8301
61.0943
63.8742
66.2495
68.2868
70.0373
71.5575
72.8789
74.0606
75.1362
76.1519
77.1376
78.1274
79.1426
80.1918
81.2813
82.4086
83.5683
84.7515
85.949
87.1479
88.3354
89.4787
90.5437
91.4003
91.8995
30.8973
35.9553
39.5211
43.3681
47.4739
51.608
55.4963
58.9732
61.9952
64.556
66.72
68.5723
70.1677
71.5789
72.8186
73.9355
74.9698
75.9736
76.966
77.9744
79.0149
80.0893
81.1966
82.3315
83.4863
84.6533
85.8208
86.9741
88.0883
89.1171
89.9548
90.4327
29.2327
34.1049
37.3746
40.8897
44.7833
48.9289
53.0302
56.7694
59.9841
62.7386
65.0879
67.0796
68.7949
70.2515
71.5415
72.7012
73.7804
74.8028
75.8102
76.8266
77.8605
78.9215
80.0089
81.1187
82.2432
83.3755
84.5048
85.6214
86.6935
87.6986
88.5006
88.9666
27.0538
31.7617
34.692
37.7802
41.3399
45.3727
49.6037
53.7161
57.4631
60.6048
63.2002
65.3827
67.2127
68.8302
70.225
71.4567
72.5681
73.626
74.6474
75.6629
76.6944
77.7444
78.8139
79.8995
80.9952
82.0964
83.1933
84.2741
85.3199
86.2829
87.0691
87.5118
24.4726
29.0973
31.7525
34.4334
37.6261
41.6006
46.1771
50.7022
54.661
58.1664
61.1394
63.587
65.6691
67.3566
68.8254
70.1251
71.3163
72.4109
73.4634
74.5022
75.5348
76.5758
77.6271
78.6875
79.7507
80.8133
81.8678
82.9081
83.9036
84.8472
85.5909
86.0223
20.6664
25.3505
27.6203
29.601
32.0323
35.4112
39.787
45.1019
50.6188
55.0259
58.5361
61.4072
63.6702
65.6684
67.3372
68.7649
70.0069
71.1623
72.245
73.2892
74.3271
75.3619
76.3972
77.4329
78.466
79.4957
80.5155
81.5171
82.4899
83.3809
84.1135
84.5185
15.2546
20.3425
22.7745
24.5125
26.3776
29.7689
35.5149
41.0625
45.7346
51.0258
55.4638
58.8914
61.7704
63.8951
65.6802
67.2193
68.6033
69.824
70.9616
72.0529
73.1027
74.1336
75.1519
76.1611
77.1564
78.14
79.1105
80.0638
80.9716
81.8499
82.5284
82.9225
5.95089
10.5582
11.2222
11.2776
9.50783
9.22949
11.5127
24.2121
38.0933
45.2423
51.047
55.6472
58.8081
61.6183
63.8275
65.6159
67.0819
68.4078
69.6014
70.7047
71.7702
72.8008
73.8046
74.7868
75.7485
76.6959
77.626
78.536
79.4282
80.235
80.9094
81.2727
9.05248
7.35482
8.02064
8.70309
9.59293
8.71315
6.74607
12.3675
19.9207
36.9833
45.3762
51.1948
56.167
59.2125
61.6334
63.6229
65.3646
66.8072
68.0966
69.2898
70.3838
71.4178
72.4039
73.3563
74.2697
75.1558
76.0249
76.8705
77.6702
78.4761
79.0773
79.4273
11.6575
15.9726
16.8348
15.8919
14.0199
11.0495
8.36848
16.2501
22.1094
15.493
35.0514
45.3477
50.5692
55.5265
58.9599
61.5096
63.3983
65.0448
66.4414
67.653
68.7798
69.8212
70.794
71.7135
72.5851
73.4288
74.2465
75.0413
75.8406
76.5391
77.1478
77.4623
19.5951
23.9811
25.8514
26.622
26.0266
23.9433
20.203
14.1479
12.6332
22.6921
15.1762
34.0695
46.472
51.5635
55.5787
58.5361
61.0359
62.8999
64.4756
65.8692
67.055
68.1125
69.0627
69.9443
70.7467
71.4968
72.23
72.9275
73.575
74.2984
74.7987
75.0889
21.7765
26.7237
29.4248
31.4246
32.6514
32.9852
32.1723
29.6536
24.1205
20.8672
20.476
18.6618
31.6624
44.5587
50.7972
55.2733
58.0676
60.4122
62.216
63.628
64.8814
65.9603
66.8959
67.7321
68.472
69.1675
69.8305
70.4633
71.1492
71.691
72.2205
72.4749
22.5693
27.6029
30.51
32.8459
34.5809
35.703
36.1738
35.837
34.1577
29.4883
26.5773
19.9592
31.5497
33.0336
44.8687
49.9751
54.3664
57.0802
59.2508
61.0822
62.4604
63.579
64.4773
65.2535
65.8762
66.4049
66.9196
67.3846
67.7725
68.4027
68.7558
68.9317
21.9551
27.1283
30.1966
32.7631
34.7959
36.291
37.2515
37.6628
37.41
35.9637
31.6358
20.8408
26.0902
12.417
30.1511
43.6013
48.7308
52.9837
55.7153
57.5037
59.0175
60.1958
61.0599
61.7615
62.2721
62.7108
63.1568
63.5396
64.0472
64.3505
64.7758
64.946
20.5041
25.8084
28.9652
31.6584
33.867
35.5928
36.8597
37.7052
38.1535
38.1181
37.0999
33.6614
28.1784
21.3631
26.5092
32.5654
42.9004
46.8895
50.3948
53.3371
55.1615
56.4088
57.1903
57.7649
57.9976
58.102
58.1214
58.212
58.0227
58.5509
58.6724
58.4613
18.605
23.9966
27.1761
29.9132
32.2045
34.0662
35.5256
36.6357
37.4678
38.0702
38.356
37.8254
34.2851
25.9706
25.5464
10.1548
26.3824
39.1636
44.1245
46.539
48.4587
49.9262
50.6668
50.932
51.0231
51.1114
51.2541
51.8226
51.0939
51.8639
52.1291
51.4828
16.4361
21.8097
24.914
27.5948
29.8758
31.7962
33.3985
34.7372
35.891
36.9338
37.8714
38.5087
38.0665
34.8158
29.0604
9.48209
11.6837
21.1155
32.607
39.5841
42.2261
43.9188
43.9646
44.1564
43.2176
40.3884
40.4146
38.1365
38.4506
36.3134
36.2212
36.2155
14.2541
19.4739
22.4009
24.9267
27.1069
29.0027
30.6733
32.1828
33.6069
35.0257
36.4699
37.8468
38.8157
38.6655
34.8588
25.8413
21.1297
26.0619
15.6644
18.9225
22.4358
24.9705
27.9124
23.2214
21.0892
37.1425
23.7408
38.699
16.9826
36.0833
36.1281
12.4548
12.3255
17.2742
19.9504
22.2507
24.2628
26.0668
27.7334
29.3315
30.9311
32.6008
34.3876
36.2501
37.9943
39.2121
38.9575
35.9547
26.951
28.955
22.3265
23.0846
14.656
25.0942
33.1905
21.8964
24.8124
38.8662
30.3789
42.5884
25.1639
37.7478
38.4046
21.3808
10.8285
15.4359
17.8449
19.9014
21.7221
23.4006
25.0129
26.6243
28.2926
30.0699
32.0039
34.1021
36.2711
38.236
39.4678
39.3899
36.681
30.039
27.6848
32.5938
20.432
25.3669
35.6963
25.4166
31.1255
36.8328
36.2477
42.423
29.2657
32.7037
27.0229
31.0348
9.7109
14.0809
16.262
18.1126
19.7719
21.3378
22.8812
24.4539
26.0971
27.8495
29.7534
31.8471
34.127
36.4638
38.5146
39.7906
39.683
37.4707
33.452
29.5457
27.895
25.9969
26.0072
30.2232
33.4648
35.6491
36.3411
35.472
38.5474
37.4408
37.4558
41.9007
9.10799
13.2892
15.309
17.0252
18.5866
20.0828
21.5687
23.077
24.6322
26.2632
28.0099
29.9238
32.0504
34.3791
36.7527
38.807
40.0315
39.9816
38.9745
36.3265
36.899
36.3006
37.0243
39.2135
40.8355
42.044
41.4846
41.5015
41.8932
41.8678
41.8478
44.3512
8.91713
13.0095
14.9572
16.6244
18.1589
19.6352
21.0878
22.5315
23.9785
25.4516
26.9881
28.6395
30.4668
32.5196
34.784
37.0899
39.0609
40.2142
40.5036
39.738
40.1749
40.0765
40.741
41.4889
42.3956
43.0303
42.2616
42.6684
41.9395
42.3941
42.3534
44.1947
9.07093
13.1507
15.0998
16.788
18.3517
19.8474
21.2909
22.6852
24.0371
25.3661
26.7047
28.0974
29.5993
31.2745
33.1746
35.2816
37.4201
39.2122
40.3677
40.6328
41.0708
41.172
41.6421
41.9266
42.3604
42.4487
41.5496
42.0397
41.0861
41.7649
41.6121
42.9638
9.47558
13.5944
15.5943
17.3508
18.981
20.5234
21.9813
23.3507
24.6366
25.8575
27.0422
28.2269
29.4547
30.7795
32.2628
33.9503
35.8152
37.6654
39.2087
40.113
40.7782
41.0738
41.3858
41.3979
41.3695
40.9942
40.0036
40.4418
39.6001
40.3084
40.1426
41.1391
10.0819
14.2704
16.3451
18.1899
19.9013
21.5018
22.9867
24.3505
25.5999
26.7538
27.8381
28.881
29.9131
30.9723
32.108
33.3732
34.7997
36.3341
37.8061
38.9306
39.7725
40.2296
40.4628
40.2948
39.9271
39.2527
38.2623
38.593
37.9978
38.654
38.5712
39.3257
10.8389
15.1257
17.2877
19.2268
21.0196
22.6777
24.1929
25.5621
26.7958
27.9156
28.9455
29.9072
30.8201
31.7065
32.5989
33.5385
34.5659
35.6876
36.8395
37.8522
38.6714
39.1662
39.3385
39.0669
38.5098
37.7133
36.8178
37.0171
36.6992
37.3008
37.3613
37.9713
11.6573
16.1115
18.3688
20.4013
22.2709
23.9822
25.5274
26.9083
28.141
29.2502
30.2588
31.184
32.0365
32.8274
33.5735
34.3005
35.0395
35.8127
36.6089
37.3523
37.9841
38.3794
38.4609
38.1256
37.4913
36.6863
35.9133
36.0092
35.9321
36.508
36.7256
37.2615
12.6214
17.1955
19.546
21.6681
23.609
25.3693
26.944
28.3411
29.5831
30.6975
31.7069
32.6244
33.4555
34.2038
34.8759
35.484
36.0453
36.5783
37.0901
37.5553
37.9395
38.152
38.1033
37.7066
37.0461
36.2761
35.6155
35.6478
35.755
36.3316
36.6902
37.1941
13.7621
14.2175
14.7245
15.1338
15.5212
15.8268
16.0889
16.2892
16.4462
16.5527
16.6202
16.6471
16.6384
16.5955
16.5226
16.4222
16.2966
16.1504
15.992
15.842
15.7579
15.8176
15.9276
16.0369
16.1292
16.1981
16.2402
16.2544
16.2371
16.1859
16.0963
15.9712
15.8005
15.5906
15.324
15.0195
14.6409
14.2508
13.7688
13.3534
18.487
18.9588
19.4861
19.9147
20.3219
20.6514
20.9386
21.1662
21.3514
21.4878
21.5853
21.6428
21.6638
21.6483
21.5988
21.5171
21.4042
21.2633
21.1016
20.9392
20.838
20.8912
20.9971
21.0962
21.172
21.2191
21.2357
21.2215
21.174
21.0923
20.9739
20.8211
20.6248
20.3908
20.1027
19.7786
19.3839
18.9776
18.4777
18.0478
20.949
21.4467
22.0043
22.4591
22.8957
23.257
23.5802
23.8462
24.073
24.2536
24.3966
24.501
24.5692
24.5997
24.5929
24.5497
24.4701
24.3558
24.2129
24.0599
23.9564
23.9934
24.074
24.1405
24.1777
24.1814
24.1512
24.0878
23.99
23.8589
23.6937
23.4961
23.2584
22.9865
22.6637
22.3097
21.8873
21.4564
20.9272
20.473
23.1664
23.6828
24.2629
24.7372
25.1985
25.5877
25.9433
26.2453
26.5114
26.7348
26.9219
27.0717
27.1858
27.2619
27.2985
27.2948
27.2504
27.1658
27.0469
26.9117
26.8157
26.8297
26.8782
26.9083
26.9045
26.8634
26.7855
26.6723
26.5243
26.3445
26.1331
25.8915
25.6134
25.3055
24.951
24.5705
24.1249
23.6756
23.1248
22.6527
25.1702
25.6899
26.2775
26.758
27.2314
27.636
28.0118
28.3381
28.632
28.8873
29.1098
29.2966
29.4484
29.562
29.6348
29.665
29.6508
29.5928
29.4967
29.381
29.2945
29.2875
29.306
29.3036
29.2646
29.1856
29.0676
28.9131
28.7242
28.5047
28.2556
27.9797
27.6724
27.3399
26.966
26.5714
26.1153
25.6613
25.1046
24.6302
26.9583
27.4656
28.0474
28.5227
28.9969
29.4071
29.7941
30.1375
30.4539
30.736
30.9882
31.2067
31.3908
31.5367
31.6408
31.7002
31.7125
31.6778
31.6017
31.5025
31.4233
31.4006
31.3945
31.3647
31.2958
31.1847
31.0326
30.8432
30.6195
30.3665
30.0859
29.7818
29.451
29.1005
28.716
28.3171
27.8622
27.4157
26.8676
26.4077
28.5333
29.0183
29.5881
30.0534
30.5247
30.9382
31.336
31.6966
32.0344
32.3418
32.6214
32.8689
33.0823
33.2571
33.3892
33.4743
33.5097
33.4949
33.4353
33.3484
33.2733
33.24
33.2152
33.1629
33.0689
32.9299
32.7482
32.528
32.2736
31.9904
31.6814
31.3515
30.9989
30.6314
30.2363
29.8344
29.3847
28.9515
28.4196
27.986
29.9161
30.3762
30.9342
31.3914
31.8624
32.2839
32.6945
33.0733
33.4321
33.7634
34.0685
34.3426
34.5826
34.7832
34.9397
35.0473
35.1024
35.104
35.0569
34.9782
34.9052
34.8647
34.8264
34.7567
34.6418
34.4792
34.272
34.0246
33.743
33.4326
33.0975
32.7434
32.3698
31.9848
31.5776
31.1694
30.7213
30.2994
29.7841
29.3804
31.1397
31.5771
32.1273
32.5813
33.0568
33.4883
33.9126
34.309
34.6876
35.0407
35.3686
35.666
35.9291
36.1521
36.3294
36.4558
36.5269
36.5413
36.5034
36.4299
36.3574
36.3124
36.2649
36.1819
36.0504
35.8685
35.6397
35.3696
35.0641
34.7299
34.3719
33.9961
33.603
33.2011
32.7812
32.3643
31.9142
31.4976
30.9947
30.6193
32.2363
32.654
33.1999
33.6547
34.1358
34.5776
35.0147
35.4268
35.8228
36.1947
36.5421
36.8592
37.1416
37.3831
37.5776
37.7191
37.803
37.8271
37.7957
37.7249
37.6523
37.6046
37.551
37.4584
37.314
37.1167
36.8705
36.5816
36.2565
35.9024
35.5249
35.1302
34.7203
34.3033
33.8717
33.4461
32.9923
32.5778
32.0825
31.732
33.2272
33.6269
34.1699
34.6257
35.112
35.5629
36.0109
36.4364
36.8469
37.2346
37.598
37.9314
38.2296
38.4859
38.694
38.8474
38.9411
38.9728
38.9461
38.8773
38.8043
38.7548
38.6969
38.5969
38.4428
38.2337
37.9738
37.6699
37.3291
36.9588
36.5652
36.1553
35.7311
35.3013
34.8597
34.4264
33.9693
33.5564
33.0671
32.7399
34.1221
34.5026
35.0421
35.4981
35.9885
36.4469
36.904
37.3408
37.7633
38.1638
38.5403
38.8867
39.1975
39.4656
39.6844
39.8473
39.9488
39.9867
39.9644
39.898
39.8254
39.7737
39.7115
39.6056
39.4436
39.2252
38.9547
38.6391
38.2859
37.9028
37.4964
37.0739
36.6382
36.198
35.7479
35.3081
34.8487
34.4378
33.9557
33.6524
34.9221
35.2808
35.8148
36.2699
36.7634
37.2281
37.6932
38.1395
38.572
38.9832
39.3705
39.7274
40.0482
40.3256
40.553
40.7234
40.8317
40.8756
40.8585
40.7966
40.7256
40.6705
40.6027
40.4904
40.3216
40.0956
39.8167
39.4921
39.1291
38.736
38.3193
37.8866
37.4413
36.992
36.5351
36.09
35.6292
35.2212
34.7481
34.4716
35.6254
35.9581
36.4843
36.9377
37.4335
37.9041
38.3762
38.8309
39.2725
39.6928
40.0891
40.4547
40.7835
41.0687
41.3029
41.4799
41.5945
41.6445
41.6342
41.5789
41.5108
41.4509
41.3755
41.256
41.0806
40.8481
40.5626
40.2307
39.8601
39.4587
39.0336
38.5923
38.1387
37.6816
37.2184
36.7685
36.3072
35.9033
35.4421
35.1976
36.2302
36.5301
37.0456
37.4963
37.9941
38.4703
38.9496
39.4125
39.8624
40.2912
40.6955
41.0687
41.4045
41.6961
41.9364
42.1193
42.2399
42.2968
42.2945
42.2473
42.1826
42.1171
42.0329
41.9054
41.7232
41.4848
41.1935
40.8557
40.4788
40.0706
39.6382
39.1891
38.7279
38.2634
37.794
37.3396
36.8784
36.4801
36.0355
35.8299
36.7365
36.9921
37.4929
37.9392
38.4389
38.9211
39.4078
39.8793
40.3377
40.7747
41.1867
41.5668
41.9091
42.2065
42.4523
42.6408
42.7677
42.8319
42.838
42.7992
42.7379
42.6671
42.5738
42.4379
42.2489
42.0048
41.7083
41.3654
40.9829
40.5687
40.1295
39.6731
39.2042
38.7321
38.2566
37.7978
37.3378
36.9477
36.5265
36.3724
37.1492
37.3405
37.8163
38.2579
38.7587
39.2476
39.7423
40.2231
40.6903
41.136
41.5557
41.9429
42.2914
42.5945
42.8458
43.0398
43.1729
43.2444
43.2588
43.2277
43.1693
43.094
42.9922
42.8482
42.6526
42.403
42.1017
41.754
41.3665
40.9463
40.5005
40.0366
39.56
39.08
38.598
38.1354
37.6783
37.3009
36.9125
36.8295
37.4787
37.5753
38.0089
38.4397
38.9412
39.4372
39.9407
40.4315
40.9085
41.3635
41.7914
42.186
42.541
42.8499
43.1068
43.3066
43.4458
43.5243
43.5464
43.5221
43.4662
43.387
43.278
43.1266
42.9249
42.67
42.3642
42.0119
41.6192
41.1931
40.7405
40.2688
39.7841
39.2959
38.808
38.3423
37.8919
37.5328
37.1932
37.2095
37.7351
37.6972
38.063
38.4718
38.9711
39.4741
39.9872
40.4889
40.9767
41.4418
41.8789
42.2816
42.6437
42.959
43.2218
43.4273
43.5728
43.658
43.687
43.6684
43.6145
43.5323
43.4173
43.2597
43.0522
42.7926
42.4822
42.1252
41.7273
41.295
40.8353
40.3555
39.8625
39.3662
38.8732
38.407
37.9682
37.6376
37.3706
37.5202
37.92
37.7063
37.9727
38.3416
38.831
39.3422
39.8651
40.3789
40.8783
41.3544
41.8016
42.2132
42.5831
42.9054
43.1746
43.3865
43.5381
43.6297
43.6648
43.651
43.5988
43.5144
43.3948
43.2318
43.0194
42.7552
42.4403
42.0785
41.6752
41.2366
40.7695
40.2817
39.7806
39.2775
38.7815
38.319
37.8985
37.6127
37.4448
37.7564
38.0137
37.5973
37.7367
38.0456
38.5123
39.0263
39.5612
40.0877
40.5996
41.0874
41.5453
41.9664
42.3449
42.6749
42.9511
43.1693
43.3272
43.4247
43.4653
43.4555
43.4048
43.3188
43.1957
43.0284
42.8119
42.5436
42.2246
41.8583
41.4497
41.005
40.531
40.0358
39.5281
39.0202
38.5249
38.0707
37.6803
37.4583
37.4125
37.9046
37.9457
37.3406
37.3483
37.5862
38.0205
38.5298
39.0738
39.6131
40.1371
40.6365
41.1049
41.5356
41.9226
42.2602
42.5433
42.768
42.9317
43.0347
43.0798
43.0734
43.0239
42.9368
42.8114
42.6413
42.4218
42.1506
41.8284
41.4583
41.0454
40.5956
40.1164
39.616
39.1045
38.5957
38.1058
37.6667
37.3167
37.1697
37.2508
37.914
37.6554
36.9062
36.8036
36.9729
37.3714
37.87
38.4188
38.9709
39.5058
40.0154
40.4928
40.9319
41.3263
41.6706
41.9598
42.1898
42.3585
42.4657
42.5143
42.5101
42.4615
42.3741
42.2477
42.0766
41.8562
41.5838
41.2604
40.8887
40.4737
40.0216
39.54
39.0378
38.5261
38.0205
37.5391
37.1213
36.815
36.739
36.9247
37.719
37.1321
36.3003
36.129
36.2475
36.6149
37.0999
37.647
38.2056
38.7497
39.2667
39.7505
40.1948
40.5942
40.9427
41.2355
41.4689
41.6404
41.7497
41.7998
41.7964
41.7479
41.6606
41.5351
41.3656
41.1469
40.8766
40.5551
40.1852
39.7718
39.3212
38.8415
38.342
37.8345
37.3358
36.8652
36.4669
36.1928
36.162
36.4031
37.2593
36.4473
35.5865
35.3889
35.4803
35.8277
36.3
36.8422
37.4019
37.9503
38.4697
38.9552
39.4007
39.8006
40.1495
40.4424
40.6756
40.8465
40.9549
41.0034
40.9983
40.9486
40.8619
40.7394
40.5749
40.3623
40.0983
39.7832
39.4197
39.0127
38.5687
38.0956
37.6035
37.1041
36.6147
36.1545
35.7699
35.511
35.4948
35.7411
36.5975
35.7702
34.9213
34.7287
34.8105
35.1452
35.6043
36.1358
36.6881
37.2315
37.7455
38.2257
38.6659
39.0605
39.4043
39.6922
39.9203
40.0861
40.1892
40.2321
40.2215
40.168
40.0817
39.9647
39.8091
39.607
39.3541
39.0501
38.6978
38.302
37.8691
37.4072
36.9261
36.438
35.9596
35.5102
35.134
34.8772
34.8529
35.0698
35.8809
35.3233
34.4821
34.2944
34.37
34.6932
35.1374
35.6535
36.1908
36.7203
37.222
37.6905
38.1194
38.5033
38.8366
39.1146
39.3331
39.4895
39.583
39.6159
39.5955
39.535
39.4487
39.3406
39.1994
39.0136
38.7774
38.4903
38.1548
37.7758
37.3598
36.9148
36.4506
35.9789
35.5164
35.0819
34.7152
34.4557
34.4122
34.5822
35.3189
35.1854
34.3823
34.2158
34.2926
34.6056
35.0309
35.5239
36.0361
36.5405
37.0203
37.4687
37.8789
38.2453
38.5624
38.8251
39.0293
39.1721
39.2521
39.2712
39.2363
39.1637
39.0754
38.9792
38.8566
38.6908
38.4746
38.207
37.8913
37.5322
37.1365
36.7119
36.2687
35.8189
35.3799
34.9723
34.6324
34.3963
34.3727
34.5584
35.3176
35.3761
34.6225
34.4839
34.5664
34.8714
35.2783
35.7471
36.2307
36.7053
37.1588
37.583
37.971
38.3168
38.6148
38.8601
39.0484
39.1766
39.2428
39.2482
39.1987
39.1125
39.0226
38.9436
38.8447
38.7028
38.5103
38.2669
37.9761
37.643
37.2742
36.8776
36.463
36.0427
35.6334
35.2551
34.9444
34.7277
34.7065
34.8606
35.5523
35.74
35.1017
35.0316
35.1401
35.4458
35.8351
36.2758
36.7263
37.169
37.5925
37.9888
38.351
38.673
38.9492
39.1749
39.3457
39.4584
39.5109
39.5035
39.441
39.3415
39.2479
39.185
39.1067
38.9849
38.8127
38.5904
38.3217
38.0116
37.6665
37.2942
36.9039
36.5076
36.1219
35.7658
35.4757
35.2773
35.2711
35.4328
36.1314
36.2534
35.6205
35.5599
35.6781
35.9863
36.3714
36.8019
37.2378
37.6659
38.0746
38.4562
38.8039
39.1118
39.3748
39.5883
39.7482
39.8513
39.8955
39.8812
39.8124
39.7072
39.6147
39.5653
39.5017
39.3948
39.2379
39.0321
38.7809
38.4891
38.1628
37.8094
37.4378
37.059
36.6884
36.3439
36.0595
35.8575
35.8352
35.9592
36.5954
36.7222
36.1238
36.0817
36.2006
36.5005
36.8703
37.2821
37.6978
38.1071
38.498
38.863
39.1953
39.4888
39.7387
39.9403
40.0895
40.1832
40.2194
40.1983
40.124
40.0145
39.921
39.8761
39.8182
39.718
39.5688
39.3717
39.1302
38.849
38.534
38.1923
37.8328
37.466
37.1075
36.7743
36.5008
36.3084
36.2957
36.4295
37.0811
42.7287
50.5007
56.6756
62.6881
67.8307
71.9749
75.2823
77.9475
80.1252
81.9523
83.5484
84.9787
86.2816
87.4887
88.6299
89.735
90.8337
91.9528
93.1144
94.3346
95.6216
96.9773
98.3984
99.8776
101.405
102.967
104.548
106.123
107.655
109.071
110.237
110.915
42.0569
49.5441
55.5226
61.3985
66.4692
70.5777
73.8654
76.5212
78.6988
80.5329
82.1363
83.5687
84.8618
86.0539
87.1766
88.2606
89.3357
90.43
91.5663
92.7595
94.0183
95.3445
96.7346
98.1814
99.6748
101.202
102.746
104.284
105.78
107.161
108.298
108.958
41.2846
48.5292
54.3266
60.0701
65.0734
69.1539
72.4322
75.0902
77.2787
79.1284
80.7436
82.1798
83.4667
84.6474
85.7536
86.8173
87.871
88.942
90.0527
91.2195
92.4507
93.7478
95.1073
96.5221
97.9819
99.4735
100.982
102.484
103.943
105.29
106.398
107.041
40.5217
47.5292
53.1413
58.7449
63.6755
67.7268
70.9971
73.6615
75.8691
77.7427
79.3754
80.8184
82.1049
83.2753
84.3672
85.414
86.447
87.4955
88.5834
89.7252
90.9296
92.1985
93.5283
94.9115
96.3381
97.7955
99.268
100.733
102.156
103.469
104.55
105.174
39.6747
46.4645
51.8938
57.3582
62.2232
66.2596
69.5405
72.2294
74.4684
76.3715
78.0245
79.4786
80.7697
81.9355
83.0173
84.0482
85.0637
86.0928
87.1575
88.2755
89.4547
90.6967
91.9978
93.3506
94.745
96.1686
97.6068
99.0363
100.425
101.704
102.757
103.364
38.8593
45.426
50.6627
55.9782
60.773
64.7946
68.0863
70.7991
73.0715
75.0094
76.6892
78.1598
79.4597
80.6267
81.7008
82.7213
83.7211
84.7312
85.7773
86.8734
88.0285
89.2446
90.5181
91.8413
93.2046
94.5953
95.9984
97.392
98.7461
99.9914
101.019
101.608
37.9479
44.3037
49.3436
54.5055
59.2347
63.2585
66.5864
69.3491
71.6721
73.6513
75.3606
76.8521
78.1665
79.3422
80.4169
81.4289
82.4169
83.4131
84.4394
85.5149
86.6479
87.8395
89.0865
90.3813
91.7141
93.0725
94.4431
95.8034
97.1232
98.3368
99.3375
99.9104
37.0757
43.2115
48.0434
53.04
57.6982
61.7249
65.0879
67.8934
70.2617
72.2867
74.0352
75.5562
76.8917
78.0803
79.1604
80.1708
81.1513
82.1337
83.1468
84.2046
85.3166
86.4852
87.7067
88.9737
90.2768
91.6034
92.94
94.2651
95.5515
96.7328
97.7087
98.2633
36.0728
41.9961
46.6071
51.423
56.0059
60.0504
63.4814
66.3716
68.8205
70.9074
72.7009
74.2568
75.6199
76.8298
77.924
78.9404
79.9174
80.8944
81.8924
82.9337
84.0272
85.1741
86.3713
87.6116
88.8856
90.181
91.4863
92.7793
94.033
95.1837
96.1334
96.6718
35.1077
40.8075
45.1893
49.8117
54.3123
58.3766
61.875
64.8359
67.3476
69.4977
71.3495
72.9533
74.3543
75.5917
76.7036
77.7299
78.7127
79.6847
80.6773
81.7067
82.7827
83.9094
85.0833
86.2972
87.5423
88.8068
90.0779
91.3354
92.5558
93.6737
94.6
95.1187
33.9277
39.4128
43.5444
47.9404
52.334
56.4216
60.0277
63.1307
65.782
68.0369
69.9635
71.625
73.0718
74.3467
75.488
76.5344
77.5248
78.5022
79.4868
80.505
81.5673
82.6751
83.8263
85.0144
86.2307
87.4635
88.7034
89.9292
91.1172
92.2053
93.1055
93.6088
32.7636
38.042
41.9233
46.0849
50.365
54.4809
58.1989
61.4198
64.1629
66.5116
68.5284
70.266
71.7751
73.0979
74.2738
75.3436
76.3531
77.3339
78.323
79.3366
80.3858
81.4766
82.6066
83.769
84.9568
86.1583
87.3625
88.5516
89.7053
90.7592
91.6385
92.1202
31.251
36.3226
39.9049
43.7579
47.8529
51.9659
55.8355
59.2984
62.3081
64.8554
67.0088
68.847
70.4321
71.8161
73.0414
74.1504
75.1808
76.1809
77.169
78.1768
79.2175
80.2929
81.4022
82.54
83.699
84.8684
86.0413
87.1993
88.3209
89.3465
90.1976
90.6643
29.7374
34.6342
37.9495
41.5104
45.4268
49.5525
53.5875
57.2446
60.3838
63.0816
65.3853
67.3501
69.0387
70.5025
71.7884
72.9397
74.0075
75.0208
76.0265
77.0396
78.0724
79.1345
80.2249
81.3377
82.4681
83.605
84.7403
85.8584
86.9436
87.9307
88.7645
89.2066
27.5721
32.2806
35.2271
38.3243
41.8695
45.8723
50.0815
54.1617
57.8782
60.9899
63.5694
65.7265
67.5508
69.1176
70.4831
71.6997
72.8058
73.8596
74.8732
75.8867
76.9176
77.9683
79.0399
80.1285
81.2297
82.3331
83.4361
84.523
85.5762
86.5376
87.3391
87.7663
25.3317
29.9779
32.7039
35.4791
38.7486
42.705
47.127
51.4899
55.2868
58.6679
61.5329
63.9277
65.9404
67.6472
69.1188
70.4087
71.5805
72.6582
73.7075
74.7405
75.7704
76.8122
77.8673
78.931
80.0019
81.0703
82.1314
83.1734
84.1856
85.1
85.889
86.2877
21.5334
26.1137
28.3756
30.3644
32.792
36.219
40.7053
45.8716
51.2795
55.5855
59.0642
61.865
64.1449
66.0427
67.6486
69.0451
70.279
71.4317
72.501
73.5413
74.5776
75.6128
76.6508
77.6893
78.7301
79.7617
80.7882
81.7977
82.7773
83.6714
84.4195
84.8035
17.3968
22.5872
25.0375
27.0193
29.2153
32.3023
37.2961
42.782
46.8951
51.879
56.029
59.3724
62.0596
64.2324
66.0405
67.5721
68.924
70.1123
71.2441
72.3253
73.3701
74.4018
75.4257
76.4389
77.4443
78.4357
79.4125
80.3691
81.2987
82.1291
82.875
83.2228
5.28242
12.7516
14.7991
14.4465
13.6607
15.1789
18.7176
23.0726
39.3953
46.2926
52.0264
56.333
59.5956
62.1711
64.2325
65.949
67.3992
68.7274
69.8986
70.9953
72.0579
73.0888
74.0967
75.0801
76.0542
77.0029
77.9399
78.8608
79.757
80.5779
81.2657
81.5994
7.81071
9.59931
12.4852
14.1623
17.2111
18.323
18.8585
21.0238
22.9863
39.1057
46.3235
52.0562
56.3994
59.5964
62.096
64.0924
65.7799
67.1571
68.4353
69.6106
70.6957
71.7307
72.727
73.6848
74.6107
75.5096
76.3825
77.2364
78.0653
78.79
79.4949
79.7791
8.62106
13.1019
14.0103
14.2977
12.9583
18.5603
17.3024
22.6167
23.7535
19.6974
37.9033
46.5708
52.3003
56.5184
59.5727
61.9332
63.7786
65.4393
66.7974
67.9988
69.1208
70.1635
71.1439
72.0586
72.9539
73.7975
74.62
75.4319
76.2265
76.966
77.578
77.851
18.8635
23.0583
24.4981
24.546
23.3301
20.9585
18.7938
14.362
19.0613
14.6184
17.134
36.7033
46.1166
51.9762
56.185
59.223
61.6313
63.3549
64.9062
66.2638
67.4334
68.4931
69.4652
70.3563
71.1714
71.9463
72.677
73.3939
74.0869
74.6598
75.3348
75.5269
21.441
26.3169
28.8672
30.5904
31.3543
30.9564
29.1416
25.5112
20.0803
24.4706
15.5825
16.5668
37.4593
46.5304
52.0597
55.9119
58.5481
60.9283
62.6597
64.0609
65.3061
66.3895
67.3443
68.1553
68.9475
69.6422
70.2953
70.9613
71.6173
72.2671
72.7679
72.9686
22.4597
27.4659
30.3053
32.5255
34.0837
34.9353
34.9711
33.8934
30.8848
25.0558
27.0668
15.435
7.021
34.869
45.0635
51.0374
55.3355
57.7405
59.861
61.6015
62.9468
64.0737
65.0249
65.8269
66.4533
67.0341
67.5393
68.04
68.5209
68.8365
69.5246
69.5482
22.1873
27.3243
30.3438
32.8273
34.7369
36.0613
36.7924
36.8949
36.2161
34.1222
29.7913
23.3987
12.6919
17.7449
37.6187
45.2353
49.4806
53.7276
56.2722
58.0847
59.5929
60.7774
61.7101
62.3172
62.9507
63.3992
63.7565
64.2021
64.6453
65.1902
65.5049
65.6676
20.8894
26.1657
29.2958
31.9418
34.0768
35.6997
36.8281
37.4853
37.6702
37.2559
35.6116
31.1692
30.3573
7.35031
6.03202
33.986
44.2332
47.9073
51.4665
54.0986
55.8145
57.1105
58.0247
58.7233
58.9338
59.1319
59.1739
59.2593
59.3108
59.1728
60.0159
59.5544
19.0428
24.4235
27.5948
30.3077
32.5534
34.3461
35.7153
36.7155
37.4152
37.849
37.8977
37.0538
33.4453
24.5029
26.2317
11.8275
30.716
40.4438
44.5486
47.2579
49.4105
50.8013
51.7419
51.725
52.1933
52.0244
52.0007
51.827
52.1379
52.1401
52.7306
53.5596
16.8551
22.249
25.3708
28.0551
30.3194
32.2005
33.7412
35.0005
36.0622
37.0057
37.8385
38.3584
37.6507
34.1921
30.3595
21.7734
33.4929
27.5182
34.547
40.8028
42.8426
44.4825
45.2109
46.5978
45.2668
44.5161
42.8985
42.5278
40.7902
41.327
40.1283
37.3822
14.5854
19.8532
22.8186
25.37
27.5568
29.4388
31.0753
32.5318
33.887
35.2212
36.566
37.8351
38.6693
38.4223
34.4159
25.201
28.2954
30.8735
24.8827
18.546
24.8475
28.7017
29.1357
25.8373
29.2197
21.3623
24.5278
16.7214
21.7871
9.78598
40.6562
32.5359
12.5216
17.5282
20.2527
22.593
24.6311
26.4456
28.1063
29.6809
31.2374
32.8454
34.5514
36.3194
37.968
39.1133
38.3406
35.045
25.248
26.9364
33.6243
19.5492
27.8671
30.0145
24.7602
27.892
34.2273
23.2645
31.3571
19.9692
31.4352
22.5212
41.0469
37.2455
10.9151
15.5642
18.0166
20.1155
21.9724
23.6788
25.3075
26.9187
28.5652
30.2967
32.1643
34.1845
36.2786
38.1949
39.2927
39.1093
35.204
28.8361
29.022
26.0142
29.2104
19.971
37.3837
29.4747
33.2949
28.5356
35.9926
33.8578
36.9397
35.2049
37.9279
32.9246
9.71942
14.1138
16.3298
18.2201
19.9191
21.5214
23.0924
24.677
26.3109
28.0291
29.8761
31.8987
34.1113
36.4046
38.3983
39.6335
39.1381
37.0544
33.7593
29.6179
27.495
24.9884
31.7474
23.9003
26.9074
34.5466
33.7533
36.3415
36.696
36.1226
35.8335
37.7002
9.08302
13.2731
15.3194
17.0721
18.6732
20.2067
21.7201
23.24
24.7876
26.3901
28.0879
29.937
31.9946
34.2706
36.6123
38.6499
39.7128
39.7752
39.0509
37.3465
37.0636
36.5003
36.839
35.3007
38.6209
41.4432
41.1708
41.9883
42.275
40.0432
42.454
42.932
8.90165
12.9965
14.9669
16.6691
18.2414
19.7495
21.2208
22.6667
24.0996
25.5432
27.0352
28.6277
30.3855
32.3711
34.5844
36.8695
38.7857
40.0019
40.4974
40.2344
40.5731
40.4251
40.8306
39.9062
41.7384
42.5377
42.7539
42.8001
43.0623
40.926
43.4967
43.8803
9.10129
13.1859
15.158
16.8803
18.4779
19.9965
21.4471
22.8321
24.1613
25.4568
26.7521
28.0905
29.5266
31.128
32.9558
35.0113
37.1121
38.9573
40.282
40.8982
41.4782
41.5148
41.7834
41.3685
42.1866
42.2717
42.5747
42.4101
42.4672