/*--------------------------------*- C++ -*----------------------------------*\
  =========                 |
  \\      /  F ield         | OpenFOAM: The Open Source CFD Toolbox
   \\    /   O peration     | Website:  https://openfoam.org
    \\  /    A nd           | Version:  6
     \\/     M anipulation  |
\*---------------------------------------------------------------------------*/
FoamFile
{
    version     2.0;
    format      ascii;
    class       volScalarField;
    location    "1.2";
    object      omega;
}
// * * * * * * * * * * * * * * * * * * * * * * * * * * * * * * * * * * * * * //

dimensions      [0 0 -1 0 0 0 0];

internalField   nonuniform List<scalar> 
380496
(
843.917
843.917
843.917
843.917
843.917
843.917
843.917
843.917
843.917
843.917
843.917
843.917
843.917
843.917
843.917
843.917
843.917
843.917
843.917
843.917
843.917
843.917
843.917
843.917
843.917
843.917
843.917
843.917
843.917
843.917
843.917
843.917
843.917
843.917
843.917
843.917
843.917
843.917
843.917
843.917
843.917
843.917
843.917
843.917
843.917
843.917
843.917
843.917
843.917
843.917
843.917
843.917
843.917
843.917
843.917
843.917
843.917
843.917
843.917
843.917
843.917
843.917
843.917
843.917
843.917
843.917
843.917
843.917
843.917
843.917
843.917
843.917
843.917
843.917
843.917
843.917
843.917
843.917
843.917
843.917
843.917
843.917
843.917
843.917
843.917
843.917
843.917
843.917
843.917
843.917
843.917
843.917
843.917
843.917
843.917
843.917
843.917
843.917
843.917
843.917
843.917
843.917
843.917
843.917
843.917
843.917
843.917
843.917
843.917
843.917
843.917
843.917
843.917
843.917
843.917
843.917
843.917
843.917
843.917
843.917
843.917
843.917
843.917
843.917
843.917
843.917
843.917
843.917
843.917
843.917
843.917
843.917
843.917
843.917
843.917
843.917
843.917
843.917
843.917
843.917
843.917
843.917
843.917
843.917
843.917
843.917
843.917
843.917
843.917
843.917
843.917
843.917
843.917
843.917
843.917
843.917
843.917
843.917
843.917
843.917
843.917
843.917
843.917
843.917
843.917
843.917
843.917
843.917
843.917
843.917
843.917
843.917
843.917
843.917
843.917
843.917
843.917
843.917
843.917
843.917
843.917
843.917
843.917
843.917
843.917
843.917
843.917
843.917
843.917
843.917
843.917
843.917
843.917
843.917
843.917
843.917
843.917
843.917
843.917
843.917
843.917
843.917
843.917
843.917
843.917
843.917
843.917
843.917
843.917
843.917
843.917
843.917
843.917
843.917
843.917
843.917
843.917
843.917
843.917
843.917
843.917
843.917
843.917
843.917
843.917
843.917
843.917
843.917
843.917
843.917
843.917
843.917
843.917
843.917
843.917
843.917
843.917
843.917
843.917
843.917
843.917
843.917
843.917
843.917
843.917
843.917
843.917
843.917
843.917
843.917
843.917
843.917
843.917
843.917
843.917
843.917
843.917
843.917
843.917
843.917
843.917
843.917
843.917
843.917
843.917
843.917
843.917
843.917
843.917
843.917
843.917
843.917
843.917
843.917
843.917
843.917
843.917
843.917
843.917
843.917
843.917
843.917
843.917
843.917
843.917
843.917
843.917
843.917
843.917
843.917
843.917
843.917
843.917
843.917
843.917
843.917
843.917
843.917
843.917
843.917
843.917
843.917
843.917
843.917
843.917
843.917
843.917
843.917
843.917
843.917
843.917
843.917
843.917
843.917
843.917
843.917
843.917
843.917
843.917
843.917
843.917
843.917
843.917
843.917
843.917
843.917
843.917
843.917
843.917
843.917
843.917
843.917
843.917
843.917
843.917
843.917
843.917
843.917
843.917
843.917
843.917
843.917
843.917
843.917
843.917
843.917
843.917
843.917
843.917
843.917
843.917
843.917
843.917
843.917
843.917
843.917
843.917
843.917
843.917
843.917
843.917
843.917
843.917
843.917
843.917
843.917
843.917
843.917
843.917
843.917
843.917
843.917
843.917
843.917
843.917
843.917
843.917
843.917
843.917
843.917
843.917
843.917
843.917
843.917
843.917
843.917
843.917
843.917
843.917
843.917
843.917
843.917
843.917
843.917
843.917
843.917
843.917
843.917
843.917
843.917
843.917
843.917
843.917
843.917
843.917
843.917
843.917
843.917
843.917
843.917
843.917
843.917
843.917
843.917
843.917
843.917
843.917
843.917
843.917
843.917
843.917
843.917
843.917
843.917
843.917
843.917
843.917
843.917
843.917
843.917
843.917
843.917
843.917
843.917
843.917
843.917
843.917
843.917
843.917
843.917
843.917
843.917
843.917
843.917
843.917
843.917
843.917
843.917
843.917
843.917
843.917
843.917
843.917
843.917
843.917
843.917
843.917
843.917
843.917
843.917
843.917
843.917
843.917
843.917
843.917
843.917
843.917
843.917
843.917
843.917
843.917
843.917
843.917
843.917
843.917
843.917
843.917
843.917
843.917
843.917
843.917
843.917
843.917
843.917
843.917
843.917
843.917
843.917
843.917
843.917
843.917
843.917
843.917
843.917
843.917
843.917
843.917
843.917
843.917
843.917
843.917
843.917
843.917
843.917
843.917
843.917
843.917
843.917
843.917
843.917
843.917
843.917
843.917
843.917
843.917
843.917
843.917
843.917
843.917
843.917
843.917
843.917
843.917
843.917
843.917
843.917
843.917
843.917
843.917
843.917
843.917
843.917
843.917
843.917
843.917
843.917
843.917
843.917
843.917
843.917
843.917
843.917
843.917
843.917
843.917
843.917
843.917
843.917
843.917
843.917
843.917
843.917
843.917
843.917
843.917
843.917
843.917
843.917
843.917
843.917
843.917
843.917
843.917
843.917
843.917
843.917
843.917
843.917
843.917
843.917
843.917
843.917
843.917
843.917
843.917
843.917
843.917
843.917
843.917
843.917
843.917
843.917
843.917
843.917
843.917
843.917
843.917
843.917
843.917
843.917
843.917
843.917
843.917
843.917
843.917
843.917
843.917
843.917
843.917
843.917
843.917
843.917
843.917
843.917
843.917
843.917
843.917
843.917
843.917
843.917
843.917
843.917
843.917
843.917
843.917
843.917
843.917
843.917
843.917
843.917
843.917
843.917
843.917
843.917
843.917
843.917
843.917
843.917
843.917
843.917
843.917
843.917
843.917
843.917
843.917
843.917
843.917
843.917
843.917
843.917
843.917
843.917
843.917
843.917
843.917
843.917
843.917
843.917
843.917
843.917
843.917
843.917
843.917
843.917
843.917
843.917
843.917
843.917
843.917
843.917
843.917
843.917
843.917
843.917
843.917
843.917
843.917
843.917
843.917
843.917
843.917
843.917
843.917
843.917
843.917
843.917
843.917
843.917
843.917
843.917
843.917
843.917
843.917
843.917
843.917
843.917
843.917
843.917
843.917
843.917
843.917
843.917
843.917
843.917
843.917
843.917
843.917
843.917
843.917
843.917
423.923
423.923
423.923
423.923
423.923
423.923
423.923
423.923
423.923
423.923
423.923
423.923
423.923
423.923
423.923
423.923
423.923
423.923
423.923
423.923
423.923
423.923
423.923
423.923
423.923
423.923
423.923
423.923
423.923
423.923
423.923
423.923
423.923
423.923
423.923
281.531
267.63
269.232
270.608
270.708
270.392
270.119
269.865
269.806
269.784
269.739
269.838
270.037
270.16
270.156
270.086
270.017
269.978
269.969
269.982
269.999
270.024
270.041
270.065
270.087
270.113
270.144
270.18
270.222
270.268
270.32
270.37
270.411
270.486
270.512
281.376
267.607
269.053
270.267
270.295
270.022
269.829
269.692
269.67
269.673
269.672
269.76
269.906
270.004
270.017
269.978
269.928
269.893
269.876
269.88
269.895
269.926
269.952
269.993
270.019
270.073
270.081
270.17
270.154
270.273
270.255
270.377
270.337
270.525
270.37
281.04
267.466
269.037
270.344
270.362
269.929
269.51
269.181
269.071
269.057
269.073
269.183
269.335
269.427
269.444
269.43
269.427
269.449
269.487
269.532
269.57
269.61
269.64
269.682
269.722
269.78
269.823
269.918
269.952
270.081
270.11
270.253
270.267
270.461
270.378
280.482
267.096
268.639
269.785
269.716
269.31
269.007
268.765
268.761
268.796
268.812
268.967
269.196
269.337
269.356
269.315
269.275
269.263
269.277
269.312
269.353
269.406
269.451
269.506
269.56
269.616
269.679
269.752
269.814
269.911
269.972
270.07
270.131
270.253
270.261
280.066
266.842
268.189
269.193
269.108
268.797
268.604
268.509
268.548
268.628
268.708
268.843
269.004
269.118
269.162
269.16
269.143
269.133
269.141
269.172
269.219
269.287
269.352
269.427
269.502
269.569
269.653
269.728
269.808
269.91
269.975
270.102
270.134
270.348
270.242
279.265
266.293
267.72
268.681
268.491
268.02
267.686
267.453
267.478
267.548
267.611
267.795
268.028
268.172
268.21
268.2
268.192
268.208
268.249
268.31
268.379
268.461
268.535
268.622
268.701
268.8
268.876
269.01
269.074
269.234
269.301
269.465
269.509
269.745
269.637
278.42
265.635
266.929
267.786
267.582
267.154
266.887
266.759
266.875
267.032
267.167
267.38
267.613
267.756
267.801
267.802
267.805
267.829
267.874
267.937
268.007
268.091
268.169
268.262
268.345
268.453
268.526
268.674
268.725
268.903
268.957
269.14
269.172
269.451
269.308
277.376
264.856
266.081
266.799
266.43
265.817
265.398
265.177
265.274
265.43
265.582
265.819
266.067
266.221
266.281
266.305
266.336
266.389
266.46
266.546
266.633
266.73
266.818
266.921
267.021
267.133
267.242
267.38
267.488
267.65
267.752
267.937
267.995
268.267
268.152
276.11
263.784
264.871
265.48
265.121
264.602
264.332
264.273
264.527
264.79
265.002
265.28
265.551
265.705
265.755
265.769
265.795
265.847
265.919
266.007
266.1
266.203
266.299
266.409
266.514
266.631
266.744
266.88
266.994
267.147
267.258
267.44
267.498
267.807
267.655
274.887
262.788
263.686
264.079
263.493
262.765
262.347
262.245
262.489
262.766
263.008
263.286
263.539
263.694
263.772
263.829
263.898
263.984
264.079
264.178
264.274
264.379
264.477
264.595
264.711
264.843
264.97
265.135
265.249
265.448
265.553
265.766
265.841
266.133
266.004
273.202
261.281
262.024
262.294
261.729
261.145
260.964
261.093
261.557
261.947
262.232
262.559
262.846
262.997
263.049
263.08
263.134
263.214
263.31
263.415
263.52
263.634
263.741
263.866
263.987
264.122
264.25
264.41
264.53
264.712
264.832
265.027
265.114
265.429
265.28
271.596
259.891
260.3
260.261
259.411
258.619
258.337
258.491
258.964
259.38
259.695
259.999
260.248
260.4
260.491
260.578
260.684
260.799
260.91
261.013
261.11
261.217
261.324
261.456
261.588
261.736
261.884
262.062
262.195
262.408
262.527
262.76
262.838
263.157
263.015
269.306
257.768
257.915
257.699
256.922
256.431
256.578
257.09
257.845
258.364
258.7
259.043
259.321
259.463
259.519
259.568
259.644
259.743
259.853
259.968
260.083
260.208
260.331
260.473
260.61
260.761
260.908
261.08
261.216
261.413
261.546
261.752
261.858
262.173
262.042
267.05
255.702
255.346
254.716
253.642
253.043
253.222
253.841
254.635
255.171
255.509
255.815
256.057
256.205
256.304
256.412
256.538
256.665
256.778
256.88
256.981
257.099
257.223
257.375
257.525
257.692
257.859
258.048
258.199
258.424
258.557
258.804
258.893
259.221
259.088
263.997
252.764
251.875
251.008
250.177
250.201
251.095
252.218
253.29
253.884
254.206
254.519
254.776
254.918
254.985
255.038
255.109
255.204
255.319
255.449
255.588
255.739
255.886
256.051
256.205
256.372
256.538
256.719
256.872
257.081
257.227
257.445
257.566
257.877
257.773
260.549
249.488
247.885
246.509
245.519
245.703
246.846
248.155
249.277
249.831
250.113
250.393
250.625
250.772
250.882
250.995
251.111
251.219
251.321
251.431
251.557
251.708
251.864
252.045
252.216
252.401
252.587
252.784
252.958
253.187
253.34
253.594
253.696
254.037
253.92
256.466
245.329
242.655
241.1
240.836
242.214
244.349
246.17
247.418
247.952
248.159
248.389
248.638
248.814
248.889
248.898
248.908
248.976
249.113
249.3
249.502
249.703
249.887
250.077
250.249
250.433
250.619
250.808
250.991
251.199
251.379
251.597
251.73
252.068
251.905
250.268
239.745
236.373
234.319
233.933
235.306
237.376
239.077
240.223
240.632
240.802
241.015
241.234
241.447
241.653
241.812
241.897
241.938
241.995
242.104
242.268
242.467
242.672
242.89
243.093
243.31
243.526
243.748
243.955
244.214
244.386
244.676
244.789
245.2
245.011
241.532
232.178
226.884
223.041
221.637
223.088
225.352
226.961
227.741
227.974
227.988
228.064
228.374
228.894
229.436
229.741
229.726
229.535
229.371
229.35
229.468
229.668
229.894
230.135
230.357
230.598
230.837
231.073
231.318
231.574
231.794
232.055
232.243
232.588
232.657
220.204
218.059
211.963
210.299
213.439
217.921
221.124
222.593
223.083
223.138
223.131
223.203
223.38
223.601
223.742
223.796
223.853
223.981
224.179
224.409
224.644
224.872
225.093
225.322
225.538
225.775
226.008
226.241
226.487
226.72
226.944
227.14
227.395
227.595
228.289
9.77465
10.0104
10.4745
10.4527
10.3109
10.2811
10.3102
10.3969
10.3122
10.5113
10.362
10.1599
10.1774
10.3085
10.4165
10.4663
10.4782
10.4772
10.4753
10.4752
10.4761
10.4784
10.4778
10.4856
10.4764
10.4938
10.4852
10.4845
10.4996
10.488
10.4952
10.4426
10.5079
10.4216
10.5611
135.21
128.878
128.742
129.436
129.703
129.631
129.448
129.261
129.158
129.109
129.077
129.106
129.192
129.271
129.296
129.275
129.237
129.206
129.192
129.192
129.202
129.214
129.228
129.241
129.255
129.271
129.289
129.311
129.336
129.367
129.398
129.435
129.467
129.516
129.554
135.041
128.674
128.468
129.091
129.333
129.294
129.178
129.063
128.998
128.967
128.955
128.985
129.052
129.113
129.137
129.126
129.097
129.07
129.054
129.052
129.062
129.08
129.104
129.126
129.156
129.176
129.212
129.229
129.278
129.293
129.354
129.37
129.426
129.481
129.484
134.756
128.398
128.252
128.945
129.183
129.035
128.754
128.495
128.352
128.299
128.291
128.335
128.411
128.475
128.502
128.504
128.503
128.51
128.527
128.547
128.567
128.584
128.6
128.615
128.638
128.659
128.694
128.72
128.77
128.801
128.862
128.896
128.954
129.017
129.035
134.327
127.996
127.833
128.462
128.662
128.536
128.324
128.133
128.056
128.041
128.045
128.111
128.23
128.331
128.372
128.364
128.339
128.319
128.315
128.326
128.347
128.372
128.4
128.428
128.457
128.487
128.521
128.555
128.597
128.638
128.683
128.73
128.764
128.839
128.835
134.009
127.656
127.398
127.95
128.148
128.091
127.972
127.874
127.842
127.856
127.892
127.96
128.051
128.128
128.168
128.171
128.154
128.136
128.13
128.141
128.168
128.206
128.249
128.293
128.337
128.381
128.426
128.47
128.521
128.568
128.627
128.676
128.731
128.817
128.828
133.457
127.17
126.987
127.556
127.695
127.519
127.275
127.071
126.999
126.995
127.018
127.103
127.231
127.336
127.384
127.388
127.376
127.369
127.376
127.398
127.431
127.469
127.51
127.549
127.594
127.634
127.685
127.727
127.787
127.835
127.901
127.953
128.001
128.088
128.069
132.887
126.601
126.351
126.868
126.998
126.842
126.631
126.48
126.463
126.516
126.588
126.703
126.841
126.947
126.994
126.999
126.991
126.987
126.999
127.024
127.06
127.1
127.145
127.188
127.237
127.28
127.336
127.38
127.445
127.491
127.562
127.616
127.673
127.775
127.768
132.213
126.016
125.807
126.294
126.324
126.024
125.68
125.438
125.384
125.426
125.499
125.623
125.769
125.88
125.937
125.957
125.966
125.98
126.004
126.038
126.078
126.12
126.162
126.204
126.25
126.296
126.35
126.401
126.464
126.521
126.587
126.648
126.694
126.793
126.758
131.422
125.242
124.959
125.375
125.389
125.121
124.843
124.687
124.728
124.844
124.967
125.127
125.297
125.417
125.468
125.476
125.474
125.482
125.506
125.543
125.587
125.634
125.683
125.731
125.782
125.833
125.889
125.943
126.006
126.065
126.133
126.196
126.251
126.362
126.349
130.661
124.603
124.334
124.682
124.555
124.118
123.708
123.489
123.51
123.629
123.763
123.921
124.075
124.185
124.246
124.281
124.311
124.346
124.386
124.427
124.468
124.508
124.55
124.594
124.644
124.695
124.755
124.811
124.881
124.942
125.014
125.082
125.126
125.237
125.19
129.665
123.643
123.288
123.535
123.36
122.946
122.63
122.539
122.694
122.901
123.083
123.281
123.468
123.589
123.639
123.652
123.663
123.686
123.723
123.767
123.814
123.862
123.911
123.962
124.016
124.07
124.132
124.19
124.257
124.322
124.39
124.462
124.512
124.636
124.611
128.701
122.852
122.471
122.591
122.218
121.619
121.195
121.086
121.249
121.476
121.673
121.855
122.009
122.112
122.175
122.225
122.278
122.333
122.384
122.426
122.463
122.499
122.539
122.585
122.639
122.695
122.761
122.822
122.896
122.963
123.038
123.11
123.156
123.272
123.218
127.402
121.629
121.106
121.04
120.574
120.035
119.803
119.914
120.267
120.593
120.827
121.043
121.23
121.344
121.393
121.413
121.436
121.469
121.512
121.559
121.607
121.656
121.708
121.763
121.822
121.883
121.949
122.012
122.083
122.153
122.222
122.3
122.346
122.479
122.445
126.094
120.567
119.95
119.664
118.952
118.264
118.01
118.178
118.578
118.927
119.165
119.355
119.505
119.602
119.665
119.724
119.789
119.852
119.904
119.942
119.975
120.012
120.056
120.11
120.171
120.235
120.306
120.374
120.452
120.524
120.601
120.678
120.725
120.847
120.79
124.402
119.03
118.116
117.49
116.652
116.146
116.264
116.779
117.403
117.836
118.085
118.285
118.458
118.573
118.628
118.651
118.668
118.695
118.733
118.781
118.837
118.897
118.959
119.025
119.092
119.159
119.231
119.299
119.374
119.448
119.52
119.602
119.647
119.786
119.747
122.467
117.455
116.332
115.348
114.264
113.753
114.009
114.67
115.373
115.806
116.031
116.198
116.332
116.423
116.49
116.554
116.614
116.664
116.702
116.737
116.778
116.83
116.891
116.959
117.031
117.103
117.18
117.254
117.336
117.413
117.495
117.574
117.626
117.753
117.698
120.199
115.474
113.69
112.125
110.984
110.936
111.801
112.88
113.753
114.217
114.405
114.54
114.697
114.837
114.911
114.915
114.89
114.882
114.917
114.988
115.077
115.167
115.252
115.331
115.407
115.483
115.56
115.638
115.717
115.8
115.877
115.962
116.011
116.158
116.092
116.651
112.674
110.494
108.301
106.855
106.812
107.672
108.722
109.557
109.967
110.13
110.228
110.325
110.454
110.607
110.733
110.79
110.784
110.763
110.768
110.813
110.888
110.976
111.068
111.157
111.246
111.338
111.426
111.526
111.614
111.713
111.797
111.868
112.022
111.968
111.352
108.805
105.81
102.281
99.7638
99.5796
100.831
102.102
102.851
103.173
103.202
103.098
103.124
103.412
103.865
104.218
104.304
104.175
103.995
103.889
103.887
103.957
104.057
104.166
104.268
104.373
104.478
104.58
104.691
104.801
104.906
105.001
105.081
105.212
105.253
98.9252
102.919
98.0608
93.502
92.9012
95.1204
97.3894
98.6505
99.1702
99.314
99.3402
99.3813
99.454
99.5754
99.6965
99.7485
99.7451
99.7488
99.7962
99.8828
99.9875
100.094
100.197
100.299
100.395
100.497
100.598
100.701
100.807
100.918
101.011
101.079
101.178
101.192
101.573
12.3126
12.6172
13.2086
13.3305
13.2234
13.1656
13.1768
13.2835
13.1927
13.3953
13.298
13.0814
13.0483
13.1619
13.2872
13.362
13.3902
13.3956
13.3952
13.3958
13.3977
13.4022
13.4023
13.414
13.4053
13.4239
13.4224
13.4185
13.4368
13.4286
13.4516
13.3899
13.4598
13.3652
13.4955
79.7729
77.222
76.7178
76.9316
77.1586
77.2197
77.1471
77.0335
76.9379
76.8778
76.8487
76.8498
76.8789
76.9176
76.9435
76.947
76.9341
76.9157
76.9018
76.8943
76.8952
76.8979
76.904
76.9088
76.9136
76.9198
76.926
76.9343
76.9427
76.9563
76.9678
76.9822
76.9966
77.0103
77.0353
79.5864
77.0331
76.4987
76.6724
76.878
76.9515
76.9209
76.8511
76.7858
76.7418
76.7212
76.7249
76.7497
76.7814
76.803
76.8065
76.7954
76.7778
76.7634
76.7544
76.7562
76.7606
76.7749
76.7819
76.8038
76.8024
76.8375
76.8219
76.8707
76.851
76.9045
76.8882
76.9344
76.9379
76.9682
79.3435
76.7968
76.2976
76.5278
76.753
76.7709
76.6325
76.4571
76.3255
76.256
76.2339
76.2449
76.2754
76.3081
76.33
76.3395
76.3435
76.3476
76.3554
76.3634
76.3729
76.3772
76.3841
76.3854
76.3955
76.3957
76.4192
76.4137
76.4521
76.4446
76.491
76.486
76.5271
76.5356
76.5672
79.03
76.4902
75.9824
76.1792
76.3765
76.4006
76.296
76.1673
76.0767
76.0335
76.0257
76.0501
76.1005
76.1554
76.193
76.2059
76.2006
76.1883
76.1796
76.1772
76.1842
76.1934
76.2071
76.2194
76.2327
76.2452
76.2624
76.2723
76.2955
76.308
76.3305
76.3515
76.3593
76.3957
76.3885
78.7451
76.2038
75.6458
75.7893
75.9766
76.0389
76.0018
75.9328
75.881
75.8607
75.8679
75.8979
75.9435
75.9899
76.0211
76.0305
76.0225
76.0071
75.9957
75.9932
76.0037
76.021
76.0445
76.0695
76.0915
76.1165
76.1382
76.1579
76.1868
76.2013
76.2404
76.2517
76.2903
76.3137
76.3503
78.3439
75.8379
75.3448
75.53
75.6976
75.6858
75.5514
75.4036
75.3066
75.2657
75.2657
75.3005
75.3589
75.4184
75.4597
75.4772
75.4775
75.4708
75.4676
75.4709
75.4842
75.4991
75.5207
75.5367
75.5609
75.5722
75.6058
75.6096
75.6522
75.658
75.7009
75.7113
75.7433
75.7636
75.7771
77.9182
75.4038
74.869
75.0185
75.1766
75.1688
75.0458
74.9184
74.8516
74.846
74.8795
74.9396
75.0125
75.0771
75.1176
75.1324
75.1311
75.1252
75.1245
75.1309
75.1473
75.1648
75.19
75.208
75.2379
75.2491
75.2911
75.2909
75.3435
75.3442
75.3969
75.4046
75.4489
75.4747
75.508
77.4203
74.9683
74.5035
74.6759
74.7838
74.674
74.4432
74.2383
74.1324
74.1137
74.1458
74.2081
74.2827
74.3497
74.3966
74.4228
74.435
74.4414
74.4496
74.4611
74.4785
74.4951
74.5158
74.5326
74.5538
74.5705
74.5986
74.6124
74.6488
74.6629
74.7052
74.7175
74.7497
74.7737
74.7811
76.8603
74.4055
73.8921
74.0128
74.0966
73.9876
73.7781
73.615
73.5623
73.594
73.6661
73.7584
73.8539
73.931
73.977
73.995
73.9976
73.9974
74.0034
74.0164
74.0375
74.0588
74.0843
74.1063
74.1314
74.153
74.1824
74.2013
74.2367
74.2557
74.2991
74.3123
74.3574
74.3824
74.4182
76.2902
73.9369
73.5053
73.6356
73.6403
73.4059
73.088
72.8629
72.7897
72.8224
72.8997
72.9894
73.0739
73.1414
73.1895
73.2228
73.2477
73.2683
73.2877
73.305
73.3233
73.3379
73.3566
73.3716
73.3939
73.4104
73.4438
73.4549
73.4998
73.5116
73.5577
73.5741
73.6042
73.6321
73.6414
75.6042
73.2639
72.7832
72.838
72.7799
72.519
72.2215
72.061
72.0672
72.1655
72.2871
72.4092
72.5182
72.5984
72.6448
72.6662
72.6764
72.686
72.7006
72.7188
72.7414
72.7617
72.786
72.8065
72.8327
72.854
72.8876
72.9049
72.9455
72.9656
73.0069
73.0287
73.0655
73.0978
73.1317
74.89
72.7017
72.3054
72.3342
72.1503
71.7402
71.3468
71.1551
71.1683
71.2836
71.4144
71.5274
71.6144
71.6769
71.7239
71.7652
71.8047
71.84
71.8686
71.8881
71.9034
71.9134
71.9286
71.9425
71.9651
71.9845
72.019
72.0334
72.0804
72.0931
72.1436
72.1571
72.1923
72.2191
72.2297
74.0021
71.8723
71.4095
71.2962
70.9826
70.5324
70.2031
70.1402
70.2796
70.4781
70.6521
70.7924
70.9019
70.9781
71.024
71.0501
71.0683
71.0853
71.1042
71.1232
71.1444
71.1634
71.1874
71.2091
71.2371
71.2617
71.2967
71.317
71.3588
71.3821
71.4218
71.4493
71.4791
71.5201
71.5463
73.0527
71.1478
70.7537
70.546
70.0526
69.4631
69.0961
69.0633
69.2438
69.467
69.6446
69.7661
69.8445
69.8974
69.9437
69.9927
70.0423
70.0844
70.1137
70.1298
70.141
70.149
70.1653
70.1821
70.2084
70.2324
70.269
70.2865
70.3362
70.3497
70.403
70.4155
70.453
70.4814
70.4928
71.8832
70.1379
69.6162
69.13
68.4161
67.8127
67.6146
67.8084
68.1607
68.4701
68.6748
68.8067
68.9014
68.9724
69.0227
69.0544
69.0726
69.085
69.0987
69.1156
69.1386
69.1623
69.1925
69.2198
69.2523
69.2817
69.3182
69.342
69.3855
69.4112
69.4511
69.4814
69.5072
69.555
69.5749
70.5124
69.1042
68.6058
67.914
66.9815
66.3183
66.1963
66.4959
66.9048
67.222
67.4143
67.517
67.5731
67.6167
67.6661
67.7208
67.7696
67.8035
67.8231
67.8343
67.8477
67.8633
67.8893
67.9146
67.9472
67.9774
68.0142
68.0378
68.0869
68.104
68.1588
68.1692
68.2126
68.2414
68.2568
68.9013
67.8345
67.0335
65.8073
64.5667
63.9966
64.2047
64.8128
65.3964
65.7689
65.9497
66.0329
66.1037
66.1858
66.2539
66.2824
66.2768
66.2637
66.2664
66.2899
66.3298
66.3716
66.4164
66.4532
66.4912
66.5273
66.5623
66.5969
66.6365
66.672
66.7121
66.7391
66.7767
66.8163
66.8399
66.5346
66.0255
65.0965
63.3883
61.819
61.1876
61.4004
62.0139
62.5715
62.9232
63.0916
63.1345
63.1414
63.1936
63.3031
63.4175
63.4815
63.4848
63.4573
63.4349
63.4375
63.4609
63.5008
63.5406
63.5844
63.6238
63.6675
63.6984
63.7593
63.7762
63.8473
63.852
63.9141
63.9448
63.9834
63.007
63.6218
62.5377
60.0471
57.701
56.8663
57.3795
58.2193
58.8053
59.1266
59.2062
59.0817
58.9723
59.0738
59.3743
59.679
59.8175
59.7772
59.6565
59.5545
59.5143
59.5238
59.5646
59.6092
59.6559
59.7003
59.7444
59.7845
59.8379
59.8731
59.9337
59.9507
60.0072
60.0166
60.0839
56.5343
61.6971
58.8881
54.5718
52.517
53.248
54.6916
55.6607
56.1081
56.2688
56.3048
56.3397
56.3887
56.4599
56.5466
56.5907
56.5776
56.5446
56.531
56.5487
56.5896
56.6373
56.6883
56.7338
56.7784
56.8243
56.866
56.9132
56.9582
57.011
57.0569
57.076
57.1359
57.0765
57.2878
13.8331
14.1939
14.9028
15.1826
15.1647
15.0962
15.0738
15.1796
15.0927
15.2703
15.2363
15.0464
14.9719
15.0444
15.1621
15.2509
15.2958
15.3114
15.3152
15.3174
15.3203
15.3267
15.3277
15.3422
15.336
15.3528
15.3596
15.3548
15.3741
15.3663
15.4049
15.3454
15.4139
15.324
15.432
52.8652
51.8522
51.4332
51.4141
51.5398
51.635
51.6307
51.5756
51.5038
51.4442
51.416
51.4096
51.4119
51.4203
51.4328
51.4434
51.4468
51.4425
51.4354
51.428
51.4258
51.4241
51.4261
51.4274
51.4283
51.4299
51.4311
51.4334
51.4343
51.4386
51.4427
51.4437
51.4524
51.4466
51.466
52.6945
51.6907
51.2623
51.2202
51.3275
51.4216
51.4417
51.4128
51.3634
51.3183
51.2945
51.2884
51.2918
51.3011
51.3125
51.3203
51.3211
51.3145
51.306
51.2968
51.2954
51.2927
51.3019
51.2997
51.3191
51.3047
51.3393
51.3109
51.3528
51.3239
51.3648
51.3391
51.3753
51.3553
51.3902
52.4953
51.497
51.0887
51.0909
51.2294
51.3044
51.2575
51.1525
51.0476
50.9766
50.9481
50.9456
50.9518
50.9605
50.9702
50.9799
50.9886
50.9957
51.0028
51.007
51.0128
51.0123
51.0157
51.0109
51.0173
51.0063
51.0262
51.0063
51.0369
51.0154
51.0491
51.0306
51.0606
51.0438
51.0776
52.2586
51.2651
50.8552
50.8393
50.9559
51.0278
50.9938
50.9189
50.8404
50.7862
50.7709
50.7788
50.7933
50.8114
50.8323
50.8503
50.8599
50.8599
50.8562
50.8513
50.8524
50.8539
50.8601
50.8653
50.8713
50.8747
50.8852
50.8839
50.8972
50.8986
50.9077
50.9171
50.9161
50.9284
50.9261
52.0176
51.0299
50.5924
50.5384
50.6411
50.7311
50.745
50.7102
50.6625
50.6286
50.6204
50.6311
50.6503
50.6723
50.6917
50.7027
50.703
50.6948
50.6853
50.6786
50.6809
50.688
50.6998
50.7151
50.7254
50.7397
50.7518
50.7576
50.7768
50.7747
50.8023
50.7959
50.8259
50.8181
50.8575
51.7137
50.7473
50.3613
50.3553
50.4632
50.5131
50.4549
50.3611
50.2714
50.2149
50.2026
50.2156
50.235
50.257
50.2809
50.3016
50.3135
50.3156
50.3139
50.3114
50.3162
50.32
50.3322
50.3366
50.3529
50.3493
50.3755
50.3633
50.3933
50.3842
50.4125
50.4049
50.4301
50.4188
50.445
51.3853
50.4118
49.9955
49.9629
50.062
50.1094
50.052
49.9614
49.8852
49.8497
49.8593
49.8914
49.9256
49.9561
49.9815
49.9989
50.0068
50.0069
50.006
50.0057
50.0134
50.0192
50.0351
50.0397
50.0624
50.056
50.0921
50.0739
50.1148
50.1001
50.1382
50.1273
50.1631
50.1556
50.1945
51.0007
50.0688
49.7215
49.7347
49.8191
49.7995
49.6582
49.503
49.3895
49.3404
49.3483
49.3801
49.4124
49.4421
49.4716
49.4982
49.5173
49.5274
49.5333
49.5367
49.5444
49.5496
49.56
49.5656
49.5762
49.5789
49.5964
49.5934
49.6174
49.6123
49.6425
49.6336
49.6601
49.6502
49.6749
50.5821
49.6431
49.2601
49.2346
49.2953
49.2646
49.1224
48.9831
48.8972
48.88
48.9181
48.9742
49.0236
49.0629
49.0942
49.1163
49.128
49.1319
49.1346
49.1384
49.1485
49.1574
49.1714
49.1815
49.1946
49.2025
49.2201
49.2231
49.2458
49.2448
49.2786
49.2672
49.3075
49.2956
49.3397
50.1399
49.2678
48.9772
48.9995
49.0285
48.9107
48.6828
48.4871
48.3802
48.3636
48.4049
48.4584
48.5002
48.5326
48.5635
48.5938
48.6199
48.639
48.6528
48.6611
48.6701
48.6737
48.6824
48.6849
48.6964
48.6961
48.7191
48.7108
48.742
48.7346
48.7663
48.7601
48.7871
48.7748
48.807
49.6324
48.7649
48.4445
48.4145
48.386
48.2249
47.9806
47.811
47.748
47.7757
47.8547
47.935
47.9939
48.0358
48.069
48.0947
48.1121
48.1227
48.1314
48.1389
48.1501
48.1576
48.1705
48.1777
48.1918
48.1971
48.219
48.2188
48.2448
48.2465
48.2756
48.2718
48.3077
48.2953
48.346
49.0769
48.3136
48.1042
48.1052
48.0092
47.7366
47.4119
47.2063
47.1461
47.19
47.2761
47.3503
47.3959
47.4256
47.4557
47.4905
47.5256
47.5548
47.5758
47.5866
47.5939
47.5938
47.5991
47.5997
47.6099
47.6115
47.6344
47.6273
47.661
47.6518
47.6893
47.6776
47.7106
47.6953
47.7314
48.4157
47.6961
47.4634
47.3704
47.1542
46.8039
46.4743
46.3359
46.3555
46.4622
46.5896
46.6875
46.7469
46.7861
46.8198
46.8497
46.873
46.8889
46.9005
46.9084
46.9178
46.9233
46.9347
46.9418
46.9561
46.9637
46.9857
46.9878
47.0137
47.0189
47.0445
47.047
47.0756
47.0705
47.1154
47.6781
47.1212
47.0094
46.9038
46.5726
46.1068
45.7346
45.6083
45.6614
45.7938
45.9266
46.0114
46.0492
46.0705
46.0995
46.1398
46.1823
46.2166
46.2384
46.247
46.2507
46.2482
46.2531
46.255
46.2667
46.2718
46.2951
46.2901
46.3255
46.3164
46.3557
46.3427
46.3772
46.3622
46.4008
46.7919
46.3678
46.2284
45.9346
45.3852
44.8208
44.4981
44.5081
44.6842
44.8909
45.056
45.1513
45.1972
45.2303
45.2677
45.3036
45.3288
45.3419
45.3487
45.353
45.3613
45.3685
45.3832
45.3939
45.4108
45.4223
45.4445
45.449
45.4757
45.4829
45.5073
45.5126
45.5367
45.537
45.5786
45.7406
45.5712
45.5484
45.1647
44.4517
43.8117
43.5258
43.6125
43.8402
44.067
44.2289
44.3034
44.3213
44.3325
44.3629
44.4078
44.4508
44.48
44.4944
44.4984
44.5017
44.5034
44.5142
44.5221
44.5375
44.5484
44.5697
44.5707
44.6039
44.5978
44.6381
44.6222
44.6607
44.6468
44.6875
44.4944
44.6286
44.5157
43.7391
42.6749
41.9541
41.8138
42.1025
42.4715
42.755
42.9179
42.9789
43.0026
43.0411
43.0947
43.1353
43.1477
43.1406
43.1327
43.1345
43.1496
43.168
43.1927
43.2113
43.2312
43.2502
43.2673
43.2829
43.3034
43.3183
43.3444
43.3426
43.3799
43.3694
43.4229
42.8912
43.3752
43.2698
42.1772
40.8335
40.0337
39.9114
40.2338
40.5978
40.8736
41.0322
41.0646
41.0344
41.0326
41.0948
41.1866
41.2541
41.2732
41.2568
41.2319
41.2194
41.2208
41.2373
41.2539
41.2752
41.2928
41.3148
41.3208
41.3594
41.3526
41.3994
41.3828
41.4275
41.4168
41.4692
40.587
41.8438
41.8715
40.3898
38.5455
37.5645
37.6416
38.154
38.5908
38.8678
38.9735
38.885
38.7395
38.7227
38.8869
39.1203
39.2761
39.3001
39.2362
39.1562
39.1066
39.0897
39.1009
39.1153
39.1344
39.1514
39.1671
39.1777
39.2033
39.2056
39.2403
39.2284
39.269
39.2365
39.2956
37.9858
42.5948
40.8872
37.3215
34.9688
34.8691
35.7295
36.4498
36.8138
36.9635
36.9979
37.0209
37.0643
37.1214
37.1873
37.2217
37.2057
37.1623
37.1253
37.1114
37.1206
37.1386
37.1642
37.1843
37.2044
37.2262
37.2413
37.2634
37.2804
37.3047
37.3299
37.3277
37.3767
37.3026
37.4371
14.9769
15.373
16.2031
16.6303
16.7248
16.6703
16.6147
16.7071
16.6288
16.7706
16.7894
16.6436
16.5469
16.5767
16.673
16.765
16.8228
16.8495
16.8596
16.8644
16.8685
16.8766
16.8785
16.8948
16.8926
16.9062
16.9204
16.9164
16.9371
16.9264
16.9766
16.9251
16.9917
16.9118
17.0012
37.6303
37.2114
36.9419
36.8454
36.8888
36.9709
36.9966
36.9798
36.9336
36.8818
36.8551
36.8482
36.8413
36.8326
36.831
36.8384
36.8484
36.8539
36.8547
36.8507
36.849
36.8461
36.8462
36.8462
36.8459
36.8455