/*--------------------------------*- C++ -*----------------------------------*\
  =========                 |
  \\      /  F ield         | OpenFOAM: The Open Source CFD Toolbox
   \\    /   O peration     | Website:  https://openfoam.org
    \\  /    A nd           | Version:  6
     \\/     M anipulation  |
\*---------------------------------------------------------------------------*/
FoamFile
{
    version     2.0;
    format      ascii;
    class       volScalarField;
    location    "1.2";
    object      yPlus;
}
// * * * * * * * * * * * * * * * * * * * * * * * * * * * * * * * * * * * * * //

dimensions      [0 0 0 0 0 0 0];

internalField   uniform 0;

boundaryField
{
    inlet
    {
        type            calculated;
        value           uniform 0;
    }
    outlet
    {
        type            calculated;
        value           uniform 0;
    }
    roughCylinder
    {
        type            calculated;
        value           nonuniform List<scalar> 
3840
(
16.5295
32.439
41.8366
44.3217
46.305
46.2159
46.5774
46.2111
46.3767
46.3298
46.994
46.945
45.8353
46.3125
45.4944
43.7583
43.1272
43.6477
44.8035
43.2066
42.9986
42.1668
41.5925
41.4839
24.4766
32.0359
41.6772
44.3103
46.2731
46.2225
46.6065
46.3411
46.5715
46.5158
47.0482
46.96
46.1618
46.661
45.8368
44.1527
43.5473
43.7658
45.0528
43.7549
43.4896
42.7413
42.2015
42.1083
33.5344
31.4596
41.616
44.3443
46.3109
46.321
46.7386
46.5758
46.8935
46.8427
47.251
47.0894
46.5494
47.0129
46.2394
44.6099
44.0311
43.97
45.3093
44.347
44.0153
43.3439
42.8323
42.7256
35.7709
31.1481
41.4789
44.3585
46.3672
46.461
46.9236
46.8477
47.1735
47.0901
47.3804
47.2648
47.0294
47.3948
46.658
45.1749
44.5742
44.2626
45.5767
44.9858
44.5885
43.9953
43.5187
43.4249
35.8548
30.5735
41.3539
44.3894
46.4653
46.6749
47.1867
47.1718
47.5713
47.5032
47.7158
47.5745
47.4885
47.7695
47.1245
45.7643
45.1791
44.6677
45.8646
45.6344
45.1901
44.6727
44.2276
44.1186
46.542
30.4608
41.093
44.3946
46.5645
46.9016
47.4569
47.517
47.8719
47.7722
47.9417
47.9056
48.0176
48.2024
47.6127
46.428
45.8138
45.1575
46.2065
46.3114
45.82
45.3663
44.9558
44.8583
54.0898
30.3364
40.7983
44.3833
46.6715
47.1775
47.8099
47.8897
48.3106
48.2711
48.4122
48.3519
48.4848
48.62
48.1299
47.0801
46.5011
45.728
46.5879
46.9775
46.4776
46.0949
45.7224
45.6117
58.0624
30.4925
40.4137
44.3399
46.7847
47.461
48.1199
48.2822
48.6464
48.5694
48.7185
48.779
49.033
49.118
48.6762
47.7745
47.1936
46.3766
47.0573
47.6544
47.1352
46.8005
46.4628
46.3626
58.61
31.115
39.9362
44.2316
46.8553
47.7302
48.5229
48.7062
49.1214
49.155
49.2966
49.3054
49.5047
49.5723
49.2207
48.4517
47.9286
47.0596
47.5661
48.322
47.8355
47.5669
47.2756
47.1672
57.5137
32.1511
39.3717
44.0668
46.9264
48.041
48.8502
49.1042
49.5013
49.4776
49.6496
49.773
50.0643
50.1246
49.806
49.1359
48.6489
47.8148
48.1669
48.9773
48.4982
48.2634
48.0074
47.9079
62.1079
33.096
38.6862
43.7922
46.9084
48.2197
49.2132
49.5653
49.9923
50.1122
50.2927
50.3433
50.5451
50.5903
50.356
49.8263
49.3925
48.5543
48.7877
49.6354
49.215
49.0392
48.8369
48.7392
57.7095
34.324
37.9327
43.378
46.8214
48.494
49.5626
49.9256
50.3828
50.4401
50.6501
50.8107
51.1041
51.1819
50.9617
50.4746
50.1104
49.3473
49.4598
50.2447
49.851
49.6982
49.5281
49.4372
61.4892
35.6433
37.1151
42.8352
46.6499
48.5148
49.7492
50.351
50.8531
51.0696
51.3096
51.3959
51.589
51.6296
51.4981
51.1608
50.8077
50.0802
50.1319
50.8715
50.5431
50.4414
50.3285
50.2538
57.1213
36.78
36.1699
41.9708
46.2071
48.6098
50.1191
50.6657
51.2044
51.37
51.6336
51.8244
52.1228
52.2384
52.0906
51.7396
51.488
50.83
50.786
51.4033
51.1118
51.0261
50.9363
50.8669
59.6586
38.1132
35.3464
41.0456
45.7725
48.4201
49.9926
50.9204
51.5888
51.9382
52.263
52.3991
52.5918
52.6333
52.5908
52.3863
52.0788
51.4945
51.427
51.9489
51.7071
51.6621
51.63
51.5953
60.3686
39.2725
34.3888
39.4477
44.6516
48.0774
50.3175
51.2069
51.8689
52.165
52.5123
52.7492
53.0705
53.2297
53.1192
52.8545
52.6755
52.1031
51.9583
52.3864
52.1992
52.1751
52.1543
52.1223
55.4154
40.1951
33.6801
38.0892
43.7638
47.5597
49.7197
51.1309
52.0736
52.6119
53.0585
53.2761
53.484
53.526
53.548
53.3938
53.0926
52.6655
52.5269
52.8203
52.6507
52.6553
52.6929
52.7138
57.7081
41.1687
32.8924
35.278
41.3505
46.3057
49.829
51.3575
52.2849
52.749
53.2011
53.4939
53.8596
54.0532
53.9369
53.7319
53.5963
53.0874
52.8992
53.1294
53.0193
53.0429
53.0794
53.1058
55.4649
41.3415
32.3865
33.7121
39.7188
45.1384
48.3532
50.7138
52.1864
53.0397
53.6522
53.9704
54.1993
54.2375
54.3014
54.1236
53.813
53.5028
53.2741
53.3127
53.1892
53.236
53.3374
53.4343
57.0181
41.6856
31.3308
28.3801
34.3621
41.7714
47.9489
50.6743
52.2432
53.0327
53.6698
54.0614
54.4687
54.6715
54.4982
54.3066
54.1236
53.6031
53.3872
53.3944
53.2966
53.3535
53.4548
53.5716
56.1194
41.213
30.4641
27.3522
31.6021
39.024
44.1132
48.9125
51.5873
53.0656
53.9457
54.4161
54.6747
54.6839
54.7269
54.4087
54.0303
53.7312
53.3225
53.0074
52.8366
52.895
53.0678
53.2802
57.0084
40.4833
27.9863
10.5203
5.61013
26.4963
42.5338
47.8929
51.1387
52.753
53.7717
54.3085
54.7465
54.9078
54.6016
54.3314
53.9339
53.1873
52.7543
52.3504
52.1042
52.14
52.3465
52.6263
57.027
38.9161
23.9648
8.63487
13.9204
10.1344
23.674
43.1015
49.3787
52.2873
53.7338
54.443
54.7269
54.6257
54.5301
53.8897
53.0901
52.5007
51.4791
50.2996
49.778
49.7574
50.0848
50.5382
56.8607
36.1859
15.1868
14.907
6.51251
13.9887
18.8129
35.9229
47.3316
51.2864
53.1612
53.9631
54.3925
54.4362
53.7327
53.0254
51.9809
50.0602
48.4941
46.9073
45.9083
45.7093
46.2167
46.9057
56.7116
34.4151
8.47633
10.8916
4.48148
14.4192
14.0662
21.642
42.4434
49.8661
52.5417
53.6677
53.9123
53.3812
52.8636
51.2855
48.6442
46.6554
42.2652
35.0486
30.6602
29.7911
31.5834
33.6454
57.4586
34.9848
2.52781
12.3642
20.2799
2.25877
15.753
18.0102
36.577
47.524
51.1617
52.3132
52.5846
52.3127
50.2438
47.7677
44.2458
31.7397
2.56448
18.0098
20.8287
16.176
10.1995
17.0479
57.1087
38.2028
12.9433
14.9579
23.8422
15.3842
15.8092
18.8586
29.7908
44.758
49.5309
51.2358
51.1049
48.9046
46.9652
40.7741
17.5399
17.0721
18.3357
16.2222
5.39011
11.1706
8.56236
9.18993
52.4566
40.5637
21.8411
21.7577
27.7666
13.1198
9.57482
15.3863
22.0261
40.9148
46.4912
47.5785
46.8344
45.6328
36.0536
17.7656
8.92232
16.1741
29.5843
32.2239
32.5595
28.5486
25.5811
22.991
42.685
39.2425
26.7923
24.7616
29.0123
20.0324
14.961
18.7564
9.16766
37.3833
42.4713
44.6596
42.9742
29.3069
18.6684
23.1735
25.4696
40.864
42.7121
41.3424
38.066
35.6563
33.5692
32.5481
27.4807
33.4761
26.1449
25.0939
29.2001
18.9597
13.6223
11.2995
13.7067
24.0544
33.6568
31.8038
15.2251
10.4393
9.4351
33.2424
45.4911
47.254
48.3557
46.9862
42.9456
37.7591
34.547
33.1848
10.9323
24.7979
20.8244
24.2766
26.1532
20.7583
20.5658
20.1858
17.5985
18.5058
15.917
20.4652
12.0834
24.4939
36.4043
47.6872
51.4963
55.6733
56.5084
54.114
48.7681
42.3091
37.3199
35.1747
6.91584
16.8407
18.1384
24.4216
23.1211
18.938
9.62962
8.84381
12.6498
4.41486
13.8754
20.5012
12.7739
39.901
47.5951
54.8174
60.8268
63.0914
62.8427
60.2473
54.8957
47.5171
41.6068
38.6145
11.0761
16.9672
21.2215
24.8816
26.2913
27.8801
21.3256
4.85782
12.377
14.8496
21.6676
29.5348
38.5887
48.6079
56.5057
63.478
67.4882
68.2103
67.6011
65.203
60.2109
53.2333
47.182
44.0982
7.49057
19.698
23.8855
27.6796
30.8547
31.1898
29.4256
28.3029
27.6828
30.4535
34.6172
40.7299
48.488
56.5124
64.3828
69.9331
71.8485
71.9992
70.998
68.7302
64.2748
57.5308
51.7841
48.8312
9.44673
21.2956
26.3107
30.454
32.565
31.6141
29.6298
29.3111
31.7967
36.0892
41.5301
47.9993
55.6107
63.8006
70.6999
73.9166
75.0364
74.0277
72.5168
70.7851
67.3888
61.5378
56.1378
53.3834
12.2884
23.9377
28.9013
32.6147
34.0392
33.2711
32.5587
33.1383
35.3459
40.017
46.5987
53.8761
61.8722
69.5905
74.5804
76.7147
75.5008
72.5786
70.9985
70.2137
68.5066
64.0273
59.468
57.1476
13.0482
25.2984
30.574
34.1385
35.465
35.3978
35.9439
37.2951
39.194
43.6047
50.8833
58.895
66.7359
73.1518
76.8654
76.2137
71.3584
67.3776
65.6978
66.0642
66.7374
64.5846
61.2897
59.4942
14.9294
26.7632
32.9434
36.4967
37.641
38.3869
40.6154
42.7848
43.9749
47.0682
54.282
62.5802
69.7977
74.8894
75.9271
69.6314
63.041
60.0012
58.906
59.631
61.8711
62.2887
60.8314
59.8617
18.5244
30.6061
34.6481
36.9798
39.2659
42.8353
47.0437
49.4873
49.7907
50.0304
56.1176
64.3685
70.9992
74.3435
70.8077
61.0872
59.5407
54.9249
53.4998
53.6586
56.005
57.7259
57.8293
57.7049
19.0711
28.6512
36.0841
41.6388
46.4675
51.7161
52.8824
52.937
53.2858
55.9071
57.9214
65.4322
70.8592
70.0454
61.231
54.8813
38.3104
39.2865
44.1699
48.6904
50.0538
51.8452
53.0191
53.6418
25.6215
21.4785
28.5489
11.7682
10.5048
7.06214
60.0651
65.9435
61.1615
62.6188
56.2818
59.7691
62.7167
60.5941
55.6179
59.9697
55.1646
53.7576
55.5579
56.175
57.7938
53.7149
56.6608
54.1957
58.6831
55.6829
60.5411
57.1158
61.5609
64.5052
65.8277
63.3015
59.7297
59.3078
3.31392
11.1557
15.0806
27.7073
22.7458
24.9333
35.6618
30.5536
37.5355
17.9316
19.1979
41.5438
59.2143
54.9527
56.8064
54.6377
56.6259
55.8719
57.3146
57.0772
58.7146
60.3904
62.0232
63.5693
65.5253
66.8103
67.182
65.6587
63.7241
61.8677
60.0197
58.7467
57.0842
57.0043
55.7343
56.6438
55.0772
57.1106
55.0534
59.2132
41.5806
19.2159
17.9494
37.4498
30.7775
35.6907
40.7123
41.2055
38.3136
20.8837
33.3839
54.122
56.4909
54.3946
56.8329
54.2557
57.8789
56.6742
59.7118
60.0626
62.863
64.7374
67.4294
69.7215
72.2006
73.5185
73.6033
72.2433
69.6941
67.3626
64.6141
62.8145
60.0701
59.6251
56.6811
57.7105
54.3641
56.8169
54.5904
56.4845
54.2639
33.4431
21.4895
38.1579
41.2529
40.7946
46.6023
45.6772
12.4007
27.7077
50.1993
59.1444
55.2308
58.0636
56.4714
58.2302
58.9148
59.9922
62.338
63.2976
65.9258
67.9518
70.6982
72.951
75.5923
76.675
76.6851
75.5709
72.9002
70.6262
67.8881
65.8557
63.2819
62.2838
59.9928
58.8272
58.2633
56.41
58.1805
55.1737
59.2192
50.0598
14.8965
10.9418
45.0415
46.8194
52.5099
25.5526
8.45886
51.0183
61.2014
58.394
58.0159
59.3907
58.9012
61.1844
60.1846
63.1883
63.6499
65.4886
67.3407
69.4964
71.8355
73.9914
76.6311
77.4645
77.4513
76.5822
73.9341
71.7604
69.4409
67.274
65.4481
63.6225
63.1587
60.168
61.1639
58.9273
59.3599
58.0984
58.3023
61.3416
51.1335
2.72521
29.5892
53.386
45.3172
21.0339
61.7247
60.8979
61.0298
58.2312
60.0473
61.0227
61.3363
62.6377
61.9768
64.7862
64.0219
66.483
67.3635
69.6914
71.4843
73.6788
76.2295
77.18
77.1532
76.1637
73.6091
71.4061
69.6263
67.3034
66.4261
64.0045
64.7492
61.9862
62.6204
61.3439
61.0782
59.96
58.406
60.8438
61.2314
61.4742
11.3302
45.0559
41.4108
25.5093
64.7994
53.6493
59.6681
57.4104
61.5245
61.7226
62.9108
63.2144
63.3882
64.617
63.9321
66.0676
66.5433
68.7885
70.3267
72.7104
75.2795
76.8467
76.8056
75.1926
72.6186
70.2306
68.7073
66.4712
66.0114
63.8908
64.6143
63.3579
63.2664
62.8842
61.7733
61.5517
57.4026
59.7584
53.8537
64.8877
25.8063
40.9159
47.6979
24.3251
22.5449
34.5976
49.3622
55.0361
59.8568
62.0078
62.5925
63.3911
63.2287
63.3736
62.782
64.6594
64.7791
67.3985
68.9199
72.0482
74.8229
77.4034
77.3473
74.7068
71.9175
68.785
67.2808
64.6774
64.5823
62.738
63.3243
63.3136
63.2623
62.8584
61.7486
60.2805
54.681
50.1707
34.8827
22.4289
24.2217
47.2684
54.1442
35.4142
22.0988
1.83081
10.1852
39.2627
55.2103
58.8236
60.7449
61.549
61.2816
60.4078
61.2501
61.9826
63.7767
66.3803
69.0322
72.7462
76.1932
79.7205
79.655
76.0527
72.5891
68.8515
66.2131
63.6086
61.846
61.1521
60.3557
61.2453
61.6959
60.5605
59.3683
54.5673
40.8028
11.6821
26.3396
21.5857
34.5986
54.0132
53.9881
49.8925
42.9347
22.9676
14.9821
24.8724
9.15124
52.5086
52.1911
58.079
55.3188
58.6242
58.2556
61.7625
63.9893
67.7561
70.9021
74.9929
78.9569
83.1564
83.0895
78.8171
74.8373
70.7253
67.5649
63.7711
61.5647
58.0204
58.5572
55.0779
58.3535
51.7377
53.031
27.3869
26.2491
15.1786
23.8301
42.4782
49.7279
53.8889
57.4281
55.2567
50.8171
42.7628
40.5003
7.90815
24.9596
30.4617
39.4235
47.0991
52.0886
55.4129
58.9339
62.6961
66.2207
69.7411
73.1727
76.9357
81.4798
86.2247
86.1623
81.3509
76.8128
73.0358
69.6001
66.0323
62.5132
58.6826
55.2309
51.8518
47.0329
39.3798
30.5488
26.0337
8.27944
40.8504
42.3954
50.8482
55.1767
57.413
62.8378
59.3907
54.8265
48.9825
45.0191
35.978
30.1317
22.0802
27.4299
35.4412
49.6493
55.5513
61.013
64.8779
68.3633
71.4396
74.4562
78.2348
83.1942
88.3036
88.2547
83.0921
78.1529
74.3835
71.368
68.2734
64.7527
60.8779
55.3412
49.4892
35.0865
27.3834
22.0895
29.8553
36.5333
44.8413
49.0693
54.773
59.3176
62.8155
66.2398
61.2773
52.2261
44.5533
38.9104
20.6745
29.4695
8.31642
25.5716
39.5389
52.2468
59.853
63.8158
67.5465
69.8092
72.2399
74.808
78.6081
83.9495
88.3882
88.362
83.8934
78.572
74.7818
72.2367
69.7929
67.5247
63.7617
59.7845
52.137
39.4123
25.5435
9.07625
29.6745
20.8286
39.2048
44.2261
52.5512
60.8795
66.3606
63.3164
55.7595
39.7522
32.7641
26.8346
3.95563
13.1536
28.4225
43.6105
54.7652
62.3013
65.3385
68.7319
69.989
71.852
73.3133
75.8506
79.2052
83.4827
86.5664
86.5643
83.4826
79.216
75.8751
73.3462
71.8938
70.0263
68.7646
65.3527
62.3028
54.7707
43.5763
28.3863
13.1709
18.9889
22.0386
31.1332
41.6616
54.7765
63.5785
55.293
23.2937
15.3662
13.692
10.7543
36.0542
48.1963
57.2418
62.8357
66.0146
68.4879
69.5396
70.6145
71.1764
72.271
73.5742
75.593
78.0412
80.5516
82.1285
82.1372
80.5724
78.0837
75.6522
73.6444
72.351
71.2593
70.7059
69.6198
68.5728
66.0713
62.8962
57.2636
48.2034
36.0521
10.1317
13.5451
15.7155
24.2343
55.1484
15.4655
21.801
46.9836
56.2003
60.6761
63.971
66.3155
67.958
68.7231
69.2637
69.2935
69.6954
69.7123
70.4722
70.9823
72.2973
73.441
75.0421
76.1393
76.9234
76.9353
76.1628
75.091
73.5024
72.3783
71.0614
70.5655
69.7938
69.7882
69.3667
69.3429
68.7758
68.0046
66.3334
63.9717
60.6447
56.185
46.8559
6.42641
22.7119
29.3202
19.5779
58.9035
63.9178
69.1057
70.8299
72.4992
73.007
73.3314
73.4415
73.4745
73.5683
73.6201
73.9114
74.1651
74.7283
75.2043
75.8393
76.2259
76.4645
76.4694
76.2344
75.8526
75.2186
74.7448
74.1769
73.9226
73.6244
73.5696
73.4702
73.4329
73.3168
72.9931
72.4648
70.8193
69.0232
63.9366
58.6377
19.9045
20.4509
29.6098
33.6707
53.753
65.8424
70.9099
75.3511
76.9923
79.172
79.7466
80.8336
80.8149
81.0124
81.0005
81.2199
81.2722
81.4772
81.5672
81.7051
81.7565
81.7313
81.7317
81.7592
81.6981
81.5717
81.4572
81.2752
81.1922
80.9961
80.9868
80.8028
80.8115
79.7229
79.1598
76.948
75.3658
70.7603
66.1122
52.0823
21.4396
31.1971
4.78374
29.6538
30.5779
64.2573
67.9681
76.2244
78.2877
81.8596
83.1836
84.9439
85.6159
86.12
86.0512
86.4387
86.5248
86.7308
86.7917
86.8015
86.7721
86.6947
86.6934
86.7675
86.7953
86.7884
86.7261
86.524
86.4405
86.054
86.1323
85.6255
84.9518
83.1902
81.8646
78.2802
76.2162
67.9037
64.1925
30.1935
30.5192
18.3272
18.0509
27.8106
5.63617
49.7156
66.0712
71.5438
77.7381
80.2012
83.474
84.842
86.5997
87.117
87.3536
87.6528
87.8913
88.0931
88.1669
88.1725
88.1496
88.0568
88.0548
88.1403
88.1607
88.162
88.0852
87.903
87.6477
87.3924
87.1128
86.6529
84.8334
83.5326
80.189
77.7838
71.5079
66.0765
49.5841
4.68531
27.8485
18.943
41.4934
12.6127
18.6809
22.1209
56.6332
66.5853
72.8909
77.3568
80.2418
82.7802
84.2875
85.6351
85.9539
86.3117
86.6211
86.9108
87.0204
87.1065
87.1029
87.0255
87.0227
87.0927
87.0929
87.0104
86.9029
86.622
86.3165
85.9734
85.6555
84.3102
82.8053
80.261
77.3754
72.8805
66.5744
56.5174
21.7755
18.6199
12.81
41.5479
46.4237
28.2927
28.4579
29.233
28.3244
62.8926
66.0945
74.4078
76.599
80.2448
81.8104
83.632
84.3964
84.5895
85.2832
85.5471
85.919
86.0406
86.1417
86.085
86.0817
86.1306
86.0239
85.9039
85.5335
85.2725
84.5924
84.3956
83.6318
81.813
80.2457
76.5944
74.3976
66.0339
62.8555
27.6691
29.1355
28.4801
28.5624
46.4255
46.691
37.8171
29.3005
27.4168
9.94664
53.9896
65.1227
71.3453
75.7295
78.5715
80.9773
82.5618
83.7898
84.0614
84.9498
85.3211
85.895
86.0939
86.2941
86.2639
86.2594
86.2796
86.0714
85.869
85.2973
84.9233
84.0508
83.7733
82.54
80.959
78.5401
75.703
71.2696
65.0617
53.6865
8.32089
27.3533
29.3027
38.104
46.8196
47.0966
40.5377
26.3298
18.0493
2.19378
49.623
65.2526
70.6515
75.857
78.3941
81.0995
82.5715
83.9887
84.2516
85.3063
85.7212
86.4337
86.6834
86.9467
86.9338
86.9252
86.9208
86.6416
86.3794
85.6639
85.2395
84.1985
83.9259
82.496
81.0332
78.3042
75.7801
70.4958
65.1849
48.4688
19.5017
20.3328
26.3682
40.6378
47.0765
8.284
32.3095
41.8839
44.3518
46.3483
46.3807
47.0136
47.0855
47.5821
47.0268
46.6649
46.3072
46.0813
46.2379
45.5225
44.2542
42.4005
42.939
44.7872
43.3259
42.8375
41.829
41.4324
41.5434
36.3081
31.6362
41.705
44.2776
46.2614
46.2955
46.8919
46.9718
47.4488
46.9338
46.6578
46.4268
46.3741
46.5348
45.8378
44.595
42.8845
43.2752
45.0748
43.8438
43.3259
42.4509
42.0548
42.1663
25.1115
31.4365
41.5683
44.2861
46.2684
46.3371
46.9098
46.9978
47.4863
47.0597
46.8849
46.6899
46.7019
46.8455
46.2031
44.992
43.4416
43.6735
45.3929
44.4005
43.8541
43.0954
42.7001
42.7825
43.1166
30.7753
41.432
44.2924
46.3188
46.4526
47.0192
47.1128
47.544
47.1826
47.0864
46.9949
47.1111
47.2027
46.59
45.4961
44.048
44.11
45.7424
45.0055
44.4378
43.7911
43.4031
43.4748
38.2148
30.725
41.2708
44.3427
46.4335
46.6728
47.2515
47.3421
47.801
47.5383
47.5088
47.4022
47.5008
47.5608
47.0325
46.0347
44.6978
44.601
46.1111
45.6291
45.0547
44.5037
44.1294
44.1635
31.4699
30.1467
41.0739
44.3671
46.5592
46.9191
47.514
47.6343
48.0155
47.7908
47.8173
47.8023
47.9714
47.984
47.5065
46.6553
45.3635
45.1372
46.5195
46.2867
45.7053
45.232
44.8737
44.8951
43.3393
29.9338
40.7798
44.3803
46.6944
47.2235
47.8803
47.9905
48.4181
48.2989
48.3499
48.2815
48.3902
48.3924
48.0179
47.2802
46.0669
45.7118
46.9324
46.9478
46.3861
45.9851
45.6548
45.6405
50.9912
30.1987
40.3835
44.3584
46.8288
47.5294
48.2023
48.3758
48.7351
48.6102
48.7008
48.727
48.906
48.8899
48.5686
47.9521
46.7743
46.3494
47.4021
47.6234
47.0698
46.7145
46.4063
46.3836
62.1841
31.7319
39.8898
44.262
46.9105
47.8155
48.6192
48.805
49.2077
49.2083
49.2998
49.2504
49.3527
49.3439
49.1241
48.6193
47.5206
47.0038
47.8749
48.3039
47.7958
47.4969
47.228
47.1791
61.999
32.3839
39.3017
44.1003
46.9841
48.1304
48.95
49.1998
49.5822
49.5357
49.6651
49.7171
49.9035
49.9092
49.726
49.2911
48.264
47.7376
48.4217
48.9675
48.4844
48.2095
47.9653
47.9139
58.7909
33.6001
38.6391
43.8114
46.9556
48.3054
49.3109
49.6599
50.0694
50.1679
50.3039
50.2762
50.3784
50.3868
50.2964
49.9778
49.0332
48.4567
48.974
49.644
49.224
48.9953
48.798
48.7356
56.3277
34.295
37.8465
43.3808
46.8558
48.5659
49.6515
50.0113
50.4527
50.4909
50.6614
50.7436
50.9473
51.0036
50.9203
50.614
49.7923
49.2453
49.5824
50.2579
49.88
49.664
49.4917
49.4311
61.2337
35.9374
37.0477
42.8092
46.6594
48.5704
49.8239
50.426
50.9126
51.1094
51.3093
51.3225
51.4392
51.4717
51.4781
51.2953
50.5305
49.9797
50.1946
50.8962
50.5875
50.4118
50.29
50.2382
56.5088
36.6978
36.0754
41.9217
46.1966
48.6418
50.1791
50.7315
51.2584
51.4057
51.6358
51.7592
51.9941
52.1089
52.0806
51.8591
51.2613
50.7431
50.8066
51.4234
51.1643
50.9991
50.9019
50.8527
59.2799
38.2914
35.2659
40.9713
45.7338
48.4349
50.034
50.9701
51.6298
51.9633
52.2556
52.3339
52.475
52.525
52.5984
52.4987
51.8968
51.4216
51.4106
51.9685
51.7629
51.6344
51.5884
51.5723
61.7637
39.2886
34.267
39.3418
44.5889
48.0591
50.3434
51.2521
51.9115
52.1929
52.5142
52.6995
52.9778
53.1429
53.1239
52.9497
52.5364
52.0466
51.9253
52.3959
52.2498
52.1442
52.1225
52.1045
56.4818
40.3528
33.6119
37.98
43.6765
47.535
49.7248
51.1584
52.1023
52.6311
53.0537
53.2276
53.4003
53.4559
53.5663
53.4816
52.9862
52.6179
52.4719
52.8196
52.6912
52.6208
52.6482
52.689
58.4866
41.0484
32.721
35.1091
41.2299
46.2241
49.8179
51.3779
52.3184
52.778
53.2104
53.4641
53.7971
53.9932
53.9416
53.8008
53.5132
53.0449
52.8424
53.1246
53.0381
53.002
53.0545
53.0904
57.1424
41.6376
32.2913
33.5501
39.5644
45.0729
48.3079
50.7199
52.2078
53.0588
53.6544
53.9376
54.1382
54.1887
54.3169
54.1857
53.748
53.4549
53.1944
53.2949
53.1863
53.1943
53.2961
53.4159
52.4522
41.3557
31.1257
28.1206
34.1851
41.5809
47.8931
50.6499
52.2537
53.0591
53.6845
54.0471
54.4254
54.6246
54.496
54.3426
54.053
53.5423
53.3044
53.3846
53.2522
53.3064
53.4418
53.5671
56.4191
41.4489
30.3542
26.9816
30.8946
38.8879
43.9525
48.8778
51.5943
53.0767
53.9507
54.3926
54.6263
54.6443
54.7305
54.4398
53.9643
53.6327
53.1994
52.9922
52.7568
52.853
53.0367
53.2781
54.1379
39.977
27.625
9.95294
16.315
25.9024
42.4213
47.782
51.0975
52.7606
53.78
54.3
54.7142
54.8697
54.5946
54.3192
53.8262
53.0409
52.6056
52.3566
51.9604
52.1002
52.3428
52.6438
55.3499
38.501
24.0369
8.01715
14.0255
16.787
22.7193
42.9738
49.3276
52.2708
53.731
54.422
54.6858
54.5921
54.5132
53.8663
52.9683
52.2765
51.2494
50.3194
49.578
49.7384
50.0571
50.5647
56.5301
35.8215
12.1559
7.64881
14.2501
5.82209
18.7492
35.1308
47.197
51.2482
53.1436
53.9456
54.3677
54.4106
53.7273
52.9394
51.7592
49.7011
48.2037
46.9718
45.6171
45.7143
46.1809
46.96
57.4154
34.3524
13.0382
4.53316
11.2839
1.81655
15.3682
18.5079
42.328
49.7951
52.5178
53.6443
53.8777
53.3607
52.8035
51.1188
48.3611
46.1247
41.6385
35.1478
30.2561
29.8647
31.1806
33.6525
58.5549
35.335
16.634
8.29673
20.634
16.2685
16.7453
13.6547
36.3231
47.3937
51.091
52.2626
52.5625
52.2999
50.2558
47.5734
43.6252
30.0212
23.6575
17.3577
20.8163
16.2826
10.3592
17.0442
58.251
38.8243
17.5833
14.3487
23.9595
15.058
17.4558
18.6429
29.4281
44.642
49.4703
51.2084
51.082
48.9384
46.7686
40.0043
14.5116
11.6999
13.4944
12.1827
5.47886
11.9083
9.65526
9.366
53.2922
41.3155
23.2768
21.6088
28.0873
13.4184
9.34197
15.3218
21.3154
40.6046
46.3128
47.4164
46.7917
45.5951
36.2748
12.9244
12.0834
19.2633
30.9662
32.7728
32.5075
28.6842
25.9225
23.0765
43.1434
39.8199
27.728
24.8938
29.3737
18.0208
11.7677
18.2652
8.07982
37.4055
42.3575
44.6844
42.976
29.6279
22.7609
16.4565
27.8983
40.8714
42.4339
41.2286
38.0631
35.4861
33.4046
32.7084
27.6283
33.7805
26.9233
25.3405
28.9136
23.2537
18.6915
19.0623
6.53435
22.2354
32.8427
30.5044
15.2815
16.8099
5.90938
32.914
45.5574
47.6359
48.6567
47.202
42.93
37.945
34.7047
33.2367
10.8995
24.8761
21.2609
24.4554
26.4285
19.4759
7.90112
18.9409
2.40474
18.2796
11.0893
16.3363
19.6232
15.983
36.1888
47.7623
51.6057
55.7919
56.5462
54.2006
48.8033
42.2089
37.2649
35.2627
7.04768
17.056
18.7133
24.8385
22.7386
19.8674
8.53012
7.81223
2.96303
7.95377
15.5608
11.4719
15.8636
39.3453
47.9528
54.9267
60.8644
63.2968
62.9444
60.3688
54.9309
47.6457
41.6632
38.869
12.3323
17.446
21.7084
24.9257
25.0677
27.3858
22.4371
18.3838
21.47
16.1782
21.2098
30.1337
38.7235
48.6871
56.5633
63.5933
67.4
68.2541
67.6552
65.3086
60.2594
53.2142
47.2409
44.2501
7.98618
20.3432
24.462
28.0155
31.0606
31.3034
29.2057
27.0548
27.9859
30.0287
34.7835
40.781
48.6218
56.5996
64.5451
69.9576
71.745
72.0564
70.9886
68.8092
64.3201
57.5899
51.8155
49.054
10.0968
21.7754
26.5637
30.5111
32.5903
31.615
29.5625
29.2478
31.708
36.1172
41.5393
48.0622
55.6562
63.8942
70.8498
73.9176
74.8858
73.9965
72.4364
70.8429
67.4437
61.5588
56.1728
53.5604
12.5795
24.1906
28.9929
32.6293
34.06
33.2628
32.4931
33.0614
35.3323
40.0566
46.6421
53.9073
61.9183
69.7037
74.705
76.6807
75.2778
72.4394
70.8419
70.2189
68.5559
64.0675
59.4721
57.3289
13.2334
25.3617
30.5787
34.134
35.4586
35.3471
35.8455
37.2037
39.1806
43.6595
50.9326
58.9231
66.7921
73.2689
76.9749
76.103
71.1065
67.166
65.4435
65.9976
66.7776
64.6029
61.2531
59.6378
15.1926
26.9174
33.0053
36.5118
37.6259
38.3069
40.4769
42.6499
43.9166
47.1069
54.3332
62.6124
69.8587
75.0081
76.0069
69.4253
62.8218
59.8639
58.7046
59.5663
61.8994
62.2911
60.7379
59.9603
18.6129
30.5199
34.5573
36.9082
39.1222
42.6095
46.8015
49.3046
49.6734
50.0408
56.2101
64.4514
71.098
74.4524
70.8924
61.0522
59.4728
54.8461
53.3616
53.5762
56.0265
57.7205
57.6908
57.7553
19.0955
28.633
36.0161
41.54
46.4276
51.6661
53.0477
53.107
53.3671
55.9133
57.9595
65.4951
70.975
70.2161
61.1634
54.7388
37.7136
38.6675
43.7856
48.6874
50.0541
51.834
52.8552
53.6528
40.1867
9.59648
22.3343
17.2934
3.51675
8.0413
13.5326
4.28705
12.4495
11.9323
11.9579
1.93571
6.73918
3.66819
8.35893
7.92611
7.21094
7.09123
3.83842
3.42949
3.57995
3.61058
4.07542
7.37314
7.98367
4.42275
4.21641
6.45934
3.97928
6.62222
13.3254
14.0673
5.83426
6.25323
2.65444
10.1124
13.2828
15.3206
13.0911
18.6275
31.1572
30.5091
28.2464
27.4014
25.231
23.8202
22.2202
20.3859
19.2024
17.2342
16.565
14.8476
14.5297
12.86
12.6956
12.1206
11.662
11.6799
11.4137
11.2818
11.404
11.7706
11.464
12.0918
12.0297
12.6415
12.9492
14.2741
15.1915
16.2891
17.4415
19.3363
20.1748
22.5323
22.8066
25.898
26.0255
28.931
29.7015
31.6409
41.5001
39.7223
38.7875
37.0865
36.1529
34.5708
33.6927
32.2739
31.457
30.3283
29.4237
28.634
27.6456
27.1819
26.3392
26.0072
25.4689
25.2625
24.8149
24.6178
24.3931
24.4844
24.99
25.4359
26.1344
26.4485
27.2497
27.839
28.6701
29.5739
30.4015
31.4709
32.3903
33.5124
34.7097
35.8334
37.1079
38.526
39.6622
41.3624
43.7732
42.1591
40.8833
39.3796
38.1179
36.7485
35.5251
34.3878
33.2348
32.3024
31.3279
30.4755
29.7043
28.9754
28.4316
28.0655
27.6972
27.5261
27.2701
27.0551
26.8131
27.0427
27.483
27.8845
28.2631
28.6506
29.2447
29.8625
30.7102
31.448
32.4828
33.3623
34.4456
35.6195
36.6846
38.1116
39.2569
40.7823
42.0387
43.6952
45.7979
44.3575
43.131
41.7792
40.5538
39.3269
38.1768
37.0991
36.0834
35.1469
34.1936
33.4392
32.4858
31.9224
31.1525
30.8349
30.3803
30.2112
29.9394
29.703
29.4126
29.6909
30.2148
30.5882
31.0959
31.4329
32.1498
32.7301
33.5391
34.3661
35.2468
36.1914
37.1849
38.2335
39.3905
40.5604
41.7327
43.0297
44.2474
45.6964
45.8474
44.5296
43.2955
42.0375
40.7826
39.6088
38.4548
37.4456
36.3999
35.5428
34.6078
33.8303
33.0201
32.346
31.7466
31.3505
30.9762
30.7992
30.6484
30.3572
30.0152
30.412
30.9377
31.2968
31.6646
32.0112
32.5964
33.1126
33.9211
34.656
35.6737
36.4902
37.5252
38.5434
39.6723
40.7903
41.9163
43.0883
44.2624
45.6023
46.525
45.3365
44.1065
42.9191
41.6419
40.5186
39.3546
38.401
37.3569
36.5064
35.5565
34.8391
33.9246
33.3469
32.6112
32.246
31.7462
31.5629
31.489
31.1516
30.8354
31.296
31.8389
32.0724
32.4658
32.7344
33.3098
33.7962
34.6165
35.4978
36.5214
37.3821
38.3849
39.3574
40.4936
41.5207
42.5845
43.6166
44.7396
45.964
46.5781
45.4076
44.1426
42.9349
41.6084
40.4608
39.2986
38.3321
37.3057
36.4424
35.5224
34.793
33.9927
33.3781
32.7334
32.2629
31.7331
31.4466
31.53
31.1402
30.9995
31.4953
31.889
31.9996
32.2399
32.4895
32.9108
33.3806
34.2433
35.2267
36.3664
37.1815
38.1206
39.0906
40.2177
41.2089
42.2195
43.1862
44.301
45.5116
47.0467
45.8515
44.549
43.3145
41.9574
40.7886
39.6065
38.6382
37.5894
36.7187
35.7729
35.0857
34.2638
33.7668
33.0978
32.6166
31.9536
31.5678
31.6865
31.3557
31.7488
31.9815
32.0479
31.9409
32.1054
32.4331
32.7052
33.2347
34.2052
35.3187
36.4674
37.1881
38.0958
39.0897
40.2424
41.2252
42.2237
43.18
44.339
45.5783
46.4668
45.3681
44.1611
43.0586
41.7536
40.5821
39.3458
38.3548
37.2958
36.4061
35.4405
34.7922
34.0455
33.6253
33.077
32.6227
32.0485
31.6595
31.5043
31.4004
32.2042
32.1497
31.6541
31.621
31.8589
32.3476
32.4311
33.2168
34.1676
35.0866
36.0078
36.6359
37.6225
38.6571
39.8402
40.8234
41.8967
42.925
44.1939
45.4864
46.0244
44.9573
43.8075
42.8493
41.6827
40.578
39.2586
38.1781
37.0782
36.1737
35.1621
34.561
33.8452
33.5265
33.028
32.605
32.2183
32.083
31.6957
31.7127
31.8689
31.7958
31.542
31.734
32.169
32.7254
33.0654
34.0262
34.6794
35.2217
35.9232
36.5424
37.5638
38.5853
39.8316
40.9279
42.2245
43.4358
44.8638
46.2079
45.5901
44.4259
43.2265
42.2378
41.1075
40.0663
38.7825
37.6215
36.428
35.6385
34.6888
34.1293
33.3743
33.0303
32.5531
32.0293
31.5826
31.7551
31.938
31.8225
31.3661
31.1119
31.7728
31.7754
32.6479
33.0299
33.6903
34.187
34.7473
35.1712
35.7875
36.4513
37.5402
38.571
39.8189
40.9323
42.2825
43.516
44.9432
46.245
45.2149
43.8605
42.5342
41.4555
40.3482
39.4219
38.3255
37.3569
36.2204
35.4681
34.7464
34.2916
33.3871
32.8674
32.4643
32.3049
31.6608
31.0959
31.0881
31.8438
31.2959
31.7215
31.5074
31.6509
31.9543
32.0285
32.5127
32.6119
33.5344
34.0183
35.114
36.1316
37.385
38.3575
39.4271
40.3459
41.4089
42.4349
43.6903
44.973
45.3123
43.8246
42.3424
41.1107
39.9021
38.9864
37.962
37.0959
35.8773
34.8045
33.569
33.0196
32.2122
31.6274
30.8658
30.8918
30.4178
29.6783
29.7653
30.0946
30.2688
29.7605
29.4394
29.99
30.8336
30.7328
31.8182
32.7053
33.3653
33.8929
35.0218
35.8001
36.7686
37.4381
38.4187
39.3527
40.6578
42.0254
43.6374
45.2706
44.5479
43.0219
41.3957
39.9869
38.5158
37.3844
36.2263
35.4753
34.5803
33.9852
33.024
32.4095
31.865
31.8376
30.5691
30.0926
29.9274
29.5143
29.8746
30.8273
31.0592
29.2788
31.0704
30.7435
30.7113
31.2871
32.2645
32.4549
33.3098
33.9641
34.6983
35.0074
35.6498
36.217
37.2615
38.3368
39.7928
41.226
42.8768
44.4555
43.3586
41.9791
40.5013
39.2279
37.8503
36.7527
35.5805
34.7925
33.87
33.2849
32.3272
31.6406
30.7408
30.3938
29.6576
28.774
27.8259
27.5238
26.8172
27.1804
27.4976
27.7439
27.6816
27.9973
28.8781
29.2452
29.9438
30.4287
31.4401
32.0584
32.9014
33.4762
34.4609
35.3264
36.5125
37.5709
38.8813
40.0633
41.499
42.8334
41.3894
40.0749
38.7006
37.6895
36.5835
35.7703
34.7108
33.8097
32.533
31.5093
30.3324
29.7388
28.6783
28.1221
27.2217
26.4022
26.6434
26.9003
26.8136
26.4755
26.6862
25.9992
27.0372
27.2064
28.1442
28.7836
29.7652
30.0997
30.7284
31.0237
31.962
32.76
34.0318
34.9376
36.1073
37.0266
38.2738
39.3935
40.8363
42.1716
42.007
40.6924
39.2026
38.0534
36.7244
35.8074
34.7126
34.0429
33.1333
32.5465
31.532
30.7289
29.4373
28.5651
27.6747
27.6769
26.9507
26.9821
25.8258
25.2337
25.5837
26.4352
27.1545
27.5489
28.2709
28.6014
29.4287
29.7394
30.6175
31.2037
32.35
33.1809
34.4595
35.4477
36.8587
37.9993
39.4568
40.5697
41.9281
43.0228
43.8617
42.4005
40.7912
39.4125
37.86
36.6197
35.1882
34.1358
32.8524
32.0332
30.9325
30.3707
29.4377
29.0624
28.1971
27.9491
27.2895
27.2918
27.0818
27.0967
26.9015
26.8083
27.3593
27.4467
28.0626
28.3012
29.1306
29.5818
30.6364
31.2792
32.4761
33.3011
34.6063
35.5749
36.9368
38.0583
39.5127
40.8378
42.405
43.8823
42.2294
40.7214
39.0567
37.6876
36.1328
34.9179
33.4975
32.4723
31.2261
30.4293
29.3411
28.7735
27.7871
27.3447
26.5177
26.3702
25.6552
25.7712
25.2611
25.2176
25.0043
24.8586
25.562
25.5279
26.2484
26.4292
27.2558
27.6403
28.604
29.2097
30.3272
31.1531
32.378
33.3616
34.7297
35.9207
37.4586