/*--------------------------------*- C++ -*----------------------------------*\
  =========                 |
  \\      /  F ield         | OpenFOAM: The Open Source CFD Toolbox
   \\    /   O peration     | Website:  https://openfoam.org
    \\  /    A nd           | Version:  6
     \\/     M anipulation  |
\*---------------------------------------------------------------------------*/
FoamFile
{
    version     2.0;
    format      ascii;
    class       volScalarField;
    location    "1.2";
    object      k;
}
// * * * * * * * * * * * * * * * * * * * * * * * * * * * * * * * * * * * * * //

dimensions      [0 2 -2 0 0 0 0];

internalField   nonuniform List<scalar> 
63552
(
0.00353548
0.00359532
0.00445215
0.00395409
0.00584848
0.00450177
0.00354213
0.00526121
0.00615891
0.00527445
0.00404734
0.00625288
0.00786855
0.00476442
0.00683848
0.00300864
0.00457713
0.00473474
0.00347469
0.00506937
0.00470557
0.00366324
0.00378207
0.00419807
0.00630106
0.00437929
0.00714386
0.00618925
0.00475837
0.0037186
0.00354768
0.00342111
0.00367543
0.00483461
0.00585153
0.00379058
0.00516709
0.00402975
0.00381601
0.00488555
0.00454246
0.00722294
0.00480967
0.00477925
3.17281e-05
0.00207051
0.00364901
0.00337319
0.00519768
0.00489239
0.00633572
0.00392914
0.00632263
0.00484246
0.00784397
0.00377507
0.00498299
0.00480739
0.000117252
0.000435942
0.00350002
0.00510189
0.00429753
0.00404804
0.00393049
0.00533569
0.00574268
0.00670417
0.00449528
0.00514771
0.00697022
0.000584706
0.00385287
0.0019351
0.0042857
0.00357553
0.00347139
0.00494978
0.00508274
0.00615977
0.00603257
0.00461018
0.00521801
0.00381992
0.000313356
0.000338853
0.00343456
0.00449001
0.0047307
0.00375066
0.00399812
0.00354864
0.00504105
0.00364571
0.00500339
0.00581495
0.00450667
0.000358962
0.000363472
0.00321322
0.00275497
0.00494054
0.0035789
0.00466815
0.00488512
0.00464293
0.00645897
0.00509956
0.003645
0.000264431
0.000512944
0.000151186
0.00045529
0.00147496
0.00473602
0.00515033
0.00352398
0.00541997
0.00378443
0.00501796
0.00409849
8.81952e-05
0.00016074
0.000783025
0.000494219
0.00144847
0.00279767
0.00349629
0.00413162
0.00495327
0.0046204
0.00483185
0.00471065
0.000165105
0.000149113
0.000185731
0.000735309
0.00052662
0.000977932
0.00448896
0.00426915
0.00380003
0.00436188
0.0056244
0.00416194
0.0001588
0.000265734
4.33095e-05
0.000539198
0.00199935
0.000885251
0.00426034
0.00387978
0.00409471
0.00402093
0.000191512
0.00011645
0.000146249
0.000341531
0.000394284
0.000397921
0.0021365
0.00284371
0.00426177
0.00555683
0.0054627
0.000789471
0.000112658
0.00014895
0.000169296
0.000312377
0.00068269
0.000490859
0.0022943
0.00465798
0.00475966
0.00410704
0.000541982
0.000100709
0.000132104
0.000185344
0.000269942
0.000394343
0.00097185
0.00135928
0.00321414
0.00485051
0.00447781
0.000573151
9.50795e-05
0.000121517
0.000160923
0.000242507
0.000375065
0.00060648
0.00134147
0.00254414
0.00381487
0.00274496
0.000337359
8.99843e-05
0.00011478
0.00015127
0.000221281
0.00033667
0.000579857
0.00104587
0.00214515
0.00314755
0.00276707
0.000479124
8.67513e-05
0.000109983
0.000143453
0.00020921
0.000312288
0.000526547
0.00096857
0.00190728
0.0028108
0.00233385
0.000372031
0.000106919
0.000139031
0.000201144
0.000298322
0.000497768
0.000900899
0.00177043
0.00261049
0.0022065
0.00036905
0.000105507
0.000136796
0.000197477
0.000291567
0.000484738
0.000872527
0.00170663
0.00251666
0.00212774
0.000357746
0.00122914
0.00128439
0.00138221
0.00138652
0.00153624
0.00152369
0.00157943
0.00175245
0.00206014
0.00255594
0.00309013
0.00473259
0.00656003
0.00639284
0.00286398
0.00113824
0.00125662
0.00131812
0.00135468
0.00142512
0.00157367
0.00167405
0.00180546
0.00211584
0.00262522
0.00328864
0.00489703
0.00652432
0.00639586
0.0027115
0.00104782
0.00110779
0.00117006
0.00138253
0.00155387
0.0016432
0.00181349
0.00205397
0.00255957
0.00327235
0.00484156
0.00653256
0.00646656
0.0026832
0.000795959
0.000849335
0.00103462
0.0012622
0.00150668
0.0016904
0.00192896
0.00215499
0.0027075
0.00342628
0.00510723
0.00658388
0.00646249
0.00250423
0.000811216
0.000934792
0.00113612
0.00147173
0.00160532
0.00178461
0.0021428
0.0026378
0.00338715
0.00505273
0.00667302
0.00653009
0.00243344
0.000904131
0.00123481
0.00103769
0.00141751
0.00161149
0.00184358
0.00223292
0.00274039
0.0035798
0.00516631
0.00676984
0.00649284
0.0022401
0.000885955
0.000634773
0.00114694
0.00138746
0.00154443
0.00178674
0.00218959
0.00268147
0.00347757
0.00512868
0.00684754
0.00656959
0.00223487
0.00105202
0.000807913
0.00122143
0.00134615
0.00175264
0.002176
0.00281627
0.00363205
0.00532269
0.00693099
0.00650427
0.00201753
0.000846025
0.00107203
0.000951143
0.00113596
0.00148983
0.00213904
0.00282146
0.00360661
0.0053669
0.00688874
0.00654168
0.00202829
0.000941725
0.000911965
0.00121547
0.00132173
0.00161619
0.00200189
0.00282976
0.00375926
0.00544524
0.00700959
0.00652172
0.0018664
0.000927284
0.00102663
0.0010434
0.00127526
0.00152778
0.001928
0.0027787
0.00370873
0.00546498
0.00702543
0.00655322
0.00180726
0.000991398
0.00117272
0.00127141
0.00159868
0.00207698
0.00254916
0.00378817
0.00554681
0.00707064
0.00650468
0.00171456
0.00102085
0.0011276
0.00132195
0.00158715
0.00189998
0.00272832
0.00368013
0.00562666
0.00719748
0.0065765
0.00170592
0.0010321
0.00116461
0.00131587
0.00162156
0.00202897
0.00258866
0.00370722
0.00568956
0.0071862
0.00650627
0.00163813
0.00103774
0.00117257
0.0013366
0.00162135
0.00199718
0.00268403
0.00365029
0.00557854
0.00723906
0.00652116
0.0016166
0.00105239
0.00118125
0.00134756
0.00164854
0.00202153
0.00267109
0.00369811
0.00556177
0.00716436
0.0064012
0.00161128
0.00105714
0.00119138
0.00135853
0.00165073
0.0020343
0.00268487
0.00369353
0.00555448
0.00712629
0.00642069
0.00155374
0.0010635
0.00119829
0.00136436
0.00166349
0.00204173
0.00269928
0.00370906
0.00555554
0.00711494
0.00639066
0.00155504
0.00120222
0.00137024
0.00166815
0.00204857
0.00270522
0.00371711
0.00555655
0.00710654
0.00638506
0.00153643
0.00120463
0.00137244
0.00167123
0.00205121
0.00270932
0.00372143
0.00555678
0.00710159
0.00637881
0.00152905
0.00112164
0.00115158
0.00119291
0.0012514
0.0013127
0.00145707
0.00162028
0.00192915
0.00232096
0.0030385
0.00392585
0.0061022
0.00848499
0.00844013
0.00347225
0.00111211
0.00115107
0.0011878
0.00125501
0.00133766
0.00152591
0.00172344
0.0020538
0.00247586
0.00322143
0.00418832
0.00640244
0.00864095
0.0084354
0.00335377
0.00112238
0.00115171
0.00122414
0.00133574
0.00151655
0.00171221
0.00204488
0.00245577
0.0031967
0.00414041
0.00635922
0.00867342
0.008539
0.00336151
0.00113955
0.00114215
0.0012431
0.00136108
0.00157574
0.00180281
0.00215945
0.00260271
0.00335569
0.00436295
0.00660587
0.0088162
0.00853452
0.00324765
0.00116327
0.00127118
0.00136558
0.0015805
0.00179357
0.00214419
0.00259378
0.00334592
0.00434404
0.00660589
0.00886815
0.00860728
0.00324437
0.00120643
0.00132315
0.00139345
0.00162474
0.00186493
0.00223738
0.00271613
0.00348604
0.00453512
0.00679086
0.00897643
0.00860389
0.00313978
0.0012281
0.00126293
0.00141375
0.00163526
0.00185251
0.0022244
0.00270699
0.00348616
0.00453355
0.00682867
0.0090393
0.00865718
0.00312272
0.00137905
0.00143369
0.00165369
0.00188562
0.00228898
0.00279871
0.00360417
0.00469315
0.00697843
0.0091157
0.0086542
0.00303521
0.00135259
0.00149407
0.00165749
0.00188144
0.00228368
0.00279052
0.00361281
0.00471812
0.00703441
0.00916982
0.00869219
0.00300728
0.00140848
0.00149732
0.0017365
0.00197239
0.00236763
0.00285121
0.00369256
0.00483821
0.00714499
0.00924072
0.00869919
0.00293537
0.00142486
0.00155073
0.0017317
0.00197655
0.00237011
0.00286444
0.00369252
0.00486307
0.00720621
0.00928579
0.00872186
0.00290744
0.00157185
0.00179231
0.00202369
0.00243301
0.00294441
0.0037293
0.00494472
0.00728719
0.00933741
0.00872449
0.0028488
0.00159552
0.00180636
0.00205443
0.00245442
0.00292945
0.0037823
0.00496552
0.00735226
0.00938944
0.00874063
0.00281299
0.00162941
0.00183693
0.00208444
0.00249588
0.00300158
0.0037975
0.00502262
0.0074019
0.00942137
0.00874142
0.0027695
0.00164019
0.0018629
0.00210791
0.00251142
0.00301371
0.00384302
0.00504665
0.00741965
0.0094522
0.00873845
0.00273611
0.00166657
0.00187851
0.00212988
0.00254731
0.00304304
0.00386832
0.00509128
0.00745016
0.00945649
0.00872357
0.00270233
0.00167711
0.00189583
0.00214909
0.00255746
0.00306413
0.0038864
0.00511515
0.00747349
0.00946308
0.0087344
0.00268395
0.00168898
0.0019085
0.00216002
0.00257567
0.00307815
0.00390721
0.00513825
0.00749377
0.00947247
0.00873033
0.00265966
0.00191578
0.00216972
0.0025842
0.00308898
0.00391742
0.00515342
0.00750671
0.00947728
0.00873126
0.00264773
0.00191997
0.00217376
0.00258906
0.00309369
0.00392325
0.00516079
0.0075129
0.0094787
0.00872982
0.00263908
0.00117931
0.00122725
0.00126074
0.00135384
0.00142338
0.00161758
0.00181252
0.00221273
0.00264341
0.00348228
0.00442186
0.00687488
0.00968759
0.0099992
0.00450547
0.00119673
0.00125282
0.00129083
0.00139049
0.00148289
0.00170258
0.00192696
0.00234877
0.00281301
0.00367539
0.00469182
0.00719873
0.00986996
0.00999003
0.00439249
0.00126204
0.00129369
0.00139597
0.00149027
0.00170289
0.0019188
0.00233576
0.00279109
0.00364643
0.00463579
0.00714382
0.00989337
0.0100941
0.00441001
0.00129713
0.00132653
0.00143944
0.00154493
0.00177639
0.00202003
0.00245528
0.00294203
0.00380801
0.00485617
0.00738988
0.010035
0.0100928
0.00429933
0.00134547
0.00146451
0.00156243
0.00178857
0.00201947
0.00244947
0.00293132
0.00379951
0.00483844
0.00739321
0.0100837
0.0101614
0.00429652
0.00138546
0.00150378
0.00160819
0.00184719
0.00210293
0.00254998
0.00305968
0.00393425
0.0050171
0.00757612
0.0101896
0.0101716
0.00419515
0.00140832
0.00151595
0.00163058
0.00186857
0.00210874
0.00255218
0.00305754
0.00393923
0.00502712
0.00761902
0.0102505
0.0102154
0.00417719
0.00156961
0.00167983
0.00191555
0.00217391
0.00263448
0.00316177
0.00404792
0.00517078
0.00775624
0.010329
0.0102276
0.00408824
0.00158422
0.00170931
0.00194318
0.00219337
0.00265126
0.00316698
0.00406198
0.00520035
0.00781573
0.0103879
0.0102563
0.00405989
0.00162264
0.00174301
0.00199304
0.00226112
0.00272359
0.00324919
0.0041442
0.0053097
0.00792159
0.0104527
0.0102691
0.00398636
0.00164397
0.00177531
0.00201674
0.00228096
0.00274255
0.00326772
0.00416238
0.00534713
0.00798564
0.0105023
0.0102859
0.00395275
0.00180839
0.00205915
0.00232971
0.00279848
0.00333661
0.00422156
0.00542611
0.00806458
0.010553
0.0102945
0.00389758
0.00182743
0.00208225
0.00235641
0.00282531
0.00335085
0.00425263
0.00546448
0.00812435
0.0105961
0.0103045
0.00386257
0.00186136
0.00211111
0.00239112
0.00286414
0.00340454
0.00429168
0.0055212
0.0081784
0.0106325
0.0103105
0.0038187
0.00187312
0.00213593
0.00241407
0.00288364
0.00342614
0.00432238
0.00555699
0.00821718
0.0106623
0.0103139
0.00378721
0.00189835
0.00215345
0.00243616
0.00291677
0.00345535
0.0043528
0.0055969
0.00825464
0.0106817
0.0103141
0.0037568
0.0019094
0.0021695
0.00245619
0.00292933
0.00347617
0.0043702
0.00562479
0.00828319
0.0106969
0.0103184
0.00373068
0.00192093
0.00218275
0.00246753
0.0029467
0.00349126
0.00438968
0.00564754
0.00830631
0.0107099
0.0103196
0.00371296
0.00218998
0.00247734
0.00295565
0.00350228
0.00439992
0.00566288
0.00832136
0.0107174
0.0103207
0.00369849
0.00219419
0.00248158
0.00296052
0.00350724
0.00440542
0.00567023
0.00832855
0.0107203
0.0103204
0.00369018
0.00124564
0.00130842
0.0013379
0.00144902
0.00151496
0.00172625
0.00190214
0.00233715
0.00273559
0.00363123
0.00448257
0.00706694
0.0102605
0.0112023
0.00536504
0.00127264
0.0013409
0.00137816
0.00149576
0.00158095
0.00180966
0.00201376
0.00246589
0.00289914
0.0038094
0.00473494
0.00738859
0.0104576
0.0111927
0.00525015
0.00135436
0.00138802
0.0015069
0.00158831
0.00181122
0.00200451
0.00245089
0.00287268
0.0037775
0.00467224
0.00732389
0.0104686
0.0112832
0.00527088
0.00138642
0.00142576
0.00155004
0.00164499
0.00188031
0.00210039
0.00256073
0.00301401
0.00392169
0.00487051
0.00755255
0.0106061
0.0112904
0.00516139
0.00144173
0.00156953
0.00166091
0.00189384
0.00210217
0.00255821
0.00300207
0.00391193
0.0048496
0.00755542
0.0106539
0.011347
0.00515931
0.00147858
0.00160685
0.0017084
0.00194942
0.00218158
0.00264976
0.00312154
0.0040284
0.00500542
0.00772007
0.0107546
0.0113645
0.00506176
0.0014976
0.00162727
0.00172911
0.00197172
0.00219325
0.00265831
0.00312134
0.00403308
0.00501328
0.00776217
0.0108148
0.0113989
0.00504233
0.00166337
0.0017739
0.00201755
0.00225809
0.00273328
0.00321899
0.00412555
0.00513547
0.00788378
0.0108919
0.0114157
0.00495964
0.00168505
0.00179601
0.0020444
0.00227938
0.00275259
0.00322821
0.00413965
0.00516163
0.00794213
0.0109506
0.0114366
0.00492815
0.00171463
0.00183245
0.00208349
0.00233424
0.00281218
0.00330534
0.00421113
0.00525575
0.0080371
0.0110138
0.0114494
0.00486075
0.00173482
0.00185491
0.00211009
0.00235753
0.00283533
0.00332334
0.00423109
0.0052912
0.00809873
0.0110649
0.0114614
0.0048236
0.00188797
0.00214313
0.00240007
0.00288124
0.00338284
0.00428388
0.00536076
0.00817178
0.0111152
0.011469
0.00477064
0.00190411
0.00216542
0.00242365
0.00290722
0.00340352
0.00430739
0.00539759
0.0082278
0.0111576
0.0114756
0.00473371
0.00193259
0.00219108
0.00245605
0.00294039
0.00344583
0.00434479
0.00544762
0.00828126
0.0111953
0.0114802
0.00469253
0.00194493
0.00221167
0.00247637
0.00295977
0.00346844
0.0043678
0.00548131
0.00832288
0.0112262
0.0114826
0.00466007
0.00196564
0.00222864
0.00249647
0.00298697
0.00349469
0.00439475
0.00551542
0.00835999
0.0112501
0.0114829
0.00462975
0.00197634
0.0022419
0.00251432
0.00299995
0.00351316
0.00440962
0.00554086
0.00838863
0.0112683
0.0114835
0.0046061
0.00198624
0.0022539
0.00252507
0.0030146
0.00352725
0.00442559
0.00556081
0.00841108
0.0112823
0.0114835
0.00458603
0.00226035
0.00253376
0.00302283
0.0035372
0.00443445
0.00557424
0.00842577
0.0112907
0.0114832
0.00457262
0.00226406
0.00253769
0.00302714
0.00354178
0.00443901
0.00558061
0.00843264
0.0112939
0.0114822
0.00456418
0.00129051
0.00135958
0.00138495
0.00150235
0.00155576
0.00176789
0.00189716
0.00232599
0.00262281
0.0035237
0.00415971
0.0067938
0.0103738
0.0120959
0.0060949
0.00131901
0.00139102
0.00142462
0.0015466
0.00161679
0.00183909
0.00199507
0.0024336
0.00276685
0.00367169
0.00438032
0.0071051
0.0105869
0.0120978
0.00598087
0.00140178
0.00143293
0.00155568
0.0016211
0.00183994
0.00198507
0.00241953
0.00273824
0.00363959
0.00430994
0.00702796
0.0105887
0.0121719
0.00600259
0.00142996
0.00146813
0.00159316
0.0016718
0.00189707
0.00206717
0.0025083
0.00285978
0.00375442
0.00447671
0.0072336
0.0107221
0.0121936
0.00589739
0.00148078
0.00160808
0.00168352
0.00190874
0.00206896
0.00250784
0.00284707
0.00374358
0.0044486
0.00723234
0.0107705
0.0122402
0.00589439
0.00151293
0.00164027
0.00172615
0.00195412
0.00213595
0.00257965
0.002948
0.0038333
0.00457607
0.00737486
0.0108666
0.0122659
0.00580344
0.00152775
0.00165802
0.00174202
0.00197276
0.00214693
0.00258955
0.00294737
0.00383546
0.00457582
0.00741255
0.0109276
0.0122957
0.00578197
0.00168611
0.00177944
0.00200957
0.00220115
0.0026466
0.00302842
0.00390477
0.00467306
0.00751717
0.0110036
0.0123164
0.00570599
0.00170525
0.00179673
0.00203139
0.00221881
0.00266429
0.00303709
0.00391486
0.00469006
0.00757097
0.0110636
0.012335
0.00567294
0.00172857
0.00182806
0.00206173
0.00226262
0.00270839
0.00309999
0.00396802
0.00476469
0.00765363
0.011127
0.0123492
0.00561074
0.00174546
0.00184481
0.00208385
0.00228282
0.00272957
0.00311582
0.00398291
0.00479119
0.00771019
0.0111801
0.0123605
0.00557321
0.00187259
0.00210934
0.00231706
0.00276338
0.0031632
0.00402189
0.00484645
0.00777542
0.0112314
0.0123687
0.00552325
0.00188632
0.00212741
0.00233624
0.00278504
0.00318233
0.00403853
0.00487526
0.00782665
0.0112754
0.0123746
0.00548674
0.00190813
0.00214797
0.00236301
0.00281019
0.00321517
0.00406626
0.00491508
0.00787617
0.0113147
0.0123786
0.00544736
0.00191971
0.00216375
0.00237934
0.00282663
0.0032344
0.00408258
0.00494181
0.0079158
0.0113473
0.0123804
0.005416
0.00193531
0.00217796
0.00239619
0.00284649
0.00325595
0.00410204
0.00496887
0.00795045
0.0113737
0.0123801
0.0053869
0.00194474
0.00218823
0.00241016
0.00285788
0.00327082
0.00411309
0.004989
0.0079775
0.0113939
0.0123793
0.00536299
0.0019527
0.00219776
0.00241952
0.00286891
0.00328258
0.00412434
0.00500489
0.00799831
0.0114088
0.0123783
0.00534445
0.00220303
0.00242643
0.00287551
0.00329066
0.00413088
0.00501544
0.0080119
0.0114179
0.012377
0.00533075
0.00220597
0.00242972
0.0028789
0.00329446
0.00413415
0.00502042
0.00801814
0.0114215
0.0123755
0.00532257
0.00131285
0.00137974
0.00140236
0.0015149
0.0015551
0.00175547
0.00183353
0.00223266
0.00238723
0.00325717
0.00357015
0.00622381
0.0102381
0.0128095
0.00671798
0.00133938
0.00140743
0.00143787
0.00155234
0.00160729
0.00181088
0.00191352
0.00231195
0.00250422
0.00336505
0.00375166
0.00652678
0.0104694
0.0128444
0.00660669
0.00141478
0.00144312
0.0015582
0.00160854
0.0018107
0.00190351
0.0023007
0.00247664
0.00333719
0.00367485
0.00643744
0.0104697
0.0129057
0.00662895
0.00143875
0.00147384
0.00158878
0.00165134
0.00185402
0.00196929
0.00236353
0.00257312
0.00341613
0.00380676
0.00662223
0.0106013
0.012946
0.00652973
0.00148292
0.0015996
0.00165889
0.0018627
0.00196978
0.00236405
0.0025608
0.00340597
0.00377052
0.00661766
0.0106552
0.0129898
0.00652632
0.00150993
0.00162537
0.00169455
0.00189648
0.00202267
0.00241298
0.00263915
0.00346462
0.00386825
0.00674049
0.0107503
0.0130251
0.00644216
0.00152096
0.00163903
0.00170566
0.0019103
0.00203054
0.00242164
0.00263805
0.00346435
0.00385824
0.00677506
0.0108165
0.0130567
0.00642039
0.00166083
0.00173598
0.00193725
0.00207269
0.00245916
0.00269943
0.00350767
0.0039307
0.00686548
0.010895
0.0130834
0.00635021
0.00167569
0.00174866
0.00195339
0.00208549
0.00247301
0.00270637
0.00351265
0.00393677
0.0069158
0.0109602
0.0131056
0.00631766
0.00169357
0.00177364
0.00197535
0.0021191
0.00250173
0.00275308
0.00354484
0.00399106
0.00698858
0.011027
0.0131243
0.00625956
0.00170676
0.00178608
0.00199172
0.00213418
0.0025177
0.002766
0.00355301
0.00400713
0.00704138
0.0110851
0.0131391
0.006223
0.00180747
0.0020101
0.00216024
0.00253979
0.00280048
0.00357613
0.004047
0.00710048
0.0111403
0.0131507
0.00617562
0.00181873
0.00202361
0.00217459
0.00255519
0.00281591
0.00358539
0.00406673
0.00714839
0.0111885
0.0131592
0.0061402
0.00183472
0.00203841
0.00219479
0.00257204
0.00283979
0.00360154
0.00409552
0.0071946
0.0112314
0.0131651
0.00610259
0.00184446
0.00204983
0.00220704
0.00258385
0.00285449
0.00361077
0.0041146
0.00723257
0.0112676
0.0131685
0.00607211
0.00185576
0.00206036
0.00222009
0.00259671
0.00287059
0.00362177
0.00413431
0.00726558
0.0112972
0.0131696
0.00604405
0.00186333
0.00206793
0.00223008
0.00260509
0.00288166
0.0036282
0.00414879
0.00729164
0.0113202
0.0131693
0.00602118
0.00186953
0.00207475
0.00223755
0.00261246
0.00289059
0.00363446
0.0041604
0.00731148
0.011337
0.0131684
0.00600258
0.0020787
0.00224262
0.00261703
0.00289655
0.00363821
0.00416798
0.00732439
0.0113474
0.0131672
0.00598941
0.00208083
0.00224513
0.00261936
0.00289941
0.00364002
0.00417154
0.00733029
0.0113517
0.0131657
0.00598123
0.00131797
0.00137469
0.00139962
0.00149569
0.00153152
0.00170533
0.00175113
0.00210396
0.00213798
0.00295933
0.00293339
0.00565438
0.0101207
0.0135235
0.00728645
0.0013412
0.00139807
0.0014299
0.00152586
0.00157446
0.00174613
0.00181437
0.00215657
0.00222991
0.00302739
0.00308134
0.00595829
0.0103743
0.013595
0.00717627
0.0014024
0.00143263
0.00152877
0.00157359
0.00174482
0.00180502
0.00214804
0.00220545
0.0030067
0.00300222
0.00586682
0.0103861
0.0136537
0.00720079
0.0014221
0.00145818
0.0015528
0.00160841
0.00177591
0.0018561
0.00218761
0.00227931
0.00305154
0.00310509
0.00603721
0.0105216
0.0137125
0.00710554
0.00146428
0.0015601
0.00161292
0.00178153
0.00185544
0.00218798
0.00226876
0.0030438
0.00306497
0.00603948
0.0105902
0.0137619
0.00710377
0.00148618
0.00157987
0.00164153
0.00180531
0.00189595
0.00221743
0.0023273
0.00307397
0.00313858
0.00614985
0.0106919
0.0138084
0.00702403
0.00149413
0.00158975
0.00164906
0.00181475
0.0019011
0.00222341
0.00232665
0.00307235
0.00312363
0.00619017
0.0107714
0.0138477
0.00700378
0.0016062
0.00167281
0.00183336
0.00193283
0.00224528
0.00237157
0.00309273
0.00317655
0.00627398
0.0108589
0.0138832
0.00693734
0.00161705
0.00168182
0.00184446
0.0019416
0.00225428
0.00237749
0.00309342
0.00317728
0.00632816
0.0109358
0.0139132
0.00690632
0.00163041
0.00170096
0.00185942
0.00196652
0.00227089
0.00241079
0.00310735
0.00321561
0.00639814
0.011012
0.0139391
0.00685108
0.00164021
0.00171001
0.00187066
0.00197721
0.00228093
0.00242136
0.0031094
0.00322626
0.00645369
0.0110805
0.0139602
0.00681579
0.00172569
0.00188313
0.00199624
0.00229384
0.00244551
0.00311877
0.0032545
0.00651258
0.0111445
0.0139774
0.0067704
0.0017345
0.00189266
0.00200666
0.00230311
0.00245764
0.00312138
0.00326918
0.00656267
0.0112012
0.0139906
0.00673593
0.001746
0.00190258
0.00202097
0.00231318
0.00247447
0.00312748
0.00329004
0.00661006
0.0112517
0.0140002
0.00669962
0.00175357
0.00191043
0.00202998
0.00232037
0.00248551
0.00313033
0.00330452
0.00665023
0.0112945
0.0140065
0.00666978
0.00176165
0.00191764
0.00203944
0.00232783
0.00249698
0.0031342
0.00331919
0.00668488
0.01133
0.0140099
0.00664227
0.00176733
0.00192295
0.00204638
0.00233303
0.00250507
0.00313624
0.00333018
0.00671257
0.0113578
0.014011
0.0066195
0.00177204
0.00192754
0.00205193
0.00233742
0.00251159
0.00313831
0.00333894
0.00673352
0.0113781
0.0140108
0.0066013
0.00193028
0.00205548
0.00234014
0.00251582
0.00313949
0.00334457
0.00674717
0.0113909
0.0140099
0.00658785
0.00193173
0.00205729
0.00234152
0.00251787
0.00314002
0.0033472
0.00675346
0.0113965
0.0140085
0.00657942
0.00131109
0.00135116
0.00138578
0.00145427
0.00150168
0.0016304
0.00168231
0.00196168
0.00196332
0.0027054
0.00249481
0.00544882
0.0102979
0.0143709
0.00782401
0.00133062
0.00137074
0.00141055
0.00147847
0.001536
0.0016604
0.001732
0.00199533
0.00203866
0.00274391
0.00263479
0.00576348
0.0105771
0.0144687
0.00771184
0.00137255
0.00141165
0.00147889
0.00153417
0.00165764
0.00172398
0.0019876
0.00201793
0.00272799
0.00255396
0.00568993
0.0106156
0.0145369
0.00774174
0.00138849
0.00143196
0.00149762
0.00156144
0.00167979
0.00176309
0.0020109
0.00207619
0.00274715
0.0026468
0.00585233
0.0107626
0.0146127
0.00764771
0.00143599
0.00150204
0.00156423
0.0016827
0.00176228
0.00201007
0.00206861
0.00274083
0.00260893
0.00587749
0.0108563
0.0146748
0.00764958
0.00145298
0.00151711
0.00158622
0.00169927
0.00179274
0.00202631
0.00211349
0.00274995
0.00267274
0.00598509
0.0109734
0.0147343
0.00757227
0.00145869
0.00152385
0.00159156
0.00170525
0.00179645
0.00202937
0.00211463
0.0027466
0.00266228
0.00604368
0.0110742
0.0147859
0.00755456
0.00153624
0.00160936
0.00171794
0.00181987
0.00204096
0.00214836
0.00275068
0.00270703
0.00613126
0.0111783
0.0148327
0.00749064
0.00154383
0.00161587
0.0017252
0.00182611
0.00204584
0.00215493
0.00274746
0.00271309
0.00619939
0.0112735
0.0148732
0.00746138
0.00155384
0.00162998
0.00173523
0.00184405
0.00205463
0.00217929
0.00274889
0.00274561
0.00627607
0.0113655
0.0149084
0.00740827
0.0015609
0.00163653
0.00174255
0.00185179
0.00206
0.00218903
0.00274576
0.00276052
0.00634287
0.0114496
0.014938
0.00737415
0.00164757
0.0017509
0.00186526
0.00206701
0.0022066
0.00274584
0.00278594
0.00640938
0.0115275
0.0149624
0.00733025
0.00165421
0.00175737
0.00187293
0.00207189
0.00221689
0.00274319
0.00280349
0.00646858
0.0115971
0.0149817
0.00729651
0.00166229
0.00176393
0.00188272
0.00207744
0.00222933
0.00274247
0.00282362
0.00652316
0.0116587
0.0149962
0.00726104
0.00166789
0.00176916
0.00188933
0.00208134
0.00223818
0.00274062
0.00283968
0.00657048
0.0117114
0.0150063
0.00723153
0.00167358
0.00177401
0.00189594
0.0020854
0.00224671
0.00273969
0.00285461
0.00661093
0.0117551
0.0150126
0.00720416
0.00167768
0.00177764
0.00190079
0.00208828
0.00225299
0.00273845
0.00286639
0.00664353
0.0117895
0.0150156
0.00718156
0.00168113
0.00178071
0.00190472
0.0020907
0.00225794
0.0027377
0.0028755
0.00666809
0.0118148
0.0150163
0.00716309
0.00178253
0.00190716
0.00209216
0.00226108
0.00273705
0.00288136
0.00668416
0.011831
0.0150158
0.00714939
0.00178349
0.00190841
0.00209289
0.0022626
0.00273665
0.00288408
0.00669169
0.0118383
0.0150144
0.00714038
0.001295
0.00131636
0.00136552
0.0014007
0.00147405
0.00154292
0.0016431
0.00181394
0.00190322
0.00249222
0.00239048
0.00580567
0.0109272
0.0153964
0.00834433
0.00131098
0.00133309
0.00138495
0.00142093
0.0015005
0.00156699
0.00168183
0.00183863
0.00196935
0.00251506
0.00255897
0.00613674
0.0112325
0.0155138
0.00822751
0.00133293
0.00138514
0.00141929
0.00149861
0.00156242
0.00167571
0.00182928
0.00195299
0.00249797
0.00247371
0.00610074
0.0113091
0.0155972
0.00826475
0.00134601
0.00140045
0.00143445
0.00151886
0.0015795
0.00170484
0.00184441
0.00200131
0.00250106
0.0025789
0.0062612
0.0114741
0.0156883
0.0081698
0.00140318
0.00143665
0.00152091
0.00158026
0.00170478
0.00184185
0.00199782
0.00249325
0.00255133
0.00632073
0.0115996
0.0157657
0.00817622
0.00141564
0.00144857
0.00153682
0.00159274
0.00172681
0.0018515
0.00203374
0.00248942
0.00262017
0.00643606
0.0117385
0.0158387
0.00809979
0.00141981
0.00145296
0.00154091
0.00159635
0.00173009
0.00185244
0.0020378
0.00248288
0.00262613
0.00652102
0.0118653
0.0159035
0.0080848
0.00146263
0.0015535
0.00160574
0.00174663
0.00185909
0.00206417
0.0024776
0.00267497
0.006622
0.011991
0.015962
0.00802231
0.0014679
0.00155837
0.00161051
0.00175155
0.0018616
0.00207234
0.00247038
0.00269765
0.00671112
0.0121084
0.0160132
0.00799463
0.00147569
0.00156823
0.00161781
0.00176386
0.00186673
0.00209109
0.00246508
0.00273639
0.00680258
0.01222
0.0160579
0.00794284
0.00148083
0.00157299
0.0016227
0.00176961
0.00186971
0.00210093
0.00245807
0.00276535
0.00688671
0.0123229
0.0160958
0.00790959
0.00158039
0.00162869
0.00177876
0.00187405
0.00211455
0.00245316
0.00279856
0.00696719
0.0124174
0.0161272
0.0078666
0.0015852
0.00163326
0.00178436
0.00187689
0.0021239
0.00244727
0.00282717
0.00704045
0.0125022
0.0161524
0.00783325
0.00159067
0.00163793
0.00179088
0.00188038
0.00213373
0.00244295
0.00285511
0.00710691
0.0125769
0.0161716
0.00779817
0.0015946
0.00164162
0.00179559
0.00188285
0.00214127
0.00243855
0.00287938
0.00716502
0.0126408
0.0161854
0.00776863
0.00159849
0.0016451
0.00180005
0.00188542
0.00214803
0.00243518
0.00290068
0.0072144
0.0126939
0.0161942
0.00774107
0.00160133
0.00164771
0.00180339
0.00188729
0.00215318
0.00243225
0.00291795
0.0072543
0.0127357
0.0161988
0.0077183
0.00160378
0.00164993
0.00180606
0.00188885
0.00215711
0.00243009
0.00293108
0.00728431
0.0127665
0.0162003
0.00769951
0.00165121
0.00180769
0.00188976
0.00215957
0.00242852
0.00293962
0.00730404
0.0127865
0.0162
0.00768518
0.00165187
0.0018085
0.0018902
0.00216073
0.00242767
0.00294365
0.00731341
0.0127957
0.0161985
0.00767538
0.00126999
0.001278
0.00133827
0.00134683
0.00144634
0.00146
0.00162766
0.0016775
0.001949
0.00229704
0.00266397
0.00668379
0.0119922
0.0165746
0.00885314
0.00128292
0.00129275
0.00135309
0.00136493
0.00146598
0.00148272
0.00165701
0.00170344
0.00200801
0.00232098
0.00288813
0.00703351
0.0123222
0.0167056
0.00872956
0.0012913
0.00135263
0.00136187
0.00146421
0.0014765
0.00165263
0.00169102
0.00199674
0.00229584
0.00280584
0.00704694
0.0124423
0.0168061
0.00877573
0.00130229
0.00136362
0.00137494
0.00147827
0.00149199
0.00167298
0.00170592
0.00203635
0.00229492
0.00293138
0.00721306
0.0126291
0.0169101
0.00867814
0.0013654
0.00137572
0.00147993
0.00149151
0.00167375
0.00170218
0.0020373
0.00228276
0.00292978
0.00731182
0.0127877
0.0170024
0.00868983
0.00137405
0.00138576
0.00149058
0.0015026
0.0016884
0.0017115
0.00206535
0.00227594
0.00301013
0.00744411
0.0129514
0.0170876
0.00861309
0.00137705
0.0013887
0.00149377
0.00150513
0.00169144
0.00171212
0.00207209
0.0022663
0.00304517
0.00755893
0.0131053
0.0171644
0.00860098
0.00139671
0.0015021
0.00151342
0.00170212
0.00171876
0.00209208
0.00225953
0.00310743
0.00768039
0.0132545
0.0172332
0.00853912
0.0014006
0.00150572
0.0015172
0.00170598
0.00172136
0.00210108
0.00225082
0.00315557
0.00779423
0.013395
0.017294
0.00851291
0.00140704
0.00151222
0.00152357
0.00171371
0.00172671
0.00211518
0.00224501
0.00321087
0.00790592
0.0135272
0.0173469
0.00846189
0.00141107
0.00151564
0.00152752
0.00171779
0.00173002
0.00212432
0.00223799
0.00326093
0.00801077
0.0136493
0.0173919
0.00842928
0.00152034
0.00153261
0.00172353
0.00173466
0.00213463
0.00223321
0.00331087
0.00810929
0.0137609
0.0174294
0.0083868
0.00152364
0.00153644
0.00172733
0.00173801
0.00214245
0.00222813
0.00335674
0.00819948
0.013861
0.0174595
0.00835359
0.00152716
0.00154037
0.00173141
0.00174179
0.00214989
0.00222447
0.00339929
0.00828068
0.0139489
0.0174827
0.00831856
0.00152976
0.00154348
0.00173449
0.00174476
0.00215579
0.0022211
0.00343695
0.00835174
0.0140242
0.0174993
0.00828867
0.00153231
0.00154641
0.00173732
0.0017476
0.00216083
0.00221859
0.00346939
0.00841193
0.0140864
0.01751
0.00826118
0.00153421
0.00154865
0.00173947
0.0017498
0.00216468
0.00221654
0.00349581
0.00846054
0.0141356
0.0175158
0.00823795
0.00153588
0.00155052
0.00174117
0.00175155
0.00216754
0.00221504
0.00351579
0.00849709
0.0141717
0.0175177
0.00821866
0.00155161
0.00174218
0.00175261
0.00216929
0.00221391
0.00352892
0.0085212
0.0141952
0.0175173
0.00820363
0.00155214
0.00174265
0.0017531
0.00217007
0.00221327
0.00353519
0.00853274
0.0142063
0.0175154
0.00819285
0.0012354
0.00124239
0.00130081
0.00130413
0.00140931
0.0014032
0.00161234
0.0015892
0.00205158
0.00214681
0.00333851
0.00796074
0.013387
0.0178611
0.00936086
0.00124616
0.0012556
0.00131248
0.00132109
0.00142417
0.0014274
0.00163436
0.00162503
0.00210153
0.00219738
0.00362555
0.00833065
0.0137405
0.0180008
0.00922942
0.00125364
0.00131123
0.0013175
0.00142194
0.00142056
0.00163041
0.00161031
0.00209429
0.00215776
0.00356943
0.00840007
0.0139042
0.0181189
0.00928579
0.00126292
0.00131912
0.00132918
0.00143142
0.00143646
0.00164343
0.00163135
0.00212293