/*--------------------------------*- C++ -*----------------------------------*\
  =========                 |
  \\      /  F ield         | OpenFOAM: The Open Source CFD Toolbox
   \\    /   O peration     | Website:  https://openfoam.org
    \\  /    A nd           | Version:  6
     \\/     M anipulation  |
\*---------------------------------------------------------------------------*/
FoamFile
{
    version     2.0;
    format      ascii;
    class       volScalarField;
    location    "1.2";
    object      nut;
}
// * * * * * * * * * * * * * * * * * * * * * * * * * * * * * * * * * * * * * //

dimensions      [0 2 -1 0 0 0 0];

internalField   nonuniform List<scalar> 
63552
(
4.18937e-06
4.26027e-06
5.27558e-06
4.68539e-06
6.93016e-06
5.33437e-06
3.55788e-06
6.23427e-06
7.298e-06
4.35346e-06
3.84512e-06
4.98027e-06
5.18386e-06
4.76504e-06
1.3606e-05
3.56509e-06
5.42367e-06
5.61043e-06
3.42656e-06
6.00695e-06
5.57586e-06
3.62877e-06
3.67762e-06
3.69188e-06
7.46644e-06
4.23009e-06
8.46512e-06
4.74991e-06
4.74115e-06
6.24891e-06
4.20383e-06
4.05385e-06
4.35521e-06
5.72877e-06
6.93377e-06
3.73045e-06
6.12275e-06
3.77185e-06
3.80594e-06
4.24831e-06
4.40932e-06
8.55882e-06
4.71284e-06
7.68179e-06
3.75962e-08
2.45345e-06
4.32389e-06
3.31581e-06
6.15899e-06
5.79724e-06
7.50751e-06
3.74526e-06
7.49201e-06
4.2733e-06
9.29472e-06
3.72652e-06
4.73965e-06
7.93486e-06
1.38937e-07
5.16569e-07
4.14735e-06
6.04549e-06
5.09236e-06
4.79673e-06
3.81871e-06
6.32253e-06
6.8048e-06
7.94411e-06
4.54102e-06
4.6848e-06
1.36636e-05
6.92848e-07
4.56546e-06
2.29299e-06
5.07835e-06
3.52738e-06
3.47836e-06
5.86524e-06
6.0228e-06
7.29903e-06
7.1483e-06
4.44098e-06
4.6502e-06
5.89679e-06
3.71311e-07
4.01524e-07
4.06978e-06
5.32043e-06
5.60565e-06
3.67228e-06
3.59732e-06
3.56663e-06
5.9734e-06
3.67759e-06
4.7212e-06
4.60147e-06
6.79879e-06
4.25352e-07
4.30696e-07
3.80751e-06
3.26451e-06
5.8543e-06
3.58476e-06
5.53153e-06
5.78862e-06
4.33691e-06
7.65356e-06
4.27175e-06
6.1338e-06
3.13338e-07
6.07813e-07
1.79148e-07
5.39496e-07
1.74776e-06
5.61195e-06
6.10288e-06
3.54145e-06
6.42239e-06
3.76344e-06
4.32551e-06
6.69818e-06
1.04507e-07
1.90469e-07
9.27846e-07
5.85625e-07
1.71636e-06
3.3151e-06
3.45655e-06
3.85111e-06
5.86937e-06
4.25935e-06
4.32299e-06
9.25779e-06
1.95641e-07
1.76691e-07
2.20082e-07
8.71304e-07
6.24019e-07
1.1588e-06
5.3192e-06
5.05873e-06
3.66987e-06
4.07754e-06
6.66464e-06
8.13051e-06
1.8817e-07
3.14882e-07
5.13196e-08
6.38923e-07
2.36913e-06
1.04898e-06
5.04829e-06
3.79169e-06
4.10799e-06
3.87386e-06
4.18195e-07
1.37988e-07
1.73298e-07
4.04697e-07
4.67207e-07
4.71517e-07
2.53164e-06
3.36966e-06
5.04999e-06
6.58457e-06
6.47303e-06
1.72346e-06
1.33494e-07
1.76499e-07
2.00607e-07
3.70151e-07
8.08954e-07
5.81643e-07
2.71863e-06
5.51948e-06
5.63996e-06
4.86663e-06
1.19228e-06
1.19335e-07
1.56536e-07
2.19624e-07
3.19868e-07
4.67277e-07
1.15159e-06
1.61068e-06
3.8086e-06
5.74761e-06
5.30598e-06
1.25366e-06
1.12664e-07
1.43992e-07
1.90686e-07
2.87359e-07
4.44433e-07
7.18649e-07
1.58958e-06
3.01468e-06
4.52043e-06
3.25264e-06
7.54381e-07
1.06627e-07
1.36009e-07
1.79248e-07
2.62207e-07
3.98937e-07
6.87102e-07
1.2393e-06
2.54189e-06
3.72969e-06
3.27884e-06
1.05617e-06
1.02796e-07
1.30325e-07
1.69984e-07
2.47904e-07
3.70045e-07
6.23933e-07
1.14771e-06
2.26003e-06
3.33066e-06
2.7655e-06
8.27179e-07
1.26693e-07
1.64745e-07
2.38346e-07
3.53497e-07
5.89831e-07
1.06752e-06
2.09787e-06
3.0933e-06
2.61459e-06
8.20654e-07
1.25021e-07
1.62097e-07
2.34e-07
3.45492e-07
5.74391e-07
1.0339e-06
2.02227e-06
2.98212e-06
2.52127e-06
7.96209e-07
4.77511e-06
4.96386e-06
5.35397e-06
5.34071e-06
5.89732e-06
5.94469e-06
6.08762e-06
7.03027e-06
8.21035e-06
9.61464e-06
1.14509e-05
1.69513e-05
2.35639e-05
3.02595e-05
2.20033e-05
4.52144e-06
4.95119e-06
5.19892e-06
5.17689e-06
5.64436e-06
6.17929e-06
6.43019e-06
7.17024e-06
8.11027e-06
1.05593e-05
1.25971e-05
1.88215e-05
2.5608e-05
3.05454e-05
2.09303e-05
4.2215e-06
4.4802e-06
4.76527e-06
5.54526e-06
6.29448e-06
6.43202e-06
7.57902e-06
8.26591e-06
1.00893e-05
1.23706e-05
1.78402e-05
2.72576e-05
3.04155e-05
2.05593e-05
3.38341e-06
3.61846e-06
4.416e-06
5.12652e-06
6.25419e-06
6.85397e-06
8.06389e-06
8.71765e-06
1.13597e-05
1.32812e-05
2.03871e-05
2.63924e-05
2.99631e-05
1.95671e-05
3.48906e-06
4.12333e-06
4.94496e-06
6.24958e-06
6.72295e-06
7.5716e-06
8.81488e-06
1.11205e-05
1.39592e-05
2.00479e-05
2.75275e-05
3.02766e-05
1.91801e-05
3.8582e-06
5.06982e-06
4.68946e-06
6.146e-06
6.79148e-06
7.84849e-06
9.48344e-06
1.15904e-05
1.45224e-05
2.06735e-05
2.72613e-05
3.0456e-05
1.81093e-05
3.81082e-06
3.02167e-06
5.05027e-06
6.19257e-06
6.972e-06
7.95273e-06
9.23386e-06
1.13758e-05
1.46341e-05
2.01663e-05
2.83016e-05
3.01747e-05
1.78734e-05
4.56384e-06
3.94271e-06
5.67697e-06
6.42178e-06
8.47317e-06
9.75778e-06
1.23497e-05
1.51593e-05
2.10913e-05
3.02163e-05
3.11084e-05
1.6766e-05
3.88765e-06
4.88777e-06
4.8509e-06
5.97717e-06
7.67036e-06
1.02361e-05
1.26983e-05
1.48908e-05
2.21761e-05
2.91301e-05
3.13679e-05
1.66764e-05
4.2777e-06
4.41795e-06
5.78192e-06
6.61692e-06
8.1893e-06
1.0067e-05
1.25e-05
1.53954e-05
2.24618e-05
2.95876e-05
3.2041e-05
1.57166e-05
4.26001e-06
4.83951e-06
5.32402e-06
6.49373e-06
8.07728e-06
1.00962e-05
1.33754e-05
1.64685e-05
2.1887e-05
3.00161e-05
3.37145e-05
1.54242e-05
4.79533e-06
5.7471e-06
6.66104e-06
8.37488e-06
1.0355e-05
1.30065e-05
1.69477e-05
2.28429e-05
3.12979e-05
3.27752e-05
1.49005e-05
4.91351e-06
5.72672e-06
6.78818e-06
8.35995e-06
1.0381e-05
1.34258e-05
1.70311e-05
2.39877e-05
3.3128e-05
3.50524e-05
1.46827e-05
5.01583e-06
5.84579e-06
6.8977e-06
8.61894e-06
1.04835e-05
1.3499e-05
1.7297e-05
2.49252e-05
3.31535e-05
3.43288e-05
1.43019e-05
5.05361e-06
5.94842e-06
6.97577e-06
8.61769e-06
1.06919e-05
1.35432e-05
1.74633e-05
2.48706e-05
3.36677e-05
3.53096e-05
1.41412e-05
5.14357e-06
5.99741e-06
7.07346e-06
8.79268e-06
1.07241e-05
1.37834e-05
1.75759e-05
2.51445e-05
3.38249e-05
3.5572e-05
1.40209e-05
5.18031e-06
6.06669e-06
7.14034e-06
8.82435e-06
1.08437e-05
1.37959e-05
1.77488e-05
2.52944e-05
3.40682e-05
3.56432e-05
1.3725e-05
5.2211e-06
6.11186e-06
7.1853e-06
8.90265e-06
1.0892e-05
1.39068e-05
1.78239e-05
2.54163e-05
3.42306e-05
3.57981e-05
1.36862e-05
6.13996e-06
7.22318e-06
8.93773e-06
1.09375e-05
1.39501e-05
1.7899e-05
2.54893e-05
3.433e-05
3.58768e-05
1.35747e-05
6.15611e-06
7.23922e-06
8.95887e-06
1.09561e-05
1.39784e-05
1.79334e-05
2.55221e-05
3.43779e-05
3.59202e-05
1.35282e-05
9.22243e-06
9.52485e-06
9.79394e-06
1.02853e-05
1.07982e-05
1.21299e-05
1.35632e-05
1.66321e-05
2.01327e-05
2.62008e-05
3.2232e-05
4.70956e-05
6.77276e-05
7.37143e-05
2.41452e-05
9.28309e-06
9.63591e-06
9.92627e-06
1.05226e-05
1.12606e-05
1.2854e-05
1.45208e-05
1.7817e-05
2.15445e-05
2.79979e-05
3.44987e-05
5.00076e-05
7.02967e-05
7.36168e-05
2.33861e-05
9.55933e-06
9.82987e-06
1.05597e-05
1.13691e-05
1.30054e-05
1.46547e-05
1.80304e-05
2.16717e-05
2.78738e-05
3.43268e-05
4.96675e-05
7.0905e-05
7.4266e-05
2.30818e-05
9.71328e-06
9.94389e-06
1.08483e-05
1.17942e-05
1.36834e-05
1.56204e-05
1.91295e-05
2.30419e-05
2.96825e-05
3.63846e-05
5.26322e-05
7.19901e-05
7.40125e-05
2.23786e-05
1.00702e-05
1.10386e-05
1.19758e-05
1.38649e-05
1.57995e-05
1.93618e-05
2.3222e-05
2.97413e-05
3.66757e-05
5.28052e-05
7.34038e-05
7.49635e-05
2.20713e-05
1.03715e-05
1.13255e-05
1.24062e-05
1.44741e-05
1.66969e-05
2.05018e-05
2.45405e-05
3.10496e-05
3.81494e-05
5.43808e-05
7.3793e-05
7.49612e-05
2.14325e-05
1.05216e-05
1.14164e-05
1.25922e-05
1.46942e-05
1.69623e-05
2.08725e-05
2.4993e-05
3.15194e-05
3.87625e-05
5.50239e-05
7.55838e-05
7.54741e-05
2.11136e-05
1.17754e-05
1.29388e-05
1.51272e-05
1.77057e-05
2.20046e-05
2.62275e-05
3.2773e-05
3.99104e-05
5.64757e-05
7.69398e-05
7.60015e-05
2.05745e-05
1.19946e-05
1.31608e-05
1.54535e-05
1.80612e-05
2.21909e-05
2.68328e-05
3.34817e-05
4.0507e-05
5.74629e-05
7.73453e-05
7.61296e-05
2.02502e-05
1.22611e-05
1.36008e-05
1.57313e-05
1.8451e-05
2.27548e-05
2.78281e-05
3.43568e-05
4.15575e-05
5.83742e-05
7.82601e-05
7.66123e-05
1.98059e-05
1.24916e-05
1.37004e-05
1.61916e-05
1.87741e-05
2.324e-05
2.81635e-05
3.54155e-05
4.27825e-05
5.90206e-05
7.90955e-05
7.70811e-05
1.95207e-05
1.42051e-05
1.62892e-05
1.92686e-05
2.35886e-05
2.84473e-05
3.60836e-05
4.37992e-05
6.03594e-05
8.04427e-05
7.71869e-05
1.91568e-05
1.4201e-05
1.6811e-05
1.94098e-05
2.3862e-05
2.94397e-05
3.63191e-05
4.46184e-05
6.14483e-05
8.16401e-05
7.79355e-05
1.88861e-05
1.46428e-05
1.68438e-05
1.98575e-05
2.43891e-05
2.91325e-05
3.71317e-05
4.51997e-05
6.27734e-05
8.22829e-05
7.78241e-05
1.86065e-05
1.46758e-05
1.72273e-05
1.99988e-05
2.44295e-05
2.99399e-05
3.70039e-05
4.58785e-05
6.33822e-05
8.30428e-05
7.8429e-05
1.83817e-05
1.49389e-05
1.73187e-05
2.02515e-05
2.48613e-05
2.99284e-05
3.76896e-05
4.60615e-05
6.40467e-05
8.37356e-05
7.87319e-05
1.81777e-05
1.50302e-05
1.75022e-05
2.04304e-05
2.4944e-05
3.02546e-05
3.76958e-05
4.65464e-05
6.44722e-05
8.421e-05
7.8721e-05
1.80385e-05
1.51393e-05
1.76176e-05
2.05424e-05
2.51313e-05
3.03721e-05
3.79538e-05
4.67042e-05
6.47804e-05
8.45475e-05
7.88721e-05
1.79015e-05
1.76902e-05
2.06374e-05
2.52203e-05
3.04878e-05
3.80556e-05
4.68841e-05
6.4976e-05
8.47549e-05
7.8922e-05
1.78241e-05
1.7731e-05
2.06792e-05
2.52715e-05
3.05371e-05
3.81176e-05
4.69617e-05
6.50691e-05
8.4859e-05
7.89553e-05
1.77763e-05
1.61056e-05
1.67785e-05
1.70493e-05
1.81635e-05
1.88949e-05
2.13477e-05
2.36851e-05
2.91959e-05
3.50483e-05
4.64825e-05
5.68818e-05
8.34362e-05
0.00011838
0.000114735
2.75058e-05
1.63894e-05
1.70936e-05
1.74895e-05
1.87458e-05
1.9768e-05
2.24983e-05
2.52173e-05
3.10752e-05
3.74203e-05
4.91135e-05
6.01519e-05
8.75773e-05
0.000120926
0.000113343
2.67666e-05
1.72386e-05
1.76168e-05
1.89343e-05
1.99152e-05
2.26091e-05
2.52514e-05
3.10935e-05
3.72741e-05
4.88806e-05
5.98287e-05
8.73432e-05
0.000121586
0.000114931
2.64417e-05
1.75229e-05
1.80112e-05
1.94169e-05
2.06444e-05
2.35801e-05
2.66281e-05
3.27362e-05
3.9368e-05
5.11739e-05
6.26137e-05
9.06751e-05
0.000123503
0.000114222
2.57501e-05
1.81973e-05
1.9643e-05
2.0877e-05
2.38031e-05
2.67912e-05
3.29618e-05
3.94538e-05
5.12691e-05
6.27442e-05
9.11754e-05
0.000124824
0.00011509
2.54009e-05
1.85902e-05
2.00648e-05
2.15253e-05
2.4636e-05
2.80014e-05
3.44115e-05
4.12747e-05
5.31374e-05
6.49244e-05
9.34043e-05
0.000125899
0.000114744
2.47786e-05
1.87696e-05
2.04063e-05
2.17987e-05
2.49036e-05
2.82422e-05
3.46974e-05
4.16592e-05
5.3643e-05
6.55405e-05
9.45271e-05
0.00012759
0.000115103
2.44224e-05
2.07154e-05
2.22744e-05
2.55515e-05
2.92234e-05
3.59084e-05
4.31747e-05
5.51715e-05
6.7254e-05
9.63261e-05
0.000128749
0.000115041
2.388e-05
2.10719e-05
2.25811e-05
2.59508e-05
2.95343e-05
3.61581e-05
4.36318e-05
5.58577e-05
6.8113e-05
9.75153e-05
0.000129736
0.00011498
2.35359e-05
2.1414e-05
2.31487e-05
2.63696e-05
3.01579e-05
3.69514e-05
4.47938e-05
5.70702e-05
6.95508e-05
9.89169e-05
0.00013081
0.000115016
2.30818e-05
2.16632e-05
2.32393e-05
2.68502e-05
3.05864e-05
3.74697e-05
4.51394e-05
5.78695e-05
7.06715e-05
0.000100171
0.000131727
0.00011495
2.27658e-05
2.39275e-05
2.71136e-05
3.11315e-05
3.79522e-05
4.58366e-05
5.86365e-05
7.18766e-05
0.000101576
0.000132842
0.000114947
2.24094e-05
2.38707e-05
2.7629e-05
3.14275e-05
3.83756e-05
4.6606e-05
5.91201e-05
7.27664e-05
0.000102809
0.000133768
0.000114948
2.21321e-05
2.44574e-05
2.77729e-05
3.19099e-05
3.89625e-05
4.66987e-05
5.98131e-05
7.35297e-05
0.000104108
0.000134594
0.000114859
2.18514e-05
2.44781e-05
2.81966e-05
3.21657e-05
3.90756e-05
4.74742e-05
5.99983e-05
7.42631e-05
0.00010494
0.000135333
0.000114912
2.16299e-05
2.48181e-05
2.83419e-05
3.24395e-05
3.96111e-05
4.76047e-05
6.0672e-05
7.46442e-05
0.000105689
0.000136027
0.0001149
2.1432e-05
2.49301e-05
2.85546e-05
3.26999e-05
3.97278e-05
4.8002e-05
6.07756e-05
7.5193e-05
0.000106245
0.000136455
0.000114789
2.12698e-05
2.50654e-05
2.8709e-05
3.28358e-05
3.99675e-05
4.81733e-05
6.10889e-05
7.54419e-05
0.000106635
0.000136781
0.000114765
2.11531e-05
2.87981e-05
3.29609e-05
4.00848e-05
4.83319e-05
6.12283e-05
7.56738e-05
0.000106895
0.000136983
0.000114721
2.10677e-05
2.88496e-05
3.30154e-05
4.01509e-05
4.84009e-05
6.1308e-05
7.5777e-05
0.000107019
0.000137082
0.000114693
2.1022e-05
2.46103e-05
2.56872e-05
2.59199e-05
2.76502e-05
2.83381e-05
3.16809e-05
3.40744e-05
4.14441e-05
4.81714e-05
6.4627e-05
7.8266e-05
0.000118582
0.000168966
0.00015445
3.00166e-05
2.50368e-05
2.61203e-05
2.65158e-05
2.83598e-05
2.93756e-05
3.29745e-05
3.58829e-05
4.36175e-05
5.10852e-05
6.78399e-05
8.25049e-05
0.000124002
0.000171649
0.000151483
2.92652e-05
2.62977e-05
2.66827e-05
2.8567e-05
2.95138e-05
3.30543e-05
3.58059e-05
4.34677e-05
5.0673e-05
6.73644e-05
8.17504e-05
0.000123462
0.000172521
0.000153838
2.89098e-05
2.66696e-05
2.7197e-05
2.91319e-05
3.03559e-05
3.40875e-05
3.73459e-05
4.52839e-05
5.31489e-05
6.99658e-05
8.51138e-05
0.000127367
0.000174618
0.000152573
2.82158e-05
2.74193e-05
2.93954e-05
3.06058e-05
3.43506e-05
3.74719e-05
4.53972e-05
5.30645e-05
6.99622e-05
8.50611e-05
0.000127946
0.00017586
0.000153264
2.7836e-05
2.78788e-05
2.98869e-05
3.13391e-05
3.51896e-05
3.87452e-05
4.68688e-05
5.51158e-05
7.20474e-05
8.77027e-05
0.000130719
0.000177307
0.000152699
2.72191e-05
2.80972e-05
3.02394e-05
3.1634e-05
3.55238e-05
3.89921e-05
4.71206e-05
5.53116e-05
7.23962e-05
8.8194e-05
0.000131983
0.000178733
0.000152682
2.68343e-05
3.06475e-05
3.21945e-05
3.61822e-05
4.00027e-05
4.82852e-05
5.69554e-05
7.40259e-05
9.02702e-05
0.000134109
0.000179934
0.000152322
2.63037e-05
3.09618e-05
3.25419e-05
3.66218e-05
4.0352e-05
4.86348e-05
5.72961e-05
7.45645e-05
9.10902e-05
0.000135518
0.000181034
0.000151998
2.59319e-05
3.14135e-05
3.31179e-05
3.71168e-05
4.11022e-05
4.94955e-05
5.85389e-05
7.58189e-05
9.27409e-05
0.000137261
0.000182122
0.000151694
2.54893e-05
3.16179e-05
3.32835e-05
3.7547e-05
4.15328e-05
4.99932e-05
5.89411e-05
7.64367e-05
9.37358e-05
0.000138731
0.000183037
0.000151323
2.51498e-05
3.39638e-05
3.79734e-05
4.21341e-05
5.05734e-05
5.98419e-05
7.72947e-05
9.50077e-05
0.000140224
0.000183996
0.000151023
2.47932e-05
3.39858e-05
3.83581e-05
4.24942e-05
5.10591e-05
6.04211e-05
7.78488e-05
9.58848e-05
0.000141562
0.000184816
0.000150688
2.45023e-05
3.45485e-05
3.86601e-05
4.29911e-05
5.16069e-05
6.08885e-05
7.84753e-05
9.67716e-05
0.000142807
0.000185579
0.000150389
2.42247e-05
3.46284e-05
3.90168e-05
4.33105e-05
5.18356e-05
6.14911e-05
7.88843e-05
9.75123e-05
0.000143757
0.000186213
0.000150115
2.39941e-05
3.49682e-05
3.92325e-05
4.3589e-05
5.23409e-05
6.18084e-05
7.94485e-05
9.80712e-05
0.000144556
0.000186774
0.000149869
2.37939e-05
3.51076e-05
3.94332e-05
4.38865e-05
5.25128e-05
6.21968e-05
7.96687e-05
9.86155e-05
0.000145193
0.000187139
0.000149628
2.3635e-05
3.52507e-05
3.96098e-05
4.404e-05
5.27591e-05
6.24163e-05
7.99812e-05
9.89526e-05
0.000145645
0.000187414
0.000149452
2.351e-05
3.97048e-05
4.4177e-05
5.28911e-05
6.25961e-05
8.01448e-05
9.92126e-05
0.000145949
0.000187583
0.000149308
2.34267e-05
3.97603e-05
4.42383e-05
5.29627e-05
6.26772e-05
8.02321e-05
9.93332e-05
0.000146093
0.00018766
0.000149212
2.33805e-05
3.44323e-05
3.58819e-05
3.60258e-05
3.83433e-05
3.88018e-05
4.29871e-05
4.47428e-05
5.35672e-05
5.91528e-05
7.98207e-05
9.33369e-05
0.00014887
0.000217985
0.000197013
3.19944e-05
3.49488e-05
3.63872e-05
3.67184e-05
3.90928e-05
3.9925e-05
4.42709e-05
4.66545e-05
5.57087e-05
6.22841e-05
8.31966e-05
9.82786e-05
0.000155656
0.000220955
0.000192306
3.12367e-05
3.65668e-05
3.68834e-05
3.93074e-05
4.00559e-05
4.43728e-05
4.6539e-05
5.55247e-05
6.1711e-05
8.25502e-05
9.69727e-05
0.00015458
0.000221886
0.000195254
3.08525e-05
3.70084e-05
3.74852e-05
3.99088e-05
4.09631e-05
4.53635e-05
4.81127e-05
5.72361e-05
6.43006e-05
8.5143e-05
0.00010073
0.000159143
0.000224061
0.000193622
3.01618e-05
3.77069e-05
4.01955e-05
4.12158e-05
4.56702e-05
4.82445e-05
5.73553e-05
6.41255e-05
8.5046e-05
0.000100384
0.000159658
0.000225286
0.000194083
2.9754e-05
3.82354e-05
4.07082e-05
4.1993e-05
4.64466e-05
4.95035e-05
5.8685e-05
6.62243e-05
8.70428e-05
0.000103273
0.000162875
0.000226911
0.000193357
2.91462e-05
3.84798e-05
4.10665e-05
4.22949e-05
4.68389e-05
4.97842e-05
5.89942e-05
6.63478e-05
8.72844e-05
0.000103564
0.000164188
0.000228189
0.000192988
2.87361e-05
4.15089e-05
4.29288e-05
4.74531e-05
5.07851e-05
6.00211e-05
6.80016e-05
8.88046e-05
0.000105787
0.000166617
0.000229476
0.000192396
2.82145e-05
4.1828e-05
4.32643e-05
4.79095e-05
5.11738e-05
6.04628e-05
6.83271e-05
8.92391e-05
0.000106464
0.000168189
0.00023058
0.000191783
2.78236e-05
4.22916e-05
4.38526e-05
4.84027e-05
5.19556e-05
6.12377e-05
6.95838e-05
9.03945e-05
0.000108195
0.000170172
0.000231663
0.000191185
2.73861e-05
4.25048e-05
4.40743e-05
4.88207e-05
5.23833e-05
6.17421e-05
7.00352e-05
9.09179e-05
0.000109064
0.000171757
0.000232575
0.000190539
2.70343e-05
4.46972e-05
4.92892e-05
5.30143e-05
6.23166e-05
7.09717e-05
9.17568e-05
0.00011037
0.00017338
0.000233459
0.000189952
2.66781e-05
4.48319e-05
4.96021e-05
5.33793e-05
6.28006e-05
7.1498e-05
9.22723e-05
0.000111219
0.000174791
0.000234219
0.000189358
2.63801e-05
4.53102e-05
4.99761e-05
5.3897e-05
6.32849e-05
7.21166e-05
9.28657e-05
0.00011217
0.000176074
0.000234895
0.000188818
2.61013e-05
4.54716e-05
5.02723e-05
5.42194e-05
6.35876e-05
7.26141e-05
9.33134e-05
0.000112912
0.00017713
0.000235451
0.000188313
2.58681e-05
4.57767e-05
5.05267e-05
5.45193e-05
6.40056e-05
7.30375e-05
9.37786e-05
0.000113563
0.000178013
0.000235912
0.000187868
2.56665e-05
4.59431e-05
5.07109e-05
5.48071e-05
6.42204e-05
7.33966e-05
9.40513e-05
0.000114098
0.000178724
0.00023624
0.00018748
2.55039e-05
4.60879e-05
5.08892e-05
5.49795e-05
6.44447e-05
7.36444e-05
9.43282e-05
0.000114489
0.000179243
0.000236476
0.000187165
2.53805e-05
5.09852e-05
5.51151e-05
6.45768e-05
7.38274e-05
9.44921e-05
0.000114761
0.000179589
0.000236619
0.000186921
2.5295e-05
5.104e-05
5.51792e-05
6.46464e-05
7.39133e-05
9.45757e-05
0.000114891
0.000179753
0.000236678
0.000186757
2.52492e-05
4.5629e-05
4.73321e-05
4.74608e-05
5.02372e-05
5.04911e-05
5.54818e-05
5.63288e-05
6.66264e-05
6.94e-05
9.39922e-05
0.000102082
0.00017416
0.000266087
0.000243871
3.35904e-05
4.62136e-05
4.78871e-05
4.82376e-05
5.10056e-05
5.1693e-05
5.66976e-05
5.82995e-05
6.85406e-05
7.25835e-05
9.70905e-05
0.000107384
0.00018248
0.000269481
0.000237194
3.28307e-05
4.80594e-05
4.83852e-05
5.12166e-05
5.18061e-05
5.68285e-05
5.81733e-05
6.84222e-05
7.19558e-05
9.64734e-05
0.000105533
0.000180783
0.000270409
0.000240471
3.24227e-05
4.85388e-05
4.90544e-05
5.18284e-05
5.27772e-05
5.77421e-05
5.97621e-05
6.98837e-05
7.45368e-05
9.87223e-05
0.000109447
0.000186027
0.000272722
0.00023856
3.17381e-05
4.92648e-05
5.21247e-05
5.30202e-05
5.80774e-05
5.99052e-05
7.00774e-05
7.43644e-05
9.86554e-05
0.00010876
0.000186508
0.000273996
0.000238647
3.13087e-05
4.98558e-05
5.26426e-05
5.38392e-05
5.87785e-05
6.11631e-05
7.11752e-05
7.64254e-05
0.000100311
0.000111703
0.000190105
0.000275744
0.000237701
3.07086e-05
5.01042e-05
5.30003e-05
5.41397e-05
5.91983e-05
6.14643e-05
7.15601e-05
7.65793e-05
0.00010055
0.000111766
0.000191555
0.000277023
0.00023694
3.02815e-05
5.34446e-05
5.48259e-05
5.97539e-05
6.24616e-05
7.23874e-05
7.81803e-05
0.000101776
0.000113992
0.000194274
0.000278405
0.000236042
2.9765e-05
5.37887e-05
5.5148e-05
6.0206e-05
6.28602e-05
7.28738e-05
7.85478e-05
0.000102164
0.000114504
0.000196055
0.000279544
0.000235078
2.93625e-05
5.42135e-05
5.57456e-05
6.06653e-05
6.36526e-05
7.35049e-05
7.97614e-05
0.000103086
0.000116209
0.000198274
0.000280656
0.00023414
2.89267e-05
5.44693e-05
5.60039e-05
6.10795e-05
6.40772e-05
7.40038e-05
8.02613e-05
0.000103536
0.000116973
0.00020004
0.000281598
0.000233172
2.85672e-05
5.65719e-05
6.15169e-05
6.47147e-05
7.45033e-05
8.11636e-05
0.000104219
0.00011826
0.000201857
0.000282471
0.000232264
2.82099e-05
5.67921e-05
6.18199e-05
6.50801e-05
7.49464e-05
8.1698e-05
0.000104654
0.000119073
0.000203415
0.000283217
0.00023138
2.79072e-05
5.72056e-05
6.21825e-05
6.55978e-05
7.53657e-05
8.23376e-05
0.000105146
0.000120029
0.000204845
0.000283861
0.00023057
2.76269e-05
5.74234e-05
6.2452e-05
6.5913e-05
7.56752e-05
8.28037e-05
0.000105524
0.000120759
0.000206054
0.000284391
0.000229826
2.73905e-05
5.7699e-05
6.27052e-05
6.62341e-05
7.60092e-05
8.32542e-05
0.000105884
0.000121432
0.000207074
0.000284818
0.000229173
2.71875e-05
5.78806e-05
6.28827e-05
6.64961e-05
7.62302e-05
8.35944e-05
0.000106133
0.00012196
0.000207893
0.000285135
0.000228612
2.7024e-05
5.80288e-05
6.30479e-05
6.66837e-05
7.64231e-05
8.38528e-05
0.000106349
0.000122367
0.000208504
0.000285357
0.000228153
2.68982e-05
6.31417e-05
6.68133e-05
7.65433e-05
8.40306e-05
0.000106487
0.00012264
0.000208907
0.000285488
0.0002278
2.68126e-05
6.31936e-05
6.68779e-05
7.66057e-05
8.41169e-05
0.000106555
0.000122772
0.000209097
0.000285538
0.000227565
2.67662e-05
5.84027e-05
6.00916e-05
6.05072e-05
6.3379e-05
6.3839e-05
6.92491e-05
6.96438e-05
8.12504e-05
8.09843e-05
0.000110042
0.000107974
0.000199861
0.000316063
0.000292889
3.49828e-05
5.90444e-05
6.06936e-05
6.13586e-05
6.41726e-05
6.51232e-05
7.03941e-05
7.16918e-05
8.28762e-05
8.42627e-05
0.000112564
0.000113563
0.000209961
0.000319848
0.000283919
3.42168e-05
6.08408e-05
6.14846e-05
6.43549e-05
6.52083e-05
7.05246e-05
7.15539e-05
8.28297e-05
8.36121e-05
0.000112147
0.000111196
0.000207865
0.000320908
0.000287166
3.37923e-05
6.13468e-05
6.22018e-05
6.49772e-05
6.62425e-05
7.1368e-05
7.3184e-05
8.40095e-05
8.62206e-05
0.000113834
0.000115202
0.0002138
0.000323387
0.000284928
3.31079e-05
6.24037e-05
6.52661e-05
6.64738e-05
7.17e-05
7.33307e-05
8.42572e-05
8.6089e-05
0.000113897
0.000114221
0.00021456
0.000324817
0.00028447
3.26644e-05
6.30337e-05
6.57855e-05
6.73332e-05
7.23388e-05
7.4615e-05
8.51126e-05
8.81416e-05
0.000115057
0.000117175
0.000218553
0.000326694
0.000283168
3.20654e-05
6.32809e-05
6.61357e-05
6.76298e-05
7.27545e-05
7.49269e-05
8.55224e-05
8.83672e-05
0.000115341
0.00011709
0.000220422
0.000328098
0.000281924
3.16274e-05
6.6579e-05
6.83483e-05
7.32584e-05
7.5936e-05
8.61586e-05
8.99461e-05
0.000116165
0.00011929
0.000223508
0.000329586
0.000280599
3.11107e-05
6.69323e-05
6.86667e-05
7.36908e-05
7.63343e-05
8.66275e-05
9.03871e-05
0.000116514
0.000119749
0.000225708
0.000330819
0.000279196
3.07e-05
6.73268e-05
6.92666e-05
7.41111e-05
7.71353e-05
8.71244e-05
9.15708e-05
0.000117119
0.000121408
0.000228277
0.000331999
0.000277835
3.02626e-05
6.76144e-05
6.95497e-05
7.4509e-05
7.75617e-05
8.7577e-05
9.21348e-05
0.000117472
0.000122175
0.000230415
0.000333006
0.000276467
2.98969e-05
7.00722e-05
7.48999e-05
7.81951e-05
8.79893e-05
9.30129e-05
0.000117923
0.000123448
0.000232556
0.000333915
0.000275179
2.95372e-05
7.03419e-05
7.52079e-05
7.85746e-05
8.83691e-05
9.35846e-05
0.000118239
0.000124295
0.000234422
0.000334688
0.000273949
2.92296e-05
7.07208e-05
7.55323e-05
7.9071e-05
8.87231e-05
9.42245e-05
0.000118569
0.000125266
0.000236128
0.000335346
0.000272824
2.89468e-05
7.09641e-05
7.57882e-05
7.93936e-05
8.89994e-05
9.47032e-05
0.000118826
0.000126026
0.000237594
0.000335887
0.000271804
2.87069e-05
7.12243e-05
7.60239e-05
7.97204e-05
8.92689e-05
9.51576e-05
0.000119062
0.000126728
0.000238834
0.000336316
0.00027091
2.85012e-05
7.14096e-05
7.61974e-05
7.99669e-05
8.9467e-05
9.54993e-05
0.000119236
0.000127281
0.00023983
0.000336638
0.000270149
2.8335e-05
7.15615e-05
7.6347e-05
8.01604e-05
8.96287e-05
9.57655e-05
0.000119377
0.00012771
0.000240578
0.000336859
0.000269526
2.82078e-05
7.64359e-05
8.02852e-05
8.9731e-05
9.59412e-05
0.000119468
0.000127993
0.000241069
0.000336988
0.000269046
2.81203e-05
7.64841e-05
8.03492e-05
8.97839e-05
9.60282e-05
0.000119513
0.000128131
0.000241302
0.000337032
0.000268727
2.80729e-05
7.29892e-05
7.42612e-05
7.55149e-05
7.78101e-05
7.94139e-05
8.41805e-05
8.57395e-05
9.71916e-05
9.63795e-05
0.000129143
0.000117661
0.000237277
0.000371986
0.000339705
3.625e-05
7.36753e-05
7.49299e-05
7.6415e-05
7.86634e-05
8.07585e-05
8.53107e-05
8.7875e-05
9.85921e-05
9.99322e-05
0.000130999
0.000124263
0.000249214
0.000375804
0.000328287
3.54704e-05
7.50287e-05
7.65228e-05
7.87839e-05
8.08233e-05
8.53859e-05
8.77373e-05
9.85346e-05
9.92609e-05
0.00013075
0.000121263
0.000247433
0.000377229
0.000331148
3.50384e-05
7.55714e-05
7.72618e-05
7.94406e-05
8.18919e-05
8.62044e-05
8.94081e-05
9.94858e-05
0.000102014
0.000131782
0.000125831
0.000253933
0.000379795
0.00032848
3.43476e-05
7.74603e-05
7.96988e-05
8.2122e-05
8.64954e-05
8.95725e-05
9.97179e-05
0.000101956
0.000131929
0.000124692
0.000255543
0.000381459
0.000327362
3.38959e-05
7.80963e-05
8.02375e-05
8.29948e-05
8.71093e-05
9.08761e-05
0.000100379
0.000104084
0.00013253
0.000127964
0.000259977
0.000383429
0.00032558
3.32931e-05
7.83477e-05
8.05688e-05
8.33001e-05
8.74954e-05
9.12091e-05
0.000100753
0.000104424
0.000132784
0.000128023
0.00026266
0.000384983
0.000323783
3.28472e-05
8.10266e-05
8.40179e-05
8.79765e-05
9.22229e-05
0.000101242
0.000106042
0.000133172
0.000130424
0.000266254
0.000386541
0.000321948
3.23273e-05
8.13711e-05
8.43439e-05
8.83796e-05
9.26309e-05
0.000101652
0.000106608
0.000133398
0.000131186
0.000269143
0.00038786
0.000320053
3.19096e-05
8.17636e-05
8.49302e-05
8.8779e-05
9.34228e-05
0.000102051
0.000107807
0.000133672
0.000133012
0.000272225
0.000389079
0.000318219
3.14689e-05
8.20641e-05
8.52304e-05
8.91502e-05
9.38599e-05
0.000102433
0.000108474
0.00013385
0.000134111
0.000274937
0.000390126
0.000316412
3.10972e-05
8.57086e-05
8.95118e-05
9.44756e-05
0.000102779
0.000109368
0.000134053
0.000135579
0.000277547
0.000391046
0.000314712
3.07339e-05
8.60011e-05
8.98181e-05
9.48745e-05
0.000103093
0.000110009
0.000134192
0.000136721
0.000279876
0.000391825
0.000313111
3.04214e-05
8.63544e-05
9.01161e-05
9.53401e-05
0.000103392
0.000110672
0.000134335
0.000137898
0.000281975
0.000392477
0.000311651
3.01351e-05
8.66036e-05
9.0361e-05
9.56737e-05
0.00010363
0.000111193
0.000134441
0.000138887
0.000283793
0.000393007
0.000310339
2.98913e-05
8.6852e-05
9.05838e-05
9.59924e-05
0.000103854
0.000111664
0.000134539
0.000139768
0.000285327
0.00039342
0.000309194
2.96822e-05
8.70345e-05
9.07533e-05
9.62326e-05
0.000104025
0.000112026
0.00013461
0.000140477
0.000286561
0.000393726
0.000308222
2.95133e-05
8.71857e-05
9.08936e-05
9.64234e-05
0.000104162
0.000112306
0.000134667
0.000141021
0.000287486
0.000393931
0.000307425
2.93835e-05
9.09778e-05
9.65436e-05
0.000104248
0.000112489
0.000134702
0.00014138
0.000288094
0.000394043
0.000306808
2.92941e-05
9.1023e-05
9.66056e-05
0.000104292
0.000112579
0.000134719
0.000141554
0.000288383
0.000394077
0.000306395
2.9245e-05
8.95527e-05
9.00571e-05
9.27399e-05
9.37015e-05
9.76958e-05
0.000100222
0.000105711
0.000113732
0.000118474
0.000149529
0.000139323
0.000296611
0.000435778
0.000379794
3.74357e-05
9.02704e-05
9.08294e-05
9.36462e-05
9.46794e-05
9.90358e-05
0.00010147
0.000107867
0.000115123
0.000122408
0.000150801
0.00014859
0.00030984
0.000438998
0.000366184
3.66368e-05
9.08589e-05
9.37428e-05
9.47046e-05
9.91027e-05
0.000101422
0.000107773
0.000114908
0.000121805
0.000150472
0.000144785
0.000309293
0.000440878
0.000368435
3.62023e-05
9.14641e-05
9.44618e-05
9.54425e-05
0.000100138
0.000102311
0.000109408
0.000115785
0.000124736
0.000150819
0.000150833
0.000316034
0.000443362
0.000365301
3.55004e-05
9.46626e-05
9.5649e-05
0.000100385
0.00010253
0.000109626
0.000115924
0.000124849
0.000150869
0.000149973
0.000318896
0.000445176
0.000363518
3.50429e-05
9.5266e-05
9.62438e-05
0.000101214
0.000103193
0.000110879
0.000116511
0.000127063
0.000150897
0.000154098
0.000323759
0.000447099
0.000361225
3.4433e-05
9.55245e-05
9.65479e-05
0.000101539
0.000103539
0.000111252
0.000116816
0.000127594
0.000150948
0.000154967
0.00032741
0.000448678
0.00035889
3.39801e-05
9.70475e-05
0.000102211
0.000104056
0.000112213
0.000117255
0.000129253
0.000150917
0.000158003
0.000331552
0.000450171
0.00035656
3.34546e-05
9.738e-05
0.000102549
0.000104435
0.000112644
0.00011761
0.000129994
0.00015088
0.000159705
0.00033519
0.000451442
0.000354194
3.30299e-05
9.78001e-05
0.000103094
0.000104859
0.000113381
0.000117982
0.000131214
0.000150847
0.000162165
0.000338811
0.000452574
0.000351917
3.25843e-05
9.81095e-05
0.000103402
0.000105214
0.000113823
0.000118319
0.000132009
0.000150769
0.000164126
0.000342109
0.000453535
0.000349703
3.22061e-05
0.000103827
0.000105582
0.000114392
0.000118654
0.000132928
0.000150732
0.000166238
0.000345193
0.000454354
0.000347627
3.18382e-05
0.00010412
0.000105892
0.000114792
0.000118941
0.000133645
0.00015066
0.0001681
0.000347971
0.000455033
0.000345687
3.15202e-05
0.00010444
0.000106192
0.000115215
0.000119227
0.000134335
0.000150619
0.000169865
0.000350447
0.000455584
0.000343927
3.12296e-05
0.00010468
0.000106439
0.000115542
0.000119459
0.000134899
0.000150568
0.000171411
0.000352593
0.000456019
0.000342352
3.09812e-05
0.00010491
0.000106665
0.000115839
0.000119674
0.000135387
0.000150534
0.000172752
0.000354396
0.000456345
0.000340983
3.07681e-05
0.000105083
0.00010684
0.000116066
0.00011984
0.00013577
0.000150502
0.000173843
0.000355843
0.000456574
0.00033982
3.05961e-05
0.000105227
0.000106982
0.000116245
0.000119973
0.00013606
0.000150481
0.000174673
0.000356925
0.000456715
0.000338866
3.04636e-05
0.000107068
0.000116356
0.000120056
0.000136248
0.000150463
0.000175221
0.000357636
0.000456779
0.000338121
3.03717e-05
0.000107112
0.000116413
0.000120099
0.00013634
0.000150454
0.000175487
0.000357974
0.000456784
0.000337614
3.03206e-05
0.000108092
0.000107908
0.000112141
0.000111605
0.000118668
0.000117951
0.000129918
0.000130881
0.000149528
0.000168239
0.000182371
0.000379538
0.000505438
0.000411174
3.85599e-05
0.000108834
0.000108819
0.000113019
0.000112784
0.000119921
0.000119522
0.000131929
0.00013272
0.000153625
0.000169481
0.00019589
0.000393005
0.000507443
0.000395929
3.77378e-05
0.000108777
0.000113098
0.000112701
0.000119996
0.000119302
0.000131918
0.000132188
0.000153275
0.000168606
0.000191836
0.000394206
0.000509655
0.000397566
3.73043e-05
0.000109464