/*--------------------------------*- C++ -*----------------------------------*\
  =========                 |
  \\      /  F ield         | OpenFOAM: The Open Source CFD Toolbox
   \\    /   O peration     | Website:  https://openfoam.org
    \\  /    A nd           | Version:  6
     \\/     M anipulation  |
\*---------------------------------------------------------------------------*/
FoamFile
{
    version     2.0;
    format      ascii;
    class       volScalarField;
    location    "0.6";
    object      yPlus;
}
// * * * * * * * * * * * * * * * * * * * * * * * * * * * * * * * * * * * * * //

dimensions      [0 0 0 0 0 0 0];

internalField   uniform 0;

boundaryField
{
    inlet
    {
        type            calculated;
        value           uniform 0;
    }
    outlet
    {
        type            calculated;
        value           uniform 0;
    }
    roughCylinder
    {
        type            calculated;
        value           nonuniform List<scalar> 
5120
(
41.6024
48.9845
54.4208
59.5409
63.8258
67.2737
70.0986
72.5334
74.7668
76.8735
78.8854
80.8207
82.6915
84.5099
86.2903
88.0484
89.8003
91.5599
93.3377
95.1425
96.9798
98.853
100.764
102.713
104.697
106.714
108.757
110.809
112.837
114.763
116.414
117.462
41.055
48.2074
53.5019
58.5222
62.7529
66.1734
68.9797
71.3878
73.6006
75.6859
77.6708
79.5755
81.413
83.196
84.9396
86.6601
88.3742
90.0957
91.8356
93.602
95.4004
97.2342
99.1052
101.013
102.957
104.931
106.93
108.938
110.922
112.804
114.42
115.447
40.437
47.4034
52.5732
57.4986
61.6751
65.0687
67.8621
70.2506
72.4474
74.5124
76.4714
78.3462
80.1509
81.8988
83.6059
85.289
86.9654
88.6492
90.3512
92.0796
93.8394
95.6342
97.4656
99.3335
101.236
103.169
105.125
107.089
109.029
110.869
112.45
113.457
39.7874
46.596
51.6555
56.4946
60.6228
63.9937
66.7772
69.1539
71.3373
73.3831
75.318
77.1624
78.9345
80.6478
82.319
83.9655
85.605
87.2518
88.9167
90.6077
92.3297
94.0864
95.8789
97.7077
99.5702
101.462
103.376
105.298
107.195
108.995
110.541
111.529
39.1206
45.7925
50.7527
55.5136
59.5988
62.9512
65.7278
68.0975
70.2683
72.2962
74.2082
76.0236
77.7639
79.4433
81.0793
82.6899
84.2935
85.9043
87.5333
89.1881
90.8736
92.5934
94.3487
96.1394
97.9626
99.8147
101.688
103.568
105.424
107.185
108.698
109.667
38.4506
45.0018
49.8706
54.5592
58.6062
61.9431
64.7145
67.0803
69.2396
71.2509
73.1412
74.9294
76.6388
78.2851
79.8867
81.4627
83.0313
84.6073
86.2014
87.8213
89.4716
91.1556
92.8748
94.6284
96.4146
98.2282
100.063
101.903
103.719
105.441
106.923
107.873
37.7874
44.2306
49.0135
53.6349
57.6475
60.972
63.7405
66.104
68.2515
70.2469
72.1168
73.8803
75.5596
77.1739
78.7421
80.2842
81.8191
83.3615
84.9221
86.5083
88.1247
89.7746
91.459
93.1774
94.927
96.7038
98.5003
100.302
102.08
103.765
105.216
106.15
37.1417
43.4859
48.1854
52.7419
56.723
60.037
62.803
65.1664
67.3032
69.2842
71.1354
72.8764
74.5272
76.1104
77.6464
79.1561
80.6584
82.1683
83.6967
85.2505
86.8344
88.4513
90.1024
91.7871
93.502
95.2436
97.0039
98.7694
100.51
102.159
103.582
104.499
36.5192
42.771
47.3875
51.8802
55.8319
59.1378
61.9034
64.2689
66.3949
68.3625
70.1968
71.9167
73.5412
75.0951
76.6003
78.0786
79.5496
81.0285
82.526
84.049
85.6017
87.1872
88.8064
90.4582
92.1403
93.8477
95.5734
97.3031
99.0083
100.625
102.019
102.92
35.9279
42.0911
46.6223
51.0497
54.9728
58.2723
61.0387
63.4089
65.5255
67.4814
69.3005
71.0014
72.6025
74.1283
75.6039
77.0524
78.4936
79.9428
81.4107
82.904
84.4271
85.9825
87.5712
89.1924
90.8428
92.518
94.2106
95.9065
97.5782
99.1616
100.529
101.416
35.3705
41.4475
45.8899
50.249
54.1434
57.4387
60.2091
62.5873
64.6954
66.6407
68.4464
70.13
71.7098
73.2097
74.6578
76.0778
77.4904
78.9113
80.351
81.8163
83.3111
84.8378
86.3973
87.9886
89.6087
91.2527
92.9135
94.5772
96.2166
97.7696
99.1119
99.9854
34.8538
40.8457
45.1929
49.4778
53.3417
56.6347
59.4116
61.7977
63.9031
65.84
67.6336
69.3018
70.8623
72.3391
73.761
75.1541
76.5398
77.9338
79.3466
80.7849
82.2527
83.7521
85.2839
86.847
88.4381
90.0532
91.6837
93.3169
94.9252
96.4488
97.7677
98.6284
34.3791
40.2845
44.5306
48.7345
52.565
55.8572
58.6441
61.0408
63.149
65.0784
66.8621
68.5165
70.0593
71.5152
72.9134
74.2815
75.6414
77.0096
78.3969
79.8096
81.2515
82.7246
84.2295
85.7652
87.3285
88.9145
90.5161
92.1197
93.6986
95.1944
96.4917
97.3415
33.9461
39.7652
43.9049
48.0191
51.8114
55.1035
57.9036
60.3137
62.4305
64.3553
66.1305
67.7727
69.3
70.7365
72.1128
73.4575
74.7932
76.1369
77.4994
78.8873
80.3044
81.7523
83.2314
84.7408
86.2773
87.8359
89.4094
90.9843
92.5352
94.0052
95.2822
96.1226
33.5507
39.2875
43.3147
47.3299
51.0776
54.3696
57.1868
59.6148
61.7475
63.6691
65.438
67.0701
68.5829
70.0021
71.3579
72.6801
73.9926
75.3128
76.6514
78.0152
79.4079
80.8314
82.2858
83.77
85.2807
86.813
88.3595
89.9071
91.4313
92.8763
94.1351
94.967
33.1976
38.8541
42.7616
46.6671
50.3618
53.6521
56.4901
58.9411
61.0925
63.0184
64.783
66.4061
67.9068
69.3097
70.6464
71.9475
73.2378
74.5351
75.8506
77.191
78.5604
79.9604
81.3912
82.8513
84.3375
85.8446
87.3653
88.8873
90.3862
91.8076
93.0487
93.8735
32.885
38.4624
42.2443
46.0291
49.6605
52.9459
55.8086
58.2883
60.4633
62.401
64.1634
65.7803
67.2697
68.6581
69.9768
71.2575
72.5263
73.8013
75.0941
76.4118
77.7583
79.1355
80.5434
81.9804
83.4429
84.9261
86.422
87.9191
89.3936
90.793
92.0183
92.8369
32.6197
38.1172
41.7675
45.4188
48.9738
52.2481
55.1374
57.6517
59.8561
61.8132
63.5771
65.1886
66.669
68.0439
69.3459
70.6073
71.8552
73.1084
74.3791
75.6745
76.9989
78.3541
79.74
81.1547
82.5948
84.0548
85.5272
87.0007
88.4517
89.8303
91.0409
91.8544
32.3954
37.8144
41.3292
44.8351
48.2984
51.5528
54.4698
57.0255
59.2659
61.2476
63.0201
64.6301
66.1025
67.4651
68.751
69.9938
71.2211
72.4528
73.7015
74.9749
76.2773
77.6107
78.975
80.3683
81.7867
83.2244
84.6743
86.1248
87.5537
88.9119
90.1091
90.9186
32.2176
37.5578
40.9342
44.2823
47.636
50.8567
53.7992
56.4018
58.6855
60.6988
62.4891
64.0985
65.5652
66.9173
68.1882
69.4126
70.6196
71.8299
73.0568
74.3085
75.5895
76.9018
78.2451
79.6176
81.0149
82.4314
83.8595
85.2878
86.6959
88.035
89.2191
90.0254
32.0724
37.337
40.5755
43.7567
46.9823
50.1531
53.116
55.7718
58.1083
60.1614
61.9749
63.5918
65.0547
66.3962
67.6528
68.8595
70.0462
71.2348
72.4398
73.6695
74.9288
76.2198
77.5423
78.8941
80.271
81.6667
83.0736
84.481
85.8679
87.1882
88.3608
89.1652
31.9638
37.1547
40.2572
43.263
46.3401
49.4386
52.4113
55.1233
57.5223
59.6242
61.4688
63.1008
64.5621
65.8967
67.1391
68.3277
69.4939
70.6607
71.8432
73.0507
74.2885
75.5586
76.8607
78.1926
79.5494
80.9248
82.311
83.6976
85.0645
86.3672
87.5284
88.332
31.8708
36.9925
39.9658
42.7926
45.7028
48.7048
51.6727
54.443
56.9161
59.079
60.9646
62.6174
64.0853
65.4109
66.6408
67.8114
68.9563
70.1005
71.2599
72.4447
73.66
74.9085
76.1899
77.5012
78.838
80.1934
81.559
82.9254
84.2726
85.5573
86.7082
87.512
31.7963
36.8525
39.7045
42.3508
45.0748
47.9498
50.889
53.713
56.2706
58.5087
60.4463
62.1287
63.6076
64.9314
66.1475
67.3004
68.4239
69.5443
70.6792
71.8397
73.0322
74.2591
75.5194
76.8113
78.1284
79.4639
80.809
82.1553
83.4829
84.75
85.8913
86.6961
31.7122
36.712
39.4543
41.9243
44.4481
47.165
50.0456
52.9142
55.5675
57.8985
59.9032
61.6255
63.1212
64.4463
65.6518
66.7845
67.8843
68.9795
70.0889
71.2244
72.3927
73.5968
74.8361
76.1068
77.4037
78.7189
80.0431
81.3691
82.677
83.9267
85.0585
85.8662
31.6302
36.5782
39.2211
41.5196
43.8289
46.3511
49.1308
52.022
54.7768
57.2201
59.3104
61.0855
62.6071
63.9371
65.1343
66.2502
67.3261
68.3936
69.4744
70.5819
71.7244
72.9047
74.1208
75.3718
76.6485
77.9435
79.2464
80.5523
81.8402
83.0724
84.1958
85.0077
31.5175
36.421
38.9779
41.1161
43.2041
45.499
48.13
51.0106
53.8684
56.4473
58.6477
60.4933
62.0506
63.3911
64.5804
65.6754
66.7242
67.7619
68.8121
69.8905
71.0051
72.16
73.3546
74.5826
75.8387
77.1131
78.3938
79.6793
80.9469
82.1613
83.2767
84.0945
31.399
36.2581
38.7371
40.7232
42.5815
44.6095
47.0291
49.8481
52.7967
55.5312
57.8726
59.8112
61.418
62.776
63.9612
65.0384
66.0592
67.0634
68.0786
69.1227
70.2073
71.3357
72.5037
73.713
74.9481
76.2014
77.459
78.7242
79.9712
81.168
82.277
83.1038
31.2357
36.0532
38.4655
40.3115
41.9405
43.6774
45.8228
48.5034
51.5106
54.426
56.9437
59.0081
60.6836
62.067
63.2473
64.3002
65.2874
66.2533
67.23
68.2389
69.2912
70.3918
71.5388
72.7218
73.9364
75.1688
76.4021
77.6474
78.8739
80.0533
81.1572
81.996
31.0654
35.8412
38.1873
39.9024
41.302
42.7146
44.5114
46.9567
49.9522
53.0407
55.7853
58.0142
59.7844
61.2069
62.3892
63.4203
64.3687
65.29
66.2212
67.1873
68.205
69.2764
70.3926
71.5612
72.7558
73.9673
75.1745
76.4007
77.607
78.7702
79.8723
80.7297
30.8375
35.5817
37.8676
39.4614
40.6355
41.7026
43.0831
45.1845
48.0746
51.3113
54.3079
56.7621
58.665
60.1415
61.3232
62.3213
63.2239
64.09
64.969
65.8901
66.8707
67.9146
69.0136
70.1536
71.3306
72.5226
73.7026
74.9131
76.1016
77.2515
78.3569
79.241
30.6377
35.3466
37.5659
39.0346
39.972
40.6556
41.5323
43.1503
45.797
49.1199
52.3887
55.1091
57.1871
58.7441
59.9388
60.9044
61.7425
62.5445
63.3603
64.2281
65.1759
66.1939
67.2616
68.4029
69.5692
70.7464
71.8964
73.0959
74.2692
75.4095
76.5246
77.4484
30.394
35.0707
37.2165
38.5576
39.2547
39.5286
39.822
40.8078
43.042
46.3551
49.8996
52.9386
55.2387
56.8961
58.0885
58.9956
59.7656
60.476
61.2221
62.0338
62.9471
63.9546
65.0222
66.1398
67.3057
68.4713
69.591
70.7905
71.9617
73.1069
74.2486
75.2367
30.2566
34.8846
36.9393
38.1327
38.559
38.3581
37.9347
38.0696
39.6481
42.797
46.5822
49.9677
52.5191
54.2844
55.4909
56.3378
56.9801
57.6023
58.2673
59.0285
59.9543
60.9647
62.0111
63.1754
64.3611
65.5342
66.6152
67.8355
69.016
70.1771
71.3568
72.4356
30.0597
34.6409
36.5918
37.6254
37.7698
37.0543
35.7876
34.8047
35.4015
38.1934
42.1725
45.933
48.7717
50.6631
51.7973
52.4855
53.0518
53.5143
54.1513
54.8904
55.8295
56.919
58.0384
59.2165
60.4724
61.6619
62.7218
63.9682
65.1864
66.3942
67.6319
68.8489
30.0799
34.5918
36.4223
37.274
37.1035
35.7893
33.4501
30.8498
29.7976
31.856
35.9082
39.9291
42.9487
44.823
45.9586
46.5548
46.7678
47.2038
47.8602
48.7401
49.9539
51.2039
52.3877
53.7858
55.1732
56.4471
57.4558
58.8109
60.1397
61.4601
62.7844
64.224
29.9201
34.3797
36.0858
36.7588
36.2996
34.4072
30.8853
26.0739
21.9926
22.346
25.401
31.1208
34.061
35.9699
36.606
36.3194
37.1805
37.3716
38.9526
40.1634
41.281
43.0272
44.6797
46.227
47.8596
49.2623
50.4238
51.7307
53.3138
54.9109
56.3058
58.125
30.1514
34.5395
36.1358
36.6638
36.0041
33.6979
29.1384
21.549
9.73179
12.8079
22.7877
7.4367
24.4925
14.4513
6.89261
14.9275
6.29556
10.0645
17.6051
26.7082
29.4992
30.4394
33.2814
35.5868
37.5105
39.1813
40.7955
41.773
44.0452
46.4104
47.6777
50.2772
29.8525
34.2117
35.7216
36.1654
35.4668
33.1051
28.3457
20.8222
15.2457
16.6122
14.9799
1.47725
19.0268
28.0601
18.9677
21.5349
29.1263
21.0667
25.1997
36.7745
36.1427
15.8586
34.7683
34.8377
23.1107
24.525
30.4142
25.3295
30.3182
35.045
35.3251
39.644
30.2757
34.6209
36.114
36.567
36.0588
34.2711
30.6712
24.8287
17.0472
14.9908
8.52439
15.3978
11.7493
21.0032
26.7595
34.6848
29.2874
35.0602
30.7457
41.515
33.1291
35.1738
41.4097
41.5378
32.0581
5.47318
25.9421
14.0717
19.4391
33.7539
23.3631
37.6068
28.6931
25.9804
22.627
19.3102
18.0284
18.7205
18.902
18.0917
17.0882
16.0377
14.9636
14.0321
13.2335
12.5725
12.0477
11.6536
11.3887
11.2109
11.1098
11.0587
11.0587
11.109
11.2098
11.3874
11.6521
12.0462
12.571
13.2321
14.0309
14.9624
16.037
17.0886
18.0918
18.8993
18.7139
18.011
19.268
22.5681
25.9301
28.66
32.9014
30.155
26.7605
23.3444
22.4695
24.0496
25.0642
24.8505
23.9978
22.7357
21.3061
19.9972
18.866
17.9359
17.1999
16.6335
16.2326
15.9537
15.7772
15.6791
15.679
15.7759
15.9518
16.2302
16.6308
17.1971
17.9331
18.8635
19.9952
21.3045
22.7349
23.9978
24.849
25.0582
24.038
22.444
23.2904
26.6915
30.0972
32.8627
34.4209
31.6735
28.1958
24.5671
23.8864
26.2125
27.9216
28.2812
27.7711
26.525
24.8609
23.2448
21.8295
20.6715
19.7669
19.0839
18.5969
18.2683
18.0665
17.9609
17.9608
18.0647
18.2655
18.5935
19.08
19.7629
20.6676
21.826
23.2419
24.8586
26.5238
27.7703
28.2778
27.9132
26.1986
23.8589
24.5107
28.1253
31.614
34.3788
34.9467
32.2677
28.7116
24.8168
24.3115
27.4455
29.8368
30.7686
30.6868
29.6119
27.8429
25.9854
24.3128
22.9312
21.8582
21.058
20.494
20.1243
19.9055
19.7972
19.7969
19.9032
20.1207
20.4893
21.0528
21.8528
22.9259
24.3081
25.9814
27.8399
29.6103
30.6849
30.7634
29.8265
27.4315
24.2854
24.7595
28.6379
32.2036
34.8991
34.5311
32.0605
28.5037
24.333
24.0445
28.0562
31.0576
32.4738
32.8314
32.0282
30.2904
28.279
26.4002
24.8189
23.5901
22.6838
22.0555
21.6557
21.428
21.3201
21.3197
21.4251
21.651
22.0495
22.677
23.583
24.8119
26.3939
28.2738
30.2867
32.0262
32.8283
32.4665
31.0465
28.0441
24.0221
24.2726
28.4175
31.978
34.4677
32.9005
30.8866
27.4958
23.0741
23.142
28.2438
31.7934
33.5127
34.2647
33.8007
32.2227
30.16
28.1419
26.404
25.0466
24.0561
23.3832
22.9691
22.7435
22.6408
22.6402
22.7399
22.9633
23.3756
24.0475
25.0375
26.3951
28.134
30.1537
32.2186
33.798
34.26
33.5029
31.7822
28.2331
23.1265
23.0008
27.3753
30.7556
32.7983
29.5413
28.4368
25.4911
20.7422
21.5704
28.0485
32.2222
34.0517
35.0386
34.9351
33.6207
31.6253
29.5508
27.7209
26.2823
25.2439
24.555
24.1479
23.938
23.8464
23.8456
23.9338
24.141
24.5459
25.2335
26.2712
27.7101
29.5411
31.618
33.6161
34.9314
35.031
34.0401
32.2065
28.0445
21.5441
20.6827
25.2869
28.1911
29.355
23.5008
24.4046
22.5133
17.8592
18.9693
27.6391
32.3612
34.2824
35.2173
35.4029
34.4506
32.6365
30.6091
28.778
27.3331
26.3023
25.6359
25.261
25.0813
25.0068
25.0058
25.0765
25.2531
25.6254
26.29
27.3198
28.7649
30.5979
32.6283
34.4455
35.3968
35.2072
34.2624
32.3495
27.6033
19.0852
17.5046
22.1652
23.9203
23.0966
15.7136
17.2532
15.9888
10.1355
17.0079
26.7704
32.3298
34.1821
35.0107
35.2604
34.6564
33.1356
31.2822
29.572
28.2313
27.2842
26.6866
26.3697
26.2321
26.1789
26.1778
26.2269
26.3611
26.675
27.2705
28.2161
29.5567
31.2691
33.1263
34.6495
35.2512
34.9925
34.1619
32.2749
26.8449
16.7579
11.1699
15.252
15.7889
12.9932
18.8343
14.1131
14.5037
20.0534
12.7833
26.5775
31.8736
33.8241
34.4768
34.6423
34.2481
33.0907
31.5457
30.132
29.0346
28.2551
27.7704
27.5304
27.4397
27.4079
27.4067
27.4344
27.5214
27.7582
28.2403
29.0179
30.1142
31.5304
33.0798
34.2378
34.6272
34.4513
33.7745
31.8671
26.462
13.3491
20.0049
14.0603
14.6758
16.3026
23.0251
17.1708
19.0636
10.2283
11.7023
26.2431
31.2312
33.1125
33.5803
33.687
33.3901
32.6306
31.5517
30.6124
29.864
29.305
28.9559
28.795
28.745
28.7285
28.7274
28.7397
28.786
28.9436
29.29
29.8463
30.5921
31.5314
32.6137
33.3709
33.6587
33.544
33.0431
31.1705
26.2721
11.7845
6.54811
19.1467
23.4448
21.9072
26.5101
26.4554
23.1131
17.7413
13.0068
24.9124
30.9099
31.8881
32.7459
32.7672
32.6806
32.3152
31.7936
31.3305
30.9026
30.5438
30.3127
30.2108
30.1826
30.17
30.1691
30.1774
30.2021
30.3005
30.5283
30.8843
31.3075
31.7683
32.2839
32.648
32.7178
32.6749
31.8562
30.6278
25.5046
11.4912
15.5352
24.7168
26.1252
17.3385
24.8737
27.1972
26.8291
15.5414
10.1149
26.952
30.1762
31.9267
32.7232
33.0179
33.024
32.9695
32.78
32.5687
32.309
32.0653
31.9011
31.8204
31.7869
31.7643
31.7634
31.7818
31.8115
31.8884
32.0489
32.2886
32.5448
32.7458
32.9359
32.9608
32.9768
32.5926
31.9286
29.8386
27.2504
9.62559
14.4566
27.4455
28.2979
17.8547
26.5836
27.5905
22.1953
16.0863
21.2594
29.2503
32.3222
33.7498
34.695
34.8796
34.8382
34.7654
34.5663
34.3677
34.1255
33.9126
33.7569
33.6578
33.5943
33.5492
33.5483
33.5888
33.648
33.7426
33.8935
34.1022
34.3371
34.5341
34.711
34.7975
34.7833
34.6443
33.6172
32.211
29.1543
21.1585
16.3892
22.3087
28.3449
23.5047
28.9849
27.1051
27.9189
24.8477
29.7597
33.8045
36.1327
37.0921
37.8748
37.6678
37.533
37.1877
36.8955
36.597
36.3239
36.0909
35.904
35.7597
35.6512
35.577
35.5759
35.6447
35.7485
35.8871
36.068
36.2942
36.5627
36.8488
37.1449
37.4535
37.6329
37.7223
37.1259
35.7978
34.0622
28.9551
26.0421
26.1329
30.9593
21.7274
36.9748
32.7923
30.535
33.3741
35.3396
38.6572
39.7177
40.8065
40.9457
40.7602
40.3748
39.9444
39.5599
39.2025
38.893
38.6167
38.3771
38.1743
38.0149
37.91
37.9086
38.0075
38.1614
38.3575
38.5895
38.8583
39.1596
39.5091
39.8869
40.3031
40.6916
40.8423
40.7328
39.5742
38.5116
35.375
32.324
32.7521
28.6941
34.4797
38.6516
38.0802
37.3162
37.8707
39.9784
42.1598
43.1336
43.9395
44.0061
43.769
43.3705
42.9173
42.5221
42.1317
41.7852
41.4538
41.1527
40.8893
40.6805
40.5467
40.545
40.6721
40.8749
41.1312
41.4241
41.7469
42.0847
42.4674
42.8513
43.3042
43.6783
43.9316
43.8169
43.0293
42.0118
39.6991
37.7476
36.153
38.736
32.9922
38.4213
42.9907
41.8101
41.2086
43.4339
45.0807
46.1102
46.8289
46.9579
46.749
46.4143
45.9795
45.6044
45.1912
44.8137
44.431
44.0773
43.7636
43.515
43.3584
43.3565
43.5061
43.7484
44.0549
44.4005
44.7752
45.143
45.552
45.9133
46.3546
46.6671
46.8908
46.7478
45.9863
45.0553
43.0292
41.1199
40.8626
40.4053
37.6711
37.0493
44.8488
44.8725
44.1045
45.7244
47.6544
48.5437
49.4943
49.6205
49.5844
49.2649
48.9145
48.5396
48.1385
47.7381
47.3296
46.9432
46.5989
46.3253
46.154
46.152
46.3159
46.5833
46.9209
47.2995
47.7014
48.0926
48.494
48.8528
49.2283
49.5058
49.6276
49.3921
48.6425
47.4863
45.9078
43.7965
44.316
45.067
34.0695
37.4781
45.7221
47.0381
46.2958
47.6326
49.4624
50.7457
51.6623
52.0664
52.0791
51.8683
51.5624
51.2121
50.8296
50.424
50.0098
49.6101
49.252
48.9659
48.787
48.7849
48.9565
49.2367
49.5885
49.9817
50.3899
50.7907
51.1698
51.5251
51.8277
52.0752
52.0427
51.7487
50.7383
49.6709
47.5118
46.183
45.6464
41.4135
38.5652
35.9617
45.216
48.3964
48.5259
49.1838
51.2448
52.609
53.7093
54.2464
54.3806
54.2258
53.965
53.6268
53.2569
52.8501
52.4348
52.0298
51.6658
51.3735
51.1906
51.1885
51.3643
51.6512
52.0097
52.4093
52.8204
53.2242
53.5954
53.9376
54.2129
54.3849
54.2902
53.7818
52.7591
51.3747
49.4885
48.4581
48.6523
44.8519
33.1236
38.6319
42.941
48.084
49.7323
50.7402
52.6329
54.428
55.5847
56.327
56.5251
56.4278
56.1737
55.837
55.4576
55.0432
54.6201
54.2093
53.8399
53.5431
53.3573
53.3555
53.5346
53.8265
54.1911
54.5975
55.0179
55.4307
55.8151
56.1571
56.4338
56.5573
56.4123
55.7587
54.6898
53.1209
51.3672
50.6341
49.6594
45.6709
38.3608
39.2934
45.1873
49.6517
52.2797
52.9967
54.7837
56.4496
57.6446
58.3828
58.6035
58.4992
58.2244
57.8659
57.4622
57.031
56.595
56.1766
55.8022
55.502
55.3148
55.3134
55.4952
55.7916
56.1626
56.5782
57.013
57.4449
57.8528
58.218
58.503
58.6241
58.4089
57.7079
56.4518
54.906
52.7855
52.4346
49.4648
43.2006
39.8135
34.0035
47.7667
52.2196
53.7808
55.1769
56.4888
58.3021
59.4944
60.2828
60.5179
60.4067
60.11
59.7247
59.2958
58.8463
58.3985
57.9742
57.597
57.2956
57.1083
57.1074
57.2899
57.588
57.9617
58.3831
58.8286
59.2767
59.705
60.0898
60.3845
60.4935
60.2471
59.4604
58.2381
56.5065
55.1092
53.9873
51.6044
44.4107
38.0581
39.3247
47.1272
51.7958
56.0972
57.2886
58.7833
60.2538
61.373
62.0511
62.2525
62.1119
61.7982
61.3978
60.9587
60.5047
60.0576
59.6375
59.2659
58.9693
58.7857
58.7855
58.9658
59.2601
59.629
60.0466
60.4916
60.9438
61.3808
61.7782
62.0868
62.2206
62.0095
61.3273
60.2052
58.7682
57.2629
56.0818
51.4395
45.6367
35.0506
34.5341
45.8063
53.134
58.0224
59.499
60.8939
62.0734
63.0214
63.5882
63.7452
63.5954
63.2887
62.8998
62.4744
62.0361
61.6064
61.2039
60.8481
60.5636
60.3879
60.3883
60.5623
60.8454
61.1996
61.6006
62.0294
62.4675
62.8938
63.2846
63.5955
63.7553
63.6211
63.101
62.2508
61.2484
60.2201
58.8933
55.7082
44.4302
24.6488
39.8224
41.7945
50.6748
57.9711
60.6824
62.3003
63.4506
64.3087
64.8237
64.9683
64.8426
64.5742
64.2268
63.8414
63.442
63.0487
62.6793
62.3512
62.0875
61.9246
61.9259
62.0889
62.3525
62.6799
63.0488
63.4421
63.8422
64.2285
64.5762
64.8431
64.9635
64.8057
64.2615
63.3358
62.0374
60.1291
57.3178
48.7829
43.1583
38.1369
42.5332
42.8044
48.0948
57.6354
61.0481
63.0593
64.3357
65.2129
65.7357
65.9028
65.8282
65.6244
65.3449
65.025
64.6875
64.3508
64.0311
63.7439
63.5103
63.3653
63.3667
63.5121
63.7454
64.0317
64.3506
64.687
65.0253
65.3473
65.6306
65.8419
65.9318
65.7962
65.3382
64.5994
63.6194
62.1999
59.8133
54.4847
40.7309
37.5579
36.086
39.2102
53.8001
59.9122
62.6968
64.2872
65.3178
66.0441
66.4797
66.6177
66.5698
66.4229
66.2151
65.9709
65.708
65.4412
65.1832
64.9471
64.7515
64.6293
64.6314
64.7557
64.9519
65.1877
65.4452
65.712
65.9755
66.2209
66.4303
66.5789
66.6287
66.4941
66.0672
65.358
64.3576
62.8169
60.082
54.1596
39.1525
33.9344
43.3809
41.963
49.429
58.6133
62.29
64.3821
65.6484
66.4552
66.8974
67.0484
67.0391
66.9466
66.8043
66.6309
66.4396
66.2411
66.0441
65.8584
65.7001
65.6001
65.6029
65.7067
65.8666
66.053
66.2505
66.4498
66.6426
66.8179
66.9621
67.0558
67.0651
66.9129
66.4702
65.6647
64.3999
62.3071
58.6319
49.4829
41.614
42.5536
34.0772
34.5032
52.2044
59.4039
62.8922
64.8629
66.0825
66.8411
67.2222
67.3421
67.3313
67.2543
67.1398
67.0027
66.8526
66.6961
66.5379
66.384
66.2481
66.1599
66.1637
66.2572
66.3958
66.5511
66.7107
66.8689
67.021
67.1606
67.2772
67.3548
67.3638
67.2394
66.8522
66.087
64.8574
62.8675
59.3445
52.1053
34.1454
33.5278
45.9582
40.7772
47.2181
57.7137
62.099
64.5351
65.9872
66.85
67.264
67.3982
67.3978
67.3301
67.2263
67.1028
66.9686
66.8283
66.684
66.5393
66.4053
66.3129
66.318
66.4172
66.5545
66.7013
66.8476
66.99
67.1266
67.2526
67.3583
67.4265
67.4248
67.2858
66.8656
65.9984
64.5434
62.1064
57.7336
47.3393
40.0948
45.0836
41.5122
48.9066
54.3556
59.4909
63.7904
67.2512
70.0842
72.5227
74.7583
76.8663
78.8793
80.8156
82.6874
84.5067
86.288
88.0467
89.799
91.5586
93.3363
95.1406
96.977
98.8492
100.759
102.706
104.689
106.704
108.744
110.794
112.819
114.742
116.39
117.436
40.947
48.1157
53.4228
58.4561
62.6985
66.1289
68.943
71.3567
73.5729
75.6605
77.6466
79.5521
81.3903
83.1736
84.9174
86.6378
88.3516
90.0727
91.8118
93.5774
95.3746
97.2071
99.0768
100.983
102.925
104.897
106.893
108.899
110.88
112.76
114.373
115.398
40.327
47.3108
52.495
57.4354
61.6253
65.0294
67.8305
70.2243
72.4243
74.4912
76.4511
78.3263
80.1312
81.8791
83.5859
85.2684
86.9441
88.627
90.3279
92.055
93.8133
95.6064
97.436
99.3022
101.202
103.133
105.086
107.048
108.985
110.823
112.401
113.406
39.6752
46.5017
51.5767
56.4325
60.5752
63.9573
66.7486
69.1305
71.3169
73.3645
75.3002
77.1449
78.9168
80.6297
82.3003
83.9458
85.5843
87.2298
88.8934
90.5828
92.3032
94.058
95.8488
97.6753
99.5352
101.425
103.336
105.255
107.149
108.946
110.49
111.476
39.0065
45.6967
50.6733
55.452
59.5528
62.917
65.7015
68.0764
70.2503
72.2798
74.1924
76.0079
77.7478
79.4265
81.0615
82.6711
84.2733
85.8826
87.5099
89.163
90.8467
92.5645
94.3176
96.1059
97.927
99.7762
101.647
103.524
105.377
107.135
108.646
109.613
38.3361
44.9054
49.7912
54.4986
58.5616
61.9107
64.6903
67.0612
69.2235
71.2363
73.1271
74.9152
76.6241
78.2694
79.8698
81.4444
83.0115
84.5858
86.1781
87.796
89.4443
91.1262
92.8432
94.5944
96.3781
98.1892
100.021
101.858
103.671
105.39
106.87
107.818
37.6726
44.134
48.9343
53.5751
57.6043
60.9413
63.7181
66.0866
68.2371
70.234
72.1043
73.8676
75.5461
77.1592
78.726
80.2665
81.7996
83.3401
84.8987
86.4829
88.0971
89.7447
91.4267
93.1427
94.8899
96.6639
98.4576
100.257
102.031
103.714
105.162
106.093
37.0287
43.3906
48.1074
52.6835
56.6814
60.0079
62.7824
65.1507
67.2904
69.2728
71.1243
72.8649
74.5148
76.0966
77.631
79.1388
80.6392
82.1471
83.6733
85.225
86.8066
88.4211
90.0698
91.7518
93.4643
95.2031
96.9603
98.7228
100.46
102.107
103.527
104.442
36.4079
42.6772
47.3108
51.823
55.7917
59.1103
61.8842
64.2548
66.3836
68.3525
70.187
71.9064
73.5298
75.0821
76.5856
78.0619
79.5307
81.0075
82.5026
84.0233
85.5738
87.1568
88.7734
90.4227
92.102
93.8066
95.5292
97.256
98.9583
100.571
101.963
102.863
35.8209
42.0008
46.5483
50.9945
54.9342
58.2463
61.021
63.3961
65.5156
67.4728
69.2919
70.9923
72.5921
74.1162
75.5898
77.0362
78.4751
79.922
81.3874
82.8784
84.399
85.952
87.5381
89.1565
90.8043
92.4767
94.1663
95.8592
97.5276
99.1087
100.474
101.358
35.2676
41.3604
45.8183
50.1957
54.1064
57.4142
60.1928
62.5759
64.6869
66.6334
68.439
70.1219
71.7003
73.1984
74.6443
76.062
77.4722
78.8907
80.3279
81.7907
83.283
84.8072
86.3641
87.9526
89.5699
91.2113
92.869
94.5298
96.166
97.7161
99.0564
99.9276
34.7575
40.7638
45.1252
49.4272
53.3068
56.6117
59.3968
61.7878
63.8958
65.8339
67.6275
69.2948
70.8538
72.3285
73.7482
75.1388
76.522
77.9134
79.3237
80.7595
82.2247
83.7215
85.2508
86.8111
88.3996
90.0115
91.6394
93.2692
94.8747
96.3955
97.7121
98.5705
34.2887
40.2075
44.4666
48.6864
52.5319
55.8358
58.6307
61.0323
63.143
65.0735
66.8571
68.5105
70.0516
71.5054
72.9012
74.2667
75.624
76.9896
78.3742
79.7843
81.2237
82.6942
84.1965
85.7294
87.2901
88.8734
90.4719
92.0722
93.6483
95.1417
96.4366
97.2842
33.8641
39.6951
43.8461
47.9746
51.7807
55.0839
57.8916
60.3064
62.4258
64.3516
66.1267
67.7678
69.2933
70.7275
72.1013
73.4433
74.7763
76.1173
77.4772
78.8624
80.2769
81.7222
83.1986
84.7053
86.2391
87.7948
89.3653
90.9373
92.4858
93.9526
95.2279
96.0657
33.4761
39.2235
43.2607
47.2887
51.0492
54.3517
57.1764
59.6091
61.7442
63.6667
65.4353
67.0662
68.5772
69.994
71.3471
72.6665
73.9762
75.2936
76.6295
77.9906
79.3808
80.8017
82.2534
83.7349
85.2429
86.7724
88.3162
89.8609
91.3823
92.8249
94.0812
94.9112
33.1325
38.798
42.7136
46.6302
50.3363
53.6363
56.4814
58.9368
61.0906
63.0174
64.7816
66.4034
67.9021
69.3024
70.6365
71.9346
73.2221
74.5166
75.8293
77.167
78.5338
79.9312
81.3594
82.8169
84.3004
85.8047
87.3228
88.8415
90.3379
91.7569
92.9964
93.8189
32.8281
38.4131
42.2018
45.996
49.6377
52.9323
55.8016
58.2857
60.4629
62.4013
64.1633
65.7787
67.2661
68.6518
69.9677
71.2454
72.5112
73.7833
75.0734
76.3884
77.7323
79.1069
80.5122
81.9466
83.4066
84.8869
86.3802
87.8744
89.3464
90.7433
91.967
92.7837
32.5723
38.0759
41.7314
45.3903
48.9541
52.2367
55.1323
57.6508
59.8573
61.815
63.5784
65.1884
66.6665
68.0388
69.3378
70.5961
71.841
73.0913
74.3592
75.652
76.9737
78.3264
79.7097
81.122
82.5595
84.0169
85.4869
86.9574
88.4063
89.7824
90.9913
91.8025
32.3563
37.7799
41.2987
44.8107
48.2817
51.5436
54.4667
57.0263
59.2687
61.2509
63.0227
64.6311
66.1012
67.4609
68.7439
69.9835
71.2078
72.4365
73.6824
74.9532
76.2531
77.584
78.9458
80.3366
81.7526
83.1879
84.6355
86.0829
87.5096
88.8657
90.0612
90.8683
32.1867
37.5304
40.9095
44.2622
47.6222
50.8497
53.7978
56.4043
58.69
60.7037
62.4932
64.101
65.5652
66.9145
68.1822
69.4034
70.6074
71.8147
73.0388
74.288
75.5665
76.8763
78.2173
79.5873
80.9824
82.3965
83.8224
85.2481
86.6536
87.9904
89.1732
89.9775
32.0486
37.3155
40.5556
43.7401
46.9711
50.148
53.1163
55.7759
58.1143
60.1678
61.9804
63.5957
65.0561
66.3946
67.648
68.8515
70.035
71.2208
72.423
73.6502
74.9071
76.1956
77.5158
78.8653
80.2399
81.6334
83.0384
84.4427
85.8277
87.1462
88.3173
89.1193
31.9462
37.1384
40.2418
43.2498
46.331
49.4352
52.413
55.1289
57.5299
59.6322
61.4759
63.1062
64.565
65.8966
67.1357
68.3211
69.4841
70.648
71.8278
73.033
74.2684
75.5362
76.8362
78.1656
79.5204
80.8937
82.2782
83.6618
85.0271
86.3276
87.4872
88.2883
31.8582
36.9804
39.9538
42.782
45.6955
48.7025
51.6756
54.4499
56.9252
59.0886
60.9734
62.6243
64.0896
65.4122
66.6389
67.8063
68.9482
70.0894
71.2464
72.4286
73.6418
74.888
76.1671
77.4762
78.8112
80.1645
81.5287
82.8918
84.2373
85.52
86.6697
87.4711
31.7876
36.8437
39.6953
42.3422
45.0688
47.9482
50.8927
53.721
56.2811
58.52
60.4569
62.1375
63.6139
64.9347
66.1474
67.297
68.4174
69.535
70.6673
71.8258
73.0161
74.2409
75.4995
76.7888
78.1042
79.4378
80.7819
82.1244
83.4505
84.7158
85.8556
86.6583
31.7067
36.7058
39.4473
41.9172
44.4428
47.1636
50.0496
52.9231
55.5795
57.9116
59.9156
61.6361
63.1293
64.4514
65.6538
66.7834
67.8802
68.9727
70.0798
71.2129
72.3793
73.5812
74.8183
76.0867
77.3822
78.6956
80.0192
81.3411
82.6475
83.8952
85.0256
85.831
31.6265
36.5734
39.2153
41.5134
43.8237
46.3495
49.1347
52.0314
54.7901
57.235
59.3251
61.0985
62.6176
63.9445
65.1383
66.2506
67.3237
68.3887
69.4672
70.5735
71.7139
72.8923
74.1073
75.355
76.6302
77.9235
79.2265
80.5274
81.8142
83.0443
84.1662
84.9757
31.5155
36.4175
38.9732
41.1104
43.1988
45.4965
48.1331
51.0201
53.8828
56.4641
58.6647
60.5087
62.0636
63.4011
64.5875
65.6799
66.7257
67.7609
68.8094
69.8853
70.9985
72.1512
73.3429
74.5685
75.8237
77.0965
78.3782
79.6574
80.9241
82.1362
83.2501
84.0653
31.3973
36.255
38.7328
40.7176
42.5757
44.6062
47.0312
49.8574
52.8123
55.5502
57.8921
59.8294
61.4338
62.7886
63.9699
65.0431
66.0619
67.0642
68.0778
69.122
70.2046
71.3312
72.4992
73.7031
74.937
76.1887
77.4485
78.7054
79.9519
81.1463
82.2537
83.0777
31.2348
36.0509
38.4617
40.306
41.9341
43.6726
45.8233
48.512
51.5271
54.4474
56.9664
59.0297
60.7029
62.0836
63.2615
64.3129
65.2963
66.2599
67.2359
68.2426
69.2944
70.3921
71.5348
72.7146
73.9289
75.1601
76.3972
77.6312
78.8576
80.0344
81.1366
81.9724
31.0643
35.8388
38.1838
39.8969
41.2953
42.7091
44.5107
46.9648
49.9699
53.0649
55.8117
58.0394
59.8069
61.2255
62.4029
63.4284
64.3772
65.2983
66.2295
67.1984
68.2134
69.2828
70.4012
71.5597
72.7529
73.9628
75.1767
76.387
77.5938
78.7541
79.8544
80.7086
30.8371
35.5802
37.865
39.4567
40.629
41.6963
43.0811
45.1918
48.0937
51.3396
54.3398
56.7934
58.6936
60.1672
61.3474
62.346
63.2412
64.1059
64.9872
65.9076
66.889
67.9278
69.0208
70.154
71.3311
72.5228
73.7132
74.9007
76.0902
77.2369
78.3404
79.221
30.6367
35.3452
37.564
39.0309
39.9665
40.65
41.5309
43.1586
45.8191
49.1535
52.4268
55.1456
57.2192
58.7698
59.9556
60.9104
61.7569
62.5625
63.3827
64.2622
65.2028
66.2179
67.2928
68.4122
69.5753
70.7516
71.9195
73.0843
74.2592
75.396
76.5092
77.4291
30.394
35.071
37.2166
38.556
39.2511
39.5246
39.8219
40.8185
43.0694
46.3979
49.9502
52.989
55.2841
56.9369
58.1289
59.0412
59.7897
60.504
61.2603
62.078
62.9954
63.99
65.0517
66.15
67.3143
68.4838
69.6301
70.7782
71.95
73.0915
74.2311
75.2152
30.2571
34.8863
36.9414
38.1338
38.5589
38.3588
37.9413
38.0899
39.6889
42.8556
46.6467
50.0272
52.5704
54.3215
55.5039
56.314
56.9939
57.6262
58.3102
59.1205
60.0166
61.0221
62.0901
63.1988
64.3757
65.5547
66.6883
67.823
69.0006
70.1588
71.336
72.4107
30.063
34.6462
36.598
37.6312
37.775
37.0618
35.8041
34.8421
35.4702
38.2869
42.2765
46.0359
48.8638
50.7425
51.8741
52.5768
53.0532
53.5537
54.2074
54.9741
55.942
56.9941
58.1122
59.227
60.4814
61.7016
62.8306
63.9691
65.1597
66.3673