/*--------------------------------*- C++ -*----------------------------------*\
  =========                 |
  \\      /  F ield         | OpenFOAM: The Open Source CFD Toolbox
   \\    /   O peration     | Website:  https://openfoam.org
    \\  /    A nd           | Version:  6
     \\/     M anipulation  |
\*---------------------------------------------------------------------------*/
FoamFile
{
    version     2.0;
    format      ascii;
    class       volScalarField;
    location    "0.2";
    object      nut;
}
// * * * * * * * * * * * * * * * * * * * * * * * * * * * * * * * * * * * * * //

dimensions      [0 2 -1 0 0 0 0];

internalField   nonuniform List<scalar> 
63400
(
4.22682e-07
4.21322e-07
3.98561e-07
4.6051e-07
4.82836e-07
4.88685e-07
4.83706e-07
4.60206e-07
4.25897e-07
4.08194e-07
3.93292e-07
3.87852e-07
3.92301e-07
3.70612e-07
4.27411e-07
4.49165e-07
3.64934e-07
3.83489e-07
3.88758e-07
3.91325e-07
3.848e-07
3.69981e-07
3.64486e-07
3.65007e-07
3.06576e-07
3.00802e-07
3.04855e-07
2.90233e-07
3.32795e-07
3.51389e-07
3.60975e-07
3.58701e-07
3.10216e-07
2.99641e-07
2.9151e-07
2.84208e-07
2.81085e-07
2.87614e-07
2.75073e-07
3.15492e-07
2.23047e-07
2.51665e-07
2.67249e-07
2.76481e-07
2.78237e-07
2.81112e-07
2.73011e-07
2.71784e-07
2.18633e-07
2.14852e-07
2.13855e-07
2.13444e-07
2.18844e-07
2.08829e-07
2.34374e-07
2.50027e-07
1.98194e-07
2.05342e-07
2.08361e-07
2.07337e-07
2.08543e-07
2.04642e-07
1.99978e-07
2.01356e-07
1.57032e-07
1.57949e-07
1.57913e-07
1.60622e-07
1.50865e-07
1.70558e-07
1.8155e-07
1.90718e-07
1.53472e-07
1.54118e-07
1.55397e-07
1.53718e-07
1.48196e-07
1.46173e-07
1.44751e-07
1.48169e-07
1.12937e-07
1.165e-07
1.11314e-07
1.26281e-07
1.34306e-07
1.38817e-07
1.40308e-07
1.43764e-07
1.10782e-07
1.11397e-07
1.11884e-07
1.10259e-07
1.07994e-07
1.0732e-07
1.06097e-07
1.08182e-07
7.89388e-08
8.16553e-08
7.75726e-08
8.81111e-08
9.40859e-08
9.82696e-08
1.00421e-07
1.03557e-07
7.75351e-08
7.76653e-08
7.79155e-08
7.69902e-08
7.57916e-08
7.54395e-08
7.46638e-08
7.62967e-08
5.30253e-08
5.47676e-08
5.08976e-08
5.9034e-08
6.55918e-08
6.95745e-08
7.06129e-08
7.24142e-08
5.21207e-08
5.17848e-08
5.14556e-08
5.13488e-08
5.18455e-08
5.20454e-08
5.14448e-08
5.21978e-08
3.35928e-08
3.33986e-08
3.31038e-08
3.42572e-08
3.04294e-08
3.60239e-08
4.17688e-08
4.67791e-08
3.28484e-08
3.19628e-08
3.1754e-08
3.19453e-08
3.1738e-08
3.18815e-08
3.20932e-08
3.3241e-08
1.78426e-08
1.76202e-08
1.71965e-08
1.69414e-08
1.6891e-08
1.67747e-08
1.65174e-08
1.68665e-08
8.44275e-09
1.2193e-08
1.50231e-08
1.58963e-08
1.60369e-08
1.6046e-08
1.5992e-08
1.603e-08
1.24734e-07
1.20185e-07
1.21531e-07
1.23699e-07
1.24751e-07
1.24942e-07
1.24845e-07
1.2651e-07
3.23333e-06
3.27038e-06
3.24021e-06
3.30375e-06
3.35163e-06
3.39761e-06
3.4099e-06
3.39635e-06
3.25954e-06
3.2582e-06
3.24382e-06
3.23693e-06
3.27487e-06
3.24674e-06
3.30172e-06
3.36307e-06
3.12852e-06
3.18648e-06
3.22596e-06
3.25868e-06
3.27085e-06
3.25697e-06
3.24618e-06
3.28217e-06
3.06782e-06
3.07706e-06
3.12167e-06
3.08399e-06
3.13772e-06
3.18759e-06
3.24003e-06
3.26721e-06
3.09221e-06
3.09095e-06
3.09396e-06
3.07962e-06
3.0722e-06
3.11331e-06
3.07834e-06
3.14701e-06
2.88851e-06
2.93498e-06
2.99889e-06
3.05433e-06
3.07751e-06
3.11047e-06
3.09666e-06
3.11516e-06
2.89521e-06
2.8938e-06
2.90957e-06
2.91812e-06
2.95584e-06
2.91048e-06
2.95033e-06
3.0262e-06
2.79094e-06
2.85494e-06
2.89512e-06
2.90497e-06
2.92814e-06
2.92252e-06
2.91625e-06
2.94636e-06
2.69937e-06
2.71739e-06
2.72227e-06
2.76073e-06
2.70284e-06
2.75086e-06
2.81813e-06
2.89168e-06
2.68486e-06
2.69704e-06
2.71417e-06
2.72655e-06
2.71421e-06
2.7151e-06
2.72131e-06
2.75874e-06
2.48911e-06
2.52879e-06
2.46747e-06
2.52439e-06
2.60341e-06
2.6725e-06
2.70361e-06
2.73077e-06
2.47787e-06
2.48538e-06
2.49111e-06
2.5021e-06
2.52183e-06
2.53425e-06
2.52812e-06
2.55088e-06
2.24227e-06
2.28448e-06
2.21118e-06
2.27665e-06
2.3678e-06
2.44419e-06
2.47952e-06
2.5081e-06
2.23187e-06
2.23783e-06
2.24049e-06
2.25128e-06
2.27173e-06
2.28336e-06
2.27807e-06
2.29988e-06
1.95492e-06
2.00113e-06
1.90885e-06
1.98537e-06
2.09734e-06
2.18831e-06
2.22588e-06
2.25093e-06
1.94465e-06
1.95101e-06
1.94558e-06
1.95241e-06
1.98023e-06
2.00097e-06
2.00345e-06
2.01652e-06
1.62671e-06
1.63485e-06
1.62521e-06
1.66972e-06
1.54863e-06
1.63942e-06
1.77703e-06
1.89695e-06
1.60604e-06
1.60397e-06
1.60108e-06
1.60596e-06
1.60114e-06
1.61501e-06
1.63294e-06
1.66737e-06
1.18466e-06
1.1953e-06
1.17841e-06
1.16396e-06
1.16217e-06
1.16267e-06
1.15748e-06
1.17408e-06
7.16174e-07
9.27013e-07
1.07744e-06
1.11935e-06
1.12564e-06
1.12926e-06
1.1316e-06
1.13251e-06
1.07801e-05
1.09272e-05
1.11469e-05
1.1372e-05
1.1591e-05
1.18129e-05
1.20469e-05
1.23299e-05
7.80194e-06
7.88713e-06
7.8453e-06
7.92744e-06
8.00557e-06
8.10601e-06
8.15023e-06
8.13003e-06
7.86993e-06
7.87712e-06
7.85618e-06
7.82948e-06
7.91006e-06
7.87251e-06
7.93509e-06
8.05343e-06
7.63052e-06
7.7291e-06
7.80556e-06
7.87759e-06
7.91709e-06
7.89605e-06
7.85921e-06
7.93576e-06
7.55435e-06
7.56166e-06
7.66589e-06
7.602e-06
7.66563e-06
7.74102e-06
7.84257e-06
7.91877e-06
7.60896e-06
7.60803e-06
7.62302e-06
7.5977e-06
7.56551e-06
7.65128e-06
7.58389e-06
7.68604e-06
7.28025e-06
7.32211e-06
7.4262e-06
7.5372e-06
7.58013e-06
7.65712e-06
7.62755e-06
7.65825e-06
7.29471e-06
7.28157e-06
7.31129e-06
7.32306e-06
7.40927e-06
7.32327e-06
7.34793e-06
7.48378e-06
7.08271e-06
7.20149e-06
7.2924e-06
7.3113e-06
7.36244e-06
7.34987e-06
7.32204e-06
7.38166e-06
6.96956e-06
7.00771e-06
7.007e-06
7.09581e-06
6.98365e-06
7.0299e-06
7.13113e-06
7.28472e-06
6.9515e-06
6.97661e-06
7.00458e-06
7.02976e-06
7.00199e-06
6.99878e-06
7.00483e-06
7.08527e-06
6.63328e-06
6.72361e-06
6.5934e-06
6.6463e-06
6.77103e-06
6.91238e-06
6.98701e-06
7.05467e-06
6.62538e-06
6.63431e-06
6.63386e-06
6.63811e-06
6.67636e-06
6.71927e-06
6.71343e-06
6.759e-06
6.2264e-06
6.32359e-06
6.16528e-06
6.22633e-06
6.37795e-06
6.54137e-06
6.62538e-06
6.69106e-06
6.21367e-06
6.22286e-06
6.21661e-06
6.21932e-06
6.2623e-06
6.30634e-06
6.30253e-06
6.34617e-06
5.7413e-06
5.85434e-06
5.66023e-06
5.73211e-06
5.91354e-06
6.10349e-06
6.19925e-06
6.26333e-06
5.72279e-06
5.74108e-06
5.72395e-06
5.7214e-06
5.77411e-06
5.82565e-06
5.84117e-06
5.87787e-06
5.20943e-06
5.23446e-06
5.20515e-06
5.31848e-06
5.07904e-06
5.15002e-06
5.36293e-06
5.6099e-06
5.14911e-06
5.15969e-06
5.15999e-06
5.16877e-06
5.14549e-06
5.16342e-06
5.20426e-06
5.28771e-06
4.66755e-06
4.72391e-06
4.70802e-06
4.6691e-06
4.65438e-06
4.6564e-06
4.64439e-06
4.67741e-06
3.91755e-06
4.12674e-06
4.46627e-06
4.57169e-06
4.57612e-06
4.57706e-06
4.58144e-06
4.57664e-06
1.25821e-05
1.27759e-05
1.30327e-05
1.32872e-05
1.3534e-05
1.37864e-05
1.4054e-05
1.43761e-05
1.35748e-05
1.37143e-05
1.36607e-05
1.3762e-05
1.38659e-05
1.40235e-05
1.41145e-05
1.40868e-05
1.36913e-05
1.37086e-05
1.36806e-05
1.36221e-05
1.37496e-05
1.37071e-05
1.37742e-05
1.39502e-05
1.33256e-05
1.34683e-05
1.35789e-05
1.36936e-05
1.37733e-05
1.37504e-05
1.36776e-05
1.37892e-05
1.3229e-05
1.32241e-05
1.33977e-05
1.33123e-05
1.33878e-05
1.34859e-05
1.36381e-05
1.37747e-05
1.33133e-05
1.33133e-05
1.33405e-05
1.3306e-05
1.32386e-05
1.33761e-05
1.32777e-05
1.34139e-05
1.28443e-05
1.28761e-05
1.30184e-05
1.31921e-05
1.32534e-05
1.33895e-05
1.33496e-05
1.33879e-05
1.28543e-05
1.28239e-05
1.28657e-05
1.28754e-05
1.30259e-05
1.29095e-05
1.29113e-05
1.31084e-05
1.25074e-05
1.26829e-05
1.28348e-05
1.2865e-05
1.29553e-05
1.29427e-05
1.28843e-05
1.29674e-05
1.23498e-05
1.24166e-05
1.24071e-05
1.25627e-05
1.23999e-05
1.24407e-05
1.25741e-05
1.28148e-05
1.23225e-05
1.23705e-05
1.2414e-05
1.24594e-05
1.24103e-05
1.23965e-05
1.23957e-05
1.2524e-05
1.18472e-05
1.2009e-05
1.18141e-05
1.18617e-05
1.20333e-05
1.22467e-05
1.23691e-05
1.24934e-05
1.18457e-05
1.18626e-05
1.18606e-05
1.18534e-05
1.18958e-05
1.1969e-05
1.19698e-05
1.20478e-05
1.12405e-05
1.14099e-05
1.11735e-05
1.12254e-05
1.14349e-05
1.16853e-05
1.18262e-05
1.19467e-05
1.12214e-05
1.12397e-05
1.1229e-05
1.12169e-05
1.1266e-05
1.13431e-05
1.13487e-05
1.14246e-05
1.05216e-05
1.07123e-05
1.04323e-05
1.04905e-05
1.07342e-05
1.10196e-05
1.11798e-05
1.12981e-05
1.04844e-05
1.05183e-05
1.04918e-05
1.04747e-05
1.0542e-05
1.06243e-05
1.06545e-05
1.0726e-05
9.82679e-06
9.86549e-06
9.81508e-06
9.98534e-06
9.69214e-06
9.7057e-06
9.94217e-06
1.02913e-05
9.71879e-06
9.73492e-06
9.73503e-06
9.75407e-06
9.71374e-06
9.72327e-06
9.77719e-06
9.90977e-06
9.5723e-06
9.62402e-06
9.61261e-06
9.56277e-06
9.53508e-06
9.53504e-06
9.516e-06
9.55383e-06
9.67377e-06
9.12002e-06
9.34453e-06
9.45594e-06
9.45838e-06
9.4528e-06
9.45334e-06
9.44308e-06
1.40316e-05
1.42559e-05
1.45413e-05
1.48259e-05
1.51024e-05
1.53848e-05
1.56825e-05
1.60414e-05
2.05731e-05
2.07734e-05
2.07032e-05
2.08286e-05
2.0959e-05
2.1174e-05
2.1319e-05
2.12831e-05
2.07406e-05
2.07701e-05
2.07339e-05
2.06333e-05
2.08092e-05
2.07603e-05
2.08345e-05
2.10729e-05
2.02296e-05
2.04244e-05
2.05673e-05
2.07223e-05
2.08491e-05
2.08274e-05
2.07133e-05
2.08548e-05
2.01056e-05
2.00821e-05
2.03301e-05
2.02218e-05
2.03148e-05
2.04368e-05
2.06395e-05
2.08405e-05
2.0216e-05
2.02183e-05
2.02574e-05
2.02135e-05
2.01029e-05
2.02957e-05
2.0163e-05
2.03368e-05
1.95918e-05
1.96142e-05
1.97941e-05
2.00337e-05
2.01085e-05
2.03115e-05
2.02655e-05
2.03097e-05
1.95886e-05
1.95393e-05
1.95913e-05
1.95916e-05
1.98131e-05
1.96727e-05
1.96503e-05
1.99103e-05
1.90893e-05
1.93211e-05
1.95384e-05
1.95794e-05
1.97149e-05
1.97077e-05
1.96153e-05
1.97158e-05
1.88709e-05
1.89713e-05
1.89497e-05
1.91807e-05
1.8972e-05
1.90053e-05
1.91682e-05
1.9495e-05
1.88266e-05
1.89047e-05
1.89652e-05
1.90364e-05
1.89643e-05
1.89362e-05
1.89227e-05
1.90974e-05
1.81828e-05
1.84262e-05
1.81734e-05
1.82133e-05
1.84296e-05
1.87099e-05
1.88775e-05
1.90632e-05
1.8186e-05
1.82161e-05
1.82138e-05
1.81948e-05
1.82334e-05
1.83332e-05
1.83434e-05
1.84583e-05
1.73748e-05
1.76187e-05
1.73176e-05
1.73528e-05
1.76095e-05
1.79371e-05
1.81327e-05
1.83131e-05
1.73387e-05
1.73709e-05
1.73563e-05
1.73282e-05
1.73745e-05
1.74814e-05
1.75009e-05
1.76135e-05
1.64511e-05
1.67079e-05
1.63759e-05
1.64026e-05
1.66776e-05
1.70379e-05
1.7258e-05
1.74321e-05
1.63786e-05
1.64299e-05
1.63957e-05
1.63639e-05
1.64338e-05
1.65426e-05
1.65907e-05
1.6701e-05
1.573e-05
1.57776e-05
1.57195e-05
1.58954e-05
1.565e-05
1.55567e-05
1.57234e-05
1.61098e-05
1.55892e-05
1.5612e-05
1.5606e-05
1.5632e-05
1.55767e-05
1.55684e-05
1.56299e-05
1.57983e-05
1.6072e-05
1.6039e-05
1.59993e-05
1.59361e-05
1.58952e-05
1.58925e-05
1.58706e-05
1.59007e-05
1.70314e-05
1.57954e-05
1.57888e-05
1.5857e-05
1.5853e-05
1.58415e-05
1.58349e-05
1.58275e-05
1.52616e-05
1.55106e-05
1.58178e-05
1.61298e-05
1.6435e-05
1.67462e-05
1.70709e-05
1.7462e-05
2.88462e-05
2.91171e-05
2.90251e-05
2.9179e-05
2.93409e-05
2.9618e-05
2.98242e-05
2.97797e-05
2.90687e-05
2.91124e-05
2.90678e-05
2.89171e-05
2.91471e-05
2.90893e-05
2.91713e-05
2.9483e-05
2.83903e-05
2.86486e-05
2.88265e-05
2.90205e-05
2.92003e-05
2.91816e-05
2.90217e-05
2.91944e-05
2.82354e-05
2.8188e-05
2.85185e-05
2.8382e-05
2.84976e-05
2.86496e-05
2.89066e-05
2.91765e-05
2.83685e-05
2.83735e-05
2.8426e-05
2.83723e-05
2.82121e-05
2.84682e-05
2.8294e-05
2.85088e-05
2.75711e-05
2.75854e-05
2.78085e-05
2.812e-05
2.82023e-05
2.8479e-05
2.84285e-05
2.84799e-05
2.75495e-05
2.74799e-05
2.75444e-05
2.75285e-05
2.78267e-05
2.76633e-05
2.76167e-05
2.79479e-05
2.68878e-05
2.71744e-05
2.74598e-05
2.75098e-05
2.76958e-05
2.76975e-05
2.75701e-05
2.76866e-05
2.65935e-05
2.67298e-05
2.66925e-05
2.70061e-05
2.67529e-05
2.67802e-05
2.6975e-05
2.73881e-05
2.6525e-05
2.66361e-05
2.67139e-05
2.68157e-05
2.67203e-05
2.66775e-05
2.66492e-05
2.68687e-05
2.57081e-05
2.60379e-05
2.57319e-05
2.57656e-05
2.60274e-05
2.63698e-05
2.65769e-05
2.68242e-05
2.57117e-05
2.57584e-05
2.57556e-05
2.57266e-05
2.57585e-05
2.58819e-05
2.5903e-05
2.60576e-05
2.47177e-05
2.50287e-05
2.46785e-05
2.46956e-05
2.49878e-05
2.53773e-05
2.56194e-05
2.5858e-05
2.46518e-05
2.47005e-05
2.46812e-05
2.46383e-05
2.46778e-05
2.48108e-05
2.48473e-05
2.49983e-05
2.36614e-05
2.3955e-05
2.36166e-05
2.36038e-05
2.38683e-05
2.42657e-05
2.45301e-05
2.47527e-05
2.35399e-05
2.36073e-05
2.35685e-05
2.35251e-05
2.35884e-05
2.37144e-05
2.37801e-05
2.39274e-05
2.30879e-05
2.31356e-05
2.3096e-05
2.32091e-05
2.31138e-05
2.28978e-05
2.28981e-05
2.32297e-05
2.29595e-05
2.29942e-05
2.29791e-05
2.30045e-05
2.29361e-05
2.29029e-05
2.29695e-05
2.31602e-05
2.40922e-05
2.38954e-05
2.37741e-05
2.36824e-05
2.36248e-05
2.36181e-05
2.35982e-05
2.36195e-05
2.44207e-05
2.35693e-05
2.35489e-05
2.36044e-05
2.36028e-05
2.35912e-05
2.35754e-05
2.35972e-05
1.63745e-05
1.6649e-05
1.69749e-05
1.73111e-05
1.76433e-05
1.79815e-05
1.8331e-05
1.87502e-05
3.84567e-05
3.88105e-05
3.86932e-05
3.88784e-05
3.9078e-05
3.94255e-05
3.97034e-05
3.96497e-05
3.87411e-05
3.8801e-05
3.87484e-05
3.85389e-05
3.8832e-05
3.87648e-05
3.88529e-05
3.92511e-05
3.78697e-05
3.82032e-05
3.84221e-05
3.86555e-05
3.88965e-05
3.88826e-05
3.86706e-05
3.88795e-05
3.76823e-05
3.76051e-05
3.80296e-05
3.78595e-05
3.80009e-05
3.81895e-05
3.85082e-05
3.88549e-05
3.78351e-05
3.78425e-05
3.79112e-05
3.78478e-05
3.76306e-05
3.79614e-05
3.77394e-05
3.79968e-05
3.68475e-05
3.68516e-05
3.71248e-05
3.75179e-05
3.76019e-05
3.79601e-05
3.79055e-05
3.79667e-05
3.68019e-05
3.67099e-05
3.67913e-05
3.67539e-05
3.71344e-05
3.69485e-05
3.68745e-05
3.72873e-05
3.59715e-05
3.63106e-05
3.6666e-05
3.67225e-05
3.69638e-05
3.6978e-05
3.68147e-05
3.69493e-05
3.55899e-05
3.57635e-05
3.57068e-05
3.61082e-05
3.58131e-05
3.58346e-05
3.60638e-05
3.65652e-05
3.54911e-05
3.56349e-05
3.57288e-05
3.58661e-05
3.57481e-05
3.56922e-05
3.5649e-05
3.59131e-05
3.45088e-05
3.4923e-05
3.45727e-05
3.46002e-05
3.4905e-05
3.53032e-05
3.55427e-05
3.58489e-05
3.45057e-05
3.45718e-05
3.4567e-05
3.45301e-05
3.45557e-05
3.47011e-05
3.47338e-05
3.49298e-05
3.33825e-05
3.3742e-05
3.33675e-05
3.33646e-05
3.36724e-05
3.41013e-05
3.43766e-05
3.4666e-05
3.32742e-05
3.334e-05
3.33153e-05
3.32592e-05
3.32893e-05
3.34439e-05
3.34998e-05
3.36881e-05
3.23114e-05
3.25959e-05
3.23087e-05
3.22542e-05
3.24537e-05
3.28345e-05
3.31176e-05
3.3374e-05
3.21379e-05
3.22165e-05
3.21799e-05
3.21276e-05
3.218e-05
3.231e-05
3.23869e-05
3.25601e-05
3.20385e-05
3.20768e-05
3.20838e-05
3.20774e-05
3.2196e-05
3.18792e-05
3.16505e-05
3.18367e-05
3.19902e-05
3.2046e-05
3.20218e-05
3.20387e-05
3.19555e-05
3.18941e-05
3.1966e-05
3.21802e-05
3.33086e-05
3.29113e-05
3.26557e-05
3.25116e-05
3.24298e-05
3.24161e-05
3.2399e-05
3.24297e-05
3.05734e-05
3.1549e-05
3.20661e-05
3.22655e-05
3.23074e-05
3.23121e-05
3.2286e-05
3.23855e-05
1.74294e-05
1.77324e-05
1.80769e-05
1.84356e-05
1.87933e-05
1.91575e-05
1.95306e-05
1.99754e-05
4.94763e-05
4.99261e-05
4.97836e-05
5.00018e-05
5.0244e-05
5.06707e-05
5.10351e-05
5.09722e-05
4.98312e-05
4.99108e-05
4.98516e-05
4.95729e-05
4.99385e-05
4.98647e-05
4.99559e-05
5.0453e-05
4.87416e-05
4.91602e-05
4.94279e-05
4.9701e-05
5.00133e-05
5.00081e-05
4.97358e-05
4.99875e-05
4.85208e-05
4.8408e-05
4.89385e-05
4.87319e-05
4.89002e-05
4.91304e-05
4.95182e-05
4.99531e-05
4.86896e-05
4.86991e-05
4.87883e-05
4.87164e-05
4.84337e-05
4.88511e-05
4.85786e-05
4.8878e-05
4.75022e-05
4.74915e-05
4.78179e-05
4.8303e-05
4.83834e-05
4.88303e-05
4.87727e-05
4.88469e-05
4.74255e-05
4.73087e-05
4.74117e-05
4.73493e-05
4.78158e-05
4.76114e-05
4.75038e-05
4.80054e-05
4.64258e-05
4.68124e-05
4.72375e-05
4.72977e-05
4.75973e-05
4.76286e-05
4.74289e-05
4.75857e-05
4.59525e-05
4.61638e-05
4.60859e-05
4.65746e-05
4.62462e-05
4.62597e-05
4.6521e-05
4.71094e-05
4.58194e-05
4.5994e-05
4.60996e-05
4.62756e-05
4.61389e-05
4.60726e-05
4.60156e-05
4.63241e-05
4.47024e-05
4.51891e-05
4.48127e-05
4.48319e-05
4.51676e-05
4.56088e-05
4.58709e-05
4.62288e-05
4.46833e-05
4.47708e-05
4.47621e-05
4.47192e-05
4.47398e-05
4.49054e-05
4.4951e-05
4.51872e-05
4.35247e-05
4.38999e-05
4.35391e-05
4.35146e-05
4.38043e-05
4.42376e-05
4.45269e-05
4.48526e-05
4.33663e-05
4.34464e-05
4.34182e-05
4.33507e-05
4.33672e-05
4.35351e-05
4.36113e-05
4.38312e-05
4.25927e-05
4.28123e-05
4.26378e-05
4.25478e-05
4.26221e-05
4.29199e-05
4.31877e-05
4.34552e-05
4.23832e-05
4.2466e-05
4.2443e-05
4.2381e-05
4.24267e-05
4.25466e-05
4.26193e-05
4.27936e-05
4.26683e-05
4.26937e-05
4.27602e-05
4.26264e-05
4.29374e-05
4.2581e-05
4.21434e-05
4.21372e-05
4.27599e-05
4.28543e-05
4.28234e-05
4.28288e-05
4.27213e-05
4.26341e-05
4.27146e-05
4.29859e-05
4.321e-05
4.2641e-05
4.22221e-05
4.20024e-05
4.18853e-05
4.18604e-05
4.18391e-05
4.19186e-05
3.49943e-05
3.88641e-05
4.06256e-05
4.12362e-05
4.14014e-05
4.14523e-05
4.14158e-05
4.16589e-05
1.8444e-05
1.87771e-05
1.91412e-05
1.95214e-05
1.99038e-05
2.02933e-05
2.06895e-05
2.11584e-05
6.20007e-05
6.25585e-05
6.23946e-05
6.26466e-05
6.29345e-05
6.34469e-05
6.39148e-05
6.3845e-05
6.24336e-05
6.25378e-05
6.24754e-05
6.21167e-05
6.25619e-05
6.24879e-05
6.25788e-05
6.31844e-05
6.11074e-05
6.16161e-05
6.19407e-05
6.22519e-05
6.26457e-05
6.26565e-05
6.23152e-05
6.26158e-05
6.08514e-05
6.0698e-05
6.13442e-05
6.11027e-05
6.1297e-05
6.1571e-05
6.20316e-05
6.2568e-05
6.10306e-05
6.10422e-05
6.11569e-05
6.10799e-05
6.07233e-05
6.12366e-05
6.09158e-05
6.12547e-05
5.96478e-05
5.96166e-05
5.99932e-05
6.05772e-05
6.06488e-05
6.11891e-05
6.11305e-05
6.12213e-05
5.95304e-05
5.93876e-05
5.95164e-05
5.94276e-05
5.99791e-05
5.97656e-05
5.96171e-05
6.02074e-05
5.83744e-05
5.87972e-05
5.92866e-05
5.93474e-05
5.97038e-05
5.97576e-05
5.95228e-05
5.97061e-05
5.78137e-05
5.80607e-05
5.79636e-05
5.85295e-05
5.81838e-05
5.81871e-05
5.84704e-05
5.91363e-05
5.7646e-05
5.7847e-05
5.79568e-05
5.81708e-05
5.80225e-05
5.79507e-05
5.78822e-05
5.82321e-05
5.64566e-05
5.69899e-05
5.66163e-05
5.66259e-05
5.69686e-05
5.74283e-05
5.76984e-05
5.80941e-05
5.64121e-05
5.65211e-05
5.65074e-05
5.64592e-05
5.64757e-05
5.6658e-05
5.67174e-05
5.69882e-05
5.53526e-05
5.56965e-05
5.53973e-05
5.53539e-05
5.55802e-05
5.59689e-05
5.62455e-05
5.65844e-05
5.51485e-05
5.52351e-05
5.52094e-05
5.51332e-05
5.51279e-05
5.52934e-05
5.53881e-05
5.56269e-05
5.47122e-05
5.48178e-05
5.47993e-05
5.46934e-05
5.45987e-05
5.47488e-05
5.49639e-05
5.52151e-05
5.45043e-05
5.4585e-05
5.45919e-05
5.45146e-05
5.457e-05
5.4671e-05
5.47153e-05
5.48514e-05
5.49684e-05
5.49923e-05
5.50958e-05
5.4916e-05
5.52714e-05
5.49653e-05
5.44687e-05
5.43241e-05
5.52001e-05
5.53632e-05
5.53306e-05
5.53352e-05
5.518e-05
5.50771e-05
5.51735e-05
5.55866e-05
5.31956e-05
5.25444e-05
5.19725e-05
5.16652e-05
5.15008e-05
5.14606e-05
5.14198e-05
5.16032e-05
3.78159e-05
4.49101e-05
4.85362e-05
4.98724e-05
5.02694e-05
5.04081e-05
5.03621e-05
5.08208e-05
1.9414e-05
1.97757e-05
2.01597e-05
2.05608e-05
2.09668e-05
2.13812e-05
2.18001e-05
2.22917e-05
7.61464e-05
7.68198e-05
7.66427e-05
7.69289e-05
7.7263e-05
7.7863e-05
7.84514e-05
7.83791e-05
7.666e-05
7.67953e-05
7.67353e-05
7.62879e-05
7.68155e-05
7.67507e-05
7.68382e-05
7.75576e-05
7.50921e-05
7.56898e-05
7.60777e-05
7.64221e-05
7.69054e-05
7.69425e-05
7.6525e-05
7.68793e-05
7.47983e-05
7.4601e-05
7.53674e-05
7.5097e-05
7.53152e-05
7.5632e-05
7.61629e-05
7.68123e-05
7.49792e-05
7.49926e-05
7.51383e-05
7.5062e-05
7.46259e-05
7.52386e-05
7.48773e-05
7.52519e-05
7.34252e-05
7.3369e-05
7.37853e-05
7.44673e-05
7.45243e-05
7.51569e-05
7.50996e-05
7.5211e-05
7.32557e-05
7.30885e-05
7.32452e-05
7.31323e-05
7.37593e-05
7.35517e-05
7.33571e-05
7.40262e-05
7.19796e-05
7.2418e-05
7.29564e-05
7.30148e-05
7.342e-05
7.35008e-05
7.32351e-05
7.34488e-05
7.13458e-05
7.16214e-05
7.15124e-05
7.21321e-05
7.17933e-05
7.17864e-05
7.2074e-05
7.27938e-05
7.11503e-05
7.13684e-05
7.14721e-05
7.17162e-05
7.1567e-05
7.14969e-05
7.14206e-05
7.18038e-05
6.99844e-05
7.05227e-05
7.01896e-05
7.01922e-05
7.05072e-05
7.09472e-05
7.12043e-05
7.16142e-05
6.99106e-05
7.00367e-05
7.0019e-05
6.99659e-05
6.99767e-05
7.01676e-05
7.02412e-05
7.05331e-05
6.91063e-05
6.93651e-05
6.91743e-05
6.91224e-05
6.9239e-05
6.95256e-05
6.97574e-05
7.00774e-05
6.88818e-05
6.89599e-05
6.89486e-05
6.88696e-05
6.88296e-05
6.8967e-05
6.90729e-05
6.93101e-05
6.88362e-05
6.88148e-05
6.8946e-05
6.88556e-05
6.85986e-05
6.85684e-05
6.87032e-05
6.89144e-05
6.86797e-05
6.87593e-05
6.88145e-05
6.87113e-05
6.88091e-05
6.8899e-05
6.88876e-05
6.89376e-05
6.87792e-05
6.88358e-05
6.89011e-05
6.88755e-05
6.89846e-05
6.88212e-05
6.85667e-05
6.84985e-05
6.90323e-05
6.93084e-05
6.9281e-05
6.93195e-05
6.90751e-05
6.8974e-05
6.90978e-05
6.98023e-05
6.2669e-05
6.20593e-05
6.13843e-05
6.09955e-05
6.07745e-05
6.0716e-05
6.06329e-05
6.09821e-05
3.94425e-05
4.9423e-05
5.52656e-05
5.76078e-05
5.83526e-05
5.86264e-05
5.85715e-05
5.93083e-05
2.03279e-05
2.07135e-05
2.11163e-05
2.1537e-05
2.19656e-05
2.24037e-05
2.28445e-05
2.3357e-05
9.20389e-05
9.28284e-05
9.265e-05
9.29701e-05
9.33491e-05
9.40318e-05
9.47541e-05
9.4686e-05
9.26287e-05
9.28012e-05
9.27521e-05
9.22117e-05
9.28189e-05
9.27744e-05
9.2857e-05
9.36894e-05
9.08346e-05
9.15111e-05
9.1965e-05
9.23333e-05
9.29086e-05
9.29844e-05
9.2488e-05
9.28983e-05
9.04994e-05
9.02583e-05
9.114e-05
9.08515e-05
9.10904e-05
9.14458e-05
9.20358e-05
9.28041e-05
9.06702e-05
9.06834e-05
9.08644e-05
9.07978e-05
9.02825e-05
9.099e-05
9.06013e-05
9.10069e-05
8.89943e-05
8.89127e-05
8.93502e-05
9.01163e-05
9.01518e-05
9.08669e-05
9.08122e-05
9.09482e-05
8.87616e-05
8.8576e-05
8.87593e-05
8.86288e-05
8.93106e-05
8.91282e-05
8.88881e-05
8.96139e-05
8.74348e-05
8.78561e-05
8.8415e-05
8.84669e-05
8.89044e-05
8.90138e-05
8.87258e-05
8.89716e-05
8.67535e-05
8.70427e-05
8.69352e-05
8.75697e-05
8.72681e-05
8.72564e-05
8.7524e-05
8.82564e-05
8.65476e-05
8.67666e-05
8.68525e-05
8.71094e-05
8.69718e-05
8.69127e-05
8.68345e-05
8.72342e-05
8.55288e-05
8.60167e-05
8.57641e-05
8.57685e-05
8.60155e-05
8.63854e-05
8.66025e-05
8.69925e-05
8.54345e-05
8.55663e-05
8.55493e-05
8.54928e-05
8.54926e-05
8.56763e-05
8.5762e-05
8.60523e-05
8.50191e-05
8.51486e-05
8.5094e-05
8.50506e-05
8.50288e-05
8.51638e-05
8.53204e-05
8.55854e-05
8.48237e-05
8.48733e-05
8.48931e-05
8.48229e-05
8.47337e-05
8.48085e-05
8.49103e-05
8.51193e-05
8.5019e-05
8.49311e-05
8.51246e-05
8.50809e-05
8.47541e-05
8.45876e-05
8.46464e-05
8.4815e-05
8.49477e-05
8.50449e-05
8.51621e-05
8.50202e-05
8.52099e-05
8.53281e-05
8.5242e-05
8.51677e-05
8.3754e-05
8.39055e-05
8.37968e-05
8.42492e-05
8.37006e-05
8.37395e-05
8.41568e-05
8.45775e-05
8.37494e-05
8.41957e-05
8.41794e-05
8.43183e-05
8.39247e-05
8.38467e-05
8.40127e-05
8.52243e-05
7.11253e-05
7.06771e-05
6.99719e-05
6.95254e-05
6.92433e-05
6.91657e-05
6.90127e-05
6.9586e-05
4.02908e-05
5.24276e-05
6.05083e-05
6.40382e-05
6.52295e-05
6.5683e-05
6.56181e-05
6.66725e-05
2.11734e-05
2.15766e-05
2.19957e-05
2.2434e-05
2.28832e-05
2.33434e-05
2.38051e-05
2.43357e-05
0.000109804
0.0001107
0.000110534
0.000110887
0.000111307
0.000112059
0.000112921
0.000112865
0.000110455
0.000110669
0.000110641
0.000110012
0.000110689
0.000110676
0.000110754
0.00011169
0.00010848
0.000109214
0.00010973
0.000110107
0.000110767
0.000110894
0.000110323
0.000110789
0.0001081
0.00010782
0.000108798
0.000108506
0.000108762
0.000109149
0.000109775
0.000110657
0.000108245
0.000108255
0.000108472
0.000108426
0.000107843
0.000108629
0.000108231
0.000108661
0.000106528
0.000106427
0.00010686
0.000107678
0.000107684
0.000108459
0.000108406
0.000108569
0.000106226
0.000106033
0.000106236
0.0001061
0.000106802
0.000106665
0.00010639
0.000107137
0.000104957
0.000105318
0.000105852
0.000105891
0.000106334
0.000106469
0.000106173
0.000106448
0.000104266
0.000104545
0.000104457
0.000105052
0.00010482
0.000104816
0.000105036
0.000105721
0.000104082
0.000104276
0.000104334
0.000104577
0.000104463
0.000104424
0.000104352
0.000104741
0.000103338
0.000103717
0.000103577
0.000103596
0.000103739
0.000103986
0.000104134
0.000104461
0.000103253
0.000103372
0.000103365
0.000103309
0.00010329
0.000103441
0.000103532
0.000103789
0.000103262
0.000103256
0.000103324
0.000103304
0.000103157
0.000103128
0.000103196
0.000103379
0.00010316
0.000103165
0.000103232
0.00010319
0.000103043
0.00010302
0.000103095
0.000103251
0.000103134
0.000103144
0.000103215
0.000103228
0.000103032
0.000102897
0.000102946
0.000103117
0.000103118
0.000103281
0.00010346
0.000103268
0.000103612
0.000103843
0.000103689
0.000103489
9.93585e-05
9.96952e-05
9.92206e-05
0.00010057
9.88913e-05
9.9129e-05
0.000100709
0.00010222
9.86603e-05
9.93395e-05
9.93344e-05
9.96718e-05
9.90565e-05
9.90201e-05
9.92427e-05
0.000101226
7.82134e-05
7.80088e-05
7.73441e-05
7.68733e-05
7.65295e-05
7.64351e-05
7.61841e-05
7.70265e-05
4.0676e-05
5.41284e-05
6.41868e-05
6.89564e-05
7.06577e-05
7.1325e-05
7.12472e-05
7.26276e-05
2.19419e-05
2.23561e-05
2.27874e-05
2.32406e-05
2.3708e-05
2.4188e-05
2.46691e-05
2.52146e-05
0.000129562
0.000130541
0.000130404
0.000130786
0.00013124
0.000132036
0.000133029
0.000132994
0.000130245
0.000130501
0.000130506
0.000129804
0.000130533
0.000130561
0.000130636
0.000131655
0.000128174
0.000128933
0.000129496
0.000129859
0.000130585
0.00013077
0.000130141
0.000130658
0.000127748
0.000127441
0.000128481
0.000128203
0.000128469
0.000128876
0.000129505
0.000130476
0.000127852
0.000127852
0.000128102
0.000128088
0.000127462
0.000128296
0.000127911
0.000128357
0.000126209
0.000126103
0.000126499
0.000127316
0.000127281
0.000128077
0.000128022
0.000128211
0.000125841
0.000125659
0.000125868
0.000125741
0.000126413
0.000126342
0.000126054
0.000126773
0.000124777
0.000125028
0.000125477
0.000125494
0.000125907
0.000126057
0.000125773
0.000126067
0.000124126
0.00012436
0.000124313
0.000124801
0.000124669
0.000124691
0.000124842
0.000125402
0.000124009
0.000124148
0.000124172
0.000124368
0.000124284
0.000124272
0.000124216
0.000124553
0.000123627
0.000123856
0.000123839
0.000123883
0.000123906
0.000123992
0.00012405
0.000124274
0.000123607
0.00012369
0.000123705
0.000123661
0.000123612
0.000123702
0.000123785
0.000123969
0.000123873
0.000123797
0.000123909
0.00012391
0.000123718
0.000123595
0.000123599
0.000123706
0.000123913
0.000123875
0.000123999
0.000124007
0.000123812
0.000123678
0.000123699
0.000123794
0.000122819
0.000123209
0.00012288
0.000122916
0.000123153
0.000123375
0.000123571
0.000123867
0.000122711
0.000123026
0.000123246
0.000122996
0.000123565
0.000124043
0.000123868
0.000123608
0.000114906
0.00011554
0.00011447
0.000117178
0.000113914
0.000114268
0.000117472
0.000120795
0.000112981
0.000113953
0.000113948
0.000114603
0.000113691
0.000113705
0.000113993
0.000117029
8.3759e-05
8.38261e-05
8.32477e-05
8.27836e-05
8.23789e-05
8.22727e-05
8.18987e-05
8.30356e-05
4.07985e-05
5.48025e-05
6.64025e-05
7.23417e-05
7.45732e-05
7.54739e-05
7.53787e-05
7.70633e-05
2.26308e-05
2.30504e-05
2.34892e-05
2.39539e-05
2.44365e-05
2.49336e-05
2.54324e-05
2.59893e-05
0.000151426
0.000152449
0.000152353
0.000152756
0.000153232
0.000154034
0.00015513
0.000155122
0.000152097
0.000152388
0.000152435
0.000151693
0.000152447
0.000152522
0.000152598
0.000153663
0.000150064
0.0001508
0.000151381
0.0001517
0.000152453
0.000152697
0.000152038
0.000152596
0.000149596
0.000149285
0.000150326
0.000150081
0.000150349
0.000150761
0.000151344
0.000152356
0.000149646
0.000149629
0.000149897
0.000149923
0.000149299
0.000150135
0.000149788
0.000150234
0.000148225
0.000148137
0.000148461
0.0001492
0.000149114
0.000149872
0.000149807
0.000150014
0.000147816
0.000147665
0.000147857
0.00014776
0.000148337
0.00014834
0.000148076
0.000148707
0.00014712
0.000147217
0.000147514
0.000147497
0.000147835
0.000147984
0.000147737
0.000148029
0.000146563
0.000146715
0.000146723
0.00014704
0.000147023
0.000147093
0.000147164
0.000147523
0.000146563
0.000146617
0.000146613
0.000146731
0.000146678
0.000146689
0.000146655
0.000146894
0.000146516
0.000146602
0.000146681
0.000146746
0.000146672
0.000146608
0.00014658
0.000146679
0.000146628
0.000146661
0.000146711
0.000146695
0.000146615
0.000146618
0.000146672
0.000146754
0.000146676
0.000146697
0.000146703
0.000146685
0.00014661
0.000146582
0.000146618
0.000146721
0.000146836
0.000146797
0.000146968
0.000147046
0.000146845
0.000146633
0.00014658
0.000146648
0.000143454
0.000144604
0.000143545
0.000143507
0.000144542
0.000145602
0.000146208
0.000146857
0.000142958
0.00014355
0.000143768
0.000143454
0.000144313
0.000145216
0.000145111
0.000144944
0.000129625
0.000130681
0.000128772
0.000133274
0.000128068
0.000128378
0.000133549
0.000139421
0.000125944
0.000127259
0.00012723
0.000128321
0.000127052
0.000127107
0.000127456
0.0001318
8.77496e-05
8.80669e-05
8.75855e-05
8.71469e-05
8.66818e-05
8.65695e-05
8.60553e-05
8.74896e-05
4.07769e-05
5.47299e-05
6.73711e-05
7.43195e-05
7.70618e-05
7.81999e-05
7.80839e-05
8.00275e-05
2.32451e-05
2.36658e-05
2.41078e-05
2.458e-05
2.50748e-05
2.55863e-05
2.61011e-05
2.6666e-05
0.000175497
0.000176506
0.000176459
0.000176868
0.000177346
0.000178103
0.000179246
0.000179264
0.000176099
0.000176407
0.0001765
0.000175772
0.000176513
0.000176631
0.000176713
0.000177768
0.000174291
0.000174945
0.000175496
0.000175733
0.000176454
0.000176741
0.000176097
0.000176677
0.000173796
0.000173511
0.00017447
0.000174277
0.000174535
0.000174928
0.000175408
0.000176379
0.000173785
0.000173747
0.000174007
0.000174073
0.000173515
0.000174288
0.000174004
0.000174426
0.000172755
0.000172715
0.000172937
0.000173504
0.000173357
0.000174002
0.000173916
0.000174124
0.000172361
0.000172261
0.000172403
0.000172352
0.000172761
0.000172835
0.000172641
0.000173121
0.000172158
0.000172089
0.000172184
0.000172117
0.000172339
0.000172464
0.000172285
0.000172537
0.00017174
0.000171783
0.000171846
0.000171953
0.000172042
0.000172173
0.00017218
0.000172291
0.000171889
0.000171852
0.000171838
0.000171873
0.000171837
0.000171848
0.000171838
0.000171936
0.000171942
0.000171982
0.000172078
0.000172132
0.000172039
0.000171925
0.000171867
0.000171872
0.000172234
0.000172232
0.000172327
0.000172356
0.000172259
0.00017218
0.000172182
0.000172164
0.000171206
0.000171605
0.000171285
0.000171155
0.000171435
0.000171847
0.000172104
0.000172379
0.000171332
0.000171389
0.000171574
0.000171727
0.000171601
0.000171419
0.000171295
0.000171433
0.000164175
0.000166517