/*--------------------------------*- C++ -*----------------------------------*\
  =========                 |
  \\      /  F ield         | OpenFOAM: The Open Source CFD Toolbox
   \\    /   O peration     | Website:  https://openfoam.org
    \\  /    A nd           | Version:  6
     \\/     M anipulation  |
\*---------------------------------------------------------------------------*/
FoamFile
{
    version     2.0;
    format      ascii;
    class       volScalarField;
    location    "0.2";
    object      p;
}
// * * * * * * * * * * * * * * * * * * * * * * * * * * * * * * * * * * * * * //

dimensions      [0 2 -2 0 0 0 0];

internalField   nonuniform List<scalar> 
63400
(
0.00146388
0.00151448
0.00157731
0.0016513
0.00173571
0.00180417
0.00188015
0.00193243
0.00153884
0.00158239
0.00162742
0.00166984
0.00171134
0.0017523
0.00179454
0.00186844
0.00156635
0.0016021
0.00164201
0.00168867
0.00173802
0.00179474
0.0018145
0.0018951
0.00162231
0.00162754
0.00164106
0.00166956
0.00170342
0.00175156
0.00176837
0.00184425
0.00169735
0.00171935
0.00173888
0.00175477
0.00175994
0.00177552
0.00175261
0.00181692
0.00167957
0.00167812
0.00168586
0.0017073
0.00173486
0.00179151
0.00180869
0.00190303
0.00181773
0.00181016
0.00179295
0.00177094
0.00174937
0.00175194
0.00171163
0.00175801
0.00174245
0.00173384
0.00174743
0.00177778
0.00180692
0.0018579
0.00185345
0.00193361
0.00187099
0.00183938
0.00181
0.0017808
0.00174996
0.00174357
0.00170007
0.00174422
0.00181518
0.00181995
0.0018345
0.00185937
0.00187683
0.00190242
0.00185932
0.00192691
0.00188345
0.00185621
0.00183443
0.00179265
0.00174058
0.00172637
0.00169431
0.00175715
0.00188655
0.00188386
0.001896
0.00192074
0.00192451
0.00192536
0.00186513
0.0019341
0.00189818
0.00188148
0.00186773
0.00181987
0.00175289
0.00172576
0.00168947
0.00175929
0.00191537
0.00191335
0.0019311
0.00195829
0.0019548
0.00194574
0.0018811
0.00194684
0.00191312
0.00191713
0.00191759
0.00187733
0.00180169
0.00174264
0.00168025
0.00174276
0.00190077
0.00190533
0.00193675
0.00196413
0.00195729
0.00195365
0.00189456
0.00195215
0.00193146
0.00196892
0.00198051
0.00195544
0.00189417
0.00181668
0.00171071
0.00173893
0.00183594
0.00185806
0.00191661
0.0019513
0.00195028
0.00194556
0.00187344
0.00190423
0.00193761
0.00201252
0.00203662
0.00200804
0.00195166
0.0018892
0.00178576
0.00180852
0.00182107
0.00183758
0.0018959
0.00193569
0.00193406
0.00191279
0.00184511
0.0018291
0.00189719
0.00193418
0.00196425
0.00196606
0.00193799
0.00189525
0.00181707
0.00179777
0.00146365
0.00151408
0.00157734
0.00165179
0.00173581
0.00180394
0.00187976
0.00193217
0.00153837
0.001582
0.0016272
0.00166971
0.00171095
0.00175228
0.00179499
0.00186849
0.00156674
0.00160229
0.00164201
0.00168841
0.00173759
0.00179444
0.00181432
0.00189477
0.00162215
0.00162747
0.00164072
0.0016695
0.00170381
0.00175179
0.00176832
0.00184396
0.00169701
0.00171905
0.0017386
0.00175459
0.0017599
0.00177533
0.00175266
0.00181734
0.00167944
0.00167857
0.00168621
0.00170742
0.00173481
0.0017912
0.00180845
0.00190278
0.00181752
0.00181009
0.00179289
0.00177088
0.00174906
0.00175182
0.00171203
0.00175828
0.00174288
0.00173409
0.00174737
0.00177762
0.00180665
0.00185765
0.00185334
0.00193349
0.00187095
0.00183932
0.00180991
0.00178049
0.00174985
0.00174397
0.00170047
0.00174432
0.00181513
0.00181984
0.00183432
0.00185912
0.00187666
0.00190236
0.00185936
0.00192684
0.00188336
0.00185597
0.00183437
0.0017931
0.00174106
0.00172661
0.00169427
0.00175688
0.00188638
0.00188372
0.00189586
0.00192066
0.00192444
0.00192519
0.00186498
0.00193395
0.0018981
0.00188123
0.00186768
0.00182039
0.00175346
0.00172605
0.00168944
0.00175904
0.00191521
0.00191322
0.00193098
0.00195825
0.00195477
0.0019456
0.00188097
0.00194673
0.00191304
0.00191687
0.00191758
0.001878
0.00180243
0.00174301
0.00168023
0.00174255
0.00190062
0.00190515
0.00193662
0.00196411
0.00195724
0.00195349
0.00189439
0.00195199
0.0019313
0.0019688
0.00198052
0.0019552
0.0018942
0.00181752
0.00171162
0.00173934
0.00183575
0.00185785
0.00191647
0.00195116
0.0019502
0.00194554
0.00187341
0.00190402
0.00193729
0.00201233
0.00203652
0.00200798
0.00195163
0.00188918
0.00178572
0.00180843
0.00182254
0.00183888
0.00189634
0.00193568
0.0019341
0.00191288
0.00184523
0.0018292
0.00189724
0.00193413
0.00196416
0.00196612
0.00193812
0.00189532
0.00181707
0.001798
0.00146375
0.00151427
0.00157745
0.00165191
0.00173602
0.00180419
0.00187979
0.00193224
0.00153833
0.00158202
0.00162715
0.0016698
0.00171108
0.00175234
0.00179514
0.00186867
0.0015668
0.00160256
0.00164236
0.00168854
0.00173749
0.00179428
0.00181438
0.00189499
0.00162218
0.00162776
0.00164075
0.00166936
0.00170386
0.00175205
0.00176862
0.00184394
0.0016969
0.00171902
0.00173848
0.00175446
0.00175998
0.00177541
0.00175271
0.0018176
0.00167915
0.00167881
0.00168664
0.00170779
0.00173497
0.00179105
0.00180832
0.00190277
0.00181737
0.00181017
0.00179304
0.00177098
0.00174882
0.00175152
0.00171223
0.00175871
0.00174345
0.00173465
0.00174747
0.00177753
0.00180642
0.00185743
0.00185339
0.00193368
0.00187109
0.00183937
0.00180989
0.00178018
0.00174955
0.00174425
0.00170103
0.00174465
0.0018152
0.00181974
0.00183414
0.00185888
0.00187652
0.00190242
0.00185961
0.00192702
0.00188328
0.00185564
0.00183407
0.00179348
0.0017418
0.00172722
0.00169436
0.0017565
0.00188615
0.00188351
0.00189566
0.00192071
0.00192462
0.00192513
0.00186481
0.00193388
0.00189798
0.00188084
0.00186737
0.00182096
0.00175441
0.00172674
0.0016895
0.00175862
0.00191496
0.00191297
0.00193077
0.00195833
0.00195497
0.00194552
0.00188078
0.00194665
0.00191293
0.00191641
0.00191728
0.00187882
0.00180369
0.00174385
0.00168034
0.00174219
0.00190039
0.00190484
0.00193637
0.00196415
0.00195734
0.00195339
0.00189417
0.00195178
0.0019311
0.00196861
0.00198053
0.00195467
0.0018939
0.00181871
0.00171327
0.00174027
0.00183545
0.00185753
0.00191627
0.00195092
0.00195011
0.00194567
0.00187355
0.00190376
0.00193704
0.00201205
0.00203619
0.00200774
0.00195153
0.0018891
0.00178566
0.00180837
0.00182417
0.00184164
0.00189763
0.00193575
0.00193413
0.00191305
0.00184541
0.00182926
0.00189778
0.00193479
0.00196483
0.00196682
0.00193884
0.00189599
0.00181768
0.00179849
0.00146376
0.00151439
0.00157754
0.00165204
0.00173622
0.00180444
0.00187975
0.00193226
0.00153819
0.00158194
0.001627
0.00166982
0.00171115
0.00175238
0.0017953
0.00186889
0.00156682
0.0016028
0.00164271
0.00168868
0.00173731
0.00179397
0.00181436
0.00189531
0.00162212
0.00162804
0.00164077
0.00166916
0.00170385
0.00175226
0.00176893
0.0018439
0.00169672
0.00171891
0.00173829
0.00175422
0.00175998
0.00177548
0.00175278
0.001818
0.00167877
0.00167897
0.00168707
0.0017082
0.00173517
0.00179084
0.00180805
0.0019027
0.00181711
0.00181017
0.00179318
0.00177114
0.0017486
0.00175112
0.00171237
0.00175924
0.00174404
0.00173533
0.00174762
0.0017774
0.00180608
0.00185702
0.00185331
0.00193398
0.00187127
0.00183946
0.0018099
0.00177988
0.00174918
0.00174444
0.00170163
0.00174515
0.00181539
0.00181963
0.00183387
0.00185847
0.0018762
0.00190237
0.00185989
0.00192743
0.00188326
0.0018553
0.00183367
0.00179375
0.00174255
0.00172801
0.00169462
0.00175617
0.0018859
0.00188321
0.00189526
0.00192052
0.00192477
0.00192515
0.00186466
0.00193393
0.00189789
0.00188041
0.00186694
0.00182143
0.00175543
0.00172766
0.00168973
0.00175823
0.00191469
0.00191263
0.00193033
0.00195817
0.00195518
0.00194554
0.00188061
0.00194671
0.00191283
0.00191592
0.00191683
0.00187948
0.00180504
0.00174499
0.00168063
0.00174185
0.00190018
0.00190446
0.00193596
0.00196406
0.00195742
0.00195329
0.00189399
0.00195176
0.0019308
0.00196832
0.00198059
0.00195428
0.00189346
0.00181956
0.00171491
0.00174147
0.0018352
0.00185717
0.0019161
0.00195068
0.00194994
0.00194579
0.00187385
0.00190381
0.0019367
0.00201192
0.00203607
0.0020076
0.00195157
0.0018892
0.00178573
0.00180851
0.00182255
0.0018435
0.00189906
0.00193577
0.001934
0.00191308
0.00184549
0.00182914
0.00189775
0.00193496
0.00196522
0.0019673
0.00193941
0.00189657
0.0018183
0.00179862
0.00146377
0.00151457
0.0015777
0.00165213
0.00173636
0.00180477
0.00187978
0.00193236
0.00153811
0.00158192
0.00162686
0.00166981
0.00171128
0.00175251
0.00179544
0.00186915
0.00156677
0.00160297
0.0016431
0.00168892
0.00173722
0.00179364
0.0018143
0.00189583
0.00162202
0.00162837
0.00164091
0.00166903
0.00170377
0.00175239
0.00176929
0.001844
0.00169658
0.00171883
0.00173811
0.00175396
0.00175994
0.0017756
0.00175295
0.00181856
0.00167839
0.00167906
0.00168745
0.00170865
0.00173547
0.00179066
0.00180774
0.00190264
0.0018168
0.00181013
0.00179333
0.00177139
0.0017485
0.00175075
0.00171246
0.00175989
0.00174462
0.00173613
0.00174788
0.00177729
0.0018057
0.00185648
0.00185312
0.00193439
0.00187149
0.00183963
0.00181
0.00177969
0.00174883
0.00174458
0.00170228
0.00174591
0.00181576
0.00181958
0.00183356
0.00185793
0.00187571
0.00190218
0.00186018
0.00192808
0.00188333
0.00185501
0.00183324
0.00179397
0.00174335
0.00172902
0.00169515
0.00175602
0.00188567
0.00188287
0.00189469
0.00192008
0.00192482
0.00192519
0.00186456
0.00193416
0.00189785
0.00188001
0.00186647
0.00182189
0.00175658
0.00172886
0.00169022
0.00175803
0.00191442
0.00191222
0.0019297
0.00195775
0.00195528
0.00194556
0.00188045
0.00194692
0.00191274
0.00191542
0.00191632
0.00188007
0.00180652
0.00174647
0.00168119
0.00174169
0.00190005
0.00190406
0.00193542
0.00196379
0.00195742
0.00195312
0.00189379
0.00195192
0.00193041
0.00196791
0.0019807
0.00195413
0.00189308
0.00182017
0.00171648
0.00174295
0.00183509
0.00185677
0.00191591
0.00195045
0.0019497
0.00194581
0.00187424
0.00190415
0.00193619
0.0020117
0.00203607
0.00200761
0.00195181
0.00188959
0.00178608
0.00180896
0.00181727
0.00184345
0.0019002
0.00193578
0.0019338
0.00191305
0.00184554
0.00182892
0.00189751
0.00193485
0.0019653
0.00196742
0.00193971
0.00189691
0.0018188
0.00179836
0.00146374
0.00151476
0.00157791
0.0016522
0.00173644
0.00180515
0.00187986
0.00193253
0.00153804
0.00158193
0.00162671
0.00166976
0.00171145
0.00175271
0.00179557
0.00186948
0.00156666
0.00160307
0.00164349
0.00168924
0.00173717
0.00179328
0.00181421
0.00189652
0.00162188
0.00162873
0.00164115
0.00166895
0.00170364
0.00175244
0.00176968
0.00184421
0.00169645
0.00171874
0.00173794
0.00175366
0.00175984
0.00177573
0.00175323
0.0018193
0.00167803
0.00167909
0.0016878
0.00170914
0.00173584
0.00179049
0.00180737
0.00190255
0.00181641
0.00181001
0.00179348
0.00177173
0.00174852
0.00175043
0.00171255
0.00176069
0.00174518
0.00173704
0.00174823
0.00177717
0.00180526
0.00185578
0.00185278
0.00193487
0.00187173
0.00183988
0.0018102
0.00177963
0.00174854
0.0017447
0.001703
0.00174695
0.0018163
0.00181959
0.0018332
0.00185722
0.001875
0.00190179
0.00186043
0.00192892
0.0018835
0.00185478
0.00183282
0.00179417
0.00174421
0.00173024
0.00169595
0.00175612
0.00188547
0.00188247
0.00189393
0.00191932
0.00192467
0.00192521
0.0018645
0.00193455
0.00189786
0.00187966
0.00186599
0.00182234
0.00175784
0.00173036
0.00169101
0.00175809
0.00191414
0.00191174
0.00192886
0.00195698
0.0019552
0.00194553
0.00188028
0.00194726
0.00191266
0.00191491
0.00191577
0.00188056
0.0018081
0.00174829
0.00168207
0.00174178
0.00190002
0.00190367
0.00193474
0.00196331
0.00195727
0.00195283
0.00189356
0.00195224
0.00192992
0.00196735
0.0019808
0.00195426
0.00189287
0.00182051
0.0017179
0.00174468
0.00183522
0.00185631
0.00191559
0.00195015
0.00194932
0.00194567
0.00187461
0.00190475
0.00193562
0.00201128
0.00203608
0.00200773
0.00195223
0.00189026
0.00178677
0.00180974
0.00181105
0.00184226
0.00190118
0.00193573
0.00193345
0.00191284
0.00184548
0.0018285
0.00189708
0.00193455
0.00196515
0.00196723
0.00193977
0.00189707
0.00181921
0.00179768
0.00146369
0.00151496
0.00157815
0.00165226
0.00173647
0.00180556
0.00187998
0.00193277
0.00153796
0.00158198
0.00162656
0.00166969
0.00171164
0.00175299
0.00179572
0.00186989
0.00156649
0.0016031
0.00164387
0.00168961
0.00173716
0.0017929
0.00181408
0.00189738
0.0016217
0.00162912
0.00164148
0.00166892
0.00170348
0.00175241
0.00177006
0.00184456
0.0016963
0.00171863
0.00173775
0.00175334
0.0017597
0.00177588
0.00175362
0.00182027
0.0016777
0.00167909
0.0016881
0.00170965
0.00173625
0.00179031
0.00180692
0.00190241
0.00181593
0.00180981
0.00179362
0.00177216
0.00174869
0.0017502
0.00171267
0.00176168
0.00174573
0.00173804
0.00174868
0.00177705
0.00180474
0.0018549
0.00185226
0.00193536
0.00187195
0.00184021
0.00181053
0.00177974
0.00174838
0.00174486
0.0017038
0.00174832
0.001817
0.00181967
0.00183278
0.00185632
0.00187403
0.00190117
0.00186061
0.00192994
0.00188377
0.00185465
0.00183245
0.0017944
0.00174516
0.00173169
0.00169706
0.00175657
0.00188529
0.00188201
0.00189295
0.00191817
0.00192424
0.00192515
0.00186445
0.00193509
0.00189794
0.00187937
0.00186557
0.00182285
0.00175926
0.00173216
0.00169216
0.00175852
0.00191387
0.00191118
0.00192777
0.0019558
0.00195483
0.00194542
0.00188007
0.00194772
0.00191259
0.00191442
0.00191525
0.00188098
0.00180976
0.00175045
0.00168333
0.00174224
0.00190011
0.00190329
0.00193392
0.00196254
0.0019569
0.00195236
0.00189325
0.00195273
0.0019293
0.00196661
0.00198086
0.00195469
0.00189299
0.00182066
0.00171909
0.00174662
0.00183576
0.00185584
0.00191505
0.00194966
0.00194875
0.00194524
0.00187488
0.00190554
0.00193513
0.00201055
0.00203597
0.00200788
0.00195281
0.00189122
0.00178787
0.00181081
0.00180719
0.00184124
0.00190221
0.00193564
0.00193289
0.00191238
0.00184528
0.00182785
0.0018965
0.00193404
0.00196479
0.00196669
0.00193954
0.00189702
0.00181952
0.00179645
0.00146361
0.00151515
0.00157843
0.00165232
0.00173644
0.00180599
0.00188014
0.00193311
0.00153787
0.00158204
0.00162645
0.00166962
0.00171185
0.00175335
0.0017959
0.00187042
0.00156628
0.00160306
0.00164422
0.00169002
0.00173719
0.00179249
0.00181393
0.0018984
0.00162146
0.00162953
0.00164191
0.00166898
0.00170331
0.00175232
0.00177043
0.00184505
0.00169611
0.00171849
0.00173754
0.00175301
0.00175953
0.00177605
0.00175413
0.0018215
0.00167744
0.00167906
0.00168838
0.00171017
0.00173672
0.0017901
0.00180636
0.00190221
0.00181532
0.00180953
0.00179375
0.00177268
0.00174904
0.0017501
0.00171287
0.00176293
0.00174626
0.00173912
0.00174921
0.0017769
0.00180412
0.00185379
0.00185153
0.00193582
0.00187213
0.00184062
0.001811
0.00178007
0.00174841
0.0017451
0.00170473
0.0017501
0.00181787
0.00181983
0.00183229
0.00185517
0.00187276
0.00190027
0.00186067
0.00193107
0.00188415
0.00185464
0.00183218
0.00179472
0.00174624
0.0017334
0.00169854
0.00175747
0.00188515
0.00188149
0.00189172
0.00191655
0.00192344
0.00192498
0.00186441
0.00193574
0.00189811
0.00187917
0.00186524
0.00182344
0.00176085
0.00173432
0.00169373
0.00175947
0.0019136
0.00191053
0.0019264
0.00195411
0.00195408
0.00194514
0.00187981
0.00194828
0.00191253
0.00191393
0.0019148
0.00188136
0.00181149
0.00175298
0.00168502
0.0017432
0.00190039
0.00190296
0.00193293
0.00196138
0.00195618
0.00195162
0.00189281
0.00195332
0.00192856
0.00196563
0.00198083
0.00195543
0.00189357
0.0018208
0.0017201
0.0017488
0.00183695
0.00185542
0.00191415
0.00194884
0.00194787
0.00194439
0.0018749
0.0019064
0.00193478
0.00200944
0.00203559
0.00200794
0.00195346
0.00189244
0.00178945
0.00181212
0.00180745
0.0018417
0.00190362
0.00193554
0.00193208
0.0019116
0.00184491
0.00182691
0.00189588
0.00193333
0.00196418
0.00196574
0.00193897
0.00189672
0.00181973
0.00179456
0.00146352
0.00151533
0.00157873
0.0016524
0.00173637
0.00180644
0.00188031
0.00193353
0.00153773
0.00158211
0.00162637
0.00166955
0.0017121
0.00175381
0.00179612
0.0018711
0.00156603
0.00160296
0.00164454
0.00169045
0.00173724
0.00179207
0.00181377
0.00189955
0.0016212
0.00162996
0.00164245
0.00166913
0.00170315
0.00175217
0.00177077
0.00184571
0.00169586
0.00171828
0.00173732
0.00175269
0.00175935
0.00177624
0.00175477
0.00182303
0.00167727
0.00167905
0.00168865
0.0017107
0.0017372
0.00178983
0.00180569
0.00190192
0.00181457
0.00180914
0.00179385
0.00177332
0.00174961
0.00175017
0.00171321
0.0017645
0.00174678
0.00174027
0.00174982
0.00177671
0.00180336
0.00185244
0.00185055
0.00193619
0.00187225
0.0018411
0.00181163
0.00178066
0.0017487
0.00174549
0.00170583
0.00175236
0.00181891
0.00182008
0.00183173
0.00185375
0.00187113
0.00189903
0.00186056
0.00193226
0.00188465
0.00185478
0.00183206
0.00179517
0.00174748
0.00173541
0.00170043
0.00175894
0.00188507
0.00188088
0.00189022
0.00191438
0.00192216
0.00192461
0.00186435
0.0019365
0.00189838
0.0018791
0.00186508
0.00182418
0.00176265
0.00173686
0.00169579
0.00176107
0.00191334
0.00190977
0.00192473
0.00195183
0.00195281
0.00194462
0.00187945
0.00194887
0.00191251
0.00191346
0.00191448
0.00188175
0.00181331
0.0017559
0.00168722
0.0017448
0.00190088
0.00190269
0.00193174
0.00195973
0.00195496
0.00195047
0.00189215
0.00195395
0.0019277
0.00196429
0.00198062
0.00195639
0.00189467
0.00182118
0.00172109
0.00175127
0.00183906
0.00185519
0.00191283
0.00194754
0.00194655
0.00194296
0.00187451
0.00190709
0.00193457
0.00200788
0.00203483
0.00200778
0.00195409
0.00189384
0.00179153
0.00181357
0.00181167
0.0018442
0.00190555
0.00193542
0.001931
0.00191046
0.00184436
0.00182567
0.00189544
0.00193242
0.00196328
0.00196432
0.00193798
0.00189613
0.0018198
0.00179191
0.00146344
0.00151551
0.00157906
0.00165249
0.00173625
0.00180689
0.00188051
0.00193404
0.00153756
0.00158218
0.00162634
0.00166952
0.00171239
0.00175437
0.00179639
0.00187196
0.00156575
0.00160278
0.00164481
0.0016909
0.00173732
0.00179164
0.0018136
0.00190083
0.00162091
0.00163041
0.0016431
0.00166939
0.00170302
0.00175196
0.00177105
0.00184654
0.00169553
0.00171799
0.00173706
0.00175237
0.00175918
0.00177645
0.00175555
0.00182487
0.00167724
0.00167908
0.00168891
0.00171123
0.0017377
0.0017895
0.00180486
0.00190153
0.00181365
0.00180864
0.00179393
0.00177406
0.00175041
0.00175049
0.00171372
0.00176645
0.00174733
0.00174147
0.0017505
0.00177646
0.00180245
0.0018508
0.00184925
0.00193642
0.00187226
0.00184166
0.00181244
0.00178156
0.00174933
0.00174611
0.00170713
0.00175516
0.00182012
0.00182041
0.00183108
0.00185203
0.00186908
0.0018974
0.0018602
0.00193344
0.00188528
0.0018551
0.00183215
0.00179582
0.00174895
0.00173774
0.00170277
0.00176111
0.00188504
0.0018802
0.00188843
0.00191158
0.00192025
0.00192395
0.00186423
0.0019373
0.00189877
0.00187919
0.00186514
0.00182513
0.00176472
0.00173983
0.00169841
0.00176349
0.00191309
0.0019089
0.00192274
0.00194884
0.00195085
0.00194373
0.00187893
0.00194944
0.00191254
0.00191298
0.00191431
0.00188223
0.00181528
0.00175926
0.00169002
0.00174718
0.00190165
0.0019025
0.00193035
0.00195747
0.00195306
0.00194879
0.00189117
0.00195445
0.00192674
0.00196249
0.00198012
0.00195745
0.00189631
0.00182212
0.00172237
0.00175415
0.00184236
0.00185536
0.00191104
0.00194558
0.00194467
0.00194076
0.00187355
0.00190734
0.00193446
0.00200577
0.00203355
0.00200727
0.00195457
0.00189535
0.00179411
0.00181506
0.0018188
0.00184847
0.00190782
0.00193521
0.00192963
0.00190893
0.00184364
0.0018241
0.0018954
0.00193133
0.00196205
0.00196238
0.00193651
0.0018952
0.00181972
0.00178844
0.00146338
0.00151568
0.00157941
0.00165262
0.00173611
0.00180733
0.0018807
0.00193464
0.00153732
0.00158223
0.00162637
0.00166954
0.00171272
0.00175505
0.00179674
0.00187303
0.00156547
0.00160255
0.00164499
0.00169133
0.00173741
0.00179122
0.00181342
0.00190223
0.00162063
0.00163088
0.00164387
0.00166979
0.00170296
0.00175173
0.00177124
0.00184756
0.00169511
0.00171758
0.00173674
0.00175209
0.00175903
0.00177671
0.00175647
0.00182706
0.00167742
0.00167919
0.0016892
0.00171175
0.00173818
0.00178907
0.00180385
0.00190103
0.00181254
0.00180801
0.00179397
0.0017749
0.0017515
0.00175113
0.00171448
0.00176882
0.00174791
0.00174269
0.00175124
0.00177614
0.00180135
0.00184885
0.0018476
0.00193645
0.00187214
0.00184227
0.00181344
0.00178281
0.00175041
0.00174705
0.00170869
0.00175857
0.00182147
0.00182083
0.00183036
0.00184997
0.00186658
0.00189531
0.00185952
0.00193454
0.00188601
0.00185562
0.00183252
0.00179674
0.00175071
0.00174043
0.0017056
0.00176408
0.0018851
0.00187944
0.00188634
0.0019081
0.00191758
0.00192289
0.001864
0.00193812
0.00189931
0.00187945
0.00186549
0.00182636
0.00176712
0.00174328
0.00170163
0.00176687
0.00191288
0.00190791
0.0019204
0.00194508
0.00194803
0.00194232
0.00187815
0.00194988
0.00191268
0.00191246
0.00191425
0.00188288
0.00181751
0.00176317
0.00169354
0.0017505
0.00190272
0.00190242
0.00192873
0.00195449
0.00195027
0.00194641
0.00188974
0.00195462
0.00192571
0.0019601
0.00197914
0.00195841
0.0018984
0.00182396
0.00172439
0.00175762
0.00184702
0.00185611
0.0019088
0.00194285
0.00194211
0.00193767
0.00187186
0.00190679
0.00193436
0.00200301
0.00203164
0.00200629
0.00195477
0.00189686
0.00179717
0.0018165
0.00182774
0.0018537
0.00191002
0.00193471
0.00192794
0.00190701
0.00184273
0.00182219
0.00189593
0.00193004
0.00196039
0.00195986
0.00193451
0.00189389
0.00181945
0.00178414
0.00146338
0.00151585
0.00157977
0.00165278
0.00173594
0.00180774
0.00188088
0.00193533
0.00153702
0.00158225
0.00162647
0.00166964
0.0017131
0.00175584
0.00179715
0.00187431
0.00156522
0.00160227
0.00164509
0.00169171
0.0017375
0.00179081
0.00181325
0.00190373
0.00162039
0.00163136
0.00164476
0.00167034
0.00170299
0.0017515
0.00177133
0.00184877
0.00169455
0.00171704
0.00173636
0.00175184
0.00175893
0.00177702
0.00175752
0.0018296
0.00167788
0.00167945
0.00168953
0.00171226
0.00173862
0.00178854
0.00180262
0.00190042
0.00181121
0.00180722
0.00179395
0.00177583
0.00175287
0.00175214
0.00171554
0.00177169
0.00174858
0.00174392
0.00175201
0.00177574
0.00180005
0.00184659
0.00184554
0.00193622
0.00187182
0.00184289
0.0018146
0.00178443
0.00175202
0.00174844
0.00171054
0.00176263
0.00182295
0.00182134
0.00182956
0.00184759
0.00186358
0.00189273
0.00185844
0.00193547
0.00188682
0.00185634
0.00183322
0.00179802
0.00175283
0.00174351
0.00170891
0.00176796
0.00188525
0.00187861
0.00188399
0.00190393
0.00191402
0.00192127
0.00186356
0.00193886
0.00190003
0.00187989
0.00186615
0.00182798
0.00176997
0.00174728
0.00170551
0.0017713
0.0019127
0.00190677
0.00191772
0.0019405
0.00194417
0.00194022
0.00187701
0.00195003
0.00191297
0.00191187
0.00191422
0.00188378
0.00182015
0.00176778
0.0016979
0.00175486
0.00190413
0.00190241
0.00192687
0.0019507
0.00194639
0.00194318
0.00188775
0.00195417
0.00192467
0.00195699
0.00197751
0.00195901
0.00190078
0.00182697
0.00172763
0.00176188
0.00185302
0.00185756
0.00190617
0.00193928
0.0019388
0.00193364
0.00186938
0.00190514
0.00193421
0.00199949
0.002029
0.00200476
0.0019546
0.00189827
0.00180062
0.00181784
0.00183759
0.00185892
0.00191156
0.00193364
0.00192584
0.00190469
0.00184164
0.00181993
0.00189715
0.00192851
0.0019582
0.00195674
0.00193194
0.00189218
0.00181899
0.00177908
0.00146347
0.00151604
0.00158014
0.00165299
0.00173575
0.00180809
0.00188103
0.00193611
0.00153664
0.00158221
0.00162664
0.00166984
0.00171354
0.00175675
0.00179765
0.00187583
0.00156502
0.00160196
0.00164509
0.00169202
0.00173757
0.00179044
0.00181307
0.00190533
0.00162023
0.00163186
0.00164575
0.00167106
0.00170313
0.00175129
0.00177129
0.00185015
0.00169386
0.00171634
0.00173588
0.00175162
0.00175889
0.00177739
0.00175868
0.0018325
0.00167868
0.00167991
0.00168994
0.00171275
0.001739
0.0017879
0.00180115
0.0018997
0.00180964
0.00180626
0.00179386
0.00177683
0.00175452
0.00175359
0.00171696
0.00177509
0.00174939
0.00174514
0.00175279
0.00177524
0.00179854
0.00184401
0.00184304
0.0019357
0.00187125
0.00184347
0.0018159
0.00178642
0.00175423
0.00175038
0.00171275
0.00176735
0.00182454
0.00182193
0.0018287
0.00184491
0.00186009
0.00188961
0.00185688
0.00193613
0.00188766
0.00185724
0.00183425
0.00179972
0.00175541
0.00174705
0.00171271
0.00177276
0.00188552
0.00187772
0.0018814
0.0018991
0.00190949
0.00191894
0.0018628
0.00193942
0.00190092
0.00188051
0.00186708
0.00183003
0.00177338
0.00175191
0.00171009
0.00177684
0.00191258
0.00190548
0.00191469
0.00193514
0.0019392
0.00193723
0.00187538
0.00194967
0.00191343
0.00191115
0.00191406
0.00188494
0.00182339
0.00177326
0.00170329
0.00176029
0.00190584
0.00190244
0.00192476
0.00194607
0.00194132
0.00193901
0.00188514
0.00195282
0.00192371
0.00195313
0.00197503
0.00195901
0.00190323
0.00183125
0.00173251
0.00176709
0.00186011
0.00185964
0.00190323
0.00193488
0.00193475
0.00192872
0.00186611
0.00190217
0.00193393
0.00199512
0.00202552
0.00200263
0.00195399
0.00189948
0.00180433
0.00181902
0.00184759
0.00186336
0.00191193
0.00193176
0.00192325
0.00190198
0.00184035
0.00181732
0.00189898
0.00192663
0.00195536
0.001953
0.00192881
0.00189007
0.00181836
0.00177345
0.00146368
0.00151625
0.00158052
0.00165325
0.00173558
0.00180838
0.00188112
0.00193696
0.0015362
0.0015821
0.00162687
0.00167016
0.00171404
0.00175777
0.00179822
0.00187757
0.00156492
0.00160165
0.00164498
0.00169224
0.00173761
0.00179012
0.00181289
0.00190705
0.0016202
0.0016324
0.00164684
0.00167196
0.00170344
0.00175114
0.0017711
0.00185169
0.00169302
0.00171545
0.00173528
0.00175143
0.00175894
0.00177785
0.00175993
0.00183576
0.00167989
0.00168065
0.00169049
0.00171326
0.00173929
0.00178714
0.00179942
0.00189889
0.00180781
0.0018051
0.00179366
0.00177786
0.00175643
0.00175553
0.00171878
0.00177904
0.00175043
0.00174636
0.00175357
0.00177468
0.00179682
0.00184114
0.00184009
0.00193485
0.00187037
0.00184393
0.00181727
0.00178873
0.00175707
0.00175297
0.00171537
0.00177269
0.0018262
0.0018226
0.00182782
0.001842
0.00185614
0.00188596
0.00185476
0.00193642
0.00188846
0.00185827
0.00183559
0.00180188
0.00175853
0.00175109
0.00171698
0.00177847
0.00188589
0.0018768
0.00187864
0.00189374
0.00190398
0.00191575
0.00186158
0.00193963
0.00190196
0.00188124
0.00186818
0.00183256
0.00177749
0.00175726
0.00171539
0.0017834
0.00191253
0.00190404
0.00191133
0.00192912
0.00193311
0.00193325
0.00187313
0.00194856
0.00191405
0.00191024
0.00191359
0.0018863
0.00182733
0.00177977
0.00170985
0.00176674
0.00190777
0.00190238
0.00192239
0.00194068
0.00193506
0.0019339
0.00188194
0.00195033
0.00192289
0.00194857
0.00197159
0.00195818
0.00190548
0.0018367
0.00173923
0.00177329
0.00186774
0.00186202
0.00189998
0.00192975
0.00193001
0.00192311
0.00186218
0.00189786
0.00193347
0.00198991
0.00202117
0.00199991
0.00195291
0.00190041
0.00180814
0.00182008
0.00185709
0.0018665
0.00191081
0.00192888
0.00192011
0.00189891
0.00183885
0.00181437
0.00190125
0.00192426
0.00195172
0.00194868
0.00192516
0.00188759
0.00181758
0.00176749
0.00146404
0.00151651
0.00158091
0.00165356
0.00173542
0.00180859
0.00188114
0.00193791
0.0015357
0.0015819
0.00162713
0.00167059
0.0017146
0.00175888
0.00179886
0.00187952
0.00156497
0.00160137
0.00164478
0.00169233
0.0017376
0.00178984
0.0018127
0.00190892
0.00162034
0.00163299
0.00164801
0.00167305
0.00170392
0.0017511
0.00177076
0.00185338
0.00169204
0.00171437
0.00173452
0.00175123
0.00175907
0.0017784
0.00176122
0.00183939
0.00168157
0.00168177
0.00169121
0.00171379
0.00173951
0.00178628
0.00179744
0.00189805
0.0018057
0.00180371
0.00179332
0.00177885
0.00175855
0.00175794
0.00172104
0.00178355
0.00175179
0.00174763
0.00175435
0.00177406
0.00179493
0.00183803
0.00183669
0.00193368
0.00186911
0.00184419
0.00181864
0.00179128
0.0017605
0.00175628
0.00171844
0.00177862
0.00182794
0.00182334
0.00182695
0.00183896
0.00185183
0.00188179
0.00185204
0.00193621
0.00188912
0.00185934
0.00183714
0.0018045
0.00176228
0.0017557
0.0017217
0.00178496
0.00188639
0.00187586
0.00187578
0.00188805
0.00189763
0.00191162
0.00185976
0.00193929
0.00190307
0.00188199
0.00186929
0.00183549
0.0017824
0.00176342
0.00172145
0.0017908
0.00191254
0.00190243
0.00190767
0.00192264
0.0019261
0.00192825
0.00187021
0.00194644
0.0019148
0.00190908
0.00191263
0.00188771
0.00183196
0.00178736
0.00171768
0.001774
0.00190974
0.00190208
0.00191969
0.00193469
0.0019278
0.00192798
0.00187827
0.0019466
0.00192225
0.00194346
0.00196721
0.00195642
0.00190727
0.00184299
0.00174768
0.00178032
0.00187521
0.00186417
0.00189631
0.001924
0.00192476
0.00191711
0.00185787
0.00189242
0.00193282
0.00198396
0.00201599
0.00199668
0.00195141
0.00190105
0.00181189
0.00182105
0.0018655
0.00186802
0.0019081
0.001925
0.00191641
0.00189554
0.00183714
0.00181113
0.00190364
0.00192129
0.00194721
0.00194382
0.00192106
0.0018848
0.00181668
0.0017615
0.00146459
0.00151683
0.00158131
0.00165391
0.00173529
0.00180871
0.00188108
0.00193894
0.00153517
0.00158162
0.00162739
0.00167113
0.00171523
0.00176008
0.00179955
0.00188168
0.00156518
0.00160115
0.00164449
0.0016923
0.00173751
0.00178962
0.00181248
0.00191096
0.0016207
0.00163367
0.00164926
0.00167434
0.00170461
0.00175119
0.00177028
0.0018552
0.00169094
0.00171309
0.00173357
0.00175098
0.00175926
0.00177904
0.00176251
0.00184333
0.00168372
0.00168331
0.00169219
0.00171441
0.00173968
0.00178536
0.00179523
0.0018972
0.00180331
0.00180206
0.00179279
0.00177976
0.00176077
0.00176079
0.00172371
0.00178858
0.00175357
0.00174901
0.00175515
0.00177344
0.00179293
0.00183474
0.00183288
0.00193216
0.00186744
0.00184412
0.00181988
0.00179396
0.00176441
0.00176029
0.001722
0.00178501
0.00182979
0.00182417
0.00182612
0.00183594
0.00184731
0.00187717
0.00184872
0.00193536
0.00188955
0.00186032
0.00183872
0.0018075
0.00176669
0.0017609
0.00172686
0.001792
0.001887
0.00187494
0.00187289
0.0018823
0.00189073
0.00190657
0.00185726
0.00193811
0.00190415
0.00188265
0.00187022
0.00183868
0.00178808
0.00177039
0.00172824
0.00179868
0.00191262
0.00190068
0.00190375
0.00191598
0.00191853
0.0019224
0.00186668
0.00194312
0.00191555
0.00190764
0.00191105
0.00188897
0.00183712
0.00179587
0.00172666
0.0017817
0.00191157
0.00190134
0.00191658
0.00192834
0.0019199
0.00192153
0.00187438
0.00194172
0.00192176
0.00193806
0.00196206
0.0019538
0.00190843
0.0018496
0.00175735
0.00178781
0.00188177
0.00186546
0.00189203
0.00191778
0.0019192
0.00191111
0.00185352
0.00188629
0.00193191
0.00197752
0.00201021
0.00199311
0.00194964
0.00190143
0.00181544
0.00182201
0.00187226
0.00186774
0.0019039
0.00192027
0.00191225
0.001892
0.0018353
0.00180773
0.00190579
0.00191767
0.00194187
0.00193854
0.00191667
0.00188182
0.0018157
0.00175575
0.00146532
0.00151723
0.00158173
0.0016543