/*--------------------------------*- C++ -*----------------------------------*\
  =========                 |
  \\      /  F ield         | OpenFOAM: The Open Source CFD Toolbox
   \\    /   O peration     | Website:  https://openfoam.org
    \\  /    A nd           | Version:  6
     \\/     M anipulation  |
\*---------------------------------------------------------------------------*/
FoamFile
{
    version     2.0;
    format      ascii;
    class       surfaceScalarField;
    location    "0.2";
    object      phi;
}
// * * * * * * * * * * * * * * * * * * * * * * * * * * * * * * * * * * * * * //

dimensions      [0 3 -1 0 0 0 0];

internalField   nonuniform List<scalar> 
184750
(
9.48382e-07
2.24922e-07
2.18529e-09
-2.40412e-07
9.64038e-07
2.44834e-07
3.18793e-09
-2.63678e-07
9.85901e-07
2.64433e-07
3.26422e-10
-2.86622e-07
1.01343e-06
2.85922e-07
-1.89156e-09
-3.11561e-07
1.03917e-06
3.0815e-07
3.71367e-10
-3.34256e-07
1.063e-06
3.2987e-07
1.54247e-09
-3.55246e-07
1.08477e-06
3.5467e-07
1.07988e-09
-3.77517e-07
3.75008e-07
1.62189e-10
1.10618e-06
-3.96582e-07
9.48119e-07
2.11884e-07
1.49803e-09
9.60512e-07
2.31777e-07
6.64284e-10
9.75798e-07
2.49111e-07
3.56193e-11
9.95345e-07
2.6572e-07
6.54716e-10
1.01589e-06
2.8516e-07
2.44488e-09
1.04124e-06
3.04028e-07
4.95687e-10
1.07272e-06
3.24599e-07
-1.40653e-09
3.44318e-07
6.60358e-10
1.10275e-06
9.32833e-07
1.91499e-07
-1.27225e-09
9.54106e-07
2.09677e-07
8.26304e-10
9.7447e-07
2.28081e-07
6.65656e-10
9.94262e-07
2.45685e-07
2.42696e-10
1.01263e-06
2.66347e-07
4.43139e-10
1.03165e-06
2.85136e-07
-1.31233e-10
1.05387e-06
3.01886e-07
4.92545e-10
3.20273e-07
-6.4755e-10
1.07857e-06
9.12217e-07
1.76072e-07
1.80632e-09
9.28617e-07
1.9196e-07
1.31733e-09
9.46149e-07
2.08797e-07
1.75199e-09
9.68541e-07
2.23365e-07
-7.24081e-11
9.96933e-07
2.3925e-07
-1.2946e-09
1.02485e-06
2.56539e-07
6.83621e-10
1.05063e-06
2.74397e-07
1.70177e-09
2.94565e-07
3.75663e-10
1.07597e-06
9.12636e-07
1.62745e-07
4.49383e-10
9.25776e-07
1.78982e-07
-1.62684e-10
9.4041e-07
1.9481e-07
-6.46274e-10
9.57108e-07
2.07556e-07
-8.8872e-10
9.77902e-07
2.18387e-07
6.96274e-11
1.00049e-06
2.32597e-07
1.35547e-09
1.02662e-06
2.48339e-07
-7.41406e-11
2.64211e-07
-2.53144e-09
1.05951e-06
8.82908e-07
1.46526e-07
9.36134e-10
9.05613e-07
1.56313e-07
-3.55097e-11
9.29603e-07
1.68909e-07
1.9105e-09
9.52212e-07
1.83548e-07
1.39866e-09
9.73714e-07
1.96964e-07
-7.9621e-11
9.94641e-07
2.11435e-07
2.35859e-10
1.01523e-06
2.27321e-07
4.26033e-10
2.40977e-07
-1.20271e-09
1.03967e-06
8.72148e-07
1.35145e-07
-2.20979e-10
8.86643e-07
1.42244e-07
-4.25591e-10
9.03875e-07
1.51911e-07
-2.33178e-10
9.23928e-07
1.64251e-07
-7.56272e-10
9.43794e-07
1.7704e-07
5.81183e-11
9.66977e-07
1.88839e-07
-5.86716e-10
9.95999e-07
1.98643e-07
-3.44409e-10
2.08714e-07
1.35557e-09
1.02691e-06
8.59392e-07
1.10169e-07
3.30369e-09
8.79131e-07
1.209e-07
1.60524e-09
8.97185e-07
1.33584e-07
2.7295e-10
9.1541e-07
1.46346e-07
-3.20625e-10
9.34133e-07
1.58138e-07
1.79799e-10
9.52766e-07
1.70143e-07
6.29042e-11
9.72762e-07
1.78387e-07
2.59818e-10
1.86991e-07
-2.91227e-09
9.97397e-07
7.28741e-07
9.84128e-08
-3.24386e-10
7.42809e-07
1.07712e-07
-8.80752e-10
7.58277e-07
1.19466e-07
-1.34945e-09
7.72002e-07
1.32745e-07
-1.2273e-10
7.89341e-07
1.40476e-07
3.22372e-10
8.14378e-07
1.44685e-07
4.206e-10
8.39946e-07
1.50434e-07
2.38464e-09
1.59633e-07
1.13649e-09
8.66168e-07
6.96159e-07
8.52551e-08
5.79638e-10
7.0946e-07
9.48057e-08
-3.94362e-10
7.23216e-07
1.05829e-07
-1.19368e-10
7.35398e-07
1.20359e-07
2.02388e-10
7.47651e-07
1.28591e-07
-3.66693e-10
7.62656e-07
1.30585e-07
-9.0535e-10
7.79898e-07
1.34121e-07
-9.2848e-10
1.42645e-07
-4.00769e-09
8.00893e-07
6.38765e-07
7.46306e-08
-9.04865e-10
6.51423e-07
8.23851e-08
-2.36907e-10
6.67624e-07
9.0277e-08
-6.48796e-10
6.88004e-07
9.93318e-08
6.46872e-10
7.07195e-07
1.05572e-07
3.82855e-09
7.25508e-07
1.09804e-07
2.46834e-09
7.44113e-07
1.14846e-07
6.69934e-10
1.21607e-07
-3.34534e-10
7.65486e-07
6.0932e-07
6.5064e-08
-2.34511e-10
6.20669e-07
7.15776e-08
-5.41101e-10
6.32004e-07
7.84209e-08
5.20998e-10
6.42683e-07
8.74202e-08
1.2326e-09
6.5444e-07
9.46254e-08
-8.11329e-10
6.67834e-07
9.9553e-08
-3.14332e-09
6.82244e-07
1.03195e-07
-2.75914e-09
1.0855e-07
-4.82537e-09
7.00127e-07
5.51684e-07
5.58593e-08
-6.30009e-10
5.62891e-07
6.04112e-08
-4.02528e-11
5.77569e-07
6.41663e-08
-4.23662e-10
5.95726e-07
6.79178e-08
1.34592e-09
6.12659e-07
7.27549e-08
4.93694e-09
6.29693e-07
7.91715e-08
3.34825e-09
6.47327e-07
8.44015e-08
1.15871e-09
8.88267e-08
-1.14751e-10
6.67165e-07
5.25777e-07
4.85563e-08
-4.4226e-10
5.35069e-07
5.15343e-08
-4.14623e-10
5.4457e-07
5.38365e-08
8.29117e-10
5.53324e-07
5.79081e-08
1.25509e-09
5.63061e-07
6.42567e-08
-1.23831e-09
5.74429e-07
7.13492e-08
-3.54589e-09
5.87062e-07
7.49618e-08
-3.19337e-09
7.81663e-08
-5.38636e-09
6.03109e-07
4.67165e-07
4.16568e-08
-5.95806e-10
4.75569e-07
4.33182e-08
-1.87444e-10
4.89036e-07
4.07079e-08
-3.38363e-10
5.09235e-07
3.56675e-08
2.04132e-09
5.27531e-07
4.10662e-08
4.89491e-09
5.42029e-07
5.34005e-08
3.45065e-09
5.5566e-07
5.89177e-08
2.4128e-09
6.00411e-08
1.16555e-09
5.7262e-07
4.44524e-07
3.72236e-08
-3.79493e-10
4.5096e-07
3.66534e-08
2.28905e-10
4.58816e-07
3.21209e-08
7.30637e-10
4.67456e-07
2.64565e-08
5.71149e-10
4.76953e-07
3.18448e-08
-2.74952e-10
4.86519e-07
4.57538e-08
-1.92013e-09
4.96778e-07
5.2328e-08
-3.6692e-09
5.32145e-08
-6.75949e-09
5.10364e-07
3.82301e-07
3.44357e-08
-5.56502e-10
3.87897e-07
3.25223e-08
-1.46418e-09
3.96664e-07
2.63644e-08
-3.01039e-09
4.02851e-07
2.24611e-08
-2.19247e-09
4.141e-07
1.94541e-08
1.14176e-09
4.36152e-07
1.73023e-08
6.40026e-09
4.58306e-07
2.17567e-08
8.41673e-09
2.85046e-08
3.8037e-09
4.79212e-07
3.63359e-07
3.4234e-08
5.49387e-10
3.65977e-07
2.81607e-08
1.74323e-09
3.7341e-07
1.87134e-08
2.18681e-10
3.81293e-07
1.51534e-08
-5.75515e-10
3.88111e-07
1.25569e-08
7.85058e-11
3.95544e-07
1.05787e-08
-7.09279e-10
4.05386e-07
1.49735e-08
-3.05826e-09
2.22195e-08
-6.14252e-09
4.17813e-07
3.03432e-07
3.47948e-08
-6.92501e-10
3.06017e-07
3.1832e-08
-6.25629e-09
3.1154e-07
2.04346e-08
-7.24411e-09
3.175e-07
1.33384e-08
-4.14436e-09
3.22677e-07
1.00618e-08
-2.68231e-09
3.26592e-07
8.76178e-09
-2.09772e-09
3.31697e-07
9.87666e-09
-7.90138e-12
1.50308e-08
-1.7052e-09
3.4059e-07
2.59505e-07
-3.8371e-09
3.00862e-08
2.74485e-07
-1.9311e-09
1.87825e-08
2.8964e-07
3.2127e-09
2.06718e-09
2.99748e-07
5.48877e-09
-2.25883e-09
3.06247e-07
5.28898e-09
-1.72527e-09
3.11577e-07
4.8934e-09
-1.46201e-09
3.17466e-07
5.78174e-09
-1.79412e-09
8.34855e-09
-1.56777e-09
3.25716e-07
3.35249e-07
-1.95557e-09
3.38525e-07
-5.20674e-09
3.47984e-07
-6.24632e-09
3.58254e-07
-4.78137e-09
3.67292e-07
-3.74923e-09
3.75598e-07
-3.41188e-09
3.84588e-07
-3.209e-09
-2.31166e-09
3.95249e-07
1.92131e-06
4.70393e-07
2.2269e-09
-5.00126e-07
1.9551e-06
5.10705e-07
3.61453e-09
-5.44923e-07
1.99372e-06
5.51419e-07
4.64672e-10
-5.9018e-07
2.03713e-06
5.92669e-07
-1.41331e-09
-6.36553e-07
2.08297e-06
6.34797e-07
1.0896e-09
-6.81357e-07
2.12975e-06
6.77146e-07
1.39071e-09
-7.23777e-07
2.17639e-06
7.22196e-07
-1.6006e-10
-7.67593e-07
7.63357e-07
-1.46886e-09
2.22334e-06
-8.08679e-07
1.92095e-06
4.42655e-07
2.81222e-10
1.95064e-06
4.82323e-07
-6.34923e-10
1.9837e-06
5.19274e-07
-8.80432e-10
2.02246e-06
5.53912e-07
6.49893e-10
2.0657e-06
5.91434e-07
2.56504e-09
2.11232e-06
6.30552e-07
4.76134e-10
2.16344e-06
6.70289e-07
-6.24776e-10
7.08695e-07
1.12063e-09
2.21764e-06
1.90217e-06
4.07338e-07
-1.15686e-09
1.94027e-06
4.42723e-07
2.31704e-09
1.97974e-06
4.78981e-07
1.49489e-09
2.02034e-06
5.14423e-07
-8.70422e-10
2.06133e-06
5.5259e-07
-1.69996e-09
2.10317e-06
5.90502e-07
-1.92338e-09
2.14867e-06
6.25349e-07
-6.60546e-11
6.609e-07
-3.0076e-09
2.19882e-06
1.88225e-06
3.76396e-07
2.18466e-09
1.91634e-06
4.08036e-07
1.92045e-09
1.95373e-06
4.42098e-07
1.24541e-09
1.99501e-06
4.74273e-07
-1.20697e-09
2.0416e-06
5.05846e-07
-1.13939e-09
2.09173e-06
5.38857e-07
2.19981e-09
2.14273e-06
5.73255e-07
2.80164e-09
6.1009e-07
-1.01515e-09
2.19493e-06
1.88199e-06
3.48024e-07
-1.31674e-09
1.91259e-06
3.79188e-07
-1.912e-09
1.94528e-06
4.11258e-07
-2.50124e-09
1.98128e-06
4.39907e-07
-2.51666e-09
2.02287e-06
4.64533e-07
-2.11084e-10
2.06969e-06
4.91854e-07
1.53605e-09
2.11958e-06
5.23523e-07
-2.30018e-10
5.55781e-07
-3.49704e-09
2.17486e-06
1.84864e-06
3.18739e-07
-5.47734e-10
1.88555e-06
3.41264e-07
9.8197e-10
1.9281e-06
3.65695e-07
4.9214e-09
1.97228e-06
3.937e-07
3.42415e-09
2.01641e-06
4.20853e-07
-5.26802e-10
2.06106e-06
4.4903e-07
-1.59049e-09
2.1063e-06
4.79518e-07
-8.12387e-10
5.08041e-07
-2.94272e-09
2.15578e-06
1.83364e-06
2.91772e-07
-1.14239e-09
1.86481e-06
3.10229e-07
-5.54871e-10
1.90073e-06
3.29478e-07
6.09141e-11
1.94149e-06
3.5369e-07
-1.50576e-09
1.98473e-06
3.80024e-07
-2.35512e-09
2.03017e-06
4.06154e-07
-3.14737e-09
2.0805e-06
4.28998e-07
-1.55799e-10
4.5029e-07
2.77007e-09
2.13684e-06
1.81235e-06
2.47139e-07
7.88632e-09
1.8521e-06
2.6761e-07
4.47535e-09
1.89019e-06
2.91507e-07
1.55017e-10
1.92882e-06
3.16729e-07
-1.99753e-09
1.96943e-06
3.41391e-07
-1.79095e-09
2.01105e-06
3.65789e-07
-1.1928e-09
2.05453e-06
3.85297e-07
4.83945e-10
4.02927e-07
-4.7719e-09
2.10375e-06
1.55972e-06
2.19839e-07
2.47696e-10
1.58987e-06
2.37945e-07
-1.36677e-09
1.62253e-06
2.60729e-07
-3.22812e-09
1.65493e-06
2.87198e-07
-2.99457e-09
1.68964e-06
3.08682e-07
-1.6811e-09
1.73218e-06
3.22491e-07
1.18142e-09
1.77965e-06
3.34836e-07
5.37574e-09
3.51453e-07
2.05667e-09
1.8302e-06
1.49208e-06
1.91995e-07
5.69115e-10
1.5203e-06
2.11299e-07
-1.96529e-09
1.5502e-06
2.32372e-07
-1.66467e-09
1.57946e-06
2.58854e-07
-7.13575e-10
1.60853e-06
2.79879e-07
-6.30145e-10
1.64104e-06
2.89644e-07
-5.71208e-10
1.67803e-06
2.97426e-07
-5.03626e-10
3.12277e-07
-7.0482e-09
1.72024e-06
1.39396e-06
1.68414e-07
-2.45394e-09
1.42171e-06
1.85599e-07
-2.28333e-09
1.45315e-06
2.02597e-07
-2.3113e-09
1.48943e-06
2.21655e-07
1.55782e-09
1.52732e-06
2.3807e-07
7.74966e-09
1.56484e-06
2.49441e-07
5.15468e-09
1.60299e-06
2.59697e-07
2.47289e-10
2.72682e-07
-3.31469e-09
1.64557e-06
1.3316e-06
1.47956e-07
-1.90039e-09
1.35648e-06
1.62392e-07
-2.21216e-09
1.38276e-06
1.76765e-07
6.58445e-11
1.40898e-06
1.93561e-07
3.11171e-09
1.43627e-06
2.09008e-07
9.59524e-10
1.46586e-06
2.20893e-07
-4.19076e-09
1.49803e-06
2.30301e-07
-5.5324e-09
2.41418e-07
-1.01337e-08
1.53461e-06
1.23213e-06
1.28166e-07
-2.46925e-09
1.25694e-06
1.3954e-07
-1.99692e-09
1.2857e-06
1.49442e-07
-1.85673e-09
1.31879e-06
1.59026e-07
2.7867e-09
1.35306e-06
1.69953e-07
9.72064e-09
1.3878e-06
1.82854e-07
6.64724e-09
1.42386e-06
1.94458e-07
9.47118e-10
2.04406e-07
-3.00486e-09
1.46376e-06
1.17604e-06
1.10945e-07
-2.07371e-09
1.19725e-06
1.19861e-07
-1.94654e-09
1.22005e-06
1.26658e-07
8.13818e-10
1.24247e-06
1.3415e-07
3.71485e-09
1.26563e-06
1.44685e-07
8.67243e-10
1.29125e-06
1.57989e-07
-4.30551e-09
1.31999e-06
1.68198e-07
-5.67152e-09
1.76379e-07
-1.05301e-08
1.35316e-06
1.07365e-06
9.48152e-08
-2.35582e-09
1.09354e-06
1.01844e-07
-2.06322e-09
1.11877e-06
1.02488e-07
-1.39695e-09
1.15345e-06
9.65834e-08
4.9219e-09
1.19061e-06
1.0155e-07
1.08704e-08
1.22336e-06
1.21742e-07
6.94852e-09
1.25352e-06
1.37868e-07
2.58285e-09
1.4411e-07
-8.49418e-10
1.2878e-06
1.02365e-06
8.2429e-08
-2.29913e-09
1.03966e-06
8.73884e-08
-1.32945e-09
1.05843e-06
8.40583e-08
3.91984e-10
1.0793e-06
7.45659e-08
1.71997e-09
1.10202e-06
7.72262e-08
1.32876e-09
1.1252e-06
9.79155e-08
-1.27555e-09
1.14938e-06
1.15109e-07
-5.08246e-09
1.21153e-07
-1.19718e-08
1.17755e-06
9.13075e-07
7.17696e-08
-1.80932e-09
9.2677e-07
7.49757e-08
-2.74596e-09
9.45337e-07
6.79977e-08
-5.517e-09
9.62641e-07
6.09404e-08
-5.87149e-09
9.84206e-07
5.65503e-08
2.52914e-10
1.02149e-06
5.42057e-08
1.28246e-08
1.06598e-06
6.05211e-08
1.8513e-08
7.24963e-08
8.86128e-09
1.10958e-06
8.70409e-07
6.76175e-08
-2.4016e-09
8.78583e-07
6.86785e-08
-1.3382e-10
8.9383e-07
5.4221e-08
-1.25207e-09
9.12358e-07
4.39117e-08
-2.07439e-09
9.30515e-07
3.83961e-08
7.60268e-11
9.49377e-07
3.38525e-08
7.81316e-10
9.72084e-07
3.77103e-08
-2.95411e-09
5.00481e-08
-1.03432e-08
9.98733e-07
7.35725e-07
6.01724e-08
-5.56351e-11
7.42272e-07
6.43218e-08
-8.44612e-09
7.5362e-07
4.76504e-08
-1.20215e-08
7.68317e-07
3.32179e-08
-8.14827e-09
7.83049e-07
2.65777e-08
-5.59529e-09
7.95777e-07
2.41331e-08
-5.10664e-09
8.10191e-07
2.56653e-08
-2.37714e-09
3.40985e-08
-5.07996e-09
8.29516e-07
6.2346e-07
3.1004e-10
5.56679e-08
6.65944e-07
3.61624e-09
3.70042e-08
7.00684e-07
1.00927e-08
4.88531e-09
7.24173e-07
1.22317e-08
-4.76193e-09
7.41075e-07
1.12709e-08
-3.32018e-09
7.55571e-07
1.01117e-08
-1.93697e-09
7.70765e-07
1.0836e-08
-2.15873e-09
1.4734e-08
-1.48902e-09
7.90051e-07
5.31893e-07
3.52723e-11
5.35793e-07
-5.49032e-09
5.48309e-07
-8.66921e-09
5.62451e-07
-6.69229e-09
5.74856e-07
-4.88317e-09
5.86035e-07
-4.47857e-09
5.98184e-07
-4.52232e-09
-1.89484e-09
6.12501e-07
2.71828e-06
6.7705e-07
2.04462e-09
-7.19912e-07
2.76654e-06
7.3393e-07
4.23878e-09
-7.82813e-07
2.82085e-06
7.91491e-07
8.28591e-10
-8.46169e-07
2.88135e-06
8.49738e-07
-1.01422e-09
-9.10631e-07
2.94541e-06
9.08804e-07
1.92133e-09
-9.73695e-07
3.0111e-06
9.67777e-07
1.68487e-09
-1.03376e-06
3.0771e-06
1.02969e-06
-9.68035e-10
-1.09488e-06
1.08786e-06
-2.80531e-09
3.14396e-06
-1.15339e-06
2.71687e-06
6.35985e-07
-7.06358e-10
2.75995e-06
6.91718e-07
-1.50385e-09
2.80722e-06
7.44836e-07
-1.49889e-09
2.86195e-06
7.94801e-07
8.5467e-10
2.92318e-06
8.47107e-07
3.03528e-09
2.98912e-06
9.0175e-07
5.66559e-10
3.06049e-06
9.57704e-07
-6.76812e-12
1.01204e-06
1.56245e-09
3.13586e-06
2.69208e-06
5.87227e-07
-1.60397e-09
2.74537e-06
6.37054e-07
3.69166e-09
2.80082e-06
6.8794e-07
2.93743e-09
2.85816e-06
7.37753e-07
-1.15437e-09
2.91672e-06
7.90185e-07
-3.34569e-09
2.97679e-06
8.43319e-07
-3.5614e-09
3.04161e-06
8.93282e-07
-4.64612e-10
9.42987e-07
-4.40712e-09
3.11207e-06
2.66663e-06
5.43021e-07
2.22794e-09
2.71544e-06
5.87354e-07
2.81801e-09
2.7686e-06
6.34855e-07
1.17167e-09
2.82659e-06
6.80994e-07
-2.44122e-09
2.89108e-06
7.26089e-07
-1.53596e-09
2.96073e-06
7.72419e-07
3.44729e-09
3.03245e-06
8.20076e-07
4.29525e-09
8.70354e-07
-1.87061e-09
3.10593e-06
2.66538e-06
5.01054e-07
-2.91156e-09
2.70976e-06
5.44322e-07
-3.25542e-09
2.75674e-06
5.89261e-07
-3.88381e-09
2.80814e-06
6.31055e-07
-3.98438e-09
2.86684e-06
6.67707e-07
-5.22995e-10
2.9329e-06
7.05977e-07
1.91347e-09
3.00352e-06
7.49488e-07
-2.55704e-10
7.94953e-07
-4.52179e-09
3.07994e-06
2.62404e-06
4.59335e-07
-3.0039e-09
2.67496e-06
4.93279e-07
1.10299e-09
2.73353e-06
5.28051e-07
7.55842e-09
2.79539e-06
5.66786e-07
5.83127e-09
2.85787e-06
6.05001e-07
-2.93953e-10
2.92141e-06
6.43907e-07
-3.06584e-09
2.98631e-06
6.85797e-07
-2.02331e-09
7.2654e-07
-4.02789e-09
3.05581e-06
2.60362e-06
4.19437e-07
-1.96609e-09
2.6484e-06
4.4827e-07
-3.20826e-10
2.69948e-06
4.75973e-07
1.05726e-09
2.75704e-06
5.09188e-07
-1.46973e-09
2.81855e-06
5.45768e-07
-4.63194e-09
2.88289e-06
5.82807e-07
-6.38379e-09
2.95288e-06
6.16617e-07
-9.73846e-10
6.47942e-07
3.69679e-09
3.03055e-06
2.57457e-06
3.60207e-07
1.18985e-08
2.63078e-06
3.88604e-07
7.928e-09
2.68518e-06
4.20946e-07
7.84699e-10
2.7402e-06
4.55495e-07
-3.33098e-09
2.79809e-06
4.89969e-07
-3.87774e-09
2.85796e-06
5.24384e-07
-2.63552e-09
2.92047e-06
5.53675e-07
9.07183e-10
5.79557e-07
-5.18459e-09
2.98927e-06
2.22131e-06
3.20464e-07
1.56379e-09
2.26445e-06
3.45182e-07
-1.0875e-09
2.31094e-06
3.75848e-07
-4.62108e-09
2.35795e-06
4.11623e-07
-6.13483e-09
2.40739e-06
4.43556e-07
-4.70382e-09
2.46555e-06
4.66506e-07
9.02051e-10
2.53107e-06
4.85681e-07
7.84482e-09
5.08462e-07
3.1276e-09
2.6011e-06
2.12541e-06
2.79795e-07
1.01253e-09
2.16561e-06
3.06456e-07
-3.44754e-09
2.20821e-06
3.34963e-07
-3.38012e-09
2.25098e-06
3.69884e-07
-1.73601e-09
2.29367e-06
4.0092e-07
-6.87113e-10
2.34043e-06
4.18763e-07
4.13541e-10
2.39327e-06
4.31433e-07
8.98252e-10
4.51064e-07
-8.54844e-09
2.45217e-06
1.9932e-06
2.45082e-07
-3.70055e-09
2.03255e-06
2.6949e-07
-4.67074e-09
2.07642e-06
2.93423e-07
-4.63694e-09
2.12639e-06
3.19877e-07
1.5877e-09
2.17973e-06
3.44447e-07
1.08881e-08
2.23302e-06
3.62598e-07
8.02743e-09
2.28682e-06
3.77741e-07
1.34427e-10
3.95517e-07
-6.70876e-09
2.34577e-06
1.90409e-06
2.15368e-07
-3.88657e-09
1.93956e-06
2.35974e-07
-4.17269e-09
1.97764e-06
2.56246e-07
-8.36956e-10
2.01651e-06
2.79024e-07
5.09986e-09
2.05672e-06
3.00994e-07
4.20477e-09
2.09957e-06
3.1888e-07
-3.32315e-09
2.14582e-06
3.33303e-07
-7.34956e-09
3.49085e-07
-1.47391e-08
2.19686e-06
1.77135e-06
1.86644e-07
-4.54991e-09
1.80647e-06
2.03391e-07
-4.53128e-09
1.84654e-06
2.18325e-07
-4.01403e-09
1.89222e-06
2.32707e-07
3.42846e-09
1.9407e-06
2.48487e-07
1.37461e-08
1.98983e-06
2.66397e-07
9.99474e-09
2.04031e-06
2.83046e-07
7.28842e-10
2.97602e-07
-6.66501e-09
2.09545e-06
1.69064e-06
1.60911e-07
-3.9602e-09
1.72126e-06
1.74635e-07
-3.8067e-09
1.75457e-06
1.85577e-07
2.45425e-10
1.78827e-06
1.96412e-07
6.31632e-09
1.82276e-06
2.10185e-07
4.6796e-09
1.86005e-06
2.277e-07
-2.90214e-09
1.90146e-06
2.42911e-07
-6.94206e-09
2.55457e-07
-1.47408e-08
1.94781e-06
1.55515e-06
1.36754e-07
-4.30715e-09
1.584e-06
1.48176e-07
-4.44748e-09
1.61872e-06
1.52651e-07
-3.19971e-09
1.66468e-06
1.48381e-07
6.99878e-09
1.71629e-06
1.53021e-07
1.64264e-08
1.76384e-06
1.76349e-07
1.0746e-08
1.80735e-06
1.99473e-07
2.50542e-09
2.11073e-07
-3.962e-09
1.85485e-06
1.48283e-06
1.16843e-07
-4.50579e-09
1.50672e-06
1.26433e-07
-3.47956e-09
1.53419e-06
1.26155e-07
-5.80625e-10
1.5649e-06
1.16472e-07
2.91873e-09
1.59838e-06
1.16969e-07
3.90491e-09
1.63277e-06
1.39676e-07
1.00199e-09
1.66822e-06
1.63686e-07
-4.7418e-09
1.7511e-07
-1.54697e-08
1.70768e-06
1.33706e-06
9.89276e-08
-3.1181e-09
1.35777e-06
1.06796e-07
-3.81696e-09
1.38395e-06
1.01754e-07
-7.29782e-09
1.41026e-06
9.38932e-08
-9.59831e-09
1.44067e-06
8.88745e-08
-2.06443e-09
1.48897e-06
8.68209e-08
1.73771e-08
1.54943e-06
9.41438e-08
2.75955e-08
1.08934e-07
1.41986e-08
1.61027e-06
1.2747e-06
8.8285e-08
-6.06935e-09
1.28849e-06
9.6157e-08
-3.27613e-09
1.30974e-06
8.23629e-08
-3.11561e-09
1.33619e-06
6.87948e-08
-3.4252e-09
1.36341e-06
6.1449e-08
2.79509e-10
1.39179e-06
5.58444e-08
3.38304e-09
1.42478e-06
5.86978e-08
-5.02574e-10
7.29448e-08
-1.19702e-08
1.4624e-06
1.08023e-06
7.34139e-08
1.09123e-09
1.09165e-06
8.44231e-08
-8.13298e-09
1.10802e-06
6.8219e-08
-1.42396e-08
1.12948e-06
5.0141e-08
-1.0963e-08
1.15209e-06
4.10661e-08
-7.81711e-09
1.17262e-06
3.7786e-08
-7.57703e-09
1.19473e-06
3.91822e-08
-4.97405e-09
4.91153e-08
-8.17504e-09
1.22165e-06
9.01109e-07
2.13238e-09
6.10669e-08
9.75103e-07
6.49688e-09
4.09359e-08
1.02877e-06
1.50553e-08
4.38547e-09
1.06255e-06
1.78986e-08
-6.30176e-09
1.0872e-06
1.66825e-08
-3.58896e-09
1.10914e-06
1.51387e-08
-1.22935e-09
1.13189e-06
1.56564e-08
-1.38083e-09
2.01778e-08
-3.62199e-10
1.1597e-06
7.10298e-07
2.61219e-09
7.15527e-07
-4.22322e-09
7.31059e-07
-9.14507e-09
7.48967e-07
-6.70176e-09
7.64838e-07
-4.07182e-09
7.79108e-07
-3.60976e-09
7.94488e-07
-4.24607e-09
3.28809e-10
8.12442e-07
3.53422e-06
8.89864e-07
1.60684e-09
-9.46362e-07
3.59775e-06
9.63828e-07
4.90696e-09
-1.02802e-06
3.6686e-06
1.0387e-06
1.428e-09
-1.11014e-06
3.74717e-06
1.11447e-06
-7.75765e-10
-1.19328e-06
3.83054e-06
1.19119e-06
2.48241e-09
-1.27512e-06
3.91609e-06
1.26746e-06
2.14324e-09
-1.35348e-06
4.00222e-06
1.34679e-06
-1.36744e-09
-1.43252e-06
1.42237e-06
-3.83504e-09
4.08974e-06
-1.50886e-06
3.53171e-06
8.35e-07
-1.34757e-09
3.58878e-06
9.072e-07
-1.94902e-09
3.65097e-06
9.7691e-07
-1.90007e-09
3.72249e-06
1.04283e-06
9.78463e-10
3.80248e-06
1.11062e-06
3.61278e-09
3.88856e-06
1.18111e-06
8.39372e-10
3.98134e-06
1.25362e-06
3.84012e-10
1.32452e-06
1.76499e-09
4.07899e-06
3.50016e-06
7.72055e-07
-2.49965e-09
3.56958e-06
8.36907e-07
4.56621e-09
3.64197e-06
9.03002e-07
4.45511e-09
3.71678e-06
9.67696e-07
-8.31898e-10
3.79351e-06
1.03487e-06
-4.32776e-09
3.87248e-06
1.10348e-06
-4.8913e-09
3.95755e-06
1.16901e-06
-9.25689e-10
1.2336e-06
-5.18334e-09
4.04924e-06
3.46842e-06
7.14226e-07
1.93221e-09
3.53272e-06
7.71757e-07
3.66947e-09
3.60236e-06
8.33017e-07
1.52057e-09
3.6777e-06
8.93302e-07
-3.39468e-09
3.76106e-06
9.52343e-07
-2.36469e-09
3.85133e-06
1.01259e-06
4.07003e-09
3.94477e-06
1.07407e-06
5.78223e-09
1.13828e-06
-2.11875e-09
4.04035e-06
3.46609e-06
6.58195e-07
-4.13298e-09
3.52479e-06
7.13961e-07
-4.15253e-09
3.58666e-06
7.72026e-07
-4.77005e-09
3.65402e-06
8.27228e-07
-5.26653e-09
3.73049e-06
8.76411e-07
-1.06633e-09
3.81644e-06
9.26284e-07
2.27763e-09
3.90853e-06
9.81842e-07
-1.18943e-10
1.0406e-06
-5.58979e-09
4.00727e-06
3.41525e-06
6.03059e-07
-5.69674e-09
3.48117e-06
6.48779e-07
3.67041e-10
3.55684e-06
6.94563e-07
9.34514e-09
3.63726e-06
7.44546e-07
8.09859e-09
3.71878e-06
7.94193e-07
4.01697e-10
3.80179e-06
8.44173e-07
-3.95945e-09
3.88695e-06
8.97643e-07
-2.98463e-09
9.5086e-07
-4.67072e-09
3.97733e-06
3.38901e-06
5.49913e-07
-2.60283e-09
3.44796e-06
5.89548e-07
-4.41616e-11
3.51491e-06
6.26411e-07
2.25822e-09
3.58997e-06
6.68937e-07
-9.19957e-10
3.67009e-06
7.1582e-07
-6.37373e-09
3.75381e-06
7.63727e-07
-9.65813e-09
3.84462e-06
8.08591e-07
-2.73401e-09
8.50501e-07
3.83156e-09
3.94484e-06
3.35139e-06
4.75801e-07
1.48479e-08
3.42491e-06
5.1264e-07
1.13187e-08
3.49638e-06
5.53719e-07
2.00887e-09
3.56839e-06
5.97696e-07
-4.09927e-09
3.64397e-06
6.42011e-07
-5.64577e-09
3.72251e-06
6.86589e-07
-4.04557e-09
3.80483e-06
7.2596e-07
1.22651e-09
7.60784e-07
-4.74345e-09
3.8941e-06
2.89456e-06
4.23641e-07
3.27175e-09
2.95113e-06
4.5523e-07
-2.40246e-10
3.01192e-06
4.93803e-07
-5.49762e-09
3.07371e-06
5.38767e-07
-9.00169e-09
3.13831e-06
5.80794e-07
-8.08744e-09
3.21318e-06
6.13067e-07
-4.41046e-10
3.29785e-06
6.3982e-07
9.3185e-09
6.6941e-07
4.142e-09
3.38821e-06
2.7695e-06
3.69647e-07
1.97395e-09
2.82208e-06
4.03725e-07
-4.51654e-09
2.87768e-06
4.39763e-07
-4.94664e-09
2.93422e-06
4.8316e-07
-2.65963e-09
2.99096e-06
5.23994e-07
-6.34672e-10
3.05258e-06
5.50302e-07
1.56241e-09
3.12192e-06
5.6868e-07
2.69428e-09
5.93539e-07
-8.84088e-09
3.19808e-06
2.60105e-06
3.23357e-07
-4.44076e-09
2.65204e-06
3.54932e-07
-6.8662e-09
2.70859e-06
3.85819e-07
-7.23562e-09
2.77312e-06
4.19623e-07
5.93407e-10
2.84289e-06
4.52294e-07
1.28126e-08
2.91298e-06
4.77618e-07
1.06252e-08
2.98317e-06
4.98187e-07
4.30636e-10
5.2099e-07
-9.79505e-09
3.05881e-06
2.48419e-06
2.83908e-07
-5.77271e-09
2.53036e-06
3.10688e-07
-6.09929e-09
2.58037e-06
3.36929e-07
-1.95625e-09
2.63232e-06
3.65872e-07
6.90618e-09
2.68619e-06
3.94503e-07
8.1218e-09
2.74294e-06
4.18636e-07
-1.08922e-09
2.80363e-06
4.38305e-07
-8.16168e-09
4.58945e-07
-1.84356e-08
2.86937e-06
2.31571e-06
2.45864e-07
-6.57798e-09
2.36103e-06
2.67928e-07
-7.09263e-09
2.41261e-06
2.87877e-07
-6.54785e-09
2.47179e-06
3.07109e-07
3.01661e-09
2.53556e-06
3.2788e-07
1.65947e-08
2.60015e-06
3.5099e-07
1.30544e-08
2.66568e-06
3.7278e-07
7.25672e-10
3.92064e-07
-1.03317e-08
2.73622e-06
2.20935e-06
2.11275e-07
-5.76147e-09
2.24943e-06
2.29694e-07
-5.65496e-09
2.29333e-06
2.44818e-07
-6.01707e-10
2.33869e-06
2.59331e-07
8.73956e-09
2.38522e-06
2.76728e-07
9.30563e-09
2.43473e-06
2.98551e-07
2.05589e-11
2.48905e-06
3.18601e-07
-7.08063e-09
3.35594e-07
-1.7941e-08
2.54872e-06
2.03788e-06
1.7878e-07
-6.19115e-09
2.07552e-06
1.94386e-07
-6.77733e-09
2.12002e-06
2.02527e-07
-5.41114e-09
2.17833e-06
2.0025e-07
7.77079e-09
2.24535e-06
2.05421e-07
2.07096e-08
2.30858e-06
2.3176e-07
1.43067e-08
2.36612e-06
2.61052e-07
2.51215e-09
2.7798e-07
-7.2987e-09
2.42707e-06
1.94212e-06
1.51033e-07
-6.62808e-09
1.97397e-06
1.64777e-07
-5.727e-09
2.01023e-06
1.67514e-07
-1.82021e-09
2.05101e-06
1.58311e-07
4.06919e-09
2.09569e-06
1.57586e-07
7.06222e-09
2.14177e-06
1.82227e-07
4.46131e-09
2.18886e-06
2.12217e-07
-3.00541e-09
2.29012e-07
-1.73944e-08
2.23976e-06
1.75711e-06
1.25782e-07
-4.2848e-09
1.78497e-06
1.37712e-07
-4.61163e-09
1.81895e-06
1.34695e-07
-8.46378e-09
1.85376e-06
1.26561e-07
-1.26576e-08
1.89329e-06
1.20988e-07
-5.00139e-09
1.95425e-06
1.19209e-07
1.94353e-08
2.03205e-06
1.27831e-07
3.41835e-08
1.45447e-07
1.87564e-08
2.11106e-06
1.67334e-06
1.08411e-07
-1.00163e-08
1.69306e-06
1.21739e-07
-7.02599e-09
1.72059e-06
1.09022e-07
-4.97272e-09
1.7548e-06
9.32037e-08
-4.27775e-09
1.79094e-06
8.42557e-08
8.75801e-10
1.82905e-06
7.78236e-08
6.65492e-09
1.8728e-06
8.01336e-08
3.44345e-09
9.60967e-08
-1.13168e-08
1.9215e-06
1.41713e-06
8.65115e-08
1.98935e-09
1.43433e-06
1.03053e-07
-6.64962e-09
1.45613e-06
8.75944e-08
-1.46128e-08
1.48416e-06
6.67085e-08
-1.24973e-08
1.5143e-06
5.54328e-08
-9.13143e-09
1.5424e-06
5.13309e-08
-9.18219e-09
1.57213e-06
5.26253e-08
-7.20074e-09
6.40013e-08
-1.04387e-08
1.60649e-06
1.16946e-06
4.34705e-09
4.86284e-08
1.27464e-06
8.81429e-09
3.00003e-08
1.34846e-06
1.94378e-08
-1.28727e-09
1.39306e-06
2.36053e-08
-7.7938e-09
1.42527e-06
2.24888e-08
-2.85751e-09
1.4544e-06
2.06619e-08
3.10612e-10
1.48455e-06
2.1028e-08
6.61443e-11
2.62108e-08
1.33283e-09
1.52065e-06
9.30114e-07
4.59545e-09
9.37737e-07
-3.03221e-09
9.57043e-07
-9.0127e-09
9.7974e-07
-5.79344e-09
1.00028e-06
-2.12125e-09
1.01882e-06
-1.49209e-09
1.03845e-06
-2.8451e-09
3.75465e-09
1.06123e-06
4.44661e-06
1.12797e-06
9.17034e-10
-1.19976e-06
4.52743e-06
1.22109e-06
5.45215e-09
-1.30246e-06
4.61699e-06
1.31537e-06
2.18927e-09
-1.40569e-06
4.71587e-06
1.41078e-06
-5.93031e-10
-1.50984e-06
4.82097e-06
1.50731e-06
2.72726e-09
-1.61267e-06
4.92898e-06
1.60312e-06
2.56957e-09
-1.71156e-06
5.03785e-06
1.70202e-06
-1.47052e-09
-1.81079e-06
1.79706e-06
-4.58497e-09
5.14861e-06
-1.90707e-06
4.4429e-06
1.05771e-06
-1.69141e-09
4.5158e-06
1.14829e-06
-2.04646e-09
4.59485e-06
1.23653e-06
-2.10799e-09
4.68526e-06
1.32039e-06
9.53866e-10
4.7864e-06
1.40569e-06
4.10061e-09
4.89515e-06
1.49396e-06
1.24655e-09
5.012e-06
1.5849e-06
6.60111e-10
1.67436e-06
1.71704e-09
5.13475e-06
4.40364e-06
9.78711e-07
-3.6186e-09
4.49115e-06
1.06042e-06
4.92137e-09
4.5827e-06
1.14363e-06
5.79459e-09
4.6773e-06
1.2251e-06
-1.49396e-10
4.7745e-06
1.30888e-06
-4.72064e-09
4.87471e-06
1.39471e-06
-5.84181e-09
4.98256e-06
1.4776e-06
-1.47011e-09
1.55907e-06
-5.59818e-09
5.09826e-06
4.36471e-06
9.0564e-07
1.3282e-09
4.44645e-06
9.78038e-07
4.30741e-09
4.53476e-06
1.05473e-06
2.11915e-09
4.62966e-06
1.13077e-06
-3.95905e-09
4.73414e-06
1.20539e-06
-3.35887e-09
4.84753e-06
1.28128e-06
4.10334e-09
4.9655e-06
1.35838e-06
7.03151e-09
1.43831e-06
-1.89004e-09
5.08604e-06
4.36112e-06
8.33936e-07
-4.98583e-09
4.43593e-06
9.03735e-07
-4.66323e-09
4.51467e-06
9.76431e-07
-5.21042e-09
4.59995e-06
1.04654e-06
-6.31523e-09
4.69634e-06
1.10978e-06
-1.84326e-09
4.80459e-06
1.17284e-06
2.46995e-09
4.92078e-06
1.24193e-06
1.44493e-10
1.31541e-06
-6.54925e-09
5.04463e-06
4.2994e-06
7.63518e-07
-8.30465e-09
4.38211e-06
8.22345e-07
-9.53388e-10
4.47704e-06
8.80596e-07
1.02569e-08
4.57837e-06
9.43314e-07
9.99186e-09
4.68137e-06
1.00583e-06
1.35763e-09
4.78624e-06
1.06831e-06
-4.30112e-09
4.8941e-06
1.13469e-06
-3.60325e-09
1.20174e-06
-4.97031e-09
5.00807e-06
4.26646e-06
6.95559e-07
-3.02083e-09
4.34131e-06
7.47259e-07
1.84918e-10
4.42614e-06
7.94612e-07
3.41065e-09
4.52095e-06
8.47671e-07
-8.19052e-11
4.62193e-06
9.06019e-07
-7.54978e-09
4.72729e-06
9.65946e-07
-1.26467e-08
4.84136e-06
1.02298e-06
-5.10903e-09
1.07678e-06
3.16888e-09
4.96698e-06
4.21875e-06
6.04719e-07
1.66971e-08
4.31178e-06
6.51199e-07
1.435e-08
4.40259e-06
7.02175e-07
3.63208e-09
4.49377e-06
7.5669e-07
-4.29145e-09
4.58915e-06
8.11941e-07
-6.9569e-09
4.68855e-06
8.67799e-07
-5.2957e-09
4.79305e-06
9.18355e-07
1.36132e-09
9.63382e-07
-3.84042e-09
4.90554e-06
3.64612e-06
5.38886e-07
5.14026e-09
3.71778e-06
5.78289e-07
1.00948e-09
3.79466e-06
6.25684e-07
-5.88649e-09
3.87297e-06
6.80811e-07
-1.14342e-08
3.95449e-06
7.33815e-07
-1.14803e-08
4.04809e-06
7.76337e-07
-2.57688e-09
4.15426e-06
8.11749e-07
9.75023e-09
8.49248e-07
4.91721e-09
4.26762e-06
3.48818e-06
4.69972e-07
3.33316e-09
3.5547e-06
5.12326e-07
-5.07442e-09
3.62486e-06
5.56806e-07
-6.22956e-09
3.69676e-06
6.09665e-07
-3.41494e-09
3.76926e-06
6.61177e-07
-4.96942e-10
3.84759e-06
6.9689e-07
2.67837e-09
3.9355e-06
7.21972e-07
4.56168e-09
7.52949e-07
-8.2471e-09
4.03121e-06
3.27891e-06
4.107e-07
-4.66836e-09
3.34288e-06
4.50174e-07
-8.68249e-09
3.41348e-06
4.88792e-07
-9.8194e-09
3.4942e-06
5.30711e-07
-1.17709e-09
3.58243e-06
5.72252e-07
1.35119e-08
3.6716e-06
6.05654e-07
1.26857e-08
3.76045e-06
6.32528e-07
1.02604e-09
6.61066e-07
-1.23568e-08
3.8549e-06
3.13061e-06
3.60252e-07
-7.40564e-09
3.18865e-06
3.93873e-07
-7.83879e-09
3.25185e-06
4.2678e-07
-3.15287e-09
3.31841e-06
4.62645e-07
8.4202e-09
3.38783e-06
4.98703e-07
1.22505e-08
3.46045e-06
5.29865e-07
2.07905e-09
3.5374e-06
5.55468e-07
-8.05337e-09
5.81601e-07
-2.11973e-08
3.61963e-06
2.92152e-06
3.11721e-07
-8.4555e-09
2.97815e-06
3.3964e-07
-9.48815e-09
3.04243e-06
3.65119e-07
-9.17606e-09
3.11666e-06
3.89697e-07
1.7444e-09
3.19771e-06
4.16037e-07
1.82038e-08
3.28e-06
4.45028e-07
1.56019e-08
3.36267e-06
4.72592e-07
9.33352e-10
4.97165e-07
-1.37132e-08
3.45049e-06
2.78588e-06
2.67196e-07
-7.36912e-09
2.83646e-06
2.90744e-07
-7.34213e-09
2.89207e-06
3.10476e-07
-1.56445e-09
2.95046e-06
3.29171e-07
1.08738e-08
3.01076e-06
3.50796e-07
1.42507e-08
3.07428e-06
3.77533e-07
3.99566e-09
3.14312e-06
4.02888e-07
-6.21847e-09
4.24818e-07
-2.01494e-08
3.21767e-06
2.5732e-06
2.25359e-07
-7.93868e-09
2.62056e-06
2.45473e-07
-8.87217e-09
2.67588e-06
2.57466e-07
-7.71489e-09
2.74807e-06
2.57353e-07
7.39592e-09
2.83251e-06
2.63584e-07
2.34766e-08
2.91364e-06
2.93469e-07
1.7246e-08
2.98722e-06
3.29233e-07
2.5849e-09
3.5192e-07
-1.0521e-08
3.06334e-06
2.45037e-06
1.88847e-07
-8.54328e-09
2.49108e-06
2.06898e-07
-7.85804e-09
2.53706e-06
2.12772e-07
-3.108e-09
2.58908e-06
2.04245e-07
5.15743e-09
2.64644e-06
2.02743e-07
1.05411e-08
2.70586e-06
2.29757e-07
8.75471e-09
2.76624e-06
2.65978e-07
-1.3535e-10
2.88597e-07
-1.78681e-08
2.83004e-06
2.21978e-06
1.55564e-07
-5.30224e-09
2.25558e-06
1.7162e-07
-5.13918e-09
2.29832e-06
1.70649e-07
-9.08169e-09
2.34235e-06
1.62347e-07
-1.47877e-08
2.39187e-06
1.56145e-07