/*--------------------------------*- C++ -*----------------------------------*\
  =========                 |
  \\      /  F ield         | OpenFOAM: The Open Source CFD Toolbox
   \\    /   O peration     | Website:  https://openfoam.org
    \\  /    A nd           | Version:  6
     \\/     M anipulation  |
\*---------------------------------------------------------------------------*/
FoamFile
{
    version     2.0;
    format      ascii;
    class       volScalarField;
    location    "60";
    object      k;
}
// * * * * * * * * * * * * * * * * * * * * * * * * * * * * * * * * * * * * * //

dimensions      [0 2 -2 0 0 0 0];

internalField   nonuniform List<scalar> 
720
(
0.00036296
0.000362989
0.000362968
0.000472403
0.000472439
0.000472411
0.000605612
0.000605642
0.0006056
0.000751474
0.000751437
0.000751343
0.000879523
0.000879395
0.000879127
0.000879486
0.000879358
0.000879089
0.000751241
0.000751204
0.000751109
0.000605279
0.000605308
0.000605266
0.000472087
0.000472123
0.000472095
0.000362696
0.000362725
0.000362705
0.00104596
0.00104597
0.00104596
0.00107842
0.00107843
0.00107842
0.0011042
0.00110421
0.0011042
0.00112433
0.00112433
0.00112432
0.00113876
0.00113875
0.00113872
0.00113876
0.00113874
0.00113871
0.00112431
0.0011243
0.00112429
0.00110415
0.00110415
0.00110415
0.00107834
0.00107835
0.00107834
0.00104586
0.00104587
0.00104586
0.00111661
0.00111662
0.00111661
0.00115323
0.00115324
0.00115323
0.00118465
0.00118466
0.00118465
0.00121038
0.00121037
0.00121036
0.00122872
0.0012287
0.00122866
0.00122871
0.00122869
0.00122866
0.00121035
0.00121034
0.00121032
0.00118459
0.00118459
0.00118458
0.00115314
0.00115316
0.00115315
0.00111651
0.00111652
0.00111651
0.00113426
0.00113428
0.00113427
0.00117073
0.00117074
0.00117073
0.00120214
0.00120214
0.00120213
0.0012279
0.00122789
0.00122788
0.00124625
0.00124623
0.00124619
0.00124624
0.00124622
0.00124619
0.00122787
0.00122786
0.00122784
0.00120207
0.00120208
0.00120207
0.00117065
0.00117066
0.00117065
0.00113416
0.00113418
0.00113416
0.00113588
0.00113589
0.00113588
0.00117222
0.00117224
0.00117222
0.00120354
0.00120355
0.00120354
0.00122925
0.00122924
0.00122922
0.00124753
0.0012475
0.00124747
0.00124752
0.0012475
0.00124746
0.00122921
0.0012292
0.00122918
0.00120348
0.00120349
0.00120347
0.00117214
0.00117215
0.00117214
0.00113578
0.00113579
0.00113578
0.00113055
0.00113057
0.00113056
0.00116682
0.00116683
0.00116682
0.00119808
0.00119809
0.00119808
0.00122374
0.00122373
0.00122372
0.00124198
0.00124195
0.00124192
0.00124197
0.00124195
0.00124191
0.00122371
0.0012237
0.00122368
0.00119802
0.00119803
0.00119802
0.00116674
0.00116675
0.00116674
0.00113046
0.00113047
0.00113046
0.00112087
0.00112089
0.00112087
0.00115706
0.00115707
0.00115706
0.00118828
0.00118829
0.00118827
0.0012139
0.00121389
0.00121387
0.0012321
0.00123208
0.00123204
0.00123209
0.00123207
0.00123203
0.00121387
0.00121386
0.00121384
0.00118822
0.00118823
0.00118821
0.00115698
0.00115699
0.00115698
0.00112077
0.00112079
0.00112077
0.00110764
0.00110766
0.00110764
0.00114374
0.00114376
0.00114374
0.0011749
0.00117491
0.0011749
0.00120048
0.00120047
0.00120045
0.00121864
0.00121862
0.00121858
0.00121863
0.00121861
0.00121857
0.00120045
0.00120044
0.00120042
0.00117484
0.00117485
0.00117483
0.00114366
0.00114368
0.00114366
0.00110755
0.00110756
0.00110755
0.00109107
0.00109109
0.00109107
0.00112704
0.00112706
0.00112704
0.00115812
0.00115813
0.00115811
0.00118363
0.00118363
0.0011836
0.00120174
0.00120172
0.00120168
0.00120173
0.00120171
0.00120167
0.0011836
0.00118359
0.00118357
0.00115806
0.00115807
0.00115805
0.00112697
0.00112698
0.00112696
0.00109098
0.001091
0.00109098
0.00107108
0.0010711
0.00107108
0.00110686
0.00110688
0.00110685
0.0011378
0.00113781
0.00113779
0.00116322
0.00116321
0.00116319
0.00118125
0.00118123
0.00118119
0.00118124
0.00118123
0.00118119
0.00116318
0.00116318
0.00116316
0.00113774
0.00113775
0.00113773
0.00110679
0.0011068
0.00110678
0.00107099
0.00107101
0.00107098
0.00104744
0.00104745
0.00104742
0.00108293
0.00108294
0.00108292
0.00111367
0.00111368
0.00111365
0.00113894
0.00113894
0.00113891
0.00115687
0.00115686
0.00115681
0.00115687
0.00115685
0.00115681
0.00113891
0.0011389
0.00113888
0.00111361
0.00111362
0.0011136
0.00108286
0.00108287
0.00108285
0.00104735
0.00104736
0.00104734
0.0010198
0.00101981
0.00101978
0.00105488
0.00105489
0.00105486
0.00108532
0.00108533
0.0010853
0.00111038
0.00111038
0.00111035
0.00112817
0.00112816
0.00112812
0.00112817
0.00112816
0.00112811
0.00111035
0.00111035
0.00111032
0.00108526
0.00108527
0.00108525
0.00105481
0.00105482
0.00105479
0.00101971
0.00101973
0.0010197
0.000987774
0.000987784
0.000987751
0.00102224
0.00102225
0.00102222
0.00105226
0.00105227
0.00105225
0.00107703
0.00107703
0.001077
0.00109462
0.00109462
0.00109457
0.00109462
0.00109461
0.00109457
0.001077
0.001077
0.00107697
0.00105221
0.00105222
0.00105219
0.00102218
0.00102219
0.00102215
0.000987691
0.0009877
0.000987668
0.000950918
0.000950922
0.000950888
0.000984502
0.000984508
0.000984474
0.00101393
0.00101394
0.0010139
0.00103827
0.00103827
0.00103824
0.00105561
0.0010556
0.00105556
0.00105561
0.0010556
0.00105555
0.00103825
0.00103824
0.00103821
0.00101388
0.00101388
0.00101385
0.000984442
0.000984447
0.000984413
0.000950837
0.000950841
0.000950807
0.000908788
0.000908787
0.00090875
0.0009411
0.0009411
0.000941063
0.000969683
0.000969686
0.000969652
0.000993449
0.000993448
0.000993414
0.00101043
0.00101043
0.00101038
0.00101043
0.00101043
0.00101038
0.000993421
0.00099342
0.000993386
0.000969635
0.000969638
0.000969604
0.000941044
0.000941044
0.000941007
0.00090871
0.000908709
0.000908672
0.000860998
0.000860991
0.000860951
0.00089148
0.000891475
0.000891435
0.000918875
0.000918873
0.000918837
0.00094184
0.000941838
0.000941801
0.000958359
0.000958353
0.000958303
0.000958356
0.00095835
0.0009583
0.000941815
0.000941812
0.000941775
0.00091883
0.000918829
0.000918792
0.00089143
0.000891425
0.000891385
0.000860924
0.000860917
0.000860878
0.000807302
0.00080729
0.000807248
0.000835178
0.000835167
0.000835124
0.000860901
0.000860894
0.000860855
0.000882767
0.000882762
0.000882722
0.000898662
0.000898654
0.000898604
0.00089866
0.000898652
0.000898602
0.000882744
0.000882739
0.000882699
0.000860861
0.000860855
0.000860816
0.000835135
0.000835124
0.000835082
0.000807234
0.000807222
0.000807179
0.000747736
0.00074772
0.000747675
0.000771947
0.000771932
0.000771886
0.000795335
0.000795325
0.000795283
0.0008157
0.000815692
0.00081565
0.000830768
0.000830757
0.000830707
0.000830768
0.000830757
0.000830707
0.000815681
0.000815673
0.000815631
0.000795303
0.000795292
0.00079525
0.000771913
0.000771897
0.000771852
0.000747675
0.000747658
0.000747613
0.000682812
0.000682792
0.000682745
0.000701986
0.000701967
0.00070192
0.000722157
0.000722142
0.000722099
0.000740493
0.000740482
0.000740439
0.000754475
0.000754461
0.000754412
0.000754476
0.000754462
0.000754413
0.000740481
0.000740469
0.000740426
0.000722133
0.000722118
0.000722074
0.00070196
0.000701942
0.000701894
0.000682758
0.000682738
0.000682691
0.000613793
0.000613772
0.000613723
0.000626284
0.000626264
0.000626215
0.00064213
0.000642113
0.000642068
0.000657787
0.000657773
0.000657729
0.000670367
0.000670352
0.000670303
0.000670371
0.000670356
0.000670307
0.000657782
0.000657768
0.000657724
0.000642116
0.000642099
0.000642054
0.000626268
0.000626248
0.000626199
0.000613746
0.000613725
0.000613676
0.000543084
0.000543064
0.000543014
0.000547171
0.000547152
0.000547103
0.00055745
0.000557434
0.000557388
0.000569705
0.00056969
0.000569645
0.000580544
0.000580529
0.000580481
0.000580551
0.000580536
0.000580488
0.000569709
0.000569694
0.000569649
0.000557447
0.000557431
0.000557385
0.000547163
0.000547143
0.000547094
0.000543041
0.000543021
0.000542972
0.000474829
0.000474812
0.000474764
0.000469193
0.000469177
0.00046913
0.000472824
0.000472809
0.000472764
0.000481054
0.00048104
0.000480996
0.000489871
0.000489857
0.000489811
0.000489882
0.000489868
0.000489822
0.000481068
0.000481055
0.000481011
0.000472831
0.000472816
0.000472771
0.000469187
0.000469171
0.000469124
0.000474785
0.000474769
0.000474721
0.000415952
0.00041594
0.000415899
0.000400573
0.000400561
0.00040052
0.0003973
0.000397288
0.000397247
0.000401381
0.00040137
0.00040133
0.000408144
0.000408133
0.000408091
0.000408159
0.000408148
0.000408106
0.000401406
0.000401395
0.000401355
0.000397315
0.000397303
0.000397263
0.000400563
0.000400552
0.00040051
0.000415901
0.000415889
0.000415848
0.000377843
0.000377836
0.000377801
0.000355442
0.000355435
0.0003554
0.000347032
0.000347025
0.000346989
0.000348045
0.000348037
0.000348001
0.000353304
0.000353295
0.000353258
0.000353322
0.000353314
0.000353276
0.000348077
0.000348069
0.000348033
0.000347051
0.000347043
0.000347008
0.000355426
0.000355418
0.000355384
0.000377782
0.000377775
0.000377741
)
;

boundaryField
{
    freeSurface
    {
        type            slip;
    }
    inlet
    {
        type            cyclic;
    }
    outlet
    {
        type            cyclic;
    }
    sidewalls
    {
        type            kqRWallFunction;
        value           nonuniform 0();
    }
    noSlipWalls
    {
        type            kqRWallFunction;
        value           nonuniform List<scalar> 
30
(
0.00036296
0.000472403
0.000605612
0.000751474
0.000879523
0.000879486
0.000751241
0.000605279
0.000472087
0.000362696
0.000362989
0.000472439
0.000605642
0.000751437
0.000879395
0.000879358
0.000751204
0.000605308
0.000472123
0.000362725
0.000362968
0.000472411
0.0006056
0.000751343
0.000879127
0.000879089
0.000751109
0.000605266
0.000472095
0.000362705
)
;
    }
    procBoundary1to0
    {
        type            processor;
        value           nonuniform List<scalar> 
72
(
0.000279632
0.000279658
0.000279643
0.0010072
0.00100722
0.00100721
0.001076
0.00107602
0.00107601
0.00109398
0.001094
0.00109399
0.00109578
0.0010958
0.00109579
0.00109059
0.00109061
0.00109059
0.00108103
0.00108105
0.00108103
0.00106797
0.001068
0.00106798
0.00105165
0.00105167
0.00105165
0.00103202
0.00103204
0.00103202
0.0010089
0.00100892
0.00100889
0.000982039
0.000982055
0.000982022
0.000951125
0.000951136
0.000951102
0.000915864
0.000915868
0.000915833
0.000876001
0.000875999
0.000875961
0.000831391
0.000831381
0.000831341
0.000782077
0.000782062
0.000782017
0.000728396
0.000728376
0.000728328
0.000671094
0.000671071
0.00067102
0.000611461
0.000611437
0.000611384
0.000551534
0.000551512
0.000551458
0.00049452
0.000494501
0.00049445
0.000445727
0.000445713
0.000445669
0.000414211
0.000414202
0.000414165
)
;
    }
    procBoundary1to2
    {
        type            processor;
        value           nonuniform List<scalar> 
72
(
0.000279495
0.000279521
0.000279505
0.00100712
0.00100713
0.00100713
0.00107592
0.00107594
0.00107593
0.00109391
0.00109393
0.00109391
0.00109571
0.00109573
0.00109571
0.00109052
0.00109054
0.00109052
0.00108096
0.00108099
0.00108097
0.00106791
0.00106793
0.00106791
0.00105159
0.00105161
0.00105159
0.00103197
0.00103199
0.00103196
0.00100886
0.00100887
0.00100885
0.000981996
0.000982012
0.00098198
0.00095109
0.0009511
0.000951066
0.000915837
0.000915841
0.000915806
0.000875984
0.000875981
0.000875943
0.000831384
0.000831375
0.000831334
0.000782083
0.000782067
0.000782023
0.000728414
0.000728394
0.000728346
0.000671122
0.000671099
0.000671048
0.000611495
0.000611471
0.000611418
0.000551566
0.000551544
0.00055149
0.000494538
0.000494519
0.000494468
0.000445721
0.000445708
0.000445664
0.000414183
0.000414174
0.000414137
)
;
    }
}


// ************************************************************************* //
