/*--------------------------------*- C++ -*----------------------------------*\
  =========                 |
  \\      /  F ield         | OpenFOAM: The Open Source CFD Toolbox
   \\    /   O peration     | Website:  https://openfoam.org
    \\  /    A nd           | Version:  6
     \\/     M anipulation  |
\*---------------------------------------------------------------------------*/
FoamFile
{
    version     2.0;
    format      ascii;
    class       volScalarField;
    location    "60";
    object      p;
}
// * * * * * * * * * * * * * * * * * * * * * * * * * * * * * * * * * * * * * //

dimensions      [0 2 -2 0 0 0 0];

internalField   nonuniform List<scalar> 
720
(
3.13387e-10
4.29929e-08
1.92836e-08
9.49066e-10
4.20228e-08
1.96178e-08
1.52459e-09
4.102e-08
2.00448e-08
2.19987e-09
4.02879e-08
2.01022e-08
2.46597e-09
4.02618e-08
1.98539e-08
2.4709e-09
4.0258e-08
1.98515e-08
2.20432e-09
4.02705e-08
2.01048e-08
1.54006e-09
4.09825e-08
2.00569e-08
9.67011e-10
4.19838e-08
1.96284e-08
3.40093e-10
4.29168e-08
1.93228e-08
3.13256e-10
4.29928e-08
1.92839e-08
9.49641e-10
4.20235e-08
1.96166e-08
1.52666e-09
4.10197e-08
2.00431e-08
2.20657e-09
4.02788e-08
2.01046e-08
2.48867e-09
4.02292e-08
1.98639e-08
2.49365e-09
4.02253e-08
1.98615e-08
2.21105e-09
4.02614e-08
2.01072e-08
1.54213e-09
4.09822e-08
2.00552e-08
9.67593e-10
4.19844e-08
1.96273e-08
3.39945e-10
4.29168e-08
1.93229e-08
3.10393e-10
4.29915e-08
1.9288e-08
9.46871e-10
4.20236e-08
1.96192e-08
1.52475e-09
4.10203e-08
2.00443e-08
2.20569e-09
4.02798e-08
2.01045e-08
2.49224e-09
4.02244e-08
1.98651e-08
2.49723e-09
4.02205e-08
1.98627e-08
2.21016e-09
4.02624e-08
2.01071e-08
1.54023e-09
4.09828e-08
2.00564e-08
9.64837e-10
4.19843e-08
1.96301e-08
3.37059e-10
4.29158e-08
1.93268e-08
3.06e-10
4.29901e-08
1.92937e-08
9.4226e-10
4.20238e-08
1.96236e-08
1.52135e-09
4.10207e-08
2.00474e-08
2.2022e-09
4.02825e-08
2.01052e-08
2.48973e-09
4.02265e-08
1.98655e-08
2.49472e-09
4.02226e-08
1.98631e-08
2.20665e-09
4.02652e-08
2.01078e-08
1.53683e-09
4.09832e-08
2.00594e-08
9.60253e-10
4.19843e-08
1.96347e-08
3.32627e-10
4.29149e-08
1.93321e-08
3.00788e-10
4.29895e-08
1.92996e-08
9.36453e-10
4.20245e-08
1.96287e-08
1.5177e-09
4.102e-08
2.00517e-08
2.1985e-09
4.02823e-08
2.01091e-08
2.48762e-09
4.02235e-08
1.98706e-08
2.49261e-09
4.02197e-08
1.98682e-08
2.20293e-09
4.02649e-08
2.01118e-08
1.53319e-09
4.09826e-08
2.00637e-08
9.54488e-10
4.19847e-08
1.96401e-08
3.27347e-10
4.29149e-08
1.93374e-08
2.95151e-10
4.29906e-08
1.93041e-08
9.29651e-10
4.20263e-08
1.96337e-08
1.51399e-09
4.10184e-08
2.00572e-08
2.19447e-09
4.02778e-08
2.01175e-08
2.48688e-09
4.0212e-08
1.98829e-08
2.49187e-09
4.02082e-08
1.98804e-08
2.19888e-09
4.02605e-08
2.01203e-08
1.52951e-09
4.0981e-08
2.0069e-08
9.47734e-10
4.1986e-08
1.96456e-08
3.21612e-10
4.29167e-08
1.93413e-08
2.89959e-10
4.29942e-08
1.93057e-08
9.2259e-10
4.20301e-08
1.96369e-08
1.50978e-09
4.10164e-08
2.00634e-08
2.18967e-09
4.02696e-08
2.01304e-08
2.48703e-09
4.01912e-08
1.99035e-08
2.49203e-09
4.01875e-08
1.99009e-08
2.19406e-09
4.02523e-08
2.01333e-08
1.52532e-09
4.0979e-08
2.00752e-08
9.40707e-10
4.19891e-08
1.96494e-08
3.16286e-10
4.29212e-08
1.93422e-08
2.85888e-10
4.30018e-08
1.93022e-08
9.15653e-10
4.20374e-08
1.96365e-08
1.50441e-09
4.10155e-08
2.00697e-08
2.18468e-09
4.02581e-08
2.01468e-08
2.48672e-09
4.01629e-08
1.99322e-08
2.49171e-09
4.01592e-08
1.99295e-08
2.18905e-09
4.02408e-08
2.01499e-08
1.51997e-09
4.09782e-08
2.00813e-08
9.33786e-10
4.19957e-08
1.96498e-08
3.12026e-10
4.29298e-08
1.93378e-08
2.82369e-10
4.30158e-08
1.92918e-08
9.08308e-10
4.20506e-08
1.96307e-08
1.49731e-09
4.10178e-08
2.00745e-08
2.18024e-09
4.02443e-08
2.01649e-08
2.48573e-09
4.01295e-08
1.99667e-08
2.4907e-09
4.01258e-08
1.99639e-08
2.18455e-09
4.02271e-08
2.01681e-08
1.51288e-09
4.09805e-08
2.00861e-08
9.26437e-10
4.20081e-08
1.96448e-08
3.08271e-10
4.29448e-08
1.93267e-08
2.79599e-10
4.30381e-08
1.92723e-08
9.00742e-10
4.20723e-08
1.96165e-08
1.48807e-09
4.10261e-08
2.00754e-08
2.1755e-09
4.0231e-08
2.01828e-08
2.48575e-09
4.00925e-08
2.00037e-08
2.49069e-09
4.00889e-08
2.00009e-08
2.1797e-09
4.02139e-08
2.01861e-08
1.50363e-09
4.09889e-08
2.00871e-08
9.18855e-10
4.20289e-08
1.96316e-08
3.05219e-10
4.29681e-08
1.93064e-08
2.77718e-10
4.307e-08
1.92423e-08
8.93396e-10
4.21042e-08
1.95919e-08
1.47711e-09
4.10438e-08
2.00688e-08
2.16712e-09
4.02234e-08
2.01987e-08
2.48729e-09
4.00557e-08
2.0039e-08
2.49221e-09
4.00521e-08
2.00361e-08
2.17116e-09
4.02065e-08
2.0202e-08
1.49267e-09
4.10065e-08
2.00805e-08
9.11493e-10
4.206e-08
1.96078e-08
3.03017e-10
4.30009e-08
1.92758e-08
2.76794e-10
4.31096e-08
1.92035e-08
8.87673e-10
4.2145e-08
1.95568e-08
1.46551e-09
4.10726e-08
2.00516e-08
2.15337e-09
4.02251e-08
2.02105e-08
2.49001e-09
4.00237e-08
2.00684e-08
2.49491e-09
4.002e-08
2.00655e-08
2.15735e-09
4.02084e-08
2.0214e-08
1.48105e-09
4.10352e-08
2.00633e-08
9.05761e-10
4.20999e-08
1.95737e-08
3.01763e-10
4.30414e-08
1.92365e-08
2.81581e-10
4.31455e-08
1.91629e-08
8.90703e-10
4.21828e-08
1.9516e-08
1.4557e-09
4.11101e-08
2.00239e-08
2.13551e-09
4.02372e-08
2.02162e-08
2.49265e-09
3.99993e-08
2.00902e-08
2.49753e-09
3.99956e-08
2.00873e-08
2.13957e-09
4.02204e-08
2.02198e-08
1.47116e-09
4.10726e-08
2.00359e-08
9.08827e-10
4.21367e-08
1.95339e-08
3.0632e-10
4.30778e-08
1.91955e-08
3.00351e-10
4.31591e-08
1.91306e-08
9.07963e-10
4.22019e-08
1.94796e-08
1.45829e-09
4.11398e-08
1.99916e-08
2.11888e-09
4.02555e-08
2.02143e-08
2.49721e-09
3.99774e-08
2.01076e-08
2.50206e-09
3.99734e-08
2.0105e-08
2.12306e-09
4.02384e-08
2.02183e-08
1.47361e-09
4.1102e-08
2.00041e-08
9.26179e-10
4.21549e-08
1.94984e-08
3.25e-10
4.30919e-08
1.91628e-08
3.42389e-10
4.31305e-08
1.91171e-08
9.4736e-10
4.2182e-08
1.946e-08
1.48433e-09
4.11377e-08
1.99676e-08
2.12414e-09
4.02548e-08
2.02096e-08
2.52272e-09
3.99302e-08
2.01294e-08
2.52755e-09
3.99258e-08
2.01272e-08
2.12856e-09
4.02372e-08
2.02141e-08
1.49958e-09
4.10995e-08
1.99807e-08
9.65679e-10
4.21341e-08
1.94797e-08
3.66987e-10
4.30636e-08
1.91491e-08
4.26687e-10
4.30221e-08
1.91412e-08
1.02914e-09
4.20837e-08
1.94765e-08
1.54474e-09
4.10757e-08
1.99692e-08
2.17189e-09
4.02007e-08
2.02158e-08
2.58883e-09
3.98254e-08
2.01682e-08
2.59372e-09
3.98203e-08
2.01665e-08
2.17673e-09
4.0182e-08
2.02211e-08
1.56011e-09
4.10368e-08
1.99828e-08
1.04756e-09
4.20349e-08
1.9497e-08
4.51176e-10
4.29556e-08
1.9173e-08
5.77037e-10
4.27753e-08
1.92375e-08
1.18114e-09
4.18451e-08
1.9563e-08
1.66606e-09
4.08997e-08
2.00237e-08
2.2768e-09
4.00522e-08
2.02591e-08
2.70976e-09
3.96265e-08
2.02462e-08
2.71476e-09
3.96205e-08
2.02452e-08
2.2822e-09
4.00321e-08
2.02655e-08
1.6817e-09
4.08599e-08
2.00381e-08
1.19964e-09
4.17954e-08
1.95843e-08
6.01301e-10
4.27093e-08
1.9269e-08
8.21827e-10
4.23092e-08
1.94587e-08
1.44011e-09
4.1379e-08
1.97698e-08
1.88489e-09
4.05277e-08
2.01766e-08
2.47378e-09
3.97326e-08
2.03812e-08
2.92085e-09
3.92593e-08
2.04022e-08
2.92599e-09
3.92521e-08
2.04021e-08
2.47986e-09
3.97106e-08
2.03891e-08
1.90094e-09
4.04867e-08
2.01918e-08
1.45861e-09
4.13284e-08
1.97921e-08
8.45673e-10
4.22439e-08
1.94899e-08
1.18336e-09
4.15336e-08
1.98727e-08
1.84036e-09
4.05817e-08
2.01668e-08
2.2408e-09
3.98507e-08
2.04974e-08
2.80728e-09
3.9132e-08
2.06481e-08
3.26651e-09
3.86119e-08
2.07042e-08
3.27177e-09
3.86033e-08
2.07053e-08
2.8141e-09
3.91077e-08
2.06577e-08
2.25735e-09
3.98082e-08
2.05137e-08
1.85869e-09
4.05304e-08
2.01899e-08
1.20647e-09
4.14693e-08
1.99037e-08
1.66502e-09
4.03716e-08
2.05533e-08
2.36203e-09
3.93829e-08
2.08447e-08
2.75242e-09
3.87447e-08
2.1092e-08
3.29795e-09
3.81087e-08
2.1182e-08
3.76462e-09
3.75429e-08
2.12766e-08
3.76991e-09
3.75329e-08
2.12791e-08
3.30539e-09
3.8082e-08
2.11936e-08
2.76894e-09
3.87012e-08
2.11094e-08
2.37989e-09
3.93315e-08
2.08686e-08
1.68698e-09
4.03089e-08
2.05839e-08
2.23859e-09
3.87766e-08
2.15748e-08
2.8378e-09
3.78316e-08
2.1919e-08
3.39053e-09
3.70924e-08
2.21062e-08
3.88991e-09
3.64983e-08
2.22005e-08
4.35961e-09
3.58935e-08
2.23314e-08
4.36479e-09
3.58821e-08
2.23352e-08
3.89761e-09
3.64698e-08
2.22139e-08
3.40407e-09
3.70511e-08
2.21246e-08
2.85491e-09
3.77806e-08
2.19432e-08
2.25925e-09
3.87162e-08
2.16044e-08
2.84695e-09
3.70029e-08
2.27405e-08
3.35214e-09
3.6024e-08
2.32127e-08
4.09734e-09
3.50628e-08
2.34292e-08
4.56639e-09
3.44297e-08
2.35888e-08
5.04104e-09
3.37923e-08
2.37479e-08
5.04594e-09
3.37804e-08
2.37525e-08
4.57402e-09
3.44007e-08
2.3603e-08
4.10738e-09
3.50247e-08
2.3448e-08
3.36838e-09
3.59745e-08
2.32364e-08
2.8663e-09
3.69455e-08
2.27686e-08
3.37434e-09
3.55404e-08
2.3676e-08
3.97006e-09
3.43285e-08
2.42913e-08
4.75728e-09
3.32098e-08
2.4623e-08
5.26117e-09
3.24774e-08
2.48479e-08
5.74095e-09
3.18066e-08
2.50359e-08
5.74539e-09
3.1795e-08
2.50407e-08
5.2685e-09
3.24491e-08
2.4862e-08
4.76673e-09
3.31729e-08
2.46414e-08
3.98539e-09
3.42811e-08
2.43138e-08
3.39242e-09
3.54857e-08
2.37027e-08
3.68953e-09
3.47026e-08
2.4198e-08
4.37099e-09
3.33069e-08
2.49112e-08
5.17324e-09
3.2068e-08
2.53489e-08
5.71989e-09
3.12369e-08
2.56305e-08
6.20363e-09
3.054e-08
2.58412e-08
6.20767e-09
3.05287e-08
2.5846e-08
5.72689e-09
3.12094e-08
2.56443e-08
5.18268e-09
3.20316e-08
2.53668e-08
4.38567e-09
3.32611e-08
2.49328e-08
3.7067e-09
3.46498e-08
2.42238e-08
)
;

boundaryField
{
    freeSurface
    {
        type            slip;
    }
    inlet
    {
        type            cyclic;
    }
    outlet
    {
        type            cyclic;
    }
    sidewalls
    {
        type            zeroGradient;
    }
    noSlipWalls
    {
        type            zeroGradient;
    }
    procBoundary1to0
    {
        type            processor;
        value           nonuniform List<scalar> 
72
(
-2.6905e-10
4.4042e-08
1.8817e-08
-2.69165e-10
4.40405e-08
1.88186e-08
-2.71098e-10
4.40367e-08
1.88243e-08
-2.73734e-10
4.40326e-08
1.88311e-08
-2.76392e-10
4.40296e-08
1.88368e-08
-2.78928e-10
4.40289e-08
1.88399e-08
-2.80996e-10
4.40319e-08
1.8839e-08
-2.80918e-10
4.40401e-08
1.88307e-08
-2.77786e-10
4.40559e-08
1.88118e-08
-2.72521e-10
4.40817e-08
1.87807e-08
-2.65696e-10
4.41183e-08
1.87372e-08
-2.56642e-10
4.41614e-08
1.86851e-08
-2.44487e-10
4.42009e-08
1.86335e-08
-2.22851e-10
4.42198e-08
1.85929e-08
-1.76979e-10
4.41924e-08
1.85745e-08
-8.76222e-11
4.40788e-08
1.85986e-08
6.692e-11
4.38207e-08
1.87021e-08
3.08866e-10
4.33451e-08
1.89357e-08
6.53778e-10
4.25684e-08
1.93677e-08
1.10067e-09
4.1394e-08
2.00953e-08
1.62355e-09
3.98853e-08
2.10808e-08
2.16785e-09
3.83506e-08
2.20717e-08
2.62684e-09
3.71168e-08
2.28467e-08
2.89716e-09
3.64201e-08
2.32727e-08
)
;
    }
    procBoundary1to2
    {
        type            processor;
        value           nonuniform List<scalar> 
72
(
-2.39727e-10
4.39702e-08
1.88492e-08
-2.39863e-10
4.39688e-08
1.88508e-08
-2.4184e-10
4.39653e-08
1.88563e-08
-2.44557e-10
4.39614e-08
1.88628e-08
-2.47339e-10
4.39588e-08
1.88682e-08
-2.50037e-10
4.39586e-08
1.88711e-08
-2.52301e-10
4.39621e-08
1.88699e-08
-2.52467e-10
4.39708e-08
1.88613e-08
-2.49653e-10
4.39871e-08
1.88422e-08
-2.44772e-10
4.40134e-08
1.8811e-08
-2.38324e-10
4.40504e-08
1.87676e-08
-2.2949e-10
4.40936e-08
1.87155e-08
-2.17367e-10
4.41332e-08
1.86638e-08
-1.95676e-10
4.41521e-08
1.86232e-08
-1.49671e-10
4.41245e-08
1.86047e-08
-6.01039e-11
4.40105e-08
1.86292e-08
9.4725e-11
4.37515e-08
1.87333e-08
3.36943e-10
4.32747e-08
1.89678e-08
6.81726e-10
4.24968e-08
1.94011e-08
1.12686e-09
4.13215e-08
2.01313e-08
1.64764e-09
3.98129e-08
2.11189e-08
2.19091e-09
3.82799e-08
2.21092e-08
2.64879e-09
3.70486e-08
2.28829e-08
2.91817e-09
3.63538e-08
2.33078e-08
)
;
    }
}


// ************************************************************************* //
