/*--------------------------------*- C++ -*----------------------------------*\
  =========                 |
  \\      /  F ield         | OpenFOAM: The Open Source CFD Toolbox
   \\    /   O peration     | Website:  https://openfoam.org
    \\  /    A nd           | Version:  6
     \\/     M anipulation  |
\*---------------------------------------------------------------------------*/
FoamFile
{
    version     2.0;
    format      ascii;
    class       volVectorField;
    location    "4";
    object      wallShearStress;
}
// * * * * * * * * * * * * * * * * * * * * * * * * * * * * * * * * * * * * * //

dimensions      [0 2 -2 0 0 0 0];

internalField   uniform (0 0 0);

boundaryField
{
    inlet
    {
        type            calculated;
        value           uniform (0 0 0);
    }
    outlet
    {
        type            calculated;
        value           uniform (0 0 0);
    }
    roughCylinder
    {
        type            calculated;
        value           nonuniform List<vector> 
5120
(
(-0.000269363 -0.0003838 -0.000198419)
(-0.000329737 -0.000492568 -4.12995e-05)
(-0.000366436 -0.000590479 3.03277e-06)
(-0.000416207 -0.000683402 6.10048e-05)
(-0.000477409 -0.00076294 0.000126945)
(-0.000545962 -0.000824589 0.000192383)
(-0.000617984 -0.000865633 0.000252672)
(-0.000688379 -0.000886756 0.000304954)
(-0.000752964 -0.00089094 0.000347184)
(-0.000810342 -0.000884484 0.000379143)
(-0.000861357 -0.000877441 0.000403471)
(-0.000905075 -0.000872615 0.000420964)
(-0.000940065 -0.000871917 0.000431045)
(-0.000969449 -0.000876366 0.000434576)
(-0.000994347 -0.000885499 0.000432789)
(-0.00101623 -0.000898478 0.00042675)
(-0.00103653 -0.000914517 0.000417525)
(-0.00105646 -0.000932941 0.000405998)
(-0.00107697 -0.000953282 0.000392808)
(-0.00109865 -0.000975252 0.000378339)
(-0.00112182 -0.000998669 0.000362748)
(-0.00114655 -0.00102341 0.00034602)
(-0.00117278 -0.00104935 0.000328014)
(-0.00120032 -0.00107632 0.000308503)
(-0.00122892 -0.00110408 0.000287182)
(-0.00125827 -0.00113233 0.000263658)
(-0.00128797 -0.00116064 0.000237401)
(-0.00131752 -0.00118841 0.00020769)
(-0.00134612 -0.00121479 0.000173337)
(-0.00137244 -0.00123847 0.000132836)
(-0.0013937 -0.00125764 8.40153e-05)
(-0.00140587 -0.00126904 2.84415e-05)
(-0.000290762 -0.000373292 -0.000188773)
(-0.000354572 -0.000479513 -4.40608e-05)
(-0.000394095 -0.000576373 -2.92683e-06)
(-0.000446243 -0.000669233 5.18388e-05)
(-0.000509376 -0.000749934 0.000115431)
(-0.000579679 -0.000813375 0.000179362)
(-0.000653237 -0.000856445 0.00023872)
(-0.000725312 -0.000879842 0.000290511)
(-0.000792498 -0.000887282 0.000332913)
(-0.000853779 -0.000885632 0.000366341)
(-0.000908946 -0.000882163 0.000392733)
(-0.000956478 -0.000878453 0.00041224)
(-0.000993076 -0.000875714 0.000422974)
(-0.00102377 -0.000879178 0.000426897)
(-0.00105 -0.000887663 0.000425347)
(-0.00107315 -0.000900323 0.000419464)
(-0.0010947 -0.000916245 0.000410358)
(-0.00111592 -0.000934671 0.000398955)
(-0.00113774 -0.000955074 0.000385923)
(-0.00116078 -0.000977118 0.000371661)
(-0.00118535 -0.0010006 0.000356335)
(-0.00121153 -0.00102537 0.00033993)
(-0.00123923 -0.00105131 0.000322301)
(-0.00126826 -0.00107823 0.000303214)
(-0.00129835 -0.00110591 0.000282358)
(-0.00132917 -0.00113403 0.000259331)
(-0.00136032 -0.00116219 0.000233602)
(-0.00139125 -0.00118978 0.000204449)
(-0.00142117 -0.00121596 0.000170694)
(-0.00144866 -0.00123944 0.000130846)
(-0.00147088 -0.00125845 8.27633e-05)
(-0.0014836 -0.00126975 2.80123e-05)
(-0.000312456 -0.000357395 -0.000171399)
(-0.000379406 -0.00046087 -4.73912e-05)
(-0.000421598 -0.000555943 -9.59453e-06)
(-0.000475743 -0.000648101 4.17772e-05)
(-0.000540529 -0.000729457 0.00010277)
(-0.000612459 -0.000794484 0.000164998)
(-0.000687693 -0.00083984 0.000223399)
(-0.000761915 -0.000866353 0.000274954)
(-0.000832283 -0.000878037 0.000318104)
(-0.000897583 -0.00088113 0.00035326)
(-0.000956618 -0.000880817 0.000381448)
(-0.00100714 -0.000878214 0.000402257)
(-0.00104649 -0.000874299 0.00041384)
(-0.00107852 -0.000876587 0.000418194)
(-0.00110613 -0.000884257 0.000416864)
(-0.0011306 -0.000896437 0.000411168)
(-0.00115347 -0.000912088 0.000402221)
(-0.00117601 -0.000930374 0.000390996)
(-0.00119918 -0.000950685 0.000378175)
(-0.00122361 -0.000972644 0.000364176)
(-0.0012496 -0.00099602 0.000349171)
(-0.00127723 -0.00102065 0.000333142)
(-0.00130639 -0.0010464 0.000315948)
(-0.00133688 -0.00107308 0.000297343)
(-0.00136843 -0.00110048 0.000277007)
(-0.00140068 -0.00112828 0.000254533)
(-0.00143322 -0.00115607 0.000229386)
(-0.00146549 -0.00118328 0.000200849)
(-0.00149668 -0.00120908 0.000167754)
(-0.00152529 -0.0012322 0.000128628)
(-0.00154843 -0.00125091 8.1367e-05)
(-0.00156167 -0.00126202 2.75348e-05)
(-0.000332482 -0.00033738 -0.000149132)
(-0.000402202 -0.000437598 -5.08381e-05)
(-0.000446642 -0.000530152 -1.65527e-05)
(-0.000502216 -0.000620972 3.12666e-05)
(-0.000568245 -0.000702509 8.94084e-05)
(-0.000641634 -0.00076898 0.000149697)
(-0.000718703 -0.000816897 0.000207028)
(-0.000795478 -0.000847148 0.000258433)
(-0.000869296 -0.00086355 0.000302529)
(-0.000938518 -0.00087121 0.000339429)
(-0.00100122 -0.000873754 0.000369265)
(-0.00105484 -0.000872335 0.000391133)
(-0.00109777 -0.000868562 0.000403923)
(-0.00113134 -0.000869283 0.000408733)
(-0.00116037 -0.000876032 0.000407651)
(-0.00118624 -0.000887607 0.000402185)
(-0.00121049 -0.000902879 0.000393458)
(-0.0012344 -0.00092091 0.00038246)
(-0.00125895 -0.000941021 0.000369906)
(-0.00128476 -0.000962783 0.000356222)
(-0.00131216 -0.000985933 0.000341591)
(-0.00134119 -0.00101029 0.000325993)
(-0.00137176 -0.00103571 0.000309279)
(-0.00140365 -0.00106202 0.000291196)
(-0.00143655 -0.00108897 0.000271417)
(-0.00147012 -0.00111629 0.000249528)
(-0.00150395 -0.00114356 0.000224993)
(-0.00153744 -0.00117023 0.000197098)
(-0.00156976 -0.00119549 0.00016469)
(-0.0015994 -0.0012181 0.000126314)
(-0.00162337 -0.00123641 7.99105e-05)
(-0.00163709 -0.00124726 2.70379e-05)
(-0.000349858 -0.000313571 -0.000124209)
(-0.000422014 -0.000410026 -5.40566e-05)
(-0.000468254 -0.000499439 -2.34611e-05)
(-0.000524722 -0.000588354 2.0627e-05)
(-0.000591635 -0.000669641 7.56524e-05)
(-0.000666408 -0.000737461 0.000133719)
(-0.000745535 -0.000788203 0.000189814)
(-0.000825198 -0.000822527 0.000241057)
(-0.000902586 -0.000843652 0.00028609)
(-0.000975531 -0.000855454 0.000324585)
(-0.0010417 -0.000860566 0.000355928)
(-0.00109866 -0.000860501 0.000378884)
(-0.00114525 -0.000857597 0.000392922)
(-0.00118125 -0.000856691 0.000398391)
(-0.0012118 -0.000862388 0.000397715)
(-0.00123919 -0.00087319 0.000392553)
(-0.00126486 -0.000887929 0.000384111)
(-0.00129015 -0.000905563 0.000373413)
(-0.00131608 -0.000925341 0.000361189)
(-0.00134326 -0.000946766 0.000347884)
(-0.00137201 -0.000969544 0.000333678)
(-0.00140238 -0.000993485 0.000318559)
(-0.00143426 -0.00101842 0.00030237)
(-0.00146741 -0.00104418 0.000284849)
(-0.00150154 -0.00107053 0.000265663)
(-0.00153629 -0.00109719 0.000244389)
(-0.00157124 -0.00112377 0.000220489)
(-0.0016058 -0.00114973 0.000193256)
(-0.00163913 -0.0011743 0.000161551)
(-0.00166966 -0.00119626 0.000123944)
(-0.00169436 -0.00121405 7.84184e-05)
(-0.00170848 -0.00122458 2.65296e-05)
(-0.00036457 -0.000287347 -9.84253e-05)
(-0.000438708 -0.000379491 -5.68999e-05)
(-0.000486199 -0.0004652 -3.01236e-05)
(-0.000542969 -0.000551651 1.0072e-05)
(-0.000610343 -0.000632229 6.16963e-05)
(-0.000686329 -0.000701204 0.000117221)
(-0.000767561 -0.000754783 0.000171855)
(-0.000850206 -0.000793143 0.000222825)
(-0.000931142 -0.000818649 0.000268666)
(-0.00100774 -0.000834122 0.000308563)
(-0.00107743 -0.000841603 0.000341313)
(-0.00113794 -0.000842952 0.000365445)
(-0.00118808 -0.000841006 0.000380555)
(-0.00122779 -0.000839474 0.000387112)
(-0.00126009 -0.00084359 0.000386989)
(-0.00128906 -0.000853371 0.000382227)
(-0.00131624 -0.000867391 0.000374174)
(-0.00134299 -0.000884469 0.000363857)
(-0.00137028 -0.000903755 0.000352035)
(-0.0013988 -0.000924699 0.000339175)
(-0.00142884 -0.000946961 0.000325458)
(-0.00146046 -0.000970325 0.000310877)
(-0.00149354 -0.000994623 0.000295264)
(-0.00152783 -0.00101967 0.000278349)
(-0.00156305 -0.00104525 0.000259788)
(-0.00159879 -0.00107108 0.000239152)
(-0.00163468 -0.0010968 0.000215905)
(-0.00167012 -0.00112189 0.000189347)
(-0.00170427 -0.00114558 0.000158355)
(-0.00173553 -0.00116677 0.000121527)
(-0.00176085 -0.00118393 7.68984e-05)
(-0.00177531 -0.00119408 2.60129e-05)
(-0.000375498 -0.000259026 -7.27488e-05)
(-0.000451184 -0.00034642 -5.92276e-05)
(-0.000499384 -0.000427909 -3.6362e-05)
(-0.000555861 -0.000511358 -2.54938e-07)
(-0.000623222 -0.000590771 4.76217e-05)
(-0.000700195 -0.000660669 0.000100228)
(-0.00078354 -0.000717047 0.000153122)
(-0.00086928 -0.000759361 0.000203645)
(-0.000953875 -0.000788971 0.000250124)
(-0.00103422 -0.000807758 0.000291223)
(-0.00110758 -0.000817444 0.000325275)
(-0.00117181 -0.000820209 0.000350643)
(-0.00122571 -0.000819188 0.000366836)
(-0.0012695 -0.000817874 0.000374621)
(-0.00130454 -0.000820192 0.00037534)
(-0.0013353 -0.000828786 0.000371176)
(-0.0013641 -0.000841814 0.000363607)
(-0.00139233 -0.000858123 0.000353772)
(-0.00142103 -0.000876756 0.000342451)
(-0.00145085 -0.000897069 0.00033011)
(-0.00148212 -0.000918665 0.000316954)
(-0.00151489 -0.000941307 0.00030297)
(-0.00154903 -0.000964831 0.000287983)
(-0.00158428 -0.000989033 0.000271712)
(-0.00162037 -0.00101372 0.000253811)
(-0.00165693 -0.0010386 0.000233841)
(-0.00169357 -0.00106334 0.000211264)
(-0.0017297 -0.00108743 0.000185392)
(-0.00176451 -0.00111017 0.000155123)
(-0.00179635 -0.00113046 0.00011908)
(-0.00182215 -0.00114688 7.53583e-05)
(-0.00183683 -0.0011566 2.54906e-05)
(-0.00038274 -0.000229682 -4.81676e-05)
(-0.000459395 -0.000311882 -6.10264e-05)
(-0.000507692 -0.000388703 -4.20865e-05)
(-0.000563205 -0.000468633 -1.02104e-05)
(-0.00062997 -0.000546365 3.3606e-05)
(-0.000707524 -0.000616787 8.29071e-05)
(-0.000792742 -0.000675632 0.000133705)
(-0.000881386 -0.000721503 0.000183463)
(-0.0009695 -0.000754742 0.000230269)
(-0.00105363 -0.000776503 0.000272315)
(-0.00113091 -0.000788339 0.00030757)
(-0.00119914 -0.000792599 0.00033425)
(-0.00125712 -0.000792553 0.000351707)
(-0.00130496 -0.00079172 0.000360684)
(-0.00134417 -0.000793324 0.000362684)
(-0.00137699 -0.000799815 0.000359274)
(-0.00140757 -0.000811687 0.000352363)
(-0.00143742 -0.00082706 0.000343139)
(-0.00146753 -0.000844854 0.000332418)
(-0.00149862 -0.000864378 0.000320695)
(-0.00153105 -0.000885183 0.00030818)
(-0.00156486 -0.000906985 0.000294861)
(-0.00159989 -0.000929599 0.000280559)
(-0.00163593 -0.000952828 0.000264978)
(-0.00167268 -0.000976469 0.000247766)
(-0.00170978 -0.00100025 0.000228478)
(-0.0017469 -0.00102388 0.000206581)
(-0.00178346 -0.00104683 0.000181399)
(-0.00181865 -0.00106847 0.000151852)
(-0.00185085 -0.00108779 0.000116601)
(-0.001877 -0.00110346 7.38004e-05)
(-0.00189182 -0.00111278 2.49648e-05)
(-0.000385024 -0.000199313 -2.51827e-05)
(-0.000462107 -0.000275989 -6.21841e-05)
(-0.000509912 -0.000347717 -4.71412e-05)
(-0.000563763 -0.000423596 -1.96411e-05)
(-0.000629217 -0.000499048 1.97806e-05)
(-0.000706801 -0.000569461 6.5326e-05)
(-0.000793591 -0.000630399 0.000113578)
(-0.000885101 -0.000679555 0.000162183)
(-0.000976926 -0.000716253 0.000208995)
(-0.00106515 -0.000740892 0.00025176)
(-0.0011466 -0.000754827 0.000288104)
(-0.00121906 -0.000760563 0.000316107)
(-0.00128127 -0.00076147 0.000334981)
(-0.00133334 -0.000761117 0.000345313)
(-0.00137658 -0.000762573 0.000348587)
(-0.00141323 -0.000767803 0.000346434)
(-0.00144583 -0.000777767 0.000340378)
(-0.00147737 -0.000791669 0.000331896)
(-0.00150894 -0.000808425 0.000321922)
(-0.00154129 -0.000827005 0.000310927)
(-0.00157477 -0.000846865 0.000299142)
(-0.00160945 -0.000867698 0.000286568)
(-0.00164517 -0.000889406 0.000273019)
(-0.00168172 -0.000911704 0.00025818)
(-0.00171886 -0.000934377 0.000241699)
(-0.00175624 -0.000957173 0.000223123)
(-0.00179356 -0.000979769 0.00020192)
(-0.00183029 -0.00100169 0.000177432)
(-0.00186568 -0.00102229 0.000148609)
(-0.00189796 -0.00104057 0.000114132)
(-0.00192418 -0.00105538 7.22453e-05)
(-0.00193886 -0.00106419 2.44399e-05)
(-0.000382838 -0.00016902 -4.37211e-06)
(-0.000459688 -0.000239864 -6.27561e-05)
(-0.000506368 -0.000306223 -5.14946e-05)
(-0.000557814 -0.000377582 -2.83907e-05)
(-0.000621147 -0.000450128 6.3912e-06)
(-0.000698061 -0.000519898 4.7767e-05)
(-0.000785912 -0.000582347 9.29749e-05)
(-0.000879911 -0.000634254 0.000139905)
(-0.000975146 -0.000673915 0.000186232)
(-0.00106737 -0.000701122 0.00022935)
(-0.00115324 -0.000717103 0.000266624)
(-0.00123032 -0.000724388 0.000295967)
(-0.00129723 -0.000726368 0.000316435)
(-0.00135378 -0.000726518 0.000328358)
(-0.00140115 -0.000727854 0.00033307)
(-0.00144148 -0.000732363 0.000332242)
(-0.00147731 -0.000740913 0.000327409)
(-0.00151134 -0.000753452 0.000320057)
(-0.00154445 -0.000768833 0.000311015)
(-0.001578 -0.000786262 0.000300873)
(-0.00161244 -0.000805107 0.000289931)
(-0.00164783 -0.000824965 0.000278196)
(-0.00168377 -0.000845577 0.000265424)
(-0.00172029 -0.000866745 0.000251324)
(-0.00175718 -0.000888243 0.000235551)
(-0.00179415 -0.000909812 0.000217656)
(-0.00183096 -0.000931168 0.000197116)
(-0.00186719 -0.000951843 0.0001733)
(-0.00190214 -0.000971221 0.000145189)
(-0.0019342 -0.000988344 0.000111514)
(-0.00196031 -0.00100222 7.05919e-05)
(-0.00197478 -0.00101043 2.38826e-05)
(-0.000374542 -0.000138899 1.38436e-05)
(-0.000450631 -0.000203389 -6.27471e-05)
(-0.000495501 -0.000264309 -5.49679e-05)
(-0.000543822 -0.000330594 -3.62351e-05)
(-0.000604077 -0.000399489 -6.32208e-06)
(-0.000679361 -0.000467774 3.03985e-05)
(-0.000767577 -0.000531044 7.19248e-05)
(-0.000863805 -0.000585317 0.000116554)
(-0.000962718 -0.000627923 0.000161903)
(-0.00105952 -0.000657896 0.000205072)
(-0.00115029 -0.000676034 0.00024312)
(-0.0012323 -0.000684832 0.000273763)
(-0.001304 -0.000687725 0.000295859)
(-0.00136527 -0.000688317 0.000309563)
(-0.00141704 -0.000689562 0.000315986)
(-0.00146121 -0.000693426 0.000316692)
(-0.0015003 -0.000700934 0.000313284)
(-0.00153675 -0.000712211 0.000307219)
(-0.0015717 -0.000726212 0.00029932)
(-0.00160648 -0.000742353 0.00029022)
(-0.00164162 -0.000759984 0.000280239)
(-0.00167728 -0.000778648 0.000269393)
(-0.00171316 -0.000797936 0.000257448)
(-0.00174931 -0.000817724 0.000244126)
(-0.00178561 -0.000837819 0.000229095)
(-0.00182183 -0.000857961 0.000211904)
(-0.00185781 -0.000877879 0.000192047)
(-0.00189323 -0.000897139 0.000168923)
(-0.00192754 -0.000915197 0.000141561)
(-0.00195907 -0.000931075 0.000108723)
(-0.00198487 -0.000943946 6.88261e-05)
(-0.00199899 -0.000951507 2.32882e-05)
(-0.00035954 -0.000109527 2.91188e-05)
(-0.000436746 -0.000168286 -6.20961e-05)
(-0.000478449 -0.00022343 -5.77177e-05)
(-0.000522733 -0.000284226 -4.30588e-05)
(-0.000578889 -0.000348791 -1.80557e-05)
(-0.000651514 -0.000414755 1.36412e-05)
(-0.000739317 -0.000478097 5.08704e-05)
(-0.000837234 -0.000534162 9.24797e-05)
(-0.000939288 -0.000579205 0.000136154)
(-0.00104017 -0.000611528 0.0001788)
(-0.00113584 -0.000631724 0.000217312)
(-0.00122322 -0.000642103 0.000249189)
(-0.00130049 -0.000646084 0.000273058)
(-0.00136697 -0.000647114 0.000288747)
(-0.00142342 -0.000648185 0.000297126)
(-0.00147165 -0.000651373 0.000299644)
(-0.00151408 -0.000657823 0.000297882)
(-0.00155305 -0.000667796 0.000293286)
(-0.00158979 -0.000680377 0.000286705)
(-0.00162571 -0.000695111 0.000278811)
(-0.00166144 -0.000711361 0.000269928)
(-0.00169719 -0.000728626 0.000260076)
(-0.00173279 -0.000746479 0.00024905)
(-0.00176834 -0.000764803 0.000236584)
(-0.00180371 -0.000783368 0.000222342)
(-0.00183878 -0.000801951 0.000205885)
(-0.00187353 -0.000820311 0.00018673)
(-0.00190773 -0.000838043 0.000164319)
(-0.00194088 -0.000854607 0.000137719)
(-0.00197162 -0.000869216 0.00010576)
(-0.00199685 -0.000881015 6.69473e-05)
(-0.00201049 -0.000887894 2.26571e-05)
(-0.000336489 -8.10464e-05 4.13308e-05)
(-0.000415348 -0.000134582 -6.0542e-05)
(-0.000453566 -0.000183545 -5.94075e-05)
(-0.000492842 -0.000238465 -4.85513e-05)
(-0.000543701 -0.000297894 -2.84275e-05)
(-0.000612235 -0.000360405 -2.12821e-06)
(-0.000698287 -0.000422726 3.00469e-05)
(-0.000797098 -0.00047992 6.77288e-05)
(-0.000902454 -0.000527442 0.000108968)
(-0.00100844 -0.00056268 0.000150637)
(-0.00110984 -0.000585324 0.000189346)
(-0.00120307 -0.000597403 0.000222339)
(-0.0012859 -0.000602211 0.000247924)
(-0.00135779 -0.000603478 0.000265708)
(-0.00141931 -0.00060427 0.000276298)
(-0.00147198 -0.000606719 0.000280931)
(-0.00151805 -0.00061207 0.000281114)
(-0.00155967 -0.000620641 0.000278233)
(-0.00159827 -0.000631718 0.000273191)
(-0.00163529 -0.000644931 0.000266683)
(-0.00167143 -0.00065965 0.00025904)
(-0.001707 -0.00067538 0.000250299)
(-0.00174192 -0.00069165 0.000240273)
(-0.00177635 -0.000708347 0.00022871)
(-0.00181036 -0.000725299 0.000215299)
(-0.00184385 -0.000742253 0.000199609)
(-0.00187692 -0.00075899 0.000181175)
(-0.00190951 -0.000775141 0.000159495)
(-0.00194136 -0.000790279 0.0001337)
(-0.00197087 -0.000803526 0.000102641)
(-0.00199535 -0.000814261 6.49677e-05)
(-0.0020084 -0.000820447 2.19951e-05)
(-0.000307738 -5.51412e-05 5.05109e-05)
(-0.000387567 -0.000103296 -5.83006e-05)
(-0.000422517 -0.000146299 -6.01532e-05)
(-0.000456151 -0.000195208 -5.26463e-05)
(-0.000500543 -0.000248864 -3.71252e-05)
(-0.000563628 -0.000306948 -1.63425e-05)
(-0.000646849 -0.000367339 1.01825e-05)
(-0.00074589 -0.000425065 4.30592e-05)
(-0.000853692 -0.000474492 8.09143e-05)
(-0.000963363 -0.000511899 0.000120704)
(-0.00106991 -0.000536732 0.000159011)
(-0.00116921 -0.000550579 0.000192845)
(-0.00125869 -0.000556594 0.000220238)
(-0.00133687 -0.000558216 0.000240336)
(-0.00140394 -0.000558613 0.000253393)
(-0.00146135 -0.000560144 0.000260438)
(-0.0015112 -0.000564209 0.000262858)
(-0.00155565 -0.000571247 0.00026199)
(-0.00159614 -0.000580689 0.000258738)
(-0.00163417 -0.000592253 0.000253819)
(-0.00167057 -0.000605342 0.000247589)
(-0.00170572 -0.000619447 0.000240096)
(-0.00173972 -0.000634114 0.000231181)
(-0.00177279 -0.000649214 0.000220603)
(-0.00180496 -0.000664509 0.000208059)
(-0.00183636 -0.000679798 0.000193148)
(-0.00186726 -0.000694892 0.000175439)
(-0.00189774 -0.000709435 0.00015449)
(-0.00192752 -0.000723005 0.000129487)
(-0.00195565 -0.000734982 9.93679e-05)
(-0.00197902 -0.000744592 6.28824e-05)
(-0.00199126 -0.000750069 2.12995e-05)
(-0.000271504 -3.21971e-05 5.61691e-05)
(-0.000350896 -7.43997e-05 -5.49968e-05)
(-0.000382886 -0.00011158 -5.95656e-05)
(-0.00041069 -0.000154323 -5.49622e-05)
(-0.000447616 -0.00020154 -4.36516e-05)
(-0.000503389 -0.000253901 -2.83569e-05)
(-0.000581387 -0.000310677 -8.0981e-06)
(-0.000678526 -0.00036756 1.88574e-05)
(-0.00078829 -0.000418666 5.21819e-05)
(-0.000903531 -0.000459383 8.93347e-05)
(-0.00101676 -0.000487296 0.000126742)
(-0.00112301 -0.000503349 0.000161137)
(-0.00121893 -0.000510364 0.000190123)
(-0.00130337 -0.000512118 0.00021254)
(-0.00137632 -0.000511972 0.000228286)
(-0.0014389 -0.000512453 0.000238076)
(-0.00149299 -0.000515107 0.0002431)
(-0.00154045 -0.000520453 0.000244569)
(-0.00158292 -0.00052815 0.000243402)
(-0.00162192 -0.000537965 0.000240313)
(-0.00165834 -0.000549326 0.000235673)
(-0.00169272 -0.000561741 0.000229553)
(-0.00172523 -0.000574721 0.000221816)
(-0.00175622 -0.000588138 0.000212248)
(-0.00178612 -0.000601824 0.000200609)
(-0.00181493 -0.000615503 0.000186491)
(-0.00184317 -0.000629008 0.000169506)
(-0.00187112 -0.000642011 0.000149294)
(-0.00189888 -0.000654215 0.000125127)
(-0.00192492 -0.000664839 9.59413e-05)
(-0.00194712 -0.000673414 6.07014e-05)
(-0.00195854 -0.000678257 2.05769e-05)
(-0.000231045 -1.34516e-05 5.86399e-05)
(-0.00030825 -4.93093e-05 -5.09441e-05)
(-0.00033782 -8.10339e-05 -5.79804e-05)
(-0.000360006 -0.0001178 -5.57388e-05)
(-0.000388716 -0.000158274 -4.78991e-05)
(-0.000435664 -0.000204006 -3.75861e-05)
(-0.000507182 -0.000256212 -2.37654e-05)
(-0.000601927 -0.000311674 -3.59485e-06)
(-0.00071255 -0.000363793 2.39773e-05)
(-0.000829787 -0.000406165 5.7131e-05)
(-0.000947743 -0.000436494 9.25935e-05)
(-0.00106052 -0.000454807 0.000126912)
(-0.00116423 -0.00046351 0.000157388)
(-0.00125621 -0.000465847 0.000182274)
(-0.00133586 -0.00046527 0.000200974)
(-0.00140403 -0.00046458 0.000213824)
(-0.00146243 -0.000465603 0.000221777)
(-0.00151308 -0.000469104 0.000225932)
(-0.00155751 -0.000474909 0.000227148)
(-0.00159733 -0.000482869 0.000226136)
(-0.00163358 -0.000492461 0.000223283)
(-0.0016669 -0.000503198 0.000218683)
(-0.00169773 -0.00051461 0.000212242)
(-0.0017265 -0.000526515 0.000203771)
(-0.00175342 -0.000538625 0.000193033)
(-0.00177907 -0.000550783 0.000179704)
(-0.00180406 -0.000562789 0.000163423)
(-0.00182889 -0.000574313 0.000143927)
(-0.00185352 -0.000585028 0.000120556)
(-0.00187761 -0.000594534 9.23531e-05)
(-0.00189813 -0.000602024 5.84039e-05)
(-0.00190834 -0.000606206 1.98168e-05)
(-0.000184135 1.06322e-06 5.7432e-05)
(-0.00025684 -2.79845e-05 -4.55785e-05)
(-0.000284313 -5.4164e-05 -5.47548e-05)
(-0.000301644 -8.49465e-05 -5.44318e-05)
(-0.000322224 -0.000118436 -4.92693e-05)
(-0.000358697 -0.000156477 -4.31503e-05)
(-0.000419619 -0.000201783 -3.56297e-05)
(-0.000506833 -0.000252828 -2.31511e-05)
(-0.000615741 -0.000304645 -2.82378e-06)
(-0.000739051 -0.000351011 2.50305e-05)
(-0.000864619 -0.000385495 5.75192e-05)
(-0.00098546 -0.000407088 9.11321e-05)
(-0.00109649 -0.000417501 0.000122613)
(-0.00119559 -0.000420352 0.000149775)
(-0.00128186 -0.000419273 0.000171496)
(-0.00135592 -0.000417382 0.000187686)
(-0.0014192 -0.000416759 0.000198954)
(-0.00147321 -0.000418313 0.000206153)
(-0.00151971 -0.000422164 0.000210083)
(-0.00156027 -0.000428232 0.000211413)
(-0.00159604 -0.000436041 0.000210541)
(-0.0016278 -0.000445102 0.000207576)
(-0.00165612 -0.000454922 0.00020246)
(-0.00168164 -0.000465288 0.000195067)
(-0.00170531 -0.000476056 0.000185277)
(-0.0017272 -0.000486834 0.000172727)
(-0.00174843 -0.000497501 0.000157132)
(-0.00176978 -0.000507713 0.000138351)
(-0.00179168 -0.000517325 0.000115836)
(-0.00181269 -0.000525595 8.85834e-05)
(-0.00183163 -0.000532168 5.59968e-05)
(-0.00184083 -0.000535845 1.90293e-05)
(-0.000136231 1.06003e-05 5.38226e-05)
(-0.000202289 -1.16955e-05 -3.94827e-05)
(-0.000228534 -3.24393e-05 -5.05357e-05)
(-0.000242345 -5.74345e-05 -5.17383e-05)
(-0.000254874 -8.35448e-05 -4.81106e-05)
(-0.000278823 -0.000111902 -4.45381e-05)
(-0.000329462 -0.000149237 -4.24856e-05)
(-0.00041039 -0.000198265 -3.82793e-05)
(-0.00051748 -0.000249986 -2.67894e-05)
(-0.000636986 -0.000295932 -6.10256e-06)
(-0.000765284 -0.000333189 2.20958e-05)
(-0.000892503 -0.000358055 5.39214e-05)
(-0.00101224 -0.000371355 8.59187e-05)
(-0.00111988 -0.00037564 0.000115216)
(-0.00121398 -0.000374668 0.000140078)
(-0.00129446 -0.000371772 0.000159829)
(-0.00136248 -0.000369427 0.000174668)
(-0.00141991 -0.000369 0.000185238)
(-0.00146831 -0.000370837 0.000192179)
(-0.00150937 -0.000374999 0.000196104)
(-0.00154436 -0.000381076 0.000197406)
(-0.00157428 -0.000388597 0.000196219)
(-0.00160002 -0.000397085 0.000192548)
(-0.00162237 -0.000406238 0.000186322)
(-0.00164166 -0.000415699 0.000177411)
(-0.00165925 -0.000425299 0.000165618)
(-0.00167606 -0.000434808 0.000150661)
(-0.0016932 -0.000443805 0.000132552)
(-0.00171083 -0.000452152 0.000110827)
(-0.00172934 -0.000459575 8.46045e-05)
(-0.00174606 -0.000465173 5.34375e-05)
(-0.00175365 -0.000468302 1.81925e-05)
(-8.53758e-05 1.49254e-05 4.76344e-05)
(-0.000140422 2.90553e-09 -3.18022e-05)
(-0.000165189 -1.51495e-05 -4.41245e-05)
(-0.000177259 -3.50946e-05 -4.60461e-05)
(-0.000187021 -5.5489e-05 -4.10176e-05)
(-0.00021724 -7.58183e-05 -4.02796e-05)
(-0.000293385 -0.000114656 -4.55378e-05)
(-0.000297902 -0.000137419 -4.77961e-05)
(-0.000386085 -0.000185077 -4.52596e-05)
(-0.000516658 -0.000237838 -3.24993e-05)
(-0.000653197 -0.000279898 -1.14959e-05)
(-0.000788612 -0.000309868 1.70514e-05)
(-0.000915816 -0.000326471 4.86186e-05)
(-0.00103123 -0.0003326 7.94755e-05)
(-0.00113229 -0.000331932 0.00010717)
(-0.00121904 -0.000328293 0.000130492)
(-0.00129238 -0.000324542 0.000149161)
(-0.00135336 -0.000322266 0.000163391)
(-0.00140369 -0.000322198 0.000173639)
(-0.00144504 -0.000324543 0.0001804)
(-0.00147883 -0.000328996 0.000184041)
(-0.00150619 -0.00033507 0.000184699)
(-0.00152816 -0.000342245 0.00018243)
(-0.00154591 -0.000350182 0.000177283)
(-0.00156099 -0.000358735 0.000169319)
(-0.00157354 -0.000367327 0.000158233)
(-0.00158546 -0.000375901 0.00014388)
(-0.00159828 -0.000383939 0.000126453)
(-0.0016125 -0.000391519 0.000105618)
(-0.001627 -0.000397919 8.03733e-05)
(-0.00164184 -0.000402757 5.07291e-05)
(-0.00164815 -0.000405543 1.73193e-05)
(-3.72931e-05 1.65318e-05 3.55602e-05)
(-8.2126e-05 5.79191e-06 -1.9749e-05)
(-0.000107372 1.64103e-06 -3.76383e-05)
(-0.000122712 -1.14608e-05 -4.64115e-05)
(-0.000128544 -2.72201e-05 -7.12961e-05)
(-0.000116722 -5.89501e-05 -0.000133552)
(-9.50529e-05 -0.000194493 -4.94866e-05)
(-0.000206412 -0.000119423 7.74082e-05)
(-0.000306867 -0.000117808 -4.57134e-05)
(-0.000396129 -0.00017305 -6.03863e-05)
(-0.000526867 -0.00022443 -4.29151e-05)
(-0.000667842 -0.000259343 -1.78548e-05)
(-0.000803878 -0.000280961 1.19538e-05)
(-0.00092762 -0.000290255 4.34225e-05)
(-0.00103697 -0.000291165 7.35031e-05)
(-0.00113052 -0.000287527 0.000100238)
(-0.00120854 -0.000282633 0.000122706)
(-0.00127275 -0.000278747 0.000140741)
(-0.00132459 -0.000276937 0.000154477)
(-0.0013658 -0.000277638 0.00016425)
(-0.00139793 -0.000280657 0.000170359)
(-0.00142249 -0.000285557 0.000172961)
(-0.00144094 -0.000291813 0.000172195)
(-0.00145453 -0.000298971 0.000168212)
(-0.00146377 -0.00030662 0.000161031)
(-0.001471 -0.000314469 0.000150625)
(-0.00147737 -0.000322288 0.0001368)
(-0.00148496 -0.000329395 0.000119984)
(-0.00149394 -0.000335999 9.99687e-05)
(-0.00150544 -0.000341832 7.58269e-05)
(-0.00151752 -0.000345779 4.77963e-05)
(-0.00152206 -0.000348195 1.63782e-05)
(-1.03359e-05 9.90625e-06 2.45067e-05)
(-1.99539e-05 3.97573e-06 -8.83768e-06)
(-3.80826e-05 3.88905e-06 -2.57555e-05)
(-4.5348e-05 -5.5067e-06 -3.63053e-05)
(-6.10458e-05 -2.70582e-05 -5.06389e-05)
(-6.91564e-05 -4.39351e-05 -4.22717e-05)
(-3.00704e-05 -3.23904e-05 -2.80154e-05)
(-8.59776e-05 -4.69006e-05 -3.65854e-05)
(-0.000151337 -9.16311e-05 -4.75427e-05)
(-0.000282183 -0.000129412 -4.7362e-05)
(-0.000398701 -0.000164063 -6.25178e-05)
(-0.000539669 -0.00020805 -4.88366e-05)
(-0.000681078 -0.000235269 -2.17868e-05)
(-0.000812939 -0.000248998 8.84325e-06)
(-0.000928997 -0.000252215 4.01836e-05)
(-0.00102852 -0.00024932 6.97237e-05)
(-0.00111185 -0.000244157 9.5862e-05)
(-0.00117931 -0.000239211 0.000117731)
(-0.0012325 -0.000236072 0.000135073)
(-0.00127318 -0.000235441 0.000147966)
(-0.00130312 -0.000237308 0.000156607)
(-0.00132386 -0.000241203 0.0001611)
(-0.00133715 -0.00024657 0.00016166)
(-0.00134484 -0.0002529 0.000158647)
(-0.00134895 -0.000260117 0.000152331)
(-0.00134993 -0.000267274 0.000142496)
(-0.00135053 -0.000274566 0.000129164)
(-0.00135335 -0.00028098 0.000113016)
(-0.00135833 -0.000287074 9.39704e-05)
(-0.00136525 -0.000292116 7.09004e-05)
(-0.0013756 -0.000295451 4.46564e-05)
(-0.00137825 -0.000297551 1.53802e-05)
(1.40559e-05 5.35246e-06 1.76409e-05)
(9.12779e-06 2.63122e-08 -1.08287e-05)
(2.159e-06 -4.40213e-06 -1.51296e-05)
(-4.58726e-06 -8.74642e-06 -1.99965e-05)
(-1.58839e-05 -1.90171e-05 -2.7833e-06)
(-4.33796e-05 9.31258e-06 1.68983e-05)
(-7.33069e-05 6.49697e-05 -6.31121e-05)
(-4.5028e-05 -3.85543e-05 -0.000107384)
(-4.81894e-05 -5.0828e-05 -2.6541e-05)
(-0.000110697 -7.74461e-05 -2.8481e-05)
(-0.000262754 -0.000113744 -5.02283e-05)
(-0.000404845 -0.000151291 -6.60475e-05)
(-0.000551008 -0.000188333 -5.00559e-05)
(-0.000686745 -0.000207418 -2.24548e-05)
(-0.000809941 -0.000214624 8.69835e-06)
(-0.000915787 -0.000213795 4.00922e-05)
(-0.00100276 -0.000209014 6.92861e-05)
(-0.00107248 -0.00020363 9.47043e-05)
(-0.00112618 -0.000199663 0.000115527)
(-0.00116563 -0.000198121 0.000131487)
(-0.00119265 -0.00019918 0.000142598)
(-0.00120952 -0.000202459 0.000148964)
(-0.0012184 -0.0002074 0.000150887)
(-0.00122113 -0.00021333 0.000148905)
(-0.00121826 -0.000220005 0.000143195)
(-0.00121341 -0.000226683 0.000133925)
(-0.00120765 -0.000233517 0.000120977)
(-0.00120463 -0.00023906 0.000105402)
(-0.001204 -0.000244349 8.73068e-05)
(-0.0012074 -0.000248939 6.54775e-05)
(-0.00121431 -0.000251222 4.11602e-05)
(-0.00121575 -0.000253128 1.42917e-05)
(3.10041e-05 1.5886e-06 1.99512e-05)
(3.77606e-05 -1.06936e-06 -3.35475e-06)
(3.36911e-05 -3.44687e-06 -6.44962e-06)
(2.37906e-05 -6.26176e-06 -1.00913e-05)
(1.40063e-05 -9.86266e-06 -1.14676e-05)
(-7.17582e-06 -6.94313e-06 -1.37485e-05)
(-4.40828e-05 -1.80757e-05 -3.85384e-05)
(-1.88132e-05 -2.01382e-05 -3.52646e-05)
(-4.02208e-05 -1.46082e-05 -3.92655e-05)
(-5.46002e-05 -3.61791e-05 -3.92738e-05)
(-0.000117231 -5.92335e-05 -3.78268e-05)
(-0.000265084 -9.76191e-05 -6.72363e-05)
(-0.000405364 -0.000137434 -6.63645e-05)
(-0.000552111 -0.000165598 -4.64564e-05)
(-0.000681377 -0.000177499 -1.9092e-05)
(-0.000791759 -0.000179867 1.25409e-05)
(-0.000883333 -0.000176984 4.39733e-05)
(-0.000955301 -0.000172182 7.24526e-05)
(-0.00100903 -0.000168133 9.6472e-05)
(-0.00104664 -0.000166236 0.000115313)
(-0.00107021 -0.000166951 0.000128734)
(-0.00108191 -0.000169792 0.00013668)
(-0.00108426 -0.000174206 0.000139557)
(-0.00108015 -0.000179499 0.00013827)
(-0.00107153 -0.000186008 0.000133227)
(-0.00105971 -0.000191875 0.000124327)
(-0.0010479 -0.000198377 0.000111765)
(-0.00104052 -0.00020316 9.69291e-05)
(-0.00103562 -0.000207867 8.00052e-05)
(-0.00103476 -0.000211802 5.94955e-05)
(-0.00104128 -0.00021359 3.7417e-05)
(-0.00103949 -0.000214746 1.31128e-05)
(4.58922e-05 5.3751e-06 3.33154e-05)
(5.96564e-05 -1.57686e-07 -7.67431e-06)
(6.31736e-05 -6.08772e-06 -1.22109e-05)
(6.05022e-05 -1.52597e-05 -1.47024e-05)
(5.41193e-05 -2.33924e-05 -1.52473e-05)