/*--------------------------------*- C++ -*----------------------------------*\
  =========                 |
  \\      /  F ield         | OpenFOAM: The Open Source CFD Toolbox
   \\    /   O peration     | Website:  https://openfoam.org
    \\  /    A nd           | Version:  6
     \\/     M anipulation  |
\*---------------------------------------------------------------------------*/
FoamFile
{
    version     2.0;
    format      ascii;
    class       volVectorField;
    location    "4";
    object      wallShearStress;
}
// * * * * * * * * * * * * * * * * * * * * * * * * * * * * * * * * * * * * * //

dimensions      [0 2 -2 0 0 0 0];

internalField   uniform (0 0 0);

boundaryField
{
    inlet
    {
        type            calculated;
        value           uniform (0 0 0);
    }
    outlet
    {
        type            calculated;
        value           uniform (0 0 0);
    }
    roughCylinder
    {
        type            calculated;
        value           nonuniform List<vector> 
5120
(
(-0.000269488 -0.000383911 -0.000198415)
(-0.000329873 -0.000492701 -4.13145e-05)
(-0.000366584 -0.000590631 3.01711e-06)
(-0.000416366 -0.000683579 6.09866e-05)
(-0.000477579 -0.000763142 0.000126938)
(-0.000546142 -0.000824804 0.000192384)
(-0.000618174 -0.000865862 0.000252676)
(-0.000688582 -0.000886993 0.000304965)
(-0.000753174 -0.000891185 0.000347194)
(-0.000810565 -0.000884733 0.000379157)
(-0.000861582 -0.000877692 0.000403485)
(-0.000905312 -0.000872873 0.000420981)
(-0.000940304 -0.000872177 0.000431058)
(-0.00096969 -0.000876626 0.000434594)
(-0.000994592 -0.000885759 0.000432804)
(-0.00101648 -0.000898741 0.000426761)
(-0.00103677 -0.00091478 0.000417531)
(-0.00105671 -0.00093321 0.000406)
(-0.00107722 -0.000953556 0.000392805)
(-0.00109891 -0.000975529 0.00037833)
(-0.00112208 -0.000998953 0.000362729)
(-0.00114682 -0.0010237 0.000345991)
(-0.00117306 -0.00104965 0.000327972)
(-0.00120061 -0.00107663 0.000308448)
(-0.00122922 -0.0011044 0.000287109)
(-0.0012586 -0.00113267 0.000263561)
(-0.00128834 -0.00116102 0.000237268)
(-0.00131796 -0.00118886 0.000207516)
(-0.00134667 -0.00121532 0.000173129)
(-0.00137316 -0.00123913 0.00013258)
(-0.00139467 -0.00125851 8.38094e-05)
(-0.00140694 -0.00127 2.83806e-05)
(-0.000290911 -0.000373425 -0.000188779)
(-0.000354733 -0.000479662 -4.40773e-05)
(-0.000394263 -0.000576539 -2.94467e-06)
(-0.000446416 -0.000669417 5.1824e-05)
(-0.000509561 -0.000750141 0.000115427)
(-0.000579878 -0.0008136 0.000179367)
(-0.000653449 -0.000856686 0.00023873)
(-0.000725537 -0.00088009 0.000290527)
(-0.000792732 -0.000887538 0.000332931)
(-0.000854022 -0.000885889 0.000366362)
(-0.00090919 -0.000882417 0.000392752)
(-0.000956725 -0.000878708 0.00041226)
(-0.000993326 -0.000875969 0.000422995)
(-0.00102402 -0.000879431 0.000426915)
(-0.00105025 -0.000887916 0.000425364)
(-0.00107341 -0.000900579 0.000419477)
(-0.00109496 -0.000916501 0.000410368)
(-0.00111618 -0.000934929 0.000398959)
(-0.001138 -0.000955337 0.000385919)
(-0.00116104 -0.000977386 0.000371651)
(-0.00118562 -0.00100087 0.000356315)
(-0.00121181 -0.00102565 0.000339897)
(-0.00123952 -0.00105159 0.000322257)
(-0.00126856 -0.00107853 0.000303156)
(-0.00129867 -0.00110622 0.000282281)
(-0.00132951 -0.00113437 0.000259228)
(-0.00136069 -0.00116255 0.000233457)
(-0.00139171 -0.00119021 0.000204258)
(-0.00142175 -0.00121648 0.000170463)
(-0.00144944 -0.00124011 0.000130556)
(-0.00147195 -0.00125934 8.25301e-05)
(-0.00148479 -0.00127072 2.79443e-05)
(-0.000312593 -0.000357496 -0.00017139)
(-0.000379557 -0.000460992 -4.74076e-05)
(-0.000421759 -0.000556084 -9.6102e-06)
(-0.000475917 -0.000648264 4.17661e-05)
(-0.000540714 -0.00072964 0.000102762)
(-0.000612654 -0.000794685 0.000164999)
(-0.000687898 -0.000840047 0.000223408)
(-0.000762132 -0.000866569 0.000274964)
(-0.000832504 -0.000878256 0.000318116)
(-0.000897816 -0.000881356 0.000353277)
(-0.000956863 -0.000881049 0.000381463)
(-0.0010074 -0.000878455 0.000402275)
(-0.00104676 -0.000874545 0.000413861)
(-0.00107879 -0.000876834 0.000418215)
(-0.0011064 -0.000884502 0.000416884)
(-0.00113087 -0.000896688 0.000411181)
(-0.00115374 -0.000912339 0.000402236)
(-0.00117628 -0.000930623 0.000391)
(-0.00119945 -0.000950935 0.000378172)
(-0.00122388 -0.000972902 0.000364164)
(-0.00124988 -0.000996282 0.000349148)
(-0.00127751 -0.00102092 0.000333109)
(-0.00130668 -0.00104668 0.000315903)
(-0.00133719 -0.00107337 0.000297282)
(-0.00136875 -0.00110078 0.000276924)
(-0.00140103 -0.0011286 0.000254424)
(-0.0014336 -0.00115643 0.000229229)
(-0.00146598 -0.00118371 0.00020064)
(-0.00149728 -0.0012096 0.000167497)
(-0.00152613 -0.00123287 0.0001283)
(-0.00154961 -0.00125182 8.11031e-05)
(-0.00156299 -0.00126302 2.74585e-05)
(-0.00033266 -0.00033751 -0.000149134)
(-0.000402388 -0.000437739 -5.08539e-05)
(-0.000446833 -0.000530308 -1.6568e-05)
(-0.000502415 -0.000621146 3.12549e-05)
(-0.000568454 -0.000702702 8.94071e-05)
(-0.00064186 -0.000769188 0.000149706)
(-0.000718944 -0.00081712 0.000207043)
(-0.000795734 -0.000847384 0.000258454)
(-0.000869565 -0.000863794 0.000302555)
(-0.000938793 -0.000871455 0.000339458)
(-0.00100149 -0.000873992 0.000369292)
(-0.00105512 -0.000872573 0.000391155)
(-0.00109804 -0.0008688 0.000403949)
(-0.00113162 -0.000869519 0.000408756)
(-0.00116065 -0.000876269 0.000407671)
(-0.00118652 -0.000887845 0.000402204)
(-0.00121076 -0.000903117 0.000393471)
(-0.00123467 -0.00092115 0.000382467)
(-0.00125923 -0.000941263 0.000369906)
(-0.00128504 -0.000963025 0.000356213)
(-0.00131244 -0.00098618 0.000341568)
(-0.00134149 -0.00101055 0.000325957)
(-0.00137206 -0.00103598 0.000309228)
(-0.00140397 -0.0010623 0.000291131)
(-0.00143689 -0.00108926 0.000271331)
(-0.00147048 -0.0011166 0.000249414)
(-0.00150433 -0.0011439 0.000224823)
(-0.00153794 -0.00117064 0.000196869)
(-0.0015704 -0.00119599 0.000164403)
(-0.0016003 -0.00121877 0.000125943)
(-0.00162468 -0.00123733 7.96124e-05)
(-0.00163854 -0.00124828 2.69525e-05)
(-0.00035001 -0.000313663 -0.000124192)
(-0.000422185 -0.000410137 -5.40685e-05)
(-0.000468438 -0.000499566 -2.34742e-05)
(-0.000524918 -0.000588502 2.06179e-05)
(-0.000591845 -0.000669807 7.56509e-05)
(-0.000666631 -0.000737641 0.000133725)
(-0.00074577 -0.000788392 0.000189826)
(-0.000825437 -0.000822719 0.000241072)
(-0.000902826 -0.000843843 0.000286104)
(-0.000975779 -0.000855653 0.000324604)
(-0.00104197 -0.000860774 0.000355953)
(-0.00109894 -0.00086072 0.000378909)
(-0.00114554 -0.000857827 0.000392951)
(-0.00118154 -0.000856922 0.000398421)
(-0.0012121 -0.000862615 0.000397742)
(-0.00123947 -0.000873418 0.000392575)
(-0.00126514 -0.000888154 0.000384132)
(-0.00129044 -0.000905789 0.000373423)
(-0.00131637 -0.000925572 0.000361189)
(-0.00134355 -0.000947001 0.000347871)
(-0.0013723 -0.000969786 0.000333652)
(-0.00140268 -0.00099373 0.000318521)
(-0.00143457 -0.00101868 0.000302318)
(-0.00146774 -0.00104444 0.000284783)
(-0.00150188 -0.0010708 0.000265574)
(-0.00153666 -0.00109748 0.000244269)
(-0.00157163 -0.00112409 0.000220306)
(-0.00160633 -0.00115013 0.000193005)
(-0.0016398 -0.00117478 0.000161232)
(-0.00167064 -0.00119692 0.000123522)
(-0.00169581 -0.00121498 7.80811e-05)
(-0.0017101 -0.00122561 2.64341e-05)
(-0.000364779 -0.000287466 -9.84084e-05)
(-0.000438927 -0.000379624 -5.6917e-05)
(-0.000486425 -0.000465346 -3.01351e-05)
(-0.000543204 -0.00055181 1.00649e-05)
(-0.000610587 -0.000632403 6.16959e-05)
(-0.00068659 -0.000701394 0.00011723)
(-0.000767835 -0.00075499 0.000171875)
(-0.0008505 -0.000793361 0.000222858)
(-0.000931459 -0.000818878 0.000268705)
(-0.00100806 -0.000834355 0.000308603)
(-0.00107776 -0.000841835 0.000341354)
(-0.00113825 -0.000843176 0.000365485)
(-0.00118839 -0.000841224 0.000380589)
(-0.0012281 -0.000839691 0.000387147)
(-0.00126039 -0.000843804 0.000387022)
(-0.00128936 -0.000853586 0.000382255)
(-0.00131654 -0.000867606 0.000374195)
(-0.00134328 -0.000884686 0.00036387)
(-0.00137057 -0.000903974 0.000352036)
(-0.00139909 -0.00092492 0.000339162)
(-0.00142914 -0.000947185 0.000325433)
(-0.00146078 -0.000970555 0.000310836)
(-0.00149386 -0.000994862 0.000295207)
(-0.00152817 -0.00101992 0.000278279)
(-0.00156339 -0.00104551 0.000259696)
(-0.00159916 -0.00107136 0.000239029)
(-0.00163507 -0.0010971 0.000215708)
(-0.00167066 -0.00112226 0.000189072)
(-0.00170497 -0.00114606 0.000158001)
(-0.00173658 -0.00116742 0.000121048)
(-0.00176247 -0.00118487 7.6516e-05)
(-0.0017771 -0.00119513 2.59063e-05)
(-0.000375683 -0.000259108 -7.27114e-05)
(-0.000451387 -0.000346518 -5.92409e-05)
(-0.000499603 -0.000428025 -3.63721e-05)
(-0.000556094 -0.000511491 -2.58681e-07)
(-0.000623477 -0.000590923 4.76251e-05)
(-0.000700463 -0.000660836 0.00010024)
(-0.000783818 -0.000717219 0.000153144)
(-0.00086956 -0.000759531 0.000203671)
(-0.000954153 -0.000789138 0.000250153)
(-0.00103449 -0.000807919 0.000291252)
(-0.00110787 -0.000817618 0.000325304)
(-0.00117211 -0.000820401 0.000350681)
(-0.00122603 -0.000819391 0.00036688)
(-0.00126982 -0.000818083 0.000374665)
(-0.00130486 -0.000820399 0.00037538)
(-0.00133561 -0.000828992 0.000371211)
(-0.00136441 -0.000842019 0.000363635)
(-0.00139263 -0.000858327 0.000353788)
(-0.00142133 -0.00087696 0.000342452)
(-0.00145115 -0.000897277 0.000330098)
(-0.00148243 -0.000918877 0.000316927)
(-0.00151521 -0.000941527 0.000302927)
(-0.00154936 -0.000965056 0.000287924)
(-0.00158463 -0.000989273 0.000271641)
(-0.00162072 -0.00101396 0.000253719)
(-0.00165729 -0.00103886 0.000233715)
(-0.00169394 -0.00106362 0.000211052)
(-0.00173025 -0.00108779 0.000185092)
(-0.00176521 -0.00111062 0.000154728)
(-0.00179748 -0.00113109 0.000118535)
(-0.00182393 -0.00114783 7.49246e-05)
(-0.00183883 -0.00115765 2.53718e-05)
(-0.000382996 -0.00022979 -4.81252e-05)
(-0.000459663 -0.000312003 -6.10414e-05)
(-0.000507967 -0.000388837 -4.20974e-05)
(-0.000563491 -0.00046878 -1.02157e-05)
(-0.000630265 -0.000546525 3.36141e-05)
(-0.000707834 -0.000616957 8.29281e-05)
(-0.000793067 -0.000675812 0.000133736)
(-0.000881735 -0.000721696 0.000183504)
(-0.000969877 -0.000754956 0.000230323)
(-0.00105403 -0.000776729 0.000272379)
(-0.0011313 -0.000788566 0.000307639)
(-0.00119951 -0.000792809 0.000334316)
(-0.00125747 -0.00079275 0.000351765)
(-0.00130529 -0.000791908 0.000360738)
(-0.0013445 -0.000793517 0.000362733)
(-0.00137731 -0.000800005 0.000359318)
(-0.00140788 -0.000811874 0.000352393)
(-0.00143772 -0.000827248 0.000343158)
(-0.00146783 -0.000845047 0.000332421)
(-0.00149892 -0.000864569 0.000320681)
(-0.00153136 -0.000885379 0.00030815)
(-0.00156518 -0.000907189 0.000294814)
(-0.00160023 -0.000929812 0.000280494)
(-0.00163629 -0.000953054 0.000264905)
(-0.00167304 -0.000976696 0.000247674)
(-0.00171015 -0.00100049 0.000228352)
(-0.00174725 -0.00102413 0.000206353)
(-0.001784 -0.00104717 0.00018107)
(-0.00181939 -0.00106889 0.000151415)
(-0.00185208 -0.0010884 0.000115979)
(-0.001879 -0.00110436 7.33076e-05)
(-0.00189405 -0.00111378 2.48318e-05)
(-0.000385262 -0.00019939 -2.51222e-05)
(-0.000462366 -0.000276079 -6.21935e-05)
(-0.000510184 -0.00034782 -4.71474e-05)
(-0.000564055 -0.000423716 -1.96418e-05)
(-0.000629528 -0.000499186 1.97909e-05)
(-0.000707135 -0.000569614 6.53527e-05)
(-0.00079394 -0.000630557 0.000113617)
(-0.000885455 -0.000679711 0.000162229)
(-0.000977263 -0.000716397 0.000209044)
(-0.00106547 -0.000741024 0.00025181)
(-0.00114692 -0.000754957 0.000288157)
(-0.00121939 -0.000760712 0.000316168)
(-0.00128163 -0.000761643 0.000335049)
(-0.0013337 -0.000761298 0.000345383)
(-0.00137693 -0.00076275 0.000348651)
(-0.00141356 -0.000767977 0.000346486)
(-0.00144615 -0.000777945 0.000340418)
(-0.00147768 -0.000791843 0.000331921)
(-0.00150924 -0.000808599 0.00032193)
(-0.0015416 -0.000827185 0.000310915)
(-0.00157508 -0.000847048 0.00029911)
(-0.00160979 -0.000867889 0.000286517)
(-0.00164551 -0.000889608 0.00027295)
(-0.00168209 -0.000911914 0.000258107)
(-0.00171922 -0.000934595 0.000241609)
(-0.0017566 -0.000957395 0.000222999)
(-0.00179391 -0.000980009 0.000201678)
(-0.00183085 -0.00100201 0.000177076)
(-0.0018664 -0.00102268 0.00014812)
(-0.0018993 -0.00104115 0.000113423)
(-0.00192648 -0.00105626 7.16861e-05)
(-0.00194143 -0.00106517 2.42926e-05)
(-0.000383158 -0.000169111 -4.29636e-06)
(-0.000460026 -0.000239973 -6.27731e-05)
(-0.000506719 -0.000306346 -5.15023e-05)
(-0.00055818 -0.000377718 -2.83867e-05)
(-0.000621528 -0.000450274 6.41004e-06)
(-0.000698458 -0.000520053 4.78006e-05)
(-0.000786326 -0.00058251 9.30227e-05)
(-0.00088034 -0.000634426 0.000139971)
(-0.000975604 -0.0006741 0.000186315)
(-0.00106787 -0.000701331 0.00022945)
(-0.00115376 -0.00071732 0.000266734)
(-0.00123079 -0.000724583 0.000296073)
(-0.00129764 -0.000726537 0.000316529)
(-0.00135415 -0.000726677 0.000328443)
(-0.0014015 -0.000728015 0.000333151)
(-0.00144182 -0.00073252 0.00033231)
(-0.00147763 -0.000741071 0.000327457)
(-0.00151164 -0.00075361 0.000320087)
(-0.00154476 -0.000768998 0.000311026)
(-0.0015783 -0.000786426 0.00030086)
(-0.00161275 -0.000805275 0.000289895)
(-0.00164817 -0.00082514 0.000278138)
(-0.00168413 -0.000845763 0.00026535)
(-0.00172069 -0.000866938 0.000251251)
(-0.00175755 -0.000888436 0.000235467)
(-0.00179448 -0.000910018 0.000217537)
(-0.00183124 -0.000931379 0.000196855)
(-0.00186771 -0.000952127 0.000172909)
(-0.00190289 -0.000971593 0.000144649)
(-0.00193564 -0.000988889 0.000110704)
(-0.00196295 -0.00100309 6.9959e-05)
(-0.00197769 -0.0010114 2.37196e-05)
(-0.000374867 -0.000138964 1.39453e-05)
(-0.000450975 -0.000203468 -6.27611e-05)
(-0.00049586 -0.000264398 -5.49726e-05)
(-0.000544203 -0.000330699 -3.62272e-05)
(-0.000604483 -0.000399606 -6.29834e-06)
(-0.000679792 -0.000467907 3.04389e-05)
(-0.000768031 -0.000531186 7.19865e-05)
(-0.000864275 -0.000585462 0.000116633)
(-0.00096317 -0.000628054 0.000161992)
(-0.00105992 -0.000657994 0.000205163)
(-0.00115065 -0.000676115 0.000243214)
(-0.00123267 -0.00068493 0.000273867)
(-0.00130441 -0.000687856 0.000295974)
(-0.00136568 -0.00068846 0.000309676)
(-0.00141741 -0.000689699 0.000316083)
(-0.00146156 -0.000693565 0.000316775)
(-0.00150063 -0.000701074 0.000313344)
(-0.00153706 -0.000712354 0.000307257)
(-0.001572 -0.000726355 0.000299333)
(-0.00160678 -0.000742503 0.000290208)
(-0.00164193 -0.000760138 0.000280197)
(-0.00167763 -0.000778814 0.00026933)
(-0.00171352 -0.000798101 0.000257366)
(-0.00174971 -0.000817905 0.000244052)
(-0.00178599 -0.000838 0.000229021)
(-0.00182214 -0.000858147 0.000211796)
(-0.00185806 -0.000878074 0.000191772)
(-0.0018938 -0.000897429 0.000168504)
(-0.00192825 -0.000915514 0.000140959)
(-0.00196069 -0.000931611 0.000107802)
(-0.00198786 -0.000944794 6.8109e-05)
(-0.0020023 -0.000952464 2.31083e-05)
(-0.000359961 -0.000109595 2.92513e-05)
(-0.000437192 -0.000168369 -6.21153e-05)
(-0.000478922 -0.000223533 -5.7727e-05)
(-0.000523235 -0.00028435 -4.30522e-05)
(-0.000579416 -0.000348929 -1.80276e-05)
(-0.000652055 -0.000414898 1.36922e-05)
(-0.000739862 -0.000478237 5.09453e-05)
(-0.000837781 -0.000534298 9.25776e-05)
(-0.000939856 -0.00057935 0.000136278)
(-0.00104082 -0.000611716 0.000178957)
(-0.00113653 -0.000631934 0.000217494)
(-0.00122384 -0.000642285 0.00024937)
(-0.00130099 -0.000646214 0.00027322)
(-0.00136741 -0.000647226 0.000288891)
(-0.00142381 -0.000648301 0.000297253)
(-0.00147202 -0.000651495 0.000299748)
(-0.00151441 -0.000657947 0.000297959)
(-0.00155336 -0.000667918 0.000293334)
(-0.0015901 -0.000680508 0.000286725)
(-0.001626 -0.000695242 0.000278797)
(-0.00166175 -0.000711497 0.00026988)
(-0.00169753 -0.000728772 0.000260002)
(-0.00173318 -0.000746633 0.00024896)
(-0.00176878 -0.000764965 0.000236513)
(-0.00180409 -0.000783527 0.000222282)
(-0.00183906 -0.000802115 0.000205794)
(-0.00187366 -0.000820464 0.000186435)
(-0.00190816 -0.000838253 0.000163855)
(-0.00194162 -0.000854914 0.000137057)
(-0.00197331 -0.000869687 0.000104707)
(-0.00200027 -0.000881838 6.61359e-05)
(-0.00201425 -0.000888814 2.24588e-05)
(-0.000336947 -8.10899e-05 4.14961e-05)
(-0.000415825 -0.000134635 -6.05582e-05)
(-0.000454056 -0.000183612 -5.94128e-05)
(-0.000493354 -0.000238542 -4.8536e-05)
(-0.000544248 -0.000297981 -2.8391e-05)
(-0.000612833 -0.000360515 -2.06844e-06)
(-0.000698943 -0.000422861 3.01389e-05)
(-0.000797808 -0.00048008 6.78593e-05)
(-0.000903169 -0.00052759 0.000109128)
(-0.00100901 -0.000562754 0.000150803)
(-0.00111026 -0.000585329 0.000189511)
(-0.00120348 -0.00059742 0.000222516)
(-0.00128637 -0.000602282 0.00024812)
(-0.00135826 -0.000603566 0.000265896)
(-0.00141972 -0.000604361 0.00027646)
(-0.00147234 -0.000606813 0.000281059)
(-0.00151838 -0.000612169 0.000281209)
(-0.00155997 -0.000620743 0.000278292)
(-0.00159855 -0.000631823 0.000273212)
(-0.00163558 -0.000645045 0.000266668)
(-0.00167173 -0.000659768 0.000258983)
(-0.00170736 -0.000675512 0.000250216)
(-0.00174232 -0.000691779 0.00024017)
(-0.00177682 -0.000708487 0.000228641)
(-0.00181077 -0.000725439 0.000215263)
(-0.00184409 -0.000742392 0.000199541)
(-0.00187701 -0.000759141 0.00018087)
(-0.00191008 -0.00077539 0.000159008)
(-0.001942 -0.000790517 0.000132962)
(-0.00197283 -0.000804012 0.000101447)
(-0.00199926 -0.00081503 6.4048e-05)
(-0.00201266 -0.000821309 2.17759e-05)
(-0.000308305 -5.51716e-05 5.0719e-05)
(-0.000388177 -0.000103344 -5.833e-05)
(-0.000423169 -0.000146375 -6.01737e-05)
(-0.000456853 -0.00019531 -5.26485e-05)
(-0.000501282 -0.000248981 -3.71033e-05)
(-0.000564362 -0.000307057 -1.62867e-05)
(-0.000647548 -0.000367417 1.02778e-05)
(-0.000746522 -0.000425097 4.3193e-05)
(-0.000854286 -0.000474504 8.1093e-05)
(-0.000964131 -0.000512 0.000120948)
(-0.00107087 -0.000536931 0.000159313)
(-0.0011701 -0.000550758 0.000193161)
(-0.00125936 -0.000556691 0.000220524)
(-0.00133739 -0.000558277 0.000240583)
(-0.00140437 -0.000558672 0.000253597)
(-0.00146172 -0.000560215 0.000260599)
(-0.00151154 -0.000564284 0.000262974)
(-0.00155595 -0.000571328 0.000262061)
(-0.00159644 -0.000580785 0.000258769)
(-0.00163444 -0.000592349 0.000253803)
(-0.00167087 -0.000605445 0.000247524)
(-0.00170607 -0.000619557 0.000239995)
(-0.00174016 -0.000634229 0.000231064)
(-0.00177333 -0.000649332 0.000220539)
(-0.00180539 -0.000664618 0.000208053)
(-0.00183655 -0.00067992 0.000193115)
(-0.00186715 -0.000694992 0.000175111)
(-0.00189802 -0.000709568 0.000153945)
(-0.00192821 -0.00072325 0.000128682)
(-0.00195759 -0.000735348 9.79961e-05)
(-0.00198353 -0.000745304 6.18398e-05)
(-0.00199616 -0.000750861 2.10581e-05)
(-0.00027213 -3.22226e-05 5.63982e-05)
(-0.000351537 -7.443e-05 -5.50177e-05)
(-0.000383535 -0.000111621 -5.95841e-05)
(-0.000411383 -0.000154388 -5.4967e-05)
(-0.000448411 -0.000201644 -4.36343e-05)
(-0.000504355 -0.000254069 -2.83086e-05)
(-0.000582534 -0.000310917 -7.99445e-06)
(-0.000679845 -0.000367862 1.90419e-05)
(-0.000789722 -0.000419006 5.24522e-05)
(-0.000904628 -0.000459542 8.96516e-05)
(-0.00101737 -0.000487233 0.000127063)
(-0.00112345 -0.000503251 0.000161468)
(-0.00121945 -0.000510341 0.000190467)
(-0.00130388 -0.000512132 0.000212857)
(-0.00137678 -0.000512007 0.000228548)
(-0.00143929 -0.000512491 0.000238274)
(-0.00149331 -0.000515156 0.000243238)
(-0.00154074 -0.000520518 0.000244656)
(-0.00158316 -0.000528212 0.000243435)
(-0.00162217 -0.000538042 0.000240295)
(-0.00165861 -0.000549408 0.000235592)
(-0.00169309 -0.000561835 0.000229436)
(-0.0017257 -0.000574818 0.000221675)
(-0.00175686 -0.000588238 0.00021219)
(-0.0017866 -0.000601912 0.000200646)
(-0.00181506 -0.000615603 0.000186506)
(-0.00184301 -0.000629126 0.000169173)
(-0.00187167 -0.000642231 0.000148735)
(-0.00189933 -0.000654375 0.000124229)
(-0.0019273 -0.000665237 9.43879e-05)
(-0.00195226 -0.000674021 5.95158e-05)
(-0.00196405 -0.000678908 2.03093e-05)
(-0.000231761 -1.34495e-05 5.8867e-05)
(-0.000309034 -4.93314e-05 -5.10079e-05)
(-0.000338658 -8.1094e-05 -5.80772e-05)
(-0.000360893 -0.000117905 -5.58437e-05)
(-0.000389578 -0.000158386 -4.79912e-05)
(-0.000436398 -0.000204044 -3.76166e-05)
(-0.00050784 -0.000256141 -2.36907e-05)
(-0.000602508 -0.000311517 -3.4139e-06)
(-0.000712882 -0.000363495 2.426e-05)
(-0.000830468 -0.000406051 5.75416e-05)
(-0.000948997 -0.000436656 9.31311e-05)
(-0.00106179 -0.000454992 0.000127489)
(-0.00116513 -0.000463584 0.000157907)
(-0.00125682 -0.000465859 0.000182699)
(-0.0013363 -0.000465267 0.000201297)
(-0.00140439 -0.000464587 0.00021406)
(-0.00146275 -0.000465626 0.000221939)
(-0.00151335 -0.00046914 0.000226032)
(-0.00155778 -0.000474971 0.000227197)
(-0.00159757 -0.000482934 0.000226118)
(-0.00163386 -0.000492542 0.000223189)
(-0.00166725 -0.000503261 0.000218535)
(-0.00169823 -0.000514678 0.000212068)
(-0.00172719 -0.000526564 0.00020371)
(-0.00175396 -0.000538684 0.00019313)
(-0.00177912 -0.000550873 0.000179783)
(-0.00180359 -0.000562856 0.000163064)
(-0.00182893 -0.00057437 0.000143293)
(-0.0018541 -0.000585228 0.000119584)
(-0.00187986 -0.000594758 9.0562e-05)
(-0.00190408 -0.000602512 5.70573e-05)
(-0.00191474 -0.000606721 1.95218e-05)
(-0.000184865 8.51909e-07 5.74001e-05)
(-0.000257538 -2.818e-05 -4.56103e-05)
(-0.000285019 -5.43919e-05 -5.48673e-05)
(-0.000302508 -8.52856e-05 -5.45963e-05)
(-0.000323583 -0.000118962 -4.94777e-05)
(-0.000360973 -0.000157231 -4.34368e-05)
(-0.00042245 -0.000202544 -3.58895e-05)
(-0.000509666 -0.000253684 -2.3107e-05)
(-0.000618888 -0.000305688 -2.41908e-06)
(-0.000741464 -0.000351632 2.56464e-05)
(-0.00086573 -0.000385527 5.82248e-05)
(-0.000985988 -0.000406923 9.18408e-05)
(-0.00109697 -0.000417375 0.000123259)
(-0.00119604 -0.000420279 0.000150302)
(-0.0012823 -0.000419248 0.000171892)
(-0.0013563 -0.000417371 0.00018796)
(-0.00141951 -0.000416761 0.000199137)
(-0.00147349 -0.000418333 0.000206272)
(-0.00151989 -0.00042219 0.000210133)
(-0.00156045 -0.000428277 0.000211394)
(-0.00159623 -0.000436094 0.000210418)
(-0.00162822 -0.000445162 0.000207399)
(-0.00165672 -0.000454981 0.00020225)
(-0.0016826 -0.000465332 0.000195022)
(-0.00170592 -0.000476066 0.000185452)
(-0.00172715 -0.000486911 0.000172888)
(-0.00174785 -0.000497604 0.00015677)
(-0.00177024 -0.000507909 0.000137715)
(-0.00179179 -0.000517402 0.000114747)
(-0.00181555 -0.00052586 8.6559e-05)
(-0.0018384 -0.000532462 5.44609e-05)
(-0.00184798 -0.000536111 1.86995e-05)
(-0.000136831 1.01654e-05 5.34732e-05)
(-0.000203006 -1.21324e-05 -3.96491e-05)
(-0.00022922 -3.30352e-05 -5.10737e-05)
(-0.000242779 -5.84217e-05 -5.26565e-05)
(-0.000254708 -8.52537e-05 -4.95174e-05)
(-0.000278327 -0.000115084 -4.57993e-05)
(-0.000328869 -0.000152819 -4.25586e-05)
(-0.000411514 -0.000199629 -3.75377e-05)
(-0.000517722 -0.000250067 -2.58991e-05)
(-0.000637491 -0.00029603 -4.93962e-06)
(-0.00076685 -0.000333541 2.33607e-05)
(-0.000894025 -0.000358324 5.50848e-05)
(-0.00101325 -0.000371442 8.68659e-05)
(-0.00112049 -0.000375622 0.000115899)
(-0.00121431 -0.000374599 0.000140524)
(-0.00129474 -0.000371721 0.000160119)
(-0.00136277 -0.000369404 0.000174864)
(-0.00142015 -0.000368995 0.00018537)
(-0.00146855 -0.00037087 0.000192257)
(-0.00150953 -0.000375042 0.000196091)
(-0.00154457 -0.00038114 0.000197261)
(-0.00157462 -0.000388623 0.000195983)
(-0.00160058 -0.000397083 0.000192263)
(-0.00162332 -0.000406174 0.000186253)
(-0.00164244 -0.000415675 0.000177697)
(-0.00165908 -0.000425379 0.000165888)
(-0.00167509 -0.000434876 0.000150272)
(-0.00169296 -0.000443814 0.000131826)
(-0.00171119 -0.000452314 0.000109665)
(-0.001732 -0.000459633 8.22741e-05)
(-0.00175393 -0.000465293 5.16915e-05)
(-0.00176199 -0.000468345 1.78266e-05)
(-8.41397e-05 1.50066e-05 4.57903e-05)
(-0.000139711 -2.51816e-07 -3.168e-05)
(-0.000164109 -1.54882e-05 -4.40661e-05)
(-0.000175901 -3.50809e-05 -4.63867e-05)
(-0.000185164 -5.51047e-05 -4.32847e-05)
(-0.000204356 -7.61734e-05 -4.25253e-05)
(-0.00023834 -0.000103569 -4.68835e-05)
(-0.00029666 -0.000141434 -4.90063e-05)
(-0.000391678 -0.000189324 -4.33803e-05)
(-0.000520606 -0.000239704 -3.04292e-05)
(-0.000654444 -0.000280459 -9.5602e-06)
(-0.000789021 -0.000309962 1.87319e-05)
(-0.000915965 -0.000326353 4.98099e-05)
(-0.00103133 -0.000332478 8.02392e-05)
(-0.00113262 -0.000331882 0.000107644)
(-0.0012194 -0.000328256 0.000130786)
(-0.00129269 -0.000324506 0.00014936)
(-0.00135363 -0.000322252 0.000163545)
(-0.00140379 -0.000322191 0.000173725)
(-0.00144509 -0.000324572 0.000180389)
(-0.00147885 -0.000329034 0.000183846)
(-0.00150663 -0.000335105 0.000184413)
(-0.001529 -0.000342256 0.000182086)
(-0.00154746 -0.000350116 0.000177245)
(-0.00156189 -0.000358632 0.00016974)
(-0.00157321 -0.000367423 0.000158639)
(-0.00158427 -0.000376008 0.000143483)
(-0.00159851 -0.000384069 0.000125731)
(-0.00161213 -0.000391513 0.000104318)
(-0.00163032 -0.000397995 7.77447e-05)
(-0.00165066 -0.0004026 4.87358e-05)
(-0.00165747 -0.000405222 1.69062e-05)
(-4.26143e-05 1.48012e-05 3.96124e-05)
(-8.61752e-05 5.96043e-06 -2.27552e-05)
(-0.000110912 -4.17932e-06 -3.60971e-05)
(-0.000124863 -1.96534e-05 -4.13266e-05)
(-0.000126901 -3.42012e-05 -4.21893e-05)
(-0.000125343 -4.85985e-05 -3.86156e-05)
(-0.000153959 -6.89221e-05 -3.69518e-05)
(-0.000213447 -9.38581e-05 -4.25991e-05)
(-0.000299604 -0.000130409 -5.5182e-05)
(-0.000395369 -0.000177754 -5.73288e-05)
(-0.00052901 -0.000226183 -4.00621e-05)
(-0.000668531 -0.00025994 -1.57379e-05)
(-0.00080412 -0.000281173 1.33413e-05)
(-0.000927836 -0.000290296 4.41845e-05)
(-0.00103696 -0.000291071 7.38747e-05)
(-0.00113063 -0.000287431 0.000100449)
(-0.00120883 -0.00028257 0.000122885)
(-0.00127298 -0.000278705 0.000140911)
(-0.0013248 -0.000276957 0.000154618)
(-0.00136583 -0.000277687 0.000164264)
(-0.00139801 -0.00028074 0.000170135)
(-0.00142279 -0.00028555 0.000172574)
(-0.0014416 -0.000291735 0.000171704)
(-0.00145602 -0.00029872 0.000168111)
(-0.00146497 -0.000306444 0.000161647)
(-0.00147046 -0.000314601 0.000151202)
(-0.00147577 -0.000322399 0.000136373)
(-0.00148452 -0.000329348 0.000119177)
(-0.00149389 -0.000336065 9.86026e-05)
(-0.00150862 -0.00034171 7.28327e-05)
(-0.00152782 -0.000345437 4.55365e-05)
(-0.00153282 -0.000347566 1.59112e-05)
(-1.00899e-05 1.12168e-05 2.95001e-05)
(-2.79477e-05 6.90067e-06 -1.44697e-05)
(-4.02697e-05 1.05862e-06 -3.16257e-05)
(-4.20892e-05 -1.18088e-05 -3.49017e-05)
(-4.45868e-05 -2.09198e-05 -2.98634e-05)
(-4.10629e-05 -2.18039e-05 -2.73732e-05)
(-6.8546e-05 -5.16205e-05 -3.68271e-05)
(-7.36594e-05 -4.36557e-05 -2.40845e-05)
(-0.000153278 -8.7955e-05 -4.30696e-05)
(-0.000275246 -0.000127369 -5.28689e-05)
(-0.000395839 -0.000166488 -5.9532e-05)
(-0.000539737 -0.000209106 -4.55847e-05)
(-0.000680527 -0.000235419 -2.05362e-05)
(-0.000812171 -0.000248947 9.30076e-06)
(-0.000929146 -0.000252242 4.03456e-05)
(-0.00102901 -0.000249313 6.98288e-05)
(-0.00111227 -0.000244092 9.60125e-05)
(-0.00117966 -0.000239169 0.000117946)
(-0.0012325 -0.000236055 0.000135255)
(-0.00127298 -0.000235489 0.000148003)
(-0.00130279 -0.000237365 0.000156291)
(-0.00132431 -0.000241222 0.000160622)
(-0.00133829 -0.000246524 0.000161057)
(-0.00134726 -0.000252622 0.000158573)
(-0.00135045 -0.000259818 0.000153189)
(-0.00134915 -0.000267496 0.000143285)
(-0.0013485 -0.000274663 0.000128702)
(-0.00135319 -0.000280948 0.000112204)
(-0.00135747 -0.000286894 9.24719e-05)
(-0.0013689 -0.000291942 6.75461e-05)
(-0.00138676 -0.00029478 4.20765e-05)
(-0.00139032 -0.000296554 1.4844e-05)
(1.35777e-05 9.60426e-06 1.97967e-05)
(6.19079e-06 2.81492e-06 -1.29158e-05)
(-1.15776e-06 -2.09795e-06 -1.97323e-05)
(-5.92698e-06 -7.20363e-06 -2.28761e-05)
(-1.31821e-05 -1.02609e-05 -2.36964e-05)
(-1.93349e-05 -1.15652e-05 -2.63766e-05)
(-2.8022e-05 -2.24284e-05 -3.5683e-05)
(-4.52072e-05 -3.85484e-05 -4.38484e-05)
(-3.67342e-05 -3.55176e-05 -1.95518e-05)
(-0.000128058 -7.32843e-05 -2.66684e-05)
(-0.000270809 -0.000110664 -5.72367e-05)
(-0.000400281 -0.000152156 -6.54249e-05)
(-0.000547849 -0.000188682 -4.88849e-05)
(-0.000686414 -0.000207677 -2.25283e-05)
(-0.000809597 -0.000214545 8.35867e-06)
(-0.000915766 -0.000213655 3.9951e-05)
(-0.00100322 -0.000208899 6.93928e-05)
(-0.0010728 -0.000203549 9.49767e-05)
(-0.00112633 -0.000199687 0.000115827)
(-0.00116539 -0.000198227 0.000131596)
(-0.00119249 -0.000199353 0.000142252)
(-0.00120975 -0.000202451 0.00014832)
(-0.00121922 -0.000207241 0.000150029)
(-0.00122372 -0.000212816 0.000148733)
(-0.00122015 -0.000219539 0.000144367)
(-0.00121221 -0.000227031 0.000134958)
(-0.00120528 -0.000233627 0.000120469)
(-0.0012041 -0.00023882 0.000104533)
(-0.00120313 -0.000243965 8.57523e-05)
(-0.00121121 -0.000248586 6.17467e-05)
(-0.00122749 -0.000250553 3.82657e-05)
(-0.00122923 -0.000251855 1.36655e-05)
(2.69406e-05 3.70307e-06 2.35208e-05)
(3.22786e-05 1.37996e-06 -1.5723e-07)
(2.66398e-05 2.57874e-06 8.00276e-07)
(1.51102e-05 5.64404e-06 -6.95498e-06)
(8.52607e-06 1.46796e-07 -1.83479e-05)
(2.25474e-06 -7.04234e-06 -1.27715e-05)
(-1.10724e-05 -1.09362e-06 -1.66538e-05)
(-2.21778e-05 -8.11509e-06 -2.40159e-05)
(-3.82507e-05 -1.04497e-05 -2.80146e-05)
(-3.71666e-05 -2.028e-05 -2.58844e-05)
(-0.000113514 -5.6707e-05 -4.32823e-05)
(-0.000270183 -0.000101148 -6.76744e-05)
(-0.000405284 -0.000137528 -6.92885e-05)
(-0.000549452 -0.000165523 -4.86909e-05)
(-0.000681657 -0.000177734 -1.99345e-05)
(-0.00079303 -0.000179902 1.22137e-05)
(-0.000884233 -0.000176849 4.40778e-05)
(-0.000955877 -0.000172099 7.28591e-05)
(-0.00100892 -0.000168136 9.69047e-05)
(-0.00104598 -0.000166372 0.000115491)
(-0.00106915 -0.000167073 0.000128219)
(-0.00108225 -0.000169834 0.000135878)
(-0.00108571 -0.000174112 0.000138492)
(-0.00108375 -0.000178876 0.000138059)
(-0.00107413 -0.000185329 0.000134832)
(-0.00105817 -0.000192521 0.000125662)
(-0.00104497 -0.000198367 0.000111167)
(-0.00103998 -0.000202654 9.60506e-05)
(-0.00103484 -0.000207122 7.84207e-05)
(-0.00103849 -0.000211159 5.53835e-05)
(-0.00105462 -0.000212624 3.41251e-05)
(-0.00105483 -0.000213472 1.23803e-05)
(4.08549e-05 7.42953e-06 3.40693e-05)
(5.3687e-05 2.18092e-06 -8.24637e-06)
(5.59267e-05 -3.07201e-06 -1.32516e-05)
(5.2241e-05 -1.16807e-05 -1.6979e-05)
(4.73728e-05 -1.86846e-05 -1.88256e-05)
(3.9125e-05 -2.23923e-05 -1.75225e-05)