/*--------------------------------*- C++ -*----------------------------------*\
  =========                 |
  \\      /  F ield         | OpenFOAM: The Open Source CFD Toolbox
   \\    /   O peration     | Website:  https://openfoam.org
    \\  /    A nd           | Version:  6
     \\/     M anipulation  |
\*---------------------------------------------------------------------------*/
FoamFile
{
    version     2.0;
    format      ascii;
    class       volScalarField;
    location    "4";
    object      yPlus;
}
// * * * * * * * * * * * * * * * * * * * * * * * * * * * * * * * * * * * * * //

dimensions      [0 0 0 0 0 0 0];

internalField   uniform 0;

boundaryField
{
    inlet
    {
        type            calculated;
        value           uniform 0;
    }
    outlet
    {
        type            calculated;
        value           uniform 0;
    }
    roughCylinder
    {
        type            calculated;
        value           nonuniform List<scalar> 
5120
(
44.7621
52.6298
58.9163
65.0656
70.3428
74.6014
77.9999
80.7364
82.9702
84.8442
86.4837
87.9507
89.286
90.5207
91.685
92.8086
93.9215
95.0517
96.222
97.4481
98.738
100.093
101.51
102.98
104.495
106.041
107.606
109.169
110.695
112.117
113.296
113.991
44.1148
51.6999
57.789
63.7982
69
73.2204
76.5974
79.3231
81.5556
83.4357
85.0803
86.5465
87.8688
89.0859
90.2289
91.3284
92.4157
93.5188
94.6604
95.8566
97.1155
98.4381
99.8207
101.255
102.732
104.24
105.765
107.287
108.773
110.159
111.307
111.984
43.3844
50.7287
56.6368
62.5104
67.639
71.8256
75.188
77.9121
80.1536
82.0482
83.7028
85.1701
86.4817
87.6837
88.8071
89.8843
90.9465
92.0229
93.1367
94.3037
95.5315
96.8217
98.1699
99.5687
101.008
102.478
103.962
105.445
106.891
108.24
109.357
110.015
42.6553
49.7685
55.4941
61.2261
66.2786
70.4325
73.7848
76.5143
78.7736
80.6897
82.3572
83.8261
85.1313
86.32
87.4258
88.4815
89.5207
90.5721
91.659
92.7974
93.9954
95.254
96.5687
97.9328
99.3359
100.766
102.212
103.654
105.061
106.372
107.46
108.098
41.8668
48.7685
54.3156
59.9074
64.8883
69.0195
72.3745
75.1224
77.4092
79.3518
81.036
82.5117
83.8169
84.9954
86.0859
87.1233
88.1405
89.168
90.2296
91.341
92.51
93.7377
95.0198
96.3487
97.7152
99.1084
100.515
101.918
103.286
104.562
105.62
106.24
41.1074
47.7953
53.1556
58.5985
63.5047
67.6157
70.9779
73.7477
76.0648
78.0367
79.7407
81.2258
82.5341
83.7068
84.7855
85.8058
86.8039
87.81
88.8475
89.9329
91.0743
92.2725
93.5231
94.8191
96.1502
97.5055
98.873
100.237
101.567
102.806
103.836
104.437
40.2843
46.772
51.9449
57.2369
62.0718
66.1738
69.5589
72.3659
74.7245
76.7317
78.4599
79.9612
81.2787
82.4534
83.5238
84.5319
85.5128
86.4985
87.5141
88.5755
89.69
90.8593
92.0786
93.3409
94.6362
95.9553
97.2857
98.6115
99.9044
101.11
102.11
102.694
39.5046
45.7845
50.7581
55.8868
60.6453
64.741
68.1535
70.9983
73.3963
75.4398
77.1972
78.7186
80.0496
81.2298
82.2983
83.2963
84.2635
85.2327
86.2279
87.266
88.3559
89.4977
90.6876
91.9181
93.1794
94.4612
95.7527
97.0398
98.2954
99.4646
100.438
101.003
38.6399
44.722
49.4917
54.4492
59.1292
63.2276
66.685
69.5892
72.048
74.1425
75.937
77.487
78.8376
80.0312
81.1053
82.1002
83.0579
84.0121
84.9897
86.0075
87.0728
88.1877
89.3469
90.5438
91.7701
93.0161
94.2709
95.5207
96.7393
97.8765
98.8204
99.3687
37.8217
43.6962
48.2479
53.0174
57.6093
61.7127
65.2229
68.1885
70.7011
72.8423
74.6793
76.2634
77.6425
78.8541
79.9376
80.9351
81.8869
82.8319
83.7942
84.7919
85.8354
86.9246
88.0559
89.2218
90.4135
91.6213
92.8362
94.0459
95.2273
96.3278
97.2465
97.7759
36.8768
42.5499
46.8758
51.4406
55.9316
60.0415
63.6213
66.6786
69.2856
71.5096
73.4076
75.0394
76.4508
77.6879
78.7896
79.796
80.7505
81.6896
82.64
83.6219
84.6431
85.7068
86.8061
87.9367
89.092
90.2616
91.4384
92.6113
93.7532
94.8226
95.712
96.2239
35.9577
41.4278
45.5176
49.857
54.2289
58.3452
62.0106
65.1716
67.8631
70.1527
72.1134
73.7967
75.2574
76.5313
77.6563
78.6766
79.6349
80.5726
81.5143
82.4799
83.482
84.5204
85.5933
86.6936
87.8116
88.9418
90.0749
91.2031
92.3088
93.3395
94.2057
94.6981
34.8321
40.1113
43.9491
48.0347
52.2591
56.3691
60.1298
63.4308
66.277
68.7108
70.7744
72.5399
74.053
75.3664
76.5248
77.5684
78.5421
79.4828
80.4187
81.3739
82.3556
83.3698
84.4085
85.4705
86.5514
87.6406
88.7354
89.8285
90.8899
91.8914
92.7264
93.201
33.7177
38.8075
42.3845
46.1864
50.2236
54.3099
58.1917
61.6723
64.6669
67.2035
69.3729
71.2182
72.8099
74.1885
75.3916
76.4652
77.454
78.4027
79.3377
80.2801
81.246
82.2352
83.2496
84.2818
85.3216
86.3681
87.4132
88.4535
89.4813
90.4391
91.2541
91.7081
32.2676
37.1768
40.4671
43.9419
47.7488
51.7849
55.7751
59.4572
62.717
65.5249
67.8686
69.8563
71.5391
72.9806
74.2361
75.3512
76.3724
77.3361
78.2728
79.2112
80.1587
81.1248
82.1007
83.0891
84.09
85.0914
86.0962
87.1058
88.0788
89.0106
89.7901
90.2272
30.7795
35.5287
38.5396
41.6397
45.1083
48.9972
53.1277
57.1417
60.6823
63.6562
66.2117
68.3487
70.1632
71.7138
73.0495
74.2195
75.2714
76.2553
77.2013
78.1314
79.0663
80.0067
80.9599
81.9189
82.8722
83.825
84.7715
85.7132
86.6565
87.5366
88.3017
88.7137
28.6543
33.259
35.9565
38.6418
41.7713
45.5433
49.714
53.9098
57.9079
61.4832
64.3555
66.7463
68.7263
70.3903
71.8094
73.0454
74.1535
75.1692
76.1262
77.0597
77.978
78.8959
79.8035
80.7095
81.6186
82.5186
83.4196
84.3365
85.2113
86.0678
86.7909
87.188
26.3677
30.922
33.3661
35.5397
37.9325
41.0581
45.3893
50.4257
55.0278
58.7702
62.1141
64.8269
67.0679
68.9213
70.4817
71.8168
72.9795
74.0318
75.012
75.9425
76.8513
77.7403
78.6256
79.5013
80.3539
81.1961
82.0269
82.8541
83.6989
84.4947
85.2073
85.572
22.4758
27.0552
29.2013
30.9207
33.0469
36.3344
40.1689
44.4913
49.8535
55.3972
59.4246
62.6884
65.2505
67.3367
69.0538
70.4964
71.7525
72.8629
73.866
74.8086
75.7009
76.5671
77.3954
78.2024
79.0001
79.7732
80.5461
81.3522
82.1138
82.8819
83.5501
83.9029
18.2798
23.436
25.6453
26.8108
27.1745
27.6705
32.0322
39.6631
46.0819
50.6271
55.8794
59.832
63.0046
65.4619
67.4292
69.0548
70.4091
71.5801
72.6267
73.5728
74.4592
75.2881
76.0913
76.8664
77.5901
78.2932
78.9789
79.6672
80.3831
81.0855
81.7384
82.0493
5.44866
12.6217
14.4562
14.1783
13.7145
5.95831
20.8523
17.2348
30.8866
44.1666
50.6846
56.368
60.2649
63.2657
65.6012
67.4339
68.9499
70.2259
71.313
72.2814
73.1462
73.9512
74.6765
75.3517
76.0057
76.6025
77.2024
77.864
78.4891
79.1421
79.7659
80.0603
7.41723
9.26408
12.9379
14.0275
13.7744
6.98835
15.4866
20.213
6.92758
29.4283
44.4701
51.0346
56.718
60.58
63.3711
65.554
67.2615
68.6413
69.8052
70.7863
71.6501
72.3972
73.0906
73.7373
74.2706
74.7805
75.2627
75.767
76.2879
76.8873
77.4625
77.7109
13.3259
17.9943
19.153
19.2083
17.3216
14.3198
14.5674
15.0039
18.3695
13.3382
27.155
44.6761
51.4598
56.8209
60.6526
63.3194
65.3349
66.9152
68.1501
69.1665
69.9908
70.7121
71.2809
71.7515
72.2048
72.5178
72.8584
73.3134
73.7706
74.2367
74.8545
75.0653
20.8585
25.4983
27.685
28.9178
29.1451
28.0253
25.3739
22.9741
17.4668
2.54221
13.4664
25.1193
44.9076
52.3584
57.0903
60.5109
62.9432
64.7138
66.0895
67.133
67.9655
68.5757
69.1031
69.5775
69.7768
69.9742
70.1189
70.3419
70.4913
71.0048
71.4625
71.6217
23.7791
28.8789
31.7822
34.0635
35.6452
36.4283
36.2264
34.6966
31.742
25.2184
12.3135
20.1772
28.4993
44.4318
52.3675
56.9887
60.059
62.2467
63.7508
64.8424
65.5778
66.1614
66.4432
66.5353
66.6557
66.4074
66.3013
66.4474
66.7473
66.7685
67.5267
67.6404
25.0726
30.2547
33.3549
35.9438
37.9725
39.4161
40.253
40.4201
39.6906
37.291
30.2113
22.8815
28.0536
32.9067
45.392
52.1017
56.1928
58.7273
60.4936
61.6323
62.3986
62.7202
62.9548
63.1989
62.7198
62.2887
61.7499
61.4543
60.6385
61.2915
61.5143
61.4608
25.0109
30.3277
33.589
36.3859
38.6608
40.393
41.5892
42.2715
42.433
41.8585
39.5295
33.1898
25.374
16.7427
35.2291
45.9592
51.3147
54.8157
56.8066
57.9703
58.421
58.731
58.363
57.6188
56.9915
55.2278
54.2302
54.1417
55.1285
53.2946
54.659
55.2188
23.9961
29.4632
32.815
35.712
38.1013
39.9661
41.3291
42.2506
42.8114
43.042
42.6612
40.1597
35.5898
14.6039
26.4064
36.0076
44.3987
48.244
50.6562
51.8639
52.5117
51.9434
51.6115
51.7773
50.1771
47.8497
45.4456
44.5407
40.3008
40.984
42.5018
41.0239
22.5824
28.15
31.5151
34.4198
36.8225
38.7111
40.1066
41.083
41.7638
42.2936
42.6615
42.23
39.0386
28.6975
30.8793
23.3432
34.9256
41.9343
44.884
45.8198
44.8806
44.8185
43.0565
40.4128
34.3911
24.5596
21.4199
26.2057
29.8788
41.259
24.9542
31.0087
21.1867
26.715
29.9754
32.7745
35.0857
36.903
38.2412
39.172
39.8305
40.4171
41.0437
41.2883
39.7065
33.1888
31.1825
18.6529
22.9682
25.9911
29.2283
29.3761
31.9286
24.6989
21.4563
24.0923
32.8167
11.581
34.6316
31.0734
38.1853
44.5028
30.4667
39.3127
20.1511
25.5462
28.634
31.2572
33.4055
35.0735
36.266
37.0432
37.5511
38.0413
38.7141
39.2698
38.4889
34.5062
28.6487
29.4294
31.4573
25.6011
15.1421
23.3981
37.0745
14.825
20.8855
26.5734
35.6369
24.1636
32.1738
40.1117
42.892
42.8271
37.3258
41.9272
19.5346
24.7965
27.7224
30.1745
32.1547
33.6592
34.6834
35.2673
35.5585
35.8595
36.4914
37.3231
37.3179
34.7333
28.758
26.8176
30.5619
35.5261
25.9272
25.5739
34.2856
18.7869
35.9828
36.9033
34.5212
39.9081
40.2611
36.8685
36.4864
40.6502
37.7164
37.504
19.2254
24.3991
27.2093
29.5331
31.384
32.7616
33.6576
34.0944
34.2065
34.3118
34.8329
35.8903
36.8302
36.3073
33.3493
30.0637
29.9455
28.7218
25.1466
29.264
35.6255
33.4551
37.3475
38.1532
42.4083
47.6299
45.9074
43.8589
42.697
46.09
43.6334
43.9162
19.1094
24.2345
26.9715
29.2115
30.9782
32.2779
33.1052
33.4734
33.4937
33.4621
33.8324
34.9107
36.4506
37.6351
37.5027
35.8127
34.2944
35.257
36.3033
38.6071
39.4601
43.4174
43.5298
43.8016
47.212
49.623
48.0309
47.2649
46.3661
47.5624
46.2838
46.6251
19.0862
24.1934
26.889
29.079
30.7968
32.0572
32.8623
33.2249
33.2329
33.146
33.399
34.3641
35.9878
37.7824
39.1692
39.8482
40.2712
41.629
42.5926
43.6929
44.1299
46.5448
46.806
47.0351
48.9587
50.377
49.1801
48.861
48.0143
47.9423
47.3772
47.4308
19.0651
24.1733
26.8469
29.0085
30.7006
31.9463
32.7566
33.1482
33.1896
33.0973
33.274
34.1406
35.7681
37.7755
39.6735
41.1896
42.4682
43.8964
44.926
45.7272
46.3287
48.0074
48.4181
48.54
49.4997
50.3459
49.55
49.2749
48.3852
47.6677
47.2489
47.0161
18.9668
24.0846
26.7443
28.8876
30.565
31.8082
32.6351
33.0669
33.1609
33.0837
33.1842
33.9009
35.4325
37.5135
39.6754
41.5956
43.2257
44.6876
45.7843
46.593
47.2556
48.4253
48.8461
48.904
49.3547
49.899
49.4576
49.1641
48.266
47.258
46.5924
46.1281
18.7128
23.8408
26.4861
28.6125
30.2785
31.522
32.3667
32.8363
32.9799
32.9242
32.9572
33.5046
34.8528
36.8458
39.0554
41.1346
42.932
44.4405
45.5998
46.4701
47.1878
48.0987
48.5576
48.7022
49.0359
49.5167
49.4087
49.1481
48.2935
47.1462
46.08
45.389
18.2231
23.3549
25.9792
28.0842
29.7357
30.9766
31.8339
32.3309
32.509
32.4687
32.4425
32.8357
33.9951
35.8427
37.9839
40.0757
41.9341
43.4991
44.7503
45.7441
46.5919
47.4894
48.1172
48.5199
49.0107
49.6076
49.8097
49.6498
48.8636
47.6284
46.1549
45.2215
17.4424
22.5674
25.1606
27.2349
28.8635
30.0928
30.9509
31.459
31.651
31.6093
31.5369
31.8234
32.8523
34.5869
36.6549
38.7311
40.6352
42.294
43.6985
44.9002
45.986
47.0673
47.9959
48.7729
49.5722
50.3923
50.8737
50.8503
50.1356
48.8252
47.0025
45.8165
15.963
13.8306
11.683
9.6573
7.85272
8.86614
8.79737
8.63179
11.6545
14.0203
15.7668
17.0912
18.1096
18.9328
19.6115
20.1765
20.6375
20.9912
21.2148
21.275
21.2734
21.2273
21.0151
20.6699
20.2162
19.6585
18.9872
18.1732
17.1666
15.8609
14.1403
11.7901
8.72144
8.78831
8.84615
7.83327
9.64609
11.6907
13.86
16.0126
21.0157
18.6944
16.2728
13.8038
11.5046
10.7242
10.6596
12.5522
15.9288
18.3834
20.2188
21.6389
22.7557
23.6704
24.4343
25.0795
25.6185
26.0445
26.3236
26.4157
26.4159
26.3391
26.0728
25.6559
25.1243
24.4867
23.7305
22.8253
21.7205
20.3189
18.5068
16.0864
12.7201
10.6772
10.6766
11.4798
13.7911
16.2819
18.7268
21.0688
23.5344
21.0658
18.4623
15.7542
13.1487
11.5519
11.676
14.8224
18.2359
20.7236
22.6287
24.13
25.3353
26.3371
27.1862
27.9152
28.5398
29.049
29.3989
29.543
29.5457
29.4179
29.0816
28.5818
27.9647
27.243
26.4016
25.4094
24.2161
22.7326
20.8494
18.3968
15.0289
11.7365
11.5108
13.124
15.7399
18.4721
21.1003
23.5905
25.5344
22.9286
20.1636
17.2522
14.4343
12.4047
13.6037
17.0452
20.3749
22.8416
24.7873
26.3462
27.6199
28.6893
29.6058
30.4061
31.1047
31.6868
32.0999
32.2925
32.2974
32.1216
31.7227
31.1503
30.4589
29.6654
28.7566
27.6967
26.4349
24.8928
22.9678
20.532
17.2527
13.7681
12.451
14.4036
17.2353
20.1732
22.9644
25.5926
27.1
24.3775
21.4741
18.3851
15.4174
13.7849
15.5804
19.1861
22.3293
24.745
26.701
28.2916
29.6092
30.7234
31.6859
32.5406
33.2977
33.937
34.3997
34.6294
34.6358
34.4236
33.9754
33.346
32.5959
31.7473
30.7923
29.6875
28.3815
26.8063
24.8698
22.4796
19.3793
15.7706
13.8361
15.3864
18.3645
21.4822
24.4134
27.1591
28.2827
25.4641
22.4398
19.1914
16.1579
15.1051
17.5997
21.1433
24.066
26.4233
28.3696
29.9758
31.3211
32.4656
33.4619
34.359
35.1616
35.8437
36.3419
36.5961
36.6033
36.367
35.8837
35.2117
34.4158
33.5245
32.5347
31.3991
30.0653
28.4733
26.5449
24.2087
21.3188
17.7916
15.1923
16.1337
19.1664
22.445
25.4987
28.3412
29.111
26.2118
23.0788
19.7005
16.7717
16.5455
19.5388
22.8548
25.584
27.8886
29.8182
31.4338
32.7981
33.9659
34.9908
35.9206
36.7568
37.4677
37.9872
38.2543
38.2619
38.0128
37.5083
36.8078
35.9781
35.0538
34.0348
32.8756
31.522
29.9194
28.0057
25.7191
23.0127
19.7224
16.6673
16.7646
19.6725
23.0798
26.2437
29.1675
29.6031
26.6322
23.4049
19.9721
17.4324
18.1476
21.3056
24.3299
26.9235
29.1817
31.0955
32.7174
34.0957
35.2809
36.3282
37.2811
38.1382
38.8635
39.3904
39.6599
39.6674
39.4156
38.9037
38.1889
37.3384
36.3908
35.3491
34.172
32.8037
31.1935
29.2935
27.0506
24.4719
21.4715
18.2898
17.4534
19.946
23.4017
26.6605
29.6564
29.7856
26.7482
23.466
20.1513
18.3503
19.8618
22.8777
25.644
28.1481
30.3592
32.2563
33.8779
35.2629
36.4578
37.5185
38.4832
39.3478
40.0731
40.5942
40.857
40.8641
40.6184
40.1119
39.397
38.5393
37.5797
36.5242
35.337
33.9613
32.3501
30.4645
28.266
25.7718
23.0203
20.003
18.4028
20.1366
23.4614
26.7733
29.8357
29.732
26.6447
23.417
20.5198
19.6838
21.6036
24.3176
26.8993
29.3224
31.4775
33.3482
34.9575
36.3384
37.5323
38.5953
39.5594
40.4176
41.1293
41.633
41.8815
41.8879
41.6554
41.1658
40.4643
39.6131
38.6539
37.5957
36.409
35.0363
33.436
31.5745
29.4289
27.0126
24.4361
21.7249
19.7555
20.5259
23.4178
26.6694
29.7802
29.6428
26.5672
23.6052
21.4284
21.4156
23.3291
25.7409
28.1794
30.5003
32.5837
34.4103
35.9911
37.3536
38.5339
39.5867
40.5372
41.3756
42.0612
42.5374
42.7657
42.7711
42.5575
42.0945
41.419
40.5873
39.6416
38.5931
37.4192
36.0635
34.49
32.6703
30.593
28.2757
25.8361
23.4211
21.4825
21.452
23.6171
26.596
29.6914
29.9206
26.9663
24.458
23.0047
23.3813
25.0798
27.25
29.5351
31.7266
33.7172
35.4773
37.0106
38.3385
39.4911
40.5204
41.4442
42.2502
42.8988
43.3396
43.5428
43.5471
43.3569
42.9285
42.2893
41.4896
40.5703
39.5448
38.3974
37.075
35.5467
33.7909
31.8031
29.6115
27.3214
25.1415
23.4252
23.026
24.4737
26.9961
29.9662
30.9554
28.1693
26.0663
25.0352
25.4642
26.9335
28.8929
30.997
33.0366
34.9107
36.582
38.0485
39.3242
40.4344
41.4266
42.3113
43.074
43.6767
44.0758
44.2509
44.2542
44.0902
43.7023
43.1081
42.3514
41.4707
40.4813
39.3748
38.1028
36.6393
34.9696
33.0953
31.0521
28.9397
26.9668
25.4797
25.036
26.0665
28.1832
30.9816
32.6963
30.0195
28.1375
27.275
27.647
28.9234
30.6751
32.5825
34.4539
36.1914
37.7541
39.1348
40.3415
41.3966
42.3392
43.1737
43.8838
44.4341
44.7875
44.9334
44.9356
44.799
44.4552
43.9125
43.2077
42.3765
41.436
40.3826
39.1778
37.798
36.2345
34.4941
32.6162
30.6981
28.9308
27.6358
27.2493
28.1085
29.9987
32.6809
34.7804
32.1594
30.3906
29.606
29.9173
31.0309
32.5841
34.2947
35.9905
37.5786
39.0183
40.2984
41.4223
42.4111
43.2931
44.0684
44.7191
45.2131
45.5195
45.6365
45.6376
45.5281
45.2297
44.7422
44.0961
43.3234
42.4426
41.4542
40.3304
39.0494
37.6068
36.0135
34.3095
32.5865
31.0168
29.8838
29.5552
30.329
32.0942
34.7078
36.9121
34.3506
32.6796
31.9651
32.2391
33.2219
34.5993
36.1257
37.6487
39.0845
40.394
41.5635
42.594
43.5074
44.3205
45.0301
45.6172
46.0538
46.3149
46.4055
46.4057
46.3208
46.0662
45.635
45.0515
44.3438
43.5311
42.6173
41.5856
40.4137
39.0999
37.6578
36.1253
34.5862
33.1922
32.1893
31.8945
32.5887
34.2406
36.7782
38.9219
36.4669
34.9261
34.3059
34.575
35.4629
36.694
38.0565
39.4187
40.7071
41.8861
42.9415
43.8737
44.7063
45.446
46.0867
46.6092
46.9895
47.2087
47.2779
47.2776
47.2123
46.9981
46.622
46.1023
45.4628
44.723
43.8891
42.9548
41.896
40.7118
39.4165
38.0449
36.6701
35.4231
34.5155
34.2225
34.8148
36.323
38.7402
40.7226
38.4447
37.0886
36.5982
36.8965
37.7231
38.8377
40.0599
41.278
42.4295
43.4831
44.4261
45.2651
46.0172
46.6836
47.2557
47.7154
48.043
48.2254
48.2787
48.2781
48.2272
48.0484
47.7238
47.266
46.6946
46.0276
45.2737
44.4318
43.4849
42.4259
41.2676
40.0406
38.8071
37.6782
36.8332
36.5114
36.9718
38.2913
40.5301
42.3055
40.276
39.1594
38.8321
39.1875
39.9808
41.0056
42.1107
43.2037
44.2328
45.1713
46.0104
46.764
47.44
48.0367
48.5436
48.9451
49.2252
49.3766
49.4192
49.4184
49.3771
49.2279
48.9498
48.5495
48.0427
47.4451
46.7672
46.0105
45.1675
44.2236
43.1879
42.0866
40.9717
39.9344
39.1258
38.7508
39.0538
40.1416
42.1433
43.7415
42.0033
41.1585
41.0118
41.4414
42.2213
43.1782
44.1871
45.1735
46.0949
46.9305
47.6807
48.3584
48.9659
49.499
49.9468
50.2962
50.5353
50.6615
50.6971
50.6962
50.6611
50.536
50.2981
49.9492
49.5011
48.9669
48.3573
47.6764
46.9222
46.0814
45.1538
44.1599
43.1424
42.1755
41.3841
40.9414
41.0728
41.9005
43.6204
45.1063
43.6767
43.1104
43.1445
43.6526
44.4304
45.335
46.2653
47.162
47.9911
48.7392
49.4173
50.0307
50.5793
51.0566
51.4531
51.7576
51.9621
52.0682
52.0988
52.0978
52.0671
51.9614
51.7572
51.4527
51.0556
50.5768
50.0261
49.4096
48.7276
47.9745
47.1393
46.2357
45.2977
44.3849
43.599
43.0835
43.0431
43.6028
45.0198
46.4313
45.3169
45.0209
45.225
45.8098
46.5923
47.4572
48.3233
49.144
49.8953
50.5771
51.1977
51.7589
52.258
52.6886
53.0417
53.3088
53.485
53.5749
53.6015
53.6005
53.5734
53.4832
53.3069
53.0393
52.6853
52.2532
51.7517
51.1874
50.5628
49.8762
49.1189
48.2912
47.4179
46.5456
45.7572
45.1699
44.9683
45.2735
46.3985
47.7089
46.9133
46.8734
47.2323
47.8884
48.6801
49.5164
50.3322
51.0924
51.7839
52.4168
52.9934
53.5136
53.973
54.3653
54.683
54.9197
55.073
55.1498
55.1726
55.1716
55.1481
55.0707
54.9169
54.6795
54.3607
53.9668
53.505
52.9817
52.4013
51.7635
51.066
50.2989
49.4755
48.6318
47.8345
47.1766
46.8223
46.8757
47.6893
48.9518
48.4532
48.6408
49.1327
49.8508
50.6528
51.4685
52.2455
52.9607
53.6162
54.2164
54.7626
55.2524
55.6816
56.0443
56.3341
56.5466
56.6815
56.7472
56.7662
56.7653
56.7457
56.6793
56.5439
56.3307
56.0398
55.6757
55.2443
54.7515
54.2016
53.5967
52.9353
52.2126
51.427
50.602
49.7904
49.0639
48.565
48.3742
48.8675
50.0756
49.8557
50.2473
50.8554
51.6305
52.4471
53.2519
54.0046
54.6962
55.332
55.9138
56.4412
56.9114
57.3197
57.6611
57.9304
58.1245
58.2446
58.3006
58.3153
58.3146
58.2998
58.2435
58.1232
57.9289
57.6591
57.3168
56.9069
56.4346
55.904
55.3182
54.6773
53.979
53.218
52.4033
51.5757
50.7898
50.1728
49.7794
50.0074
51.0365
51.0334
51.5877
52.2924
53.1212
53.9598
54.7673
55.513
56.2012
56.8333
57.4106
57.9314
58.3927
58.79
59.1188
59.3749
59.5561
59.6648
59.7118
59.7211
59.7208
59.7122
59.6657
59.5576
59.3771
59.1215
58.7928
58.395
57.9328
57.4104
56.8306
56.1953
55.503
54.7524
53.9393
53.0955
52.2639
51.5624
51.0257
51.0702
51.6674
51.7946
52.4621
53.2484
54.134
55.0088
55.8402
56.6063
57.3129
57.9605
58.5499
59.0789
59.5446
59.9428
60.2696
60.5211
60.696
60.797
60.8358
60.8388
60.8394
60.8389
60.8025
60.704
60.5318
60.283
59.9588
59.5631
59.0999
58.5732
57.9865
57.3417
56.6388
55.878
55.0543
54.1893
53.3158
52.5454
51.8932
51.7825
51.7383
51.9787
52.7409
53.5985
54.5406
55.4594
56.3274
57.1279
57.8658
58.5413
59.1543
59.7029
60.1839
60.5935
60.9276
61.1828
61.3576
61.4545
61.4855
61.4799
61.4815
61.4913
61.4643
61.3718
61.2015
60.951
60.6215
60.2166
59.7403
59.1966
58.5888
57.9192
57.1883
56.3967
55.5411
54.6368
53.7111
52.8722
52.1261
51.8992
51.1273
51.4163
52.2273
53.1332
54.1241
55.0915
56.0069
56.8532
57.634
58.3487
58.9971
59.5768
60.0845
60.5162
60.8679
61.1359
61.3184
61.4172
61.4432
61.4285
61.4313
61.4524
61.4326
61.3402
61.1644
60.9032
60.5583
60.1335
59.6329
59.0605
58.4196
57.7131
56.9414
56.1058
55.2033
54.2493
53.2703
52.3739
51.5617
51.2597
49.8707
50.0976
50.8841
51.7941
52.8112
53.8188
54.7818
55.6756
56.5028
57.2612
57.9502
58.5667
59.1074
59.568
59.9441
60.2319
60.4289
60.5361
60.5633
60.5431
60.5475
60.5764
60.5573
60.4582
60.2695
59.9902
59.6228
59.1711
58.6394
58.0321
57.3527
56.6041
55.7874
54.9045
53.953
52.9546
51.94
51.0205
50.1994
49.903
47.9493
48.1048
48.8454
49.7434
50.7749
51.818
52.8281
53.769
54.6409
55.4418
56.1703
56.8231
57.3967
57.8867
58.2885
58.598
58.8124
58.9322
58.9659
58.9455
58.9492
58.9764
58.9487
58.8347
58.6258
58.3215
57.9244
57.4384
56.8679
56.2169
55.4888
54.6865
53.8106
52.8625
51.8412
50.7818
49.7287
48.8019
48.0294
47.8413
46.4269
46.4476
47.1006
47.9562
48.9764
50.0316
51.068
52.0421
52.9448
53.7746
54.5296
55.207
55.8028
56.3127
56.7321
57.0566
57.2835
57.4128
57.4524
57.4339
57.4385
57.4641
57.4302
57.3061
57.0842
56.7642
56.3491
55.843
55.2503
54.5754
53.8221
52.9931
52.0905
51.1158
50.0779
49.0204
47.9956
47.1327
46.4688
46.4348
44.7578
52.6246
58.9104
65.0591
70.3359
74.5944
77.9929
80.7293
82.9631
84.8368
86.476
87.9428
89.278
90.5127
91.677
92.8006
93.9135
95.0438
96.2142
97.4403
98.7303
100.086
101.503
102.973
104.488
106.036
107.602
109.165
110.692
112.114
113.29
113.987
44.1079
51.6929
57.7817
63.7908
68.9924
73.2126
76.5893
79.3148
81.5471
83.4273
85.0722
86.5386
87.8609
89.078
90.2209
91.3204
92.4077
93.5108
94.6525
95.8488
97.1078
98.4305
99.8134
101.249
102.726
104.235
105.761
107.284
108.771
110.156
111.301
111.978
43.3798
50.7232
56.6305
62.5033
67.6316
71.8179
75.1804
77.9046
80.1462
82.0406
83.6948
85.1617
86.4732
87.6751
88.7986
89.8758
90.9381
92.0146
93.1286
94.2955
95.5235
96.8139
98.1622
99.5616
101.002
102.472
103.958
105.441
106.889
108.237
109.351
110.01
42.647
49.7601
55.4855
61.2174
66.2699
70.4238
73.7759
76.5049
78.7638
80.6799
82.3479
83.8173
85.1227
86.3115
87.4172
88.4729
89.5122
90.5636
91.6505
92.7891
93.9873
95.2459
96.5611
97.9253
99.3289
100.761
102.208
103.65
105.059
106.369
107.453
108.093
41.8616
48.7623
54.3082
59.8992
64.8793
69.0102
72.3653
75.1137
77.4013
79.344
81.0276
82.5027
83.8077
84.9861
86.0767
87.1142
88.1316
89.1591
90.2209
91.3323
92.5014
93.7294
95.0119
96.3412
97.7083
99.1025
100.511
101.915
103.285
104.559
105.613
106.235
41.0976
47.7854
53.1455
58.5887
63.4952
67.6066
70.9689
73.7379
76.0538
78.0252
79.7297
81.2159
82.5246
83.6975
84.7762
85.7966
86.7948
87.8009
88.8385
89.9241
91.0656
92.2638
93.5148
94.8109
96.1429
97.4997
98.869
100.234
101.565
102.804
103.828
104.432
40.2777
46.7642
51.9357
57.2265
62.0603
66.1614
69.5463
72.3542
74.7148
76.7235
78.4514
79.9515
81.2686
82.4433
83.5139
84.5221
85.5031
86.489
87.5048
88.5661
89.681
90.8505
92.0701
93.3327
94.6291
95.9491
97.2818
98.6085
99.9032
101.107
102.103
102.688
39.4934
45.7727
50.7462
55.8753
60.6348
64.7318
68.1453
70.9895
73.3852
75.4263
77.1838
78.7071
80.039
81.2194
82.2881
83.2863
84.2537
85.223
86.2183
87.2568
88.3465
89.4884
90.6783
91.909
93.1714
94.455
95.7488
97.0368
98.2945
99.4633
100.43
100.998
38.6301
44.7111
49.4794
54.4353
59.1137
63.2105
66.6668
69.5717
72.034
74.1329
75.9285
77.4765
78.8263
80.0202
81.0946
82.0897
83.0474
84.0019
84.9797
85.9973
87.0631
88.1781
89.3378
90.5353
91.7617
93.0086
94.267
95.5178
96.7393
97.8736
98.813
99.3626
37.8089
43.6823
48.2338
53.0038
57.5973
61.7034
65.2162
68.1825
70.692
72.8272
74.6625
76.2496
77.6305
78.8424
79.926
80.9239
81.8763
82.8213
83.7837
84.7822
85.8251
86.9145
88.0454
89.2115
90.4051
91.6153
92.8327
94.0442
95.2277
96.3282
97.2371
97.7698
36.8617
42.5338
46.8581
51.421
55.9098
60.017
63.5942
66.6509
69.2626
71.4963
73.3989
75.0279
76.4378
77.6756
78.778
79.7846
80.7391
81.6786
82.6293
83.6106
84.6327
85.6962
86.7963
87.9276
89.0823
90.253
91.4346
92.6075
93.7549
94.8201
95.7034
96.217
35.9416
41.4105
45.4996
49.8395
54.2142
58.3354
62.007
65.1721
67.8604
70.1386
72.0928
73.7801
75.2439
76.5177
77.6428
78.6638
79.6229
80.5608
81.5025
82.4695
83.4703
84.5092
85.581
86.6809
87.802
88.9354
90.0728
91.2035
92.3121
93.3419
94.1943
94.6916
34.8103
40.0883
43.9242
48.0071
52.2274
56.3316
60.0861
63.3836
66.2348
68.6859
70.7624
72.5259
74.0369
75.3523
76.5119
77.5559
78.5296
79.4708
80.4074
81.361
82.3446
83.3578
84.398
85.4608
86.54
87.6303
88.7316
89.8227
90.894
91.8889
92.7163
93.193
33.693
38.7807
42.3561
46.159
50.2024
54.3007
58.196
61.6865
64.6803
67.1989
69.3521
71.1997
72.7951
74.1722
75.3758
76.4504
77.4402
78.3891
79.3239
80.2688
81.2324
82.2227
83.2345
84.2654
85.3106
86.3613
87.4137
88.459
89.4888
90.4453
91.2406
91.7016
32.2379
37.1476
40.4367
43.9062
47.7006
51.7183
55.6943
59.3712
62.6374
65.4713
67.842
69.8339
71.5171
72.9645
74.2213
75.3369
76.3585
77.3232
78.261
79.1963
80.1469
81.1108
82.0891
83.0786
84.0753
85.0779
86.0928
87.0957
88.0867
89.009
89.7774
90.2171
30.732
35.4753
38.4817
41.5853
45.0756
49.0023
53.1593
57.1823
60.7203
63.6745
66.2016
68.3341
70.1479
71.6922
73.0301
74.2022
75.2553
76.239
77.1843
78.119
79.0497
79.9922
80.9413
81.8974
82.859
83.8172
84.775
85.7263
86.6716
87.5469
88.2844
88.7072
28.616
33.228
35.9282
38.5992
41.6817
45.3869
49.5367
53.7515
57.7789
61.3789
64.2916
66.6996
68.6945
70.375
71.7933
73.0285
74.1376
75.1554
76.1146
77.0422
77.9657
78.8792
79.7899
80.6965
81.5984
82.5012
83.418
84.3216
85.2249
86.0708
86.7747
87.1756
26.2413
30.7864
33.2243
35.4231
37.9015
41.1373
45.4849
50.4885
55.0517
58.8066
62.1284
64.8304
67.0488
68.8835
70.4545
71.7961
72.9604
74.0118
74.99
75.9288
76.8303
77.7229
78.6026
79.4736
80.3383
81.186
82.0338
82.8755
83.7254
84.5066
85.1837
85.5628
22.4275
27.0324
29.1901
30.8584
32.8906
36.2222
40.089
44.3597
49.7381
55.2351
59.2871
62.5797
65.2093
67.3381
69.0411
70.4767
71.7336
72.8475
73.855
74.7872
75.6885
76.5469
77.378
78.1835
78.9684
79.7502
80.5504
81.3351
82.1376
82.8981
83.5301
83.8884
17.1031
22.6599
25.0644
26.4859
26.7958
25.4368
29.9137
39.0866
46.0904
50.6501
55.917
59.889
62.9605
65.3697
67.3813
69.0289
70.3863
71.5558
72.598
73.5582
74.4311
75.266
76.0627
76.8296
77.5728
78.279
78.9889
79.6935
80.4293
81.0937
81.7027
82.0303
9.86126
11.7202
14.0248
14.6763
16.2555
15.1005
16.2379
20.6274
27.7276
43.5977
50.3935
56.0805
60.2405
63.3477
65.6099
67.4105
68.926
70.2065
71.3019
72.2535
73.1353
73.9264
74.6529
75.3224
75.951
76.5715
77.2214
77.8551
78.5283
79.1856
79.7399
80.0396
9.99812
6.90915
8.88561
7.433
5.92501
12.0851
14.4784
18.4625
21.452
28.0443
44.215
51.3399
56.5769
60.312
63.2709
65.5216
67.2342
68.6128
69.7682
70.7722
71.61
72.3666
73.053
73.6802
74.2508
74.7587
75.2776
75.7861
76.3799
76.8876
77.404
77.6739
14.0054
18.578
19.8828
19.9199
18.6739
15.8484
8.04752
11.9614
23.3346
24.9518
29.5356
43.789
51.6338
57.2071
60.7276
63.2849
65.3006
66.8853
68.1368
69.126
69.9867
70.6802
71.2478
71.7067
72.1045
72.4791
72.9101
73.3499
73.816
74.3344
74.8129
75.0008
21.4802
26.1519
28.3632
29.5903
29.6844
28.5914
26.3666
22.4179
12.2482
25.0931
10.2005
27.0464
44.5148
51.6074
56.8834
60.4827
62.908
64.6825
66.0421
67.1251
67.8998
68.5287
69.0497
69.4716
69.7424
69.9333
70.1463
70.3019
70.7237
70.9915
71.3647
71.564
23.6938
28.8335
31.7631
34.0688
35.6496
36.3523
35.8864
34.0848
30.0898
22.082
22.2961
14.3374
27.5094
45.3438
52.5274
56.8896
60
62.1873
63.7287
64.7706
65.6011
66.116
66.3892
66.4461
66.4582
66.39
66.4478
66.717
66.7022
67.0325
67.4218
67.3404
24.8429
30.0119
33.0878
35.6506
37.6562
39.0827
39.8995
39.9847
39.0362
36.0105
30.8632
25.4787
27.8439
33.2049
45.2287
52.16
56.1242
58.7003
60.4383
61.6577
62.2646
62.6355
62.8791
63.0027
62.5938
62.1963
61.8003
61.1162
61.361
61.2041
61.3556
61.5251
24.6661
29.9839
33.2292
36.0102
38.2729
39.9984
41.1923
41.8745
42.0181
41.371
38.7527
31.8343
32.104
21.6398
36.0431
45.4866
51.2174
54.6604
56.7431
57.7794
58.5637
58.654
58.2364
57.2799
56.5467
55.543
54.8043
56.0554
54.2201
54.6244
54.2012
53.905
23.7306
29.1862
32.517
35.3934
37.7659
39.62
40.9783
41.8962
42.4409
42.5945
41.937
38.8236
30.0397
25.5648
16.6879
36.2833
43.9598
48.2825
50.7352
52.1424
52.0863
51.804
51.5865
51.8394
48.9695
47.612
45.5016
42.9781
41.6844
40.1261
42.099
43.8481
22.4296
27.9741
31.3159
34.1988
36.5819
38.4533
39.8336
40.7937
41.4503
41.9248
42.1214
41.1657
36.2962
30.6453
24.2886
22.3195
35.6636
41.4419
44.2986
44.8796
45.9092
44.5043
42.1034
37.7673
34.5327
30
26.3235
34.2781
31.3977
40.0041
25.3219
46.3832
21.0976
26.6077
29.8512
32.634
34.93
36.7324
38.0547
38.9646
39.5922
40.1261
40.6519
40.6977
38.7274
32.4506
29.6054
27.198
10.0279
26.1805
31.8019
34.6206
28.3574
25.0782
23.1501
26.1676
7.0414
34.1114
20.2754
40.551
37.7176
42.1982
28.7616
46.4247
20.0854
25.4713
28.551
31.167
33.3087
34.9708
36.1566
36.9235
37.4124
37.8669
38.4825
38.9804
38.1782
34.0667
26.7281
18.5242
17.3514
20.7056
24.0151
38.3288
24.7174
31.5185
17.5989
34.2598
17.6652
37.512
32.0323
42.5497
40.6802
33.2618
39.0239
43.1502
19.4697
24.7278
27.651
30.1019
32.0832
33.5913
34.6211
35.2103
35.5014
35.7907
36.4059
37.2743
37.5162
35.6139
30.4997
25.3238
28.64
30.8197
29.5376
39.4642
28.9183
31.3696
31.4107
38.0661
37.4456
36.1907
39.0661
34.9132
39.8571
41.1132
40.1844
38.7834
19.154
24.3255
27.1345
29.4593
31.3143
32.7
33.6086
34.0606
34.1846
34.2889
34.7971
35.8777
37.0316
37.1922
35.4568
32.0826
29.5474
32.4628
24.667
36.956
29.5431
35.1476
37.0915
39.0207
44.2467
44.577
46.428
43.6502
46.825
47.108
44.9253
45.4704
19.0327
24.1554
26.891
29.1317
30.9026
32.211
33.0523
33.4386
33.4758
33.4508
33.8101
34.8683
36.4309
37.7999
38.1252
36.9156
34.8834
34.0825
35.5178
37.6057
41.5761
43.9199
44.3659
45.3895
47.4089
47.5293
48.9899
48.2773
49.0611
48.9097
46.6833
47.2826
19.0067
24.1109
26.8044
28.9942
30.715
31.9825
32.7995
33.1781
33.2024
33.1255
33.3805
34.3503
35.999
37.8641
39.3959
40.2274
40.5016
40.9806
42.0773
43.4621
45.5805
47.0131
47.3922
48.1234
48.628
48.8607
50.1157
49.9177
49.7377
49.3129
47.3536