/*--------------------------------*- C++ -*----------------------------------*\
  =========                 |
  \\      /  F ield         | OpenFOAM: The Open Source CFD Toolbox
   \\    /   O peration     | Website:  https://openfoam.org
    \\  /    A nd           | Version:  6
     \\/     M anipulation  |
\*---------------------------------------------------------------------------*/
FoamFile
{
    version     2.0;
    format      ascii;
    class       volScalarField;
    location    "0";
    object      p;
}
// * * * * * * * * * * * * * * * * * * * * * * * * * * * * * * * * * * * * * //

dimensions      [0 2 -2 0 0 0 0];

internalField   nonuniform List<scalar> 
2160
(
-6.48042e-09
4.32295e-10
4.67046e-08
-8.12889e-09
9.29553e-10
4.85269e-08
-8.63251e-09
1.57806e-09
4.80164e-08
-1.25666e-08
1.0628e-09
5.10315e-08
-1.18788e-08
2.20941e-09
4.89867e-08
-8.88955e-09
4.10857e-09
4.28162e-08
-1.01761e-08
2.00382e-09
4.70128e-08
-6.43255e-09
5.47593e-09
3.80463e-08
1.00713e-08
8.35357e-09
1.1722e-08
1.44223e-08
9.97372e-09
3.97309e-09
1.39077e-08
9.25902e-09
5.54732e-09
2.65285e-08
8.23714e-09
-1.09062e-08
3.11212e-08
7.96404e-09
-1.6439e-08
3.72157e-08
7.98179e-09
-2.34529e-08
3.11399e-08
7.87391e-09
-1.64981e-08
3.1334e-08
7.54622e-09
-1.6526e-08
3.71568e-08
7.82004e-09
-2.32788e-08
3.14075e-08
7.47997e-09
-1.64775e-08
2.73776e-08
7.1471e-09
-1.12308e-08
1.56435e-08
6.38498e-09
3.9484e-09
1.70067e-08
6.04508e-09
2.53265e-09
1.19582e-08
5.29264e-09
1.01258e-08
-4.17713e-09
1.83034e-09
3.66022e-08
-6.9529e-09
-3.01827e-09
4.59263e-08
-6.55973e-09
3.6575e-10
4.15526e-08
-1.03374e-08
-2.71852e-10
4.83465e-08
-1.10037e-08
-1.47161e-09
5.04922e-08
-7.92113e-09
4.26029e-10
4.76887e-08
-7.51176e-09
-8.47284e-11
4.82369e-08
-5.99445e-09
-4.77184e-10
4.64366e-08
-5.02045e-09
4.3598e-10
4.70014e-08
-7.75704e-09
7.30013e-10
4.89337e-08
-8.04605e-09
1.25298e-09
4.85622e-08
-1.24245e-08
8.12157e-10
5.15828e-08
-1.17964e-08
1.7429e-09
5.008e-08
-8.77437e-09
3.66938e-09
4.41023e-08
-9.91287e-09
1.89294e-09
4.73624e-08
-6.97332e-09
4.82241e-09
4.03216e-08
1.16802e-08
8.66962e-09
9.51305e-09
1.48093e-08
1.01555e-08
3.20592e-09
1.4504e-08
9.41942e-09
4.54497e-09
2.90788e-08
8.12671e-09
-1.46094e-08
3.31767e-08
7.817e-09
-1.92949e-08
3.78989e-08
7.87615e-09
-2.44988e-08
3.29551e-08
7.66736e-09
-1.91352e-08
3.30369e-08
7.38384e-09
-1.91136e-08
3.78038e-08
7.73121e-09
-2.4302e-08
3.33093e-08
7.41009e-09
-1.92714e-08
2.96282e-08
7.1752e-09
-1.48424e-08
1.64386e-08
6.14692e-09
2.97659e-09
1.73932e-08
6.08801e-09
1.76244e-09
1.36845e-08
5.27435e-09
7.94181e-09
-4.53496e-09
7.58083e-10
3.89606e-08
-6.69512e-09
-3.21921e-09
4.62841e-08
-6.25586e-09
-4.79658e-10
4.28831e-08
-1.02499e-08
-8.42436e-10
4.9477e-08
-1.08406e-08
-1.81654e-09
5.10597e-08
-7.3729e-09
1.17555e-10
4.82564e-08
-7.15203e-09
-2.85233e-10
4.86556e-08
-4.57273e-09
-4.82645e-10
4.6755e-08
-4.96045e-09
4.15627e-10
4.69857e-08
-7.33407e-09
7.53229e-10
4.88153e-08
-7.65765e-09
1.27236e-09
4.84394e-08
-1.18712e-08
8.7598e-10
5.13517e-08
-1.12988e-08
1.79495e-09
4.98611e-08
-8.24076e-09
3.73383e-09
4.39838e-08
-9.23639e-09
1.98662e-09
4.72436e-08
-6.45141e-09
4.88519e-09
4.02192e-08
1.18681e-08
8.81232e-09
8.94029e-09
1.50486e-08
1.03664e-08
2.45193e-09
1.46993e-08
9.58074e-09
3.92825e-09
2.89405e-08
8.00865e-09
-1.45401e-08
3.30103e-08
7.65039e-09
-1.92199e-08
3.76971e-08
7.63538e-09
-2.442e-08
3.27937e-08
7.5243e-09
-1.90483e-08
3.28755e-08
7.23442e-09
-1.90236e-08
3.76035e-08
7.47826e-09
-2.42151e-08
3.3143e-08
7.23656e-09
-1.9194e-08
2.94879e-08
7.05581e-09
-1.47796e-08
1.64981e-08
6.30074e-09
2.31874e-09
1.7465e-08
6.29487e-09
9.56824e-10
1.37513e-08
5.40972e-09
7.33147e-09
-4.07604e-09
7.91766e-10
3.8848e-08
-6.10012e-09
-3.16636e-09
4.61572e-08
-5.78473e-09
-4.45733e-10
4.27573e-08
-9.76576e-09
-8.37326e-10
4.92664e-08
-1.03025e-08
-1.80678e-09
5.08386e-08
-6.99204e-09
1.34999e-10
4.81385e-08
-6.73743e-09
-2.64291e-10
4.85425e-08
-4.5067e-09
-5.02781e-10
4.67397e-08
-4.91938e-09
4.06312e-10
4.6815e-08
-7.22058e-09
8.84687e-10
4.82941e-08
-7.52841e-09
1.41017e-09
4.78792e-08
-1.1651e-08
1.14612e-09
5.0516e-08
-1.10768e-08
2.03138e-09
4.90491e-08
-8.05135e-09
3.91138e-09
4.32828e-08
-9.05479e-09
2.21981e-09
4.65009e-08
-6.28803e-09
5.01863e-09
3.96203e-08
1.17701e-08
8.81601e-09
8.95445e-09
1.48929e-08
1.03147e-08
2.62716e-09
1.45546e-08
9.54839e-09
4.07999e-09
2.86057e-08
7.9814e-09
-1.39353e-08
3.26412e-08
7.58853e-09
-1.8501e-08
3.73002e-08
7.47306e-09
-2.35529e-08
3.24149e-08
7.47998e-09
-1.83175e-08
3.24939e-08
7.19636e-09
-1.8301e-08
3.72085e-08
7.3195e-09
-2.33544e-08
3.27696e-08
7.18374e-09
-1.84865e-08
2.91373e-08
7.0493e-09
-1.4198e-08
1.63083e-08
6.32586e-09
2.42145e-09
1.72465e-08
6.33241e-09
1.06474e-09
1.36117e-08
5.46345e-09
7.30158e-09
-3.93556e-09
9.39376e-10
3.82309e-08
-5.94077e-09
-2.92006e-09
4.53983e-08
-5.61528e-09
-2.5723e-10
4.20434e-08
-9.55253e-09
-5.94126e-10
4.84601e-08
-1.0091e-08
-1.52911e-09
5.00102e-08
-6.86231e-09
2.73015e-10
4.7582e-08
-6.62242e-09
-1.33508e-10
4.80241e-08
-4.45206e-09
-5.09994e-10
4.65695e-08
-4.8923e-09
4.50677e-10
4.64966e-08
-7.12586e-09
1.14512e-09
4.75309e-08
-7.4198e-09
1.67436e-09
4.70932e-08
-1.14573e-08
1.62567e-09
4.93542e-08
-1.08803e-08
2.45534e-09
4.79496e-08
-7.89922e-09
4.23921e-09
4.23577e-08
-8.91153e-09
2.63299e-09
4.5483e-08
-6.15914e-09
5.28161e-09
3.88117e-08
1.16267e-08
8.77997e-09
9.04399e-09
1.47044e-08
1.01919e-08
2.91409e-09
1.43711e-08
9.45907e-09
4.31356e-09
2.82084e-08
7.84247e-09
-1.31559e-08
3.22143e-08
7.40397e-09
-1.75522e-08
3.68535e-08
7.16556e-09
-2.23805e-08
3.19799e-08
7.31798e-09
-1.73908e-08
3.20527e-08
7.04667e-09
-1.73829e-08
3.6762e-08
7.01902e-09
-2.21895e-08
3.23335e-08
7.01674e-09
-1.75497e-08
2.87126e-08
6.95022e-09
-1.34417e-08
1.60667e-08
6.3183e-09
2.6135e-09
1.69717e-08
6.33426e-09
1.28551e-09
1.34153e-08
5.49969e-09
7.35457e-09
-3.83958e-09
1.2294e-09
3.74054e-08
-5.8287e-09
-2.4844e-09
4.43647e-08
-5.49106e-09
9.09286e-11
4.11063e-08
-9.36952e-09
-1.55622e-10
4.73671e-08
-9.91085e-09
-1.0337e-09
4.88565e-08
-6.75427e-09
5.38298e-10
4.68002e-08
-6.52701e-09
1.26736e-10
4.72647e-08
-4.41705e-09
-4.64336e-10
4.62529e-08
-4.90718e-09
5.28701e-10
4.61886e-08
-7.15316e-09
1.60889e-09
4.64065e-08
-7.4382e-09
2.12975e-09
4.598e-08
-1.15113e-08
2.52971e-09
4.76592e-08
-1.09158e-08
3.25598e-09
4.63721e-08
-7.95232e-09
4.84292e-09
4.1129e-08
-9.00354e-09
3.39953e-09
4.40786e-08
-6.2118e-09
5.79896e-09
3.77069e-08
1.14523e-08
8.69057e-09
9.22427e-09
1.45073e-08
9.9428e-09
3.33994e-09
1.41767e-08
9.29112e-09
4.65595e-09
2.7858e-08
7.60984e-09
-1.21819e-08
3.18218e-08
7.09488e-09
-1.63654e-08
3.64372e-08
6.66686e-09
-2.09123e-08
3.1587e-08
7.05209e-09
-1.62498e-08
3.1655e-08
6.79083e-09
-1.62466e-08
3.63451e-08
6.52722e-09
-2.07259e-08
3.19337e-08
6.72213e-09
-1.63698e-08
2.83416e-08
6.74917e-09
-1.2481e-08
1.57548e-08
6.30035e-09
2.92621e-09
1.66202e-08
6.29187e-09
1.66266e-09
1.31351e-08
5.54433e-09
7.50942e-09
-3.94007e-09
1.78833e-09
3.6295e-08
-5.9737e-09
-1.67386e-09
4.29547e-08
-5.58885e-09
7.3241e-10
3.98746e-08
-9.43196e-09
6.72778e-10
4.58058e-08
-9.99429e-09
-9.85498e-11
4.71792e-08
-6.7753e-09
9.99817e-10
4.56939e-08
-6.55573e-09
5.94691e-10
4.61473e-08
-4.4236e-09
-3.84142e-10
4.59462e-08
-5.03782e-09
7.31796e-10
4.53206e-08
-7.32267e-09
2.15672e-09
4.50782e-08
-7.62271e-09
2.73042e-09
4.4556e-08
-1.19384e-08
3.79057e-09
4.54608e-08
-1.12933e-08
4.3771e-09
4.42746e-08
-8.28082e-09
5.75524e-09
3.94096e-08
-9.41419e-09
4.53011e-09
4.22372e-08
-6.48636e-09
6.49801e-09
3.62685e-08
1.11935e-08
8.72441e-09
9.21885e-09
1.43291e-08
9.68759e-09
3.75516e-09
1.39475e-08
9.15655e-09
4.95287e-09
2.74474e-08
7.39481e-09
-1.11213e-08
3.13958e-08
6.82867e-09
-1.51339e-08
3.60484e-08
6.16696e-09
-1.93963e-08
3.11375e-08
6.82624e-09
-1.50178e-08
3.11852e-08
6.58994e-09
-1.50177e-08
3.59495e-08
6.03989e-09
-1.92129e-08
3.14795e-08
6.49065e-09
-1.51426e-08
2.78603e-08
6.6137e-09
-1.14285e-08
1.54003e-08
6.30909e-09
3.25412e-09
1.62607e-08
6.2494e-09
2.08009e-09
1.27595e-08
5.70906e-09
7.53823e-09
-4.29519e-09
2.55819e-09
3.48824e-08
-6.45948e-09
-4.80609e-10
4.11368e-08
-5.98865e-09
1.70412e-09
3.81844e-08
-9.84783e-09
1.81671e-09
4.37436e-08
-1.04603e-08
1.18478e-09
4.50172e-08
-6.96849e-09
1.61274e-09
4.42841e-08
-6.72897e-09
1.15063e-09
4.48304e-08
-4.53964e-09
-1.75645e-10
4.508e-08
-5.11136e-09
8.97315e-10
4.47119e-08
-7.64845e-09
2.76787e-09
4.36316e-08
-7.99722e-09
3.394e-09
4.30339e-08
-1.27728e-08
5.49205e-09
4.26541e-08
-1.20552e-08
5.87149e-09
4.16596e-08
-8.91703e-09
6.96141e-09
3.72568e-08
-1.01373e-08
6.0617e-09
3.98352e-08
-7.02965e-09
7.50449e-09
3.4355e-08
1.09096e-08
8.74864e-09
9.14985e-09
1.41474e-08
9.43183e-09
4.06739e-09
1.37237e-08
9.01979e-09
5.14852e-09
2.70453e-08
7.16103e-09
-1.0103e-08
3.09356e-08
6.51749e-09
-1.38762e-08
3.55499e-08
5.65978e-09
-1.7832e-08
3.06789e-08
6.55958e-09
-1.38045e-08
3.07102e-08
6.34075e-09
-1.37997e-08
3.5442e-08
5.54743e-09
-1.76495e-08
3.0996e-08
6.20394e-09
-1.38793e-08
2.74045e-08
6.42834e-09
-1.0395e-08
1.49037e-08
6.40549e-09
3.55112e-09
1.57349e-08
6.3065e-09
2.49104e-09
1.22256e-08
5.94501e-09
7.56982e-09
-4.95558e-09
3.64048e-09
3.30379e-08
-7.31109e-09
1.1394e-09
3.88027e-08
-6.73444e-09
2.97572e-09
3.61007e-08
-1.06461e-08
3.31785e-09
4.11815e-08
-1.13296e-08
2.88958e-09
4.22654e-08
-7.34572e-09
2.28034e-09
4.27806e-08
-7.05451e-09
1.76846e-09
4.33981e-08
-4.60332e-09
-4.66687e-12
4.44712e-08
-5.16524e-09
1.12411e-09
4.39663e-08
-8.00399e-09
3.29296e-09
4.24228e-08
-8.42067e-09
4.02193e-09
4.16631e-08
-1.39231e-08
7.32813e-09
3.9759e-08
-1.31011e-08
7.48244e-09
3.89338e-08
-9.79039e-09
8.34629e-09
3.48092e-08
-1.11185e-08
7.79109e-09
3.71601e-08
-7.7797e-09
8.6285e-09
3.22048e-08
1.05796e-08
8.90432e-09
8.8085e-09
1.39483e-08
9.31191e-09
4.15715e-09
1.34611e-08
8.98989e-09
5.12781e-09
2.65745e-08
7.0158e-09
-9.33839e-09
3.0397e-08
6.33828e-09
-1.28996e-08
3.496e-08
5.36832e-09
-1.6606e-08
3.01236e-08
6.40316e-09
-1.28339e-08
3.01121e-08
6.22011e-09
-1.28118e-08
3.48335e-08
5.2831e-09
-1.64251e-08
3.03964e-08
6.07548e-09
-1.28799e-08
2.67852e-08
6.38903e-09
-9.56623e-09
1.43626e-08
6.57512e-09
3.71464e-09
1.51648e-08
6.47173e-09
2.75413e-09
1.16316e-08
6.28481e-09
7.41247e-09
-5.86193e-09
4.87218e-09
3.10016e-08
-8.44524e-09
2.98131e-09
3.62287e-08
-7.73363e-09
4.4456e-09
3.37553e-08
-1.17195e-08
4.91985e-09
3.85137e-08
-1.24966e-08
4.70673e-09
3.94275e-08
-7.76221e-09
2.91149e-09
4.14256e-08
-7.40249e-09
2.30026e-09
4.22002e-08
-4.64586e-09
2.30205e-10
4.37254e-08
-5.2022e-09
1.37459e-09
4.32568e-08
-8.40416e-09
3.93929e-09
4.10532e-08
-8.91454e-09
4.77231e-09
4.01602e-08
-1.55397e-08
9.84395e-09
3.63132e-08
-1.45947e-08
9.71909e-09
3.57007e-08
-1.12034e-08
1.02444e-08
3.16923e-08
-1.26973e-08
1.01551e-08
3.3655e-08
-9.05336e-09
1.02617e-08
2.93534e-08
1.00508e-08
9.15277e-09
8.35828e-09
1.3541e-08
9.30105e-09
4.10731e-09
1.30195e-08
9.05314e-09
4.98684e-09
2.58538e-08
6.97147e-09
-8.49483e-09
2.95298e-08
6.2684e-09
-1.18191e-08
3.39339e-08
5.22998e-09
-1.52655e-08
2.92844e-08
6.34876e-09
-1.17804e-08
2.92433e-08
6.19487e-09
-1.17464e-08
3.37874e-08
5.17919e-09
-1.50905e-08
2.94868e-08
6.04678e-09
-1.17855e-08
2.59703e-08
6.41399e-09
-8.67919e-09
1.35018e-08
6.94302e-09
3.81238e-09
1.42346e-08
6.86264e-09
2.96163e-09
1.07189e-08
6.81496e-09
7.18967e-09
-7.28008e-09
6.65005e-09
2.82936e-08
-1.01834e-08
5.51914e-09
3.28629e-08
-9.27342e-09
6.47604e-09
3.07728e-08
-1.32166e-08
7.16726e-09
3.53369e-08
-1.41095e-08
7.22486e-09
3.60379e-08
-8.24619e-09
3.67121e-09
3.99346e-08
-7.79221e-09
2.95899e-09
4.08387e-08
-4.67137e-09
4.89922e-10
4.30155e-08
-5.29868e-09
1.82622e-09
4.15573e-08
-8.77021e-09
4.6635e-09
3.95096e-08
-9.45821e-09
5.72228e-09
3.83949e-08
-1.7177e-08
1.2496e-08
3.3004e-08
-1.6127e-08
1.20844e-08
3.25262e-08
-1.29332e-08
1.24755e-08
2.83743e-08
-1.47637e-08
1.30505e-08
2.97542e-08
-1.05612e-08
1.2034e-08
2.64485e-08
9.11742e-09
9.67679e-09
7.59658e-09
1.29116e-08
9.41921e-09
4.02902e-09
1.22865e-08
9.25141e-09
4.75863e-09
2.48315e-08
6.99513e-09
-7.62705e-09
2.84116e-08
6.27813e-09
-1.07017e-08
3.26586e-08
5.23864e-09
-1.39085e-08
2.81539e-08
6.35952e-09
-1.06394e-08
2.8065e-08
6.24824e-09
-1.05769e-08
3.24884e-08
5.22314e-09
-1.3732e-08
2.82981e-08
6.1198e-09
-1.06331e-08
2.47761e-08
6.57048e-09
-7.72185e-09
1.24503e-08
7.40643e-09
3.84303e-09
1.31682e-08
7.34331e-09
3.13136e-09
9.49522e-09
7.59655e-09
6.69039e-09
-8.92005e-09
8.61562e-09
2.55733e-08
-1.23759e-08
8.62404e-09
2.9135e-08
-1.11005e-08
8.87571e-09
2.76199e-08
-1.47501e-08
9.5786e-09
3.22262e-08
-1.57411e-08
9.91065e-09
3.27836e-08
-8.77846e-09
4.6423e-09
3.81825e-08
-8.14872e-09
3.70281e-09
3.93028e-08
-4.74596e-09
9.61481e-10
4.13173e-08
-5.38625e-09
2.20691e-09
4.02497e-08
-8.98904e-09
5.37423e-09
3.78624e-08
-9.75671e-09
6.54834e-09
3.66868e-08
-1.84472e-08
1.50834e-08
2.99491e-08
-1.73332e-08
1.44617e-08
2.96202e-08
-1.4526e-08
1.49301e-08
2.53048e-08
-1.67297e-08
1.61653e-08
2.61391e-08
-1.20493e-08
1.41975e-08
2.36252e-08
8.17634e-09
1.0178e-08
7.13171e-09
1.20605e-08
9.63198e-09
3.94356e-09
1.1432e-08
9.5115e-09
4.60863e-09
2.36152e-08
7.08435e-09
-6.58557e-09
2.70018e-08
6.37173e-09
-9.40291e-09
3.09859e-08
5.35771e-09
-1.23476e-08
2.67882e-08
6.4477e-09
-9.35718e-09
2.66698e-08
6.36621e-09
-9.27927e-09
3.07972e-08
5.36628e-09
-1.21655e-08
2.68481e-08
6.25327e-09
-9.31345e-09
2.34737e-08
6.73653e-09
-6.63121e-09
1.11959e-08
7.99503e-09
4.00966e-09
1.1814e-08
7.98282e-09
3.38351e-09
8.19329e-09
8.40182e-09
6.53061e-09
-1.05406e-08
1.09528e-08
2.29501e-08
-1.44795e-08
1.1931e-08
2.57283e-08
-1.28104e-08
1.14926e-08
2.47404e-08
-1.59626e-08
1.20101e-08
2.93815e-08
-1.70153e-08
1.25517e-08
2.97831e-08
-9.07174e-09
5.49166e-09
3.64865e-08
-8.36267e-09
4.43547e-09
3.76639e-08
-4.82141e-09
1.36265e-09
4.00122e-08
-5.39892e-09
2.73029e-09
3.84946e-08
-9.00161e-09
5.98331e-09
3.61879e-08
-9.8106e-09
7.24494e-09
3.49702e-08
-1.87985e-08
1.6789e-08
2.7666e-08
-1.76965e-08
1.60877e-08
2.74029e-08
-1.55862e-08
1.71484e-08
2.28574e-08
-1.81739e-08
1.91181e-08
2.31757e-08
-1.30681e-08
1.61597e-08
2.14298e-08
7.26519e-09
1.07222e-08
6.71351e-09
1.11796e-08
9.8935e-09
3.91328e-09
1.05639e-08
9.78506e-09
4.53566e-09
2.22869e-08
7.25545e-09
-5.63498e-09
2.55325e-08
6.54889e-09
-8.18249e-09
2.92811e-08
5.59126e-09
-1.08772e-08
2.53342e-08
6.60507e-09
-8.10832e-09
2.51711e-08
6.55742e-09
-7.99e-09
2.90745e-08
5.61499e-09
-1.06779e-08
2.53167e-08
6.47758e-09
-8.03763e-09
2.1995e-08
7.01792e-09
-5.55043e-09
1.00593e-08
8.49359e-09
4.27796e-09
1.05679e-08
8.5425e-09
3.7067e-09
7.02572e-09
9.15997e-09
6.45262e-09
-1.17262e-08
1.30616e-08
2.09884e-08
-1.61011e-08
1.50338e-08
2.29983e-08
-1.40101e-08
1.38382e-08
2.24993e-08
-1.63591e-08
1.36949e-08
2.72294e-08
-1.73926e-08
1.43168e-08
2.75519e-08
-9.12573e-09
6.21313e-09
3.47824e-08
-8.37289e-09
5.06731e-09
3.59975e-08
-4.82326e-09
1.91481e-09
3.82591e-08
-5.38128e-09
3.21445e-09
3.68168e-08
-8.82118e-09
6.48442e-09
3.45247e-08
-9.61329e-09
7.75625e-09
3.33195e-08
-1.83452e-08
1.76126e-08
2.58416e-08
-1.73453e-08
1.69573e-08
2.55956e-08
-1.61147e-08
1.89426e-08
2.0849e-08
-1.91502e-08
2.16992e-08
2.06615e-08
-1.36219e-08
1.7809e-08
1.96131e-08
6.38356e-09
1.13014e-08
6.35125e-09
1.0273e-08
1.02321e-08
3.86586e-09
9.69482e-09
1.01404e-08
4.4485e-09
2.09922e-08
7.50066e-09
-4.72118e-09
2.40463e-08
6.83472e-09
-7.0637e-09
2.74993e-08
5.9928e-09
-9.57136e-09
2.38866e-08
6.86756e-09
-6.97718e-09
2.37044e-08
6.83178e-09
-6.83028e-09
2.72817e-08
6.02611e-09
-9.35988e-09
2.38041e-08
6.77958e-09
-6.88035e-09
2.06414e-08
7.29429e-09
-4.5474e-09
8.94583e-09
9.01803e-09
4.53139e-09
9.36565e-09
9.08247e-09
4.04351e-09
5.91103e-09
9.90026e-09
6.41944e-09
-1.24243e-08
1.48015e-08
1.93929e-08
-1.72492e-08
1.77245e-08
2.07136e-08
-1.46746e-08
1.57218e-08
2.06943e-08
-1.60437e-08
1.46182e-08
2.54873e-08
-1.69729e-08
1.51993e-08
2.57821e-08
-8.93085e-09
6.75092e-09
3.31418e-08
-8.19288e-09
5.59309e-09
3.43403e-08
-4.7997e-09
2.42794e-09
3.65815e-08
-5.25699e-09
3.69516e-09
3.51858e-08
-8.34088e-09
6.9076e-09
3.25991e-08
-9.03775e-09
8.09655e-09
3.14192e-08
-1.66275e-08
1.73043e-08
2.42481e-08
-1.57824e-08
1.6817e-08
2.39482e-08
-1.54951e-08
1.99645e-08
1.90129e-08
-1.89627e-08
2.33262e-08
1.85591e-08
-1.31271e-08
1.88392e-08
1.78827e-08
5.52547e-09
1.18062e-08
6.26236e-09
9.21537e-09
1.06774e-08
4.01188e-09
8.73804e-09
1.05407e-08
4.55959e-09
1.93022e-08
7.99302e-09
-3.83028e-09
2.20113e-08
7.44958e-09
-5.95655e-09
2.50173e-08
6.86856e-09
-8.29818e-09
2.19582e-08
7.42085e-09
-5.886e-09
2.17617e-08
7.39181e-09
-5.70807e-09
2.47857e-08
6.91378e-09
-8.0728e-09
2.17498e-08
7.40353e-09
-5.73276e-09
1.89176e-08
7.79528e-09
-3.56581e-09
7.98292e-09
9.42671e-09
4.94534e-09
8.29532e-09
9.51996e-09
4.53786e-09
5.03558e-09
1.04188e-08
6.62322e-09
-1.19975e-08
1.58865e-08
1.78929e-08
-1.71602e-08
1.94156e-08
1.88427e-08
-1.41198e-08
1.68008e-08
1.9073e-08
-1.45095e-08
1.4535e-08
2.39281e-08
-1.52837e-08
1.49547e-08
2.42675e-08
-8.35735e-09
7.12297e-09
3.12518e-08
-7.71409e-09
6.04809e-09
3.2419e-08
-4.67634e-09
2.94412e-09
3.49496e-08
-4.69061e-09
4.42677e-09
3.16944e-08
-7.47715e-09
7.33502e-09
3.00047e-08
-7.95145e-09
8.3032e-09
2.90039e-08
-1.4064e-08
1.65551e-08
2.23118e-08
-1.35004e-08
1.63503e-08
2.19603e-08
-1.31528e-08
1.97512e-08
1.72824e-08
-1.65846e-08
2.35551e-08
1.63638e-08
-1.11629e-08
1.8783e-08
1.63525e-08
5.26039e-09
1.20961e-08
6.15851e-09
8.35503e-09
1.10701e-08
4.28123e-09
8.0657e-09
1.08429e-08
4.77605e-09
1.72681e-08
8.49434e-09
-2.58342e-09
1.97264e-08
8.06878e-09
-4.59118e-09
2.22048e-08
7.90229e-09
-6.9041e-09
1.96624e-08
7.98808e-09
-4.45589e-09
1.94861e-08
7.94932e-09
-4.24027e-09
2.19661e-08
7.95267e-09
-6.65942e-09
1.94906e-08
8.01009e-09
-4.31704e-09
1.69647e-08
8.25489e-09
-2.20877e-09
7.48711e-09
9.72754e-09
5.35035e-09
7.6676e-09
9.83248e-09
5.05065e-09
4.93138e-09
1.07205e-08
6.71891e-09
-9.93262e-09
1.58741e-08
1.65648e-08
-1.47203e-08
1.96958e-08
1.68927e-08
-1.16988e-08
1.66433e-08
1.75323e-08
-1.22138e-08
1.41427e-08
2.20388e-08
-1.27174e-08
1.42885e-08
2.24232e-08
-7.26097e-09
7.37334e-09
2.88574e-08
-6.84088e-09
6.52021e-09
2.98318e-08
-4.10373e-09
3.74331e-09
3.14549e-08
-4.06515e-09
4.88775e-09
2.95389e-08
-6.61429e-09
7.83743e-09
2.74971e-08
-6.9855e-09
8.75262e-09
2.64958e-08
-1.14537e-08
1.60174e-08
2.01675e-08
-1.08127e-08
1.57624e-08
1.98531e-08
-9.68178e-09
1.85592e-08
1.54524e-08
-1.22996e-08
2.17212e-08
1.47339e-08
-7.87558e-09
1.76842e-08
1.46404e-08
5.79813e-09
1.18281e-08
6.24139e-09
8.25202e-09
1.10483e-08
4.58886e-09
8.10339e-09
1.07809e-08
5.0279e-09
1.56115e-08
8.97287e-09
-1.34619e-09
1.7565e-08
8.73783e-09
-3.15811e-09
1.94479e-08
8.90989e-09
-5.31657e-09
1.75529e-08
8.60672e-09
-3.0157e-09
1.74065e-08
8.56725e-09
-2.80298e-09
1.92099e-08
8.96528e-09
-5.06866e-09
1.73716e-08
8.67581e-09
-2.88639e-09
1.54296e-08
8.71378e-09
-9.8165e-10
8.00304e-09
9.67681e-09
5.59613e-09
8.11663e-09
9.77045e-09
5.36139e-09
5.93007e-09
1.0471e-08
6.79976e-09
-6.33562e-09
1.48281e-08
1.49097e-08
-1.012e-08
1.7909e-08
1.53322e-08
-7.94413e-09
1.5513e-08
1.57633e-08
-9.44046e-09
1.36454e-08
1.9986e-08
-1.00418e-08
1.38529e-08
2.03307e-08
-6.25944e-09
7.87131e-09
2.63562e-08
-5.94626e-09
7.06803e-09
2.73272e-08
-3.45264e-09
4.25694e-09
2.92989e-08
-2.97111e-09
5.34364e-09
2.69782e-08
-5.62958e-09
8.37701e-09
2.50194e-08
-5.90551e-09
9.23093e-09
2.40814e-08
-9.20871e-09
1.59297e-08
1.77877e-08
-8.48436e-09
1.54708e-08
1.75909e-08
-5.73089e-09
1.66325e-08
1.37321e-08
-6.98052e-09
1.83834e-08
1.3131e-08
-4.11183e-09
1.58115e-08
1.30478e-08
7.33035e-09
1.09543e-08
6.14994e-09
9.29652e-09
1.04012e-08
4.80184e-09
9.10579e-09
1.02267e-08
5.15937e-09
1.50775e-08
9.03812e-09
-3.82524e-10
1.65846e-08
8.9889e-09
-1.98164e-09
1.80367e-08
9.33963e-09
-3.94225e-09
1.65357e-08
8.87421e-09
-1.81193e-09
1.64647e-08
8.8479e-09
-1.63894e-09
1.78318e-08
9.40379e-09
-3.72542e-09
1.64936e-08
8.94594e-09
-1.76331e-09
1.51349e-08
8.82079e-09
-1.20437e-10
9.45306e-09
9.31632e-09
5.51969e-09
9.71138e-09
9.30964e-09
5.30972e-09
7.93127e-09
9.7794e-09
6.51035e-09
-2.10939e-09
1.30672e-08
1.32075e-08
-4.26036e-09
1.46391e-08
1.36094e-08
-3.57431e-09
1.36923e-08
1.39519e-08
-6.95524e-09
1.34574e-08
1.77184e-08
-7.66863e-09
1.38817e-08
1.79489e-08
-5.12717e-09
8.40194e-09
2.3945e-08
-4.91833e-09
7.65767e-09
2.48522e-08
-2.32764e-09
4.77309e-09
2.67421e-08
-1.90359e-09
5.68764e-09
2.47936e-08
-4.63458e-09
8.89622e-09
2.27883e-08
-4.84931e-09
9.71672e-09
2.1842e-08
-7.3376e-09
1.60029e-08
1.54429e-08
-6.53643e-09
1.54014e-08
1.53432e-08
-2.63287e-09
1.52282e-08
1.20769e-08
-2.82906e-09
1.59067e-08
1.17284e-08
-1.10072e-09
1.44222e-08
1.15381e-08
9.11901e-09
1.0032e-08
6.12635e-09
1.09373e-08
9.40526e-09
5.09959e-09
1.06005e-08
9.46437e-09
5.30643e-09
1.54336e-08
8.83089e-09
3.89727e-10
1.66535e-08
8.87963e-09
-1.08498e-09
1.79195e-08
9.19906e-09
-2.85829e-09
1.65637e-08
8.8194e-09
-9.44625e-10
1.65211e-08
8.82857e-09
-8.34675e-10
1.7757e-08
9.286e-09
-2.71156e-09
1.65976e-08
8.88827e-09
-9.51823e-10
1.55205e-08
8.7291e-09
5.18261e-10
1.11798e-08
8.86307e-09
5.37329e-09
1.15522e-08
8.7334e-09
5.22651e-09
9.98415e-09
9.13891e-09
6.21136e-09
1.26906e-09
1.18861e-08
1.14721e-08
3.48121e-10
1.23258e-08
1.19845e-08
-1.04994e-10
1.24782e-08
1.20919e-08
-4.85017e-09
1.35077e-08
1.54369e-08
-5.66005e-09
1.40818e-08
1.55787e-08
-4.02687e-09
8.94601e-09
2.17062e-08
-3.89226e-09
8.23264e-09
2.26219e-08
-1.24481e-09
5.16415e-09
2.45633e-08
-9.27483e-10
6.13128e-09
2.29228e-08
-3.64273e-09
9.33853e-09
2.0875e-08
-3.86959e-09
1.01618e-08
1.98663e-08
-6.24755e-09
1.64516e-08
1.31326e-08
-5.48509e-09
1.58574e-08
1.30968e-08
-1.10879e-09
1.50556e-08
1.05355e-08
-1.37144e-09
1.59103e-08
1.01695e-08
4.6763e-10
1.4144e-08
1.0205e-08
1.06003e-08
9.42771e-09
6.13962e-09
1.27553e-08
8.27468e-09
5.53695e-09
1.21692e-08
8.6999e-09
5.53404e-09
1.64774e-08
8.35664e-09
8.62974e-10
1.75966e-08
8.42577e-09
-5.37021e-10
1.89558e-08
8.50542e-09
-2.11855e-09
1.74645e-08
8.44875e-09
-4.57685e-10
1.7434e-08
8.5025e-09
-4.22216e-10
1.88473e-08
8.61865e-09
-2.06079e-09
1.75515e-08
8.50059e-09
-5.05936e-10
1.65031e-08
8.41009e-09
8.35481e-10
1.25763e-08
8.51918e-09
5.28207e-09
1.30866e-08
8.1928e-09
5.24601e-09
1.13525e-08
8.93398e-09
5.90517e-09
3.02977e-09
1.19924e-08
9.78285e-09
2.07956e-09
1.27267e-08
1.00089e-08
1.63326e-09
1.26701e-08
1.0213e-08
-3.67096e-09
1.4127e-08
1.30967e-08
-4.45261e-09
1.4684e-08
1.31951e-08
-3.01619e-09
9.46014e-09
1.97183e-08
-2.8843e-09
8.74308e-09
2.06989e-08
-2.62947e-10
5.6657e-09
2.26895e-08
5.22851e-11
6.58974e-09
2.10734e-08
-2.61511e-09
9.89775e-09
1.85555e-08
-2.95163e-09
1.09002e-08
1.72996e-08
-6.26384e-09
1.80307e-08
1.01539e-08
-5.61956e-09
1.75273e-08
1.01126e-08
-1.63324e-10
1.56191e-08
8.75381e-09
-1.30476e-09
1.72601e-08
8.18804e-09
1.61064e-09
1.44508e-08
8.709e-09
1.28827e-08
7.95237e-09
6.84501e-09
1.5595e-08
6.03499e-09
6.71135e-09
1.48459e-08
6.78969e-09
6.59795e-09
1.82361e-08
7.23904e-09
1.53391e-09
1.94266e-08
7.16332e-09
2.65465e-10
2.10039e-08
6.84517e-09
-1.10452e-09
1.91813e-08
7.35032e-09
2.49178e-10
1.91389e-08
7.44538e-09
2.24605e-10
2.09402e-08
6.96855e-09
-1.11056e-09
1.93612e-08
7.29914e-09
2.13856e-10
1.8131e-08
7.45575e-09
1.36425e-09
1.46639e-08
7.18083e-09
6.09902e-09
1.52245e-08
6.69565e-09
6.06586e-09
1.31214e-08
8.03673e-09
6.32542e-09
3.92512e-09
1.31382e-08
7.72095e-09
2.05991e-09
1.49806e-08
7.33174e-09
2.36861e-09
1.40602e-08
7.87286e-09
-3.80296e-09
1.61434e-08
9.88393e-09
-4.44546e-09
1.6562e-08
1.00265e-08
-2.09476e-09
1.03178e-08
1.71062e-08
-1.86338e-09
9.41174e-09
1.8346e-08
7.0681e-10
6.21432e-09
2.0821e-08
1.74606e-09
7.48474e-09
1.69748e-08
-1.63875e-09
1.12092e-08
1.46577e-08
-2.44267e-09
1.24501e-08
1.36546e-08
-7.2013e-09
2.10423e-08
6.19162e-09
-5.76401e-09
1.94803e-08
6.98809e-09
1.20909e-09
1.59236e-08
7.03526e-09
1.00599e-09
1.72983e-08
6.24254e-09
3.63061e-09
1.39605e-08
7.70344e-09
1.54062e-08
6.47704e-09
7.55452e-09
1.97448e-08
2.3191e-09
9.07021e-09
1.75223e-08
4.91561e-09
7.79294e-09
2.06888e-08
5.23546e-09
2.90171e-09
2.12657e-08
5.60102e-09
1.32899e-09
2.31394e-08
4.68654e-09
2.96126e-10
2.08487e-08
6.00801e-09
1.1519e-09
2.07068e-08
6.17489e-09
1.10315e-09
2.30707e-08
4.81717e-09
2.77159e-10
2.10637e-08
5.83296e-09
1.25248e-09
2.02041e-08
5.70316e-09
2.69437e-09
1.67304e-08
5.70442e-09
7.29316e-09
1.84115e-08
3.67221e-09
8.35736e-09
1.49719e-08
7.11448e-09
6.92158e-09
5.38037e-09
1.35959e-08
6.33627e-09
3.2729e-09
1.68726e-08
4.42947e-09
3.19367e-09
1.5373e-08
5.69876e-09
-4.20491e-09
1.86664e-08
6.45326e-09
-5.62112e-09
2.01477e-08
5.74141e-09
-1.67275e-09
1.21048e-08
1.33488e-08
-9.68805e-10
1.0935e-08
1.43621e-08
2.30745e-09
7.33174e-09
1.66338e-08
2.02317e-09
8.15249e-09
1.54012e-08
-1.33658e-09
1.21033e-08
1.27792e-08
-2.16004e-09
1.34345e-08
1.16817e-08
-7.13646e-09
2.23302e-08
4.78447e-09
-5.34534e-09
2.04143e-08
5.65327e-09
3.47989e-09
1.4783e-08
6.56861e-09
4.7928e-09
1.44263e-08
6.56009e-09
6.04912e-09
1.26167e-08
7.40718e-09
1.79663e-08
4.06936e-09
9.19088e-09
2.24759e-08
-7.14076e-10
1.13967e-08
1.99367e-08
2.52093e-09
9.6004e-09
2.18047e-08
3.81401e-09
4.12839e-09
2.22603e-08
4.24579e-09
2.42175e-09
2.42462e-08
3.00026e-09
1.59564e-09
2.17079e-08
4.81692e-09
2.13559e-09
2.1551e-08
4.96531e-09
2.12189e-09
2.41676e-08
3.11627e-09
1.6002e-09
2.20364e-08
4.4521e-09
2.39508e-09
2.12723e-08
4.22885e-09
4.03199e-09
1.85846e-08
3.56715e-09
9.25454e-09
2.06542e-08
7.71629e-10
1.09429e-08
1.69381e-08
5.04112e-09
8.67537e-09
7.16185e-09
1.29969e-08
5.88967e-09
6.22897e-09
1.50236e-08
4.55433e-09
4.80341e-09
1.50339e-08
5.0388e-09
-4.07748e-09
2.00222e-08
4.94669e-09
-5.83509e-09
2.18282e-08
4.17742e-09
-1.46872e-09
1.32298e-08
1.13237e-08
-7.24179e-10
1.19459e-08
1.24393e-08
2.56148e-09
8.08959e-09
1.50182e-08
1.72345e-09
8.48784e-09
1.4797e-08
-1.24605e-09
1.2419e-08
1.22282e-08
-1.86941e-09
1.37844e-08
1.11195e-08
-5.56089e-09
2.14507e-08
5.48813e-09
-3.45876e-09
1.89972e-08
6.3546e-09
4.80914e-09
1.36077e-08
6.95718e-09
7.54997e-09
1.16453e-08
7.21487e-09
7.82103e-09
1.10047e-08
7.91405e-09
1.71804e-08
4.68413e-09
8.93474e-09
2.27092e-08
-1.49166e-09
1.21937e-08
1.92266e-08
3.18198e-09
9.36632e-09
2.10412e-08
3.51553e-09
5.32326e-09
2.12964e-08
4.31589e-09
3.24285e-09
2.37966e-08
2.77335e-09
2.17799e-09
2.06272e-08
5.00857e-09
2.76519e-09
2.04286e-08
5.14892e-09
2.78588e-09
2.36853e-08
2.89402e-09
2.19828e-09
2.09943e-08
4.52883e-09
3.25979e-09
2.03556e-08
3.94463e-09
5.32005e-09
1.80011e-08
3.99729e-09
9.21599e-09
2.08278e-08
-1.71174e-10
1.20166e-08
1.62877e-08
5.47179e-09
8.56094e-09
8.52719e-09
1.15594e-08
6.6221e-09
8.51677e-09
1.25288e-08
5.3664e-09
5.77372e-09
1.40383e-08
5.60044e-09
-2.40573e-09
1.88164e-08
5.593e-09
-4.45073e-09
2.11397e-08
4.80926e-09
-1.19849e-09
1.36296e-08
1.0716e-08
-6.44702e-10
1.22971e-08
1.18599e-08
2.28474e-09
8.41459e-09
1.43903e-08
)
;

boundaryField
{
    freeSurface
    {
        type            slip;
    }
    inlet
    {
        type            cyclic;
    }
    outlet
    {
        type            cyclic;
    }
    sidewalls
    {
        type            zeroGradient;
    }
    noSlipWalls
    {
        type            zeroGradient;
    }
}


// ************************************************************************* //
