/*--------------------------------*- C++ -*----------------------------------*\
  =========                 |
  \\      /  F ield         | OpenFOAM: The Open Source CFD Toolbox
   \\    /   O peration     | Website:  https://openfoam.org
    \\  /    A nd           | Version:  6
     \\/     M anipulation  |
\*---------------------------------------------------------------------------*/
FoamFile
{
    version     2.0;
    format      ascii;
    class       volScalarField;
    location    "0.8";
    object      k;
}
// * * * * * * * * * * * * * * * * * * * * * * * * * * * * * * * * * * * * * //

dimensions      [0 2 -2 0 0 0 0];

internalField   nonuniform List<scalar> 
63552
(
0.00495414
0.00337029
0.00387038
0.00465364
0.00380732
0.00586134
0.00363334
0.00544669
0.00341723
0.00743547
0.00523353
0.0048546
0.00655168
0.00481064
0.00591391
0.000406429
0.00366627
0.00358116
0.00387324
0.00386227
0.00429333
0.00375099
0.0037973
0.00461924
0.0048986
0.00523837
0.00522274
0.00654579
0.00471442
0.00702517
0.0016972
0.00305795
0.00501987
0.00411231
0.00390862
0.00457337
0.00498436
0.00403287
0.00624092
0.00653418
0.00579043
0.00509779
0.00466612
0.00703066
0.003987
0.00100477
0.00332309
0.00365146
0.00356195
0.00451847
0.00373013
0.00401065
0.00624746
0.00691323
0.00402511
0.00587382
0.00459143
0.00345446
0.00282654
0.00305716
0.00369164
0.00360764
0.00551979
0.00511106
0.00475995
0.00526654
0.00455205
0.00444343
0.0080104
0.00460988
0.00481216
6.66007e-05
0.000226437
0.00296507
0.00488124
0.00377303
0.00447254
0.00480316
0.00511378
0.00447949
0.00441098
0.0069874
0.00473708
0.00505347
7.82996e-05
0.00116168
5.188e-05
0.000156665
0.00452516
0.00404752
0.00363576
0.00480415
0.00526194
0.00485814
0.00363735
0.00535869
0.00556409
5.85218e-05
0.00197034
0.00104511
0.000213615
0.00375065
0.00536459
0.00487776
0.00520491
0.00436989
0.0045803
0.00689488
0.00407339
0.000270511
0.000275102
0.00134121
0.00180093
0.00297742
0.0036179
0.00418114
0.00492857
0.00522393
0.00475654
0.00597917
0.00484246
0.000134719
0.000347508
0.000235442
0.00126555
0.000717931
0.00390265
0.00447552
0.00431511
0.00495507
0.00446685
0.00373372
0.00411749
0.000122744
8.63169e-05
0.000377668
0.000137832
0.0019806
0.000395188
0.00397039
0.00447483
0.00366003
0.00403095
0.00443521
0.00384845
0.000170011
0.000143458
0.000438601
2.65064e-05
0.00205218
0.000883776
0.0033521
0.00482342
0.00396601
0.00401052
0.00286862
0.00011031
0.000183981
0.000200054
0.000574651
5.72168e-05
0.00200121
0.00186624
0.00444758
0.00423651
0.00472463
0.00104578
0.000112544
0.000144426
0.00021999
0.000258763
0.000683164
0.000523164
0.00239804
0.00401395
0.00513508
0.00468384
8.84345e-05
9.99632e-05
0.000134577
0.00018751
0.000304627
0.000414934
0.000829963
0.000944552
0.00264981
0.00450308
0.00423556
0.000994752
9.45369e-05
0.000124061
0.000168031
0.000243902
0.000373109
0.00059553
0.00118331
0.00203683
0.00317189
0.00259078
0.000200397
9.00902e-05
0.000116824
0.000158323
0.000230396
0.000338458
0.000539624
0.000906559
0.00184586
0.0028434
0.00258255
0.000561929
8.69108e-05
0.000112249
0.000149738
0.000215801
0.000314086
0.000494726
0.000832607
0.00158571
0.00246555
0.0021854
0.000365057
0.000109167
0.00014505
0.000207632
0.000299667
0.000468153
0.000779928
0.00148716
0.00230321
0.00205951
0.000385696
0.000107739
0.000142682
0.000203706
0.000292862
0.000455888
0.000755454
0.00143249
0.00221863
0.00198425
0.000367725
0.00119489
0.00125698
0.00132293
0.00133966
0.00144135
0.00157079
0.00157752
0.00178605
0.00197034
0.00254759
0.00300662
0.00423011
0.00599848
0.00608589
0.00289538
0.000818914
0.00116058
0.00118067
0.00126523
0.00136823
0.00152259
0.00164163
0.00179112
0.00212722
0.00255849
0.00312168
0.00445492
0.00607585
0.00608735
0.00270106
0.00103422
0.0009906
0.00120723
0.00140953
0.00150193
0.00158953
0.00181366
0.00202703
0.00253177
0.00309852
0.00444815
0.00604873
0.00614483
0.00266015
0.0011712
0.000966043
0.00114826
0.00134743
0.00142879
0.00160757
0.00185407
0.00212551
0.00264363
0.00328703
0.00451295
0.00618273
0.006142
0.00247014
0.00103023
0.00117418
0.00116713
0.00135942
0.0015879
0.00188693
0.00209564
0.00253901
0.00319396
0.00455676
0.00628721
0.00619044
0.00241914
0.000845011
0.000623822
0.000991391
0.00124699
0.00144021
0.00185955
0.00222402
0.00267248
0.00329935
0.00470941
0.00631885
0.00618759
0.00228303
0.000785531
0.00110272
0.000970551
0.000928992
0.00138922
0.00178329
0.002157
0.00264685
0.00328732
0.00472927
0.00627285
0.00625134
0.00215646
0.000752852
0.00104404
0.00117587
0.00118479
0.00175642
0.00225394
0.00275811
0.00343736
0.00481649
0.00641731
0.00624133
0.00204493
0.000979419
0.000891466
0.0010977
0.0013753
0.00162136
0.00216597
0.0026749
0.00342017
0.00486506
0.00646364
0.00624801
0.00195095
0.000879511
0.00102616
0.00107985
0.00129728
0.00157874
0.00207502
0.00273493
0.00346959
0.00496669
0.00650591
0.0061811
0.00188007
0.000937466
0.000950441
0.00113754
0.00127043
0.00168437
0.00187063
0.00264754
0.00348753
0.004949
0.00652551
0.00623425
0.00175346
0.00103384
0.00112858
0.00134219
0.00154553
0.00209256
0.00248652
0.00349598
0.00508015
0.00658324
0.00621244
0.00167495
0.00100604
0.00116141
0.00132495
0.00165456
0.00189952
0.00262308
0.00331054
0.00511287
0.00666066
0.00625437
0.00167824
0.00104323
0.00117217
0.00135735
0.00163252
0.00202731
0.00251714
0.00346044
0.00510744
0.00673975
0.00624846
0.00164596
0.00104711
0.00118737
0.00137349
0.00166125
0.00200262
0.00258196
0.00333009
0.00501233
0.00671579
0.00621646
0.0015708
0.00105996
0.00120254
0.00137961
0.00167339
0.00202789
0.00258705
0.00341087
0.00500567
0.00661568
0.00610995
0.00160064
0.00107019
0.00120972
0.0013967
0.00168449
0.00203481
0.00259414
0.00340361
0.00501931
0.0066202
0.00612215
0.00152348
0.00107613
0.00121938
0.00140166
0.00169348
0.00204582
0.00260755
0.00341672
0.00501479
0.00660041
0.00609696
0.0015347
0.00122374
0.00140775
0.00169909
0.00205055
0.00261275
0.00342517
0.00501987
0.00659667
0.00608988
0.00151152
0.00122636
0.00141007
0.00170182
0.00205318
0.002616
0.00342899
0.00502012
0.00659178
0.0060833
0.00150524
0.00108033
0.00113186
0.00116619
0.00120103
0.00129099
0.00142825
0.00158519
0.00189828
0.00227265
0.00292699
0.00363488
0.00541523
0.00776113
0.008021
0.00338336
0.00107489
0.00114078
0.00115716
0.00121631
0.001333
0.00148609
0.00168026
0.00201801
0.00242943
0.00308829
0.00385736
0.00570342
0.00793706
0.00802535
0.00326792
0.00112419
0.00114021
0.00121549
0.00133832
0.00147895
0.00167064
0.0020205
0.00241161
0.00307724
0.00383097
0.00567496
0.00796869
0.00811892
0.00327123
0.00113309
0.00117658
0.00125485
0.001358
0.00152023
0.00175054
0.0021326
0.00255818
0.00322946
0.00402911
0.00590811
0.00811874
0.00811979
0.00315963
0.00118486
0.00125078
0.00134524
0.00151939
0.00174591
0.0021374
0.00255042
0.00321826
0.0040149
0.0059158
0.00817786
0.00819299
0.00315095
0.00119203
0.00122657
0.00136378
0.00154933
0.00180171
0.00222559
0.0026813
0.00335976
0.00418054
0.00611058
0.00828708
0.00819507
0.0030493
0.00119323
0.00133076
0.00141091
0.00156443
0.00181352
0.00222383
0.00267085
0.00335808
0.00418827
0.00613324
0.00834221
0.00824874
0.00303503
0.00129526
0.00143261
0.00163949
0.0018723
0.00229538
0.0027705
0.00347204
0.00433318
0.0062813
0.00843652
0.00825294
0.00294719
0.00136823
0.00145862
0.0016553
0.00192182
0.00229736
0.00276334
0.00346787
0.00434778
0.0063261
0.00849122
0.00828109
0.00292667
0.00137844
0.00151213
0.00170262
0.00195594
0.00236236
0.00282025
0.00354704
0.0044519
0.00644351
0.00855414
0.00828874
0.00285005
0.00141275
0.00152475
0.00173882
0.00198757
0.00239558
0.00282304
0.00354434
0.00447672
0.00648732
0.00859964
0.00830797
0.0028267
0.00157377
0.00177553
0.00204122
0.00242277
0.00291072
0.00359123
0.0045433
0.00657445
0.00865534
0.00831255
0.00276852
0.00159323
0.00180788
0.00206436
0.00246974
0.00289727
0.00363125
0.00454503
0.00662359
0.00870137
0.00832619
0.00273238
0.00162297
0.00183772
0.00209912
0.00249952
0.00296321
0.00365205
0.00462119
0.00666426
0.00873865
0.00832233
0.00269086
0.00164694
0.00186118
0.00213187
0.00252629
0.00297943
0.00368769
0.00462324
0.00668057
0.00875598
0.00832165
0.00265919
0.00166411
0.00188711
0.00214607
0.00255175
0.00300844
0.00371605
0.00467417
0.00671451
0.00875613
0.00830627
0.00262016
0.00168315
0.00190046
0.00217119
0.00257097
0.00302564
0.00373052
0.00469454
0.0067417
0.00877403
0.00831466
0.00260406
0.00169362
0.00191611
0.00218212
0.00258488
0.00304192
0.00374976
0.00471501
0.00675958
0.0087801
0.00831045
0.0025772
0.00192397
0.00219193
0.00259456
0.00305094
0.00375861
0.0047287
0.00677269
0.00878556
0.00831003
0.00256617
0.00192842
0.00219621
0.00259906
0.00305558
0.00376357
0.00473506
0.0067781
0.00878599
0.00830738
0.00255694
0.00116568
0.00120515
0.00124182
0.00130637
0.00139569
0.00156462
0.00174775
0.0021289
0.00253954
0.00329255
0.00403563
0.00603737
0.0088216
0.00948575
0.00435041
0.0011907
0.00123312
0.0012713
0.00135025
0.00145759
0.00164029
0.00185392
0.00226465
0.00270549
0.00347067
0.00426743
0.00634786
0.0090241
0.00948644
0.0042403
0.00123784
0.00128182
0.00136521
0.00146507
0.00164395
0.00185176
0.00226122
0.00269012
0.00345663
0.00423285
0.00630918
0.00904543
0.00957945
0.00425293
0.00126217
0.00132081
0.00140828
0.00151305
0.00170761
0.00194418
0.00238089
0.00283978
0.00361144
0.00442655
0.00655284
0.0092005
0.00958452
0.00414569
0.00133774
0.00142248
0.00152833
0.00172497
0.00195345
0.00238609
0.00283268
0.00360714
0.00441769
0.00655801
0.00925013
0.00965122
0.00413956
0.00136674
0.00145787
0.00157681
0.00178251
0.00203278
0.00248621
0.00296119
0.00373956
0.0045786
0.00674849
0.00936601
0.00966341
0.00404138
0.00138677
0.00149941
0.00161017
0.00181453
0.0020578
0.00249943
0.00296091
0.00374148
0.00458776
0.00678037
0.00942481
0.00970635
0.00402183
0.00152219
0.00164559
0.0018678
0.00212822
0.00258181
0.00306446
0.00384949
0.0047185
0.00692372
0.00951249
0.00971972
0.00393691
0.0015583
0.00168024
0.00190013
0.00216281
0.0026041
0.00307272
0.0038582
0.00473927
0.00697123
0.00956737
0.00974241
0.00390879
0.00158769
0.00172075
0.00194771
0.00221421
0.002671
0.00315193
0.00393941
0.00484039
0.00708104
0.00963156
0.00975385
0.00383927
0.00161498
0.00174662
0.00197902
0.00224965
0.00270119
0.003172
0.00395413
0.0048695
0.00713437
0.00968012
0.00976721
0.00380598
0.00178226
0.00201859
0.00229739
0.00274864
0.00323869
0.00401558
0.0049419
0.00721473
0.00973226
0.00977442
0.00375269
0.00180891
0.00204952
0.00232685
0.00278318
0.00325697
0.00404118
0.00497014
0.00726611
0.00977374
0.00978143
0.00372092
0.00183423
0.00207806
0.00236017
0.0028203
0.00330568
0.00408014
0.00502797
0.00731786
0.00980885
0.00978332
0.0036797
0.00185823
0.00210231
0.00239305
0.00284659
0.00333067
0.00410675
0.00505376
0.00735328
0.00983469
0.00978563
0.00364829
0.00187487
0.00212722
0.00240984
0.00287183
0.00335836
0.00413663
0.00509266
0.00739174
0.00985333
0.00978462
0.00361728
0.00189331
0.00214112
0.00243373
0.00289271
0.00337783
0.00415201
0.0051175
0.00742046
0.00987196
0.00978712
0.00358981
0.00190362
0.00215642
0.00244627
0.00290656
0.00339399
0.0041702
0.00513792
0.00744269
0.00988363
0.00978697
0.0035723
0.00216453
0.00245619
0.00291676
0.00340394
0.0041792
0.00515144
0.00745696
0.00989061
0.00978647
0.00355692
0.00216903
0.00246083
0.00292146
0.00340889
0.00418404
0.00515776
0.00746316
0.00989205
0.00978453
0.00354848
0.00123434
0.00127698
0.00131495
0.00139785
0.00147451
0.0016549
0.00181168
0.00220399
0.0025632
0.00336014
0.00402605
0.00612988
0.00930065
0.0106011
0.00514803
0.00126227
0.0013084
0.00135344
0.0014459
0.00153711
0.00172906
0.00191211
0.00232912
0.00271944
0.00352766
0.00424368
0.00644322
0.00951985
0.0106029
0.00503733
0.00131974
0.00136617
0.00146033
0.00154518
0.00173618
0.00191118
0.00232491
0.0027014
0.00351042
0.00420129
0.00639245
0.00952967
0.0106831
0.00505275
0.00134894
0.00140361
0.00150163
0.00159741
0.00179922
0.00199804
0.00243212
0.00283833
0.00365087
0.00437679
0.00662509
0.0096826
0.0106962
0.00494787
0.00142057
0.00152001
0.0016149
0.00181804
0.00200999
0.00244013
0.00283217
0.00364659
0.00436444
0.00662811
0.00973
0.0107494
0.00494277
0.00145131
0.00155751
0.00166237
0.00187219
0.00208385
0.00252861
0.00294793
0.00376228
0.0045064
0.00680248
0.00984164
0.0107689
0.00484952
0.00147262
0.00158393
0.00168667
0.00189915
0.00210689
0.00254652
0.00295165
0.00376577
0.00451257
0.00683623
0.00990013
0.0108009
0.00482922
0.00161422
0.00172489
0.00194436
0.00216832
0.00261798
0.0030453
0.00385854
0.0046244
0.00696416
0.00998284
0.0108171
0.00475024
0.00163939
0.00175204
0.00197453
0.0021976
0.00264346
0.00305887
0.00387
0.00464322
0.00701272
0.0100378
0.0108332
0.00471962
0.00166795
0.00178693
0.00201413
0.00224626
0.00269979
0.00313222
0.00394122
0.00473072
0.00711088
0.0101017
0.0108425
0.00465514
0.0016912
0.00181165
0.00204127
0.00227687
0.00272953
0.00315407
0.00395855
0.00475764
0.00716533
0.0101515
0.0108515
0.00461998
0.00183958
0.00207484
0.00231782
0.00277288
0.00320961
0.00401185
0.00482237
0.00723923
0.0102024
0.0108568
0.00456935
0.00186387
0.00210181
0.00234539
0.00280183
0.00323389
0.0040334
0.00485148
0.00729009
0.010244
0.0108603
0.00453515
0.00188577
0.00212573
0.00237455
0.0028356
0.00327303
0.00406969
0.00489902
0.00734236
0.0102807
0.0108616
0.0044969
0.00190571
0.00214729
0.00240275
0.00285958
0.0032983
0.00409134
0.00492664
0.00738127
0.0103098
0.010862
0.00446671
0.00192076
0.00216799
0.00241984
0.00288147
0.00332265
0.004117
0.00495785
0.00741842
0.0103335
0.0108609
0.00443698
0.00193619
0.00218094
0.00243957
0.00290066
0.00334158
0.00413125
0.00498079
0.00744635
0.0103525
0.0108599
0.00441202
0.00194548
0.00219375
0.0024519
0.0029132
0.00335595
0.00414643
0.00499886
0.00746858
0.0103659
0.0108583
0.00439135
0.00220115
0.00246072
0.00292247
0.00336553
0.00415454
0.00501069
0.00748241
0.0103733
0.0108563
0.00437763
0.00220511
0.00246509
0.00292684
0.0033702
0.00415875
0.00501623
0.00748828
0.0103748
0.0108534
0.00436872
0.00127412
0.00132138
0.00135462
0.0014462
0.00150341
0.00168498
0.00179094
0.002164
0.00239976
0.00318897
0.00367045
0.00580735
0.0093733
0.0114368
0.00582971
0.00130122
0.00135145
0.00139231
0.00148964
0.00155935
0.00174835
0.00187591
0.00226408
0.00253132
0.00332961
0.00385979
0.00611623
0.00960897
0.0114519
0.00572079
0.00136244
0.00140206
0.00150052
0.00156493
0.00175474
0.00187373
0.00226106
0.00251247
0.00331166
0.00380898
0.00605007
0.00961038
0.011517
0.00573735
0.00138915
0.00143538
0.00153661
0.00161193
0.00180765
0.001946
0.00234424
0.00262496
0.00342521
0.00395636
0.00626626
0.0097595
0.0115432
0.0056373
0.00144899
0.00155236
0.00162519
0.0018225
0.00195475
0.0023527
0.00261964
0.00342104
0.0039369
0.00626388
0.00980771
0.0115859
0.00563174
0.00147698
0.00158377
0.00166558
0.00186587
0.00201494
0.00241996
0.00271312
0.00351156
0.00405262
0.00641879
0.00991358
0.0116123
0.00554501
0.00149422
0.00160358
0.0016834
0.00188628
0.00203173
0.00243638
0.00271821
0.00351546
0.00405237
0.00644992
0.00997287
0.0116384
0.00552318
0.00162982
0.00171681
0.00192207
0.00208103
0.00248926
0.00279234
0.00358552
0.00414155
0.00656032
0.0100517
0.0116568
0.00545059
0.00164939
0.0017368
0.00194539
0.0021031
0.00251126
0.00280585
0.00359522
0.00415275
0.00660728
0.0101095
0.0116698
0.00541888
0.00167252
0.00176561
0.00197557
0.0021426
0.00255273
0.00286351
0.00364849
0.00422147
0.00669284
0.0101736
0.0116803
0.00535945
0.00169131
0.00178518
0.00199715
0.00216584
0.0025773
0.00288324
0.00366295
0.00424122
0.00674481
0.0102257
0.0116881
0.0053241
0.00180756
0.00202241
0.00219822
0.00260979
0.00292618
0.003702
0.00429218
0.0068109
0.0102774
0.0116934
0.0052765
0.00182623
0.0020434
0.00222001
0.00263261
0.00294804
0.00371895
0.00431527
0.00685905
0.0103209
0.0116963
0.00524267
0.00184439
0.00206193
0.00224344
0.00265811
0.00297859
0.00374588
0.0043521
0.00690792
0.0103596
0.0116973
0.0052056
0.0018596
0.00207874
0.00226458
0.00267736
0.00299964
0.00376246
0.00437459
0.0069459
0.0103912
0.0116967
0.00517662
0.00187214
0.00209416
0.00227974
0.00269412
0.0030193
0.00378095
0.00439883
0.00698038
0.0104173
0.0116948
0.00514888
0.00188391
0.002105
0.00229438
0.00270905
0.00303532
0.0037925
0.00441703
0.00700689
0.0104374
0.0116923
0.00512437
0.00189169
0.00211455
0.00230481
0.00271918
0.00304697
0.00380346
0.00443149
0.00702771
0.0104518
0.0116895
0.00510519
0.00212057
0.00231188
0.00272646
0.0030551
0.00380983
0.00444087
0.00704067
0.0104598
0.0116863
0.00509082
0.00212367
0.00231549
0.00273001
0.00305906
0.00381303
0.00444529
0.00704599
0.0104615
0.0116827
0.00508219
0.0012901
0.0013393
0.00136474
0.00145734
0.00149369
0.00166938
0.0017214
0.00206898
0.00215723
0.00291126
0.00312331
0.00526126
0.00925808
0.0121382
0.00642415
0.00131451
0.00136559
0.00139804
0.0014934
0.00154062
0.00171896
0.00178891
0.00214019
0.00225839
0.00301541
0.00327528
0.005566
0.00951069
0.0121833
0.00631772
0.00137408
0.00140421
0.00150085
0.00154303
0.00172312
0.00178475
0.0021383
0.00224029
0.00300018
0.00321836
0.00548536
0.00951096
0.0122363
0.00633514
0.00139642
0.00143242
0.00153021
0.0015821
0.00176349
0.00184135
0.00219562
0.0023247
0.00308013
0.00333139
0.0056853
0.00965703
0.0122782
0.00624026
0.00144231
0.00154187
0.00159076
0.00177391
0.00184586
0.00220243
0.00231959
0.00307717
0.00330544
0.00567918
0.00971087
0.012317
0.0062348
0.00146593
0.00156647
0.00162336
0.0018062
0.00189243
0.00224774
0.00238848
0.00313821
0.0033911
0.00581574
0.00981356
0.0123504
0.00615382
0.00147871
0.00158118
0.00163586
0.00182051
0.00190324
0.00226012
0.00239284
0.00314184
0.0033842
0.00584594
0.00987737
0.0123767
0.0061321
0.00160153
0.00166263
0.00184655
0.00194078
0.00229495
0.00244691
0.00318732
0.00344869
0.00594125
0.00995801
0.0123984
0.00606432
0.00161631
0.00167698
0.00186317
0.00195571
0.0023104
0.00245747
0.00319375
0.00345228
0.00598773
0.010022
0.012415
0.00603332
0.00163391
0.00169953
0.0018845
0.00198549
0.0023375
0.00249863
0.00322668
0.0035003
0.00606285
0.0100893
0.0124293
0.00597734
0.00164807
0.00171383
0.00190026
0.00200178
0.00235438
0.00251402
0.00323637
0.00351227
0.0061133
0.0101467
0.0124399
0.00594304
0.00173142
0.00191789
0.00202559
0.00237568
0.00254452
0.00325988
0.00354784
0.00617314
0.0102021
0.0124479
0.0058977
0.00174471
0.00193265
0.00204126
0.00239123
0.00256134
0.00327083
0.00356373
0.00621954
0.0102497
0.0124529
0.00586473
0.00175884
0.00194617
0.0020588
0.00240795
0.00258338
0.00328703
0.00358941
0.00626548
0.0102922
0.0124557
0.00582909
0.00177007
0.00195807
0.0020733
0.00242108
0.00259885
0.00329742
0.00360543
0.00630263
0.0103276
0.0124563
0.00580045
0.00177978
0.00196865
0.00208523
0.00243241
0.00261345
0.00330826
0.00362269
0.00633548
0.0103568
0.0124552
0.00577338
0.00178831
0.00197684
0.00209547
0.00244227
0.0026253
0.00331578
0.00363561
0.00636128
0.0103794
0.0124529
0.00574974
0.00179441
0.00198344
0.00210328
0.00244938
0.00263402
0.00332223
0.00364602
0.00638107
0.0103955
0.01245
0.00573044
0.00198788
0.00210852
0.0024543
0.00264009
0.00332624
0.00365276
0.00639351
0.0104047
0.0124466
0.00571658
0.00199009
0.0021112
0.00245675
0.00264309
0.00332817
0.00365597
0.00639859
0.010407
0.0124428
0.00570773
0.00128908
0.00133614
0.00135574
0.00144199
0.00146429
0.00162531
0.00164037
0.00195974
0.00193864
0.00266204
0.00261332
0.00481334
0.00922459
0.012875
0.00697695
0.00130994
0.00135804
0.00138371
0.00147053
0.00150251
0.00166201
0.0016935
0.00200695
0.00201579
0.00273183
0.00273388
0.0051185
0.00949541
0.0129502
0.00687065
0.00136378
0.00138712
0.001475
0.00150256
0.00166381
0.0016879
0.00200495
0.00199852
0.0027201
0.00267373
0.00503363
0.00950647
0.013001
0.00689106
0.0013817
0.00141018
0.00149771
0.00153392
0.00169278
0.00173169
0.00204132
0.00206106
0.00276943
0.00275769
0.00521878
0.00965322
0.0130577
0.00679885
0.00141691
0.00150585
0.00153914
0.00169947
0.00173323
0.00204552
0.00205576
0.00276748
0.00272848
0.00521937
0.0097207
0.0131006
0.00679547
0.00143602
0.00152424
0.0015648
0.00172209
0.00176875
0.00207335
0.00210577
0.00280248
0.0027893
0.00534114
0.00982604
0.0131422
0.00671781
0.00144515
0.00153474
0.0015732
0.00173178
0.00177539
0.00208118
0.00210882
0.00280492
0.00277899
0.00537901
0.00990338
0.0131741
0.00669777
0.00154967
0.0015939
0.00174941
0.00180362
0.00210217
0.00214761
0.00282928
0.00282355
0.00546588
0.00999174
0.0132036
0.00663306
0.00156028
0.00160394
0.00176068
0.0018133
0.00211145
0.00215587
0.00283285
0.00282428
0.00551813
0.0100673
0.0132274
0.00660346
0.00157319
0.00162107
0.00177486
0.00183518
0.00212734
0.00218456
0.00284859
0.00285617
0.00558902
0.0101432
0.013248
0.00654987
0.00158335
0.00163115
0.00178564
0.0018463
0.00213734
0.00219607
0.00285316
0.00286441
0.00564327
0.0102105
0.0132642
0.00651657
0.00164453
0.00179731
0.00186328
0.00214979
0.00221734
0.00286398
0.00288834
0.00570202
0.0102739
0.0132771
0.00647288
0.00165382
0.00180702
0.00187419
0.002159
0.00222972
0.00286885
0.00290013
0.00575104
0.0103297
0.0132863
0.00644047
0.00166426
0.00181631
0.00188684
0.0021688
0.00224516
0.00287605
0.0029178
0.00579777
0.0103791
0.0132923
0.00640571
0.00167243
0.00182424
0.00189657
0.00217649
0.00225617
0.0028805
0.00292972
0.00583709
0.0104209
0.0132954
0.00637726
0.0016796
0.00183114
0.00190527
0.00218331
0.00226666
0.00288511
0.00294208
0.00587115
0.0104554
0.013296
0.00635008
0.00168566
0.00183681
0.00191234
0.00218902
0.00227494
0.0028884
0.00295149
0.00589828
0.0104822
0.0132947
0.00632614
0.0016902
0.00184119
0.00191782
0.00219333
0.00228124
0.00289107
0.002959
0.00591872
0.0105015
0.0132922
0.00630711
0.00184421
0.00192152
0.00219625
0.0022855
0.00289275
0.00296385
0.00593169
0.0105129
0.0132889
0.00629281
0.00184568
0.00192338
0.0021977
0.00228761
0.00289348
0.00296618
0.00593708
0.0105163
0.013285
0.00628364
0.00127746
0.00131774
0.00133763
0.00140931
0.00143202
0.00156528
0.00157696
0.00185181
0.00180218
0.00249243
0.00230906
0.00477808
0.00951999
0.0137579
0.00750682
0.00129479
0.00133558
0.0013605
0.0014316
0.00146287
0.00159208
0.00161984
0.00188281
0.001867
0.00253758
0.00242481
0.0050908
0.00980954
0.013854
0.00739758
0.00133895
0.00136215
0.00143347
0.00146167
0.00159152
0.00161391
0.00187909
0.00185036
0.00252648
0.00235939
0.00501983
0.00984475
0.0139129
0.0074236
0.001353
0.0013805
0.00145064
0.0014864
0.00161177
0.00164823
0.00190107
0.00190077
0.00255299
0.00243526
0.0051926
0.00999746
0.0139829
0.0073315
0.00138506
0.00145585
0.00148957
0.00161543
0.00164853
0.00190249
0.00189598
0.00255037
0.00240541
0.00521467
0.0100868
0.0140362
0.00733181
0.00139999
0.00146941
0.00150937
0.00163076
0.00167578
0.00191832
0.00193515
0.00256606
0.00245784
0.00532811
0.0102041
0.0140876
0.0072557
0.00140647
0.00147654
0.00151514
0.0016369
0.00168024
0.00192243
0.00193807
0.00256606
0.0024497
0.00538329
0.0103015
0.0141305
0.00723815
0.00148729
0.00153069
0.0016486
0.00170146
0.00193396
0.00196791
0.00257523
0.00248704
0.00547102
0.010404
0.0141699
0.00717529
0.00149454
0.00153775
0.00165584
0.00170826
0.00193905
0.00197538
0.00257508
0.0024917
0.00553662
0.0104964
0.0142032
0.00714724
0.00150385
0.00155047
0.00166511
0.00172421
0.00194737
0.00199707
0.00257955
0.00251889
0.00561189
0.0105861
0.014232
0.00709528
0.00151096
0.00155757
0.00167209
0.00173209
0.00195274
0.00200673
0.00257911
0.00253062
0.00567639
0.0106677
0.0142556
0.00706284
0.00156737
0.00167968
0.0017442
0.00195939
0.00202265
0.0025815
0.00255188
0.00574098
0.0107433
0.0142747
0.0070202
0.00157395
0.00168589
0.00175195
0.00196428
0.00203269
0.00258124
0.00256607
0.00579798
0.0108106
0.0142891
0.0069881
0.00158142
0.00169205
0.00176094
0.00196961
0.00204424
0.00258226
0.00258278
0.00585057
0.01087
0.0142994
0.0069536
0.00158731
0.00169722
0.00176768
0.00197367
0.0020528
0.00258215
0.00259591
0.00589596
0.0109206
0.0143057
0.00692469
0.00159245
0.00170166
0.00177383
0.00197744
0.00206076
0.00258245
0.00260825
0.0059347
0.0109624
0.0143086
0.00689636
0.00159672
0.0017054
0.00177877
0.0019805
0.00206696
0.00258244
0.00261802
0.0059658
0.010995
0.0143087
0.00687285
0.00159997
0.00170826
0.00178255
0.00198286
0.0020717
0.00258247
0.00262555
0.00598902
0.0110186
0.0143067
0.00685329
0.00171024
0.00178511
0.00198443
0.00207482
0.00258237
0.0026304
0.00600385
0.0110328
0.0143036
0.00683865
0.00171117
0.00178636
0.00198518
0.00207632
0.00258221
0.00263269
0.00601016
0.0110378
0.0142994
0.00682878
0.00125972
0.00128959
0.00131671
0.00136701
0.00140612
0.00149814
0.00154525
0.00174784
0.00176714
0.0023789
0.00226777
0.00525807
0.0102475
0.0148088
0.00802284
0.00127394
0.00130428
0.00133509
0.00138496
0.00143092
0.00151911
0.00158088
0.00177067
0.00182818
0.0024097
0.00241291
0.00558485
0.0105554
0.0149198
0.0079081
0.00130555
0.00133572
0.00138458
0.00142932
0.00151606
0.00157552
0.00176372
0.00181303
0.00239502
0.00233902
0.00554516
0.0106244
0.0149918
0.00794151
0.00131668
0.00134996
0.00139784
0.00144844
0.00153092
0.00160267
0.00177774
0.00185784
0.00240581
0.00242976
0.00571063
0.0107883
0.0150736
0.00784759
0.00135312
0.00140074
0.00145062
0.00153216
0.00160301
0.00177651
0.00185514
0.00240041
0.00240495
0.00576421
0.0109069
0.0151396
0.00785238
0.00136452
0.00141094
0.00146548
0.00154296
0.00162384
0.00178558
0.00188866
0.00240281
0.002465
0.00587882
0.0110418
0.0152023
0.0077765
0.00136909
0.00141564
0.00146966
0.00154659
0.00162751
0.00178713
0.00189326
0.00239912
0.00246854
0.00595827
0.0111629
0.0152571
0.00776151
0.00142354
0.00148104
0.00155468
0.00164333
0.00179347
0.00191812
0.00239838
0.00251135
0.00605607
0.0112839
0.0153065
0.00769956
0.00142841
0.00148602
0.00155942
0.00164867
0.00179608
0.0019265
0.00239407
0.00252946
0.00614046
0.0113962
0.0153493
0.00767282
0.00143523
0.00149524
0.00156583
0.00166011
0.00180072
0.0019443
0.0023918
0.00256293
0.0062279
0.011503
0.0153862
0.00762175
0.00144023
0.0015003
0.00157041
0.00166604
0.00180362
0.0019539
0.0023873
0.0025868
0.00630763
0.0116013
0.0154171
0.00758983
0.00150719
0.00157565
0.00167462
0.00180747
0.00196691
0.00238466
0.00261519
0.00638407
0.0116914
0.0154422
0.0075477
0.0015119
0.0015798
0.0016803
0.00181022
0.00197612
0.00238086
0.00263912
0.00645333
0.0117721
0.0154616
0.00751552
0.00151711
0.00158405
0.00168663
0.0018134
0.00198563
0.00237819
0.00266276
0.00651611
0.011843
0.0154758
0.00748087
0.00152128
0.00158757
0.00169143
0.00181576
0.00199305
0.00237528
0.00268314
0.00657084
0.0119036
0.015485
0.00745116
0.00152489
0.00159061
0.00169572
0.00181802
0.00199961
0.00237305
0.00270105
0.00661723
0.0119535
0.0154899
0.00742147
0.00152785
0.00159316
0.00169916
0.00181985
0.00200473
0.00237109
0.00271554
0.00665453
0.0119926
0.0154911
0.00739778
0.00153011
0.00159512
0.00170177
0.00182125
0.00200856
0.00236959
0.00272649
0.00668232
0.0120209
0.0154895
0.00737784
0.00159644
0.00170349
0.00182216
0.00201102
0.00236847
0.00273356
0.00670016
0.0120383
0.0154863
0.00736239
0.00159704
0.00170429
0.00182256
0.00201215
0.00236781
0.00273687
0.00670787
0.0120448
0.0154817
0.00735166
0.00123744
0.00125687
0.00129409
0.00132278
0.00138632
0.0014339
0.00154199
0.00165292
0.00182754
0.00228133
0.00252968
0.00618226
0.0113594
0.0159906
0.00852889
0.00124914
0.00126948
0.00130872
0.00133847
0.00140607
0.0014532
0.00157168
0.00167589
0.00188701
0.00231027
0.00272985
0.00652601
0.0116848
0.0161117
0.00840696
0.0012691
0.00130866
0.00133631
0.00140436
0.00144789
0.00156719
0.0016649
0.00187482
0.00228719
0.00265374
0.00652958
0.0117928
0.0161988
0.00844914
0.00127819
0.00131943
0.00134734
0.00141863
0.00146069
0.00158807
0.0016775
0.00191512
0.00229115
0.00276848
0.00669494
0.0119739
0.0162908
0.00835208
0.00132163
0.00134863
0.0014203
0.00146034
0.00158889
0.00167433
0.00191584
0.00228099
0.00276309
0.00678401
0.0121228
0.0163698
0.00836202
0.00133004
0.00135689
0.00143094
0.00146931
0.00160411
0.00168196
0.00194453
0.00227776
0.00283697
0.00691148
0.012279
0.0164433
0.00828542
0.00133332
0.00135996
0.00143412
0.00147159
0.00160748
0.00168257
0.00195157
0.00227027
0.00286509
0.0070185
0.0124246
0.0165088
0.00827311
0.00136628
0.00144207
0.00147824
0.00161867
0.00168799
0.00197216
0.00226592
0.00292137
0.00713372
0.0125662
0.0165674
0.00821141
0.00136967
0.00144563
0.00148178
0.00162303
0.00169022
0.00198164
0.00225916
0.002962
0.00724048
0.0126991
0.0166186
0.00818588
0.001375
0.00145203
0.00148711
0.00163089
0.00169458
0.00199616
0.00225498
0.00301085
0.00734574
0.0128243
0.0166627
0.00813523
0.00137872
0.00145565
0.00149065
0.00163536
0.00169737
0.00200569
0.0022494
0.00305402
0.00744414
0.0129397
0.0166999
0.0081036
0.00146029
0.00149493
0.00164122
0.00170114
0.00201642
0.00224571
0.00309764
0.00753665
0.0130451
0.0167302
0.00806152
0.0014636
0.00149825
0.00164534
0.00170395
0.00202471
0.00224157
0.00313739
0.00762116
0.0131394
0.0167538
0.00802887
0.00146715
0.0015017
0.00164964
0.0017071
0.00203256
0.00223855
0.00317436
0.00769716
0.0132222
0.0167712
0.00799338
0.00147003
0.00150454
0.00165299
0.00170957
0.00203885
0.00223567
0.00320695
0.00776353
0.0132927
0.0167828
0.00796186
0.00147251
0.00150699
0.0016559
0.00171186
0.00204417
0.00223347
0.00323499
0.00781961
0.0133509
0.0167891
0.00793312
0.00147451
0.00150902
0.00165823
0.00171372
0.0020483
0.00223165
0.00325774
0.00786468
0.0133964
0.016791
0.00790839
0.00147602
0.00151057
0.00165995
0.00171512
0.00205131
0.00223027
0.00327484
0.00789825
0.0134294
0.0167895
0.00788792
0.00151159
0.00166106
0.00171601
0.00205318
0.00222924
0.00328593
0.00791986
0.0134498
0.0167859
0.00787164
0.00151203
0.00166154
0.0017164
0.00205398
0.00222867
0.0032911
0.00792924
0.0134577
0.0167807
0.00785984
0.00120985
0.00122405
0.001267
0.00128446
0.00136495
0.00138622
0.00154885
0.00158802
0.00195059
0.00220253
0.00314343
0.00745049
0.0127532
0.0172625
0.0090355
0.00121974
0.00123539
0.00127888
0.00129938
0.0013809
0.0014071
0.00157346
0.00161915
0.002006
0.00225017
0.00340743
0.00781139
0.013098
0.0173905
0.00890559
0.00123399
0.00127803
0.00129622
0.00137871
0.00140047
0.00156912
0.00160493
0.00199693
0.00221405
0.00334926
0.00786558
0.0132468
0.0174935
0.00895772