/*--------------------------------*- C++ -*----------------------------------*\
  =========                 |
  \\      /  F ield         | OpenFOAM: The Open Source CFD Toolbox
   \\    /   O peration     | Website:  https://openfoam.org
    \\  /    A nd           | Version:  6
     \\/     M anipulation  |
\*---------------------------------------------------------------------------*/
FoamFile
{
    version     2.0;
    format      ascii;
    class       volScalarField;
    location    "0.8";
    object      nut;
}
// * * * * * * * * * * * * * * * * * * * * * * * * * * * * * * * * * * * * * //

dimensions      [0 2 -1 0 0 0 0];

internalField   nonuniform List<scalar> 
63552
(
5.87041e-06
3.38585e-06
4.5862e-06
5.51433e-06
3.53584e-06
6.94539e-06
3.6037e-06
6.45406e-06
3.42373e-06
8.81067e-06
4.00912e-06
4.62659e-06
5.05755e-06
4.78063e-06
8.59504e-06
4.81598e-07
4.34435e-06
4.2435e-06
4.5896e-06
4.5766e-06
5.08738e-06
3.71169e-06
3.6543e-06
4.06246e-06
4.04078e-06
4.47358e-06
4.60118e-06
4.73924e-06
4.72712e-06
1.41476e-05
2.0111e-06
3.62352e-06
5.9483e-06
4.87289e-06
3.58973e-06
5.41922e-06
5.90622e-06
3.75432e-06
7.39519e-06
7.74267e-06
4.40355e-06
4.45538e-06
4.67883e-06
1.38886e-05
4.7244e-06
1.1906e-06
3.9377e-06
3.47734e-06
3.47479e-06
5.35416e-06
3.64473e-06
3.85272e-06
7.40293e-06
8.19184e-06
3.868e-06
5.17515e-06
4.52994e-06
5.83002e-06
3.3493e-06
3.0896e-06
4.37442e-06
3.56821e-06
6.54068e-06
6.05636e-06
5.6403e-06
6.24058e-06
3.80457e-06
4.26275e-06
9.49193e-06
4.47192e-06
7.67201e-06
7.89185e-08
2.68317e-07
3.51346e-06
5.78403e-06
4.47085e-06
5.29973e-06
5.69151e-06
6.05958e-06
4.05509e-06
4.19538e-06
8.27972e-06
4.55804e-06
7.41572e-06
9.27811e-08
1.37653e-06
6.14752e-08
1.8564e-07
5.3621e-06
4.79611e-06
3.62556e-06
5.69268e-06
6.23514e-06
4.14583e-06
3.67167e-06
4.88905e-06
1.1007e-05
6.93455e-08
2.33476e-06
1.2384e-06
2.53123e-07
4.44433e-06
6.35677e-06
5.7799e-06
6.16756e-06
4.03725e-06
4.45917e-06
8.17009e-06
6.32332e-06
3.20542e-07
3.25982e-07
1.58927e-06
2.13401e-06
3.52809e-06
3.42793e-06
4.95444e-06
5.84011e-06
6.19009e-06
4.23589e-06
7.08502e-06
9.60922e-06
1.59636e-07
4.11779e-07
2.78987e-07
1.49961e-06
8.50712e-07
4.62445e-06
5.30327e-06
5.11319e-06
5.87152e-06
4.01882e-06
3.73461e-06
6.28233e-06
1.45446e-07
1.02281e-07
4.47517e-07
1.63324e-07
2.34692e-06
4.68279e-07
4.70471e-06
5.30246e-06
3.66445e-06
3.93372e-06
4.1335e-06
7.66961e-06
2.01455e-07
1.69991e-07
5.1972e-07
3.14087e-08
2.43173e-06
1.04723e-06
3.32744e-06
5.71551e-06
3.91379e-06
3.9545e-06
5.76933e-06
1.30711e-07
2.18008e-07
2.37054e-07
6.80932e-07
6.7799e-08
2.37133e-06
2.2114e-06
5.27016e-06
4.04998e-06
5.59845e-06
2.20735e-06
1.33359e-07
1.71137e-07
2.60677e-07
3.06621e-07
8.09515e-07
6.19923e-07
2.84156e-06
4.75634e-06
6.08481e-06
5.55012e-06
2.01862e-07
1.18451e-07
1.59467e-07
2.2219e-07
3.60968e-07
4.91676e-07
9.83466e-07
1.11925e-06
3.1399e-06
5.33593e-06
5.01892e-06
2.13057e-06
1.12022e-07
1.47006e-07
1.99108e-07
2.89012e-07
4.42116e-07
7.05674e-07
1.40216e-06
2.41354e-06
3.75854e-06
3.06995e-06
4.5328e-07
1.06752e-07
1.38431e-07
1.87605e-07
2.73008e-07
4.01057e-07
6.39428e-07
1.07423e-06
2.18725e-06
3.36929e-06
3.0602e-06
1.23223e-06
1.02985e-07
1.3301e-07
1.77432e-07
2.55713e-07
3.72176e-07
5.86226e-07
9.86599e-07
1.87899e-06
2.92156e-06
2.5896e-06
8.12212e-07
1.29357e-07
1.71877e-07
2.46033e-07
3.5509e-07
5.54738e-07
9.24176e-07
1.76221e-06
2.72918e-06
2.44041e-06
8.56556e-07
1.27665e-07
1.69071e-07
2.41382e-07
3.47027e-07
5.40204e-07
8.95175e-07
1.69744e-06
2.62897e-06
2.35124e-06
8.17802e-07
4.64479e-06
4.78433e-06
5.0275e-06
5.18943e-06
5.32869e-06
6.00373e-06
5.96506e-06
6.94324e-06
7.56892e-06
1.01197e-05
1.0954e-05
1.57062e-05
2.21563e-05
2.90705e-05
2.21953e-05
3.36414e-06
4.59226e-06
4.62671e-06
4.95934e-06
5.37232e-06
5.82087e-06
6.27242e-06
7.00483e-06
8.20846e-06
9.83466e-06
1.21563e-05
1.64175e-05
2.3279e-05
2.94415e-05
2.10742e-05
4.16798e-06
4.04125e-06
4.89715e-06
5.50422e-06
5.73195e-06
6.37052e-06
7.36013e-06
8.15867e-06
1.06024e-05
1.27639e-05
1.61144e-05
2.36867e-05
2.96451e-05
2.06609e-05
4.56844e-06
4.00109e-06
4.67676e-06
5.24507e-06
5.66873e-06
6.63844e-06
7.44983e-06
8.69287e-06
1.1046e-05
1.32187e-05
1.73255e-05
2.58953e-05
2.94548e-05
1.93351e-05
4.20109e-06
4.63646e-06
4.88427e-06
5.59873e-06
6.75004e-06
7.84042e-06
9.02511e-06
1.10672e-05
1.23603e-05
1.76002e-05
2.68548e-05
2.95767e-05
1.90616e-05
3.59579e-06
2.86655e-06
4.35831e-06
5.55529e-06
6.4516e-06
7.96973e-06
9.43692e-06
1.15717e-05
1.33673e-05
1.83084e-05
2.70904e-05
3.0074e-05
1.83345e-05
3.39981e-06
4.59724e-06
4.34482e-06
4.46494e-06
6.51698e-06
7.99722e-06
9.28206e-06
1.16886e-05
1.41853e-05
1.83364e-05
2.63114e-05
2.9865e-05
1.75244e-05
3.40966e-06
4.58229e-06
5.38446e-06
5.90411e-06
8.14915e-06
1.02807e-05
1.20571e-05
1.45565e-05
1.96141e-05
2.72271e-05
3.25228e-05
1.69142e-05
4.25732e-06
4.17515e-06
5.17452e-06
6.54257e-06
8.00737e-06
9.69782e-06
1.23351e-05
1.47693e-05
2.06453e-05
2.71346e-05
3.24002e-05
1.63377e-05
3.94517e-06
4.65485e-06
5.26732e-06
6.41232e-06
8.0661e-06
1.03554e-05
1.29222e-05
1.53457e-05
2.09154e-05
2.771e-05
3.10595e-05
1.59081e-05
4.18655e-06
4.47118e-06
5.45345e-06
6.5015e-06
8.31851e-06
9.91714e-06
1.30254e-05
1.58334e-05
2.07111e-05
2.88473e-05
3.14475e-05
1.51085e-05
4.78752e-06
5.54188e-06
6.70331e-06
8.29956e-06
1.04488e-05
1.29071e-05
1.55453e-05
2.25377e-05
2.91151e-05
3.21594e-05
1.47444e-05
4.75722e-06
5.67585e-06
6.80512e-06
8.45927e-06
1.04067e-05
1.31877e-05
1.62919e-05
2.26441e-05
2.96506e-05
3.34553e-05
1.46062e-05
4.91392e-06
5.78507e-06
6.90819e-06
8.65269e-06
1.05384e-05
1.33634e-05
1.65796e-05
2.31786e-05
3.19259e-05
3.43332e-05
1.43625e-05
4.97521e-06
5.87294e-06
7.05921e-06
8.69098e-06
1.06853e-05
1.33582e-05
1.6723e-05
2.32551e-05
3.18995e-05
3.40855e-05
1.39362e-05
5.04542e-06
5.97032e-06
7.09861e-06
8.84199e-06
1.07927e-05
1.35932e-05
1.67984e-05
2.35268e-05
3.2188e-05
3.4627e-05
1.40027e-05
5.11135e-06
6.02279e-06
7.20479e-06
8.89879e-06
1.08616e-05
1.36203e-05
1.69805e-05
2.36158e-05
3.2369e-05
3.46708e-05
1.36023e-05
5.15068e-06
6.08226e-06
7.24467e-06
8.9668e-06
1.0935e-05
1.37173e-05
1.70489e-05
2.3759e-05
3.25457e-05
3.48152e-05
1.36111e-05
6.11317e-06
7.28429e-06
9.00566e-06
1.09719e-05
1.37595e-05
1.71195e-05
2.38219e-05
3.26402e-05
3.48943e-05
1.34792e-05
6.13088e-06
7.30129e-06
9.02592e-06
1.0991e-05
1.37842e-05
1.71518e-05
2.38505e-05
3.26834e-05
3.49332e-05
1.34373e-05
8.99147e-06
9.30725e-06
9.50636e-06
9.85056e-06
1.04256e-05
1.14494e-05
1.2821e-05
1.56715e-05
1.92759e-05
2.53631e-05
3.07544e-05
4.36519e-05
6.36766e-05
7.21995e-05
2.38605e-05
9.02747e-06
9.41535e-06
9.59752e-06
1.01221e-05
1.08518e-05
1.20031e-05
1.378e-05
1.69712e-05
2.0827e-05
2.69435e-05
3.29733e-05
4.5982e-05
6.61153e-05
7.22338e-05
2.31122e-05
9.39387e-06
9.60221e-06
1.0224e-05
1.09611e-05
1.22128e-05
1.40034e-05
1.71526e-05
2.09466e-05
2.72177e-05
3.31606e-05
4.60841e-05
6.65928e-05
7.3088e-05
2.27983e-05
9.50427e-06
9.86879e-06
1.04965e-05
1.12869e-05
1.27619e-05
1.49341e-05
1.8348e-05
2.23587e-05
2.87635e-05
3.46297e-05
4.83934e-05
6.91057e-05
7.2891e-05
2.20975e-05
9.95971e-06
1.05435e-05
1.14086e-05
1.30247e-05
1.52287e-05
1.86541e-05
2.26551e-05
2.9099e-05
3.48681e-05
4.86928e-05
6.96308e-05
7.35169e-05
2.17734e-05
1.01001e-05
1.07463e-05
1.17613e-05
1.35483e-05
1.60619e-05
1.96844e-05
2.38176e-05
3.03476e-05
3.64352e-05
5.05434e-05
7.0944e-05
7.39307e-05
2.11458e-05
1.02604e-05
1.10551e-05
1.19971e-05
1.37806e-05
1.63534e-05
2.0158e-05
2.42964e-05
3.07981e-05
3.71556e-05
5.11259e-05
7.15019e-05
7.40463e-05
2.08406e-05
1.12418e-05
1.23529e-05
1.42925e-05
1.69327e-05
2.10156e-05
2.5566e-05
3.18717e-05
3.82041e-05
5.30431e-05
7.28706e-05
7.53014e-05
2.02948e-05
1.15089e-05
1.26138e-05
1.46121e-05
1.72313e-05
2.14006e-05
2.58799e-05
3.2695e-05
3.90188e-05
5.37367e-05
7.3485e-05
7.53946e-05
2.00009e-05
1.17589e-05
1.2939e-05
1.5068e-05
1.78308e-05
2.20795e-05
2.70649e-05
3.37266e-05
4.01798e-05
5.47876e-05
7.46907e-05
7.51162e-05
1.95299e-05
1.19898e-05
1.32632e-05
1.53058e-05
1.81661e-05
2.23299e-05
2.73496e-05
3.44205e-05
4.10845e-05
5.56719e-05
7.5883e-05
7.55477e-05
1.92759e-05
1.34442e-05
1.5743e-05
1.84815e-05
2.31137e-05
2.77698e-05
3.51163e-05
4.18022e-05
5.73297e-05
7.64915e-05
7.59176e-05
1.89015e-05
1.38358e-05
1.59641e-05
1.89541e-05
2.30296e-05
2.85676e-05
3.53349e-05
4.28777e-05
5.80536e-05
7.75487e-05
7.63935e-05
1.86311e-05
1.39391e-05
1.62854e-05
1.90776e-05
2.37914e-05
2.84718e-05
3.61492e-05
4.32445e-05
5.9184e-05
7.91519e-05
7.70233e-05
1.83595e-05
1.42381e-05
1.64809e-05
1.95335e-05
2.37702e-05
2.90655e-05
3.60538e-05
4.40929e-05
5.98605e-05
7.96685e-05
7.69739e-05
1.81416e-05
1.43504e-05
1.6729e-05
1.96044e-05
2.41801e-05
2.925e-05
3.66501e-05
4.40589e-05
6.04884e-05
8.0478e-05
7.74563e-05
1.79154e-05
1.45322e-05
1.68544e-05
1.98729e-05
2.43212e-05
2.94587e-05
3.67148e-05
4.45797e-05
6.07245e-05
8.0766e-05
7.74317e-05
1.7787e-05
1.46236e-05
1.70008e-05
1.99776e-05
2.44836e-05
2.96331e-05
3.69465e-05
4.47268e-05
6.1107e-05
8.11628e-05
7.75669e-05
1.764e-05
1.70783e-05
2.00765e-05
2.45832e-05
2.97336e-05
3.70465e-05
4.48886e-05
6.12617e-05
8.13477e-05
7.76177e-05
1.75657e-05
1.71226e-05
2.01216e-05
2.46338e-05
2.97856e-05
3.71047e-05
4.49614e-05
6.13454e-05
8.14423e-05
7.76436e-05
1.75157e-05
1.58988e-05
1.63091e-05
1.66454e-05
1.74209e-05
1.81935e-05
1.99463e-05
2.20286e-05
2.68895e-05
3.26118e-05
4.34764e-05
5.32638e-05
7.67529e-05
0.000112116
0.00011382
2.70593e-05
1.61591e-05
1.65977e-05
1.70432e-05
1.79546e-05
1.88664e-05
2.08735e-05
2.34717e-05
2.88165e-05
3.49497e-05
4.60916e-05
5.64662e-05
8.06864e-05
0.000114997
0.000112464
2.63298e-05
1.67512e-05
1.71963e-05
1.81226e-05
1.90563e-05
2.11441e-05
2.36498e-05
2.88898e-05
3.48661e-05
4.60576e-05
5.62981e-05
8.07081e-05
0.000115696
0.00011405
2.59977e-05
1.70503e-05
1.75701e-05
1.85739e-05
1.96643e-05
2.19568e-05
2.488e-05
3.05541e-05
3.69488e-05
4.83576e-05
5.87821e-05
8.38915e-05
0.000118019
0.000113281
2.53154e-05
1.77622e-05
1.88031e-05
1.9925e-05
2.22974e-05
2.5188e-05
3.08042e-05
3.70817e-05
4.85445e-05
5.9081e-05
8.43311e-05
0.000118923
0.00011399
2.49608e-05
1.81123e-05
1.92438e-05
2.04605e-05
2.2972e-05
2.62097e-05
3.21416e-05
3.88229e-05
5.04477e-05
6.11871e-05
8.69451e-05
0.000120626
0.000113814
2.43469e-05
1.83768e-05
1.94253e-05
2.07251e-05
2.33519e-05
2.65542e-05
3.25713e-05
3.92198e-05
5.08474e-05
6.17858e-05
8.77932e-05
0.000121714
0.000113929
2.39908e-05
1.9904e-05
2.1297e-05
2.39618e-05
2.73421e-05
3.36011e-05
4.06676e-05
5.24139e-05
6.34998e-05
8.99564e-05
0.000123175
0.000114109
2.34602e-05
2.01343e-05
2.15215e-05
2.43423e-05
2.77633e-05
3.40317e-05
4.10983e-05
5.30787e-05
6.4366e-05
9.08798e-05
0.000124163
0.000114012
2.31192e-05
2.044e-05
2.19977e-05
2.48998e-05
2.84758e-05
3.48577e-05
4.22652e-05
5.42898e-05
6.58035e-05
9.25005e-05
0.000125462
0.00011384
2.26762e-05
2.08044e-05
2.23834e-05
2.52312e-05
2.88525e-05
3.53021e-05
4.26348e-05
5.49075e-05
6.67372e-05
9.37844e-05
0.000126496
0.000113827
2.2362e-05
2.25602e-05
2.56896e-05
2.93736e-05
3.60228e-05
4.34064e-05
5.57343e-05
6.77972e-05
9.5322e-05
0.000127363
0.000113786
2.2012e-05
2.30836e-05
2.60532e-05
2.98667e-05
3.62268e-05
4.40266e-05
5.62053e-05
6.86344e-05
9.64487e-05
0.000128472
0.00011377
2.17454e-05
2.31791e-05
2.63659e-05
3.00891e-05
3.69739e-05
4.43113e-05
5.69138e-05
6.9338e-05
9.76464e-05
0.000129566
0.000113846
2.14731e-05
2.35511e-05
2.66468e-05
3.06483e-05
3.71144e-05
4.4918e-05
5.71109e-05
7.01218e-05
9.84929e-05
0.000130256
0.000113709
2.12508e-05
2.36804e-05
2.69416e-05
3.07513e-05
3.7551e-05
4.52151e-05
5.7741e-05
7.03433e-05
9.9207e-05
0.000130968
0.000113742
2.10527e-05
2.39062e-05
2.70963e-05
3.10893e-05
3.77864e-05
4.55126e-05
5.78881e-05
7.09192e-05
9.96089e-05
0.000131271
0.000113616
2.08862e-05
2.40145e-05
2.72787e-05
3.12329e-05
3.79832e-05
4.5743e-05
5.81897e-05
7.1158e-05
0.000100069
0.000131651
0.000113578
2.07704e-05
2.73762e-05
3.13604e-05
3.81195e-05
4.58885e-05
5.83284e-05
7.13714e-05
0.000100292
0.000131836
0.000113526
2.06824e-05
2.74316e-05
3.1421e-05
3.81865e-05
4.59626e-05
5.84072e-05
7.14692e-05
0.000100406
0.000131924
0.000113485
2.06363e-05
2.42513e-05
2.48879e-05
2.52904e-05
2.65081e-05
2.72422e-05
2.97123e-05
3.16379e-05
3.78582e-05
4.38478e-05
5.89205e-05
7.15998e-05
0.000107376
0.000160288
0.000154367
2.94387e-05
2.46282e-05
2.52987e-05
2.58383e-05
2.71372e-05
2.80637e-05
3.07615e-05
3.32314e-05
3.99477e-05
4.66168e-05
6.21365e-05
7.56709e-05
0.000112913
0.000163543
0.000151296
2.87003e-05
2.55064e-05
2.60063e-05
2.73382e-05
2.82698e-05
3.10333e-05
3.33445e-05
3.9968e-05
4.63403e-05
6.18552e-05
7.50599e-05
0.000112478
0.000164352
0.000153566
2.83393e-05
2.58779e-05
2.6471e-05
2.7883e-05
2.89806e-05
3.18926e-05
3.46446e-05
4.16872e-05
4.87221e-05
6.45397e-05
7.82892e-05
0.000116615
0.000166742
0.000152182
2.76587e-05
2.6699e-05
2.81596e-05
2.92616e-05
3.22579e-05
3.49385e-05
4.19405e-05
4.87296e-05
6.45886e-05
7.83179e-05
0.00011708
0.000167873
0.000152779
2.72774e-05
2.71388e-05
2.8632e-05
2.98633e-05
3.29541e-05
3.59831e-05
4.32798e-05
5.06881e-05
6.67732e-05
8.09224e-05
0.00012028
0.00016971
0.000152186
2.6673e-05
2.73847e-05
2.88838e-05
3.01775e-05
3.33921e-05
3.63897e-05
4.37081e-05
5.09452e-05
6.70507e-05
8.13461e-05
0.000121283
0.000170931
0.000152042
2.62914e-05
2.93762e-05
3.07788e-05
3.40075e-05
3.72293e-05
4.47336e-05
5.24782e-05
6.87638e-05
8.34321e-05
0.000123743
0.0001724
0.000151692
2.57716e-05
2.96666e-05
3.10303e-05
3.44093e-05
3.77067e-05
4.52413e-05
5.28965e-05
6.92556e-05
8.41351e-05
0.000124971
0.000173507
0.000151289
2.5406e-05
2.99595e-05
3.15609e-05
3.49966e-05
3.84233e-05
4.60601e-05
5.40805e-05
7.05363e-05
8.577e-05
0.000126923
0.000174748
0.000150892
2.49719e-05
3.03994e-05
3.19474e-05
3.53574e-05
3.88485e-05
4.65924e-05
5.45629e-05
7.10851e-05
8.65945e-05
0.000128347
0.000175736
0.00015049
2.46404e-05
3.21764e-05
3.57924e-05
3.94501e-05
4.72505e-05
5.54423e-05
7.20118e-05
8.78011e-05
0.000129936
0.000176689
0.000150128
2.42908e-05
3.26743e-05
3.62388e-05
3.99129e-05
4.76572e-05
5.59878e-05
7.25632e-05
8.85794e-05
0.000131226
0.000177662
0.000149769
2.40087e-05
3.28454e-05
3.65083e-05
4.02296e-05
4.82695e-05
5.65373e-05
7.32209e-05
8.94623e-05
0.000132442
0.000178511
0.000149463
2.37397e-05
3.31899e-05
3.68374e-05
4.0768e-05
4.85837e-05
5.70847e-05
7.36357e-05
9.01714e-05
0.000133396
0.000179165
0.000149126
2.35161e-05
3.33557e-05
3.71296e-05
4.09384e-05
4.89618e-05
5.7464e-05
7.41968e-05
9.06531e-05
0.000134185
0.000179729
0.000148864
2.33177e-05
3.35848e-05
3.73045e-05
4.12701e-05
4.92622e-05
5.78213e-05
7.4446e-05
9.12039e-05
0.000134749
0.000180044
0.000148601
2.31563e-05
3.37055e-05
3.74902e-05
4.14453e-05
4.9467e-05
5.80741e-05
7.47622e-05
9.15331e-05
0.00013525
0.000180356
0.000148405
2.30301e-05
3.75967e-05
4.15818e-05
4.96191e-05
5.82495e-05
7.49282e-05
9.17789e-05
0.000135536
0.000180518
0.000148243
2.29462e-05
3.76548e-05
4.16498e-05
4.96931e-05
5.83364e-05
7.50178e-05
9.18951e-05
0.00013567
0.000180583
0.000148128
2.28989e-05
3.38446e-05
3.47627e-05
3.5104e-05
3.68105e-05
3.72878e-05
4.05927e-05
4.17657e-05
4.91971e-05
5.3497e-05
7.19269e-05
8.39081e-05
0.000132445
0.000206531
0.000197659
3.13285e-05
3.43046e-05
3.52443e-05
3.57377e-05
3.74913e-05
3.8215e-05
4.16592e-05
4.33801e-05
5.11785e-05
5.63599e-05
7.52992e-05
8.84971e-05
0.000139596
0.000210283
0.000192695
3.05865e-05
3.54525e-05
3.58963e-05
3.77144e-05
3.83941e-05
4.19289e-05
4.34599e-05
5.12378e-05
5.6002e-05
7.49098e-05
8.7438e-05
0.00013854
0.000211079
0.000195514
3.01991e-05
3.58627e-05
3.64366e-05
3.82906e-05
3.91716e-05
4.27791e-05
4.47662e-05
5.28088e-05
5.83926e-05
7.76001e-05
9.10192e-05
0.000143614
0.000213666
0.000193682
2.95238e-05
3.66684e-05
3.85798e-05
3.94435e-05
4.31621e-05
4.50565e-05
5.31271e-05
5.83873e-05
7.7619e-05
9.07576e-05
0.000143993
0.000214885
0.000194018
2.91174e-05
3.71466e-05
3.90677e-05
4.01054e-05
4.38406e-05
4.61064e-05
5.43315e-05
6.03207e-05
7.97338e-05
9.35715e-05
0.000147707
0.000216827
0.000193153
2.85225e-05
3.7391e-05
3.93762e-05
4.04317e-05
4.42904e-05
4.65238e-05
5.48084e-05
6.05834e-05
8.00014e-05
9.3814e-05
0.000148834
0.000218085
0.000192652
2.81178e-05
3.98439e-05
4.10323e-05
4.48704e-05
4.73724e-05
5.57177e-05
6.20731e-05
8.16053e-05
9.60043e-05
0.000151585
0.000219589
0.000191957
2.7607e-05
4.01588e-05
4.13301e-05
4.52994e-05
4.78498e-05
5.62744e-05
6.25248e-05
8.20454e-05
9.65454e-05
0.00015305
0.000220747
0.000191225
2.72239e-05
4.04866e-05
4.18655e-05
4.58473e-05
4.85612e-05
5.6997e-05
6.36699e-05
8.32476e-05
9.82382e-05
0.000155229
0.000221965
0.000190526
2.67955e-05
4.08958e-05
4.22385e-05
4.62215e-05
4.90013e-05
5.75506e-05
6.42225e-05
8.37843e-05
9.8965e-05
0.000156784
0.00022296
0.000189794
2.64522e-05
4.2541e-05
4.66329e-05
4.96085e-05
5.8144e-05
6.50812e-05
8.4668e-05
0.000100229
0.000158511
0.000223922
0.000189126
2.61037e-05
4.29569e-05
4.70759e-05
5.00456e-05
5.8607e-05
6.56372e-05
8.52161e-05
0.000100988
0.000159915
0.000224788
0.00018847
2.58145e-05
4.32183e-05
4.73399e-05
5.04208e-05
5.91063e-05
6.62613e-05
8.58371e-05
0.000101921
0.000161229
0.00022553
0.000187876
2.55429e-05
4.35126e-05
4.76653e-05
5.08871e-05
5.94915e-05
6.67709e-05
8.63087e-05
0.000102608
0.000162306
0.000226131
0.000187316
2.53168e-05
4.37153e-05
4.79365e-05
5.11271e-05
5.98143e-05
6.71821e-05
8.67804e-05
0.000103217
0.000163211
0.000226616
0.000186831
2.51196e-05
4.39299e-05
4.8125e-05
5.1421e-05
6.01171e-05
6.75589e-05
8.70858e-05
0.000103741
0.000163915
0.000226946
0.00018641
2.49565e-05
4.40624e-05
4.82964e-05
5.16135e-05
6.03183e-05
6.78155e-05
8.73724e-05
0.00010412
0.000164472
0.000227211
0.000186067
2.48322e-05
4.84046e-05
5.1749e-05
6.04653e-05
6.80015e-05
8.75439e-05
0.000104381
0.000164818
0.000227356
0.000185797
2.47456e-05
4.84607e-05
5.18183e-05
6.0538e-05
6.80928e-05
8.76321e-05
0.000104507
0.000164973
0.000227401
0.00018561
2.46988e-05
4.47349e-05
4.59586e-05
4.61674e-05
4.84152e-05
4.8519e-05
5.28024e-05
5.29355e-05
6.20006e-05
6.32871e-05
8.5243e-05
9.17951e-05
0.00015319
0.000251926
0.000244916
3.28864e-05
4.52554e-05
4.64826e-05
4.68729e-05
4.91306e-05
4.95419e-05
5.38551e-05
5.45857e-05
6.37694e-05
6.61075e-05
8.83879e-05
9.64952e-05
0.00016202
0.000256263
0.000237816
3.21421e-05
4.6685e-05
4.70164e-05
4.93615e-05
4.96791e-05
5.41147e-05
5.46255e-05
6.38988e-05
6.57222e-05
8.80701e-05
9.50477e-05
0.000160322
0.000257055
0.000240918
3.17327e-05
4.71246e-05
4.7616e-05
4.99465e-05
5.05254e-05
5.49402e-05
5.59642e-05
6.52584e-05
6.80244e-05
9.04607e-05
9.8594e-05
0.000166264
0.000259864
0.00023872
3.1062e-05
4.78377e-05
5.02405e-05
5.0781e-05
5.5325e-05
5.62284e-05
6.56324e-05
6.80473e-05
9.05687e-05
9.80965e-05
0.000166617
0.000261185
0.000238624
3.06361e-05
4.8347e-05
5.07323e-05
5.14963e-05
5.59778e-05
5.73082e-05
6.66588e-05
6.98856e-05
9.23776e-05
0.000100817
0.000170779
0.000263239
0.000237468
3.00471e-05
4.86044e-05
5.10695e-05
5.18156e-05
5.64131e-05
5.77054e-05
6.71645e-05
7.01978e-05
9.27216e-05
0.000100918
0.000172123
0.000264575
0.000236529
2.96267e-05
5.1508e-05
5.24289e-05
5.69546e-05
5.85733e-05
6.79323e-05
7.1619e-05
9.40633e-05
0.000103004
0.000175145
0.000266163
0.000235465
2.91193e-05
5.18314e-05
5.27538e-05
5.73918e-05
5.90286e-05
6.84766e-05
7.21038e-05
9.45114e-05
0.000103439
0.000176898
0.0002674
0.000234351
2.87254e-05
5.21934e-05
5.32944e-05
5.78792e-05
5.97434e-05
6.90879e-05
7.31854e-05
9.54952e-05
0.000105033
0.000179307
0.000268658
0.000233281
2.82976e-05
5.25475e-05
5.36446e-05
5.82596e-05
6.01805e-05
6.96088e-05
7.37671e-05
9.60143e-05
0.000105693
0.000181098
0.000269705
0.000232193
2.79471e-05
5.40173e-05
5.86476e-05
6.07762e-05
7.01238e-05
7.45845e-05
9.67367e-05
0.000106902
0.000183032
0.000270687
0.000231182
2.75971e-05
5.43628e-05
5.90417e-05
6.11957e-05
7.05599e-05
7.51509e-05
9.72375e-05
0.00010763
0.000184631
0.00027153
0.00023021
2.73027e-05
5.46801e-05
5.93236e-05
6.16065e-05
7.09785e-05
7.57691e-05
9.77619e-05
0.00010853
0.000186128
0.000272254
0.000229325
2.7029e-05
5.49473e-05
5.96186e-05
6.20046e-05
7.13436e-05
7.62566e-05
9.81837e-05
0.000109193
0.000187384
0.000272847
0.000228517
2.67986e-05
5.51713e-05
5.98658e-05
6.22908e-05
7.16298e-05
7.66766e-05
9.85589e-05
0.000109819
0.000188449
0.00027332
0.000227812
2.65992e-05
5.53723e-05
6.00575e-05
6.25549e-05
7.18936e-05
7.70406e-05
9.88486e-05
0.000110319
0.000189298
0.000273669
0.00022721
2.64353e-05
5.55132e-05
6.02121e-05
6.27504e-05
7.20801e-05
7.72981e-05
9.90801e-05
0.000110704
0.000189942
0.000273919
0.000226718
2.63088e-05
6.03166e-05
6.28832e-05
7.22101e-05
7.7481e-05
9.92307e-05
0.000110962
0.000190355
0.000274057
0.000226333
2.62221e-05
6.03688e-05
6.2951e-05
7.22754e-05
7.75718e-05
9.93054e-05
0.000111089
0.000190538
0.000274091
0.00022607
2.61745e-05
5.71257e-05
5.86017e-05
5.87675e-05
6.14641e-05
6.13621e-05
6.65288e-05
6.58441e-05
7.68063e-05
7.50074e-05
0.000101772
9.95042e-05
0.000176709
0.000300044
0.000293853
3.42705e-05
5.76964e-05
5.91663e-05
5.9546e-05
6.22093e-05
6.24868e-05
6.756e-05
6.75984e-05
7.83637e-05
7.78922e-05
0.0001045
0.000104255
0.00018733
0.000304817
0.000284311
3.35175e-05
5.93538e-05
5.96711e-05
6.24218e-05
6.25827e-05
6.77883e-05
6.75811e-05
7.852e-05
7.74469e-05
0.000104332
0.000102423
0.000185242
0.000305787
0.000287347
3.30941e-05
5.98153e-05
6.032e-05
6.30127e-05
6.35038e-05
6.858e-05
6.89991e-05
7.96741e-05
7.97554e-05
0.000106282
0.000105839
0.000191923
0.000308748
0.000284747
3.24209e-05
6.05289e-05
6.33069e-05
6.37416e-05
6.89446e-05
6.92265e-05
8.00533e-05
7.97817e-05
0.000106507
0.000105149
0.000192592
0.000310265
0.000284056
3.19824e-05
6.10741e-05
6.37935e-05
6.45085e-05
6.9561e-05
7.03666e-05
8.09075e-05
8.1605e-05
0.000107911
0.000107701
0.000197127
0.000312407
0.000282496
3.13923e-05
6.1339e-05
6.41371e-05
6.48173e-05
6.99795e-05
7.07394e-05
8.13916e-05
8.19512e-05
0.000108318
0.00010772
0.000198974
0.000313922
0.000281033
3.09616e-05
6.45514e-05
6.54544e-05
7.04767e-05
7.16531e-05
8.20325e-05
8.33618e-05
0.000109325
0.00010966
0.000202318
0.000315604
0.000279512
3.04528e-05
6.48769e-05
6.57895e-05
7.09032e-05
7.20866e-05
8.25239e-05
8.38899e-05
0.000109776
0.00011009
0.00020456
0.000316966
0.000277935
3.00507e-05
6.52485e-05
6.63404e-05
7.13357e-05
7.28185e-05
8.30316e-05
8.49528e-05
0.000110482
0.000111559
0.000207293
0.000318294
0.00027642
2.96205e-05
6.55689e-05
6.66743e-05
7.17089e-05
7.32546e-05
8.34887e-05
8.55593e-05
0.000110933
0.000112234
0.000209499
0.000319421
0.000274916
2.92633e-05
6.7092e-05
7.20714e-05
7.38452e-05
8.39218e-05
8.63713e-05
0.000111456
0.000113374
0.000211749
0.000320446
0.00027351
2.89103e-05
6.74025e-05
7.24144e-05
7.42572e-05
8.43011e-05
8.69526e-05
0.000111857
0.000114121
0.000213683
0.000321321
0.000272181
2.86103e-05
6.77395e-05
7.27042e-05
7.46905e-05
8.46553e-05
8.75689e-05
0.000112244
0.000114993
0.000215462
0.000322067
0.000270973
2.83332e-05
6.80014e-05
7.29689e-05
7.50503e-05
8.4963e-05
8.80547e-05
0.000112562
0.000115668
0.000216984
0.00032268
0.000269884
2.80984e-05
6.82328e-05
7.3194e-05
7.53563e-05
8.52165e-05
8.84865e-05
0.000112834
0.000116297
0.000218272
0.000323167
0.000268936
2.78951e-05
6.84265e-05
7.33786e-05
7.56083e-05
8.5434e-05
8.88388e-05
0.000113054
0.000116798
0.000219305
0.000323531
0.000268132
2.77278e-05
6.85709e-05
7.352e-05
7.5801e-05
8.55961e-05
8.91019e-05
0.00011322
0.000117187
0.000220077
0.00032378
0.000267471
2.75998e-05
7.36175e-05
7.59315e-05
8.57061e-05
8.92814e-05
0.00011333
0.000117446
0.000220575
0.000323913
0.000266957
2.75111e-05
7.36651e-05
7.59971e-05
8.5761e-05
8.93712e-05
0.000113383
0.000117575
0.000220796
0.000323938
0.000266606
2.74623e-05
7.1303e-05
7.28413e-05
7.32919e-05
7.60669e-05
7.6393e-05
8.18003e-05
8.14435e-05
9.34885e-05
9.04696e-05
0.000122383
0.000111873
0.000214112
0.000355114
0.000340012
3.55458e-05
7.19208e-05
7.34537e-05
7.41394e-05
7.68546e-05
7.76221e-05
8.28274e-05
8.336e-05
9.48765e-05
9.36779e-05
0.000124627
0.000117454
0.000226482
0.000359837
0.000327952
3.4777e-05
7.36095e-05
7.42496e-05
7.70165e-05
7.769e-05
8.29835e-05
8.32963e-05
9.49716e-05
9.31423e-05
0.000124534
0.000115038
0.000224682
0.000361208
0.000330582
3.4347e-05
7.40938e-05
7.4938e-05
7.7623e-05
7.86799e-05
8.37483e-05
8.48202e-05
9.59405e-05
9.56446e-05
0.000125957
0.000118874
0.000231825
0.000364155
0.000327512
3.3665e-05
7.51449e-05
7.78964e-05
7.89103e-05
8.40649e-05
8.50318e-05
9.62655e-05
9.56825e-05
0.000126223
0.000118016
0.000233372
0.000365897
0.000326131
3.32186e-05
7.57168e-05
7.83878e-05
7.97178e-05
8.46489e-05
8.62424e-05
9.69584e-05
9.76297e-05
0.000127156
0.000120797
0.0002382
0.000368081
0.000324067
3.26231e-05
7.5986e-05
7.8718e-05
8.00273e-05
8.50346e-05
8.66136e-05
9.73816e-05
9.80366e-05
0.000127528
0.000120902
0.000240877
0.000369757
0.000322039
3.21845e-05
7.91238e-05
8.06798e-05
8.55021e-05
8.75725e-05
9.7902e-05
9.95335e-05
0.00012816
0.000122984
0.000244645
0.000371477
0.000319998
3.16713e-05
7.94405e-05
8.1021e-05
8.59008e-05
8.80106e-05
9.83285e-05
0.00010014
0.000128507
0.00012365
0.000247584
0.000372922
0.000317921
3.12618e-05
7.98118e-05
8.1576e-05
8.62996e-05
8.87576e-05
9.87405e-05
0.000101263
0.000128931
0.000125255
0.000250772
0.000374272
0.00031593
3.08275e-05
8.01171e-05
8.19059e-05
8.66533e-05
8.92038e-05
9.91281e-05
0.000101936
0.000129224
0.000126199
0.00025354
0.000375432
0.000313986
3.04636e-05
8.23367e-05
8.69951e-05
8.97928e-05
9.94878e-05
0.00010279
0.000129535
0.000127491
0.000256221
0.000376459
0.00031217
3.01062e-05
8.26393e-05
8.73031e-05
9.0208e-05
9.98071e-05
0.000103425
0.000129774
0.000128479
0.000258598
0.000377331
0.000310471
2.98003e-05
8.29749e-05
8.75867e-05
9.06498e-05
0.000100108
0.000104072
0.000129999
0.000129511
0.000260744
0.000378065
0.000308932
2.95186e-05
8.32371e-05
8.78314e-05
9.09979e-05
0.00010036
0.00010459
0.000130178
0.000130371
0.000262596
0.000378662
0.000307556
2.92783e-05
8.34682e-05
8.80406e-05
9.1307e-05
0.000100581
0.000105048
0.000130333
0.000131142
0.000264157
0.000379131
0.000306363
2.9069e-05
8.3657e-05
8.82147e-05
9.1555e-05
0.000100761
0.000105413
0.000130455
0.000131764
0.000265408
0.000379476
0.000305349
2.88998e-05
8.38002e-05
8.83469e-05
9.17438e-05
0.000100898
0.000105689
0.000130546
0.000132241
0.000266338
0.000379702
0.000304517
2.87688e-05
8.84376e-05
9.18712e-05
0.00010099
0.000105873
0.000130605
0.000132556
0.000266938
0.000379815
0.000303866
2.86782e-05
8.84809e-05
9.19339e-05
0.000101035
0.000105965
0.000130631
0.000132713
0.000267202
0.000379822
0.000303418
2.86275e-05
8.75357e-05
8.8846e-05
9.00975e-05
9.23422e-05
9.41653e-05
9.85655e-05
0.000100789
0.000111486
0.000111929
0.000145577
0.000133984
0.000273056
0.00041842
0.000379117
3.6745e-05
8.81991e-05
8.95267e-05
9.09958e-05
9.32126e-05
9.54743e-05
9.96674e-05
0.000102864
0.000112827
0.000115678
0.000147299
0.000141992
0.000286659
0.000422401
0.000364876
3.5955e-05
8.96238e-05
9.10994e-05
9.32898e-05
9.55368e-05
9.96917e-05
0.000102799
0.000112737
0.000115123
0.000147086
0.000138762
0.000285991
0.000424222
0.000366901
3.55228e-05
9.01455e-05
9.18082e-05
9.39404e-05
9.65601e-05
0.00010048
0.000104396
0.000113594
0.000117939
0.000147864
0.000144023
0.000293204
0.000426936
0.00036336
3.48278e-05
9.20218e-05
9.41716e-05
9.68022e-05
0.00010072
0.000104637
0.000113804
0.000118087
0.000148023
0.000143279
0.000295994
0.000428825
0.000361313
3.43757e-05
9.26054e-05
9.46888e-05
9.76167e-05
0.000101309
0.00010588
0.000114387
0.00012023
0.000148395
0.000146931
0.000301042
0.000430895
0.000358749
3.37717e-05
9.28758e-05
9.4997e-05
9.79383e-05
0.000101651
0.000106282
0.000114727
0.000120791
0.000148579
0.000147643
0.000304672
0.000432577
0.000356191
3.3326e-05
9.54174e-05
9.85839e-05
0.00010212
0.00010725
0.000115168
0.000122413
0.000148792
0.00015036
0.000308896
0.000434192
0.000353664
3.28062e-05
9.57211e-05
9.8926e-05
0.000102496
0.000107713
0.000115531
0.000123173
0.000148898
0.000151801
0.000312547
0.000435567
0.000351128
3.23891e-05
9.60998e-05
9.94677e-05
0.000102896
0.000108445
0.000115898
0.000124378
0.000149026
0.00015399
0.000316212
0.000436804
0.000348706
3.1949e-05
9.64009e-05
9.97973e-05
0.000103234
0.000108906
0.000116234
0.000125172
0.000149076
0.000155678
0.000319527
0.000437859
0.000346367
3.1578e-05
0.000100213
0.000103576
0.000109477
0.000116561
0.000126087
0.000149159
0.000157542
0.000322635
0.000438767
0.000344188
3.12152e-05
0.000100514
0.000103872
0.000109896
0.000116846
0.000126807
0.000149191
0.00015916
0.000325425
0.000439525
0.000342163
3.09029e-05
0.000100835
0.000104156
0.000110325
0.000117123
0.0001275
0.000149239
0.000160709
0.000327914
0.000440147
0.000340335
3.06158e-05
0.000101092
0.000104396
0.000110667
0.000117352
0.000128068
0.000149262
0.000162058
0.000330066
0.000440641
0.000338708
3.03695e-05
0.000101316
0.000104602
0.000110966
0.000117556
0.000128559
0.000149289
0.000163229
0.00033187
0.000441014
0.000337299
3.01542e-05
0.000101496
0.000104773
0.000111206
0.000117722
0.000128947
0.000149306
0.000164181
0.000333311
0.000441276
0.000336102
2.99818e-05
0.000101634
0.000104903
0.000111386
0.000117849
0.000129239
0.00014932
0.000164903
0.00033438
0.000441432
0.000335117
2.98482e-05
0.000104991
0.000111506
0.000117933
0.000129431
0.000149326
0.000165379
0.000335065
0.000441491
0.00033434
2.97548e-05
0.000105032
0.000111564
0.000117973
0.000129523
0.000149327
0.00016561
0.000335361
0.000441461
0.000333797
2.9702e-05
0.000105967
0.000106864
0.000109333
0.000110583
0.000114906
0.000117068
0.000124515
0.000130471
0.000141701
0.00016849
0.000173863
0.000354105
0.000487717
0.00040971
3.7884e-05
0.000106673
0.000107645
0.000110255
0.000111608
0.000116233
0.000118407
0.000126638
0.000132102
0.000145908
0.000170015
0.000185902
0.00036797
0.000490319
0.000393872
3.70697e-05
0.000107667
0.00011035
0.000111579
0.000116302
0.000118252
0.00012662
0.000131688
0.000145516
0.00016931
0.000182254
0.000368947
0.000492459
0.000395309
3.66386e-05
0.000108246
0.00011105