/*--------------------------------*- C++ -*----------------------------------*\
  =========                 |
  \\      /  F ield         | OpenFOAM: The Open Source CFD Toolbox
   \\    /   O peration     | Website:  https://openfoam.org
    \\  /    A nd           | Version:  6
     \\/     M anipulation  |
\*---------------------------------------------------------------------------*/
FoamFile
{
    version     2.0;
    format      ascii;
    class       surfaceScalarField;
    location    "0.8";
    object      phi;
}
// * * * * * * * * * * * * * * * * * * * * * * * * * * * * * * * * * * * * * //

dimensions      [0 3 -1 0 0 0 0];

internalField   nonuniform List<scalar> 
184501
(
1.8239e-07
-5.66241e-07
-1.91412e-08
6.06981e-07
1.61109e-07
-5.8749e-07
-1.36626e-08
6.22434e-07
1.36561e-07
-6.00562e-07
-9.32892e-09
6.34438e-07
1.11612e-07
-6.15185e-07
-5.97347e-09
6.46107e-07
8.63386e-08
-6.37508e-07
-2.60286e-09
6.65384e-07
6.01433e-08
-6.58878e-07
-9.98735e-10
6.86072e-07
3.44177e-08
-6.83482e-07
-2.06577e-09
7.11273e-07
1.09594e-08
-7.11908e-07
-5.92441e-09
7.41291e-07
-1.02241e-08
-7.40863e-07
-1.05912e-08
7.72637e-07
-2.80798e-08
-7.71972e-07
-1.70489e-08
8.06876e-07
-4.95141e-08
-8.06531e-07
-1.58905e-08
8.43856e-07
-7.03481e-08
-8.53421e-07
-2.05615e-08
8.94817e-07
-7.50137e-08
-9.1834e-07
-4.2351e-08
9.65357e-07
-4.56271e-08
-9.63054e-07
-8.14175e-08
1.01508e-06
-7.6268e-07
-8.12564e-08
7.98309e-07
1.66854e-07
-1.22876e-08
1.4778e-07
-5.53238e-07
-1.51776e-08
1.24151e-07
-5.64294e-07
-1.26389e-08
1.00955e-07
-5.83332e-07
-8.65655e-09
7.67865e-08
-6.08461e-07
-4.87806e-09
5.16599e-08
-6.29695e-07
-4.05648e-09
2.70682e-08
-6.53874e-07
-5.01659e-09
4.70447e-09
-6.80973e-07
-8.57153e-09
-1.54591e-08
-7.0774e-07
-1.29586e-08
-3.30714e-08
-7.36008e-07
-1.83515e-08
-5.43913e-08
-7.68828e-07
-1.63834e-08
-7.35835e-08
-8.11012e-07
-2.32169e-08
-7.68112e-08
-8.71692e-07
-4.34199e-08
-4.51434e-08
-9.1041e-07
-8.43114e-08
-7.2363e-07
-8.4193e-08
1.34529e-07
-5.21732e-07
-9.41985e-09
1.11862e-07
-5.30692e-07
-1.09344e-08
9.10289e-08
-5.52603e-07
-9.89576e-09
6.80594e-08
-5.77907e-07
-7.58415e-09
4.33489e-08
-5.98762e-07
-6.22263e-09
1.97042e-08
-6.22877e-07
-7.35188e-09
-1.54108e-09
-6.48928e-07
-1.07997e-08
-2.11355e-08
-6.73616e-07
-1.45304e-08
-3.84539e-08
-6.99731e-07
-1.89586e-08
-5.86199e-08
-7.29765e-07
-1.88974e-08
-7.71164e-08
-7.68824e-07
-2.36914e-08
-7.92375e-08
-8.2511e-07
-4.44609e-08
-4.60382e-08
-8.58024e-07
-8.55859e-08
-6.81791e-07
-8.78776e-08
1.23053e-07
-1.53595e-08
1.00843e-07
-5.00659e-07
-7.82336e-09
8.07395e-08
-5.2076e-07
-1.17397e-08
5.78784e-08
-5.43857e-07
-1.11887e-08
3.41439e-08
-5.65495e-07
-9.53272e-09
1.23851e-08
-5.90411e-07
-1.07074e-08
-7.68504e-09
-6.15397e-07
-1.34599e-08
-2.67175e-08
-6.38043e-07
-1.65397e-08
-4.34429e-08
-6.62237e-07
-2.07691e-08
-6.29452e-08
-6.89136e-07
-2.11267e-08
-8.09393e-08
-7.26093e-07
-2.47372e-08
-8.13235e-08
-7.77617e-07
-4.71095e-08
-4.73023e-08
-8.05986e-07
-8.60583e-08
-6.39693e-07
-8.94002e-08
9.03492e-08
-4.68539e-07
-1.3849e-08
6.79489e-08
-4.82389e-07
-1.59713e-08
4.57408e-08
-5.06827e-07
-1.48227e-08
2.43613e-08
-5.2955e-07
-1.45655e-08
4.55123e-09
-5.56018e-07
-1.45831e-08
-1.43373e-08
-5.80588e-07
-1.5921e-08
-3.24446e-08
-6.01567e-07
-1.83688e-08
-4.83031e-08
-6.2405e-07
-2.23284e-08
-6.73311e-08
-6.48377e-07
-2.17303e-08
-8.44848e-08
-6.82151e-07
-2.67887e-08
-8.36802e-08
-7.29432e-07
-4.8989e-08
-4.88847e-08
-7.54577e-07
-8.62047e-08
-5.97034e-07
-9.15441e-08
7.13919e-08
-4.34653e-07
-7.31761e-09
5.14146e-08
-4.49721e-07
-1.26909e-08
3.30519e-08
-4.71558e-07
-1.69061e-08
1.34494e-08
-4.91741e-07
-1.82066e-08
-3.84635e-09
-5.19732e-07
-1.89905e-08
-2.08876e-08
-5.44616e-07
-1.89306e-08
-3.78528e-08
-5.64267e-07
-2.03351e-08
-5.31923e-08
-5.8474e-07
-2.397e-08
-7.17974e-08
-6.07541e-07
-2.22312e-08
-8.78087e-08
-6.37861e-07
-2.82787e-08
-8.58055e-08
-6.80738e-07
-5.06973e-08
-5.0652e-08
-7.02931e-07
-8.68e-08
-5.55069e-07
-9.26173e-08
6.33651e-08
-5.74159e-09
4.21531e-08
-4.20566e-07
-7.94249e-09
2.01339e-08
-4.39212e-07
-1.03268e-08
2.52328e-09
-4.57841e-07
-1.62887e-08
-1.24191e-08
-4.82562e-07
-2.2227e-08
-2.76102e-08
-5.07273e-07
-2.21524e-08
-4.34747e-08
-5.26408e-07
-2.19943e-08
-5.83328e-08
-5.44737e-07
-2.51456e-08
-7.60871e-08
-5.65651e-07
-2.41353e-08
-9.11112e-08
-5.93669e-07
-2.91672e-08
-8.79176e-08
-6.32147e-07
-5.1785e-08
-5.23546e-08
-6.52293e-07
-8.62006e-08
-5.12693e-07
-9.47298e-08
3.18546e-08
-3.9034e-07
-8.72128e-09
1.26726e-08
-4.07039e-07
-1.2991e-08
-5.63793e-09
-4.25943e-07
-1.35876e-08
-2.09866e-08
-4.46663e-07
-2.05503e-08
-3.45982e-08
-4.68646e-07
-2.50149e-08
-4.9041e-08
-4.87342e-07
-2.46235e-08
-6.31097e-08
-5.04341e-07
-2.63267e-08
-8.00898e-08
-5.23107e-07
-2.55642e-08
-9.45269e-08
-5.49157e-07
-3.00754e-08
-9.01106e-08
-5.83328e-07
-5.32347e-08
-5.41792e-08
-6.01953e-07
-8.6272e-08
-4.70509e-07
-9.63631e-08
2.22973e-08
-3.61231e-07
-7.40494e-09
2.72443e-09
-3.74777e-07
-1.26894e-08
-1.30878e-08
-3.9243e-07
-1.77009e-08
-2.79136e-08
-4.11163e-07
-2.06745e-08
-4.16654e-08
-4.29448e-07
-2.54461e-08
-5.48242e-08
-4.46985e-07
-2.71984e-08
-6.79893e-08
-4.635e-07
-2.76764e-08
-8.42434e-08
-4.80578e-07
-2.62748e-08
-9.77016e-08
-5.0382e-07
-3.18785e-08
-9.20986e-08
-5.34588e-07
-5.43435e-08
-5.57474e-08
-5.50717e-07
-8.75869e-08
-4.28665e-07
-9.75919e-08
1.42919e-08
-3.30695e-07
-8.39074e-09
-5.12566e-09
-3.43283e-07
-1.20764e-08
-2.15352e-08
-3.58529e-07
-1.74917e-08
-3.60566e-08
-3.74576e-07
-2.20656e-08
-4.8771e-08
-3.90784e-07
-2.59501e-08
-6.10995e-08
-4.06025e-07
-2.86312e-08
-7.27796e-08
-4.2175e-07
-3.00698e-08
-8.80599e-08
-4.3773e-07
-2.75681e-08
-1.00495e-07
-4.58223e-07
-3.31616e-08
-9.40145e-08
-4.86128e-07
-5.49409e-08
-5.73296e-08
-4.99492e-07
-8.79097e-08
-3.873e-07
-9.86948e-08
6.35581e-09
-9.20131e-09
-1.25004e-08
-3.11088e-07
-1.33383e-08
-2.86611e-08
-3.24582e-07
-1.77867e-08
-4.28408e-08
-3.38066e-07
-2.23299e-08
-5.54294e-08
-3.5196e-07
-2.62347e-08
-6.70161e-08
-3.65197e-07
-2.92414e-08
-7.75949e-08
-3.79499e-07
-3.16721e-08
-9.15907e-08
-3.94254e-07
-2.94804e-08
-1.03409e-07
-4.12842e-07
-3.35633e-08
-9.59404e-08
-4.37416e-07
-5.61795e-08
-5.88802e-08
-4.488e-07
-8.77528e-08
-3.46998e-07
-9.91816e-08
-1.88885e-08
-2.78455e-07
-1.39578e-08
-3.48994e-08
-2.89975e-07
-1.85956e-08
-4.92457e-08
-3.01583e-07
-2.21371e-08
-6.1322e-08
-3.13194e-07
-2.66903e-08
-7.20817e-08
-3.24617e-07
-2.982e-08
-8.21659e-08
-3.37042e-07
-3.23724e-08
-9.51645e-08
-3.50467e-07
-3.0788e-08
-1.06124e-07
-3.67239e-07
-3.46433e-08
-9.76311e-08
-3.88441e-07
-5.74691e-08
-6.02907e-08
-3.98405e-07
-8.77346e-08
-3.06529e-07
-1.0076e-07
-2.49765e-08
-2.45027e-07
-1.5261e-08
-4.0556e-08
-2.54979e-07
-1.9417e-08
-5.44957e-08
-2.64686e-07
-2.29573e-08
-6.65912e-08
-2.74589e-07
-2.65096e-08
-7.7174e-08
-2.84159e-07
-2.98753e-08
-8.65411e-08
-2.94697e-07
-3.29783e-08
-9.89012e-08
-3.06478e-07
-3.16285e-08
-1.08396e-07
-3.21342e-07
-3.64022e-08
-9.91947e-08
-3.39761e-07
-5.78817e-08
-6.15114e-08
-3.48208e-07
-8.78802e-08
-2.66593e-07
-1.01447e-07
-3.01971e-08
-2.11119e-07
-1.60663e-08
-4.5526e-08
-2.19424e-07
-2.02255e-08
-5.92244e-08
-2.27606e-07
-2.33815e-08
-7.08239e-08
-2.35785e-07
-2.72037e-08
-8.12137e-08
-2.43784e-07
-2.99852e-08
-9.05319e-08
-2.52528e-07
-3.28507e-08
-1.01694e-07
-2.62342e-07
-3.29742e-08
-1.1075e-07
-2.75444e-07
-3.68408e-08
-1.00681e-07
-2.91167e-07
-5.86633e-08
-6.24654e-08
-2.98021e-07
-8.84035e-08
-2.26687e-07
-1.02372e-07
-3.48955e-08
-1.76673e-07
-1.69638e-08
-4.98439e-08
-1.83503e-07
-2.0973e-08
-6.32191e-08
-1.90127e-07
-2.4104e-08
-7.45722e-08
-1.96808e-07
-2.76245e-08
-8.47302e-08
-2.03337e-07
-3.02888e-08
-9.39927e-08
-2.10432e-07
-3.28337e-08
-1.05026e-07
-2.18499e-07
-3.28105e-08
-1.13025e-07
-2.29406e-07
-3.80391e-08
-1.01841e-07
-2.42488e-07
-5.9863e-08
-6.3415e-08
-2.48085e-07
-8.83613e-08
-1.87841e-07
-1.02261e-07
-3.88325e-08
-1.41836e-07
-1.76238e-08
-5.35779e-08
-1.47196e-07
-2.15614e-08
-6.67265e-08
-1.52419e-07
-2.45592e-08
-7.77832e-08
-1.57684e-07
-2.80674e-08
-8.76893e-08
-1.62804e-07
-3.06277e-08
-9.66573e-08
-1.68346e-07
-3.31178e-08
-1.07349e-07
-1.74639e-07
-3.31678e-08
-1.15089e-07
-1.83358e-07
-3.8309e-08
-1.03242e-07
-1.93869e-07
-6.04662e-08
-6.4317e-08
-1.98273e-07
-8.87369e-08
-1.49751e-07
-1.02407e-07
-4.20376e-08
-1.06661e-07
-1.8202e-08
-5.65415e-08
-1.10634e-07
-2.20579e-08
-6.94963e-08
-1.14501e-07
-2.4963e-08
-8.03793e-08
-1.18373e-07
-2.84279e-08
-9.01288e-08
-1.22169e-07
-3.08847e-08
-9.8934e-08
-1.26273e-07
-3.32681e-08
-1.09341e-07
-1.30945e-07
-3.32867e-08
-1.167e-07
-1.37424e-07
-3.85737e-08
-1.04201e-07
-1.45228e-07
-6.11397e-08
-6.48114e-08
-1.48451e-07
-8.92108e-08
-1.11815e-07
-1.02748e-07
-4.44597e-08
-1.86223e-08
-5.88129e-08
-7.3866e-08
-2.24151e-08
-7.16183e-08
-7.64156e-08
-2.52801e-08
-8.23044e-08
-7.89715e-08
-2.87149e-08
-9.19224e-08
-8.14832e-08
-3.10683e-08
-1.006e-07
-8.41774e-08
-3.34178e-08
-1.1082e-07
-8.7265e-08
-3.34604e-08
-1.1799e-07
-9.16153e-08
-3.86392e-08
-1.05021e-07
-9.67626e-08
-6.14341e-08
-6.53589e-08
-9.89492e-08
-8.91647e-08
-7.43854e-08
-1.02788e-07
-6.03201e-08
-3.69593e-08
-2.26635e-08
-7.3035e-08
-3.82295e-08
-2.54712e-08
-8.36121e-08
-3.94938e-08
-2.89006e-08
-9.31589e-08
-4.07481e-08
-3.11883e-08
-1.0172e-07
-4.20776e-08
-3.35385e-08
-1.11769e-07
-4.36151e-08
-3.36014e-08
-1.18848e-07
-4.58142e-08
-3.87223e-08
-1.05576e-07
-4.83508e-08
-6.16835e-08
-6.5681e-08
-4.94505e-08
-8.93936e-08
-3.70445e-08
-1.03022e-07
-6.10578e-08
-2.27875e-08
-7.37361e-08
-2.55693e-08
-8.42472e-08
-2.90012e-08
-9.37854e-08
-3.12281e-08
-1.02279e-07
-3.36009e-08
-1.12209e-07
-3.36998e-08
-1.19346e-07
-3.86903e-08
-1.05944e-07
-6.17634e-08
-6.59152e-08
-8.94902e-08
-1.02968e-07
3.2716e-07
-9.16742e-07
-6.44706e-09
9.47243e-07
2.83631e-07
-9.10666e-07
-4.2418e-09
9.44774e-07
2.40198e-07
-9.10363e-07
-1.85214e-09
9.4632e-07
1.96804e-07
-9.14602e-07
5.82575e-10
9.5144e-07
1.53999e-07
-9.21187e-07
1.41749e-09
9.59971e-07
1.1292e-07
-9.33592e-07
-6.41785e-10
9.74315e-07
7.53493e-08
-9.52863e-07
-6.15461e-09
9.94523e-07
4.19556e-08
-9.78087e-07
-1.69769e-08
1.02253e-06
1.32257e-08
-1.00286e-06
-2.90555e-08
1.05006e-06
-1.04879e-08
-1.0303e-06
-4.32496e-08
1.08021e-06
-3.36225e-08
-1.06146e-06
-4.49458e-08
1.11365e-06
-5.752e-08
-1.09963e-06
-5.32174e-08
1.15618e-06
-7.20134e-08
-1.15211e-06
-8.94403e-08
1.21369e-06
-5.97554e-08
-1.19847e-06
-1.60805e-07
1.2656e-06
-9.844e-07
-1.86704e-07
1.03009e-06
3.2464e-07
-4.94713e-09
2.78473e-07
-8.746e-07
-5.07672e-09
2.33754e-07
-8.74363e-07
-3.91933e-09
1.89712e-07
-8.76079e-07
-3.13748e-09
1.46649e-07
-8.81097e-07
-1.90432e-09
1.05913e-07
-8.92022e-07
-4.89051e-09
6.93498e-08
-9.10721e-07
-1.05956e-08
3.69012e-08
-9.32856e-07
-2.13536e-08
8.96536e-09
-9.54841e-07
-3.30456e-08
-1.40348e-08
-9.79723e-07
-4.59254e-08
-3.66514e-08
-1.0084e-06
-4.68182e-08
-6.00927e-08
-1.04259e-06
-5.68205e-08
-7.2913e-08
-1.091e-06
-9.1711e-08
-5.85964e-08
-1.13217e-06
-1.64927e-07
-9.34581e-07
-1.92608e-07
2.73836e-07
-8.34005e-07
-5.15331e-09
2.28349e-07
-8.36382e-07
-3.42912e-09
1.83048e-07
-8.35753e-07
-4.92124e-09
1.3961e-07
-8.39081e-07
-6.16158e-09
9.97587e-08
-8.49781e-07
-8.61269e-09
6.41376e-08
-8.67383e-07
-1.50692e-08
3.22036e-08
-8.86223e-07
-2.54992e-08
4.89106e-09
-9.06026e-07
-3.60323e-08
-1.73548e-08
-9.28555e-07
-4.78808e-08
-3.99943e-08
-9.54428e-07
-5.02344e-08
-6.25682e-08
-9.85376e-07
-5.83276e-08
-7.43049e-08
-1.02969e-06
-9.40283e-08
-5.86807e-08
-1.06679e-06
-1.66595e-07
-8.82855e-07
-1.98285e-07
2.67568e-07
-7.29668e-09
2.22411e-07
-7.94187e-07
-4.86156e-09
1.76141e-07
-7.94208e-07
-7.01504e-09
1.32908e-07
-7.98203e-07
-8.834e-09
9.38661e-08
-8.07631e-07
-1.264e-08
5.86851e-08
-8.22677e-07
-2.02322e-08
2.73776e-08
-8.385e-07
-2.9875e-08
7.6323e-10
-8.56376e-07
-3.95757e-08
-2.09501e-08
-8.76516e-07
-5.10949e-08
-4.3236e-08
-8.99428e-07
-5.38413e-08
-6.48341e-08
-9.27866e-07
-6.06492e-08
-7.58949e-08
-9.68376e-07
-9.73662e-08
-5.92482e-08
-1.0018e-06
-1.67692e-07
-8.29494e-07
-2.02009e-07
2.15278e-07
-7.52771e-07
-7.47977e-09
1.70187e-07
-7.5591e-07
-9.17755e-09
1.27238e-07
-7.57956e-07
-1.21204e-08
8.78857e-08
-7.65458e-07
-1.73867e-08
5.30043e-08
-7.77383e-07
-2.49958e-08
2.24142e-08
-7.90183e-07
-3.36483e-08
-3.6468e-09
-8.05614e-07
-4.30698e-08
-2.49958e-08
-8.23743e-07
-5.37523e-08
-4.66522e-08
-8.44169e-07
-5.53321e-08
-6.7523e-08
-8.70084e-07
-6.36996e-08
-7.77006e-08
-9.06892e-07
-1.00296e-07
-6.0174e-08
-9.3702e-07
-1.68514e-07
-7.75666e-07
-2.05547e-07
2.12735e-07
-7.10399e-07
-6.24707e-09
1.66878e-07
-7.12993e-07
-9.75141e-09
1.22292e-07
-7.15531e-07
-1.47456e-08
8.29147e-08
-7.23599e-07
-2.06871e-08
4.77891e-08
-7.31449e-07
-2.97987e-08
1.74382e-08
-7.41177e-07
-3.75851e-08
-8.05895e-09
-7.53979e-07
-4.6473e-08
-2.89034e-08
-7.70263e-07
-5.66059e-08
-4.98905e-08
-7.88783e-07
-5.66305e-08
-7.0224e-08
-8.1188e-07
-6.61491e-08
-7.95301e-08
-8.45289e-07
-1.02994e-07
-6.13202e-08
-8.72681e-07
-1.69349e-07
-7.21777e-07
-2.07826e-07
2.04211e-07
-7.28204e-09
1.59358e-07
-6.6545e-07
-1.06323e-08
1.17866e-07
-6.68844e-07
-1.55204e-08
7.83667e-08
-6.77308e-07
-2.30814e-08
4.24311e-08
-6.84703e-07
-3.30381e-08
1.2228e-08
-6.91565e-07
-4.15618e-08
-1.26588e-08
-7.01981e-07
-4.91055e-08
-3.27897e-08
-7.16316e-07
-5.89614e-08
-5.34498e-08
-7.33048e-07
-5.92101e-08
-7.31007e-08
-7.53658e-07
-6.77384e-08
-8.14915e-08
-7.83612e-07
-1.05071e-07
-6.24031e-08
-8.08429e-07
-1.6954e-07
-6.67872e-07
-2.11039e-07
1.52378e-07
-6.18121e-07
-1.14358e-08
1.10033e-07
-6.21423e-07
-1.80673e-08
7.24369e-08
-6.27493e-07
-2.58061e-08
3.77069e-08
-6.35206e-07
-3.5317e-08
7.4833e-09
-6.41592e-07
-4.47641e-08
-1.70744e-08
-6.49675e-07
-5.2372e-08
-3.66378e-08
-6.62137e-07
-6.09428e-08
-5.68267e-08
-6.76907e-07
-6.1516e-08
-7.57497e-08
-6.95408e-07
-6.94022e-08
-8.33584e-08
-7.22013e-07
-1.07225e-07
-6.35013e-08
-7.44293e-07
-1.70266e-07
-6.14415e-07
-2.13321e-07
1.46051e-07
-5.68781e-07
-1.30644e-08
1.04474e-07
-5.73078e-07
-1.94567e-08
6.5927e-08
-5.78356e-07
-2.82912e-08
3.19756e-08
-5.84037e-07
-3.78919e-08
2.77027e-09
-5.90928e-07
-4.69053e-08
-2.14329e-08
-5.97512e-07
-5.51578e-08
-4.0431e-08
-6.07765e-07
-6.30499e-08
-6.00534e-08
-6.206e-07
-6.29597e-08
-7.85135e-08
-6.37134e-07
-7.16923e-08
-8.51088e-08
-6.60723e-07
-1.09038e-07
-6.47259e-08
-6.80757e-07
-1.71506e-07
-5.61059e-07
-2.15673e-07
1.38895e-07
-5.19329e-07
-1.46299e-08
9.82383e-08
-5.22929e-07
-2.15692e-08
6.07323e-08
-5.27998e-07
-3.03441e-08
2.7451e-08
-5.33254e-07
-3.95669e-08
-1.2446e-09
-5.38784e-07
-4.93979e-08
-2.50905e-08
-5.45312e-07
-5.69851e-08
-4.40284e-08
-5.5329e-07
-6.56073e-08
-6.32271e-08
-5.64154e-07
-6.48151e-08
-8.12263e-08
-5.78735e-07
-7.35619e-08
-8.68375e-08
-5.99576e-07
-1.10477e-07
-6.5873e-08
-6.17466e-07
-1.72165e-07
-5.08675e-07
-2.16952e-07
1.32355e-07
-1.65704e-08
9.19067e-08
-4.72246e-07
-2.35725e-08
5.51238e-08
-4.76564e-07
-3.24376e-08
2.22973e-08
-4.81346e-07
-4.14121e-08
-5.54177e-09
-4.86235e-07
-5.09451e-08
-2.86689e-08
-4.91824e-07
-5.96028e-08
-4.74378e-08
-4.98885e-07
-6.73083e-08
-6.64159e-08
-5.07736e-07
-6.69209e-08
-8.37129e-08
-5.20353e-07
-7.46484e-08
-8.85457e-08
-5.38658e-07
-1.12265e-07
-6.70453e-08
-5.54461e-07
-1.72259e-07
-4.5658e-07
-2.18322e-07
8.58721e-08
-4.2091e-07
-2.5445e-08
4.95652e-08
-4.24714e-07
-3.41388e-08
1.77403e-08
-4.28692e-07
-4.29661e-08
-9.65308e-09
-4.33151e-07
-5.23806e-08
-3.2392e-08
-4.37854e-07
-6.10506e-08
-5.04871e-08
-4.4394e-07
-6.92217e-08
-6.92281e-08
-4.51538e-07
-6.82446e-08
-8.59946e-08
-4.62099e-07
-7.61307e-08
-9.01946e-08
-4.77998e-07
-1.13929e-07
-6.79487e-08
-4.91878e-07
-1.72563e-07
-4.05146e-07
-2.20143e-07
8.03303e-08
-3.69259e-07
-2.73522e-08
4.44542e-08
-3.72352e-07
-3.59022e-08
1.28788e-08
-3.75717e-07
-4.43563e-08
-1.36833e-08
-3.79403e-07
-5.3696e-08
-3.57023e-08
-3.83571e-07
-6.21401e-08
-5.34596e-08
-3.88711e-07
-7.04505e-08
-7.15877e-08
-3.9518e-07
-6.98585e-08
-8.82249e-08
-4.04099e-07
-7.77649e-08
-9.16193e-08
-4.1754e-07
-1.14945e-07
-6.87687e-08
-4.29494e-07
-1.73115e-07
-3.5382e-07
-2.21541e-07
7.51517e-08
-3.17127e-07
-2.89874e-08
3.96752e-08
-3.19704e-07
-3.73977e-08
8.68993e-09
-3.22454e-07
-4.56595e-08
-1.7598e-08
-3.25515e-07
-5.4804e-08
-3.90965e-08
-3.28881e-07
-6.31763e-08
-5.60875e-08
-3.33312e-07
-7.12588e-08
-7.41147e-08
-3.38814e-07
-7.13132e-08
-9.00833e-08
-3.46199e-07
-7.87721e-08
-9.27766e-08
-3.57365e-07
-1.16146e-07
-6.9463e-08
-3.67589e-07
-1.73622e-07
-3.02453e-07
-2.23202e-07
7.06619e-08
-2.64746e-07
-3.0467e-08
3.55482e-08
-2.66798e-07
-3.87653e-08
4.79702e-09
-2.68982e-07
-4.6825e-08
-2.10807e-08
-2.71413e-07
-5.5848e-08
-4.21386e-08
-2.74169e-07
-6.39428e-08
-5.85902e-08
-2.77772e-07
-7.19212e-08
-7.5868e-08
-2.82285e-07
-7.20611e-08
-9.16461e-08
-2.88409e-07
-8.00506e-08
-9.38918e-08
-2.97518e-07
-1.17464e-07
-7.00117e-08
-3.06004e-07
-1.73826e-07
-2.51484e-07
-2.23242e-07
6.67312e-08
-2.12082e-07
-3.16701e-08
3.18963e-08
-2.13662e-07
-3.98621e-08
1.51706e-09
-2.15361e-07
-4.78011e-08
-2.39644e-08
-2.17254e-07
-5.67449e-08
-4.4656e-08
-2.19403e-07
-6.47025e-08
-6.08538e-08
-2.22202e-07
-7.24903e-08
-7.78319e-08
-2.25773e-07
-7.27021e-08
-9.30254e-08
-2.30663e-07
-8.08617e-08
-9.47379e-08
-2.37755e-07
-1.18517e-07
-7.05144e-08
-2.44512e-07
-1.74453e-07
-2.0062e-07
-2.23785e-07
6.35328e-08
-1.59227e-07
-3.26702e-08
2.89704e-08
-1.6038e-07
-4.07778e-08
-1.17236e-09
-1.6162e-07
-4.85607e-08
-2.64292e-08
-1.62989e-07
-5.74369e-08
-4.68481e-08
-1.64576e-07
-6.52924e-08
-6.2703e-08
-1.66646e-07
-7.29699e-08
-7.93676e-08
-1.69267e-07
-7.31278e-08
-9.4295e-08
-1.72958e-07
-8.13512e-08
-9.55408e-08
-1.78214e-07
-1.19435e-07
-7.09376e-08
-1.83347e-07
-1.74979e-07
-1.50204e-07
-2.24101e-07
6.10805e-08
-3.34176e-08
2.67094e-08
-1.06978e-07
-4.14458e-08
-3.24555e-09
-1.07795e-07
-4.91509e-08
-2.8272e-08
-1.08681e-07
-5.7996e-08
-4.84715e-08
-1.09731e-07
-6.57143e-08
-6.41387e-08
-1.11078e-07
-7.33185e-08
-8.05867e-08
-1.12806e-07
-7.34733e-08
-9.52407e-08
-1.15288e-07
-8.16556e-08
-9.61528e-08
-1.18735e-07
-1.20001e-07
-7.12405e-08
-1.222e-07
-1.75224e-07
-9.99373e-08
-2.24295e-07
2.51905e-08
-5.35007e-08
-4.19061e-08
-4.64147e-09
-5.39075e-08
-4.95263e-08
-2.95333e-08
-5.43394e-08
-5.83504e-08
-4.96008e-08
-5.48674e-08
-6.5984e-08
-6.51222e-08
-5.55257e-08
-7.35689e-08
-8.14308e-08
-5.63805e-08
-7.37186e-08
-9.59403e-08
-5.76558e-08
-8.18447e-08
-9.65878e-08
-5.93521e-08
-1.20419e-07
-7.14597e-08
-6.11299e-08
-1.75592e-07
-4.99065e-08
-2.24512e-07
2.44382e-08
-4.21484e-08
-5.34159e-09
-4.9722e-08
-3.01612e-08
-5.85465e-08
-5.01771e-08
-6.61048e-08
-6.56273e-08
-7.37007e-08
-8.18624e-08
-7.38662e-08
-9.63346e-08
-8.18907e-08
-9.68365e-08
-1.20628e-07
-7.16117e-08
-1.75859e-07
-2.24498e-07
4.91826e-07
-1.2046e-06
-1.69477e-09
1.25752e-06
4.33577e-07
-1.19414e-06
1.23314e-09
1.24692e-06
3.75728e-07
-1.18713e-06
3.74963e-09
1.23938e-06
3.1777e-07
-1.18357e-06
5.65925e-09
1.23645e-06
2.6014e-07
-1.18155e-06
5.20363e-09
1.2354e-06
2.04582e-07
-1.18458e-06
2.72776e-10
1.23922e-06
1.52978e-07
-1.19407e-06
-1.01423e-08
1.24966e-06
1.06262e-07
-1.2096e-06
-2.77931e-08
1.26713e-06
6.55064e-08
-1.22855e-06
-4.79684e-08
1.28822e-06
3.16732e-08
-1.25152e-06
-7.11214e-08
1.31323e-06
1.78666e-09
-1.28216e-06
-7.94073e-08
1.3465e-06
-2.91492e-08
-1.31805e-06
-9.0601e-08
1.38637e-06
-5.55314e-08
-1.36176e-06
-1.36119e-07
1.43482e-06
-6.3457e-08
-1.40701e-06
-2.33655e-07
1.48779e-06
-1.22485e-06
-3.07224e-07
1.28191e-06
4.88162e-07
-2.52951e-09
4.29607e-07
-1.13959e-06
-1.07173e-09
3.71383e-07
-1.13346e-06
6.33642e-10
3.12646e-07
-1.12933e-06
1.36103e-09
2.54749e-07
-1.1264e-06
8.40134e-10
1.99385e-07
-1.12927e-06
-4.83052e-09
1.48282e-07
-1.13766e-06
-1.58987e-08
1.0216e-07
-1.1511e-06
-3.37334e-08
6.20433e-08
-1.1679e-06
-5.3586e-08
2.89124e-08
-1.18864e-06
-7.56801e-08
-5.7196e-10
-1.2163e-06
-8.31941e-08
-3.12276e-08
-1.24921e-06
-9.50032e-08
-5.62198e-08
-1.28883e-06
-1.39656e-07
-6.13318e-08
-1.32861e-06
-2.38214e-07
-1.1632e-06
-3.15586e-07
4.26125e-07
-1.08356e-06
-2.74954e-09
3.67608e-07
-1.07734e-06
-1.03209e-09
3.08415e-07
-1.07312e-06
-1.9412e-09
2.50394e-07
-1.07056e-06
-3.97774e-09
1.95303e-07
-1.07309e-06
-9.7033e-09
1.44248e-07
-1.08012e-06
-2.15536e-08
9.82501e-08
-1.09146e-06
-3.91423e-08
5.85782e-08
-1.10617e-06
-5.80899e-08
2.60449e-08
-1.12476e-06
-7.92226e-08
-3.35313e-09
-1.14998e-06
-8.71569e-08
-3.32345e-08
-1.17977e-06
-9.78862e-08
-5.72911e-08
-1.21561e-06
-1.43185e-07
-6.06326e-08
-1.25133e-06
-2.40538e-07
-1.09959e-06
-3.22525e-07
4.21506e-07
-4.82969e-09
3.62522e-07
-1.01963e-06
-3.58297e-09
3.03516e-07
-1.01594e-06
-5.18386e-09
2.459e-07
-1.01393e-06
-7.85382e-09
1.90913e-07
-1.01594e-06
-1.48039e-08
1.39781e-07
-1.02172e-06
-2.75029e-08
9.40292e-08
-1.03102e-06
-4.45575e-08
5.48854e-08
-1.04373e-06
-6.28687e-08
2.2928e-08
-1.06047e-06
-8.34274e-08
-6.22413e-09
-1.08345e-06
-9.12204e-08
-3.5351e-08
-1.10995e-06
-1.01344e-07
-5.86634e-08
-1.14256e-06
-1.47108e-07
-6.0468e-08
-1.17474e-06
-2.42471e-07
-1.03408e-06
-3.27997e-07
3.57284e-07
-9.61329e-07
-6.47411e-09
2.98723e-07
-9.58351e-07
-8.20773e-09
2.41235e-07
-9.56207e-07
-1.23519e-08
1.8611e-07
-9.57809e-07
-2.03942e-08
1.34901e-07
-9.62312e-07
-3.31946e-08
8.94065e-08
-9.69705e-07
-4.94716e-08
5.06907e-08
-9.806e-07
-6.74855e-08
1.93037e-08
-9.95549e-07
-8.72887e-08
-9.27234e-09
-1.01633e-06
-9.38713e-08
-3.77872e-08
-1.0402e-06
-1.04937e-07
-6.0236e-08
-1.06947e-06
-1.50931e-07
-6.07293e-08
-1.09855e-06
-2.44214e-07
-9.67872e-07
-3.32479e-07
3.52258e-07
-9.01748e-07
-7.93215e-09
2.93741e-07
-8.98519e-07
-1.10669e-08
2.36032e-07
-8.96665e-07
-1.65793e-08
1.81154e-07
-8.9826e-07
-2.53573e-08
1.29942e-07
-9.01989e-07
-3.89097e-08
8.47024e-08
-9.07771e-07
-5.42792e-08
4.6433e-08
-9.17046e-07
-7.17574e-08
1.56013e-08
-9.30219e-07
-9.11047e-08
-1.23763e-08
-9.48625e-07
-9.63582e-08
-4.03388e-08
-9.70267e-07
-1.08118e-07
-6.19698e-08
-9.96506e-07
-1.54332e-07
-6.12752e-08
-1.0228e-06
-2.45791e-07
-9.00939e-07
-3.36034e-07
3.45023e-07
-9.3107e-09
2.86454e-07
-8.37327e-07
-1.32555e-08
2.299e-07
-8.35827e-07
-1.98046e-08
1.75542e-07
-8.3709e-07
-2.98939e-08
1.24641e-07
-8.40408e-07
-4.37181e-08
7.96779e-08
-8.45248e-07
-5.91218e-08
4.19445e-08
-8.52945e-07
-7.54731e-08
1.17436e-08
-8.64554e-07
-9.44251e-08
-1.58221e-08
-8.80861e-07
-9.9408e-08
-4.30523e-08
-9.00212e-07
-1.10563e-07
-6.37913e-08
-9.23556e-07
-1.57282e-07
-6.18177e-08
-9.47187e-07
-2.47129e-07
-8.34207e-07
-3.39588e-07
2.80346e-07
-7.75632e-07
-1.51912e-08
2.23387e-07
-7.74289e-07
-2.26464e-08
1.69275e-07
-7.75084e-07
-3.37006e-08
1.19184e-07
-7.77767e-07
-4.78663e-08
7.47536e-08
-7.82194e-07
-6.33887e-08
3.74841e-08
-7.886e-07
-7.94476e-08
7.92507e-09
-7.98577e-07
-9.73611e-08
-1.9266e-08
-8.12999e-07
-1.02187e-07
-4.57673e-08
-8.30039e-07
-1.13074e-07
-6.56409e-08
-8.50819e-07
-1.60088e-07
-6.25207e-08
-8.71981e-07
-2.48592e-07
-7.67594e-07
-3.42456e-07
2.73386e-07
-7.12959e-07
-1.75913e-08
2.17066e-07
-7.11817e-07
-2.56087e-08
1.63094e-07
-7.12502e-07
-3.69011e-08
1.13443e-07
-7.14658e-07
-5.13501e-08
6.97811e-08
-7.18427e-07
-6.70094e-08
3.30013e-08
-7.24003e-07
-8.29751e-08
4.01646e-09
-7.32402e-07
-1.00239e-07
-2.26183e-08
-7.44961e-07
-1.04363e-07
-4.85322e-08
-7.60043e-07
-1.15774e-07
-6.74624e-08
-7.78346e-07
-1.62582e-07
-6.32893e-08
-7.97413e-07
-2.50247e-07
-7.01434e-07
-3.45122e-07
2.66581e-07
-6.49919e-07
-1.99594e-08
2.10471e-07
-6.48723e-07
-2.85536e-08
1.57104e-07
-6.49205e-07
-4.02735e-08
1.08084e-07
-6.51028e-07
-5.41767e-08
6.49361e-08
-6.54199e-07
-7.04779e-08
2.88331e-08
-6.58893e-07
-8.59911e-08
2.27843e-10
-6.66177e-07
-1.03228e-07
-2.59466e-08
-6.76895e-07
-1.06706e-07
-5.13041e-08
-6.90171e-07
-1.18076e-07
-6.92519e-08
-7.06072e-07
-1.64803e-07
-6.40318e-08
-7.23203e-07
-2.51594e-07
-6.35539e-07
-3.46878e-07
2.60067e-07
-2.24424e-08
2.04106e-07
-5.85097e-07
-3.12379e-08
1.51033e-07
-5.85395e-07
-4.31749e-08
1.02576e-07
-5.86854e-07
-5.71293e-08
6.01451e-08
-5.896e-07
-7.31129e-08
2.45883e-08
-5.93546e-07
-8.93932e-08
-3.45276e-09
-5.9974e-07
-1.05704e-07
-2.92688e-08
-6.08994e-07
-1.09006e-07
-5.39242e-08
-6.20334e-07
-1.1983e-07
-7.10458e-08
-6.34146e-07
-1.6707e-07
-6.473e-08
-6.49328e-07
-2.5245e-07
-5.70041e-07
-3.48551e-07
1.97805e-07
-5.21036e-07
-3.3846e-08
1.45195e-07
-5.21209e-07
-4.57144e-08
9.7343e-08
-5.22339e-07
-5.96296e-08
5.54723e-08
-5.24607e-07
-7.55037e-08
2.05207e-08
-5.27964e-07
-9.16813e-08
-6.94962e-09
-5.33228e-07
-1.08263e-07
-3.23452e-08
-5.41047e-07
-1.10795e-07
-5.64033e-08
-5.50705e-07
-1.21701e-07
-7.27306e-08
-5.62579e-07
-1.69168e-07
-6.53373e-08
-5.75847e-07
-2.53437e-07
-5.05175e-07
-3.50346e-07
1.92094e-07
-4.56649e-07
-3.6268e-08
1.39739e-07
-4.56649e-07
-4.81067e-08
9.2273e-08
-4.57507e-07
-6.17217e-08
5.10022e-08
-4.59353e-07
-7.76788e-08
1.6715e-08
-4.62177e-07
-9.36394e-08
-1.01913e-08
-4.66632e-07
-1.10141e-07
-3.51456e-08
-4.73175e-07
-1.12777e-07
-5.87834e-08
-4.81373e-07
-1.23459e-07
-7.42456e-08
-4.91309e-07
-1.70752e-07
-6.58987e-08
-5.02805e-07
-2.54504e-07
-4.40757e-07
-3.51858e-07
1.86627e-07
-3.91914e-07
-3.84392e-08
1.34643e-07
-3.9184e-07
-5.0223e-08
8.76714e-08
-3.92476e-07
-6.37187e-08
4.68571e-08
-3.9395e-07
-7.93922e-08
1.31147e-08
-3.96221e-07
-9.53901e-08
-1.31893e-08
-3.99972e-07
-1.11615e-07
-3.78173e-08
-4.05424e-07
-1.14436e-07
-6.08791e-08
-4.12205e-07
-1.24878e-07
-7.56166e-08
-4.20394e-07
-1.72324e-07
-6.64243e-08
-4.3031e-07
-2.55309e-07
-3.77008e-07
-3.53376e-07
1.81873e-07
-3.26959e-07
-4.0361e-08
1.30176e-07
-3.26826e-07
-5.20822e-08
8.35376e-08
-3.27275e-07
-6.53876e-08
4.31408e-08
-3.28399e-07
-8.10028e-08
9.90195e-09
-3.3022e-07
-9.67049e-08
-1.58798e-08
-3.33251e-07
-1.1286e-07
-4.002e-08
-3.37718e-07
-1.15627e-07
-6.26886e-08
-3.43242e-07
-1.26345e-07
-7.68726e-08
-3.49826e-07
-1.73847e-07
-6.6911e-08
-3.58051e-07
-2.56047e-07
-3.13358e-07
-3.53803e-07
1.77679e-07
-2.61788e-07
-4.19517e-08
1.26248e-07
-2.61636e-07
-5.36222e-08
7.99538e-08
-2.61947e-07
-6.68347e-08
3.99419e-08
-2.62795e-07
-8.23371e-08
7.12923e-09
-2.64204e-07
-9.7906e-08
-1.82621e-08
-2.6656e-07
-1.1379e-07
-4.20632e-08
-2.70037e-07
-1.16582e-07
-6.42734e-08
-2.74451e-07
-1.27442e-07
-7.79017e-08
-2.79525e-07
-1.7519e-07
-6.73458e-08
-2.86146e-07
-2.56915e-07
-2.50169e-07
-3.54319e-07
1.7424e-07
-1.96465e-07
-4.32677e-08
1.23038e-07
-1.96323e-07
-5.48891e-08
7.7025e-08
-1.96532e-07
-6.79619e-08
3.73103e-08
-1.97125e-07
-8.33916e-08
4.82017e-09
-1.9815e-07
-9.88562e-08
-2.02377e-08
-1.99883e-07
-1.14589e-07
-4.37372e-08
-2.02434e-07
-1.17231e-07
-6.56019e-08
-2.05742e-07
-1.28196e-07
-7.8786e-08
-2.09453e-07
-1.76323e-07
-6.77135e-08
-2.14495e-07
-2.57701e-07
-1.8726e-07
-3.54724e-07
1.71579e-07
-4.42595e-08
1.20563e-07
-1.3092e-07
-5.58323e-08
7.47582e-08
-1.31052e-07
-6.88267e-08
3.52732e-08
-1.31423e-07
-8.42131e-08
3.04901e-09
-1.32098e-07
-9.95417e-08
-2.17685e-08
-1.33224e-07
-1.15161e-07
-4.50523e-08
-1.34895e-07
-1.17729e-07
-6.6645e-08
-1.37119e-07
-1.28686e-07
-7.94727e-08
-1.39527e-07
-1.77099e-07
-6.79958e-08
-1.42961e-07
-2.58236e-07
-1.24629e-07
-3.54923e-07
1.18878e-07
-6.54608e-08
-5.64765e-08
7.32177e-08
-6.55252e-08
-6.93928e-08
3.38892e-08
-6.57009e-08
-8.47442e-08
1.83528e-09
-6.60415e-08
-9.9987e-08
-2.28191e-08
-6.65922e-08
-1.15546e-07
-4.59596e-08
-6.74115e-08
-1.18061e-07
-6.73783e-08
-6.85516e-08
-1.28993e-07
-7.99434e-08
-6.97258e-08
-1.77656e-07
-6.82114e-08
-7.14981e-08
-2.58786e-07
-6.22246e-08
-3.55128e-07
1.18029e-07
-5.68168e-08
7.24368e-08
-6.96844e-08
3.31866e-08
-8.50273e-08
1.21293e-09
-1.00203e-07
-2.33626e-08
-1.15747e-07
-4.64295e-08
-1.18237e-07
-6.77784e-08
-1.29115e-07
-8.01955e-08
-1.77953e-07
-6.83864e-08
-2.59182e-07
-3.55123e-07
6.66111e-07
-1.48936e-06
-1.65355e-10
1.55921e-06
5.95114e-07
-1.47243e-06
2.97928e-09
1.54168e-06
5.24713e-07
-1.45863e-06
5.59319e-09
1.52719e-06
4.5457e-07
-1.44829e-06
7.25417e-09
1.51683e-06
3.84969e-07
-1.4408e-06
6.25908e-09
1.50934e-06
3.16797e-07
-1.43795e-06
-9.80615e-11
1.50649e-06
2.5142e-07
-1.44078e-06
-1.38186e-08
1.50984e-06
1.90161e-07
-1.45024e-06
-3.68414e-08
1.52055e-06
1.35083e-07
-1.46555e-06
-6.50277e-08
1.53769e-06
8.82228e-08
-1.48698e-06
-9.83602e-08
1.56108e-06
4.82199e-08
-1.51927e-06
-1.16371e-07
1.59624e-06
8.42643e-09
-1.55831e-06
-1.31715e-07
1.63922e-06
-2.88108e-08
-1.59578e-06
-1.84321e-07
1.68122e-06
-5.45849e-08
-1.63157e-06
-3.03346e-07
1.72703e-06
-1.50647e-06
-4.32822e-07
1.57748e-06
6.63457e-07
-1.78444e-09
5.92052e-07
-1.40214e-06
4.64533e-11
5.21189e-07
-1.38899e-06
1.85296e-09
4.50513e-07
-1.37874e-06
2.49516e-09
3.80736e-07
-1.37119e-06
1.00742e-09
3.12551e-07
-1.36845e-06
-6.144e-09
2.47321e-07
-1.37069e-06
-2.07566e-08
1.86425e-07
-1.3789e-06
-4.41828e-08
1.31938e-07
-1.39246e-06
-7.21904e-08
8.58272e-08
-1.41184e-06
-1.04707e-07
4.6264e-08
-1.44119e-06
-1.21718e-07
6.81701e-09
-1.47668e-06
-1.37184e-07
-2.93126e-08
-1.51025e-06
-1.89058e-07
-5.13839e-08
-1.54009e-06
-3.07621e-07
-1.43015e-06
-4.43284e-07
5.89552e-07
-1.33056e-06
-2.51594e-09
5.18328e-07
-1.31775e-06
-1.04893e-09
4.47392e-07
-1.30791e-06
-1.8351e-09
3.77485e-07
-1.30075e-06
-4.50735e-09
3.09274e-07
-1.29787e-06
-1.20732e-08
2.43909e-07
-1.29947e-06
-2.74152e-08
1.83039e-07
-1.30643e-06
-5.07417e-08
1.28865e-07
-1.31828e-06
-7.80955e-08
8.32735e-08
-1.33564e-06
-1.09828e-07
4.39202e-08
-1.36243e-06
-1.2656e-07
5.17997e-09
-1.39446e-06
-1.41374e-07
-3.01216e-08
-1.42448e-06
-1.9366e-07
-4.99099e-08
-1.45009e-06
-3.1075e-07
-1.35142e-06
-4.51169e-07
5.85935e-07
-5.18476e-09
5.14361e-07
-1.2454e-06
-4.35084e-09
4.43334e-07
-1.23612e-06
-5.95294e-09
3.73427e-07
-1.22921e-06
-9.48444e-09
3.05132e-07
-1.22622e-06
-1.81643e-08
2.39672e-07
-1.22731e-06
-3.4198e-08
1.7901e-07
-1.23313e-06
-5.71895e-08
1.25315e-07
-1.24339e-06
-8.40598e-08
8.03565e-08
-1.25894e-06
-1.15171e-07
4.13572e-08
-1.28335e-06
-1.31298e-07
3.31105e-09
-1.3119e-06
-1.45858e-07
-3.12222e-08
-1.33869e-06
-1.98361e-07
-4.90702e-08
-1.36108e-06
-3.1363e-07
-1.27077e-06
-4.5772e-07
5.0981e-07
-1.1723e-06