/*--------------------------------*- C++ -*----------------------------------*\
  =========                 |
  \\      /  F ield         | OpenFOAM: The Open Source CFD Toolbox
   \\    /   O peration     | Website:  https://openfoam.org
    \\  /    A nd           | Version:  6
     \\/     M anipulation  |
\*---------------------------------------------------------------------------*/
FoamFile
{
    version     2.0;
    format      ascii;
    class       volScalarField;
    location    "25";
    object      yPlus;
}
// * * * * * * * * * * * * * * * * * * * * * * * * * * * * * * * * * * * * * //

dimensions      [0 0 0 0 0 0 0];

internalField   uniform 0;

boundaryField
{
    inlet
    {
        type            calculated;
        value           uniform 0;
    }
    outlet
    {
        type            calculated;
        value           uniform 0;
    }
    roughCylinder
    {
        type            calculated;
        value           nonuniform List<scalar> 
5120
(
14.1022
21.1264
35.0429
38.978
42.3371
43.9121
45.0885
45.6493
46.0635
46.1084
45.957
45.6637
45.5187
45.4958
45.439
45.3994
45.2828
45.5979
45.1811
44.8137
44.1341
44.4905
43.497
41.972
40.781
43.3551
41.5751
41.5261
40.8308
40.493
39.9258
39.6727
10.3916
21.7595
34.6656
38.7702
42.1332
43.8091
45.0737
45.6669
46.0561
46.1014
45.9531
45.6216
45.4618
45.4251
45.3206
45.2802
45.3169
45.5076
45.0186
44.7824
44.3608
44.7757
43.825
42.4164
41.4292
43.766
42.1249
42.0249
41.396
40.996
40.4545
40.2139
16.6568
20.8603
34.0182
38.4031
41.8515
43.6358
44.9198
45.5477
46.0401
46.1729
46.0821
45.8778
45.7821
45.6997
45.5075
45.4492
45.5821
45.6041
45.0532
44.9271
44.6336
44.9648
43.9971
42.6676
41.9169
44.0489
42.5898
42.4975
42.038
41.6377
41.1594
40.9651
2.56988
20.7627
33.4755
38.1187
41.6147
43.49
44.8838
45.6417
46.148
46.2508
46.1938
45.9448
45.7854
45.673
45.4702
45.4519
45.6365
45.5627
45.0595
45.1186
44.9616
45.3033
44.4322
43.2066
42.6979
44.5072
43.2009
43.0542
42.6482
42.1989
41.7517
41.5658
12.5087
19.8919
32.6468
37.6099
41.2421
43.3067
44.7771
45.5336
46.0953
46.3278
46.2996
46.1581
46.1169
46.0173
45.7915
45.7536
45.9271
45.7402
45.2822
45.4362
45.2756
45.5217
44.6991
43.5435
43.3078
44.8447
43.7414
43.6067
43.3506
42.9067
42.5185
42.3732
6.19337
18.9638
31.7649
37.1253
40.9343
43.1095
44.6497
45.585
46.2458
46.417
46.4436
46.3019
46.1853
46.0536
45.8398
45.8438
46.0037
45.7895
45.4781
45.7652
45.6555
45.9225
45.2263
44.1555
44.1643
45.3372
44.3845
44.2001
43.9784
43.5062
43.1495
43.0081
9.89794
18.3308
30.7135
36.4041
40.3837
42.8025
44.5249
45.4782
46.1045
46.4422
46.5131
46.4519
46.4879
46.4388
46.2682
46.2436
46.3335
46.0772
45.8636
46.1548
45.9813
46.1788
45.5559
44.5581
44.8247
45.7122
44.9679
44.8083
44.7111
44.2567
43.954
43.8486
11.8397
17.1336
29.3573
35.5273
39.8693
42.5037
44.2585
45.3766
46.2287
46.5169
46.6549
46.6613
46.6355
46.5451
46.3864
46.3908
46.4614
46.2454
46.2048
46.545
46.4114
46.6463
46.1387
45.2343
45.6973
46.2337
45.6232
45.4202
45.3403
44.8769
44.603
44.4982
12.5232
16.0116
27.9368
34.4473
38.9948
41.9058
43.9859
45.242
45.9802
46.4635
46.6955
46.7505
46.8816
46.9274
46.8652
46.8603
46.8601
46.6552
46.6941
46.9561
46.756
46.938
46.4922
45.6946
46.3467
46.6361
46.2221
46.0598
46.0749
45.6457
45.4195
45.3468
14.6478
14.5882
25.852
32.8785
38.0075
41.3552
43.5039
44.8795
46.0092
46.5003
46.797
46.9883
47.0939
47.091
47.0236
47.033
47.0462
46.9267
47.1034
47.37
47.2378
47.4542
47.0881
46.4144
47.1725
47.1691
46.8571
46.6573
46.6722
46.2516
46.0488
45.9738
17.163
13.7773
23.905
31.1758
36.5464
40.2014
42.8755
44.643
45.6094
46.3214
46.7858
46.9958
47.2377
47.4049
47.4796
47.5267
47.5033
47.4109
47.6102
47.768
47.5812
47.7422
47.4175
46.8913
47.7399
47.5677
47.4271
47.2856
47.368
46.9984
46.8386
46.7924
19.4898
12.7113
21.0001
28.5076
34.6415
39.1103
42.0013
43.8301
45.4341
46.261
46.7802
47.188
47.4593
47.5837
47.6346
47.6801
47.7033
47.7114
47.9959
48.1692
48.0802
48.2635
47.9882
47.6049
48.4589
48.0763
47.9912
47.8161
47.8769
47.5327
47.3871
47.3367
21.0017
12.4912
18.2562
25.7482
32.1391
36.8883
40.6176
43.3334
44.7423
45.8522
46.6539
47.0676
47.436
47.7407
47.9712
48.1203
48.1529
48.1776
48.4333
48.5064
48.3649
48.4803
48.2393
48.0151
48.8591
48.4072
48.4638
48.3636
48.4712
48.1924
48.0899
48.065
21.7258
12.6779
14.8121
21.4407
28.371
34.6482
38.9327
41.5919
44.1361
45.5375
46.4204
47.1244
47.6015
47.8797
48.0553
48.1734
48.2649
48.3886
48.6982
48.8295
48.8034
48.9384
48.7357
48.635
49.4173
48.8347
48.8969
48.7704
48.8415
48.6004
48.5023
48.4743
21.2074
12.6563
10.264
16.4333
24.1817
30.028
35.7331
40.4906
42.7216
44.6395
46.0241
46.7789
47.3544
47.8106
48.202
48.4835
48.6162
48.7387
48.9971
49.0469
48.9559
49.0156
48.8644
48.9068
49.6085
49.0538
49.243
49.2061
49.3112
49.1477
49.0957
49.0884
19.0297
13.015
6.93391
4.2246
13.4666
24.9619
32.1016
36.1957
41.1364
43.6592
45.2657
46.5164
47.3438
47.8654
48.1933
48.4055
48.5837
48.7936
49.1038
49.2586
49.2915
49.3873
49.2798
49.3953
49.9693
49.3519
49.4767
49.3999
49.447
49.3264
49.2696
49.261
16.2494
11.1984
5.13352
5.97577
11.0812
14.4615
21.1478
33.708
37.4339
41.5383
44.2102
45.6532
46.6773
47.417
48.0302
48.4943
48.7613
48.97
49.2057
49.2663
49.2108
49.2294
49.1827
49.3746
49.7932
49.3086
49.5765
49.6131
49.6853
49.6592
49.6519
49.6588
12.5429
11.1869
8.25239
5.39957
10.8908
1.17271
12.5339
9.47093
32.7244
38.5432
42.1423
44.679
46.1968
47.1745
47.771
48.123
48.4093
48.6904
49.0053
49.2153
49.3095
49.4055
49.4131
49.6019
49.8321
49.3352
49.4201
49.3397
49.3003
49.2887
49.2559
49.2519
11.5951
5.52571
3.92515
11.0357
6.75781
11.6487
4.90596
2.6365
16.3378
32.5917
39.3657
42.5436
44.6246
45.9345
46.9418
47.7197
48.2149
48.5446
48.7556
48.8045
48.7267
48.6976
48.7017
48.8254
48.7906
48.5036
48.8046
48.8896
48.8849
49.0002
49.0241
49.0321
10.3937
9.37936
10.9131
7.81498
12.0788
7.28372
7.16469
5.84516
7.83457
18.8581
33.6682
39.9868
43.0379
44.9362
46.0127
46.6029
47.0365
47.398
47.7316
47.9814
48.1314
48.2631
48.3298
48.3563
48.056
47.7441
47.5454
47.269
46.9597
46.9597
46.8773
46.8192
7.25816
1.83296
10.1416
6.99929
5.88913
13.2454
10.3874
12.9114
12.4846
10.0234
28.6268
34.7678
39.1538
41.6499
43.5091
44.9356
45.8776
46.4185
46.5581
46.4428
46.1712
45.9326
45.6743
45.2462
44.331
44.3248
44.6037
44.6051
44.4054
44.5837
44.5679
44.5037
3.24481
7.10924
6.32338
2.90846
11.2719
12.0468
10.1899
5.33347
13.1572
8.29193
8.51911
28.3281
34.4719
38.5551
40.5571
41.5587
42.2103
42.6483
42.9529
43.1577
43.3069
43.4278
43.2868
42.6489
41.3074
40.3838
38.5829
36.6069
34.484
32.9784
31.683
30.7452
8.00739
2.39837
9.38895
6.94007
16.858
22.0262
21.2571
15.6945
9.88952
6.22082
13.5628
11.1594
14.895
21.5292
29.6634
34.5273
37.399
38.6187
38.4699
37.2012
35.4782
32.9828
29.0022
23.2185
13.3218
18.4976
14.0709
18.0499
9.46173
16.6458
12.7267
16.3469
6.6905
10.666
8.31977
8.449
11.9668
19.4274
25.1089
27.5936
25.9703
17.4409
5.11331
6.1818
14.2198
15.319
16.7239
14.6019
8.80257
12.6012
9.76621
9.54531
3.25842
18.8648
18.1232
6.91983
11.5359
12.9468
18.0529
18.1914
14.9647
15.0585
6.97888
9.02671
5.99469
12.9096
13.9417
14.3549
14.6607
17.3902
21.4011
24.6121
25.7941
26.6498
24.7698
16.2866
7.17167
13.5282
16.7699
11.5564
15.5637
10.9584
16.4585
15.8807
12.0568
8.64633
17.4991
13.3744
19.9143
20.3768
17.4983
11.7395
15.3829
18.1695
19.4354
20.1702
8.07402
16.8506
20.1748
22.132
23.0379
23.8341
25.0301
26.3379
27.2756
27.0987
26.2153
26.4542
24.9072
23.4941
22.5258
17.9287
10.8309
11.6117
17.3237
5.27329
10.1555
12.3663
17.2341
20.3085
23.5869
26.0945
26.6325
28.9518
28.6577
28.4166
28.0975
27.8404
6.90796
16.356
20.7528
24.0454
26.2427
27.5086
28.2115
28.6939
28.9595
28.9164
28.4364
26.4836
25.1584
26.1109
27.5973
28.3759
28.4374
26.279
25.7092
26.2944
26.8155
28.4205
28.9892
29.1073
29.2232
29.1248
28.9303
28.4033
28.4534
28.2476
27.829
27.6231
5.36215
14.1371
18.6856
22.3911
25.1843
27.0593
28.0669
28.4057
28.1873
27.3048
25.4434
22.8414
22.3358
24.099
26.1243
27.0664
27.3255
28.1064
28.2237
28.4125
28.5695
28.3188
28.5315
28.7352
29.1098
29.0246
28.7782
28.4383
27.5017
26.3926
25.2048
24.3885
4.51063
12.3917
16.2016
19.4593
22.0858
23.8694
24.6636
24.3697
22.748
19.2559
14.0646
6.86264
5.95032
10.9329
15.4491
21.1776
24.8569
26.5521
27.2829
27.4595
27.3236
27.146
26.6396
25.983
25.6314
24.6405
23.6605
22.6722
21.7822
20.6655
19.5598
18.8459
4.24294
11.5723
14.3452
16.6617
18.5407
19.6176
19.5957
18.0937
14.3635
7.9018
5.31771
6.95448
11.7019
14.1744
11.3804
8.70194
13.4862
18.1277
20.4888
21.3765
21.4361
21.1157
21.034
21.2809
21.6893
21.9061
22.0486
22.0943
21.8062
21.3755
20.9054
20.5837
4.23968
11.5346
13.896
15.7379
17.0311
17.4989
16.8321
14.6368
9.85807
7.89153
8.51399
8.86295
11.6817
13.4249
18.6291
20.7956
20.6432
20.09
20.2101
20.6827
21.248
21.8436
22.2142
22.3779
22.351
22.0937
21.7207
21.2243
20.642
19.9466
19.2762
18.7846
3.9662
11.5993
13.8869
15.8094
17.2589
17.991
17.8414
16.8614
15.8219
13.7082
12.1466
13.314
13.0887
12.5609
11.1582
11.4919
15.9493
18.901
20.2439
20.7311
20.7759
20.5683
20.3578
20.2748
20.2534
20.1237
19.9977
19.8172
19.5508
19.1955
18.8215
18.5734
3.67404
11.4735
13.5011
15.4127
17.0162
18.0107
18.2042
17.6175
16.14
14.2386
13.4204
12.7383
13.2413
14.8181
16.5298
17.4643
16.7708
16.9934
17.8171
18.544
19.0611
19.4869
19.8425
20.1154
20.2776
20.3471
20.2967
20.1196
19.8316
19.4385
19.0179
18.7038
3.3104
10.7576
12.7807
14.7722
16.4878
17.5642
17.7824
17.1421
15.6816
14.0678
13.2613
13.9349
14.7052
14.6278
14.6227
15.7007
17.6334
18.7521
19.348
19.7509
20.0268
20.1951
20.3304
20.4754
20.5903
20.6085
20.5583
20.4024
20.1433
19.7819
19.3933
19.1274
3.43308
10.7116
12.0765
13.6494
15.1025
15.9946
16.0961
15.4855
14.4536
13.8641
14.4156
15.1092
15.4083
16.1867
17.0815
17.4314
17.5702
18.2116
19.0018
19.6504
20.1406
20.5315
20.8532
21.1088
21.2681
21.3204
21.2636
21.0737
20.7781
20.3717
19.9458
19.6593
3.80297
11.4608
12.4419
13.3103
13.8371
13.8625
13.313
12.6002
12.4653
13.7201
15.1433
15.8921
16.5156
16.937
17.4093
18.3454
19.2881
19.9255
20.4321
20.8944
21.2931
21.6173
21.8819
22.0914
22.2163
22.2211
22.1251
21.8991
21.5658
21.1162
20.6528
20.358
3.54373
11.3742
11.5878
11.667
11.5204
11.4791
11.6156
12.771
14.4836
15.665
16.2232
16.8371
17.5511
18.3528
19.058
19.4678
19.9337
20.5879
21.2528
21.8312
22.3187
22.7306
23.0691
23.3229
23.4627
23.4694
23.3489
23.0764
22.6867
22.1732
21.6564
21.3411
2.04726
8.37545
11.4739
11.7249
12.2013
12.8689
13.7985
14.6801
15.3323
16.1113
17.1965
18.2356
19.0938
19.7533
20.3745
21.1087
21.7653
22.3206
22.8572
23.3864
23.8768
24.3048
24.6542
24.9075
25.0359
25.0141
24.8517
24.5263
24.0749
23.4929
22.916
22.5764
1.91622
8.6665
11.5322
11.6769
11.6823
11.9124
12.6764
14.0128
15.6733
17.288
18.5853
19.6154
20.4866
21.2937
22.0004
22.5671
23.1595
23.8017
24.4347
25.0296
25.5736
26.0523
26.4451
26.7264
26.8649
26.837
26.6479
26.2786
25.7687
25.1202
24.4845
24.1194
2.11854
9.1376
11.4175
11.5567
11.8376
12.9095
14.5519
16.2765
17.7904
19.0491
20.1591
21.1906
22.1377
22.9604
23.7003
24.4187
25.0791
25.7026
26.3258
26.9439
27.5289
28.0514
28.4813
28.7877
28.9373
28.9057
28.696
28.2916
27.7319
27.0257
26.338
25.9486
1.48399
1.83786
2.31381
2.76435
3.16618
3.48311
3.77647
4.05814
4.3203
4.46829
4.61107
4.72775
4.88076
5.05662
5.24771
5.40985
5.49372
5.52433
5.55228
5.57687
5.57715
5.46413
5.30604
5.14322
4.95737
4.75047
4.51585
4.24254
3.9372
3.6028
3.36378
3.24625
3.18953
3.15119
3.16533
3.17189
3.05914
2.83851
2.45232
2.18509
5.4823
6.65686
7.98407
9.11907
10.0046
10.5753
11.0058
11.4218
11.6005
11.4689
11.55
11.6194
11.7774
11.9488
12.1012
12.2299
12.3553
12.4746
12.5819
12.6858
12.7956
12.9231
13.0279
13.0842
13.0564
12.9517
12.7801
12.534
12.219
11.768
11.6588
11.5222
11.6471
11.4837
11.2458
11.2663
10.7673
10.2406
9.55005
8.96948
7.18521
8.49592
9.74138
10.6959
11.3388
11.5631
11.8569
12.4363
12.9413
13.3181
13.6463
13.9309
14.1878
14.421
14.6237
14.7966
14.958
15.1052
15.2315
15.3444
15.452
15.5664
15.6544
15.7044
15.7117
15.6676
15.5487
15.3537
15.0907
14.7537
14.3485
13.9104
13.4333
12.9038
12.3867
11.9041
11.6573
11.565
11.4409
11.4215
8.69676
9.95486
10.9075
11.5791
11.8429
12.6137
13.3392
14.0065
14.626
15.1418
15.5901
15.9852
16.3334
16.6423
16.9164
17.1502
17.3483
17.5129
17.6465
17.752
17.8304
17.8792
17.893
17.8751
17.8363
17.7693
17.6547
17.4716
17.2134
16.8922
16.4939
16.0296
15.4834
14.8559
14.1593
13.4252
12.7052
12.2048
11.8021
11.7588
10.0888
11.1186
11.5676
12.2044
13.2299
14.1356
15.0002
15.7347
16.4022
16.9829
17.497
17.9557
18.3647
18.7238
19.0339
19.2965
19.5162
19.6959
19.8376
19.9428
20.0105
20.0378
20.0217
19.9629
19.8659
19.7366
19.5842
19.3918
19.1353
18.8132
18.4187
17.9621
17.4201
16.8013
16.0853
15.3034
14.4382
13.6905
12.8474
12.6573
11.2104
11.6561
12.5972
13.6775
14.8013
15.759
16.6398
17.4104
18.1053
18.725
19.2792
19.7741
20.2134
20.5997
20.9349
21.2201
21.4585
21.6521
21.8029
21.9116
21.9764
21.9939
21.9612
21.8783
21.7489
21.5784
21.374
21.1438
20.8784
20.5614
20.1732
19.7317
19.2058
18.6218
17.926
17.1865
16.2932
15.5094
14.4382
13.9986
11.8431
12.9057
14.0974
15.2824
16.3676
17.3285
18.2017
18.9853
19.6943
20.3334
20.9094
21.4267
21.8889
22.2976
22.6539
22.9585
23.2129
23.4187
23.5776
23.6898
23.7531
23.7634
23.7174
23.6157
23.4621
23.262
23.0221
22.7501
22.4523
22.1288
21.7488
21.3235
20.8147
20.2709
19.6021
18.9287
18.0594
17.3073
16.2478
15.5392
13.2358
14.4691
15.6947
16.8362
17.8712
18.8101
19.6697
20.454
21.17
21.8218
22.4138
22.9493
23.4303
23.8578
24.2318
24.552
24.8192
25.0344
25.1992
25.3141
25.3758
25.3795
25.3212
25.2017
25.0261
24.8006
24.5325
24.2288
23.8965
23.5463
23.1627
22.7505
22.257
21.7455
21.1046
20.4828
19.6693
18.9326
18.0123
17.1019
14.8891
16.069
17.2377
18.3023
19.2929
20.2064
21.0541
21.8361
22.5562
23.2168
23.821
24.3707
24.8666
25.3087
25.6959
26.0274
26.3029
26.5237
26.6918
26.8079
26.8684
26.8666
26.7971
26.6611
26.4645
26.2153
25.9218
25.592
25.2321
24.8533
24.4496
24.0378
23.5596
23.0687
22.4584
21.8618
21.1161
20.3731
19.5908
18.6115
16.5246
17.5934
18.6886
19.6877
20.6434
21.5345
22.3714
23.1493
23.8708
24.5369
25.1494
25.7089
26.2152
26.6669
27.0624
27.3997
27.6786
27.9002
28.0679
28.1836
28.2438
28.2391
28.1609
28.0101
27.7942
27.5227
27.2056
26.8524
26.4695
26.0673
25.6424
25.2148
24.745
24.2663
23.6881
23.1017
22.4106
21.6737
20.9458
20.0412
18.0579
19.0196
20.057
21.0063
21.9344
22.8064
23.6326
24.4049
25.1254
25.794
26.4111
26.9763
27.4881
27.9445
28.3426
28.6802
28.956
29.1725
29.3356
29.449
29.5105
29.5068
29.4239
29.2613
29.0281
28.7362
28.3972
28.0224
27.6189
27.197
26.7551
26.3091
25.8352
25.3592
24.8083
24.2334
23.5687
22.8671
22.1117
21.3474
19.4748
20.3607
21.3556
22.2682
23.1744
24.0303
24.8462
25.6123
26.3302
26.9987
27.6173
28.1843
28.6973
29.1534
29.5488
29.8801
30.1464
30.3514
30.5052
30.6149
30.6778
30.6803
30.5983
30.4276
30.1797
29.8694
29.5104
29.115
28.6924
28.2525
27.7962
27.3342
26.8526
26.3687
25.8319
25.2697
24.6151
23.951
23.1558
22.4834
20.7964
21.6291
22.5943
23.481
24.3708
25.2142
26.0213
26.7817
27.4965
28.1634
28.781
29.3468
29.8576
30.309
30.6967
31.0162
31.2667
31.4559
31.6009
31.7062
31.7689
31.7768
31.701
31.526
31.2658
30.9387
30.5609
30.1462
29.7053
29.248
28.7773
28.301
27.81
27.3158
26.7797
26.2198
25.5686
24.9223
24.1125
23.4583
22.0402
22.8357
23.7824
24.6528
25.5325
26.3677
27.169
27.9255
28.6379
29.3028
29.9182
30.4809
30.9867
31.4304
31.806
32.1087
32.3389
32.5128
32.6493
32.7496
32.8105
32.8219
32.7536
32.5771
32.3062
31.9634
31.5676
31.1344
30.6753
30.2005
29.7147
29.2237
28.7209
28.2146
27.6712
27.1046
26.4447
25.797
24.9759
24.324
23.2185
23.9904
24.9294
25.7928
26.6692
27.5018
28.3016
29.0572
29.7689
30.4329
31.0463
31.6052
32.1044
32.5377
32.8982
33.1806
33.3881
33.5486
33.6764
33.7713
33.8297
33.843
33.7807
33.6029
33.322
32.9638
32.5503
32.0986
31.6212
31.1285
30.6258
30.1187
29.6015
29.0799
28.5237
27.9409
27.2662
26.5989
25.7648
25.0938
24.3397
25.1011
26.0436
26.9097
27.7907
28.6271
29.4305
30.1894
30.9034
31.5684
32.1808
32.7359
33.2279
33.6493
33.9921
34.2522
34.4379
34.5856
34.705
34.794
34.8493
34.8633
34.804
34.623
34.3313
33.9573
33.526
33.0558
32.5597
32.0483
31.5275
31.0022
30.4677
29.9275
29.3537
28.7469
28.0529
27.352
26.5105
25.7899
25.4082
26.1742
27.1312
28.0105
28.9042
29.7513
30.5642
31.3307
32.0506
32.7189
33.332
33.8841
34.3686
34.7768
35.1001
35.3361
35.5023
35.6379
35.7486
35.8316
35.8837
35.8973
35.8378
35.6499
35.345
34.9547
34.5054
34.0165
33.5017
32.9715
32.4315
31.8867
31.332
30.7709
30.1741
29.5416
28.8187
28.0894
27.2182
26.4772
26.4284
27.2143
28.197
29.0992
30.0134
30.8779
31.7055
32.4843
33.2133
33.8876
34.5027
35.0526
35.5293
35.9234
36.2257
36.436
36.5848
36.7085
36.8103
36.8872
36.9362
36.9487
36.8851
36.6855
36.3651
35.9575
35.4902
34.9831
34.4498
33.9007
33.3414
32.7765
32.2004
31.6166
30.9937
30.334
29.5781
28.8242
27.9112
27.1707
27.4066
28.2253
29.2436
30.1766
31.1177
32.0051
32.8517
33.6458
34.3866
35.0687
35.687
36.2348
36.7033
37.0822
37.3625
37.5463
37.6782
37.7894
37.882
37.9531
37.9996
38.0104
37.9375
37.721
37.3826
36.957
36.472
35.9474
35.3967
34.8297
34.2519
33.667
33.0696
32.4621
31.8122
31.1235
30.3356
29.5549
28.6046
27.8581
28.3491
29.21
30.2709
31.2397
32.2116
33.1248
33.9927
34.804
35.5578
36.2482
36.8699
37.4152
37.8746
38.237
38.4942
38.6518
38.7657
38.8637
38.9469
39.0129
39.0578
39.066
38.9765
38.7381
38.3794
37.9355
37.4336
36.8929
36.3263
35.743
35.1478
34.544
33.926
33.2951
32.6182
31.8994
31.081
30.2713
29.2893
28.5269
29.2595
30.1671
31.2736
32.2794
33.2832
34.2224
35.1117
35.94
36.7062
37.4042
38.0282
38.5699
39.0189
39.3637
39.5971
39.7288
39.8239
39.9078
39.9823
40.0447
40.0896
40.0923
39.9761
39.711
39.3301
38.8679
38.3502
37.7949
37.214
36.6163
36.0056
35.3845
34.7471
34.0934
33.3899
32.6405
31.7923
30.9526
29.9408
29.1577
30.1338
31.0872
32.2376
33.2786
34.3119
35.275
36.1836
37.0268
37.8033
38.5069
39.1315
39.668
40.1055
40.4322
40.642
40.7491
40.8248
40.895
40.9626
41.024
41.069
41.0579
40.904
40.607
40.2024
39.7225
39.1905
38.6227
38.03
37.42
36.7959
36.1594
35.5043
34.8284
34.0976
33.3176
32.4393
31.5699
30.5291
29.7243
30.9555
31.9493
33.1384
34.2097
35.2681
36.2512
37.1755
38.03
38.8137
39.5203
40.1429
40.6728
41.0983
41.408
41.5969
41.6823
41.7398
41.7983
41.862
41.925
41.966
41.9196
41.7197
41.3889
40.9614
40.4656
39.9217
39.344
38.7419
38.1219
37.4866
36.8363
36.1643
35.466
34.7066
33.8947
32.9862
32.0874
31.0188
30.1938
31.6924
32.7184
33.9387
35.0345
36.1124
37.1109
38.0467
38.9091
39.6967
40.4033
41.0222
41.5444
41.9591
42.2552
42.4293
42.4999
42.543
42.594
42.6578
42.7213
42.7425
42.635
42.3856
42.0221
41.5742
41.0655
40.5127
39.9277
39.3186
38.6909
38.0457
37.3825
36.694
35.9712
35.1801
34.3352
33.3961
32.4682
31.374
30.5319
32.3013
33.3505
34.5932
35.707
36.799
37.8087
38.7524
39.6193
40.4083
41.1129
41.727
42.2423
42.6494
42.9393
43.1101
43.1809
43.2188
43.2683
43.3327
43.3803
43.3366
43.162
42.8668
42.4756
42.012
41.4942
40.9356
40.3462
39.7324
39.0985
38.4442
37.768
37.0611
36.3095
35.4835
34.6035
33.6331
32.6768
31.5593
30.7036
32.7337
33.7963
35.0527
36.179
37.2805
38.2981
39.2468
40.1164
40.905
41.6067
42.2165
42.7274
43.1326
43.4268
43.6121
43.7086
43.7573
43.8074
43.8505
43.8279
43.7047
43.4721
43.1409
42.7297
42.2558
41.7329
41.1719
40.5804
39.9636
39.3241
38.6605
37.9703
37.2404
36.4539
35.59
34.6732
33.6712
32.6866
31.5495
30.6838
32.9434
34.0126
35.2764
36.4109
37.5188
38.5424
39.4955
40.3673
41.1561
41.8564
42.464
42.9735
43.3806
43.6832
43.8867
44.0099
44.0803
44.1117
44.0976
44.0125
43.8326
43.5591
43.2035
42.7796
42.3002
41.7757
41.2144
40.6221
40.0027
39.3572
38.683
37.9755
37.2156
36.3894
35.4866
34.5339
33.5024
32.493
31.342
30.4722
32.9006
33.9711
35.2362
36.3761
37.4882
38.5173
39.4744
40.3496
41.1406
41.8427
42.4524
42.9656
43.3794
43.6926
43.9091
44.0416
44.1118
44.1293
44.0824
43.9491
43.7269
43.4257
43.0553
42.6255
42.1452
41.622
41.0622
40.4701
39.8481
39.1952
38.5081
37.7768
36.9797
36.1117
35.1701
34.1813
33.1208
32.0875
30.9259
30.0549
32.6154
33.6828
34.9443
36.0862
37.1998
38.2321
39.1916
40.0688
40.8612
41.5648
42.1771
42.696
43.1201
43.4495
43.6859
43.8345
43.9031
43.8961
43.8076
43.6368
43.3909
43.0783
42.705
42.2771
41.801
41.2824
40.7259
40.1348
39.5094
38.8481
38.1443
37.382
36.544
35.6355
34.6571
33.6353
32.5504
31.4988
30.3343
29.4689
32.1142
33.1734
34.4258
35.5671
36.6804
37.7156
38.6779
39.5579
40.3522
41.0572
41.6704
42.1905
42.6169
42.9502
43.1919
43.3447
43.4119
43.3965
43.2991
43.1235
42.8771
42.5676
42.1998
41.7785
41.309
40.7961
40.2433
39.6525
39.0227
38.3508
37.6244
36.8258
35.9493
35.0039
33.9915
32.9383
31.8292
30.7593
29.592
28.7317
31.5352
32.582
33.8209
34.957
36.0662
37.101
38.0638
38.945
39.7406
40.4468
41.0611
41.5824
42.0103
42.3457
42.5902
42.7467
42.8181
42.8065
42.7139
42.5445
42.3061
42.0056
41.6472
41.2354
40.7748
40.2693
39.7217
39.1327
38.5
37.8178
37.0693
36.2414
35.3351
34.3612
33.3227
32.2464
31.1207
30.0382
28.8709
28.015
31.1355
32.1667
33.3901
34.5172
35.6192
36.6502
37.6106
38.4907
39.286
39.9924
40.6077
41.1304
41.5604
41.899
42.1477
42.3093
42.3868
42.3819
42.2968
42.1363
41.9075
41.617
41.269
40.8675
40.4166
39.9199
39.3796
38.7953
38.165
37.4803
36.7233
35.8849
34.9687
33.9849
32.9375
31.8528
30.7212
29.6336
28.4674
27.6119
5.11289
21.512
35.0111
38.8681
42.2617
43.7566
44.7611
45.0751
45.2203
45.1177
45.1305
45.2218
45.3937
45.5816
45.6618
45.4912
45.1597
44.4387
43.386
43.4043
42.4423
42.5758
41.5682
41.8218
41.2526
42.5445
41.3684
41.155
40.4831
40.2573
39.7113
39.4875
3.18372
21.4916
34.6586
38.6444
42.0181
43.6627
44.7953
45.1349
45.3431
45.4346
45.5266
45.5763
45.5753
45.6362
45.6099
45.3756
44.9827
44.3741
43.6198
43.6392
42.9376
42.9813
42.1874
42.4906
41.9949
43.0165
41.9416
41.61
40.9759
40.6899
40.156
39.934
15.5598
20.8754
34.0455
38.3157
41.8325
43.5498
44.6919
45.1554
45.4761
45.5047
45.5693
45.6056
45.7654
45.8823
45.8489
45.5463
45.1181
44.5638
43.9988
43.9453
43.3716
43.2137
42.5641
42.8006
42.386
43.1963
42.3595
42.0752
41.5997
41.3487
40.8954
40.7022
12.1878
20.6451
33.5571
38.0354
41.5402
43.398
44.6817
45.1835
45.5296
45.7382
45.8793
45.9591
45.9413
45.9345
45.8105
45.476
45.0295
44.5751
44.2379
44.2166
43.8559
43.6203
43.2111
43.4713
43.2167
43.7583
43.0292
42.6375
42.1839
41.8719
41.4264
41.2342
5.72992
19.7643
32.8035
37.603
41.2706
43.2174
44.4989
45.1353
45.6174
45.7505
45.8792
45.9038
46.0746
46.1775
46.1197
45.7859
45.3153
44.9005
44.6793
44.622
44.3007
43.9289
43.6384
43.8045
43.6928
44.009
43.4749
43.144
42.8422
42.5719
42.208
42.0475
10.8328
19.4487
32.0708
37.1462
40.8612
42.9795
44.4445
45.135
45.6068
45.924
46.104
46.2322
46.2418
46.2405
46.1351
45.8055
45.3431
44.971
44.9019
44.9028
44.7021
44.3862
44.2678
44.4635
44.5676
44.639
44.2107
43.7947
43.4959
43.1668
42.8007
42.6385
11.1665
18.6334
31.1222
36.5483
40.4831
42.7273
44.1923
45.0411
45.6885
45.9058
46.0983
46.141
46.35
46.5175
46.5323
46.2549
45.7657
45.406
45.4006
45.3852
45.1489
44.8062
44.7122
44.8173
45.0813
44.9363
44.6615
44.3156
44.1579
43.887
43.5993
43.4717
11.678
17.8266
30.0804
35.8075
39.8749
42.3701
44.1063
45.0352
45.6378
46.075
46.3052
46.4926
46.5624
46.6226
46.6088
46.3507
45.8965
45.5413
45.6264
45.6628
45.4947
45.318
45.3104
45.4793
45.9547
45.6146
45.4418
45.0381
44.8631
44.5355
44.2335
44.1017
14.1626
16.8286
28.8064
34.9325
39.3219
42.0058
43.7497
44.8706
45.7225
46.0432
46.3178
46.4169
46.6878
46.9542
47.0841
46.9007
46.4238
46.0832
46.1974
46.216
45.9972
45.8418
45.7752
45.8722
46.4607
45.9428
45.8843
45.5534
45.5027
45.2556
45.0278
44.933
16.2191
16.0703
27.3844
33.7535
38.3587
41.4073
43.5608
44.8092
45.5856
46.1906
46.5241
46.8021
46.9562
47.0972
47.1846
47.0222
46.6198
46.2875
46.4412
46.4878
46.3314
46.3687
46.3473
46.5465
47.2844
46.6471
46.6805
46.3151
46.2294
45.9248
45.67
45.5689
19.1502
15.3569
25.6867
32.4519
37.4809
40.7894
42.9636
44.4659
45.6074
46.0971
46.5042
46.7154
47.081
47.4509
47.6968
47.6118
47.1958
46.903
47.0659
47.0977
46.9116
46.9478
46.8252
46.9644
47.7234
46.9706
47.0788
46.7805
46.7995
46.5994
46.42
46.3588
22.4514
15.1446
23.8637
30.6124
35.8844
39.7292
42.5286
44.2283
45.2768
46.1408
46.6614
47.0834
47.3452
47.5754
47.7486
47.6886
47.3895
47.1293
47.2979
47.3411
47.2213
47.4212
47.3517
47.6187
48.4479
47.6645
47.8514
47.5376
47.5075
47.2445
47.0252
46.955
25.6327
15.501
21.8816
28.7732
34.4761
38.6011
41.4221
43.5268
45.1246
45.895
46.5125
46.8936
47.3951
47.8736
48.2332
48.2503
47.944
47.749
47.9268
47.9751
47.8494
47.9989
47.812
48.0084
48.7557
47.9215
48.141
47.8807
47.9331
47.7974
47.6634
47.6371
29.1165
16.8319
19.8527
26.0689
31.821
36.7137
40.5399
42.9107
44.421
45.7173
46.542
47.1764
47.5666
47.8842
48.129
48.1819
48.0377
47.9032
48.0763
48.1276
48.0585
48.3304
48.2323
48.5636
49.3226
48.5436
48.8289
48.5722
48.5703
48.3643
48.1798
48.1398
30.6399
18.4183
18.2213
23.5611
29.6612
34.6258
38.3633
41.5284
43.9153
45.1577
46.1293
46.7652
47.466
48.0619
48.5268
48.6424
48.4823
48.4287
48.6277
48.7119
48.657
48.8362
48.6113
48.856
49.4598
48.6757
48.9602
48.7392
48.7989
48.7399
48.6582
48.6683
31.2358
19.9078
16.2708
19.9769
25.2113
31.2745
36.7438
40.1235
42.4565
44.539
45.8865
46.8687
47.4283
47.8737
48.1911
48.3644
48.4
48.4171
48.6149
48.7045
48.6875
48.9561
48.8784
49.2573
49.8595
49.2021
49.5464
49.3534
49.3509
49.2012
49.0526
49.0368
30.0102
21.1344
15.5854
16.3611
21.9492
27.2091
31.9878
37.2996
41.2103
43.3
44.9138
46.0097
47.0712
47.8585
48.4668
48.7051
48.7074
48.8095
49.054
49.1988
49.2213
49.3725
49.1613
49.3833
49.7245
49.0868
49.3714
49.1906
49.2226
49.2511
49.2363
49.2807
28.1569
21.3192
13.4115
9.55182
12.299
20.4446
29.184
33.9174
37.9415
41.7123
44.0979
45.7146
46.5791
47.2561
47.703
48.0583
48.3187
48.5087
48.7479
48.8714
48.8993
49.102
49.107
49.4617
49.8574
49.427
49.7766
49.6638
49.6223
49.5217
49.4013
49.388
25.7392
21.2842
12.0929
6.90707
11.0546
12.46
12.225
26.8313
34.7867
38.8145
41.8212
43.8967
45.7044
46.8861
47.7763
48.1884
48.3832
48.6508
48.955
49.1672
49.2753
49.3481
49.195
49.2735
49.1859
48.7454
48.8961
48.7165
48.6309
48.7353
48.796
48.8632
22.818
20.2777
11.0928
11.352
10.4809
10.6834
11.7115
9.32296
24.9428
34.5494
39.7694
42.747
44.2007
45.3348
46.0494
46.7497
47.319
47.6963
47.9722
48.098
48.1086
48.1314
48.2633
48.4746
48.6292
48.5019
48.7616
48.7402
48.5819
48.4996
48.3556
48.2862
20.159
19.4017
1.71005
8.26297
11.1883
11.0701
11.3626
11.4681
2.08134
26.7649
33.8689
38.6136
42.1794
44.2273
45.7032
46.355
46.7641
47.1787
47.5329
47.815
47.9834
47.9031
47.8431
47.5535
46.5919
46.2728
45.8976
45.5086
45.0122
45.0823
45.1489
45.2037
15.3622
18.2584
10.492
2.83832
11.3549
5.33099
8.5478
12.3001
5.97563
8.55769
29.9873
35.7317
38.1344
40.1415
41.3847
42.8787
43.9622
44.5534
44.8013
44.7862
44.4955
44.0196
44.1931
43.9261
43.8032
44.1111
44.0524
44.1066
43.6361
43.3817
42.9204
42.5037
12.3212
16.5748
10.2064
2.32409
8.54458
7.55337
12.6933
12.4524
12.5456
12.8471
11.717
21.6729
32.0107
36.9008
40.1148
41.0105
41.6111
42.0778
42.4061
42.741
42.8681
42.469
42.4319
41.1355
36.9432
35.0827
31.2297
27.5297
22.2445
18.5185
14.2649
12.1593
6.8672
15.2987
7.98921
4.19119
11.4433
10.4809
7.99287
11.9053
12.26
14.6475
8.43002
8.47008
16.6605
12.2257
19.7188
27.7386
31.3049
32.6784
32.5768
31.1551
27.5428
22.7821
18.7137
8.07803
20.5264
11.1419
5.69275
10.0597
14.1246
17.2707
6.10477
16.563
5.40335
13.0174
4.31919
3.03646
12.3859
19.8147
23.0583
24.3626
24.1411
20.3278
4.15296
7.36094
13.57
13.8657
15.2408
13.0171
10.178
7.04791
18.4597
18.7112
14.2985
17.505
5.30665
2.34372
16.4297
16.9956
11.3724
18.4021
9.51027
8.05668
5.69709
10.1083
10.3687
13.1582
10.8675
6.65361
11.1202
18.6689
24.5071
27.5761
28.4958
27.9388
25.6704
16.2785
16.7653
15.9477
15.8148
3.024
6.08977
15.615
10.7975
11.9584
8.73778
7.06712
8.05256
15.1838
3.78681
10.7536
14.1016
18.6714
21.1286
22.4631
23.6913
23.7454
11.695
16.3992
15.5425
13.4105
12.8487
16.7526
22.2211
26.3921
28.6974
29.0009
26.2062
22.812
23.0095
22.4012
20.598
17.3721
12.7062
9.14527
5.99402
8.84561
11.6223
16.2607
19.6198
22.1048
24.6843
26.7358
27.2101
27.2277
27.1417
26.9933
26.7805
26.648
10.1285
17.5868
19.1561
19.1648
18.5928
19.5646
22.4258
25.6198
27.743
27.8972
26.0956
23.9312
23.0258
23.6965
24.5722
25.3156
25.5136
25.4323
25.4916
25.6892
26.1696
26.5324
26.9546
27.5487
28.0693
28.0897
28.4883
28.5106
28.386
27.9531
27.431
27.0512
7.67746
17.2806
20.4664
22.0666
22.6337
23.1384
24.2907
25.7731
26.5842
25.9696
23.6824
20.6742
20.0985
22.0997
24.3018
25.9365
26.4444
26.5161
26.5991
26.8459
27.2542
27.6199
28.05
28.5198
28.6663
28.2322
27.6575
26.7319
25.5744
24.3867
23.0264
22.2019
5.59516
15.8953
19.9541
22.4711
23.9067
24.6813
25.2009
25.4477
24.9727
23.0581
18.8489
12.7197
4.36557
11.584
14.6254
20.7269
23.857
25.2679
25.8458
26.0209
26.0437
25.8726
25.6571
25.5014
25.0422
24.1838
23.4881
22.7431
21.8899
21.1407
20.3375
19.8708
4.06611
13.5783
17.9892
21.083
23.1223
24.3022
24.7869
24.6029
23.5449
21.1672
17.2764
13.1338
12.0832
13.835
14.2522
15.0723
17.5806
19.6941
20.9093
21.4813
21.7776
21.9679
22.2155
22.5472
22.7736
22.7661
22.5974
22.2678
21.6205
20.9208
20.139
19.697
3.33976
11.4348
15.1774
18.5084
20.9955
22.5648
23.2392
23.0295
21.7912
19.2617
16.0622
13.2719
11.7032
11.4279
13.5173
16.762
18.634
19.7747
20.54
21.066
21.4666
21.78
22.0179
22.1654
22.0972
21.8526
21.5071
21.0742
20.4966
20.0119
19.4446
19.1336
3.14851
10.1655
11.5358
14.2572
16.9706
18.8444
19.6872
19.4474
18.0928
15.9918
14.176
12.2621
11.6075
12.5091
14.5627
16.1173
17.7228
19.0252
19.866
20.3451
20.6233
20.8009
20.9457
21.0553
21.0722
21.0498
20.923
20.694
20.278
19.8605
19.3743
19.1056
2.6039
8.29702
10.1257
11.3944
11.8733
13.3617
14.4169
14.757
14.6562
14.4866
13.6471
12.1393
11.6144
12.91
14.4132
16.0833
17.5681
18.6976
19.4468
19.9069
20.2121
20.4488
20.6872
20.9383
21.1433
21.2907
21.3124
21.2035
20.9124
20.5608
20.1381
19.9014
2.66466
7.99944
9.82109
11.0004
11.4464
12.6568
13.8981
14.9013
15.3964
14.9801
13.4449
12.0797
12.6365
13.9317
15.4215
16.7592
17.9008
18.8516
19.5954
20.1493
20.5759
20.9417
21.2905
21.6243
21.9111
22.1337