/*--------------------------------*- C++ -*----------------------------------*\
  =========                 |
  \\      /  F ield         | OpenFOAM: The Open Source CFD Toolbox
   \\    /   O peration     | Website:  https://openfoam.org
    \\  /    A nd           | Version:  6
     \\/     M anipulation  |
\*---------------------------------------------------------------------------*/
FoamFile
{
    version     2.0;
    format      ascii;
    class       volVectorField;
    location    "36";
    object      wallShearStress;
}
// * * * * * * * * * * * * * * * * * * * * * * * * * * * * * * * * * * * * * //

dimensions      [0 2 -2 0 0 0 0];

internalField   uniform (0 0 0);

boundaryField
{
    inlet
    {
        type            calculated;
        value           uniform (0 0 0);
    }
    outlet
    {
        type            calculated;
        value           uniform (0 0 0);
    }
    roughCylinder
    {
        type            calculated;
        value           nonuniform List<vector> 
5120
(
(-9.97844e-05 -0.000118704 -6.46739e-05)
(-0.000135416 -0.00022643 -6.20276e-05)
(-0.000214212 -0.000383457 -7.94912e-06)
(-0.000259674 -0.000457274 4.15434e-05)
(-0.000312932 -0.000516561 8.66241e-05)
(-0.000359379 -0.000546176 0.000124264)
(-0.000401492 -0.000559474 0.000154053)
(-0.000434096 -0.000556671 0.00017447)
(-0.000460694 -0.000547946 0.000188415)
(-0.000481652 -0.00053805 0.00019837)
(-0.000498673 -0.000529303 0.000206274)
(-0.000510431 -0.000520849 0.000211215)
(-0.000519531 -0.000515347 0.000213583)
(-0.000525593 -0.000511082 0.000213101)
(-0.000530648 -0.000509277 0.000210647)
(-0.000537445 -0.000511708 0.000207246)
(-0.000542686 -0.000514831 0.000201682)
(-0.000539341 -0.000511713 0.000191804)
(-0.000533977 -0.000507482 0.000180399)
(-0.000534339 -0.000508669 0.000170119)
(-0.000538798 -0.000513731 0.000160278)
(-0.000550801 -0.000526166 0.000151572)
(-0.000553834 -0.000531176 0.000139739)
(-0.000544214 -0.000524261 0.000124722)
(-0.000564769 -0.000544973 0.000115785)
(-0.000552519 -0.000535511 9.99913e-05)
(-0.000556845 -0.000541164 8.68612e-05)
(-0.000553498 -0.000539613 7.21602e-05)
(-0.000548444 -0.00053624 5.70479e-05)
(-0.000546324 -0.000535341 4.17861e-05)
(-0.000540667 -0.000530941 2.56001e-05)
(-0.000538441 -0.000529331 8.69751e-06)
(-0.000110728 -0.000115704 -5.88667e-05)
(-0.000147561 -0.000221272 -6.77187e-05)
(-0.000229449 -0.000375384 -1.64977e-05)
(-0.000277907 -0.00045379 3.27459e-05)
(-0.000333548 -0.000516233 7.81351e-05)
(-0.000382116 -0.000548952 0.000116554)
(-0.000425465 -0.000563648 0.000146649)
(-0.000459537 -0.000562687 0.000167334)
(-0.000488809 -0.000557405 0.000182282)
(-0.000512116 -0.000549878 0.000193568)
(-0.000531569 -0.000542875 0.000203004)
(-0.000545917 -0.000534907 0.000209389)
(-0.000554798 -0.000527346 0.00021197)
(-0.000561186 -0.000522255 0.000211789)
(-0.000567376 -0.000520626 0.000209868)
(-0.00057526 -0.000523316 0.000206835)
(-0.000581143 -0.00052657 0.000201486)
(-0.000579538 -0.000525068 0.000192366)
(-0.00057493 -0.000521828 0.000181415)
(-0.00057511 -0.000522941 0.000171177)
(-0.000579668 -0.000527927 0.000161367)
(-0.000591867 -0.000540015 0.00015254)
(-0.000596124 -0.000545949 0.000140959)
(-0.00058875 -0.000541556 0.000126539)
(-0.000608755 -0.000561103 0.000117179)
(-0.000595961 -0.000551716 0.000101352)
(-0.000600514 -0.000557436 8.80881e-05)
(-0.00059665 -0.000555685 7.32023e-05)
(-0.000591196 -0.000552257 5.79188e-05)
(-0.000588947 -0.000551415 4.24509e-05)
(-0.000583461 -0.000547505 2.60465e-05)
(-0.000581122 -0.00054593 8.85434e-06)
(-0.000112097 -0.000100912 -4.49559e-05)
(-0.000152992 -0.000203735 -7.02392e-05)
(-0.000242535 -0.000359662 -2.55001e-05)
(-0.000293675 -0.000441886 2.25043e-05)
(-0.000351476 -0.000507411 6.77583e-05)
(-0.000401944 -0.000543279 0.00010666)
(-0.000447594 -0.00056134 0.000137353)
(-0.000484265 -0.000564099 0.000158931)
(-0.000515672 -0.000561817 0.000174981)
(-0.000542011 -0.00055753 0.000187968)
(-0.00056491 -0.000553284 0.000199096)
(-0.000581598 -0.000546211 0.000206686)
(-0.000592832 -0.000538542 0.000210348)
(-0.000600409 -0.000533191 0.000210837)
(-0.000607866 -0.000531506 0.000209429)
(-0.000616456 -0.000533914 0.000206616)
(-0.000622371 -0.000536613 0.000201278)
(-0.000621941 -0.000536033 0.000192685)
(-0.000617659 -0.000533313 0.000182057)
(-0.000617229 -0.000534004 0.000171808)
(-0.000621686 -0.000538713 0.000162029)
(-0.000633627 -0.000550031 0.000153029)
(-0.000638341 -0.000556133 0.000141557)
(-0.000633438 -0.000554268 0.000127794)
(-0.000653673 -0.000573316 0.000118249)
(-0.000641568 -0.000565204 0.000102637)
(-0.000647016 -0.000571581 8.93523e-05)
(-0.000644283 -0.000571171 7.44812e-05)
(-0.000639089 -0.000568338 5.90482e-05)
(-0.000637251 -0.000568065 4.33451e-05)
(-0.000632255 -0.000564946 2.66478e-05)
(-0.000629895 -0.000563513 9.06594e-06)
(-0.000104478 -8.00526e-05 -2.79578e-05)
(-0.000164063 -0.000192671 -7.53161e-05)
(-0.000254124 -0.000340474 -3.48589e-05)
(-0.000308048 -0.000426434 1.14175e-05)
(-0.000367912 -0.000495063 5.63618e-05)
(-0.000421095 -0.000535222 9.58354e-05)
(-0.000468907 -0.000556574 0.000127063)
(-0.000507347 -0.000562304 0.00014946)
(-0.000542183 -0.000564514 0.000167261)
(-0.000572072 -0.000563881 0.000182201)
(-0.000597316 -0.000561127 0.00019459)
(-0.000616757 -0.000555509 0.000203345)
(-0.000629746 -0.000547561 0.000207887)
(-0.000638129 -0.000540709 0.000208886)
(-0.000646655 -0.000538706 0.000207954)
(-0.000655968 -0.000540591 0.000205395)
(-0.000662647 -0.000543244 0.00020037)
(-0.000663946 -0.000543879 0.000192478)
(-0.000660987 -0.000542421 0.00018249)
(-0.000661087 -0.00054366 0.000172591)
(-0.000666017 -0.000548575 0.00016301)
(-0.000677939 -0.000559369 0.000153917)
(-0.000682869 -0.000565453 0.000142496)
(-0.000680515 -0.000565962 0.000129331)
(-0.000701137 -0.000584608 0.000119626)
(-0.000687956 -0.000576275 0.00010391)
(-0.000693356 -0.000582468 9.04867e-05)
(-0.000690202 -0.000582041 7.54745e-05)
(-0.000684815 -0.000579434 5.99104e-05)
(-0.000682975 -0.000579385 4.40162e-05)
(-0.000678317 -0.000576904 2.7103e-05)
(-0.000675924 -0.000575624 9.22796e-06)
(-0.00011795 -7.55818e-05 -1.62025e-05)
(-0.000158472 -0.000163006 -7.2733e-05)
(-0.000260269 -0.000313892 -4.3532e-05)
(-0.00031675 -0.000402745 -2.7981e-07)
(-0.000378673 -0.000474712 4.35741e-05)
(-0.000433897 -0.000518583 8.30171e-05)
(-0.000484211 -0.000544094 0.000114644)
(-0.000527008 -0.000555972 0.000138594)
(-0.000565204 -0.000562552 0.000158165)
(-0.000597447 -0.000564401 0.000174688)
(-0.000626446 -0.000564518 0.000188793)
(-0.000648459 -0.000560197 0.000198645)
(-0.000664599 -0.000553755 0.000204462)
(-0.000676617 -0.000547694 0.000206882)
(-0.000687115 -0.000545121 0.000206736)
(-0.000697231 -0.000546459 0.000204505)
(-0.000703967 -0.000548291 0.000199609)
(-0.000705979 -0.000549087 0.000192122)
(-0.000703607 -0.000548123 0.000182585)
(-0.000703988 -0.000549621 0.000173009)
(-0.000709303 -0.000554637 0.000163651)
(-0.00072065 -0.000564523 0.000154422)
(-0.000725028 -0.000570055 0.000142969)
(-0.000725537 -0.000572991 0.000130474)
(-0.000747257 -0.000591787 0.000120795)
(-0.000734599 -0.000584675 0.000105246)
(-0.000740649 -0.000591326 9.1784e-05)
(-0.00073879 -0.000592333 7.67953e-05)
(-0.000733697 -0.000590388 6.10799e-05)
(-0.000732116 -0.000590796 4.49333e-05)
(-0.000727923 -0.000589054 2.77143e-05)
(-0.000725501 -0.000587938 9.44404e-06)
(-0.000116516 -6.11507e-05 -1.55941e-06)
(-0.000168258 -0.000150232 -7.7136e-05)
(-0.00026371 -0.000284916 -5.15383e-05)
(-0.000322081 -0.000375424 -1.22557e-05)
(-0.00038557 -0.000450219 2.98643e-05)
(-0.000444118 -0.000499441 6.92142e-05)
(-0.000498501 -0.000530814 0.000101537)
(-0.000543852 -0.000546688 0.000126626)
(-0.000585147 -0.000557108 0.000147913)
(-0.000622269 -0.000563533 0.000166675)
(-0.000654083 -0.000565467 0.00018221)
(-0.000679296 -0.000562893 0.000193431)
(-0.000698201 -0.000557553 0.000200389)
(-0.000712343 -0.000551645 0.000203736)
(-0.000724892 -0.000548352 0.000204459)
(-0.000735631 -0.000548131 0.000202616)
(-0.000743248 -0.000549541 0.00019817)
(-0.000746784 -0.000550984 0.000191376)
(-0.000746121 -0.000551221 0.000182619)
(-0.000748086 -0.000553866 0.000173711)
(-0.000754264 -0.000559297 0.000164688)
(-0.000765071 -0.000568401 0.000155369)
(-0.000768878 -0.000573471 0.000143905)
(-0.000771865 -0.000578291 0.000131945)
(-0.000794113 -0.000596711 0.00012219)
(-0.000780149 -0.000589451 0.000106524)
(-0.00078578 -0.00059574 9.29183e-05)
(-0.000783575 -0.000597013 7.78213e-05)
(-0.000778514 -0.000595696 6.20011e-05)
(-0.000776994 -0.000596562 4.56643e-05)
(-0.000773203 -0.000595607 2.82095e-05)
(-0.000770803 -0.000594773 9.62212e-06)
(-0.000142357 -5.94536e-05 1.48893e-05)
(-0.000148165 -0.000113157 -6.74411e-05)
(-0.000259462 -0.000249906 -5.79284e-05)
(-0.000320102 -0.000341174 -2.39134e-05)
(-0.000385522 -0.00041937 1.52087e-05)
(-0.000446893 -0.000473586 5.37579e-05)
(-0.000503517 -0.000509093 8.61737e-05)
(-0.000554075 -0.00053171 0.000112815)
(-0.000600979 -0.000548081 0.000136269)
(-0.000640442 -0.000556456 0.000156473)
(-0.000676007 -0.000560942 0.000173631)
(-0.000704519 -0.000560207 0.000186291)
(-0.000726744 -0.000556449 0.000194652)
(-0.000744996 -0.000552385 0.000199546)
(-0.000761255 -0.00055019 0.000201625)
(-0.000774469 -0.000549683 0.000200756)
(-0.000782774 -0.000549968 0.000196847)
(-0.000786692 -0.000550689 0.000190491)
(-0.000786663 -0.000550974 0.000182277)
(-0.000789664 -0.00055412 0.000173933)
(-0.000796468 -0.000559761 0.000165257)
(-0.000806284 -0.000567954 0.000155875)
(-0.000809219 -0.000572596 0.000144456)
(-0.00081484 -0.000579419 0.000133103)
(-0.000837995 -0.000597945 0.000123409)
(-0.000824609 -0.000592243 0.000107927)
(-0.000830668 -0.000599084 9.43013e-05)
(-0.000829506 -0.000601799 7.921e-05)
(-0.000824475 -0.000601183 6.32155e-05)
(-0.0008228 -0.000602407 4.66039e-05)
(-0.000819264 -0.000602156 2.88284e-05)
(-0.000816731 -0.000601516 9.8412e-06)
(-0.000127068 -4.0426e-05 2.79231e-05)
(-0.000159965 -0.000102312 -7.0989e-05)
(-0.000252467 -0.000214925 -6.36882e-05)
(-0.00031269 -0.000303662 -3.4964e-05)
(-0.000378521 -0.000383659 7.6234e-08)
(-0.000442791 -0.000443135 3.7113e-05)
(-0.000505376 -0.000486552 6.99576e-05)
(-0.000560291 -0.000514666 9.78495e-05)
(-0.000609635 -0.000533684 0.00012262)
(-0.000655195 -0.000546955 0.000144993)
(-0.000695063 -0.000554098 0.000163848)
(-0.000727493 -0.000555477 0.000178159)
(-0.000754059 -0.000553921 0.000188304)
(-0.000775177 -0.000550698 0.000194536)
(-0.000793257 -0.000548383 0.000197582)
(-0.00080788 -0.000547398 0.000197552)
(-0.000817863 -0.00054739 0.00019455)
(-0.000823677 -0.000548332 0.00018916)
(-0.000825821 -0.000549537 0.000181968)
(-0.000831089 -0.000553842 0.000174511)
(-0.000838654 -0.000559761 0.000166242)
(-0.000847476 -0.000567207 0.000156861)
(-0.000849649 -0.000571631 0.000145535)
(-0.000856663 -0.000579457 0.000134544)
(-0.000879421 -0.000597228 0.000124725)
(-0.000864521 -0.000591696 0.000109142)
(-0.0008695 -0.000598137 9.53647e-05)
(-0.000867758 -0.000601043 8.01628e-05)
(-0.000862731 -0.000601047 6.4071e-05)
(-0.000860956 -0.000602617 4.72836e-05)
(-0.000857673 -0.000602998 2.92838e-05)
(-0.000855118 -0.000602607 1.00058e-05)
(-0.000127124 -2.79965e-05 4.30778e-05)
(-0.000132203 -6.92437e-05 -5.64554e-05)
(-0.000235695 -0.000175181 -6.61908e-05)
(-0.000296612 -0.000261017 -4.40956e-05)
(-0.000363079 -0.000342747 -1.48479e-05)
(-0.000430972 -0.000408294 1.95918e-05)
(-0.000495365 -0.000455743 5.18232e-05)
(-0.000555051 -0.000489751 8.0602e-05)
(-0.000612615 -0.00051625 0.000107419)
(-0.000661654 -0.000531786 0.00013117)
(-0.000705491 -0.000541056 0.000151527)
(-0.000742421 -0.000544793 0.000167596)
(-0.000772479 -0.00054473 0.000179381)
(-0.000797951 -0.000543453 0.000187475)
(-0.00082041 -0.000542892 0.000192306)
(-0.000838122 -0.000542744 0.000193694)
(-0.000849718 -0.000542739 0.000191751)
(-0.000856288 -0.00054339 0.000187228)
(-0.000859284 -0.000544654 0.000180887)
(-0.000865816 -0.000549347 0.000174183)
(-0.000873633 -0.00055522 0.000166321)
(-0.000881342 -0.000561952 0.00015705)
(-0.0008828 -0.000566153 0.000145923)
(-0.000891194 -0.000574738 0.000135345)
(-0.00091381 -0.000591828 0.000125522)
(-0.00089942 -0.000587784 0.000110145)
(-0.000904497 -0.000594618 9.63787e-05)
(-0.000903443 -0.000598523 8.11901e-05)
(-0.000898364 -0.000599099 6.49828e-05)
(-0.000896192 -0.000600813 4.79941e-05)
(-0.000893076 -0.000601742 2.97552e-05)
(-0.000890356 -0.000601499 1.01749e-05)
(-0.000119881 -1.48103e-05 5.59193e-05)
(-0.000135887 -5.64881e-05 -5.49999e-05)
(-0.000217778 -0.000138309 -6.69577e-05)
(-0.000273586 -0.000216395 -5.07647e-05)
(-0.000338265 -0.000296878 -2.85914e-05)
(-0.000406557 -0.000365604 1.6926e-06)
(-0.000477733 -0.000421864 3.28227e-05)
(-0.000544289 -0.000463426 6.22329e-05)
(-0.000603789 -0.000491792 8.9699e-05)
(-0.00065988 -0.000512237 0.000115214)
(-0.000710267 -0.000525154 0.000137472)
(-0.000752165 -0.000531107 0.000155379)
(-0.000788258 -0.000533949 0.000169438)
(-0.000817968 -0.00053428 0.000179501)
(-0.000842578 -0.000533941 0.000185798)
(-0.000861734 -0.000533679 0.000188441)
(-0.000874938 -0.000533878 0.000187761)
(-0.000883257 -0.000535025 0.000184491)
(-0.000888487 -0.000537247 0.000179405)
(-0.000897112 -0.00054278 0.000173685)
(-0.000904995 -0.000548558 0.000166261)
(-0.000911861 -0.000554855 0.000157224)
(-0.000912985 -0.000559062 0.000146397)
(-0.000921467 -0.000567458 0.000136045)
(-0.000942823 -0.000583119 0.000126111)
(-0.000927086 -0.000579349 0.000110742)
(-0.000930674 -0.000585563 9.68872e-05)
(-0.000928898 -0.000589497 8.16746e-05)
(-0.000923741 -0.000590633 6.54609e-05)
(-0.000921288 -0.000592589 4.83986e-05)
(-0.000918262 -0.000593996 3.00349e-05)
(-0.000915493 -0.000593985 1.02802e-05)
(-0.000117808 -2.71678e-06 7.20408e-05)
(-0.000134523 -4.23556e-05 -5.08863e-05)
(-0.000191142 -0.00010095 -6.2946e-05)
(-0.000242534 -0.000170193 -5.32848e-05)
(-0.000303815 -0.000246892 -3.96535e-05)
(-0.00037525 -0.000321134 -1.54472e-05)
(-0.000447088 -0.000380958 1.30809e-05)
(-0.000516621 -0.000427002 4.17749e-05)
(-0.000586913 -0.000464613 7.03461e-05)
(-0.000648537 -0.000488519 9.69997e-05)
(-0.000703498 -0.000503241 0.000120643)
(-0.000751584 -0.000511737 0.000140556)
(-0.000791591 -0.000515591 0.000156424)
(-0.000825582 -0.000517405 0.000168564)
(-0.000855132 -0.000519065 0.000177138)
(-0.000878289 -0.00052036 0.000181829)
(-0.000893831 -0.000521337 0.00018279)
(-0.000903239 -0.00052271 0.000180819)
(-0.000909398 -0.000525125 0.000176853)
(-0.0009188 -0.000530694 0.000171966)
(-0.000926078 -0.000536115 0.000164994)
(-0.000932171 -0.000542106 0.000156344)
(-0.000932934 -0.000546275 0.000145926)
(-0.000941356 -0.000554378 0.000135887)
(-0.000961496 -0.000568658 0.000125985)
(-0.000946298 -0.000566357 0.000110938)
(-0.000949902 -0.000572941 9.72265e-05)
(-0.000948145 -0.000577356 8.20959e-05)
(-0.000942717 -0.00057895 6.58781e-05)
(-0.000939515 -0.000580888 4.87423e-05)
(-0.000936383 -0.000582651 3.02717e-05)
(-0.000933344 -0.000582742 1.03693e-05)
(-0.000114406 9.08981e-06 8.8511e-05)
(-0.00013203 -2.93155e-05 -4.57805e-05)
(-0.000160667 -6.80245e-05 -5.46743e-05)
(-0.000205011 -0.000125016 -5.08709e-05)
(-0.00026048 -0.000194451 -4.63519e-05)
(-0.000325978 -0.0002662 -3.00169e-05)
(-0.000403348 -0.000333897 -6.17816e-06)
(-0.000482047 -0.000389729 2.0824e-05)
(-0.000553426 -0.000428989 4.8615e-05)
(-0.000622779 -0.000458292 7.60552e-05)
(-0.000687067 -0.00047818 0.000101559)
(-0.000741597 -0.000488869 0.00012353)
(-0.000789472 -0.000495494 0.00014205)
(-0.000829469 -0.000499147 0.000156703)
(-0.000861825 -0.000501209 0.000167292)
(-0.000886466 -0.000502583 0.000173769)
(-0.000903651 -0.000504056 0.000176473)
(-0.000914921 -0.000506233 0.00017616)
(-0.000923323 -0.000509657 0.00017372)
(-0.000934074 -0.000515654 0.000169887)
(-0.00094055 -0.000520783 0.000163434)
(-0.000946144 -0.000526683 0.00015529)
(-0.000946713 -0.00053089 0.000145355)
(-0.000953819 -0.000538011 0.000135501)
(-0.000971692 -0.000550301 0.000125559)
(-0.000955054 -0.000548352 0.000110652)
(-0.000956528 -0.00055406 9.69417e-05)
(-0.000953553 -0.000558198 8.18914e-05)
(-0.000947644 -0.00056018 6.57807e-05)
(-0.00094372 -0.000562191 4.8716e-05)
(-0.000940325 -0.000564233 3.0275e-05)
(-0.000937128 -0.000564529 1.038e-05)
(-0.000101626 1.86431e-05 9.73235e-05)
(-0.000126865 -1.71782e-05 -3.94521e-05)
(-0.000123441 -4.01751e-05 -4.17224e-05)
(-0.00016178 -8.31374e-05 -4.27437e-05)
(-0.000207149 -0.000140233 -4.62665e-05)
(-0.000273364 -0.000213442 -4.09216e-05)
(-0.000347194 -0.00028171 -2.37024e-05)
(-0.000424838 -0.000339542 -5.05619e-07)
(-0.00050946 -0.000390459 2.58615e-05)
(-0.000586512 -0.000425297 5.32602e-05)
(-0.000656062 -0.000447642 7.96738e-05)
(-0.000718957 -0.000461833 0.000103891)
(-0.000771922 -0.000469078 0.000124695)
(-0.000816213 -0.000472879 0.000141697)
(-0.000853719 -0.000476217 0.000154875)
(-0.000883015 -0.000479189 0.000163882)
(-0.000903077 -0.000481944 0.000168765)
(-0.000915831 -0.000484869 0.000170271)
(-0.000925156 -0.000488655 0.000169283)
(-0.000935777 -0.00049437 0.00016637)
(-0.000940774 -0.000499098 0.000160462)
(-0.000945795 -0.000504893 0.000152935)
(-0.000945859 -0.000508941 0.000143553)
(-0.000951541 -0.000515152 0.000133989)
(-0.000966922 -0.000525623 0.000124144)
(-0.000950615 -0.000525018 0.000109703)
(-0.000951854 -0.000531106 9.62812e-05)
(-0.000947966 -0.000535341 8.14183e-05)
(-0.000941422 -0.000537701 6.54651e-05)
(-0.000936314 -0.000539634 4.85155e-05)
(-0.000932377 -0.000541832 3.01631e-05)
(-0.000928716 -0.000542174 1.03489e-05)
(-8.54164e-05 2.44858e-05 9.87101e-05)
(-0.000119933 -6.91522e-06 -3.28501e-05)
(-0.000105268 -2.54413e-05 -3.35346e-05)
(-0.00011744 -4.88503e-05 -2.99575e-05)
(-0.000152061 -9.12356e-05 -3.95042e-05)
(-0.000199095 -0.000149212 -4.32613e-05)
(-0.000274286 -0.00022135 -3.68661e-05)
(-0.00036201 -0.000290273 -2.06071e-05)
(-0.000444877 -0.000341601 2.23484e-06)
(-0.000530099 -0.000382996 2.83872e-05)
(-0.000611727 -0.00041304 5.57057e-05)
(-0.000682219 -0.000430605 8.18134e-05)
(-0.000744745 -0.000441501 0.000105642)
(-0.000797274 -0.000447543 0.000125886)
(-0.000838681 -0.000451012 0.000141704)
(-0.000869415 -0.000453377 0.000152935)
(-0.000890901 -0.000456095 0.000159902)
(-0.000905367 -0.000459577 0.000163356)
(-0.000916466 -0.000464182 0.000164051)
(-0.000927274 -0.000470151 0.000162248)
(-0.000930857 -0.000474871 0.000157025)
(-0.000935338 -0.000480651 0.000150182)
(-0.000934819 -0.000484573 0.000141389)
(-0.000938143 -0.00048983 0.000132062)
(-0.000950127 -0.000498508 0.000122338)
(-0.000932033 -0.00049805 0.00010818)
(-0.00093015 -0.000502992 9.48312e-05)
(-0.000924162 -0.000506697 8.01889e-05)
(-0.000916469 -0.000509144 6.45047e-05)
(-0.000909979 -0.000510952 4.78342e-05)
(-0.000905246 -0.000513131 2.97432e-05)
(-0.000901239 -0.000513586 1.02138e-05)
(-6.38649e-05 2.35088e-05 8.30149e-05)
(-0.000112784 2.32715e-07 -2.72209e-05)
(-9.94437e-05 -1.81641e-05 -2.77305e-05)
(-7.55665e-05 -2.4379e-05 -1.53295e-05)
(-8.36441e-05 -4.27686e-05 -2.2359e-05)
(-0.000134184 -9.69436e-05 -3.97902e-05)
(-0.000192934 -0.000158657 -4.41112e-05)
(-0.000270424 -0.000223192 -3.66871e-05)
(-0.000369996 -0.000289947 -2.05925e-05)
(-0.000464216 -0.000338735 3.05478e-06)
(-0.000551183 -0.000372308 3.02371e-05)
(-0.000631893 -0.000395589 5.81636e-05)
(-0.000700258 -0.000408643 8.43656e-05)
(-0.000756706 -0.000415342 0.000107219)
(-0.000803055 -0.000419743 0.000125943)
(-0.000838869 -0.000423561 0.000140085)
(-0.000863654 -0.000427203 0.000149601)
(-0.000879757 -0.000431082 0.000155117)
(-0.000891283 -0.000435745 0.000157356)
(-0.000900769 -0.000441347 0.000156533)
(-0.000902198 -0.000445811 0.000151973)
(-0.000905675 -0.000451339 0.000145818)
(-0.000903963 -0.000454825 0.000137629)
(-0.000904776 -0.000459276 0.000128672)
(-0.000912756 -0.000466188 0.000119189)
(-0.000894732 -0.000466769 0.000105662)
(-0.000892253 -0.000471959 9.27554e-05)
(-0.000884396 -0.000475267 7.84461e-05)
(-0.000875615 -0.000477824 6.31286e-05)
(-0.000867504 -0.000479455 4.68389e-05)
(-0.000861723 -0.000481454 2.91182e-05)
(-0.000857008 -0.00048182 1.00043e-05)
(-5.82064e-05 2.16325e-05 7.2687e-05)
(-0.000107285 2.9757e-06 -2.30643e-05)
(-9.12326e-05 -1.41007e-05 -2.02665e-05)
(-5.69464e-05 -1.44356e-05 -5.08316e-06)
(-3.91698e-05 -1.65519e-05 -7.31676e-06)
(-3.83145e-05 -2.798e-05 -1.5027e-05)
(-9.96304e-05 -8.92981e-05 -3.98873e-05)
(-0.00018324 -0.00016275 -4.98149e-05)
(-0.000272068 -0.00022388 -4.05847e-05)
(-0.000375756 -0.000281835 -2.11233e-05)
(-0.000477421 -0.000326442 5.18386e-06)
(-0.000565262 -0.000354485 3.4146e-05)
(-0.000643153 -0.000373017 6.27376e-05)
(-0.000708451 -0.000384126 8.86502e-05)
(-0.00075947 -0.000390212 0.000110222)
(-0.00079633 -0.000393758 0.000126684)
(-0.000821964 -0.000397183 0.000138372)
(-0.000839242 -0.000401238 0.00014591)
(-0.000851618 -0.000406167 0.00014983)
(-0.000860002 -0.000411621 0.000150087)
(-0.000859839 -0.00041618 0.000146292)
(-0.000862143 -0.0004214 0.000140795)
(-0.000859081 -0.000424452 0.000133229)
(-0.000856916 -0.000428012 0.000124641)
(-0.000860213 -0.000433186 0.000115406)
(-0.000839858 -0.000433567 0.000102285)
(-0.000832784 -0.000436924 8.94917e-05)
(-0.000821685 -0.000439033 7.55598e-05)
(-0.000810914 -0.000440984 6.07451e-05)
(-0.000800644 -0.000442 4.50625e-05)
(-0.000793481 -0.000443468 2.79872e-05)
(-0.000788174 -0.000443715 9.62087e-06)
(-6.16127e-05 1.70114e-05 6.03374e-05)
(-0.000102722 2.20561e-06 -1.88674e-05)
(-8.14621e-05 -1.18072e-05 -1.22369e-05)
(-4.25996e-05 -9.14747e-06 4.27501e-06)
(-1.71759e-05 -6.69523e-06 3.59308e-06)
(-5.77902e-06 -9.32993e-06 -5.07054e-06)
(-1.33875e-05 -2.16196e-05 -1.72926e-05)
(-6.33578e-05 -7.0464e-05 -4.15969e-05)
(-0.000175331 -0.000158141 -5.69076e-05)
(-0.000284236 -0.000223511 -4.19792e-05)
(-0.000388729 -0.000272453 -1.66195e-05)
(-0.000487321 -0.000309185 1.25665e-05)
(-0.000569796 -0.000331773 4.21478e-05)
(-0.000636906 -0.000344957 6.9411e-05)
(-0.000690695 -0.000353241 9.28299e-05)
(-0.000732029 -0.000359427 0.000111669)
(-0.00076078 -0.000364465 0.000125668)
(-0.000779368 -0.000369129 0.00013516)
(-0.000791093 -0.000373849 0.000140485)
(-0.000796728 -0.000378615 0.000141556)
(-0.000793855 -0.000382608 0.000138313)
(-0.000794065 -0.000386979 0.000133342)
(-0.00078871 -0.000389055 0.000126348)
(-0.000783177 -0.000391471 0.000118225)
(-0.000781081 -0.00039474 0.000109337)
(-0.00076048 -0.000395468 9.70426e-05)
(-0.000752891 -0.000398883 8.49711e-05)
(-0.000739454 -0.000400026 7.16403e-05)
(-0.000727538 -0.000401496 5.75518e-05)
(-0.000715566 -0.000401924 4.26967e-05)
(-0.00070708 -0.00040272 2.64789e-05)
(-0.000700985 -0.000402614 9.10244e-06)
(-6.53253e-05 1.3295e-05 4.63279e-05)
(-9.92535e-05 1.28321e-06 -1.59995e-05)
(-7.32953e-05 -8.81583e-06 -6.47145e-06)
(-2.95719e-05 -2.49201e-06 1.05541e-05)
(6.48745e-06 5.62354e-06 1.00298e-05)
(2.38423e-05 9.90975e-06 4.96535e-06)
(2.30937e-05 9.51713e-06 -7.43589e-06)
(-5.63338e-07 -9.47079e-06 -3.04388e-05)
(-5.82294e-05 -5.85165e-05 -4.58635e-05)
(-0.000178192 -0.00014766 -5.05595e-05)
(-0.000294613 -0.000213401 -2.98155e-05)
(-0.000394361 -0.000255659 -2.91161e-06)
(-0.00048357 -0.000285953 2.55247e-05)
(-0.000557872 -0.000305775 5.2993e-05)
(-0.000615406 -0.000317886 7.7312e-05)
(-0.000656036 -0.000325023 9.70901e-05)
(-0.000683856 -0.000330427 0.000112309)
(-0.000701905 -0.000335322 0.000123182)
(-0.000712728 -0.000340112 0.000129742)
(-0.000716037 -0.000344622 0.000131602)
(-0.000711933 -0.000348599 0.000129031)
(-0.000710216 -0.000352115 0.000124525)
(-0.000702937 -0.000353291 0.000118148)
(-0.000694654 -0.000354714 0.000110613)
(-0.000687391 -0.00035617 0.000102141)
(-0.000664045 -0.000355522 9.03618e-05)
(-0.000650358 -0.000355769 7.8465e-05)
(-0.000632978 -0.000354702 6.5794e-05)
(-0.000618314 -0.000354367 5.2611e-05)
(-0.000603769 -0.000353311 3.89436e-05)
(-0.000593567 -0.00035291 2.40689e-05)
(-0.000586719 -0.000352257 8.26781e-06)
(-6.26769e-05 1.01502e-05 3.23916e-05)
(-9.44577e-05 3.07953e-07 -1.38669e-05)
(-6.52672e-05 -5.17437e-06 -1.08307e-06)
(-1.65187e-05 1.38493e-06 1.66878e-05)
(1.78589e-05 1.35739e-05 1.62728e-05)
(3.05591e-05 1.74153e-05 1.3344e-05)
(3.13901e-05 1.84032e-05 1.19686e-05)
(1.689e-05 1.4212e-05 1.56154e-06)
(-1.33442e-05 -8.63475e-06 -1.75248e-05)
(-8.66822e-05 -7.33435e-05 -3.40126e-05)
(-0.000188696 -0.000142506 -2.61157e-05)
(-0.000295345 -0.000198647 -7.68097e-06)
(-0.000383988 -0.00023456 1.53872e-05)
(-0.000456012 -0.000257606 3.93591e-05)
(-0.000512961 -0.000272817 6.18568e-05)
(-0.000556637 -0.000283886 8.15613e-05)
(-0.000586588 -0.000291851 9.75318e-05)
(-0.00060477 -0.00029779 0.000109344)
(-0.000613112 -0.000302285 0.000116512)
(-0.000612144 -0.000305731 0.000118529)
(-0.000604709 -0.000308421 0.000116038)
(-0.000599592 -0.000310163 0.000111665)
(-0.000589117 -0.000309543 0.000105713)
(-0.000577188 -0.000309112 9.87469e-05)
(-0.000564216 -0.000308031 9.07701e-05)
(-0.000540571 -0.000306524 8.00698e-05)
(-0.000527794 -0.000306845 6.94823e-05)
(-0.000508983 -0.00030437 5.79544e-05)
(-0.000494141 -0.000303161 4.61775e-05)
(-0.000478653 -0.00030106 3.41266e-05)
(-0.000467536 -0.000299615 2.09973e-05)
(-0.000460272 -0.000298387 7.20049e-06)
(-5.10965e-05 8.43967e-06 2.17458e-05)
(-8.79944e-05 4.5621e-07 -1.33116e-05)
(-6.41586e-05 -1.13754e-06 2.8269e-06)
(-1.39797e-05 1.23128e-05 2.22922e-05)
(1.08776e-05 2.33772e-05 2.04175e-05)
(2.86288e-05 2.48574e-05 1.76343e-05)
(3.95788e-05 2.01935e-05 2.174e-05)
(3.78169e-05 1.26345e-05 2.45798e-05)
(1.89285e-05 1.71828e-06 1.75258e-05)
(-1.57145e-05 -2.00383e-05 2.92837e-06)
(-9.46669e-05 -8.24912e-05 -5.98343e-06)
(-0.000182853 -0.000134947 -9.77196e-07)
(-0.000273058 -0.000179135 1.30346e-05)
(-0.000350155 -0.000210221 3.10571e-05)
(-0.000409386 -0.000230436 4.99512e-05)
(-0.000449688 -0.000242453 6.72841e-05)
(-0.000476179 -0.000250544 8.20997e-05)
(-0.000491357 -0.000256339 9.35651e-05)
(-0.000496754 -0.000260559 0.000100704)
(-0.000492826 -0.000263481 0.000102663)
(-0.000484801 -0.000265946 0.000100456)
(-0.000477904 -0.000266467 9.63161e-05)
(-0.000466101 -0.000264672 9.09709e-05)
(-0.000452761 -0.000263091 8.48734e-05)
(-0.000436332 -0.000260031 7.76299e-05)
(-0.000410205 -0.000255873 6.75905e-05)
(-0.000390656 -0.000251229 5.73563e-05)
(-0.000368154 -0.000245143 4.69698e-05)
(-0.000350345 -0.000240619 3.67889e-05)
(-0.000332892 -0.000235996 2.69178e-05)
(-0.000320444 -0.000232686 1.63663e-05)
(-0.000312609 -0.000230381 5.57534e-06)
(-2.17638e-05 9.7756e-06 1.80644e-05)
(-6.48702e-05 4.40337e-06 -1.41894e-05)
(-6.94823e-05 5.37765e-06 -1.37016e-05)
(-4.77908e-05 1.58499e-05 9.80464e-07)
(-2.71462e-05 3.68116e-05 1.00422e-05)
(4.93774e-06 5.2565e-05 5.05268e-06)
(2.46512e-05 3.10018e-05 4.34791e-06)
(5.08468e-05 2.55442e-05 1.67453e-05)
(5.11618e-05 9.15178e-06 2.37121e-05)
(3.63957e-05 -5.11604e-06 2.44993e-05)
(-1.88599e-06 -1.93844e-05 1.14315e-05)
(-7.75469e-05 -7.92676e-05 1.24288e-05)
(-0.000156982 -0.000122543 1.6131e-05)
(-0.000224792 -0.000153277 2.54117e-05)
(-0.000279873 -0.000175222 3.79965e-05)
(-0.000322931 -0.000191775 5.18025e-05)
(-0.000350982 -0.000202779 6.4731e-05)
(-0.000365009 -0.000209492 7.50798e-05)
(-0.00036624 -0.000212732 8.10728e-05)
(-0.000357338 -0.000213572 8.18385e-05)
(-0.000345517 -0.000213483 7.88711e-05)
(-0.000334625 -0.000210978 7.43623e-05)
(-0.000319943 -0.000206416 6.9175e-05)
(-0.000303579 -0.000201834 6.36238e-05)
(-0.000282731 -0.000194855 5.69796e-05)
(-0.000257381 -0.000188627 4.84673e-05)
(-0.000242379 -0.000184838 4.07685e-05)
(-0.000222591 -0.000178036 3.26354e-05)
(-0.000207636 -0.000173181 2.50701e-05)
(-0.000191546 -0.000167457 1.80772e-05)
(-0.000179702 -0.000163056 1.07732e-05)
(-0.000172705 -0.000160281 3.62056e-06)
(1.25077e-05 8.93111e-06 2.48975e-05)
(-1.20527e-05 8.85496e-06 -8.03795e-06)
(-3.59734e-05 8.55012e-06 -2.09336e-05)
(-4.51684e-05 1.1798e-05 -2.28608e-05)
(-4.1493e-05 1.80591e-05 -2.20654e-05)
(-3.5937e-05 2.85644e-05 -2.71133e-05)
(-2.14825e-05 4.26424e-05 -3.53701e-05)
(8.74556e-06 3.95941e-05 -3.21377e-05)
(2.75663e-05 1.42941e-05 -8.59946e-06)
(4.5524e-05 6.40473e-06 1.08897e-05)
(3.8715e-05 -4.12246e-06 1.92446e-05)
(7.38238e-06 -1.82378e-05 1.32368e-05)
(-4.16472e-05 -6.01655e-05 1.87799e-05)
(-0.000109687 -0.00010066 2.32978e-05)
(-0.000165276 -0.000126941 2.92517e-05)
(-0.000200701 -0.000141357 3.69808e-05)
(-0.000222203 -0.000150349 4.55256e-05)
(-0.00023108 -0.000155414 5.27595e-05)
(-0.000228634 -0.000157294 5.6558e-05)
(-0.000218103 -0.000156991 5.60079e-05)
(-0.000207485 -0.000156571 5.30701e-05)
(-0.000197471 -0.000153157 4.90086e-05)
(-0.00018453 -0.00014786 4.45567e-05)
(-0.000170062 -0.000142404 4.02592e-05)
(-0.000151116 -0.00013415 3.51378e-05)
(-0.000125919 -0.000124478 2.77072e-05)
(-0.000106162 -0.00011304 2.0752e-05)
(-8.37847e-05 -9.95911e-05 1.43813e-05)
(-6.7307e-05 -8.87651e-05 9.48779e-06)
(-5.22536e-05 -7.86646e-05 5.9665e-06)
(-4.18784e-05 -7.11742e-05 3.04297e-06)
(-3.55731e-05 -6.61054e-05 8.6192e-07)
(1.77683e-05 1.19823e-05 3.49282e-05)
(2.11601e-05 1.31015e-05 -5.81838e-07)
(1.0706e-05 1.33275e-05 -1.04945e-05)
(-4.58026e-06 1.20538e-05 -1.88196e-05)
(-1.53032e-05 1.21847e-05 -2.6134e-05)
(-1.81405e-05 1.38754e-05 -3.40508e-05)
(-1.2576e-05 1.5028e-05 -4.18949e-05)
(-7.85969e-07 1.33396e-05 -4.18824e-05)
(9.13002e-06 9.37395e-06 -2.55231e-05)
(1.53995e-05 7.10463e-06 -7.3671e-06)
(3.13724e-05 1.20685e-05 1.0797e-05)
(3.09015e-05 3.20003e-06 1.34634e-05)
(2.405e-05 -1.37102e-05 1.66869e-05)
(-3.12995e-06 -2.96397e-05 1.3121e-05)
(-3.33748e-05 -4.88515e-05 1.333e-05)
(-7.18856e-05 -7.55348e-05 1.80926e-05)
(-9.57456e-05 -8.92343e-05 2.26388e-05)
(-0.000103731 -9.47064e-05 2.62042e-05)
(-9.81311e-05 -9.39662e-05 2.66413e-05)
(-8.43416e-05 -8.92608e-05 2.34941e-05)
(-7.10411e-05 -8.35418e-05 1.92521e-05)
(-5.88853e-05 -7.43831e-05 1.47995e-05)
(-4.60578e-05 -6.37623e-05 1.03907e-05)
(-3.25413e-05 -5.17783e-05 6.54726e-06)
(-1.58205e-05 -3.22457e-05 2.56455e-06)