/*--------------------------------*- C++ -*----------------------------------*\
  =========                 |
  \\      /  F ield         | OpenFOAM: The Open Source CFD Toolbox
   \\    /   O peration     | Website:  https://openfoam.org
    \\  /    A nd           | Version:  6
     \\/     M anipulation  |
\*---------------------------------------------------------------------------*/
FoamFile
{
    version     2.0;
    format      ascii;
    class       volScalarField;
    location    "36";
    object      yPlus;
}
// * * * * * * * * * * * * * * * * * * * * * * * * * * * * * * * * * * * * * //

dimensions      [0 0 0 0 0 0 0];

internalField   uniform 0;

boundaryField
{
    inlet
    {
        type            calculated;
        value           uniform 0;
    }
    outlet
    {
        type            calculated;
        value           uniform 0;
    }
    roughCylinder
    {
        type            calculated;
        value           nonuniform List<scalar> 
5120
(
14.7697
20.8216
34.26
38.2727
41.5894
43.1983
44.3974
44.8985
45.2062
45.2393
45.1391
44.9136
44.7162
44.4121
44.1689
44.2122
44.182
43.381
42.4204
42.0164
42.0095
42.7152
42.6137
41.3687
42.8709
41.4335
41.5078
40.9287
40.2413
39.8575
39.2203
38.9496
15.1026
20.8031
33.9036
38.142
41.4938
43.1562
44.2926
44.7609
45.1156
45.1446
45.0963
44.9419
44.655
44.3339
44.1544
44.2447
44.232
43.6013
42.7362
42.31
42.2818
42.9296
42.91
41.9118
43.2566
41.8403
41.9106
41.3102
40.6209
40.2417
39.6522
39.3857
13.8105
19.6806
33.2478
37.7226
41.1417
42.8517
44.0514
44.5796
44.8968
44.9954
45.0909
44.9828
44.7802
44.5125
44.3878
44.4774
44.4201
43.8867
43.0672
42.5868
42.5225
43.0815
43.0732
42.3142
43.5813
42.2863
42.407
41.9191
41.2797
40.9464
40.4237
40.168
3.11924
19.653
32.7037
37.4832
40.9858
42.8241
44.0174
44.4679
44.8616
45.0602
45.1634
45.1216
44.88
44.5942
44.495
44.5766
44.5334
44.126
43.4229
42.982
42.9295
43.4282
43.4122
42.8711
44.0828
42.7646
42.8621
42.3626
41.7376
41.4182
40.9464
40.7011
12.4598
17.4803
31.7635
36.9112
40.5716
42.4712
43.6973
44.3309
44.7798
44.96
45.1861
45.1734
45.0202
44.8488
44.8214
44.8917
44.797
44.418
43.7599
43.3349
43.2876
43.6951
43.6212
43.3017
44.5205
43.2973
43.4274
43.0414
42.4632
42.1761
41.759
41.5238
9.8132
17.745
30.9182
36.433
40.2374
42.3416
43.7304
44.3164
44.7699
45.1325
45.3652
45.4057
45.2847
45.1
45.0535
45.0864
44.9977
44.6976
44.1554
43.8348
43.8258
44.1561
44.0325
43.8892
45.082
43.8239
43.9169
43.5306
42.9837
42.7187
42.3514
42.1308
14.2806
14.4075
29.5209
35.5865
39.6966
41.9825
43.3508
44.157
44.8274
45.1186
45.4152
45.495
45.431
45.3747
45.4295
45.4787
45.3516
45.0351
44.5195
44.256
44.2691
44.5055
44.3242
44.3596
45.5647
44.4018
44.5235
44.2444
43.7413
43.4976
43.178
42.9674
12.2824
15.1885
28.2648
34.6998
39.0556
41.5845
43.3243
44.2252
44.7878
45.294
45.6544
45.7841
45.8195
45.7731
45.7841
45.7842
45.6544
45.3849
44.9741
44.8359
44.8813
45.0426
44.8326
44.9781
46.1433
44.958
45.0375
44.7686
44.3087
44.0923
43.8197
43.6263
12.6261
10.0214
26.1597
33.3555
38.1976
41.1618
42.8746
43.9329
44.8935
45.3501
45.715
45.9108
45.9607
46.0137
46.1463
46.2072
46.0717
45.777
45.3821
45.3023
45.3536
45.4466
45.2185
45.4727
46.6287
45.5464
45.6659
45.4892
45.0716
44.8688
44.6388
44.4554
12.482
11.7047
24.1972
31.7336
37.0264
40.2398
42.5563
43.9712
44.7274
45.4022
45.9269
46.1766
46.3834
46.4931
46.5749
46.5775
46.4349
46.1802
45.8881
45.919
45.9719
46.0257
45.809
46.0978
47.1942
46.1038
46.18
46.0195
45.65
45.4758
45.2894
45.1256
13.5596
3.79043
21.2155
29.5152
35.4333
39.5299
41.901
43.36
44.7436
45.4589
45.9371
46.2896
46.4739
46.6296
46.8376
46.9416
46.8352
46.5789
46.3105
46.3766
46.4041
46.4381
46.2411
46.5691
47.6305
46.6516
46.7893
46.7013
46.3773
46.2138
46.0659
45.9122
15.0745
10.7168
17.7461
26.6136
33.3183
37.5866
40.9222
43.1912
44.2861
45.2346
46.0094
46.4211
46.808
47.0874
47.2609
47.298
47.183
46.9761
46.8165
46.9626
46.9669
47.0116
46.854
47.1624
48.1467
47.173
47.2623
47.1867
46.9087
46.7702
46.6611
46.53
15.5482
10.9523
13.3376
22.6587
30.0515
36.1452
39.671
41.8393
44.0014
45.1629
45.8592
46.4399
46.7806
47.0349
47.3199
47.4997
47.471
47.3067
47.1885
47.3394
47.2992
47.3669
47.2433
47.5406
48.4574
47.6078
47.7837
47.761
47.5372
47.4133
47.3399
47.2198
15.3086
3.72518
11.1505
17.8872
26.2386
31.7764
37.2327
41.1767
42.8747
44.3957
45.6389
46.3122
46.9144
47.3746
47.6602
47.7524
47.7102
47.6099
47.6044
47.806
47.7515
47.8648
47.7877
48.0455
48.8754
48.041
48.1543
48.137
47.9552
47.8505
47.8111
47.7165
12.5679
8.87875
10.4368
12.6337
17.6716
28.8243
34.2062
37.7848
41.8575
43.8992
45.0685
46.0902
46.6947
47.0825
47.4498
47.7246
47.8101
47.786
47.8318
48.0232
47.9366
48.09
48.04
48.2744
49.0075
48.3204
48.5511
48.5743
48.4612
48.3834
48.3785
48.2959
11.6978
4.28271
9.85769
4.4376
7.18706
11.8516
27.2089
35.9864
38.7994
41.9131
44.2457
45.452
46.458
47.2096
47.6693
47.8537
47.9168
47.9618
48.1137
48.3371
48.2838
48.4928
48.4811
48.6838
49.3024
48.6441
48.7582
48.7524
48.6668
48.5945
48.613
48.557
10.9311
6.98885
10.0452
10.1099
1.1619
10.7478
3.03819
22.1585
35.8799
40.1427
42.5725
44.6473
45.8044
46.5016
47.0461
47.4937
47.7622
47.9358
48.1369
48.323
48.2585
48.484
48.461
48.617
49.0826
48.6154
48.9115
48.946
48.9591
48.9356
48.9907
48.9513
11.6218
10.54
5.8217
4.44132
5.67549
10.933
10.7295
14.1753
20.5626
34.6274
40.4185
42.8975
44.8282
46.1726
46.9974
47.3751
47.6121
47.843
48.1323
48.3576
48.4205
48.6891
48.6857
48.8436
49.1671
48.7185
48.7573
48.6863
48.6617
48.6005
48.6486
48.6213
3.98765
9.00033
10.3868
8.94046
3.49169
11.4651
11.5896
12.0333
12.0688
26.7449
35.4278
40.757
43.1749
44.551
45.5191
46.3545
46.9495
47.388
47.7122
47.866
47.913
48.0939
47.9754
48.0258
48.0892
47.8465
48.2124
48.2033
48.3535
48.3798
48.476
48.4812
8.85307
10.0446
7.41159
1.18153
9.90047
7.55892
10.6887
6.48104
7.68321
14.7832
30.7569
36.1636
40.4694
43.2289
44.8552
45.601
46.1147
46.5606
46.9474
47.1845
47.4998
47.7029
47.5885
47.7013
47.6143
47.3105
47.0558
46.6886
46.5642
46.4112
46.3936
46.3438
8.29231
5.27627
9.41271
4.29373
16.5966
18.8471
11.4782
14.3551
12.5284
13.1191
10.5423
30.7355
36.2881
39.0654
41.0546
42.8882
44.1511
44.9581
45.3285
45.3935
45.5591
45.35
44.8469
44.6057
43.8625
43.6525
44.1191
43.9978
44.2939
44.3034
44.3574
44.3937
5.54569
7.98401
7.20041
2.19266
11.4591
14.4522
20.1443
20.6601
8.48902
13.3122
13.1687
8.56769
25.3065
34.6235
38.8626
40.2465
41.1604
41.827
42.2234
42.4706
43.1827
43.0255
42.5852
42.5778
41.8252
41.2393
39.505
37.1238
35.3849
33.8552
32.7644
31.7581
6.65487
13.3087
14.3717
14.8411
15.8717
17.3247
18.989
18.8398
14.0385
9.91778
14.0393
8.20518
16.3521
16.1594
20.6872
29.8442
33.9731
35.7842
35.995
35.2169
34.5184
31.7639
28.5789
25.0542
16.6301
21.1653
20.8755
18.6676
15.1373
14.0313
20.1544
16.6561
9.57149
18.956
21.9447
23.6664
24.645
25.1111
24.9864
23.5824
19.3372
11.7875
7.0571
11.9781
10.7372
15.2211
3.40591
16.9113
13.0562
12.0213
6.25265
16.1982
16.7409
18.7185
10.4683
14.1965
12.9132
15.9829
16.2968
18.1516
18.2531
16.119
13.3346
8.03084
9.39742
19.4384
23.3744
26.1311
27.7997
28.422
27.9789
26.307
23.1955
19.1679
14.582
13.3214
11.7182
11.3346
12.2243
16.6215
8.05381
8.97516
16.3092
13.2034
11.2729
17.453
3.13469
8.48456
11.3415
8.45363
11.3188
14.2833
16.4466
17.8455
18.5719
18.9413
8.68917
18.8188
22.9344
25.9012
27.7906
28.5946
28.2842
26.9099
24.899
23.4414
23.9062
24.7109
25.2557
24.906
24.2299
22.4939
19.8319
17.9739
18.0689
19.4199
20.746
22.1325
23.2937
24.3945
25.9663
28.1342
28.9116
28.9365
28.4928
27.9428
27.3866
27.061
8.02622
17.9941
22.0996
25.0642
26.9843
27.8578
27.6803
26.5618
24.9351
23.55
23.0501
23.7112
24.6329
26.3031
28.0169
29.0527
29.4667
29.6016
29.6356
29.6041
29.917
30.3068
30.6388
31.0007
31.2642
30.8088
30.7345
30.2435
29.5954
28.8001
28.0111
27.5113
7.40005
17.0301
21.0227
23.9209
25.8318
26.7543
26.6566
25.5139
23.3171
20.4893
18.6687
19.1709
21.3792
24.902
28.4482
30.4889
31.2175
31.394
31.4917
31.7165
32.1035
32.5332
32.9062
33.1375
33.2446
32.6733
32.2245
31.1611
29.7215
27.873
26.0598
24.8827
6.86522
16.1609
20.0409
22.877
24.7809
25.7493
25.7304
24.6621
22.6099
20.1593
18.3355
16.8491
14.431
15.8965
21.8142
26.8525
29.7656
31.2494
31.9229
32.1914
32.3908
32.5284
32.5825
32.5478
32.1517
30.862
29.648
28.0618
26.1643
23.6691
21.374
19.9799
6.52297
15.6126
19.4123
22.1966
24.1033
25.1475
25.3255
24.705
23.6057
22.6177
21.975
21.2838
20.6337
20.5231
21.3385
23.2436
25.4093
27.1133
28.2703
29.012
29.5262
29.876
30.1326
30.238
29.9946
29.1544
28.1117
26.8704
25.3846
23.3631
21.8369
21.0725
6.17896
15.1901
18.905
21.5899
23.4509
24.5141
24.8
24.3866
23.4547
22.1545
20.4017
18.1925
15.8179
16.4628
20.3636
23.8101
26.027
27.3287
28.0968
28.6053
28.9764
29.2292
29.3701
29.2717
28.7772
27.7296
26.5311
25.0851
23.5572
21.9746
20.7386
19.9561
5.6576
14.5313
18.1258
20.6877
22.5076
23.6166
24.0455
23.8671
23.2267
22.3169
21.3145
20.154
18.6121
17.0023
17.2805
19.7166
22.1804
24.0903
25.3299
26.0176
26.3969
26.5794
26.6461
26.5973
26.218
25.442
24.4915
23.3557
22.2029
21.0106
20.1076
19.5854
5.12147
13.6766
17.1729
19.7156
21.6269
22.9342
23.6712
23.9044
23.7314
23.1922
22.126
20.2091
17.6168
16.7541
18.3863
20.0742
21.5456
22.8028
23.819
24.6122
25.1811
25.5392
25.7038
25.6895
25.3879
24.7572
23.9619
22.9897
21.9931
21.051
20.34
19.8856
4.82502
12.9875
16.4437
19.0842
21.1752
22.7253
23.7493
24.272
24.2959
23.7224
22.3847
20.2119
17.3518
15.0475
15.6142
18.002
20.2438
22.0138
23.3411
24.277
24.8963
25.2506
25.3843
25.3149
24.983
24.3873
23.6758
22.848
22.0293
21.2563
20.6543
20.2731
4.77201
12.609
16.0655
18.8305
21.0628
22.7603
23.9292
24.5696
24.6346
23.9878
22.5308
20.2091
17.4121
16.1395
17.0663
18.699
20.3925
21.9596
23.2705
24.2793
24.9798
25.3827
25.5066
25.3783
24.983
24.347
23.6359
22.873
22.155
21.5164
21.0507
20.7576
4.69233
12.2039
15.6255
18.4709
20.8122
22.6407
23.9556
24.7213
24.8164
24.0715
22.4435
19.8696
16.7618
15.2294
16.5361
18.7834
20.8547
22.5853
23.9756
25.0197
25.7184
26.078
26.1144
25.8472
25.2881
24.5054
23.7099
22.96
22.3246
21.7996
21.4289
21.1992
4.70027
12.0983
15.3661
18.1664
20.5877
22.5722
24.0447
24.8608
24.8226
23.8547
21.9931
19.1173
16.0788
15.5419
17.4658
19.7772
21.8705
23.652
25.0859
26.1576
26.8607
27.1891
27.139
26.7188
25.9546
24.9545
23.9793
23.1666
22.5724
22.1526
21.8941
21.7459
4.78242
12.587
15.8488
18.6038
21.056
23.0444
24.3814
24.8832
24.4764
23.2487
21.1368
18.0015
15.4601
16.3566
19.0274
21.5725
23.7004
25.4466
26.8437
27.8889
28.5614
28.8343
28.6825
28.0939
27.0947
25.8178
24.5808
23.6249
23.0181
22.6742
22.51
22.4339
4.45594
12.7743
16.331
19.1548
21.5364
23.2445
24.1402
24.215
23.577
22.2233
19.8348
16.616
15.7188
18.2323
21.1792
23.687
25.7817
27.5175
28.9106
29.9517
30.6133
30.8544
30.6273
29.8958
28.6749
27.1074
25.5572
24.3852
23.7087
23.4096
23.3268
23.3169
4.32291
13.0504
16.974
19.7091
21.6726
22.8855
23.4049
23.3228
22.6232
21.032
18.1553
15.7801
17.5622
20.9142
23.8374
26.2405
28.2368
29.9009
31.2564
32.2876
32.9527
33.1901
32.9266
32.0981
30.7002
28.873
27.0066
25.5725
24.7719
24.4799
24.457
24.4994
2.39302
2.18299
2.41755
3.03157
3.27321
3.37693
3.73352
4.58777
5.57956
6.99591
8.65503
10.2608
11.1299
11.5849
11.6554
11.5902
11.6108
11.9514
11.6168
11.6435
11.2463
9.30129
7.62899
5.8509
3.65674
2.14052
1.67404
1.09447
3.10113
4.04029
4.65261
4.70135
4.27318
4.14629
3.92766
3.68704
3.35571
3.17294
3.23503
3.6634
8.71052
8.50827
9.56817
11.0848
11.3289
11.6536
11.7225
12.9208
13.7151
14.6195
15.3039
15.8608
16.2131
16.4628
16.623
16.6729
16.6123
16.4229
16.0727
15.5268
14.7581
13.7093
12.3894
10.9473
7.65211
4.0935
4.95577
1.75327
7.79333
9.44646
11.1475
11.4851
11.4035
11.4771
11.439
11.4215
11.4261
11.5369
11.4678
12.1183
11.0467
10.6954
11.4179
12.0628
12.862
13.7863
14.8485
15.9969
16.8995
17.7437
18.383
18.9043
19.288
19.5679
19.7476
19.8292
19.8151
19.6966
19.4632
19.0955
18.5686
17.8498
16.8923
15.6718
14.2116
12.6068
10.9386
6.68536
6.01619
6.83129
9.80244
11.9858
11.6534
12.9872
13.4221
13.8233
14.0555
14.5627
15.2389
16.4192
12.3087
11.8751
12.3279
13.4781
14.7675
16.0528
17.363
18.5886
19.5989
20.4772
21.1662
21.7199
22.1384
22.4465
22.6542
22.7714
22.8016
22.7441
22.5933
22.3401
21.9693
21.4668
20.8168
20.003
19.0025
17.7718
16.2482
14.3732
11.8984
9.66319
7.17595
11.6082
11.5668
13.6193
14.4313
15.3912
15.8928
16.6833
17.6291
19.0668
13.4001
12.9177
13.6885
15.2723
16.8148
18.2607
19.7107
20.9713
22.0317
22.9153
23.6154
24.1672
24.5845
24.8906
25.0999
25.2243
25.2702
25.2395
25.1298
24.9354
24.6449
24.2466
23.7327
23.0961
22.3309
21.4314
20.3688
19.0843
17.4482
15.2607
12.5491
10.1324
9.76751
13.2679
14.422
16.233
17.0694
18.0457
19.1445
20.7553
14.3678
14.0557
15.3324
17.1881
18.7687
20.3355
21.8292
23.0918
24.163
25.0338
25.7277
26.2668
26.6743
26.9715
27.1759
27.3004
27.3536
27.3388
27.2551
27.0988
26.8616
26.5317
26.1019
25.569
24.9284
24.1745
23.2841
22.2392
20.9991
19.4951
17.5498
14.8363
11.7498
11.602
13.2504
15.9185
17.543
18.7765
20.0217
21.7292
15.2269
15.3411
17.143
19.0143
20.6074
22.2665
23.7444
25.0123
26.0742
26.9339
27.6156
28.1413
28.5362
28.8221
29.0183
29.139
29.194
29.1877
29.12
28.9867
28.782
28.4943
28.1168
27.6504
27.0966
26.4562
25.7131
24.8362
23.7803
22.5088
21.0013
19.1512
16.6236
13.1425
11.6663
13.8719
17.0162
18.8385
20.3319
22.1288
16.0104
16.8361
18.9793
20.7141
22.3918
24.0767
25.536
26.8039
27.8497
28.6974
29.3632
29.8741
30.2537
30.5262
30.7116
30.8257
30.8789
30.8763
30.8174
30.6965
30.5068
30.2356
29.88
29.4432
28.9361
28.3745
27.759
27.0471
26.1859
25.1175
23.8144
22.236
20.3167
17.811
14.2176
11.8863
14.7029
17.9543
19.9643
21.9582
16.8727
18.5882
20.7275
22.3684
24.1553
25.8095
27.2662
28.517
29.5472
30.3775
31.026
31.5192
31.8824
32.1401
32.3137
32.4195
32.4687
32.4657
32.4094
32.2919
32.1058
31.8281
31.459
31.006
30.5191
30.0224
29.4835
28.8868
28.1921
27.323
26.2224
24.8969
23.2893
21.2981
18.7984
15.3357
12.6581
15.4246
18.5757
21.0383
18.1683
20.4753
22.343
24.0773
25.8954
27.5184
28.9671
30.192
31.2038
32.0125
32.6418
33.1161
33.462
33.7045
33.8656
33.9625
34.0056
33.9995
33.9419
33.8208
33.6214
33.3108
32.8842
32.4355
31.9924
31.5171
31.0161
30.4812
29.8949
29.2025
28.289
27.1493
25.8027
24.1837
22.1799
19.687
16.4653
14.0015
15.8213
18.9661
20.1017
22.2248
23.9808
25.8487
27.6273
29.2378
30.6592
31.858
32.845
33.6307
34.239
34.6939
35.0227
35.2502
35.399
35.4858
35.5214
35.5111
35.4482
35.3149
35.0859
34.7049
34.2573
33.842
33.3993
32.9386
32.4517
31.9438
31.4126
30.8297
30.1036
29.1089
27.9434
26.5879
24.9707
22.9981
20.569
17.6784
15.3421
16.1922
22.0643
23.8514
25.7615
27.6366
29.3885
30.9746
32.3617
33.5315
34.4908
35.2525
35.8395
36.2763
36.5895
36.8038
36.941
37.0179
37.047
37.0296
36.9559
36.8012
36.528
36.048
35.6507
35.218
34.7844
34.3247
33.8444
33.3481
32.8423
32.3185
31.7141
30.8617
29.8187
28.6447
27.2918
25.7009
23.7834
21.5167
18.8912
16.8616
23.8232
25.6277
27.6124
29.4536
31.1855
32.7331
34.0855
35.2232
36.1552
36.8939
37.4622
37.8843
38.186
38.3908
38.5202
38.5922
38.6156
38.5889
38.496
38.3036
37.9609
37.4761
37.0458
36.6161
36.1707
35.7093
35.2297
34.7393
34.2475
33.7555
33.2177
32.4769
31.5116
30.4541
29.2832
27.9523
26.387
24.5881
22.4375
20.3375
25.6812
27.5198
29.4962
31.306
33.0083
34.5154
35.8331
36.9399
37.8477
38.5676
39.123
39.5368
39.8338
40.037
40.1684
40.2428
40.2661
40.2328
40.121
39.8829
39.436
38.9713
38.5114
38.0624
37.6022
37.1291
36.6441
36.1544
35.6713
35.1987
34.6957
34.0091
33.0864
32.096
31.0399
29.8888
28.5649
27.0808
25.3008
23.5657
27.638
29.4502
31.3984
33.1731
34.844
36.3149
37.6016
38.683
39.5729
40.2815
40.8324
41.247
41.5501
41.7648
41.9097
41.9949
42.0218
41.9808
41.8469
41.5668
41.0303
40.5607
40.0779
39.6035
39.1193
38.6261
38.1271
37.6314
37.1516
36.6907
36.1987
35.5027
34.5915
33.6324
32.6386
31.6005
30.4444
29.1785
27.6554
26.2013
29.5927
31.359
33.2825
35.0249
36.671
38.1154
39.3798
40.4447
41.3263
42.0334
42.5904
43.0182
43.3421
43.5833
43.755
43.8613
43.8975
43.8467
43.674
43.3236
42.7604
42.2671
41.7669
41.2638
40.7506
40.2302
39.7093
39.2008
38.7193
38.2621
37.7559
36.9931
36.0638
35.1069
34.1372
33.1575
32.1069
30.9936
29.6509
28.3987
31.4505
33.1866
35.0989
36.8224
38.4562
39.8882
41.1431
42.2034
43.088
43.8056
44.3814
44.8361
45.1971
45.479
45.6891
45.8259
45.8777
45.8183
45.5973
45.1088
44.6007
44.088
43.5709
43.0403
42.4961
41.9445
41.3971
40.872
40.3863
39.9234
39.3649
38.4969
37.5256
36.5454
35.5694
34.6071
33.6083
32.592
31.3724
30.2701
33.1387
34.8695
36.7919
38.5159
40.1533
41.5883
42.8497
43.9189
44.8194
45.56
46.1662
46.6646
47.0758
47.4096
47.6671
47.8393
47.905
47.8283
47.549
46.9871
46.4953
45.9832
45.4493
44.8941
44.3196
43.7367
43.1633
42.624
42.1354
41.6527
40.9797
40.0014
38.9725
37.9488
36.9422
35.9662
34.9772
34.0071
32.8612
31.8644
34.5955
36.3463
38.2992
40.0428
41.7001
43.154
44.437
45.5291
46.4577
47.2341
47.8849
48.4373
48.9077
49.3002
49.6104
49.8231
49.9065
49.7964
49.361
48.884
48.3898
47.8774
47.3293
46.7514
46.1496
45.5398
44.9474
44.4032
43.9136
43.3809
42.5192
41.4596
40.3653
39.2843
38.2296
37.2168
36.2075
35.2414
34.1243
33.188
35.7664
37.5529
39.5487
41.3261
43.017
44.5031
45.8213
46.9505
47.9187
48.7396
49.4451
50.0574
50.5902
51.0435
51.4088
51.6625
51.7629
51.6365
51.121
50.6755
50.1886
49.6694
49.1066
48.5078
47.8841
47.2579
46.6625
46.1295
45.6316
44.9714
43.931
42.7902
41.6277
40.4836
39.3714
38.3077
37.2574
36.2641
35.1371
34.2183
36.5884
38.4107
40.4506
42.2686
44.0027
45.5325
46.8974
48.0756
49.0938
49.967
50.7294
51.4008
51.9933
52.5056
52.9245
53.2213
53.3464
53.2182
52.6943
52.2548
51.7635
51.2317
50.6528
50.0375
49.4043
48.7831
48.2099
47.697
47.1408
46.2242
45.0881
43.878
42.6514
41.4455
40.274
39.1534
38.0505
37.0082
35.8424
34.9057
36.9852
38.8268
40.9019
42.7599
44.541
46.1221
47.5418
48.7766
49.8522
50.7824
51.5988
52.3227
52.9664
53.5273
53.993
54.3367
54.5118
54.4338
53.929
53.479
52.9683
52.421
51.8304
51.2148
50.5994
50.0157
49.4831
48.944
48.1396
47.0619
45.8577
44.5896
43.3083
42.0483
40.8225
39.6457
38.4848
37.3784
36.1528
35.1744
36.8864
38.7206
40.8133
42.7032
44.5289
46.163
47.6405
48.9362
50.0737
51.0623
51.9258
52.6904
53.3688
53.9599
54.4532
54.8258
55.0408
55.0443
54.7686
54.1997
53.6845
53.1276
52.5475
51.9642
51.3999
50.8628
50.297
49.5051
48.5128
47.375
46.1181
44.8036
43.4792
42.1752
40.9022
39.67
38.444
37.2568
35.9576
34.9287
36.2597
38.0561
40.1431
42.0514
43.9141
45.599
47.1357
48.4952
49.6954
50.7392
51.647
52.4414
53.1376
53.7379
54.235
54.6127
54.8479
54.9137
54.7865
54.455
53.9083
53.3643
52.8143
52.2675
51.7031
51.0502
50.2298
49.3307
48.2951
47.0947
45.7885
44.4359
43.0767
41.7341
40.4137
39.1155
37.804
36.5159
35.1421
34.0774
35.1542
36.8881
38.9474
40.8606
42.7515
44.4836
46.0779
47.5003
48.7639
49.8693
50.8293
51.6533
52.3636
52.966
53.4567
53.8236
54.0498
54.1152
54.0046
53.7248
53.3392
52.8763
52.3423
51.7443
51.0858
50.36
49.5445
48.5955
47.4685
46.2002
44.8498
43.463
42.0678
40.6773
39.2868
37.888
36.4625
35.0682
33.6497
32.5922
33.7089
35.3747
37.3955
39.3058
41.217
42.9907
44.6388
46.1235
47.4511
48.6172
49.6309
50.4992
51.2333
51.8458
52.3389
52.7051
52.9316
53.0037
52.9096
52.6507
52.2569
51.799
51.28
50.6981
50.0423
49.2892
48.4003
47.3361
46.1123
44.7835
43.3907
41.9612
40.5089
39.034
37.5278
35.9959
34.4585
32.9946
31.5931
30.6024
32.1278
33.7506
35.7444
37.6592
39.5913
41.405
43.1029
44.6444
46.0299
47.2533
48.3204
49.2332
49.9986
50.6306
51.1352
51.5107
51.7494
51.8406
51.7742
51.5464
51.1723
50.6965
50.1551
49.5368
48.8184
47.9668
46.9502
45.7735
44.4757
43.092
41.6465
40.1508
38.6057
37.0103
35.3746
33.7339
32.1397
30.675
29.3657
28.5031
30.6991
32.3285
34.3274
36.2674
38.2301
40.0855
41.8288
43.4187
44.8517
46.1201
47.2271
48.1747
48.9689
49.6188
50.1346
50.5184
50.7662
50.8705
50.8233
50.6191
50.2612
49.7655
49.1623
48.46
47.6346
46.6623
45.5441
44.2973
42.9468
41.5135
40.0093
38.4375
36.7996
35.1083
33.3968
31.7176
30.135
28.7307
27.5578
26.8398
29.69
31.3711
33.4048
35.3864
37.3849
39.2782
41.056
42.6789
44.1409
45.4346
46.562
47.5249
48.3292
48.9837
49.4993
49.8798
50.1226
50.2222
50.1714
49.9642
49.6008
49.086
48.4321
47.6498
46.7394
45.698
44.5285
43.2451
41.8653
40.4016
38.8598
37.2428
35.5601
33.8367
32.1153
30.4529
28.9172
27.5875
26.528
25.9011
29.249
30.9879
33.0557
35.0668
37.0841
38.9925
40.7803
42.4102
43.8759
45.1702
46.2951
47.252
48.0464
48.6903
49.1935
49.5595
49.7863
49.8693
49.8024
49.58
49.201
48.6675
47.9878
47.1736
46.2303
45.1609
43.9733
42.6821
41.3001
39.8355
38.2923
36.6751
34.998
33.2905
31.5964
29.972
28.4828
27.2029
26.1945
25.5837
29.2511
31.0231
33.1043
35.1198
37.1322
39.0315
40.8064
42.4218
43.8715
45.1488
46.2557
47.1942
47.9692
48.5951
49.0809
49.4288
49.6369
49.7014
49.6168
49.3784
48.9851
48.4381
47.7447
46.9152
45.9585
44.8815
43.6958
42.4142
41.0472
39.6017
38.081
36.4903
34.8441
33.172
31.5164
29.9307
28.4764
27.2212
26.2233
25.59
29.4666
31.2538
33.337
35.3447
37.3426
39.2226
40.9756
42.568
43.9943
45.248
46.3313
47.2468
48.0001
48.6056
49.0714
49.3984
49.5851
49.6277
49.5216
49.2631
48.8511
48.2876
47.5797
46.7374
45.7706
44.6885
43.504
42.2293
40.8743
39.4457
37.9466
36.382
34.7668
33.1296
31.5111
29.9616
28.5384
27.3041
26.3127
25.6611
18.2689
25.5443
37.1541
40.9533
44.0037
45.2472
46.0078
46.1474
46.2729
46.3164
46.5159
46.5786
46.4226
46.3233
46.3011
46.1435
45.5209
45.2143
45.1322
43.6312
44.7598
45.2552
44.4402
44.535
43.6068
43.7304
43.1226
42.3144
41.9424
41.5567
41.0999
40.7765
8.71057
25.2817
36.7687
40.711
43.7882
45.1565
45.9833
46.1268
46.254
46.3715
46.6233
46.7527
46.7163
46.6171
46.5945
46.436
46.004
45.8562
45.5654
44.1005
45.3108
45.5819
45.0152
44.8609
44.1902
43.9946
43.4875
42.6499
42.3333
42.0073
41.625
41.3677
13.8618
24.987
36.3823
40.5245
43.6385
45.064
45.9279
46.1916
46.4474
46.6024
46.8277
46.8401
46.6718
46.5726
46.5932
46.5258
46.2523
46.202
45.7461
44.3715
45.6105
45.6588
45.3884
45.2071
44.8674
44.502
44.1981
43.3778
43.1015
42.7738
42.3667
42.0945
16.7314
24.8073
35.9433
40.2626
43.4327
45.0009
45.956
46.2461
46.5179
46.7507
47.0234
47.144
47.0848
47.0135
47.0142
46.9284
46.7638
46.782
46.2206
45.0126
46.2244
46.0351
45.9958
45.7318
45.493
44.9038
44.6599
43.824
43.5756
43.2965
42.9551
42.7429
7.24623
24.1566
35.4118
39.9845
43.2505
44.8968
45.9127
46.3605
46.7835
47.0491
47.313
47.3055
47.1661
47.0944
47.1515
47.1371
47.0611
47.1081
46.4728
45.4122
46.5529
46.1448
46.3393
46.1898
46.1131
45.4803
45.3915
44.6151
44.3957
44.1277
43.7751
43.5518
14.3403
24.3207
34.8826
39.6558
43.0164
44.8294
45.9733
46.4735
46.9214
47.2753
47.5732
47.7137
47.6693
47.6299
47.6357
47.5824
47.5544
47.6255
46.9798
46.1051
47.1739
46.592
46.964
46.8679
46.7564
45.9841
45.9098
45.151
44.9332
44.7057
44.4102
44.2407
8.96671
23.1097
34.163
39.2288
42.7496
44.6876
45.9284
46.6214
47.2283
47.5928
47.9026
47.9007
47.8198
47.7834
47.8547
47.868
47.8973
47.9633
47.2964
46.5387
47.5066
46.7868
47.3063
47.3748
47.3155
46.596
46.6284
45.9793
45.7815
45.5745
45.2797
45.1027
17.7344
23.3308
33.4574
38.7633
42.4521
44.6039
46.0073
46.7606
47.3817
47.847
48.1737
48.3537
48.3556
48.3517
48.3514
48.3258
48.3745
48.443
47.8091
47.2028
48.1164
47.3375
47.9656
48.1131
47.976
47.1618
47.1669
46.5788
46.3622
46.19
45.9452
45.8149
17.4713
22.4991
32.5785
38.1304
42.0274
44.3674
45.9144
46.892
47.6782
48.1251
48.484
48.522
48.5218
48.5361
48.6254
48.6752
48.7728
48.8142
48.1723
47.6366
48.4646
47.6546
48.3449
48.6012
48.4929
47.7849
47.862
47.4277
47.2289
47.0833
46.8478
46.714
22.4474
22.2964
31.5737
37.402
41.5695
44.1965
45.9449
46.9826
47.7706
48.3463
48.724
48.9723
49.0545
49.0976
49.1073
49.1269
49.2232
49.2586
48.6713
48.2616
49.0751
48.313
49.0489
49.3261
49.1765
48.3872
48.4058
48.0583
47.8283
47.7092
47.5171
47.4219
27.4264
22.5768
30.5532
36.4616
40.8527
43.7349
45.6982
47.0132
47.9955
48.5391
48.9673
49.0913
49.1991
49.2853
49.411
49.5118
49.6562
49.6579
49.0707
48.7087
49.4503
48.7352
49.4597
49.7471
49.6536
48.9898
49.0731
48.8923
48.6888
48.5997
48.4222
48.3265
32.8037
23.0984
29.3451
35.3677
40.0897
43.3487
45.5691
46.9553
47.9464
48.6697
49.1476
49.5042
49.6998
49.8076
49.8496
49.9181
50.0401
50.0401
49.5353
49.2979
50.0505
49.4472
50.1704
50.4136
50.3431
49.5985
49.6104
49.5011
49.2655
49.191
49.0509
48.9865
38.785
24.8378
28.2828
34.0041
38.8765
42.4553
45.0049
46.7782
48.0368
48.738
49.2791
49.5358
49.7797
49.9622
50.1429
50.2985
50.4707
50.4483
49.9566
49.7596
50.4271
49.9002
50.5534
50.7408
50.7557
50.1422
50.2383
50.2709
50.0823
50.0386
49.9176
49.8553
42.8544
26.4651
27.3056
32.5623
37.6784
41.6879
44.5623
46.4391
47.7501
48.7159
49.3667
49.8732
50.2037
50.3962
50.4927
50.6053
50.7436
50.7348
50.3574
50.2905
50.9739
50.579
51.2034
51.3277
51.4098
50.7161
50.7407
50.7863
50.5721
50.5269
50.4362
50.3987
47.324
28.8633
26.5327
30.7152
35.6929
40.0217
43.4107
45.8834
47.6064
48.5958
49.3287
49.7565
50.1529
50.4536
50.7139
50.9333
51.1333
51.1235
50.7677
50.7293
51.2917
50.9601
51.4684
51.5293
51.6894
51.1332
51.2733
51.4252
51.2909
51.2819
51.2198
51.1894
49.7148
31.182
26.2521
29.1039
34.0179
38.6924
42.4149
45.0294
46.8994
48.3101
49.2694
49.9918
50.4673
50.7579
50.9161
51.0652
51.232
51.2582
51.0395
51.1291
51.7089
51.5036
51.9969
52.0434
52.2777
51.6494
51.7198
51.8121
51.6548
51.6253
51.5825
51.5697
51.3886
33.4176
26.1385
26.8956
30.8969
35.6502
40.1487
43.7519
46.3022
47.8287
48.9286
49.6311
50.2328
50.6836
51.0449
51.3409
51.582
51.6125
51.4077
51.5088
51.9428
51.7629
52.1057
52.1176
52.3773
51.899
52.1116
52.2926
52.2473
52.2565
52.2502
52.2478
51.1615
35.1518
26.5389
25.2774
28.8625
33.6614
38.2078
41.8814
44.7554
47.0213
48.5655
49.6752
50.3705
50.8008
51.0541
51.2644
51.4714
51.5693
51.5186
51.7423
52.1992
52.1303
52.4864
52.5469
52.8381
52.3013
52.4191
52.4543
52.3755
52.339
52.3345
52.339
50.1832
36.2063
26.8597
23.0449
23.8657
27.7185
33.5155
39.0713
43.1918
45.7513
47.5837
48.8083
49.802
50.4971
51.0325
51.4452
51.7566
51.8468
51.8001
51.9959
52.2492
52.152
52.3267
52.3763
52.5757
52.2236
52.5098
52.6579
52.7296
52.7433
52.7846
52.8035
48.1827
36.585
27.1951
20.9137
21.5316
25.5107
29.9072
34.7806
39.6362
43.7967
46.5716
48.4285
49.5269
50.2467
50.6639
50.9762
51.246
51.4547
51.5908
51.9075
52.2168
52.2149
52.4668
52.6343
52.7901
52.4026
52.4943
52.3552
52.3174
52.2097
52.2022
52.1963
45.4089
36.1882
27.1448
18.8202
11.1271
14.4775
14.7601
27.1658
35.6155
40.5738
44.092
46.4682
48.2688
49.4257
50.3125
50.9521
51.3906
51.5637
51.6855
51.903
51.8668
51.73
51.7262
51.8261
51.6417
51.4399
51.7371
51.8095
51.9967
51.9796
52.0344
52.049
42.3209
35.278
26.7418
14.6712
8.92952
5.5952
12.6397
10.0415
24.1675
35.5452
41.703
45.1751
47.0429
48.3253
49.0162
49.4862
49.8598
50.2406
50.6102
50.9369
51.0538
51.0282
51.2096
51.4848
51.2028
51.0008
50.8037
50.2583
50.0543
49.6597
49.4748
49.3422
38.9011
33.9997
26.0065
11.503
9.14274
7.0553
12.2002
5.67541
16.4941
26.5698
35.1222
40.5727
44.2288
46.2853
47.8781
48.9604
49.5898
49.8697
50.1869
50.2726
49.6344
49.197
48.8533
48.7673
47.4982
47.2571
47.4125
47.3237
47.5046
47.3418
47.2399
47.1369
34.589
32.4831
25.5363
8.90804
4.46401
10.0484
1.15241
7.1328
13.0572
10.5116
31.7509
37.7065
40.5688
42.8627
43.9369
44.509
45.0546
45.7483
46.4287
46.4688
46.2566
46.1211
46.1899
46.3596
45.119
44.9361
42.8415
40.5428
38.4214
35.4415
33.0362
31.0907
29.4491
30.6264
25.1011
14.1057
13.5163
6.65694
13.2345
8.23657
13.7233
7.7147
9.07524
20.4867
31.6312
36.4644
40.0564
42.7424
43.7598
44.0807
44.4686
43.9492
41.2666
38.9215
36.2837
33.6767
25.941
17.6576
17.5888
12.7036
21.6377
13.6763
20.2061
3.11441
19.0897
27.9262
23.9918
11.4073
10.2077
6.0986
14.0651
6.23143
11.3005
15.1171
9.39965
8.67741
10.413
18.4261
13.8928
11.5387
15.4149
18.5258
19.245
12.0588
5.76269
3.99701
16.9948
15.9878
20.2485
13.1657
5.39307
18.0639
8.77022
18.7038
18.5148
14.1285
7.94086
23.293
25.1615
15.2984
8.33791
14.2889
17.7777
19.6998
20.1359
17.8091
11.0123
12.1326
15.6269
14.6714
15.345
8.27147
8.55604
11.8937
3.46627
15.5215
16.4115
16.5966
18.0482
18.936
16.3467
11.6413
2.66999
12.8703
11.5312
15.4065
17.8588
18.6855
7.65316
13.2988
21.1207
18.0558
11.6975
14.7431
21.9203
26.411
28.5455
29.83
29.884
24.1332
13.5538
11.0007
6.81339
5.16408
3.84341
15.6075
10.9129
19.0437
12.8056
11.3967
12.0782
16.3314
19.7419
24.0606
26.6956
27.3537
28.9923
28.6916
28.2851
28.0221
6.21841
11.9895
16.4443
17.0072
13.6833
12.567
18.5493
25.287
29.783
32.2657
32.0892
27.5848
25.4082
26.9845
27.7594
26.7451
26.2086
25.9024
26.2544
27.4903
27.4278
29.0468
30.2112
30.6741
31.1852
30.9088
30.757
30.4127
29.8271
29.4249
29.0374
28.7434
7.8957
14.9104
17.1954
18.5274
17.6099
15.5546
16.9223
22.1287
27.6035
31.5704
31.5773
27.319
25.8495
27.2015
27.4335
28.0059
28.9089
29.5468
29.9056
30.1738
30.7059
30.8383
31.4903
32.1293
32.7464
32.6842
32.463
31.9016
31.0891
29.7071
28.1689
27.0915
6.85679
13.6963
17.0394
19.8067
20.8333
20.0005
19.4041
21.5207
25.3906
28.1633
26.4534
23.6737
25.5768
27.2403
27.4005
28.0635
29.5846
30.9467
31.7844
32.3087
32.7153
32.8799
33.2656
33.3769
33.2465
32.0633
30.9094
29.4748
27.8019
25.6079
23.1271
21.5052
4.54959
11.1885
14.1209
17.7815
20.3357
21.051
20.6426
20.8534
21.9757
21.9943
19.8161
20.1053
21.1738
19.5292
16.8125
17.9856
22.2413
25.947
28.253
29.4688
30.0066
30.1183
30.305
30.3074
30.0974
29.1046
28.0664
26.8979
25.4002
23.3999
21.5713
20.7518
3.52692
10.0316
11.2277
13.8593
16.9189
18.7174
19.0223
18.6194
18.2696
17.9894
18.6028
19.9987
20.1247
18.6269
16.8497
16.5297
18.2925
21.3485
24.1638
26.0823
27.22
27.8024
28.1846
28.3985
28.4608
27.8267
26.9365
25.8219
24.2652
22.3392
20.808
20.1448
2.82189
8.73378
10.5366
11.2992
13.3962
15.6084
16.8924
17.5261
17.9709
18.8047
19.9904
20.6369
20.1321
18.1154
16.1212
17.361
20.254
22.6986
24.6073
25.9639
26.7839
27.199
27.4043
27.4379
27.2094
26.2234
25.0064
23.5797
22.0845
20.7415
19.807
19.4409
2.54917
8.14601
9.28111
10.6773
11.6896
13.8044
15.6933
17.1033
18.1129
19.0013
19.6044
19.5568
18.4327
16.102
15.2986
16.8521
19.1347
21.5051
23.4685
24.7981
25.5033
25.7703
25.8192
25.6725
25.2499
24.4958
23.5116
22.3452
21.1171