/*--------------------------------*- C++ -*----------------------------------*\
  =========                 |
  \\      /  F ield         | OpenFOAM: The Open Source CFD Toolbox
   \\    /   O peration     | Website:  https://openfoam.org
    \\  /    A nd           | Version:  6
     \\/     M anipulation  |
\*---------------------------------------------------------------------------*/
FoamFile
{
    version     2.0;
    format      ascii;
    class       volScalarField;
    location    "29";
    object      omega;
}
// * * * * * * * * * * * * * * * * * * * * * * * * * * * * * * * * * * * * * //

dimensions      [0 0 -1 0 0 0 0];

internalField   nonuniform List<scalar> 
380496
(
843.917
843.917
843.917
843.917
843.917
843.917
843.917
843.917
843.917
843.917
843.917
843.917
843.917
843.917
843.917
843.917
843.917
843.917
843.917
843.917
843.917
843.917
843.917
843.917
843.917
843.917
843.917
843.917
843.917
843.917
843.917
843.917
843.917
843.917
843.917
843.917
843.917
843.917
843.917
843.917
843.917
843.917
843.917
843.917
843.917
843.917
843.917
843.917
843.917
843.917
843.917
843.917
843.917
843.917
843.917
843.917
843.917
843.917
843.917
843.917
843.917
843.917
843.917
843.917
843.917
843.917
843.917
843.917
843.917
843.917
843.917
843.917
843.917
843.917
843.917
843.917
843.917
843.917
843.917
843.917
843.917
843.917
843.917
843.917
843.917
843.917
843.917
843.917
843.917
843.917
843.917
843.917
843.917
843.917
843.917
843.917
843.917
843.917
843.917
843.917
843.917
843.917
843.917
843.917
843.917
843.917
843.917
843.917
843.917
843.917
843.917
843.917
843.917
843.917
843.917
843.917
843.917
843.917
843.917
843.917
843.917
843.917
843.917
843.917
843.917
843.917
843.917
843.917
843.917
843.917
843.917
843.917
843.917
843.917
843.917
843.917
843.917
843.917
843.917
843.917
843.917
843.917
843.917
843.917
843.917
843.917
843.917
843.917
843.917
843.917
843.917
843.917
843.917
843.917
843.917
843.917
843.917
843.917
843.917
843.917
843.917
843.917
843.917
843.917
843.917
843.917
843.917
843.917
843.917
843.917
843.917
843.917
843.917
843.917
843.917
843.917
843.917
843.917
843.917
843.917
843.917
843.917
843.917
843.917
843.917
843.917
843.917
843.917
843.917
843.917
843.917
843.917
843.917
843.917
843.917
843.917
843.917
843.917
843.917
843.917
843.917
843.917
843.917
843.917
843.917
843.917
843.917
843.917
843.917
843.917
843.917
843.917
843.917
843.917
843.917
843.917
843.917
843.917
843.917
843.917
843.917
843.917
843.917
843.917
843.917
843.917
843.917
843.917
843.917
843.917
843.917
843.917
843.917
843.917
843.917
843.917
843.917
843.917
843.917
843.917
843.917
843.917
843.917
843.917
843.917
843.917
843.917
843.917
843.917
843.917
843.917
843.917
843.917
843.917
843.917
843.917
843.917
843.917
843.917
843.917
843.917
843.917
843.917
843.917
843.917
843.917
843.917
843.917
843.917
843.917
843.917
843.917
843.917
843.917
843.917
843.917
843.917
843.917
843.917
843.917
843.917
843.917
843.917
843.917
843.917
843.917
843.917
843.917
843.917
843.917
843.917
843.917
843.917
843.917
843.917
843.917
843.917
843.917
843.917
843.917
843.917
843.917
843.917
843.917
843.917
843.917
843.917
843.917
843.917
843.917
843.917
843.917
843.917
843.917
843.917
843.917
843.917
843.917
843.917
843.917
843.917
843.917
843.917
843.917
843.917
843.917
843.917
843.917
843.917
843.917
843.917
843.917
843.917
843.917
843.917
843.917
843.917
843.917
843.917
843.917
843.917
843.917
843.917
843.917
843.917
843.917
843.917
843.917
843.917
843.917
843.917
843.917
843.917
843.917
843.917
843.917
843.917
843.917
843.917
843.917
843.917
843.917
843.917
843.917
843.917
843.917
843.917
843.917
843.917
843.917
843.917
843.917
843.917
843.917
843.917
843.917
843.917
843.917
843.917
843.917
843.917
843.917
843.917
843.917
843.917
843.917
843.917
843.917
843.917
843.917
843.917
843.917
843.917
843.917
843.917
843.917
843.917
843.917
843.917
843.917
843.917
843.917
843.917
843.917
843.917
843.917
843.917
843.917
843.917
843.917
843.917
843.917
843.917
843.917
843.917
843.917
843.917
843.917
843.917
843.917
843.917
843.917
843.917
843.917
843.917
843.917
843.917
843.917
843.917
843.917
843.917
843.917
843.917
843.917
843.917
843.917
843.917
843.917
843.917
843.917
843.917
843.917
843.917
843.917
843.917
843.917
843.917
843.917
843.917
843.917
843.917
843.917
843.917
843.917
843.917
843.917
843.917
843.917
843.917
843.917
843.917
843.917
843.917
843.917
843.917
843.917
843.917
843.917
843.917
843.917
843.917
843.917
843.917
843.917
843.917
843.917
843.917
843.917
843.917
843.917
843.917
843.917
843.917
843.917
843.917
843.917
843.917
843.917
843.917
843.917
843.917
843.917
843.917
843.917
843.917
843.917
843.917
843.917
843.917
843.917
843.917
843.917
843.917
843.917
843.917
843.917
843.917
843.917
843.917
843.917
843.917
843.917
843.917
843.917
843.917
843.917
843.917
843.917
843.917
843.917
843.917
843.917
843.917
843.917
843.917
843.917
843.917
843.917
843.917
843.917
843.917
843.917
843.917
843.917
843.917
843.917
843.917
843.917
843.917
843.917
843.917
843.917
843.917
843.917
843.917
843.917
843.917
843.917
843.917
843.917
843.917
843.917
843.917
843.917
843.917
843.917
843.917
843.917
843.917
843.917
843.917
843.917
843.917
843.917
843.917
843.917
843.917
843.917
843.917
843.917
843.917
843.917
843.917
843.917
843.917
843.917
843.917
843.917
843.917
843.917
843.917
843.917
843.917
843.917
843.917
843.917
843.917
843.917
843.917
843.917
843.917
843.917
843.917
843.917
843.917
843.917
843.917
843.917
843.917
843.917
843.917
843.917
843.917
843.917
843.917
843.917
843.917
843.917
843.917
843.917
843.917
843.917
843.917
843.917
843.917
843.917
843.917
843.917
843.917
843.917
843.917
843.917
843.917
843.917
843.917
843.917
843.917
843.917
843.917
843.917
843.917
843.917
843.917
843.917
843.917
843.917
843.917
843.917
843.917
843.917
843.917
843.917
843.917
843.917
843.917
843.917
843.917
843.917
843.917
843.917
843.917
843.917
843.917
843.917
843.917
843.917
843.917
843.917
843.917
843.917
843.917
843.917
843.917
843.917
843.917
843.917
843.917
843.917
843.917
843.917
843.917
843.917
843.917
843.917
843.917
843.917
843.917
843.917
843.917
843.917
843.917
843.917
843.917
843.917
843.917
843.917
843.917
843.917
843.917
843.917
843.917
843.917
843.917
843.917
843.917
843.917
843.917
843.917
843.917
843.917
423.923
423.923
423.923
423.923
423.923
423.923
423.923
423.923
423.923
423.923
423.923
423.923
423.923
423.923
423.923
423.923
423.923
423.923
423.923
423.923
423.923
423.923
423.923
423.923
423.923
423.923
423.923
423.923
423.923
423.923
423.923
423.923
423.923
423.923
423.923
281.629
267.583
268.722
269.806
269.908
269.758
269.657
269.599
269.576
269.561
269.56
269.56
269.57
269.577
269.592
269.604
269.623
269.64
269.662
269.684
269.709
269.739
269.766
269.803
269.834
269.878
269.912
269.963
269.999
270.056
270.092
270.154
270.183
270.256
270.258
281.467
267.568
268.645
269.682
269.759
269.606
269.498
269.444
269.416
269.407
269.403
269.412
269.418
269.436
269.449
269.474
269.49
269.521
269.543
269.58
269.605
269.65
269.678
269.732
269.763
269.827
269.859
269.933
269.964
270.047
270.073
270.166
270.167
270.292
270.177
281.132
267.393
268.471
269.476
269.528
269.368
269.257
269.204
269.177
269.174
269.174
269.191
269.203
269.231
269.25
269.286
269.311
269.355
269.385
269.437
269.472
269.533
269.573
269.645
269.689
269.771
269.819
269.911
269.96
270.063
270.107
270.225
270.243
270.402
270.31
280.564
267.015
268.174
269.154
269.173
269
268.885
268.835
268.812
268.815
268.822
268.848
268.868
268.907
268.935
268.983
269.018
269.075
269.115
269.183
269.229
269.307
269.359
269.448
269.506
269.607
269.669
269.781
269.845
269.968
270.029
270.166
270.201
270.383
270.299
280.147
266.779
267.827
268.738
268.738
268.561
268.447
268.398
268.378
268.386
268.399
268.431
268.46
268.507
268.545
268.603
268.648
268.717
268.77
268.851
268.911
269.004
269.071
269.177
269.252
269.371
269.451
269.584
269.666
269.813
269.892
270.056
270.107
270.328
270.249
279.34
266.188
267.273
268.139
268.107
267.921
267.808
267.764
267.754
267.772
267.796
267.84
267.881
267.94
267.992
268.063
268.123
268.207
268.275
268.371
268.448
268.558
268.642
268.767
268.86
268.998
269.097
269.251
269.353
269.521
269.621
269.81
269.879
270.131
270.06
278.498
265.569
266.592
267.389
267.329
267.137
267.027
266.989
266.986
267.013
267.049
267.103
267.157
267.228
267.293
267.377
267.452
267.55
267.633
267.746
267.839
267.967
268.07
268.213
268.325
268.484
268.603
268.778
268.901
269.093
269.213
269.427
269.517
269.802
269.74
277.443
264.751
265.708
266.43
266.342
266.145
266.04
266.01
266.019
266.057
266.106
266.173
266.24
266.324
266.403
266.502
266.591
266.704
266.804
266.933
267.044
267.189
267.31
267.472
267.604
267.783
267.922
268.118
268.262
268.475
268.616
268.855
268.963
269.278
269.223
276.189
263.731
264.631
265.274
265.155
264.956
264.861
264.843
264.868
264.921
264.986
265.068
265.151
265.25
265.345
265.458
265.564
265.692
265.81
265.955
266.084
266.246
266.387
266.567
266.718
266.916
267.075
267.291
267.455
267.69
267.85
268.112
268.238
268.582
268.533
274.955
262.703
263.453
264.007
263.868
263.672
263.585
263.578
263.614
263.679
263.756
263.849
263.945
264.055
264.163
264.288
264.408
264.55
264.682
264.842
264.987
265.165
265.322
265.519
265.687
265.903
266.079
266.314
266.495
266.748
266.926
267.208
267.349
267.718
267.673
273.277
261.259
261.958
262.434
262.268
262.076
262.009
262.024
262.083
262.169
262.268
262.379
262.493
262.62
262.746
262.887
263.024
263.182
263.332
263.508
263.67
263.865
264.04
264.254
264.44
264.674
264.868
265.121
265.32
265.592
265.787
266.088
266.245
266.638
266.596
271.66
259.85
260.317
260.689
260.507
260.326
260.273
260.301
260.374
260.472
260.583
260.706
260.833
260.972
261.111
261.264
261.416
261.587
261.752
261.942
262.12
262.33
262.522
262.753
262.956
263.206
263.418
263.687
263.904
264.193
264.405
264.724
264.895
265.31
265.27
269.372
257.804
258.192
258.486
258.287
258.127
258.108
258.17
258.275
258.401
258.538
258.683
258.833
258.99
259.149
259.32
259.491
259.679
259.862
260.069
260.267
260.494
260.705
260.952
261.174
261.442
261.673
261.96
262.194
262.502
262.731
263.068
263.254
263.691
263.652
267.102
255.735
255.83
256.017
255.812
255.675
255.681
255.766
255.89
256.035
256.19
256.351
256.516
256.689
256.864
257.049
257.236
257.439
257.64
257.862
258.077
258.32
258.549
258.813
259.054
259.338
259.587
259.892
260.144
260.468
260.714
261.069
261.27
261.727
261.69
264.032
252.898
252.821
252.933
252.731
252.638
252.693
252.823
252.986
253.165
253.349
253.536
253.726
253.92
254.117
254.322
254.529
254.75
254.971
255.21
255.446
255.706
255.956
256.237
256.498
256.8
257.069
257.391
257.663
258.005
258.269
258.64
258.857
259.335
259.299
260.551
249.613
249.247
249.286
249.101
249.06
249.164
249.34
249.54
249.753
249.965
250.179
250.39
250.606
250.822
251.046
251.272
251.51
251.75
252.006
252.261
252.537
252.807
253.104
253.386
253.704
253.994
254.332
254.624
254.982
255.265
255.653
255.887
256.383
256.348
256.376
245.608
244.863
244.822
244.667
244.696
244.859
245.085
245.32
245.566
245.799
246.038
246.266
246.501
246.732
246.973
247.213
247.467
247.722
247.993
248.264
248.555
248.843
249.156
249.457
249.791
250.102
250.456
250.769
251.148
251.448
251.861
252.11
252.632
252.607
249.996
239.626
238.833
238.843
238.753
238.878
239.125
239.427
239.716
240.011
240.277
240.549
240.796
241.056
241.299
241.56
241.81
242.081
242.347
242.636
242.921
243.231
243.536
243.873
244.195
244.557
244.892
245.277
245.616
246.023
246.353
246.788
247.072
247.604
247.619
240.798
231.462
230.497
230.675
230.756
231.012
231.329
231.66
231.955
232.247
232.5
232.761
232.994
233.248
233.481
233.742
233.987
234.265
234.53
234.83
235.12
235.459
235.793
236.168
236.531
236.929
237.31
237.728
238.12
238.559
238.945
239.416
239.767
240.317
240.447
214.296
212.133
212.397
213.331
213.973
214.715
215.442
216.119
216.723
217.296
217.815
218.326
218.799
219.28
219.732
220.202
220.648
221.119
221.567
222.046
222.502
222.99
223.456
223.955
224.431
224.935
225.418
225.922
226.409
226.905
227.39
227.867
228.344
228.749
229.391
9.02157
7.663
7.59018
7.5569
7.60914
7.68063
7.77194
7.86344
7.96441
8.05665
8.15367
8.23933
8.32946
8.40811
8.4927
8.56622
8.64763
8.71792
8.79834
8.8666
8.94787
9.0144
9.09816
9.16206
9.25003
9.30901
9.4037
9.45364
9.55911
9.59292
9.71587
9.72072
9.87256
9.81973
10.0192
135.248
128.879
128.553
129.049
129.249
129.247
129.199
129.153
129.119
129.094
129.077
129.066
129.06
129.057
129.059
129.063
129.07
129.08
129.092
129.107
129.124
129.144
129.167
129.192
129.222
129.253
129.29
129.328
129.374
129.42
129.476
129.532
129.597
129.672
129.747
135.076
128.678
128.313
128.785
128.973
128.966
128.914
128.867
128.831
128.807
128.79
128.78
128.775
128.776
128.779
128.787
128.797
128.81
128.827
128.845
128.868
128.891
128.921
128.95
128.987
129.02
129.067
129.105
129.163
129.205
129.275
129.324
129.399
129.472
129.507
134.794
128.386
128.005
128.463
128.642
128.63
128.575
128.527
128.492
128.469
128.455
128.448
128.447
128.452
128.461
128.473
128.489
128.508
128.532
128.557
128.587
128.618
128.655
128.692
128.738
128.78
128.836
128.884
128.951
129.004
129.084
129.144
129.229
129.317
129.364
134.361
127.975
127.613
128.067
128.236
128.216
128.158
128.109
128.075
128.055
128.044
128.042
128.046
128.056
128.07
128.088
128.11
128.136
128.165
128.197
128.234
128.272
128.317
128.361
128.415
128.465
128.528
128.584
128.658
128.719
128.804
128.873
128.959
129.058
129.097
134.043
127.65
127.239
127.656
127.808
127.781
127.718
127.668
127.633
127.613
127.604
127.604
127.61
127.624
127.641
127.664
127.691
127.721
127.756
127.793
127.836
127.881
127.932
127.984
128.044
128.102
128.173
128.236
128.318
128.387
128.481
128.557
128.65
128.759
128.805
133.489
127.122
126.721
127.125
127.262
127.226
127.16
127.109
127.077
127.06
127.056
127.061
127.073
127.093
127.117
127.146
127.179
127.216
127.258
127.302
127.352
127.404
127.463
127.522
127.59
127.656
127.734
127.805
127.894
127.97
128.07
128.154
128.251
128.369
128.412
132.924
126.584
126.16
126.532
126.649
126.602
126.532
126.479
126.448
126.434
126.433
126.443
126.46
126.484
126.513
126.548
126.587
126.631
126.678
126.73
126.786
126.845
126.911
126.977
127.052
127.126
127.211
127.29
127.386
127.47
127.575
127.668
127.769
127.897
127.94
132.248
125.942
125.497
125.834
125.928
125.87
125.795
125.742
125.713
125.703
125.706
125.721
125.743
125.773
125.808
125.849
125.894
125.944
125.998
126.056
126.119
126.185
126.257
126.331
126.413
126.493
126.586
126.672
126.774
126.865
126.977
127.076
127.18
127.319
127.359
131.463
125.209
124.748
125.049
125.118
125.047
124.968
124.916
124.89
124.885
124.894
124.915
124.945
124.981
125.023
125.07
125.122
125.178
125.239
125.304
125.374
125.447
125.526
125.607
125.696
125.784
125.883
125.976
126.085
126.183
126.299
126.407
126.513
126.662
126.699
130.701
124.495
123.979
124.229
124.271
124.188
124.106
124.054
124.03
124.029
124.042
124.068
124.102
124.144
124.191
124.243
124.3
124.362
124.429
124.5
124.575
124.655
124.74
124.827
124.922
125.016
125.12
125.22
125.334
125.439
125.56
125.674
125.783
125.94
125.974
129.711
123.569
123.043
123.257
123.271
123.176
123.091
123.043
123.027
123.033
123.056
123.09
123.132
123.182
123.236
123.296
123.36
123.43
123.503
123.581
123.663
123.75
123.841
123.936
124.037
124.138
124.248
124.355
124.475
124.586
124.712
124.833
124.944
125.111
125.141
128.745
122.677
122.061
122.203
122.183
122.075
121.989
121.942
121.929
121.941
121.968
122.008
122.056
122.111
122.17
122.236
122.306
122.381
122.46
122.544
122.632
122.725
122.823
122.924
123.031
123.138
123.255
123.368
123.493
123.611
123.742
123.87
123.983
124.16
124.185
127.448
121.46
120.821
120.92
120.869
120.751
120.667
120.63
120.628
120.652
120.691
120.741
120.799
120.863
120.932
121.006
121.084
121.167
121.254
121.346
121.442
121.542
121.647
121.755
121.87
121.984
122.108
122.228
122.36
122.484
122.621
122.756
122.872
123.058
123.08
126.136
120.247
119.485
119.495
119.405
119.276
119.193
119.162
119.168
119.199
119.247
119.305
119.371
119.443
119.519
119.601
119.686
119.776
119.87
119.969
120.072
120.179
120.291
120.407
120.528
120.65
120.78
120.908
121.046
121.177
121.32
121.462
121.582
121.778
121.795
124.43
118.648
117.811
117.757
117.632
117.497
117.424
117.407
117.429
117.476
117.538
117.609
117.687
117.769
117.856
117.947
118.042
118.141
118.243
118.351
118.462
118.578
118.698
118.821
118.951
119.081
119.219
119.354
119.5
119.639
119.787
119.938
120.062
120.27
120.282
122.481
116.821
115.843
115.704
115.542
115.403
115.34
115.339
115.377
115.44
115.516
115.601
115.691
115.785
115.882
115.982
116.086
116.193
116.304
116.42
116.539
116.662
116.791
116.922
117.059
117.197
117.343
117.486
117.639
117.786
117.942
118.1
118.229
118.447
118.454
120.129
114.623
113.444
113.189
112.979
112.84
112.794
112.814
112.869
112.948
113.037
113.134
113.232
113.335
113.439
113.547
113.657
113.771
113.889
114.011
114.137
114.268
114.403
114.542
114.686
114.833
114.986
115.137
115.299
115.455
115.62
115.788
115.927
116.158
116.167
116.507
111.184
110.005
109.762
109.551
109.429
109.405
109.448
109.521
109.617
109.717
109.824
109.93
110.041
110.151
110.266
110.382
110.504
110.629
110.759
110.894
111.034
111.179
111.33
111.486
111.646
111.814
111.981
112.159
112.33
112.512
112.694
112.852
113.093
113.121
111.046
106.318
104.835
104.502
104.275
104.177
104.176
104.243
104.332
104.447
104.562
104.691
104.815
104.951
105.083
105.227
105.369
105.524
105.677
105.842
106.008
106.18
106.354
106.537
106.723
106.914
107.11
107.306
107.511
107.711
107.922
108.131
108.328
108.583
108.686
95.7379
95.7833
94.6643
94.3746
94.1687
94.1428
94.2556
94.4503
94.6797
94.9345
95.1915
95.4578
95.7181
95.9843
96.2433
96.5081
96.7663
97.0308
97.2896
97.555
97.8159
98.0831
98.3469
98.6166
98.8837
99.1556
99.4248
99.6973
99.9668
100.237
100.506
100.766
101.044
101.256
101.624
11.4422
9.87552
9.84031
9.88425
9.99978
10.1222
10.2571
10.3837
10.5162
10.6344
10.7558
10.8616
10.9716
11.0666
11.168
11.2554
11.3517
11.4341
11.5283
11.6076
11.702
11.7787
11.8754
11.9488
12.0498
12.1174
12.2257
12.2831
12.403
12.4429
12.5816
12.5916
12.7595
12.7169
12.9225
79.7825
77.236
76.6741
76.7675
76.895
76.9405
76.9353
76.9135
76.8879
76.8659
76.8461
76.8314
76.8187
76.8105
76.8038
76.8008
76.799
76.8
76.8024
76.8067
76.8132
76.8203
76.8309
76.8406
76.8555
76.8677
76.8875
76.9023
76.9276
76.9462
76.9771
77.0024
77.0381
77.073
77.1208
79.595
77.0485
76.47
76.5481
76.6673
76.7072
76.6992
76.6744
76.6479
76.6239
76.6048
76.5888
76.5781
76.5692
76.5654
76.562
76.564
76.5649
76.5718
76.5761
76.5879
76.5947
76.6118
76.6202
76.6434
76.6528
76.6832
76.6929
76.7318
76.7414
76.7895
76.8009
76.8527
76.8757
76.9189
79.3539
76.8063
76.2181
76.2871
76.4006
76.4362
76.4255
76.3985
76.3712
76.3466
76.3283
76.313
76.3042
76.2968
76.2957
76.2943
76.2996
76.3029
76.3138
76.3207
76.3371
76.3468
76.3689
76.3809
76.4092
76.4229
76.4585
76.473
76.5174
76.5322
76.5863
76.6034
76.6621
76.6924
76.7445
79.0384
76.4928
75.9085
75.9767
76.0864
76.1177
76.1037
76.0746
76.0464
76.022
76.0046
75.9909
75.9842
75.9791
75.981
75.9822
75.9911
75.9971
76.0121
76.022
76.0428
76.0557
76.0826
76.0979
76.1313
76.1485
76.1891
76.2076
76.2563
76.2759
76.3323
76.356
76.4123
76.4526
76.4948
78.7526
76.2176
75.6158
75.6644
75.7607
75.7839
75.7645
75.7319
75.7013
75.6756
75.6577
75.6442
75.6382
75.6343
75.6375
75.6407
75.6514
75.6598
75.6772
75.6898
75.7135
75.7295
75.7597
75.7783
75.8154
75.8359
75.8808
75.9023
75.9561
75.978
76.0406
76.0654
76.1298
76.169
76.2233
78.3535
75.8239
75.2263
75.271
75.3601
75.3766
75.3523
75.3168
75.2851
75.2596
75.2428
75.2312
75.2274
75.2262
75.2324
75.2386
75.2526
75.2644
75.2852
75.3014
75.3287
75.3485
75.3824
75.405
75.446
75.4705
75.5193
75.5448
75.6023
75.6281
75.6939
75.7224
75.789
75.8318
75.8865
77.928
75.4139
74.8109
74.8411
74.9167
74.9234
74.8925
74.8531
74.8192
74.7931
74.7766
74.7662
74.764
74.765
74.7733
74.7822
74.7987
74.8135
74.8372
74.8566
74.887
74.9102
74.9475
74.9736
75.0181
75.0462
75.0986
75.1275
75.1887
75.2178
75.2872
75.3191
75.3883
75.4349
75.4917
77.4333
74.9361
74.3302
74.3457
74.4064
74.4019
74.3636
74.32
74.284
74.2576
74.2417
74.233
74.2326
74.2361
74.2468
74.2586
74.2779
74.2958
74.3225
74.3453
74.3789
74.4056
74.4462
74.4759
74.5239
74.5555
74.6114
74.6438
74.7084
74.7408
74.8131
74.8484
74.9195
74.9694
75.0268
76.8737
74.4019
73.7979
73.7991
73.8434
73.8262
73.7797
73.7319
73.6943
73.6683
73.6538
73.6473
73.6496
73.656
73.6697
73.6848
73.7072
73.7285
73.7583
73.7846
73.8215
73.8517
73.8957
73.9289
73.9803
74.0154
74.0747
74.1105
74.1783
74.214
74.2892
74.3278
74.4006
74.4546
74.5122
76.3105
73.874
73.258
73.2341
73.2574
73.2262
73.1716
73.1195
73.08
73.0538
73.0401
73.0353
73.0394
73.0482
73.0642
73.082
73.1068
73.1311
73.1636
73.1929
73.2326
73.266
73.3129
73.3493
73.4037
73.4419
73.5042
73.5431
73.6138
73.6524
73.73
73.7717
73.846
73.9034
73.9609
75.6271
73.2225
72.6133
72.5762
72.5813
72.5358
72.4727
72.4169
72.3769
72.3524
72.3412
72.3398
72.3473
72.3599
72.3795
72.401
72.4294
72.4573
72.4932
72.5262
72.5693
72.6062
72.6565
72.6964
72.7541
72.7957
72.8613
72.9034
72.9773
73.019
73.0994
73.1443
73.2203
73.2815
73.339
74.9229
72.5721
71.9387
71.863
71.8384
71.7748
71.7023
71.6424
71.6011
71.5772
71.5677
71.5686
71.5786
71.5942
71.6165
71.6412
71.6724
71.7037
71.7426
71.7789
71.8251
71.8654
71.9188
71.9621
72.023
72.068
72.1368
72.1821
72.2591
72.304
72.3872
72.4353
72.513
72.5781
72.6353
74.0389
71.7341
71.1042
71.0103
70.9628
70.8825
70.8017
70.7393
70.6992
70.6785
70.6731
70.6786
70.6932
70.7135
70.7402
70.7695
70.8048
70.8404
70.8831
70.9237
70.9736
71.0181
71.0751
71.1224
71.1869
71.2358
71.3082
71.3572
71.4378
71.4861
71.5726
71.6242
71.7041
71.7736
71.8308
73.1017
70.8706
70.2024
70.0572
69.9715
69.8696
69.7792
69.7138
69.6743
69.6562
69.6543
69.6639
69.6826
69.7073
69.738
69.7717
69.8109
69.8509
69.8974
69.9423
69.9958
70.0445
70.1052
70.1567
70.2248
70.2777
70.3539
70.4067
70.491
70.543
70.633
70.6884
70.7706
70.8448
70.9015
71.9317
69.775
69.0895
68.9089
68.79
68.6681
68.5699
68.5038
68.4677
68.4546
68.4584
68.4739
68.4984
68.5287
68.5646
68.6035
68.6475
68.6925
68.7433
68.793
68.8505
68.9039
68.9685
69.0246
69.0966
69.154
69.2341
69.2911
69.3795
69.4354
69.5294
69.5888
69.674
69.7536
69.8106
70.5751
68.5115
67.7774
67.5411
67.3801
67.2355
67.1292
67.0626
67.0302
67.0224
67.0324
67.0541
67.0846
67.1205
67.1618
67.2058
67.2543
67.304
67.3587
67.4129
67.474
67.5319
67.5998
67.6605
67.736
67.7979
67.8816
67.9431
68.0355
68.0956
68.1939
68.2572
68.346
68.4304
68.4879
68.9306
66.9869
66.1744
65.8559
65.6371
65.465
65.3507
65.2845
65.2561
65.2527
65.2675
65.2928
65.3269
65.3655
65.4095
65.4557
65.5064
65.5583
65.6152
65.6723
65.7358
65.7974
65.8681
65.9332
66.0117
66.0786
66.166
66.2321
66.3303
66.3921
66.4995
66.5626
66.6615
66.7495
66.8114
66.5754
64.6696
63.85
63.5269
63.2886
63.1013
62.9786
62.907
62.8748
62.8675
62.8795
62.9013
62.9335
62.97
63.0139
63.0601
63.1129
63.1671
63.2279
63.2892
63.3579
63.4253
63.5027
63.5736
63.6601
63.7334
63.8303
63.9034
64.0117
64.0823
64.2
64.2715
64.3833
64.4755
64.5554
63.0744
61.5356
60.4579
59.9531
59.6038
59.3595
59.2095
59.126
59.0923
59.09
59.1129
59.1491
59.2003
59.2573
59.3254
59.3958
59.4761
59.5566
59.6468
59.7355
59.8354
59.9296
60.0325
60.1298
60.2384
60.3388
60.4541
60.5546
60.6784
60.7741
60.9085
60.9997
61.1347
61.2363
61.3594
55.4848
57.2201
56.1493
55.362
54.7631
54.351
54.1104
53.9834
53.9427
53.9497
53.9989
54.0652
54.1554
54.2493
54.36
54.4678
54.59
54.7059
54.8355
54.9567
55.0914
55.2166
55.355
55.4841
55.6253
55.7586
55.9013
56.0385
56.1816
56.3208
56.4663
56.5981
56.7623
56.8576
57.0891
13.0137
11.4067
11.4193
11.5476
11.7313
11.9034
12.0764
12.2297
12.3838
12.517
12.6516
12.7663
12.885
12.9854
13.0929
13.1836
13.2843
13.3687
13.4663
13.5466
13.6437
13.7209
13.82
13.8934
13.9966
14.0642
14.1744
14.2321
14.3537
14.3948
14.534
14.5484
14.7128
14.6856
14.8765
52.8625
51.8609
51.4539
51.3866
51.4242
51.4595
51.4699
51.4646
51.4501
51.4347
51.418
51.4042
51.3907
51.3806
51.371
51.3644
51.3585
51.3547
51.352
51.3504
51.3508
51.3506
51.3539
51.3549
51.361
51.3627
51.3719
51.3741
51.3863
51.3898
51.4044
51.4111
51.4279
51.4382
51.4631
52.6912
51.6998
51.2898
51.2148
51.2474
51.278
51.2862
51.2777
51.2626
51.2445
51.2285
51.2124
51.2007
51.1886
51.1817
51.1733
51.1707
51.1653
51.1667
51.1633
51.1686
51.1662
51.1758
51.1732
51.1877
51.184
51.2039
51.1984
51.2244
51.2168
51.2487
51.2402
51.2755
51.2679
51.3076
52.4926
51.5061
51.0933
51.0132
51.0423
51.0694
51.0754
51.0643
51.048
51.0283
51.0121
50.9953
50.9843
50.9721
50.9666
50.9584
50.9577
50.9527
50.9565
50.9536
50.9617
50.96
50.9725
50.9712
50.9884
50.9866
51.0092
51.006
51.035
51.0297
51.0655
51.0591
51.0998
51.0947
51.1423
52.2551
51.2693
50.8579
50.7777
50.8057
50.8306
50.8342
50.821
50.8031
50.7825
50.7659
50.7491
50.7388
50.7272
50.723
50.7157
50.7171
50.7131
50.7194
50.7176
50.7286
50.7281
50.7438
50.7439
50.7645
50.7645
50.7902
50.7895
50.8206
50.8193
50.855
50.8553
50.8912
50.897
50.9326
52.0125
51.0411
50.6274
50.5389
50.5586
50.5769
50.5755
50.5586
50.5379
50.5153
50.4974
50.4799
50.4692
50.4576
50.4538
50.4471
50.4492
50.4461
50.4535
50.4528
50.4653
50.4661
50.4836
50.485
50.5078
50.5089
50.5376
50.5375
50.5725
50.571
50.6121
50.6104
50.6544
50.6553
50.704
51.7114
50.7436
50.3336
50.245
50.2618
50.2762
50.2707
50.2505
50.2275
50.2035
50.1849
50.1674
50.157
50.1463
50.1435
50.1381
50.1417
50.1401
50.1492
50.1503
50.1647
50.1674
50.187
50.1905
50.2155
50.2187
50.2497
50.2518
50.2892
50.2896
50.3332
50.3333
50.3794
50.3818
50.4317
51.381
50.4246
50.0166
49.9234
49.933
49.9404
49.929
49.9046
49.8783
49.8524
49.8326
49.8147
49.8043
49.7942
49.792
49.7876
49.7922
49.7919
49.8024
49.8049
49.8209
49.8251
49.8465
49.8516
49.8786
49.8835
49.9167
49.9202
49.9601
49.9619
50.0079
50.0094
50.0579
50.0616
50.114
51.0014
50.0569
49.653
49.5558
49.5576
49.5571
49.5389
49.5095
49.4796
49.4517
49.4306
49.4125
49.4022
49.3927
49.3913
49.3882
49.3939
49.3951
49.407
49.4113
49.4289
49.435
49.4582
49.4651
49.4942
49.5008
49.5362
49.5415
49.5836
49.587
49.6353
49.6381
49.6887
49.6933
49.7478
50.5805
49.65
49.2533
49.1533
49.147
49.1376
49.1117
49.0769
49.0433
49.0134
48.9913
48.9732
48.9632
48.9547
48.9543
48.9526
48.9596
48.9625
48.9759
48.9818
49.0011
49.009
49.034
49.0427
49.0737
49.0821
49.1195
49.1265
49.1707
49.1756
49.2259
49.2304
49.2827
49.2889
49.3448
50.1475
49.2384
48.845
48.7365
48.7178
48.6974
48.663
48.6226
48.5853
48.5535
48.5303
48.5122
48.5024
48.4948
48.4952
48.4948
48.5031
48.5075
48.5223
48.5299
48.5507
48.5603
48.587
48.5974
48.6302
48.6402
48.6795
48.6881
48.7343
48.7407
48.7929
48.7987
48.8527
48.8601
48.9173
49.6405
48.7494
48.3673
48.2577
48.2305
48.1997
48.1567
48.1103
48.0692
48.0356
48.0116
47.9939
47.9848
47.9786
47.9803
47.9816
47.9913
47.9976
48.014
48.0235
48.046
48.0575
48.086
48.0983
48.133
48.1448
48.1861
48.1963
48.2446
48.2525
48.3068
48.3141
48.3697
48.3787
48.4373
49.0987
48.2403
47.8582
47.733
47.6868
47.6404
47.5867
47.5339
47.489
47.4538
47.4293
47.4122
47.4039
47.3992
47.4022
47.4054
47.4166
47.4249
47.443
47.4546
47.4788
47.4924
47.5227
47.5369
47.5736
47.5873
47.6307
47.6426
47.6931
47.7026
47.759
47.7679
47.8254
47.8359
47.8959
48.442
47.6135
47.2446
47.1167
47.0584
46.9986
46.9345
46.875
46.8264
46.7897
46.765
46.7488
46.7417
46.7388
46.7434
46.7488
46.7619
46.7725
46.7924
46.8063
46.8324
46.8483
46.8806
46.897
46.9358
46.9515
46.9972
47.011
47.0639
47.0751
47.134
47.1445
47.2041
47.2164
47.2781
47.7238
46.9423
46.5691
46.4184
46.3342
46.2543
46.1776
46.1111
46.0591
46.0216
45.9973
45.9827
45.9772
45.9768
45.9834
45.9915
46.0067
46.0201
46.042
46.0587
46.0869
46.1054
46.1397
46.1587
46.1996
46.2177
46.2658
46.2817
46.3371
46.3503
46.4117
46.4241
46.486
46.5002
46.5636
46.8462
46.1177
45.7522
45.5889
45.4834
45.3843
45.2949
45.2209
45.1654
45.1269
45.103
45.0898
45.0859
45.0878
45.0963
45.107
45.124
45.1401
45.1638
45.1832
45.213
45.2342
45.2703
45.2919
45.3347
45.3553
45.4055
45.4237
45.4816
45.4967
45.561
45.5752
45.6398
45.6559
45.722
45.8229
45.159
44.7861
44.5955
44.4589
44.3356
44.2315
44.149
44.09
44.0502
44.0269
44.015
44.0129
44.0168
44.0272
44.0401
44.0586
44.077
44.1019
44.1237
44.1545
44.1782
44.2152
44.2394
44.2835
44.3066
44.3585
44.3791
44.4393
44.4564
44.5236
44.5394
44.6073
44.6246
44.6941
44.5802
44.0026
43.6091
43.3736
43.1919
43.0364
42.9142
42.8213
42.7576
42.7144
42.6899
42.6762
42.6734
42.6759
42.6855
42.6975
42.7151
42.7333
42.7575
42.78
42.8105
42.836
42.8731
42.9
42.9446
42.971
43.0241
43.0477
43.111
43.1294
43.2018
43.2179
43.2916
43.311
43.3855
43.0295
42.4148
41.9889
41.7319
41.5223
41.3384
41.1941
41.0811
41.0025
40.9444
40.9095
40.8845
40.875
40.8697
40.8758
40.8835
40.9004
40.9175
40.9429
40.967
40.9999
41.0291
41.0697
41.1012
41.1497
41.1816
41.2391
41.2688
41.3366
41.3621
41.4394
41.462
41.543
41.566
41.6514
40.8419
40.5277
39.9108
39.4666
39.1198
38.8451
38.6466
38.4989
38.4035
38.3354
38.3014
38.2787
38.2799
38.2835
38.3058
38.3258
38.3618
38.3931
38.4387
38.4782
38.5317
38.5774
38.6347
38.6833
38.7446
38.7949
38.8613
38.9105
38.9839
39.0282
39.1108
39.1497
39.2381
39.2737
39.3724
37.8609
40.6881
39.8755
38.9241
38.1232
37.5064
37.068
36.7529
36.5435
36.3942
36.3054
36.242
36.2169
36.1992
36.2096
36.2177
36.2491
36.2729
36.3177
36.3518
36.4052
36.4467
36.5057
36.5535
36.6161
36.67
36.7345
36.794
36.8597
36.9228
36.9929
37.0509
37.1393
37.1729
37.3126
14.2727
12.6908
12.7692
12.9801
13.2302
13.4485
13.6552
13.83
14.0003
14.143
14.2855
14.4038
14.5263
14.6272
14.7363
14.8256
14.9266
15.0086
15.1056
15.1828
15.2789
15.3526
15.4502
15.52
15.6213
15.6855
15.7934
15.8485
15.9667
16.0072
16.1408
16.159
16.3131
16.2989
16.4722
37.6239
37.2103
36.9815
36.8884
36.8736
36.885
36.8934
36.8948
36.8882
36.8791
36.8672
36.8563
36.8446
36.8351
36.8254
36.8178
36.8106
36.8048
36.8
36.7955
36.7931
36.7894
36.7892
36.7858
36.7878
36.7842
36.7883
36.7843
36.7903
36.7863
36.7934
36.7905
36.7988