/*--------------------------------*- C++ -*----------------------------------*\
  =========                 |
  \\      /  F ield         | OpenFOAM: The Open Source CFD Toolbox
   \\    /   O peration     | Website:  https://openfoam.org
    \\  /    A nd           | Version:  6
     \\/     M anipulation  |
\*---------------------------------------------------------------------------*/
FoamFile
{
    version     2.0;
    format      ascii;
    class       volVectorField;
    location    "29";
    object      wallShearStress;
}
// * * * * * * * * * * * * * * * * * * * * * * * * * * * * * * * * * * * * * //

dimensions      [0 2 -2 0 0 0 0];

internalField   uniform (0 0 0);

boundaryField
{
    inlet
    {
        type            calculated;
        value           uniform (0 0 0);
    }
    outlet
    {
        type            calculated;
        value           uniform (0 0 0);
    }
    roughCylinder
    {
        type            calculated;
        value           nonuniform List<vector> 
3840
(
(-9.2241e-05 -0.000118176 -5.2337e-05)
(-0.00019561 -0.000333784 -4.65436e-05)
(-0.000283329 -0.000491347 3.1315e-05)
(-0.000344804 -0.000559305 9.15513e-05)
(-0.000410925 -0.00060228 0.000142375)
(-0.00045453 -0.000599264 0.000174337)
(-0.000492298 -0.000588854 0.000195477)
(-0.000516495 -0.000571265 0.000207331)
(-0.000543311 -0.000566477 0.000218555)
(-0.000560886 -0.000562459 0.000223877)
(-0.000575139 -0.000562919 0.000224688)
(-0.000582956 -0.000563116 0.000220041)
(-0.000585312 -0.000562397 0.000210668)
(-0.00058308 -0.000559986 0.000197419)
(-0.00058949 -0.000566945 0.000184852)
(-0.000592768 -0.000572122 0.00016948)
(-0.000587227 -0.000569556 0.000150761)
(-0.000591525 -0.000576153 0.000133801)
(-0.000594598 -0.000580722 0.00011545)
(-0.000587843 -0.000576859 9.4953e-05)
(-0.000587958 -0.000579227 7.53028e-05)
(-0.000584237 -0.000577601 5.47526e-05)
(-0.000585297 -0.000580148 3.38211e-05)
(-0.000581745 -0.000577737 1.14422e-05)
(-0.000143065 -0.000163176 -7.03823e-05)
(-0.00020952 -0.000324221 -5.26391e-05)
(-0.000301335 -0.000482993 2.2355e-05)
(-0.000366353 -0.000556721 8.3012e-05)
(-0.000435382 -0.000603509 0.000134414)
(-0.000481318 -0.000604017 0.000167211)
(-0.00052201 -0.00059744 0.000189482)
(-0.000550102 -0.000583821 0.000203485)
(-0.000579343 -0.000579301 0.0002162)
(-0.000598253 -0.000573554 0.000222215)
(-0.000614152 -0.000573983 0.000223642)
(-0.000622094 -0.00057348 0.000219132)
(-0.000625137 -0.000573104 0.000210189)
(-0.000624727 -0.000572303 0.000197744)
(-0.000632615 -0.000580214 0.000185574)
(-0.000637115 -0.000586393 0.000170525)
(-0.000631136 -0.000583849 0.000151858)
(-0.000640037 -0.000594538 0.00013582)
(-0.000640225 -0.000596607 0.000116783)
(-0.000634415 -0.000594126 9.63768e-05)
(-0.000635491 -0.000597494 7.66205e-05)
(-0.000631654 -0.00059604 5.57759e-05)
(-0.000632859 -0.000598766 3.44751e-05)
(-0.000629127 -0.000596424 1.16711e-05)
(-0.000109114 -0.000109161 -4.41882e-05)
(-0.000222307 -0.000308949 -5.84929e-05)
(-0.0003194 -0.000469768 1.24278e-05)
(-0.000387381 -0.000548271 7.31061e-05)
(-0.000459191 -0.000598857 0.000124958)
(-0.000509214 -0.000605455 0.000159343)
(-0.000554799 -0.000605009 0.000183751)
(-0.000586286 -0.000594883 0.000199811)
(-0.000618916 -0.000592092 0.0002142)
(-0.000639886 -0.000584872 0.000221005)
(-0.000655625 -0.000583348 0.000222497)
(-0.000664016 -0.000582193 0.000218239)
(-0.000667933 -0.000582104 0.00020977)
(-0.000670349 -0.000583513 0.000198356)
(-0.000679739 -0.000592243 0.00018655)
(-0.000685318 -0.0005992 0.00017177)
(-0.000678474 -0.000596393 0.000153083)
(-0.000690419 -0.000609337 0.000137542)
(-0.000686065 -0.000607791 0.000117669)
(-0.000680437 -0.000605934 9.73073e-05)
(-0.000682575 -0.000610316 7.75519e-05)
(-0.000679124 -0.000609539 5.65668e-05)
(-0.00068089 -0.000612815 3.50098e-05)
(-0.000677592 -0.000611133 1.18704e-05)
(-0.000140997 -0.000122596 -4.43319e-05)
(-0.000233025 -0.000289257 -6.39538e-05)
(-0.000334171 -0.00044997 1.79621e-06)
(-0.000405535 -0.000533824 6.19534e-05)
(-0.000481065 -0.00058966 0.000114277)
(-0.000535162 -0.000602524 0.000150244)
(-0.000584078 -0.000606694 0.000176458)
(-0.000619945 -0.000601247 0.000194956)
(-0.000654409 -0.000598909 0.000210302)
(-0.000677533 -0.000591263 0.000218078)
(-0.000695373 -0.00058894 0.0002204)
(-0.000704709 -0.000587386 0.000216602)
(-0.000710237 -0.000587924 0.000208845)
(-0.000714611 -0.000590491 0.000198166)
(-0.000724821 -0.000599353 0.00018661)
(-0.000731524 -0.000607052 0.000172213)
(-0.000724902 -0.000604971 0.000153869)
(-0.000741506 -0.000621246 0.000139143)
(-0.000734852 -0.000618446 0.000118925)
(-0.000730598 -0.000618232 9.87108e-05)
(-0.000733627 -0.000623455 7.88377e-05)
(-0.000729811 -0.000622758 5.75631e-05)
(-0.000731565 -0.000626107 3.56446e-05)
(-0.000728093 -0.000624564 1.2093e-05)
(-0.000125519 -9.3762e-05 -2.84037e-05)
(-0.000242003 -0.000267121 -6.89041e-05)
(-0.000345971 -0.000425349 -9.06385e-06)
(-0.000420667 -0.00051443 4.98542e-05)
(-0.000499289 -0.000574821 0.000102255)
(-0.00055839 -0.000595088 0.000139931)
(-0.000613568 -0.00060687 0.00016886)
(-0.000653035 -0.000605145 0.000189613)
(-0.000691304 -0.000605071 0.000206638)
(-0.000717481 -0.000598379 0.000215713)
(-0.000736721 -0.000594081 0.000218571)
(-0.000747037 -0.000591579 0.000215333)
(-0.000754015 -0.000592266 0.000208206)
(-0.000760765 -0.000596023 0.000198337)
(-0.000771831 -0.000604974 0.000187068)
(-0.000779315 -0.000613095 0.000172982)
(-0.000772627 -0.000611526 0.000154915)
(-0.000791056 -0.000628547 0.000140421)
(-0.000781194 -0.000624068 0.000119824)
(-0.000777391 -0.000624705 9.96886e-05)
(-0.000781498 -0.000630879 7.98061e-05)
(-0.000778096 -0.000630963 5.83969e-05)
(-0.000780284 -0.000634778 3.62039e-05)
(-0.000777393 -0.000634024 1.23019e-05)
(-0.000144142 -9.13177e-05 -2.05909e-05)
(-0.00024658 -0.000240549 -7.23178e-05)
(-0.000353194 -0.000395194 -1.99059e-05)
(-0.000430833 -0.000489002 3.67783e-05)
(-0.000513819 -0.000555546 8.9094e-05)
(-0.000578833 -0.000583962 0.000128532)
(-0.00063747 -0.000600285 0.000159359)
(-0.000682083 -0.000603642 0.000182729)
(-0.000722836 -0.000604772 0.000201111)
(-0.000750342 -0.000597949 0.000210973)
(-0.000773573 -0.000594521 0.00021528)
(-0.000786532 -0.00059153 0.000213131)
(-0.000795551 -0.000592347 0.000206867)
(-0.000803686 -0.000596321 0.000197615)
(-0.000815034 -0.000604875 0.000186629)
(-0.000823557 -0.00061355 0.000173042)
(-0.000818365 -0.000613645 0.000155651)
(-0.000839835 -0.000632216 0.00014165)
(-0.000829617 -0.000628508 0.000121159)
(-0.000827293 -0.00063079 0.00010116)
(-0.000831825 -0.000637628 8.11209e-05)
(-0.000827804 -0.000637971 5.94279e-05)
(-0.000829672 -0.000641873 3.68594e-05)
(-0.000826566 -0.000641395 1.25317e-05)
(-0.000177153 -9.3763e-05 -1.1388e-05)
(-0.000247701 -0.000211867 -7.42988e-05)
(-0.000355517 -0.000360747 -3.03547e-05)
(-0.000436425 -0.000459476 2.30106e-05)
(-0.000523055 -0.000531464 7.46831e-05)
(-0.000593351 -0.000567139 0.000115517)
(-0.000659599 -0.000591557 0.000149069)
(-0.000708678 -0.000598899 0.000174783)
(-0.000753749 -0.000602697 0.000195109)
(-0.000785747 -0.000598269 0.000206793)
(-0.000811391 -0.00059488 0.000212179)
(-0.000827146 -0.000591577 0.000211209)
(-0.000837992 -0.000591636 0.000205809)
(-0.000847783 -0.000595454 0.000197262)
(-0.000859695 -0.000603666 0.00018668)
(-0.00086874 -0.000612548 0.000173521)
(-0.00086425 -0.00061382 0.000156654)
(-0.000885155 -0.000631495 0.000142571)
(-0.000873669 -0.000628227 0.000122138)
(-0.00087166 -0.000631554 0.000102222)
(-0.00087668 -0.000639193 8.21323e-05)
(-0.000872825 -0.000640514 6.03037e-05)
(-0.000874645 -0.0006448 3.7435e-05)
(-0.000872078 -0.000645226 1.27456e-05)
(-0.000146186 -6.34144e-05 1.25359e-06)
(-0.000244767 -0.000181756 -7.46683e-05)
(-0.000352046 -0.00032258 -3.98681e-05)
(-0.000434521 -0.000424072 8.69957e-06)
(-0.000525405 -0.000502325 5.90364e-05)
(-0.000603389 -0.000547215 0.000101364)
(-0.000673621 -0.00057589 0.000136618)
(-0.00072896 -0.000588405 0.000164875)
(-0.000777983 -0.000594501 0.000187029)
(-0.000811582 -0.000590438 0.000199947)
(-0.000841322 -0.000588658 0.00020703)
(-0.000861092 -0.000586516 0.000207697)
(-0.000874942 -0.000586781 0.000203578)
(-0.000886266 -0.000590236 0.000195909)
(-0.000898526 -0.000597921 0.000185908)
(-0.000908427 -0.000607209 0.000173411)
(-0.000906064 -0.000610568 0.000157405)
(-0.000927571 -0.000628353 0.000143519)
(-0.000917203 -0.00062729 0.000123482)
(-0.000916086 -0.000632175 0.00010365)
(-0.000920529 -0.000639756 8.33224e-05)
(-0.000915613 -0.000641099 6.12279e-05)
(-0.000916547 -0.000645102 3.80043e-05)
(-0.000913559 -0.000645665 1.29424e-05)
(-0.000147384 -5.11537e-05 1.11518e-05)
(-0.00023786 -0.000150809 -7.31471e-05)
(-0.000341227 -0.000280849 -4.79231e-05)
(-0.000425781 -0.000384765 -5.6334e-06)
(-0.000520557 -0.000469104 4.24061e-05)
(-0.000603633 -0.000520542 8.53564e-05)
(-0.000682711 -0.000557176 0.000122878)
(-0.000744059 -0.000573997 0.000153389)
(-0.000798232 -0.000583018 0.000177635)
(-0.000838408 -0.000582799 0.000193153)
(-0.000871932 -0.000582307 0.000202056)
(-0.000894463 -0.000580555 0.000204201)
(-0.000910265 -0.000580692 0.000201286)
(-0.000923226 -0.000584146 0.000194689)
(-0.000936175 -0.000591637 0.000185459)
(-0.000946075 -0.000600706 0.00017351)
(-0.000944207 -0.000604815 0.000158065)
(-0.000962523 -0.0006202 0.000143846)
(-0.000952002 -0.000620199 0.000124095)
(-0.000950518 -0.000625604 0.0001043)
(-0.000955037 -0.000633559 8.39549e-05)
(-0.000950366 -0.000635822 6.18384e-05)
(-0.000951013 -0.00063997 3.84072e-05)
(-0.000948637 -0.000641371 1.30968e-05)
(-0.000153146 -4.09232e-05 2.11076e-05)
(-0.000227241 -0.000120272 -6.92143e-05)
(-0.000324454 -0.000238002 -5.4249e-05)
(-0.000407449 -0.000340284 -1.93652e-05)
(-0.000504673 -0.00042962 2.49091e-05)
(-0.000596765 -0.000490841 6.81574e-05)
(-0.000680918 -0.000531794 0.000106896)
(-0.000749893 -0.000553587 0.000139636)
(-0.000810186 -0.000565807 0.000166036)
(-0.00085295 -0.000566492 0.000183304)
(-0.00089091 -0.000567848 0.000194375)
(-0.000917801 -0.000567746 0.000198608)
(-0.000936563 -0.000568678 0.000197363)
(-0.000950908 -0.000572172 0.000192005)
(-0.000964201 -0.000579338 0.000183678)
(-0.000974616 -0.000588514 0.000172552)
(-0.000974981 -0.000594327 0.000158078)
(-0.000992477 -0.000609017 0.000144022)
(-0.000983916 -0.000611224 0.000124844)
(-0.000982933 -0.000617691 0.000105165)
(-0.000986039 -0.00062505 8.4641e-05)
(-0.000980036 -0.000627213 6.23992e-05)
(-0.000979353 -0.000630845 3.87414e-05)
(-0.000976374 -0.000632243 1.32113e-05)
(-0.000156635 -3.00058e-05 3.08532e-05)
(-0.000214286 -9.23823e-05 -6.34032e-05)
(-0.000298943 -0.000193084 -5.75549e-05)
(-0.000380262 -0.000292678 -3.16057e-05)
(-0.00048037 -0.000387339 7.34538e-06)
(-0.000576675 -0.000454287 4.93586e-05)
(-0.000670527 -0.000503066 8.92976e-05)
(-0.000747522 -0.000529448 0.000124022)
(-0.000814176 -0.000544234 0.000152518)
(-0.000865787 -0.000549462 0.00017289)
(-0.000909318 -0.000553053 0.000186566)
(-0.000939377 -0.000553764 0.000192865)
(-0.000960012 -0.000554952 0.000193284)
(-0.000975817 -0.000558664 0.000189352)
(-0.000989774 -0.00056577 0.000182116)
(-0.000999369 -0.000574302 0.000171665)
(-0.000999281 -0.000580127 0.000157763)
(-0.00101202 -0.000591986 0.000143411)
(-0.0010035 -0.000594986 0.000124665)
(-0.0010015 -0.000601518 0.000105095)
(-0.0010041 -0.000608893 8.46734e-05)
(-0.000998095 -0.000611859 6.25778e-05)
(-0.000996771 -0.00061547 3.88708e-05)
(-0.000994273 -0.00061756 1.32711e-05)
(-0.000163217 -1.93515e-05 4.1556e-05)
(-0.000197142 -6.73599e-05 -5.56399e-05)
(-0.000269883 -0.00015061 -5.78717e-05)
(-0.000343083 -0.000242271 -4.11767e-05)
(-0.00044103 -0.000337925 -9.56418e-06)
(-0.000546093 -0.000414298 2.98069e-05)
(-0.000646143 -0.000468292 6.95931e-05)
(-0.000732452 -0.00050001 0.000105976)
(-0.000808136 -0.000518396 0.000136907)
(-0.000863836 -0.000524188 0.00015941)
(-0.000911854 -0.000529146 0.000175573)
(-0.000946468 -0.000531618 0.000184487)
(-0.000970507 -0.000534134 0.000187165)
(-0.000988009 -0.000538344 0.00018497)
(-0.00100225 -0.000545269 0.000178997)
(-0.00101168 -0.000553646 0.000169564)
(-0.00101303 -0.000560599 0.0001567)
(-0.0010242 -0.000571786 0.000142658)
(-0.00101703 -0.000576195 0.000124535)
(-0.00101461 -0.000583199 0.000105142)
(-0.00101497 -0.000589572 8.46574e-05)
(-0.00100709 -0.000592292 6.26178e-05)
(-0.00100388 -0.000595214 3.88695e-05)
(-0.00100038 -0.00059707 1.32671e-05)
(-0.00015585 -7.31942e-06 4.86329e-05)
(-0.000176895 -4.63174e-05 -4.68368e-05)
(-0.000232062 -0.000108796 -5.34003e-05)
(-0.000296417 -0.000190655 -4.66325e-05)
(-0.000393631 -0.000287608 -2.46359e-05)
(-0.00050023 -0.000368106 9.95964e-06)
(-0.000609701 -0.000430021 4.85399e-05)
(-0.000705735 -0.000467453 8.58983e-05)
(-0.000789474 -0.000488553 0.000118951)
(-0.000856531 -0.000498284 0.000145036)
(-0.000912088 -0.000505125 0.000164396)
(-0.000950423 -0.000508557 0.000175932)
(-0.000976321 -0.000511622 0.000180869)
(-0.000995142 -0.000516202 0.00018057)
(-0.00100972 -0.000523057 0.00017604)
(-0.00101722 -0.000530486 0.000167453)
(-0.00101646 -0.000536692 0.000155136)
(-0.00102189 -0.000545209 0.000140917)
(-0.0010137 -0.000549607 0.000123255)
(-0.00100917 -0.000556244 0.000104042)
(-0.00100834 -0.000562494 8.38225e-05)
(-0.000999832 -0.000565912 6.21547e-05)
(-0.000995543 -0.000568779 3.8591e-05)
(-0.000992192 -0.00057115 1.31844e-05)
(-0.000166093 3.89216e-06 6.12462e-05)
(-0.000151978 -2.92307e-05 -3.70589e-05)
(-0.000197028 -7.46474e-05 -4.62609e-05)
(-0.000243411 -0.000140762 -4.68977e-05)
(-0.000329042 -0.000230254 -3.5895e-05)
(-0.000440894 -0.00031779 -8.92662e-06)
(-0.000556618 -0.000385764 2.64231e-05)
(-0.000663183 -0.000429914 6.37038e-05)
(-0.000758692 -0.000456404 9.89581e-05)
(-0.000831994 -0.000466761 0.000127829)
(-0.000892181 -0.000473468 0.000150059)
(-0.000934957 -0.00047756 0.000164603)
(-0.000964628 -0.000481606 0.000172287)
(-0.000985222 -0.000486759 0.000174136)
(-0.000999632 -0.000493422 0.000171186)
(-0.00100607 -0.000500804 0.00016384)
(-0.00100545 -0.000507988 0.000152631)
(-0.00100885 -0.000516514 0.000138931)
(-0.00100039 -0.000521425 0.000121883)
(-0.000993989 -0.00052811 0.000102904)
(-0.000990117 -0.000533352 8.2809e-05)
(-0.000978878 -0.000536392 6.14488e-05)
(-0.000972051 -0.000538491 3.81058e-05)
(-0.000967101 -0.000540375 1.30078e-05)
(-0.000173554 1.5898e-05 7.37016e-05)
(-0.000136456 -1.81727e-05 -3.01535e-05)
(-0.000150251 -4.40153e-05 -3.35625e-05)
(-0.000182302 -9.279e-05 -4.01286e-05)
(-0.000259994 -0.000175297 -4.22429e-05)
(-0.000366792 -0.00026264 -2.53772e-05)
(-0.000489658 -0.00033778 4.43827e-06)
(-0.000606597 -0.000388973 4.03e-05)
(-0.000711062 -0.000419708 7.68011e-05)
(-0.000797441 -0.000435241 0.000109366)
(-0.000867093 -0.000444185 0.000135547)
(-0.000914616 -0.000448684 0.000153437)
(-0.000946049 -0.000452426 0.000163745)
(-0.000967445 -0.000457413 0.000167711)
(-0.000981339 -0.000463854 0.000166432)
(-0.000984419 -0.000470371 0.000160115)
(-0.000979452 -0.000476548 0.000149426)
(-0.000976236 -0.000483065 0.000135707)
(-0.000965058 -0.000487322 0.000119123)
(-0.000955195 -0.000493247 0.000100402)
(-0.00094929 -0.000498028 8.0765e-05)
(-0.000936603 -0.000501402 6.00674e-05)
(-0.000928193 -0.000503351 3.7234e-05)
(-0.000922924 -0.000505446 1.27151e-05)
(-0.000165075 2.55528e-05 7.82874e-05)
(-0.000127852 -1.09089e-05 -2.52055e-05)
(-0.000118821 -2.58102e-05 -2.24145e-05)
(-0.000126217 -5.43555e-05 -2.87971e-05)
(-0.000176024 -0.00011578 -4.00485e-05)
(-0.000278365 -0.000202735 -3.72458e-05)
(-0.000405383 -0.000283437 -1.62421e-05)
(-0.00053338 -0.000342765 1.64578e-05)
(-0.000651172 -0.00038112 5.38728e-05)
(-0.000744287 -0.000399255 8.90795e-05)
(-0.000818022 -0.000408747 0.000118405)
(-0.000869245 -0.000413408 0.000139491)
(-0.000904437 -0.000417986 0.000152751)
(-0.000927261 -0.000423177 0.000159027)
(-0.000940089 -0.000429193 0.000159513)
(-0.000941121 -0.000435587 0.000154649)
(-0.000934957 -0.000442412 0.000145103)
(-0.000929078 -0.000449144 0.000131991)
(-0.000915633 -0.000453336 0.000115989)
(-0.00090222 -0.000458643 9.75474e-05)
(-0.000892516 -0.000462047 7.82532e-05)
(-0.000876104 -0.000464527 5.82016e-05)
(-0.000864426 -0.000465392 3.59834e-05)
(-0.000856858 -0.000466489 1.22614e-05)
(-0.000149781 3.07464e-05 7.51919e-05)
(-0.000121422 -6.30936e-06 -2.09431e-05)
(-9.01861e-05 -1.43677e-05 -1.14268e-05)
(-5.3002e-05 -1.78989e-05 -1.01e-05)
(-9.90479e-05 -6.57005e-05 -3.09296e-05)
(-0.000181934 -0.000140943 -4.24735e-05)
(-0.000309026 -0.000225031 -3.38389e-05)
(-0.000446623 -0.000292233 -6.19152e-06)
(-0.000572915 -0.000336425 3.09984e-05)
(-0.000678544 -0.000361711 6.8951e-05)
(-0.000761165 -0.000375529 0.000101864)
(-0.000817541 -0.000382156 0.0001263)
(-0.000853663 -0.000386676 0.00014201)
(-0.000876228 -0.000391412 0.000150306)
(-0.000887348 -0.000396833 0.00015252)
(-0.00088355 -0.000402023 0.000148737)
(-0.000870427 -0.000406938 0.000139458)
(-0.000856855 -0.00041142 0.000126272)
(-0.000838926 -0.000414258 0.00011074)
(-0.000820922 -0.000418109 9.26983e-05)
(-0.0008083 -0.000420264 7.41401e-05)
(-0.000789814 -0.000422278 5.52285e-05)
(-0.000776344 -0.00042262 3.40852e-05)
(-0.000768169 -0.000423444 1.1603e-05)
(-0.000138508 3.21363e-05 6.72901e-05)
(-0.000114888 -4.47967e-06 -1.74218e-05)
(-6.96244e-05 -8.73994e-06 -2.39108e-06)
(-3.27879e-05 -7.84683e-06 -5.17141e-07)
(-2.80526e-05 -2.33037e-05 -1.328e-05)
(-7.72546e-05 -7.29071e-05 -3.58203e-05)
(-0.000200355 -0.000159143 -4.54694e-05)
(-0.000347468 -0.000235984 -2.53048e-05)
(-0.000486113 -0.000290001 1.0952e-05)
(-0.000595735 -0.000319487 5.00993e-05)
(-0.000679472 -0.000335655 8.46364e-05)
(-0.00073611 -0.000343646 0.00011077)
(-0.000774493 -0.000349837 0.000128517)
(-0.000797296 -0.000354937 0.000138626)
(-0.000805976 -0.000359672 0.000142409)
(-0.000799129 -0.000364419 0.000140091)
(-0.000784021 -0.000369559 0.000131924)
(-0.000767632 -0.000373743 0.000119364)
(-0.000746245 -0.000375476 0.000104448)
(-0.000723762 -0.000377625 8.6845e-05)
(-0.000707339 -0.000377651 6.90228e-05)
(-0.000684844 -0.000377692 5.13253e-05)
(-0.000667665 -0.000376167 3.14921e-05)
(-0.000656788 -0.000375326 1.06626e-05)
(-0.00013012 2.9441e-05 5.46543e-05)
(-0.000126666 -4.09097e-06 -1.63536e-05)
(-5.94249e-05 -5.2761e-06 4.79022e-06)
(-1.23182e-05 4.95859e-07 8.61416e-06)
(1.16865e-05 -1.13616e-06 -2.27081e-06)
(-2.48802e-06 -1.77327e-05 -1.7903e-05)
(-9.31568e-05 -8.78182e-05 -4.60186e-05)
(-0.000241979 -0.000173755 -3.70114e-05)
(-0.000383545 -0.000235627 -3.09428e-06)
(-0.000501241 -0.000274409 3.54165e-05)
(-0.000589572 -0.000296712 7.02306e-05)
(-0.000649811 -0.000308948 9.72575e-05)
(-0.000686908 -0.000315947 0.000115645)
(-0.000707688 -0.000320842 0.0001267)
(-0.000713458 -0.000324865 0.000131761)
(-0.000700712 -0.000327842 0.000130298)
(-0.000676357 -0.000329614 0.000121863)
(-0.000651522 -0.000330188 0.000108985)
(-0.000624806 -0.000329256 9.45906e-05)
(-0.000597785 -0.000328889 7.77524e-05)
(-0.000577882 -0.000326219 6.11563e-05)
(-0.000553585 -0.000324611 4.54176e-05)
(-0.000535565 -0.000322249 2.77375e-05)
(-0.000524493 -0.000320768 9.34591e-06)
(-0.000119132 2.75858e-05 4.15494e-05)
(-0.000118492 -1.93001e-06 -1.40734e-05)
(-5.14779e-05 1.25348e-06 8.54496e-06)
(1.8228e-06 8.20401e-06 7.87223e-06)
(3.356e-05 1.04678e-05 3.14373e-07)
(2.81864e-05 8.73033e-06 -6.67102e-06)
(-1.54791e-05 -2.11029e-05 -2.6622e-05)
(-0.000141044 -0.000107438 -3.44645e-05)
(-0.00028195 -0.000180891 -6.39832e-06)
(-0.000393586 -0.000224547 2.73757e-05)
(-0.000477027 -0.000250625 5.81329e-05)
(-0.000531839 -0.000264438 8.20666e-05)
(-0.000568688 -0.000273734 9.94288e-05)
(-0.000587959 -0.000279092 0.000110448)
(-0.00058977 -0.000281883 0.000116038)
(-0.00057328 -0.000283615 0.000115548)
(-0.000547783 -0.000285197 0.000108138)
(-0.000521613 -0.000284794 9.60041e-05)
(-0.000492437 -0.000281899 8.25114e-05)
(-0.000461923 -0.000278722 6.6629e-05)
(-0.000440124 -0.00027342 5.15843e-05)
(-0.000413064 -0.000268729 3.7967e-05)
(-0.000391396 -0.000263139 2.28074e-05)
(-0.000377982 -0.000259239 7.56048e-06)
(-9.96029e-05 2.49909e-05 3.02672e-05)
(-9.40261e-05 7.5039e-07 -1.10766e-05)
(-4.99769e-05 5.10557e-06 6.87287e-06)
(1.91301e-05 5.92144e-06 2.50461e-06)
(3.63867e-05 9.13256e-06 8.27552e-06)
(2.92649e-05 1.40505e-05 1.0809e-05)
(7.4653e-06 3.17258e-06 -1.28399e-06)
(-5.61904e-05 -4.4792e-05 -9.33594e-06)
(-0.00017175 -0.000119709 5.24683e-06)
(-0.000278475 -0.000172566 2.85948e-05)
(-0.000358981 -0.000205042 5.11682e-05)
(-0.000415719 -0.000224679 7.01144e-05)
(-0.000448684 -0.000234589 8.40188e-05)
(-0.000464649 -0.000239459 9.35542e-05)
(-0.000463508 -0.000241171 9.91609e-05)
(-0.000441429 -0.000240234 9.87204e-05)
(-0.000405716 -0.000236133 9.00477e-05)
(-0.000371384 -0.000229672 7.71727e-05)
(-0.000338038 -0.000222285 6.43914e-05)
(-0.000305353 -0.000215284 5.01738e-05)
(-0.00028066 -0.000205411 3.73302e-05)
(-0.000253809 -0.000197959 2.69339e-05)
(-0.000235268 -0.000192207 1.59221e-05)
(-0.000223551 -0.000187866 5.14714e-06)
(-7.54556e-05 1.95345e-05 2.05887e-05)
(-8.50242e-05 2.70679e-06 -9.49218e-06)
(-3.6289e-05 1.38037e-06 6.8242e-06)
(2.19357e-05 5.93412e-06 1.17315e-05)
(3.89531e-05 9.73262e-06 2.56501e-05)
(3.38998e-05 8.37736e-06 2.74901e-05)
(2.04448e-05 2.26946e-06 2.70969e-05)
(-5.61794e-06 -1.31116e-05 1.73498e-05)
(-7.86224e-05 -7.26778e-05 2.9752e-05)
(-0.000157668 -0.000119407 3.7111e-05)
(-0.000224414 -0.000152042 4.63052e-05)
(-0.000269137 -0.000169905 5.4705e-05)
(-0.000300972 -0.000181745 6.3126e-05)
(-0.000314906 -0.000186414 6.95682e-05)
(-0.000309147 -0.000185296 7.34342e-05)
(-0.000284064 -0.000181377 7.2533e-05)
(-0.000252008 -0.000177102 6.51083e-05)
(-0.000221958 -0.000169885 5.38137e-05)
(-0.000191163 -0.000160414 4.27497e-05)
(-0.000159618 -0.000150043 3.08249e-05)
(-0.000138946 -0.000138482 2.14041e-05)
(-0.000113265 -0.000127308 1.4184e-05)
(-9.15068e-05 -0.000115232 7.39653e-06)
(-7.925e-05 -0.000107142 2.10673e-06)
(-4.78223e-05 1.38462e-05 1.12696e-05)
(-7.68159e-05 4.80287e-06 -9.42891e-06)
(-3.51198e-05 5.93364e-06 6.73979e-06)
(6.52927e-06 1.32973e-05 1.6137e-05)
(2.60554e-05 1.56705e-05 2.38931e-05)
(3.70043e-05 1.14118e-05 2.92731e-05)
(4.8669e-05 4.02085e-06 4.39365e-05)
(2.89821e-05 -7.18648e-06 3.68007e-05)
(5.16372e-06 -1.96469e-05 2.87959e-05)
(-3.80014e-05 -6.36262e-05 4.15849e-05)
(-9.49266e-05 -9.9719e-05 4.23912e-05)
(-0.000143999 -0.000124219 4.25578e-05)
(-0.00017073 -0.000133947 4.29311e-05)
(-0.000182 -0.000136766 4.4963e-05)
(-0.000176665 -0.000134291 4.70097e-05)
(-0.000149889 -0.000126502 4.46431e-05)
(-0.000109619 -0.000111698 3.42167e-05)
(-7.49449e-05 -9.27713e-05 2.18926e-05)
(-4.64525e-05 -7.45778e-05 1.21084e-05)
(-2.18328e-05 -5.74763e-05 4.08593e-06)
(-7.31212e-06 -3.22058e-05 2.19599e-07)
(2.11614e-06 -1.85151e-05 -1.45909e-06)
(7.37177e-06 -1.47033e-05 -1.94337e-06)
(1.16271e-05 -1.37187e-05 -1.1136e-06)
(-2.50299e-05 1.18135e-05 7.74408e-06)
(-6.32225e-05 6.83296e-06 -1.42483e-05)
(-4.67363e-05 1.2815e-05 -4.39442e-06)
(-1.86176e-05 2.7965e-05 6.05114e-06)
(1.09378e-05 4.09891e-05 9.16792e-06)
(3.7908e-05 3.48417e-05 1.1651e-05)
(4.10963e-05 1.56955e-05 1.69848e-05)
(4.59903e-05 6.47761e-06 2.65752e-05)
(4.04275e-05 -2.13193e-06 3.11068e-05)
(3.47472e-05 -1.60218e-05 3.52164e-05)
(1.13923e-05 -3.20652e-05 2.53355e-05)
(-1.2242e-05 -4.52063e-05 1.64979e-05)
(-2.74159e-05 -4.76098e-05 1.04251e-05)
(-3.87541e-05 -5.42276e-05 9.44932e-06)
(-3.03513e-05 -4.3156e-05 6.98929e-06)
(-1.16712e-05 -2.51892e-05 2.52221e-06)
(9.09224e-07 -2.74739e-05 -3.33171e-06)
(1.25822e-05 -1.72756e-05 -1.01801e-05)
(1.54963e-05 -5.93376e-06 -1.1353e-05)
(2.07373e-05 1.10553e-06 -1.37758e-05)
(2.23067e-05 4.85613e-06 -1.33232e-05)
(2.47513e-05 9.74973e-06 -1.23035e-05)
(3.81519e-05 1.90878e-05 -1.25332e-05)
(2.62468e-05 1.42884e-05 -3.10404e-06)
(8.73085e-06 6.8503e-06 1.21777e-05)
(-2.84717e-05 6.49389e-06 -1.57701e-05)
(-4.29884e-05 1.14249e-05 -1.84932e-05)
(-3.73204e-05 2.24236e-05 -1.65502e-05)
(-1.6421e-05 4.2666e-05 -2.09207e-05)
(2.12735e-05 5.2898e-05 -2.49331e-05)
(5.18354e-05 4.3201e-05 -1.95003e-05)
(5.42233e-05 2.15485e-05 1.41836e-08)
(4.20777e-05 1.15527e-05 1.34902e-05)
(4.40963e-05 9.48513e-06 1.88397e-05)
(4.04519e-05 4.42217e-06 1.44709e-05)
(3.88386e-05 -2.14077e-06 6.68254e-06)
(2.79267e-05 -8.60914e-06 -4.92613e-06)
(2.04767e-05 -1.10698e-05 -1.3966e-05)
(1.46113e-05 -6.25138e-06 -1.46145e-05)
(2.60123e-05 -2.23745e-07 -2.51199e-05)
(2.77343e-05 8.12044e-06 -2.47654e-05)
(2.66968e-05 1.16617e-05 -2.21023e-05)
(2.79739e-05 1.41162e-05 -2.16665e-05)
(3.27283e-05 1.78719e-05 -2.25883e-05)
(4.42528e-05 2.46211e-05 -2.66075e-05)
(4.38474e-05 2.35977e-05 -2.10944e-05)
(4.52904e-05 2.3705e-05 -1.44284e-05)
(2.9049e-05 1.47324e-05 -3.30848e-06)
(2.50048e-05 7.6684e-06 2.49808e-05)
(1.30713e-05 9.13093e-06 -8.55694e-06)
(-1.16781e-05 9.93569e-06 -1.98161e-05)
(-2.53873e-05 1.45017e-05 -2.46042e-05)
(-2.56497e-05 2.77678e-05 -3.55819e-05)
(-5.99493e-07 3.74969e-05 -4.28835e-05)
(3.31504e-05 3.61382e-05 -4.17566e-05)
(5.5987e-05 2.6029e-05 -2.76462e-05)
(6.25489e-05 1.67655e-05 -2.74037e-06)
(6.41687e-05 1.58392e-05 1.1789e-05)
(6.48448e-05 1.61585e-05 1.13137e-05)
(4.58082e-05 1.14451e-05 2.53407e-06)
(5.34638e-05 1.40095e-05 -7.3483e-06)
(3.68783e-05 1.13182e-05 -1.45162e-05)
(2.85566e-05 1.06566e-05 -1.82262e-05)
(2.85513e-05 1.21095e-05 -2.11797e-05)
(3.89322e-05 1.66806e-05 -2.82516e-05)
(2.98021e-05 1.15414e-05 -2.09266e-05)
(3.6522e-05 1.19449e-05 -2.53929e-05)
(4.75082e-05 1.29216e-05 -3.12105e-05)
(5.16227e-05 1.04583e-05 -3.02579e-05)
(5.65933e-05 7.90289e-06 -2.71669e-05)
(5.92581e-05 5.84619e-06 -1.92992e-05)
(5.99345e-05 4.04567e-06 -7.04011e-06)
(2.09996e-05 9.343e-06 2.68183e-05)
(2.67902e-05 1.61343e-05 -1.573e-06)
(1.52639e-05 1.80689e-05 -1.38624e-05)
(-4.51175e-06 1.88823e-05 -2.50538e-05)
(-1.38092e-05 2.26837e-05 -3.42838e-05)
(-6.35764e-06 2.69643e-05 -4.25272e-05)
(1.35837e-05 2.44493e-05 -4.52031e-05)
(3.57722e-05 1.21615e-05 -3.38601e-05)
(5.5904e-05 1.97522e-06 -1.26489e-05)
(7.86073e-05 1.54746e-06 4.06555e-06)
(0.000101675 9.05895e-06 6.6259e-06)
(0.000102451 1.32815e-05 -3.53379e-06)
(8.41428e-05 1.23246e-05 -1.49151e-05)
(6.32656e-05 1.03541e-05 -2.22725e-05)
(5.05085e-05 8.08909e-06 -2.65401e-05)
(5.15836e-05 6.34932e-06 -3.25824e-05)
(5.77005e-05 3.51364e-06 -3.86865e-05)
(6.50457e-05 -1.27724e-06 -4.45307e-05)
(6.87502e-05 -5.5023e-06 -4.72776e-05)
(6.82457e-05 -9.59264e-06 -4.47235e-05)
(6.93113e-05 -1.31707e-05 -3.96833e-05)
(6.97883e-05 -1.59121e-05 -3.25573e-05)
(6.84934e-05 -1.73424e-05 -2.16292e-05)
(6.84498e-05 -1.81838e-05 -7.73132e-06)
(1.78508e-05 3.52199e-06 1.65035e-05)
(2.16569e-05 8.19426e-06 1.091e-06)
(1.58823e-05 1.53268e-05 -4.5668e-06)
(6.11304e-06 1.87633e-05 -1.36651e-05)
(-3.3605e-06 2.02872e-05 -2.4403e-05)
(-4.92907e-06 1.87607e-05 -3.41623e-05)
(3.89158e-06 1.12037e-05 -3.89641e-05)
(2.01556e-05 -2.62834e-06 -3.25439e-05)
(4.21691e-05 -1.37937e-05 -1.59334e-05)
(6.70376e-05 -1.41926e-05 -1.69396e-06)
(9.49651e-05 -5.13215e-06 3.47166e-08)
(0.000108478 1.45964e-06 -1.02044e-05)
(0.000102732 -2.68471e-07 -2.31043e-05)
(9.07182e-05 -4.78246e-06 -3.3412e-05)
(8.1046e-05 -9.76477e-06 -4.06011e-05)
(7.62397e-05 -1.44155e-05 -4.50027e-05)
(7.45377e-05 -1.84218e-05 -4.71198e-05)
(7.56186e-05 -2.12038e-05 -4.85698e-05)
(7.53784e-05 -2.32449e-05 -4.91126e-05)
(7.36984e-05 -2.63778e-05 -4.61024e-05)
(7.46232e-05 -2.70135e-05 -4.07586e-05)
(7.41627e-05 -2.70209e-05 -3.34517e-05)
(7.1755e-05 -2.62574e-05 -2.21171e-05)
(6.98756e-05 -2.5104e-05 -7.73516e-06)
(1.58143e-05 -3.79853e-06 2.21591e-06)
(1.74114e-05 -5.8685e-06 1.89061e-07)
(1.29104e-05 -8.55256e-07 5.00225e-07)
(3.95464e-06 5.4712e-06 -6.35544e-06)
(-3.86141e-06 8.0846e-06 -1.68102e-05)
(-7.56945e-06 5.17953e-06 -2.75242e-05)
(-4.63308e-06 -3.88876e-06 -3.34687e-05)
(6.01307e-06 -1.60557e-05 -2.99151e-05)
(2.12128e-05 -2.15431e-05 -1.71728e-05)
(3.72586e-05 -1.72688e-05 -5.58841e-06)
(6.4789e-05 -9.75817e-06 -4.04904e-06)
(8.66977e-05 -2.88052e-06 -1.20666e-05)
(9.4846e-05 -5.41529e-06 -2.4606e-05)
(9.24374e-05 -1.30906e-05 -3.50643e-05)
(8.60036e-05 -1.97441e-05 -4.15338e-05)
(8.12533e-05 -2.43374e-05 -4.56589e-05)
(7.83142e-05 -2.67482e-05 -4.75989e-05)
(7.65726e-05 -2.60744e-05 -4.8096e-05)
(7.43189e-05 -2.5618e-05 -4.77357e-05)
(7.16991e-05 -2.69413e-05 -4.37964e-05)
(6.90561e-05 -2.46851e-05 -3.72168e-05)
(6.44119e-05 -2.23405e-05 -2.9033e-05)
(5.91043e-05 -2.04828e-05 -1.84109e-05)
(5.54665e-05 -1.91203e-05 -6.27042e-06)
(1.2897e-05 -8.72062e-06 -8.39015e-06)
(1.55067e-05 -1.31527e-05 -1.66757e-06)
(1.32935e-05 -1.40443e-05 6.87093e-07)
(7.49293e-06 -1.31269e-05 -2.72887e-06)
(7.64068e-07 -1.25435e-05 -1.07323e-05)
(-3.33959e-06 -1.53352e-05 -2.01979e-05)
(-2.38263e-06 -2.19358e-05 -2.65057e-05)
(3.69266e-06 -2.74283e-05 -2.39435e-05)
(1.07021e-05 -2.32058e-05 -1.28794e-05)
(2.32858e-05 -2.09476e-05 -7.60462e-06)
(3.3923e-05 -1.38624e-05 -5.40355e-06)
(3.94567e-05 -7.57092e-06 -6.64462e-06)
(5.12365e-05 -6.17139e-06 -1.35075e-05)
(7.04683e-05 -1.14476e-05 -2.69642e-05)
(7.47469e-05 -1.73422e-05 -3.61561e-05)
(7.27057e-05 -2.12215e-05 -4.07609e-05)
(6.82363e-05 -2.24969e-05 -4.14858e-05)
(6.31993e-05 -2.11713e-05 -4.01729e-05)
(5.94303e-05 -2.03617e-05 -3.86221e-05)
(5.81298e-05 -2.0971e-05 -3.56685e-05)
(5.61783e-05 -1.94692e-05 -3.09313e-05)
(5.33949e-05 -1.84468e-05 -2.48597e-05)
(5.03538e-05 -1.7751e-05 -1.62677e-05)
(4.87067e-05 -1.74271e-05 -5.70815e-06)
(1.13319e-05 -1.07088e-05 -9.99432e-06)
(1.78092e-05 -1.50699e-05 -9.51988e-07)
(1.7125e-05 -1.67346e-05 -4.11831e-07)
(1.55796e-05 -1.94074e-05 -2.0552e-06)
(1.2867e-05 -2.17833e-05 -5.66945e-06)
(1.049e-05 -2.35838e-05 -9.74977e-06)
(1.01404e-05 -2.39692e-05 -1.15633e-05)
(1.37685e-05 -2.56795e-05 -1.14642e-05)
(2.15214e-05 -2.59422e-05 -9.89605e-06)
(2.94807e-05 -2.13697e-05 -8.55211e-06)
(4.65375e-05 -2.2228e-05 -1.06717e-05)
(5.68865e-05 -2.07417e-05 -1.2435e-05)
(5.70279e-05 -1.62634e-05 -1.5654e-05)