/*--------------------------------*- C++ -*----------------------------------*\
  =========                 |
  \\      /  F ield         | OpenFOAM: The Open Source CFD Toolbox
   \\    /   O peration     | Website:  https://openfoam.org
    \\  /    A nd           | Version:  6
     \\/     M anipulation  |
\*---------------------------------------------------------------------------*/
FoamFile
{
    version     2.0;
    format      ascii;
    class       volScalarField;
    location    "29";
    object      yPlus;
}
// * * * * * * * * * * * * * * * * * * * * * * * * * * * * * * * * * * * * * //

dimensions      [0 0 0 0 0 0 0];

internalField   uniform 0;

boundaryField
{
    inlet
    {
        type            calculated;
        value           uniform 0;
    }
    outlet
    {
        type            calculated;
        value           uniform 0;
    }
    roughCylinder
    {
        type            calculated;
        value           nonuniform List<scalar> 
3840
(
9.19218
29.082
40.3037
43.2477
45.7859
45.9089
46.333
45.9862
46.5036
46.7175
46.9366
46.7697
46.2423
45.3876
45.3831
45.1228
44.0853
43.9661
43.7342
42.715
42.3438
41.7156
41.5722
41.1422
17.9669
28.6336
39.7953
42.9753
45.5738
45.7607
46.1986
45.9544
46.3959
46.5947
46.876
46.6701
46.1883
45.5011
45.5785
45.3981
44.3542
44.5951
44.1091
43.2076
42.9145
42.2971
42.1621
41.7373
8.90369
28.0088
39.3648
42.7102
45.3422
45.7327
46.3386
46.1302
46.6222
46.7742
46.9446
46.721
46.2869
45.8234
45.9705
45.8466
44.7653
45.1996
44.3656
43.5129
43.3001
42.7349
42.6413
42.2689
14.5002
27.2981
38.7976
42.4019
45.1695
45.6994
46.287
46.2026
46.5969
46.6696
46.9034
46.6963
46.3542
46.0165
46.1736
46.1061
45.0777
45.8059
44.8313
44.1086
43.9562
43.3855
43.2901
42.9222
2.32117
26.6544
38.251
42.1381
44.9537
45.6759
46.4981
46.4385
46.8807
46.963
47.0931
46.8849
46.6003
46.3985
46.5656
46.5249
45.5238
46.3216
45.1636
44.4999
44.421
43.9039
43.8414
43.5307
12.7921
25.7532
37.5717
41.7589
44.7671
45.7277
46.4999
46.5843
46.9533
46.9119
47.1085
46.9693
46.7682
46.6166
46.756
46.7625
45.897
46.8474
45.7168
45.1772
45.1292
44.6004
44.5255
44.219
15.6375
24.7586
36.7976
41.4054
44.5398
45.6534
46.7188
46.8441
47.2544
47.2999
47.4423
47.3052
47.1263
47.0291
47.1599
47.1789
46.3899
47.2613
46.1069
45.6196
45.6333
45.1688
45.1206
44.8773
11.7382
23.648
35.8867
40.8391
44.2208
45.6981
46.7104
46.9934
47.3928
47.3017
47.509
47.4677
47.3478
47.2568
47.3595
47.4256
46.8196
47.7267
46.724
46.3519
46.3652
45.8903
45.8208
45.5815
11.2864
22.3658
34.6911
40.215
43.8874
45.4879
46.8432
47.2111
47.6497
47.7357
47.955
47.909
47.7793
47.7059
47.8096
47.8734
47.3433
48.0711
47.1411
46.813
46.877
46.4781
46.4313
46.26
12.0617
20.8257
33.3688
39.2763
43.251
45.3816
46.734
47.2773
47.7933
47.7575
48.0258
48.0751
48.0022
47.9393
48.0347
48.1405
47.7954
48.5112
47.7796
47.5569
47.596
47.1903
47.1154
46.946
12.7047
19.1863
31.5008
38.1192
42.6575
44.932
46.6827
47.3749
47.9327
48.16
48.5136
48.5587
48.4667
48.419
48.5322
48.613
48.3045
48.8065
48.1706
47.9832
48.0685
47.7484
47.6977
47.5999
14.0906
17.2829
29.5786
36.5525
41.44
44.4826
46.3575
47.2756
48.0126
48.1416
48.5146
48.6456
48.6343
48.6276
48.7527
48.8676
48.7252
49.2297
48.7782
48.6817
48.7278
48.4018
48.3178
48.215
14.4168
15.2662
26.6483
34.4425
40.3249
43.6229
46.0047
47.1685
47.9611
48.418
48.9504
49.1061
49.0883
49.1069
49.2591
49.3236
49.161
49.455
49.0719
48.996
49.0885
48.8552
48.8025
48.7734
17.4142
12.9548
23.9892
31.8565
38.0306
42.5028
45.2667
46.7957
47.9142
48.2969
48.7909
49.0139
49.1165
49.2129
49.3878
49.4871
49.4773
49.8199
49.579
49.5774
49.6349
49.3995
49.3114
49.2672
21.0122
11.8052
19.1804
27.8326
35.811
40.8247
44.3552
46.3171
47.566
48.3701
49.1137
49.4076
49.4976
49.6179
49.8194
49.8561
49.7799
49.9398
49.7256
49.7349
49.8394
49.7063
49.6607
49.6946
22.8364
9.52929
16.252
23.7028
31.0718
38.1552
42.7304
45.4196
47.2539
48.0641
48.7476
49.0737
49.326
49.548
49.7779
49.8688
49.9615
50.2197
50.1088
50.1692
50.2325
50.093
50.0008
49.9962
23.108
11.2744
13.347
12.1006
25.9625
34.4087
40.4948
44.1368
46.3308
47.7752
48.847
49.3584
49.6109
49.846
50.0912
50.1011
50.0439
50.1101
49.9847
50.0478
50.1341
50.1161
50.0841
50.1623
22.8098
1.66411
5.94405
12.0271
16.0774
25.492
36.3355
42.015
45.4261
47.0204
48.0937
48.6065
49.0755
49.43
49.6877
49.7772
49.9492
50.1754
50.1234
50.2142
50.242
50.206
50.0779
50.0673
21.7945
14.0696
7.01257
4.06461
1.48468
12.6121
28.8049
38.565
43.2249
46.0129
47.6945
48.6339
49.1251
49.4762
49.7443
49.7342
49.6056
49.5297
49.3638
49.4293
49.3455
49.4359
49.4177
49.5061
20.4727
13.9676
9.07099
7.56502
6.8099
4.8825
15.5637
32.9176
40.9403
44.2003
46.0699
46.9201
47.7219
48.2059
48.4234
48.4904
48.735
48.9191
48.8295
48.8954
48.7056
48.7313
48.4093
48.2646
18.7877
9.88233
12.7837
6.67048
9.21959
8.96861
15.7532
22.5847
35.6544
41.5521
44.485
46.3119
47.1285
47.5777
47.8161
47.7387
47.2916
46.7231
46.2048
46.1066
45.2513
45.2927
45.3361
45.3562
16.3111
9.00846
10.2173
8.32598
14.5974
7.35439
8.90771
7.90351
31.224
37.0831
40.4173
41.7517
43.2203
43.8513
43.7613
43.5649
43.9044
43.8987
43.5325
43.3364
42.2705
41.9518
40.0545
38.8761
12.1244
1.179
7.27343
4.72065
13.0952
2.90683
14.478
2.49988
11.1317
26.4333
34.3451
39.4487
40.7819
41.2734
41.3456
40.8076
38.3045
34.2418
30.5162
27.4292
16.3725
5.10054
12.0486
14.5904
9.3599
7.59758
9.09513
16.3435
21.3458
19.6402
11.9757
9.09747
10.2417
16.6393
18.1509
20.0277
19.2115
22.4025
18.2985
9.15138
18.486
17.3302
1.99213
9.83828
2.85215
4.49305
18.6203
9.5433
11.3363
8.98395
2.93696
14.2994
23.6003
27.9092
27.0474
18.4752
9.64474
6.69133
7.19452
15.4562
17.4741
18.1246
12.1577
16.8734
13.3936
6.47635
11.286
13.4843
20.0464
19.4862
20.1452
9.40457
4.51527
11.1872
10.7941
13.094
20.5419
26.0279
27.8943
28.3078
24.8938
20.1299
17.6514
12.1197
18.0522
14.0525
7.9586
1.16353
16.5653
10.104
14.4595
20.0015
22.6339
24.9772
26.4647
26.8727
10.5873
18.0222
19.9553
20.5662
23.1399
26.3414
28.4884
28.6143
28.2099
28.0482
29.1967
28.6117
26.1026
22.2363
19.6477
21.4292
24.494
27.8107
29.0322
28.8854
29.1789
28.7416
28.0792
27.9903
9.64041
18.4837
22.878
25.2463
26.6588
28.1387
29.4013
30.0115
28.8439
26.1438
27.0666
28.6396
29.2878
29.8019
30.0503
29.8329
29.2877
29.0605
28.627
28.5308
28.8238
28.4943
27.8539
27.2197
5.96071
14.5336
20.3901
24.4455
26.6652
27.8058
28.096
26.6941
21.5523
16.7533
20.2027
24.3714
27.2437
28.8587
29.1019
28.9896
28.6978
28.1485
27.4158
26.8171
25.8762
24.1305
22.4612
21.2848
2.50234
9.80698
15.3928
19.9438
22.6152
23.5088
22.49
18.3762
10.2728
8.8997
0.542927
9.47523
14.9828
22.6071
25.4885
25.7821
24.6829
23.0969
21.908
21.663
21.3126
20.6232
19.9882
19.6941
2.29045
8.74674
12.5524
15.0441
16.45
15.527
12.7677
11.1461
10.7258
9.93934
16.9458
20.4996
20.1395
19.2843
20.5201
21.5351
21.8925
22.0192
22.1266
22.1902
21.913
21.3155
20.6604
20.2194
4.40494
12.004
14.8016
16.2872
16.0968
13.0911
11.5507
7.29537
9.76262
14.4341
13.6397
13.006
18.8458
22.0448
22.8809
22.9089
22.4368
21.6624
21.0243
20.6467
20.1149
19.501
18.9517
18.6115
4.80499
12.6149
16.1276
18.4878
19.5131
19.317
17.1766
15.4661
15.8515
15.1854
16.454
17.5671
15.9767
17.5134
19.492
20.2349
20.1836
19.8916
19.7997
19.8647
19.7397
19.5034
19.2244
19.0186
3.65282
11.5823
15.115
17.747
19.0481
18.9298
17.4533
16.0906
15.4752
16.2908
16.5381
17.7532
19.9855
20.4477
20.5641
20.645
20.5393
20.3214
20.1977
20.1447
19.9418
19.7086
19.447
19.2426
3.52745
10.6
13.7391
16.2635
17.4712
16.9429
15.6491
14.9605
16.3299
17.46
18.5003
18.5609
18.4444
19.5538
20.4443
20.7881
20.7682
20.6274
20.5832
20.6319
20.5309
20.3592
20.1333
19.9426
3.95091
10.8814
13.121
14.6371
14.8108
14.5396
14.6707
16.7106
18.2157
18.9813
19.3173
20.2721
21.1815
21.4082
21.5663
21.6512
21.6037
21.477
21.4274
21.4388
21.301
21.1132
20.8848
20.6908
3.99998
11.4747
12.2859
12.1666
11.9447
13.1199
15.9256
18.0298
19.3493
20.2279
21.0684
21.3218
21.5631
22.1193
22.5149
22.6632
22.6273
22.5291
22.4996
22.5293
22.4255
22.2526
22.026
21.8296
2.17907
10.4834
11.8066
12.38
14.0014
16.229
18.0871
19.4715
20.7134
21.8314
22.5308
23.22
23.6819
23.8703
24.0097
24.0819
24.0654
24.0035
23.9817
23.9955
23.8847
23.7014
23.4626
23.2598
0.784406
9.83876
11.5082
12.504
14.318
16.6106
18.9262
21.0026
22.6087
23.669
24.4356
24.8229
25.1301
25.4547
25.6788
25.7859
25.7996
25.7696
25.7624
25.7779
25.6813
25.4967
25.2458
25.037
0.861821
10.4272
11.4997
13.16
15.8645
18.7484
21.188
23.0088
24.3691
25.4484
26.2202
26.8288
27.2174
27.4493
27.628
27.7526
27.8154
27.8348
27.853
27.873
27.7881
27.6004
27.3375
27.1239
2.24209
2.15612
2.89784
3.51657
4.12385
4.54143
4.96474
5.67598
6.2043
6.5433
6.79305
6.99332
7.16611
7.33023
7.50341
7.70084
7.94201
8.23407
8.52112
8.83729
9.43908
10.3097
11.0974
11.2365
11.4699
11.5357
11.5986
11.7326
11.6416
11.4549
11.3344
10.7998
9.24096
7.03272
4.90703
3.37736
2.24099
1.77792
1.45807
1.48447
7.21249
6.99903
8.74448
10.3222
11.376
11.5087
11.8631
12.6689
13.2493
13.7225
14.1435
14.5126
14.8427
15.1409
15.4136
15.6628
15.9006
16.1491
16.4295
16.7072
16.9782
17.22
17.4255
17.5811
17.7086
17.8029
17.8636
17.8683
17.819
17.6784
17.4392
17.0761
16.5235
15.6931
14.564
13.3576
11.4338
11.6223
11.4452
11.3043
9.4337
9.47781
10.8975
11.6265
12.6549
13.6871
14.508
15.3309
15.9978
16.5762
17.093
17.5524
17.9634
18.3313
18.661
18.9545
19.2223
19.4807
19.7506
20.0067
20.245
20.4641
20.6467
20.7787
20.8721
20.9263
20.9387
20.9032
20.8199
20.6684
20.4424
20.108
19.6651
19.051
18.2457
17.2463
15.8731
14.5459
13.1755
12.599
11.1082
11.397
11.6613
13.4741
14.8365
16.0654
17.0766
17.9606
18.7111
19.3712
19.9596
20.4872
20.9596
21.3804
21.753
22.0796
22.3685
22.6279
22.8614
23.0666
23.252
23.4264
23.5712
23.6744
23.7232
23.721
23.6716
23.5798
23.4403
23.245
22.9785
22.6338
22.187
21.6262
20.9164
20.0529
18.956
17.7095
16.133
15.0204
11.5727
12.1188
14.2193
15.9578
17.3667
18.5924
19.6066
20.4919
21.2679
21.9625
22.5886
23.1543
23.663
24.116
24.5143
24.8587
25.1556
25.4167
25.6468
25.8445
26.0116
26.1366
26.2205
26.2688
26.2706
26.2177
26.1145
25.9678
25.7743
25.5369
25.2394
24.8854
24.4358
23.9102
23.2439
22.479
21.5115
20.4583
19.049
17.8991
12.8917
15.1086
17.0355
18.5689
19.8901
21.0071
21.9791
22.8439
23.6223
24.3303
24.9758
25.5631
26.0929
26.5637
26.9729
27.3204
27.6079
27.8593
28.0827
28.2767
28.4447
28.5586
28.6063
28.5923
28.5336
28.4276
28.2726
28.0716
27.8291
27.547
27.2155
26.8438
26.3916
25.8896
25.2527
24.5705
23.6813
22.7872
21.5674
20.5128
16.2677
18.141
19.7322
21.0662
22.2293
23.2507
24.1723
25.0109
25.7813
26.4911
27.144
27.7405
28.2783
28.7521
29.1519
29.4771
29.7162
29.9261
30.1343
30.3433
30.5513
30.6759
30.7076
30.6589
30.5435
30.3807
30.1751
29.9258
29.6375
29.3133
28.9493
28.5524
28.0905
27.5986
26.9776
26.3464
25.515
24.7065
23.6636
22.648
19.4155
20.8525
22.1894
23.3197
24.361
25.3026
26.1769
26.9876
27.7436
28.4466
29.0966
29.6906
30.2234
30.6835
31.0381
31.2507
31.4565
31.6649
31.8712
32.0757
32.2782
32.4914
32.5266
32.4535
32.3023
32.0895
31.8341
31.5417
31.2136
30.8534
30.4589
30.0394
29.5644
29.0714
28.4651
27.8499
27.0715
26.2907
25.3658
24.4106
22.0667
23.1942
24.3323
25.3205
26.2698
27.1482
27.9812
28.7649
29.5031
30.1934
30.8321
31.4135
31.9295
32.3647
32.655
32.843
33.0437
33.2484
33.4487
33.645
33.8466
34.0863
34.1041
33.9995
33.8123
33.5629
33.2638
32.9298
32.5665
32.1759
31.755
31.314
30.8275
30.3244
29.7312
29.1142
28.3699
27.6079
26.7141
25.8678
24.2361
25.159
26.1706
27.0646
27.9482
28.7806
29.5812
30.3419
31.0626
31.737
32.3585
32.9186
33.4086
33.82
34.1326
34.3128
34.5003
34.6939
34.8868
35.0749
35.2977
35.4668
35.4473
35.3114
35.0924
34.8112
34.4814
34.1124
33.7155
33.2978
32.8537
32.3913
31.8913
31.3738
30.7805
30.1568
29.4155
28.674
27.7627
26.9916
25.979
26.7853
27.7204
28.5581
29.4015
30.2059
30.986
31.7313
32.4381
33.0976
33.6991
34.2306
34.6827
35.0601
35.3979
35.6702
35.8474
36.0256
36.2081
36.4114
36.5803
36.6373
36.581
36.4219
36.1799
35.8736
35.5179
35.1243
34.699
34.2525
33.786
33.3017
32.7835
32.2454
31.6342
30.9928
30.2299
29.4928
28.5451
27.8151
27.3664
28.1072
29.0058
29.8178
30.6451
31.4396
32.2136
32.9544
33.6558
34.3062
34.8913
35.3946
35.8047
36.1377
36.4416
36.7241
36.9753
37.187
37.3551
37.481
37.5664
37.6098
37.55
37.3828
37.1267
36.8022
36.4254
36.0095
35.5624
35.0909
34.597
34.0868
33.5463
32.9754
32.3336
31.6498
30.8637
30.08
29.1382
28.3374
28.4504
29.1618
30.0544
30.8667
31.6993
32.5022
33.285
34.034
34.7414
35.3937
35.9741
36.4618
36.8436
37.1422
37.4127
37.665
37.8908
38.0831
38.2405
38.3653
38.4604
38.5114
38.4476
38.2695
37.9983
37.6559
37.2595
36.8224
36.3531
35.8591
35.3397
34.7976
34.223
33.6098
32.9224
32.1897
31.3587
30.53
29.5564
28.724
29.278
29.9904
30.8985
31.7324
32.5873
33.4138
34.2187
34.9878
35.7127
36.3792
36.9695
37.4614
37.8383
38.1151
38.3594
38.5873
38.7927
38.9713
39.1238
39.253
39.3627
39.4049
39.3234
39.1256
38.8346
38.4723
38.056
37.5983
37.1075
36.59
36.0442
35.472
34.8552
34.188
33.4438
32.6572
31.7689
30.8992
29.8651
29.0419
29.9042
30.6406
31.5793
32.4487
33.3373
34.1974
35.0331
35.8307
36.5814
37.2719
37.8854
38.4002
38.7946
39.0651
39.2894
39.4961
39.6849
39.8547
40.0081
40.147
40.2717
40.2885
40.1752
39.9495
39.6354
39.2534
38.8187
38.3427
37.8326
37.2928
36.7212
36.1166
35.4559
34.7353
33.9323
33.0848
32.1346
31.2132
30.1217
29.2866
30.3899
31.1655
32.1442
33.0554
33.9822
34.8787
35.7475
36.5754
37.354
38.0714
38.7129
39.2583
39.6836
39.9751
40.1914
40.3816
40.5575
40.7237
40.8838
41.0363
41.1333
41.1062
40.9563
40.704
40.3706
39.9735
39.5256
39.0362
38.5109
37.9525
37.3576
36.7205
36.0156
35.244
34.3867
33.4801
32.4703
31.4897
30.3414
29.4678
30.7871
31.6086
32.6302
33.5826
34.5452
35.475
36.3725
37.2259
38.0272
38.7664
39.4315
40.0061
40.4712
40.812
41.0403
41.2252
41.3953
41.5634
41.7318
41.8766
41.9154
41.8346
41.6467
41.3696
41.0202
40.6119
40.1548
39.6561
39.1194
38.5456
37.9295
37.2603
36.5151
35.6968
34.7888
33.8261
32.7594
31.7187
30.5137
29.5898
31.1167
31.9829
33.0429
34.0309
35.0227
35.978
36.8966
37.7675
38.5834
39.336
40.0154
40.6101
41.1065
41.4955
41.7848
41.9986
42.183
42.3596
42.5132
42.5878
42.5603
42.4321
42.2147
41.921
41.5627
41.1493
40.6881
40.1844
39.6399
39.0535
38.4182
37.7183
36.9349
36.0724
35.1172
34.1029
32.9854
31.8904
30.635
29.6635
31.3594
32.2597
33.3475
34.3619
35.3741
36.3468
37.2788
38.1602
38.9844
39.7442
40.4327
41.0418
41.5628
41.9903
42.3295
42.5983
42.8114
42.9746
43.0784
43.0997
43.0308
42.8767
42.6459
42.3473
41.9886
41.5768
41.1169
40.6123
40.063
39.4665
38.8123
38.0817
37.2628
36.3614
35.366
34.3085
33.1502
32.0125
30.7205
29.717
31.4663
32.3867
33.488
34.5184
35.542
36.5251
37.465
38.3521
39.1803
39.9439
40.6379
41.2579
41.7998
42.2611
42.6391
42.938
43.1664
43.3244
43.4019
43.3968
43.3117
43.1524
42.9243
42.6327
42.2832
41.8803
41.4276
40.9266
40.3763
39.7721
39.1001
38.3446
37.4974
36.5645
35.5367
34.4452
33.2564
32.0885
30.7742
29.7542
31.415
32.3365
33.4345
34.4677
35.4919
36.4772
37.4188
38.3078
39.1379
39.9037
40.6007
41.226
41.778
42.256
42.6565
42.9759
43.2147
43.3736
43.4535
43.4567
43.3854
43.2429
43.0331
42.76
42.4278
42.0402
41.5995
41.1064
40.5586
39.9499
39.2635
38.4877
37.617
36.6574
35.6021
34.4813
33.2658
32.0699
30.7335
29.6917
31.1116
32.0276
33.115
34.1465
35.1683
36.1536
37.0964
37.9879
38.8217
39.5925
40.2961
40.93
41.4932
41.9838
42.3974
42.7323
42.9886
43.1668
43.268
43.294
43.2466
43.1284
42.9425
42.692
42.3807
42.0112
41.5851
41.102
40.5588
39.9473
39.2485
38.4552
37.5643
36.5826
35.505
34.3614
33.1268
31.9115
30.5635
29.5104
30.6596
31.5608
32.6296
33.651
34.6631
35.6422
36.5811
37.4714
38.3067
39.0816
39.7921
40.436
41.012
41.5165
41.9459
42.2994
42.5767
42.7781
42.9041
42.9562
42.9354
42.8438
42.6836
42.4575
42.1684
41.8184
41.4084
40.9373
40.4004
39.7876
39.0818
38.279
37.3764
36.3809
35.2886
34.1297
32.8824
31.6553
30.302
29.2438
30.2448
31.1289
32.1783
33.1887
34.1907
35.1634
36.0986
36.9879
37.8249
38.6042
39.322
39.9762
40.5645
41.0825
41.5278
41.8993
42.1966
42.4194
42.5681
42.6433
42.6459
42.5772
42.4389
42.2337
41.9637
41.6307
41.2349
40.775
40.2454
39.6349
38.9287
38.1235
37.217
36.2153
35.1159
33.9484
32.693
31.4564
30.0973
29.0309
17.0564
27.2878
38.8785
41.8356
44.6237
44.9216
45.4566
45.2778
45.5691
45.7154
45.8122
45.5152
44.829
44.2093
44.1795
42.8231
42.0569
41.518
40.6247
40.8348
41.9808
40.8511
40.7342
40.1564
6.81227
27.3973
38.3998
41.594
44.3491
44.7457
45.4269
45.1695
45.862
46.0027
45.9929
45.5987
44.9685
44.4785
44.4492
43.1472
42.6683
42.2234
41.3166
41.2
42.2839
41.1843
41.063
40.507
6.46442
26.1546
38.01
41.3134
44.149
44.643
45.2682
45.3411
45.7493
45.7804
45.8838
45.7232
45.1569
44.7402
44.5776
43.3311
43.0229
42.6688
41.8292
41.6351
42.8008
41.8183
41.7338
41.2045
15.8585
26.2725
37.521
41.0892
43.8927
44.5123
45.3679
45.2803
46.0003
46.132
46.126
45.8353
45.3853
45.0889
44.8545
43.8017
43.7008
43.4182
42.5361
42.1296
43.1869
42.2338
42.1376
41.632
15.2876
24.8088
37.0122
40.7752
43.7208
44.488
45.2248
45.4946
45.9733
45.9108
46.0407
45.9985
45.6588
45.4161
45.0532
44.14
44.1075
43.856
43.0086
42.6594
43.7498
42.9212
42.8615
42.3857
14.6437
24.611
36.4086
40.4995
43.4338
44.3449
45.3861
45.4711
46.1633
46.3344
46.3606
46.1457
45.9073
45.7437
45.3905
44.7078
44.8008
44.5655
43.6962
43.2823
44.1987
43.3953
43.3166
42.8648
1.3294
23.2298
35.6778
40.0431
43.2344
44.3572
45.2462
45.6714
46.224
46.1344
46.3177
46.3656
46.2175
46.0825
45.6956
45.1376
45.2068
44.9482
44.1266
43.8696
44.7791
44.1081
44.0696
43.6523
9.46595
22.309
34.798
39.6384
42.8593
44.1674
45.416
45.7
46.3695
46.6337
46.7275
46.5562
46.445
46.3687
46.094
45.7262
45.8661
45.609
44.8153
44.5901
45.2756
44.6183
44.5548
44.1613
11.017
21.2844
33.7548
38.891
42.5577
44.1428
45.2655
45.8513
46.5082
46.4566
46.7131
46.8309
46.7848
46.7378
46.4868
46.189
46.2363
45.9446
45.2228
45.1851
45.8518
45.3314
45.3145
44.9619
11.795
19.2716
32.4181
38.2333
41.9571
43.8423
45.3651
45.9102
46.6017
46.9978
47.1825
47.0334
46.9701
46.9938
46.8961
46.7313
46.8309
46.5677
45.9201
45.9526
46.3664
45.8414
45.7919
45.4618
13.0158
18.4731
30.8757
36.962
41.4427
43.6427
45.141
45.9451
46.7514
46.7917
47.1428
47.3258
47.3413
47.4035
47.3142
47.1702
47.1385
46.8493
46.2839
46.4841
46.8967
46.5136
46.5189
46.2383
15.0112
15.9113
28.9449
35.8632
40.3318
43.1033
45.0414
45.9529
46.74
47.3102
47.6031
47.4825
47.4517
47.6038
47.6546
47.6043
47.6475
47.4253
46.9667
47.2374
47.3846
46.9742
46.9323
46.6694
17.7615
15.1767
26.6202
33.6943
39.4604
42.4909
44.6169
45.7634
46.7927
46.9703
47.455
47.7379
47.8449
48.0299
48.0387
47.9759
47.87
47.6211
47.2298
47.6116
47.8007
47.5428
47.5631
47.3609
19.3671
12.3198
23.843
31.8374
37.2495
41.4659
44.0831
45.585
46.5986
47.4069
47.8166
47.7624
47.8036
48.0893
48.2175
48.2358
48.2581
48.1117
47.8479
48.2711
48.1997
47.8932
47.8519
47.6543
21.2665
13.4254
20.732
28.1871
35.8318
39.9689
43.2452
44.9754
46.4203
46.8116
47.4948
47.9206
48.1744
48.4645
48.5102
48.4909
48.3577
48.1796
47.9439
48.419
48.4534
48.3275
48.3558
48.2336
22.4348
7.20456
16.4021
24.8139
31.0779
37.9904
41.739
44.3616
45.8857
47.1319
47.6919
47.7504
47.895
48.2829
48.4514
48.5409
48.6137
48.5776
48.4899
48.9678
48.736
48.5116
48.4426
48.3015
23.5492
5.5896
10.7083
18.4689
28.8729
34.2176
40.1189
42.9129
45.2106
46.0267
47.1032
47.7875
48.2358
48.5884
48.6568
48.6822
48.5447
48.4432
48.3087
48.6984
48.6578
48.6888
48.7116
48.6733
23.2186
11.2285
11.869
13.0553
14.3435
30.4413
36.0197
41.3304
43.9892
46.1077
46.9463
47.2136
47.5218
47.981
48.2028
48.3735
48.5474
48.6558
48.7012
49.073
48.7279
48.5485
48.3902
48.257
21.797
11.4288
11.9408
6.35299
12.9652
11.2144
32.8138
37.9356
42.2333
43.9129
45.8321
47.0186
47.7683
48.146
48.2609
48.3329
48.1481
48.057
47.8618
47.8798
47.7881
47.9824
47.9709
48.0136
21.095
7.45271
11.4825
2.55651
7.23629
7.44108
14.0466
33.8948
39.5276
43.5422
44.8331
45.4606
46.0104
46.5581
46.8701
47.1236
47.4107
47.6519
47.7292
47.8001
47.2997
47.0207
46.5764
46.3074
18.0545
3.92216
8.20001
6.57388
9.65809
12.9173
15.2856
24.5538
35.0689
38.5837
42.5142
44.6981
45.9658
46.3395
46.5314
46.6233
46.1887
45.7503
45.0526
44.0812
43.6962
43.9789
43.917
43.9756
15.2543
7.46458
9.77296
10.6457
10.5265
3.03792
9.68942
13.5182
28.7506
37.5729
39.2426
40.486
41.345
42.1283
42.5003
42.665
42.9765
43.3035
43.1947
42.7247
41.7476
40.5184
38.3041
37.3451
8.21204
10.5646
7.30754
10.4364
7.19675
14.8863
7.6943
14.5273
10.0719
17.1502
32.5457
37.831
40.6444
40.8958
41.0922
41.0334
39.353
36.038
31.965
25.0758
17.1827
11.7791
18.6367
20.9251
10.7566
11.0511
7.53948
13.9646
20.4824
21.2856
14.5675
10.6056
10.369
8.51339
18.3306
16.1796
19.5816
23.0645
21.9189
16.6898
11.7164
14.1039
0.621767
14.9295
13.3194
16.5815
18.8119
7.5851
9.90502
11.2382
9.00525
11.7733
19.4647
23.7087
23.8993
17.4137
14.9474
4.68177
11.2864
3.81527
11.5475
7.1537
13.4754
5.56529
15.7442
17.9553
13.7259
9.11386
9.95259
19.6387
18.445
7.81572
12.2546
15.7911
14.5223
14.457
19.0652
23.5179
24.9624
22.0476
19.0543
16.8883
12.3605
12.2498
15.4994
7.37247
9.56081
16.34
18.9064
18.6053
11.4972
16.5771
20.9742
23.8373
24.8292
25.6601
13.5914
19.6386
20.6443
21.0068
22.8808
25.2051
25.6614
24.1851
23.7896
24.1283
25.2337
24.6258
22.3456
19.8499
19.3429
20.9093
23.2586
25.2171
26.4023
27.2332
27.2886
27.1718
26.8432
26.7816
14.3041
21.4211
23.7538
25.0118
26.021
26.7321
26.4065
25.6309
25.1758
24.8185
26.1123
26.7624
26.8692
26.6751
26.4506
26.3863
26.7747
27.0986
27.7623
28.5932
28.3938
27.8474
27.066
26.3872
13.2115
21.4481
24.4905
26.3014
27.2091
27.3016
26.368
24.0402
20.2534
17.9349
21.8289
25.7807
27.5861
28.0059
27.8734
27.6665
27.7788
27.7152
27.3826
27.1507
25.7011
23.9966
22.3028
21.1708
11.2721
20.2912
23.8605
26.0623
27.1526
27.1461
25.8502
22.8678
18.975
15.3642
11.7615
16.2697
21.6853
24.5209
25.3663
25.117
24.716
24.092
23.4807
23.0823
22.2077
21.3742
20.4722
19.9245
8.46024
18.4282
22.4694
25.0019
26.3524
26.4951
25.2336
22.5509
18.4432
13.0053
14.71
17.9739
19.8379
21.4118
22.3083
22.5692
22.6042
22.4987
22.3449
22.1518
21.3657
20.4966
19.5883
19.0513
6.14809
16.3614
20.681
23.427
24.9435
25.1734
23.8789
21.1516
16.5812
13.4155
13.8464
16.1127
19.1488
21.1784
22.0879
22.2505
22.0102
21.5326
21.0358
20.6418
20.1256
19.6521
19.0514
18.686
4.52248
13.9556
18.2886
21.1171
22.6584
22.8356
21.5348
19.0962
15.0055
11.7625
13.1161
16.2653
18.6407
20.272
21.0753
21.1765
20.9738
20.6563
20.3559
20.0967
19.7643
19.4531
19.0477
18.78
3.61548
11.6018
15.3468
18.0871
19.6743
20.0627
19.5197
17.6577
13.4233
12.5406
15.1308
17.1626
18.8294
20.1002
20.8176
21.0234
20.9319
20.7378
20.5807
20.4712
20.3387
20.1412
19.8194
19.5833
3.7886
11.4507
13.5683
15.9105
17.6481
18.6544
18.7257
16.0054
12.3774
13.3142
15.7691
18.0499
19.7224
20.8429
21.4614
21.6723
21.6504
21.5471
21.4571
21.3738
21.264
21.0687
20.7671
20.5329
4.13212
11.3915
13.3129
15.5112
17.3742
18.4457
17.5592
13.5847
12.2593
14.9507
17.6927
19.5224
20.8252
21.7744
22.3657
22.629
22.6808
22.6478
22.6162
22.5721
22.4879
22.2795
21.9702
21.7197
4.35394
11.2388
13.3201
15.5226
17.1579
17.4088
14.8354
11.8231
13.7271
16.7884
19.0976
20.8388
22.1253
23.0204
23.5805
23.8692
23.9836
24.0181
24.0333
24.0157
23.9446
23.7189
23.3912
23.1156
4.3657
11.0172
12.99
14.8773
15.8445
14.8083
11.8527
12.5202
15.8106
18.7232
20.9119
22.4787
23.6068
24.4209
24.971
25.3063
25.4995
25.6168
25.6936
25.7077
25.6448
25.3973
25.0412
24.7323
3.94715
10.3143
12.0421
13.3381
13.3682
11.7563
11.5117
14.6839
18.0469
20.669
22.6316
24.1198
25.2364
26.0437
26.6027
26.9792
27.2407
27.4329
27.5677
27.6133
27.5548
27.2857
26.8968
26.5513
3.20636
9.1746
11.1638
11.5673
11.5088
11.581
13.8449
17.3134
20.2741
22.6382
24.4944
25.9257
27.0111
27.819
28.4084
28.8403
29.173
29.4384
29.6307
29.7086
29.6539
29.3646
28.9408
28.5573
16.776
17.2681
3.3684
12.1206
3.03436
13.7691
9.04924
12.032
13.0085
11.3894
11.7242
8.7438
10.6143
6.56344
3.38044
7.19911
4.09519
6.95463
2.09409
6.20615
6.63123
1.75072
6.7487
3.97294
8.38564
7.11651
3.0249
5.66665
5.21972
9.17182
11.9147
9.82171
14.1534
10.2144
8.77916
14.9114
8.1299
8.90129
11.1815
16.3759
27.4838
25.3297
24.9506
22.5679
22.1294
19.6872
19.2761
16.8862
16.5069
14.5835
14.4561
12.9195
12.5194
12.3328
11.615
11.5864
11.4561
11.4633
9.22369
9.36891
11.0398
8.82499
10.2279
10.5833
11.8395
11.8854
11.8639
12.8639
13.4007
14.4073
15.3777
17.0451
18.1636
20.1662
21.1891
23.3879
24.1673
26.3521
26.9881
29.1662
38.7254
37.2905
36.5369
35.1487
34.3643
33.0541
32.1691
31.0311
30.0973
29.162
28.2601
27.5574
26.7601
26.1333
25.7031
25.1457
24.6442
24.2805
24.3398
24.4003
24.1254
24.6737
24.8222
25.1572
25.4278
25.6256
26.4594
26.9243
27.8889
28.5705
29.5882
30.5166
31.568
32.7722
33.8421
35.2311
36.2305
37.6879
38.6183
40.0836
41.5428
40.0392
39.1134
37.7547
36.799
35.5523
34.5497
33.4014
32.4672
31.4878
30.7526
29.8747
29.4311
28.7608
28.42
28.0686
27.5821
27.2315
26.7286
26.7332
26.9743
26.9963
27.2893
27.5513
27.8562
28.225
28.7945
29.33
30.0802
30.6962
31.572
32.5026
33.6363
34.8794
36.1077
37.4975
38.678
40.1816
41.2896
42.8683
44.2474
42.9007
41.9081
40.7076
39.7315
38.612
37.5888
36.5074
35.5321
34.5415
33.723
32.8431
32.2075
31.6923
31.2792
30.9522
30.426
30.064
29.7666
29.8268
29.8647
30.2102
30.3868
30.6488
30.8666
31.074
31.6922
32.2214
32.9724
33.513
34.473
35.3438
36.5675
37.6805
38.9652
40.1638
41.4051
42.7038
43.9044
45.3283
44.471
43.182
42.1416
41.0452
40.0613
39.0332
38.0385
36.9837
36.0948
35.1073
34.3703
33.4407
32.8537
32.3278
32.0438
31.8233
31.2751
30.8484
30.2924
30.3704
30.6691
30.9062
31.0494
31.3247
31.4295
31.7008
32.3033
32.8813
33.4769
33.9889
34.9019
35.7729
36.971
37.9962
39.2202
40.2713
41.5041
42.6666
43.9604
45.277
45.0111
43.742
42.7124
41.6482
40.7336
39.6982
38.7898
37.6893
36.8676
35.8911
35.153
34.2219
33.5362
33.105
32.8359
32.7346
32.1635
31.7136
31.1061
31.2364
31.6044
31.9256
32.0367
32.3358
32.3969
32.5786
33.2042
33.7534
34.2756
34.8557
35.8616
36.7713
37.9314
38.7983
39.9062
40.7853
41.9697
43.0271
44.3599
45.5965
44.5997
43.4112
42.2971
41.2479
40.3711
39.3439
38.4998
37.4197
36.6343
35.77
35.0671
34.1416
33.3893
32.939
32.7749
32.7713
32.2187
31.7045
30.8305
30.9807
31.6625
31.921
32.0098
32.4274
32.3718
32.5411
33.1828
33.7281
34.2306
35.0313
36.1195
37.0614
38.0176
38.6922
39.6197
40.366
41.5458
42.5647
43.9665
45.1917
45.1302
43.5255
42.5542
41.1471
40.3478
39.1592
38.4114
37.3321
36.5668
35.8089
35.1914
34.3491
33.529
33.0113
32.7898
32.8306
32.3254
31.7981
30.8508
30.9597
31.8539
32.0414
32.2261
32.7099
32.596
32.6602
33.312
33.779
34.5067
35.6073
36.7834
37.67
38.3756
38.9769
39.7874
40.6295
41.8547
42.9699
44.4452
45.6587
45.2534
43.6844
42.5277
41.1428
40.0415
38.8864
37.8976
37.0008
36.1501
35.5347
34.9447
34.3905
33.6155
33.0065
32.4706
32.4436
32.0483
31.5105
30.7179
30.7156
31.6695
31.6561
32.0039
32.4864
32.2898
32.2925
32.9702
33.5147
34.5704
35.6964
36.8292
37.5422
38.2276
38.848
39.7347
40.7167
41.9771
43.2129
44.6531
45.9359
45.2681
43.8088
42.5996
41.3199
40.2023
39.1231
38.1001
37.1581
36.2043
35.5039
34.9852
34.6023
33.9987
33.4227
32.5084
32.3412
32.0246
31.5861
31.3167
31.2955
31.9043
31.5503
32.1385
32.2529
32.2008
32.4249
33.3242
33.8209
34.5855
35.4257
36.2861
36.9234
37.6909
38.4561
39.5367
40.6767
42.0592
43.4093
44.8602
46.229
44.7627
43.4057
42.0557
40.8927
39.7319
38.8133
37.8314
37.0083
36.0241
35.2399
34.5966
34.2756
33.5723
33.1756
32.6021
32.1194
31.8152
31.4265
31.4122
31.4646
31.9552
31.3001
32.187
31.8043
31.9547
32.7431
33.5699
33.6485
34.4475
35.0343
35.8045
36.3381
37.197
38.0167
39.2566
40.4477
41.9406
43.2774
44.7646
46.0805
44.1211
42.8261
41.601
40.4741
39.4422
38.5635
37.792
37.1126
36.2857
35.3011
34.3366
33.721
33.4301
33.0231
32.615
32.1321
31.7745
31.6717
31.5996
31.1838
31.5641
30.8188
32.2878
31.5138
31.937
32.0393
32.2369
32.8019
33.8201
34.5133
35.3555
36.0466
37.0743
38.0376
39.3061
40.4558
41.8161
43.0166
44.3692
45.5897
43.4719
42.1395
40.9645
39.8139
38.7726
37.7528
36.8596
36.0949
35.4521
34.8071
34.0058
33.113
32.5365
32.1779
31.8229
31.7585
31.4907
31.5681
31.498
30.9978
30.9653
30.5643
31.4454
31.0718
30.9804
31.1588
32.0121
32.6426
33.2439
33.533
34.4186
35.1299
36.3223
37.2407
38.4879
39.4623
40.7446
41.8354
43.2481
44.5047
43.4089
41.8511
40.4179
39.0123
37.7947
36.7253
35.8683
35.1221
34.4535
33.7392
33.0026
32.4221
31.9018
31.3474
31.1431
30.9629
30.5772
30.2292
29.8167
29.9047
29.6995
29.65
30.2798
30.4884
30.8253
31.5083
32.1503
32.1454
32.8864
33.4289
34.478
35.1429
36.1578
36.8119
37.8914
38.7868
40.1263
41.3426
42.9228
44.3429
42.1638
40.7688
39.4894
38.1045
36.8367
35.5484
34.5438
33.6967
33.0923
32.3938
31.5764
30.9553
30.5493
30.2101
29.9269
29.9872
29.7418
29.2898
28.4547
27.7981
27.7842
27.9783
28.3668
28.5666
29.555
29.7018
30.4355
30.7176
31.7329
32.2243
33.4524
34.2475
35.449
36.1195
37.262
38.1444
39.5397
40.8006
42.4692
43.979
41.1888
39.6195
38.3195
37.0368
35.9971
34.9687
34.0049
32.9869
31.9199
30.9428
29.9879
29.2986
28.7385
28.5062
28.0337
28.2001
27.6481
27.6419
27.0342
26.5707
26.2697
25.3934
27.4131
27.1179
28.1324
28.0785
28.789
28.593
29.5683
30.2498
31.6169
32.3494
33.6065
34.382
35.7592
36.8258
38.4444
39.7952
41.529
43.0076
40.5762
38.995
37.6904
36.4183
35.3837
34.4053
33.5593
32.7453
31.8555
30.8601
29.607
28.566
27.7407
27.3404
26.8627
26.5378
26.3595
25.6572
24.7504
25.0173
25.5819
25.5712
26.9694
26.4563
26.7818
26.7203
27.1949
27.2447
28.2797
29.0425
30.2532
30.9727
32.1587
33.1073
34.5082
35.8162
37.4515
39.0344
40.8572
42.6524
39.5577
37.9996
36.5708
35.3657
34.242
33.363
32.4062
31.6703
30.7189
29.983
28.9483
28.226
27.4163
27.3561
27.255
27.2466
26.7294
26.4879
25.4809
25.3702
25.2188
25.1286
26.1658
25.828
26.4714
26.7458
27.4639
27.6757
28.49
29.0127
30.1698
31.1417
32.6158
33.8832
35.4703
36.8517
38.4318
39.866
41.4058
42.8897
39.8824
38.5908
37.0366
35.8504
34.3738
33.3751
32.096
31.3843
30.3639
29.9359
29.0793
28.7063
27.6847
27.0646
26.1068
26.0535
25.8705
26.0277
25.4318
25.4581
24.3028
25.0834
25.6527
25.813
26.504
26.8728
27.698
28.2545
29.198
29.9154
30.9444
31.807
32.9414
33.9688
35.2005
36.3747
37.7022
39.0193