/*--------------------------------*- C++ -*----------------------------------*\
  =========                 |
  \\      /  F ield         | OpenFOAM: The Open Source CFD Toolbox
   \\    /   O peration     | Website:  https://openfoam.org
    \\  /    A nd           | Version:  6
     \\/     M anipulation  |
\*---------------------------------------------------------------------------*/
FoamFile
{
    version     2.0;
    format      ascii;
    class       volScalarField;
    location    "0.6";
    object      k;
}
// * * * * * * * * * * * * * * * * * * * * * * * * * * * * * * * * * * * * * //

dimensions      [0 2 -2 0 0 0 0];

internalField   nonuniform List<scalar> 
63264
(
0.000303391
0.000345971
0.000320383
0.000298238
0.000289237
0.000286142
0.000284692
0.000284154
0.000283079
0.000285269
0.000286206
0.000281786
0.000278552
0.00027923
0.000281221
0.000282763
0.000283672
0.00028429
0.000284905
0.000285659
0.000286597
0.000287744
0.000289091
0.00029072
0.000292492
0.00029484
0.00029697
0.000300299
0.000303225
0.00030687
0.000310405
0.000318594
0.000319078
0.00033758
0.000327072
0.000322817
0.000409939
0.000398604
0.000375296
0.000364378
0.000359615
0.00035668
0.000354626
0.000352588
0.000351816
0.000350453
0.000345077
0.000340147
0.000339502
0.000341538
0.000344196
0.000346549
0.000348423
0.000349929
0.00035124
0.000352507
0.000353844
0.000355307
0.000357046
0.000358878
0.000361447
0.000363603
0.000367404
0.000370585
0.000374472
0.000377783
0.000387807
0.000387286
0.000407218
0.000393492
0.000336236
0.000425102
0.00040833
0.000380981
0.000368337
0.000362958
0.000359742
0.000357829
0.000355639
0.000356029
0.000360954
0.000356809
0.000344056
0.000339785
0.000341903
0.000345128
0.000347417
0.000348736
0.000349514
0.000350082
0.000350626
0.000351253
0.000351993
0.000352995
0.000354045
0.00035581
0.000357106
0.00035992
0.000362459
0.000364568
0.00036862
0.000374096
0.00038058
0.00038593
0.000395647
0.000353779
0.000442592
0.000415296
0.000382857
0.000369433
0.000364512
0.00036166
0.000359784
0.000357881
0.00035811
0.000363726
0.000362358
0.000348705
0.000342795
0.000343954
0.000346462
0.000347936
0.000348369
0.000348305
0.000348124
0.000347989
0.000347962
0.000348084
0.000348352
0.000348887
0.000349492
0.000350752
0.000351679
0.000353853
0.000355981
0.000357758
0.00036161
0.000365047
0.000372775
0.000374899
0.000372723
0.000461672
0.000426716
0.000389774
0.000374473
0.000368693
0.000365408
0.000363148
0.000361458
0.000361295
0.000363696
0.000361863
0.000355057
0.000351201
0.000350643
0.000350931
0.000350814
0.000350218
0.000349419
0.000348637
0.000347977
0.000347472
0.000347145
0.000346979
0.000347094
0.000347255
0.000348088
0.000348527
0.00035021
0.000352015
0.000352726
0.000357315
0.000357945
0.000371317
0.000365246
0.000390011
0.00054777
0.000531032
0.000488155
0.000468875
0.000460726
0.00045514
0.000450498
0.000446419
0.000443141
0.000442356
0.000439118
0.000428436
0.000421486
0.000420092
0.000421059
0.00042211
0.000422534
0.00042236
0.000421783
0.000420975
0.000420065
0.000419153
0.000418263
0.000417594
0.000416866
0.000416865
0.000416351
0.000417015
0.00041843
0.000416918
0.00042143
0.000418849
0.000433029
0.000421722
0.000400762
0.000560495
0.000540528
0.000494654
0.000473856
0.000465022
0.000459177
0.000454502
0.000451125
0.000447883
0.000452387
0.000465045
0.000442164
0.000423338
0.000418972
0.000420654
0.000422391
0.000422689
0.000421875
0.000420467
0.000418782
0.00041698
0.000415142
0.000413343
0.000411587
0.000410051
0.00040847
0.000407561
0.000406221
0.000406054
0.000406029
0.000405554
0.000406305
0.000408238
0.000413348
0.000415616
0.000575706
0.000546175
0.000495833
0.00047466
0.000466579
0.000461329
0.0004568
0.000453921
0.000450486
0.000455709
0.000473846
0.000449458
0.000426975
0.000420649
0.00042151
0.000422589
0.000422095
0.000420415
0.000418167
0.000415689
0.000413126
0.00041053
0.000407954
0.000405378
0.000402985
0.000400453
0.000398584
0.000396043
0.000394871
0.000393139
0.000391826
0.00038956
0.000392287
0.000390993
0.000432085
0.000591874
0.000555678
0.000501539
0.000478892
0.000470234
0.000464691
0.000460176
0.000456858
0.000454521
0.000457447
0.000460017
0.000447549
0.000434426
0.000428446
0.000426671
0.000425494
0.000423577
0.000420945
0.000417926
0.000414753
0.000411532
0.000408298
0.000405093
0.000401874
0.000398844
0.000395585
0.000393103
0.000389611
0.000388032
0.000384782
0.000384021
0.000378374
0.000385365
0.000376103
0.000450792
0.000698469
0.000680451
0.000613865
0.000584515
0.000572583
0.000563859
0.000555877
0.000548597
0.000541899
0.000535763
0.000528264
0.000518498
0.000510264
0.000505057
0.000501912
0.000499515
0.000496979
0.000493928
0.000490323
0.000486248
0.000481811
0.000477093
0.000472208
0.000467131
0.000462126
0.000456737
0.000452084
0.000446295
0.000442145
0.000437007
0.000432325
0.000425307
0.000425957
0.000418142
0.000458088
0.000707472
0.000687922
0.000619325
0.000588984
0.000576743
0.000568033
0.000560261
0.000553883
0.000548111
0.000547953
0.00055783
0.000541347
0.000517207
0.000504245
0.000500141
0.000498529
0.000496291
0.000492882
0.000488579
0.000483685
0.000478394
0.000472802
0.000466977
0.000460996
0.000454835
0.000448715
0.000442287
0.000436389
0.000429758
0.00042404
0.000418398
0.000411799
0.000406113
0.000402706
0.000466293
0.000717714
0.000693156
0.000621454
0.000590543
0.00057862
0.000570374
0.000562665
0.000557587
0.000551393
0.000551565
0.000591495
0.000566425
0.00052346
0.000502711
0.000497924
0.000497057
0.000495021
0.000491231
0.00048629
0.000480694
0.000474687
0.000468377
0.00046181
0.000455055
0.000448085
0.000441113
0.000433762
0.000426907
0.000419194
0.000412405
0.000405421
0.000397607
0.000390342
0.000385331
0.0004783
0.000729905
0.000699133
0.00062424
0.000592546
0.000580661
0.000572537
0.000565153
0.000559808
0.000554722
0.000556607
0.00057882
0.00056177
0.000527318
0.000507377
0.000500738
0.000498216
0.000495065
0.000490427
0.000484716
0.000478378
0.000471644
0.000464614
0.000457326
0.000449842
0.000442114
0.000434373
0.000426191
0.000418506
0.000409863
0.00040218
0.000394178
0.000385356
0.000376969
0.000370524
0.000491173
0.000742953
0.000706169
0.000627845
0.000595115
0.000583107
0.000575025
0.000567842
0.000562055
0.000557542
0.000557703
0.000561232
0.00055
0.000530003
0.000515329
0.000507353
0.000502109
0.000496901
0.00049096
0.00048436
0.000477302
0.00046992
0.000462272
0.000454383
0.000446299
0.000437959
0.000429585
0.000420755
0.000412359
0.000403082
0.000394455
0.000386105
0.000375781
0.000367943
0.000358892
0.000504854
0.000833227
0.000810458
0.000718798
0.000679219
0.000664168
0.000653277
0.000643043
0.000633678
0.000625235
0.000617641
0.000609458
0.000598374
0.000586117
0.000575352
0.000566625
0.000559159
0.000552016
0.000544594
0.000536658
0.000528184
0.00051921
0.000509791
0.000499969
0.000489817
0.000479283
0.000468636
0.000457403
0.000446608
0.000434779
0.000423574
0.000412736
0.000399354
0.000389064
0.00037638
0.00050736
0.000836408
0.000814106
0.000721855
0.000681869
0.00066673
0.00065597
0.000646061
0.000637658
0.000630684
0.000628642
0.000636762
0.000625656
0.000597489
0.000575298
0.000563448
0.00055653
0.000550259
0.00054314
0.000535065
0.000526241
0.000516833
0.000506943
0.000496612
0.000485926
0.00047482
0.000463599
0.000451717
0.000440358
0.000427723
0.00041613
0.000404063
0.000390958
0.000378445
0.000367461
0.000510302
0.000840074
0.000816061
0.000722735
0.000682665
0.000667781
0.000657349
0.000647641
0.000640238
0.000633938
0.00063295
0.000666818
0.000658009
0.000609961
0.00057507
0.000560342
0.000554131
0.000548673
0.000541771
0.000533532
0.0005244
0.000514636
0.000504375
0.000493669
0.000482594
0.000471076
0.000459427
0.000447087
0.000435258
0.000422119
0.000410009
0.000397404
0.000383697
0.000370651
0.000358858
0.000513966
0.000844512
0.000818909
0.000724383
0.000683868
0.000668888
0.000658522
0.000648886
0.000641836
0.000635772
0.000634612
0.000673814
0.000666139
0.000613891
0.000575986
0.000560275
0.000553904
0.000548364
0.000541273
0.000532766
0.000523326
0.000513246
0.000502664
0.000491634
0.000480234
0.000468386
0.000456395
0.000443703
0.000431517
0.000418011
0.00040552
0.000392521
0.000378465
0.000365025
0.000352789
0.000518977
0.000850041
0.000821586
0.000725462
0.000684524
0.000669562
0.000659226
0.000649761
0.000642093
0.000636082
0.000635793
0.000649393
0.000640497
0.000607064
0.000579415
0.000564787
0.000556715
0.000549678
0.000541722
0.000532709
0.00052292
0.000512552
0.000501705
0.000490426
0.000478749
0.000466729
0.000454321
0.000441759
0.000428659
0.000415852
0.000402178
0.0003891
0.000375782
0.000361797
0.000348383
0.000524049
0.000855218
0.000823932
0.000726402
0.000685078
0.000670052
0.000659676
0.000650114
0.000641809
0.000635
0.000631108
0.000629196
0.00061879
0.000600235
0.000583085
0.000570576
0.000560963
0.000552126
0.000543025
0.000533383
0.000523216
0.000512576
0.000501509
0.000490046
0.000478199
0.000466031
0.000453475
0.000440773
0.000427532
0.000414593
0.000400777
0.000387562
0.000374098
0.000359983
0.00034639
0.00107259
0.00103333
0.00102815
0.00103157
0.0010292
0.0010262
0.00102437
0.00102387
0.00102216
0.0010229
0.00102201
0.00101926
0.00101866
0.00101998
0.00102138
0.00102223
0.00102266
0.00102288
0.00102304
0.00102324
0.0010235
0.00102386
0.00102425
0.00102484
0.00102522
0.0010262
0.00102652
0.00102771
0.00102831
0.00103007
0.00102935
0.00103429
0.00102966
0.00103926
0.00103133
0.00108364
0.00104182
0.00104245
0.00105382
0.00105612
0.00105424
0.00105226
0.00105111
0.0010498
0.00104946
0.00104871
0.00104633
0.00104459
0.00104426
0.00104463
0.00104528
0.00104606
0.00104686
0.00104758
0.00104818
0.00104868
0.00104913
0.00104951
0.00105006
0.0010503
0.00105118
0.00105128
0.00105236
0.0010526
0.00105446
0.00105298
0.00105834
0.00105318
0.00106261
0.00105476
0.00109227
0.00104999
0.0010481
0.00105739
0.00105859
0.00105632
0.00105414
0.00105314
0.00105147
0.00105117
0.001051
0.00104663
0.00104369
0.00104438
0.00104594
0.00104702
0.00104778
0.00104839
0.00104886
0.00104919
0.00104943
0.00104965
0.0010498
0.00105013
0.00105014
0.00105079
0.00105073
0.00105126
0.00105204
0.00105195
0.00105342
0.00105303
0.00105577
0.00105425
0.0010594
0.00110383
0.00105899
0.00105386
0.00105976
0.00105911
0.00105654
0.00105465
0.0010537
0.00105236
0.00105136
0.00105182
0.0010478
0.00104452
0.00104518
0.001047
0.00104824
0.00104889
0.00104921
0.00104933
0.00104933
0.00104929
0.00104925
0.00104925
0.00104922
0.00104939
0.00104925
0.00104973
0.00104952
0.00105003
0.00105028
0.00105068
0.0010511
0.00105178
0.00105217
0.00105404
0.00111682
0.00106634
0.00105897
0.00106338
0.00106184
0.00105881
0.00105675
0.00105551
0.00105433
0.00105323
0.00105307
0.00105092
0.00104912
0.00104925
0.00105021
0.00105092
0.00105118
0.00105113
0.00105092
0.00105065
0.0010504
0.00105019
0.00105005
0.00104988
0.00104995
0.00104968
0.00105008
0.00104978
0.00105006
0.00105059
0.00105006
0.00105207
0.0010495
0.00105487
0.00104935
0.00112264
0.00107268
0.00106928
0.00107928
0.00108164
0.00107982
0.00107772
0.00107616
0.00107482
0.00107344
0.00107289
0.00107054
0.0010678
0.00106685
0.00106708
0.00106749
0.00106783
0.00106811
0.00106834
0.00106848
0.00106852
0.00106848
0.00106842
0.00106825
0.00106827
0.0010679
0.00106813
0.00106784
0.00106749
0.00106867
0.00106656
0.00107001
0.00106562
0.00107149
0.00106654
0.00112819
0.00107781
0.00107286
0.0010818
0.0010837
0.00108166
0.00107948
0.00107772
0.00107677
0.00107438
0.00107509
0.00107209
0.00106652
0.00106551
0.00106694
0.00106816
0.00106882
0.00106918
0.00106936
0.00106937
0.00106924
0.00106902
0.00106873
0.00106843
0.00106804
0.00106782
0.00106729
0.0010672
0.00106678
0.0010663
0.00106664
0.00106577
0.00106639
0.00106546
0.00106729
0.00113615
0.0010838
0.00107661
0.00108328
0.00108394
0.0010817
0.00107977
0.00107804
0.00107745
0.00107446
0.0010756
0.00107297
0.0010668
0.00106548
0.00106706
0.00106852
0.00106926
0.00106956
0.00106958
0.00106938
0.00106903
0.00106861
0.00106814
0.00106767
0.0010671
0.00106673
0.00106596
0.0010658
0.00106491
0.0010647
0.00106394
0.00106409
0.00106289
0.00106286
0.00106364
0.00114564
0.0010886
0.00107978
0.0010854
0.00108548
0.00108302
0.00108095
0.00107937
0.00107823
0.00107636
0.00107613
0.00107413
0.00107077
0.00106941
0.00106979
0.00107047
0.00107082
0.00107083
0.00107058
0.00107016
0.00106962
0.00106903
0.00106839
0.00106779
0.00106706
0.00106659
0.00106559
0.00106549
0.00106407
0.00106442
0.00106227
0.00106414
0.00106019
0.00106315
0.00105973
0.00115113
0.00109556
0.00108896
0.00109713
0.00109958
0.00109795
0.0010958
0.00109397
0.00109239
0.00109082
0.00108957
0.00108781
0.00108561
0.00108397
0.00108312
0.00108273
0.00108249
0.00108227
0.00108205
0.00108176
0.00108136
0.00108086
0.00108026
0.00107963
0.00107883
0.00107825
0.00107713
0.00107675
0.00107543
0.00107492
0.00107367
0.00107359
0.00107136
0.00107212
0.00106975
0.00115436
0.00109859
0.00109114
0.00109873
0.00110096
0.00109925
0.00109707
0.00109515
0.0010938
0.00109163
0.00109094
0.00108924
0.00108478
0.00108209
0.00108191
0.00108243
0.00108272
0.00108272
0.00108254
0.00108221
0.00108172
0.00108109
0.00108036
0.00107953
0.00107869
0.00107767
0.00107686
0.00107554
0.00107487
0.0010734
0.00107252
0.00107125
0.00107043
0.00106856
0.00106876
0.00115776
0.0011021
0.00109332
0.00109968
0.00110127
0.00109938
0.00109736
0.0010952
0.00109458
0.00109122
0.00109133
0.00109099
0.00108374
0.00107967
0.00108012
0.00108147
0.00108223
0.00108246
0.00108236
0.001082
0.00108142
0.00108067
0.00107982
0.00107887
0.0010779
0.00107674
0.00107579
0.00107431
0.00107348
0.00107182
0.00107076
0.00106922
0.00106828
0.00106603
0.00106591
0.00116372
0.00110522
0.00109524
0.00110067
0.0011017
0.00109965
0.00109757
0.00109562
0.00109458
0.00109195
0.00109153
0.00109052
0.00108506
0.00108126
0.00108105
0.00108196
0.00108256
0.00108269
0.00108248
0.001082
0.00108128
0.00108041
0.00107942
0.00107834
0.00107724
0.00107594
0.00107486
0.00107322
0.00107226
0.00107043
0.00106918
0.00106745
0.00106635
0.00106387
0.00106339
0.0011701
0.00110827
0.00109729
0.00110194
0.00110251
0.00110029
0.00109815
0.00109637
0.00109495
0.00109305
0.00109203
0.00109052
0.00108723
0.00108462
0.00108387
0.00108395
0.00108398
0.00108372
0.00108321
0.00108248
0.00108159
0.00108057
0.00107946
0.00107826
0.00107705
0.00107563
0.00107444
0.0010727
0.00107153
0.00106976
0.00106801
0.00106665
0.0010647
0.00106284
0.00106119
0.00117346
0.00111439
0.00110465
0.0011097
0.00111124
0.0011094
0.00110713
0.00110515
0.00110337
0.00110162
0.00110001
0.00109821
0.00109602
0.00109409
0.0010928
0.00109195
0.00109123
0.0010905
0.00108972
0.00108887
0.00108791
0.00108684
0.00108567
0.00108438
0.00108306
0.00108152
0.00108019
0.00107829
0.00107692
0.00107509
0.00107287
0.00107184
0.00106887
0.00106787
0.00106489
0.00117453
0.00111536
0.00110543
0.00111039
0.00111191
0.00111007
0.00110779
0.00110574
0.00110408
0.00110202
0.00110064
0.0010993
0.00109569
0.00109213
0.0010908
0.00109064
0.00109053
0.00109018
0.00108961
0.00108885
0.00108792
0.00108682
0.00108561
0.00108426
0.00108287
0.00108123
0.00107984
0.00107778
0.00107645
0.00107422
0.00107239
0.00107041
0.00106842
0.00106595
0.00106403
0.00117567
0.00111655
0.00110615
0.00111069
0.00111201
0.00111013
0.00110792
0.00110576
0.00110441
0.0011019
0.00110063
0.00110073
0.00109569
0.00109007
0.00108869
0.00108924
0.00108971
0.00108967
0.00108927
0.00108859
0.00108766
0.00108654
0.00108529
0.00108388
0.00108244
0.00108074
0.0010793
0.00107715
0.00107574
0.00107345
0.00107148
0.00106947
0.00106727
0.00106482
0.00106258
0.00117726
0.0011176
0.00110682
0.00111106
0.00111223
0.00111027
0.00110805
0.00110585
0.0011046
0.00110198
0.00110071
0.00110123
0.00109598
0.00108982
0.00108831
0.00108895
0.00108951
0.00108954
0.00108918
0.0010885
0.00108756
0.0010864
0.0010851
0.00108365
0.00108216
0.00108041
0.0010789
0.0010767
0.00107523
0.00107287
0.00107082
0.00106875
0.00106645
0.00106395
0.00106153
0.00117956
0.0011187
0.00110753
0.00111144
0.00111239
0.00111036
0.00110809
0.00110606
0.00110447
0.00110236
0.00110101
0.00109997
0.00109619
0.00109193
0.00109032
0.00109025
0.0010903
0.00109004
0.00108948
0.00108866
0.00108762
0.0010864
0.00108504
0.00108356
0.00108196
0.00108032
0.00107845
0.00107675
0.00107453
0.00107275
0.0010704
0.00106814
0.0010659
0.00106342
0.00106085
0.00118186
0.00111974
0.00110816
0.00111178
0.00111254
0.00111044
0.00110815
0.00110619
0.00110447
0.00110265
0.00110112
0.00109951
0.00109691
0.00109436
0.00109292
0.00109222
0.00109164
0.00109093
0.00109004
0.001089
0.00108783
0.00108652
0.0010851
0.00108358
0.00108194
0.00108027
0.00107837
0.00107664
0.00107439
0.0010726
0.00107021
0.00106793
0.00106564
0.00106316
0.00106051
0.00114473
0.00111122
0.00109147
0.00109266
0.00109356
0.00109192
0.00108984
0.00108932
0.00108686
0.00108781
0.0010874
0.00108333
0.00108115
0.00108227
0.00108442
0.00108597
0.00108676
0.00108713
0.00108735
0.00108757
0.00108782
0.00108815
0.00108843
0.00108898
0.0010891
0.00109005
0.00109003
0.00109103
0.00109114
0.00109329
0.00109041
0.00109746
0.00108926
0.00110147
0.00109081
0.0011545
0.00112234
0.00110859
0.00111731
0.00112319
0.0011231
0.00112109
0.00111967
0.00111793
0.00111747
0.00111693
0.00111392
0.00111112
0.00111035
0.00111096
0.00111199
0.00111306
0.00111407
0.00111495
0.00111569
0.00111627
0.00111679
0.00111715
0.00111776
0.00111781
0.00111879
0.0011186
0.00111969
0.00111935
0.00112212
0.00111809
0.0011261
0.0011173
0.0011298
0.00111908
0.0011639
0.00113143
0.00111514
0.00112144
0.00112604
0.0011256
0.00112341
0.00112233
0.0011202
0.00111954
0.00112059
0.0011162
0.00111116
0.00111055
0.00111245
0.00111431
0.00111553
0.00111636
0.001117
0.00111749
0.00111785
0.00111816
0.00111831
0.00111873
0.00111858
0.00111932
0.00111915
0.00111936
0.00112037
0.00111973
0.00112116
0.00111991
0.00112295
0.00112088
0.00112553
0.0011741
0.00114152
0.001122
0.00112461
0.00112699
0.00112594
0.00112397
0.0011229
0.00112136
0.00111986
0.00112157
0.00111796
0.00111268
0.00111177
0.00111377
0.00111582
0.00111704
0.00111765
0.00111796
0.00111811
0.00111819
0.00111823
0.00111831
0.00111827
0.00111854
0.00111826
0.00111885
0.0011185
0.00111886
0.0011191
0.0011193
0.00111938
0.00111978
0.0011197
0.00112185
0.00118431
0.00115024
0.00112811
0.00112871
0.00113004
0.00112854
0.00112651
0.00112512
0.00112385
0.00112251
0.00112299
0.00112096
0.00111812
0.00111744
0.00111844
0.0011196
0.00112023
0.0011204
0.00112034
0.00112019
0.00112004
0.00111991
0.00111987
0.00111972
0.00111993
0.00111955
0.00112011
0.00111977
0.00111981
0.00112072
0.00111933
0.00112238
0.00111741
0.00112529
0.00111678
0.00119015
0.00115967
0.00114331
0.00114989
0.00115533
0.00115529
0.00115329
0.00115146
0.00114995
0.00114825
0.00114803
0.00114592
0.00114234
0.00114043
0.00114043
0.00114113
0.00114183
0.00114239
0.00114284
0.00114318
0.00114341
0.00114351
0.0011436
0.00114349
0.00114369
0.00114329
0.00114362
0.00114358
0.00114262
0.00114494
0.00114119
0.00114659
0.0011397
0.00114728
0.00114155
0.00119671
0.00116565
0.00114762
0.00115286
0.00115771
0.00115751
0.00115554
0.00115346
0.00115271
0.00114955
0.00115089
0.00114994
0.00114377
0.00114034
0.0011408
0.00114232
0.00114344
0.0011441
0.0011445
0.00114472
0.00114479
0.00114474
0.00114459
0.00114445
0.00114414
0.00114409
0.00114357
0.00114358
0.00114335
0.00114263
0.00114325
0.00114234
0.00114259
0.00114191
0.00114282
0.00120382
0.00117252
0.00115223
0.00115497
0.00115831
0.0011577
0.00115595
0.00115384
0.00115368
0.0011498
0.00115153
0.00115147
0.00114503
0.001141
0.00114132
0.00114299
0.00114422
0.00114486
0.00114511
0.00114512
0.00114497
0.00114472
0.0011444
0.0011441
0.00114363
0.00114349
0.00114272
0.00114283
0.00114195
0.00114198
0.001141
0.00114177
0.00114013
0.00113988
0.00114125
0.00121096
0.00117845
0.00115625
0.00115753
0.00116014
0.00115931
0.00115743
0.00115565
0.00115465
0.00115245
0.00115284
0.0011519
0.00114819
0.00114554
0.00114525
0.00114599
0.00114662
0.00114686
0.0011468
0.00114654
0.00114616
0.00114574
0.00114527
0.00114486
0.00114424
0.00114409
0.00114304
0.00114345
0.00114176
0.00114298
0.00113985
0.00114344
0.00113801
0.00114206
0.0011378
0.00121545
0.00118794
0.00117054
0.00117551
0.00118071
0.00118086
0.00117891
0.00117684
0.00117511
0.00117336
0.00117213
0.00117039
0.00116784
0.00116569
0.00116459
0.00116424
0.0011642
0.00116422
0.0011642
0.00116411
0.00116392
0.00116363
0.00116321
0.0011628
0.00116212
0.00116184
0.00116074
0.00116072
0.00115948
0.00115928
0.0011579
0.00115868
0.00115573
0.00115743
0.00115439
0.0012196
0.00119157
0.00117322
0.00117747
0.0011824
0.0011825
0.00118061
0.00117843
0.00117714
0.00117465
0.00117414
0.00117382
0.00116983
0.00116578
0.00116434
0.00116451
0.00116494
0.00116517
0.0011652
0.00116506
0.00116477
0.00116435
0.00116383
0.0011632
0.00116259
0.00116171
0.00116122
0.00115998
0.00115966
0.00115839
0.00115769
0.00115668
0.0011562
0.00115438
0.00115476
0.00122391
0.00119559
0.00117587
0.00117875
0.0011829
0.00118272
0.00118104
0.00117845
0.00117836
0.00117432
0.00117424
0.00117688
0.00117159
0.00116527
0.00116326
0.00116382
0.00116468
0.00116515
0.00116526
0.0011651
0.00116473
0.0011642
0.00116357
0.00116282
0.0011621
0.0011611
0.00116051
0.00115913
0.00115871
0.00115729
0.00115652
0.00115523
0.00115484
0.00115267
0.00115283
0.00122847
0.00119942
0.00117832
0.00118001
0.00118345
0.00118307
0.00118128
0.00117905
0.00117834
0.00117534
0.00117505
0.00117622
0.00117211
0.00116679
0.00116465
0.00116483
0.00116544
0.00116575
0.0011657
0.00116539
0.00116487
0.0011642
0.00116343
0.00116255
0.00116172
0.0011606
0.00115992
0.00115841
0.00115789
0.00115635
0.00115548
0.00115401
0.00115363
0.00115123
0.00115116
0.00123302
0.00120318
0.00118092
0.00118164
0.00118452
0.00118395
0.00118206
0.00118013
0.00117883
0.00117687
0.0011762
0.00117577
0.00117297
0.00116961
0.00116787
0.00116754
0.00116755
0.00116738
0.00116697
0.00116636
0.00116562
0.00116478
0.00116388
0.00116289
0.00116195
0.00116074
0.00115995
0.00115843
0.00115765
0.00115639
0.00115483
0.00115409
0.00115263
0.0011513
0.00114968
0.00123543
0.00121014
0.00119117
0.00119366
0.00119778
0.00119771
0.00119572
0.0011936
0.00119177
0.00119
0.00118851
0.00118692
0.00118473
0.00118252
0.00118093
0.00117995
0.00117925
0.00117861
0.00117795
0.00117723
0.00117644
0.00117556
0.00117461
0.00117353
0.0011725
0.00117114
0.00117022
0.00116854
0.00116748
0.00116631
0.00116398
0.00116397
0.00116102
0.00116087
0.00115809
0.00123687
0.00121135
0.00119214
0.00119449
0.00119862
0.00119857
0.00119662
0.00119443
0.00119283
0.00119073
0.0011895
0.00118927
0.00118668
0.00118267
0.00118012
0.00117923
0.00117894
0.00117861
0.00117811
0.00117746
0.0011767
0.0011758
0.00117482
0.00117368
0.0011726
0.00117115
0.00117021
0.00116831
0.00116746
0.00116566
0.00116416
0.0011627
0.00116135
0.00115935
0.00115788
0.00123837
0.00121272
0.00119302
0.00119492
0.0011988
0.00119867
0.00119682
0.00119446
0.00119337
0.00119074
0.00118932
0.00119132
0.00118883
0.00118282
0.00117914
0.00117827
0.00117829
0.00117822
0.00117787
0.0011773
0.00117655
0.00117564
0.00117461
0.00117344
0.00117231
0.00117081
0.00116983
0.00116787
0.00116696
0.00116514
0.00116349
0.0011621
0.00116055
0.00115864
0.00115699
0.00123991
0.00121398
0.00119384
0.00119536
0.00119905
0.00119883
0.00119699
0.00119457
0.00119365
0.00119091
0.00118943
0.00119196
0.00118961
0.00118317
0.00117916
0.0011782
0.00117826
0.00117822
0.0011779
0.00117732
0.00117654
0.0011756
0.00117453
0.00117331
0.00117214
0.00117059
0.00116956
0.00116756
0.00116659
0.00116474
0.00116304
0.00116161
0.00116001
0.00115808
0.00115632
0.0012415
0.00121531
0.00119472
0.00119585
0.00119927
0.00119897
0.00119703
0.00119488
0.00119345
0.00119135
0.00119017
0.00119053
0.00118821
0.00118368
0.0011806
0.00117951
0.00117922
0.0011789
0.00117837
0.00117763
0.00117674
0.00117571
0.00117456
0.00117333
0.00117199
0.00117068
0.00116908
0.00116785
0.00116595
0.00116468
0.00116291
0.00116112
0.00115957
0.00115788
0.00115602
0.00124311
0.00121656
0.00119552
0.00119628
0.00119947
0.00119908
0.0011971
0.00119506
0.0011934
0.00119166
0.00119042
0.00118948
0.00118738
0.00118463
0.00118259
0.00118146
0.00118071
0.00117996
0.0011791
0.00117813
0.00117708
0.00117593
0.00117471
0.00117343
0.00117204
0.0011707
0.00116907
0.00116781
0.00116588
0.0011646
0.0011628
0.00116101
0.00115941
0.00115773
0.00115582
0.00115219
0.00113243
0.00110886
0.00110599
0.00110756
0.00110708
0.00110519
0.00110484
0.00110202
0.00110287
0.00110291
0.0010984
0.00109508
0.00109572
0.0010982
0.00110028
0.00110144
0.001102
0.00110231
0.00110258
0.00110283
0.00110316
0.00110337
0.0011039
0.00110387
0.00110476
0.00110459
0.00110547
0.00110501
0.00110791
0.00110311
0.0011118
0.00110136
0.00111435
0.00110327
0.00116178
0.00114323
0.00112508
0.00112941
0.00113622
0.0011377
0.00113616
0.00113483
0.00113292
0.00113237
0.00113206
0.0011289
0.00112547
0.00112427
0.00112492
0.00112622
0.00112752
0.00112869
0.0011297
0.00113054
0.00113119
0.00113178
0.00113213
0.00113279
0.00113272
0.00113373
0.00113339
0.00113454
0.0011334
0.00113745
0.00113106
0.00114109
0.00112994
0.00114335
0.00113199
0.00117126
0.00115259
0.00113216
0.00113399
0.00113941
0.00114053
0.00113883
0.00113793
0.00113567
0.00113471
0.00113628
0.00113194
0.00112591
0.0011244
0.0011264
0.00112885
0.00113055
0.00113164
0.00113245
0.00113309
0.00113357
0.001134
0.00113417
0.00113469
0.00113448
0.00113522
0.00113516
0.00113502
0.0011362
0.0011353
0.00113675
0.00113497
0.00113772
0.00113579
0.00113934
0.00118118
0.00116286
0.0011396
0.00113774
0.00114068
0.00114093
0.00113936
0.00113841
0.00113692
0.00113501
0.00113724
0.00113383
0.00112766
0.00112577
0.00112779
0.00113047
0.00113226
0.00113323
0.00113376
0.00113409
0.00113432
0.00113447
0.00113466
0.00113466
0.00113504
0.00113473
0.00113538
0.00113508
0.00113529
0.00113554
0.0011357
0.00113564
0.00113585
0.0011354
0.00113728
0.00119107
0.00117197
0.00114625
0.00114219
0.00114397
0.00114375
0.0011422
0.00114091
0.00113973
0.0011382
0.00113893
0.00113705
0.00113372
0.00113252
0.00113355
0.0011351
0.00113616
0.00113664
0.0011368
0.00113682
0.00113683
0.00113682
0.00113692
0.00113683
0.0011372
0.00113682
0.00113746
0.00113729
0.00113705
0.00113839
0.00113629
0.00114052
0.00113359
0.0011432
0.0011329
0.00119706
0.00118069
0.00116068
0.00116282
0.00116904
0.00117064
0.00116931
0.00116763
0.00116623
0.00116441
0.0011644
0.00116245
0.00115861
0.00115623
0.00115613
0.00115712
0.0011582
0.00115908
0.0011598
0.00116038
0.00116084
0.00116115
0.00116145
0.00116148
0.0011619
0.00116161
0.00116196
0.00116245
0.00116078
0.00116433
0.00115919
0.00116624
0.00115812
0.0011657
0.00116061
0.00120383
0.00118702
0.00116543
0.00116611
0.00117165
0.00117309
0.00117188
0.00116989
0.00116952
0.00116588
0.00116757
0.00116682
0.00116065
0.00115643
0.00115657
0.0011585
0.0011602
0.00116129
0.00116201
0.00116252
0.00116287
0.00116309
0.00116318
0.00116327
0.00116314
0.00116333
0.00116299
0.0011631
0.00116322
0.00116245
0.00116318
0.0011627
0.00116247
0.00116253
0.00116233
0.00121093
0.00119412
0.00117053
0.00116869
0.00117253
0.00117334
0.00117229
0.00117017
0.00117059
0.0011661
0.00116821
0.00116842
0.0011621
0.00115725
0.00115715
0.00115923
0.00116112
0.00116228
0.00116291
0.00116326
0.00116341
0.00116346
0.00116339
0.00116338
0.00116311
0.00116329
0.00116268
0.00116309
0.00116238
0.00116282
0.00116159
0.00116306
0.00116157
0.00116086
0.0011628
0.00121804
0.00120045
0.00117502
0.00117156
0.00117455
0.00117514
0.00117393
0.00117231
0.00117161
0.00116923
0.00116982
0.00116923
0.0011655
0.00116242
0.00116198
0.00116304
0.00116416
0.00116485
0.00116515
0.00116523
0.00116517
0.00116505
0.00116485
0.00116477
0.00116437
0.00116463
0.00116368
0.00116465
0.00116282
0.00116508
0.00116108
0.00116612
0.00116033
0.00116467
0.00116025
0.00122262
0.0012088
0.00118849
0.0011894
0.00119537
0.00119721
0.00119608
0.00119429
0.00119276
0.00119113
0.00119008
0.00118859
0.0011861
0.00118384
0.00118272
0.00118257
0.00118287
0.00118328
0.00118365
0.00118394
0.00118412
0.00118421
0.00118416
0.00118416
0.00118379
0.00118399
0.00118316
0.00118359
0.00118268
0.00118304
0.00118157
0.00118341
0.00118029
0.00118279
0.00117946
0.00122705
0.00121276
0.0011915
0.00119161
0.00119725
0.00119905
0.00119802
0.00119608
0.00119513
0.00119256
0.00119223
0.00119203
0.00118833
0.00118417
0.00118254
0.00118293
0.00118384
0.00118456
0.00118503
0.00118532
0.00118546
0.00118547
0.00118538
0.00118515
0.00118499
0.00118448
0.0011845
0.00118362
0.00118375
0.001183
0.00118267
0.0011821
0.00118213
0.00118083
0.00118135
0.00123158
0.00121699
0.00119443
0.00119312
0.00119786
0.00119926
0.00119848
0.00119593
0.00119655
0.00119204
0.00119233
0.00119464
0.00119014
0.00118385
0.00118143
0.00118214
0.00118357
0.00118463
0.00118525
0.00118557
0.00118567
0.0011856
0.00118543
0.00118511
0.00118488
0.00118429
0.00118425
0.00118329
0.00118338
0.00118252
0.00118225
0.00118136
0.00118169
0.00118011
0.00118044
0.00123627
0.00122112
0.00119719
0.00119455
0.00119846
0.0011996
0.00119865
0.00119658
0.00119637
0.00119318
0.0011931
0.00119431
0.0011907
0.00118544
0.00118306
0.00118341
0.00118456
0.00118546
0.00118593
0.0011861
0.00118606
0.00118587
0.00118558
0.00118516
0.00118485
0.00118417
0.00118409
0.00118303
0.00118308
0.00118215
0.00118188
0.00118079
0.00118129
0.00117953
0.00117967
0.00124092
0.00122515
0.00120008
0.00119641
0.0011997
0.00120063
0.00119952
0.00119787
0.00119689
0.00119499
0.00119448
0.00119436
0.00119188
0.00118856
0.00118681
0.00118672
0.00118721
0.00118757
0.00118764
0.00118751
0.00118724
0.00118687
0.00118645
0.00118594
0.00118555
0.00118481
0.00118463
0.00118366
0.00118338
0.00118294
0.00118185
0.00118174
0.00118105
0.00118066
0.00117907
0.00124345
0.00123095
0.00120953
0.00120835
0.00121323
0.00121483
0.00121374
0.00121199
0.00121044
0.00120892
0.0012077
0.00120643
0.00120454
0.00120251
0.00120108
0.00120038
0.00120008
0.0011999
0.00119971
0.00119948
0.00119919
0.00119883
0.00119843
0.0011979
0.00119748
0.00119668
0.00119643
0.00119543
0.00119484
0.00119479
0.00119268
0.0011938
0.00119141
0.00119224
0.00119019
0.00124501
0.00123232