/*--------------------------------*- C++ -*----------------------------------*\
  =========                 |
  \\      /  F ield         | OpenFOAM: The Open Source CFD Toolbox
   \\    /   O peration     | Website:  https://openfoam.org
    \\  /    A nd           | Version:  6
     \\/     M anipulation  |
\*---------------------------------------------------------------------------*/
FoamFile
{
    version     2.0;
    format      ascii;
    class       volScalarField;
    location    "0.6";
    object      nut;
}
// * * * * * * * * * * * * * * * * * * * * * * * * * * * * * * * * * * * * * //

dimensions      [0 2 -1 0 0 0 0];

internalField   nonuniform List<scalar> 
63264
(
3.59504e-07
4.09958e-07
3.79638e-07
3.53397e-07
3.42732e-07
3.39064e-07
3.37346e-07
3.36709e-07
3.35435e-07
3.38029e-07
3.3914e-07
3.33903e-07
3.3007e-07
3.30874e-07
3.33233e-07
3.3506e-07
3.36138e-07
3.3687e-07
3.37599e-07
3.38492e-07
3.39604e-07
3.40962e-07
3.42558e-07
3.44489e-07
3.46588e-07
3.49371e-07
3.51894e-07
3.55839e-07
3.59307e-07
3.63626e-07
3.67815e-07
3.77518e-07
3.78091e-07
4.00015e-07
3.87564e-07
3.82522e-07
4.85758e-07
4.72326e-07
4.44707e-07
4.3177e-07
4.26126e-07
4.22648e-07
4.20215e-07
4.178e-07
4.16885e-07
4.1527e-07
4.08899e-07
4.03057e-07
4.02293e-07
4.04706e-07
4.07855e-07
4.10644e-07
4.12864e-07
4.14648e-07
4.16203e-07
4.17703e-07
4.19288e-07
4.21022e-07
4.23081e-07
4.25253e-07
4.28296e-07
4.30852e-07
4.35355e-07
4.39125e-07
4.43731e-07
4.47654e-07
4.59531e-07
4.58914e-07
4.82533e-07
4.66268e-07
3.98424e-07
5.03724e-07
4.83851e-07
4.51444e-07
4.36461e-07
4.30087e-07
4.26276e-07
4.2401e-07
4.21414e-07
4.21877e-07
4.27713e-07
4.22801e-07
4.0769e-07
4.02628e-07
4.05139e-07
4.0896e-07
4.11672e-07
4.13235e-07
4.14156e-07
4.14829e-07
4.15474e-07
4.16217e-07
4.17094e-07
4.18282e-07
4.19526e-07
4.21617e-07
4.23153e-07
4.26488e-07
4.29496e-07
4.31995e-07
4.36797e-07
4.43285e-07
4.50969e-07
4.57308e-07
4.68822e-07
4.19211e-07
5.2445e-07
4.92105e-07
4.53667e-07
4.37759e-07
4.31929e-07
4.28549e-07
4.26326e-07
4.24071e-07
4.24342e-07
4.30997e-07
4.29376e-07
4.13199e-07
4.06196e-07
4.07568e-07
4.1054e-07
4.12286e-07
4.128e-07
4.12724e-07
4.12509e-07
4.12349e-07
4.12318e-07
4.12463e-07
4.1278e-07
4.13413e-07
4.14131e-07
4.15624e-07
4.16722e-07
4.19298e-07
4.2182e-07
4.23925e-07
4.28489e-07
4.32563e-07
4.4172e-07
4.44237e-07
4.41659e-07
5.47059e-07
5.05637e-07
4.61863e-07
4.43732e-07
4.36882e-07
4.3299e-07
4.30312e-07
4.28309e-07
4.28117e-07
4.30961e-07
4.2879e-07
4.20725e-07
4.16156e-07
4.15495e-07
4.15836e-07
4.15698e-07
4.14991e-07
4.14045e-07
4.13118e-07
4.12336e-07
4.11737e-07
4.1135e-07
4.11152e-07
4.1129e-07
4.11479e-07
4.12467e-07
4.12987e-07
4.14981e-07
4.1712e-07
4.17962e-07
4.234e-07
4.24147e-07
4.39992e-07
4.32798e-07
4.62143e-07
6.4908e-07
6.29246e-07
5.78439e-07
5.55594e-07
5.45938e-07
5.39319e-07
5.33818e-07
5.28985e-07
5.25101e-07
5.24169e-07
5.20333e-07
5.07676e-07
4.99439e-07
4.97788e-07
4.98934e-07
5.0018e-07
5.00682e-07
5.00476e-07
4.99792e-07
4.98835e-07
4.97756e-07
4.96675e-07
4.95621e-07
4.94828e-07
4.93966e-07
4.93965e-07
4.93355e-07
4.94142e-07
4.95819e-07
4.94027e-07
4.99374e-07
4.96316e-07
5.13117e-07
4.9972e-07
4.74883e-07
6.64158e-07
6.40499e-07
5.8614e-07
5.61496e-07
5.51028e-07
5.44102e-07
5.38562e-07
5.34561e-07
5.30719e-07
5.36056e-07
5.51055e-07
5.23943e-07
5.01635e-07
4.96461e-07
4.98454e-07
5.00512e-07
5.00865e-07
4.99901e-07
4.98232e-07
4.96235e-07
4.941e-07
4.91923e-07
4.89791e-07
4.8771e-07
4.8589e-07
4.84017e-07
4.8294e-07
4.81352e-07
4.81154e-07
4.81125e-07
4.80562e-07
4.81451e-07
4.83742e-07
4.89797e-07
4.92484e-07
6.82183e-07
6.4719e-07
5.87538e-07
5.62449e-07
5.52874e-07
5.46651e-07
5.41286e-07
5.37874e-07
5.33803e-07
5.39992e-07
5.61484e-07
5.32586e-07
5.05944e-07
4.98448e-07
4.99468e-07
5.00747e-07
5.00162e-07
4.98171e-07
4.95507e-07
4.92571e-07
4.89534e-07
4.86458e-07
4.83405e-07
4.80353e-07
4.77517e-07
4.74517e-07
4.72303e-07
4.69291e-07
4.67903e-07
4.6585e-07
4.64295e-07
4.61609e-07
4.64841e-07
4.63308e-07
5.11999e-07
7.01341e-07
6.58451e-07
5.94299e-07
5.67464e-07
5.57204e-07
5.50636e-07
5.45285e-07
5.41353e-07
5.38585e-07
5.42051e-07
5.45097e-07
5.30323e-07
5.14773e-07
5.07687e-07
5.05584e-07
5.04189e-07
5.01918e-07
4.98799e-07
4.95222e-07
4.91462e-07
4.87645e-07
4.83813e-07
4.80015e-07
4.762e-07
4.7261e-07
4.68749e-07
4.65808e-07
4.6167e-07
4.59798e-07
4.55947e-07
4.55046e-07
4.48355e-07
4.56639e-07
4.45664e-07
5.34166e-07
8.27651e-07
8.06301e-07
7.27399e-07
6.92622e-07
6.78482e-07
6.68145e-07
6.58686e-07
6.5006e-07
6.42123e-07
6.34853e-07
6.25967e-07
6.14395e-07
6.04637e-07
5.98467e-07
5.94741e-07
5.91901e-07
5.88895e-07
5.85281e-07
5.81009e-07
5.76179e-07
5.70922e-07
5.65332e-07
5.59543e-07
5.53527e-07
5.47596e-07
5.41211e-07
5.35697e-07
5.28837e-07
5.2392e-07
5.17831e-07
5.12284e-07
5.03967e-07
5.04737e-07
4.95478e-07
5.42811e-07
8.3832e-07
8.15153e-07
7.33869e-07
6.97917e-07
6.83412e-07
6.73091e-07
6.63881e-07
6.56324e-07
6.49484e-07
6.49297e-07
6.61001e-07
6.41469e-07
6.12865e-07
5.97505e-07
5.92642e-07
5.90732e-07
5.88081e-07
5.84041e-07
5.78942e-07
5.73143e-07
5.66873e-07
5.60246e-07
5.53345e-07
5.46258e-07
5.38957e-07
5.31705e-07
5.24088e-07
5.17099e-07
5.09242e-07
5.02466e-07
4.95781e-07
4.87961e-07
4.81224e-07
4.77187e-07
5.52534e-07
8.50456e-07
8.21356e-07
7.36392e-07
6.99764e-07
6.85636e-07
6.75865e-07
6.6673e-07
6.60713e-07
6.53373e-07
6.53578e-07
7.00892e-07
6.71185e-07
6.20274e-07
5.95688e-07
5.90016e-07
5.88988e-07
5.86575e-07
5.82084e-07
5.76229e-07
5.69599e-07
5.6248e-07
5.55004e-07
5.47222e-07
5.39218e-07
5.30959e-07
5.22696e-07
5.13987e-07
5.05864e-07
4.96724e-07
4.8868e-07
4.80403e-07
4.71144e-07
4.62536e-07
4.56598e-07
5.66762e-07
8.64901e-07
8.28438e-07
7.39694e-07
7.02137e-07
6.88054e-07
6.78428e-07
6.69678e-07
6.63345e-07
6.57318e-07
6.59552e-07
6.85873e-07
6.65669e-07
6.24846e-07
6.01217e-07
5.9335e-07
5.90361e-07
5.86627e-07
5.81131e-07
5.74365e-07
5.66855e-07
5.58875e-07
5.50544e-07
5.41909e-07
5.3304e-07
5.23884e-07
5.14711e-07
5.05015e-07
4.95909e-07
4.85668e-07
4.76563e-07
4.67082e-07
4.56628e-07
4.46689e-07
4.39052e-07
5.82016e-07
8.80363e-07
8.36775e-07
7.43966e-07
7.05182e-07
6.90953e-07
6.81376e-07
6.72865e-07
6.66007e-07
6.60659e-07
6.60851e-07
6.65032e-07
6.51722e-07
6.28027e-07
6.1064e-07
6.01188e-07
5.94974e-07
5.88803e-07
5.81763e-07
5.73943e-07
5.65579e-07
5.56832e-07
5.47769e-07
5.38422e-07
5.28842e-07
5.1896e-07
5.09037e-07
4.98574e-07
4.88625e-07
4.77632e-07
4.6741e-07
4.57515e-07
4.45282e-07
4.35995e-07
4.25269e-07
5.98227e-07
9.87333e-07
9.60353e-07
8.51741e-07
8.0484e-07
7.87006e-07
7.74101e-07
7.61974e-07
7.50877e-07
7.40872e-07
7.31874e-07
7.22178e-07
7.09043e-07
6.94519e-07
6.81763e-07
6.71422e-07
6.62575e-07
6.54112e-07
6.45317e-07
6.35913e-07
6.25872e-07
6.15238e-07
6.04077e-07
5.92439e-07
5.80408e-07
5.67927e-07
5.5531e-07
5.42e-07
5.29208e-07
5.15192e-07
5.01914e-07
4.89072e-07
4.73215e-07
4.61021e-07
4.45992e-07
6.01197e-07
9.91102e-07
9.64675e-07
8.55362e-07
8.07981e-07
7.90042e-07
7.77291e-07
7.6555e-07
7.55593e-07
7.4733e-07
7.4491e-07
7.54531e-07
7.41371e-07
7.07995e-07
6.817e-07
6.67658e-07
6.5946e-07
6.52029e-07
6.43593e-07
6.34026e-07
6.2357e-07
6.12421e-07
6.00703e-07
5.8846e-07
5.75798e-07
5.62639e-07
5.49341e-07
5.35263e-07
5.21802e-07
5.0683e-07
4.93093e-07
4.78795e-07
4.63266e-07
4.48438e-07
4.35423e-07
6.04682e-07
9.95446e-07
9.66992e-07
8.56405e-07
8.08924e-07
7.91287e-07
7.78926e-07
7.67423e-07
7.5865e-07
7.51185e-07
7.50014e-07
7.90146e-07
7.79708e-07
7.22773e-07
6.81429e-07
6.63977e-07
6.56618e-07
6.5015e-07
6.41972e-07
6.32209e-07
6.21388e-07
6.09818e-07
5.97659e-07
5.84974e-07
5.7185e-07
5.58201e-07
5.44399e-07
5.29776e-07
5.1576e-07
5.00191e-07
4.8584e-07
4.70904e-07
4.54661e-07
4.39203e-07
4.25229e-07
6.09024e-07
1.0007e-06
9.70367e-07
8.58358e-07
8.10349e-07
7.92599e-07
7.80316e-07
7.68898e-07
7.60543e-07
7.53358e-07
7.51984e-07
7.98436e-07
7.89342e-07
7.27431e-07
6.82515e-07
6.63898e-07
6.56348e-07
6.49785e-07
6.41382e-07
6.31302e-07
6.20115e-07
6.08172e-07
5.95632e-07
5.82562e-07
5.69054e-07
5.55014e-07
5.40805e-07
5.25766e-07
5.11327e-07
4.95322e-07
4.80521e-07
4.65118e-07
4.48462e-07
4.32537e-07
4.18037e-07
6.14962e-07
1.00726e-06
9.73538e-07
8.59636e-07
8.11127e-07
7.93398e-07
7.81151e-07
7.69935e-07
7.60848e-07
7.53725e-07
7.53384e-07
7.69499e-07
7.58958e-07
7.19341e-07
6.86578e-07
6.69244e-07
6.59679e-07
6.51341e-07
6.41913e-07
6.31234e-07
6.19634e-07
6.07348e-07
5.94495e-07
5.8113e-07
5.67294e-07
5.53051e-07
5.38348e-07
5.23462e-07
5.0794e-07
4.92764e-07
4.7656e-07
4.61064e-07
4.45283e-07
4.28712e-07
4.12816e-07
6.20972e-07
1.01339e-06
9.76318e-07
8.6075e-07
8.11783e-07
7.93979e-07
7.81683e-07
7.70353e-07
7.60511e-07
7.52443e-07
7.47832e-07
7.45566e-07
7.33236e-07
7.11248e-07
6.90926e-07
6.76104e-07
6.64713e-07
6.54243e-07
6.43457e-07
6.32032e-07
6.19985e-07
6.07377e-07
5.94263e-07
5.8068e-07
5.66643e-07
5.52224e-07
5.37346e-07
5.22294e-07
5.06605e-07
4.91272e-07
4.74901e-07
4.59241e-07
4.43288e-07
4.26562e-07
4.10455e-07
3.88068e-06
3.91393e-06
3.86383e-06
3.86864e-06
3.86664e-06
3.86021e-06
3.85468e-06
3.85306e-06
3.84641e-06
3.85047e-06
3.84534e-06
3.83037e-06
3.8264e-06
3.83313e-06
3.84082e-06
3.84552e-06
3.84777e-06
3.84892e-06
3.8498e-06
3.85078e-06
3.85194e-06
3.85339e-06
3.85488e-06
3.85705e-06
3.85837e-06
3.86194e-06
3.86282e-06
3.86719e-06
3.86901e-06
3.87491e-06
3.87195e-06
3.89062e-06
3.87208e-06
3.90939e-06
3.87296e-06
3.91841e-06
3.95271e-06
3.923e-06
3.95134e-06
3.96285e-06
3.95959e-06
3.95364e-06
3.94967e-06
3.94473e-06
3.9437e-06
3.93976e-06
3.92821e-06
3.92067e-06
3.92087e-06
3.92445e-06
3.92838e-06
3.93199e-06
3.93522e-06
3.93798e-06
3.94028e-06
3.94221e-06
3.94401e-06
3.94552e-06
3.9476e-06
3.94852e-06
3.9519e-06
3.95207e-06
3.95624e-06
3.95695e-06
3.96339e-06
3.95774e-06
3.97833e-06
3.95833e-06
3.99488e-06
3.96206e-06
3.94477e-06
3.97977e-06
3.94136e-06
3.96259e-06
3.97056e-06
3.96614e-06
3.95955e-06
3.95631e-06
3.94998e-06
3.94996e-06
3.94955e-06
3.9289e-06
3.91387e-06
3.91741e-06
3.92669e-06
3.93342e-06
3.93741e-06
3.94003e-06
3.94196e-06
3.94341e-06
3.94453e-06
3.94558e-06
3.94634e-06
3.94774e-06
3.94787e-06
3.9505e-06
3.9502e-06
3.95247e-06
3.95527e-06
3.95449e-06
3.96008e-06
3.95899e-06
3.9697e-06
3.9635e-06
3.98229e-06
3.98368e-06
4.01073e-06
3.95917e-06
3.96921e-06
3.97197e-06
3.96696e-06
3.96135e-06
3.95822e-06
3.95327e-06
3.9506e-06
3.95326e-06
3.93439e-06
3.91737e-06
3.92003e-06
3.93004e-06
3.93736e-06
3.94106e-06
3.94274e-06
3.9435e-06
3.94387e-06
3.94411e-06
3.94432e-06
3.94467e-06
3.94484e-06
3.94571e-06
3.94539e-06
3.94747e-06
3.9467e-06
3.94891e-06
3.94988e-06
3.95117e-06
3.95282e-06
3.95566e-06
3.95759e-06
3.9635e-06
4.02818e-06
4.0369e-06
3.9761e-06
3.98073e-06
3.98066e-06
3.97423e-06
3.96818e-06
3.96406e-06
3.95999e-06
3.95659e-06
3.95652e-06
3.94623e-06
3.93696e-06
3.93745e-06
3.94268e-06
3.94692e-06
3.94884e-06
3.94921e-06
3.94889e-06
3.94837e-06
3.9479e-06
3.94753e-06
3.94739e-06
3.94712e-06
3.94769e-06
3.94694e-06
3.9488e-06
3.94776e-06
3.94922e-06
3.95126e-06
3.9491e-06
3.95688e-06
3.94749e-06
3.96918e-06
3.94549e-06
4.04961e-06
4.07064e-06
4.02557e-06
4.04629e-06
4.05722e-06
4.05416e-06
4.04782e-06
4.04243e-06
4.0376e-06
4.03274e-06
4.03093e-06
4.0206e-06
4.00822e-06
4.00467e-06
4.00726e-06
4.01064e-06
4.01309e-06
4.01478e-06
4.016e-06
4.01683e-06
4.01731e-06
4.01749e-06
4.01759e-06
4.01728e-06
4.01767e-06
4.01659e-06
4.01784e-06
4.01693e-06
4.01613e-06
4.02073e-06
4.01276e-06
4.02608e-06
4.0098e-06
4.03364e-06
4.01379e-06
4.06689e-06
4.08797e-06
4.03771e-06
4.05472e-06
4.064e-06
4.06018e-06
4.0536e-06
4.0476e-06
4.04441e-06
4.03598e-06
4.04065e-06
4.02921e-06
4.00325e-06
3.99702e-06
4.00444e-06
4.01199e-06
4.01623e-06
4.01831e-06
4.01932e-06
4.01967e-06
4.01954e-06
4.0191e-06
4.01842e-06
4.01771e-06
4.01668e-06
4.01625e-06
4.01465e-06
4.01479e-06
4.01352e-06
4.01225e-06
4.01394e-06
4.01071e-06
4.01353e-06
4.0106e-06
4.01825e-06
4.09451e-06
4.10904e-06
4.04948e-06
4.05883e-06
4.0646e-06
4.06048e-06
4.05482e-06
4.04886e-06
4.04708e-06
4.03641e-06
4.04328e-06
4.03401e-06
4.00528e-06
3.99693e-06
4.00462e-06
4.01309e-06
4.01773e-06
4.0196e-06
4.02002e-06
4.01965e-06
4.01882e-06
4.01773e-06
4.01645e-06
4.0152e-06
4.01357e-06
4.01266e-06
4.01025e-06
4.01023e-06
4.00732e-06
4.00715e-06
4.00483e-06
4.00558e-06
4.00146e-06
4.0026e-06
4.00589e-06
4.12813e-06
4.12665e-06
4.06029e-06
4.06585e-06
4.06976e-06
4.06493e-06
4.05881e-06
4.05346e-06
4.04971e-06
4.04343e-06
4.04412e-06
4.036e-06
4.02039e-06
4.01377e-06
4.01628e-06
4.0207e-06
4.02335e-06
4.02408e-06
4.02361e-06
4.02247e-06
4.02096e-06
4.01927e-06
4.01745e-06
4.01573e-06
4.01357e-06
4.01239e-06
4.00916e-06
4.00948e-06
4.00461e-06
4.0067e-06
3.9992e-06
4.00669e-06
3.99203e-06
4.00523e-06
3.99185e-06
4.15037e-06
4.16397e-06
4.10783e-06
4.11991e-06
4.13004e-06
4.12735e-06
4.12063e-06
4.11416e-06
4.1084e-06
4.10265e-06
4.09794e-06
4.09063e-06
4.08148e-06
4.07537e-06
4.07312e-06
4.07282e-06
4.07291e-06
4.07281e-06
4.07244e-06
4.07172e-06
4.07061e-06
4.06914e-06
4.0673e-06
4.06538e-06
4.06284e-06
4.06113e-06
4.05741e-06
4.05659e-06
4.05208e-06
4.05087e-06
4.04679e-06
4.04678e-06
4.03889e-06
4.04323e-06
4.03495e-06
4.16079e-06
4.17442e-06
4.11541e-06
4.12541e-06
4.13474e-06
4.13176e-06
4.12502e-06
4.11828e-06
4.11354e-06
4.10593e-06
4.10479e-06
4.09931e-06
4.08e-06
4.06731e-06
4.06686e-06
4.07061e-06
4.07329e-06
4.07421e-06
4.074e-06
4.0731e-06
4.07163e-06
4.0697e-06
4.06742e-06
4.06481e-06
4.06214e-06
4.05886e-06
4.05637e-06
4.052e-06
4.05019e-06
4.04522e-06
4.04272e-06
4.03867e-06
4.03618e-06
4.02992e-06
4.03198e-06
4.17216e-06
4.18668e-06
4.1226e-06
4.12833e-06
4.13575e-06
4.13238e-06
4.12625e-06
4.11864e-06
4.11682e-06
4.10464e-06
4.10773e-06
4.11044e-06
4.0794e-06
4.05842e-06
4.05939e-06
4.06672e-06
4.0716e-06
4.07343e-06
4.07344e-06
4.07238e-06
4.07059e-06
4.06826e-06
4.06557e-06
4.06253e-06
4.05942e-06
4.05567e-06
4.05272e-06
4.0478e-06
4.04547e-06
4.03988e-06
4.03679e-06
4.03186e-06
4.02899e-06
4.02141e-06
4.0226e-06
4.19399e-06
4.1984e-06
4.12912e-06
4.13152e-06
4.13726e-06
4.13346e-06
4.12717e-06
4.12036e-06
4.11699e-06
4.10781e-06
4.10856e-06
4.10714e-06
4.08375e-06
4.06518e-06
4.06368e-06
4.06893e-06
4.07297e-06
4.07438e-06
4.07399e-06
4.07247e-06
4.07019e-06
4.06739e-06
4.06423e-06
4.06073e-06
4.05719e-06
4.05296e-06
4.0496e-06
4.04412e-06
4.04136e-06
4.03519e-06
4.03153e-06
4.02597e-06
4.02257e-06
4.01425e-06
4.01407e-06
4.21756e-06
4.21005e-06
4.13616e-06
4.13571e-06
4.13997e-06
4.13575e-06
4.12928e-06
4.12315e-06
4.11837e-06
4.11205e-06
4.1097e-06
4.10469e-06
4.0907e-06
4.07887e-06
4.0758e-06
4.07718e-06
4.07842e-06
4.07816e-06
4.07665e-06
4.0743e-06
4.07138e-06
4.06806e-06
4.06445e-06
4.06054e-06
4.0566e-06
4.05199e-06
4.04822e-06
4.04245e-06
4.03897e-06
4.0331e-06
4.02764e-06
4.02363e-06
4.01703e-06
4.01137e-06
4.00656e-06
4.23231e-06
4.24116e-06
4.17384e-06
4.17357e-06
4.17993e-06
4.17649e-06
4.1693e-06
4.16223e-06
4.15582e-06
4.14957e-06
4.14387e-06
4.13702e-06
4.12829e-06
4.12073e-06
4.11613e-06
4.11351e-06
4.11146e-06
4.10928e-06
4.10677e-06
4.1039e-06
4.10067e-06
4.09704e-06
4.09308e-06
4.08872e-06
4.08428e-06
4.07904e-06
4.07467e-06
4.06818e-06
4.06385e-06
4.05764e-06
4.05031e-06
4.04741e-06
4.03689e-06
4.03435e-06
4.02452e-06
4.23574e-06
4.24459e-06
4.1767e-06
4.17599e-06
4.18228e-06
4.17881e-06
4.17164e-06
4.16441e-06
4.15859e-06
4.15156e-06
4.14783e-06
4.14431e-06
4.12968e-06
4.1138e-06
4.10774e-06
4.10787e-06
4.10859e-06
4.10802e-06
4.10628e-06
4.10372e-06
4.10054e-06
4.09683e-06
4.09271e-06
4.08813e-06
4.08346e-06
4.07789e-06
4.07333e-06
4.06623e-06
4.06211e-06
4.05442e-06
4.04861e-06
4.04218e-06
4.03552e-06
4.02739e-06
4.02196e-06
4.23963e-06
4.24882e-06
4.17912e-06
4.17694e-06
4.18265e-06
4.1791e-06
4.17223e-06
4.16464e-06
4.16013e-06
4.15148e-06
4.14902e-06
4.15344e-06
4.13356e-06
4.10745e-06
4.09955e-06
4.10234e-06
4.10556e-06
4.10629e-06
4.10514e-06
4.1028e-06
4.09963e-06
4.09582e-06
4.09156e-06
4.0868e-06
4.08196e-06
4.07617e-06
4.0714e-06
4.06404e-06
4.05966e-06
4.05176e-06
4.04547e-06
4.03902e-06
4.03159e-06
4.02361e-06
4.01712e-06
4.2454e-06
4.25272e-06
4.18148e-06
4.17824e-06
4.18342e-06
4.17966e-06
4.1728e-06
4.16508e-06
4.16098e-06
4.15196e-06
4.14967e-06
4.15614e-06
4.13561e-06
4.10703e-06
4.09827e-06
4.10134e-06
4.10498e-06
4.10597e-06
4.10491e-06
4.10256e-06
4.09929e-06
4.09535e-06
4.09092e-06
4.086e-06
4.08097e-06
4.075e-06
4.07005e-06
4.06249e-06
4.05788e-06
4.0498e-06
4.04322e-06
4.03658e-06
4.02884e-06
4.02072e-06
4.01362e-06
4.25413e-06
4.25703e-06
4.18393e-06
4.17946e-06
4.18397e-06
4.18004e-06
4.17301e-06
4.16592e-06
4.16052e-06
4.15348e-06
4.15026e-06
4.14857e-06
4.13343e-06
4.11428e-06
4.10648e-06
4.10674e-06
4.10806e-06
4.10781e-06
4.10604e-06
4.10319e-06
4.09958e-06
4.0954e-06
4.09074e-06
4.08572e-06
4.08029e-06
4.07475e-06
4.06844e-06
4.0628e-06
4.05528e-06
4.04962e-06
4.04172e-06
4.03445e-06
4.02733e-06
4.01922e-06
4.01106e-06
4.26291e-06
4.26105e-06
4.18613e-06
4.18059e-06
4.1845e-06
4.18037e-06
4.17327e-06
4.16641e-06
4.16045e-06
4.15432e-06
4.14966e-06
4.14429e-06
4.13393e-06
4.12315e-06
4.11723e-06
4.11493e-06
4.11334e-06
4.11112e-06
4.10813e-06
4.10451e-06
4.10042e-06
4.09592e-06
4.09104e-06
4.08585e-06
4.08027e-06
4.07462e-06
4.06819e-06
4.06248e-06
4.05483e-06
4.04911e-06
4.04108e-06
4.03376e-06
4.02647e-06
4.01837e-06
4.00993e-06
8.54491e-06
8.67674e-06
8.50213e-06
8.47791e-06
8.49124e-06
8.49181e-06
8.48256e-06
8.48119e-06
8.46333e-06
8.47386e-06
8.4694e-06
8.43046e-06
8.40802e-06
8.41724e-06
8.43763e-06
8.45313e-06
8.46132e-06
8.46535e-06
8.46792e-06
8.47026e-06
8.4726e-06
8.47532e-06
8.4775e-06
8.4815e-06
8.48214e-06
8.48892e-06
8.4881e-06
8.49509e-06
8.49472e-06
8.50977e-06
8.48651e-06
8.53973e-06
8.47521e-06
8.56915e-06
8.47778e-06
8.60574e-06
8.76116e-06
8.625e-06
8.6407e-06
8.67994e-06
8.68892e-06
8.68074e-06
8.6734e-06
8.66161e-06
8.65976e-06
8.6547e-06
8.62756e-06
8.60401e-06
8.6005e-06
8.60963e-06
8.62112e-06
8.63098e-06
8.63903e-06
8.64567e-06
8.65115e-06
8.65559e-06
8.65961e-06
8.66237e-06
8.66693e-06
8.66721e-06
8.67449e-06
8.67267e-06
8.68061e-06
8.67729e-06
8.69711e-06
8.66573e-06
8.72573e-06
8.65879e-06
8.75202e-06
8.66675e-06
8.65762e-06
8.81338e-06
8.6628e-06
8.66387e-06
8.69536e-06
8.70228e-06
8.69293e-06
8.68837e-06
8.67369e-06
8.67214e-06
8.68187e-06
8.64133e-06
8.59482e-06
8.58973e-06
8.61022e-06
8.6309e-06
8.644e-06
8.65184e-06
8.65726e-06
8.66147e-06
8.66474e-06
8.66772e-06
8.66938e-06
8.67304e-06
8.67226e-06
8.67816e-06
8.67703e-06
8.67881e-06
8.68632e-06
8.68082e-06
8.69131e-06
8.68246e-06
8.70508e-06
8.69008e-06
8.72117e-06
8.71996e-06
8.87595e-06
8.70183e-06
8.68013e-06
8.69978e-06
8.70394e-06
8.69612e-06
8.69131e-06
8.68127e-06
8.6731e-06
8.68922e-06
8.65533e-06
8.60592e-06
8.59707e-06
8.6175e-06
8.63956e-06
8.653e-06
8.65973e-06
8.66333e-06
8.66568e-06
8.6675e-06
8.66893e-06
8.67055e-06
8.67117e-06
8.67397e-06
8.67255e-06
8.67771e-06
8.67551e-06
8.67875e-06
8.68078e-06
8.68212e-06
8.68284e-06
8.68584e-06
8.68661e-06
8.69898e-06
8.78243e-06
8.92943e-06
8.7379e-06
8.70352e-06
8.71694e-06
8.71843e-06
8.71053e-06
8.70353e-06
8.69615e-06
8.68859e-06
8.69422e-06
8.67512e-06
8.64826e-06
8.64194e-06
8.65247e-06
8.66524e-06
8.67328e-06
8.67685e-06
8.67817e-06
8.67872e-06
8.67921e-06
8.67966e-06
8.68064e-06
8.68067e-06
8.68331e-06
8.68141e-06
8.68653e-06
8.6847e-06
8.68575e-06
8.69327e-06
8.68269e-06
8.7066e-06
8.66888e-06
8.73241e-06
8.6624e-06
8.82212e-06
9.00497e-06
8.85193e-06
8.84995e-06
8.88491e-06
8.89447e-06
8.88695e-06
8.87719e-06
8.86825e-06
8.85765e-06
8.85784e-06
8.83941e-06
8.80906e-06
8.79503e-06
8.79915e-06
8.80938e-06
8.81834e-06
8.82483e-06
8.82965e-06
8.83338e-06
8.83628e-06
8.83833e-06
8.8403e-06
8.84073e-06
8.84351e-06
8.8417e-06
8.84541e-06
8.84624e-06
8.84015e-06
8.85854e-06
8.83091e-06
8.87201e-06
8.82195e-06
8.88024e-06
8.83708e-06
8.85923e-06
9.03963e-06
8.87753e-06
8.86749e-06
8.89861e-06
8.90687e-06
8.89962e-06
8.88824e-06
8.88539e-06
8.86382e-06
8.88001e-06
8.86936e-06
8.81407e-06
8.78427e-06
8.79235e-06
8.81168e-06
8.82618e-06
8.83448e-06
8.83933e-06
8.8425e-06
8.84457e-06
8.84587e-06
8.84645e-06
8.84703e-06
8.84639e-06
8.84767e-06
8.84547e-06
8.84718e-06
8.84701e-06
8.84329e-06
8.84937e-06
8.84392e-06
8.84675e-06
8.84449e-06
8.8514e-06
8.90419e-06
9.08335e-06
8.9045e-06
8.87857e-06
8.90151e-06
8.90788e-06
8.90217e-06
8.89022e-06
8.89201e-06
8.8647e-06
8.88545e-06
8.88203e-06
8.82354e-06
8.78781e-06
8.79428e-06
8.81492e-06
8.83074e-06
8.83924e-06
8.84335e-06
8.84534e-06
8.84621e-06
8.84644e-06
8.84608e-06
8.84595e-06
8.84442e-06
8.84541e-06
8.84166e-06
8.84454e-06
8.83998e-06
8.84227e-06
8.83684e-06
8.84423e-06
8.8337e-06
8.83457e-06
8.84609e-06
8.9499e-06
9.12043e-06
8.9287e-06
8.89373e-06
8.91226e-06
8.91735e-06
8.91068e-06
8.90136e-06
8.89674e-06
8.88297e-06
8.88993e-06
8.8812e-06
8.84772e-06
8.82532e-06
8.8263e-06
8.8375e-06
8.84725e-06
8.85255e-06
8.8546e-06
8.85494e-06
8.85447e-06
8.85366e-06
8.85245e-06
8.85174e-06
8.8494e-06
8.85061e-06
8.84504e-06
8.85052e-06
8.84015e-06
8.85191e-06
8.83067e-06
8.85977e-06
8.82117e-06
8.85556e-06
8.82444e-06
8.98462e-06
9.19605e-06
9.03703e-06
9.02295e-06
9.05536e-06
9.06586e-06
9.05869e-06
9.04759e-06
9.03758e-06
9.02697e-06
9.01963e-06
9.00673e-06
8.98728e-06
8.97271e-06
8.96797e-06
8.96954e-06
8.97302e-06
8.97623e-06
8.9786e-06
8.98016e-06
8.98092e-06
8.98104e-06
8.98031e-06
8.97975e-06
8.9772e-06
8.97778e-06
8.97222e-06
8.97482e-06
8.96828e-06
8.96975e-06
8.96219e-06
8.97065e-06
8.95117e-06
8.96817e-06
8.94735e-06
9.00919e-06
9.21788e-06
9.05333e-06
9.03475e-06
9.06526e-06
9.07534e-06
9.0686e-06
9.05675e-06
9.05038e-06
9.03437e-06
9.03554e-06
9.03253e-06
8.99774e-06
8.96492e-06
8.95732e-06
8.96519e-06
8.9747e-06
8.98091e-06
8.98419e-06
8.98572e-06
8.9861e-06
8.9856e-06
8.98444e-06
8.98249e-06
8.98079e-06
8.97718e-06
8.97656e-06
8.97037e-06
8.9712e-06
8.9649e-06
8.96313e-06
8.95897e-06
8.95853e-06
8.94899e-06
8.9549e-06
9.0357e-06
9.24329e-06
9.06938e-06
9.04194e-06
9.068e-06
9.07661e-06
9.07151e-06
9.05643e-06
9.05951e-06
9.03071e-06
9.04011e-06
9.0587e-06
9.01027e-06
8.95676e-06
8.94448e-06
8.95719e-06
8.97172e-06
8.98057e-06
8.98475e-06
8.98627e-06
8.98627e-06
8.98522e-06
8.9835e-06
8.98096e-06
8.97872e-06
8.9745e-06
8.97341e-06
8.96655e-06
8.96691e-06
8.95988e-06
8.95792e-06
8.95205e-06
8.95275e-06
8.94077e-06
8.94594e-06
9.06648e-06
9.26837e-06
9.08431e-06
9.04918e-06
9.07121e-06
9.07877e-06
9.07298e-06
9.06064e-06
9.05884e-06
9.03886e-06
9.0439e-06
9.05248e-06
9.01471e-06
8.96991e-06
8.95628e-06
8.96509e-06
8.97722e-06
8.98488e-06
8.98813e-06
8.98872e-06
8.9878e-06
8.9859e-06
8.98341e-06
8.98016e-06
8.97734e-06
8.97245e-06
8.97097e-06
8.96336e-06
8.96337e-06
8.95573e-06
8.95336e-06
8.9465e-06
8.94757e-06
8.93435e-06
8.93796e-06
9.09761e-06
9.29314e-06
9.1003e-06
9.05879e-06
9.07748e-06
9.08411e-06
9.07766e-06
9.06764e-06
9.0613e-06
9.0498e-06
9.04899e-06
9.04637e-06
9.0223e-06
8.99518e-06
8.98454e-06
8.98741e-06
8.99319e-06
8.99655e-06
8.99706e-06
8.99575e-06
8.99342e-06
8.99045e-06
8.98712e-06
8.9832e-06
8.97982e-06
8.97447e-06
8.97239e-06
8.96494e-06
8.9632e-06
8.958e-06
8.95078e-06
8.94976e-06
8.94294e-06
8.93848e-06
8.93033e-06
9.11893e-06
9.3474e-06
9.17747e-06
9.14693e-06
9.17258e-06
9.18194e-06
9.17481e-06
9.1636e-06
9.15335e-06
9.14328e-06
9.13494e-06
9.12461e-06
9.10911e-06
9.09429e-06
9.08557e-06
9.08232e-06
9.08131e-06
9.08044e-06
9.07899e-06
9.07693e-06
9.07436e-06
9.0712e-06
9.06764e-06
9.06329e-06
9.05942e-06
9.0533e-06
9.05049e-06
9.04228e-06
9.03877e-06
9.03467e-06
9.02201e-06
9.0269e-06
9.00953e-06
9.01372e-06
8.99822e-06
9.12744e-06
9.35483e-06
9.18358e-06
9.15209e-06
9.17757e-06
9.187e-06
9.18014e-06
9.1685e-06
9.16022e-06
9.14788e-06
9.14348e-06
9.14296e-06
9.12083e-06
9.08925e-06
9.07268e-06
9.07185e-06
9.07603e-06
9.07883e-06
9.07922e-06
9.07797e-06
9.07571e-06
9.07261e-06
9.06898e-06
9.0644e-06
9.06033e-06
9.05366e-06
9.05098e-06
9.04125e-06
9.03956e-06
9.03088e-06
9.0247e-06
9.01898e-06
9.01383e-06
9.00449e-06
8.99928e-06
9.13688e-06
9.36378e-06
9.18911e-06
9.15453e-06
9.17857e-06
9.18758e-06
9.18151e-06
9.1685e-06
9.16438e-06
9.14741e-06
9.14475e-06
9.1609e-06
9.13614e-06
9.08655e-06
9.06086e-06
9.06158e-06
9.06994e-06
9.07568e-06
9.07752e-06
9.07687e-06
9.0748e-06
9.07172e-06
9.06796e-06
9.0632e-06
9.05896e-06
9.05202e-06
9.04916e-06
9.03915e-06
9.03712e-06
9.02851e-06
9.02144e-06
9.01636e-06
9.00995e-06
9.00134e-06
8.99528e-06
9.14695e-06
9.37195e-06
9.19413e-06
9.15719e-06
9.18004e-06
9.18857e-06
9.18266e-06
9.16924e-06
9.16643e-06
9.14845e-06
9.14609e-06
9.16626e-06
9.14189e-06
9.08848e-06
9.06021e-06
9.06065e-06
9.06962e-06
9.07588e-06
9.07792e-06
9.07727e-06
9.07507e-06
9.07176e-06
9.06777e-06
9.06276e-06
9.05827e-06
9.0511e-06
9.04799e-06
9.0378e-06
9.03546e-06
9.02675e-06
9.01935e-06
9.01415e-06
9.00751e-06
8.9989e-06
8.99224e-06
9.15837e-06
9.38096e-06
9.1996e-06
9.15998e-06
9.1813e-06
9.18948e-06
9.18289e-06
9.17154e-06
9.16463e-06
9.15238e-06
9.14899e-06
9.15327e-06
9.13228e-06
9.09573e-06
9.07474e-06
9.0728e-06
9.07766e-06
9.08107e-06
9.08147e-06
9.07973e-06
9.07673e-06
9.07288e-06
9.06832e-06
9.06332e-06
9.05758e-06
9.05227e-06
9.04499e-06
9.04057e-06
9.03136e-06
9.0271e-06
9.01922e-06
9.0115e-06
9.00568e-06
8.9989e-06
8.99111e-06
9.16993e-06
9.38945e-06
9.20454e-06
9.16252e-06
9.1825e-06
9.19022e-06
9.18336e-06
9.17282e-06
9.16411e-06
9.15462e-06
9.14908e-06
9.14384e-06
9.12785e-06
9.1075e-06
9.09487e-06
9.091e-06
9.09051e-06
9.08954e-06
9.08714e-06
9.08364e-06
9.07947e-06
9.07479e-06
9.06966e-06
9.06426e-06
9.0582e-06
9.05268e-06
9.04516e-06
9.04066e-06
9.03121e-06
9.02692e-06
9.01884e-06
9.01113e-06
9.00502e-06
8.99843e-06
8.99026e-06
1.44845e-05
1.47246e-05
1.4471e-05
1.43821e-05
1.43926e-05
1.44021e-05
1.43915e-05
1.43943e-05
1.43631e-05
1.43784e-05
1.43829e-05
1.43237e-05
1.42739e-05
1.4276e-05
1.43069e-05
1.43361e-05
1.43537e-05
1.43628e-05
1.43681e-05
1.43723e-05
1.43761e-05
1.43804e-05
1.4383e-05
1.43893e-05
1.43885e-05
1.43986e-05
1.4396e-05
1.44057e-05
1.43979e-05
1.44335e-05
1.43719e-05
1.44777e-05
1.43484e-05
1.45047e-05
1.43668e-05
1.45747e-05
1.48409e-05
1.46395e-05
1.461e-05
1.46633e-05
1.46897e-05
1.46841e-05
1.46763e-05
1.46575e-05
1.46545e-05
1.46529e-05
1.46126e-05
1.4568e-05
1.4554e-05
1.45658e-05
1.45856e-05
1.46037e-05
1.46184e-05
1.46303e-05
1.464e-05
1.46478e-05
1.46548e-05
1.46588e-05
1.46668e-05
1.46657e-05
1.46775e-05
1.46731e-05
1.46866e-05
1.46708e-05
1.472e-05
1.46406e-05
1.47604e-05
1.46262e-05
1.4783e-05
1.46453e-05
1.46568e-05
1.49212e-05
1.47017e-05
1.465e-05
1.46897e-05
1.47123e-05
1.47043e-05
1.47022e-05
1.46792e-05
1.4673e-05
1.4699e-05
1.46433e-05
1.45597e-05
1.45346e-05
1.45615e-05
1.45988e-05
1.46257e-05
1.46424e-05
1.46535e-05
1.46619e-05
1.46684e-05
1.46744e-05
1.46772e-05
1.46843e-05
1.46824e-05
1.46915e-05
1.46916e-05
1.46899e-05
1.47039e-05
1.46933e-05
1.47103e-05
1.46903e-05
1.47211e-05
1.47016e-05
1.47382e-05
1.47497e-05
1.50198e-05
1.47694e-05
1.46813e-05
1.46992e-05
1.47147e-05
1.47085e-05
1.47048e-05
1.46914e-05
1.46731e-05
1.47082e-05
1.46647e-05
1.45789e-05
1.45475e-05
1.4573e-05
1.46126e-05
1.46412e-05
1.46572e-05
1.46662e-05
1.46721e-05
1.46768e-05
1.46803e-05
1.46841e-05
1.46854e-05
1.46913e-05
1.46887e-05
1.46973e-05
1.4695e-05
1.46981e-05
1.47015e-05
1.47036e-05
1.47041e-05
1.47057e-05
1.47027e-05
1.47193e-05
1.48392e-05
1.51014e-05
1.48288e-05
1.47208e-05
1.47277e-05
1.47384e-05
1.47327e-05
1.47251e-05
1.4716e-05
1.47022e-05
1.47159e-05
1.46919e-05
1.46451e-05
1.46257e-05
1.46388e-05
1.4662e-05
1.46799e-05
1.46899e-05
1.4695e-05
1.46981e-05
1.47007e-05
1.47028e-05
1.47059e-05
1.47066e-05
1.47127e-05
1.47097e-05
1.47184e-05
1.47182e-05
1.47159e-05
1.47337e-05
1.47077e-05
1.47626e-05
1.46769e-05
1.47982e-05
1.46709e-05
1.4901e-05
1.52e-05
1.49819e-05
1.49267e-05
1.49709e-05
1.49978e-05
1.49951e-05
1.4984e-05
1.49732e-05
1.49559e-05
1.49608e-05
1.49369e-05
1.48872e-05
1.48576e-05
1.48602e-05
1.48782e-05
1.48968e-05
1.49113e-05
1.49223e-05
1.49312e-05
1.49385e-05
1.49441e-05
1.49498e-05
1.4952e-05
1.49591e-05
1.49577e-05
1.49633e-05
1.49719e-05
1.49527e-05
1.49974e-05
1.49367e-05
1.50221e-05
1.49289e-05
1.50177e-05
1.49599e-05
1.49613e-05
1.52544e-05
1.50243e-05
1.49566e-05
1.49939e-05
1.50183e-05
1.50167e-05
1.50017e-05
1.50044e-05
1.4964e-05
1.49967e-05
1.49854e-05
1.49e-05
1.4841e-05
1.48449e-05
1.48779e-05
1.49085e-05
1.49285e-05
1.49412e-05
1.49501e-05
1.49569e-05
1.49621e-05
1.49658e-05
1.49697e-05
1.49707e-05
1.49757e-05
1.49744e-05
1.4978e-05
1.49823e-05
1.49759e-05
1.49861e-05
1.49844e-05
1.49822e-05
1.4989e-05
1.49857e-05
1.50299e-05
1.53247e-05
1.50724e-05
1.4979e-05
1.50008e-05
1.50199e-05
1.50202e-05
1.50028e-05
1.50153e-05
1.49636e-05
1.50035e-05
1.50042e-05
1.49156e-05
1.48473e-05
1.48473e-05
1.48822e-05
1.49158e-05
1.49374e-05
1.49499e-05
1.49577e-05
1.4963e-05
1.49669e-05
1.49695e-05
1.49727e-05
1.49726e-05
1.4978e-05
1.4974e-05
1.49819e-05
1.49768e-05
1.49855e-05
1.49732e-05
1.49939e-05
1.498e-05
1.49743e-05
1.49992e-05
1.50971e-05
1.53826e-05
1.51132e-05
1.50053e-05
1.50191e-05
1.50358e-05
1.5034e-05
1.50229e-05
1.50209e-05
1.49973e-05
1.50115e-05
1.50046e-05
1.49533e-05
1.49112e-05
1.49076e-05
1.49273e-05
1.49491e-05
1.49641e-05
1.49728e-05
1.49778e-05
1.49811e-05
1.49836e-05
1.4985e-05
1.49878e-05
1.49866e-05
1.49935e-05
1.49857e-05
1.5001e-05
1.49827e-05
1.50141e-05
1.4969e-05
1.5033e-05
1.49692e-05
1.50246e-05
1.49748e-05
1.5149e-05
1.54761e-05
1.52556e-05
1.51873e-05
1.52276e-05
1.52561e-05
1.52554e-05
1.52436e-05
1.52321e-05
1.52179e-05
1.52102e-05
1.51945e-05
1.51656e-05
1.5141e-05
1.51324e-05
1.51367e-05
1.51463e-05
1.51561e-05
1.51647e-05
1.5172e-05
1.51779e-05
1.51828e-05
1.51861e-05
1.51903e-05
1.51901e-05
1.51968e-05
1.51914e-05
1.52008e-05
1.51948e-05
1.5204e-05
1.51902e-05
1.52172e-05
1.51842e-05
1.52206e-05
1.51832e-05
1.51903e-05
1.55119e-05
1.52834e-05
1.52078e-05
1.52445e-05
1.52719e-05
1.52722e-05
1.52583e-05
1.52546e-05
1.52285e-05
1.52344e-05
1.52322e-05
1.51809e-05
1.51269e-05
1.51109e-05
1.51248e-05
1.51463e-05