/*--------------------------------*- C++ -*----------------------------------*\
  =========                 |
  \\      /  F ield         | OpenFOAM: The Open Source CFD Toolbox
   \\    /   O peration     | Website:  https://openfoam.org
    \\  /    A nd           | Version:  6
     \\/     M anipulation  |
\*---------------------------------------------------------------------------*/
FoamFile
{
    version     2.0;
    format      ascii;
    class       volScalarField;
    location    "0.6";
    object      omega;
}
// * * * * * * * * * * * * * * * * * * * * * * * * * * * * * * * * * * * * * //

dimensions      [0 0 -1 0 0 0 0];

internalField   nonuniform List<scalar> 
63264
(
843.917
843.917
843.917
843.917
843.917
843.917
843.917
843.917
843.917
843.917
843.917
843.917
843.917
843.917
843.917
843.917
843.917
843.917
843.917
843.917
843.917
843.917
843.917
843.917
843.917
843.917
843.917
843.917
843.917
843.917
843.917
843.917
843.917
843.917
843.917
843.917
843.917
843.917
843.917
843.917
843.917
843.917
843.917
843.917
843.917
843.917
843.917
843.917
843.917
843.917
843.917
843.917
843.917
843.917
843.917
843.917
843.917
843.917
843.917
843.917
843.917
843.917
843.917
843.917
843.917
843.917
843.917
843.917
843.917
843.917
843.917
843.917
843.917
843.917
843.917
843.917
843.917
843.917
843.917
843.917
843.917
843.917
843.917
843.917
843.917
843.917
843.917
843.917
843.917
843.917
843.917
843.917
843.917
843.917
843.917
843.917
843.917
843.917
843.917
843.917
843.917
843.917
843.917
843.917
843.917
843.917
843.917
843.917
843.917
843.917
843.917
843.917
843.917
843.917
843.917
843.917
843.917
843.917
843.917
843.917
843.917
843.917
843.917
843.917
843.917
843.917
843.917
843.917
843.917
843.917
843.917
843.917
843.917
843.917
843.917
843.917
843.917
843.917
843.917
843.917
843.917
843.917
843.917
843.917
843.917
843.917
843.917
843.917
843.917
843.917
843.917
843.917
843.917
843.917
843.917
843.917
843.917
843.917
843.917
843.917
843.917
843.917
843.917
843.917
843.917
843.917
843.917
843.917
843.917
843.917
843.917
843.917
843.917
843.917
843.917
843.917
843.917
843.917
843.917
843.917
843.917
843.917
843.917
843.917
843.917
843.917
843.917
843.917
843.917
843.917
843.917
843.917
843.917
843.917
843.917
843.917
843.917
843.917
843.917
843.917
843.917
843.917
843.917
843.917
843.917
843.917
843.917
843.917
843.917
843.917
843.917
843.917
843.917
843.917
843.917
843.917
843.917
843.917
843.917
843.917
843.917
843.917
843.917
843.917
843.917
843.917
843.917
843.917
843.917
843.917
843.917
843.917
843.917
843.917
843.917
843.917
843.917
843.917
843.917
843.917
843.917
843.917
843.917
843.917
843.917
843.917
843.917
843.917
843.917
843.917
843.917
843.917
843.917
843.917
843.917
843.917
843.917
843.917
843.917
843.917
843.917
843.917
843.917
843.917
843.917
843.917
843.917
843.917
843.917
843.917
843.917
843.917
843.917
843.917
843.917
843.917
843.917
843.917
843.917
843.917
843.917
843.917
843.917
843.917
843.917
843.917
843.917
843.917
843.917
843.917
843.917
843.917
843.917
843.917
843.917
843.917
843.917
843.917
843.917
843.917
843.917
843.917
843.917
843.917
843.917
843.917
843.917
843.917
843.917
843.917
843.917
843.917
843.917
843.917
843.917
843.917
843.917
843.917
843.917
843.917
843.917
843.917
843.917
843.917
843.917
843.917
843.917
843.917
843.917
843.917
843.917
843.917
843.917
843.917
843.917
843.917
843.917
843.917
843.917
843.917
843.917
843.917
843.917
843.917
843.917
843.917
843.917
843.917
843.917
843.917
843.917
843.917
843.917
843.917
843.917
843.917
843.917
843.917
843.917
843.917
843.917
843.917
843.917
843.917
843.917
843.917
843.917
843.917
843.917
843.917
843.917
843.917
843.917
843.917
843.917
843.917
843.917
843.917
843.917
843.917
843.917
843.917
843.917
843.917
843.917
843.917
843.917
843.917
843.917
843.917
843.917
843.917
843.917
843.917
843.917
843.917
843.917
843.917
843.917
843.917
843.917
843.917
843.917
843.917
843.917
843.917
843.917
843.917
843.917
843.917
843.917
843.917
843.917
843.917
843.917
843.917
843.917
843.917
843.917
843.917
843.917
843.917
843.917
843.917
843.917
843.917
843.917
843.917
843.917
843.917
843.917
843.917
843.917
843.917
843.917
843.917
843.917
843.917
843.917
843.917
843.917
843.917
843.917
843.917
843.917
843.917
843.917
843.917
843.917
843.917
843.917
843.917
843.917
843.917
843.917
843.917
843.917
843.917
843.917
843.917
843.917
843.917
843.917
843.917
843.917
843.917
843.917
843.917
843.917
843.917
843.917
843.917
843.917
843.917
843.917
843.917
843.917
843.917
843.917
843.917
843.917
843.917
843.917
843.917
843.917
843.917
843.917
843.917
843.917
843.917
843.917
843.917
843.917
843.917
843.917
843.917
843.917
843.917
843.917
843.917
843.917
843.917
843.917
843.917
843.917
843.917
843.917
843.917
843.917
843.917
843.917
843.917
843.917
843.917
843.917
843.917
843.917
843.917
843.917
843.917
843.917
843.917
843.917
843.917
843.917
843.917
843.917
843.917
843.917
843.917
843.917
843.917
843.917
843.917
843.917
843.917
843.917
843.917
843.917
843.917
843.917
843.917
843.917
843.917
843.917
843.917
843.917
843.917
843.917
843.917
843.917
843.917
843.917
843.917
843.917
843.917
843.917
843.917
843.917
843.917
843.917
843.917
843.917
843.917
843.917
843.917
843.917
843.917
843.917
843.917
843.917
843.917
843.917
843.917
843.917
843.917
843.917
843.917
843.917
843.917
843.917
843.917
843.917
843.917
843.917
843.917
843.917
843.917
843.917
843.917
843.917
843.917
843.917
843.917
843.917
843.917
843.917
843.917
843.917
843.917
843.917
843.917
843.917
843.917
843.917
843.917
843.917
843.917
843.917
843.917
843.917
843.917
843.917
843.917
843.917
843.917
843.917
843.917
843.917
843.917
843.917
843.917
843.917
843.917
843.917
843.917
843.917
843.917
843.917
843.917
843.917
843.917
843.917
843.917
843.917
843.917
843.917
843.917
843.917
843.917
843.917
843.917
843.917
843.917
843.917
843.917
843.917
843.917
843.917
843.917
843.917
843.917
843.917
843.917
843.917
843.917
843.917
843.917
843.917
843.917
843.917
843.917
843.917
843.917
843.917
843.917
843.917
843.917
843.917
843.917
843.917
843.917
843.917
843.917
843.917
843.917
843.917
843.917
843.917
843.917
843.917
843.917
843.917
843.917
843.917
843.917
843.917
843.917
843.917
843.917
843.917
843.917
843.917
843.917
843.917
843.917
843.917
843.917
843.917
843.917
276.393
264.013
266.096
266.65
266.173
265.842
265.747
265.73
265.745
265.655
265.779
266.099
266.218
266.096
265.927
265.825
265.781
265.758
265.739
265.723
265.711
265.704
265.703
265.706
265.714
265.72
265.745
265.751
265.782
265.829
265.849
265.841
265.918
265.836
266.289
276.55
263.571
265.727
266.7
266.505
266.251
266.15
266.125
266.128
266.111
266.186
266.364
266.432
266.334
266.186
266.083
266.037
266.024
266.021
266.017
266.012
266.006
266.002
265.998
265.998
265.994
266.007
265.999
266.013
266.05
266.055
266.025
266.066
265.994
266.215
276.891
263.831
265.922
266.842
266.609
266.336
266.228
266.193
266.195
266.121
266.105
266.391
266.663
266.598
266.366
266.186
266.108
266.085
266.075
266.062
266.048
266.033
266.02
266.009
266.001
265.989
265.995
265.977
265.984
266.013
266.009
265.985
265.958
265.991
266.029
277.089
264.04
266.181
266.996
266.647
266.336
266.234
266.205
266.2
266.128
266.063
266.318
266.637
266.624
266.411
266.229
266.144
266.113
266.091
266.065
266.039
266.014
265.993
265.974
265.957
265.943
265.925
265.923
265.903
265.902
265.915
265.913
265.891
265.861
265.936
277.25
264.148
266.335
267.131
266.751
266.42
266.306
266.269
266.246
266.196
266.161
266.31
266.48
266.479
266.37
266.264
266.2
266.162
266.131
266.098
266.067
266.037
266.011
265.987
265.965
265.947
265.924
265.919
265.892
265.886
265.898
265.883
265.865
265.764
265.962
277.221
263.516
265.622
266.732
266.597
266.349
266.248
266.216
266.203
266.181
266.164
266.264
266.402
266.401
266.287
266.165
266.086
266.045
266.02
266
265.979
265.958
265.936
265.914
265.892
265.872
265.846
265.835
265.801
265.79
265.793
265.771
265.754
265.64
265.72
277.408
263.654
265.71
266.8
266.66
266.408
266.301
266.26
266.237
266.201
266.068
266.079
266.413
266.576
266.44
266.243
266.124
266.077
266.056
266.035
266.011
265.984
265.957
265.93
265.902
265.874
265.848
265.816
265.796
265.762
265.734
265.73
265.699
265.66
265.61
277.482
263.76
265.863
266.895
266.678
266.397
266.294
266.258
266.229
266.193
266.021
265.982
266.349
266.574
266.458
266.258
266.135
266.087
266.063
266.038
266.007
265.974
265.94
265.907
265.874
265.84
265.808
265.77
265.742
265.7
265.665
265.651
265.625
265.543
265.518
277.52
263.796
265.937
266.955
266.719
266.43
266.322
266.283
266.249
266.199
266.098
266.139
266.336
266.436
266.362
266.239
266.151
266.104
266.075
266.045
266.012
265.975
265.938
265.901
265.863
265.825
265.787
265.743
265.71
265.661
265.62
265.591
265.577
265.439
265.473
277.355
263.106
265.093
266.298
266.238
266.018
265.929
265.904
265.893
265.882
265.882
265.928
265.984
265.981
265.92
265.842
265.777
265.731
265.7
265.675
265.651
265.625
265.597
265.568
265.537
265.504
265.472
265.432
265.403
265.355
265.315
265.295
265.261
265.165
265.12
277.437
263.171
265.134
266.332
266.271
266.049
265.956
265.924
265.901
265.867
265.772
265.714
265.876
266.047
266.031
265.914
265.81
265.751
265.72
265.697
265.672
265.643
265.613
265.581
265.547
265.511
265.473
265.434
265.388
265.351
265.295
265.248
265.208
265.155
265.072
277.496
263.239
265.201
266.374
266.28
266.041
265.946
265.912
265.88
265.85
265.677
265.42
265.661
266.031
266.079
265.931
265.799
265.737
265.712
265.692
265.666
265.636
265.602
265.567
265.53
265.49
265.448
265.405
265.353
265.311
265.249
265.194
265.148
265.089
264.981
277.473
263.248
265.249
266.407
266.288
266.036
265.938
265.903
265.868
265.822
265.672
265.518
265.702
265.981
266.027
265.908
265.791
265.731
265.706
265.686
265.659
265.627
265.591
265.553
265.513
265.471
265.425
265.378
265.321
265.273
265.205
265.142
265.092
265.024
264.915
277.435
263.244
265.291
266.446
266.308
266.045
265.943
265.906
265.871
265.817
265.721
265.676
265.78
265.911
265.928
265.858
265.784
265.737
265.71
265.686
265.657
265.624
265.587
265.547
265.504
265.458
265.409
265.358
265.296
265.245
265.171
265.097
265.047
264.957
264.862
277.261
262.756
264.659
265.888
265.85
265.631
265.543
265.518
265.5
265.477
265.456
265.46
265.491
265.509
265.493
265.453
265.411
265.376
265.348
265.325
265.301
265.274
265.245
265.213
265.178
265.14
265.098
265.055
265
264.955
264.887
264.822
264.777
264.693
264.601
277.289
262.772
264.667
265.898
265.863
265.643
265.552
265.522
265.493
265.448
265.354
265.256
265.32
265.48
265.547
265.5
265.427
265.379
265.352
265.332
265.31
265.284
265.254
265.22
265.184
265.145
265.101
265.055
264.998
264.95
264.879
264.809
264.754
264.676
264.554
277.304
262.791
264.685
265.909
265.863
265.638
265.545
265.512
265.476
265.424
265.275
265.017
265.072
265.389
265.563
265.518
265.423
265.365
265.343
265.328
265.308
265.281
265.25
265.215
265.178
265.137
265.092
265.044
264.984
264.934
264.859
264.785
264.727
264.642
264.513
277.304
262.797
264.695
265.916
265.866
265.636
265.541
265.506
265.466
265.413
265.253
264.964
265.01
265.355
265.553
265.51
265.411
265.354
265.334
265.323
265.304
265.277
265.246
265.211
265.172
265.13
265.084
265.035
264.973
264.92
264.843
264.766
264.704
264.615
264.482
277.275
262.79
264.71
265.929
265.869
265.634
265.537
265.502
265.465
265.407
265.288
265.145
265.2
265.401
265.511
265.478
265.405
265.358
265.336
265.32
265.3
265.273
265.242
265.207
265.168
265.125
265.078
265.026
264.97
264.902
264.838
264.755
264.667
264.583
264.481
277.243
262.784
264.723
265.94
265.872
265.633
265.535
265.502
265.469
265.422
265.352
265.307
265.343
265.418
265.451
265.43
265.391
265.36
265.338
265.319
265.296
265.27
265.238
265.203
265.164
265.122
265.074
265.022
264.965
264.897
264.832
264.748
264.659
264.574
264.47
133.967
128.068
128.376
128.883
128.787
128.585
128.48
128.439
128.42
128.373
128.392
128.502
128.586
128.578
128.521
128.469
128.438
128.421
128.409
128.399
128.393
128.39
128.39
128.394
128.399
128.408
128.419
128.431
128.449
128.475
128.487
128.513
128.523
128.539
128.667
134.155
128.104
128.532
129.308
129.401
129.257
129.147
129.093
129.067
129.042
129.055
129.112
129.14
129.103
129.036
128.984
128.961
128.957
128.961
128.964
128.965
128.966
128.966
128.968
128.97
128.975
128.98
128.987
128.998
129.023
129.024
129.055
129.037
129.09
129.124
134.437
128.377
128.727
129.439
129.499
129.346
129.233
129.176
129.149
129.097
129.073
129.17
129.283
129.288
129.201
129.107
129.052
129.032
129.025
129.018
129.011
129.003
128.995
128.99
128.984
128.981
128.979
128.976
128.981
128.989
128.998
128.985
128.999
128.984
129.057
134.645
128.608
128.938
129.562
129.542
129.36
129.25
129.198
129.17
129.119
129.076
129.164
129.292
129.32
129.246
129.153
129.093
129.063
129.045
129.027
129.009
128.993
128.978
128.964
128.953
128.942
128.934
128.926
128.919
128.917
128.92
128.919
128.92
128.899
128.964
134.85
128.814
129.106
129.685
129.637
129.443
129.328
129.271
129.235
129.193
129.166
129.215
129.288
129.304
129.263
129.205
129.159
129.125
129.098
129.073
129.049
129.027
129.008
128.99
128.975
128.96
128.948
128.936
128.925
128.919
128.916
128.911
128.898
128.864
128.923
134.905
128.782
129.16
129.932
130.032
129.889
129.774
129.709
129.67
129.634
129.606
129.637
129.678
129.668
129.607
129.536
129.483
129.452
129.432
129.416
129.399
129.381
129.363
129.344
129.326
129.306
129.29
129.273
129.253
129.247
129.227
129.237
129.19
129.195
129.177
135.08
128.949
129.273
130.009
130.1
129.957
129.842
129.774
129.731
129.69
129.604
129.653
129.767
129.816
129.75
129.637
129.551
129.504
129.478
129.456
129.434
129.409
129.384
129.359
129.334
129.309
129.283
129.26
129.235
129.209
129.19
129.167
129.153
129.11
129.112
135.197
129.085
129.399
130.085
130.125
129.963
129.85
129.788
129.744
129.705
129.598
129.641
129.769
129.839
129.78
129.665
129.573
129.52
129.489
129.46
129.43
129.399
129.367
129.336
129.305
129.275
129.242
129.213
129.181
129.15
129.119
129.098
129.066
129.025
129.012
135.305
129.209
129.499
130.151
130.174
130.006
129.892
129.829
129.783
129.737
129.679
129.701
129.772
129.801
129.755
129.673
129.601
129.551
129.514
129.48
129.445
129.409
129.373
129.337
129.301
129.267
129.229
129.195
129.156
129.123
129.078
129.059
129.008
128.965
128.937
135.281
129.18
129.527
130.28
130.388
130.254
130.141
130.072
130.024
129.984
129.953
129.946
129.943
129.915
129.861
129.799
129.744
129.7
129.664
129.632
129.599
129.565
129.529
129.492
129.452
129.413
129.371
129.331
129.286
129.243
129.198
129.164
129.115
129.06
129.021
135.373
129.268
129.59
130.327
130.432
130.299
130.186
130.116
130.065
130.02
129.946
129.955
130.014
130.038
129.987
129.893
129.803
129.739
129.694
129.657
129.619
129.58
129.539
129.496
129.453
129.407
129.362
129.312
129.265
129.213
129.161
129.108
129.061
128.996
128.953
135.452
129.346
129.653
130.364
130.447
130.305
130.192
130.123
130.069
130.036
129.893
129.918
130.028
130.1
130.053
129.932
129.817
129.741
129.693
129.653
129.612
129.568
129.523
129.476
129.428
129.378
129.327
129.273
129.22
129.163
129.105
129.046
128.993
128.923
128.866
135.496
129.41
129.71
130.399
130.462
130.311
130.197
130.129
130.076
130.031
129.928
129.934
130.021
130.078
130.037
129.929
129.822
129.746
129.694
129.65
129.605
129.558
129.509
129.458
129.406
129.351
129.297
129.238
129.181
129.118
129.055
128.99
128.932
128.855
128.794
135.533
129.469
129.767
130.441
130.49
130.332
130.216
130.148
130.095
130.044
129.981
129.971
130.008
130.026
129.986
129.908
129.826
129.759
129.705
129.657
129.609
129.558
129.506
129.452
129.396
129.338
129.28
129.218
129.156
129.09
129.02
128.952
128.887
128.803
128.738
135.48
129.463
129.793
130.498
130.583
130.441
130.326
130.254
130.2
130.15
130.106
130.079
130.06
130.029
129.979
129.917
129.854
129.797
129.745
129.695
129.645
129.593
129.539
129.482
129.423
129.361
129.298
129.231
129.163
129.093
129.015
128.945
128.866
128.789
128.702
135.512
129.489
129.812
130.516
130.604
130.464
130.349
130.275
130.218
130.165
130.093
130.075
130.107
130.118
130.074
129.988
129.896
129.819
129.759
129.706
129.653
129.599
129.542
129.483
129.421
129.357
129.291
129.22
129.151
129.075
128.997
128.917
128.841
128.752
128.663
135.536
129.512
129.83
130.527
130.608
130.466
130.351
130.278
130.218
130.172
130.054
130.044
130.124
130.173
130.136
130.029
129.912
129.821
129.757
129.703
129.65
129.594
129.534
129.473
129.409
129.342
129.275
129.201
129.129
129.051
128.97
128.888
128.808
128.719
128.622
135.554
129.534
129.848
130.538
130.615
130.47
130.354
130.28
130.22
130.176
130.048
130.038
130.127
130.183
130.147
130.035
129.913
129.819
129.754
129.7
129.646
129.588
129.528
129.465
129.399
129.331
129.262
129.187
129.113
129.032
128.949
128.865
128.782
128.691
128.591
135.559
129.551
129.866
130.552
130.621
130.472
130.355
130.282
130.223
130.169
130.087
130.066
130.111
130.136
130.097
130.005
129.904
129.82
129.755
129.699
129.643
129.585
129.523
129.459
129.393
129.324
129.252
129.179
129.1
129.021
128.937
128.849
128.76
128.669
128.574
135.563
129.567
129.883
130.562
130.625
130.473
130.355
130.282
130.225
130.17
130.114
130.085
130.084
130.072
130.028
129.959
129.884
129.816
129.755
129.698
129.641
129.582
129.521
129.457
129.39
129.32
129.248
129.174
129.094
129.015
128.93
128.841
128.752
128.66
128.564
79.5464
76.9077
76.6268
76.9006
76.9539
76.8696
76.7948
76.7558
76.7252
76.7034
76.6823
76.6837
76.719
76.7526
76.76
76.7492
76.7357
76.726
76.7196
76.7154
76.713
76.7126
76.7136
76.7169
76.7189
76.7272
76.7292
76.7379
76.7479
76.76
76.755
76.7939
76.7586
76.8268
76.7932
79.7119
77.0323
76.8524
77.3035
77.4875
77.4488
77.3737
77.324
77.2927
77.2709
77.2586
77.2556
77.2562
77.2481
77.2305
77.2142
77.2076
77.2101
77.2163
77.2221
77.2263
77.2294
77.2316
77.235
77.2359
77.243
77.2427
77.2501
77.2554
77.2725
77.2548
77.3077
77.2539
77.3423
77.2937
79.9121
77.2456
77.0089
77.4052
77.5652
77.5226
77.4486
77.3991
77.3659
77.3331
77.3031
77.3009
77.3306
77.3601
77.3548
77.3252
77.2984
77.2856
77.2821
77.2811
77.2794
77.277
77.274
77.2726
77.2683
77.2707
77.2656
77.2652
77.2718
77.2667
77.2762
77.2596
77.2853
77.2563
77.3052
80.0821
77.4219
77.1599
77.4958
77.6014
77.5366
77.4628
77.4179
77.3867
77.3531
77.3201
77.317
77.3489
77.3857
77.3886
77.3627
77.3342
77.3156
77.3043
77.2954
77.2867
77.2784
77.271
77.2641
77.2593
77.2518
77.2509
77.2426
77.2409
77.2394
77.2399
77.2328
77.239
77.2238
77.2647
80.2652
77.6065
77.299
77.5902
77.6745
77.6036
77.5281
77.4809
77.4481
77.4167
77.3945
77.3931
77.4129
77.4333
77.4345
77.4179
77.3957
77.3759
77.3595
77.345
77.3319
77.3202
77.31
77.3006
77.2937
77.2838
77.2814
77.2705
77.2667
77.2642
77.2578
77.2579
77.2365
77.2525
77.221
80.3342
77.6774
77.4717
77.9021
78.0875
78.0541
77.9796
77.9248
77.8877
77.8562
77.83
77.8241
77.8259
77.8205
77.8006
77.7726
77.748
77.732
77.7224
77.7152
77.7077
77.6992
77.6902
77.6803
77.6719
77.6598
77.6541
77.6424
77.6299
77.6353
77.6069
77.6348
77.5754
77.6215
77.5812
80.4631
77.8148
77.5694
77.9661
78.1421
78.1108
78.0386
77.984
77.9451
77.9129
77.8553
77.8638
77.8962
77.9211
77.9101
77.8675
77.8216
77.7902
77.7722
77.7599
77.7481
77.7354
77.722
77.7085
77.6943
77.6815
77.6656
77.6542
77.6393
77.6214
77.6169
77.594
77.5897
77.5592
77.5625
80.568
77.9212
77.6603
78.0219
78.1648
78.1194
78.0478
77.9968
77.9597
77.9291
77.8627
77.8725
77.9115
77.9432
77.9363
77.8937
77.8451
77.8098
77.7873
77.7699
77.7529
77.7354
77.7177
77.7004
77.6826
77.6664
77.6467
77.6329
77.6121
77.5961
77.5779
77.5688
77.5415
77.5235
77.5247
80.6806
78.0392
77.7479
78.0764
78.2039
78.1558
78.0852
78.0348
77.9984
77.963
77.9278
77.9244
77.9426
77.9562
77.9458
77.9133
77.8752
77.8432
77.8183
77.7967
77.7759
77.7552
77.7346
77.7146
77.6942
77.6758
77.653
77.6381
77.6113
77.5987
77.5652
77.5711
77.5149
77.5176
77.4804
80.7063
78.1079
77.905
78.3152
78.5001
78.4745
78.4037
78.3471
78.3057
78.2712
78.2424
78.2249
78.2103
78.1879
78.158
78.1258
78.0966
78.0726
78.0527
78.0345
78.0162
77.9968
77.9762
77.9548
77.9318
77.9101
77.8834
77.8635
77.8348
77.8111
77.7852
77.7679
77.7312
77.7095
77.6819
80.7786
78.1825
77.9606
78.3554
78.5369
78.5135
78.4448
78.3887
78.3461
78.3109
78.259
78.2573
78.278
78.2823
78.2578
78.2111
78.1602
78.1187
78.0883
78.0641
78.0415
78.0184
77.9943
77.9693
77.9438
77.9168
77.8912
77.8606
77.8361
77.8032
77.775
77.7434
77.7189
77.6739
77.6567
80.8424
78.2432
78.0073
78.3833
78.5499
78.52
78.451
78.3968
78.3523
78.3293
78.2315
78.2546
78.3149
78.3392
78.3139
78.2525
78.1846
78.1316
78.0952
78.0675
78.0418
78.0155
77.9882
77.9602
77.9319
77.9021
77.8738
77.8403
77.8131
77.7774
77.7461
77.712
77.6852
77.6375
77.6149
80.9006
78.3034
78.0542
78.4103
78.562
78.5262
78.457
78.4036
78.3619
78.3298
78.2627
78.2672
78.3102
78.3308
78.3096
78.2554
78.1924
78.1401
78.1016
78.0709
78.0422
78.0131
77.9832
77.9526
77.9217
77.8894
77.8588
77.8226
77.7931
77.7547
77.7207
77.6833
77.6553
77.6029
77.58
80.9574
78.3618
78.1014
78.4432
78.5854
78.5456
78.4759
78.4227
78.3826
78.3459
78.3065
78.2964
78.3085
78.3112
78.2897
78.2482
78.1994
78.1546
78.1169
78.0839
78.0525
78.021
77.9889
77.9563
77.9234
77.8891
77.8565
77.8184
77.7862
77.7474
77.7078
77.6727
77.6369
77.5868
77.5542
80.9546
78.4145
78.2155
78.5916
78.7564
78.7264
78.6561
78.599
78.5551
78.5171
78.4833
78.4594
78.4406
78.4162
78.383
78.3447
78.3057
78.269
78.2351
78.2031
78.1714
78.1389
78.1054
78.0705
78.0348
77.997
77.9607
77.9182
77.8815
77.839
77.7917
77.7587
77.7065
77.6688
77.6151
80.9793
78.439
78.2339
78.6074
78.7741
78.7463
78.6768
78.6195
78.5745
78.5363
78.4874
78.4758
78.4935
78.4936
78.4625
78.4098
78.3511
78.2985
78.2551
78.2182
78.1837
78.1491
78.1136
78.0768
78.0393
77.9997
77.9618
77.9172
77.8798
77.833
77.7888
77.745
77.7031
77.6489
77.604
80.9996
78.4568
78.2473
78.6159
78.7785
78.7491
78.6797
78.6234
78.5767
78.5463
78.4666
78.469
78.5321
78.5554
78.5221
78.4532
78.3758
78.3101
78.2601
78.2202
78.1839
78.1477
78.1105
78.0722
78.0333
77.9923
77.9531
77.9071
77.8685
77.8206
77.7744
77.7306
77.6857
77.6332
77.5841
81.0197
78.4768
78.262
78.6245
78.7832
78.7521
78.6824
78.6263
78.5791
78.551
78.4652
78.4697
78.5427
78.5708
78.5365
78.4636
78.3819
78.313
78.2613
78.2205
78.1833
78.1461
78.1079
78.0686
78.0286
77.9866
77.9464
77.8994
77.8597
77.8109
77.7635
77.7189
77.6726
77.6195
77.5684
81.0362
78.494
78.2767
78.6343
78.7884
78.7546
78.6842
78.6279
78.5835
78.5462
78.4936
78.4838
78.5142
78.5241
78.4946
78.4368
78.3704
78.3107
78.262
78.2211
78.1831
78.1452
78.1063
78.0664
78.0255
77.9838
77.9403
77.8978
77.8501
77.8069
77.7581
77.7082
77.6619
77.6119
77.5598
81.0521
78.5106
78.2904
78.6426
78.7921
78.756
78.6851
78.629
78.5857
78.5473
78.5103
78.4912
78.487
78.475
78.4448
78.4005
78.3511
78.3036
78.2606
78.2211
78.183
78.1446
78.1055
78.0654
78.0242
77.9823
77.9383
77.8955
77.8475
77.8039
77.7547
77.7045
77.6577
77.6078
77.5549
52.9021
51.653
51.3226
51.4333
51.5042
51.4789
51.435
51.4068
51.3799
51.3704
51.3468
51.319
51.3292
51.3642
51.389
51.3941
51.3893
51.3836
51.3798
51.3777
51.3768
51.3769
51.3777
51.3801
51.3804
51.3865
51.3855
51.3904
51.3948
51.4044
51.384
51.4335
51.3686
51.4633
51.3744
53.0391
51.7853
51.5299
51.7584
51.9206
51.932
51.8911
51.8555
51.8295
51.8139
51.7984
51.7788
51.769
51.7691
51.7696
51.7685
51.7692
51.7735
51.7797
51.7856
51.7903
51.7938
51.7964
51.7999
51.8002
51.8067
51.8045
51.8111
51.8101
51.8301
51.7946
51.8599
51.7861
51.8843
51.8053
53.1847
51.9461
51.652
51.8388
51.9826
51.992
51.9535
51.9196
51.8917
51.8729
51.8491
51.8194
51.8182
51.8462
51.8665
51.8644
51.8529
51.8451
51.8432
51.844
51.8448
51.845
51.8444
51.8451
51.8422
51.8458
51.8419
51.8403
51.8483
51.8385
51.8483
51.8293
51.8529
51.8303
51.8567
53.3178
52.0753
51.7593
51.9053
52.0116
52.0038
51.9637
51.9333
51.9083
51.8884
51.8677
51.8399
51.8374
51.867
51.8922
51.8939
51.8824
51.8713
51.8644
51.8599
51.8561
51.8525
51.8494
51.8463
51.845
51.8404
51.8423
51.8363
51.8364
51.8354
51.8367
51.8287
51.8329
51.8248
51.8466
53.4653
52.2257
51.8723
51.9803
52.0689
52.0571
52.0171
51.9857
51.9619
51.941
51.9267
51.9123
51.913
51.9302
51.9449
51.9461
51.9374
51.9264
51.9167
51.9088
51.9021
51.8964
51.8917
51.8874
51.8852
51.8794
51.8812
51.8739
51.873
51.8739
51.8661
51.876
51.8384
51.8912
51.8164
53.5313
52.31
52.0405
52.2502
52.4126
52.4309
52.3937
52.357
52.3294
52.3072
52.2881
52.2721
52.2622
52.2598
52.2575
52.2503
52.2413
52.2347
52.2314
52.2297
52.228
52.2256
52.2227
52.2189
52.2165
52.2104
52.2099
52.2053
52.1944
52.2103
52.1769
52.2178
52.1547
52.2105
52.17
53.6263
52.4175
52.1215
52.3036
52.4569
52.4771
52.4426
52.4077
52.3789
52.3573
52.323
52.3107
52.3139
52.3307
52.342
52.3328
52.3115
52.2925
52.2811
52.2748
52.27
52.2649
52.2594
52.2537
52.2473
52.2422
52.2342
52.2297
52.2239
52.2112
52.2149
52.1997
52.1959
52.183
52.178
53.7118
52.4973
52.1867
52.345
52.4758
52.4851
52.4498
52.4175
52.3911
52.3703
52.3342
52.3239
52.3296
52.3488
52.3627
52.3549
52.3329
52.3117
52.2972
52.2874
52.2791
52.2709
52.2628
52.2548
52.2465
52.2399
52.2295
52.2253
52.214
52.208
52.1967
52.1997
52.1782
52.1701
52.1801
53.807
52.5962
52.2606
52.3908
52.5081
52.5151
52.4816
52.4498
52.4253
52.4017
52.3821
52.3713
52.3708
52.3795
52.3854
52.3783
52.3615
52.3436
52.3288
52.3167
52.306
52.2957
52.2859
52.2765
52.2668
52.2596
52.2472
52.2445
52.2272
52.2297
52.201
52.2259
52.1736
52.1962
52.1586
53.846
52.6725
52.4127
52.6097
52.7714
52.7966
52.7643
52.728
52.6995
52.6757
52.6553
52.6397
52.626
52.6115
52.5967
52.5826
52.57
52.5598
52.5516
52.5443
52.5369
52.5289
52.5201
52.5108
52.5003
52.4915
52.4778
52.4712
52.4563
52.4466
52.4329
52.432
52.4044
52.4061
52.3796
53.9007
52.7324
52.4597
52.6438
52.8019
52.8291
52.7988
52.7638
52.7345
52.711
52.6789
52.6688
52.6729
52.6759
52.6707
52.6536
52.6293
52.6062
52.5886
52.5757
52.5648
52.5542
52.5432
52.5316
52.52
52.5072
52.4964
52.4805
52.4718
52.4545
52.4426
52.4272
52.4185
52.3933
52.3881
53.9503
52.7779
52.4938
52.6643
52.8118
52.8343
52.8033
52.7705
52.7396
52.7245
52.6686
52.6693
52.6975
52.7144
52.7122
52.6895
52.6552
52.6231
52.5996
52.583
52.5695
52.5567
52.5437
52.5304
52.5172
52.5029
52.4908
52.4736
52.4636
52.4454
52.4323
52.4156
52.4077
52.3811
52.3732
54.0028
52.8281
52.531
52.6851
52.8211
52.8388
52.8079
52.7752
52.7477
52.7268
52.689
52.6831
52.7001
52.7135
52.7127
52.6938
52.663
52.6323
52.6079
52.5895
52.574
52.5593
52.5446
52.5298
52.5152
52.4996
52.4864
52.4679
52.457
52.4377
52.4236
52.4051
52.3984
52.3683
52.3616
54.0558
52.8783
52.5692
52.7112
52.8403
52.8554
52.8244
52.792
52.7664
52.7431
52.7206
52.7113
52.7133
52.7153
52.7101
52.6944
52.6709
52.6459
52.6236
52.6047
52.5877
52.5715
52.5555
52.5395
52.5239
52.5073
52.4932
52.4741
52.4614
52.4439
52.4246
52.4116
52.397
52.3744
52.3555
54.0696
52.9304
52.6749
52.8507
52.9992
53.0225
52.9919
52.9568
52.9281
52.9039
52.8825
52.8665
52.8542
52.8403
52.8232
52.8039
52.784
52.765
52.7476
52.7313
52.7156
52.6998
52.6836
52.6669
52.65
52.6317
52.6158
52.5945
52.5789
52.5609
52.5345
52.5276
52.4978
52.4878
52.4568
54.0882
52.9511
52.6913
52.8643
53.0137
53.0389
53.0093
52.9745
52.9451
52.921
52.8914
52.8802
52.8879
52.891
52.8797
52.8559
52.8254
52.7952
52.7695
52.7484
52.73
52.7124
52.6949
52.677
52.6591
52.6397
52.6231
52.6003
52.5856
52.563
52.5427
52.5238
52.5078
52.4813
52.4612
54.1044
52.9647
52.7013
52.8707
53.0172
53.0412
53.0114
52.9776
52.9469
52.9282
52.8821
52.8754
52.9108
52.9323
52.9235
52.8921
52.8502
52.81
52.7777
52.753
52.7327
52.7139
52.6952
52.6763
52.6576
52.6375
52.6203
52.5968
52.5815
52.5588
52.5371
52.5193
52.5013
52.4768
52.4551
54.1217
52.9812
52.713
52.8771
53.0204
53.0432
53.0133
52.9798
52.949
52.9318
52.8828
52.8769
52.9185
52.9439
52.9354
52.902
52.8574
52.8148
52.7809
52.7552
52.7341
52.7145
52.6952
52.6757
52.6564
52.6357
52.618
52.5941
52.5782
52.5553
52.5331
52.515
52.4966
52.472
52.4496
54.1385
52.996
52.7241
52.8842
53.0242
53.0452
53.0149
52.981
52.9527
52.9298
52.8993
52.8897
52.9053
52.9156
52.9068
52.8811
52.8462
52.811
52.7809
52.7563
52.7351
52.7151
52.6954
52.6756
52.6555
52.6357
52.6147
52.5959
52.5727
52.5545
52.5329
52.5097
52.4913
52.4713
52.4486
54.1549
53.0105
52.7348
52.8904
53.0271
53.0464
53.0159
52.9821
52.9548
52.9313
52.9097
52.8978
52.895
52.8903
52.8773
52.8562
52.8302
52.8034
52.7786
52.7562
52.7355
52.7155
52.6957
52.6757
52.6555
52.6355
52.6144
52.5954
52.572
52.5537
52.5318
52.5086
52.4899
52.4702
52.447
37.7357
37.1026
36.8717
36.9094
36.9594
36.9551
36.9319
36.9136
36.8957
36.8911
36.8738
36.8506
36.8562
36.8835
36.9051
36.9109
36.9075
36.9025
36.899
36.8969
36.8958
36.8954
36.8954
36.8964
36.8958
36.8992
36.8974
36.9
36.8991
36.9112
36.8799
36.9359
36.8574
36.9538
36.8614
37.8469
37.2179
37.039
37.155
37.2692
37.2942
37.2758
37.2534
37.2357
37.2258
37.2137
37.197
37.189
37.1912
37.1951
37.1967
37.1979
37.2008
37.2051
37.2094
37.213
37.2157
37.2177
37.2202
37.22
37.2249
37.2217
37.2286
37.2201
37.2468
37.1986
37.2699
37.1887
37.2816
37.1989
37.9564
37.3395
37.1348
37.2204
37.3202
37.3435
37.3274
37.3068
37.288
37.2786
37.2616
37.2351
37.2319
37.2553
37.2765
37.28
37.2729
37.2662
37.2638
37.264
37.2649
37.2655
37.2656
37.2663
37.2646
37.267
37.2649
37.2619
37.2696
37.2587
37.2684
37.2504
37.2665
37.2524
37.2652
38.0615
37.4349
37.2117
37.2698
37.3436
37.3534
37.3348
37.3169
37.3001
37.2903
37.2777
37.253
37.2483
37.2722
37.297
37.3036
37.297
37.2884
37.2827
37.2794
37.2771
37.2753
37.2737
37.2723
37.272
37.2692
37.2712
37.2672
37.2677
37.2664
37.268
37.2619
37.2629
37.2596
37.2681
38.1782
37.5541
37.3034
37.3316
37.3905
37.397
37.3786
37.3605
37.3455
37.3335
37.3249
37.3129
37.3124
37.3275
37.3432
37.3482
37.3439
37.3364
37.3297
37.3244
37.3204
37.3174
37.315
37.313
37.3125
37.3092
37.3117
37.3073
37.3069
37.3099
37.2992
37.3198
37.2695
37.339
37.2527
38.2355
37.6275
37.4372
37.5381
37.6519
37.6831
37.6689
37.648
37.6299
37.6169
37.6045
37.5907
37.5828
37.5839
37.5874
37.5869
37.5833
37.58
37.5788
37.5789
37.5793
37.5794
37.5791
37.5783
37.5783
37.576
37.5762
37.5777
37.5651
37.5883
37.551
37.5984