/*--------------------------------*- C++ -*----------------------------------*\
  =========                 |
  \\      /  F ield         | OpenFOAM: The Open Source CFD Toolbox
   \\    /   O peration     | Website:  https://openfoam.org
    \\  /    A nd           | Version:  6
     \\/     M anipulation  |
\*---------------------------------------------------------------------------*/
FoamFile
{
    version     2.0;
    format      ascii;
    class       surfaceScalarField;
    location    "0.6";
    object      phi;
}
// * * * * * * * * * * * * * * * * * * * * * * * * * * * * * * * * * * * * * //

dimensions      [0 3 -1 0 0 0 0];

internalField   nonuniform List<scalar> 
184155
(
1.04029e-06
-2.86373e-09
-3.07196e-07
7.31652e-09
1.06823e-06
-1.78427e-08
-3.51663e-08
2.50727e-08
1.04975e-06
-2.64587e-08
1.13128e-08
3.36263e-08
1.03741e-06
-2.71117e-08
6.88342e-09
3.25651e-08
1.03175e-06
-2.29269e-08
1.87634e-09
2.67165e-08
1.0285e-06
-1.8119e-08
4.24124e-10
2.09372e-08
1.02596e-06
-1.45912e-08
1.81972e-10
1.69539e-08
1.0235e-06
-1.23323e-08
3.17088e-10
1.44691e-08
1.02164e-06
-1.09888e-08
-1.11461e-10
1.29604e-08
1.01987e-06
-1.02667e-08
-5.24258e-11
1.20954e-08
1.01656e-06
-9.95041e-09
1.61218e-09
1.16452e-08
1.01289e-06
-1.00031e-08
2.06539e-09
1.16111e-08
1.01071e-06
-1.03386e-08
5.45455e-10
1.19659e-08
1.00979e-06
-1.08859e-08
-7.96175e-10
1.26057e-08
1.00903e-06
-1.16165e-08
-1.04743e-09
1.34204e-08
1.00794e-06
-1.25064e-08
-7.33185e-10
1.43373e-08
1.00654e-06
-1.35402e-08
-4.0244e-10
1.53377e-08
1.00504e-06
-1.46978e-08
-2.19043e-10
1.64232e-08
1.00355e-06
-1.59521e-08
-1.51173e-10
1.75903e-08
1.00214e-06
-1.72792e-08
-1.404e-10
1.88292e-08
1.00083e-06
-1.86608e-08
-1.51193e-10
2.01246e-08
9.99614e-07
-2.00847e-08
-1.67191e-10
2.14644e-08
9.98515e-07
-2.15368e-08
-1.91854e-10
2.28277e-08
9.97519e-07
-2.30071e-08
-2.02448e-10
2.42052e-08
9.9668e-07
-2.44776e-08
-2.54757e-10
2.55721e-08
9.95945e-07
-2.59405e-08
-2.47824e-10
2.69224e-08
9.95401e-07
-2.7371e-08
-3.06539e-10
2.82222e-08
9.9505e-07
-2.8769e-08
-3.67879e-10
2.94875e-08
9.94812e-07
-3.01095e-08
-3.07341e-10
3.06552e-08
9.94755e-07
-3.13897e-08
-3.45178e-10
3.17921e-08
9.9542e-07
-3.26063e-08
-7.70142e-10
3.27113e-08
9.9596e-07
-3.37476e-08
-4.79956e-10
3.36868e-08
9.9774e-07
-3.50179e-08
-8.81e-10
3.4119e-08
9.9884e-07
-3.58911e-08
-2.14368e-10
3.50058e-08
-3.81877e-08
2.21184e-09
1.00081e-06
3.40074e-08
1.0542e-06
-7.20843e-10
-3.15756e-07
1.09114e-06
-1.53617e-08
-3.94143e-08
1.07834e-06
-2.38454e-08
1.01845e-08
1.06851e-06
-2.43048e-08
7.02084e-09
1.06356e-06
-2.01387e-08
2.1632e-09
1.06035e-06
-1.55434e-08
6.36847e-10
1.05765e-06
-1.2251e-08
3.54345e-10
1.05511e-06
-1.0169e-08
3.80861e-10
1.05278e-06
-8.90351e-09
2.46925e-10
1.05037e-06
-8.18267e-09
3.27013e-10
1.04705e-06
-7.92601e-09
1.29011e-09
1.04341e-06
-8.08344e-09
1.72586e-09
1.04084e-06
-8.49607e-09
7.23069e-10
1.03958e-06
-9.1339e-09
-4.89354e-10
1.03894e-06
-1.00008e-08
-9.72959e-10
1.03834e-06
-1.10295e-08
-8.81947e-10
1.03758e-06
-1.21543e-08
-6.21606e-10
1.03663e-06
-1.33475e-08
-4.03582e-10
1.03555e-06
-1.4608e-08
-2.69262e-10
1.03441e-06
-1.59396e-08
-1.99507e-10
1.03326e-06
-1.73392e-08
-1.68712e-10
1.03213e-06
-1.87955e-08
-1.57043e-10
1.03105e-06
-2.02959e-08
-1.64931e-10
1.03003e-06
-2.18242e-08
-1.61188e-10
1.02913e-06
-2.33699e-08
-2.07466e-10
1.0283e-06
-2.49129e-08
-1.93733e-10
1.02762e-06
-2.6449e-08
-2.47707e-10
1.02712e-06
-2.79422e-08
-3.20397e-10
1.02666e-06
-2.94138e-08
-2.41798e-10
1.02627e-06
-3.07752e-08
-2.21275e-10
1.02654e-06
-3.21332e-08
-7.40224e-10
1.02655e-06
-3.32553e-08
-5.04558e-10
1.02711e-06
-3.45941e-08
-9.88853e-10
1.0268e-06
-3.51688e-08
-4.10996e-10
-3.74187e-08
-9.40205e-10
1.02697e-06
1.06004e-06
1.49104e-09
-3.14636e-07
1.09639e-06
-1.25517e-08
-3.91685e-08
1.08258e-06
-2.04216e-08
1.03895e-08
1.07215e-06
-2.07336e-08
6.86377e-09
1.06707e-06
-1.69441e-08
1.88361e-09
1.06396e-06
-1.29065e-08
4.73557e-10
1.0615e-06
-1.0069e-08
2.7879e-10
1.0592e-06
-8.2717e-09
3.93959e-10
1.05737e-06
-7.16583e-09
9.94574e-11
1.05613e-06
-6.52974e-09
-4.19484e-10
1.05341e-06
-6.29035e-09
1.08706e-09
1.0487e-06
-6.45318e-09
3.08245e-09
1.04503e-06
-6.93244e-09
2.10627e-09
1.04384e-06
-7.66925e-09
-2.77066e-10
1.04382e-06
-8.61409e-09
-1.36823e-09
1.04371e-06
-9.6859e-09
-1.23093e-09
1.04314e-06
-1.08252e-08
-7.59815e-10
1.04222e-06
-1.20174e-08
-4.08803e-10
1.04111e-06
-1.32742e-08
-2.27319e-10
1.03993e-06
-1.46072e-08
-1.51197e-10
1.03874e-06
-1.60179e-08
-1.26428e-10
1.03756e-06
-1.74956e-08
-1.20526e-10
1.03643e-06
-1.903e-08
-1.34755e-10
1.03534e-06
-2.06024e-08
-1.31601e-10
1.03436e-06
-2.22051e-08
-1.84714e-10
1.03343e-06
-2.38189e-08
-1.66959e-10
1.03264e-06
-2.54368e-08
-2.23141e-10
1.03205e-06
-2.70369e-08
-3.16727e-10
1.03143e-06
-2.8618e-08
-1.76102e-10
1.03108e-06
-3.01473e-08
-2.7133e-10
1.03113e-06
-3.16445e-08
-5.47786e-10
1.03168e-06
-3.29912e-08
-8.13426e-10
1.0321e-06
-3.43088e-08
-6.9978e-10
1.03292e-06
-3.53019e-08
-6.85139e-10
-3.61953e-08
-1.15175e-09
1.03284e-06
1.06697e-06
4.07602e-09
-3.18889e-07
1.10175e-06
-8.07752e-09
-3.92585e-08
1.08556e-06
-1.57131e-08
1.14798e-08
1.07419e-06
-1.69726e-08
7.61499e-09
1.06929e-06
-1.4248e-08
2.19803e-09
1.06668e-06
-1.08629e-08
5.73503e-10
1.06462e-06
-8.32682e-09
3.13283e-10
1.06268e-06
-6.68472e-09
3.54308e-10
1.06108e-06
-5.69667e-09
1.28585e-10
1.06027e-06
-5.18403e-09
-5.38003e-10
1.05834e-06
-4.9999e-09
6.39804e-10
1.05406e-06
-5.12942e-09
2.95933e-09
1.05031e-06
-5.59269e-09
2.4136e-09
1.04902e-06
-6.33155e-09
-5.39593e-11
1.04902e-06
-7.25402e-09
-1.35914e-09
1.04891e-06
-8.2903e-09
-1.28653e-09
1.04827e-06
-9.41213e-09
-7.72301e-10
1.04724e-06
-1.06181e-08
-3.6956e-10
1.04604e-06
-1.19083e-08
-1.63003e-10
1.04479e-06
-1.32772e-08
-8.13333e-11
1.04355e-06
-1.47173e-08
-5.74763e-11
1.04233e-06
-1.622e-08
-5.74913e-11
1.04114e-06
-1.77782e-08
-6.4849e-11
1.04001e-06
-1.93809e-08
-8.57164e-11
1.03891e-06
-2.10199e-08
-8.89844e-11
1.03792e-06
-2.26829e-08
-1.42116e-10
1.03697e-06
-2.4359e-08
-1.33962e-10
1.03616e-06
-2.60376e-08
-1.85945e-10
1.03551e-06
-2.77014e-08
-2.64091e-10
1.03489e-06
-2.93495e-08
-1.78579e-10
1.03446e-06
-3.09509e-08
-2.63405e-10
1.03441e-06
-3.24929e-08
-4.4998e-10
1.03469e-06
-3.39546e-08
-6.38425e-10
1.03524e-06
-3.52923e-08
-5.53276e-10
-3.61929e-08
-8.49932e-11
1.03532e-06
1.07381e-06
6.51137e-09
-3.25579e-07
1.10771e-06
-3.15896e-09
-3.88203e-08
1.09009e-06
-1.0407e-08
1.23146e-08
1.07804e-06
-1.27028e-08
7.77915e-09
1.07294e-06
-1.12483e-08
2.09916e-09
1.07033e-06
-8.72435e-09
4.73115e-10
1.06836e-06
-6.64612e-09
2.86219e-10
1.06663e-06
-5.25475e-09
3.04239e-10
1.06519e-06
-4.43544e-09
1.79133e-10
1.06418e-06
-4.04551e-09
-1.33602e-10
1.06259e-06
-3.99136e-09
5.80186e-10
1.05988e-06
-4.2518e-09
1.83909e-09
1.05745e-06
-4.71357e-09
1.5438e-09
1.05621e-06
-5.31253e-09
2.23293e-10
1.05561e-06
-6.08041e-09
-5.7674e-10
1.05498e-06
-7.01624e-09
-6.3648e-10
1.05406e-06
-8.09767e-09
-3.94698e-10
1.05292e-06
-9.30554e-09
-1.72461e-10
1.05168e-06
-1.06206e-08
-4.85158e-11
1.05042e-06
-1.2024e-08
3.98263e-12
1.04918e-06
-1.35007e-08
2.14057e-11
1.04798e-06
-1.50403e-08
2.42528e-11
1.04681e-06
-1.66343e-08
2.3978e-11
1.0457e-06
-1.82768e-08
9.66638e-12
1.04462e-06
-1.99583e-08
1.72238e-11
1.04364e-06
-2.1674e-08
-2.96872e-11
1.0427e-06
-2.34121e-08
-8.01704e-12
1.04188e-06
-2.51659e-08
-5.21755e-11
1.04124e-06
-2.69301e-08
-1.34014e-10
1.04058e-06
-2.86793e-08
-5.00814e-12
1.04024e-06
-3.04633e-08
-1.47759e-10
1.04012e-06
-3.21552e-08
-2.21804e-10
1.04094e-06
-3.40822e-08
-6.92494e-10
1.04159e-06
-3.55788e-08
-3.60443e-10
-3.81677e-08
6.95867e-10
1.04287e-06
1.08511e-06
7.27891e-09
-3.32016e-07
1.12781e-06
-1.86837e-09
-4.39927e-08
1.11496e-06
-8.83369e-09
1.12771e-08
1.10477e-06
-1.09421e-08
8.43342e-09
1.10033e-06
-9.47176e-09
2.66388e-09
1.09785e-06
-7.06942e-09
8.27418e-10
1.09578e-06
-5.15645e-09
5.71374e-10
1.09386e-06
-3.8986e-09
5.6873e-10
1.09207e-06
-3.17104e-09
5.28927e-10
1.09052e-06
-2.80177e-09
2.99597e-10
1.08855e-06
-2.78113e-09
7.58096e-10
1.08553e-06
-3.16722e-09
1.93926e-09
1.08266e-06
-3.69552e-09
1.85661e-09
1.08114e-06
-4.26151e-09
4.67917e-10
1.08064e-06
-5.00938e-09
-5.75108e-10
1.0804e-06
-5.97876e-09
-7.97783e-10
1.08e-06
-7.11081e-09
-5.8687e-10
1.07936e-06
-8.34602e-09
-3.16907e-10
1.07852e-06
-9.65536e-09
-1.24081e-10
1.07754e-06
-1.10331e-08
-9.90739e-12
1.07646e-06
-1.24796e-08
5.16658e-11
1.07534e-06
-1.39941e-08
8.12588e-11
1.07417e-06
-1.55701e-08
9.91194e-11
1.07301e-06
-1.72039e-08
9.36564e-11
1.07182e-06
-1.88866e-08
1.10621e-10
1.0707e-06
-2.06104e-08
6.44136e-11
1.06957e-06
-2.23748e-08
8.8201e-11
1.0685e-06
-2.41517e-08
5.89856e-11
1.06759e-06
-2.59665e-08
-6.00504e-11
1.06651e-06
-2.77487e-08
1.55668e-10
1.06569e-06
-2.95914e-08
-4.96034e-11
1.06484e-06
-3.13089e-08
-4.99096e-12
1.06463e-06
-3.32328e-08
-6.35851e-10
1.06408e-06
-3.46649e-08
-3.6013e-10
-3.72409e-08
-7.13695e-10
1.06386e-06
1.08871e-06
8.00453e-09
-3.30985e-07
1.13131e-06
-7.74996e-10
-4.36899e-08
1.11817e-06
-7.09602e-09
1.14002e-08
1.1078e-06
-8.8061e-09
8.22919e-09
1.10336e-06
-7.39653e-09
2.37211e-09
1.10097e-06
-5.32039e-09
6.34248e-10
1.09908e-06
-3.74221e-09
4.77579e-10
1.09745e-06
-2.72857e-09
4.60307e-10
1.09594e-06
-2.13921e-09
4.81073e-10
1.09532e-06
-1.8595e-09
-3.18498e-10
1.09506e-06
-1.86384e-09
-6.59339e-10
1.09174e-06
-2.18208e-09
2.32898e-09
1.08666e-06
-2.71053e-09
4.09744e-09
1.08404e-06
-3.36803e-09
1.72489e-09
1.08387e-06
-4.17471e-09
-6.63348e-10
1.0843e-06
-5.13687e-09
-1.27338e-09
1.08434e-06
-6.22544e-09
-9.18629e-10
1.08385e-06
-7.40804e-09
-4.53401e-10
1.08302e-06
-8.6668e-09
-1.5536e-10
1.08199e-06
-9.99798e-09
-2.99992e-12
1.08084e-06
-1.14023e-08
6.95727e-11
1.07962e-06
-1.28795e-08
1.04043e-10
1.07835e-06
-1.44249e-08
1.20842e-10
1.07705e-06
-1.60345e-08
1.30796e-10
1.07575e-06
-1.77004e-08
1.23155e-10
1.07442e-06
-1.94185e-08
1.31683e-10
1.07313e-06
-2.11807e-08
9.29256e-11
1.07187e-06
-2.29801e-08
9.53036e-11
1.07064e-06
-2.48133e-08
7.38975e-11
1.06957e-06
-2.6656e-08
-2.70963e-11
1.06846e-06
-2.85365e-08
5.91947e-11
1.06751e-06
-3.03591e-08
3.81583e-12
1.06671e-06
-3.22345e-08
-2.05569e-10
1.06641e-06
-3.39263e-08
-4.34374e-10
-3.57513e-08
-1.03143e-09
1.06595e-06
1.09334e-06
8.90721e-09
-3.33629e-07
1.13491e-06
1.32605e-09
-4.36736e-08
1.12019e-06
-4.58653e-09
1.22062e-08
1.10924e-06
-6.65533e-09
8.79851e-09
1.10502e-06
-5.80308e-09
2.62616e-09
1.1031e-06
-4.11786e-09
7.20943e-10
1.10158e-06
-2.73563e-09
5.10033e-10
1.10028e-06
-1.84785e-09
4.2679e-10
1.09897e-06
-1.33696e-09
5.01195e-10
1.09868e-06
-1.1645e-09
-3.97059e-10
1.09921e-06
-1.23105e-09
-1.16952e-09
1.09634e-06
-1.41825e-09
2.11197e-09
1.09091e-06
-1.85833e-09
4.57511e-09
1.08792e-06
-2.57206e-09
2.19649e-09
1.08769e-06
-3.42221e-09
-5.28799e-10
1.08821e-06
-4.34989e-09
-1.30195e-09
1.08828e-06
-5.36431e-09
-9.32645e-10
1.08776e-06
-6.47931e-09
-4.03895e-10
1.08684e-06
-7.69189e-09
-6.03875e-11
1.08572e-06
-8.98904e-09
1.08171e-10
1.0845e-06
-1.03596e-08
1.80218e-10
1.08321e-06
-1.17984e-08
2.12052e-10
1.08186e-06
-1.33029e-08
2.26562e-10
1.08046e-06
-1.48716e-08
2.35901e-10
1.07903e-06
-1.65004e-08
2.28752e-10
1.07756e-06
-1.81871e-08
2.3999e-10
1.0761e-06
-1.99238e-08
2.04387e-10
1.07461e-06
-2.17103e-08
2.19035e-10
1.07314e-06
-2.35337e-08
1.89988e-10
1.07174e-06
-2.5395e-08
1.39168e-10
1.07031e-06
-2.72776e-08
1.75212e-10
1.06886e-06
-2.91693e-08
2.55489e-10
1.06772e-06
-3.10492e-08
-4.63204e-11
1.06694e-06
-3.29204e-08
-2.2151e-10
-3.46309e-08
-2.86007e-10
1.0661e-06
1.09794e-06
9.66306e-09
-3.38084e-07
1.13877e-06
3.58719e-09
-4.30914e-08
1.12311e-06
-1.80057e-09
1.28688e-08
1.11182e-06
-4.22532e-09
8.86483e-09
1.10757e-06
-4.0346e-09
2.47922e-09
1.10574e-06
-2.87718e-09
5.95071e-10
1.10438e-06
-1.80753e-09
4.28923e-10
1.10321e-06
-1.0945e-09
4.17277e-10
1.1022e-06
-6.98468e-10
3.65994e-10
1.10178e-06
-5.94289e-10
-1.44301e-10
1.1013e-06
-7.06348e-10
-4.69631e-11
1.09906e-06
-9.5164e-10
1.77389e-09
1.09585e-06
-1.3874e-09
2.74156e-09
1.0938e-06
-2.01534e-09
1.4875e-09
1.09318e-06
-2.76635e-09
-3.77852e-11
1.09305e-06
-3.60612e-09
-6.09192e-10
1.09272e-06
-4.54052e-09
-4.91213e-10
1.09202e-06
-5.58436e-09
-1.93045e-10
1.09102e-06
-6.7383e-09
3.70572e-11
1.08986e-06
-7.98869e-09
1.64836e-10
1.08859e-06
-9.3199e-09
2.27793e-10
1.08725e-06
-1.07212e-08
2.62159e-10
1.08585e-06
-1.21884e-08
2.8344e-10
1.0844e-06
-1.37176e-08
3.00756e-10
1.08291e-06
-1.53105e-08
3.02045e-10
1.08136e-06
-1.6959e-08
3.23792e-10
1.07981e-06
-1.86705e-08
2.93149e-10
1.0782e-06
-2.0428e-08
3.26369e-10
1.07663e-06
-2.2249e-08
2.83385e-10
1.07506e-06
-2.41061e-08
2.84238e-10
1.07357e-06
-2.60298e-08
2.46168e-10
1.0719e-06
-2.79678e-08
4.62838e-10
1.0709e-06
-3.00496e-08
1.56006e-12
1.07005e-06
-3.19966e-08
-7.28649e-11
-3.45231e-08
2.99521e-10
1.06964e-06
1.10841e-06
9.35081e-09
-3.46504e-07
1.15693e-06
3.71289e-09
-4.86512e-08
1.14432e-06
-1.37598e-09
1.21878e-08
1.13377e-06
-3.52526e-09
9.85271e-09
1.1298e-06
-3.19314e-09
3.1268e-09
1.128e-06
-2.037e-09
9.60618e-10
1.12649e-06
-1.04965e-09
7.55136e-10
1.12501e-06
-4.12084e-10
7.9707e-10
1.12357e-06
-8.04741e-11
8.20725e-10
1.12215e-06
3.4301e-11
7.87052e-10
1.12052e-06
-7.01016e-11
1.00139e-09
1.11849e-06
-4.68407e-10
1.54448e-09
1.11652e-06
-9.88443e-10
1.57327e-09
1.11513e-06
-1.50122e-09
8.70489e-10
1.11433e-06
-2.12178e-09
1.52677e-10
1.11382e-06
-2.92655e-09
-1.67043e-10
1.11332e-06
-3.88042e-09
-1.63984e-10
1.11269e-06
-4.9292e-09
-1.97843e-11
1.11186e-06
-6.04521e-09
1.36268e-10
1.11084e-06
-7.2236e-09
2.55058e-10
1.10965e-06
-8.46829e-09
3.38531e-10
1.10831e-06
-9.78102e-09
3.97639e-10
1.10685e-06
-1.11634e-08
4.3868e-10
1.10527e-06
-1.26106e-08
4.7276e-10
1.1036e-06
-1.41268e-08
4.85871e-10
1.10182e-06
-1.57007e-08
5.2237e-10
1.09999e-06
-1.7344e-08
5.00074e-10
1.09806e-06
-1.90365e-08
5.38729e-10
1.09608e-06
-2.07993e-08
5.30018e-10
1.09409e-06
-2.25974e-08
4.80559e-10
1.09198e-06
-2.44725e-08
5.58483e-10
1.08967e-06
-2.63498e-08
6.85487e-10
1.08768e-06
-2.83901e-08
3.35447e-10
1.08572e-06
-3.02231e-08
1.86052e-10
-3.27312e-08
-7.27543e-11
1.084e-06
1.11042e-06
8.89153e-09
-3.45665e-07
1.15905e-06
3.5154e-09
-4.8425e-08
1.14641e-06
-1.07503e-09
1.23391e-08
1.13585e-06
-2.79094e-09
9.81982e-09
1.13197e-06
-2.31456e-09
2.99847e-09
1.13033e-06
-1.24167e-09
8.52815e-10
1.129e-06
-4.10649e-10
6.86723e-10
1.12779e-06
1.02127e-10
6.96826e-10
1.12666e-06
3.55047e-10
6.8952e-10
1.12606e-06
4.43211e-10
1.94612e-10
1.12604e-06
3.50746e-10
-3.9711e-10
1.12424e-06
-5.09508e-11
1.38218e-09
1.12031e-06
-5.82282e-10
3.52524e-09
1.11722e-06
-1.08017e-09
2.66261e-09
1.11617e-06
-1.66142e-09
5.94967e-10
1.11615e-06
-2.41406e-09
-4.99066e-10
1.11615e-06
-3.30937e-09
-5.66694e-10
1.11577e-06
-4.29191e-09
-2.52613e-10
1.115e-06
-5.33126e-09
5.1392e-11
1.11395e-06
-6.42331e-09
2.48271e-10
1.1127e-06
-7.57532e-09
3.62399e-10
1.11127e-06
-8.79284e-09
4.34743e-10
1.1097e-06
-1.00787e-08
4.85773e-10
1.108e-06
-1.14309e-08
5.22161e-10
1.10617e-06
-1.2851e-08
5.54422e-10
1.10424e-06
-1.43337e-08
5.67089e-10
1.10218e-06
-1.58844e-08
6.003e-10
1.10005e-06
-1.74932e-08
5.81046e-10
1.09781e-06
-1.91716e-08
6.10294e-10
1.09551e-06
-2.08994e-08
6.06992e-10
1.09319e-06
-2.27022e-08
5.47543e-10
1.09076e-06
-2.45346e-08
6.16117e-10
1.08821e-06
-2.64715e-08
6.2936e-10
1.08592e-06
-2.83332e-08
4.04634e-10
-3.05391e-08
-6.95711e-11
1.08379e-06
1.11273e-06
8.49619e-09
-3.4533e-07
1.16114e-06
3.62726e-09
-4.85176e-08
1.14792e-06
-4.80531e-10
1.26263e-08
1.13709e-06
-2.0397e-09
1.00704e-08
1.13333e-06
-1.64462e-09
3.09891e-09
1.13194e-06
-7.18789e-10
8.64264e-10
1.13084e-06
1.30721e-12
6.8392e-10
1.12994e-06
4.19528e-10
5.89262e-10
1.12896e-06
6.31257e-10
7.0169e-10
1.12875e-06
6.52163e-10
-4.74332e-12
1.13094e-06
5.17004e-10
-2.35231e-09
1.13018e-06
3.06414e-10
4.03186e-10
1.1241e-06
-7.48599e-11
5.56781e-09
1.11903e-06
-6.49928e-10
4.6449e-09
1.11763e-06
-1.32332e-09
1.06009e-09
1.11808e-06
-2.0556e-09
-8.07749e-10
1.11852e-06
-2.85126e-09
-8.95075e-10
1.11834e-06
-3.71555e-09
-3.95378e-10
1.11761e-06
-4.6467e-09
4.51775e-11
1.11652e-06
-5.64058e-09
3.02435e-10
1.11521e-06
-6.6954e-09
4.35988e-10
1.11371e-06
-7.81156e-09
5.1378e-10
1.11206e-06
-8.99082e-09
5.67309e-10
1.11025e-06
-1.02336e-08
6.06559e-10
1.1083e-06
-1.15409e-08
6.42355e-10
1.10622e-06
-1.29119e-08
6.58281e-10
1.10398e-06
-1.43479e-08
6.97886e-10
1.10165e-06
-1.58463e-08
6.8464e-10
1.09917e-06
-1.74103e-08
7.21247e-10
1.09658e-06
-1.90327e-08
7.27955e-10
1.09392e-06
-2.07219e-08
6.79216e-10
1.09109e-06
-2.24631e-08
7.58259e-10
1.08808e-06
-2.4264e-08
7.98271e-10
1.08527e-06
-2.60992e-08
5.74114e-10
-2.8088e-08
9.62068e-11
1.08273e-06
1.11557e-06
8.0267e-09
-3.47689e-07
1.1634e-06
3.92528e-09
-4.81218e-08
1.14944e-06
3.27952e-10
1.31494e-08
1.13837e-06
-1.18715e-09
1.02168e-08
1.13467e-06
-1.00764e-09
3.06237e-09
1.13345e-06
-3.06286e-10
8.05502e-10
1.13256e-06
2.71435e-10
6.28443e-10
1.13179e-06
6.02186e-10
5.8547e-10
1.13106e-06
7.64675e-10
5.91753e-10
1.13103e-06
7.43003e-10
-5.53473e-11
1.13231e-06
5.9489e-10
-1.36618e-09
1.13136e-06
4.77302e-10
7.86746e-10
1.12662e-06
2.0822e-10
4.4502e-09
1.12233e-06
-3.46201e-10
3.989e-09
1.12081e-06
-1.03182e-09
1.22711e-09
1.12093e-06
-1.72334e-09
-4.48142e-10
1.12115e-06
-2.41925e-09
-6.54519e-10
1.12087e-06
-3.15999e-09
-2.69451e-10
1.12007e-06
-3.97117e-09
1.24043e-10
1.11891e-06
-4.85486e-09
3.69762e-10
1.11751e-06
-5.80337e-09
5.03636e-10
1.11593e-06
-6.81087e-09
5.83413e-10
1.11418e-06
-7.87594e-09
6.3909e-10
1.11226e-06
-8.9995e-09
6.80412e-10
1.11018e-06
-1.01825e-08
7.20179e-10
1.10796e-06
-1.14269e-08
7.38717e-10
1.10556e-06
-1.27317e-08
7.84881e-10
1.10304e-06
-1.41007e-08
7.75721e-10
1.10034e-06
-1.55297e-08
8.18439e-10
1.0975e-06
-1.70245e-08
8.33094e-10
1.09457e-06
-1.85781e-08
7.87409e-10
1.09142e-06
-2.01965e-08
8.78683e-10
1.08806e-06
-2.18544e-08
9.51125e-10
1.08481e-06
-2.35783e-08
7.25771e-10
-2.53564e-08
4.18736e-10
1.08166e-06
1.11855e-06
7.46155e-09
-3.50565e-07
1.16579e-06
4.40411e-09
-4.77186e-08
1.15108e-06
1.34432e-09
1.36867e-08
1.13972e-06
-2.5067e-10
1.04249e-08
1.13603e-06
-4.2216e-10
3.10198e-09
1.13495e-06
-1.16258e-11
7.95195e-10
1.13421e-06
4.09944e-10
5.94256e-10
1.13355e-06
6.72637e-10
5.92172e-10
1.133e-06
7.9129e-10
5.25116e-10
1.13285e-06
7.64823e-10
1.26007e-10
1.13294e-06
6.31689e-10
-1.31559e-10
1.13177e-06
4.67525e-10
1.18082e-09
1.12898e-06
1.9481e-10
2.80316e-09
1.12636e-06
-2.40114e-10
2.51952e-09
1.12503e-06
-7.70369e-10
1.06519e-09
1.12457e-06
-1.33795e-09
7.39573e-11
1.12421e-06
-1.93684e-09
-1.19711e-10
1.12356e-06
-2.58533e-09
7.29803e-11
1.12258e-06
-3.29818e-09
3.12066e-10
1.12132e-06
-4.07682e-09
4.81182e-10
1.11984e-06
-4.9153e-09
5.86872e-10
1.11818e-06
-5.80798e-09
6.56299e-10
1.11635e-06
-6.75267e-09
7.08397e-10
1.11435e-06
-7.7495e-09
7.48702e-10
1.11218e-06
-8.79979e-09
7.90921e-10
1.10985e-06
-9.90532e-09
8.11192e-10
1.10732e-06
-1.10667e-08
8.62663e-10
1.10465e-06
-1.22876e-08
8.58204e-10
1.10178e-06
-1.35666e-08
9.0015e-10
1.09873e-06
-1.49097e-08
9.37408e-10
1.09561e-06
-1.63183e-08
8.66325e-10
1.0922e-06
-1.77882e-08
1.00169e-09
1.08864e-06
-1.93495e-08
1.0527e-09
1.08515e-06
-2.09364e-08
8.42354e-10
-2.27996e-08
7.48661e-10
1.08185e-06
1.12567e-06
6.3372e-09
-3.56826e-07
1.17825e-06
3.78061e-09
-5.19624e-08
1.1652e-06
1.1347e-09
1.32584e-08
1.15392e-06
-1.94249e-10
1.12249e-08
1.15023e-06
-2.77825e-10
3.5468e-09
1.14909e-06
1.12312e-10
1.02141e-09
1.14819e-06
4.75803e-10
8.25993e-10
1.14727e-06
6.98307e-10
8.98284e-10
1.14637e-06
7.9397e-10
8.96741e-10
1.1455e-06
7.95969e-10
8.3869e-10
1.14451e-06
6.92306e-10
9.33547e-10
1.14316e-06
4.2863e-10
1.39003e-09
1.14154e-06
8.9482e-11
1.72126e-09
1.14006e-06
-2.11124e-10
1.45392e-09
1.13893e-06
-5.34339e-10
8.86782e-10
1.13808e-06
-9.68276e-10
4.80484e-10
1.1373e-06
-1.50571e-09
3.53613e-10
1.13641e-06
-2.10434e-09
4.04502e-10
1.13534e-06
-2.74028e-09
5.16779e-10
1.13404e-06
-3.41038e-09
6.28362e-10
1.13253e-06
-4.11964e-09
7.22218e-10
1.13079e-06
-4.87278e-09
7.99454e-10
1.12885e-06
-5.67243e-09
8.64969e-10
1.1267e-06
-6.51912e-09
9.18761e-10
1.12434e-06
-7.41465e-09
9.74925e-10
1.12179e-06
-8.35824e-09
1.00535e-09
1.119e-06
-9.35474e-09
1.07169e-09
1.11604e-06
-1.04002e-08
1.07347e-09
1.11285e-06
-1.15045e-08
1.12668e-09
1.10942e-06
-1.26588e-08
1.18086e-09
1.10588e-06
-1.38794e-08
1.09635e-09
1.10196e-06
-1.51467e-08
1.28661e-09
1.09783e-06
-1.65018e-08
1.28304e-09
1.09359e-06
-1.78549e-08
1.14984e-09
-1.94932e-08
8.57297e-10
1.08943e-06
1.12629e-06
5.09522e-09
-3.56437e-07
1.17907e-06
2.89271e-09
-5.18861e-08
1.16616e-06
7.37735e-10
1.33088e-08
1.15495e-06
-2.34988e-10
1.12509e-08
1.15133e-06
-1.98791e-10
3.53686e-09
1.15028e-06
1.62973e-10
9.95343e-10
1.14951e-06
4.56492e-10
7.88533e-10
1.14877e-06
6.28944e-10
8.09697e-10
1.14813e-06
6.97948e-10
7.40404e-10
1.14788e-06
7.10988e-10
3.30155e-10
1.14826e-06
6.47442e-10
-3.32466e-10
1.14753e-06
3.87996e-10
7.70169e-10
1.14447e-06
5.18567e-11
3.10115e-09
1.14104e-06
-1.78734e-10
3.39257e-09
1.13914e-06
-3.91258e-10
1.76531e-09
1.13851e-06
-7.19607e-10
3.77585e-10
1.1382e-06
-1.16347e-09
-3.54084e-11
1.13765e-06
-1.66721e-09
1.12851e-10
1.13673e-06
-2.19539e-09
3.76086e-10
1.13548e-06
-2.74212e-09
5.8286e-10
1.13395e-06
-3.31531e-09
7.2262e-10
1.13218e-06
-3.92305e-09
8.20125e-10
1.13018e-06
-4.56947e-09
8.96103e-10
1.12796e-06
-5.25609e-09
9.57425e-10
1.12551e-06
-5.98396e-09
1.01849e-09
1.12286e-06
-6.75341e-09
1.05396e-09
1.11994e-06
-7.56713e-09
1.12394e-09
1.11684e-06
-8.42421e-09
1.12742e-09
1.11348e-06
-9.3302e-09
1.1909e-09
1.10987e-06
-1.02818e-08
1.22969e-09
1.10609e-06
-1.12891e-08
1.18476e-09
1.10197e-06
-1.23411e-08
1.31597e-09
1.09754e-06
-1.34619e-08
1.38896e-09
1.0931e-06
-1.45999e-08
1.18759e-09
-1.59195e-08
9.13523e-10
1.08861e-06
1.12703e-06
3.86944e-09
-3.5629e-07
1.17979e-06
2.08265e-09
-5.19484e-08
1.16673e-06
4.08234e-10
1.33863e-08
1.15547e-06
-2.98803e-10
1.13211e-08
1.15194e-06
-2.16293e-10
3.55234e-09
1.15103e-06
9.68427e-11
9.78953e-10
1.15038e-06
3.37013e-10
7.67057e-10
1.14981e-06
4.69375e-10
7.26791e-10
1.14932e-06
5.2346e-10
6.68005e-10
1.1494e-06
5.2027e-10
1.08775e-10
1.15151e-06
4.62932e-10
-1.92751e-09
1.15217e-06
3.33227e-10
-6.08686e-10
1.14768e-06
1.41561e-10
4.40173e-09
1.14197e-06
-7.2426e-11
5.60443e-09
1.13913e-06
-3.09158e-10
2.76165e-09
1.1387e-06
-5.90013e-10
3.01831e-10
1.13884e-06
-9.16521e-10
-3.85951e-10
1.13858e-06
-1.27789e-09
-1.33314e-10
1.13777e-06
-1.66499e-09
2.76567e-10
1.13654e-06
-2.07484e-09
5.65216e-10
1.135e-06
-2.50867e-09
7.38617e-10
1.13319e-06
-2.96927e-09
8.49954e-10
1.13115e-06
-3.45855e-09
9.31718e-10
1.12888e-06
-3.97875e-09
9.96432e-10
1.12636e-06
-4.5301e-09
1.06141e-09
1.12362e-06
-5.11492e-09
1.10022e-09
1.12061e-06
-5.73336e-09
1.17436e-09
1.1174e-06
-6.38715e-09
1.18099e-09
1.1139e-06
-7.07857e-09
1.24813e-09
1.11013e-06
-7.80712e-09
1.29286e-09
1.10617e-06
-8.57784e-09
1.24654e-09
1.10182e-06
-9.38558e-09
1.39124e-09
1.09714e-06
-1.02464e-08
1.46365e-09
1.09241e-06
-1.11352e-08
1.27462e-09
-1.21441e-08
1.01844e-09
1.08761e-06
1.12785e-06
2.60204e-09
-3.5655e-07
1.18054e-06
1.24765e-09
-5.18547e-08
1.16735e-06
8.80398e-11
1.35187e-08
1.15603e-06
-3.49467e-10
1.13713e-08
1.1525e-06
-2.40826e-10
3.5473e-09
1.15164e-06
-1.8316e-13
9.57873e-10
1.15106e-06
1.7323e-10
7.47121e-10
1.15058e-06
2.57669e-10
6.90101e-10
1.15017e-06
2.97443e-10
6.36436e-10
1.15034e-06
2.76121e-10
7.44359e-11
1.15283e-06
2.17637e-10
-2.24766e-09
1.15387e-06
2.39906e-10
-9.45602e-10
1.14916e-06
2.26863e-10
4.62625e-09
1.14296e-06
2.90078e-11
6.09769e-09
1.13987e-06
-2.55311e-10
3.03477e-09
1.13945e-06
-5.03954e-10
3.40277e-10
1.13966e-06
-7.12428e-10
-4.21217e-10
1.13946e-06
-9.20671e-10
-1.54988e-10
1.13867e-06
-1.15361e-09
2.81323e-10
1.13742e-06
-1.41557e-09
5.85686e-10
1.13585e-06
-1.70182e-09
7.65625e-10
1.13401e-06
-2.00912e-09
8.7946e-10
1.13192e-06
-2.33571e-09
9.62846e-10
1.1296e-06
-2.684e-09
1.02879e-09
1.12703e-06
-3.05225e-09
1.09482e-09
1.12422e-06
-3.44534e-09
1.13603e-09
1.12114e-06
-3.8601e-09
1.21243e-09
1.11783e-06
-4.3007e-09
1.22117e-09
1.11423e-06
-4.76726e-09
1.29013e-09
1.11034e-06
-5.25974e-09
1.3379e-09
1.10625e-06
-5.78107e-09
1.29344e-09
1.10176e-06
-6.32747e-09
1.43775e-09
1.09691e-06
-6.9159e-09
1.51431e-09
1.09197e-06
-7.5272e-09
1.3295e-09
-8.20911e-09
1.10673e-09
1.08693e-06
1.12891e-06
1.29521e-09
-3.57567e-07
1.18135e-06
4.93259e-10
-5.16893e-08
1.16783e-06
-1.33914e-10
1.37437e-08
1.15638e-06
-3.59195e-10
1.14672e-08
1.15285e-06
-2.87232e-10
3.57157e-09
1.15203e-06
-1.45915e-10
9.61702e-10
1.15152e-06
-4.38241e-11
7.36103e-10
1.15104e-06
7.03708e-12
7.29878e-10
1.15067e-06
3.45419e-11
6.30783e-10
1.15077e-06
2.40805e-11
1.45318e-10
1.15178e-06
1.66076e-12
-7.85382e-10
1.15159e-06
6.53852e-11
3.62658e-10
1.14832e-06
1.1326e-10
3.38577e-09
1.1442e-06
4.23594e-13
4.1427e-09
1.14183e-06
-1.95439e-10
2.31231e-09
1.14112e-06
-3.50919e-10
5.6084e-10
1.14088e-06
-4.50932e-10
-2.28365e-11
1.14037e-06
-5.35098e-10
1.17376e-10
1.13943e-06
-6.3367e-10
4.19599e-10
1.13812e-06
-7.5439e-10
6.57313e-10
1.1365e-06
-8.92869e-10
8.12214e-10
1.13461e-06
-1.04404e-09
9.16637e-10
1.13249e-06
-1.20532e-09
9.96148e-10
1.13012e-06
-1.37736e-09
1.06294e-09
1.1275e-06
-1.55983e-09
1.12072e-09
1.12463e-06
-1.75488e-09
1.17909e-09
1.12152e-06
-1.96151e-09
1.21895e-09
1.11812e-06
-2.18138e-09
1.28243e-09
1.11446e-06
-2.41453e-09
1.30059e-09
1.11051e-06
-2.66152e-09
1.35265e-09
1.10626e-06
-2.92298e-09
1.39599e-09
1.10176e-06
-3.19824e-09
1.37068e-09
1.09688e-06
-3.49379e-09
1.45768e-09
1.09166e-06
-3.80232e-09
1.49669e-09
-4.14716e-09
1.35181e-09
1.08624e-06
1.12993e-06
-3.58601e-07
1.18206e-06
-5.14853e-08
1.16821e-06
1.39604e-08
1.15662e-06
1.153e-08
1.15307e-06
3.57237e-09
1.15226e-06
9.55798e-10
1.15176e-06
7.37661e-10
1.15125e-06
7.75759e-10
1.15082e-06
7.07631e-10
1.15059e-06
4.69292e-10
1.15047e-06
3.27049e-10
1.14965e-06
1.07457e-09
1.1477e-06
2.22424e-09
1.1455e-06
2.36144e-09
1.14391e-06
1.53435e-09
1.14293e-06
7.5e-10
1.14215e-06
4.49165e-10
1.14123e-06
4.86878e-10
1.14006e-06
6.32198e-10
1.13862e-06
7.69973e-10
1.13694e-06
8.7648e-10
1.13501e-06
9.58987e-10
1.13284e-06
1.02729e-09
1.13043e-06
1.08829e-09
1.12779e-06
1.14215e-09
1.12489e-06
1.19865e-09
1.12174e-06
1.23725e-09
1.1183e-06
1.30055e-09
1.1146e-06
1.31787e-09
1.11061e-06
1.36997e-09
1.10631e-06
1.41455e-09
1.10175e-06
1.38954e-09
1.09681e-06
1.4767e-09
1.09151e-06
1.52e-09
1.38307e-09
1.08601e-06
2.12581e-06
6.35919e-11
-3.90431e-07
7.41658e-09
2.1395e-06
-2.34888e-08
-6.12094e-08
3.58447e-08
2.12427e-06
-4.33012e-08
1.27625e-08
5.70854e-08
2.10776e-06
-4.96342e-08
1.1914e-08
6.11092e-08
2.09736e-06
-4.44492e-08
3.96491e-09
5.27614e-08
2.09101e-06
-3.57299e-08
5.82494e-10
4.19226e-08
2.08615e-06
-2.85461e-08
-1.24892e-10
3.37092e-08
2.08163e-06
-2.3754e-08
1.68801e-10
2.84211e-08
2.07751e-06
-2.0773e-08
-3.06229e-10
2.50942e-08
2.07372e-06
-1.89979e-08
-2.61708e-10
2.29962e-08
2.06946e-06
-1.80368e-08
2.16431e-09
2.17405e-08
2.06484e-06
-1.77557e-08
3.18478e-09
2.12576e-08
2.06064e-06
-1.80042e-08
1.28245e-09
2.14661e-08
2.05711e-06
-1.86686e-08
-8.18419e-10
2.2228e-08
2.05391e-06
-1.96813e-08
-1.53695e-09
2.33698e-08
2.05071e-06
-2.09896e-08
-1.28535e-09
2.474e-08
2.0474e-06
-2.25653e-08
-7.97573e-10
2.62713e-08
2.04403e-06
-2.43766e-08
-4.27339e-10
2.7954e-08
2.0407e-06
-2.63761e-08
-2.32224e-10
2.97863e-08
2.03748e-06
-2.85158e-08
-1.5894e-10
3.17564e-08
2.03439e-06
-3.0759e-08
-1.44944e-10
3.38401e-08
2.03144e-06
-3.30818e-08
-1.48625e-10
3.6014e-08
2.02863e-06
-3.54611e-08
-1.67519e-10
3.82439e-08
2.02596e-06
-3.78788e-08
-1.6248e-10
4.05089e-08
2.02346e-06
-4.03086e-08
-2.12226e-10
4.27715e-08
2.02112e-06
-4.27308e-08
-1.91973e-10
4.50159e-08
2.01896e-06
-4.51155e-08
-2.25845e-10
4.71943e-08
2.017e-06
-4.74456e-08
-2.86638e-10
4.93163e-08
2.0153e-06
-4.96943e-08
-2.12702e-10
5.13038e-08
2.01376e-06
-5.18449e-08
-1.87271e-10
5.32238e-08
2.01274e-06
-5.38965e-08
-7.20116e-10
5.48658e-08
2.01188e-06
-5.57826e-08
-3.35402e-10
5.6505e-08
2.01195e-06
-5.78177e-08
-6.54521e-10
5.75236e-08
2.01217e-06
-5.92732e-08
-8.40299e-11
5.89228e-08
-6.22779e-08
5.10442e-09
2.0132e-06
5.83518e-08
2.1379e-06
4.70803e-09
-3.98532e-07
2.15812e-06
-1.87303e-08
-6.43902e-08
2.15042e-06
-3.80773e-08
1.26554e-08
2.13899e-06
-4.37138e-08
1.25283e-08
2.13075e-06
-3.83646e-08
4.32753e-09
2.12504e-06
-3.00724e-08
6.82226e-10
2.12042e-06
-2.3489e-08
-7.64211e-11
2.11614e-06
-1.91885e-08
9.63847e-11
2.11206e-06
-1.64886e-08
3.90994e-11
2.10805e-06
-1.4814e-08
1.53473e-10
2.10368e-06
-1.39531e-08
1.57688e-09
2.09906e-06
-1.38348e-08
2.42184e-09
2.09485e-06
-1.42643e-08
1.19402e-09
2.0914e-06
-1.51441e-08
-5.63384e-10
2.08857e-06
-1.64229e-08
-1.40172e-09
2.08604e-06
-1.79908e-08
-1.35102e-09
2.08356e-06
-1.97456e-08
-9.58272e-10
2.081e-06
-2.16341e-08
-5.88072e-10
2.07835e-06
-2.36456e-08
-3.49895e-10
2.07564e-06
-2.57842e-08
-2.25427e-10
2.07293e-06
-2.80464e-08
-1.67145e-10
2.07024e-06
-3.04154e-08
-1.34437e-10
2.06761e-06
-3.28688e-08
-1.26737e-10
2.06504e-06
-3.53791e-08
-9.42016e-11
2.06258e-06
-3.79268e-08
-1.24371e-10
2.06022e-06
-4.04793e-08
-8.43854e-11
2.05798e-06
-4.30285e-08
-9.56214e-11
2.05588e-06
-4.55196e-08
-1.45346e-10
2.05397e-06
-4.79758e-08
-4.77659e-11
2.05211e-06
-5.02904e-08
8.23296e-11
2.05057e-06
-5.25717e-08
-5.28448e-10
2.04902e-06
-5.45413e-08
-1.98149e-10
2.04759e-06
-5.67265e-08
-6.50351e-10
2.04601e-06
-5.79899e-08
-1.10616e-10
-6.10236e-08
-4.19103e-10
2.04423e-06
2.14485e-06
8.97965e-09
-3.96834e-07
2.16464e-06
-1.38741e-08
-6.38171e-08
2.1564e-06
-3.21554e-08
1.27075e-08
2.1447e-06
-3.72071e-08
1.20622e-08
2.13656e-06
-3.21927e-08
3.84359e-09
2.13122e-06
-2.47505e-08
4.96354e-10
2.12708e-06
-1.89894e-08
-8.31804e-11
2.12333e-06
-1.52599e-08
2.16137e-10
2.11992e-06
-1.29039e-08
-7.03825e-11
2.11685e-06
-1.14247e-08
-7.3934e-10
2.11314e-06
-1.06428e-08
1.48714e-09
2.10856e-06
-1.057e-08
4.39621e-09
2.10428e-06
-1.11115e-08
3.23173e-09
2.10108e-06
-1.21557e-08
-6.41901e-11
2.09877e-06