/*--------------------------------*- C++ -*----------------------------------*\
  =========                 |
  \\      /  F ield         | OpenFOAM: The Open Source CFD Toolbox
   \\    /   O peration     | Website:  https://openfoam.org
    \\  /    A nd           | Version:  6
     \\/     M anipulation  |
\*---------------------------------------------------------------------------*/
FoamFile
{
    version     2.0;
    format      ascii;
    class       volVectorField;
    location    "0.6";
    object      U;
}
// * * * * * * * * * * * * * * * * * * * * * * * * * * * * * * * * * * * * * //

dimensions      [0 1 -1 0 0 0 0];

internalField   nonuniform List<vector> 
63264
(
(0.102647 -0.000206668 -0.000416971)
(0.110343 -0.000784103 -4.26093e-05)
(0.108814 -0.00113799 1.08355e-05)
(0.107317 -0.00119703 3.77805e-06)
(0.106779 -0.00105838 2.28608e-07)
(0.106636 -0.000881156 1.94264e-08)
(0.106581 -0.000748123 1.53752e-07)
(0.106564 -0.000664732 3.63695e-07)
(0.106519 -0.000620769 4.93363e-10)
(0.106614 -0.000605488 4.75555e-07)
(0.106582 -0.000606769 2.41265e-06)
(0.106348 -0.000625929 2.18928e-06)
(0.106227 -0.000663613 -1.18721e-07)
(0.106301 -0.000715967 -1.60362e-06)
(0.106439 -0.000780325 -1.58919e-06)
(0.106545 -0.000857195 -9.98147e-07)
(0.10661 -0.000948587 -5.35664e-07)
(0.106653 -0.00105499 -3.24463e-07)
(0.106694 -0.00117514 -2.59654e-07)
(0.106742 -0.00130758 -2.49693e-07)
(0.106801 -0.00145141 -2.55246e-07)
(0.106871 -0.00160653 -2.62008e-07)
(0.106953 -0.00177237 -2.80802e-07)
(0.107051 -0.00194904 -2.69133e-07)
(0.107158 -0.00213521 -3.33484e-07)
(0.107292 -0.00233104 -2.77113e-07)
(0.107425 -0.00253382 -3.28378e-07)
(0.107603 -0.00274512 -4.03992e-07)
(0.107778 -0.00296025 -2.1245e-07)
(0.107986 -0.00318307 -2.59996e-07)
(0.108194 -0.00340295 -8.75493e-07)
(0.108571 -0.00363378 -3.147e-07)
(0.108723 -0.00385729 1.24223e-07)
(0.109444 -0.00408379 6.17142e-07)
(0.109217 -0.00431847 1.05032e-05)
(0.10352 -0.000193519 -0.000425726)
(0.112217 -0.000749551 -4.38764e-05)
(0.11144 -0.00111094 1.02353e-05)
(0.110298 -0.0011762 3.27254e-06)
(0.109861 -0.00104326 7.57464e-08)
(0.109704 -0.000872274 8.72016e-09)
(0.10961 -0.000744228 1.53894e-07)
(0.109544 -0.000664115 2.37098e-07)
(0.109473 -0.000619552 1.32686e-07)
(0.109441 -0.000600436 4.01518e-07)
(0.109347 -0.000602543 1.43862e-06)
(0.109121 -0.000624563 1.50163e-06)
(0.108949 -0.000660829 1.6845e-07)
(0.108941 -0.000711282 -9.85457e-07)
(0.109038 -0.000778126 -1.24862e-06)
(0.10916 -0.00086012 -9.91036e-07)
(0.109268 -0.000955339 -6.7352e-07)
(0.109355 -0.00106279 -4.59367e-07)
(0.109425 -0.0011823 -3.35558e-07)
(0.109486 -0.00131411 -2.63613e-07)
(0.109544 -0.00145841 -2.19863e-07)
(0.109606 -0.00161533 -1.87785e-07)
(0.109672 -0.00178478 -1.75298e-07)
(0.10975 -0.00196658 -1.31491e-07)
(0.109833 -0.00216035 -1.62068e-07)
(0.109942 -0.00236549 -8.44384e-08)
(0.110044 -0.0025815 -7.92705e-08)
(0.110194 -0.00280668 -1.39965e-07)
(0.110334 -0.00304206 6.53022e-08)
(0.110505 -0.00328158 9.78879e-08)
(0.110654 -0.00353484 -5.536e-07)
(0.110984 -0.00378364 -3.01516e-07)
(0.111064 -0.00408498 -2.20398e-07)
(0.111584 -0.00431601 -7.6202e-07)
(0.11138 -0.00485397 -6.99121e-07)
(0.104108 -0.000210495 -0.000429536)
(0.112746 -0.000775319 -4.46942e-05)
(0.111817 -0.00110742 1.00422e-05)
(0.11054 -0.0011398 2.92011e-06)
(0.110033 -0.000997872 -2.65812e-07)
(0.109846 -0.000837348 -1.59056e-07)
(0.109736 -0.000723336 1.10937e-07)
(0.109669 -0.000652523 3.22113e-07)
(0.109587 -0.000610876 8.98688e-08)
(0.109604 -0.00058997 2.81738e-07)
(0.109642 -0.000590705 2.45603e-06)
(0.109351 -0.000614348 3.19897e-06)
(0.108968 -0.000654666 7.04559e-07)
(0.108885 -0.000710976 -1.61511e-06)
(0.109018 -0.000784051 -2.0698e-06)
(0.109182 -0.000870307 -1.47213e-06)
(0.109296 -0.000966167 -8.36299e-07)
(0.109364 -0.00107108 -4.77345e-07)
(0.109406 -0.0011868 -3.12129e-07)
(0.109436 -0.0013153 -2.30456e-07)
(0.109465 -0.00145766 -1.81419e-07)
(0.109498 -0.00161388 -1.40609e-07)
(0.109535 -0.00178385 -1.21417e-07)
(0.109583 -0.00196688 -6.11546e-08)
(0.109635 -0.00216299 -8.95162e-08)
(0.109713 -0.00237114 1.49334e-08)
(0.109783 -0.00259145 2.99745e-08)
(0.109897 -0.00282157 -3.82552e-08)
(0.110016 -0.00306309 3.10599e-07)
(0.110129 -0.00330859 1.86298e-07)
(0.110304 -0.00356698 2.83336e-08)
(0.110517 -0.00381294 -3.38769e-07)
(0.110775 -0.00408129 3.5297e-07)
(0.110992 -0.00429076 8.61216e-07)
(0.111258 -0.00459415 -2.26031e-06)
(0.104814 -0.000184743 -0.000437145)
(0.113384 -0.000713507 -4.55609e-05)
(0.112111 -0.00102924 1.08886e-05)
(0.110616 -0.00107238 3.70631e-06)
(0.11006 -0.00095215 1.51956e-07)
(0.109892 -0.000809075 -2.78797e-09)
(0.1098 -0.000704784 1.55382e-07)
(0.109735 -0.000638546 2.81177e-07)
(0.109661 -0.000599656 1.50444e-07)
(0.10966 -0.000581269 1.10332e-07)
(0.109744 -0.000579179 2.12428e-06)
(0.109513 -0.000594634 3.31246e-06)
(0.109105 -0.000630367 9.28011e-07)
(0.108977 -0.000686493 -1.65192e-06)
(0.109082 -0.000759204 -2.31436e-06)
(0.109223 -0.000844004 -1.70457e-06)
(0.109309 -0.00093842 -9.44068e-07)
(0.10934 -0.00104239 -4.79814e-07)
(0.109346 -0.00115714 -2.67267e-07)
(0.109344 -0.0012841 -1.78431e-07)
(0.109343 -0.00142444 -1.38659e-07)
(0.109347 -0.00157872 -1.18525e-07)
(0.109358 -0.00174742 -1.0165e-07)
(0.109375 -0.00193029 -1.01811e-07)
(0.109404 -0.00212766 -5.95687e-08)
(0.109438 -0.00233887 -1.02478e-07)
(0.109495 -0.00256407 -1.95343e-08)
(0.109549 -0.00280241 -2.90619e-08)
(0.109641 -0.00305345 -6.21816e-08)
(0.109741 -0.0033176 1.14445e-07)
(0.109843 -0.00359107 1.29482e-07)
(0.109999 -0.00387423 -2.33373e-07)
(0.110164 -0.00415546 1.4043e-09)
(0.11044 -0.00444917 -1.12526e-07)
(0.11053 -0.00465758 8.83775e-07)
(0.1055 -0.000129089 -0.000446229)
(0.114024 -0.000551087 -4.63008e-05)
(0.112524 -0.000847497 1.08974e-05)
(0.110892 -0.000940751 3.3234e-06)
(0.11027 -0.000880529 -2.4803e-07)
(0.110065 -0.000774683 -2.67058e-07)
(0.109952 -0.000686911 3.32179e-08)
(0.109868 -0.000628409 1.82338e-07)
(0.109798 -0.000594996 2.00609e-07)
(0.109771 -0.000582464 2.46088e-07)
(0.109788 -0.000585227 1.29943e-06)
(0.10964 -0.000602053 2.03563e-06)
(0.10942 -0.000635824 7.98878e-07)
(0.109331 -0.000686378 -8.02195e-07)
(0.109356 -0.000750458 -1.39186e-06)
(0.109402 -0.000825488 -1.17091e-06)
(0.109421 -0.000911954 -7.59714e-07)
(0.109411 -0.00101175 -4.76696e-07)
(0.109388 -0.00112578 -3.39405e-07)
(0.109362 -0.0012539 -2.79654e-07)
(0.10934 -0.00139578 -2.49451e-07)
(0.109324 -0.00155144 -2.29399e-07)
(0.109316 -0.00172115 -2.0737e-07)
(0.109314 -0.00190525 -2.04462e-07)
(0.109325 -0.0021039 -1.52392e-07)
(0.10934 -0.00231741 -1.96684e-07)
(0.109379 -0.00254542 -9.90157e-08)
(0.109413 -0.00278834 -1.05586e-07)
(0.109484 -0.00304523 -1.43246e-07)
(0.109572 -0.00331611 9.44174e-08)
(0.109638 -0.00360154 7.47556e-08)
(0.10982 -0.00389557 -1.47954e-07)
(0.10991 -0.00421581 2.16453e-08)
(0.110375 -0.0045208 1.61957e-07)
(0.110244 -0.00487673 4.76698e-06)
(0.106087 -0.000108146 -0.0004509)
(0.11566 -0.000466203 -4.63264e-05)
(0.114834 -0.000748859 1.06132e-05)
(0.113449 -0.000863361 2.96521e-06)
(0.112904 -0.000830943 -3.35158e-07)
(0.112702 -0.000743837 -2.79774e-07)
(0.112559 -0.000665722 -6.14642e-09)
(0.112433 -0.000611968 9.7623e-08)
(0.112315 -0.000581468 1.37789e-07)
(0.112214 -0.000569036 1.88764e-07)
(0.112145 -0.000574712 1.04816e-06)
(0.111958 -0.000600096 1.68461e-06)
(0.111671 -0.000633152 6.77126e-07)
(0.11151 -0.00067063 -7.09471e-07)
(0.111501 -0.000722109 -1.30242e-06)
(0.111554 -0.000791875 -1.16602e-06)
(0.111603 -0.000878408 -8.12295e-07)
(0.111629 -0.000979388 -5.40503e-07)
(0.111632 -0.00109353 -3.88113e-07)
(0.111622 -0.00122066 -3.05378e-07)
(0.111602 -0.00136108 -2.58579e-07)
(0.111578 -0.00151539 -2.33463e-07)
(0.111554 -0.00168402 -2.09378e-07)
(0.111531 -0.00186768 -2.09948e-07)
(0.111514 -0.0020667 -1.56051e-07)
(0.111497 -0.00228149 -2.00914e-07)
(0.1115 -0.0025128 -1.10377e-07)
(0.111497 -0.00275953 -9.07821e-08)
(0.111518 -0.00302449 -1.58748e-07)
(0.111566 -0.00330281 1.5215e-07)
(0.111554 -0.00360485 -9.4356e-08)
(0.11168 -0.00391288 -8.56857e-08)
(0.111662 -0.00427446 -3.52617e-07)
(0.111975 -0.00459278 -1.02135e-06)
(0.111825 -0.00512868 -6.97573e-07)
(0.106443 -0.000130035 -0.000454153)
(0.115979 -0.000516909 -4.69413e-05)
(0.115092 -0.000783015 1.03132e-05)
(0.113647 -0.000855365 2.46784e-06)
(0.113062 -0.0007937 -7.65032e-07)
(0.112837 -0.000700693 -5.12433e-07)
(0.112681 -0.000628852 -8.50984e-08)
(0.112548 -0.000581792 6.78451e-08)
(0.112445 -0.000554595 2.27595e-07)
(0.112336 -0.00054071 -5.4142e-08)
(0.112411 -0.000543215 1.64568e-06)
(0.112383 -0.00056914 3.34635e-06)
(0.111838 -0.000605582 1.45789e-06)
(0.111438 -0.000647787 -1.09443e-06)
(0.111397 -0.000703986 -2.218e-06)
(0.111505 -0.000777101 -1.92384e-06)
(0.111595 -0.000864219 -1.25454e-06)
(0.111627 -0.000962432 -7.79691e-07)
(0.111615 -0.0010712 -5.40193e-07)
(0.111579 -0.00119177 -4.2156e-07)
(0.111531 -0.00132567 -3.52522e-07)
(0.111479 -0.00147407 -3.07207e-07)
(0.111424 -0.00163754 -2.71696e-07)
(0.11137 -0.00181673 -2.35312e-07)
(0.111316 -0.00201195 -2.15629e-07)
(0.11127 -0.00222365 -1.57144e-07)
(0.111224 -0.00245258 -1.59349e-07)
(0.111196 -0.00269785 -9.87108e-08)
(0.111165 -0.00296189 2.4637e-09)
(0.111158 -0.00323977 -8.85799e-08)
(0.111169 -0.0035401 2.19773e-07)
(0.11117 -0.00384532 1.18558e-07)
(0.111212 -0.00418177 5.10723e-08)
(0.111277 -0.00449358 1.79177e-07)
(0.111392 -0.00489512 -2.74891e-06)
(0.10691 -0.000108902 -0.000459593)
(0.116398 -0.00045052 -4.76783e-05)
(0.115277 -0.000687898 1.07997e-05)
(0.113682 -0.000765168 3.07569e-06)
(0.113069 -0.000725179 -3.56073e-07)
(0.112864 -0.00065185 -3.17421e-07)
(0.11273 -0.000591675 -9.69501e-09)
(0.112603 -0.000551871 6.24542e-08)
(0.112512 -0.000528458 2.9052e-07)
(0.112387 -0.00051991 -1.45182e-07)
(0.112498 -0.00052532 1.54873e-06)
(0.112551 -0.000541108 3.58264e-06)
(0.111971 -0.000568865 1.68776e-06)
(0.111494 -0.000612247 -1.11397e-06)
(0.111413 -0.000668965 -2.45945e-06)
(0.111508 -0.000737373 -2.18041e-06)
(0.111586 -0.000817622 -1.40107e-06)
(0.111596 -0.000909953 -8.07027e-07)
(0.111557 -0.00101435 -4.89203e-07)
(0.111493 -0.001131 -3.42012e-07)
(0.111418 -0.00126056 -2.77706e-07)
(0.111338 -0.00140394 -2.44284e-07)
(0.111257 -0.00156205 -2.23233e-07)
(0.111174 -0.0017358 -2.01569e-07)
(0.111091 -0.00192578 -1.97535e-07)
(0.111013 -0.00213296 -1.53185e-07)
(0.110931 -0.00235745 -1.74203e-07)
(0.110866 -0.00260078 -1.17573e-07)
(0.110789 -0.00286222 -7.26906e-08)
(0.110743 -0.00314354 -9.74301e-08)
(0.11069 -0.00344387 2.70424e-08)
(0.110653 -0.00376224 1.24417e-07)
(0.110602 -0.00409645 -7.59863e-08)
(0.110659 -0.00445104 -5.52337e-07)
(0.110641 -0.00479008 -7.48064e-07)
(0.107384 -7.95856e-05 -0.000465733)
(0.116811 -0.000369362 -4.80508e-05)
(0.115529 -0.000591085 1.07609e-05)
(0.113848 -0.000684161 2.69589e-06)
(0.113197 -0.000667707 -7.2568e-07)
(0.112974 -0.000610547 -5.47493e-07)
(0.112828 -0.00055819 -1.32398e-07)
(0.112699 -0.000522911 2.905e-08)
(0.112593 -0.000502385 1.66801e-07)
(0.1125 -0.000497525 1.24025e-07)
(0.112512 -0.000504158 1.03513e-06)
(0.112414 -0.000514375 2.1627e-06)
(0.112069 -0.000538532 1.28451e-06)
(0.111773 -0.000583042 -5.28621e-07)
(0.111671 -0.000640114 -1.58408e-06)
(0.111671 -0.000704318 -1.60789e-06)
(0.111672 -0.000776786 -1.21312e-06)
(0.111637 -0.00086082 -8.40506e-07)
(0.111569 -0.000958371 -6.1284e-07)
(0.111481 -0.00106966 -4.99231e-07)
(0.111384 -0.00119443 -4.44533e-07)
(0.111282 -0.00133285 -4.11821e-07)
(0.111178 -0.0014856 -3.88827e-07)
(0.111073 -0.00165354 -3.66511e-07)
(0.110966 -0.00183763 -3.62976e-07)
(0.110863 -0.00203866 -3.18406e-07)
(0.110753 -0.00225767 -3.47431e-07)
(0.110664 -0.00249517 -2.78719e-07)
(0.110551 -0.00275237 -2.73454e-07)
(0.110486 -0.00302958 -2.14695e-07)
(0.110381 -0.00332794 -2.09695e-07)
(0.110351 -0.00364651 7.08202e-08)
(0.110212 -0.00398968 -4.13441e-09)
(0.110365 -0.00434771 -8.94874e-07)
(0.110182 -0.00474467 1.76964e-06)
(0.107906 -6.2809e-05 -0.000469489)
(0.118358 -0.000296724 -4.70906e-05)
(0.117565 -0.000495413 1.05791e-05)
(0.11597 -0.000597669 2.14739e-06)
(0.115337 -0.000603489 -9.6909e-07)
(0.115107 -0.000564778 -6.99416e-07)
(0.114931 -0.000523346 -3.07414e-07)
(0.114758 -0.000493404 -1.63863e-07)
(0.114591 -0.00047642 -6.40548e-08)
(0.114429 -0.00047169 -3.55467e-09)
(0.11427 -0.000478787 2.71029e-07)
(0.114068 -0.000497421 6.5302e-07)
(0.113832 -0.000524413 4.20748e-07)
(0.113644 -0.000557861 -3.17471e-07)
(0.113532 -0.000601091 -8.6027e-07)
(0.113468 -0.000656719 -9.65982e-07)
(0.11342 -0.000724986 -8.47663e-07)
(0.113366 -0.000805773 -6.99245e-07)
(0.113296 -0.000899152 -6.00963e-07)
(0.113209 -0.00100523 -5.56591e-07)
(0.113107 -0.00112423 -5.38411e-07)
(0.112993 -0.00125653 -5.31381e-07)
(0.112868 -0.00140293 -5.30478e-07)
(0.112737 -0.00156404 -5.25125e-07)
(0.112598 -0.0017413 -5.38875e-07)
(0.112458 -0.00193492 -5.03895e-07)
(0.112306 -0.0021472 -5.42195e-07)
(0.112168 -0.00237743 -5.00404e-07)
(0.112005 -0.00262921 -4.54434e-07)
(0.111871 -0.00290041 -5.09615e-07)
(0.111717 -0.00319733 -3.66342e-07)
(0.111576 -0.00351318 -3.77724e-07)
(0.11139 -0.0038723 -5.5417e-07)
(0.111349 -0.00422782 -1.14737e-06)
(0.111146 -0.0047136 -1.73912e-06)
(0.108096 -8.22099e-05 -0.000472067)
(0.118534 -0.000341214 -4.74642e-05)
(0.117719 -0.000535416 1.04956e-05)
(0.116095 -0.000602934 1.90717e-06)
(0.115444 -0.000575107 -1.19657e-06)
(0.115205 -0.000520439 -8.21518e-07)
(0.115026 -0.000477168 -3.40092e-07)
(0.114853 -0.000449003 -1.61455e-07)
(0.114701 -0.000433699 -1.97415e-09)
(0.11455 -0.000425881 -4.09465e-08)
(0.114507 -0.000428715 1.02636e-06)
(0.114482 -0.000453453 2.14016e-06)
(0.114088 -0.000486166 1.08494e-06)
(0.113628 -0.000515815 -7.11136e-07)
(0.113407 -0.000554047 -1.75353e-06)
(0.113366 -0.000609565 -1.80153e-06)
(0.113365 -0.000680103 -1.41158e-06)
(0.113334 -0.000760817 -1.03553e-06)
(0.113262 -0.000849641 -8.00805e-07)
(0.113159 -0.000947388 -6.82403e-07)
(0.113036 -0.00105601 -6.27221e-07)
(0.112898 -0.00117717 -5.9423e-07)
(0.112748 -0.0013122 -5.70733e-07)
(0.112589 -0.00146183 -5.54763e-07)
(0.112421 -0.00162739 -5.33059e-07)
(0.112245 -0.00180917 -5.33534e-07)
(0.112066 -0.00200917 -4.80395e-07)
(0.111875 -0.00222711 -5.0932e-07)
(0.111693 -0.00246592 -4.37192e-07)
(0.111492 -0.00272379 -4.05258e-07)
(0.111307 -0.00300572 -3.84391e-07)
(0.111118 -0.00330607 -3.1537e-07)
(0.11092 -0.00363888 -2.18936e-07)
(0.110726 -0.00397225 -3.82647e-07)
(0.110581 -0.00438278 -2.10752e-06)
(0.108315 -6.59939e-05 -0.000474882)
(0.118744 -0.000282066 -4.80983e-05)
(0.117842 -0.000446279 1.05255e-05)
(0.116144 -0.000513467 2.08748e-06)
(0.11547 -0.000502288 -1.04574e-06)
(0.115236 -0.000464364 -7.42837e-07)
(0.115068 -0.000431454 -3.00173e-07)
(0.114895 -0.000409483 -1.85728e-07)
(0.114771 -0.000397515 1.37384e-07)
(0.11459 -0.000393621 -3.35462e-07)
(0.114623 -0.000399233 1.57721e-06)
(0.114934 -0.000417703 3.551e-06)
(0.11439 -0.000442793 1.46097e-06)
(0.113618 -0.000471779 -1.15693e-06)
(0.113275 -0.000508735 -2.55507e-06)
(0.113255 -0.000557181 -2.52252e-06)
(0.113296 -0.000617346 -1.85274e-06)
(0.113282 -0.000688087 -1.24549e-06)
(0.113205 -0.000768618 -8.84175e-07)
(0.113087 -0.000859014 -7.14083e-07)
(0.112944 -0.000960056 -6.44598e-07)
(0.112785 -0.00107275 -6.10097e-07)
(0.112614 -0.00119816 -5.8962e-07)
(0.112431 -0.00133726 -5.78433e-07)
(0.112238 -0.00149115 -5.60807e-07)
(0.112033 -0.00166074 -5.67904e-07)
(0.111824 -0.00184748 -5.18442e-07)
(0.111598 -0.00205206 -5.53631e-07)
(0.111379 -0.00227661 -4.91401e-07)
(0.111135 -0.00252111 -4.58462e-07)
(0.110903 -0.00278912 -4.66847e-07)
(0.110659 -0.00307894 -4.00154e-07)
(0.110405 -0.00339685 -2.83652e-07)
(0.110141 -0.00373442 -5.9002e-07)
(0.109937 -0.00412509 -2.11445e-06)
(0.10861 -6.15164e-05 -0.00047852)
(0.118994 -0.000274609 -4.83682e-05)
(0.117971 -0.000427671 1.05458e-05)
(0.116206 -0.000480413 2.00479e-06)
(0.115511 -0.000459037 -1.13245e-06)
(0.115277 -0.00041769 -7.9706e-07)
(0.11511 -0.000385133 -3.32999e-07)
(0.114943 -0.000365681 -1.76077e-07)
(0.11481 -0.000354327 6.35125e-08)
(0.114659 -0.000352566 -8.89416e-08)
(0.114668 -0.000359178 1.23093e-06)
(0.114793 -0.00036485 2.80665e-06)
(0.114361 -0.000379281 1.51673e-06)
(0.113724 -0.000413508 -7.87759e-07)
(0.113383 -0.00046018 -2.20172e-06)
(0.113313 -0.000511552 -2.35095e-06)
(0.113312 -0.000567034 -1.84307e-06)
(0.113271 -0.00062906 -1.30781e-06)
(0.113173 -0.000699667 -9.58871e-07)
(0.113035 -0.000779828 -7.85356e-07)
(0.112872 -0.000870103 -7.0829e-07)
(0.112692 -0.000971179 -6.68722e-07)
(0.112498 -0.00108399 -6.45021e-07)
(0.112292 -0.00120952 -6.32676e-07)
(0.112074 -0.00134884 -6.13635e-07)
(0.111842 -0.00150302 -6.22724e-07)
(0.111604 -0.00167316 -5.69567e-07)
(0.111346 -0.00186042 -6.0658e-07)
(0.111093 -0.00206598 -5.44782e-07)
(0.110809 -0.00229097 -4.98085e-07)
(0.110537 -0.00253655 -5.17421e-07)
(0.110247 -0.0028041 -4.22721e-07)
(0.109941 -0.00309164 -2.37065e-07)
(0.109623 -0.0034049 -6.12494e-07)
(0.109344 -0.0037415 -1.59668e-06)
(0.108919 -3.76045e-05 -0.000482179)
(0.119259 -0.000192315 -4.85325e-05)
(0.118119 -0.000316217 1.06261e-05)
(0.116285 -0.000378127 1.99044e-06)
(0.115566 -0.000382265 -1.14269e-06)
(0.115328 -0.000361343 -8.02268e-07)
(0.115162 -0.000339327 -3.50473e-07)
(0.115001 -0.000324451 -1.77564e-07)
(0.114857 -0.000316295 -2.79657e-08)
(0.114725 -0.000316529 4.48289e-08)
(0.114669 -0.00032293 6.8757e-07)
(0.114594 -0.000328253 1.53861e-06)
(0.11429 -0.000340623 1.03114e-06)
(0.113893 -0.000368847 -4.27238e-07)
(0.113628 -0.000407504 -1.52258e-06)
(0.113501 -0.000449889 -1.77265e-06)
(0.113417 -0.000495554 -1.5019e-06)
(0.113316 -0.000547511 -1.15666e-06)
(0.113182 -0.000608418 -9.20457e-07)
(0.11302 -0.000679263 -8.00273e-07)
(0.112838 -0.000760069 -7.43366e-07)
(0.112639 -0.000850889 -7.15143e-07)
(0.112427 -0.000952208 -6.99757e-07)
(0.112201 -0.00106486 -6.94976e-07)
(0.111962 -0.00118982 -6.80057e-07)
(0.111709 -0.00132825 -6.9785e-07)
(0.111446 -0.00148109 -6.46238e-07)
(0.111163 -0.00164994 -6.89167e-07)
(0.110879 -0.0018355 -6.41961e-07)
(0.110567 -0.00204001 -5.65988e-07)
(0.110254 -0.00226414 -6.37248e-07)
(0.109939 -0.00251004 -4.92944e-07)
(0.109575 -0.00277876 -2.19096e-07)
(0.109252 -0.00307083 -7.532e-07)
(0.108888 -0.00339945 -6.55191e-07)
(0.109248 -2.88104e-05 -0.000483573)
(0.12034 -0.000153792 -4.72704e-05)
(0.119508 -0.000263181 1.0325e-05)
(0.117678 -0.000322378 1.25321e-06)
(0.116943 -0.00033005 -1.54692e-06)
(0.116691 -0.000313365 -1.05197e-06)
(0.1165 -0.000294463 -5.70654e-07)
(0.116305 -0.000281173 -3.89185e-07)
(0.116116 -0.000273978 -2.77943e-07)
(0.115934 -0.000272764 -1.93184e-07)
(0.115759 -0.000277532 -4.34119e-09)
(0.11556 -0.000287976 2.70337e-07)
(0.115319 -0.00030397 1.66414e-07)
(0.115074 -0.000324764 -3.97919e-07)
(0.114867 -0.000351257 -9.53565e-07)
(0.114702 -0.000384785 -1.17685e-06)
(0.114557 -0.000425219 -1.13885e-06)
(0.114412 -0.00047228 -1.03219e-06)
(0.114254 -0.00052631 -9.57846e-07)
(0.114077 -0.000587886 -9.26119e-07)
(0.113882 -0.000657567 -9.18769e-07)
(0.113667 -0.000735899 -9.22914e-07)
(0.113435 -0.000823538 -9.31675e-07)
(0.113185 -0.000921201 -9.47277e-07)
(0.11292 -0.00102981 -9.47589e-07)
(0.112635 -0.00115021 -9.8218e-07)
(0.112338 -0.00128362 -9.36842e-07)
(0.112015 -0.00143089 -9.93364e-07)
(0.111689 -0.00159369 -9.56996e-07)
(0.11133 -0.00177278 -8.63775e-07)
(0.110963 -0.00197074 -9.95721e-07)
(0.110594 -0.00218717 -7.55211e-07)
(0.110155 -0.00242921 -7.22097e-07)
(0.109759 -0.00268648 -1.07234e-06)
(0.1093 -0.00300415 -1.55886e-06)
(0.109301 -3.33542e-05 -0.000484783)
(0.120393 -0.000148252 -4.73932e-05)
(0.119569 -0.00024114 1.03749e-05)
(0.117735 -0.000281605 1.21622e-06)
(0.116994 -0.000278082 -1.5931e-06)
(0.116741 -0.000259079 -1.07004e-06)
(0.11655 -0.00024257 -5.63211e-07)
(0.116359 -0.000231673 -3.67994e-07)
(0.116183 -0.000225879 -2.11671e-07)
(0.11602 -0.000223133 -1.15734e-07)
(0.115932 -0.000225651 6.84432e-07)
(0.115904 -0.000241031 1.54566e-06)
(0.115605 -0.00026156 7.88422e-07)
(0.115111 -0.000275681 -7.69262e-07)
(0.114743 -0.000289795 -1.78779e-06)
(0.114562 -0.000314184 -1.99761e-06)
(0.11446 -0.000349667 -1.71148e-06)
(0.114352 -0.000392382 -1.35832e-06)
(0.114209 -0.000439748 -1.13118e-06)
(0.114033 -0.000491623 -1.02493e-06)
(0.11383 -0.000549142 -9.81216e-07)
(0.113605 -0.000613566 -9.6448e-07)
(0.11336 -0.000685872 -9.59193e-07)
(0.113095 -0.000766778 -9.63053e-07)
(0.112813 -0.000857079 -9.55842e-07)
(0.112509 -0.00095742 -9.80945e-07)
(0.112192 -0.00106899 -9.30544e-07)
(0.111845 -0.00119226 -9.81138e-07)
(0.111496 -0.00132911 -9.27983e-07)
(0.111105 -0.00147956 -8.56398e-07)
(0.110713 -0.00164642 -9.14568e-07)
(0.110298 -0.00182874 -7.56419e-07)
(0.109843 -0.00203133 -6.16723e-07)
(0.109376 -0.00224682 -9.05976e-07)
(0.108924 -0.00250378 -1.57788e-06)
(0.109367 -2.61679e-05 -0.00048602)
(0.120458 -0.000116311 -4.76774e-05)
(0.119608 -0.000189338 1.03679e-05)
(0.117751 -0.000221793 1.26606e-06)
(0.117005 -0.000219696 -1.54741e-06)
(0.116755 -0.000205103 -1.04321e-06)
(0.116571 -0.000192337 -5.42077e-07)
(0.116382 -0.000183892 -3.63388e-07)
(0.116223 -0.000179681 -1.18121e-07)
(0.116058 -0.000177867 -2.14103e-07)
(0.116022 -0.000179423 1.35118e-06)
(0.116274 -0.000190905 2.93034e-06)
(0.115966 -0.000206782 1.21071e-06)
(0.115184 -0.00021821 -1.29312e-06)
(0.11463 -0.00022975 -2.57462e-06)
(0.114431 -0.000248776 -2.71012e-06)
(0.114372 -0.000275968 -2.19721e-06)
(0.114298 -0.00030886 -1.63904e-06)
(0.114167 -0.000345779 -1.27209e-06)
(0.113989 -0.000386597 -1.09976e-06)
(0.113778 -0.00043203 -1.03006e-06)
(0.113544 -0.000482924 -1.00118e-06)
(0.113288 -0.000539988 -9.89815e-07)
(0.113012 -0.000603868 -9.91037e-07)
(0.112717 -0.000675184 -9.81826e-07)
(0.112399 -0.000754599 -1.00686e-06)
(0.112065 -0.000842912 -9.54957e-07)
(0.1117 -0.000940823 -1.0063e-06)
(0.111331 -0.00104945 -9.53641e-07)
(0.110916 -0.00116949 -8.73642e-07)
(0.110499 -0.00130256 -9.49523e-07)
(0.110054 -0.00144903 -7.63618e-07)
(0.109565 -0.00161176 -6.39595e-07)
(0.109062 -0.00178818 -9.34365e-07)
(0.108566 -0.00199432 -1.46574e-06)
(0.109448 -2.06921e-05 -0.00048711)
(0.120531 -9.54918e-05 -4.77872e-05)
(0.119657 -0.00015169 1.03413e-05)
(0.117781 -0.000172198 1.21003e-06)
(0.117027 -0.000165691 -1.5918e-06)
(0.116774 -0.000151812 -1.06682e-06)
(0.11659 -0.00014114 -5.49981e-07)
(0.116402 -0.000135024 -3.68432e-07)
(0.116248 -0.000131665 -9.33332e-08)
(0.116084 -0.000131449 -2.45933e-07)
(0.116054 -0.000134128 1.45814e-06)
(0.116364 -0.000136111 3.19973e-06)
(0.116063 -0.00014019 1.30658e-06)
(0.115221 -0.000151807 -1.3753e-06)
(0.114619 -0.000168733 -2.71226e-06)
(0.114409 -0.000187011 -2.85644e-06)
(0.114353 -0.000206337 -2.31307e-06)
(0.114281 -0.000228076 -1.71659e-06)
(0.114148 -0.000253151 -1.32362e-06)
(0.113965 -0.000281873 -1.13929e-06)
(0.113748 -0.000314359 -1.06447e-06)
(0.113505 -0.000350896 -1.03301e-06)
(0.11324 -0.000391836 -1.02011e-06)
(0.112955 -0.000437767 -1.01975e-06)
(0.112649 -0.000488986 -1.00987e-06)
(0.112319 -0.000546285 -1.03282e-06)
(0.111973 -0.000609937 -9.79644e-07)
(0.111593 -0.000680752 -1.02867e-06)
(0.111208 -0.000759418 -9.7515e-07)
(0.110776 -0.000846414 -8.89548e-07)
(0.110339 -0.000942867 -9.66348e-07)
(0.109874 -0.00104884 -7.71833e-07)
(0.109361 -0.0011671 -6.34892e-07)
(0.108832 -0.00129602 -9.19977e-07)
(0.108306 -0.00144473 -1.31397e-06)
(0.109558 -1.26355e-05 -0.000488251)
(0.120627 -6.11936e-05 -4.78262e-05)
(0.119705 -9.54493e-05 1.03401e-05)
(0.117801 -0.000107862 1.20628e-06)
(0.117038 -0.000104091 -1.57873e-06)
(0.116785 -9.60012e-05 -1.05461e-06)
(0.116602 -8.97287e-05 -5.52134e-07)
(0.116417 -8.64188e-05 -3.58896e-07)
(0.116252 -8.44488e-05 -1.78596e-07)
(0.1161 -8.53472e-05 -7.15415e-08)
(0.116038 -8.77745e-05 8.38991e-07)
(0.116076 -8.34621e-05 1.88266e-06)
(0.115788 -7.95687e-05 1.01665e-06)
(0.115212 -8.87424e-05 -8.4166e-07)
(0.114759 -0.000105926 -2.04241e-06)
(0.11454 -0.000120994 -2.31808e-06)
(0.114429 -0.000132276 -1.99598e-06)
(0.114314 -0.000143032 -1.56342e-06)
(0.114157 -0.00015606 -1.2698e-06)
(0.113961 -0.000172288 -1.12302e-06)
(0.113735 -0.000191524 -1.05849e-06)
(0.113485 -0.000213522 -1.03151e-06)
(0.113213 -0.000238217 -1.02183e-06)
(0.11292 -0.00026594 -1.02038e-06)
(0.112605 -0.000296802 -1.0238e-06)
(0.112269 -0.000331434 -1.01647e-06)
(0.111909 -0.000369872 -1.02996e-06)
(0.111529 -0.000412773 -9.84356e-07)
(0.111118 -0.000460426 -1.00415e-06)
(0.110693 -0.000513283 -9.57157e-07)
(0.110228 -0.000571874 -8.66847e-07)
(0.109747 -0.000636439 -9.00285e-07)
(0.109239 -0.000709016 -7.56376e-07)
(0.108688 -0.000788552 -6.43033e-07)
(0.108115 -0.000879709 -8.60522e-07)
(0.109671 -5.08964e-06 -0.000489254)
(0.120718 -2.80803e-05 -4.78386e-05)
(0.119748 -4.317e-05 1.03134e-05)
(0.11782 -4.82595e-05 1.16157e-06)
(0.117048 -4.6025e-05 -1.60366e-06)
(0.116794 -4.19492e-05 -1.06857e-06)
(0.11661 -3.89262e-05 -5.67892e-07)
(0.116425 -3.72575e-05 -3.75579e-07)
(0.116251 -3.62383e-05 -2.43293e-07)
(0.116091 -3.61784e-05 -1.19799e-07)
(0.115967 -3.61554e-05 2.69167e-07)
(0.115838 -3.33572e-05 7.30853e-07)
(0.115583 -3.1036e-05 4.30785e-07)
(0.115236 -3.43164e-05 -5.181e-07)
(0.114935 -4.11413e-05 -1.32532e-06)
(0.11472 -4.70048e-05 -1.61224e-06)
(0.11455 -5.08476e-05 -1.50725e-06)
(0.114381 -5.39946e-05 -1.29694e-06)
(0.114192 -5.77912e-05 -1.14108e-06)
(0.113979 -6.27761e-05 -1.06061e-06)
(0.113743 -6.89026e-05 -1.027e-06)
(0.113485 -7.60005e-05 -1.01601e-06)
(0.113207 -8.40077e-05 -1.01533e-06)
(0.112909 -9.30088e-05 -1.01867e-06)
(0.112589 -0.000103108 -1.02546e-06)
(0.112248 -0.00011445 -1.0189e-06)
(0.111882 -0.000127134 -1.03427e-06)
(0.111497 -0.000141286 -9.87584e-07)
(0.11108 -0.00015705 -1.00915e-06)
(0.110649 -0.000174583 -9.60749e-07)
(0.110177 -0.000194021 -8.69383e-07)
(0.109689 -0.000215541 -9.0147e-07)
(0.109171 -0.000239408 -7.54991e-07)
(0.108611 -0.000265418 -6.2976e-07)
(0.108026 -0.000295479 -8.07552e-07)
(0.184496 -0.000176823 -0.000484952)
(0.187953 -0.000944784 -7.61162e-05)
(0.187715 -0.00163244 2.23765e-05)
(0.186467 -0.00190105 1.76627e-05)
(0.185737 -0.00177373 5.38203e-06)
(0.185497 -0.00150258 9.37622e-07)
(0.185436 -0.00126942 1.78265e-07)
(0.185428 -0.00111465 6.13874e-07)
(0.185408 -0.00102495 -4.28642e-07)
(0.185451 -0.000981595 -5.21821e-07)
(0.185475 -0.000968475 4.21484e-06)
(0.185417 -0.000983014 6.48605e-06)
(0.18536 -0.00102373 2.52278e-06)
(0.185365 -0.00108673 -2.04726e-06)
(0.185415 -0.00116882 -3.51073e-06)
(0.185472 -0.00126994 -2.79312e-06)
(0.185515 -0.00139256 -1.66627e-06)
(0.185547 -0.00153792 -9.16743e-07)
(0.185577 -0.0017045 -5.89759e-07)
(0.185615 -0.00188989 -5.16629e-07)
(0.185663 -0.00209231 -5.56518e-07)
(0.185723 -0.00231123 -6.31309e-07)
(0.185797 -0.00254601 -7.5211e-07)
(0.185885 -0.00279663 -8.17404e-07)
(0.185984 -0.00306175 -1.07283e-06)
(0.186105 -0.00334098 -1.08944e-06)
(0.186236 -0.00363177 -1.37768e-06)
(0.186393 -0.00393455 -1.74576e-06)
(0.186562 -0.0042448 -1.51968e-06)
(0.186768 -0.00456552 -1.65167e-06)
(0.186962 -0.0048868 -4.2397e-06)
(0.187272 -0.00521725 -2.79413e-06)
(0.187469 -0.00554726 -5.40201e-06)
(0.188013 -0.00587445 -1.66649e-06)
(0.188039 -0.00620964 1.68887e-05)
(0.185312 -0.000163844 -0.000502139)
(0.1891 -0.000897914 -8.49278e-05)
(0.189514 -0.00157432 2.07405e-05)
(0.188804 -0.0018398 1.8592e-05)
(0.188307 -0.00171912 6.24167e-06)
(0.188098 -0.00146068 1.41409e-06)
(0.188008 -0.00123959 5.49515e-07)
(0.187959 -0.00109358 7.60604e-07)
(0.187913 -0.00100658 5.1417e-07)
(0.187885 -0.000960393 6.65617e-07)
(0.187837 -0.000946697 3.48727e-06)
(0.187731 -0.00096285 5.33196e-06)
(0.187626 -0.00100265 2.70506e-06)
(0.187581 -0.00106484 -1.30127e-06)
(0.187603 -0.00115055 -3.29238e-06)
(0.187665 -0.00125819 -3.22646e-06)
(0.187737 -0.00138566 -2.36096e-06)
(0.187804 -0.00153166 -1.54403e-06)
(0.18786 -0.00169567 -1.02124e-06)
(0.18791 -0.00187767 -7.5272e-07)
(0.187957 -0.0020778 -6.41235e-07)
(0.188006 -0.00229617 -6.03879e-07)
(0.18806 -0.00253272 -6.48923e-07)
(0.188124 -0.00278716 -6.3995e-07)
(0.188194 -0.00305909 -8.55754e-07)
(0.188282 -0.0033475 -8.21586e-07)
(0.188376 -0.00365209 -1.0715e-06)
(0.188493 -0.00397013 -1.46542e-06)
(0.188615 -0.00430305 -1.12842e-06)
(0.188776 -0.00464397 -8.50565e-07)
(0.188907 -0.00500231 -3.91674e-06)
(0.189141 -0.00535585 -2.70951e-06)
(0.189259 -0.00576772 -5.83036e-06)
(0.189572 -0.00610473 -2.1314e-06)
(0.18959 -0.00674597 -5.25092e-06)
(0.185904 -0.000178349 -0.000502395)
(0.189589 -0.000941369 -8.45688e-05)
(0.189882 -0.00158978 2.12099e-05)
(0.189059 -0.00179822 1.82749e-05)
(0.188489 -0.00164705 5.62771e-06)
(0.188244 -0.00139573 1.06717e-06)
(0.188134 -0.0011969 4.06663e-07)
(0.188079 -0.0010692 8.17832e-07)
(0.188023 -0.000990609 1.38846e-07)
(0.188013 -0.000943899 -1.57632e-06)
(0.188007 -0.000927165 2.42303e-06)
(0.187874 -0.000944443 9.249e-06)
(0.187705 -0.000990984 7.59941e-06)
(0.187619 -0.00106335 4.14593e-08)
(0.187636 -0.00116007 -4.42037e-06)
(0.187706 -0.00127636 -4.55744e-06)
(0.187776 -0.00140725 -3.02315e-06)
(0.187827 -0.00155112 -1.66074e-06)
(0.187859 -0.00170976 -8.95184e-07)
(0.187881 -0.00188616 -5.68692e-07)
(0.1879 -0.00208237 -4.72658e-07)
(0.187923 -0.00229882 -4.61085e-07)
(0.18795 -0.00253533 -5.40217e-07)
(0.187987 -0.00279091 -5.42749e-07)
(0.18803 -0.00306542 -7.9968e-07)
(0.188089 -0.00335745 -7.64469e-07)
(0.188157 -0.00366724 -1.03582e-06)
(0.188241 -0.00399162 -1.5687e-06)
(0.188344 -0.00433238 -9.21699e-07)
(0.18846 -0.00468202 -1.33819e-06)
(0.188604 -0.00504753 -3.07582e-06)
(0.188772 -0.00540521 -4.81923e-06)
(0.188965 -0.00578471 -4.77777e-06)
(0.189173 -0.00611268 -4.43824e-06)
(0.18937 -0.0065161 -8.16215e-06)
(0.186551 -0.000155047 -0.000511499)
(0.190151 -0.00086062 -8.60932e-05)
(0.19022 -0.00146929 2.27993e-05)
(0.189178 -0.00168234 1.96851e-05)
(0.188517 -0.00156182 6.33372e-06)
(0.188272 -0.0013398 1.34839e-06)
(0.188181 -0.00115882 5.25078e-07)
(0.18813 -0.00104017 7.30069e-07)
(0.188078 -0.000966861 2.26477e-07)