/*--------------------------------*- C++ -*----------------------------------*\
  =========                 |
  \\      /  F ield         | OpenFOAM: The Open Source CFD Toolbox
   \\    /   O peration     | Website:  https://openfoam.org
    \\  /    A nd           | Version:  6
     \\/     M anipulation  |
\*---------------------------------------------------------------------------*/
FoamFile
{
    version     2.0;
    format      ascii;
    class       volScalarField;
    location    "44";
    object      yPlus;
}
// * * * * * * * * * * * * * * * * * * * * * * * * * * * * * * * * * * * * * //

dimensions      [0 0 0 0 0 0 0];

internalField   uniform 0;

boundaryField
{
    inlet
    {
        type            calculated;
        value           uniform 0;
    }
    outlet
    {
        type            calculated;
        value           uniform 0;
    }
    roughCylinder
    {
        type            calculated;
        value           nonuniform List<scalar> 
5120
(
42.5963
50.3605
56.5284
62.5369
67.6778
71.8216
75.1293
77.7954
79.9744
81.8025
83.3983
84.8283
86.1306
87.3372
88.4778
89.5822
90.6799
91.7978
92.9583
94.1773
95.4631
96.8176
98.2375
99.7155
101.241
102.802
104.382
105.956
107.485
108.9
110.058
110.736
41.9027
49.3857
55.3592
61.2332
66.3045
70.4147
73.7044
76.3623
78.5419
80.3774
81.981
83.4139
84.7069
85.8984
87.0204
88.1034
89.1777
90.2711
91.4063
92.5984
93.856
95.181
96.5699
98.0153
99.5072
101.033
102.576
104.113
105.605
106.985
108.114
108.775
41.1383
48.3744
54.1638
59.9032
64.9052
68.9861
72.2655
74.9251
77.1157
78.9668
80.5824
82.0186
83.3056
84.4864
85.5924
86.656
87.7089
88.779
89.8887
91.0545
92.2845
93.5804
94.9388
96.3522
97.8104
99.3013
100.808
102.309
103.764
105.11
106.21
106.853
40.3491
47.3516
52.9577
58.5593
63.4914
67.5459
70.8198
73.4875
75.6978
77.5733
79.2071
80.6515
81.9394
83.1101
84.2018
85.2479
86.2803
87.3282
88.4152
89.556
90.7594
92.0272
93.3558
94.7376
96.1627
97.619
99.0894
100.553
101.973
103.285
104.356
104.981
39.5098
46.2898
51.71
57.1698
62.0343
66.0724
69.3556
72.0471
74.2889
76.1944
77.8491
79.3044
80.5962
81.7629
82.8454
83.8772
84.8926
85.9211
86.9853
88.1023
89.2805
90.5213
91.8211
93.1729
94.5661
95.9888
97.425
98.8535
100.238
101.517
102.56
103.166
38.6622
45.222
50.451
55.764
60.5613
64.5884
67.886
70.6041
72.8807
74.822
76.5045
77.9776
79.2805
80.4497
81.525
82.545
83.5447
84.5548
85.6001
86.6957
87.85
89.0651
90.3374
91.6591
93.0207
94.4097
95.8114
97.2046
98.5542
99.7997
100.815
101.405
37.7575
44.1012
49.13
54.2865
59.0162
63.044
66.3767
69.1441
71.4715
73.4545
75.1669
76.6613
77.9775
79.1553
80.2319
81.2463
82.2354
83.2317
84.258
85.3328
86.4649
87.6556
88.9013
90.1951
91.5265
92.8839
94.2527
95.6117
96.9275
98.1414
99.1295
99.7023
36.843
42.9691
47.7901
52.7826
57.4446
61.4801
64.853
67.6672
70.0428
72.0745
73.8287
75.3542
76.6951
77.888
78.9719
79.9828
80.9636
81.9468
82.9596
84.0174
85.1288
86.2965
87.517
88.7824
90.0836
91.4089
92.7434
94.0686
95.3507
96.5319
97.4936
98.0486
35.8463
41.7544
46.3512
51.1601
55.7446
59.7968
63.2372
66.1366
68.5934
70.6859
72.4837
74.0444
75.4106
76.6244
77.7219
78.7428
79.723
80.7014
81.7003
82.7413
83.8342
84.9802
86.1762
87.4156
88.6882
89.9831
91.2865
92.5784
93.8278
94.9784
95.9129
96.4516
34.8198
40.5055
44.8711
49.4858
53.9907
58.0686
61.5838
64.56
67.0847
69.2479
71.112
72.7243
74.135
75.3797
76.4984
77.5264
78.5106
79.4849
80.4779
81.5077
82.5838
83.7099
84.8828
86.0951
87.338
88.6009
89.8698
91.1281
92.3429
93.4621
94.3699
94.8899
33.647
39.1141
43.2278
47.6139
52.0099
56.1101
59.7339
62.8552
65.5216
67.7853
69.7162
71.3852
72.8357
74.1167
75.2626
76.3166
77.3127
78.2936
79.2806
80.2993
81.3613
82.4686
83.6186
84.8059
86.0207
87.2534
88.4917
89.7165
90.8995
91.9881
92.869
93.3731
32.3813
37.6416
41.4973
45.6425
49.9246
54.0605
57.8078
61.0565
63.8246
66.1999
68.2439
69.9969
71.5245
72.8598
74.0469
75.1198
76.1322
77.1168
78.107
79.1222
80.1722
81.2627
82.392
83.5529
84.7378
85.9376
87.1399
88.3306
89.4778
90.5356
91.3894
91.8728
30.8842
35.9391
39.4998
43.3384
47.4348
51.5657
55.4649
58.9645
62.0049
64.5669
66.7216
68.5731
70.161
71.5523
72.784
73.9053
74.9451
75.9514
76.9444
77.9538
78.9948
80.0701
81.178
82.3154
83.4728
84.6428
85.8154
86.9715
88.0887
89.1141
89.9406
90.4081
29.1851
34.0595
37.3308
40.8526
44.7576
48.9098
53.0004
56.7109
59.9024
62.6585
65.0252
67.0171
68.7412
70.2287
71.5335
72.6888
73.7619
74.7814
75.7887
76.8049
77.8398
78.9021
79.9921
81.1032
82.2298
83.365
84.4981
85.62
86.6978
87.6927
88.4901
88.9357
27.0484
31.7558
34.6859
37.7676
41.311
45.3321
49.5751
53.7301
57.511
60.6507
63.2193
65.4079
67.2335
68.8072
70.1792
71.4177
72.5385
73.6015
74.6243
75.6409
76.6729
77.7239
78.7939
79.8829
80.9817
82.0869
83.1914
84.2762
85.3252
86.2855
87.0539
87.4833
24.3909
29.0171
31.6636
34.3398
37.5474
41.5373
46.1109
50.5843
54.5062
58.0238
61.0493
63.485
65.566
67.3201
68.828
70.1207
71.3009
72.3891
73.4402
74.4787
75.5123
76.5551
77.6103
78.6717
79.7374
80.8038
81.8627
82.9121
83.9152
84.8443
85.5811
85.9851
20.6389
25.3327
27.6279
29.6337
32.0538
35.4316
39.8021
45.1899
50.7525
55.149
58.5724
61.475
63.7602
65.664
67.2721
68.7112
69.969
71.134
72.2199
73.2649
74.3033
75.3396
76.3749
77.416
78.4521
79.4872
80.5185
81.5258
82.5028
83.3925
84.0973
84.4836
15.0381
20.1926
22.5562
24.2207
26.109
29.5185
35.3554
40.9002
45.4821
50.7444
55.3506
58.7199
61.5473
63.8159
65.7039
67.2302
68.5941
69.8027
70.9353
72.0266
73.0775
74.1109
75.1356
76.1448
77.1429
78.1323
79.1069
80.0764
80.9949
81.8512
82.519
82.8761
4.44937
10.0784
11.1316
11.3951
10.6417
10.6655
12.5059
23.5591
38.0647
45.5859
51.0921
55.8116
59.078
61.677
63.7254
65.5367
67.0316
68.3728
69.5739
70.677
71.7427
72.7755
73.7785
74.7696
75.7339
76.6884
77.6364
78.5546
79.4521
80.2624
80.8916
81.2278
4.95926
7.91958
9.30988
8.4604
8.94272
16.5049
11.5341
13.8375
19.6438
35.8952
45.2209
50.7629
55.6132
59.0086
61.7063
63.6634
65.3646
66.7881
68.0645
69.2586
70.354
71.3916
72.3896
73.3394
74.2545
75.1505
76.0227
76.8982
77.7133
78.483
79.065
79.3666
12.4595
16.5965
17.5119
17.1045
14.314
12.0842
10.2327
18.4891
21.0853
20.7409
36.1181
46.6178
51.396
55.7745
58.7725
61.3907
63.3348
64.9981
66.412
67.62
68.7453
69.7909
70.7619
71.6959
72.5688
73.4226
74.2676
75.0758
75.8804
76.5969
77.1292
77.4005
20.0113
24.4971
26.4384
27.2432
26.8254
24.946
22.5497
16.5117
18.8726
5.71954
12.2675
27.4737
44.8456
51.0495
55.8119
58.6262
61.0369
62.8844
64.4287
65.8264
67.0157
68.079
69.0535
69.9273
70.725
71.4941
72.2291
72.9825
73.6576
74.3099
74.7723
75.0056
21.9128
26.8411
29.5191
31.4774
32.621
32.7796
31.6208
29.111
24.1284
19.4575
20.5069
23.5689
30.7137
45.1681
50.407
55.1615
58.0287
60.3462
62.1902
63.588
64.8318
65.9193
66.8547
67.7144
68.4502
69.1655
69.864
70.5235
71.2088
71.8158
72.21
72.381
22.5126
27.5338
30.4198
32.7249
34.4199
35.4908
35.8875
35.4074
33.4269
28.403
24.4336
28.4711
25.9384
32.3451
45.4159
49.9859
54.2582
57.0551
59.1523
61.0037
62.3971
63.5269
64.4833
65.2409
65.8346
66.396
66.9254
67.4908
67.9546
68.3979
68.6696
68.8215
21.8246
26.986
30.0326
32.5705
34.5679
36.0213
36.9371
37.3093
37.017
35.4961
30.9397
28.4233
28.3789
27.8017
33.2518
44.462
48.9948
52.9065
55.7393
57.4589
58.9287
60.1238
61.0033
61.7517
62.2228
62.7301
63.1745
63.615
64.104
64.6537
64.835
64.7926
20.3851
25.6795
28.8209
31.4959
33.6847
35.3905
36.6378
37.4648
37.8991
37.8595
36.7941
32.7585
31.2058
19.9023
8.51482
30.7085
41.8583
46.6689
50.0458
53.1329
55.0175
56.2892
57.253
57.7671
57.919
58.0265
58.1839
58.3761
58.5211
58.349
58.2416
58.3624
18.507
23.8919
27.0608
29.7863
32.0664
33.9193
35.3743
36.4872
37.331
37.9494
38.2193
37.4591
34.0874
28.6582
19.9786
5.55141
27.7937
39.3729
44.5172
46.4142
48.2607
49.7963
50.4524
51.1091
50.8599
50.9544
51.0105
51.0015
50.8718
52.2068
52.8435
51.9514
16.3736
21.7393
24.8348
27.5071
29.7811
31.6981
33.3027
34.652
35.8278
36.9069
37.8894
38.546
38.1505
35.0262
27.9056
21.3449
11.5971
19.9422
31.2556
38.816
41.5784
43.0724
44.2887
43.989
42.759
42.034
40.3537
40.2725
40.1579
37.1521
34.8424
35.012
14.2021
19.416
22.3365
24.8558
27.0306
28.9236
30.5953
32.1111
33.5467
34.9794
36.43
37.7785
38.6485
38.1669
33.8677
33.5115
20.0241
23.6437
14.4048
16.4194
22.1624
25.5786
26.4277
25.9076
32.5011
16.9819
21.8661
13.8031
7.54821
22.1935
29.2361
30.7761
12.276
17.218
19.888
22.182
24.1886
25.9884
27.6528
29.2508
30.8517
32.5204
34.295
36.1109
37.7297
38.6418
37.972
34.5373
28.1247
23.6499
15.0113
13.1977
28.2539
29.2988
13.1157
35.5438
38.0906
31.2287
32.4824
23.4636
8.96204
25.7697
37.9727
37.0633
10.7765
15.375
17.7771
19.8271
21.6418
23.3148
24.9219
26.5276
28.1884
29.9537
31.8651
33.9175
35.9937
37.7755
38.7249
37.8706
36.2
29.5772
25.0755
26.9703
17.8307
29.9681
28.4003
29.759
37.895
32.7476
35.5139
35.0456
33.7712
27.9611
29.4575
29.3551
9.65886
14.0175
16.1917
18.036
19.6897
21.25
22.7871
24.3515
25.9831
27.7179
29.5946
31.6441
33.8523
36.0743
37.9617
38.9524
39.2317
37.7507
33.8246
30.9242
28.2123
28.2434
27.7377
29.3411
31.9328
36.5942
37.4724
38.0944
39.157
39.1662
36.4604
38.073
9.05811
13.2278
15.2416
16.9531
18.5103
20.0022
21.4824
22.9825
24.5256
26.1387
27.8591
29.7344
31.8056
34.059
36.3452
38.3045
39.6827
39.9994
38.648
37.5398
37.4261
36.8638
35.3701
38.5794
40.0947
42.0081
42.5422
42.6146
42.44
42.752
41.7188
41.6393
8.87216
12.954
14.8976
16.5621
18.0943
19.5679
21.0161
22.453
23.8897
25.348
26.8632
28.4846
30.27
32.2687
34.4742
36.7371
38.7697
40.0858
40.1662
40.1098
40.2764
40.2734
39.1433
41.1668
41.9926
42.716
42.9994
42.8729
42.3915
42.9802
42.793
42.0247
9.03168
13.1029
15.0498
16.737
18.3001
19.7942
21.2346
22.6238
23.9682
25.2865
26.6101
27.9818
29.4551
31.0931
32.9512
35.0249
37.1764
39.0351
40.0787
40.7215
41.0805
41.1552
40.4026
41.5366
42.0051
42.2542
42.2148
42.0239
41.4723
41.9997
42.1732
41.2832
9.44303
13.5553
15.5542
17.3107
18.9408
20.4822
21.9376
23.3032
24.584
25.7978
26.9731
28.1449
29.3553
30.6572
32.1136
33.7768
35.6356
37.5128
39.0192
40.1605
40.8026
41.0065
40.5371
41.0098
41.0714
40.9298
40.6628
40.408
39.924
40.3069
40.6231
39.9037
10.0564
14.2401
16.3145
18.1595
19.8705
21.4696
22.9521
24.3128
25.5584
26.708
27.7871
28.8234
29.8467
30.8942
32.0155
33.2673
34.6887
36.2395
37.7169
39.0009
39.8372
40.1786
39.8899
39.9531
39.6899
39.277
38.8767
38.5778
38.2244
38.5256
38.9119
38.4981
10.8198
15.1033
17.2651
19.2041
20.996
22.6521
24.1646
25.5306
26.7614
27.8785
28.906
29.8652
30.7749
31.6573
32.5447
33.4803
34.5088
35.6457
36.8196
37.9334
38.7533
39.1449
38.9739
38.8026
38.3419
37.7784
37.316
37.0145
36.8246
37.1304
37.5744
37.4662
11.643
16.0949
18.352
20.384
22.2521
23.9608
25.503
26.8808
28.1111
29.2184
30.2265
31.1513
32.004
32.7953
33.5421
34.2715
35.0165
35.8044
36.6244
37.4282
38.0631
38.3836
38.2503
37.9461
37.3895
36.7615
36.2798
36.0077
35.9797
36.3429
36.846
36.9767
12.609
17.182
19.5323
21.6536
23.5927
25.3502
26.9217
28.316
29.5559
30.6693
31.679
32.5973
33.4301
34.1813
34.857
35.4706
36.0402
36.5872
37.1195
37.6205
38.0086
38.1731
37.9971
37.6013
36.9981
36.3474
35.8695
35.6429
35.7537
36.1911
36.7512
37.0493
13.7155
14.1749
14.6871
15.1021
15.4943
15.8048
16.0711
16.2752
16.4352
16.5442
16.6139
16.6428
16.636
16.5943
16.5225
16.4231
16.2979
16.1515
15.9917
15.8371
15.7394
15.7868
15.8929
16.0011
16.0934
16.1628
16.2056
16.2208
16.2046
16.1549
16.0668
15.9433
15.7745
15.5668
15.3028
15.0012
14.6251
14.2371
13.7568
13.3413
18.4337
18.9099
19.4425
19.8767
20.2887
20.6229
20.9143
21.1456
21.3339
21.4729
21.5727
21.6322
21.6552
21.6413
21.5933
21.513
21.4012
21.2608
21.0985
20.9325
20.8187
20.8594
20.9619
21.0605
21.1367
21.1848
21.2024
21.1895
21.1435
21.0633
20.9464
20.7951
20.6006
20.3687
20.0829
19.7612
19.3687
18.9643
18.4656
18.0352
20.8915
21.394
21.957
22.4173
22.8585
23.2241
23.551
23.8206
24.0501
24.2331
24.3782
24.4845
24.5546
24.587
24.5818
24.5403
24.4622
24.3489
24.206
24.0503
23.9357
23.9612
24.0391
24.1057
24.1438
24.1487
24.1199
24.058
23.9616
23.832
23.668
23.4718
23.2356
22.9654
22.6447
22.2927
21.8723
21.443
20.9151
20.4603
23.1065
23.6277
24.213
24.6924
25.158
25.5509
25.9097
26.2146
26.4831
26.7085
26.8977
27.0491
27.1652
27.2431
27.2817
27.2799
27.2373
27.1542
27.0358
26.8986
26.7934
26.7979
26.8442
26.8746
26.8723
26.8328
26.7565
26.6449
26.4984
26.3199
26.1095
25.8691
25.5922
25.2856
24.9326
24.5537
24.1095
23.6615
23.1117
22.6392
25.1101
25.6345
26.2266
26.7118
27.1886
27.5964
27.9748
28.3034
28.5993
28.8562
29.0804
29.2687
29.4223
29.5378
29.6127
29.645
29.6331
29.5769
29.4817
29.3644
29.2706
29.2562
29.2728
29.2711
29.2338
29.1568
29.0406
28.888
28.7005
28.4821
28.234
27.9589
27.6522
27.3207
26.9476
26.5539
26.0989
25.6458
25.0897
24.6149
26.8997
27.4111
27.9967
28.4758
28.9529
29.3655
29.7543
30.0992
30.417
30.7004
30.954
31.1739
31.3598
31.5077
31.6141
31.6759
31.6906
31.6581
31.5832
31.4828
31.3979
31.3693
31.362
31.3331
31.2663
31.1574
31.0074
30.8199
30.5979
30.3459
30.0662
29.7627
29.4321
29.0819
28.6974
28.2988
27.8442
27.3981
26.8502
26.3896
28.477
28.9653
29.5379
30.0059
30.4791
30.8943
31.293
31.6546
31.9932
32.3016
32.5824
32.8314
33.0466
33.2235
33.358
33.4459
33.484
33.4718
33.4138
33.3262
33.2466
33.2086
33.183
33.1323
33.0405
32.9041
32.7248
32.5067
32.254
31.9721
31.6638
31.3343
30.9816
30.6139
30.2183
29.8158
29.3658
28.9321
28.3999
27.965
29.8617
30.3242
30.8841
31.3429
31.8148
32.2369
32.6479
33.0271
33.3865
33.7186
34.0248
34.3003
34.5422
34.7451
34.9044
35.015
35.0732
35.0776
35.0327
34.954
34.8772
34.8328
34.7944
34.7266
34.6144
34.4548
34.2503
34.0053
33.7255
33.4165
33.0822
32.7285
32.3547
31.9691
31.5609
31.1514
30.7022
30.279
29.7626
29.357
31.0862
31.5249
32.076
32.5305
33.0063
33.4378
33.862
34.2585
34.6375
34.9912
35.3202
35.6191
35.8843
36.1098
36.2901
36.4198
36.4944
36.5122
36.4768
36.4038
36.3282
36.28
36.2328
36.1523
36.024
35.8454
35.6197
35.3522
35.0489
34.7162
34.3591
33.9835
33.5903
33.1876
32.7666
32.3481
31.896
31.4774
30.9725
30.5943
32.1822
32.6003
33.1465
33.6009
34.0818
34.5231
34.9599
35.3719
35.768
36.1406
36.4891
36.8079
37.0925
37.3367
37.5344
37.6796
37.7674
37.7954
37.767
37.6973
37.6219
37.5714
37.5187
37.429
37.2883
37.0949
36.852
36.5661
36.2435
35.8911
35.5146
35.1203
34.7101
34.2922
33.8592
33.4316
32.9759
32.5587
32.0608
31.7066
33.172
33.5713
34.1136
34.5687
35.0541
35.5043
35.9518
36.377
36.7876
37.1759
37.5405
37.8756
38.1762
38.4356
38.6472
38.8046
38.9026
38.9386
38.9154
38.8481
38.7728
38.7209
38.6643
38.5679
38.4179
38.2129
37.957
37.6563
37.3182
36.9499
36.5575
36.148
35.7237
35.293
34.8498
34.4144
33.9551
33.5389
33.0467
32.7154
34.0648
34.4441
34.9823
35.4371
35.9263
36.3838
36.8403
37.2766
37.6992
38.1003
38.4782
38.8265
39.1398
39.4112
39.6338
39.801
39.9073
39.9499
39.9316
39.8672
39.7928
39.7393
39.679
39.577
39.4196
39.2057
38.9394
38.6275
38.2772
37.8964
37.4915
37.0695
36.6337
36.1924
35.7411
35.2991
34.8373
34.4229
33.9375
33.6294
34.8623
35.219
35.7512
36.2048
36.6968
37.1605
37.6247
38.0704
38.5032
38.915
39.3036
39.6626
39.986
40.2671
40.4985
40.6738
40.7871
40.836
40.8234
40.764
40.692
40.6358
40.5703
40.4623
40.2985
40.0774
39.8032
39.4825
39.1229
38.7321
38.3171
37.8851
37.4398
36.9899
36.5314
36.0842
35.6209
35.2095
34.733
34.4512
35.5627
35.8925
36.4164
36.868
37.3621
37.8314
38.3027
38.7569
39.1985
39.6197
40.0173
40.3852
40.7171
41.0059
41.2446
41.4267
41.5466
41.6021
41.5966
41.5444
41.4763
41.4162
41.3435
41.2287
41.0587
40.8314
40.5508
40.2233
39.8563
39.4577
39.0344
38.594
38.1406
37.6829
37.2183
36.7665
36.3026
35.8955
35.4308
35.1808
36.1636
36.4597
36.9728
37.4216
37.9176
38.3926
38.8709
39.3334
39.7835
40.213
40.6189
40.9944
41.3334
41.629
41.8741
42.0623
42.1887
42.2514
42.2542
42.2106
42.1471
42.0826
42.0016
41.8791
41.7027
41.4698
41.1838
40.8506
40.4776
40.0724
39.6422
39.1942
38.7334
38.2684
37.7979
37.3418
36.8782
36.477
36.0289
35.8179
36.666
36.9171
37.4151
37.8593
38.3572
38.8382
39.3239
39.795
40.2535
40.6914
41.1051
41.4878
41.8334
42.135
42.3859
42.5801
42.713
42.7833
42.7949
42.7604
42.7014
42.6327
42.5433
42.4127
42.2298
41.9916
41.7008
41.3628
40.9845
40.5736
40.1368
39.6816
39.2134
38.7411
38.2646
37.8045
37.3425
36.95
36.5257
36.3666
37.0736
37.2596
37.7324
38.1723
38.6716
39.1594
39.6532
40.1336
40.6011
41.0477
41.4692
41.8591
42.2111
42.5186
42.7752
42.9752
43.1146
43.1925
43.213
43.1868
43.132
43.0597
42.9626
42.8244
42.6351
42.3918
42.0965
41.7541
41.371
40.9543
40.5112
40.0489
39.5731
39.0931
38.6108
38.1471
37.6888
37.3099
36.9196
36.8325
37.3968
37.4876
37.9182
38.3478
38.8484
39.3437
39.8465
40.3371
40.8144
41.2704
41.7003
42.0977
42.4563
42.7698
43.0322
43.2381
43.384
43.4693
43.4979
43.4792
43.4278
43.3528
43.2491
43.1041
42.909
42.661
42.3613
42.0146
41.6267
41.2044
40.7546
40.2848
39.8011
39.3132
38.8253
38.3593
37.9087
37.5503
37.2107
37.2251
37.6459
37.6024
37.9653
38.3733
38.8723
39.3755
39.8883
40.39
40.8783
41.3443
41.7835
42.1889
42.5549
42.8749
43.1433
43.3553
43.5077
43.6001
43.6361
43.6237
43.5752
43.4982
43.3894
43.2384
43.0381
42.7855
42.4817
42.1306
41.7376
41.3095
40.8527
40.375
39.8832
39.3877
38.8953
38.4297
37.9928
37.665
37.4008
37.5522
37.8193
37.6025
37.8677
38.237
38.7271
39.2392
39.7622
40.2763
40.7761
41.2534
41.7025
42.1169
42.4906
42.8179
43.0929
43.3113
43.4702
43.5692
43.6117
43.6049
43.5589
43.4804
43.3675
43.2117
43.0069
42.7501
42.4422
42.0866
41.6884
41.254
40.7902
40.3046
39.805
39.3028
38.8079
38.3469
37.93
37.6495
37.4888
37.8103
37.8963
37.4814
37.6222
37.9333
38.402
38.9179
39.4544
39.9815
40.4943
40.9834
41.4432
41.8672
42.2495
42.5844
42.8665
43.0914
43.2567
43.362
43.4104
43.4081
43.3643
43.2849
43.1691
43.0096
42.801
42.5405
42.2288
41.8689
41.4658
41.0254
40.5549
40.0622
39.5561
39.0496
38.5557
38.1041
37.7175
37.5005
37.4614
37.9631
37.8239
37.2174
37.2258
37.4663
37.9035
38.4156
38.9622
39.5038
40.0294
40.5302
41.0007
41.4342
41.8251
42.1677
42.4567
42.6881
42.8595
42.9704
43.0237
43.0252
42.9831
42.9033
42.7857
42.6238
42.4126
42.1495
41.8349
41.4715
41.0643
40.6192
40.1435
39.6456
39.136
38.6285
38.1402
37.7032
37.3547
37.208
37.2868
37.9454
37.523
36.7737
36.6732
36.8467
37.2492
37.7519
38.3043
38.8596
39.3963
39.9078
40.3873
40.8292
41.2275
41.5767
41.8719
42.1089
42.2852
42.4007
42.4577
42.4618
42.421
42.3413
42.2231
42.0606
41.8488
41.585
41.2693
40.9046
40.4956
40.0483
39.5705
39.0712
38.5615
38.0572
37.5769
37.1587
36.8484
36.7623
36.9258
37.6811
36.9835
36.1568
35.9908
36.1155
36.4882
36.9778
37.529
38.0914
38.6388
39.1581
39.6444
40.0918
40.495
40.8485
41.1474
41.3878
41.5671
41.6848
41.7435
41.7486
41.7081
41.6289
41.5118
41.3511
41.1414
40.8798
40.5662
40.2033
39.7959
39.3503
38.8741
38.3772
37.8714
37.3734
36.9029
36.503
36.2228
36.1791
36.3957
37.2119
36.302
35.4482
35.255
35.3508
35.7016
36.1774
36.7231
37.2866
37.8386
38.3604
38.8488
39.2974
39.7014
40.0554
40.3547
40.595
40.774
40.8911
40.9485
40.9519
40.9104
40.8318
40.7177
40.5621
40.3584
40.1031
39.796
39.4394
39.0384
38.5991
38.1296
37.64
37.1424
36.6545
36.1959
35.8116
35.5501
35.5267
35.758
36.5889
35.5724
34.7569
34.5824
34.6755
35.0171
35.4813
36.0173
36.5736
37.1206
37.6375
38.1207
38.5642
38.9631
39.312
39.6063
39.8417
40.0157
40.1276
40.1795
40.1775
40.1323
40.0537
39.9448
39.7979
39.6047
39.3604
39.0642
38.7186
38.3282
37.8994
37.4405
36.9616
36.4748
35.998
35.5507
35.1773
34.9235
34.903
35.1255
35.9442
35.134
34.3207
34.148
34.2332
34.5627
35.0121
35.5329
36.0748
36.6086
37.1137
37.5856
38.0183
38.4066
38.7455
39.03
39.2561
39.4209
39.5233
39.5654
39.5536
39.5009
39.4216
39.3207
39.1876
39.01
38.7817
38.5014
38.1715
37.7968
37.3837
36.9403
36.4767
36.0054
35.544
35.1129
34.753
34.506
34.4841
34.6911
35.4873
35.0143
34.2174
34.0566
34.1414
34.4619
34.8947
35.3949
35.9139
36.4246
36.9093
37.3621
37.7769
38.1485
38.4714
38.7411
38.9531
39.1045
39.1938
39.2224
39.1965
39.1316
39.0497
38.9601
38.8455
38.6878
38.4792
38.2184
37.9079
37.5525
37.1588
36.7346
36.2901
35.8377
35.3948
34.9825
34.6374
34.3966
34.3683
34.5522
35.31
35.143
34.4303
34.3189
34.4207
34.7387
35.1548
35.63
36.1189
36.598
37.0547
37.4818
37.8732
38.2229
38.5259
38.7771
38.9724
39.1086
39.1834
39.1977
39.1568
39.0777
38.9924
38.9188
38.827
38.6925
38.5066
38.2689
37.982
37.6513
37.2828
36.8847
36.4667
36.0412
35.6253
35.2392
34.9197
34.6953
34.6682
34.8242
35.5238
35.4293
34.8383
34.801
34.9401
35.2682
35.6756
36.1306
36.5924
37.043
37.4724
37.8738
38.241
38.5683
38.8505
39.0829
39.2614
39.3825
39.444
39.446
39.3929
39.3014
39.2134
39.1569
39.0865
38.9727
38.8077
38.5915
38.3273
38.0202
37.6761
37.3029
36.91
36.5088
36.1159
35.7506
35.4485
35.2355
35.211
35.3514
36.0202
36.0917
35.4937
35.4531
35.5835
35.8968
36.2833
36.7131
37.1477
37.5737
37.9804
38.3608
38.7085
39.0177
39.2834
39.5009
39.6662
39.7758
39.8278
39.8216
39.7613
39.6638
39.5766
39.5338
39.4786
39.3802
39.2314
39.0325
38.7871
38.4998
38.1764
37.8246
37.4529
37.0727
36.6996
36.3517
36.0639
35.8594
35.8373
35.9682
36.6213
36.7289
36.1301
36.0778
36.18
36.4613
36.8123
37.2077
37.6107
38.0103
38.3944
38.7553
39.0859
39.3801
39.6328
39.839
39.9947
40.0963
40.1417
40.1306
40.0668
39.968
39.8846
39.8503
39.8037
39.7146
39.5761
39.3888
39.1562
38.8826
38.5742
38.2379
37.8824
37.5184
37.161
36.8269
36.5499
36.349
36.3211
36.4243
37.0256
42.7282
50.4991
56.6733
62.6852
67.8273
71.9713
75.2785
77.9437
80.1218
81.9492
83.5455
84.9757
86.2785
87.4855
88.6266
89.7314
90.8299
91.9486
93.1098
94.3295
95.6161
96.9712
98.3917
99.8704
101.397
102.959
104.539
106.115
107.645
109.064
110.225
110.906
42.0522
49.5391
55.5173
61.3932
66.4644
70.5734
73.8619
76.5182
78.6959
80.5298
82.133
83.5655
84.8586
86.0505
87.173
88.2567
89.3317
90.4258
91.5617
92.7545
94.0127
95.3383
96.7278
98.1739
99.6665
101.193
102.737
104.275
105.769
107.153
108.286
108.949
41.2842
48.5277
54.3244
60.0675
65.0703
69.1505
72.4285
75.0863
77.2751
79.1254
80.741
82.1772
83.4639
84.6444
85.7505
86.814
87.8672
88.9378
90.0479
91.2143
92.445
93.7414
95.1003
96.5144
97.9732
99.465
100.973
102.474
103.932
105.282
106.386
107.031
40.5174
47.5246
53.1363
58.7397
63.6707
67.7227
70.9938
73.659
75.8668
77.7399
79.372
80.8148
82.1015
83.2719
84.3635
85.4101
86.4428
87.4911
88.5786
89.7199
90.9237
92.192
93.5212
94.9037
96.3295
97.7866
99.2583
100.723
102.145
103.461
104.537
105.164
39.6733
46.4625
51.8913
57.3554
62.2202
66.2564
69.5367
72.2251
74.4642
76.368
78.022
79.4764
80.7673
81.9327
83.0142
84.0449
85.0599
86.0885
87.1526
88.27
89.4487
90.6899
91.9903
93.3425
94.7365
96.1594
97.5963
99.0263
100.413
101.696
102.744
103.354
38.857
45.4229
50.6588
55.9738
60.7685
64.7905
68.0831
70.7971
73.07
75.0072
76.6858
78.1558
79.4557
80.6229
81.697
82.7172
83.7167
84.7265
85.7722
86.8678
88.0223
89.2378
90.5105
91.8329
93.1952
94.5852
95.9875
97.3817
98.7342
99.984
101.005
101.597
37.9445
44.3004
49.3403
54.5024
59.2319
63.2558
66.5833
69.345
71.6673
73.6471
75.3579
76.8503
78.1647
79.3399
80.414
81.4255
82.413
83.4086
84.4341
85.509
86.6414
87.8323
89.0785
90.3726
91.7045
93.0625
94.4314
95.7923
97.1105
98.3295
99.3238
99.8993
37.0768
43.2113
48.0418
53.0371
57.6943
61.7206
65.084
67.891
70.2609
72.2858
74.0326
75.5521
76.8871
78.0759
79.1562
80.1666
81.1466
82.1286
83.1413
84.1986
85.3098
86.4778
87.6985
88.9646
90.2666
91.5925
92.9284
94.2541
95.5389
96.726
97.6938
98.2519
36.0672
41.9912
46.6028
51.4196
56.0039
60.0497
63.481
66.3699
68.8165
70.9026
72.6976
74.2551
75.6186
76.8283
77.9215
78.9369
79.9132
80.8897
81.8868
82.9273
84.0201
85.1661
86.3624
87.602
88.875
90.1697
91.4734
92.7675
94.0183
95.176
96.1183
96.66
35.114
40.8121
45.1919
49.8116
54.3093
58.3711
61.8684
64.8305
67.3455
69.4978
71.3482
72.95
74.3497
75.5865
76.6986
77.7253
78.7079
79.679
80.6713
81.7
82.7753
83.9012
85.0742
86.2872
87.5309
88.7946
90.0646
91.3233
92.5416
93.6673
94.5832
95.1066
33.9201
39.4067
43.5395
47.9379
52.3351
56.4264
60.0352
63.1374
65.7833
68.0335
69.9602
71.6228
73.0705
74.3458
75.4861
76.5309
77.5198
78.4971
79.4806
80.4977
81.5591
82.6661
83.8162
85.0035
86.2185
87.4507
88.6884
89.9149
91.0992
92.1973
93.0883
93.5954
32.7783
38.0547
41.9332
46.0898
50.3633
54.4721
58.1843
61.4041
64.1543
66.5108
68.5283
70.2644
71.7718
73.0924
74.2677
75.3381
76.3482
77.3275
78.3161
79.329
80.3773
81.4671
82.5962
83.7578
84.9438
86.1441
87.3473
88.5377
89.69
90.7554
91.6185
92.106
31.2415
36.3153
39.8998
43.7579
47.8615
51.9847
55.863
59.3287
62.3264
64.8586
67.0075
68.8448
70.4296
71.8151
73.0405
74.1472
75.1746
76.1748
77.1618
78.1684
79.2078
80.2824
81.3905
82.5274
83.6847
84.8533
86.0238
87.1825
88.2987
89.3377
90.1784
90.6493
29.7691
34.6636
37.9754
41.5274
45.4283
49.5352
53.5532
57.2001
60.355
63.0759
65.3858
67.351
69.0392
70.4988
71.7813
72.9326
74.0024
75.0138
76.0184
77.0307
78.0627
79.1233
80.2128
81.3249
82.4528
83.5884
84.7223
85.8422
86.9265
87.9315
88.7411
89.1908
27.5571
32.268
35.2171
38.324
41.8916
45.9225
50.156
54.2544
57.9417
61.0098
63.5741
65.7256
67.5449
69.1141
70.4825
71.6976
72.7984
73.8518
74.8645
75.8764
76.9056
77.9559
79.0262
80.1139
81.2125
82.3147
83.415
84.5026
85.548
86.5274
87.316
87.7487
25.3972
30.0365
32.7576
35.5178
38.7504
42.6615
47.0464
51.3666
55.2072
58.6565
61.538
63.9339
65.9504
67.6502
69.1122
70.3989
71.5748
72.6508
73.6979
74.7299
75.7592
76.7984
77.8527
78.9159
79.9836
81.0504
82.1096
83.1534
84.166
85.1091
85.8615
86.2688
21.5
26.0933
28.3621
30.3586
32.8216
36.2851
40.8303
46.1241
51.4428
55.6236
59.0702
61.8637
64.1288
66.0291
67.6454
69.0452
70.2705
71.4212
72.4904
73.5286
74.562
75.5979
76.6343
77.6729
78.7088
79.7385
80.7621
81.7736
82.7406
83.6577
84.3918
84.7825
17.4428
22.5261
24.9034
26.8523
29.0325
32.3494
37.0797
42.1928
46.7173
51.9276
56.0818
59.4024
62.0952
64.2564
66.0401
67.5576
68.9162
70.1045
71.2324
72.3125
73.3575
74.3842
75.4076
76.4204
77.4219
78.4116
79.3856
80.3416
81.2759
82.1527
82.8417
83.1998
5.30994
13.1864
15.5429
15.5436
13.1708
12.8944
18.2722
28.6895
40.0785
46.2048
51.9408
56.2882
59.5396
62.1218
64.2154
65.9528
67.3913
68.7134
69.8853
70.979
72.0361
73.0705
74.0765
75.0631
76.0276
76.9727
77.9073
78.8347
79.7076
80.5587
81.2315
81.5735
8.06965
3.09632
3.5041
6.85406
8.4086
9.31042
17.727
11.8925
22.6763
39.6026
46.5478
52.199
56.514
59.6886
62.1229
64.0712
65.7658
67.1486
68.4209
69.5947
70.6822
71.7072
72.7038
73.661
74.5828
75.4791
76.3485
77.1928
78.038
78.8402
79.4552
79.7495
9.74731
14.0153
14.726
14.2384
14.0836
10.5505
6.44536
14.1726
21.996
15.0017
37.3474
46.2174
52.0883
56.3412
59.5018
61.9425
63.7779
65.4223
66.7804
67.9773
69.0876
70.1397
71.1185
72.0445
72.9197
73.7569
74.5784
75.4115
76.1566
76.9369
77.5343
77.8171
19.0619
23.2671
24.8366
25.1185
23.9997
21.4009
16.6647
10.3812
13.7412
22.5278
17.1553
37.2793
46.5986
52.3718
56.3337
59.1955
61.5983
63.343
64.8873
66.2431
67.4215
68.4592
69.4338
70.3228
71.136
71.9051
72.6311
73.3095
74.0534
74.7618
75.2869
75.4851
21.6352
26.495
29.0581
30.8145
31.6354
31.3463
29.5736
25.6915
21.7608
22.8478
16.2797
23.8888
36.2849
45.8252
51.7664
55.9278
58.5773
60.9163
62.6408
64.0309
65.2491
66.3555
67.3111
68.1567
68.9014
69.5827
70.2443
70.9807
71.5092
72.2218
72.7098
72.9207
22.7076
27.6967
30.5355
32.7565
34.3168
35.1817
35.2675
34.3092
31.5501
26.9015
27.0893
29.9053
26.557
36.9272
45.889
51.0227
55.2425
57.7101
59.8259
61.5735
62.9476
64.02
64.9791
65.7705
66.4089
66.9728
67.4627
67.8311
68.4828
69.041
69.4638
69.4782
22.4015
27.5305
30.552
33.0382
34.9502
36.2773
37.0158
37.1461
36.5278
34.4793
29.308
30.6233
28.6196
26.0338
34.6765
45.1524
49.583
53.7705
56.2843
58.0359
59.4739
60.7212
61.6604
62.3809
62.8872
63.2948
63.7113
64.4349
64.4523
65.1539
65.442
65.5897
21.0866
26.3567
29.4883
32.1359
34.2715
35.8944
37.0252
37.6963
37.928
37.6393
36.255
31.6879
29.7568
31.7347
31.8523
33.7421
43.9714
47.7434
51.3149
54.0605
55.9054
57.018
57.9646
58.5829
58.8733
59.0287
58.9905
58.5484
59.3195
59.495
59.8673
59.3947
19.2204
24.6028
27.7804
30.4997
32.751
34.5478
35.921
36.9304
37.656
38.1518
38.2938
37.2455
32.9517
31.0892
18.3838
9.23127
29.9283
40.9925
44.9293
47.2339
49.0356
50.7489
51.6199
52.0823
52.1499
51.7623
51.9004
53.4547
51.9174
52.6271
52.9696
53.4073
17.0134
22.4187
25.5527
28.2484
30.522
32.4096
33.9552
35.2196
36.2912
37.2573
38.1276
38.6366
37.849
33.0388
27.8062
12.6422
5.8283
23.7229
35.0426
40.1212
43.6494
44.8106
45.2549
45.8506
45.0359
44.2071
42.6459
40.3468
39.4123
40.2147
38.8316
36.4901
14.7275
20.015
22.9979
25.5655
27.766
29.6586
31.3038
32.7691
34.135
35.4857
36.8546
38.1388
38.9577
38.3193
34.0289
26.4118
16.6005
8.34527
11.1634
27.2764
24.6733
26.4323
28.8963
27.1436
27.5633
21.8526
21.1621
23.5942
38.4172
19.3783
35.8466
32.5449
12.635
17.6667
20.4111
22.7695
24.8229
26.6496
28.3206
29.9056
31.4749
33.0984
34.8219
36.5957
38.2082
39.1911
38.5975
35.0528
25.3845
21.9264
26.5858
33.6418
23.1445
27.3382
12.7169
22.9811
32.6288
10.1905
21.4231
29.9555
40.3921
24.6597
38.9826
34.2242
10.998
15.6706
18.1407
20.2551
22.1247
23.8415
25.4796
27.1018
28.7632
30.5152
32.4056
34.4399
36.5136
38.3329
39.3682
39.0774
35.8432
29.2355
29.6717
30.9225
22.6395
32.5203
16.2276
26.0866
33.663
29.4676
33.4001
32.5886
38.2322
35.0614
36.9479
26.556
9.77026
14.1836
16.4121
18.312
20.0182
21.6264
23.204
24.7985
26.4476
28.1887
30.0644
32.1141
34.3323
36.5799
38.5016
39.6287
39.3624
36.9954
32.9746
28.553
25.3619
27.1718
24.0196
25.8583
27.9809
33.612
34.76
34.2611
35.4883
38.7445
37.2022
38.7796
9.10613
13.3077
15.3597
17.1153
18.7178
20.2529
21.7703
23.2986
24.8603
26.4839
28.2099
30.0903
32.172
34.4439
36.742
38.7003
39.7992
39.7072
38.5803
37.4034
35.3998
34.6729
36.8364
37.3254
38.5851
40.2931
40.9404
40.74
41.1324
42.6161
42.9414
43.3991
8.90145
13.0012
14.9715
16.6714
18.2412
19.7488
21.223
22.6762
24.1215
25.5826
27.0975
28.7175
30.5035
32.5076
34.7166
36.9603
38.8543
39.9833
40.3311
40.3291
39.4202
39.7348
40.6532
40.8874
41.558
41.6219
41.991
42.3552
41.84
42.729
43.7604
43.9914
9.08398
13.1685
15.1368
16.8539
18.4474
19.9651
21.4181
22.809
24.1475
25.4559
26.7679
28.127
29.5873
31.2119
33.0549
35.1042
37.1892
38.9843
40.2516
40.9324
40.793
41.2188
41.6369
41.7667
42.0383
41.5579
41.7926
42.249
41.4251