/*--------------------------------*- C++ -*----------------------------------*\
  =========                 |
  \\      /  F ield         | OpenFOAM: The Open Source CFD Toolbox
   \\    /   O peration     | Website:  https://openfoam.org
    \\  /    A nd           | Version:  6
     \\/     M anipulation  |
\*---------------------------------------------------------------------------*/
FoamFile
{
    version     2.0;
    format      ascii;
    class       volVectorField;
    location    "36";
    object      wallShearStress;
}
// * * * * * * * * * * * * * * * * * * * * * * * * * * * * * * * * * * * * * //

dimensions      [0 2 -2 0 0 0 0];

internalField   uniform (0 0 0);

boundaryField
{
    inlet
    {
        type            calculated;
        value           uniform (0 0 0);
    }
    outlet
    {
        type            calculated;
        value           uniform (0 0 0);
    }
    roughCylinder
    {
        type            calculated;
        value           nonuniform List<vector> 
3840
(
(-0.00011259 -0.000148788 -6.95083e-05)
(-0.000171887 -0.000301019 -4.00286e-05)
(-0.000257346 -0.00045344 3.29118e-05)
(-0.000316637 -0.000518059 8.96271e-05)
(-0.000380826 -0.000560266 0.000138186)
(-0.000424412 -0.000559704 0.000169445)
(-0.000461878 -0.000551137 0.000190561)
(-0.000484071 -0.000532831 0.00020161)
(-0.000505218 -0.000523792 0.000210778)
(-0.000519263 -0.00051731 0.000215022)
(-0.000534303 -0.000519029 0.000216553)
(-0.000541698 -0.000518884 0.000212062)
(-0.000545751 -0.000519581 0.00020356)
(-0.000542985 -0.000516686 0.000190377)
(-0.000540215 -0.000515247 0.00017547)
(-0.000539807 -0.000516592 0.000159988)
(-0.000542478 -0.000521161 0.000144343)
(-0.000545263 -0.000526088 0.000127729)
(-0.000543759 -0.00052691 0.000109511)
(-0.000568836 -0.00055256 9.52199e-05)
(-0.000557401 -0.000544272 7.41491e-05)
(-0.000555494 -0.000544441 5.41598e-05)
(-0.000549531 -0.000540238 3.31753e-05)
(-0.000548737 -0.000540474 1.1254e-05)
(-0.000101941 -0.000119412 -5.43346e-05)
(-0.000180875 -0.000286849 -4.50685e-05)
(-0.000273948 -0.000445854 2.4211e-05)
(-0.00033595 -0.000514993 8.10835e-05)
(-0.000403662 -0.000562011 0.000130263)
(-0.000449709 -0.000565118 0.000162359)
(-0.000490252 -0.0005605 0.000184639)
(-0.00051622 -0.000546163 0.000197856)
(-0.000540792 -0.000538669 0.000209077)
(-0.000557247 -0.000531592 0.000214531)
(-0.000572487 -0.000531783 0.000216098)
(-0.00057966 -0.000530571 0.000211583)
(-0.000583115 -0.00053037 0.000203003)
(-0.000581104 -0.000528218 0.000190349)
(-0.000580642 -0.00052891 0.000176336)
(-0.000580121 -0.000530257 0.000160928)
(-0.000584547 -0.000536391 0.000145758)
(-0.000587923 -0.000541826 0.000129225)
(-0.000586438 -0.000542775 0.000110956)
(-0.000612754 -0.000568328 9.64504e-05)
(-0.000600456 -0.000559945 7.51838e-05)
(-0.000598376 -0.000560228 5.4977e-05)
(-0.000592684 -0.000556613 3.3754e-05)
(-0.000592071 -0.000557105 1.14596e-05)
(-0.000100474 -0.000102834 -4.39508e-05)
(-0.000194762 -0.000276986 -5.1405e-05)
(-0.000290005 -0.00043298 1.45407e-05)
(-0.00035539 -0.000507645 7.13806e-05)
(-0.000425061 -0.000557332 0.00012065)
(-0.000474321 -0.000565504 0.000153972)
(-0.00051841 -0.000565622 0.00017786)
(-0.000546939 -0.000554282 0.00019288)
(-0.000574329 -0.000548376 0.000205699)
(-0.000592278 -0.000539597 0.000211824)
(-0.000609851 -0.000540051 0.000214341)
(-0.000618507 -0.000539084 0.000210445)
(-0.000622327 -0.000538756 0.000202195)
(-0.000621283 -0.00053736 0.00019013)
(-0.000622041 -0.000539019 0.000176649)
(-0.000620481 -0.000539589 0.000161165)
(-0.000627003 -0.000547382 0.000146591)
(-0.000631137 -0.000553439 0.000130251)
(-0.000630143 -0.000554976 0.000112105)
(-0.000657838 -0.000580427 9.74706e-05)
(-0.000646652 -0.00057383 7.6304e-05)
(-0.000645241 -0.000575012 5.59366e-05)
(-0.000639983 -0.000572145 3.44298e-05)
(-0.000639684 -0.000573015 1.17014e-05)
(-0.000108326 -9.59169e-05 -3.68762e-05)
(-0.0001999 -0.000253969 -5.56236e-05)
(-0.000302519 -0.00041359 4.19412e-06)
(-0.000370611 -0.00049283 6.02069e-05)
(-0.000444039 -0.000547946 0.000109745)
(-0.000497164 -0.000562211 0.000144485)
(-0.000544711 -0.000567165 0.000170151)
(-0.000578176 -0.000561235 0.000187862)
(-0.000609348 -0.000557731 0.000202421)
(-0.000632282 -0.000550982 0.000210527)
(-0.000650885 -0.000549363 0.000213413)
(-0.000659128 -0.000546799 0.000209509)
(-0.000662358 -0.000545318 0.00020131)
(-0.000662879 -0.000544979 0.000189995)
(-0.000665687 -0.000548167 0.000177259)
(-0.000664225 -0.000548996 0.000162023)
(-0.00067271 -0.000558152 0.000147929)
(-0.000677769 -0.000564936 0.000131767)
(-0.000676981 -0.000566833 0.00011364)
(-0.000703984 -0.000590435 9.85523e-05)
(-0.000692332 -0.000584254 7.72899e-05)
(-0.000690928 -0.00058579 5.67444e-05)
(-0.000685997 -0.000583591 3.50058e-05)
(-0.000685783 -0.000584646 1.19059e-05)
(-0.000150631 -0.000114137 -3.70509e-05)
(-0.000206681 -0.000233351 -6.02081e-05)
(-0.000312164 -0.000389971 -6.46123e-06)
(-0.000383443 -0.000474375 4.82121e-05)
(-0.000459091 -0.000533086 9.74761e-05)
(-0.000516223 -0.000553737 0.000133545)
(-0.000568933 -0.000565352 0.000161526)
(-0.000605484 -0.000562902 0.000181339)
(-0.000640431 -0.000561819 0.000197623)
(-0.000664988 -0.000554872 0.000206562)
(-0.000686776 -0.000552801 0.000210525)
(-0.000697321 -0.000550272 0.000207615)
(-0.000701787 -0.000548989 0.000200117)
(-0.000704264 -0.000549703 0.000189662)
(-0.000707867 -0.00055323 0.000177356)
(-0.000705786 -0.000553759 0.000162292)
(-0.000716176 -0.000564087 0.000148726)
(-0.000722349 -0.000571738 0.000132858)
(-0.000722612 -0.000574732 0.000114966)
(-0.000749245 -0.000596954 9.95725e-05)
(-0.000739149 -0.000592869 7.84544e-05)
(-0.000738619 -0.000595482 5.7757e-05)
(-0.000734024 -0.000593966 3.57096e-05)
(-0.000734037 -0.000595337 1.21572e-05)
(-0.000121971 -7.80087e-05 -1.90842e-05)
(-0.000206501 -0.000205898 -6.24983e-05)
(-0.000316063 -0.000359811 -1.706e-05)
(-0.000389811 -0.000448491 3.50821e-05)
(-0.000469541 -0.000513306 8.39464e-05)
(-0.00053215 -0.00054182 0.000121522)
(-0.000588372 -0.000558185 0.000151301)
(-0.000631152 -0.000561896 0.000174043)
(-0.000670815 -0.000563863 0.000192361)
(-0.000700915 -0.000559982 0.000203318)
(-0.000726263 -0.000558231 0.00020854)
(-0.000737559 -0.000553698 0.000206172)
(-0.000741835 -0.00055087 0.000199018)
(-0.000746015 -0.000552212 0.000189363)
(-0.000751161 -0.000556555 0.000177717)
(-0.000749843 -0.000557856 0.000163177)
(-0.000761555 -0.000568769 0.000149977)
(-0.000768826 -0.000577201 0.000134363)
(-0.000769829 -0.000581023 0.000116611)
(-0.00079372 -0.000600244 0.000100621)
(-0.00078352 -0.000597103 7.9481e-05)
(-0.000783003 -0.000600361 5.86159e-05)
(-0.000778634 -0.000599654 3.63191e-05)
(-0.000778539 -0.000601201 1.23731e-05)
(-0.000127276 -6.75862e-05 -9.22499e-06)
(-0.000205615 -0.000179693 -6.41355e-05)
(-0.000315833 -0.000326614 -2.72077e-05)
(-0.00039247 -0.000419945 2.14033e-05)
(-0.000474759 -0.000489341 6.92359e-05)
(-0.000541762 -0.000524418 0.000107864)
(-0.000605078 -0.000548573 0.000140132)
(-0.000651982 -0.000556002 0.000165065)
(-0.000696163 -0.000560707 0.000185327)
(-0.000728112 -0.000557041 0.000197321)
(-0.000756042 -0.000555525 0.00020365)
(-0.000771795 -0.000552178 0.000203016)
(-0.000779246 -0.000549796 0.000197273)
(-0.000785774 -0.000551541 0.000188639)
(-0.000791291 -0.000555574 0.000177455)
(-0.000790018 -0.000557101 0.000163396)
(-0.000802802 -0.000568493 0.000150633)
(-0.000811173 -0.000577893 0.000135389)
(-0.000813718 -0.000583354 0.000117998)
(-0.000836206 -0.000601199 0.000101728)
(-0.000827516 -0.000600321 8.07355e-05)
(-0.000827521 -0.000604681 5.96859e-05)
(-0.000823035 -0.000604615 3.70452e-05)
(-0.000822915 -0.000606463 1.2631e-05)
(-0.000131355 -5.66888e-05 8.26929e-07)
(-0.000195434 -0.000148122 -6.25798e-05)
(-0.000308324 -0.000288558 -3.61323e-05)
(-0.000386189 -0.000384303 7.22815e-06)
(-0.00047255 -0.000460204 5.32871e-05)
(-0.00054679 -0.000504403 9.31155e-05)
(-0.00061371 -0.00053262 0.000126855)
(-0.000667993 -0.000546104 0.00015451)
(-0.000717782 -0.000554141 0.000176938)
(-0.000756198 -0.000554153 0.000191356)
(-0.000789162 -0.000554661 0.000199613)
(-0.000806928 -0.000551109 0.000200189)
(-0.000815674 -0.00054803 0.000195462)
(-0.000824087 -0.000549636 0.000187836)
(-0.000830807 -0.000553868 0.000177451)
(-0.000831015 -0.000556551 0.000164232)
(-0.000843995 -0.000567821 0.00015175)
(-0.000852923 -0.000577823 0.000136768)
(-0.000856081 -0.000584281 0.000119566)
(-0.000874176 -0.000599062 0.000102693)
(-0.000865124 -0.00059894 8.16792e-05)
(-0.000864632 -0.000603533 6.04456e-05)
(-0.000859991 -0.000604009 3.75741e-05)
(-0.000859439 -0.000605816 1.28153e-05)
(-0.000133279 -4.54745e-05 1.05595e-05)
(-0.000185202 -0.00011946 -6.0123e-05)
(-0.000294932 -0.000248498 -4.36332e-05)
(-0.000374571 -0.000346417 -6.76795e-06)
(-0.000463201 -0.000427331 3.64517e-05)
(-0.000541594 -0.000477664 7.64692e-05)
(-0.000617617 -0.000514362 0.000112355)
(-0.000677531 -0.00053171 0.000142076)
(-0.000732711 -0.000542522 0.000166506)
(-0.000773852 -0.000543369 0.000182493)
(-0.000808836 -0.000544007 0.000192151)
(-0.000831397 -0.000542477 0.000194864)
(-0.000844848 -0.00054135 0.000192192)
(-0.000856103 -0.000543749 0.000186007)
(-0.000863034 -0.000547667 0.00017641)
(-0.000863931 -0.000550865 0.000164006)
(-0.000876845 -0.000561786 0.000151906)
(-0.000886197 -0.000572135 0.000137284)
(-0.00089044 -0.000579662 0.000120443)
(-0.000906839 -0.00059339 0.000103441)
(-0.000899099 -0.000595027 8.26043e-05)
(-0.000898934 -0.00060037 6.1252e-05)
(-0.000893985 -0.000601291 3.81272e-05)
(-0.000893302 -0.000603269 1.30129e-05)
(-0.000137079 -3.52103e-05 2.03339e-05)
(-0.00016987 -9.09674e-05 -5.47737e-05)
(-0.000273946 -0.000206088 -4.89203e-05)
(-0.000351656 -0.000301778 -1.98011e-05)
(-0.000443091 -0.000388423 1.89755e-05)
(-0.000530218 -0.000448926 5.88144e-05)
(-0.000609971 -0.000489232 9.5476e-05)
(-0.000678283 -0.000512166 0.000127444)
(-0.00074021 -0.00052621 0.000154025)
(-0.000788833 -0.000530926 0.000172746)
(-0.000830995 -0.000534965 0.000185229)
(-0.00085676 -0.00053429 0.000189911)
(-0.000871767 -0.000533148 0.000188725)
(-0.000884063 -0.00053537 0.000183738)
(-0.000891671 -0.000539423 0.000175174)
(-0.000894637 -0.000543937 0.000163918)
(-0.000906869 -0.000554158 0.00015215)
(-0.000916251 -0.000564523 0.000137847)
(-0.000920691 -0.000572408 0.000121251)
(-0.000932168 -0.000583211 0.000103822)
(-0.000923719 -0.000585193 8.30636e-05)
(-0.000922494 -0.000590331 6.16281e-05)
(-0.000917113 -0.000591638 3.84099e-05)
(-0.000915767 -0.000593432 1.31111e-05)
(-0.000129751 -2.28033e-05 2.80586e-05)
(-0.000138955 -6.01544e-05 -4.35242e-05)
(-0.000246515 -0.000163296 -5.10866e-05)
(-0.000322571 -0.000256036 -3.10553e-05)
(-0.00041408 -0.000346067 1.69022e-06)
(-0.000503842 -0.000411678 3.95101e-05)
(-0.000594462 -0.000461511 7.70925e-05)
(-0.000670399 -0.000488985 0.000110806)
(-0.000739197 -0.000505625 0.000139462)
(-0.000792115 -0.000511415 0.000160228)
(-0.000835886 -0.000515167 0.000174455)
(-0.000866672 -0.000516623 0.000181749)
(-0.000887475 -0.000518215 0.000183224)
(-0.000902558 -0.000521543 0.000180049)
(-0.000910329 -0.000525607 0.000172639)
(-0.000914269 -0.000530701 0.000162486)
(-0.000925446 -0.000540124 0.000151183)
(-0.000934508 -0.000550249 0.000137318)
(-0.000939095 -0.000558327 0.000121124)
(-0.000949536 -0.000568787 0.000103905)
(-0.00094172 -0.000571921 8.34233e-05)
(-0.000940308 -0.000577429 6.19992e-05)
(-0.000934279 -0.000579043 3.86849e-05)
(-0.000932574 -0.000580878 1.32115e-05)
(-0.000122502 -1.18216e-05 3.48477e-05)
(-0.000128124 -4.35419e-05 -3.81372e-05)
(-0.000212458 -0.00012108 -4.90632e-05)
(-0.000280686 -0.00020495 -3.86491e-05)
(-0.000371464 -0.000297024 -1.4318e-05)
(-0.000470137 -0.000373073 1.99597e-05)
(-0.000564084 -0.000426725 5.65851e-05)
(-0.000649301 -0.000460209 9.15987e-05)
(-0.000726655 -0.000480344 0.000122479)
(-0.000788384 -0.000489183 0.000146239)
(-0.00084158 -0.000496769 0.000163941)
(-0.000876906 -0.000499732 0.000173973)
(-0.000899292 -0.000501526 0.00017745)
(-0.000914866 -0.000504813 0.000175833)
(-0.000923149 -0.000509284 0.000169832)
(-0.000929126 -0.000515534 0.000161076)
(-0.000938724 -0.000524035 0.00015024)
(-0.000946893 -0.000533611 0.000136772)
(-0.000950602 -0.000541226 0.000120884)
(-0.000955601 -0.000548849 0.000103456)
(-0.000946176 -0.000551811 8.31747e-05)
(-0.000942804 -0.000556635 6.18091e-05)
(-0.000935839 -0.000558449 3.86007e-05)
(-0.000933164 -0.000559964 1.31805e-05)
(-0.000121058 -2.12059e-06 4.31061e-05)
(-0.000125934 -3.23031e-05 -3.49043e-05)
(-0.00017499 -8.28964e-05 -4.28683e-05)
(-0.000234669 -0.000155982 -4.19373e-05)
(-0.000319608 -0.000245328 -2.77239e-05)
(-0.000416722 -0.000323854 4.75011e-07)
(-0.000522378 -0.000388344 3.50424e-05)
(-0.000617035 -0.000428295 7.04897e-05)
(-0.000703089 -0.000452255 0.000103366)
(-0.000771807 -0.000462492 0.000129943)
(-0.000826572 -0.000468243 0.000149769)
(-0.000866558 -0.000472248 0.000162599)
(-0.000895165 -0.00047692 0.000169172)
(-0.000913589 -0.000481765 0.000169879)
(-0.000922217 -0.000486775 0.000165518)
(-0.000928724 -0.00049331 0.000158067)
(-0.000936229 -0.000500875 0.000147827)
(-0.000942994 -0.000509671 0.000134867)
(-0.000945495 -0.000516587 0.000119417)
(-0.000950025 -0.000524596 0.000102559)
(-0.000940141 -0.0005282 8.26934e-05)
(-0.000935815 -0.000533219 6.15281e-05)
(-0.000927702 -0.000535258 3.8459e-05)
(-0.000924306 -0.000536697 1.31335e-05)
(-0.000106381 6.50566e-06 4.5784e-05)
(-0.000122199 -2.24577e-05 -3.08165e-05)
(-0.000133284 -5.01348e-05 -3.23208e-05)
(-0.000177096 -0.000105123 -3.8062e-05)
(-0.000253996 -0.000187858 -3.61602e-05)
(-0.000356907 -0.000274623 -1.72864e-05)
(-0.000463933 -0.000342629 1.28826e-05)
(-0.000568047 -0.000389823 4.74494e-05)
(-0.00066413 -0.000419297 8.18794e-05)
(-0.000742739 -0.000433298 0.000111669)
(-0.000809644 -0.000443045 0.000135721)
(-0.000855692 -0.00044802 0.000151938)
(-0.000885442 -0.000451889 0.000160849)
(-0.000903825 -0.000456371 0.000163436)
(-0.00091272 -0.000461965 0.000160818)
(-0.000920272 -0.000469327 0.00015489)
(-0.000925336 -0.000476254 0.000145308)
(-0.000929963 -0.000484303 0.000132819)
(-0.000930287 -0.000490395 0.000117761)
(-0.000928322 -0.000495746 0.000100912)
(-0.000915522 -0.000498664 8.14074e-05)
(-0.000908126 -0.000502734 6.05141e-05)
(-0.000898346 -0.000504721 3.78372e-05)
(-0.000893652 -0.000505744 1.29131e-05)
(-9.19481e-05 1.25505e-05 4.59279e-05)
(-0.000117183 -1.47196e-05 -2.63596e-05)
(-8.41871e-05 -2.41753e-05 -1.79311e-05)
(-0.00012196 -6.22662e-05 -2.85077e-05)
(-0.000182447 -0.00013066 -3.81941e-05)
(-0.000274421 -0.000212727 -3.09377e-05)
(-0.000392272 -0.000291962 -8.42296e-06)
(-0.000506914 -0.000347814 2.38481e-05)
(-0.000612589 -0.000383322 5.9178e-05)
(-0.00069998 -0.000401406 9.18017e-05)
(-0.00076805 -0.000409819 0.000118366)
(-0.000818141 -0.000414816 0.000137616)
(-0.000854305 -0.000420706 0.000149847)
(-0.000875724 -0.000426353 0.000155052)
(-0.000884921 -0.000432382 0.00015435)
(-0.000891648 -0.000439574 0.000149797)
(-0.000893565 -0.00044579 0.000140966)
(-0.000895379 -0.00045293 0.000129046)
(-0.000893144 -0.000458084 0.000114554)
(-0.000890719 -0.000464141 9.86273e-05)
(-0.000876425 -0.00046725 7.97341e-05)
(-0.000867159 -0.00047112 5.92863e-05)
(-0.000855613 -0.000473062 3.70774e-05)
(-0.000849772 -0.000473822 1.26467e-05)
(-7.91684e-05 1.57431e-05 4.30436e-05)
(-0.000111513 -9.75854e-06 -2.21032e-05)
(-7.68105e-05 -1.6676e-05 -1.13217e-05)
(-5.17357e-05 -2.09543e-05 -1.07906e-05)
(-0.000103747 -7.25535e-05 -3.06132e-05)
(-0.000191939 -0.000154011 -3.9957e-05)
(-0.000305469 -0.000233762 -2.72194e-05)
(-0.000428569 -0.000297909 8.48287e-07)
(-0.000544688 -0.000341391 3.6157e-05)
(-0.000640775 -0.000364958 7.10246e-05)
(-0.000721859 -0.000379896 0.000101565)
(-0.000778907 -0.000387202 0.000124369)
(-0.000815456 -0.000392089 0.000138983)
(-0.000836302 -0.000397069 0.000146258)
(-0.000845338 -0.000403158 0.000147472)
(-0.000851485 -0.000410268 0.000144407)
(-0.000850214 -0.000416021 0.000136377)
(-0.000848513 -0.000422123 0.00012494)
(-0.000842818 -0.000426052 0.000110939)
(-0.000832087 -0.000428884 9.51355e-05)
(-0.00081338 -0.000430619 7.68046e-05)
(-0.000799872 -0.0004328 5.69345e-05)
(-0.000785811 -0.000433981 3.55653e-05)
(-0.000778378 -0.000434103 1.21133e-05)
(-7.49521e-05 1.68567e-05 3.93877e-05)
(-0.000105075 -7.86492e-06 -1.8263e-05)
(-6.33428e-05 -1.09964e-05 -2.80544e-06)
(-3.25983e-05 -9.64751e-06 -1.94442e-06)
(-2.71586e-05 -2.07693e-05 -1.17517e-05)
(-9.01073e-05 -8.0394e-05 -3.59384e-05)
(-0.000209106 -0.000169404 -4.13079e-05)
(-0.000341393 -0.000244094 -1.90784e-05)
(-0.000465451 -0.000295466 1.52114e-05)
(-0.000569851 -0.000325956 5.13448e-05)
(-0.000649146 -0.000341224 8.30397e-05)
(-0.000707592 -0.000349829 0.000107756)
(-0.000749855 -0.000357481 0.000125219)
(-0.000773591 -0.000363869 0.000135063)
(-0.000782551 -0.000370009 0.000138231)
(-0.00078595 -0.00037607 0.000136383)
(-0.000780427 -0.000380791 0.000129112)
(-0.000774271 -0.000385332 0.000118194)
(-0.000764791 -0.000387678 0.000104878)
(-0.000753632 -0.000391086 9.03922e-05)
(-0.000733152 -0.000392462 7.30487e-05)
(-0.000717379 -0.00039375 5.40596e-05)
(-0.000701321 -0.00039414 3.37255e-05)
(-0.00069258 -0.00039366 1.14687e-05)
(-7.67591e-05 1.62468e-05 3.42416e-05)
(-9.84136e-05 -6.69279e-06 -1.4616e-05)
(-5.29548e-05 -5.81678e-06 4.70496e-06)
(-1.29352e-05 4.99645e-07 6.53417e-06)
(4.50123e-06 1.01755e-06 -5.66388e-06)
(-1.39456e-05 -1.96838e-05 -2.14833e-05)
(-0.000108777 -9.58481e-05 -4.45015e-05)
(-0.00024277 -0.000180702 -3.18187e-05)
(-0.000373253 -0.000242736 -5.28896e-07)
(-0.000481268 -0.000280037 3.43094e-05)
(-0.000571779 -0.000304636 6.69529e-05)
(-0.00063569 -0.000317744 9.3222e-05)
(-0.000675992 -0.000325255 0.000111808)
(-0.00069774 -0.000331152 0.000123137)
(-0.000705524 -0.000336945 0.000127972)
(-0.000706591 -0.000342342 0.000127391)
(-0.000697859 -0.000346397 0.000121003)
(-0.000687665 -0.00034947 0.000110613)
(-0.000674038 -0.000349852 9.79106e-05)
(-0.000653192 -0.000348748 8.36516e-05)
(-0.000627165 -0.00034722 6.7185e-05)
(-0.000606432 -0.000345606 4.9321e-05)
(-0.000587437 -0.000344074 3.06206e-05)
(-0.000577102 -0.000342537 1.03807e-05)
(-7.10694e-05 1.4569e-05 2.55338e-05)
(-9.23022e-05 -4.75237e-06 -1.25563e-05)
(-4.51188e-05 -1.05571e-06 7.7596e-06)
(6.52216e-06 8.5709e-06 6.94837e-06)
(2.09204e-05 1.38505e-05 4.81251e-06)
(9.78679e-06 9.20014e-06 -8.11443e-06)
(-3.00147e-05 -2.46469e-05 -2.4673e-05)
(-0.000149209 -0.000115326 -3.06257e-05)
(-0.000275104 -0.000185666 -6.64356e-06)
(-0.000385799 -0.000232326 2.31764e-05)
(-0.000468284 -0.000257916 5.18307e-05)
(-0.000529627 -0.000273307 7.62112e-05)
(-0.000573943 -0.000284772 9.53981e-05)
(-0.000597557 -0.000292498 0.000108135)
(-0.000604119 -0.000298072 0.000114302)
(-0.00060036 -0.000301659 0.000114395)
(-0.000586405 -0.000303638 0.000108509)
(-0.000570643 -0.000304001 9.85424e-05)
(-0.000552708 -0.000301718 8.66964e-05)
(-0.000532718 -0.000300884 7.43518e-05)
(-0.000506483 -0.000298587 5.9629e-05)
(-0.000484603 -0.000295593 4.35007e-05)
(-0.000464501 -0.000292599 2.68652e-05)
(-0.000453416 -0.000290224 9.07988e-06)
(-6.42693e-05 1.20929e-05 1.77172e-05)
(-8.49508e-05 -3.1668e-06 -9.37244e-06)
(-3.29301e-05 1.33183e-06 1.1822e-05)
(1.23761e-05 1.32006e-05 1.54982e-05)
(2.22406e-05 1.51129e-05 1.63352e-05)
(1.76663e-05 1.26387e-05 1.54819e-05)
(-4.24577e-06 -3.33096e-06 4.53771e-06)
(-6.19476e-05 -4.93854e-05 -6.44496e-06)
(-0.000171485 -0.000124736 4.94898e-07)
(-0.000273477 -0.000176468 1.92169e-05)
(-0.000364016 -0.000213605 4.1524e-05)
(-0.000428096 -0.0002346 6.24135e-05)
(-0.000467053 -0.000245657 7.94143e-05)
(-0.000486567 -0.000252482 9.1695e-05)
(-0.000490522 -0.000257249 9.84642e-05)
(-0.000483578 -0.000259748 9.92196e-05)
(-0.000467512 -0.000260745 9.41667e-05)
(-0.000449168 -0.000259415 8.49915e-05)
(-0.000428114 -0.000254493 7.40195e-05)
(-0.000399233 -0.000247656 6.20771e-05)
(-0.000367008 -0.000240132 4.86986e-05)
(-0.000340619 -0.000232611 3.46576e-05)
(-0.000318269 -0.000226318 2.10196e-05)
(-0.000306224 -0.000222391 7.04991e-06)
(-5.05402e-05 1.07963e-05 1.14117e-05)
(-7.87647e-05 -1.9516e-07 -1.03645e-05)
(-4.14432e-05 7.10818e-06 8.25457e-06)
(-1.10502e-06 2.18886e-05 1.84583e-05)
(2.27992e-05 2.47713e-05 2.18193e-05)
(3.26133e-05 1.54389e-05 2.57497e-05)
(2.94109e-05 3.13905e-06 3.0819e-05)
(-9.05653e-07 -1.40094e-05 1.74328e-05)
(-7.30465e-05 -6.96808e-05 1.80823e-05)
(-0.000163935 -0.000124085 2.25275e-05)
(-0.000236683 -0.000157417 3.26846e-05)
(-0.00029446 -0.000179691 4.59692e-05)
(-0.000336814 -0.00019547 5.98611e-05)
(-0.000357441 -0.000204156 7.11044e-05)
(-0.000359174 -0.000208139 7.76314e-05)
(-0.000346404 -0.000207556 7.78896e-05)
(-0.000324778 -0.000204588 7.26588e-05)
(-0.000301173 -0.000198743 6.38986e-05)
(-0.000276462 -0.000189448 5.40131e-05)
(-0.000252202 -0.000183009 4.49165e-05)
(-0.000224994 -0.000175515 3.47906e-05)
(-0.000201789 -0.000167243 2.41011e-05)
(-0.000181783 -0.000159782 1.42441e-05)
(-0.000170806 -0.000155191 4.74342e-06)
(-1.91181e-05 1.05065e-05 1.04804e-05)
(-5.70923e-05 4.26325e-06 -1.53596e-05)
(-5.51686e-05 1.0836e-05 -1.15992e-05)
(-4.26731e-05 2.64352e-05 -3.75716e-06)
(-1.71963e-05 4.8196e-05 -1.39924e-06)
(1.78207e-05 2.62456e-05 2.97464e-06)
(3.52528e-05 1.36843e-05 1.53009e-05)
(3.7826e-05 -6.64893e-07 2.77546e-05)
(1.08844e-05 -2.31245e-05 2.8116e-05)
(-4.47355e-05 -5.95407e-05 2.35168e-05)
(-0.000122216 -0.000107165 2.76483e-05)
(-0.000180047 -0.0001337 3.28656e-05)
(-0.00021318 -0.000146077 4.01954e-05)
(-0.000227689 -0.000152128 4.77305e-05)
(-0.00022627 -0.000154303 5.27699e-05)
(-0.000212084 -0.000152142 5.27209e-05)
(-0.000191836 -0.000148163 4.83682e-05)
(-0.000170662 -0.000141383 4.15063e-05)
(-0.000148333 -0.000130035 3.34873e-05)
(-0.000120156 -0.000116194 2.5036e-05)
(-8.85088e-05 -9.91128e-05 1.67927e-05)
(-6.39022e-05 -8.29148e-05 9.65676e-06)
(-4.48648e-05 -6.91065e-05 4.57864e-06)
(-3.55089e-05 -6.1526e-05 1.39329e-06)
(1.21858e-05 1.17871e-05 2.27197e-05)
(-1.40782e-05 1.04258e-05 -1.17911e-05)
(-3.26229e-05 1.02736e-05 -1.95954e-05)
(-3.58133e-05 1.43547e-05 -2.1061e-05)
(-3.4092e-05 2.52554e-05 -2.96418e-05)
(-1.72728e-05 3.26768e-05 -3.61288e-05)
(8.18641e-06 1.54734e-05 -1.55178e-05)
(3.12228e-05 1.25788e-05 4.85117e-06)
(3.06739e-05 3.44337e-06 1.67197e-05)
(1.73087e-05 -1.06773e-05 1.49584e-05)
(-5.90465e-06 -2.46811e-05 1.01361e-05)
(-4.38165e-05 -5.57046e-05 1.27015e-05)
(-8.18881e-05 -7.96493e-05 1.5936e-05)
(-9.91234e-05 -8.8928e-05 1.96596e-05)
(-9.65897e-05 -8.93514e-05 2.18546e-05)
(-7.8994e-05 -8.16007e-05 1.98784e-05)
(-5.61621e-05 -6.91646e-05 1.45706e-05)
(-3.43412e-05 -5.23253e-05 8.53362e-06)
(-1.24173e-05 -2.41798e-05 2.26375e-06)
(-4.42246e-06 -1.83474e-05 -5.37736e-07)
(3.54502e-06 -1.19026e-05 -3.1875e-06)
(1.36428e-05 -1.01713e-05 -7.82088e-06)
(1.28786e-05 -1.78767e-06 -4.98673e-06)
(1.46063e-05 9.1062e-07 -2.00209e-06)
(1.02644e-05 1.73133e-05 3.25673e-05)
(8.37616e-06 2.06827e-05 -5.49404e-06)
(-5.03734e-06 1.76349e-05 -1.37583e-05)
(-1.59416e-05 1.57578e-05 -2.12337e-05)
(-1.61713e-05 1.52127e-05 -2.94931e-05)
(-3.77007e-06 1.21244e-05 -3.324e-05)
(9.71218e-06 9.20631e-06 -2.36959e-05)
(1.28132e-05 8.594e-06 -5.41189e-06)
(2.46744e-05 1.39009e-05 6.16683e-06)
(3.86915e-05 1.44554e-05 1.03782e-05)
(2.56804e-05 3.22167e-06 5.23974e-06)
(1.30498e-05 -7.93205e-06 -1.32543e-07)
(1.09405e-06 -1.4454e-05 -3.59971e-06)
(-3.76535e-06 -1.65558e-05 -5.39385e-06)
(-2.35913e-06 -1.59101e-05 -7.46001e-06)
(3.94097e-06 -1.43021e-05 -1.29045e-05)
(1.3236e-05 -7.91305e-06 -2.02903e-05)
(1.58072e-05 -3.36066e-07 -1.99657e-05)
(1.53888e-05 3.91732e-06 -1.86636e-05)
(1.80157e-05 8.88828e-06 -2.03813e-05)
(2.71461e-05 1.82465e-05 -2.7396e-05)
(2.47726e-05 1.84999e-05 -2.04249e-05)
(2.19247e-05 1.72162e-05 -1.21928e-05)
(2.17719e-05 1.7428e-05 -4.32424e-06)
(3.36237e-06 2.12277e-05 3.79921e-05)
(1.60049e-06 3.10972e-05 -2.19195e-06)
(-5.49328e-07 2.94289e-05 -6.01426e-06)
(-3.07813e-06 2.53863e-05 -9.9788e-06)
(-2.61224e-06 2.01117e-05 -1.52626e-05)
(2.65831e-06 1.33356e-05 -1.79181e-05)
(1.12095e-05 4.97269e-06 -1.28849e-05)
(1.99127e-05 1.61552e-06 -1.90946e-06)
(3.09097e-05 6.63771e-06 3.7368e-06)
(4.22723e-05 1.47075e-05 4.02729e-06)
(3.26576e-05 1.35386e-05 3.67538e-07)
(3.32217e-05 1.34715e-05 -5.08739e-06)
(3.37777e-05 1.30934e-05 -1.56268e-05)
(2.76883e-05 1.09914e-05 -2.49372e-05)
(2.18097e-05 1.00955e-05 -2.71925e-05)
(2.30775e-05 1.25687e-05 -3.15748e-05)
(2.25061e-05 1.40141e-05 -3.03928e-05)
(2.2711e-05 1.5374e-05 -2.92575e-05)
(3.19099e-05 2.18304e-05 -3.93903e-05)
(2.25971e-05 1.50576e-05 -2.57449e-05)
(2.31077e-05 1.41051e-05 -2.32031e-05)
(2.57774e-05 1.41529e-05 -2.11056e-05)
(3.09447e-05 1.52089e-05 -1.71877e-05)
(3.31003e-05 1.5263e-05 -6.61576e-06)
(1.97794e-07 2.09621e-05 3.58363e-05)
(-3.08582e-06 3.33451e-05 -1.45582e-06)
(-4.88856e-06 3.4938e-05 -6.96478e-06)
(-4.63849e-06 3.12422e-05 -1.07451e-05)
(-1.22936e-06 2.25397e-05 -1.50534e-05)
(5.03238e-06 8.49117e-06 -1.71995e-05)
(1.42931e-05 -5.62076e-06 -1.19025e-05)
(2.90933e-05 -1.14279e-05 -1.71561e-06)
(5.38451e-05 -5.94159e-06 5.08218e-06)
(7.22445e-05 6.40091e-06 3.47039e-06)
(7.77294e-05 1.66074e-05 -3.65151e-06)
(6.8696e-05 2.10042e-05 -1.33789e-05)
(5.52299e-05 2.01781e-05 -2.29901e-05)
(4.16741e-05 1.70103e-05 -2.8706e-05)
(3.27703e-05 1.44625e-05 -3.07953e-05)
(3.193e-05 1.43215e-05 -3.51114e-05)
(3.48463e-05 1.4779e-05 -4.07984e-05)
(3.88328e-05 1.4084e-05 -4.61144e-05)
(4.21757e-05 1.14514e-05 -4.95106e-05)
(4.59926e-05 8.67563e-06 -5.15716e-05)
(4.96117e-05 4.61466e-06 -4.93841e-05)
(5.09775e-05 1.21627e-06 -4.11741e-05)
(5.12242e-05 -1.54948e-06 -2.78964e-05)
(5.08978e-05 -2.74594e-06 -9.95848e-06)
(-2.78742e-06 1.83773e-05 2.93297e-05)
(-7.87097e-06 3.24334e-05 -1.49506e-06)
(-9.82723e-06 3.43102e-05 -8.77635e-06)
(-8.57862e-06 2.99678e-05 -1.37689e-05)
(-3.40537e-06 1.92235e-05 -1.78979e-05)
(4.93828e-06 2.96061e-06 -1.80381e-05)
(1.63758e-05 -1.19893e-05 -1.05322e-05)
(3.46097e-05 -1.7276e-05 7.71108e-08)
(5.86788e-05 -1.14896e-05 4.36688e-06)
(7.6678e-05 -1.64346e-06 8.03866e-07)
(8.60963e-05 6.91608e-06 -7.26315e-06)
(8.66549e-05 1.18589e-05 -1.94481e-05)
(7.96336e-05 1.21087e-05 -3.28353e-05)
(7.07027e-05 1.0009e-05 -4.48515e-05)
(6.3541e-05 7.2917e-06 -5.40049e-05)
(5.91509e-05 3.9786e-06 -5.97687e-05)
(5.71655e-05 -2.47179e-07 -6.28831e-05)
(5.70421e-05 -4.82015e-06 -6.37767e-05)
(5.78885e-05 -8.71514e-06 -6.33513e-05)
(5.90037e-05 -1.25342e-05 -6.11799e-05)
(5.94504e-05 -1.55132e-05 -5.44906e-05)
(5.89348e-05 -1.68208e-05 -4.39169e-05)
(5.85073e-05 -1.76137e-05 -2.95095e-05)
(5.74289e-05 -1.75912e-05 -1.04784e-05)
(-4.59114e-06 1.60029e-05 2.36617e-05)
(-1.08273e-05 2.87411e-05 -1.56753e-06)
(-1.29773e-05 3.09155e-05 -9.5129e-06)
(-1.15642e-05 2.69497e-05 -1.47342e-05)
(-5.90004e-06 1.70285e-05 -1.81667e-05)
(3.55565e-06 2.81116e-06 -1.7605e-05)
(1.56235e-05 -1.00562e-05 -1.11243e-05)
(3.07566e-05 -1.38658e-05 -2.83653e-06)
(4.60445e-05 -9.54008e-06 -8.36704e-08)
(5.80208e-05 -2.84303e-06 -1.86891e-06)
(7.53648e-05 3.98844e-06 -8.28772e-06)
(8.68621e-05 6.3444e-06 -2.16851e-05)
(8.77496e-05 3.06377e-06 -3.67157e-05)
(8.21414e-05 -2.059e-06 -4.95458e-05)
(7.46432e-05 -7.05126e-06 -5.84155e-05)
(6.87857e-05 -1.17819e-05 -6.37965e-05)
(6.59929e-05 -1.61893e-05 -6.68265e-05)
(6.57703e-05 -1.97226e-05 -6.7979e-05)
(6.54847e-05 -2.1187e-05 -6.70736e-05)
(6.56272e-05 -2.26508e-05 -6.40391e-05)
(6.35971e-05 -2.22628e-05 -5.58024e-05)
(6.01611e-05 -2.04695e-05 -4.35146e-05)
(5.65349e-05 -1.84839e-05 -2.79801e-05)
(5.34613e-05 -1.72182e-05 -9.6597e-06)
(-5.10032e-06 1.38686e-05 1.89202e-05)
(-1.14542e-05 2.45544e-05 -1.28789e-06)
(-1.37627e-05 2.73044e-05 -8.99936e-06)
(-1.24936e-05 2.46146e-05 -1.42033e-05)
(-7.0073e-06 1.6939e-05 -1.78042e-05)
(2.43565e-06 5.61352e-06 -1.869e-05)
(1.45488e-05 -5.9972e-06 -1.56131e-05)
(2.84903e-05 -1.25632e-05 -1.05621e-05)
(3.90754e-05 -1.30445e-05 -8.13259e-06)
(3.6569e-05 -8.32277e-06 -5.17787e-06)
(3.5245e-05 -2.24083e-06 -4.59341e-06)
(5.55067e-05 9.14772e-07 -1.39595e-05)
(6.98786e-05 -1.13538e-08 -2.96206e-05)
(7.47393e-05 -4.8474e-06 -4.52034e-05)
(7.30905e-05 -1.08207e-05 -5.63595e-05)
(6.95079e-05 -1.60387e-05 -6.26148e-05)
(6.66435e-05 -1.93444e-05 -6.50225e-05)
(6.50597e-05 -2.06124e-05 -6.48709e-05)
(6.21696e-05 -1.98471e-05 -6.19977e-05)
(5.98474e-05 -1.90886e-05 -5.72209e-05)
(5.50295e-05 -1.77008e-05 -4.80344e-05)
(4.92062e-05 -1.571e-05 -3.60209e-05)
(4.41581e-05 -1.38933e-05 -2.24954e-05)
(4.10576e-05 -1.3094e-05 -7.69404e-06)
(-4.98684e-06 1.24214e-05 1.57512e-05)
(-1.10784e-05 2.1649e-05 -9.76449e-07)
(-1.35906e-05 2.48884e-05 -8.00379e-06)
(-1.27539e-05 2.3371e-05 -1.29682e-05)
(-7.89102e-06 1.7505e-05 -1.66163e-05)
(1.24752e-06 8.3231e-06 -1.80646e-05)
(1.42719e-05 -1.76698e-06 -1.64427e-05)
(3.09185e-05 -9.17129e-06 -1.38817e-05)
(4.22486e-05 -1.20595e-05 -1.35711e-05)
(4.2688e-05 -1.20554e-05 -1.10406e-05)
(4.69867e-05 -9.85111e-06 -9.71524e-06)
(5.24703e-05 -7.28127e-06 -1.47799e-05)
(5.56945e-05 -6.81344e-06 -2.41619e-05)
(5.81823e-05 -8.70591e-06 -3.53955e-05)
(5.87963e-05 -1.19024e-05 -4.53142e-05)
(5.81687e-05 -1.51548e-05 -5.20504e-05)
(5.74142e-05 -1.71862e-05 -5.55604e-05)
(5.65932e-05 -1.75563e-05 -5.6495e-05)
(5.42352e-05 -1.67507e-05 -5.48107e-05)
(5.19376e-05 -1.58602e-05 -5.08883e-05)
(4.8876e-05 -1.52282e-05 -4.3892e-05)
(4.47549e-05 -1.42295e-05 -3.37454e-05)
(4.11335e-05 -1.32827e-05 -2.15793e-05)
(3.91615e-05 -1.29579e-05 -7.51513e-06)
(-5.20889e-06 1.15376e-05 1.3322e-05)
(-1.12192e-05 1.97326e-05 -1.05479e-06)
(-1.4024e-05 2.30331e-05 -7.50453e-06)
(-1.37778e-05 2.20884e-05 -1.21787e-05)
(-9.79878e-06 1.73108e-05 -1.57846e-05)
(-1.49914e-06 9.5047e-06 -1.75652e-05)
(1.16016e-05 5.25245e-07 -1.67045e-05)
(2.77468e-05 -6.01434e-06 -1.58379e-05)
(3.18051e-05 -7.92387e-06 -1.43763e-05)
(2.51068e-05 -7.53093e-06 -9.08323e-06)
(2.64835e-05 -7.43842e-06 -6.86753e-06)