/*--------------------------------*- C++ -*----------------------------------*\
  =========                 |
  \\      /  F ield         | OpenFOAM: The Open Source CFD Toolbox
   \\    /   O peration     | Website:  https://openfoam.org
    \\  /    A nd           | Version:  6
     \\/     M anipulation  |
\*---------------------------------------------------------------------------*/
FoamFile
{
    version     2.0;
    format      ascii;
    class       volScalarField;
    location    "36";
    object      yPlus;
}
// * * * * * * * * * * * * * * * * * * * * * * * * * * * * * * * * * * * * * //

dimensions      [0 0 0 0 0 0 0];

internalField   uniform 0;

boundaryField
{
    inlet
    {
        type            calculated;
        value           uniform 0;
    }
    outlet
    {
        type            calculated;
        value           uniform 0;
    }
    roughCylinder
    {
        type            calculated;
        value           nonuniform List<scalar> 
3840
(
16.5194
27.2214
38.8688
41.9927
44.7487
45.0933
45.612
45.1019
45.0989
44.9945
45.3265
45.1145
44.7255
43.7778
42.897
42.2679
41.9627
41.703
41.091
42.9234
41.5218
41.037
40.2874
40.0997
13.0701
26.1761
38.3752
41.6358
44.5551
44.9819
45.542
45.1411
45.1972
45.1975
45.441
45.1524
44.6776
43.8112
43.1451
42.504
42.3361
42.1083
41.5036
43.2953
41.8903
41.4088
40.7167
40.5502
8.48571
26.0366
37.8961
41.4153
44.2671
44.8173
45.4315
45.0174
45.114
45.0344
45.3897
45.1753
44.7018
43.9199
43.3489
42.6231
42.604
42.4209
41.8649
43.6311
42.3839
41.9729
41.3457
41.2092
5.11835
24.7514
37.2524
40.9793
44.0049
44.6993
45.3289
45.1186
45.3114
45.4009
45.6974
45.3755
44.8129
44.1458
43.721
43.0061
43.1068
42.9765
42.4426
44.0357
42.8145
42.4224
41.8486
41.7242
16.0912
24.0768
36.6675
40.6955
43.6906
44.5076
45.3065
45.104
45.3688
45.3563
45.6771
45.4591
44.9484
44.4058
44.0153
43.2593
43.4675
43.4044
42.9571
44.4275
43.376
43.0652
42.5426
42.441
1.71319
22.7737
35.7967
40.1208
43.3345
44.3953
45.1776
45.2398
45.6186
45.7981
46.1312
45.8134
45.2261
44.7686
44.4592
43.7619
44.0288
44.0295
43.644
44.8536
43.8507
43.566
43.0895
42.9905
7.33409
21.7519
34.9449
39.7054
42.977
44.1489
45.2243
45.3177
45.7621
45.8234
46.1111
45.9223
45.4488
45.1045
44.787
44.0984
44.411
44.4813
44.2155
45.29
44.459
44.2577
43.8221
43.7434
10.4792
19.9322
33.7556
38.9054
42.4944
44.0545
45.0686
45.4314
45.9867
46.2456
46.6405
46.3949
45.8659
45.5459
45.2584
44.6729
44.991
45.1189
44.936
45.7379
44.961
44.7805
44.3859
44.3042
10.7619
18.3823
32.4391
38.2331
42.0307
43.6841
45.1153
45.538
46.1456
46.2976
46.5807
46.4743
46.1257
45.8988
45.5836
45.05
45.3676
45.5524
45.4855
46.2121
45.5939
45.4918
45.1332
45.0715
12.0737
16.3648
30.7187
36.9942
41.2819
43.5432
44.8777
45.5508
46.2702
46.6228
47.1171
47.0091
46.6154
46.363
46.0552
45.6595
45.9505
46.1774
46.179
46.6608
46.0861
45.9903
45.6706
45.6026
11.7422
12.6816
28.6232
35.8043
40.5171
42.8735
44.7976
45.5929
46.3701
46.657
46.9741
46.9894
46.8278
46.6673
46.3455
46.0282
46.2908
46.557
46.6393
47.1375
46.6994
46.6778
46.396
46.3478
11.7639
9.67403
25.8395
33.6542
39.1727
42.5197
44.3533
45.4084
46.3253
46.8106
47.4508
47.5296
47.3124
47.0999
46.7948
46.6297
46.8533
47.145
47.265
47.5398
47.1235
47.0865
46.841
46.7844
12.908
5.08893
22.4721
31.4351
37.6621
41.1721
43.9347
45.2621
46.2889
46.7743
47.1616
47.3233
47.382
47.293
47.016
46.9276
47.1074
47.4159
47.5701
47.9494
47.6505
47.6871
47.4867
47.449
12.5698
7.91321
17.9852
27.3693
34.983
40.2485
43.0101
44.712
45.9913
46.6859
47.5186
47.81
47.7817
47.6347
47.4032
47.4536
47.6029
47.9199
48.0844
48.2369
47.9354
47.9428
47.776
47.7305
12.1723
7.96964
10.0428
22.8225
31.5662
37.2484
41.7943
44.1293
45.669
46.5238
47.0356
47.3441
47.6203
47.6402
47.4848
47.5962
47.7082
48.0287
48.2057
48.5364
48.3521
48.4367
48.3267
48.2971
11.5124
7.90015
12.0491
9.81029
25.0836
34.7907
39.6521
42.791
44.8997
46.046
47.2173
47.7606
47.92
47.8813
47.798
48.0181
48.1307
48.4465
48.6093
48.6373
48.414
48.4341
48.3439
48.3037
10.9681
6.46467
6.10457
5.48243
7.5358
25.6557
36.2588
41.1547
43.9278
45.5625
46.3657
46.8935
47.4352
47.6467
47.6876
47.9135
47.9906
48.263
48.3954
48.6806
48.6235
48.732
48.7125
48.6848
12.0908
8.00394
6.90042
6.92612
4.42584
13.2899
29.303
37.7393
42.1218
44.2991
46.1783
47.1243
47.5128
47.6634
47.7992
48.1061
48.2559
48.5308
48.6004
48.4144
48.2135
48.1556
48.0983
48.0331
5.53591
3.4903
8.22818
12.3442
12.4127
8.08713
15.2781
33.0609
39.5827
43.0467
44.4557
45.4058
46.3745
46.9073
47.2122
47.4326
47.4943
47.6022
47.5107
47.7044
47.8015
47.8727
47.9147
47.8635
3.13803
10.4069
6.65187
8.48386
7.08568
8.35065
15.017
22.7183
35.2086
39.8742
43.4325
45.138
45.8281
46.2499
46.6659
46.9691
47.2394
47.4096
47.1446
46.5278
46.1015
45.6603
45.4406
45.2409
11.6803
5.11738
4.67054
11.4864
13.0589
7.10064
13.3486
11.6505
28.8913
36.7485
39.2295
41.1224
43.0133
44.1159
44.7607
44.7498
44.6513
44.2315
43.2506
43.2664
43.592
43.4662
43.4636
43.3047
9.99352
6.6179
7.03879
14.2856
20.8179
11.4167
1.66597
13.4594
17.5382
24.7058
35.6611
39.5222
40.5895
41.3321
42.0901
42.2211
42.6695
42.6015
41.2699
39.3443
36.7297
33.5024
30.7265
29.0004
3.75362
11.2939
8.24683
11.4532
15.8214
19.7042
11.4341
14.5831
9.57505
2.27051
8.62336
22.541
30.5069
33.7476
34.8558
33.2902
30.7418
25.5529
11.9779
3.90501
2.53517
20.5467
12.4392
12.3692
10.9251
16.8569
17.5357
18.5914
20.2128
21.2324
19.09
5.93366
12.9994
15.8793
10.0652
12.2802
6.02008
9.61067
12.6887
16.5723
19.1935
14.8831
4.07082
4.59885
16.7391
14.1631
11.7902
6.5037
13.8404
21.7498
24.397
25.7874
26.3296
25.8794
23.1095
18.2651
15.6835
16.6142
11.3866
13.525
17.5011
17.0641
13.3557
13.2966
12.0245
11.8964
18.2713
6.15474
10.0015
13.095
16.3517
17.7252
13.393
22.2469
25.6919
27.7013
28.2386
27.2421
24.7716
23.3648
25.5612
26.8623
27.8157
26.0304
22.9842
18.7301
15.2259
15.4482
17.6797
20.6818
23.0389
25.4446
27.1728
27.5577
27.2662
26.8796
11.9301
21.5525
25.316
27.5363
28.1616
27.2117
25.4353
24.8216
25.2787
26.2129
27.5618
28.8558
29.1144
28.9632
28.7146
28.4863
28.5272
28.7751
28.8243
29.0032
28.5039
27.9443
27.5677
27.1127
10.4251
20.3424
24.2749
26.6242
27.407
26.6641
24.8601
22.6009
20.6278
20.7547
25.0827
28.8244
30.3678
30.5436
30.0072
29.5396
29.5337
29.8655
29.7309
29.6486
28.6258
27.2378
25.6681
24.4936
8.90245
18.9329
22.9622
25.4454
26.475
26.0804
24.5385
22.4325
19.3812
14.4791
11.9909
19.022
24.6872
27.9325
29.0916
29.1928
28.9057
28.4484
27.3102
26.2316
24.322
22.1936
20.2989
19.214
7.88972
17.7922
21.8734
24.5148
25.868
25.9926
25.1921
23.7559
20.7294
18.7283
20.4896
21.3491
21.7598
23.0114
24.1476
24.8106
25.1141
25.0303
24.3861
23.6379
22.7192
21.481
20.3549
19.7791
7.24994
16.9873
21.0544
23.7469
25.2326
25.4898
24.5831
21.9976
16.197
8.53978
7.72241
16.3848
21.331
23.833
24.6484
24.87
24.9031
24.5613
23.6342
22.6312
21.3662
20.2033
19.1309
18.5319
6.59007
16.1224
20.0924
22.7186
24.1911
24.4693
23.6152
20.8069
16.5266
16.3493
18.3624
18.5514
19.4367
21.0207
22.3172
22.908
22.776
22.2622
21.507
20.8041
20.03
19.2654
18.5782
18.2196
6.0173
15.1937
19.0596
21.6973
23.3085
23.9002
23.2419
19.8721
14.6752
11.5921
13.6315
17.6608
20.206
21.5999
22.2085
22.2751
22.0107
21.5372
20.9252
20.3494
19.7589
19.2127
18.68
18.3619
5.90696
14.7077
18.5052
21.2651
23.0941
23.8551
22.4031
17.509
12.8424
14.894
18.0962
19.4966
20.4985
21.4417
22.0742
22.2641
22.025
21.547
20.9737
20.4532
19.9928
19.5538
19.1259
18.8705
5.9843
14.5315
18.3341
21.2375
23.1078
23.2533
19.9199
14.2522
12.866
15.8305
18.5453
20.7251
22.1312
22.897
23.1699
23.0441
22.6274
22.0466
21.4252
20.8969
20.4613
20.0682
19.6851
19.4429
6.18592
14.6152
18.3812
21.1736
22.4957
20.8899
15.9852
12.0219
14.187
18.0796
20.7422
22.2116
23.16
23.7943
24.0729
23.9633
23.508
22.8469
22.1507
21.5621
21.1156
20.7311
20.3647
20.1298
6.36993
14.6414
18.17
20.4183
20.3525
17.0876
13.0664
12.2752
16.5331
20.1717
22.4891
24.0291
24.9959
25.4849
25.5742
25.3003
24.7201
23.9494
23.1567
22.4995
22.0214
21.6231
21.256
21.017
5.98682
14.3434
17.5059
18.9169
17.4965
14.5229
11.68
14.3652
19.0725
22.3029
24.3539
25.6708
26.5204
27.001
27.111
26.8401
26.2272
25.3857
24.5015
23.7497
23.2056
22.7608
22.3652
22.1077
4.40815
12.631
15.7852
16.3754
14.4593
11.7733
12.0006
17.3194
21.5346
24.337
26.2303
27.5388
28.3831
28.8243
28.8984
28.6089
27.9751
27.0873
26.1292
25.291
24.6727
24.1678
23.7317
23.4481
3.57642
11.4993
13.7809
13.6599
12.1009
11.4991
15.3411
20.2781
23.8515
26.3407
28.0995
29.3276
30.1425
30.608
30.7349
30.505
29.9138
29.0292
28.0315
27.1243
26.4335
25.862
25.3757
25.0598
2.04806
2.04155
2.77946
4.70544
7.19474
10.0241
11.4195
11.4776
12.7746
13.9884
14.4749
14.8548
14.8916
14.757
14.4373
14.0494
13.5817
13.0986
12.5975
12.1119
11.6491
11.5101
11.1602
10.2301
9.59613
8.9999
8.50816
8.07068
7.64829
7.19611
6.65505
5.90312
4.75379
3.66034
3.46209
3.49277
3.03586
2.53113
2.35456
2.89551
11.2522
11.4957
12.6531
14.9174
16.3507
17.7994
18.7255
19.5357
20.1695
20.5827
20.8121
20.9284
20.9302
20.8501
20.7027
20.5029
20.2651
19.9972
19.7031
19.3905
19.0612
18.7223
18.3393
17.9368
17.5522
17.1727
16.768
16.3314
15.8474
15.2918
14.6395
13.8809
12.9881
11.6225
11.3891
10.8211
9.06063
7.82116
7.85806
9.72781
13.593
15.1693
16.7517
18.4835
19.7708
20.9706
21.8453
22.6018
23.1454
23.5586
23.8385
24.014
24.0977
24.0996
24.0329
23.8997
23.7168
23.4922
23.2321
22.9382
22.6106
22.2478
21.869
21.4733
21.0731
20.6675
20.2206
19.7312
19.1897
18.5801
17.8915
17.1223
16.271
15.1717
13.8921
12.3511
11.3863
11.0441
10.5994
11.5342
16.3563
17.9845
19.5296
21.0674
22.3316
23.4608
24.3601
25.1262
25.7176
26.1911
26.5411
26.7924
26.9527
27.0309
27.0398
26.9759
26.8483
26.6642
26.4342
26.1608
25.8536
25.5213
25.1739
24.8151
24.4282
24.0055
23.5292
22.9994
22.4098
21.7523
21.0232
20.2039
19.2657
18.2194
17.0116
15.4902
13.5629
11.6315
11.5248
11.5904
18.9158
20.4012
21.9172
23.3629
24.5779
25.6773
26.5777
27.3541
27.9797
28.4954
28.9019
29.218
29.4528
29.6081
29.6858
29.6837
29.6021
29.4481
29.2359
28.9856
28.7115
28.4228
28.1061
27.766
27.399
26.9943
26.5229
25.9848
25.3756
24.7004
23.964
23.1516
22.2471
21.2272
20.0803
18.7796
17.1241
14.9251
12.3546
11.5537
21.179
22.5095
24.0211
25.353
26.5306
27.6029
28.5
29.2902
29.9457
30.5039
30.9652
31.3491
31.6546
31.8821
32.0259
32.0769
32.0266
31.8743
31.6502
31.3821
31.1164
30.8353
30.5439
30.2418
29.927
29.5874
29.1715
28.6648
28.0567
27.3786
26.6487
25.8633
25.0156
24.0889
23.0465
21.8878
20.5471
18.8648
16.5505
13.6793
23.102
24.3706
25.8454
27.0757
28.2444
29.284
30.1911
30.9927
31.6788
32.2756
32.7901
33.2321
33.6017
33.8928
34.0938
34.1843
34.1356
33.9149
33.7062
33.4575
33.2022
32.9258
32.6372
32.3365
32.0257
31.7046
31.3772
31.0131
30.447
29.7757
29.0558
28.2975
27.4998
26.6572
25.7371
24.7404
23.5979
22.3365
20.648
18.6559
24.7817
26.0236
27.4322
28.6017
29.7594
30.7715
31.6892
32.4976
33.209
33.8372
34.3952
34.887
35.3115
35.6596
35.9136
36.0417
35.9923
35.7547
35.5668
35.3255
35.0754
34.8037
34.5146
34.2118
33.9009
33.5892
33.285
32.9707
32.5306
31.8775
31.1692
30.4337
29.6747
28.895
28.0679
27.2112
26.239
25.2387
23.9593
22.6833
26.2466
27.4967
28.8124
29.9598
31.0874
32.083
33.0007
33.813
34.542
35.1961
35.789
36.3229
36.7957
37.1961
37.5029
37.6779
37.6564
37.4186
37.233
37.0004
36.7558
36.4866
36.1974
35.8939
35.5847
35.2814
34.9982
34.7244
34.33
33.6832
32.9818
32.2615
31.5299
30.7936
30.0332
29.2688
28.431
27.6039
26.573
25.6618
27.5714
28.7463
30.0149
31.1316
32.2308
33.2128
34.1267
34.9427
35.6847
36.3587
36.9788
37.546
38.0583
38.5041
38.8635
39.1047
39.1609
38.899
38.7215
38.4889
38.2497
37.9809
37.6927
37.392
37.0901
36.8033
36.5498
36.3062
35.8574
35.2031
34.5025
33.7892
33.0733
32.3629
31.6458
30.939
30.1896
29.4722
28.6031
27.8819
28.6985
29.7931
31.0343
32.1157
33.1964
34.168
35.0816
35.9044
36.6597
37.3493
37.9892
38.5788
39.1157
39.5882
39.9816
40.2661
40.3948
40.2848
40.0303
39.8115
39.569
39.3007
39.016
38.7242
38.4403
38.1827
37.9599
37.6917
37.1243
36.4587
35.7553
35.0413
34.3294
33.6292
32.9338
32.2583
31.5593
30.9081
30.1278
29.536
29.6211
30.6611
31.8755
32.9329
34.0052
34.9749
35.8954
36.7305
37.5012
38.2036
38.8563
39.4584
40.0083
40.4987
40.9154
41.2363
41.4299
41.4507
41.2332
40.9957
40.7455
40.481
40.2057
39.9339
39.6803
39.454
39.2123
38.7401
38.1514
37.4826
36.7722
36.0491
35.3296
34.6253
33.9328
33.2672
32.5897
31.9721
31.2361
30.7255
30.3621
31.3499
32.5535
33.6029
34.6811
35.6622
36.5995
37.4537
38.2426
38.9589
39.6213
40.2293
40.7853
41.2803
41.7028
42.0354
42.2568
42.3455
42.2928
42.1238
41.8387
41.5814
41.3231
41.0753
40.8297
40.5264
40.0862
39.5886
38.9941
38.3113
37.5827
36.8404
36.1026
35.3817
34.6772
34.0033
33.3269
32.7158
31.9988
31.5275
30.8789
31.8452
33.0619
34.1289
35.2324
36.2421
37.2083
38.0896
38.9021
39.6375
40.3103
40.9248
41.4823
41.9756
42.3942
42.7224
42.9425
43.0397
43.0152
42.907
42.7443
42.5321
42.2702
41.9647
41.6218
41.2412
40.813
40.3061
39.6771
38.9609
38.2024
37.432
36.6673
35.9204
35.1929
34.4971
33.8067
33.18
32.4645
31.9934
31.129
32.1122
33.3706
34.4863
35.6391
36.697
37.706
38.6258
39.4715
40.2343
40.9236
41.5471
42.1078
42.6005
43.0161
43.3411
43.5603
43.6599
43.6355
43.5049
43.333
43.1206
42.8687
42.5786
42.2507
41.8771
41.4317
40.8675
40.1819
39.423
38.6297
37.8276
37.032
36.254
35.4961
34.7687
34.051
33.3917
32.6554
32.1512
31.1077
32.1431
33.467
34.6528
35.8722
36.9944
38.0601
39.0309
39.9194
40.7157
41.427
42.0637
42.6308
43.1257
43.5418
43.8685
44.0929
44.2009
44.1833
44.0514
43.8655
43.6481
43.3997
43.1156
42.7849
42.3837
41.872
41.2232
40.4809
39.6827
38.8577
38.0251
37.198
36.3859
35.5917
34.8236
34.0641
33.3525
32.5643
31.9906
30.8666
31.9767
33.3798
34.6478
35.9428
37.1379
38.2675
39.2951
40.2303
41.0639
41.8031
42.4569
43.0329
43.5321
43.9504
44.2804
44.5122
44.6356
44.643
44.5366
44.3377
44.107
43.8454
43.5397
43.1643
42.6828
42.0669
41.3505
40.5661
39.7379
38.8856
38.0239
37.164
36.3134
35.4747
34.6533
33.8314
33.0389
32.1614
31.4866
30.5278
31.7186
33.2006
34.5513
35.9211
37.1879
38.3802
39.4635
40.4445
41.3159
42.084
42.7554
43.3408
43.8439
44.2636
44.5953
44.8331
44.9703
45.0012
44.9239
44.7454
44.4864
44.1745
43.7933
43.313
42.7236
42.0377
41.2778
40.4635
39.6095
38.7298
37.8362
36.9375
36.0395
35.1427
34.2482
33.3366
32.4329
31.4455
30.6674
30.245
31.5105
33.062
34.4861
35.9204
37.2491
38.4946
39.6246
40.6437
41.5453
42.3349
43.0182
43.6071
44.1074
44.5194
44.8407
45.0678
45.1961
45.2214
45.1407
44.9542
44.6673
44.2881
43.8175
43.2529
42.5984
41.867
41.0731
40.2295
39.3463
38.4336
37.5009
36.5545
35.598
34.6282
33.6415
32.6242
31.6078
30.5319
29.6879
30.1308
31.4599
33.0661
34.5461
36.0276
37.3999
38.6813
39.8414
40.8831
41.8001
42.5974
43.2816
43.8644
44.3517
44.7448
45.0421
45.2414
45.3393
45.3325
45.2182
44.9958
44.6671
44.2364
43.7091
43.0929
42.3965
41.6299
40.8039
39.9282
39.0111
38.0605
37.0833
36.0838
35.0619
34.0125
32.9339
31.8269
30.7332
29.6187
28.7563
30.1503
31.5313
33.1775
34.6964
36.207
37.6047
38.9042
40.0773
41.1261
42.0441
42.8358
43.5102
44.078
44.5445
44.9112
45.1777
45.3421
45.4025
45.3569
45.2033
44.9416
44.5743
44.1058
43.5426
42.8927
42.1649
41.3683
40.5126
39.6066
38.6573
37.6709
36.6526
35.604
34.5229
33.4064
32.2615
31.1037
29.9795
28.8692
28.0194
30.2455
31.6555
33.3186
34.8512
36.3686
37.7703
39.0697
40.24
41.283
42.1924
42.9716
43.6314
44.1814
44.6259
44.9666
45.2034
45.3353
45.3614
45.2804
45.0917
44.7958
44.3954
43.8955
43.3027
42.6251
41.871
41.0496
40.1693
39.2379
38.2614
37.2448
36.1911
35.1
33.9698
32.8039
31.6192
30.4404
29.3123
28.2244
27.3972
30.3097
31.7316
33.3973
34.9302
36.4432
37.8391
39.1307
40.2917
41.3235
42.2208
42.9861
43.6306
44.1631
44.5873
44.9049
45.1159
45.2203
45.2175
45.1076
44.8906
44.5678
44.1422
43.6187
43.0042
42.3068
41.5348
40.6963
39.7993
38.8506
37.8554
36.8172
35.7372
34.6144
33.4498
32.2536
31.0496
29.8656
28.7435
27.6782
26.8701
30.4077
31.8304
33.4918
35.0176
36.5207
37.9057
39.185
40.3332
41.351
42.2337
42.9846
43.6141
44.1307
44.5374
44.8358
45.0263
45.109
45.0842
44.9523
44.7143
44.372
43.9283
43.3884
42.7593
42.0489
41.2654
40.4165
39.5098
38.5513
37.5454
36.4949
35.4003
34.2603
33.0788
31.8704
30.6614
29.4807
28.3675
27.3202
26.5265
11.27
29.8707
40.5817
43.4688
45.9149
45.9381
46.4465
46.4685
47.2303
47.4522
47.2597
46.7236
45.7008
45.9299
45.5758
44.19
43.0015
42.0037
42.8756
43.9995
42.6216
41.8612
41.4502
41.177
6.43006
29.5728
40.246
43.2315
45.6679
45.8313
46.4184
46.3893
47.2731
47.3921
47.4098
46.7884
45.8969
46.3317
45.7209
44.2549
43.2164
42.2903
43.003
44.3445
43.1299
42.4814
42.1374
41.8545
15.2503
28.9999
39.7766
43.0074
45.5662
45.8519
46.5426
46.8161
47.5571
47.5891
47.3443
46.7083
45.9434
46.6383
45.8692
44.5338
43.7661
42.9742
43.4877
44.8274
43.5684
42.9106
42.5708
42.2574
11.0215
28.5702
39.4533
42.8278
45.3896
45.8932
46.7258
46.8543
47.6261
47.5695
47.5244
46.8934
46.3034
47.0314
46.0522
44.7875
44.1367
43.4112
43.7427
45.2292
44.1441
43.596
43.3106
43.0055
12.6997
27.9811
38.8981
42.5911
45.3601
46.0322
46.9039
47.3215
47.924
47.7783
47.4978
46.8904
46.409
47.2675
46.226
45.229
44.7772
44.179
44.3447
45.7918
44.6599
44.1048
43.8162
43.4983
10.2462
27.3534
38.5112
42.4215
45.184
46.0821
47.1479
47.3657
47.9589
47.804
47.7343
47.2123
46.8901
47.6515
46.5195
45.6433
45.2197
44.6872
44.7168
46.2274
45.2807
44.8322
44.5908
44.3036
11.9888
26.5985
37.7808
42.045
45.1001
46.2131
47.2476
47.7577
48.2549
48.0329
47.7724
47.2943
47.0396
47.8503
46.7715
46.1778
45.8882
45.4846
45.415
46.8325
45.8432
45.3866
45.1391
44.8577
11.5833
25.7851
37.1794
41.7584
44.8291
46.1422
47.4393
47.765
48.2503
48.1034
48.0847
47.7488
47.6269
48.2665
47.1911
46.6598
46.3513
46.0204
45.8729
47.2826
46.4903
46.1396
45.9377
45.7044
13.4356
24.8012
36.1769
41.1146
44.5769
46.1818
47.4056
48.0422
48.5475
48.3609
48.1974
47.9009
47.8122
48.463
47.5078
47.2134
47.0298
46.8273
46.6418
47.9091
47.0795
46.7166
46.5077
46.2906
14.4172
23.6952
35.2046
40.5815
44.134
45.9241
47.4997
48.0084
48.5021
48.4645
48.5713
48.4459
48.4699
48.9219
48.0079
47.7025
47.493
47.3584
47.1378
48.3518
47.725
47.4684
47.3068
47.1465
16.7713
22.6006
33.8553
39.5564
43.6253
45.8335
47.3162
48.1549
48.7877
48.7335
48.7287
48.6088
48.6387
49.1028
48.3304
48.2328
48.1625
48.1383
47.9307
48.9699
48.3043
48.0281
47.858
47.7143
17.669
21.3565
32.3989
38.647
42.9108
45.3181
47.2843
48.068
48.6733
48.8286
49.1078
49.1725
49.3031
49.5744
48.8469
48.6985
48.5894
48.6096
48.3971
49.366
48.907
48.7393
48.6198
48.5328
19.6692
20.2362
30.5849
37.038
41.9984
45.0344
46.9025
48.0491
48.9082
49.0551
49.2364
49.2637
49.3828
49.6943
49.1151
49.174
49.2132
49.3137
49.1594
49.933
49.4212
49.2222
49.0884
49.0093
24.0156
19.4087
28.6042
35.5822
40.7969
44.0716
46.6676
47.8573
48.6613
49.0635
49.5317
49.7654
49.9903
50.1346
49.5985
49.5845
49.5425
49.6502
49.5075
50.2114
49.9126
49.8261
49.7503
49.7228
29.1393
19.3784
26.1894
32.9612
39.1207
43.4232
45.9142
47.575
48.7954
49.1843
49.5401
49.6839
49.8874
50.1205
49.7463
49.9417
50.0558
50.2153
50.1723
50.6964
50.3205
50.186
50.0901
50.0595
33.9911
20.0848
23.8736
30.7613
36.9647
41.4953
45.2672
47.13
48.2957
49.0334
49.6972
50.0809
50.3978
50.488
50.1526
50.2593
50.2446
50.3845
50.351
50.8118
50.6633
50.6547
50.6297
50.644
36.4688
21.1177
20.964
26.1616
33.6239
40.0894
43.6559
46.3148
48.2084
48.9549
49.521
49.7844
50.0691
50.2997
50.1545
50.4644
50.6287
50.8105
50.8878
51.1628
50.8931
50.7985
50.7316
50.7242
37.6215
21.583
18.2505
23.1056
29.4826
35.617
42.0952
45.2583
47.1413
48.497
49.4603
50.0415
50.4722
50.5797
50.4652
50.6235
50.5932
50.7025
50.7325
50.9467
50.9363
51.013
51.0415
51.0768
37.634
21.9811
13.4912
10.8984
20.3041
32.6743
38.1147
43.2251
46.5729
47.9561
48.9016
49.3398
49.7397
50.0527
50.1542
50.5164
50.7244
50.9066
51.0255
51.0513
50.826
50.6853
50.5944
50.5607
37.3241
21.2843
11.508
8.94105
5.22194
12.9448
34.3141
40.6555
44.1969
46.8328
48.3847
49.3497
49.967
50.156
50.2614
50.37
50.2389
50.193
50.0477
49.9621
50.0332
50.1835
50.2528
50.277
36.4643
20.8664
6.80229
8.16528
6.57286
7.64919
17.3897
35.3287
42.6281
45.265
46.9389
47.6678
48.2539
48.7398
49.0687
49.39
49.6317
49.7834
49.695
49.4164
49.01
48.5599
48.2375
48.0395
35.0751
19.6362
14.136
12.3564
4.05253
7.68945
12.1518
28.9508
36.8925
42.5473
45.3436
47.0939
48.0321
48.3219
48.5901
48.4847
47.9556
47.3663
46.2951
45.58
45.5683
45.7462
45.7722
45.6812
33.4516
20.3046
10.3394
13.3109
13.495
8.97153
6.3912
7.01626
33.8085
38.5181
41.4443
42.599
43.39
44.2001
44.6539
44.7297
44.9452
44.9344
44.038
43.1049
40.9834
38.4438
36.027
34.429
29.443
18.7564
6.0027
9.70729
14.2229
14.4073
9.8045
8.05827
14.8989
28.6285
35.8913
39.8725
42.0772
42.2876
42.4622
41.4714
38.3128
34.0443
25.5518
16.0193
19.1277
13.7091
11.3112
20.915
26.7445
18.8129
7.85468
11.0096
10.2801
2.25197
10.4166
10.351
7.59727
17.2012
7.4692
17.491
12.7956
18.0523
16.7358
10.7939
13.7659
17.1231
7.86821
17.8983
3.25837
18.1345
10.4714
11.0451
16.7998
18.782
11.4546
14.6478
21.6901
24.5992
21.8482
11.2944
14.4796
7.42971
11.2989
10.7478
16.4138
17.0077
2.23567
16.8393
6.54578
18.1716
18.9027
9.50725
19.4248
11.4718
11.0551
12.9983
3.26931
14.8448
11.5676
13.9994
22.8856
28.3524
29.8494
28.7718
20.0778
15.1783
12.5327
7.57508
12.7844
13.3298
7.84863
14.6567
3.96244
11.987
15.8513
21.3586
24.1316
25.6921
27.5002
27.6762
9.12121
15.5726
13.1466
12.4315
20.8427
27.9604
31.3455
30.3105
27.0374
27.8964
28.5991
28.3489
26.7921
25.5841
25.1449
24.9312
27.4531
28.6424
29.5519
29.0422
28.8528
28.475
27.8495
27.6128
10.4535
18.187
18.7677
16.5459
20.644
26.9661
31.028
30.7249
27.9525
27.5434
27.2675
27.578
28.9458
29.742
29.7208
29.6032
29.3438
29.3421
29.7198
29.593
29.2796
28.5296
27.677
26.743
8.93132
18.34
21.479
21.468
22.9079
26.7716
29.6608
28.9055
26.7114
25.2002
23.6241
25.074
27.4802
29.766
30.524
30.4937
30.3545
30.0518
29.3522
27.8541
26.2371
24.1196
21.9115
20.5423
5.51873
15.5667
20.317
22.7028
24.007
25.9035
26.9961
25.0153
21.4719
13.8222
11.5369
10.1795
15.2535
22.8401
26.3896
27.3955
27.1249
26.0993
24.8831
23.8089
22.6374
21.3594
20.453
20.1187
7.90541
10.6961
15.6287
19.8061
22.1462
23.4314
23.3951
21.4817
18.8322
15.5384
16.1942
18.5067
20.298
21.117
23.0914
24.4232
24.8017
24.5524
23.8836
23.1617
22.1627
21.0503
20.1411
19.6672
7.95982
5.84694
9.87345
13.8898
17.2715
19.0573
19.1479
18.1159
16.542
12.5118
10.7601
12.1877
18.0903
22.1238
23.9147
24.5763
24.4577
23.6122
22.4998
21.418
20.5769
19.8368
19.279
19.0614
3.11151
5.63296
7.79384
9.80193
11.4455
13.055
13.5172
13.2629
11.1698
9.86442
14.5967
18.6245
19.1981
20.3989
22.016
22.7367
22.5225
21.8818
21.1914
20.6044
20.0655
19.57
19.2254
19.1057
1.97275
7.51014
9.33028
10.8418
11.2027
10.8876
10.6332
10.4273
10.0301
13.2285
15.986
17.2379
19.7579
21.4628
22.2842
22.517
22.2952
21.7639
21.1664
20.6609
20.3042
20.0531
19.8869
19.8641
2.45203
8.39299
10.6058
12.502
13.686
14.1417
14.3549
14.2
15.1809
17.1195
18.812
20.5674
21.4501
22.2877
22.9337
23.0799
22.7539
22.2239
21.7287
21.3646
21.0874
20.888
20.7669
20.7699
2.4648
8.58177
10.8163
12.7239
14.6299
16.0753
16.8202
17.2597
18.2635
19.4007
20.5176
21.5078
22.7532
23.6568
24.0724
24.0583
23.7081
23.1966
22.7195
22.3887
22.1861
22.0785
22.0212
22.0575
2.9186
9.8505
11.4911
12.9556
14.5357
15.9171
17.0288
18.331
19.8328
21.2646
22.5499
23.7468
24.5978
25.2062
25.5145
25.4508
25.0732
24.5673
24.1258
23.8528
23.7084
23.6641
23.6515
23.7132
3.31905
11.0805
12.1602
13.7327
15.3283
16.9457
18.7012
20.5184
22.2151
23.5742
24.6866
25.6254
26.4672
27.0495
27.292
27.1982
26.8433
26.3766
25.973
25.744
25.6554
25.6685
25.6899
25.7694
2.99523
11.2884
12.6539
14.6752
16.9043
19.1407
21.2089
22.9822
24.4905
25.731
26.845
27.8259
28.5896
29.1076
29.3386
29.2671
28.953
28.5374
28.1866
28.0126
27.9793
28.0391
28.0868
28.1796
17.9261
11.4944
15.5883
7.68123
15.6982
14.417
14.1332
3.0405
10.8438
7.01434
7.80922
7.62061
5.61532
4.24607
7.939
8.5728
4.85619
7.343
3.65771
6.67431
6.46277
3.17904
6.78525
6.98187
7.37667
7.84031
4.75982
4.01586
5.91393
5.20148
3.56034
6.85437
12.8784
8.18125
14.3314
3.2317
8.23398
15.0134
8.06507
15.1761
29.836
27.7648
27.0313
24.7911
24.0694
21.9454
21.2402
18.7507
18.1669
16.1142
15.7931
14.1866
13.865
11.9732
12.3738
11.7143
11.1402
11.5914
10.8739
10.8339
10.2048
10.4334
10.921
11.4108
11.3204
11.3996
12.2535
11.7709
13.0888
14.3866
14.8105
16.6798
17.2176
19.0049
19.8745
21.8611
22.5182
24.5265
25.2503
26.7405
40.4095
38.8404
37.9453
36.4382
35.4676
34.0505
33.0701
31.8747
30.8859
29.9438
29.0041
28.2803
27.3645
26.7116
25.5727
25.1657
24.4575
24.5538
24.0448
23.6759
23.5573
23.6777
23.9527
24.2493
24.7723
25.1496
25.871
26.5814
27.586
28.2705
29.2124
30.0918
30.9746
32.1107
32.9622
34.2652
35.1043
36.5179
37.2807
38.7759
43.0641
41.4833
40.3539
38.8432
37.6962
36.3048
35.1977
33.9511
32.9944
31.9623
31.1819
30.3975
29.7101
29.0523
28.2729
27.6585
27.1729
27.2633
26.9849
26.6408
26.4926
26.5924
26.7951
27.0621
27.4362
27.7034
28.3769
28.9581
29.7605
30.5438
31.3031
32.2811
33.0947
34.3137
35.226
36.618
37.5889
39.0675
40.0874
41.6014
45.4295
44.0239
42.8187
41.4966
40.2864
39.0651
37.9067
36.8212
35.7492
34.8651
33.8776
33.2397
32.3673
31.8879
30.9374
30.4699
29.7184
29.8679
29.5853
29.2399
29.1692
29.2281
29.4027
29.664
30.0541
30.3761
31.0733
31.6889
32.6531
33.2756
34.1887
35.0172
35.99
37.1134
38.1141
39.4116
40.411
41.8362
42.8605
44.3837
45.3952
44.069
42.8578
41.6508
40.4736
39.3499
38.2237
37.2172
36.165
35.3268
34.3201
33.6895
32.8704
32.4408
31.654
31.1034
30.3898
30.4613
30.2924
29.9549
29.9671
29.9679
30.0887
30.3188
30.6689
30.9417
31.5741
32.2307
33.0521
33.6487
34.5077
35.3277
36.3553
37.4437
38.4658
39.6814
40.69
42.0369
43.1351
44.6022
45.8069
44.6046
43.3656
42.3333
41.1725
40.2372
39.0782
38.2403
37.0826
36.3745
35.196
34.5738
33.6238
33.2666
32.5513
32.125
31.1945
31.1998
30.9623
30.7178
30.8528
30.7924
30.8845
31.0638
31.4552
31.6639
32.3583
32.9795
33.7924
34.3342
35.2579
36.1018
37.2489
38.2574
39.3005
40.3721
41.3471
42.6211
43.6887
45.1282
45.5553
44.4738
43.0943
42.2309
41.0409
40.3258
39.1512
38.4515
37.2596
36.5871
35.4304
34.6984
33.7224
33.2594
32.7233
32.4218
31.4811
31.2843
30.8866
30.7779
31.049
30.9259
31.0359
31.1857
31.6227
31.7741
32.4764
33.0472
33.7101
34.2017
35.1397
36.0693
37.2337
38.1642
39.1469
40.0421
41.0208
42.1621
43.2559
44.6312
46.3343
45.0564
43.6285
42.6288
41.4253
40.6933
39.6217
38.9112
37.7613
37.0144
35.9736
35.2297
34.1864
33.5759
33.0016
32.9361
31.9993
31.7469
30.9498
31.0739
31.3958
31.2344
31.4876
31.6066
32.193
32.2002
33.0622
33.4297
33.8813
34.2906
35.324
36.3029
37.4547
38.3093
39.1784
40.0888
41.0543
42.2213
43.3074
44.6464
46.5751
45.2843
43.7856
42.6899
41.4216
40.555
39.4853
38.6694
37.5825
36.7512
35.8338
35.312
34.3485
33.6019
32.7107
32.717
31.9608
31.8343
30.793
31.0658
31.2886
31.112
31.58
31.7499
32.4367
32.3573
33.4554
33.4535
33.5732
33.9473
35.0568
35.9454
37.0839
37.8355
38.8916
39.8281
40.9622
42.1289
43.2492
44.5919
46.6394
45.0922
43.7433
42.3198
41.0949
39.9652
38.9497
38.0601
37.0601
36.2527
35.38
34.8727
34.1686
33.5529
32.3917
32.309
31.4756
31.5573
30.792
30.8314
31.1067
30.9235
31.2551
31.4226
32.2066
32.5161
33.623
33.3195
33.4276
33.9699
34.9497
35.7835
36.8789
37.7252
38.8802
39.8284
41.0837
42.1856
43.4751
44.7413
46.1527
44.7678
43.4085
42.0762
40.6846
39.5247
38.3123
37.4601
36.4733
35.7918
34.9069
34.2773
33.5895
33.1482
32.0727
31.9593
31.5226
30.8056
30.2512
30.3101
30.6722
30.6268
30.5597
31.0015
32.0518
32.9358
33.014
33.3798
34.1866
34.6639
35.3893
35.9854
36.9105
37.6981
38.7586
39.6737
40.8673
41.9587
43.2504
44.486
45.1013
43.8589
42.716
41.7129
40.6273
39.6806
38.4785
37.4471
36.1531
35.3276
34.5145
34.1958
33.3778
32.9826
32.2263
31.503
32.0348
31.4275
30.8107
30.1036
30.4063
30.705
30.4953
30.8725
32.0053
32.1153
32.5682
32.7014
33.1181
33.6438
34.5693
35.4205
36.5785
37.4872
38.6452
39.57
40.7762
41.7897
43.0301
44.1469
44.9443
43.3934
41.937
40.7789
39.6354
38.821
37.7928
37.0455
35.9116
35.1371
34.0233
33.5258
32.5591
31.7776
31.4704
31.3182
30.7136
30.8178
30.7379
30.5175
29.8094
31.1468
29.9085
31.1783
31.2673
31.2259
31.8751
32.41
32.9977
33.4343
34.1723
34.7741
35.7798
36.7781
38.0397
39.0915
40.2348
41.1616
42.2412
43.2489
44.7223
43.3239
41.7818
40.5696
39.1626
38.1996
36.9374
36.159
34.9953
34.3791
33.3231
32.8336
31.6607
30.6701
29.6155
29.9909
29.6961
29.377
29.0215
29.3015
29.311
28.832
29.8127
29.7813
30.2442
30.2497
31.5621
32.2049
32.6113
32.8832
33.7821
34.4558
35.4316
36.2906
37.2354
38.0048
38.9295
39.8591
41.0006
42.2078
43.3776
42.2183
40.6857
39.5802
38.1191
37.2531
36.0713
35.5472
34.5438
34.0725
32.8815
32.2257
31.2351
31.0227
29.8331
29.1178
28.4012
28.4925
28.1851
28.0992
27.7678
28.6316
29.1651
29.5237
29.3295
29.8051
30.8968
31.2257
31.878
32.3501
33.042
33.5754
34.3904
35.1178
36.0937
37.0475
38.1736
39.2766
40.4679
41.6792
41.9757
40.8536
39.2836
38.2733
36.7241
35.8104
34.3403
33.6779
32.46
32.0721
30.9113
30.3135
28.8144
28.4012
27.5156
27.4389
26.7505
26.859
26.5493
26.35
27.3731
27.2159
27.8863
27.4948
28.2156
29.0451
29.5743
29.5082
30.5623
31.2822
32.053
32.6652
33.6067
34.5553
35.6658
36.7016
37.7882
38.8618
40.0255
41.2704
40.8691
39.8032
38.3025
37.5323
36.2765
35.7151
34.5227
33.9368
32.5652
31.7624
30.1679
29.331
28.0092
27.8714
27.3446
27.2362
26.6842
26.6988
26.8069
26.1446
26.3629
26.3221
26.2363
26.766
26.94
27.1397
27.7839
28.2745
29.0849
29.722
30.6583
31.6098
32.8807
34.0551
35.2818
36.3764
37.4966
38.5818
39.7599
40.9981
41.8798
40.8086
39.2498
38.2973
36.8429
35.9815
34.6118
33.7847
32.4293
31.5549
30.1383
29.1646
27.7575
26.9244
26.023
25.5836
24.7871
24.793
25.08
24.6907
25.5887
25.5151
26.3659
26.8265
26.5584
26.4359
26.8032
27.0469
27.7098
28.3528
29.4049
30.5731
31.9252
33.1683
34.4381
35.565
36.7624
37.8733
39.1196
40.3522
42.98
41.5511
39.958
38.6305
37.1595
35.9609
34.6473
33.619
32.4839
31.6323
30.6716
29.9584
29.1388
28.4872
27.7596
27.1345
26.5369
26.0622
25.682
25.8646
25.4926
25.8456
26.0216
25.991
26.4849
26.9177
27.5894
28.2326
29.0389
29.8025
30.7288
31.6306
32.6804
33.7521
34.9624
36.227
37.5989