/*--------------------------------*- C++ -*----------------------------------*\
  =========                 |
  \\      /  F ield         | OpenFOAM: The Open Source CFD Toolbox
   \\    /   O peration     | Website:  https://openfoam.org
    \\  /    A nd           | Version:  6
     \\/     M anipulation  |
\*---------------------------------------------------------------------------*/
FoamFile
{
    version     2.0;
    format      ascii;
    class       volVectorField;
    location    "47";
    object      wallShearStress;
}
// * * * * * * * * * * * * * * * * * * * * * * * * * * * * * * * * * * * * * //

dimensions      [0 2 -2 0 0 0 0];

internalField   uniform (0 0 0);

boundaryField
{
    inlet
    {
        type            calculated;
        value           uniform (0 0 0);
    }
    outlet
    {
        type            calculated;
        value           uniform (0 0 0);
    }
    roughCylinder
    {
        type            calculated;
        value           nonuniform List<vector> 
3840
(
(-0.000270594 -0.000396472 -0.000163218)
(-0.000326476 -0.000510293 -2.25199e-05)
(-0.000375819 -0.000631416 4.19964e-05)
(-0.000450911 -0.000734721 0.000123777)
(-0.000538929 -0.000808648 0.000206036)
(-0.000630173 -0.000848992 0.000278139)
(-0.000715033 -0.000859735 0.000334844)
(-0.000788762 -0.000852229 0.000374686)
(-0.000851816 -0.000845819 0.000401966)
(-0.000900406 -0.00084443 0.000416276)
(-0.000939105 -0.000852094 0.000419631)
(-0.000971275 -0.000867252 0.000414186)
(-0.000999994 -0.000888291 0.000402491)
(-0.00102818 -0.000913724 0.000386615)
(-0.00105785 -0.000942607 0.000367983)
(-0.00109013 -0.000974436 0.000347256)
(-0.00112536 -0.00100889 0.000324519)
(-0.00116335 -0.00104561 0.000299447)
(-0.00120361 -0.00108411 0.000271493)
(-0.00124524 -0.00112351 0.000239711)
(-0.00128721 -0.00116268 0.000202812)
(-0.00132732 -0.00119939 0.000158447)
(-0.00136206 -0.00123086 0.000102957)
(-0.00138394 -0.00125077 3.58333e-05)
(-0.000290181 -0.000383955 -0.000155417)
(-0.000349349 -0.000494472 -2.66574e-05)
(-0.000401159 -0.000615418 3.33142e-05)
(-0.00047864 -0.000720031 0.000111692)
(-0.000568605 -0.000796587 0.000192063)
(-0.000661847 -0.000839897 0.000263091)
(-0.000749742 -0.000854755 0.000319764)
(-0.000828414 -0.000853381 0.000361639)
(-0.000896413 -0.000850169 0.00039145)
(-0.000948996 -0.000847562 0.000407277)
(-0.000989674 -0.00085389 0.000411278)
(-0.00102378 -0.000868389 0.000406149)
(-0.0010544 -0.000889225 0.000394686)
(-0.00108449 -0.000914671 0.000379035)
(-0.00111616 -0.000943679 0.000360694)
(-0.00115054 -0.000975632 0.000340343)
(-0.00118795 -0.00101018 0.000318087)
(-0.0012282 -0.00104695 0.000293589)
(-0.00127074 -0.00108543 0.000266302)
(-0.00131462 -0.00112474 0.000235255)
(-0.0013588 -0.00116378 0.000199174)
(-0.0014009 -0.0012003 0.000155702)
(-0.00143732 -0.00123159 0.000101211)
(-0.00146024 -0.00125134 3.52338e-05)
(-0.000309662 -0.0003663 -0.000142434)
(-0.000371732 -0.000473259 -3.09463e-05)
(-0.000425858 -0.000592767 2.38525e-05)
(-0.000505131 -0.000697952 9.84022e-05)
(-0.000596903 -0.000776972 0.000176601)
(-0.00069249 -0.000823969 0.000246691)
(-0.000784094 -0.000844061 0.000303991)
(-0.000867666 -0.000848614 0.000347973)
(-0.000940215 -0.000848315 0.000379661)
(-0.000997487 -0.000845724 0.000397162)
(-0.00104027 -0.000850363 0.000401801)
(-0.00107641 -0.000864006 0.000397011)
(-0.00110902 -0.00088441 0.000385846)
(-0.00114114 -0.000909681 0.000370503)
(-0.00117487 -0.000938584 0.000352528)
(-0.00121139 -0.000970438 0.000332634)
(-0.00125102 -0.00100485 0.000310939)
(-0.00129354 -0.00104141 0.000287098)
(-0.00133836 -0.00107961 0.00026056)
(-0.00138448 -0.00111857 0.000230329)
(-0.00143081 -0.0011572 0.000195149)
(-0.00147485 -0.00119328 0.000152662)
(-0.00151292 -0.00122415 9.92753e-05)
(-0.00153683 -0.0012436 3.45695e-05)
(-0.000326945 -0.000344239 -0.000125823)
(-0.000391121 -0.000447147 -3.54101e-05)
(-0.000447068 -0.000564159 1.40489e-05)
(-0.000527541 -0.000669317 8.43633e-05)
(-0.000621029 -0.000750767 0.000160008)
(-0.000719296 -0.000802106 0.000229136)
(-0.000814951 -0.000828103 0.000287289)
(-0.000903375 -0.000838378 0.000333316)
(-0.000980612 -0.000841165 0.000366748)
(-0.00104298 -0.000839905 0.000386109)
(-0.00108855 -0.000842361 0.000391401)
(-0.00112684 -0.000854938 0.000387064)
(-0.0011616 -0.000874731 0.000376287)
(-0.0011958 -0.00089964 0.000361332)
(-0.00123166 -0.00092829 0.000343808)
(-0.00127033 -0.000959883 0.000324448)
(-0.00131216 -0.000993958 0.000303383)
(-0.00135688 -0.00103011 0.000280259)
(-0.00140389 -0.00106781 0.000254527)
(-0.00145212 -0.00110619 0.000225164)
(-0.00150049 -0.00114421 0.000190937)
(-0.00154634 -0.00117962 0.000149483)
(-0.00158594 -0.0012099 9.72528e-05)
(-0.00161074 -0.00122894 3.38764e-05)
(-0.000341282 -0.000318466 -0.000107261)
(-0.000406874 -0.000416849 -3.97775e-05)
(-0.000463975 -0.000530391 4.22684e-06)
(-0.000545059 -0.000634902 6.98996e-05)
(-0.000640174 -0.000718677 0.000142593)
(-0.000741369 -0.000774664 0.00021059)
(-0.000841196 -0.000806653 0.000269495)
(-0.000934352 -0.00082227 0.000317373)
(-0.00101634 -0.000828156 0.000352575)
(-0.00108333 -0.0008284 0.000373506)
(-0.00113341 -0.000829334 0.00037995)
(-0.00117409 -0.000840659 0.00037633)
(-0.00121114 -0.000859557 0.000366039)
(-0.00124754 -0.000883914 0.000351588)
(-0.00128552 -0.000912098 0.000334597)
(-0.00132632 -0.000943215 0.000315851)
(-0.00137027 -0.000976754 0.000295489)
(-0.00141709 -0.00101227 0.000273149)
(-0.00146618 -0.00104925 0.000248281)
(-0.00151637 -0.00108681 0.000219832)
(-0.0015666 -0.00112395 0.000186595)
(-0.00161408 -0.00115848 0.000146213)
(-0.00165505 -0.00118798 9.51737e-05)
(-0.00168066 -0.00120648 3.31649e-05)
(-0.000352442 -0.000290196 -8.7959e-05)
(-0.000418377 -0.000383171 -4.38564e-05)
(-0.000475838 -0.000492416 -5.43593e-06)
(-0.00055693 -0.000595668 5.51957e-05)
(-0.000653489 -0.000681551 0.000124471)
(-0.000757727 -0.000742236 0.000191049)
(-0.000861838 -0.000780037 0.000250465)
(-0.000959814 -0.000800645 0.000299978)
(-0.00104666 -0.000809529 0.000336938)
(-0.0011185 -0.000811351 0.000359355)
(-0.00117431 -0.000812336 0.000367526)
(-0.00121772 -0.000821348 0.000364703)
(-0.00125725 -0.000839133 0.000355069)
(-0.00129593 -0.000862619 0.000341244)
(-0.00133609 -0.00089013 0.000324907)
(-0.001379 -0.000920568 0.00030687)
(-0.00142501 -0.000953344 0.000287287)
(-0.0014738 -0.000987989 0.000265795)
(-0.00152478 -0.00102399 0.000241843)
(-0.00157673 -0.00106049 0.000214352)
(-0.00162864 -0.00109655 0.000182146)
(-0.00167754 -0.00112998 0.000142864)
(-0.00171971 -0.00115851 9.3047e-05)
(-0.00174599 -0.00117637 3.24386e-05)
(-0.000359104 -0.000259701 -6.86236e-05)
(-0.000424982 -0.000347016 -4.74198e-05)
(-0.000481987 -0.000451174 -1.47742e-05)
(-0.00056236 -0.000552536 4.03838e-05)
(-0.000660038 -0.000640189 0.000105733)
(-0.000767297 -0.000705418 0.000170487)
(-0.000875756 -0.000748723 0.000230064)
(-0.000978626 -0.000773924 0.000280925)
(-0.00107054 -0.000785729 0.000319607)
(-0.00114757 -0.000789209 0.000343663)
(-0.00120891 -0.000790897 0.000353563)
(-0.001257 -0.000797987 0.000352059)
(-0.00129925 -0.000814032 0.00034332)
(-0.00134042 -0.000836456 0.000330298)
(-0.00138279 -0.000863 0.000314732)
(-0.00142777 -0.000892518 0.000297501)
(-0.00147574 -0.000924327 0.000278789)
(-0.00152638 -0.000957905 0.000258215)
(-0.0015791 -0.000992748 0.000235242)
(-0.00163262 -0.001028 0.000208754)
(-0.00168592 -0.00106274 0.000177604)
(-0.00173603 -0.00109488 0.000139454)
(-0.00177921 -0.00112227 9.08835e-05)
(-0.00180601 -0.00113938 3.17005e-05)
(-0.000361978 -0.000228594 -5.00987e-05)
(-0.000426247 -0.000309295 -5.04734e-05)
(-0.000481732 -0.000407556 -2.35769e-05)
(-0.000560472 -0.000506156 2.5703e-05)
(-0.00065871 -0.000594973 8.64956e-05)
(-0.000768757 -0.000664376 0.000148851)
(-0.000881561 -0.000712827 0.000208115)
(-0.000989607 -0.000742438 0.000260024)
(-0.00108696 -0.00075718 0.000300374)
(-0.00116959 -0.000762434 0.000326285)
(-0.0012365 -0.000764911 0.000337959)
(-0.00129024 -0.000771245 0.000338193)
(-0.00133623 -0.000785158 0.000330712)
(-0.00138003 -0.00080574 0.000318659)
(-0.00142473 -0.000831135 0.000304047)
(-0.00147178 -0.000859531 0.000287749)
(-0.00152161 -0.000890158 0.000270001)
(-0.00157391 -0.000922455 0.000250421)
(-0.0016281 -0.000955909 0.000228479)
(-0.00168287 -0.000989701 0.000203033)
(-0.00173736 -0.00102309 0.000172985)
(-0.00178837 -0.00105384 0.000135992)
(-0.00183232 -0.00107999 8.86882e-05)
(-0.00185949 -0.00109636 3.09541e-05)
(-0.000358291 -0.000196091 -3.25969e-05)
(-0.000421187 -0.000270247 -5.25892e-05)
(-0.000474323 -0.000361945 -3.16857e-05)
(-0.000550457 -0.000457044 1.13081e-05)
(-0.000648502 -0.000546304 6.69197e-05)
(-0.000760995 -0.000619388 0.000126196)
(-0.000878155 -0.000672685 0.000184559)
(-0.000991501 -0.000706463 0.000237105)
(-0.00109463 -0.000724133 0.000278999)
(-0.00118324 -0.000731213 0.000306905)
(-0.00125614 -0.000734621 0.00032064)
(-0.00131551 -0.000740708 0.000322795)
(-0.00136639 -0.000753179 0.000316993)
(-0.00141397 -0.000772093 0.000306385)
(-0.001461 -0.000795759 0.000292889)
(-0.00151006 -0.000822719 0.00027765)
(-0.00156163 -0.000852008 0.00026098)
(-0.00161539 -0.000882945 0.000242479)
(-0.00167085 -0.000914996 0.000221642)
(-0.00172659 -0.000947321 0.000197279)
(-0.00178165 -0.000979061 0.00016832)
(-0.00183313 -0.00100825 0.000132489)
(-0.00187751 -0.00103304 8.64657e-05)
(-0.0019047 -0.00104853 3.01972e-05)
(-0.000351335 -0.000164707 -1.68915e-05)
(-0.000410062 -0.000231462 -5.44313e-05)
(-0.000459581 -0.000315819 -3.86344e-05)
(-0.000531878 -0.000406102 -2.28525e-06)
(-0.000628677 -0.000494737 4.73298e-05)
(-0.000743022 -0.000570815 0.000102659)
(-0.000864286 -0.000628513 0.000159355)
(-0.000983246 -0.000666451 0.000212078)
(-0.00109263 -0.000687135 0.000255359)
(-0.00118778 -0.000696156 0.000285383)
(-0.00126696 -0.000700445 0.00030144)
(-0.00133213 -0.000706361 0.000305788)
(-0.00138797 -0.000717764 0.00030193)
(-0.00143932 -0.000735146 0.00029298)
(-0.00148931 -0.000757076 0.000280914)
(-0.00154051 -0.000782444 0.000266964)
(-0.00159359 -0.000810144 0.000251503)
(-0.00164838 -0.000839454 0.000234159)
(-0.00170448 -0.00086981 0.000214465)
(-0.00176047 -0.000900347 0.000191203)
(-0.00181587 -0.000930292 0.000163394)
(-0.00186739 -0.000957724 0.000128784)
(-0.00191186 -0.000980989 8.41107e-05)
(-0.00193887 -0.000995485 2.93941e-05)
(-0.000334836 -0.000134006 -3.0095e-06)
(-0.000392192 -0.000191605 -5.37119e-05)
(-0.000436766 -0.000268703 -4.47955e-05)
(-0.000503943 -0.000353493 -1.51294e-05)
(-0.00059816 -0.000440455 2.80005e-05)
(-0.000713535 -0.000518743 7.84236e-05)
(-0.000838878 -0.0005807 0.00013258)
(-0.000963538 -0.000622734 0.000184858)
(-0.0010796 -0.000646551 0.000229269)
(-0.00118168 -0.000657504 0.000261427)
(-0.00126781 -0.000662746 0.000280101)
(-0.00133926 -0.000668549 0.000287007)
(-0.00140026 -0.000678905 0.000285399)
(-0.00145562 -0.000694752 0.000278372)
(-0.00150852 -0.000714892 0.000267956)
(-0.00156174 -0.000738461 0.000255484)
(-0.0016162 -0.000764351 0.000241393)
(-0.00167177 -0.000791802 0.000225324)
(-0.00172827 -0.000820242 0.000206871)
(-0.00178427 -0.000848832 0.000184792)
(-0.00183945 -0.000876723 0.00015818)
(-0.00189065 -0.000902264 0.000124863)
(-0.0019349 -0.000923923 8.16161e-05)
(-0.00196148 -0.00093733 2.85413e-05)
(-0.000312774 -0.000105791 5.2443e-06)
(-0.000369976 -0.000156237 -5.0167e-05)
(-0.0004077 -0.000222545 -4.89509e-05)
(-0.000467404 -0.000300737 -2.64538e-05)
(-0.000557188 -0.000384572 9.46042e-06)
(-0.000672414 -0.000464072 5.39257e-05)
(-0.00080094 -0.000529625 0.00010443)
(-0.000931457 -0.000575868 0.000155516)
(-0.00105462 -0.000603027 0.000200698)
(-0.00116442 -0.000616145 0.000235025)
(-0.00125786 -0.000622203 0.000256497)
(-0.00133596 -0.000627764 0.000266285)
(-0.00140255 -0.000637032 0.000267298)
(-0.00146202 -0.000651179 0.000262482)
(-0.00151801 -0.000669435 0.000253995)
(-0.0015733 -0.000691062 0.00024322)
(-0.00162894 -0.000714943 0.000230664)
(-0.00168501 -0.000740326 0.000215994)
(-0.00174144 -0.000766634 0.000198868)
(-0.00179682 -0.000793008 0.000178024)
(-0.0018515 -0.000818794 0.000152688)
(-0.00190191 -0.000842312 0.000120729)
(-0.00194549 -0.000862255 7.89799e-05)
(-0.00197143 -0.000874517 2.76382e-05)
(-0.000281647 -7.72164e-05 1.25887e-05)
(-0.000340417 -0.000123765 -4.83104e-05)
(-0.000370703 -0.000178928 -5.06903e-05)
(-0.000421174 -0.000248625 -3.52021e-05)
(-0.000504481 -0.000327309 -7.44242e-06)
(-0.000617792 -0.000406518 2.976e-05)
(-0.000749459 -0.000475583 7.53284e-05)
(-0.000885767 -0.000526126 0.000124207)
(-0.00101653 -0.000557007 0.000169652)
(-0.00113432 -0.000572353 0.000205973)
(-0.00123587 -0.000579348 0.000230465)
(-0.00132125 -0.000584621 0.0002435)
(-0.00139374 -0.000592626 0.000247501)
(-0.00145782 -0.000605003 0.000245291)
(-0.00151692 -0.000621175 0.000239014)
(-0.00157414 -0.000640638 0.000230154)
(-0.00163081 -0.00066234 0.000219319)
(-0.00168706 -0.000685514 0.000206185)
(-0.00174312 -0.000709583 0.000190495)
(-0.00179764 -0.000733737 0.000170978)
(-0.00185117 -0.000757242 0.000146953)
(-0.00190031 -0.000778676 0.000116412)
(-0.00194289 -0.000796882 7.62253e-05)
(-0.0019679 -0.000807956 2.66918e-05)
(-0.000245182 -5.07752e-05 1.88199e-05)
(-0.000304698 -9.44663e-05 -4.73414e-05)
(-0.000328334 -0.000139599 -5.07449e-05)
(-0.00036785 -0.000199121 -4.12206e-05)
(-0.000442049 -0.000270575 -2.18917e-05)
(-0.000551711 -0.000347985 6.89966e-06)
(-0.000684217 -0.000419105 4.59373e-05)
(-0.000826028 -0.000474031 9.13705e-05)
(-0.000964343 -0.000508883 0.00013629)
(-0.00109104 -0.000527029 0.000174423)
(-0.00120112 -0.000535017 0.000202013)
(-0.0012942 -0.000539868 0.00021859)
(-0.00137317 -0.000546516 0.000225997)
(-0.00144191 -0.000556842 0.000226733)
(-0.00150441 -0.000570818 0.000223014)
(-0.00156368 -0.000588009 0.000216346)
(-0.00162117 -0.000607381 0.000207427)
(-0.00167722 -0.000628216 0.00019596)
(-0.00173235 -0.000649908 0.000181786)
(-0.00178518 -0.000671663 0.000163629)
(-0.00183717 -0.000692902 0.000140974)
(-0.00188459 -0.000712234 0.000111912)
(-0.00192562 -0.000728656 7.33442e-05)
(-0.00194943 -0.000738545 2.5698e-05)
(-0.000201604 -2.79293e-05 2.34032e-05)
(-0.000259873 -6.74082e-05 -4.51898e-05)
(-0.000278309 -0.000103772 -4.89566e-05)
(-0.000307177 -0.000152736 -4.40368e-05)
(-0.000369512 -0.000214677 -3.29031e-05)
(-0.000471207 -0.000287014 -1.35889e-05)
(-0.00060456 -0.000360111 1.72619e-05)
(-0.000751242 -0.000419451 5.76415e-05)
(-0.000897884 -0.000459201 0.000101101)
(-0.00103346 -0.000480462 0.00014051)
(-0.00115267 -0.000489793 0.000171185)
(-0.00125408 -0.000494351 0.000191579)
(-0.00133971 -0.000499445 0.000202725)
(-0.00141374 -0.000507691 0.000206843)
(-0.00147963 -0.000519253 0.000205998)
(-0.0015407 -0.000533945 0.000201765)
(-0.00159881 -0.000550889 0.000194974)
(-0.00165429 -0.000569333 0.000185316)
(-0.00170815 -0.000588662 0.000172765)
(-0.00175904 -0.000608132 0.000156053)
(-0.00180891 -0.000627101 0.000134795)
(-0.00185394 -0.000644321 0.000107252)
(-0.00189311 -0.000659045 7.03602e-05)
(-0.00191544 -0.000667761 2.46632e-05)
(-0.000155563 -8.93582e-06 2.65454e-05)
(-0.000211713 -4.35215e-05 -4.25653e-05)
(-0.000225952 -7.26239e-05 -4.70602e-05)
(-0.000239098 -0.00010911 -4.41945e-05)
(-0.000287172 -0.000159693 -3.87171e-05)
(-0.000383187 -0.000227262 -2.95386e-05)
(-0.000512181 -0.000298958 -9.20993e-06)
(-0.000662694 -0.000362858 2.42282e-05)
(-0.000816114 -0.000407552 6.47092e-05)
(-0.000961166 -0.000432983 0.000104707)
(-0.00108992 -0.000444255 0.000138235)
(-0.00119992 -0.000448727 0.000162538)
(-0.00129296 -0.000452452 0.000177784)
(-0.00137216 -0.000458391 0.000185582)
(-0.00144172 -0.000467483 0.000187972)
(-0.00150484 -0.000479678 0.000186492)
(-0.00156331 -0.000494122 0.000182037)
(-0.00161776 -0.000510154 0.00017432)
(-0.00166968 -0.000527085 0.000163458)
(-0.00171767 -0.000544214 0.000148206)
(-0.00176473 -0.00056095 0.000128368)
(-0.00180706 -0.000576208 0.000102418)
(-0.00184368 -0.000589262 6.72474e-05)
(-0.00186422 -0.000596848 2.35756e-05)
(-0.000105167 4.05567e-06 2.75338e-05)
(-0.000155203 -2.30497e-05 -3.54487e-05)
(-0.000170026 -4.42895e-05 -3.53548e-05)
(-0.000195235 -7.10863e-05 -3.60593e-05)
(-0.000224621 -0.000107597 -4.49277e-05)
(-0.000283829 -0.000162254 -4.51836e-05)
(-0.000407928 -0.000236122 -3.23985e-05)
(-0.000559283 -0.000303086 -7.43936e-06)
(-0.000720758 -0.000354518 2.85372e-05)
(-0.000874748 -0.000384883 6.79086e-05)
(-0.00101291 -0.000398863 0.000103694)
(-0.00113184 -0.000403829 0.000131813)
(-0.00123192 -0.00040623 0.000151243)
(-0.00131696 -0.000410095 0.000163076)
(-0.00139011 -0.000416633 0.000168989)
(-0.00145475 -0.000426164 0.000170475)
(-0.00151329 -0.000438108 0.000168574)
(-0.00156628 -0.000451786 0.000162933)
(-0.0016159 -0.000466459 0.000153856)
(-0.00166071 -0.000481479 0.000140135)
(-0.00170468 -0.00049619 0.000121757)
(-0.00174336 -0.000509486 9.74206e-05)
(-0.00177715 -0.000521089 6.4029e-05)
(-0.00179566 -0.000527625 2.244e-05)
(-6.49397e-05 1.20462e-05 3.35861e-05)
(-0.00011185 -6.99123e-06 -3.19726e-05)
(-0.000140948 -3.3528e-05 -5.62275e-05)
(-0.000100391 -6.21787e-05 -4.71751e-05)
(-0.000120763 -8.53824e-05 -2.26066e-05)
(-0.000213924 -0.000116357 -2.94694e-05)
(-0.000299328 -0.000168882 -4.73634e-05)
(-0.00044733 -0.000241892 -3.4625e-05)
(-0.000611329 -0.0002985 -5.7812e-06)
(-0.000773671 -0.000335407 3.13557e-05)
(-0.000921236 -0.000353464 6.83542e-05)
(-0.00104882 -0.000359758 9.97879e-05)
(-0.00115679 -0.000361663 0.000123436)
(-0.00124709 -0.000363519 0.000139376)
(-0.00132396 -0.000367665 0.000149076)
(-0.00139054 -0.000374763 0.000153842)
(-0.00144884 -0.000384278 0.000154693)
(-0.00149978 -0.000395704 0.000151233)
(-0.0015463 -0.000408192 0.00014398)
(-0.00158689 -0.000421174 0.000131787)
(-0.0016266 -0.000433866 0.000114841)
(-0.00166158 -0.000445504 9.22201e-05)
(-0.00169168 -0.000455747 6.0653e-05)
(-0.00170781 -0.00046127 2.12318e-05)
(-1.61282e-05 1.45276e-05 2.44293e-05)
(-4.82703e-05 1.96382e-05 -5.96838e-05)
(-2.98428e-05 -5.47934e-05 -8.82597e-05)
(-4.03085e-05 -5.22202e-05 -1.71546e-05)
(-4.38426e-05 -3.87377e-05 -2.89518e-05)
(-7.85642e-05 -8.73539e-05 -2.43366e-05)
(-0.000195164 -0.000116731 -2.08636e-05)
(-0.000324638 -0.000172025 -5.10161e-05)
(-0.000492801 -0.000240681 -3.50544e-05)
(-0.00066085 -0.000284582 -2.85564e-06)
(-0.00081651 -0.000308149 3.35962e-05)
(-0.000952619 -0.000317103 6.73879e-05)
(-0.00106692 -0.000318986 9.47218e-05)
(-0.00116314 -0.000319624 0.000114797)
(-0.00124345 -0.00032163 0.000128401)
(-0.00131089 -0.000326269 0.000136539)
(-0.00136849 -0.000333516 0.000140313)
(-0.00141689 -0.000342911 0.000139138)
(-0.00145995 -0.000353456 0.000133775)
(-0.00149603 -0.000364716 0.000123163)
(-0.00153176 -0.000375815 0.000107711)
(-0.00156191 -0.000385797 8.68252e-05)
(-0.00158814 -0.000395016 5.71475e-05)
(-0.00160182 -0.000399628 1.99565e-05)
(1.54392e-05 9.80857e-06 7.02105e-06)
(-1.06248e-05 -7.7651e-06 -2.53822e-05)
(3.51473e-06 -4.71314e-06 -1.17258e-05)
(-2.72962e-05 -2.88032e-07 -1.47422e-05)
(-5.24433e-05 -1.08699e-05 -4.87444e-05)
(-4.4447e-05 -4.9655e-05 -3.95673e-05)
(-7.37243e-05 -5.69898e-05 -2.11867e-05)
(-0.000214049 -0.000113295 -5.06006e-05)
(-0.00036404 -0.000176985 -5.56505e-05)
(-0.000537389 -0.000232173 -3.19118e-05)
(-0.000699292 -0.000262062 1.06399e-06)
(-0.000842154 -0.000274952 3.55625e-05)
(-0.000963902 -0.000278667 6.58684e-05)
(-0.00106448 -0.000278595 8.95995e-05)
(-0.00114793 -0.000279029 0.000107076)
(-0.00121694 -0.000281832 0.00011879)
(-0.00127343 -0.000287112 0.000125611)
(-0.0013185 -0.000294713 0.000126753)
(-0.00135727 -0.000303486 0.000123263)
(-0.00138775 -0.000313164 0.0001142)
(-0.0014178 -0.000322605 0.000100157)
(-0.00144317 -0.000331219 8.11375e-05)
(-0.0014646 -0.000339583 5.34147e-05)
(-0.00147536 -0.00034324 1.85648e-05)
(3.17383e-05 2.91299e-06 1.28565e-05)
(2.89514e-05 -1.72506e-05 2.97376e-05)
(-2.25871e-05 4.47487e-05 2.95321e-05)
(-7.4999e-06 1.54478e-05 -4.12985e-05)
(-1.83316e-05 -1.03458e-05 -1.98315e-05)
(-3.47278e-05 -2.84248e-06 -3.5155e-05)
(-2.23385e-05 -1.83348e-05 -2.68047e-05)
(-7.21781e-05 -5.06177e-05 -3.03394e-05)
(-0.000243131 -0.000117614 -5.64215e-05)
(-0.000402159 -0.00017388 -5.35424e-05)
(-0.000571795 -0.000214969 -2.65912e-05)
(-0.000722171 -0.000233724 5.98988e-06)
(-0.00084736 -0.000239974 3.76762e-05)
(-0.000953006 -0.000240819 6.44156e-05)
(-0.00103908 -0.000240445 8.54811e-05)
(-0.00110758 -0.000241603 0.000100578)
(-0.0011622 -0.000245292 0.000110465)
(-0.00120344 -0.000251505 0.000113933)
(-0.00123762 -0.000258825 0.000112313)
(-0.0012624 -0.000267263 0.000104833)
(-0.00128767 -0.000275577 9.22868e-05)
(-0.00130767 -0.00028287 7.52036e-05)
(-0.00132402 -0.00029071 4.95013e-05)
(-0.00133242 -0.000293567 1.70726e-05)
(4.07477e-05 1.07412e-05 2.39404e-05)
(4.71689e-05 6.31497e-06 -8.32556e-06)
(2.81876e-05 -1.27712e-05 -1.58564e-05)
(3.87565e-05 -1.56586e-05 -2.0865e-05)
(2.65723e-05 -2.21834e-05 -1.11061e-05)
(-4.67078e-06 -6.16045e-06 -2.19657e-05)
(-1.18914e-05 -1.91262e-05 -3.53874e-05)
(-2.22612e-05 -2.2132e-05 -2.06638e-05)
(-0.000110431 -5.89196e-05 -3.7435e-05)
(-0.000287823 -0.000113408 -5.86772e-05)
(-0.000440457 -0.000164032 -5.04912e-05)
(-0.000590503 -0.000191224 -2.00719e-05)
(-0.000721729 -0.000203137 1.15569e-05)
(-0.000829158 -0.00020562 3.98545e-05)
(-0.000916683 -0.000205457 6.38997e-05)
(-0.00098591 -0.000206105 8.23043e-05)
(-0.00103818 -0.000208799 9.51953e-05)
(-0.00107455 -0.000213966 0.000100852)
(-0.00110328 -0.000220016 0.000100977)
(-0.00112128 -0.00022732 9.49939e-05)
(-0.00113985 -0.000234327 8.38097e-05)
(-0.00115388 -0.000240224 6.8797e-05)
(-0.00116469 -0.000247772 4.52429e-05)
(-0.00116964 -0.000249517 1.53826e-05)
(5.53641e-05 1.37157e-05 3.25967e-05)
(7.06652e-05 7.60038e-06 -1.22646e-05)
(7.43176e-05 2.21206e-07 -2.07126e-05)
(7.28086e-05 -1.06695e-05 -2.44729e-05)
(6.47441e-05 -2.10509e-05 -2.35826e-05)
(4.23711e-05 -3.03108e-05 -1.82417e-05)
(2.23192e-05 -1.85903e-05 -1.49635e-05)
(-1.56647e-05 -9.25525e-06 -2.95665e-05)
(-3.73024e-05 -1.7339e-05 -2.93445e-05)
(-0.000148077 -6.99588e-05 -5.04758e-05)
(-0.000307553 -0.000116329 -5.48137e-05)
(-0.000460399 -0.000149066 -3.95484e-05)
(-0.000586584 -0.000166169 -1.14076e-05)
(-0.000696639 -0.0001727 1.6965e-05)
(-0.000785 -0.000173944 4.30246e-05)
(-0.000851228 -0.000174324 6.40262e-05)
(-0.000899835 -0.000176577 7.96171e-05)
(-0.00093096 -0.000181257 8.7266e-05)
(-0.000954257 -0.000186331 8.90114e-05)
(-0.000965884 -0.000192775 8.45396e-05)
(-0.000979242 -0.000198944 7.48255e-05)
(-0.000988781 -0.000203643 6.21043e-05)
(-0.00099297 -0.000210805 4.0727e-05)
(-0.000996958 -0.00021202 1.35546e-05)
(6.73471e-05 1.39317e-05 3.67731e-05)
(8.84581e-05 8.28528e-06 -1.17286e-05)
(9.70838e-05 6.58289e-07 -2.15148e-05)
(9.89971e-05 -1.077e-05 -2.64342e-05)
(9.44784e-05 -2.20749e-05 -2.77268e-05)
(8.27567e-05 -3.03212e-05 -2.57754e-05)
(6.16934e-05 -3.17805e-05 -2.09041e-05)
(2.83514e-05 -2.47747e-05 -2.43412e-05)
(-2.78262e-05 -1.68097e-05 -4.26085e-05)
(-6.52769e-05 -4.42089e-05 -4.05332e-05)
(-0.000182646 -7.2093e-05 -4.20591e-05)
(-0.000317084 -0.000101604 -4.89343e-05)
(-0.00045096 -0.000130168 -2.84723e-05)
(-0.000558112 -0.000140675 -3.30638e-06)
(-0.000644392 -0.00014443 2.33941e-05)
(-0.000710009 -0.000146072 4.64318e-05)
(-0.000754553 -0.000148635 6.43114e-05)
(-0.00077921 -0.00015319 7.3525e-05)
(-0.000796219 -0.000157318 7.65716e-05)
(-0.000800537 -0.000162839 7.34382e-05)
(-0.000807022 -0.00016779 6.5022e-05)
(-0.00080943 -0.000170416 5.46603e-05)
(-0.000808101 -0.000177067 3.57065e-05)
(-0.000807978 -0.000177219 1.14003e-05)
(7.36896e-05 1.32513e-05 3.8335e-05)
(9.76975e-05 7.80074e-06 -1.0874e-05)
(0.000109446 1.2803e-06 -2.12089e-05)
(0.000114271 -1.01312e-05 -2.70136e-05)
(0.000112783 -2.23047e-05 -2.88616e-05)
(0.000105231 -3.23601e-05 -2.69404e-05)
(9.09138e-05 -3.84355e-05 -2.25484e-05)
(6.62666e-05 -3.24537e-05 -1.5359e-05)
(1.08746e-05 -2.80017e-05 -2.48361e-05)
(-3.9618e-05 -1.54549e-05 -3.49691e-05)
(-7.53453e-05 -2.91592e-05 -2.76125e-05)
(-0.000216535 -5.36197e-05 -4.45876e-05)
(-0.000314605 -9.08242e-05 -4.21755e-05)
(-0.000418955 -0.000109715 -1.95409e-05)
(-0.000503314 -0.000116524 6.00782e-06)
(-0.000561595 -0.000118835 2.96508e-05)
(-0.000600079 -0.000122263 4.8989e-05)
(-0.000618099 -0.000127234 5.91976e-05)
(-0.00062972 -0.000130513 6.32657e-05)
(-0.000628159 -0.000135375 6.14682e-05)
(-0.000629939 -0.000139353 5.45367e-05)
(-0.000631223 -0.000140309 4.70199e-05)
(-0.000621719 -0.000145992 3.03839e-05)
(-0.00062456 -0.000146353 9.14851e-06)
(7.26633e-05 1.10265e-05 3.74158e-05)
(9.85045e-05 6.20457e-06 -9.34047e-06)
(0.000111092 8.30321e-07 -1.97811e-05)
(0.00011834 -9.66625e-06 -2.62094e-05)
(0.000119722 -2.20847e-05 -2.8682e-05)
(0.000115313 -3.35194e-05 -2.70677e-05)
(0.000104768 -4.189e-05 -2.1504e-05)
(8.65972e-05 -4.40283e-05 -1.15231e-05)
(5.07191e-05 -3.31722e-05 3.71647e-06)
(-2.3015e-05 4.92786e-06 -2.33353e-05)
(-4.59182e-05 -1.20521e-05 -3.81327e-05)
(-9.44145e-05 -3.58686e-05 -3.23515e-05)
(-0.000194482 -5.67695e-05 -3.7228e-05)
(-0.000285207 -7.74622e-05 -3.11977e-05)
(-0.0003627 -8.88859e-05 -8.28566e-06)
(-0.000419358 -9.33563e-05 1.47964e-05)
(-0.00045089 -9.716e-05 3.46543e-05)
(-0.000462079 -0.000103511 4.51538e-05)
(-0.000467212 -0.000105734 4.96346e-05)
(-0.00045919 -0.00010936 4.88434e-05)
(-0.000455146 -0.000111781 4.31598e-05)
(-0.000448508 -0.000110052 3.82722e-05)
(-0.000426217 -0.00010421 2.4402e-05)
(-0.000431628 -0.000113919 6.41008e-06)
(6.55682e-05 7.85207e-06 3.40049e-05)
(9.22312e-05 3.96799e-06 -6.79165e-06)
(0.000105435 -3.96522e-07 -1.66955e-05)
(0.000113692 -9.14018e-06 -2.34169e-05)
(0.000118012 -2.05998e-05 -2.69593e-05)
(0.000117071 -3.23628e-05 -2.67371e-05)
(0.000110665 -4.18876e-05 -2.27273e-05)
(9.71844e-05 -4.69245e-05 -1.52084e-05)
(7.14899e-05 -4.128e-05 -3.25588e-06)
(1.75972e-05 -2.54994e-05 -1.24936e-05)
(-2.4853e-05 -1.66858e-05 -4.06448e-05)
(-3.89366e-05 -2.67397e-05 -3.4427e-05)
(-8.86624e-05 -2.96441e-05 -2.43944e-05)
(-0.000167471 -4.57557e-05 -3.38543e-05)
(-0.000233735 -6.13328e-05 -1.92786e-05)
(-0.000274576 -6.50602e-05 2.05514e-06)
(-0.000299818 -6.58927e-05 2.09272e-05)
(-0.000303138 -7.75595e-05 3.03575e-05)
(-0.000303986 -7.78566e-05 3.51019e-05)
(-0.000294191 -8.22378e-05 3.51923e-05)
(-0.000286847 -8.11105e-05 3.12935e-05)
(-0.000284878 -7.65234e-05 3.07435e-05)
(-0.000324762 -5.15898e-05 1.86389e-05)
(-0.000270381 -7.83104e-05 3.5592e-06)
(5.60689e-05 4.6247e-06 2.95451e-05)
(8.2131e-05 1.21368e-06 -4.46712e-06)
(9.53002e-05 -2.44804e-06 -1.30027e-05)
(0.0001041 -9.71153e-06 -1.91603e-05)
(0.000109896 -1.9275e-05 -2.3188e-05)
(0.00011251 -3.02498e-05 -2.44799e-05)
(0.000110508 -4.02901e-05 -2.25545e-05)
(0.000102617 -4.71278e-05 -1.76643e-05)
(8.56356e-05 -4.76694e-05 -1.05506e-05)
(5.04936e-05 -3.99865e-05 -8.44558e-06)
(2.18278e-05 -2.96131e-05 -9.94078e-06)
(-3.49372e-05 1.60341e-05 -3.76691e-05)
(-3.44588e-05 -1.02333e-05 -3.15095e-05)
(-6.48167e-05 -2.08151e-05 -2.27718e-05)
(-0.000127688 -3.31549e-05 -2.11218e-05)
(-0.000174841 -3.12451e-05 -7.2888e-06)
(-0.000218422 -3.46004e-05 8.57856e-06)
(-0.000180604 -5.11167e-05 1.86109e-05)
(-0.000182825 -4.60391e-05 2.19062e-05)
(-0.000159571 -5.21522e-05 2.22757e-05)
(-0.000163369 -4.99298e-05 2.08167e-05)
(-0.000154955 -4.24242e-05 1.5412e-05)
(-0.000169162 -0.000121658 9.25936e-06)
(-0.000133451 -4.30107e-05 6.67412e-06)
(4.64766e-05 2.48723e-06 2.54365e-05)
(7.07207e-05 -1.05103e-06 -3.16512e-06)
(8.30683e-05 -4.66685e-06 -1.00544e-05)
(9.17655e-05 -1.0933e-05 -1.50156e-05)
(9.82717e-05 -1.89683e-05 -1.86551e-05)
(0.000103157 -2.82196e-05 -2.06599e-05)
(0.000105233 -3.75977e-05 -2.05329e-05)
(0.00010277 -4.51273e-05 -1.83329e-05)
(9.32175e-05 -4.88229e-05 -1.43275e-05)
(7.13632e-05 -4.82949e-05 -1.17762e-05)
(4.36168e-05 -3.50918e-05 -7.19673e-06)
(-9.12675e-06 -1.38834e-05 -1.79661e-05)
(-2.44433e-05 7.29613e-07 -4.6323e-05)
(-2.00656e-05 -7.93561e-06 -2.02108e-05)
(-3.00721e-05 -9.2304e-06 -1.31758e-05)
(-6.64067e-05 -2.24038e-05 -1.77866e-05)
(-9.31804e-05 -7.8955e-05 -7.05605e-07)
(-4.83919e-05 -1.87691e-05 7.25944e-06)
(-5.96656e-05 -2.89638e-05 6.51456e-06)
(-3.79136e-05 -1.62065e-05 6.31746e-06)
(-3.39094e-05 -2.49176e-05 4.65894e-06)
(-4.84698e-05 -2.30212e-05 -3.42716e-07)
(-6.56011e-05 -0.000111061 6.72785e-06)
(-2.42519e-05 -1.67311e-05 5.95686e-06)
(3.72554e-05 1.20844e-06 2.14932e-05)
(5.91112e-05 -2.72899e-06 -2.69783e-06)
(7.02622e-05 -6.7282e-06 -8.06669e-06)
(7.85068e-05 -1.25911e-05 -1.16934e-05)
(8.52853e-05 -1.96345e-05 -1.43944e-05)
(9.13271e-05 -2.73377e-05 -1.6247e-05)
(9.63266e-05 -3.53289e-05 -1.70216e-05)
(9.82553e-05 -4.23817e-05 -1.66229e-05)
(9.5198e-05 -4.75991e-05 -1.52685e-05)
(8.33057e-05 -5.00383e-05 -1.36629e-05)
(6.28674e-05 -4.54175e-05 -1.31315e-05)
(2.18355e-05 -3.43143e-05 -1.52465e-05)
(-1.1416e-06 -1.25576e-05 -3.05587e-05)
(-1.29433e-05 -6.82136e-06 -4.16435e-05)
(-1.46418e-05 -8.99446e-06 -1.96509e-05)
(-3.36949e-05 -2.55425e-05 -2.44778e-05)
(-4.3738e-05 -4.11756e-05 -5.89936e-06)
(-1.96757e-05 -2.25977e-05 4.99697e-07)
(-2.3403e-05 -3.2301e-05 2.37388e-06)
(-2.05309e-05 -3.43506e-05 7.63444e-06)
(-2.39212e-05 -3.93514e-05 4.99955e-06)
(-1.70934e-05 -1.8257e-05 -2.20956e-06)
(-6.17969e-06 -3.72465e-05 7.38482e-06)
(-1.23073e-05 -2.65536e-05 1.26461e-05)
(2.98691e-05 2.9897e-07 1.80177e-05)
(4.90461e-05 -4.23818e-06 -2.76959e-06)
(5.88183e-05 -8.8287e-06 -6.8611e-06)
(6.63897e-05 -1.46712e-05 -9.27234e-06)
(7.31255e-05 -2.11728e-05 -1.09318e-05)
(7.97053e-05 -2.78278e-05 -1.22107e-05)
(8.60102e-05 -3.4303e-05 -1.31552e-05)
(9.07018e-05 -4.02705e-05 -1.37095e-05)
(9.2089e-05 -4.52715e-05 -1.39746e-05)
(8.77676e-05 -4.91752e-05 -1.4244e-05)
(7.51164e-05 -4.91235e-05 -1.51519e-05)
(4.98254e-05 -4.51525e-05 -1.82733e-05)
(2.2512e-05 -2.93799e-05 -2.55934e-05)
(7.57819e-06 -1.65302e-05 -3.54583e-05)
(-1.8861e-06 -1.31798e-05 -3.23924e-05)
(-1.37786e-05 -9.57674e-07 -2.44927e-05)