/*--------------------------------*- C++ -*----------------------------------*\
  =========                 |
  \\      /  F ield         | OpenFOAM: The Open Source CFD Toolbox
   \\    /   O peration     | Website:  https://openfoam.org
    \\  /    A nd           | Version:  6
     \\/     M anipulation  |
\*---------------------------------------------------------------------------*/
FoamFile
{
    version     2.0;
    format      ascii;
    class       volScalarField;
    location    "20";
    object      nut;
}
// * * * * * * * * * * * * * * * * * * * * * * * * * * * * * * * * * * * * * //

dimensions      [0 2 -1 0 0 0 0];

internalField   nonuniform List<scalar> 
720
(
4.34042e-07
4.34086e-07
4.34053e-07
5.50009e-07
5.50092e-07
5.50049e-07
6.70427e-07
6.70546e-07
6.70514e-07
7.6281e-07
7.6292e-07
7.62912e-07
8.11447e-07
8.11536e-07
8.11511e-07
8.11352e-07
8.1144e-07
8.11415e-07
7.62452e-07
7.62563e-07
7.62555e-07
6.69752e-07
6.69871e-07
6.69839e-07
5.49194e-07
5.49276e-07
5.49233e-07
4.33265e-07
4.33309e-07
4.33276e-07
3.95731e-06
3.95736e-06
3.95732e-06
4.06009e-06
4.06016e-06
4.06012e-06
4.13787e-06
4.13794e-06
4.13792e-06
4.18695e-06
4.18701e-06
4.187e-06
4.21075e-06
4.21079e-06
4.21077e-06
4.21071e-06
4.21075e-06
4.21074e-06
4.18678e-06
4.18684e-06
4.18683e-06
4.13749e-06
4.13756e-06
4.13754e-06
4.0595e-06
4.05956e-06
4.05952e-06
3.9565e-06
3.95655e-06
3.95651e-06
8.72867e-06
8.7288e-06
8.7287e-06
8.93031e-06
8.93047e-06
8.93038e-06
9.09029e-06
9.09046e-06
9.0904e-06
9.19484e-06
9.19496e-06
9.19494e-06
9.24648e-06
9.24656e-06
9.24652e-06
9.24641e-06
9.24648e-06
9.24644e-06
9.19449e-06
9.1946e-06
9.19458e-06
9.08951e-06
9.08968e-06
9.08962e-06
8.92912e-06
8.92928e-06
8.92919e-06
8.72715e-06
8.72728e-06
8.72718e-06
1.47881e-05
1.47884e-05
1.47882e-05
1.50886e-05
1.50889e-05
1.50888e-05
1.53272e-05
1.53275e-05
1.53274e-05
1.54859e-05
1.5486e-05
1.5486e-05
1.55657e-05
1.55659e-05
1.55658e-05
1.55656e-05
1.55658e-05
1.55657e-05
1.54853e-05
1.54855e-05
1.54855e-05
1.53261e-05
1.53264e-05
1.53263e-05
1.50869e-05
1.50872e-05
1.5087e-05
1.47859e-05
1.47862e-05
1.4786e-05
2.20528e-05
2.20533e-05
2.2053e-05
2.24686e-05
2.24692e-05
2.24689e-05
2.27996e-05
2.28002e-05
2.28e-05
2.30243e-05
2.30246e-05
2.30246e-05
2.31397e-05
2.31399e-05
2.31398e-05
2.31396e-05
2.31398e-05
2.31397e-05
2.30236e-05
2.30239e-05
2.30239e-05
2.27981e-05
2.27986e-05
2.27984e-05
2.24662e-05
2.24668e-05
2.24665e-05
2.20498e-05
2.20503e-05
2.205e-05
3.056e-05
3.05609e-05
3.05604e-05
3.1111e-05
3.1112e-05
3.11115e-05
3.15518e-05
3.15527e-05
3.15524e-05
3.18578e-05
3.18583e-05
3.18582e-05
3.2018e-05
3.20184e-05
3.20182e-05
3.20179e-05
3.20182e-05
3.2018e-05
3.18568e-05
3.18574e-05
3.18573e-05
3.15497e-05
3.15507e-05
3.15504e-05
3.11079e-05
3.11089e-05
3.11084e-05
3.05562e-05
3.05571e-05
3.05566e-05
4.03931e-05
4.03944e-05
4.03937e-05
4.11017e-05
4.11033e-05
4.11026e-05
4.16721e-05
4.16737e-05
4.16731e-05
4.20771e-05
4.2078e-05
4.20779e-05
4.22935e-05
4.22941e-05
4.22938e-05
4.22934e-05
4.22939e-05
4.22936e-05
4.20759e-05
4.20768e-05
4.20767e-05
4.16695e-05
4.1671e-05
4.16705e-05
4.10978e-05
4.10994e-05
4.10987e-05
4.03884e-05
4.03897e-05
4.03889e-05
5.16577e-05
5.16596e-05
5.16586e-05
5.25489e-05
5.25513e-05
5.25503e-05
5.32707e-05
5.3273e-05
5.32722e-05
5.37943e-05
5.37958e-05
5.37956e-05
5.40806e-05
5.40815e-05
5.4081e-05
5.40804e-05
5.40813e-05
5.40809e-05
5.37929e-05
5.37943e-05
5.37941e-05
5.32674e-05
5.32697e-05
5.32689e-05
5.25441e-05
5.25465e-05
5.25455e-05
5.16519e-05
5.16538e-05
5.16528e-05
6.44702e-05
6.44728e-05
6.44713e-05
6.55709e-05
6.55742e-05
6.55727e-05
6.64665e-05
6.64697e-05
6.64687e-05
6.71296e-05
6.71318e-05
6.71315e-05
6.75021e-05
6.75036e-05
6.75029e-05
6.75021e-05
6.75035e-05
6.75028e-05
6.71278e-05
6.71301e-05
6.71297e-05
6.64624e-05
6.64657e-05
6.64647e-05
6.55651e-05
6.55684e-05
6.55669e-05
6.44633e-05
6.44658e-05
6.44644e-05
7.89493e-05
7.89524e-05
7.89504e-05
8.0287e-05
8.02912e-05
8.02892e-05
8.13779e-05
8.13822e-05
8.13808e-05
8.22009e-05
8.2204e-05
8.22036e-05
8.26799e-05
8.2682e-05
8.2681e-05
8.268e-05
8.26821e-05
8.26811e-05
8.2199e-05
8.22022e-05
8.22017e-05
8.13731e-05
8.13775e-05
8.13761e-05
8.02801e-05
8.02843e-05
8.02823e-05
7.8941e-05
7.89441e-05
7.89421e-05
9.52088e-05
9.52123e-05
9.52097e-05
9.68099e-05
9.68148e-05
9.68122e-05
9.81138e-05
9.81193e-05
9.81174e-05
9.91146e-05
9.91189e-05
9.91181e-05
9.97245e-05
9.97274e-05
9.97259e-05
9.97249e-05
9.97278e-05
9.97263e-05
9.91128e-05
9.91171e-05
9.91163e-05
9.81083e-05
9.81138e-05
9.81119e-05
9.68018e-05
9.68068e-05
9.68041e-05
9.5199e-05
9.52024e-05
9.51998e-05
0.000113352
0.000113355
0.000113352
0.000115238
0.000115243
0.000115239
0.000116765
0.000116771
0.000116768
0.000117955
0.000117961
0.00011796
0.000118725
0.000118729
0.000118727
0.000118726
0.00011873
0.000118728
0.000117954
0.00011796
0.000117958
0.000116759
0.000116765
0.000116762
0.000115229
0.000115234
0.00011523
0.00011334
0.000113343
0.00011334
0.000133465
0.000133467
0.000133462
0.000135646
0.000135651
0.000135646
0.000137392
0.000137399
0.000137395
0.000138776
0.000138783
0.000138781
0.000139741
0.000139745
0.000139742
0.000139743
0.000139747
0.000139744
0.000138776
0.000138783
0.00013878
0.000137386
0.000137393
0.000137389
0.000135636
0.00013564
0.000135636
0.000133451
0.000133453
0.000133448
0.000155612
0.000155611
0.000155604
0.000158081
0.000158082
0.000158076
0.000160022
0.000160027
0.000160022
0.000161588
0.000161595
0.000161591
0.000162787
0.00016279
0.000162785
0.00016279
0.000162794
0.000162788
0.00016159
0.000161597
0.000161593
0.000160016
0.000160021
0.000160016
0.00015807
0.000158071
0.000158064
0.000155596
0.000155594
0.000155588
0.000179831
0.000179823
0.000179814
0.000182546
0.000182542
0.000182533
0.00018463
0.000184632
0.000184624
0.000186351
0.000186356
0.00018635
0.000187824
0.000187825
0.000187817
0.00018783
0.000187831
0.000187823
0.000186357
0.000186361
0.000186355
0.000184625
0.000184627
0.000184619
0.000182534
0.00018253
0.000182521
0.000179812
0.000179804
0.000179794
0.000206124
0.000206104
0.000206091
0.000208996
0.000208981
0.000208967
0.000211134
0.000211128
0.000211116
0.000212962
0.00021296
0.00021295
0.000214749
0.000214743
0.00021473
0.000214758
0.000214752
0.000214739
0.000212972
0.00021297
0.00021296
0.000211131
0.000211125
0.000211113
0.000208984
0.000208968
0.000208955
0.0002061
0.00020608
0.000206067
0.000234435
0.000234396
0.000234377
0.000237306
0.000237271
0.000237252
0.000239369
0.000239346
0.000239328
0.000241233
0.000241219
0.000241202
0.000243363
0.000243344
0.000243323
0.000243377
0.000243357
0.000243336
0.000241249
0.000241234
0.000241217
0.000239368
0.000239346
0.000239328
0.000237293
0.000237258
0.000237239
0.000234404
0.000234365
0.000234346
0.000264591
0.000264522
0.000264497
0.00026721
0.000267145
0.000267118
0.000269029
0.00026898
0.000268952
0.000270846
0.000270807
0.00027078
0.000273328
0.000273283
0.000273252
0.000273345
0.0002733
0.00027327
0.000270869
0.000270829
0.000270802
0.000269032
0.000268983
0.000268955
0.000267197
0.000267132
0.000267104
0.00026455
0.00026448
0.000264455
0.000296155
0.000296043
0.00029601
0.000298161
0.000298051
0.000298015
0.000299539
0.000299447
0.000299409
0.00030122
0.00030114
0.000301101
0.000304027
0.000303941
0.000303898
0.000304049
0.000303962
0.000303919
0.000301249
0.000301169
0.00030113
0.000299545
0.000299453
0.000299415
0.000298145
0.000298036
0.000297999
0.000296098
0.000295987
0.000295953
0.00032811
0.000327947
0.000327906
0.000329015
0.000328849
0.000328802
0.000329759
0.000329609
0.000329559
0.000331235
0.000331096
0.000331043
0.000334293
0.000334148
0.000334091
0.000334318
0.000334172
0.000334115
0.000331269
0.000331129
0.000331077
0.000329767
0.000329616
0.000329566
0.000328994
0.000328828
0.000328782
0.000328033
0.00032787
0.000327828
0.000358344
0.000358134
0.000358085
0.00035749
0.000357267
0.000357212
0.000357438
0.000357223
0.000357163
0.000358699
0.00035849
0.000358425
0.000361881
0.000361665
0.000361597
0.000361904
0.000361688
0.00036162
0.000358731
0.000358521
0.000358457
0.000357442
0.000357227
0.000357167
0.00035746
0.000357237
0.000357182
0.00035824
0.00035803
0.00035798
0.000383184
0.000382958
0.000382902
0.000379596
0.000379346
0.000379284
0.000378571
0.000378312
0.000378244
0.000379686
0.000379424
0.000379351
0.000382821
0.000382553
0.000382476
0.000382838
0.00038257
0.000382493
0.000379707
0.000379445
0.000379372
0.000378564
0.000378305
0.000378238
0.00037955
0.0003793
0.000379238
0.00038305
0.000382824
0.000382768
0.000398252
0.000398067
0.000398004
0.000390503
0.000390289
0.000390222
0.000388069
0.000387832
0.000387759
0.000389099
0.000388847
0.000388769
0.000392002
0.000391742
0.000391662
0.000392006
0.000391746
0.000391666
0.000389098
0.000388846
0.000388768
0.000388045
0.000387807
0.000387735
0.000390438
0.000390225
0.000390158
0.000398097
0.000397912
0.000397849
0.000402723
0.000402607
0.00040254
0.000390299
0.000390165
0.000390093
0.000385992
0.000385829
0.000385754
0.000386808
0.000386624
0.000386544
0.000389379
0.000389189
0.000389106
0.000389368
0.000389178
0.000389095
0.000386782
0.000386599
0.000386519
0.00038595
0.000385787
0.000385712
0.000390222
0.000390089
0.000390018
0.00040256
0.000402444
0.000402378
)
;

boundaryField
{
    freeSurface
    {
        type            slip;
    }
    inlet
    {
        type            cyclic;
    }
    outlet
    {
        type            cyclic;
    }
    sidewalls
    {
        type            nutkWallFunction;
        Cmu             0.09;
        kappa           0.41;
        E               9.8;
        value           nonuniform 0();
    }
    noSlipWalls
    {
        type            nutkWallFunction;
        Cmu             0.09;
        kappa           0.41;
        E               9.8;
        value           uniform 0;
    }
    procBoundary1to0
    {
        type            processor;
        value           nonuniform List<scalar> 
72
(
3.38861e-07
3.38893e-07
3.38867e-07
3.83348e-06
3.83353e-06
3.83349e-06
8.49728e-06
8.49743e-06
8.49732e-06
1.44401e-05
1.44404e-05
1.44402e-05
2.15661e-05
2.15667e-05
2.15664e-05
2.99089e-05
2.99099e-05
2.99093e-05
3.95485e-05
3.955e-05
3.95492e-05
5.05886e-05
5.05908e-05
5.05896e-05
6.31452e-05
6.3148e-05
6.31463e-05
7.73398e-05
7.73432e-05
7.7341e-05
9.3295e-05
9.32985e-05
9.32956e-05
0.00011113
0.000111133
0.000111129
0.000130961
0.000130962
0.000130957
0.000152896
0.000152892
0.000152885
0.000177037
0.000177026
0.000177015
0.000203475
0.00020345
0.000203435
0.000232263
0.000232215
0.000232196
0.000263347
0.000263267
0.000263241
0.000296405
0.000296282
0.00029625
0.000330524
0.000330353
0.000330313
0.000363722
0.000363512
0.000363465
0.0003926
0.000392382
0.00039233
0.000413025
0.000412846
0.000412789
0.000422724
0.0004226
0.000422541
)
;
    }
    procBoundary1to2
    {
        type            processor;
        value           nonuniform List<scalar> 
72
(
3.38312e-07
3.38343e-07
3.38317e-07
3.83263e-06
3.83269e-06
3.83264e-06
8.4958e-06
8.49594e-06
8.49583e-06
1.4438e-05
1.44383e-05
1.44381e-05
2.15633e-05
2.15639e-05
2.15636e-05
2.99054e-05
2.99064e-05
2.99058e-05
3.95443e-05
3.95458e-05
3.9545e-05
5.05837e-05
5.05858e-05
5.05846e-05
6.31396e-05
6.31424e-05
6.31407e-05
7.73338e-05
7.73371e-05
7.73349e-05
9.32888e-05
9.32922e-05
9.32893e-05
0.000111125
0.000111127
0.000111123
0.000130956
0.000130957
0.000130952
0.000152893
0.000152889
0.000152882
0.000177038
0.000177027
0.000177017
0.000203482
0.000203457
0.000203442
0.000232278
0.00023223
0.00023221
0.000263372
0.000263291
0.000263266
0.000296439
0.000296316
0.000296284
0.000330563
0.000330392
0.000330353
0.000363755
0.000363545
0.000363499
0.000392609
0.000392393
0.000392341
0.000412992
0.000412814
0.000412759
0.000422652
0.000422529
0.000422471
)
;
    }
}


// ************************************************************************* //
