/*--------------------------------*- C++ -*----------------------------------*\
  =========                 |
  \\      /  F ield         | OpenFOAM: The Open Source CFD Toolbox
   \\    /   O peration     | Website:  https://openfoam.org
    \\  /    A nd           | Version:  6
     \\/     M anipulation  |
\*---------------------------------------------------------------------------*/
FoamFile
{
    version     2.0;
    format      ascii;
    class       volScalarField;
    location    "20";
    object      omega;
}
// * * * * * * * * * * * * * * * * * * * * * * * * * * * * * * * * * * * * * //

dimensions      [0 0 -1 0 0 0 0];

internalField   nonuniform List<scalar> 
720
(
843.917
843.917
843.917
843.917
843.917
843.917
843.917
843.917
843.917
843.917
843.917
843.917
843.917
843.917
843.917
843.917
843.917
843.917
843.917
843.917
843.917
843.917
843.917
843.917
843.917
843.917
843.917
843.917
843.917
843.917
264.654
264.654
264.654
265.195
265.195
265.195
265.349
265.349
265.349
265.314
265.313
265.313
265.268
265.267
265.267
265.268
265.268
265.268
265.314
265.314
265.314
265.349
265.349
265.349
265.193
265.193
265.193
264.648
264.648
264.648
128.103
128.103
128.103
128.92
128.92
128.92
129.467
129.467
129.467
129.753
129.753
129.753
129.87
129.871
129.871
129.87
129.87
129.87
129.752
129.752
129.752
129.464
129.465
129.464
128.915
128.915
128.915
128.096
128.096
128.095
76.8125
76.8123
76.8122
77.471
77.4709
77.4708
77.9356
77.9356
77.9355
78.1873
78.1875
78.1875
78.2918
78.2921
78.292
78.2915
78.2918
78.2917
78.1863
78.1866
78.1865
77.9333
77.9334
77.9333
77.4671
77.467
77.4669
76.8068
76.8066
76.8065
51.5869
51.5866
51.5865
52.0983
52.0981
52.098
52.4637
52.4636
52.4635
52.6602
52.6603
52.6603
52.7407
52.7409
52.7408
52.7405
52.7406
52.7406
52.6595
52.6596
52.6595
52.4619
52.4618
52.4617
52.0953
52.095
52.0949
51.5824
51.5821
51.5821
37.0557
37.0553
37.0553
37.4574
37.457
37.4569
37.7448
37.7445
37.7445
37.8968
37.8968
37.8967
37.9578
37.9579
37.9578
37.9576
37.9577
37.9576
37.8963
37.8963
37.8962
37.7434
37.7431
37.7431
37.455
37.4546
37.4545
37.0522
37.0518
37.0518
27.798
27.7976
27.7976
28.1192
28.1187
28.1187
28.3486
28.3483
28.3482
28.4678
28.4677
28.4677
28.5145
28.5145
28.5143
28.5143
28.5143
28.5142
28.4674
28.4673
28.4672
28.3475
28.3472
28.3471
28.1172
28.1168
28.1168
27.7952
27.7948
27.7948
21.482
21.4816
21.4815
21.7434
21.7429
21.7429
21.9299
21.9295
21.9294
22.0254
22.0252
22.0251
22.0615
22.0614
22.0613
22.0613
22.0613
22.0612
22.025
22.0248
22.0247
21.9289
21.9286
21.9285
21.7418
21.7413
21.7413
21.4797
21.4793
21.4793
16.9566
16.9562
16.9562
17.1728
17.1724
17.1723
17.3273
17.3269
17.3269
17.4058
17.4056
17.4055
17.4341
17.434
17.4339
17.434
17.4339
17.4338
17.4054
17.4052
17.4051
17.3265
17.3261
17.3261
17.1715
17.1711
17.171
16.9547
16.9543
16.9543
13.5935
13.5932
13.5932
13.7751
13.7747
13.7747
13.9056
13.9052
13.9052
13.972
13.9718
13.9717
13.9945
13.9944
13.9943
13.9944
13.9943
13.9942
13.9717
13.9715
13.9714
13.905
13.9046
13.9045
13.774
13.7736
13.7736
13.592
13.5917
13.5917
11.0227
11.0225
11.0225
11.1773
11.177
11.177
11.2899
11.2896
11.2895
11.3479
11.3476
11.3475
11.3659
11.3658
11.3657
11.3658
11.3656
11.3655
11.3476
11.3473
11.3472
11.2893
11.289
11.2889
11.1764
11.1761
11.1761
11.0215
11.0212
11.0212
9.0128
9.01265
9.01264
9.14613
9.1459
9.14588
9.24523
9.24496
9.24493
9.29749
9.29725
9.29718
9.31203
9.31189
9.31183
9.31189
9.31175
9.31169
9.29717
9.29693
9.29686
9.24471
9.24443
9.2444
9.14533
9.1451
9.14509
9.01175
9.0116
9.01159
7.41183
7.41178
7.41179
7.52822
7.5281
7.5281
7.61721
7.61701
7.61699
7.6657
7.6655
7.66545
7.67753
7.67742
7.67738
7.67737
7.67725
7.67722
7.66535
7.66515
7.6651
7.61672
7.61652
7.6165
7.52753
7.52741
7.52741
7.41097
7.41092
7.41093
6.11629
6.11636
6.11639
6.21892
6.21892
6.21894
6.30022
6.30012
6.30012
6.34627
6.34613
6.34611
6.35602
6.35596
6.35595
6.35584
6.35577
6.35577
6.3459
6.34575
6.34573
6.29975
6.29965
6.29965
6.21831
6.21831
6.21834
6.1156
6.11566
6.11569
5.05341
5.05361
5.05367
5.14447
5.14461
5.14466
5.21967
5.21968
5.21971
5.26407
5.26402
5.26402
5.27229
5.2723
5.27234
5.27208
5.2721
5.27214
5.26366
5.26361
5.26362
5.21921
5.21922
5.21926
5.14394
5.14407
5.14413
5.05286
5.05306
5.05312
4.17094
4.17129
4.17137
4.25171
4.252
4.25209
4.32158
4.32172
4.3218
4.36459
4.36465
4.36471
4.37177
4.37189
4.37198
4.37155
4.37167
4.37176
4.36416
4.36423
4.36429
4.32113
4.32128
4.32136
4.25124
4.25153
4.25162
4.17053
4.17088
4.17096
3.43107
3.43158
3.43168
3.50186
3.50232
3.50244
3.56635
3.56666
3.56678
3.60772
3.60793
3.60805
3.6143
3.61456
3.6147
3.61408
3.61435
3.61448
3.60729
3.60751
3.60762
3.56593
3.56624
3.56637
3.50146
3.50192
3.50204
3.43079
3.4313
3.4314
2.80673
2.80739
2.8075
2.86684
2.86748
2.86761
2.92506
2.92555
2.92571
2.96403
2.96443
2.96459
2.97034
2.97078
2.97096
2.97012
2.97057
2.97075
2.96362
2.96402
2.96418
2.92467
2.92517
2.92533
2.86652
2.86716
2.86729
2.80659
2.80725
2.80736
2.27937
2.28016
2.28026
2.32711
2.3279
2.32803
2.37733
2.378
2.37817
2.41266
2.41326
2.41344
2.41887
2.41951
2.4197
2.41868
2.41932
2.41951
2.41229
2.41289
2.41307
2.37699
2.37767
2.37783
2.32688
2.32766
2.3278
2.27936
2.28015
2.28026
1.83747
1.83832
1.83841
1.87041
1.87129
1.87141
1.9102
1.91102
1.91117
1.9403
1.94107
1.94124
1.94633
1.94713
1.94732
1.94617
1.94697
1.94716
1.93998
1.94075
1.94093
1.90993
1.91075
1.91091
1.87026
1.87114
1.87126
1.83759
1.83844
1.83853
1.47529
1.4761
1.47617
1.49086
1.49173
1.49183
1.51757
1.51843
1.51856
1.54065
1.5415
1.54165
1.54615
1.54702
1.54718
1.54603
1.5469
1.54706
1.54041
1.54126
1.54141
1.51738
1.51824
1.51837
1.4908
1.49168
1.49177
1.47551
1.47632
1.47639
1.19158
1.19224
1.1923
1.18821
1.18895
1.18903
1.19975
1.20053
1.20062
1.2143
1.2151
1.21521
1.21869
1.2195
1.21962
1.21861
1.21942
1.21954
1.21414
1.21494
1.21505
1.19964
1.20042
1.20052
1.18825
1.18899
1.18906
1.19187
1.19253
1.19259
0.988993
0.989431
0.989497
0.967675
0.968177
0.968248
0.963897
0.964459
0.96454
0.969487
0.970087
0.970178
0.972231
0.972845
0.972939
0.972185
0.972799
0.972893
0.969395
0.969994
0.970085
0.963859
0.964421
0.964501
0.967778
0.96828
0.96835
0.989323
0.98976
0.989826
0.876122
0.876366
0.876444
0.842464
0.842743
0.842824
0.82753
0.827864
0.827947
0.82635
0.826727
0.826814
0.827581
0.82797
0.82806
0.827555
0.827945
0.828034
0.826301
0.826678
0.826764
0.827537
0.827871
0.827954
0.842608
0.842886
0.842967
0.87646
0.876704
0.876782
)
;

boundaryField
{
    freeSurface
    {
        type            slip;
    }
    inlet
    {
        type            cyclic;
    }
    outlet
    {
        type            cyclic;
    }
    sidewalls
    {
        Cmu             0.09;
        kappa           0.41;
        E               9.8;
        beta1           0.075;
        blended         false;
        type            omegaWallFunction;
        value           nonuniform 0();
    }
    noSlipWalls
    {
        Cmu             0.09;
        kappa           0.41;
        E               9.8;
        beta1           0.075;
        blended         false;
        type            omegaWallFunction;
        value           nonuniform List<scalar> 
30
(
843.917
843.917
843.917
843.917
843.917
843.917
843.917
843.917
843.917
843.917
843.917
843.917
843.917
843.917
843.917
843.917
843.917
843.917
843.917
843.917
843.917
843.917
843.917
843.917
843.917
843.917
843.917
843.917
843.917
843.917
)
;
    }
    procBoundary1to0
    {
        type            processor;
        value           nonuniform List<scalar> 
72
(
843.917
843.917
843.917
263.669
263.669
263.669
127.06
127.06
127.06
76.013
76.0127
76.0126
50.9799
50.9795
50.9794
36.5859
36.5854
36.5853
27.4262
27.4257
27.4256
21.1815
21.181
21.181
16.709
16.7086
16.7086
13.3858
13.3854
13.3854
10.8454
10.8451
10.8451
8.85882
8.85867
8.85867
7.27629
7.27628
7.27629
5.99586
5.99598
5.99603
4.94622
4.94649
4.94656
4.07655
4.07699
4.07707
3.35042
3.35102
3.35112
2.74202
2.74277
2.74286
2.23365
2.2345
2.23458
1.81382
1.81469
1.81475
1.47562
1.47641
1.47647
1.21537
1.216
1.21605
1.03236
1.03279
1.03284
0.931448
0.931712
0.931773
)
;
    }
    procBoundary1to2
    {
        type            processor;
        value           nonuniform List<scalar> 
72
(
843.917
843.917
843.917
263.66
263.661
263.66
127.052
127.052
127.051
76.0067
76.0064
76.0063
50.975
50.9746
50.9745
36.5821
36.5816
36.5815
27.4231
27.4226
27.4226
21.179
21.1785
21.1785
16.707
16.7065
16.7065
13.3841
13.3837
13.3837
10.8439
10.8436
10.8436
8.85757
8.85742
8.85742
7.2752
7.27519
7.2752
5.99491
5.99502
5.99507
4.94538
4.94565
4.94572
4.0758
4.07624
4.07633
3.34978
3.35038
3.35047
2.74149
2.74224
2.74233
2.23323
2.23408
2.23416
1.81353
1.8144
1.81447
1.47547
1.47626
1.47631
1.21534
1.21598
1.21602
1.03245
1.03287
1.03292
0.931592
0.931852
0.931914
)
;
    }
}


// ************************************************************************* //
