/*--------------------------------*- C++ -*----------------------------------*\
  =========                 |
  \\      /  F ield         | OpenFOAM: The Open Source CFD Toolbox
   \\    /   O peration     | Website:  https://openfoam.org
    \\  /    A nd           | Version:  6
     \\/     M anipulation  |
\*---------------------------------------------------------------------------*/
FoamFile
{
    version     2.0;
    format      ascii;
    class       volScalarField;
    location    "20";
    object      p;
}
// * * * * * * * * * * * * * * * * * * * * * * * * * * * * * * * * * * * * * //

dimensions      [0 2 -2 0 0 0 0];

internalField   nonuniform List<scalar> 
720
(
6.08764e-10
7.50847e-08
2.72672e-08
8.94114e-10
7.42019e-08
2.78683e-08
1.52182e-09
7.31845e-08
2.82551e-08
1.73822e-09
7.2454e-08
2.87788e-08
1.91093e-09
7.2579e-08
2.84242e-08
1.90263e-09
7.2571e-08
2.84356e-08
1.70116e-09
7.24059e-08
2.8801e-08
1.46526e-09
7.31286e-08
2.8314e-08
8.40989e-10
7.4164e-08
2.79025e-08
5.34287e-10
7.49047e-08
2.74663e-08
6.08551e-10
7.50842e-08
2.72679e-08
8.95183e-10
7.42036e-08
2.78656e-08
1.52279e-09
7.31887e-08
2.825e-08
1.73815e-09
7.2461e-08
2.87719e-08
1.91206e-09
7.25835e-08
2.84186e-08
1.90379e-09
7.25754e-08
2.843e-08
1.7011e-09
7.24129e-08
2.8794e-08
1.46625e-09
7.31328e-08
2.83088e-08
8.42024e-10
7.41654e-08
2.79002e-08
5.34106e-10
7.49047e-08
2.74665e-08
6.04656e-10
7.50821e-08
2.7274e-08
8.92356e-10
7.42024e-08
2.78695e-08
1.52094e-09
7.31858e-08
2.82548e-08
1.73724e-09
7.24616e-08
2.8772e-08
1.91136e-09
7.25834e-08
2.84194e-08
1.90307e-09
7.25754e-08
2.84308e-08
1.70018e-09
7.24136e-08
2.87943e-08
1.46443e-09
7.313e-08
2.83135e-08
8.3914e-10
7.41634e-08
2.79049e-08
5.30314e-10
7.49037e-08
2.74713e-08
5.98915e-10
7.50794e-08
2.72825e-08
8.87848e-10
7.42015e-08
2.78749e-08
1.51773e-09
7.318e-08
2.82639e-08
1.73592e-09
7.24605e-08
2.87743e-08
1.91003e-09
7.25811e-08
2.84232e-08
1.90172e-09
7.25731e-08
2.84344e-08
1.69884e-09
7.24125e-08
2.87968e-08
1.46128e-09
7.31241e-08
2.83224e-08
8.34532e-10
7.41611e-08
2.79119e-08
5.2478e-10
7.49031e-08
2.74774e-08
5.92419e-10
7.50776e-08
2.72911e-08
8.82781e-10
7.4203e-08
2.78785e-08
1.51387e-09
7.31741e-08
2.8274e-08
1.73433e-09
7.24603e-08
2.87759e-08
1.90853e-09
7.2578e-08
2.84279e-08
1.9002e-09
7.257e-08
2.84391e-08
1.69725e-09
7.24123e-08
2.87987e-08
1.45753e-09
7.31181e-08
2.83321e-08
8.29322e-10
7.41604e-08
2.79178e-08
5.18602e-10
7.49043e-08
2.74824e-08
5.86019e-10
7.50778e-08
2.72974e-08
8.77336e-10
7.42086e-08
2.78783e-08
1.50945e-09
7.31699e-08
2.82829e-08
1.73217e-09
7.24622e-08
2.87757e-08
1.90637e-09
7.25753e-08
2.84329e-08
1.89802e-09
7.25674e-08
2.84439e-08
1.69509e-09
7.24143e-08
2.87989e-08
1.45328e-09
7.31139e-08
2.83405e-08
8.23695e-10
7.41632e-08
2.79206e-08
5.12615e-10
7.49086e-08
2.74841e-08
5.8019e-10
7.5082e-08
2.72993e-08
8.71622e-10
7.42201e-08
2.78724e-08
1.50429e-09
7.31696e-08
2.82886e-08
1.72886e-09
7.24679e-08
2.87729e-08
1.90275e-09
7.25744e-08
2.84377e-08
1.89436e-09
7.25665e-08
2.84484e-08
1.69181e-09
7.24201e-08
2.87965e-08
1.44834e-09
7.31136e-08
2.83458e-08
8.17764e-10
7.41713e-08
2.79184e-08
5.07266e-10
7.49177e-08
2.74803e-08
5.7463e-10
7.50921e-08
2.72951e-08
8.66945e-10
7.42393e-08
2.78578e-08
1.49794e-09
7.31759e-08
2.8289e-08
1.72357e-09
7.24794e-08
2.87661e-08
1.89705e-09
7.25768e-08
2.84413e-08
1.88862e-09
7.2569e-08
2.84517e-08
1.68658e-09
7.24318e-08
2.87902e-08
1.44228e-09
7.31197e-08
2.83456e-08
8.12859e-10
7.41868e-08
2.79079e-08
5.02238e-10
7.49334e-08
2.74697e-08
5.69322e-10
7.51098e-08
2.7283e-08
8.63818e-10
7.42686e-08
2.78316e-08
1.4903e-09
7.31915e-08
2.82815e-08
1.71519e-09
7.24997e-08
2.87535e-08
1.88911e-09
7.25845e-08
2.84419e-08
1.88064e-09
7.25767e-08
2.8452e-08
1.67833e-09
7.24523e-08
2.87781e-08
1.43496e-09
7.31351e-08
2.83375e-08
8.09525e-10
7.4212e-08
2.7886e-08
4.97496e-10
7.49572e-08
2.74506e-08
5.64325e-10
7.5136e-08
2.72623e-08
8.60938e-10
7.43098e-08
2.77933e-08
1.48337e-09
7.32191e-08
2.82611e-08
1.70343e-09
7.25318e-08
2.87325e-08
1.88025e-09
7.26002e-08
2.84354e-08
1.87175e-09
7.25926e-08
2.84451e-08
1.66677e-09
7.24846e-08
2.87575e-08
1.42839e-09
7.31625e-08
2.83166e-08
8.06475e-10
7.4249e-08
2.7852e-08
4.93075e-10
7.49897e-08
2.74226e-08
5.61557e-10
7.5167e-08
2.72344e-08
8.58148e-10
7.43624e-08
2.77433e-08
1.47808e-09
7.32617e-08
2.82243e-08
1.69037e-09
7.25784e-08
2.86981e-08
1.87119e-09
7.26272e-08
2.8418e-08
1.86266e-09
7.26196e-08
2.84272e-08
1.654e-09
7.25316e-08
2.87235e-08
1.42347e-09
7.32047e-08
2.82793e-08
8.03559e-10
7.42976e-08
2.78064e-08
4.90892e-10
7.50272e-08
2.73874e-08
5.6273e-10
7.51968e-08
2.72038e-08
8.58479e-10
7.44193e-08
2.76861e-08
1.47284e-09
7.33186e-08
2.81731e-08
1.67746e-09
7.26424e-08
2.86461e-08
1.86096e-09
7.26673e-08
2.83887e-08
1.85239e-09
7.26597e-08
2.83974e-08
1.64146e-09
7.25959e-08
2.86719e-08
1.41864e-09
7.32612e-08
2.82278e-08
8.03742e-10
7.43505e-08
2.77533e-08
4.9264e-10
7.50632e-08
2.73497e-08
5.69003e-10
7.52171e-08
2.71776e-08
8.65518e-10
7.44685e-08
2.76299e-08
1.47157e-09
7.33802e-08
2.81131e-08
1.66422e-09
7.27224e-08
2.85785e-08
1.85196e-09
7.27173e-08
2.83483e-08
1.84333e-09
7.27096e-08
2.83567e-08
1.62864e-09
7.26761e-08
2.86046e-08
1.41783e-09
7.33222e-08
2.81676e-08
8.10318e-10
7.43959e-08
2.77014e-08
4.99429e-10
7.50896e-08
2.73166e-08
5.87075e-10
7.52113e-08
2.71656e-08
8.8235e-10
7.44942e-08
2.75873e-08
1.47993e-09
7.34299e-08
2.80553e-08
1.65777e-09
7.2804e-08
2.85024e-08
1.85513e-09
7.27596e-08
2.83036e-08
1.8465e-09
7.27517e-08
2.83117e-08
1.62266e-09
7.27578e-08
2.85291e-08
1.42677e-09
7.33711e-08
2.81098e-08
8.26665e-10
7.44182e-08
2.76628e-08
5.17943e-10
7.50895e-08
2.72982e-08
6.30373e-10
7.51504e-08
2.71835e-08
9.20927e-10
7.44673e-08
2.75757e-08
1.50559e-09
7.34442e-08
2.80153e-08
1.6679e-09
7.28618e-08
2.84336e-08
1.88221e-09
7.27692e-08
2.82677e-08
1.87366e-09
7.27606e-08
2.82757e-08
1.63335e-09
7.28153e-08
2.84611e-08
1.45309e-09
7.33845e-08
2.80701e-08
8.65189e-10
7.43882e-08
2.76542e-08
5.61594e-10
7.50337e-08
2.73103e-08
7.18642e-10
7.49882e-08
2.72577e-08
1.00327e-09
7.43396e-08
2.7621e-08
1.56895e-09
7.33795e-08
2.80167e-08
1.70974e-09
7.28579e-08
2.83947e-08
1.94679e-09
7.27107e-08
2.82625e-08
1.93828e-09
7.27012e-08
2.82708e-08
1.67583e-09
7.28106e-08
2.84235e-08
1.51706e-09
7.33186e-08
2.8072e-08
9.47604e-10
7.42579e-08
2.77021e-08
6.50108e-10
7.4876e-08
2.73796e-08
8.76586e-10
7.46579e-08
2.74302e-08
1.15921e-09
7.40378e-08
2.77668e-08
1.70313e-09
7.31645e-08
2.80973e-08
1.81549e-09
7.27243e-08
2.84212e-08
2.07943e-09
7.25187e-08
2.83227e-08
2.07092e-09
7.25079e-08
2.83316e-08
1.78237e-09
7.26758e-08
2.84518e-08
1.65175e-09
7.31022e-08
2.81537e-08
1.10357e-09
7.39541e-08
2.78499e-08
8.08182e-10
7.45496e-08
2.75479e-08
1.12854e-09
7.40751e-08
2.77612e-08
1.42082e-09
7.34646e-08
2.80783e-08
1.95344e-09
7.26926e-08
2.83184e-08
2.02998e-09
7.23571e-08
2.85724e-08
2.32481e-09
7.20914e-08
2.85052e-08
2.31638e-09
7.20787e-08
2.85154e-08
1.99791e-09
7.23068e-08
2.86052e-08
1.90245e-09
7.26288e-08
2.83761e-08
1.36499e-09
7.33795e-08
2.8163e-08
1.06012e-09
7.39702e-08
2.78754e-08
1.48735e-09
7.31356e-08
2.83424e-08
1.8127e-09
7.25147e-08
2.86362e-08
2.36026e-09
7.18334e-08
2.87703e-08
2.40114e-09
7.16153e-08
2.89414e-08
2.72871e-09
7.12901e-08
2.89035e-08
2.72045e-09
7.12751e-08
2.89152e-08
2.37032e-09
7.15627e-08
2.89767e-08
2.30946e-09
7.17682e-08
2.88296e-08
1.75635e-09
7.24291e-08
2.87221e-08
1.41855e-09
7.30338e-08
2.84539e-08
1.93463e-09
7.1704e-08
2.93266e-08
2.33821e-09
7.11035e-08
2.95223e-08
2.9001e-09
7.04941e-08
2.95702e-08
2.94285e-09
7.03504e-08
2.96634e-08
3.29057e-09
6.99793e-08
2.9654e-08
3.28185e-09
6.99626e-08
2.96672e-08
2.9124e-09
7.02967e-08
2.97011e-08
2.8492e-09
7.0428e-08
2.9631e-08
2.28096e-09
7.10184e-08
2.96087e-08
1.86459e-09
7.16056e-08
2.9436e-08
2.47002e-09
6.98936e-08
3.06003e-08
2.96772e-09
6.92116e-08
3.0785e-08
3.38235e-09
6.87298e-08
3.08504e-08
3.60093e-09
6.84628e-08
3.08914e-08
3.90736e-09
6.81038e-08
3.09131e-08
3.89465e-09
6.80892e-08
3.09276e-08
3.56579e-09
6.84134e-08
3.0931e-08
3.33099e-09
6.86641e-08
3.09121e-08
2.90932e-09
6.91283e-08
3.0871e-08
2.39869e-09
6.97986e-08
3.07079e-08
3.05548e-09
6.81355e-08
3.1774e-08
3.63007e-09
6.71818e-08
3.2153e-08
3.90361e-09
6.67031e-08
3.23559e-08
4.32716e-09
6.62073e-08
3.24197e-08
4.58225e-09
6.58641e-08
3.24799e-08
4.56527e-09
6.58528e-08
3.24949e-08
4.28657e-09
6.61645e-08
3.246e-08
3.85159e-09
6.6639e-08
3.24175e-08
3.57043e-09
6.71012e-08
3.22378e-08
2.98326e-09
6.80436e-08
3.18797e-08
3.54647e-09
6.68081e-08
3.26105e-08
4.18921e-09
6.56036e-08
3.31723e-08
4.54041e-09
6.48872e-08
3.35359e-08
5.00831e-09
6.42515e-08
3.3694e-08
5.27122e-09
6.38636e-08
3.37934e-08
5.25376e-09
6.38529e-08
3.3808e-08
4.96737e-09
6.42113e-08
3.37336e-08
4.48781e-09
6.48252e-08
3.35968e-08
4.12849e-09
6.55253e-08
3.3256e-08
3.47332e-09
6.67193e-08
3.27144e-08
3.82675e-09
6.61216e-08
3.30158e-08
4.50941e-09
6.47827e-08
3.36715e-08
4.94686e-09
6.3867e-08
3.4148e-08
5.42606e-09
6.31369e-08
3.43892e-08
5.70404e-09
6.27076e-08
3.45162e-08
5.68686e-09
6.26969e-08
3.45303e-08
5.38565e-09
6.30978e-08
3.4428e-08
4.89397e-09
6.38064e-08
3.42083e-08
4.44803e-09
6.4706e-08
3.37545e-08
3.75272e-09
6.60351e-08
3.31184e-08
)
;

boundaryField
{
    freeSurface
    {
        type            slip;
    }
    inlet
    {
        type            cyclic;
    }
    outlet
    {
        type            cyclic;
    }
    sidewalls
    {
        type            zeroGradient;
    }
    noSlipWalls
    {
        type            zeroGradient;
    }
    procBoundary1to0
    {
        type            processor;
        value           nonuniform List<scalar> 
72
(
4.09115e-11
7.60066e-08
2.69124e-08
4.03264e-11
7.60053e-08
2.69143e-08
3.67622e-11
7.60026e-08
2.69206e-08
3.18712e-11
7.60001e-08
2.69281e-08
2.69561e-11
7.59992e-08
2.69341e-08
2.27047e-11
7.60015e-08
2.69363e-08
1.90679e-11
7.60088e-08
2.69328e-08
1.6006e-11
7.60234e-08
2.69216e-08
1.36263e-11
7.60466e-08
2.69011e-08
1.30376e-11
7.60774e-08
2.68712e-08
1.44358e-11
7.61125e-08
2.68351e-08
1.82708e-11
7.61458e-08
2.67983e-08
2.81366e-11
7.61658e-08
2.6769e-08
5.34935e-11
7.61532e-08
2.67566e-08
1.0892e-10
7.60766e-08
2.67782e-08
2.11757e-10
7.58863e-08
2.68661e-08
3.8174e-10
7.55173e-08
2.70653e-08
6.3736e-10
7.48965e-08
2.74309e-08
9.84817e-10
7.39484e-08
2.80319e-08
1.40165e-09
7.26001e-08
2.89635e-08
1.8881e-09
7.09843e-08
3.00929e-08
2.4046e-09
6.94557e-08
3.11057e-08
2.82974e-09
6.83066e-08
3.18295e-08
3.07141e-09
6.77008e-08
3.21928e-08
)
;
    }
    procBoundary1to2
    {
        type            processor;
        value           nonuniform List<scalar> 
72
(
-2.25406e-11
7.58352e-08
2.70917e-08
-2.31692e-11
7.58341e-08
2.70934e-08
-2.67937e-11
7.58321e-08
2.70991e-08
-3.17513e-11
7.58306e-08
2.71055e-08
-3.67379e-11
7.58314e-08
2.71097e-08
-4.10679e-11
7.58359e-08
2.71096e-08
-4.47892e-11
7.5846e-08
2.71033e-08
-4.79457e-11
7.58637e-08
2.70888e-08
-5.0422e-11
7.58903e-08
2.70646e-08
-5.10574e-11
7.59247e-08
2.70309e-08
-4.96307e-11
7.59636e-08
2.69907e-08
-4.57023e-11
7.60006e-08
2.69498e-08
-3.56462e-11
7.60241e-08
2.69163e-08
-9.99997e-12
7.60149e-08
2.68999e-08
4.57792e-11
7.59411e-08
2.69179e-08
1.48998e-10
7.57532e-08
2.70026e-08
3.19506e-10
7.53859e-08
2.71994e-08
5.75886e-10
7.47661e-08
2.75628e-08
9.2271e-10
7.38202e-08
2.81623e-08
1.33045e-09
7.24818e-08
2.90929e-08
1.80625e-09
7.08778e-08
3.02211e-08
2.32039e-09
6.9354e-08
3.12318e-08
2.74405e-09
6.82086e-08
3.19536e-08
2.9841e-09
6.76057e-08
3.23158e-08
)
;
    }
}


// ************************************************************************* //
