/*--------------------------------*- C++ -*----------------------------------*\
  =========                 |
  \\      /  F ield         | OpenFOAM: The Open Source CFD Toolbox
   \\    /   O peration     | Website:  https://openfoam.org
    \\  /    A nd           | Version:  6
     \\/     M anipulation  |
\*---------------------------------------------------------------------------*/
FoamFile
{
    version     2.0;
    format      ascii;
    class       surfaceScalarField;
    location    "20";
    object      phi;
}
// * * * * * * * * * * * * * * * * * * * * * * * * * * * * * * * * * * * * * //

dimensions      [0 3 -1 0 0 0 0];

internalField   nonuniform List<scalar> 
1818
(
3.4799e-06
-6.26405e-12
-1.64452e-11
3.47991e-06
8.71534e-12
-5.57947e-12
-2.36965e-12
2.20909e-11
4.14699e-06
-5.78366e-12
-1.77222e-11
4.147e-06
7.85892e-12
-1.53763e-11
-2.0254e-12
3.31303e-11
4.90974e-06
-3.79897e-12
-1.34113e-11
4.90978e-06
5.26719e-12
-2.89401e-11
-1.47734e-12
4.24105e-11
5.76777e-06
-1.57237e-12
-4.98568e-12
5.76781e-06
1.803e-12
-3.24571e-11
-2.85687e-13
3.74886e-11
6.73097e-06
-3.87165e-15
-1.15129e-11
6.731e-06
-6.92862e-14
-2.1317e-11
-3.899e-14
3.2887e-11
6.7309e-06
1.57861e-12
-1.17231e-11
6.73093e-06
-1.91678e-12
-2.12061e-11
2.04606e-13
3.29506e-11
5.76752e-06
3.83533e-12
-5.15954e-12
5.76756e-06
-5.3482e-12
-3.24396e-11
1.38109e-12
3.75974e-11
4.90926e-06
5.84342e-12
-1.34985e-11
4.90929e-06
-7.94779e-12
-2.88534e-11
1.99841e-12
4.23261e-11
4.14633e-06
6.35177e-12
-1.77439e-11
4.14635e-06
-8.69301e-12
-1.54156e-11
2.25806e-12
3.31367e-11
3.47916e-06
-1.64242e-11
3.47916e-06
-5.40522e-12
2.18243e-11
6.93676e-06
-1.20353e-11
-3.30555e-11
6.93677e-06
1.61249e-11
-1.07553e-11
-3.92756e-12
4.40096e-11
8.14844e-06
-1.07491e-11
-3.31907e-11
8.14845e-06
1.42895e-11
-2.68367e-11
-3.44759e-12
6.01286e-11
9.52727e-06
-7.15257e-12
-2.46199e-11
9.52729e-06
9.5188e-12
-4.45347e-11
-2.37857e-12
6.93191e-11
1.10966e-05
-2.91189e-12
-1.09914e-11
1.10966e-05
3.44142e-12
-4.45602e-11
-6.63024e-13
5.57187e-11
1.28946e-05
-1.09781e-14
-1.99688e-11
1.28946e-05
-1.33552e-13
-2.62878e-11
-7.01171e-14
4.63948e-11
1.28945e-05
2.90987e-12
-2.0308e-11
1.28945e-05
-3.67453e-12
-2.61338e-11
5.11091e-13
4.6502e-11
1.10965e-05
7.21095e-12
-1.13042e-11
1.10965e-05
-9.67632e-12
-4.46014e-11
2.21435e-12
5.59013e-11
9.52696e-06
1.08676e-11
-2.4822e-11
9.52698e-06
-1.44462e-11
-4.44257e-11
3.37517e-12
6.91742e-11
8.1479e-06
1.21896e-11
-3.32626e-11
8.14791e-06
-1.61988e-11
-2.69178e-11
3.84698e-12
6.01164e-11
6.93602e-06
-3.307e-11
6.93603e-06
-1.04665e-11
4.35241e-11
9.77238e-06
-1.65711e-11
-5.41145e-11
9.77239e-06
2.16605e-11
-1.6284e-11
-4.86251e-12
7.07822e-11
1.14681e-05
-1.47171e-11
-5.34368e-11
1.14681e-05
1.91097e-11
-4.04308e-11
-4.26452e-12
9.40676e-11
1.3402e-05
-9.85761e-12
-3.96136e-11
1.3402e-05
1.27166e-11
-6.42933e-11
-2.8726e-12
1.04213e-10
1.56065e-05
-4.00747e-12
-1.92685e-11
1.56065e-05
4.67072e-12
-6.14828e-11
-8.55293e-13
8.10966e-11
1.81339e-05
-1.55349e-14
-3.13501e-11
1.8134e-05
-1.82928e-13
-3.44856e-11
-9.73763e-14
6.60779e-11
1.81339e-05
4.00158e-12
-3.1853e-11
1.81339e-05
-4.99493e-12
-3.42739e-11
6.42363e-13
6.62423e-11
1.56063e-05
9.93456e-12
-1.97691e-11
1.56063e-05
-1.29339e-11
-6.16059e-11
2.65168e-12
8.13675e-11
1.34015e-05
1.48813e-11
-3.99734e-11
1.34016e-05
-1.93147e-11
-6.41623e-11
4.15151e-12
1.03996e-10
1.14674e-05
1.67785e-11
-5.35674e-11
1.14674e-05
-2.17955e-11
-4.05278e-11
4.79188e-12
9.39745e-11
9.77142e-06
-5.41918e-11
9.77143e-06
-1.59355e-11
7.01057e-11
1.27123e-05
-2.11099e-11
-7.99846e-11
1.27123e-05
2.71097e-11
-2.09041e-11
-5.70674e-12
1.0151e-10
1.49126e-05
-1.87301e-11
-7.88199e-11
1.49126e-05
2.38368e-11
-5.47188e-11
-4.9423e-12
1.33867e-10
1.74242e-05
-1.25882e-11
-5.88678e-11
1.74242e-05
1.58409e-11
-8.71432e-11
-3.26772e-12
1.46497e-10
2.02888e-05
-5.12627e-12
-3.00886e-11
2.02889e-05
5.8573e-12
-8.33389e-11
-9.7816e-13
1.14005e-10
2.35739e-05
-1.9579e-14
-4.59249e-11
2.35739e-05
-2.31364e-13
-4.67557e-11
-1.25788e-13
9.30522e-11
2.35738e-05
5.11863e-12
-4.6625e-11
2.35739e-05
-6.26963e-12
-4.64712e-11
7.0237e-13
9.32834e-11
2.02886e-05
1.26848e-11
-3.0827e-11
2.02886e-05
-1.61174e-11
-8.35604e-11
2.98778e-12
1.14376e-10
1.74237e-05
1.8939e-11
-5.94267e-11
1.74237e-05
-2.40906e-11
-8.69873e-11
4.79047e-12
1.46191e-10
1.49117e-05
2.13721e-11
-7.90228e-11
1.49117e-05
-2.72918e-11
-5.48197e-11
5.63064e-12
1.3365e-10
1.27111e-05
-8.01509e-11
1.27111e-05
-2.05392e-11
1.00657e-10
1.6002e-05
-2.60398e-11
-1.11364e-10
1.6002e-05
3.305e-11
-2.28021e-11
-6.64426e-12
1.35083e-10
1.87692e-05
-2.31176e-11
-1.10194e-10
1.87692e-05
2.89662e-11
-6.75712e-11
-5.6442e-12
1.78255e-10
2.19295e-05
-1.55799e-11
-8.3365e-11
2.19296e-05
1.92205e-11
-1.11489e-10
-3.6577e-12
1.95561e-10
2.55347e-05
-6.36803e-12
-4.42248e-11
2.55347e-05
7.14044e-12
-1.09767e-10
-1.0786e-12
1.54858e-10
2.96691e-05
-2.38908e-14
-6.47338e-11
2.96691e-05
-2.83905e-13
-6.29751e-11
-1.5696e-13
1.28239e-10
2.9669e-05
6.35966e-12
-6.56708e-11
2.96691e-05
-7.64768e-12
-6.25977e-11
7.33808e-13
1.28545e-10
2.55344e-05
1.56985e-11
-4.52585e-11
2.55344e-05
-1.95615e-11
-1.10095e-10
3.31311e-12
1.55338e-10
2.19289e-05
2.33742e-11
-8.41688e-11
2.19289e-05
-2.92751e-11
-1.11296e-10
5.45345e-12
1.9514e-10
1.87681e-05
2.6362e-11
-1.10486e-10
1.87681e-05
-3.32803e-11
-6.76658e-11
6.55875e-12
1.77872e-10
1.60004e-05
-1.11646e-10
1.60005e-05
-2.2451e-11
1.34051e-10
1.98009e-05
-3.1573e-11
-1.4935e-10
1.98009e-05
3.9824e-11
-1.94804e-11
-7.80343e-12
1.70107e-10
2.32244e-05
-2.80606e-11
-1.48818e-10
2.32244e-05
3.47829e-11
-7.57903e-11
-6.47254e-12
2.25297e-10
2.71352e-05
-1.89608e-11
-1.14536e-10
2.71353e-05
2.30398e-11
-1.34413e-10
-4.09931e-12
2.49926e-10
3.15967e-05
-7.79531e-12
-6.32672e-11
3.15967e-05
8.59773e-12
-1.39153e-10
-1.17505e-12
2.03639e-10
3.67128e-05
-2.87345e-14
-9.01536e-11
3.67128e-05
-3.43095e-13
-8.11661e-11
-1.91717e-13
1.72041e-10
3.67127e-05
7.78721e-12
-9.13746e-11
3.67127e-05
-9.21152e-12
-8.06665e-11
7.5281e-13
1.72426e-10
3.15963e-05
1.91048e-11
-6.46656e-11
3.15963e-05
-2.34539e-11
-1.39582e-10
3.68248e-12
2.04227e-10
2.71344e-05
2.83702e-11
-1.15633e-10
2.71344e-05
-3.5156e-11
-1.34166e-10
6.24188e-12
2.4935e-10
2.3223e-05
3.19625e-11
-1.49223e-10
2.3223e-05
-4.01087e-11
-7.58669e-11
7.70848e-12
2.24703e-10
1.97991e-05
-1.49778e-10
1.97991e-05
-1.91796e-11
1.68894e-10
2.42517e-05
-3.79412e-11
-1.95225e-10
2.42517e-05
4.76754e-11
-7.6658e-12
-9.1928e-12
2.04599e-10
2.84449e-05
-3.37059e-11
-1.9659e-10
2.84449e-05
4.15417e-11
-7.49921e-11
-7.53407e-12
2.7251e-10
3.32361e-05
-2.28383e-11
-1.54488e-10
3.32361e-05
2.74596e-11
-1.51496e-10
-4.64617e-12
3.07287e-10
3.87014e-05
-9.46203e-12
-8.96628e-11
3.87015e-05
1.02974e-11
-1.68378e-10
-1.28382e-12
2.59684e-10
4.49682e-05
-3.42012e-14
-1.2586e-10
4.49682e-05
-4.10794e-13
-9.77031e-11
-2.30454e-13
2.24512e-10
4.49681e-05
9.45553e-12
-1.27418e-10
4.49681e-05
-1.10328e-11
-9.70395e-11
7.74505e-13
2.24969e-10
3.87009e-05
2.30118e-11
-9.15018e-11
3.8701e-05
-2.79581e-11
-1.68884e-10
4.14879e-12
2.6036e-10
3.3235e-05
3.40747e-11
-1.55929e-10
3.32351e-05
-4.19912e-11
-1.51166e-10
7.26291e-12
3.06503e-10
2.84432e-05
3.84062e-11
-1.97131e-10
2.84432e-05
-4.80227e-11
-7.50384e-11
9.08883e-12
2.71657e-10
2.42495e-05
-1.95825e-10
2.42495e-05
-7.4642e-12
2.03204e-10
2.95035e-05
-4.50289e-11
-2.50397e-10
2.95034e-05
5.66319e-11
1.69171e-11
-1.09568e-11
2.35701e-10
3.46058e-05
-4.01901e-11
-2.55955e-10
3.46058e-05
4.95351e-11
-5.96861e-11
-8.98548e-12
3.16855e-10
4.04365e-05
-2.73088e-11
-2.06362e-10
4.04366e-05
3.26594e-11
-1.56444e-10
-5.38158e-12
3.645e-10
4.7087e-05
-1.14177e-11
-1.26849e-10
4.7087e-05
1.23169e-11
-1.92242e-10
-1.43392e-12
3.21237e-10
5.4712e-05
-4.02465e-14
-1.76857e-10
5.4712e-05
-4.88599e-13
-1.07194e-10
-2.73143e-13
2.85267e-10
5.47118e-05
1.14142e-11
-1.78806e-10
5.47119e-05
-1.31922e-11
-1.06306e-10
8.28177e-13
2.85772e-10
4.70864e-05
2.75165e-11
-1.29207e-10
4.70865e-05
-3.32565e-11
-1.92769e-10
4.79612e-12
3.21944e-10
4.04352e-05
4.06256e-11
-2.08199e-10
4.04353e-05
-5.00758e-11
-1.55992e-10
8.67464e-12
3.6343e-10
3.46037e-05
4.55763e-11
-2.56657e-10
3.46037e-05
-5.70497e-11
-5.96941e-11
1.08463e-11
3.1569e-10
2.95007e-05
-2.51189e-10
2.95006e-05
1.6953e-11
2.34127e-10
3.57231e-05
-5.25989e-11
-3.1678e-10
3.57231e-05
6.64692e-11
6.00032e-11
-1.31056e-11
2.596e-10
4.19031e-05
-4.7619e-11
-3.29682e-10
4.19031e-05
5.88798e-11
-2.28476e-11
-1.08351e-11
3.54082e-10
4.89661e-05
-3.24488e-11
-2.74608e-10
4.89661e-05
3.88671e-11
-1.41064e-10
-6.45611e-12
4.17829e-10
5.70208e-05
-1.36921e-11
-1.80258e-10
5.70209e-05
1.47558e-11
-2.0248e-10
-1.69617e-12
3.85478e-10
6.62548e-05
-4.66734e-14
-2.49545e-10
6.62548e-05
-5.77992e-13
-1.01516e-10
-3.19157e-13
3.52587e-10
6.62546e-05
1.36921e-11
-2.51937e-10
6.62547e-05
-1.57921e-11
-1.00326e-10
9.87443e-13
3.53091e-10
5.70201e-05
3.26945e-11
-1.83218e-10
5.70202e-05
-3.95801e-11
-2.02936e-10
5.77827e-12
3.86116e-10
4.89645e-05
4.81255e-11
-2.76891e-10
4.89645e-05
-5.95216e-11
-1.40447e-10
1.04831e-11
4.16383e-10
4.19006e-05
5.32314e-11
-3.30557e-10
4.19006e-05
-6.69584e-11
-2.28133e-11
1.2988e-11
3.52535e-10
3.57198e-05
-3.17782e-10
3.57197e-05
5.9787e-11
2.57854e-10
4.31037e-05
-5.99153e-11
-3.97585e-10
4.31036e-05
7.66373e-11
1.29114e-10
-1.58275e-11
2.71996e-10
5.05636e-05
-5.55097e-11
-4.21191e-10
5.05636e-05
6.93203e-11
4.46502e-11
-1.3315e-11
3.78493e-10
5.90899e-05
-3.83569e-11
-3.64733e-10
5.90899e-05
4.63903e-11
-9.54547e-11
-8.08434e-12
4.62892e-10
6.8812e-05
-1.63423e-11
-2.57416e-10
6.8812e-05
1.7749e-11
-1.87521e-10
-2.14848e-12
4.48368e-10
7.9956e-05
-5.29758e-14
-3.52456e-10
7.9956e-05
-6.80188e-13
-6.90514e-11
-3.66967e-13
4.23393e-10
7.99557e-05
1.63483e-11
-3.55332e-10
7.99557e-05
-1.897e-11
-6.74587e-11
1.33244e-12
4.23808e-10
6.88112e-05
3.86458e-11
-2.61054e-10
6.88112e-05
-4.72402e-11
-1.87785e-10
7.3133e-12
4.48794e-10
5.9088e-05
5.60892e-11
-3.67506e-10
5.9088e-05
-7.00716e-11
-9.4631e-11
1.29217e-11
4.60962e-10
5.05605e-05
6.06311e-11
-4.22235e-10
5.05605e-05
-7.7193e-11
4.47114e-11
1.57014e-11
3.76488e-10
4.30996e-05
-3.98804e-10
4.30995e-05
1.28534e-10
2.70093e-10
5.18703e-05
-6.62085e-11
-4.98755e-10
5.18702e-05
8.66272e-11
2.34502e-10
-1.93815e-11
2.68588e-10
6.08522e-05
-6.30301e-11
-5.35638e-10
6.08521e-05
8.00434e-11
1.54577e-10
-1.6442e-11
3.83479e-10
7.11184e-05
-4.4508e-11
-4.82678e-10
7.11183e-05
5.46641e-11
-6.64779e-12
-1.02202e-11
4.92666e-10
8.28224e-05
-1.94515e-11
-3.67887e-10
8.28224e-05
2.14395e-11
-1.32811e-10
-2.85565e-12
5.04933e-10
9.62358e-05
-5.96619e-14
-4.9453e-10
9.62358e-05
-7.89426e-13
6.11025e-12
-4.18954e-13
4.90706e-10
9.62355e-05
1.94672e-11
-4.97905e-10
9.62355e-05
-2.2865e-11
8.23877e-12
1.92933e-12
4.90884e-10
8.28214e-05
4.48312e-11
-3.72251e-10
8.28214e-05
-5.56516e-11
-1.32752e-10
9.35228e-12
5.04957e-10
7.1116e-05
6.36669e-11
-4.85965e-10
7.1116e-05
-8.08875e-11
-5.5764e-12
1.60017e-11
4.90117e-10
6.08484e-05
6.69972e-11
-5.36825e-10
6.08483e-05
-8.72345e-11
1.54633e-10
1.92442e-11
3.8093e-10
5.18653e-05
-5.00195e-10
5.18652e-05
2.33427e-10
2.66549e-10
6.22876e-05
-7.19712e-11
-6.28157e-10
6.22874e-05
9.71288e-11
3.87729e-10
-2.39691e-11
2.45683e-10
7.30801e-05
-6.9137e-11
-6.82256e-10
7.308e-05
9.03143e-11
3.22195e-10
-2.05228e-11
3.63013e-10
8.54163e-05
-5.02253e-11
-6.36108e-10
8.54162e-05
6.30618e-11
1.41675e-10
-1.29181e-11
4.98509e-10
9.94778e-05
-2.27416e-11
-5.21283e-10
9.94777e-05
2.54845e-11
-1.95723e-11
-3.73802e-12
5.46004e-10
0.000115589
-7.28812e-14
-6.85694e-10
0.000115589
-8.95174e-13
1.44277e-10
-4.73634e-13
5.44149e-10
0.000115589
2.27459e-11
-6.89587e-10
0.000115589
-2.70955e-11
1.47085e-10
2.69447e-12
5.43934e-10
9.94765e-05
5.05655e-11
-5.26382e-10
9.94764e-05
-6.41678e-11
-1.90203e-11
1.19451e-11
5.45359e-10
8.54135e-05
6.98145e-11
-6.39941e-10
8.54133e-05
-9.123e-11
1.43038e-10
2.00286e-11
4.95208e-10
7.30755e-05
7.28233e-11
-6.83517e-10
7.30754e-05
-9.77718e-11
3.22182e-10
2.3816e-11
3.59819e-10
6.22816e-05
-6.29826e-10
6.22814e-05
3.8602e-10
2.43536e-10
7.46666e-05
-7.82419e-11
-7.9282e-10
7.46664e-05
1.08828e-10
5.99316e-10
-2.92492e-11
1.9979e-10
8.76139e-05
-7.44881e-11
-8.72171e-10
8.76137e-05
1.00828e-10
5.6385e-10
-2.56007e-11
3.1187e-10
0.000102414
-5.43893e-11
-8.37693e-10
0.000102413
7.07175e-11
3.70474e-10
-1.64233e-11
4.72129e-10
0.00011928
-2.57448e-11
-7.28319e-10
0.00011928
2.95119e-11
1.75863e-10
-4.88944e-12
5.58633e-10
0.0001386
-9.63331e-14
-9.37566e-10
0.000138599
-9.85225e-13
3.71113e-10
-5.2858e-13
5.69673e-10
0.000138599
2.57215e-11
-9.4202e-10
0.000138599
-3.12772e-11
3.74743e-10
3.72627e-12
5.68927e-10
0.000119278
5.47308e-11
-7.34169e-10
0.000119278
-7.19144e-11
1.77095e-10
1.53394e-11
5.57046e-10
0.00010241
7.52008e-11
-8.42122e-10
0.00010241
-1.01788e-10
3.72164e-10
2.50334e-11
4.67972e-10
8.76084e-05
7.91575e-11
-8.73651e-10
8.76081e-05
-1.09485e-10
5.63648e-10
2.90625e-11
3.08199e-10
7.46594e-05
-7.94716e-10
7.46592e-05
5.96842e-10
1.97549e-10
8.93727e-05
-8.4761e-11
-9.98011e-10
8.93724e-05
1.20709e-10
8.78231e-10
-3.44731e-11
1.27199e-10
0.000104885
-8.02324e-11
-1.1146e-09
0.000104884
1.1224e-10
8.92921e-10
-3.11923e-11
2.25883e-10
0.000122616
-5.80073e-11
-1.10297e-09
0.000122616
7.8616e-11
7.02542e-10
-2.07218e-11
4.06269e-10
0.00014282
-2.79069e-11
-1.00466e-09
0.00014282
3.31351e-11
4.82721e-10
-6.44011e-12
5.29212e-10
0.000165954
-1.36331e-13
-1.26499e-09
0.000165954
-1.04071e-12
7.15844e-10
-5.80389e-13
5.5291e-10
0.000165953
2.78275e-11
-1.27005e-09
0.000165953
-3.49898e-11
7.20429e-10
5.16162e-12
5.51512e-10
0.000142818
5.83423e-11
-1.01136e-09
0.000142818
-7.98631e-11
4.84811e-10
1.95193e-11
5.26523e-10
0.000122612
8.09844e-11
-1.10799e-09
0.000122612
-1.13206e-10
7.04559e-10
3.05225e-11
4.01142e-10
0.000104878
8.57352e-11
-1.11645e-09
0.000104877
-1.21344e-10
8.92356e-10
3.42228e-11
2.21974e-10
8.9364e-05
-1.00012e-09
8.93637e-05
8.74875e-10
1.24859e-10
0.000106834
-9.10685e-11
-1.24378e-09
0.000106833
1.31092e-10
1.22803e-09
-3.84408e-11
2.43747e-11
0.000125397
-8.602e-11
-1.41387e-09
0.000125397
1.23201e-10
1.31742e-09
-3.6303e-11
1.01362e-10
0.000146619
-6.17839e-11
-1.44378e-09
0.000146619
8.70015e-11
1.15658e-09
-2.53505e-11
2.94051e-10
0.000170794
-3.05443e-11
-1.36922e-09
0.000170793
3.76502e-11
9.31956e-10
-8.38593e-12
4.45688e-10
0.00019846
-1.66438e-13
-1.68728e-09
0.00019846
-1.06147e-12
1.21306e-09
-6.27954e-13
4.7856e-10
0.000198459
3.04343e-11
-1.6929e-09
0.000198459
-3.95241e-11
1.21865e-09
6.99094e-12
4.76387e-10
0.000170791
6.21304e-11
-1.37682e-09
0.000170791
-8.82432e-11
9.34967e-10
2.40133e-11
4.41822e-10
0.000146614
8.68118e-11
-1.44927e-09
0.000146613
-1.24116e-10
1.15883e-09
3.54954e-11
2.87859e-10
0.000125389
9.20922e-11
-1.4159e-09
0.000125389
-1.31644e-10
1.3163e-09
3.80785e-11
9.71532e-11
0.000106823
-1.24605e-09
0.000106823
1.22367e-09
2.19422e-11
0.000127549
-9.65008e-11
-1.52058e-09
0.000127549
1.37326e-10
1.64019e-09
-3.91936e-11
-1.09755e-10
0.000149743
-9.12784e-11
-1.76293e-09
0.000149743
1.31589e-10
1.83266e-09
-3.93955e-11
-6.40947e-11
0.000175117
-6.53562e-11
-1.86122e-09
0.000175116
9.45811e-11
1.74048e-09
-2.93763e-11
1.28665e-10
0.000204014
-3.36695e-11
-1.83197e-09
0.000204013
4.27926e-11
1.54608e-09
-1.04052e-11
2.95443e-10
0.000237066
-1.78498e-13
-2.21453e-09
0.000237065
-1.01651e-12
1.88961e-09
-6.74267e-13
3.29851e-10
0.000237064
3.35685e-11
-2.22064e-09
0.000237064
-4.45617e-11
1.89607e-09
8.88905e-12
3.2694e-10
0.000204011
6.57401e-11
-1.8404e-09
0.00020401
-9.57212e-11
1.54985e-09
2.78825e-11
2.90518e-10
0.00017511
9.21063e-11
-1.867e-09
0.00017511
-1.32351e-10
1.7427e-09
3.83954e-11
1.21471e-10
0.000149734
9.75552e-11
-1.76491e-09
0.000149733
-1.37699e-10
1.83075e-09
3.86423e-11
-6.864e-11
0.000127537
-1.52293e-09
0.000127536
1.63468e-09
-1.12251e-10
0.000152097
-1.00295e-10
-1.80444e-09
0.000152097
1.35733e-10
2.08525e-09
-3.38602e-11
-2.69772e-10
0.000178608
-9.52442e-11
-2.13545e-09
0.000178608
1.34116e-10
2.40905e-09
-3.79676e-11
-2.67292e-10
0.000208919
-6.81682e-11
-2.33588e-09
0.000208918
9.93043e-11
2.43692e-09
-3.13107e-11
-9.2051e-11
0.000243429
-3.7234e-11
-2.37978e-09
0.000243428
4.80248e-11
2.32258e-09
-1.1971e-11
6.77579e-11
0.000282872
-1.60811e-13
-2.83264e-09
0.000282871
-8.61638e-13
2.74663e-09
-7.24378e-13
9.15087e-11
0.00028287
3.72022e-11
-2.83909e-09
0.000282869
-4.9489e-11
2.75356e-09
1.03249e-11
8.81155e-11
0.000243425
6.86269e-11
-2.3888e-09
0.000243424
-1.00193e-10
2.32662e-09
2.96341e-11
6.21197e-11
0.000208911
9.60985e-11
-2.34169e-09
0.00020891
-1.34575e-10
2.43869e-09
3.67001e-11
-9.99778e-11
0.000178597
1.01351e-10
-2.13711e-09
0.000178596
-1.35793e-10
2.40608e-09
3.30117e-11
-2.72117e-10
0.000152082
-1.80673e-09
0.000152082
2.07847e-09
-2.72284e-10
0.000181142
-1.01921e-10
-2.0548e-09
0.000181142
1.22815e-10
2.50328e-09
-1.95317e-11
-4.36435e-10
0.000212783
-9.7238e-11
-2.48038e-09
0.000212783
1.26803e-10
2.97847e-09
-2.87485e-11
-4.91243e-10
0.000248959
-6.95131e-11
-2.81346e-09
0.000248958
9.80435e-11
3.1811e-09
-2.87477e-11
-3.57612e-10
0.000290133
-4.11406e-11
-2.96046e-09
0.000290132
5.23645e-11
3.20391e-09
-1.21501e-11
-2.32185e-10
0.000337154
-9.73505e-14
-3.48368e-09
0.000337153
-5.41666e-13
3.72541e-09
-7.84389e-13
-2.35736e-10
0.000337151
4.12638e-11
-3.49017e-09
0.00033715
-5.32317e-11
3.73215e-09
1.03632e-11
-2.39215e-10
0.000290127
7.00988e-11
-2.9696e-09
0.000290127
-9.84708e-11
3.20745e-09
2.68665e-11
-2.38015e-10
0.000248949
9.81039e-11
-2.81892e-09
0.000248948
-1.2676e-10
3.1818e-09
2.7132e-11
-3.65842e-10
0.000212769
1.0295e-10
-2.48151e-09
0.000212768
-1.22411e-10
2.97422e-09
1.82553e-11
-4.96174e-10
0.000181125
-2.05685e-09
0.000181124
2.49518e-09
-4.38911e-10
0.000215442
-1.01738e-10
-2.21341e-09
0.000215442
9.60604e-11
2.79805e-09
6.57906e-12
-5.7199e-10
0.000253169
-9.71181e-11
-2.72081e-09
0.000253168
1.06703e-10
3.42197e-09
-8.98269e-12
-6.94013e-10
0.000296302
-6.89408e-11
-3.1998e-09
0.000296301
8.7715e-11
3.83963e-09
-1.90838e-11
-6.2889e-10
0.000345376
-4.53164e-11
-3.46072e-09
0.000345375
5.42362e-11
4.04173e-09
-9.40133e-12
-5.69576e-10
0.000401366
3.97256e-14
-4.04208e-09
0.000401365
-8.41851e-15
4.66509e-09
-8.51601e-13
-6.16671e-10
0.000401362
4.57197e-11
-4.04831e-09
0.000401362
-5.41385e-11
4.67093e-09
7.48588e-12
-6.19731e-10
0.000345368
6.97216e-11
-3.46944e-09
0.000345367
-8.74273e-11
4.04397e-09
1.70137e-11
-5.74931e-10
0.000296289
9.79734e-11
-3.20452e-09
0.000296289
-1.05933e-10
3.8387e-09
6.95303e-12
-6.36831e-10
0.000253151
1.02734e-10
-2.72133e-09
0.000253151
-9.50618e-11
3.4164e-09
-8.4285e-12
-6.98787e-10
0.000215421
-2.21501e-09
0.000215421
2.78877e-09
-5.74379e-10
0.000255846
-1.02391e-10
-2.21344e-09
0.000255846
5.55876e-11
2.85121e-09
4.70664e-11
-6.25332e-10
0.000300779
-9.50135e-11
-2.76306e-09
0.000300779
7.40429e-11
3.57115e-09
2.1142e-11
-8.00853e-10
0.000352146
-6.76862e-11
-3.36712e-09
0.000352145
6.85057e-11
4.20363e-09
-1.29779e-12
-8.24925e-10
0.000410562
-4.97731e-11
-3.72138e-09
0.000410561
5.28254e-11
4.58637e-09
-2.85402e-12
-8.54227e-10
0.000477146
3.08853e-13
-4.33182e-09
0.000477145
7.42029e-13
5.28804e-09
-9.01533e-13
-9.4984e-10
0.000477142
5.06448e-11
-4.33753e-09
0.000477141
-5.13626e-11
5.29243e-09
8.78531e-13
-9.52025e-10
0.000410552
6.87214e-11
-3.72919e-09
0.000410552
-6.71891e-11
4.58679e-09
-8.8699e-13
-8.58491e-10
0.000352131
9.58247e-11
-3.37077e-09
0.00035213
-7.22965e-11
4.20076e-09
-2.36074e-11
-8.31918e-10
0.000300758
1.0339e-10
-2.7631e-09
0.000300758
-5.3923e-11
3.56462e-09
-4.96269e-11
-8.05156e-10
0.000255821
-2.21475e-09
0.000255821
2.84151e-09
-6.27594e-10
0.00030329
-1.03232e-10
-1.99043e-09
0.000303291
1.77393e-11
2.54917e-09
8.42645e-11
-5.47185e-10
0.000356729
-8.81399e-11
-2.52564e-09
0.00035673
3.36695e-11
3.26448e-09
5.34913e-11
-7.31842e-10
0.00041781
-7.38231e-11
-3.17499e-09
0.00041781
4.98773e-11
4.02309e-09
2.33659e-11
-8.36902e-10
0.000487236
-5.37641e-11
-3.57855e-09
0.000487236
4.66659e-11
4.53367e-09
7.90169e-12
-9.45745e-10
0.000566295
8.5261e-13
-4.16041e-09
0.000566295
1.58147e-12
5.2395e-09
-8.60829e-13
-1.07348e-09
0.00056629
5.54238e-11
-4.16523e-09
0.00056629
-4.35767e-11
5.24225e-09
-9.72224e-12
-1.07471e-09
0.000487224
7.50438e-11
-3.58478e-09
0.000487224
-4.71143e-11
4.53228e-09
-2.54477e-11
-9.4874e-10
0.000417792
8.88489e-11
-3.17755e-09
0.000417792
-3.07673e-11
4.01867e-09
-5.62794e-11
-8.42367e-10
0.000356705
1.04055e-10
-2.52538e-09
0.000356705
-1.51695e-11
3.25761e-09
-8.76385e-11
-7.35311e-10
0.000303261
-1.9913e-09
0.000303261
2.53966e-09
-5.4906e-10
0.000358772
-1.15283e-10
-1.50808e-09
0.000358773
1.08726e-11
1.86515e-09
1.01539e-10
-3.47825e-10
0.000422207
-7.57873e-11
-1.9473e-09
0.000422208
7.87758e-13
2.43709e-09
7.31878e-11
-4.83859e-10
0.000494691
-7.91401e-11
-2.51139e-09
0.000494692
3.77094e-11
3.12699e-09
4.16603e-11
-6.06455e-10
0.000577029
-5.41002e-11
-2.89722e-09
0.00057703
4.07476e-11
3.64342e-09
1.55655e-11
-7.38802e-10
0.000670712
1.59419e-12
-3.36941e-09
0.000670713
2.73954e-12
4.22671e-09
-8.66672e-13
-8.52941e-10
0.000670706
5.65766e-11
-3.37275e-09
0.000670707
-3.51444e-11
4.22775e-09
-1.73088e-11
-8.53334e-10
0.000577014
8.04191e-11
-2.90139e-09
0.000577015
-3.26299e-11
3.64078e-09
-4.38217e-11
-7.40473e-10
0.000494669
7.64425e-11
-2.51303e-09
0.00049467
3.76069e-12
3.12243e-09
-7.66134e-11
-6.10265e-10
0.000422177
1.15846e-10
-1.94694e-09
0.000422178
-7.08677e-12
2.43102e-09
-1.06031e-10
-4.86296e-10
0.000358738
-1.50838e-09
0.000358738
1.85689e-09
-3.49126e-10
0.000423264
-1.46847e-10
-8.15364e-10
0.000423265
5.71254e-11
9.50251e-10
8.46103e-11
-1.29509e-10
0.000498355
-8.81433e-11
-1.0644e-09
0.000498357
1.72451e-11
1.25177e-09
6.79746e-11
-1.83629e-10
0.000584127
-8.93799e-11
-1.4019e-09
0.000584128
4.35071e-11
1.66146e-09
4.6841e-11
-2.54302e-10
0.000681493
-5.94177e-11
-1.64938e-09
0.000681494
4.33667e-11
1.99451e-09
1.99709e-11
-3.40695e-10
0.0007922
2.39983e-12
-1.92176e-09
0.000792201
4.20465e-12
2.32619e-09
-7.78054e-13
-4.01982e-10
0.000792192
6.29404e-11
-1.92345e-09
0.000792194
-3.47757e-11
2.32627e-09
-2.15277e-11
-4.01968e-10
0.000681475
9.10251e-11
-1.65146e-09
0.000681477
-3.58855e-11
1.99228e-09
-4.90513e-11
-3.41366e-10
0.0005841
8.87727e-11
-1.40279e-09
0.000584102
-1.08651e-11
1.65849e-09
-7.20256e-11
-2.56367e-10
0.000498321
1.47142e-10
-1.06417e-09
0.000498322
-5.22719e-11
1.24803e-09
-9.01409e-11
-1.84921e-10
0.000423224
-8.1527e-10
0.000423225
9.44969e-10
-1.30126e-10
0.000497476
-1.96015e-10
0.000497477
1.40404e-10
4.80433e-11
0.000585959
-1.18882e-10
0.00058596
7.11305e-11
4.3926e-11
0.000686991
-1.09197e-10
0.000686993
6.89549e-11
4.16739e-11
0.000801617
-6.94614e-11
0.000801619
5.32416e-11
2.20924e-11
0.000931892
3.28372e-12
0.000931894
5.63991e-12
-5.97683e-13
0.000931883
7.42235e-11
0.000931885
-4.16955e-11
-2.33509e-11
0.000801596
1.11426e-10
0.000801598
-5.8931e-11
-4.38572e-11
0.00068696
1.19596e-10
0.000686962
-6.30568e-11
-4.85632e-11
0.000585918
1.96181e-10
0.000585919
-1.34782e-10
-5.44881e-11
0.000497429
0.00049743
)
;

boundaryField
{
    freeSurface
    {
        type            calculated;
        value           uniform 0;
    }
    inlet
    {
        type            cyclic;
        value           nonuniform List<scalar> 
240
(
-3.47989e-06
-4.14697e-06
-4.90973e-06
-5.76777e-06
-6.73096e-06
-6.73089e-06
-5.76752e-06
-4.90925e-06
-4.14631e-06
-3.47914e-06
-6.93675e-06
-8.14843e-06
-9.52727e-06
-1.10966e-05
-1.28946e-05
-1.28945e-05
-1.10965e-05
-9.52695e-06
-8.14788e-06
-6.936e-06
-9.77236e-06
-1.1468e-05
-1.3402e-05
-1.56065e-05
-1.81339e-05
-1.81339e-05
-1.56063e-05
-1.34015e-05
-1.14673e-05
-9.7714e-06
-1.27123e-05
-1.49126e-05
-1.74242e-05
-2.02888e-05
-2.35739e-05
-2.35738e-05
-2.02886e-05
-1.74237e-05
-1.49117e-05
-1.27111e-05
-1.60019e-05
-1.87692e-05
-2.19295e-05
-2.55347e-05
-2.96691e-05
-2.9669e-05
-2.55344e-05
-2.19288e-05
-1.87681e-05
-1.60004e-05
-1.98009e-05
-2.32243e-05
-2.71352e-05
-3.15967e-05
-3.67128e-05
-3.67127e-05
-3.15963e-05
-2.71344e-05
-2.32229e-05
-1.9799e-05
-2.42517e-05
-2.84449e-05
-3.32361e-05
-3.87014e-05
-4.49682e-05
-4.49681e-05
-3.87009e-05
-3.3235e-05
-2.84432e-05
-2.42494e-05
-2.95034e-05
-3.46057e-05
-4.04365e-05
-4.7087e-05
-5.47119e-05
-5.47118e-05
-4.70864e-05
-4.04352e-05
-3.46036e-05
-2.95006e-05
-3.57231e-05
-4.19031e-05
-4.8966e-05
-5.70208e-05
-6.62548e-05
-6.62546e-05
-5.70201e-05
-4.89644e-05
-4.19005e-05
-3.57197e-05
-4.31036e-05
-5.05635e-05
-5.90899e-05
-6.8812e-05
-7.99559e-05
-7.99556e-05
-6.88111e-05
-5.90879e-05
-5.05604e-05
-4.30995e-05
-5.18702e-05
-6.08521e-05
-7.11183e-05
-8.28223e-05
-9.62357e-05
-9.62354e-05
-8.28213e-05
-7.11159e-05
-6.08483e-05
-5.18652e-05
-6.22874e-05
-7.308e-05
-8.54162e-05
-9.94777e-05
-0.000115589
-0.000115589
-9.94764e-05
-8.54133e-05
-7.30754e-05
-6.22815e-05
-7.46664e-05
-8.76137e-05
-0.000102413
-0.00011928
-0.000138599
-0.000138599
-0.000119278
-0.00010241
-8.76082e-05
-7.46592e-05
-8.93725e-05
-0.000104884
-0.000122616
-0.00014282
-0.000165954
-0.000165953
-0.000142818
-0.000122612
-0.000104878
-8.93638e-05
-0.000106834
-0.000125397
-0.000146619
-0.000170793
-0.00019846
-0.000198459
-0.000170791
-0.000146613
-0.000125389
-0.000106823
-0.000127549
-0.000149743
-0.000175116
-0.000204014
-0.000237065
-0.000237064
-0.00020401
-0.00017511
-0.000149733
-0.000127536
-0.000152097
-0.000178608
-0.000208918
-0.000243429
-0.000282871
-0.00028287
-0.000243424
-0.00020891
-0.000178596
-0.000152082
-0.000181142
-0.000212783
-0.000248958
-0.000290133
-0.000337153
-0.000337151
-0.000290127
-0.000248948
-0.000212768
-0.000181124
-0.000215442
-0.000253169
-0.000296301
-0.000345375
-0.000401365
-0.000401362
-0.000345368
-0.000296289
-0.000253151
-0.000215421
-0.000255846
-0.000300779
-0.000352146
-0.000410562
-0.000477146
-0.000477142
-0.000410552
-0.000352131
-0.000300758
-0.000255821
-0.000303291
-0.00035673
-0.00041781
-0.000487236
-0.000566295
-0.00056629
-0.000487224
-0.000417792
-0.000356705
-0.000303261
-0.000358773
-0.000422207
-0.000494692
-0.00057703
-0.000670713
-0.000670706
-0.000577015
-0.00049467
-0.000422178
-0.000358738
-0.000423264
-0.000498356
-0.000584128
-0.000681494
-0.000792201
-0.000792193
-0.000681477
-0.000584102
-0.000498322
-0.000423224
-0.000497477
-0.00058596
-0.000686993
-0.000801618
-0.000931894
-0.000931885
-0.000801598
-0.000686962
-0.000585919
-0.00049743
)
;
    }
    outlet
    {
        type            cyclic;
        value           nonuniform List<scalar> 
240
(
3.47989e-06
4.14697e-06
4.90973e-06
5.76777e-06
6.73096e-06
6.73089e-06
5.76752e-06
4.90925e-06
4.14631e-06
3.47914e-06
6.93675e-06
8.14843e-06
9.52727e-06
1.10966e-05
1.28946e-05
1.28945e-05
1.10965e-05
9.52695e-06
8.14788e-06
6.936e-06
9.77236e-06
1.1468e-05
1.3402e-05
1.56065e-05
1.81339e-05
1.81339e-05
1.56063e-05
1.34015e-05
1.14673e-05
9.7714e-06
1.27123e-05
1.49126e-05
1.74242e-05
2.02888e-05
2.35739e-05
2.35738e-05
2.02886e-05
1.74237e-05
1.49117e-05
1.27111e-05
1.60019e-05
1.87692e-05
2.19295e-05
2.55347e-05
2.96691e-05
2.9669e-05
2.55344e-05
2.19288e-05
1.87681e-05
1.60004e-05
1.98009e-05
2.32243e-05
2.71352e-05
3.15967e-05
3.67128e-05
3.67127e-05
3.15963e-05
2.71344e-05
2.32229e-05
1.9799e-05
2.42517e-05
2.84449e-05
3.32361e-05
3.87014e-05
4.49682e-05
4.49681e-05
3.87009e-05
3.3235e-05
2.84432e-05
2.42494e-05
2.95034e-05
3.46057e-05
4.04365e-05
4.7087e-05
5.47119e-05
5.47118e-05
4.70864e-05
4.04352e-05
3.46036e-05
2.95006e-05
3.57231e-05
4.19031e-05
4.8966e-05
5.70208e-05
6.62548e-05
6.62546e-05
5.70201e-05
4.89644e-05
4.19005e-05
3.57197e-05
4.31036e-05
5.05635e-05
5.90899e-05
6.8812e-05
7.99559e-05
7.99556e-05
6.88111e-05
5.90879e-05
5.05604e-05
4.30995e-05
5.18702e-05
6.08521e-05
7.11183e-05
8.28223e-05
9.62357e-05
9.62354e-05
8.28213e-05
7.11159e-05
6.08483e-05
5.18652e-05
6.22874e-05
7.308e-05
8.54162e-05
9.94777e-05
0.000115589
0.000115589
9.94764e-05
8.54133e-05
7.30754e-05
6.22815e-05
7.46664e-05
8.76137e-05
0.000102413
0.00011928
0.000138599
0.000138599
0.000119278
0.00010241
8.76082e-05
7.46592e-05
8.93725e-05
0.000104884
0.000122616
0.00014282
0.000165954
0.000165953
0.000142818
0.000122612
0.000104878
8.93638e-05
0.000106834
0.000125397
0.000146619
0.000170793
0.00019846
0.000198459
0.000170791
0.000146613
0.000125389
0.000106823
0.000127549
0.000149743
0.000175116
0.000204014
0.000237065
0.000237064
0.00020401
0.00017511
0.000149733
0.000127536
0.000152097
0.000178608
0.000208918
0.000243429
0.000282871
0.00028287
0.000243424
0.00020891
0.000178596
0.000152082
0.000181142
0.000212783
0.000248958
0.000290133
0.000337153
0.000337151
0.000290127
0.000248948
0.000212768
0.000181124
0.000215442
0.000253169
0.000296301
0.000345375
0.000401365
0.000401362
0.000345368
0.000296289
0.000253151
0.000215421
0.000255846
0.000300779
0.000352146
0.000410562
0.000477146
0.000477142
0.000410552
0.000352131
0.000300758
0.000255821
0.000303291
0.00035673
0.00041781
0.000487236
0.000566295
0.00056629
0.000487224
0.000417792
0.000356705
0.000303261
0.000358773
0.000422207
0.000494692
0.00057703
0.000670713
0.000670706
0.000577015
0.00049467
0.000422178
0.000358738
0.000423264
0.000498356
0.000584128
0.000681494
0.000792201
0.000792193
0.000681477
0.000584102
0.000498322
0.000423224
0.000497477
0.00058596
0.000686993
0.000801618
0.000931894
0.000931885
0.000801598
0.000686962
0.000585919
0.00049743
)
;
    }
    sidewalls
    {
        type            calculated;
        value           nonuniform 0();
    }
    noSlipWalls
    {
        type            calculated;
        value           uniform 0;
    }
    procBoundary1to0
    {
        type            processor;
        value           nonuniform List<scalar> 
72
(
6.93656e-12
-8.83567e-12
1.75128e-12
1.31688e-11
-1.64095e-11
2.94607e-12
1.79656e-11
-2.20257e-11
3.64833e-12
2.27373e-11
-2.7576e-11
4.30771e-12
2.78762e-11
-3.36489e-11
5.11136e-12
3.36806e-11
-4.05659e-11
6.07776e-12
4.02239e-11
-4.84083e-11
7.21174e-12
4.70953e-11
-5.68796e-11
8.62517e-12
5.38862e-11
-6.57179e-11
1.0465e-11
6.00614e-11