# Wall shear stress
# Time        	patch         	min           	max           
0.000000e+00	roughCylinder	(-4.055159e-04 -4.319855e-05 -3.433844e-04)	(-9.578028e-05 4.319855e-05 3.433844e-04)
0.000000e+00	sideWall	(-8.939782e-05 -2.643989e-06 -4.868125e-12)	(-1.521109e-05 2.630665e-06 4.717091e-12)
0.000000e+00	bottom	(-6.684515e-04 -5.609005e-11 -3.118210e-05)	(-2.943308e-04 5.603008e-11 3.118209e-05)
2.000000e-01	roughCylinder	(-2.068978e-03 -1.114487e-03 -1.926553e-04)	(6.016729e-05 1.112245e-03 2.637413e-04)
2.000000e-01	sideWall	(-3.446403e-04 -3.328706e-05 -1.316364e-05)	(-2.688463e-05 3.345214e-05 5.680992e-05)
2.000000e-01	bottom	(-2.161676e-03 -1.378951e-03 -5.937851e-05)	(3.208222e-04 1.380199e-03 6.763731e-05)
4.000000e-01	roughCylinder	(-2.338495e-03 -1.290387e-03 -1.967290e-04)	(1.362719e-04 1.289612e-03 3.514748e-04)
4.000000e-01	sideWall	(-3.440644e-04 -2.450118e-05 -9.240254e-06)	(-2.248992e-05 2.417758e-05 5.025208e-05)
4.000000e-01	bottom	(-2.218062e-03 -1.389291e-03 -5.728984e-05)	(3.189668e-04 1.389602e-03 6.605063e-05)
6.000000e-01	roughCylinder	(-2.422252e-03 -1.357335e-03 -2.216295e-04)	(1.844103e-04 1.356930e-03 4.069026e-04)
6.000000e-01	sideWall	(-3.409472e-04 -1.946621e-05 -6.419340e-06)	(-1.966426e-05 1.892833e-05 4.378452e-05)
6.000000e-01	bottom	(-2.170837e-03 -1.421583e-03 -6.122067e-05)	(3.544933e-04 1.421731e-03 6.777759e-05)
8.000000e-01	roughCylinder	(-2.421969e-03 -1.373319e-03 -2.337282e-04)	(2.731699e-04 1.373135e-03 4.430700e-04)
8.000000e-01	sideWall	(-3.367550e-04 -1.675359e-05 -4.980464e-06)	(-1.786594e-05 1.619136e-05 3.818442e-05)
8.000000e-01	bottom	(-2.159144e-03 -1.441455e-03 -7.365856e-05)	(4.483534e-04 1.441617e-03 6.880662e-05)
1.000000e+00	roughCylinder	(-2.384473e-03 -1.367036e-03 -2.370130e-04)	(3.069960e-04 1.367050e-03 4.668833e-04)
1.000000e+00	sideWall	(-3.323112e-04 -1.512918e-05 -4.751339e-06)	(-1.665171e-05 1.455827e-05 3.357783e-05)
1.000000e+00	bottom	(-2.130170e-03 -1.449212e-03 -7.316349e-05)	(5.429762e-04 1.449400e-03 6.902600e-05)
1.200000e+00	roughCylinder	(-2.332221e-03 -1.354334e-03 -2.473889e-04)	(3.032552e-04 1.354305e-03 4.828662e-04)
1.200000e+00	sideWall	(-3.304535e-04 -1.407011e-05 -4.625313e-06)	(-1.575627e-05 1.352289e-05 2.989476e-05)
1.200000e+00	bottom	(-2.084939e-03 -1.453861e-03 -6.420627e-05)	(6.479348e-04 1.453994e-03 6.881711e-05)
1.400000e+00	roughCylinder	(-2.282281e-03 -1.341757e-03 -2.887715e-04)	(2.887320e-04 1.341395e-03 4.935128e-04)
1.400000e+00	sideWall	(-3.292774e-04 -1.345118e-05 -4.751729e-06)	(-1.504101e-05 1.292547e-05 2.702584e-05)
1.400000e+00	bottom	(-2.035926e-03 -1.463725e-03 -5.227895e-05)	(7.657247e-04 1.463828e-03 6.847304e-05)
1.600000e+00	roughCylinder	(-2.235802e-03 -1.330444e-03 -2.762711e-04)	(2.822487e-04 1.330149e-03 5.007433e-04)
1.600000e+00	sideWall	(-3.281329e-04 -1.321294e-05 -4.825063e-06)	(-1.444643e-05 1.270961e-05 2.486309e-05)
1.600000e+00	bottom	(-1.988314e-03 -1.468795e-03 -4.548176e-05)	(8.769573e-04 1.468903e-03 6.840555e-05)
1.800000e+00	roughCylinder	(-2.195609e-03 -1.320623e-03 -2.589213e-04)	(2.898617e-04 1.320122e-03 5.057556e-04)
1.800000e+00	sideWall	(-3.268599e-04 -1.325909e-05 -4.859242e-06)	(-1.395403e-05 1.278551e-05 2.329818e-05)
1.800000e+00	bottom	(-1.947032e-03 -1.470772e-03 -5.226794e-05)	(9.629701e-04 1.470754e-03 6.923981e-05)
2.000000e+00	roughCylinder	(-2.160919e-03 -1.311815e-03 -2.396743e-04)	(3.111153e-04 1.311128e-03 5.093040e-04)
2.000000e+00	sideWall	(-3.256062e-04 -1.342424e-05 -4.861026e-06)	(-1.356063e-05 1.297248e-05 2.221852e-05)
2.000000e+00	bottom	(-1.910805e-03 -1.470675e-03 -4.155341e-05)	(1.006147e-03 1.470572e-03 6.982530e-05)
3.000000e+00	roughCylinder	(-2.048595e-03 -1.280162e-03 -2.052188e-04)	(2.069652e-04 1.280534e-03 5.175082e-04)
3.000000e+00	sideWall	(-3.225818e-04 -1.351409e-05 -4.748911e-06)	(-1.278069e-05 1.302065e-05 2.056668e-05)
3.000000e+00	bottom	(-1.805338e-03 -1.459813e-03 -4.132362e-05)	(7.556623e-04 1.459590e-03 7.092122e-05)
4.000000e+00	roughCylinder	(-2.013822e-03 -1.269749e-03 -1.984239e-04)	(1.505836e-04 1.270929e-03 5.206862e-04)
4.000000e+00	sideWall	(-3.231818e-04 -1.350612e-05 -4.585348e-06)	(-1.269088e-05 1.302171e-05 2.037661e-05)
4.000000e+00	bottom	(-1.746461e-03 -1.447543e-03 -4.152278e-05)	(4.730580e-04 1.447865e-03 7.107997e-05)
5.000000e+00	roughCylinder	(-2.010432e-03 -1.268633e-03 -1.943624e-04)	(1.413476e-04 1.268982e-03 5.232523e-04)
5.000000e+00	sideWall	(-3.272494e-04 -1.350495e-05 -4.509508e-06)	(-1.267163e-05 1.302185e-05 2.031699e-05)
5.000000e+00	bottom	(-1.697735e-03 -1.438111e-03 -6.276604e-05)	(4.758333e-04 1.438252e-03 7.110778e-05)
6.000000e+00	roughCylinder	(-2.009220e-03 -1.267917e-03 -1.916880e-04)	(1.413207e-04 1.266718e-03 5.241257e-04)
6.000000e+00	sideWall	(-3.318580e-04 -1.350481e-05 -4.914559e-06)	(-1.266968e-05 1.302151e-05 2.030607e-05)
6.000000e+00	bottom	(-1.664552e-03 -1.432108e-03 -5.726053e-05)	(4.781166e-04 1.431645e-03 7.115830e-05)
7.000000e+00	roughCylinder	(-2.003032e-03 -1.265671e-03 -1.901109e-04)	(1.411993e-04 1.264998e-03 5.239381e-04)
7.000000e+00	sideWall	(-3.331953e-04 -1.350407e-05 -4.854978e-06)	(-1.266972e-05 1.302075e-05 2.030405e-05)
7.000000e+00	bottom	(-1.644537e-03 -1.427950e-03 -3.759456e-05)	(4.792578e-04 1.427899e-03 7.116066e-05)
8.000000e+00	roughCylinder	(-2.001429e-03 -1.264387e-03 -1.889271e-04)	(1.410073e-04 1.264577e-03 5.236688e-04)
8.000000e+00	sideWall	(-3.309990e-04 -1.350369e-05 -4.181028e-06)	(-1.266978e-05 1.302026e-05 2.030351e-05)
8.000000e+00	bottom	(-1.631517e-03 -1.424638e-03 -5.092207e-05)	(4.796432e-04 1.424792e-03 7.112138e-05)
9.000000e+00	roughCylinder	(-1.999076e-03 -1.263758e-03 -1.879698e-04)	(1.408568e-04 1.263130e-03 5.235299e-04)
9.000000e+00	sideWall	(-3.294305e-04 -1.350352e-05 -4.009330e-06)	(-1.266972e-05 1.302006e-05 2.030332e-05)
9.000000e+00	bottom	(-1.619940e-03 -1.422355e-03 -3.129552e-05)	(4.800160e-04 1.421694e-03 7.109396e-05)
1.000000e+01	roughCylinder	(-1.996677e-03 -1.262461e-03 -1.871933e-04)	(1.407212e-04 1.262064e-03 5.233858e-04)
1.000000e+01	sideWall	(-3.295437e-04 -1.350352e-05 -4.156388e-06)	(-1.266962e-05 1.302011e-05 2.030316e-05)
1.000000e+01	bottom	(-1.610470e-03 -1.419699e-03 -3.273994e-05)	(4.910247e-04 1.420098e-03 7.107584e-05)
1.100000e+01	roughCylinder	(-1.991504e-03 -1.261148e-03 -1.865704e-04)	(1.406124e-04 1.261235e-03 5.232979e-04)
1.100000e+01	sideWall	(-3.299996e-04 -1.350364e-05 -4.192971e-06)	(-1.266962e-05 1.302024e-05 2.030322e-05)
1.100000e+01	bottom	(-1.604531e-03 -1.418463e-03 -3.570554e-05)	(4.977573e-04 1.418098e-03 7.106060e-05)
1.200000e+01	roughCylinder	(-1.992896e-03 -1.259664e-03 -1.860959e-04)	(1.405394e-04 1.261391e-03 5.232454e-04)
1.200000e+01	sideWall	(-3.304366e-04 -1.350368e-05 -4.183699e-06)	(-1.266962e-05 1.302028e-05 2.030320e-05)
1.200000e+01	bottom	(-1.598955e-03 -1.416983e-03 -3.726491e-05)	(5.029676e-04 1.417231e-03 7.105081e-05)
1.300000e+01	roughCylinder	(-1.989854e-03 -1.260029e-03 -2.684697e-04)	(3.782801e-04 1.483904e-03 5.232015e-04)
1.300000e+01	sideWall	(-3.307927e-04 -1.350370e-05 -4.179491e-06)	(-1.266962e-05 1.302028e-05 2.030327e-05)
1.300000e+01	bottom	(-1.596273e-03 -1.416283e-03 -4.187819e-05)	(5.077662e-04 1.416017e-03 7.104269e-05)
1.400000e+01	roughCylinder	(-1.985878e-03 -1.259638e-03 -1.854736e-04)	(1.404441e-04 1.259083e-03 5.232005e-04)
1.400000e+01	sideWall	(-3.310002e-04 -1.350372e-05 -4.178370e-06)	(-1.266966e-05 1.302027e-05 2.030336e-05)
1.400000e+01	bottom	(-1.593435e-03 -1.415790e-03 -3.708545e-05)	(5.113255e-04 1.415352e-03 7.103923e-05)
1.500000e+01	roughCylinder	(-1.988011e-03 -1.259711e-03 -1.852887e-04)	(1.404076e-04 1.258425e-03 5.231690e-04)
1.500000e+01	sideWall	(-3.312271e-04 -1.350372e-05 -4.177388e-06)	(-1.266966e-05 1.302028e-05 2.030336e-05)
1.500000e+01	bottom	(-1.592221e-03 -1.415210e-03 -3.957617e-05)	(5.152364e-04 1.415004e-03 7.103333e-05)
1.600000e+01	roughCylinder	(-1.983722e-03 -1.259022e-03 -1.851393e-04)	(1.403796e-04 1.257791e-03 5.231656e-04)
1.600000e+01	sideWall	(-3.313761e-04 -1.350373e-05 -4.176959e-06)	(-1.266966e-05 1.302027e-05 2.030342e-05)
1.600000e+01	bottom	(-1.591450e-03 -1.415103e-03 -4.081772e-05)	(5.177750e-04 1.414408e-03 7.102884e-05)
1.700000e+01	roughCylinder	(-1.982734e-03 -1.257551e-03 -1.850585e-04)	(1.403587e-04 1.258170e-03 5.231652e-04)
1.700000e+01	sideWall	(-3.315334e-04 -1.350371e-05 -4.176233e-06)	(-1.266966e-05 1.302030e-05 2.030336e-05)
1.700000e+01	bottom	(-1.590460e-03 -1.414524e-03 -3.201683e-05)	(5.188256e-04 1.414455e-03 7.102621e-05)
1.800000e+01	roughCylinder	(-1.983301e-03 -1.257710e-03 -1.849315e-04)	(1.403402e-04 1.258457e-03 5.231429e-04)
1.800000e+01	sideWall	(-3.316469e-04 -1.350371e-05 -4.175405e-06)	(-1.266966e-05 1.302031e-05 2.030336e-05)
1.800000e+01	bottom	(-1.589079e-03 -1.414095e-03 -3.362648e-05)	(5.182080e-04 1.414249e-03 7.102259e-05)
1.900000e+01	roughCylinder	(-1.983344e-03 -1.258088e-03 -1.848462e-04)	(1.403258e-04 1.258170e-03 5.231371e-04)
1.900000e+01	sideWall	(-3.317075e-04 -1.350372e-05 -4.174765e-06)	(-1.266966e-05 1.302030e-05 2.030336e-05)
1.900000e+01	bottom	(-1.588874e-03 -1.414022e-03 -4.951857e-05)	(5.172518e-04 1.413996e-03 7.102119e-05)
2.000000e+01	roughCylinder	(-1.983107e-03 -1.258396e-03 -1.848182e-04)	(1.403226e-04 1.257503e-03 5.231454e-04)
2.000000e+01	sideWall	(-3.317319e-04 -1.350373e-05 -4.174730e-06)	(-1.266966e-05 1.302028e-05 2.030342e-05)
2.000000e+01	bottom	(-1.588337e-03 -1.414159e-03 -4.137631e-05)	(5.161542e-04 1.413670e-03 7.102091e-05)
2.100000e+01	roughCylinder	(-1.982458e-03 -1.258026e-03 -1.848065e-04)	(1.403100e-04 1.257645e-03 5.231297e-04)
2.100000e+01	sideWall	(-3.317864e-04 -1.350372e-05 -4.174420e-06)	(-1.266966e-05 1.302030e-05 2.030340e-05)
2.100000e+01	bottom	(-1.588608e-03 -1.413717e-03 -3.843279e-05)	(5.168704e-04 1.413910e-03 7.101898e-05)
2.200000e+01	roughCylinder	(-1.982784e-03 -1.257928e-03 -1.847692e-04)	(2.790212e-04 1.257616e-03 5.231573e-04)
2.200000e+01	sideWall	(-3.318287e-04 -1.350372e-05 -4.174057e-06)	(-1.266966e-05 1.302030e-05 2.030338e-05)
2.200000e+01	bottom	(-1.588191e-03 -1.413854e-03 -3.445436e-05)	(5.168790e-04 1.413837e-03 7.102088e-05)
2.300000e+01	roughCylinder	(-1.984452e-03 -1.258536e-03 -1.847298e-04)	(1.403091e-04 1.256648e-03 5.231383e-04)
2.300000e+01	sideWall	(-3.318428e-04 -1.350373e-05 -4.173970e-06)	(-1.266966e-05 1.302028e-05 2.030342e-05)
2.300000e+01	bottom	(-1.587625e-03 -1.413897e-03 -4.174849e-05)	(5.183799e-04 1.413576e-03 7.101857e-05)
2.400000e+01	roughCylinder	(-1.981609e-03 -1.257204e-03 -2.416427e-04)	(1.439472e-04 1.258548e-03 5.231536e-04)
2.400000e+01	sideWall	(-3.318378e-04 -1.350368e-05 -4.174507e-06)	(-1.266962e-05 1.302036e-05 2.030327e-05)
2.400000e+01	bottom	(-1.586723e-03 -1.413134e-03 -4.494514e-05)	(5.167160e-04 1.413769e-03 7.101688e-05)
2.500000e+01	roughCylinder	(-1.989847e-03 -1.253110e-03 -1.850874e-04)	(1.403873e-04 1.263301e-03 5.232082e-04)
2.500000e+01	sideWall	(-3.319335e-04 -1.350349e-05 -4.177261e-06)	(-1.266948e-05 1.302053e-05 2.030268e-05)
2.500000e+01	bottom	(-1.586376e-03 -1.409548e-03 -3.578571e-05)	(5.119432e-04 1.417775e-03 7.102578e-05)
2.600000e+01	roughCylinder	(-1.984749e-03 -1.258192e-03 -1.852198e-04)	(1.403383e-04 1.257934e-03 5.231781e-04)
2.600000e+01	sideWall	(-3.317672e-04 -1.350376e-05 -4.178427e-06)	(-1.266966e-05 1.302026e-05 2.030327e-05)
2.600000e+01	bottom	(-1.594163e-03 -1.414263e-03 -3.239843e-05)	(5.232430e-04 1.413725e-03 7.102669e-05)
2.700000e+01	roughCylinder	(-1.985289e-03 -1.258599e-03 -1.849565e-04)	(1.403423e-04 1.257949e-03 5.231798e-04)
2.700000e+01	sideWall	(-3.314391e-04 -1.350376e-05 -4.174365e-06)	(-1.266971e-05 1.302029e-05 2.030360e-05)
2.700000e+01	bottom	(-1.590119e-03 -1.415382e-03 -3.690621e-05)	(5.316305e-04 1.412606e-03 7.102351e-05)
2.800000e+01	roughCylinder	(-1.985655e-03 -1.257452e-03 -1.849861e-04)	(1.403442e-04 1.259718e-03 5.231752e-04)
2.800000e+01	sideWall	(-3.317452e-04 -1.350362e-05 -4.176396e-06)	(-1.266962e-05 1.302039e-05 2.030313e-05)
2.800000e+01	bottom	(-1.590969e-03 -1.412276e-03 -3.284021e-05)	(5.299363e-04 1.415536e-03 7.102264e-05)
2.900000e+01	roughCylinder	(-1.989051e-03 -1.260846e-03 -1.851157e-04)	(1.403591e-04 1.256155e-03 5.232057e-04)
2.900000e+01	sideWall	(-3.315920e-04 -1.350383e-05 -4.174950e-06)	(-1.266971e-05 1.302017e-05 2.030365e-05)
2.900000e+01	bottom	(-1.592185e-03 -1.415991e-03 -4.754920e-05)	(5.279765e-04 1.412100e-03 7.102614e-05)
3.000000e+01	roughCylinder	(-1.987199e-03 -1.256823e-03 -1.851253e-04)	(1.403577e-04 1.259715e-03 5.232074e-04)
3.000000e+01	sideWall	(-3.315997e-04 -1.350362e-05 -4.175337e-06)	(-1.266962e-05 1.302039e-05 2.030327e-05)
3.000000e+01	bottom	(-1.592277e-03 -1.412898e-03 -3.386083e-05)	(5.210255e-04 1.415313e-03 7.102771e-05)
3.100000e+01	roughCylinder	(-1.989036e-03 -1.260080e-03 -1.851097e-04)	(1.403597e-04 1.257074e-03 5.232101e-04)
3.100000e+01	sideWall	(-3.316988e-04 -1.350376e-05 -4.175464e-06)	(-1.266966e-05 1.302021e-05 2.030345e-05)
3.100000e+01	bottom	(-1.592659e-03 -1.415249e-03 -3.622397e-05)	(5.207595e-04 1.413164e-03 7.102805e-05)
3.200000e+01	roughCylinder	(-1.987593e-03 -1.258016e-03 -1.850070e-04)	(1.403538e-04 1.259385e-03 5.231917e-04)
3.200000e+01	sideWall	(-3.315257e-04 -1.350370e-05 -4.176780e-06)	(-1.266966e-05 1.302034e-05 2.030338e-05)
3.200000e+01	bottom	(-1.590609e-03 -1.413919e-03 -3.999541e-05)	(5.204895e-04 1.414357e-03 7.102783e-05)
3.300000e+01	roughCylinder	(-1.987673e-03 -1.259358e-03 -1.849051e-04)	(1.403487e-04 1.258195e-03 5.231816e-04)
3.300000e+01	sideWall	(-3.317026e-04 -1.350372e-05 -4.175249e-06)	(-1.266966e-05 1.302028e-05 2.030331e-05)
3.300000e+01	bottom	(-1.588426e-03 -1.414052e-03 -4.139951e-05)	(5.202023e-04 1.414065e-03 7.102743e-05)
3.400000e+01	roughCylinder	(-1.986730e-03 -1.258999e-03 -1.848882e-04)	(1.403531e-04 1.258571e-03 5.231899e-04)
3.400000e+01	sideWall	(-3.315356e-04 -1.350373e-05 -4.176569e-06)	(-1.266966e-05 1.302027e-05 2.030349e-05)
3.400000e+01	bottom	(-1.589110e-03 -1.414854e-03 -3.679502e-05)	(5.206054e-04 1.413421e-03 7.102766e-05)
3.500000e+01	roughCylinder	(-1.986802e-03 -1.258401e-03 -1.849503e-04)	(1.403512e-04 1.259057e-03 5.231885e-04)
3.500000e+01	sideWall	(-3.316866e-04 -1.350368e-05 -4.175120e-06)	(-1.266962e-05 1.302032e-05 2.030322e-05)
3.500000e+01	bottom	(-1.590114e-03 -1.413421e-03 -4.717810e-05)	(5.209355e-04 1.414897e-03 7.102715e-05)
3.600000e+01	roughCylinder	(-1.987726e-03 -1.259854e-03 -1.850316e-04)	(1.403526e-04 1.256597e-03 5.231947e-04)
3.600000e+01	sideWall	(-3.316122e-04 -1.350377e-05 -4.175892e-06)	(-1.266971e-05 1.302021e-05 2.030356e-05)
3.600000e+01	bottom	(-1.592248e-03 -1.415455e-03 -3.585504e-05)	(5.219733e-04 1.412928e-03 7.102578e-05)
3.700000e+01	roughCylinder	(-1.985162e-03 -1.257901e-03 -1.850474e-04)	(1.403448e-04 1.259043e-03 5.231836e-04)
3.700000e+01	sideWall	(-3.316645e-04 -1.350368e-05 -4.175233e-06)	(-1.266962e-05 1.302036e-05 2.030327e-05)
3.700000e+01	bottom	(-1.592406e-03 -1.413211e-03 -3.462456e-05)	(5.210127e-04 1.415021e-03 7.102471e-05)
3.800000e+01	roughCylinder	(-1.987169e-03 -1.259656e-03 -1.850127e-04)	(1.403446e-04 1.257288e-03 5.231714e-04)
3.800000e+01	sideWall	(-3.317098e-04 -1.350376e-05 -4.175274e-06)	(-1.266966e-05 1.302021e-05 2.030349e-05)
3.800000e+01	bottom	(-1.590494e-03 -1.415038e-03 -3.854553e-05)	(5.191344e-04 1.412997e-03 7.102376e-05)
3.900000e+01	roughCylinder	(-1.986713e-03 -1.257727e-03 -1.850140e-04)	(1.403413e-04 1.259381e-03 5.231741e-04)
3.900000e+01	sideWall	(-3.316492e-04 -1.350368e-05 -4.175396e-06)	(-1.266961e-05 1.302036e-05 2.030331e-05)
3.900000e+01	bottom	(-1.591184e-03 -1.413121e-03 -5.017345e-05)	(5.180495e-04 1.414871e-03 7.102405e-05)
4.000000e+01	roughCylinder	(-1.987316e-03 -1.259389e-03 -1.849541e-04)	(1.403415e-04 1.257601e-03 5.231782e-04)
4.000000e+01	sideWall	(-3.317483e-04 -1.350375e-05 -4.174821e-06)	(-1.266966e-05 1.302027e-05 2.030338e-05)
4.000000e+01	bottom	(-1.590601e-03 -1.414455e-03 -3.738010e-05)	(5.179553e-04 1.413614e-03 7.102557e-05)
4.100000e+01	roughCylinder	(-1.984895e-03 -1.258209e-03 -1.848936e-04)	(1.403389e-04 1.258448e-03 5.231767e-04)
4.100000e+01	sideWall	(-3.316122e-04 -1.350372e-05 -4.175709e-06)	(-1.266966e-05 1.302033e-05 2.030345e-05)
4.100000e+01	bottom	(-1.589193e-03 -1.414159e-03 -3.570850e-05)	(5.188859e-04 1.413885e-03 7.102579e-05)
4.200000e+01	roughCylinder	(-1.987272e-03 -1.259101e-03 -1.848365e-04)	(1.403375e-04 1.257299e-03 5.231807e-04)
4.200000e+01	sideWall	(-3.317590e-04 -1.350372e-05 -4.174562e-06)	(-1.266966e-05 1.302030e-05 2.030336e-05)
4.200000e+01	bottom	(-1.588861e-03 -1.413807e-03 -3.633884e-05)	(5.207769e-04 1.414288e-03 7.102529e-05)
4.300000e+01	roughCylinder	(-1.984997e-03 -1.259304e-03 -1.848819e-04)	(1.403401e-04 1.257024e-03 5.231832e-04)
4.300000e+01	sideWall	(-3.316583e-04 -1.350376e-05 -4.175967e-06)	(-1.266971e-05 1.302026e-05 2.030356e-05)
4.300000e+01	bottom	(-1.589979e-03 -1.415146e-03 -3.757976e-05)	(5.209484e-04 1.412954e-03 7.102336e-05)
4.400000e+01	roughCylinder	(-1.984681e-03 -1.257624e-03 -1.849822e-04)	(1.403375e-04 1.258898e-03 5.231795e-04)
4.400000e+01	sideWall	(-3.317750e-04 -1.350368e-05 -4.174695e-06)	(-1.266962e-05 1.302036e-05 2.030327e-05)
4.400000e+01	bottom	(-1.591351e-03 -1.413125e-03 -4.036923e-05)	(5.203180e-04 1.414914e-03 7.102323e-05)
4.500000e+01	roughCylinder	(-1.984758e-03 -1.259160e-03 -1.849860e-04)	(1.403349e-04 1.257016e-03 5.231713e-04)
4.500000e+01	sideWall	(-3.317582e-04 -1.350377e-05 -4.175147e-06)	(-1.266966e-05 1.302021e-05 2.030351e-05)
4.500000e+01	bottom	(-1.591969e-03 -1.415206e-03 -4.125072e-05)	(5.190015e-04 1.412748e-03 7.102189e-05)
4.600000e+01	roughCylinder	(-1.986709e-03 -1.257060e-03 -1.849620e-04)	(1.403313e-04 1.259355e-03 5.231722e-04)
4.600000e+01	sideWall	(-3.317269e-04 -1.350368e-05 -4.174979e-06)	(-1.266961e-05 1.302036e-05 2.030331e-05)
4.600000e+01	bottom	(-1.591287e-03 -1.413189e-03 -4.175168e-05)	(5.185898e-04 1.414751e-03 7.102224e-05)
4.700000e+01	roughCylinder	(-1.986295e-03 -1.259166e-03 -1.849199e-04)	(1.403323e-04 1.257340e-03 5.231743e-04)
4.700000e+01	sideWall	(-3.318066e-04 -1.350375e-05 -4.174295e-06)	(-1.266966e-05 1.302027e-05 2.030340e-05)
4.700000e+01	bottom	(-1.590563e-03 -1.414507e-03 -4.249162e-05)	(5.172733e-04 1.413361e-03 7.102314e-05)
4.800000e+01	roughCylinder	(-1.985714e-03 -1.257646e-03 -1.849111e-04)	(1.403342e-04 1.258896e-03 5.231735e-04)
4.800000e+01	sideWall	(-3.316751e-04 -1.350371e-05 -4.175154e-06)	(-1.266966e-05 1.302034e-05 2.030338e-05)
4.800000e+01	bottom	(-1.589613e-03 -1.413721e-03 -4.181109e-05)	(5.176551e-04 1.414215e-03 7.102440e-05)
4.900000e+01	roughCylinder	(-1.986445e-03 -1.258638e-03 -1.847842e-04)	(1.403300e-04 1.258228e-03 5.231650e-04)
4.900000e+01	sideWall	(-3.318020e-04 -1.350371e-05 -4.174968e-06)	(-1.266962e-05 1.302031e-05 2.030327e-05)
4.900000e+01	bottom	(-1.588076e-03 -1.413439e-03 -3.590751e-05)	(5.184999e-04 1.414352e-03 7.102297e-05)
5.000000e+01	roughCylinder	(-1.984394e-03 -1.258913e-03 -1.848604e-04)	(1.403335e-04 1.257018e-03 5.231740e-04)
5.000000e+01	sideWall	(-3.316667e-04 -1.350375e-05 -4.175074e-06)	(-1.266966e-05 1.302027e-05 2.030351e-05)
5.000000e+01	bottom	(-1.589258e-03 -1.414695e-03 -3.752724e-05)	(5.193189e-04 1.413215e-03 7.102382e-05)
