/*--------------------------------*- C++ -*----------------------------------*\
  =========                 |
  \\      /  F ield         | OpenFOAM: The Open Source CFD Toolbox
   \\    /   O peration     | Website:  https://openfoam.org
    \\  /    A nd           | Version:  6
     \\/     M anipulation  |
\*---------------------------------------------------------------------------*/
FoamFile
{
    version     2.0;
    format      ascii;
    class       volScalarField;
    location    "50";
    object      omega;
}
// * * * * * * * * * * * * * * * * * * * * * * * * * * * * * * * * * * * * * //

dimensions      [0 0 -1 0 0 0 0];

internalField   nonuniform List<scalar> 
380496
(
843.917
843.917
843.917
843.917
843.917
843.917
843.917
843.917
843.917
843.917
843.917
843.917
843.917
843.917
843.917
843.917
843.917
843.917
843.917
843.917
843.917
843.917
843.917
843.917
843.917
843.917
843.917
843.917
843.917
843.917
843.917
843.917
843.917
843.917
843.917
843.917
843.917
843.917
843.917
843.917
843.917
843.917
843.917
843.917
843.917
843.917
843.917
843.917
843.917
843.917
843.917
843.917
843.917
843.917
843.917
843.917
843.917
843.917
843.917
843.917
843.917
843.917
843.917
843.917
843.917
843.917
843.917
843.917
843.917
843.917
843.917
843.917
843.917
843.917
843.917
843.917
843.917
843.917
843.917
843.917
843.917
843.917
843.917
843.917
843.917
843.917
843.917
843.917
843.917
843.917
843.917
843.917
843.917
843.917
843.917
843.917
843.917
843.917
843.917
843.917
843.917
843.917
843.917
843.917
843.917
843.917
843.917
843.917
843.917
843.917
843.917
843.917
843.917
843.917
843.917
843.917
843.917
843.917
843.917
843.917
843.917
843.917
843.917
843.917
843.917
843.917
843.917
843.917
843.917
843.917
843.917
843.917
843.917
843.917
843.917
843.917
843.917
843.917
843.917
843.917
843.917
843.917
843.917
843.917
843.917
843.917
843.917
843.917
843.917
843.917
843.917
843.917
843.917
843.917
843.917
843.917
843.917
843.917
843.917
843.917
843.917
843.917
843.917
843.917
843.917
843.917
843.917
843.917
843.917
843.917
843.917
843.917
843.917
843.917
843.917
843.917
843.917
843.917
843.917
843.917
843.917
843.917
843.917
843.917
843.917
843.917
843.917
843.917
843.917
843.917
843.917
843.917
843.917
843.917
843.917
843.917
843.917
843.917
843.917
843.917
843.917
843.917
843.917
843.917
843.917
843.917
843.917
843.917
843.917
843.917
843.917
843.917
843.917
843.917
843.917
843.917
843.917
843.917
843.917
843.917
843.917
843.917
843.917
843.917
843.917
843.917
843.917
843.917
843.917
843.917
843.917
843.917
843.917
843.917
843.917
843.917
843.917
843.917
843.917
843.917
843.917
843.917
843.917
843.917
843.917
843.917
843.917
843.917
843.917
843.917
843.917
843.917
843.917
843.917
843.917
843.917
843.917
843.917
843.917
843.917
843.917
843.917
843.917
843.917
843.917
843.917
843.917
843.917
843.917
843.917
843.917
843.917
843.917
843.917
843.917
843.917
843.917
843.917
843.917
843.917
843.917
843.917
843.917
843.917
843.917
843.917
843.917
843.917
843.917
843.917
843.917
843.917
843.917
843.917
843.917
843.917
843.917
843.917
843.917
843.917
843.917
843.917
843.917
843.917
843.917
843.917
843.917
843.917
843.917
843.917
843.917
843.917
843.917
843.917
843.917
843.917
843.917
843.917
843.917
843.917
843.917
843.917
843.917
843.917
843.917
843.917
843.917
843.917
843.917
843.917
843.917
843.917
843.917
843.917
843.917
843.917
843.917
843.917
843.917
843.917
843.917
843.917
843.917
843.917
843.917
843.917
843.917
843.917
843.917
843.917
843.917
843.917
843.917
843.917
843.917
843.917
843.917
843.917
843.917
843.917
843.917
843.917
843.917
843.917
843.917
843.917
843.917
843.917
843.917
843.917
843.917
843.917
843.917
843.917
843.917
843.917
843.917
843.917
843.917
843.917
843.917
843.917
843.917
843.917
843.917
843.917
843.917
843.917
843.917
843.917
843.917
843.917
843.917
843.917
843.917
843.917
843.917
843.917
843.917
843.917
843.917
843.917
843.917
843.917
843.917
843.917
843.917
843.917
843.917
843.917
843.917
843.917
843.917
843.917
843.917
843.917
843.917
843.917
843.917
843.917
843.917
843.917
843.917
843.917
843.917
843.917
843.917
843.917
843.917
843.917
843.917
843.917
843.917
843.917
843.917
843.917
843.917
843.917
843.917
843.917
843.917
843.917
843.917
843.917
843.917
843.917
843.917
843.917
843.917
843.917
843.917
843.917
843.917
843.917
843.917
843.917
843.917
843.917
843.917
843.917
843.917
843.917
843.917
843.917
843.917
843.917
843.917
843.917
843.917
843.917
843.917
843.917
843.917
843.917
843.917
843.917
843.917
843.917
843.917
843.917
843.917
843.917
843.917
843.917
843.917
843.917
843.917
843.917
843.917
843.917
843.917
843.917
843.917
843.917
843.917
843.917
843.917
843.917
843.917
843.917
843.917
843.917
843.917
843.917
843.917
843.917
843.917
843.917
843.917
843.917
843.917
843.917
843.917
843.917
843.917
843.917
843.917
843.917
843.917
843.917
843.917
843.917
843.917
843.917
843.917
843.917
843.917
843.917
843.917
843.917
843.917
843.917
843.917
843.917
843.917
843.917
843.917
843.917
843.917
843.917
843.917
843.917
843.917
843.917
843.917
843.917
843.917
843.917
843.917
843.917
843.917
843.917
843.917
843.917
843.917
843.917
843.917
843.917
843.917
843.917
843.917
843.917
843.917
843.917
843.917
843.917
843.917
843.917
843.917
843.917
843.917
843.917
843.917
843.917
843.917
843.917
843.917
843.917
843.917
843.917
843.917
843.917
843.917
843.917
843.917
843.917
843.917
843.917
843.917
843.917
843.917
843.917
843.917
843.917
843.917
843.917
843.917
843.917
843.917
843.917
843.917
843.917
843.917
843.917
843.917
843.917
843.917
843.917
843.917
843.917
843.917
843.917
843.917
843.917
843.917
843.917
843.917
843.917
843.917
843.917
843.917
843.917
843.917
843.917
843.917
843.917
843.917
843.917
843.917
843.917
843.917
843.917
843.917
843.917
843.917
843.917
843.917
843.917
843.917
843.917
843.917
843.917
843.917
843.917
843.917
843.917
843.917
843.917
843.917
843.917
843.917
843.917
843.917
843.917
843.917
843.917
843.917
843.917
843.917
843.917
843.917
843.917
843.917
843.917
843.917
843.917
843.917
843.917
843.917
843.917
843.917
843.917
843.917
843.917
843.917
843.917
843.917
843.917
843.917
843.917
843.917
843.917
843.917
843.917
843.917
843.917
843.917
843.917
843.917
843.917
843.917
843.917
843.917
843.917
843.917
843.917
843.917
843.917
843.917
843.917
423.923
423.923
423.923
423.923
423.923
423.923
423.923
423.923
423.923
423.923
423.923
423.923
423.923
423.923
423.923
423.923
423.923
423.923
423.923
423.923
423.923
423.923
423.923
423.923
423.923
423.923
423.923
423.923
423.923
423.923
423.923
423.923
423.923
423.923
423.923
281.629
267.582
268.721
269.808
269.917
269.774
269.681
269.631
269.617
269.609
269.616
269.621
269.637
269.649
269.668
269.687
269.708
269.734
269.758
269.792
269.818
269.86
269.889
269.94
269.973
270.032
270.068
270.134
270.171
270.245
270.281
270.363
270.388
270.491
270.479
281.466
267.568
268.643
269.686
269.768
269.624
269.524
269.478
269.458
269.457
269.459
269.474
269.485
269.509
269.524
269.556
269.574
269.614
269.636
269.685
269.709
269.768
269.795
269.863
269.895
269.971
270.007
270.089
270.128
270.218
270.252
270.353
270.363
270.502
270.393
281.132
267.393
268.471
269.48
269.539
269.387
269.284
269.24
269.221
269.225
269.231
269.254
269.271
269.304
269.326
269.368
269.394
269.445
269.476
269.537
269.572
269.643
269.684
269.765
269.812
269.902
269.954
270.053
270.107
270.216
270.267
270.391
270.417
270.586
270.499
280.564
267.014
268.175
269.159
269.185
269.02
268.914
268.872
268.856
268.867
268.88
268.91
268.935
268.977
269.009
269.061
269.098
269.159
269.201
269.273
269.322
269.404
269.459
269.553
269.613
269.718
269.783
269.9
269.966
270.094
270.157
270.301
270.335
270.531
270.44
280.147
266.778
267.828
268.744
268.751
268.583
268.476
268.436
268.424
268.438
268.457
268.494
268.526
268.576
268.616
268.677
268.724
268.795
268.85
268.933
268.995
269.09
269.159
269.267
269.343
269.464
269.545
269.678
269.762
269.908
269.988
270.154
270.205
270.43
270.347
279.34
266.187
267.274
268.146
268.122
267.943
267.839
267.803
267.8
267.823
267.853
267.901
267.945
268.007
268.06
268.132
268.193
268.277
268.346
268.442
268.519
268.629
268.714
268.838
268.93
269.067
269.164
269.315
269.415
269.58
269.676
269.862
269.927
270.179
270.098
278.498
265.569
266.594
267.397
267.345
267.161
267.059
267.028
267.033
267.065
267.106
267.163
267.219
267.291
267.357
267.441
267.515
267.612
267.695
267.806
267.898
268.023
268.124
268.264
268.373
268.527
268.642
268.811
268.928
269.112
269.225
269.432
269.512
269.792
269.716
277.443
264.75
265.71
266.438
266.358
266.17
266.073
266.051
266.066
266.109
266.162
266.231
266.299
266.383
266.462
266.559
266.647
266.757
266.855
266.981
267.088
267.229
267.346
267.502
267.627
267.798
267.929
268.116
268.249
268.452
268.581
268.807
268.901
269.206
269.131
276.189
263.731
264.634
265.283
265.173
264.982
264.894
264.884
264.915
264.972
265.04
265.123
265.207
265.305
265.398
265.509
265.612
265.737
265.85
265.99
266.114
266.27
266.403
266.575
266.716
266.904
267.051
267.255
267.404
267.624
267.768
268.013
268.121
268.449
268.375
274.955
262.703
263.456
264.017
263.887
263.699
263.62
263.62
263.661
263.729
263.809
263.902
263.997
264.106
264.211
264.333
264.449
264.586
264.712
264.865
265.003
265.173
265.32
265.506
265.662
265.864
266.026
266.244
266.408
266.642
266.8
267.06
267.179
267.527
267.453
273.277
261.259
261.962
262.445
262.287
262.104
262.044
262.066
262.13
262.219
262.318
262.43
262.543
262.666
262.788
262.925
263.057
263.208
263.351
263.519
263.672
263.856
264.02
264.221
264.392
264.609
264.786
265.018
265.197
265.446
265.617
265.893
266.023
266.39
266.315
271.66
259.85
260.321
260.7
260.527
260.355
260.309
260.343
260.42
260.521
260.632
260.754
260.879
261.014
261.148
261.296
261.441
261.604
261.761
261.941
262.109
262.306
262.484
262.698
262.884
263.115
263.306
263.552
263.744
264.007
264.191
264.481
264.622
265.007
264.93
269.372
257.805
258.196
258.498
258.308
258.156
258.144
258.212
258.32
258.448
258.585
258.728
258.874
259.027
259.181
259.345
259.508
259.687
259.861
260.056
260.24
260.453
260.647
260.876
261.078
261.324
261.531
261.792
261.998
262.276
262.474
262.778
262.929
263.332
263.253
267.102
255.735
255.835
256.03
255.834
255.705
255.718
255.807
255.935
256.081
256.234
256.393
256.554
256.721
256.89
257.068
257.246
257.438
257.627
257.836
258.037
258.262
258.473
258.716
258.934
259.193
259.415
259.69
259.912
260.203
260.414
260.732
260.895
261.314
261.232
264.031
252.899
252.827
252.947
252.754
252.669
252.73
252.864
253.03
253.208
253.39
253.574
253.759
253.947
254.136
254.332
254.53
254.739
254.947
255.171
255.39
255.631
255.859
256.117
256.353
256.627
256.866
257.155
257.393
257.698
257.924
258.256
258.431
258.866
258.782
260.55
249.614
249.253
249.3
249.125
249.092
249.202
249.381
249.582
249.794
250.003
250.213
250.418
250.627
250.835
251.049
251.264
251.489
251.714
251.952
252.188
252.443
252.689
252.96
253.213
253.5
253.757
254.059
254.313
254.631
254.873
255.217
255.405
255.854
255.767
256.376
245.609
244.87
244.837
244.692
244.728
244.896
245.125
245.359
245.603
245.833
246.067
246.288
246.516
246.737
246.967
247.194
247.433
247.67
247.922
248.171
248.438
248.699
248.982
249.252
249.551
249.825
250.142
250.412
250.749
251.003
251.368
251.567
252.038
251.955
249.996
239.627
238.84
238.859
238.778
238.91
239.161
239.464
239.751
240.044
240.305
240.571
240.811
241.061
241.293
241.54
241.775
242.029
242.275
242.541
242.801
243.085
243.36
243.663
243.951
244.273
244.567
244.907
245.199
245.557
245.836
246.217
246.446
246.92
246.874
240.798
231.464
230.504
230.69
230.779
231.04
231.359
231.69
231.983
232.27
232.518
232.773
232.998
233.241
233.461
233.708
233.937
234.196
234.44
234.715
234.978
235.283
235.579
235.913
236.234
236.587
236.923
237.29
237.63
238.01
238.34
238.746
239.033
239.518
239.579
214.297
212.135
212.404
213.344
213.991
214.734
215.459
216.133
216.732
217.298
217.808
218.308
218.767
219.233
219.667
220.118
220.54
220.986
221.406
221.853
222.276
222.728
223.154
223.61
224.041
224.497
224.931
225.381
225.813
226.251
226.675
227.087
227.501
227.834
228.427
9.02158
7.66224
7.58866
7.55444
7.60561
7.67577
7.76543
7.85505
7.95386
8.04372
8.13805
8.22071
8.30749
8.38246
8.46298
8.53207
8.60865
8.67375
8.74853
8.81084
8.88566
8.94542
9.02194
9.07836
9.15841
9.20925
9.29533
9.33642
9.43266
9.45677
9.57027
9.56402
9.70665
9.64019
9.83107
135.248
128.878
128.553
129.052
129.256
129.259
129.216
129.175
129.146
129.125
129.111
129.103
129.099
129.1
129.103
129.11
129.12
129.133
129.149
129.167
129.189
129.212
129.241
129.269
129.306
129.34
129.384
129.424
129.479
129.524
129.592
129.644
129.725
129.79
129.886
135.076
128.678
128.313
128.787
128.98
128.978
128.931
128.889
128.858
128.837
128.823
128.815
128.813
128.815
128.821
128.83
128.843
128.858
128.878
128.899
128.925
128.951
128.985
129.016
129.058
129.095
129.145
129.186
129.247
129.293
129.366
129.417
129.494
129.571
129.605
134.794
128.385
128.005
128.466
128.649
128.642
128.592
128.549
128.517
128.498
128.486
128.482
128.483
128.489
128.499
128.513
128.531
128.552
128.577
128.604
128.636
128.669
128.709
128.748
128.797
128.841
128.899
128.949
129.017
129.072
129.152
129.214
129.297
129.388
129.428
134.361
127.974
127.613
128.07
128.243
128.228
128.175
128.13
128.1
128.083
128.074
128.074
128.079
128.09
128.105
128.124
128.147
128.173
128.204
128.236
128.275
128.314
128.36
128.405
128.46
128.51
128.574
128.629
128.704
128.763
128.849
128.914
129
129.094
129.132
134.043
127.649
127.239
127.659
127.815
127.792
127.735
127.688
127.657
127.64
127.632
127.634
127.642
127.655
127.673
127.696
127.723
127.753
127.788
127.826
127.869
127.914
127.965
128.016
128.077
128.134
128.203
128.265
128.345
128.411
128.502
128.575
128.663
128.768
128.806
133.489
127.121
126.721
127.128
127.269
127.238
127.176
127.129
127.1
127.086
127.083
127.089
127.102
127.122
127.145
127.174
127.206
127.243
127.283
127.327
127.376
127.427
127.485
127.543
127.609
127.672
127.748
127.816
127.901
127.973
128.068
128.146
128.236
128.348
128.382
132.924
126.584
126.16
126.535
126.656
126.614
126.548
126.499
126.47
126.459
126.459
126.469
126.486
126.51
126.538
126.572
126.609
126.651
126.698
126.747
126.802
126.859
126.923
126.986
127.058
127.128
127.209
127.283
127.374
127.452
127.551
127.636
127.728
127.848
127.88
132.248
125.942
125.497
125.837
125.936
125.882
125.811
125.761
125.734
125.726
125.73
125.745
125.767
125.796
125.829
125.868
125.911
125.959
126.01
126.066
126.126
126.19
126.259
126.329
126.406
126.482
126.568
126.648
126.744
126.827
126.929
127.02
127.113
127.242
127.268
131.463
125.208
124.748
125.053
125.125
125.058
124.983
124.934
124.91
124.907
124.917
124.938
124.966
125.001
125.041
125.086
125.134
125.188
125.245
125.307
125.374
125.443
125.518
125.594
125.677
125.759
125.851
125.936
126.036
126.126
126.232
126.329
126.422
126.56
126.582
130.701
124.495
123.98
124.232
124.278
124.2
124.121
124.072
124.05
124.05
124.064
124.089
124.121
124.161
124.205
124.255
124.308
124.367
124.429
124.496
124.568
124.642
124.722
124.804
124.892
124.979
125.075
125.166
125.27
125.364
125.473
125.575
125.67
125.815
125.831
129.711
123.568
123.043
123.26
123.278
123.187
123.106
123.061
123.046
123.053
123.076
123.109
123.149
123.196
123.247
123.304
123.364
123.429
123.498
123.571
123.649
123.73
123.815
123.903
123.996
124.089
124.19
124.287
124.395
124.494
124.607
124.715
124.811
124.963
124.975
128.745
122.676
122.062
122.206
122.19
122.087
122.003
121.959
121.948
121.96
121.987
122.025
122.07
122.122
122.178
122.24
122.305
122.376
122.45
122.529
122.611
122.698
122.788
122.881
122.98
123.078
123.184
123.286
123.399
123.503
123.619
123.732
123.829
123.989
123.996
127.448
121.46
120.822
120.924
120.877
120.762
120.682
120.646
120.646
120.669
120.707
120.756
120.811
120.872
120.936
121.006
121.079
121.157
121.238
121.324
121.414
121.507
121.604
121.703
121.808
121.912
122.024
122.131
122.249
122.359
122.48
122.599
122.698
122.866
122.868
126.136
120.247
119.485
119.499
119.413
119.287
119.207
119.178
119.185
119.216
119.262
119.318
119.38
119.448
119.52
119.596
119.676
119.761
119.849
119.941
120.037
120.136
120.239
120.345
120.455
120.566
120.683
120.796
120.92
121.035
121.161
121.285
121.386
121.564
121.559
124.43
118.648
117.812
117.761
117.64
117.508
117.438
117.422
117.445
117.49
117.55
117.619
117.692
117.771
117.853
117.939
118.028
118.12
118.216
118.316
118.419
118.526
118.636
118.749
118.866
118.983
119.107
119.227
119.356
119.478
119.609
119.74
119.844
120.031
120.02
122.481
116.821
115.844
115.708
115.55
115.414
115.353
115.354
115.391
115.453
115.526
115.608
115.693
115.782
115.874
115.969
116.066
116.167
116.27
116.378
116.488
116.601
116.718
116.837
116.961
117.084
117.214
117.341
117.476
117.605
117.741
117.879
117.986
118.182
118.164
120.13
114.623
113.445
113.193
112.987
112.852
112.807
112.827
112.881
112.958
113.044
113.136
113.23
113.328
113.426
113.528
113.631
113.737
113.846
113.958
114.074
114.193
114.316
114.441
114.571
114.701
114.837
114.97
115.113
115.248
115.393
115.537
115.653
115.861
115.842
116.507
111.185
110.007
109.767
109.56
109.44
109.416
109.459
109.53
109.623
109.718
109.821
109.921
110.026
110.129
110.237
110.345
110.458
110.572
110.692
110.814
110.941
111.072
111.208
111.347
111.489
111.637
111.783
111.939
112.087
112.245
112.401
112.533
112.747
112.747
111.046
106.319
104.837
104.506
104.283
104.186
104.186
104.251
104.337
104.448
104.558
104.682
104.799
104.928
105.052
105.188
105.32
105.464
105.605
105.757
105.91
106.067
106.223
106.386
106.551
106.721
106.895
107.069
107.249
107.423
107.606
107.786
107.952
108.177
108.248
95.7387
95.7844
94.666
94.378
94.1734
94.1468
94.2573
94.4483
94.673
94.9223
95.173
95.4319
95.6838
95.9406
96.1892
96.4426
96.6881
96.9389
97.1827
97.4317
97.675
97.9234
98.1667
98.4142
98.6578
98.9047
99.148
99.3934
99.6344
99.8756
100.113
100.341
100.588
100.762
101.104
11.4423
9.87479
9.83875
9.88165
9.99601
10.117
10.25
10.3745
10.5046
10.6201
10.7385
10.841
10.9472
11.038
11.1349
11.2173
11.3082
11.3849
11.4728
11.5454
11.6327
11.7018
11.7905
11.8555
11.9478
12.0064
12.1051
12.1528
12.2626
12.2917
12.4202
12.4179
12.5759
12.5186
12.7148
79.7825
77.2357
76.6738
76.7683
76.8978
76.9459
76.9433
76.9239
76.9002
76.8797
76.8611
76.8471
76.8353
76.8274
76.8217
76.8185
76.8183
76.8189
76.8237
76.8273
76.8372
76.8433
76.8583
76.8666
76.8867
76.897
76.9229
76.9348
76.9678
76.9807
77.0229
77.0373
77.0903
77.1068
77.1791
79.595
77.0481
76.4695
76.5485
76.6698
76.7124
76.7072
76.6847
76.6601
76.6373
76.6192
76.6035
76.5933
76.5842
76.5811
76.5771
76.5803
76.5802
76.5894
76.5924
76.6072
76.6126
76.6331
76.6406
76.6666
76.6759
76.708
76.7185
76.7579
76.7688
76.8164
76.8293
76.8799
76.9043
76.9456
79.3539
76.806
76.2176
76.2876
76.4031
76.4412
76.4332
76.4083
76.3827
76.3592
76.3417
76.3266
76.3181
76.3103
76.3095
76.3074
76.3132
76.3155
76.3274
76.3333
76.3512
76.36
76.3837
76.395
76.4246
76.4378
76.4741
76.4886
76.5325
76.5478
76.5998
76.6184
76.6723
76.7062
76.7494
79.0385
76.4924
75.9079
75.9771
76.0888
76.1226
76.1111
76.084
76.0574
76.0338
76.017
76.0033
75.9965
75.9909
75.9924
75.9929
76.0013
76.0066
76.0214
76.0306
76.0514
76.0637
76.0907
76.1054
76.1388
76.1552
76.1956
76.2126
76.261
76.278
76.3345
76.3535
76.4113
76.4433
76.4895
78.7526
76.2173
75.6152
75.6646
75.763
75.7886
75.7716
75.7409
75.7118
75.6869
75.6694
75.6558
75.6493
75.6446
75.6471
75.6492
75.659
75.6663
75.6829
75.6945
75.7175
75.7326
75.762
75.7798
75.8158
75.8353
75.8785
75.8987
75.95
75.9701
76.0295
76.0517
76.1121
76.1478
76.1973
78.3536
75.8236
75.2257
75.2713
75.3624
75.3813
75.3592
75.3255
75.2949
75.27
75.2533
75.2414
75.2369
75.2348
75.2397
75.2447
75.2572
75.2676
75.287
75.3019
75.3279
75.3464
75.3789
75.4
75.4393
75.4621
75.5086
75.5317
75.5864
75.609
75.6713
75.6957
75.7579
75.7954
75.8452
77.9281
75.4136
74.8102
74.8413
74.9188
74.9278
74.899
74.8613
74.8285
74.8029
74.7863
74.7754
74.7722
74.7719
74.7787
74.786
74.8007
74.8137
74.8355
74.8532
74.8818
74.9033
74.9386
74.9628
75.0049
75.0306
75.0801
75.106
75.1634
75.1887
75.2535
75.2807
75.3444
75.3851
75.4358
77.4334
74.9358
74.3296
74.3459
74.4085
74.4062
74.37
74.3279
74.2928
74.2667
74.2505
74.241
74.2394
74.2413
74.2501
74.2599
74.2771
74.2928
74.3173
74.3379
74.3694
74.3938
74.4321
74.4593
74.5043
74.533
74.5853
74.6141
74.6741
74.702
74.7689
74.7986
74.8633
74.9068
74.9568
76.8737
74.4016
73.7972
73.7993
73.8455
73.8304
73.7859
73.7394
73.7025
73.6765
73.6616
73.6541
73.6548
73.6595
73.671
73.6838
73.7037
73.7225
73.7498
73.7736
73.8079
73.8355
73.8766
73.9069
73.9548
73.9864
74.0415
74.073
74.1357
74.1661
74.2351
74.2676
74.3332
74.38
74.4295
76.3106
73.8737
73.2574
73.2344
73.2594
73.2303
73.1775
73.1266
73.0877
73.0614
73.047
73.0409
73.0433
73.05
73.0636
73.0788
73.1009
73.1224
73.1521
73.1786
73.2155
73.2458
73.2895
73.3225
73.373
73.4072
73.4648
73.4986
73.5636
73.5964
73.6673
73.702
73.7685
73.8182
73.8669
75.6272
73.2222
72.6127
72.5765
72.5834
72.5399
72.4785
72.4237
72.384
72.3591
72.3471
72.3442
72.3498
72.36
72.3769
72.3956
72.421
72.446
72.4788
72.5087
72.5485
72.5822
72.6287
72.6648
72.7182
72.7553
72.8156
72.8521
72.9197
72.9549
73.028
73.0654
73.1329
73.1858
73.2338
74.923
72.5718
71.9381
71.8633
71.8405
71.7788
71.7079
71.6488
71.6077
71.5833
71.5726
71.5717
71.5795
71.5925
71.6119
71.6336
71.6617
71.6897
71.7253
71.7583
71.8008
71.8376
71.8868
71.9259
71.9819
72.0218
72.0848
72.124
72.1942
72.2319
72.3072
72.3471
72.4159
72.472
72.5192
74.039
71.7339
71.1036
71.0107
70.965
70.8866
70.807
70.7453
70.705
70.6836
70.6767
70.6803
70.6925
70.71
70.7335
70.7596
70.7915
70.8237
70.8629
70.8998
70.9457
70.9862
71.0387
71.0813
71.1404
71.1836
71.2496
71.2919
71.365
71.4056
71.4836
71.5265
71.5968
71.6568
71.7033
73.1018
70.8704
70.2019
70.0576
69.9737
69.8736
69.7843
69.7194
69.6795
69.6603
69.6567
69.664
69.68
69.7017
69.7291
69.7594
69.795
69.8314
69.874
69.915
69.9642
70.0084
70.0641
70.1103
70.1725
70.2192
70.2883
70.3338
70.4101
70.4537
70.5346
70.5806
70.6526
70.7168
70.7621
71.9318
69.7748
69.0891
68.9094
68.7923
68.672
68.5747
68.5088
68.472
68.4575
68.4593
68.4723
68.4937
68.5208
68.5532
68.5885
68.6287
68.6697
68.7164
68.7617
68.8145
68.863
68.9219
68.9721
69.0376
69.0881
69.1605
69.2096
69.2892
69.3361
69.4203
69.4696
69.544
69.6129
69.6578
70.5752
68.5113
67.777
67.5417
67.3824
67.2393
67.1337
67.067
67.0334
67.0238
67.0315
67.0503
67.0776
67.1101
67.1476
67.1878
67.2321
67.2775
67.3276
67.377
67.4328
67.485
67.5467
67.6007
67.6689
67.7232
67.7985
67.8512
67.934
67.9842
68.072
68.1245
68.2018
68.2746
68.3192
68.9308
66.9868
66.1741
65.8566
65.6393
65.4686
65.3546
65.2878
65.2578
65.2522
65.2642
65.2863
65.3169
65.3517
65.3916
65.4335
65.4796
65.5267
65.5783
65.6298
65.6872
65.7423
65.8059
65.8635
65.9338
65.9921
66.0704
66.1257
66.2141
66.2643
66.3604
66.4113
66.4978
66.5729
66.6209
66.5756
64.6696
63.8498
63.5276
63.2907
63.1043
62.9815
62.9085
62.8741
62.864
62.8727
62.8909
62.9191
62.9512
62.9906
63.0318
63.0793
63.1278
63.1825
63.2373
63.2991
63.3587
63.4275
63.49
63.5667
63.6304
63.7164
63.7786
63.8748
63.9332
64.0379
64.0962
64.1943
64.2725
64.3377
63.0747
61.5357
60.4581
59.9541
59.606
59.362
59.211
59.1255
59.0889
59.0831
59.1021
59.1341
59.1808
59.2327
59.2955
59.36
59.434
59.5077
59.5906
59.6715
59.7629
59.8481
59.9418
60.029
60.1264
60.2155
60.3186
60.4082
60.5189
60.6028
60.7227
60.7991
60.9194
61.0047
61.1121
55.4852
57.2206
56.1499
55.3636
54.7653
54.3525
54.1099
53.98
53.9359
53.9393
53.9847
54.0468
54.1323
54.2209
54.3259
54.4274
54.5428
54.6512
54.7728
54.8854
55.011
55.1265
55.2545
55.3722
55.5012
55.6216
55.7506
55.8739
56.0019
56.1265
56.2553
56.3717
56.5182
56.5978
56.8076
13.0138
11.4061
11.418
11.5453
11.7278
11.8986
12.0698
12.2211
12.3728
12.5035
12.6351
12.7466
12.8616
12.958
13.061
13.1468
13.2422
13.3209
13.4123
13.4861
13.5762
13.6459
13.7371
13.8023
13.8969
13.9555
14.0565
14.1043
14.2161
14.2464
14.3757
14.3778
14.5327
14.4909
14.6726
52.8626
51.8608
51.4534
51.3862
51.4246
51.4612
51.4727
51.4687
51.4548
51.4399
51.4234
51.4093
51.3958
51.385
51.3756
51.3676
51.3625
51.3568
51.3558
51.3516
51.3547
51.3515
51.3583
51.3558
51.3661
51.3639
51.378
51.3752
51.394
51.3898
51.4146
51.4088
51.441
51.4329
51.4784
52.6913
51.6996
51.2893
51.2142
51.2477
51.2794
51.2891
51.2817
51.2674
51.2496
51.2337
51.2171
51.2052
51.192
51.1851
51.1751
51.1732
51.1655
51.1686
51.1623
51.1701
51.1648
51.1768
51.1721
51.188
51.1834
51.2035
51.1982
51.2231
51.2162
51.2465
51.2385
51.2722
51.2644
51.3029
52.4926
51.5059
51.0927
51.0126
51.0426
51.0708
51.0782
51.0681
51.0525
51.033
51.0168
50.9995
50.9881
50.9748
50.9689
50.9592
50.9586
50.9517
50.956
50.9511
50.9601
50.9564
50.9698
50.9669
50.9846
50.9818
51.0041
51.0006
51.028
51.0235
51.0558
51.0519
51.0862
51.0863
51.1233
52.2551
51.2691
50.8573
50.7771
50.8059
50.832
50.8369
50.8247
50.8074
50.7869
50.7702
50.7528
50.7417
50.7291
50.7241
50.7156
50.7162
50.7108
50.7166
50.7134
50.7241
50.7224
50.7378
50.7367
50.757
50.7557
50.7811
50.7786
50.8098
50.8055
50.842
50.8374
50.8759
50.8735
50.9146
52.0126
51.0409
50.6267
50.5382
50.5586
50.5782
50.578
50.5621
50.5419
50.5194
50.5013
50.4831
50.4715
50.4589
50.4539
50.4459
50.4469
50.4424
50.4487
50.4468
50.4583
50.458
50.4745
50.475
50.4966
50.4969
50.524
50.5229
50.556
50.553
50.5919
50.5883
50.6297
50.6282
50.6734
51.7114
50.7435
50.3329
50.2443
50.2619
50.2775
50.2732
50.2539
50.2312
50.2073
50.1882
50.17
50.1586
50.1468
50.1426
50.1359
50.138
50.1349
50.1427
50.1424
50.1555
50.157
50.1753
50.1775
50.2012
50.2031
50.2325
50.2329
50.2685
50.2667
50.308
50.3053
50.3489
50.3478
50.3947
51.3811
50.4244
50.0159
49.9226
49.933
49.9416
49.9314
49.9078
49.8818
49.8559
49.8355
49.8169
49.8053
49.7939
49.7902
49.7843
49.7872
49.7853
49.7941
49.7952
49.8096
49.8125
49.8323
49.8361
49.8614
49.8647
49.8959
49.8977
49.9351
49.9346
49.9778
49.9763
50.0217
50.0215
50.0706
51.0015
50.0568
49.6523
49.555
49.5576
49.5583
49.5411
49.5125
49.4829
49.4548
49.4331
49.4141
49.4025
49.3916
49.3885
49.3837
49.3876
49.387
49.3971
49.3997
49.4156
49.4202
49.4416
49.447
49.4741
49.479
49.5121
49.5153
49.5548
49.5555
49.6006
49.6003
49.6471
49.648
49.6982
50.5806
49.6499
49.2526
49.1526
49.1471
49.1388
49.1139
49.0798
49.0464
49.0162
48.9933
48.9742
48.9628
48.9527
48.9505
48.9469
48.952
48.953
48.9644
48.9686
48.986
48.9922
49.0153
49.0222
49.0511
49.0575
49.0924
49.0969
49.1381
49.1402
49.1869
49.1879
49.2361
49.2382
49.2895
50.1476
49.2383
48.8443
48.7357
48.7179
48.6985
48.6652
48.6253
48.5881
48.5559
48.5318
48.5126
48.5013
48.492
48.4905
48.4881
48.4943
48.4967
48.5094
48.5151
48.5339
48.5417
48.5663
48.5748
48.6052
48.613
48.6496
48.6555
48.6984
48.7016
48.75
48.752
48.8016
48.8047
48.8571
49.6405
48.7493
48.3666
48.2571
48.2306
48.2009
48.1588
48.1129
48.0717
48.0376
48.0127
47.9937
47.9829
47.9749
47.9745
47.9738
47.9813
47.9855
47.9997
48.0073
48.0276
48.0372
48.0634
48.0736
48.1057
48.1151
48.1534
48.1606
48.2054
48.2097
48.2599
48.2631
48.3141
48.3184
48.3719
49.0988
48.2402
47.8575
47.7324
47.6869
47.6416
47.5887
47.5362
47.4913
47.4554
47.4298
47.4112
47.4012
47.3945
47.3954
47.3964
47.4054
47.4115
47.4273
47.4368
47.4588
47.4702
47.4981
47.51
47.5439
47.5549
47.5951
47.6037
47.6504
47.656
47.7081
47.7125
47.7651
47.7707
47.8253
48.4421
47.6134
47.2439
47.1161
47.0586
46.9999
46.9365
46.8772
46.8282
46.7907
46.7648
46.747
46.738
46.7331
46.7355
46.7387
46.7494
46.7577
46.7753
46.787
46.8107
46.8242
46.8539
46.8678
46.9034
46.9162
46.9583
46.9686
47.0173
47.0244
47.0785
47.0843
47.1387
47.1458
47.2018
47.7239
46.9422
46.5684
46.4178
46.3344
46.2555
46.1795
46.113
46.0606
46.0221
45.9963
45.9799
45.9725
45.9699
45.9742
45.98
45.9928
46.0038
46.0233
46.0376
46.0632
46.0792
46.1106
46.1267
46.1643
46.1791
46.2232
46.2353
46.2862
46.2949
46.3514
46.3587
46.415
46.4237
46.4811
46.8463
46.1175
45.7516
45.5884
45.4837
45.3856
45.2966
45.2225
45.1664
45.1266
45.1011
45.086
45.08
45.0796
45.0858
45.0941
45.1085
45.1222
45.1432
45.16
45.187
45.2054
45.2382
45.2566
45.2957
45.3126
45.3585
45.3724
45.4255
45.4357
45.4946
45.5033
45.562
45.5722
45.6319
45.823
45.1589
44.7855
44.595
44.4593
44.3368
44.233
44.1502
44.0902
44.049
44.0238
44.0099
44.0056
44.0071
44.015
44.0255
44.0413
44.057
44.0789
44.0979
44.1255
44.146
44.1794
44.1999
44.2398
44.2588
44.3059
44.3216
44.3765
44.3883
44.4497
44.4595
44.5211
44.532
44.5947
44.5803
44.0025
43.6086
43.3732
43.1923
43.0375
42.9154
42.8218
42.7569
42.7119
42.6854
42.6694
42.6643
42.6642
42.6712
42.6804
42.6951
42.7103
42.7312
42.7504
42.7771
42.7989
42.8319
42.8546
42.8944
42.9162
42.964
42.982
43.0395
43.0518
43.1178
43.1272
43.1941
43.2064
43.2733
43.0296
42.4148
41.9885
41.7316
41.5227
41.3393
41.1948
41.0807
41.0004
40.9401
40.9029
40.8755
40.8634
40.8554
40.8586
40.8631
40.8768
40.8904
40.9121
40.9324
40.9612
40.9861
41.0216
41.0486
41.0915
41.1181
41.1696
41.1935
41.2546
41.2738
41.3439
41.3596
41.4331
41.4487
41.5262
40.8421
40.5277
39.9104
39.4667
39.1206
38.8461
38.6468
38.4975
38.3999
38.3293
38.2927
38.2674
38.2658
38.2665
38.2856
38.3021
38.3344
38.3617
38.4031
38.4381
38.4866
38.527
38.5794
38.6226
38.678
38.7224
38.7823
38.8264
38.893
38.9322
39.0077
39.0392
39.1205
39.148
39.2388
37.861
40.6882
39.876
38.9258
38.1258
37.5089
37.0692
36.7524
36.5409
36.3897
36.2991
36.2337
36.2066
36.1865
36.1942
36.1993
36.2275
36.2478
36.2889
36.319
36.3683
36.4053
36.4597
36.5022
36.5593
36.6071
36.6651
36.7183
36.7766
36.8333
36.8948
36.9467
37.0251
37.0542
37.1799
14.2728
12.6903
12.7681
12.9781
13.2274
13.4445
13.6496
13.8227
13.9908
14.1311
14.2709
14.3862
14.5053
14.6025
14.7074
14.7922
14.8883
14.9649
15.0561
15.1271
15.2165
15.2832
15.3733
15.4353
15.5285
15.5842
15.6833
15.7289
15.838
15.8679
15.9923
15.9984
16.1437
16.1154
16.2801
37.6239
37.2102
36.9811
36.8878
36.8731
36.885
36.8939
36.896
36.8896
36.8806
36.8686
36.8571
36.8452
36.8345
36.8249
36.8155
36.809
36.8005
36.7975
36.7896
36.7898
36.7822
36.7852
36.7777
36.7833
36.7752
36.7836
36.7741