/*--------------------------------*- C++ -*----------------------------------*\
  =========                 |
  \\      /  F ield         | OpenFOAM: The Open Source CFD Toolbox
   \\    /   O peration     | Website:  https://openfoam.org
    \\  /    A nd           | Version:  6
     \\/     M anipulation  |
\*---------------------------------------------------------------------------*/
FoamFile
{
    version     2.0;
    format      ascii;
    class       volVectorField;
    location    "50";
    object      wallShearStress;
}
// * * * * * * * * * * * * * * * * * * * * * * * * * * * * * * * * * * * * * //

dimensions      [0 2 -2 0 0 0 0];

internalField   uniform (0 0 0);

boundaryField
{
    inlet
    {
        type            calculated;
        value           uniform (0 0 0);
    }
    outlet
    {
        type            calculated;
        value           uniform (0 0 0);
    }
    roughCylinder
    {
        type            calculated;
        value           nonuniform List<vector> 
3840
(
(-0.00016753 -0.000213193 -9.36303e-05)
(-0.000220752 -0.000373308 -5.14771e-05)
(-0.000314916 -0.000539836 3.42288e-05)
(-0.000381476 -0.000610307 9.99287e-05)
(-0.000451407 -0.000651267 0.000153283)
(-0.00049552 -0.000642726 0.000184707)
(-0.000533046 -0.000628053 0.000204067)
(-0.000557188 -0.00060996 0.000215332)
(-0.000582231 -0.00060315 0.000225464)
(-0.000594764 -0.000594598 0.000228251)
(-0.00060514 -0.000591541 0.000226926)
(-0.000613123 -0.000591916 0.000221585)
(-0.0006223 -0.000597524 0.000213686)
(-0.000627445 -0.000602201 0.000201925)
(-0.000630519 -0.000606612 0.000187531)
(-0.000638099 -0.000615887 0.000172479)
(-0.000620148 -0.000602121 0.000150092)
(-0.000624092 -0.000608142 0.000132497)
(-0.000621628 -0.000608081 0.00011299)
(-0.000633429 -0.000620972 9.51199e-05)
(-0.000630915 -0.000621302 7.47417e-05)
(-0.000626988 -0.000619628 5.41351e-05)
(-0.00061931 -0.000613804 3.28897e-05)
(-0.000619733 -0.000615074 1.11559e-05)
(-0.000340571 -0.000388152 -0.0001658)
(-0.000243846 -0.000373324 -5.96453e-05)
(-0.000335265 -0.00053209 2.44259e-05)
(-0.00040727 -0.000610859 9.16028e-05)
(-0.000479452 -0.000654282 0.000145641)
(-0.000526349 -0.000649557 0.000178019)
(-0.000567659 -0.00063974 0.000198967)
(-0.000596012 -0.000625503 0.000212665)
(-0.000625069 -0.000619848 0.000224816)
(-0.000639068 -0.000610191 0.000228473)
(-0.000649749 -0.000605995 0.000227249)
(-0.000657539 -0.000605305 0.000221789)
(-0.00066728 -0.000610778 0.000213949)
(-0.000673674 -0.000616282 0.000202531)
(-0.000679225 -0.000622711 0.000188764)
(-0.00068705 -0.000631922 0.000173595)
(-0.000670557 -0.000620517 0.000151797)
(-0.000672943 -0.000625099 0.000133748)
(-0.000671447 -0.000626186 0.000114368)
(-0.00068302 -0.000638481 9.62021e-05)
(-0.000681935 -0.000640369 7.58173e-05)
(-0.000679018 -0.0006399 5.50361e-05)
(-0.000671174 -0.000634442 3.34713e-05)
(-0.0006716 -0.000635725 1.13557e-05)
(-0.00011742 -0.000117455 -4.73745e-05)
(-0.000250371 -0.000345279 -6.42252e-05)
(-0.000358807 -0.000522925 1.4246e-05)
(-0.000432455 -0.000604401 8.16826e-05)
(-0.000508128 -0.000652339 0.000136672)
(-0.000558734 -0.000652952 0.000170625)
(-0.000604183 -0.000648451 0.000193658)
(-0.000636351 -0.000637748 0.000209581)
(-0.000668363 -0.000632923 0.000223235)
(-0.000683691 -0.000621452 0.000227525)
(-0.000695107 -0.000616408 0.00022662)
(-0.000703015 -0.000614878 0.000221215)
(-0.000713436 -0.000620206 0.000213535)
(-0.000722009 -0.000627126 0.000202737)
(-0.000730673 -0.000635842 0.000189719)
(-0.000739607 -0.000645723 0.000174695)
(-0.000725967 -0.000637755 0.000153738)
(-0.000726894 -0.000641222 0.000135299)
(-0.000725772 -0.000642867 0.000115907)
(-0.000734521 -0.000652295 9.70998e-05)
(-0.000734498 -0.000655288 7.66894e-05)
(-0.000732061 -0.000655503 5.57397e-05)
(-0.000724554 -0.000650901 3.3957e-05)
(-0.000725227 -0.000652434 1.15267e-05)
(-0.00040996 -0.000358575 -0.00013066)
(-0.000277826 -0.000342511 -7.34826e-05)
(-0.000377374 -0.000503753 2.52145e-06)
(-0.000455803 -0.000592521 7.0456e-05)
(-0.000534654 -0.000644829 0.000126163)
(-0.000589657 -0.000652052 0.000162041)
(-0.000639807 -0.000653546 0.000187581)
(-0.000676473 -0.000647005 0.000205991)
(-0.000712141 -0.00064387 0.0002212)
(-0.000730759 -0.000632299 0.000226706)
(-0.000742886 -0.000626038 0.000226204)
(-0.00075083 -0.000623426 0.000220849)
(-0.000761951 -0.000628475 0.000213354)
(-0.000772448 -0.00063631 0.000203046)
(-0.000783282 -0.000646234 0.000190469)
(-0.000792057 -0.000655662 0.000175345)
(-0.000780498 -0.000650202 0.00015505)
(-0.000779897 -0.000652705 0.000136352)
(-0.000780024 -0.000655622 0.000117162)
(-0.000788181 -0.000664395 9.81121e-05)
(-0.000789794 -0.000668891 7.76958e-05)
(-0.000788162 -0.00067007 5.65615e-05)
(-0.00078069 -0.000666051 3.45002e-05)
(-0.000781167 -0.000667446 1.17101e-05)
(-0.000355894 -0.000268985 -8.26459e-05)
(-0.000282292 -0.000309135 -7.72591e-05)
(-0.000394018 -0.000480505 -9.22632e-06)
(-0.000475372 -0.000573787 5.80099e-05)
(-0.000558375 -0.000631957 0.0001143)
(-0.000618829 -0.000647137 0.000152366)
(-0.000674132 -0.000654964 0.000180656)
(-0.000715278 -0.00065241 0.000201583)
(-0.000754117 -0.000650513 0.000218091)
(-0.000775317 -0.000638935 0.000224701)
(-0.000788899 -0.000631246 0.00022484)
(-0.000797551 -0.000627981 0.000219839)
(-0.000809982 -0.000633016 0.000212756)
(-0.000823071 -0.000642041 0.000203113)
(-0.000836284 -0.000653138 0.000191039)
(-0.000845842 -0.000662891 0.000176092)
(-0.000837218 -0.000660426 0.000156573)
(-0.000835747 -0.000662699 0.000137761)
(-0.000835988 -0.000665938 0.000118566)
(-0.000841325 -0.000672426 9.9021e-05)
(-0.000844211 -0.000678048 7.85725e-05)
(-0.000843043 -0.000679943 5.72626e-05)
(-0.000836433 -0.000677214 3.50043e-05)
(-0.000837142 -0.000678879 1.18864e-05)
(-0.00045541 -0.00029403 -6.96847e-05)
(-0.00030023 -0.000290761 -8.39177e-05)
(-0.000405977 -0.000450648 -2.12838e-05)
(-0.000491345 -0.000549959 4.44828e-05)
(-0.000578528 -0.000614156 0.000101107)
(-0.000644798 -0.000637553 0.000141369)
(-0.000705533 -0.000651671 0.000172464)
(-0.000751611 -0.000653271 0.000196001)
(-0.000794299 -0.000653173 0.00021406)
(-0.000819338 -0.00064314 0.000222131)
(-0.000836137 -0.000635111 0.000223408)
(-0.000845912 -0.000630874 0.000218994)
(-0.00085955 -0.000635516 0.000212322)
(-0.0008745 -0.000644827 0.000203148)
(-0.000888686 -0.000655849 0.000191287)
(-0.000897876 -0.000665047 0.000176371)
(-0.000891353 -0.00066473 0.000157496)
(-0.000889329 -0.00066718 0.000138739)
(-0.000890694 -0.000671591 0.000119763)
(-0.000895484 -0.000677828 0.000100072)
(-0.000899728 -0.000684556 7.95599e-05)
(-0.000899041 -0.000687201 5.8045e-05)
(-0.000892622 -0.000685199 3.55285e-05)
(-0.000892974 -0.000686678 1.20609e-05)
(-0.000477599 -0.000260252 -3.71639e-05)
(-0.000309139 -0.000262467 -8.77371e-05)
(-0.000412643 -0.000415423 -3.30552e-05)
(-0.000501489 -0.000520057 2.99189e-05)
(-0.000593521 -0.000591183 8.65073e-05)
(-0.0006666 -0.000623542 0.00012899)
(-0.000733538 -0.000644189 0.000162963)
(-0.00078495 -0.00064992 0.000189129)
(-0.000831599 -0.000651611 0.00020885)
(-0.000859653 -0.000642549 0.000218166)
(-0.000880031 -0.000635022 0.000220775)
(-0.000892112 -0.00062992 0.000217334)
(-0.000907789 -0.000634229 0.000211378)
(-0.000925061 -0.000643925 0.000202848)
(-0.000940474 -0.000654979 0.000191344)
(-0.000950416 -0.000664452 0.000176767)
(-0.000946576 -0.000666521 0.000158619)
(-0.000944435 -0.00066955 0.000139998)
(-0.00094538 -0.000674031 0.000121021)
(-0.000947815 -0.000679078 0.000101023)
(-0.000953051 -0.000686874 8.04442e-05)
(-0.000952853 -0.000690566 5.87621e-05)
(-0.000947659 -0.000690255 3.60565e-05)
(-0.000948277 -0.000692168 1.22453e-05)
(-0.000531496 -0.000240496 -4.63863e-06)
(-0.000316823 -0.000233766 -9.04671e-05)
(-0.000414143 -0.00037645 -4.42326e-05)
(-0.00050608 -0.000485892 1.45922e-05)
(-0.000602933 -0.000564038 7.06375e-05)
(-0.000683044 -0.000605133 0.000115139)
(-0.000756324 -0.000631886 0.000151803)
(-0.00081353 -0.000641727 0.000180569)
(-0.000864713 -0.00064555 0.000202164)
(-0.000897322 -0.000638593 0.000213262)
(-0.000922287 -0.0006326 0.000217515)
(-0.000938071 -0.000627758 0.000215471)
(-0.000955888 -0.000631153 0.000210367)
(-0.000974422 -0.000639917 0.000202306)
(-0.000989668 -0.000649922 0.000190987)
(-0.000999415 -0.00065911 0.000176701)
(-0.000997622 -0.000663175 0.000159245)
(-0.000995631 -0.000667317 0.000140918)
(-0.000997426 -0.000673167 0.000122209)
(-0.000999089 -0.000678423 0.000102128)
(-0.00100461 -0.000686826 8.13895e-05)
(-0.00100419 -0.000691173 5.94812e-05)
(-0.000998863 -0.000691582 3.65311e-05)
(-0.000998921 -0.00069338 1.23997e-05)
(-0.000563858 -0.000207715 3.09879e-05)
(-0.000327501 -0.000207149 -9.37741e-05)
(-0.000408491 -0.000333436 -5.40546e-05)
(-0.000502312 -0.00044605 -1.22034e-06)
(-0.000604149 -0.00053155 5.34012e-05)
(-0.000691948 -0.000581565 9.95995e-05)
(-0.000772552 -0.000614687 0.000138819)
(-0.0008365 -0.000628901 0.000170195)
(-0.000892824 -0.00063508 0.000193839)
(-0.00093008 -0.000630171 0.000206912)
(-0.000959441 -0.000625586 0.000212926)
(-0.000978714 -0.000621276 0.000212373)
(-0.000999691 -0.000624524 0.000208476)
(-0.00102045 -0.000632851 0.000201276)
(-0.00103621 -0.00064227 0.000190483)
(-0.00104683 -0.000651876 0.000176796)
(-0.00104701 -0.000657794 0.000160033)
(-0.00104459 -0.00066279 0.000141938)
(-0.00104512 -0.000668775 0.000123243)
(-0.00104478 -0.000673456 0.000102974)
(-0.00105036 -0.000682178 8.20987e-05)
(-0.00105029 -0.000687468 6.00543e-05)
(-0.00104616 -0.000689385 3.69583e-05)
(-0.00104643 -0.000691582 1.25457e-05)
(-0.000589661 -0.00017215 6.58957e-05)
(-0.000330956 -0.000175787 -9.34514e-05)
(-0.000396637 -0.000288532 -6.25228e-05)
(-0.000490708 -0.000402365 -1.69594e-05)
(-0.000596993 -0.000494893 3.50814e-05)
(-0.000692803 -0.000553711 8.24591e-05)
(-0.000781062 -0.000592841 0.000123906)
(-0.000852083 -0.000611097 0.000157716)
(-0.000914429 -0.000619904 0.000183584)
(-0.000957302 -0.000617456 0.000198997)
(-0.000992232 -0.00061493 0.00020724)
(-0.00101586 -0.000611748 0.000208554)
(-0.00103946 -0.000614749 0.000205933)
(-0.00106114 -0.000622111 0.000199543)
(-0.00107627 -0.000630388 0.00018926)
(-0.00108693 -0.000639785 0.000176164)
(-0.00108863 -0.00064697 0.000160103)
(-0.00108614 -0.000652918 0.000142387)
(-0.00108685 -0.000659864 0.000123958)
(-0.00108559 -0.00066479 0.000103672)
(-0.00109058 -0.000673396 8.26383e-05)
(-0.00108991 -0.000678977 6.04485e-05)
(-0.00108539 -0.000681295 3.72167e-05)
(-0.00108512 -0.000683379 1.26234e-05)
(-0.000607395 -0.00013424 9.81478e-05)
(-0.000338792 -0.000148157 -9.19906e-05)
(-0.000376949 -0.000241339 -6.8561e-05)
(-0.000468606 -0.000353973 -3.19265e-05)
(-0.000578559 -0.000452918 1.59168e-05)
(-0.000682453 -0.000520404 6.35364e-05)
(-0.000779168 -0.000565704 0.000106773)
(-0.00085902 -0.000588628 0.000143021)
(-0.000928128 -0.000599996 0.000171195)
(-0.000977761 -0.00060032 0.000189286)
(-0.00101828 -0.000599617 0.00019998)
(-0.00104584 -0.000597273 0.000203313)
(-0.00107226 -0.000600291 0.000202254)
(-0.0010954 -0.000607198 0.000196999)
(-0.00111071 -0.000614958 0.000187561)
(-0.00112244 -0.000624666 0.000175333)
(-0.00112524 -0.000632723 0.000159968)
(-0.00112189 -0.000639126 0.000142588)
(-0.00112113 -0.00064606 0.000124304)
(-0.00111825 -0.000650921 0.000104013)
(-0.00112252 -0.000659381 8.28878e-05)
(-0.00112226 -0.000665865 6.06884e-05)
(-0.00111881 -0.000669461 3.74285e-05)
(-0.00111874 -0.000671904 1.26922e-05)
(-0.000569498 -8.86903e-05 0.000119512)
(-0.000360196 -0.000125937 -9.18605e-05)
(-0.000352343 -0.000194968 -7.18057e-05)
(-0.000436779 -0.000302816 -4.5165e-05)
(-0.000548531 -0.000406623 -3.3945e-06)
(-0.000660419 -0.000482675 4.3134e-05)
(-0.000766622 -0.000534643 8.75546e-05)
(-0.000855477 -0.000561717 0.000125936)
(-0.000932911 -0.000575833 0.000156603)
(-0.000989518 -0.000578398 0.000177475)
(-0.00103629 -0.000579571 0.000190971)
(-0.00106886 -0.00057858 0.000196821)
(-0.00109794 -0.000581616 0.000197569)
(-0.00112151 -0.000587688 0.000193514)
(-0.00113619 -0.000594613 0.000184995)
(-0.00114805 -0.000604015 0.000173641)
(-0.00115155 -0.000612612 0.000159048)
(-0.00114794 -0.000619802 0.000142215)
(-0.00114668 -0.000627331 0.000124302)
(-0.00114222 -0.000632311 0.000104085)
(-0.00114476 -0.000640154 8.28535e-05)
(-0.00114321 -0.000646532 6.06299e-05)
(-0.00113887 -0.000650217 3.73898e-05)
(-0.00113819 -0.000652536 1.26645e-05)
(-0.000578414 -5.35457e-05 0.000148846)
(-0.00037356 -0.000101283 -8.84667e-05)
(-0.00032256 -0.00015024 -7.09925e-05)
(-0.000393628 -0.000249038 -5.51786e-05)
(-0.000504535 -0.000355414 -2.18663e-05)
(-0.000623757 -0.000439651 2.15798e-05)
(-0.00073929 -0.000498262 6.60085e-05)
(-0.000839539 -0.000530796 0.000106304)
(-0.000926139 -0.000547302 0.000139521)
(-0.000991735 -0.000552239 0.000163573)
(-0.00104535 -0.000555102 0.000180183)
(-0.00108239 -0.000555007 0.000188768)
(-0.00111406 -0.000558097 0.00019163)
(-0.0011387 -0.000563858 0.000189171)
(-0.00115369 -0.000570536 0.00018194)
(-0.00116612 -0.000579842 0.000171675)
(-0.00116897 -0.000588276 0.000157765)
(-0.00116373 -0.000595597 0.000141411)
(-0.00116042 -0.000602993 0.000123806)
(-0.00115424 -0.000608188 0.000103739)
(-0.00115529 -0.000615712 8.25029e-05)
(-0.00115386 -0.000622793 6.04132e-05)
(-0.00115004 -0.000627431 3.72991e-05)
(-0.00114932 -0.000629978 1.26232e-05)
(-0.000513758 -1.67557e-05 0.000154266)
(-0.000383619 -7.7718e-05 -8.28848e-05)
(-0.000291928 -0.000110206 -6.6577e-05)
(-0.00034114 -0.000195192 -6.05462e-05)
(-0.000446732 -0.000300505 -3.81372e-05)
(-0.000571276 -0.000391723 -3.30959e-07)
(-0.000697594 -0.000458225 4.26167e-05)
(-0.000809476 -0.00049635 8.40485e-05)
(-0.000907474 -0.000516128 0.000120016)
(-0.000982173 -0.000522187 0.000147483)
(-0.0010426 -0.000525653 0.000167367)
(-0.00108489 -0.000526651 0.000179066)
(-0.00111914 -0.000529953 0.000184418)
(-0.00114408 -0.00053521 0.000183749)
(-0.00115867 -0.000541349 0.000177926)
(-0.00117064 -0.000549998 0.000168768)
(-0.00117288 -0.000558346 0.000155696)
(-0.00116688 -0.000566293 0.000140054)
(-0.0011617 -0.000573838 0.000122889)
(-0.00115271 -0.00057906 0.00010295)
(-0.00115074 -0.000585874 8.16917e-05)
(-0.00114701 -0.000592512 5.97384e-05)
(-0.00114163 -0.000597005 3.68595e-05)
(-0.0011401 -0.000599408 1.24522e-05)
(-0.000451899 1.06942e-05 0.000153792)
(-0.000377648 -5.38429e-05 -7.36782e-05)
(-0.000259921 -7.59493e-05 -5.83163e-05)
(-0.000279588 -0.00014264 -5.93315e-05)
(-0.000373897 -0.000242065 -5.01627e-05)
(-0.000501801 -0.000339071 -2.13632e-05)
(-0.000637625 -0.000412995 1.77689e-05)
(-0.000762976 -0.000458142 5.92571e-05)
(-0.000873208 -0.000481767 9.77041e-05)
(-0.000959616 -0.000489824 0.000129113)
(-0.00102825 -0.000494005 0.000152854)
(-0.0010756 -0.000495037 0.000168054)
(-0.00111224 -0.00049803 0.000176105)
(-0.00113787 -0.000502974 0.000177507)
(-0.00115265 -0.000508978 0.00017336)
(-0.00116374 -0.000517145 0.000165416)
(-0.001163 -0.000524841 0.000153022)
(-0.00115442 -0.000532858 0.000138019)
(-0.00114606 -0.000540294 0.000121314)
(-0.00113476 -0.000546049 0.000101655)
(-0.0011306 -0.000552861 8.05242e-05)
(-0.00112622 -0.000559934 5.88864e-05)
(-0.00112041 -0.000564922 3.63468e-05)
(-0.00111831 -0.000567354 1.22561e-05)
(-0.000446267 3.30967e-05 0.000165756)
(-0.000367557 -3.40654e-05 -6.36191e-05)
(-0.000229044 -4.90171e-05 -4.71059e-05)
(-0.000214457 -9.55306e-05 -5.11387e-05)
(-0.000289021 -0.000182722 -5.57485e-05)
(-0.000413851 -0.000281382 -3.97626e-05)
(-0.000559459 -0.000363353 -7.53887e-06)
(-0.000699523 -0.000416538 3.24504e-05)
(-0.000823995 -0.000445462 7.30298e-05)
(-0.000921983 -0.000455823 0.000108488)
(-0.000998279 -0.000459978 0.000136421)
(-0.00105089 -0.000461008 0.000155473)
(-0.00108979 -0.000463639 0.000166513)
(-0.00111552 -0.000468015 0.000170122)
(-0.00112969 -0.000473533 0.000167712)
(-0.00113913 -0.000481074 0.000161061)
(-0.00113622 -0.000488789 0.000149616)
(-0.001126 -0.000497328 0.000135487)
(-0.00111374 -0.000504629 0.000119288)
(-0.00109776 -0.000510021 9.97499e-05)
(-0.00108924 -0.000515996 7.8682e-05)
(-0.00108142 -0.000522043 5.73801e-05)
(-0.00107335 -0.000526546 3.53655e-05)
(-0.00107018 -0.000528743 1.18919e-05)
(-0.000406464 4.61143e-05 0.000157619)
(-0.000347149 -1.85043e-05 -5.19709e-05)
(-0.000197107 -2.94524e-05 -3.31778e-05)
(-0.000146411 -5.55763e-05 -3.57064e-05)
(-0.000192931 -0.000123347 -5.17356e-05)
(-0.000309057 -0.000219669 -5.28983e-05)
(-0.000462248 -0.000308715 -3.20645e-05)
(-0.000617214 -0.000370414 4.41671e-06)
(-0.000757055 -0.000405827 4.65391e-05)
(-0.000868244 -0.000420199 8.62006e-05)
(-0.000953782 -0.000425544 0.000118855)
(-0.00101174 -0.000426599 0.000141988)
(-0.00105255 -0.000428902 0.000156134)
(-0.0010784 -0.000432878 0.000162123)
(-0.00109186 -0.000437979 0.000161565)
(-0.00109805 -0.000444574 0.000156123)
(-0.00108989 -0.000451296 0.000145306)
(-0.00107603 -0.000459344 0.000131902)
(-0.0010591 -0.000466323 0.000116277)
(-0.00103994 -0.000472229 9.71012e-05)
(-0.00102833 -0.000478199 7.62938e-05)
(-0.00101859 -0.00048393 5.55368e-05)
(-0.00100882 -0.000488253 3.41899e-05)
(-0.00100437 -0.000490157 1.14559e-05)
(-0.000365008 4.95194e-05 0.000139517)
(-0.000319352 -8.07328e-06 -3.99139e-05)
(-0.000166566 -1.72184e-05 -1.78631e-05)
(-8.67705e-05 -2.72895e-05 -1.68831e-05)
(-9.84235e-05 -7.08473e-05 -3.82007e-05)
(-0.000189534 -0.000153509 -5.77295e-05)
(-0.000345557 -0.000247435 -5.34634e-05)
(-0.000518533 -0.000320197 -2.33342e-05)
(-0.000674401 -0.000363357 1.98442e-05)
(-0.000797972 -0.000382549 6.34614e-05)
(-0.00089077 -0.000389725 0.000100486)
(-0.000952983 -0.000391318 0.000127489)
(-0.000995264 -0.000393436 0.000144614)
(-0.00102043 -0.000396883 0.000152815)
(-0.00103235 -0.000401387 0.000154016)
(-0.00103542 -0.000407451 0.000149923)
(-0.00102346 -0.000414169 0.000140024)
(-0.00100648 -0.000421866 0.000127481)
(-0.000983348 -0.000428049 0.000112384)
(-0.000957473 -0.00043279 9.3293e-05)
(-0.000940498 -0.000437423 7.27249e-05)
(-0.000926526 -0.000441409 5.2662e-05)
(-0.000914036 -0.000444766 3.23268e-05)
(-0.000908291 -0.000446236 1.07829e-05)
(-0.000329904 4.48424e-05 0.000114479)
(-0.000285625 -2.70603e-06 -2.78107e-05)
(-0.000128906 -1.09321e-05 -2.82145e-06)
(-3.57e-05 -1.10074e-05 1.33713e-06)
(-9.66906e-06 -1.89758e-05 -9.66254e-06)
(-6.43796e-05 -8.44272e-05 -4.80747e-05)
(-0.000215539 -0.000179491 -6.90704e-05)
(-0.000403141 -0.000263048 -4.8015e-05)
(-0.000576163 -0.000316616 -4.4655e-06)
(-0.0007115 -0.000342339 4.23379e-05)
(-0.000811337 -0.000353243 8.29074e-05)
(-0.000877582 -0.000356943 0.000113111)
(-0.000920364 -0.000359654 0.00013266)
(-0.000944359 -0.000362942 0.000142772)
(-0.000953808 -0.000366765 0.000145521)
(-0.000951045 -0.000371459 0.000142391)
(-0.000932325 -0.000376835 0.000132975)
(-0.000910565 -0.000382991 0.000121137)
(-0.000881468 -0.000388083 0.000106753)
(-0.000851798 -0.000392505 8.81595e-05)
(-0.000831193 -0.00039616 6.81133e-05)
(-0.00081437 -0.00039872 4.90411e-05)
(-0.000799255 -0.000400869 2.99804e-05)
(-0.000791783 -0.000401543 9.93616e-06)
(-0.0003034 3.80621e-05 8.76532e-05)
(-0.000252625 2.62685e-07 -1.78495e-05)
(-8.7641e-05 -6.14478e-06 6.84272e-06)
(-4.79386e-06 -2.50642e-06 1.28549e-05)
(3.33306e-05 -3.46929e-06 -4.23598e-07)
(2.845e-05 -2.24463e-05 -2.59504e-05)
(-8.00274e-05 -9.72553e-05 -6.85661e-05)
(-0.000280658 -0.000198929 -6.4791e-05)
(-0.00046596 -0.00026511 -2.19407e-05)
(-0.000609639 -0.000298905 2.58635e-05)
(-0.000713234 -0.000314671 6.75592e-05)
(-0.000780135 -0.000321015 9.8941e-05)
(-0.000822072 -0.000325039 0.00011967)
(-0.000843897 -0.000328379 0.000130948)
(-0.000850417 -0.000331665 0.000134916)
(-0.000843519 -0.000335755 0.000132894)
(-0.000820117 -0.000340295 0.000124128)
(-0.000794067 -0.000344589 0.000113003)
(-0.000757556 -0.000347349 9.91988e-05)
(-0.000720104 -0.000348889 8.07771e-05)
(-0.000694008 -0.000349939 6.14039e-05)
(-0.000673121 -0.000349863 4.37198e-05)
(-0.000655343 -0.000350243 2.65378e-05)
(-0.000646624 -0.000350069 8.72107e-06)
(-0.000276496 3.69888e-05 6.39886e-05)
(-0.000223085 4.85966e-06 -1.32363e-05)
(-5.81112e-05 2.03289e-06 9.0806e-06)
(1.73638e-05 7.27582e-06 9.51725e-06)
(6.04442e-05 6.43585e-06 -3.84892e-07)
(6.1865e-05 9.76717e-06 -4.59061e-06)
(5.83209e-06 -1.37898e-05 -2.73252e-05)
(-0.000156765 -0.000122249 -6.17276e-05)
(-0.000347405 -0.000207838 -2.5907e-05)
(-0.000493978 -0.000251948 1.78229e-05)
(-0.000598264 -0.000274251 5.64546e-05)
(-0.000665932 -0.000285075 8.63268e-05)
(-0.000706446 -0.00029112 0.000106499)
(-0.000725404 -0.00029466 0.000117892)
(-0.000727315 -0.000296923 0.000122305)
(-0.000712655 -0.000298873 0.000120513)
(-0.000682447 -0.000301092 0.000111829)
(-0.000650982 -0.000302219 0.000101163)
(-0.000608901 -0.000302285 8.82522e-05)
(-0.00056855 -0.000302039 7.07758e-05)
(-0.000539665 -0.00030081 5.26489e-05)
(-0.000516568 -0.000298313 3.68833e-05)
(-0.00049656 -0.000296509 2.21011e-05)
(-0.000486468 -0.000295053 7.1628e-06)
(-0.000234704 3.55796e-05 4.58341e-05)
(-0.000195817 9.07384e-06 -1.17529e-05)
(-7.14318e-05 8.39054e-06 1.02631e-05)
(3.93301e-05 4.00697e-06 2.83549e-06)
(6.47537e-05 5.29179e-06 8.58147e-06)
(6.65022e-05 1.57766e-05 1.9125e-05)
(2.66074e-05 8.97322e-06 3.7542e-07)
(-6.19711e-05 -5.34399e-05 -2.62509e-05)
(-0.000224151 -0.000147104 -9.13364e-06)
(-0.000365339 -0.000201952 2.1157e-05)
(-0.000467231 -0.000231715 5.07843e-05)
(-0.000531147 -0.000246283 7.48652e-05)
(-0.000567841 -0.000253901 9.17961e-05)
(-0.000583295 -0.000257525 0.000101824)
(-0.000581788 -0.000259091 0.000106065)
(-0.000563587 -0.000260073 0.000104655)
(-0.000529602 -0.000260333 9.60982e-05)
(-0.000494669 -0.000258115 8.58583e-05)
(-0.000446578 -0.000253637 7.35416e-05)
(-0.000399475 -0.000247794 5.66711e-05)
(-0.000366801 -0.000242172 4.03164e-05)
(-0.000341402 -0.000236008 2.7248e-05)
(-0.000320027 -0.000231477 1.58551e-05)
(-0.000309429 -0.000228698 5.00698e-06)
(-0.000184409 2.87801e-05 3.17619e-05)
(-0.000163246 1.12523e-05 -8.28135e-06)
(-4.38409e-05 2.12531e-06 8.97028e-06)
(4.43069e-05 3.23583e-06 1.26989e-05)
(6.57636e-05 6.15794e-06 2.75893e-05)
(5.83608e-05 6.45439e-06 3.294e-05)
(3.78515e-05 1.90964e-06 3.29538e-05)
(1.59944e-07 -1.67425e-05 2.01408e-05)
(-0.000107459 -9.59806e-05 2.58731e-05)
(-0.000225989 -0.00015195 3.4763e-05)
(-0.000320935 -0.000186361 4.97143e-05)
(-0.000383113 -0.000205444 6.45339e-05)
(-0.000418199 -0.000215234 7.60701e-05)
(-0.000430472 -0.000218609 8.31887e-05)
(-0.000423262 -0.000217791 8.57347e-05)
(-0.000397083 -0.000214596 8.30072e-05)
(-0.000358499 -0.000210816 7.38358e-05)
(-0.000319883 -0.000203252 6.35718e-05)
(-0.000270572 -0.000194019 5.23372e-05)
(-0.000225902 -0.000185133 3.77474e-05)
(-0.00019478 -0.000176306 2.45008e-05)
(-0.000171336 -0.00016755 1.51456e-05)
(-0.000150437 -0.00016005 7.98707e-06)
(-0.000140279 -0.000155736 2.31801e-06)
(-0.000136253 2.46416e-05 2.11437e-05)
(-0.000131921 1.49929e-05 -7.24685e-06)
(-3.35061e-05 4.89697e-06 1.01266e-05)
(2.71755e-05 1.54855e-05 1.86239e-05)
(5.72312e-05 1.74403e-05 2.99091e-05)
(6.04897e-05 8.43412e-06 3.21283e-05)
(6.09583e-05 -3.19995e-06 4.16535e-05)
(4.0232e-05 -1.58429e-05 4.1166e-05)
(5.71012e-06 -5.4187e-05 5.44562e-05)
(-8.44292e-05 -0.000104381 5.02017e-05)
(-0.000169684 -0.000139816 4.95146e-05)
(-0.000224946 -0.000159197 5.27048e-05)
(-0.000254447 -0.000167938 5.62275e-05)
(-0.000263738 -0.000170093 5.88196e-05)
(-0.000255667 -0.000167779 5.92014e-05)
(-0.00023037 -0.00016275 5.5682e-05)
(-0.000192932 -0.000155874 4.61693e-05)
(-0.000156903 -0.000143819 3.62527e-05)
(-0.000107717 -0.000126378 2.52248e-05)
(-6.20767e-05 -0.000105737 1.23615e-05)
(-3.44952e-05 -8.82689e-05 3.58891e-06)
(-1.62756e-05 -7.28038e-05 -6.8736e-07)
(-2.11579e-06 -6.02731e-05 -2.19643e-06)
(3.79179e-06 -5.35639e-05 -1.09175e-06)
(-7.9214e-05 2.35048e-05 1.41387e-05)
(-0.000105159 1.96412e-05 -1.89792e-05)
(-3.79187e-05 1.41753e-05 -5.20043e-07)
(3.17191e-06 3.92472e-05 4.67179e-06)
(4.53887e-05 5.09002e-05 1.73613e-06)
(7.51581e-05 3.88666e-05 2.19914e-06)
(6.27576e-05 1.09101e-05 1.08391e-05)
(6.62296e-05 -4.33931e-06 2.3294e-05)
(6.90129e-05 -2.37082e-05 4.09375e-05)
(3.05848e-05 -4.43323e-05 3.97812e-05)
(-2.01757e-05 -7.40901e-05 3.66037e-05)
(-6.80853e-05 -0.000100747 3.51687e-05)
(-9.93083e-05 -0.000113285 3.23908e-05)
(-0.000108206 -0.000114082 2.9598e-05)
(-9.69056e-05 -0.000105681 2.56986e-05)
(-6.85507e-05 -9.006e-05 1.87116e-05)
(-3.53639e-05 -7.3186e-05 8.41727e-06)
(-9.74011e-06 -4.58869e-05 3.81217e-07)
(1.22203e-05 -3.37965e-05 -8.47214e-06)
(2.85983e-05 -1.84618e-05 -1.7431e-05)
(4.37045e-05 -1.02384e-05 -2.51834e-05)
(3.81445e-05 -1.96309e-06 -1.87337e-05)
(5.12172e-05 4.59295e-06 -1.75203e-05)
(3.28077e-05 4.73824e-06 -4.06854e-06)
(-6.52315e-06 8.19819e-06 9.23889e-06)
(-4.70919e-05 1.08741e-05 -2.65103e-05)
(-4.37479e-05 1.68086e-05 -3.09504e-05)
(-2.46682e-05 2.97194e-05 -3.51215e-05)
(1.00579e-05 4.24768e-05 -4.67333e-05)
(5.18061e-05 4.96742e-05 -5.89114e-05)
(8.2789e-05 3.77919e-05 -5.4429e-05)
(6.20591e-05 1.11061e-05 -1.87648e-05)
(5.8319e-05 3.25138e-06 2.90494e-06)
(5.22289e-05 -3.26619e-06 1.62977e-05)
(5.58515e-05 -1.83856e-05 2.23525e-05)
(2.49404e-05 -2.32662e-05 9.63721e-06)
(1.6513e-05 -3.7946e-05 3.20347e-06)
(5.78286e-06 -2.41099e-05 -2.36151e-06)
(7.36667e-06 -2.23419e-05 -6.40105e-06)
(2.32724e-05 -2.66657e-05 -1.88037e-05)
(3.60852e-05 -1.34662e-05 -2.86432e-05)
(2.93112e-05 -2.57386e-06 -2.44434e-05)
(3.51077e-05 5.40556e-06 -3.03244e-05)
(3.82367e-05 1.14434e-05 -3.22771e-05)
(5.27292e-05 1.95454e-05 -4.10895e-05)
(5.28806e-05 2.15149e-05 -3.38649e-05)
(4.24194e-05 1.7965e-05 -1.80317e-05)
(3.87637e-05 1.66479e-05 -5.85056e-06)
(2.5906e-05 -5.32882e-06 7.84745e-06)
(2.36718e-05 -7.01985e-06 -8.45887e-06)
(1.16678e-05 -2.06622e-06 -2.37133e-05)
(6.73696e-06 3.09954e-06 -4.18692e-05)
(1.41838e-05 8.05665e-06 -5.94667e-05)
(3.45344e-05 9.06519e-06 -6.99696e-05)
(5.7555e-05 7.5805e-06 -6.5986e-05)
(7.50036e-05 8.46474e-06 -4.98617e-05)
(4.98819e-05 9.74899e-06 -1.39365e-05)
(4.5736e-05 1.1682e-05 3.30285e-06)
(6.39781e-05 1.09459e-05 9.20661e-06)
(5.39688e-05 5.74079e-06 3.72431e-06)
(5.99038e-05 3.75293e-06 -6.99863e-06)
(3.7505e-05 1.86894e-06 -1.38837e-05)
(4.398e-05 3.75821e-06 -2.65031e-05)
(4.62848e-05 7.81346e-06 -3.43027e-05)
(6.07341e-05 1.50443e-05 -4.87753e-05)
(3.95416e-05 1.1009e-05 -3.3955e-05)
(4.47773e-05 1.27559e-05 -3.90703e-05)
(5.54823e-05 1.50003e-05 -4.77201e-05)
(6.203e-05 1.56478e-05 -5.03978e-05)
(6.21183e-05 1.39397e-05 -4.1917e-05)
(6.67673e-05 1.27327e-05 -3.00533e-05)
(7.01085e-05 1.19102e-05 -1.13419e-05)
(2.98657e-05 -3.55334e-06 8.62524e-06)
(3.75292e-05 -1.13033e-05 -4.33096e-06)
(3.49885e-05 -1.03648e-05 -6.08388e-06)
(4.23235e-05 -1.19788e-05 -1.59194e-05)
(4.52451e-05 -1.17944e-05 -2.92412e-05)
(4.87198e-05 -1.23184e-05 -3.91306e-05)
(5.12728e-05 -1.26181e-05 -3.60004e-05)
(4.90977e-05 -8.42171e-06 -1.96599e-05)
(5.71373e-05 -3.9223e-07 -4.67841e-06)
(5.72735e-05 5.10582e-06 3.98253e-06)
(7.76282e-05 6.42888e-06 4.30918e-06)
(8.04884e-05 8.05581e-06 1.19304e-07)
(7.01517e-05 8.59091e-06 -7.70058e-06)
(4.76311e-05 6.62666e-06 -1.29901e-05)
(6.6381e-05 9.50354e-06 -3.01322e-05)
(6.10925e-05 8.14255e-06 -3.69496e-05)
(7.20847e-05 7.67184e-06 -5.17433e-05)
(7.74803e-05 4.24166e-06 -6.30447e-05)
(8.56592e-05 -1.9626e-06 -7.50777e-05)
(8.85173e-05 -8.94834e-06 -7.99445e-05)
(8.55974e-05 -1.34296e-05 -7.4494e-05)
(8.58752e-05 -1.7078e-05 -6.23421e-05)
(8.5352e-05 -2.03037e-05 -4.12023e-05)
(8.53549e-05 -2.18567e-05 -1.47136e-05)
(2.74331e-05 -3.24647e-06 5.71033e-06)
(3.7058e-05 -1.426e-05 -6.51104e-06)
(4.79655e-05 -1.94643e-05 -2.13622e-06)
(5.23318e-05 -2.10658e-05 -2.80355e-06)
(5.29227e-05 -2.21632e-05 -8.05021e-06)
(5.07799e-05 -2.59168e-05 -1.23233e-05)
(4.72987e-05 -3.00874e-05 -1.0034e-05)
(4.49568e-05 -2.99004e-05 -5.57331e-07)
(4.9214e-05 -2.45863e-05 7.70363e-06)
(7.423e-05 -2.44363e-05 8.76255e-06)
(0.000108134 -2.09578e-05 3.68985e-06)
(0.000125868 -1.55813e-05 -4.94391e-06)
(0.000125753 -1.10937e-05 -1.75145e-05)
(0.000119471 -1.03407e-05 -3.23e-05)
(0.000106784 -1.18252e-05 -4.51807e-05)
(0.000105381 -1.69847e-05 -6.04286e-05)
(0.000106127 -2.24937e-05 -7.4153e-05)
(0.000106862 -2.94829e-05 -8.57473e-05)
(0.00010399 -3.69022e-05 -9.03204e-05)
(9.88023e-05 -4.24331e-05 -8.82496e-05)
(9.34665e-05 -4.52282e-05 -8.01269e-05)
(8.88172e-05 -4.47579e-05 -6.30865e-05)
(8.87936e-05 -4.61937e-05 -4.17697e-05)
(8.89671e-05 -4.68017e-05 -1.49568e-05)
(2.74403e-05 -9.19236e-06 -2.05485e-08)
(3.90932e-05 -2.02346e-05 -5.92546e-06)
(4.91923e-05 -2.81397e-05 -1.35609e-06)
(5.18876e-05 -3.22648e-05 -1.75235e-06)
(5.03348e-05 -3.61006e-05 -5.13511e-06)
(4.6262e-05 -4.13504e-05 -7.21111e-06)
(4.11901e-05 -4.50869e-05 -4.48469e-06)
(3.90211e-05 -4.49568e-05 1.90753e-06)
(5.09628e-05 -4.55712e-05 7.20782e-06)
(7.782e-05 -4.33527e-05 6.35413e-06)
(0.000108494 -3.73607e-05 5.94223e-07)
(0.000125207 -3.17279e-05 -8.56282e-06)
(0.000133266 -2.98371e-05 -2.10948e-05)
(0.000131356 -3.13176e-05 -3.57018e-05)
(0.000127786 -3.63324e-05 -5.16475e-05)
(0.000124079 -4.22377e-05 -6.63924e-05)
(0.000120192 -4.69491e-05 -7.84547e-05)
(0.000117769 -5.15256e-05 -8.82598e-05)
(0.000113671 -5.53877e-05 -9.25608e-05)
(0.000107277 -5.64851e-05 -8.97244e-05)
(9.95339e-05 -5.53071e-05 -7.95894e-05)
(9.49233e-05 -5.28776e-05 -6.31917e-05)
(9.36503e-05 -5.1423e-05 -4.12057e-05)
(9.38908e-05 -5.11986e-05 -1.4783e-05)
(2.62811e-05 -1.30921e-05 -3.49795e-06)
(4.49026e-05 -2.54947e-05 -3.91695e-06)
(5.33379e-05 -3.31417e-05 -2.22686e-06)
(5.55521e-05 -3.8208e-05 -3.63063e-06)
(5.41629e-05 -4.27798e-05 -6.5801e-06)
(5.02297e-05 -4.67547e-05 -8.4774e-06)
(4.38653e-05 -4.65172e-05 -6.88546e-06)
(3.47981e-05 -3.76219e-05 -2.71866e-06)
(4.05047e-05 -3.61886e-05 -3.9571e-07)
(5.61411e-05 -3.43837e-05 -5.947e-07)
(7.64316e-05 -3.0533e-05 -2.91251e-06)
(0.000105468 -2.91986e-05 -9.08396e-06)
(0.000126653 -2.97517e-05 -2.1026e-05)
(0.000135273 -3.44378e-05 -3.63394e-05)