/*--------------------------------*- C++ -*----------------------------------*\
  =========                 |
  \\      /  F ield         | OpenFOAM: The Open Source CFD Toolbox
   \\    /   O peration     | Website:  https://openfoam.org
    \\  /    A nd           | Version:  6
     \\/     M anipulation  |
\*---------------------------------------------------------------------------*/
FoamFile
{
    version     2.0;
    format      ascii;
    class       volScalarField;
    location    "33";
    object      yPlus;
}
// * * * * * * * * * * * * * * * * * * * * * * * * * * * * * * * * * * * * * //

dimensions      [0 0 0 0 0 0 0];

internalField   uniform 0;

boundaryField
{
    inlet
    {
        type            calculated;
        value           uniform 0;
    }
    outlet
    {
        type            calculated;
        value           uniform 0;
    }
    roughCylinder
    {
        type            calculated;
        value           nonuniform List<scalar> 
5120
(
42.6952
50.4614
56.6314
62.6412
67.7832
71.9279
75.2365
77.903
80.0824
81.9107
83.5072
84.9378
86.2407
87.4476
88.5886
89.6934
90.7917
91.9102
93.0709
94.2901
95.576
96.9306
98.3505
99.8286
101.355
102.916
104.497
106.072
107.605
109.021
110.184
110.865
42.0177
49.4995
55.4734
61.347
66.4179
70.5279
73.8176
76.4754
78.6547
80.4898
82.0935
83.5266
84.8199
86.0121
87.1349
88.2186
89.293
90.3868
91.5223
92.7147
93.9723
95.2972
96.6862
98.1318
99.6242
101.15
102.694
104.233
105.729
107.11
108.244
108.907
41.2461
48.485
54.2775
60.0185
65.0215
69.103
72.3828
75.0424
77.2327
79.084
80.7001
82.1369
83.4243
84.605
85.7111
86.7746
87.828
88.8985
90.0083
91.1739
92.404
93.6998
95.0582
96.4716
97.9304
99.4213
100.93
102.431
103.891
105.237
106.343
106.989
40.4775
47.4794
53.0864
58.6875
63.6186
67.6719
70.9448
73.6117
75.8212
77.6959
79.3291
80.7731
82.0606
83.2316
84.3238
85.3705
86.4029
87.4507
88.5377
89.6788
90.882
92.1496
93.4781
94.8601
96.2857
97.742
99.2139
100.679
102.103
103.415
104.493
105.121
39.6288
46.413
51.8373
57.2992
62.1644
66.2024
69.4851
72.1758
74.4167
76.3219
77.9768
79.4323
80.7244
81.8907
82.9725
84.0033
85.0189
86.0476
87.1115
88.228
89.406
90.6466
91.9464
93.2979
94.6912
96.1143
97.5519
98.9812
100.37
101.648
102.699
103.31
38.8092
45.3693
50.6001
55.9123
60.7074
64.7317
68.0267
70.7429
73.0178
74.9573
76.638
78.1098
79.4111
80.5796
81.6548
82.6755
83.6746
84.684
85.7291
86.8247
87.9786
89.1933
90.4653
91.7871
93.1489
94.5383
95.9413
97.3357
98.6897
99.9352
100.958
101.551
37.8917
44.2417
49.2762
54.4355
59.1654
63.1918
66.5224
69.2874
71.6126
73.5943
75.3067
76.8006
78.1166
79.2936
80.3686
81.3806
82.3692
83.3653
84.3909
85.4646
86.5962
87.7865
89.032
90.3253
91.6569
93.0145
94.3842
95.7444
97.065
98.2781
99.275
99.8517
37.0169
43.1449
47.9691
52.9611
57.619
61.6489
65.0162
67.8264
70.1989
72.227
73.9773
75.4999
76.8373
78.0278
79.1103
80.1217
81.1014
82.0829
83.0948
84.1525
85.2633
86.4302
87.6501
88.9157
90.217
91.5427
92.8784
94.2048
95.4915
96.6728
97.642
98.2025
36.003
41.92
46.5247
51.3375
55.9217
59.9704
63.4061
66.3002
68.7516
70.8412
72.6383
74.1977
75.5634
76.7756
77.8705
78.8871
79.8652
80.8428
81.8406
82.8793
83.9711
85.1167
86.3123
87.551
88.8236
90.118
91.4224
92.7159
93.97
95.1197
96.0646
96.6084
35.0345
40.7247
45.0966
49.7118
54.2107
58.2782
61.7823
64.7498
67.2688
69.4257
71.2818
72.8886
74.2924
75.532
76.6471
77.6754
78.6576
79.6287
80.6196
81.6494
82.7245
83.8491
85.0212
86.2337
87.4766
88.7397
90.0099
91.2684
92.49
93.6075
94.5248
95.0518
33.84
39.3182
43.4423
47.8343
52.2296
56.324
59.9389
63.0498
65.7045
67.9607
69.8901
71.5554
73.0057
74.2844
75.4271
76.4738
77.4654
78.4445
79.4297
80.4445
81.5043
82.611
83.7605
84.9466
86.1613
87.3925
88.6317
89.8585
91.0474
92.1338
93.028
93.5379
32.6633
37.9313
41.7992
45.9489
50.2237
54.3416
58.0661
61.2956
64.0526
66.4171
68.4451
70.1893
71.7034
73.0289
74.2085
75.2812
76.2907
77.2701
78.2564
79.2714
80.32
81.4083
82.5363
83.6972
84.8823
86.0821
87.2856
88.4758
89.6323
90.6858
91.5515
92.0449
31.1381
36.2033
39.7768
43.624
47.7213
51.8453
55.7318
59.2131
62.2282
64.7712
66.9229
68.764
70.3526
71.7424
72.9706
74.0802
75.1117
76.1145
77.1047
78.1077
79.1449
80.2193
81.3268
82.4624
83.6193
84.7863
85.9594
87.1189
88.2423
89.265
90.1077
90.5836
29.5865
34.4722
37.7686
41.3085
45.2096
49.3308
53.3722
57.0364
60.2045
62.9418
65.2746
67.2552
68.9544
70.4219
71.7116
72.8659
73.9353
74.9468
75.9472
76.9629
77.9961
79.055
80.1431
81.2545
82.3812
83.5162
84.6506
85.7708
86.861
87.8478
88.6614
89.1203
27.4135
32.119
35.0556
38.1447
41.6956
45.72
49.9599
54.0922
57.8141
60.9035
63.4686
65.6257
67.452
69.0273
70.3986
71.6181
72.7242
73.781
74.7994
75.806
76.8315
77.8815
78.9512
80.0376
81.1359
82.2356
83.3393
84.4303
85.4867
86.4424
87.2314
87.6725
25.0503
29.6888
32.3936
35.1338
38.3582
42.2862
46.7238
51.0645
54.9443
58.4357
61.3748
63.8039
65.8392
67.5528
69.0272
70.3183
71.4945
72.5706
73.6102
74.6473
75.6793
76.7171
77.7697
78.8321
79.898
80.9635
82.024
83.069
84.0904
85.0046
85.764
86.1874
21.2499
25.8585
28.0925
30.052
32.4984
35.9685
40.4794
45.9084
51.2696
55.4911
58.9287
61.7333
64.0152
65.9257
67.5444
68.951
70.1822
71.3363
72.4154
73.4451
74.4727
75.5074
76.5438
77.5809
78.6169
79.6426
80.6702
81.6889
82.6738
83.558
84.2868
84.692
16.5054
21.6717
24.2396
26.1824
28.153
31.291
36.4521
41.422
46.1026
51.4642
55.8018
59.2056
61.9359
64.1237
65.9313
67.4552
68.8167
70.006
71.1198
72.2081
73.2576
74.2845
75.3055
76.3182
77.3165
78.3028
79.28
80.2407
81.1875
82.0172
82.7182
83.103
5.72537
11.4346
12.5674
12.2707
11.3996
13.1697
16.4322
25.4574
39.4934
46.1191
51.7602
56.1198
59.4035
62.0028
64.0958
65.8448
67.2865
68.6092
69.7987
70.878
71.9255
72.9567
73.9638
74.9485
75.9141
76.8525
77.7915
78.7302
79.6354
80.4394
81.0949
81.4642
5.11893
6.63983
8.40293
8.44275
13.4439
20.01
21.591
22.6915
23.5471
37.9163
45.8523
51.802
56.2448
59.4824
61.9698
63.9282
65.635
67.0226
68.2672
69.4554
70.551
71.5806
72.5736
73.5318
74.4489
75.3362
76.2118
77.0718
77.9328
78.6553
79.2892
79.6305
9.98443
14.248
15.0102
14.3246
12.2378
14.5389
16.0316
20.31
22.3727
17.7117
36.9851
46.0584
51.9326
56.2249
59.3712
61.8316
63.6564
65.2911
66.6826
67.8515
68.9454
69.9903
70.9723
71.8968
72.7733
73.5985
74.4257
75.27
76.0811
76.7916
77.346
77.6831
19.2298
23.6043
25.3149
25.7436
24.7813
22.2443
19.3965
11.1322
16.1518
21.309
20.1515
36.5236
46.0926
51.9637
56.0781
58.9695
61.4108
63.1697
64.6555
66.0421
67.2348
68.2896
69.2583
70.1512
70.9584
71.7048
72.44
73.1711
73.925
74.49
75.0469
75.3306
21.8827
26.8017
29.4593
31.3781
32.455
32.5217
31.21
28.2663
22.0894
21.2742
13.0279
13.8414
35.9679
45.796
51.6659
55.8414
58.4407
60.7454
62.541
63.868
65.0534
66.1461
67.1086
67.9552
68.7
69.3544
70.0279
70.7469
71.4394
72.0418
72.4254
72.7534
22.799
27.8389
30.7435
33.0607
34.7575
35.8159
36.1851
35.6778
33.6792
28.5407
23.6846
11.7815
14.8061
35.5255
45.3597
50.7376
54.9856
57.4455
59.4128
61.2426
62.6422
63.7698
64.7216
65.5231
66.1553
66.6601
67.1592
67.7175
68.3161
68.5968
69.0728
69.2553
22.3366
27.5103
30.581
33.1372
35.1428
36.5923
37.4892
37.8223
37.4783
35.9688
31.5631
26.6591
22.8236
21.2446
36.0516
44.8763
49.3736
53.5541
56.2552
57.8252
59.1763
60.3963
61.3505
62.076
62.5826
62.9133
63.363
63.8813
64.4199
64.9183
64.9541
65.3932
20.9138
26.2259
29.392
32.0841
34.276
35.9682
37.1842
37.9602
38.3143
38.131
36.7967
32.2545
30.8689
19.9482
19.1617
35.8563
44.0938
47.2585
50.3107
53.4094
55.2633
56.5914
57.5364
58.1882
58.452
58.4432
58.4183
58.7797
59.0575
58.7327
59.1916
58.9642
19.0286
24.4374
27.6348
30.3809
32.6652
34.5001
35.9134
36.9614
37.7192
38.2289
38.3246
37.1847
32.6733
29.2828
7.37599
7.74813
29.6075
41.2555
45.6452
46.9893
48.629
50.0803
51.1459
51.5278
51.6035
50.9993
51.1601
51.5524
51.8309
52.1384
52.0762
53.3081
16.8928
22.3006
25.44
28.1497
30.4439
32.3554
33.9231
35.2029
36.2762
37.2209
38.0435
38.5115
37.7414
34.3649
26.3132
12.5435
12.4627
22.6117
31.345
39.4846
41.5234
43.7623
44.3315
44.9873
44.1367
42.574
41.4276
40.0642
40.4373
40.0037
38.3944
36.5919
14.7305
20.0097
22.9937
25.5715
27.7875
29.6958
31.3513
32.8157
34.1644
35.4701
36.7473
37.8845
38.4969
37.6669
33.6039
33.5915
22.4794
12.819
15.8465
18.9273
27.6625
24.4972
29.6013
26.6828
24.5577
30.3324
18.4605
41.1113
22.4171
24.7965
42.7112
30.4738
12.7539
17.7877
20.5413
22.9145
24.9831
26.8206
28.4941
30.0701
31.6157
33.1939
34.8322
36.4579
37.834
38.4639
37.443
33.7128
24.8349
25.9299
23.3145
27.8869
33.3241
28.1602
35.1897
17.6779
30.7765
41.1275
24.8469
42.2972
33.4214
29.2532
45.9473
36.2354
11.1542
15.8509
18.3428
20.4787
22.3644
24.0889
25.7264
27.3408
28.9872
30.711
32.5448
34.4649
36.3233
37.7738
38.2816
36.1724
33.9586
27.8236
26.812
28.4209
34.0875
22.8075
31.0343
26.8049
32.8112
38.3998
35.2046
38.7209
37.4312
34.5201
43.5168
28.098
9.89989
14.3481
16.6002
18.5182
20.2341
21.8442
23.4195
25.0126
26.663
28.4042
30.2671
32.2653
34.3507
36.3306
37.8225
38.1117
38.0849
35.7926
33.1225
30.9963
27.9424
25.9877
24.1704
27.7055
31.4195
35.1109
36.0697
36.8474
37.3732
36.2845
37.2949
37.2111
9.17645
13.4067
15.4729
17.2337
18.8334
20.3622
21.8764
23.4099
24.9868
26.6331
28.3811
30.2647
32.301
34.4391
36.4913
38.0452
39.1523
39.069
37.9181
37.4431
36.3088
36.7502
36.8275
37.1511
39.8887
40.8129
41.4754
42.5029
42.7527
40.6899
42.1571
42.191
8.89888
13.013
14.9829
16.6727
18.228
19.7241
21.1962
22.6597
24.1274
25.6207
27.1722
28.8242
30.6212
32.5889
34.6906
36.7484
38.5958
39.6911
39.8524
40.0712
39.8818
40.2633
40.6255
40.5095
42.0318
41.7372
42.4213
43.1156
43.4088
41.6762
42.6601
43.1573
9.01058
13.0945
15.0487
16.7435
18.3154
19.8206
21.2743
22.6785
24.0408
25.3811
26.7305
28.1283
29.6212
31.2589
33.078
35.0535
37.0873
38.8172
39.8937
40.7112
40.9423
41.3153
41.5997
41.3747
42.1587
41.522
42.1871
42.3704
42.6
41.2774
41.8254
42.6018
9.40491
13.5198
15.5173
17.2738
18.9068
20.4529
21.9133
23.2835
24.5693
25.7905
26.9761
28.1593
29.3785
30.6792
32.1131
33.7194
35.4964
37.2819
38.7888
40.0594
40.7285
41.2294
41.4597
41.1632
41.3241
40.5282
40.8976
40.7763
40.8536
39.8329
40.2909
41.0848
10.0162
14.1969
16.2681
18.1137
19.829
21.4334
22.9191
24.2798
25.523
26.6695
27.746
28.779
29.7967
30.8322
31.9278
33.1317
34.4838
35.9554
37.4048
38.7736
39.7084
40.3479
40.5796
40.2276
39.9703
39.0975
39.1423
38.869
38.7934
38.0936
38.6418
39.3162
10.7905
15.0674
17.2278
19.1716
20.9724
22.637
24.154
25.5197
26.7457
27.8553
28.873
29.8197
30.7134
31.5745
32.4296
33.3166
34.2788
35.3388
36.4612
37.6086
38.5279
39.1753
39.3945
39.031
38.5462
37.6773
37.4648
37.1381
36.9982
36.6583
37.3106
37.8525
11.6345
16.0805
18.34
20.382
22.2638
23.9846
25.5336
26.912
28.1375
29.2359
30.2311
31.1392
31.9711
32.7361
33.4474
34.1275
34.8078
35.5199
36.2731
37.0653
37.7582
38.2574
38.3965
38.0275
37.4431
36.6193
36.2494
35.9315
35.8174
35.8159
36.5339
36.991
12.6379
17.204
19.5597
21.695
23.6511
25.4231
27.0032
28.3993
29.6351
30.7392
31.7351
32.6353
33.4459
34.1695
34.8097
35.3758
35.8845
36.3585
36.8175
37.2754
37.6723
37.9324
37.9223
37.5151
36.8834
36.1093
35.66
35.386
35.3515
35.6227
36.372
36.7968
13.2345
13.6755
14.1749
14.5808
14.9695
15.2807
15.5505
15.7608
15.9299
16.0512
16.1351
16.1788
16.1882
16.1652
16.1143
16.0363
15.9357
15.8196
15.7052
15.6431
15.7269
15.8734
16.0249
16.1623
16.2779
16.3678
16.4298
16.4617
16.4582
16.419
16.3391
16.2191
16.0483
15.832
15.5532
15.2278
14.8234
14.3969
13.8766
13.4158
17.9153
18.3777
18.9009
19.3279
19.7373
20.0719
20.3664
20.6034
20.7998
20.95
21.0634
21.1373
21.1758
21.1795
21.1519
21.093
21.0055
20.8955
20.7799
20.7142
20.8036
20.9567
21.1073
21.2362
21.3365
21.4056
21.4426
21.4459
21.4121
21.3423
21.2324
21.0828
20.8841
20.6412
20.338
19.9901
19.5665
19.1212
18.5806
18.1028
20.336
20.8259
21.3812
21.8357
22.2752
22.6421
22.9731
23.2496
23.4886
23.6839
23.8444
23.9674
24.0551
24.1063
24.1231
24.105
24.053
23.9719
23.8772
23.8224
23.9078
24.0469
24.1753
24.2746
24.3392
24.368
24.3608
24.3169
24.2356
24.1191
23.9639
23.7708
23.5315
23.2511
22.9135
22.5355
22.0833
21.6119
21.0404
20.5354
22.5112
23.0215
23.6014
24.077
24.5425
24.9383
25.3029
25.617
25.8973
26.1369
26.3434
26.5146
26.6511
26.7504
26.8126
26.8365
26.8223
26.774
26.7072
26.6714
26.7454
26.8622
26.9631
27.0298
27.0569
27.0442
26.9921
26.9016
26.774
26.6122
26.4129
26.178
25.9006
25.5858
25.2177
24.8141
24.3389
23.849
23.2553
22.7303
24.4832
24.9981
25.5866
26.0696
26.5477
26.9599
27.3458
27.6856
27.996
28.2704
28.5142
28.7245
28.9007
29.0396
29.1399
29.1992
29.2175
29.1986
29.1583
29.1409
29.2025
29.2967
29.3719
29.4096
29.4044
29.3563
29.2668
29.1379
28.9724
28.7734
28.5396
28.274
27.9701
27.6332
27.2472
26.8309
26.3462
25.8523
25.2527
24.7244
26.2542
26.757
27.3396
27.8173
28.2966
28.7152
29.1138
29.4729
29.8075
30.1105
30.3852
30.6283
30.838
31.0104
31.1427
31.2322
31.278
31.2839
31.2654
31.2615
31.314
31.3889
31.4419
31.4543
31.421
31.3423
31.2203
31.0586
30.8604
30.6298
30.3671
30.0757
29.7513
29.4002
29.006
28.5873
28.1049
27.6196
27.0288
26.5147
27.8265
28.306
28.8748
29.342
29.8185
30.2423
30.6531
31.0304
31.3871
31.7157
32.0185
32.2908
32.5301
32.7318
32.892
33.0072
33.0762
33.1022
33.1
33.1048
33.1512
33.2118
33.2463
33.2371
33.1793
33.0733
32.9225
32.7312
32.5033
32.2435
31.9538
31.6383
31.2941
30.9283
30.5266
30.1083
29.6329
29.162
28.5876
28.0994
29.2171
29.6698
30.2249
30.6837
31.161
31.5931
32.017
32.4124
32.7902
33.1427
33.4707
33.7692
34.0346
34.2617
34.4458
34.5828
34.6706
34.7121
34.7213
34.7313
34.7739
34.8241
34.8443
34.8172
34.7383
34.6087
34.4324
34.2143
33.9595
33.673
33.358
33.0192
32.6551
32.2729
31.8609
31.4386
30.9677
30.5101
29.9524
29.494
30.4554
30.8835
31.4294
31.8857
32.367
32.8088
33.246
33.6585
34.0556
34.4292
34.7794
35.1005
35.3881
35.6366
35.8405
35.9951
36.0975
36.1503
36.1667
36.1793
36.2194
36.2628
36.2721
36.2306
36.1343
35.9847
35.7865
35.5454
35.2667
34.9567
34.6188
34.2587
33.8757
33.4772
33.0533
32.6236
32.152
31.7024
31.1579
30.7275
31.5717
31.9789
32.5203
32.9767
33.4629
33.9142
34.3634
34.7909
35.2044
35.5959
35.9645
36.3042
36.61
36.8758
37.0953
37.2633
37.3766
37.4371
37.4577
37.471
37.5095
37.5484
37.5496
37.497
37.3865
37.2206
37.0043
36.7437
36.4451
36.1148
35.7575
35.3786
34.9788
34.5655
34.1303
33.6925
33.2179
32.7715
32.2358
31.8305
32.5886
32.9765
33.514
33.9706
34.4611
34.9206
35.3797
35.8195
36.2463
36.6522
37.0355
37.3899
37.7098
37.9887
38.22
38.3981
38.5193
38.585
38.6079
38.621
38.6579
38.6933
38.6881
38.6265
38.5048
38.3258
38.0947
37.8185
37.5034
37.1566
36.7829
36.3883
35.9744
35.5484
35.1033
34.658
34.1806
33.736
33.2074
32.8251
33.5153
33.8833
34.4159
34.872
35.3654
35.8311
36.2981
36.7475
37.1847
37.6019
37.9963
38.3618
38.6924
38.981
39.221
39.4064
39.5333
39.6032
39.6282
39.6413
39.6759
39.707
39.6959
39.6265
39.4955
39.3058
39.0631
38.7741
38.4458
38.0853
37.6983
37.2908
36.8651
36.4286
35.9752
35.5237
35.0442
34.6017
34.0799
33.7212
34.3551
34.7004
35.2263
35.6803
36.1753
36.6458
37.1188
37.5757
38.0208
38.4463
38.8493
39.2229
39.5611
39.8567
40.1029
40.2936
40.4253
40.4992
40.5275
40.5419
40.5727
40.5975
40.5795
40.5026
40.3635
40.1649
39.9125
39.6132
39.2742
38.9026
38.5046
38.0864
37.6508
37.2053
36.7449
36.2882
35.8072
35.3676
34.8542
34.5213
35.1084
35.4267
35.943
36.3937
36.8891
37.363
37.8406
38.3035
38.7547
39.1867
39.5957
39.975
40.3184
40.6188
40.8695
41.0643
41.2001
41.2787
41.3121
41.3287
41.3545
41.3706
41.344
41.2592
41.1125
40.9061
40.6455
40.3377
39.9898
39.6091
39.2018
38.7743
38.33
37.8763
37.4096
36.9481
36.4661
36.0302
35.5273
35.224
35.7757
36.0612
36.5644
37.0098
37.5042
37.9808
38.4621
38.9296
39.3857
39.8224
40.2357
40.6191
40.9659
41.2695
41.5231
41.7212
41.8611
41.9449
41.9842
42.0037
42.0236
42.0294
41.9928
41.8993
41.7449
41.5313
41.2636
40.9484
40.5928
40.2041
39.7885
39.3526
38.9
38.4386
37.9654
37.4992
37.0166
36.5853
36.0957
35.828
36.3614
36.6048
37.089
37.5262
38.0181
38.496
38.9801
39.4513
39.9111
40.3513
40.7677
41.1535
41.5025
41.8079
42.0635
42.2641
42.4076
42.4967
42.542
42.5639
42.5776
42.5725
42.5252
42.4227
42.2604
42.0398
41.7655
41.4436
41.081
40.6848
40.2613
39.8172
39.3565
38.887
38.4072
37.936
37.4528
37.0271
36.5548
36.3335
36.8712
37.0575
37.5154
37.94
38.4263
38.9037
39.389
39.8628
40.325
40.7677
41.1859
41.5732
41.9232
42.2294
42.4859
42.6884
42.835
42.9285
42.9787
43.002
43.0098
42.9942
42.9363
42.8245
42.6543
42.4268
42.146
41.8175
41.4482
41.0447
40.6135
40.1611
39.6918
39.2139
38.727
38.2501
37.767
37.3477
36.901
36.7446
37.317
37.4266
37.8454
38.2495
38.7245
39.1975
39.6811
40.1554
40.6186
41.0622
41.4811
41.8686
42.2185
42.5246
42.7814
42.9848
43.1335
43.2303
43.2839
43.3073
43.3095
43.2844
43.2162
43.0953
42.9172
42.6828
42.3954
42.0604
41.6842
41.2733
40.834
40.3728
39.8946
39.4075
38.913
38.4303
37.9477
37.5391
37.1341
37.0712
37.7034
37.7159
38.0782
38.4508
38.9062
39.3684
39.8459
40.3171
40.7787
41.2214
41.6395
42.0262
42.3751
42.6802
42.9363
43.1397
43.2895
43.3883
43.4436
43.466
43.4629
43.4291
43.3515
43.2217
43.0359
42.7942
42.5001
42.1584
41.7749
41.3561
40.9083
40.4379
39.95
39.4534
38.9507
38.4626
37.9827
37.5964
37.2581
37.3268
38.044
37.9454
38.2317
38.5521
38.9723
39.4121
39.8748
40.3368
40.7924
41.2311
41.6463
42.0304
42.3772
42.6804
42.9349
43.1376
43.2872
43.3866
43.442
43.4627
43.4542
43.4125
43.3264
43.1882
42.9945
42.7456
42.4445
42.0955
41.7043
41.2773
40.8203
40.34
39.8423
39.3355
38.8253
38.3314
37.8637
37.519
37.281
37.5258
38.375
38.1361
38.3179
38.5554
38.9186
39.3193
39.7557
40.2005
40.6446
41.0755
41.4852
41.8653
42.2087
42.5092
42.7614
42.9624
43.1109
43.2096
43.2641
43.282
43.2685
43.2199
43.1259
42.9799
42.7787
42.5225
42.2139
41.8574
41.4582
41.0224
40.556
40.0658
39.5577
39.0411
38.5221
38.0286
37.5873
37.3071
37.2004
37.6496
38.7435
38.3384
38.3709
38.4823
38.7572
39.0946
39.4885
39.9046
40.3295
40.7477
41.1485
41.5222
41.8608
42.1574
42.4065
42.6047
42.751
42.8476
42.9
42.9148
42.8966
42.842
42.7412
42.5881
42.38
42.1168
41.8012
41.4372
41.0302
40.5861
40.1109
39.6113
39.0938
38.5678
38.0434
37.56
37.1589
36.9614
37.0013
37.657
39.5024
38.6497
38.4188
38.3294
38.477
38.7273
39.0651
39.4443
39.8451
40.2474
40.6374
41.0034
41.3362
41.628
41.8729
42.0674
42.2103
42.3038
42.353
42.3645
42.3422
42.2831
42.1771
42.0187
41.8049
41.536
41.2145
40.8444
40.431
39.98
39.4977
38.9905
38.466
37.9321
37.4091
36.9445
36.5907
36.4764
36.6459
37.4662
39.9914
38.6579
38.1939
37.9281
37.978
38.1625
38.4605
38.8145
39.1992
39.591
39.9736
40.3339
40.6617
40.9489
41.1893
41.3791
41.5175
41.6064
41.6515
41.6596
41.6346
41.5729
41.4643
41.3029
41.0861
40.814
40.4892
40.1158
39.699
39.2443
38.7581
38.2467
37.7171
37.1805
36.6644
36.2208
35.9065
35.8513
36.094
36.9931
38.59
37.6001
37.3247
37.1583
37.2583
37.4618
37.7643
38.1148
38.4926
38.8759
39.2494
39.6006
39.9192
40.1974
40.4289
40.6099
40.7396
40.8206
40.8592
40.8634
40.8371
40.7758
40.6681
40.5076
40.2916
40.0201
39.6959
39.3231
38.9068
38.4528
37.9668
37.4555
36.9244
36.3904
35.8835
35.4572
35.1674
35.143
35.4122
36.3365
36.5765
36.0139
35.9665
36.0089
36.24
36.5418
36.9086
37.3031
37.7095
38.1107
38.4943
38.8499
39.1689
39.4442
39.6706
39.8447
39.9665
40.0394
40.0718
40.0739
40.0507
39.9952
39.8941
39.7399
39.5298
39.2643
38.9461
38.5794
38.1695
37.7221
37.2427
36.7381
36.2134
35.6879
35.1918
34.7774
34.4964
34.4741
34.7236
35.6142
35.408
34.9001
34.9004
35.038
35.3484
35.7267
36.1515
36.5913
37.031
37.4558
37.8553
38.2203
38.5437
38.8194
39.0426
39.211
39.3249
39.389
39.4148
39.4174
39.4027
39.3594
39.2705
39.1277
38.9284
38.6733
38.3657
38.0097
37.6107
37.1741
36.7057
36.2123
35.6997
35.1865
34.7024
34.2989
34.0249
34.0049
34.2499
35.1403
35.3059
34.6788
34.6079
34.7155
35.0123
35.3895
35.8171
36.2614
36.7044
37.1306
37.529
37.8909
38.2088
38.4771
38.6914
38.849
38.9504
39.0013
39.0165
39.0198
39.0187
38.9928
38.9206
38.7934
38.6094
38.3699
38.0784
37.7395
37.3584
36.9407
36.4923
36.0201
35.531
35.0403
34.5749
34.1833
33.9102
33.8759
34.0863
34.924
35.313
34.7187
34.6607
34.7772
35.0751
35.451
35.8755
36.3148
36.7508
37.1684
37.5569
37.9077
38.2136
38.4691
38.6699
38.8134
38.8996
38.9342
38.935
38.9383
38.9534
38.9453
38.8891
38.777
38.6083
38.385
38.111
37.7909
37.4299
37.0336
36.608
36.1601
35.6977
35.2314
34.784
34.4008
34.1214
34.0603
34.2201
34.9803
35.93
35.3308
35.2564
35.3404
35.6035
35.9435
36.3357
36.7451
37.1539
37.5459
37.9103
38.2385
38.5233
38.7591
38.9416
39.0678
39.1374
39.1555
39.1418
39.1453
39.1757
39.1826
39.1405
39.0432
38.8911
38.6865
38.4337
38.1373
37.8026
37.4352
37.0415
36.6287
36.2049
35.782
35.3747
35.0231
34.7575
34.6863
34.7894
35.4434
36.3847
35.8573
35.8275
35.9324
36.1996
36.5326
36.9115
37.3032
37.692
38.0631
38.4063
38.7136
38.9783
39.1951
39.3598
39.4696
39.5242
39.528
39.5014
39.5006
39.5359
39.548
39.5119
39.4221
39.2791
39.0857
38.8457
38.5641
38.2459
37.8971
37.5239
37.1342
36.7367
36.3449
35.9717
35.6539
35.42
35.3808
35.5101
36.1934
37.0627
36.4585
36.3746
36.4352
36.6687
36.9752
37.3321
37.7053
38.0777
38.434
38.764
39.0591
39.3127
39.5196
39.6756
39.7778
39.8258
39.8245
39.7945
39.7949
39.8336
39.8494
39.8176
39.733
39.5964
39.4103
39.1787
38.906
38.5975
38.2588
37.896
37.5169
37.13
36.7486
36.3856
36.0749
35.8438
35.803
35.9284
36.6112
42.5329
50.2972
56.4627
62.4685
67.6066
71.7477
75.053
77.7166
79.8933
81.7186
83.3109
84.7372
86.0354
87.2375
88.3729
89.4715
90.5631
91.6743
92.8269
94.0375
95.3146
96.6613
98.0765
99.5545
101.084
102.659
104.259
105.856
107.41
108.846
110.018
110.707
41.8388
49.3221
55.2928
61.1636
66.2318
70.3393
73.6268
76.2826
78.4598
80.2924
81.8927
83.3218
84.6104
85.7971
86.914
87.9913
89.0587
90.1446
91.2714
92.4546
93.7028
95.0188
96.3997
97.8412
99.3438
100.883
102.449
104.012
105.53
106.932
108.075
108.748
41.0815
48.318
54.1052
59.8417
64.8404
68.9177
72.1937
74.85
77.0374
78.8851
80.4966
81.9283
83.2105
84.3859
85.4858
86.5425
87.588
88.6499
89.75
90.9053
92.1244
93.4103
94.7633
96.1779
97.6381
99.1459
100.678
102.205
103.689
105.057
106.173
106.828
40.2873
47.2916
52.8955
58.4939
63.4228
67.4743
70.7458
73.4112
75.6187
77.4905
79.1203
80.5604
81.8431
83.0079
84.0936
85.1329
86.1572
87.1957
88.2725
89.4023
90.5939
91.8503
93.1675
94.5417
95.9837
97.4558
98.9551
100.449
101.897
103.233
104.32
104.958
39.464
46.2454
51.6641
57.1212
61.9815
66.0146
69.2925
71.9789
74.2162
76.1173
77.7672
79.2166
80.5024
81.6629
82.7379
83.7611
84.7676
85.786
86.8382
87.942
89.1063
90.334
91.6275
92.9827
94.3747
95.8188
97.2855
98.7459
100.161
101.465
102.525
103.146
38.6076
45.1706
50.3979
55.7075
60.5007
64.5242
67.8192
70.5349
72.808
74.7443
76.4211
77.8891
79.1859
80.3477
81.4154
82.4276
83.4173
84.4156
85.4484
86.5299
87.6691
88.8693
90.1255
91.4334
92.8205
94.2302
95.6669
97.0953
98.4778
99.7504
100.782
101.387
37.728
44.0756
49.1046
54.2591
58.9839
63.0047
66.3289
69.0876
71.4076
73.3848
75.0918
76.579
77.8871
79.0573
80.1249
81.128
82.106
83.0901
84.1014
85.1593
86.2734
87.4463
88.6837
89.9849
91.3109
92.6953
94.1025
95.4992
96.8508
98.0921
99.0982
99.6861
36.8061
42.9367
47.7564
52.7446
57.4005
61.4302
64.7993
67.611
69.9828
72.0074
73.7527
75.2708
76.6043
77.7878
78.8618
79.8634
80.8319
81.8002
82.7969
83.8366
84.9279
86.0756
87.2736
88.5155
89.8548
91.2072
92.5863
93.9544
95.2741
96.4859
97.4643
98.0363
35.8402
41.7562
46.3564
51.1655
55.7453
59.7878
63.215
66.0997
68.5435
70.6273
72.4193
73.9718
75.3273
76.5311
77.6172
78.6233
79.5892
80.5524
81.5322
82.5511
83.62
84.7414
85.9242
87.1761
88.4392
89.7695
91.1223
92.4595
93.7508
94.9319
95.8862
96.4419
34.8202
40.5121
44.877
49.4858
53.9808
58.0482
61.5559
64.5279
67.0482
69.2017
71.051
72.6509
74.0513
75.2838
76.3892
77.4061
78.3746
79.3297
80.3015
81.307
82.355
83.4528
84.5948
85.7692
87.0667
88.3674
89.6958
91.0067
92.2663
93.4204
94.3459
94.8861
33.6767
39.1565
43.2782
47.6689
52.0622
56.1507
59.7544
62.8514
65.4947
67.7435
69.6684
71.3281
72.7654
74.0329
75.1642
76.1975
77.1746
78.1358
79.0973
80.0859
81.1149
82.1857
83.3113
84.5145
85.7209
87.0028
88.3073
89.5891
90.8236
91.9457
92.8484
93.3714
32.4561
37.7248
41.5826
45.7215
49.988
54.1042
57.8343
61.0719
63.8319
66.1927
68.2107
69.9431
71.4541
72.7724
73.9412
75.0008
75.9928
76.9515
77.9127
78.8935
79.9023
80.9504
82.0362
83.1403
84.4004
85.658
86.9429
88.2013
89.4024
90.4992
91.3718
91.8795
30.9735
36.0433
39.6171
43.4674
47.5674
51.687
55.5582
59.0192
62.0194
64.5534
66.7017
68.5411
70.1127
71.4863
72.6991
73.7905
74.8043
75.7838
76.7417
77.7093
78.703
79.7226
80.7835
81.9332
83.0975
84.3397
85.6042
86.8342
88.0138
89.0777
89.9284
90.4181
29.4044
34.2919
37.5761
41.0992
44.985
49.1018
53.152
56.8283
59.9956
62.7245
65.0415
66.9997
68.6961
70.1573
71.4352
72.5755
73.6215
74.6053
75.5728
76.5392
77.5119
78.5077
79.5352
80.5673
81.7925
83.0197
84.2718
85.482
86.6244
87.6647
88.4813
88.9562
27.2553
31.9683
34.9084
38.0076
41.5686
45.5879
49.802
53.9006
57.6128
60.6957
63.2573
65.421
67.2229
68.7733
70.1217
71.314
72.3985
73.4246
74.3976
75.3551
76.3179
77.2823
78.2619
79.3404
80.4928
81.7094
82.9448
84.1275
85.2539
86.2578
87.0531
87.5085
24.9486
29.5907
32.2768
34.984
38.1816
42.1133
46.572
50.9408
54.7795
58.2366
61.1502
63.5347
65.569
67.2794
68.7427
70.0215
71.1651
72.2033
73.1995
74.1647
75.1026
76.0367
76.9965
77.9572
79.1468
80.3646
81.5988
82.765
83.8471
84.8276
85.5828
86.0248
21.1506
25.7591
28.0198
30.0327
32.5031
35.9001
40.3513
45.6489
51.0885
55.3368
58.7586
61.5838
63.8221
65.6899
67.2707
68.6322
69.8374
70.9516
71.965
72.9255
73.8602
74.7591
75.6241
76.586
77.7868
79.004
80.2256
81.3651
82.438
83.3774
84.1114
84.5304
16.8803
22.0634
24.4457
26.2174
28.0837
31.482
36.475
41.7962
46.1702
51.327
55.6124
58.9134
61.6472
63.8375
65.6398
67.1621
68.4763
69.6122
70.67
71.6512
72.5519
73.4003
74.2643
75.1593
76.3107
77.5567
78.796
79.9216
80.9375
81.8516
82.5355
82.9426
5.84732
12.4373
14.1109
13.5734
9.61388
10.3466
17.2551
26.8328
39.4124
46.0985
51.6854
56.1123
59.3084
61.8278
63.8474
65.5102
66.9239
68.1966
69.2885
70.2694
71.1763
71.9864
72.6666
73.3977
74.7805
76.0522
77.2836
78.3835
79.3996
80.2667
80.9267
81.3058
7.05934
9.89173
11.9048
13.2912
13.4629
11.1233
15.0709
9.14746
21.4151
38.0689
45.9555
51.5459
55.9418
59.1708
61.6713
63.6651
65.297
66.6077
67.7842
68.8086
69.6616
70.3662
71.0549
71.9208
73.0191
74.3717
75.6546
76.7416
77.6774
78.511
79.1037
79.4729
11.1075
15.2955
16.2873
16.6564
17.4042
17.9208
21.5394
19.4694
20.4109
21.0443
37.3916
46.3907
52.1162
56.2375
59.2054
61.4752
63.2839
64.8603
66.0991
67.1289
68.004
68.6735
69.0082
69.1582
71.0963
72.556
73.8382
74.9007
75.8513
76.6328
77.1932
77.5274
18.9449
23.2808
24.9503
25.325
24.3361
21.983
19.8392
12.2894
19.8384
23.8302
21.3115
37.0403
45.8483
51.5921
55.7789
58.8098
61.1089
62.7562
64.1755
65.2988
66.0799
66.4871
66.7273
67.7417
68.746
70.3975
71.7979
72.8419
73.6676
74.3864
74.8504
75.1747
21.6166
26.5001
29.1037
30.9373
31.905
31.8696
30.3695
27.1245
20.9101
20.0336
2.87706
16.2932
37.4492
46.4199
51.7016
55.4441
58.1066
60.342
61.8693
63.0062
63.8377
64.2395
63.8504
62.1718
65.8755
67.928
69.3444
70.3632
71.2272
71.9077
72.3077
72.5942
22.5479
27.5519
30.4161
32.6798
34.3073
35.2755
35.5176
34.8185
32.4911
27.0985
22.082
24.5429
14.3655
35.1112
45.2713
50.8314
54.7604
57.1128
59.097
60.4611
61.1269
60.8003
59.3346
61.1716
62.2666
64.7856
66.4573
67.43
68.0745
68.5804
68.8385
69.0933
22.0651
27.2108
30.2508
32.775
34.7495
36.1701
37.041
37.3492
36.9749
35.3913
31.185
22.9934
21.692
23.9006
35.5772
44.7714
49.4603
53.3725
55.4693
56.852
57.6245
57.3144
55.5072
46.7812
56.6536
60.871
62.61
63.5169
64.2397
64.839
64.9113
65.1871
20.6978
25.9781
29.1158
31.7821
33.9552
35.6359
36.8464
37.6191
37.9642
37.7498
36.3079
31.5849
30.7807
31.2807
25.9008
34.3179
43.5726
47.3489
50.9702
53.0011
53.512
51.4089
39.5904
37.0806
50.407
55.6833
57.924
58.6851
58.952
58.9075
58.8052
58.7579
18.8308
24.2119
27.3852
30.111
32.3857
34.2252
35.6564
36.7303
37.5112
38.0261
38.1148
37.0762
33.1281
31.5419
21.4737
20.3229
30.9358
41.5721
44.3983
46.4063
47.3416
43.0712
36.9096
58.0041
30.4375
48.2828
50.8918
51.0446
51.6048
52.2452
51.8951
52.433
16.6716
22.0538
25.1683
27.8556
30.1374
32.0525
33.6425
34.9595
36.0784
37.0655
37.9005
38.3213
37.2591
33.2078
27.6636
28.6758
24.1649
26.1365
36.4818
40.8674
40.73
38.5548
57.6847
70.7135
38.5786
38.8619
42.4109
42.205
40.5012
40.4672
37.8571
36.0149
14.4532
19.7008
22.6537
25.2021
27.3989
29.3052
30.9795
32.4837
33.8891
35.2671
36.6304
37.843
38.449
37.5123
31.9998
31.3611
15.3037
11.0039
21.7674
25.6765
32.9942
39.2409
67.797
74.6365
57.554
25.1151
26.9236
30.8655
31.4302
22.4176
40.0298
23.8445
12.4564
17.4393
20.1487
22.4798
24.5178
26.3421
28.0236
29.631
31.2324
32.8907
34.6396
36.4072
37.932
38.6953
37.5387
32.8688
22.1918
22.7724
29.4685
29.9702
21.0925
44.7296
68.7758
73.237
63.6181
33.129
35.2318
41.1234
39.6849
25.9924
35.9098
26.4551
10.8776
15.5035
17.9421
20.0284
21.8754
23.5763
25.2079
26.8362
28.5198
30.3103
32.2469
34.3172
36.38
38.0928
38.8508
37.5823
34.1121
26.5204
29.129
29.9782
24.1434
51.4419
64.7599
70.187
60.6238
45.5174
35.9042
36.6823
37.7647
37.2823
26.4682
29.1972
9.66504
14.037
16.2384
18.1101
19.7882
21.3708
22.93
24.5196
26.1831
27.9615
29.8953
32.0133
34.2817
36.5142
38.2973
39.0313
38.5951
34.9957
29.1806
18.6425
35.7152
53.858
57.911
67.0577
53.4844
46.9114
35.1029
35.3451
36.4532
37.1225
39.6502
40.8644
8.98471
13.1461
15.172
16.897
18.4666
19.9705
21.4647
22.9841
24.5558
26.2118
27.9942
29.9524
32.1211
34.4589
36.7511
38.561
39.5489
38.7907
36.5022
26.601
34.5612
47.557
50.7032
63.6643
50.099
41.6643
36.2439
40.901
41.7012
40.7631
43.2409
43.9506
8.74111
12.7962
14.7378
16.4034
17.9373
19.4134
20.8667
22.3138
23.7696
25.2583
26.8196
28.5071
30.3809
32.4822
34.7669
37.012
38.834
39.5351
38.9441
36.6071
33.6556
34.2696
45.276
59.4991
48.6325
39.6983
38.3932
41.8933
42.3296
41.5513
43.2423
44.1205
8.86731
12.9019
14.8378
16.5177
18.0749
19.5646
21.0028
22.3938
23.7459
25.0799
26.4294
27.8404
29.3699
31.081
33.0151
35.1263
37.1971
38.7119
39.253
38.4782
37.9391
36.4786
43.444
54.7825
44.9529
39.8804
39.0471
41.3649
41.5124
41.1428
42.0188