/*--------------------------------*- C++ -*----------------------------------*\
  =========                 |
  \\      /  F ield         | OpenFOAM: The Open Source CFD Toolbox
   \\    /   O peration     | Website:  https://openfoam.org
    \\  /    A nd           | Version:  6
     \\/     M anipulation  |
\*---------------------------------------------------------------------------*/
FoamFile
{
    version     2.0;
    format      ascii;
    class       volVectorField;
    location    "1";
    object      U;
}
// * * * * * * * * * * * * * * * * * * * * * * * * * * * * * * * * * * * * * //

dimensions      [0 1 -1 0 0 0 0];

internalField   nonuniform List<vector> 
63432
(
(0.108611 0.0108494 -8.22746e-06)
(0.109607 0.00976818 -8.09151e-06)
(0.110513 0.00877899 -9.03983e-06)
(0.111086 0.00785538 -9.76122e-06)
(0.111181 0.00699939 -9.19838e-06)
(0.11091 0.0062434 -8.23359e-06)
(0.11069 0.00561195 -7.23056e-06)
(0.110833 0.00508133 -6.75683e-06)
(0.111167 0.00456948 -7.17776e-06)
(0.11122 0.00405957 -7.29201e-06)
(0.110593 0.00355803 -7.32818e-06)
(0.10996 0.00323009 -2.99434e-06)
(0.107565 0.0105521 1.01934e-05)
(0.108522 0.009512 9.46385e-06)
(0.109504 0.0085961 8.46259e-06)
(0.110385 0.00777311 7.06435e-06)
(0.110993 0.00701005 5.62617e-06)
(0.111172 0.00629353 4.39438e-06)
(0.110998 0.00564091 3.66119e-06)
(0.110857 0.00508885 3.52116e-06)
(0.110904 0.00461436 3.55503e-06)
(0.111134 0.00419366 3.60437e-06)
(0.111188 0.00372665 2.42876e-06)
(0.110581 0.00331368 3.32543e-06)
(0.105111 0.0108975 2.2444e-05)
(0.106158 0.00979812 1.9826e-05)
(0.107105 0.00881702 1.75034e-05)
(0.108036 0.00795555 1.56881e-05)
(0.108987 0.00720078 1.37593e-05)
(0.109869 0.00652719 1.16377e-05)
(0.110541 0.0059081 9.56978e-06)
(0.110821 0.00532347 7.71409e-06)
(0.110796 0.00478945 6.66999e-06)
(0.110705 0.0043126 5.99809e-06)
(0.110617 0.00391363 5.8737e-06)
(0.110839 0.00353006 4.69157e-06)
(0.110638 0.00317572 4.43523e-06)
(0.103618 0.00978818 2.25073e-05)
(0.104825 0.00881444 1.90901e-05)
(0.105849 0.00793728 1.62153e-05)
(0.106765 0.00716144 1.38226e-05)
(0.10766 0.00648284 1.18704e-05)
(0.108564 0.00588953 1.0055e-05)
(0.109458 0.0053653 8.36642e-06)
(0.11018 0.00488067 6.78474e-06)
(0.110569 0.00442317 5.41282e-06)
(0.11073 0.00399117 4.28121e-06)
(0.110595 0.00360672 3.91756e-06)
(0.110613 0.0032673 3.12847e-06)
(0.110521 0.00296491 2.31595e-06)
(0.102104 0.00853329 2.30189e-05)
(0.103577 0.00771601 1.91582e-05)
(0.104802 0.0069744 1.58629e-05)
(0.10582 0.00631088 1.3206e-05)
(0.106713 0.00572619 1.11868e-05)
(0.107546 0.00521336 9.44671e-06)
(0.108383 0.00476704 7.87372e-06)
(0.109237 0.00437088 6.64886e-06)
(0.109938 0.00400404 5.40715e-06)
(0.110486 0.00365248 4.19248e-06)
(0.110687 0.00331813 3.53211e-06)
(0.110771 0.00301151 2.89974e-06)
(0.110632 0.00275606 1.7351e-06)
(0.0984599 0.00774937 2.78253e-05)
(0.100473 0.00705238 2.35306e-05)
(0.102222 0.00641837 1.95491e-05)
(0.103703 0.00584137 1.61082e-05)
(0.104944 0.0053203 1.3284e-05)
(0.105973 0.00485458 1.09843e-05)
(0.106847 0.00444085 9.24191e-06)
(0.107625 0.00407733 7.55333e-06)
(0.108409 0.0037596 6.39263e-06)
(0.109132 0.00347465 5.49513e-06)
(0.109868 0.00321028 4.34047e-06)
(0.110371 0.00295277 3.69275e-06)
(0.110797 0.00270331 2.80735e-06)
(0.110849 0.00249295 1.70858e-06)
(0.0966767 0.00585085 2.64734e-05)
(0.0988629 0.00536754 2.22253e-05)
(0.100817 0.00493474 1.844e-05)
(0.10253 0.00454401 1.51983e-05)
(0.104004 0.00418893 1.24654e-05)
(0.105252 0.00386785 1.01807e-05)
(0.106293 0.0035769 8.35524e-06)
(0.107146 0.00331415 6.7108e-06)
(0.107939 0.00308277 5.64125e-06)
(0.108584 0.00287387 4.82369e-06)
(0.109277 0.00268806 3.93085e-06)
(0.109843 0.00250679 3.51401e-06)
(0.110426 0.00233429 2.57568e-06)
(0.110799 0.00217053 1.33885e-06)
(0.09506 0.00376743 2.32795e-05)
(0.0973936 0.00351959 1.93887e-05)
(0.0994904 0.00330124 1.59728e-05)
(0.101374 0.00310817 1.3083e-05)
(0.103043 0.00293331 1.06852e-05)
(0.10449 0.00277249 8.57271e-06)
(0.105752 0.00262468 7.03991e-06)
(0.106762 0.00248232 5.67446e-06)
(0.107666 0.00235332 4.60247e-06)
(0.108353 0.00223003 3.92077e-06)
(0.108998 0.00212087 3.11583e-06)
(0.109547 0.00201099 2.66606e-06)
(0.110038 0.00191192 2.2713e-06)
(0.110527 0.00181796 3.68919e-07)
(0.0909597 0.00154054 2.1948e-05)
(0.0936775 0.00153585 1.8049e-05)
(0.0961277 0.00154205 1.47867e-05)
(0.0983329 0.0015517 1.20487e-05)
(0.10032 0.00156333 9.6904e-06)
(0.102125 0.0015759 7.8879e-06)
(0.103714 0.00158355 6.17551e-06)
(0.105154 0.00158913 5.06172e-06)
(0.10636 0.00158429 4.10083e-06)
(0.107403 0.00157318 3.36499e-06)
(0.108254 0.00155232 2.83073e-06)
(0.108945 0.00152841 2.1919e-06)
(0.109534 0.00149594 1.83415e-06)
(0.109985 0.00146062 1.58207e-06)
(0.110418 0.00145271 -5.82586e-07)
(0.0898296 -0.00107881 1.32126e-05)
(0.0926394 -0.000782655 1.04093e-05)
(0.0951631 -0.000509472 8.06971e-06)
(0.0974391 -0.000260525 6.29022e-06)
(0.099481 -3.64139e-05 4.7548e-06)
(0.101344 0.000167212 3.70398e-06)
(0.103011 0.000347529 2.72947e-06)
(0.10453 0.000508034 2.18457e-06)
(0.105874 0.000645618 1.80705e-06)
(0.10705 0.000760693 1.52541e-06)
(0.108063 0.000852122 1.36945e-06)
(0.108902 0.000924269 1.12968e-06)
(0.109595 0.0009771 1.1467e-06)
(0.110139 0.0010067 9.18526e-07)
(0.110554 0.00106729 -7.09238e-07)
(0.0891837 -0.00370053 1.67119e-06)
(0.0920394 -0.00310036 2.64912e-07)
(0.0946068 -0.00255624 -8.21987e-07)
(0.0969113 -0.00206509 -1.36314e-06)
(0.0989799 -0.00162398 -1.80062e-06)
(0.100847 -0.00122745 -1.82649e-06)
(0.102524 -0.000873899 -1.7891e-06)
(0.104045 -0.000559705 -1.50687e-06)
(0.105407 -0.000284193 -1.10044e-06)
(0.106636 -4.54475e-05 -8.02855e-07)
(0.107715 0.000155544 -4.47526e-07)
(0.108675 0.000324297 -3.02932e-07)
(0.109491 0.000460661 4.53054e-08)
(0.110176 0.000564401 3.69053e-08)
(0.110717 0.000668556 -8.88716e-07)
(0.0890744 -0.00619473 -1.2416e-05)
(0.0919405 -0.00530339 -1.19303e-05)
(0.0945133 -0.00449928 -1.13054e-05)
(0.0968207 -0.00377471 -1.02879e-05)
(0.0988812 -0.00312387 -9.25961e-06)
(0.100733 -0.00254009 -8.06051e-06)
(0.102377 -0.00201995 -6.93353e-06)
(0.103863 -0.00155819 -5.71913e-06)
(0.10517 -0.00115377 -4.61198e-06)
(0.106363 -0.000801222 -3.66464e-06)
(0.107413 -0.000500849 -2.70375e-06)
(0.108364 -0.000244663 -2.11684e-06)
(0.109225 -3.40954e-05 -1.45026e-06)
(0.109954 0.000140746 -1.08576e-06)
(0.110644 0.000288173 -2.22781e-06)
(0.0863277 -0.00967818 -3.07574e-05)
(0.0894785 -0.00839926 -2.81336e-05)
(0.0923032 -0.00724873 -2.54592e-05)
(0.094841 -0.00621334 -2.27584e-05)
(0.0971157 -0.0052819 -1.99604e-05)
(0.0991478 -0.00444561 -1.73518e-05)
(0.100967 -0.00369636 -1.47445e-05)
(0.102576 -0.00302932 -1.24767e-05)
(0.104015 -0.00243793 -1.0312e-05)
(0.10528 -0.00191961 -8.44313e-06)
(0.106405 -0.00146848 -6.88945e-06)
(0.107403 -0.00108173 -5.37757e-06)
(0.108266 -0.00075159 -4.30368e-06)
(0.109077 -0.000476772 -3.32218e-06)
(0.109738 -0.000247719 -2.49201e-06)
(0.110439 -4.50479e-05 -3.77101e-06)
(0.0873378 -0.0116446 -4.97705e-05)
(0.0903462 -0.0101313 -4.47252e-05)
(0.0930564 -0.0087743 -3.98428e-05)
(0.0955003 -0.00755656 -3.50155e-05)
(0.0976973 -0.00646352 -3.03681e-05)
(0.0996661 -0.00548439 -2.60982e-05)
(0.101433 -0.00460895 -2.20883e-05)
(0.103 -0.00383043 -1.85086e-05)
(0.104398 -0.0031414 -1.53606e-05)
(0.105632 -0.00253648 -1.25799e-05)
(0.106721 -0.00200911 -1.02778e-05)
(0.107677 -0.00155459 -8.25101e-06)
(0.108503 -0.00116643 -6.68361e-06)
(0.10926 -0.000837991 -5.26036e-06)
(0.109864 -0.000569396 -4.09209e-06)
(0.110458 -0.000317461 -4.81339e-06)
(0.0888927 -0.0128719 -6.85385e-05)
(0.0916577 -0.0112071 -6.14557e-05)
(0.0941704 -0.00971897 -5.45091e-05)
(0.0964444 -0.00838808 -4.77338e-05)
(0.0985061 -0.00719743 -4.13081e-05)
(0.100359 -0.0061342 -3.53731e-05)
(0.102035 -0.00518665 -2.99749e-05)
(0.103529 -0.00434552 -2.51042e-05)
(0.104871 -0.00360221 -2.08204e-05)
(0.106058 -0.00294922 -1.71099e-05)
(0.107119 -0.00237894 -1.39752e-05)
(0.10805 -0.00188498 -1.12799e-05)
(0.108869 -0.00146179 -9.17186e-06)
(0.109604 -0.00109949 -7.2627e-06)
(0.110212 -0.000802615 -5.70351e-06)
(0.11076 -0.000530804 -5.5573e-06)
(0.0909583 -0.013164 -8.59407e-05)
(0.0933879 -0.0114572 -7.73551e-05)
(0.0956222 -0.00993703 -6.87183e-05)
(0.0976609 -0.00858222 -6.02664e-05)
(0.0995261 -0.00737483 -5.22437e-05)
(0.101215 -0.00630022 -4.47992e-05)
(0.102751 -0.00534566 -3.80478e-05)
(0.104133 -0.0045003 -3.19736e-05)
(0.10538 -0.00375439 -2.65829e-05)
(0.106492 -0.00309937 -2.1931e-05)
(0.107492 -0.00252728 -1.79679e-05)
(0.108383 -0.00203062 -1.45579e-05)
(0.109171 -0.00160333 -1.1786e-05)
(0.109889 -0.00123696 -9.44354e-06)
(0.1105 -0.000931739 -7.4491e-06)
(0.111061 -0.000667527 -6.60345e-06)
(0.0934191 -0.0123593 -0.000101434)
(0.0954387 -0.0107449 -9.18526e-05)
(0.0973298 -0.00931238 -8.19749e-05)
(0.0990849 -0.00804031 -7.2152e-05)
(0.10071 -0.00691081 -6.27534e-05)
(0.102201 -0.0059091 -5.39799e-05)
(0.103566 -0.00502209 -4.59783e-05)
(0.104807 -0.00423865 -3.87597e-05)
(0.10593 -0.00354873 -3.23575e-05)
(0.106944 -0.00294354 -2.67818e-05)
(0.107853 -0.00241535 -2.20074e-05)
(0.108676 -0.00195682 -1.79239e-05)
(0.109405 -0.00156172 -1.45065e-05)
(0.110079 -0.00122315 -1.17065e-05)
(0.110659 -0.000938267 -9.27393e-06)
(0.111217 -0.000696394 -8.07977e-06)
(0.0960097 -0.0103003 -0.000115895)
(0.0975776 -0.00893973 -0.000105415)
(0.0990939 -0.00773674 -9.44261e-05)
(0.100542 -0.00667267 -8.33598e-05)
(0.101911 -0.00573154 -7.26931e-05)
(0.103193 -0.00490013 -6.26937e-05)
(0.104381 -0.00416642 -5.35369e-05)
(0.105477 -0.0035202 -4.52449e-05)
(0.106475 -0.00295234 -3.78929e-05)
(0.107386 -0.00245485 -3.14501e-05)
(0.108204 -0.00202101 -2.59015e-05)
(0.108951 -0.00164444 -2.11735e-05)
(0.109615 -0.0013202 -1.71606e-05)
(0.110232 -0.00104177 -1.38766e-05)
(0.110767 -0.000808018 -1.10299e-05)
(0.11129 -0.000607173 -9.36891e-06)
(0.09823 -0.00692456 -0.000129589)
(0.0993786 -0.00600257 -0.000117938)
(0.100552 -0.00518907 -0.000105725)
(0.101722 -0.00447153 -9.34279e-05)
(0.102866 -0.00383877 -8.15641e-05)
(0.103966 -0.00328134 -7.04431e-05)
(0.105006 -0.00279062 -6.0246e-05)
(0.105982 -0.00235917 -5.09997e-05)
(0.106882 -0.00198052 -4.27857e-05)
(0.107711 -0.00164898 -3.55701e-05)
(0.108463 -0.00135994 -2.93246e-05)
(0.109152 -0.00110892 -2.4004e-05)
(0.109769 -0.000892941 -1.94582e-05)
(0.110342 -0.000706867 -1.57222e-05)
(0.110846 -0.000551462 -1.25157e-05)
(0.111334 -0.000415751 -1.02942e-05)
(0.0995135 -0.00240781 -0.000139633)
(0.100398 -0.00208749 -0.000127098)
(0.101355 -0.00180599 -0.000114009)
(0.102353 -0.00155825 -0.000100845)
(0.103358 -0.00134007 -8.81368e-05)
(0.10435 -0.00114794 -7.62159e-05)
(0.105305 -0.000978699 -6.52669e-05)
(0.106213 -0.000829655 -5.53224e-05)
(0.10706 -0.00069852 -4.64632e-05)
(0.107848 -0.000583332 -3.86654e-05)
(0.108566 -0.000482565 -3.18913e-05)
(0.109228 -0.000394719 -2.61138e-05)
(0.109825 -0.000318941 -2.11621e-05)
(0.110377 -0.000253339 -1.70771e-05)
(0.11087 -0.000198599 -1.35964e-05)
(0.111341 -0.000150245 -1.09393e-05)
(0.184828 0.0187708 -3.56809e-06)
(0.185962 0.0169575 1.5303e-07)
(0.186911 0.0152758 7.06593e-07)
(0.187551 0.0137193 -2.52048e-06)
(0.187855 0.0123021 -6.86109e-06)
(0.187906 0.0110505 -9.06421e-06)
(0.187958 0.0099652 -8.88985e-06)
(0.188208 0.00900704 -8.10914e-06)
(0.188523 0.00809654 -8.65625e-06)
(0.188556 0.00722662 -1.01337e-05)
(0.188175 0.00642502 -1.38939e-05)
(0.187787 0.00581392 -6.9836e-06)
(0.183722 0.0185528 8.58217e-06)
(0.1849 0.0167651 1.14377e-05)
(0.185986 0.0151436 1.26131e-05)
(0.186904 0.0136683 1.14094e-05)
(0.187556 0.0123148 8.2091e-06)
(0.187882 0.0110771 4.82507e-06)
(0.187959 0.00996721 2.22211e-06)
(0.18804 0.00900304 2.23364e-06)
(0.188254 0.00814861 2.39366e-06)
(0.188513 0.00736853 3.08405e-06)
(0.188553 0.00657809 1.42351e-06)
(0.18819 0.00588279 3.6049e-06)
(0.180951 0.0198904 2.66529e-05)
(0.18234 0.0179735 2.68709e-05)
(0.183565 0.0162224 2.70956e-05)
(0.184698 0.0146457 2.69694e-05)
(0.185749 0.0132317 2.54723e-05)
(0.186661 0.0119551 2.26829e-05)
(0.187352 0.0107909 1.88766e-05)
(0.187727 0.00972275 1.47842e-05)
(0.187878 0.00876312 1.23564e-05)
(0.187974 0.00790787 1.14818e-05)
(0.188111 0.00716618 1.14901e-05)
(0.188337 0.00645802 1.06354e-05)
(0.188253 0.00580429 1.0055e-05)
(0.179348 0.018895 3.20696e-05)
(0.180916 0.0170685 2.92073e-05)
(0.182244 0.015398 2.67353e-05)
(0.183412 0.0138933 2.49582e-05)
(0.184499 0.0125516 2.31805e-05)
(0.185514 0.0113551 2.0697e-05)
(0.186438 0.0102821 1.78976e-05)
(0.187169 0.00930277 1.50017e-05)
(0.187616 0.00840471 1.17096e-05)
(0.187864 0.00758135 1.04027e-05)
(0.187948 0.00685318 8.9767e-06)
(0.188097 0.00619944 8.20063e-06)
(0.188131 0.00560828 6.25447e-06)
(0.177666 0.0176091 3.45648e-05)
(0.179519 0.0159172 2.96225e-05)
(0.181053 0.014369 2.52622e-05)
(0.182333 0.0129703 2.17779e-05)
(0.183454 0.0117222 1.92589e-05)
(0.184479 0.0106137 1.72108e-05)
(0.185444 0.00963043 1.48272e-05)
(0.186353 0.00874926 1.27344e-05)
(0.187081 0.00794585 1.00698e-05)
(0.187625 0.00720074 8.34562e-06)
(0.187913 0.00651714 6.76458e-06)
(0.188096 0.00589804 6.15052e-06)
(0.188126 0.00536518 3.12727e-06)
(0.173294 0.0176222 4.27251e-05)
(0.175835 0.0159678 3.63938e-05)
(0.178015 0.0144546 3.04214e-05)
(0.179839 0.0130731 2.49878e-05)
(0.181346 0.0118215 2.02462e-05)
(0.1826 0.0106994 1.67499e-05)
(0.183677 0.00970012 1.41476e-05)
(0.184632 0.0088145 1.16938e-05)
(0.185545 0.00803006 9.94826e-06)
(0.186368 0.00732717 8.01345e-06)
(0.187105 0.0066835 6.56622e-06)
(0.187646 0.00608492 4.9157e-06)
(0.188053 0.00552482 4.7552e-06)
(0.188212 0.00504531 1.36888e-06)
(0.171136 0.0153958 4.17941e-05)
(0.173953 0.0139664 3.47903e-05)
(0.176418 0.0126711 2.85293e-05)
(0.178537 0.0114966 2.27734e-05)
(0.180322 0.010433 1.76655e-05)
(0.181808 0.0094759 1.35247e-05)
(0.183046 0.0086185 1.03837e-05)
(0.184068 0.00785227 7.34684e-06)
(0.184984 0.0071729 5.98662e-06)
(0.185789 0.00656812 5.28937e-06)
(0.186556 0.00602643 4.60857e-06)
(0.187206 0.00552604 2.98798e-06)
(0.187774 0.00505801 2.77732e-06)
(0.188148 0.00464003 -6.88778e-07)
(0.169106 0.0127881 3.68529e-05)
(0.172163 0.0116282 2.99092e-05)
(0.174856 0.0105854 2.3783e-05)
(0.177214 0.00964823 1.82234e-05)
(0.179254 0.00880469 1.33812e-05)
(0.180983 0.00804512 9.11016e-06)
(0.182452 0.00736368 6.12256e-06)
(0.183642 0.00674747 3.11626e-06)
(0.184651 0.0061957 2.02327e-06)
(0.185484 0.00569985 1.28004e-06)
(0.186222 0.00525896 8.70561e-07)
(0.186873 0.00485493 7.60782e-07)
(0.187456 0.00448687 1.03379e-06)
(0.187945 0.0041627 -4.07168e-06)
(0.163629 0.0107787 3.44253e-05)
(0.167308 0.00982376 2.70796e-05)
(0.170572 0.00897695 2.10487e-05)
(0.173453 0.00822158 1.58428e-05)
(0.175987 0.00754724 1.10462e-05)
(0.178221 0.00694707 7.11011e-06)
(0.180147 0.0064086 3.33257e-06)
(0.181827 0.00592845 7.88563e-07)
(0.183228 0.00549276 -1.2651e-06)
(0.184401 0.00509819 -2.2262e-06)
(0.185358 0.00473712 -2.86873e-06)
(0.186142 0.00441165 -3.04546e-06)
(0.186797 0.00411214 -2.91438e-06)
(0.187347 0.00383612 -1.8579e-06)
(0.187825 0.00362637 -7.33741e-06)
(0.161999 0.00711447 1.57792e-05)
(0.16588 0.00655085 1.07313e-05)
(0.169306 0.00605689 6.51683e-06)
(0.172334 0.00562251 3.08832e-06)
(0.174993 0.00523833 -1.34159e-07)
(0.177347 0.00490258 -2.577e-06)
(0.179403 0.00460555 -4.88248e-06)
(0.181212 0.00434463 -6.33169e-06)
(0.182773 0.00411031 -7.08004e-06)
(0.184105 0.00389642 -7.48776e-06)
(0.185217 0.00369547 -7.30241e-06)
(0.186131 0.00350766 -6.96018e-06)
(0.186869 0.00333008 -6.45992e-06)
(0.187461 0.00315117 -4.65823e-06)
(0.187921 0.00304107 -9.6247e-06)
(0.160959 0.0031852 -1.1809e-05)
(0.164985 0.00304934 -1.33847e-05)
(0.168528 0.00294177 -1.47553e-05)
(0.171647 0.00285806 -1.55678e-05)
(0.174381 0.00279237 -1.6332e-05)
(0.176788 0.00274449 -1.6452e-05)
(0.178895 0.00270907 -1.64418e-05)
(0.180748 0.00268367 -1.59509e-05)
(0.182365 0.00266244 -1.49048e-05)
(0.183774 0.00264067 -1.38424e-05)
(0.184977 0.00261087 -1.25651e-05)
(0.186003 0.002573 -1.1464e-05)
(0.186854 0.0025252 -1.02674e-05)
(0.187552 0.0024591 -8.1285e-06)
(0.188085 0.00242722 -1.15156e-05)
(0.16063 -0.000856051 -4.95651e-05)
(0.164738 -0.000542481 -4.59308e-05)
(0.16834 -0.000243404 -4.28953e-05)
(0.171501 4.25937e-05 -3.98082e-05)
(0.17426 0.000313558 -3.70006e-05)
(0.176673 0.000570379 -3.3997e-05)
(0.178769 0.000809242 -3.10977e-05)
(0.180603 0.00102945 -2.78406e-05)
(0.182191 0.00122531 -2.47341e-05)
(0.18358 0.00139576 -2.18633e-05)
(0.184779 0.00153471 -1.9024e-05)
(0.185815 0.00164428 -1.67814e-05)
(0.186712 0.00172171 -1.44836e-05)
(0.187464 0.00176987 -1.2059e-05)
(0.188099 0.00181703 -1.53721e-05)
(0.156354 -0.00559865 -0.000110628)
(0.161036 -0.00477431 -9.81341e-05)
(0.165144 -0.00401317 -8.74316e-05)
(0.168741 -0.00330917 -7.81362e-05)
(0.171887 -0.00265639 -6.96421e-05)
(0.174624 -0.00205312 -6.21103e-05)
(0.177008 -0.0014969 -5.49092e-05)
(0.179064 -0.000990649 -4.83882e-05)
(0.180846 -0.000533689 -4.22764e-05)
(0.182377 -0.00012987 -3.66768e-05)
(0.183695 0.000221031 -3.16638e-05)
(0.184834 0.000517165 -2.66964e-05)
(0.185805 0.000761886 -2.28891e-05)
(0.18666 0.000955338 -1.94608e-05)
(0.187372 0.00110178 -1.63699e-05)
(0.188017 0.00123834 -1.97958e-05)
(0.157589 -0.00954953 -0.000181055)
(0.16215 -0.00826289 -0.000158102)
(0.166149 -0.00708807 -0.00013848)
(0.169648 -0.00601271 -0.000121249)
(0.172706 -0.00502709 -0.000105883)
(0.175366 -0.00412666 -9.23327e-05)
(0.177677 -0.00330698 -7.99753e-05)
(0.17967 -0.00256802 -6.89786e-05)
(0.181388 -0.00190796 -5.92809e-05)
(0.182861 -0.00132653 -5.06177e-05)
(0.184117 -0.000821412 -4.30253e-05)
(0.185193 -0.000390516 -3.61427e-05)
(0.1861 -3.00247e-05 -3.10172e-05)
(0.186886 0.000266439 -2.60289e-05)
(0.18753 0.000495003 -2.10106e-05)
(0.188103 0.000713787 -2.29266e-05)
(0.159665 -0.0126297 -0.000264252)
(0.163947 -0.0109694 -0.000228945)
(0.167704 -0.00946073 -0.000198574)
(0.170994 -0.00808963 -0.000171992)
(0.173872 -0.00684347 -0.000148503)
(0.176378 -0.00571523 -0.000127798)
(0.178559 -0.0046982 -0.000109431)
(0.180446 -0.00378843 -9.32535e-05)
(0.182077 -0.00298116 -7.90701e-05)
(0.183476 -0.00227245 -6.6776e-05)
(0.184675 -0.00165665 -5.61868e-05)
(0.185699 -0.00112819 -4.70689e-05)
(0.186563 -0.000682203 -3.98093e-05)
(0.187304 -0.000307943 -3.32842e-05)
(0.187915 -1.22017e-05 -2.69534e-05)
(0.18843 0.000258278 -2.68211e-05)
(0.16252 -0.0144108 -0.000357401)
(0.166372 -0.0125296 -0.000308145)
(0.16976 -0.0108248 -0.000265705)
(0.172732 -0.00928238 -0.000228707)
(0.175339 -0.0078892 -0.000196224)
(0.177616 -0.0066363 -0.000167669)
(0.179605 -0.00551499 -0.000142596)
(0.181331 -0.00451815 -0.000120678)
(0.18283 -0.00363793 -0.000101524)
(0.184122 -0.00286734 -8.50537e-05)
(0.185235 -0.00219856 -7.10518e-05)
(0.186191 -0.0016235 -5.9082e-05)
(0.187005 -0.00113522 -4.92538e-05)
(0.187706 -0.000723207 -4.09816e-05)
(0.188294 -0.000388543 -3.35251e-05)
(0.188791 -9.99934e-05 -3.08815e-05)
(0.165955 -0.0145064 -0.000457158)
(0.169261 -0.0126198 -0.000392968)
(0.17218 -0.0109107 -0.000337761)
(0.174755 -0.00936679 -0.000289697)
(0.177025 -0.0079772 -0.00024763)
(0.179021 -0.00673295 -0.000210728)
(0.180771 -0.00562479 -0.000178444)
(0.1823 -0.004644 -0.000150282)
(0.183631 -0.00378135 -0.000125844)
(0.184786 -0.00302788 -0.000104821)
(0.185782 -0.00237499 -8.7015e-05)
(0.186643 -0.00181383 -7.18816e-05)
(0.187379 -0.00133651 -5.93715e-05)
(0.188021 -0.000933504 -4.90253e-05)
(0.188561 -0.000601619 -4.01149e-05)
(0.189037 -0.000321618 -3.5659e-05)
(0.169547 -0.0125989 -0.000560434)
(0.172258 -0.0109701 -0.000480495)
(0.174668 -0.00949022 -0.000411932)
(0.176815 -0.00815234 -0.000352349)
(0.178726 -0.00694962 -0.000300316)
(0.180424 -0.00587517 -0.00025479)
(0.181927 -0.00492113 -0.000215076)
(0.183251 -0.00407913 -0.000180493)
(0.18441 -0.00334054 -0.000150628)
(0.185422 -0.00269652 -0.000124965)
(0.186298 -0.00213911 -0.000103225)
(0.187059 -0.00166018 -8.4859e-05)
(0.18771 -0.00125302 -6.96248e-05)
(0.18828 -0.000908739 -5.7063e-05)
(0.188762 -0.000625113 -4.64844e-05)
(0.189195 -0.000384748 -4.00765e-05)
(0.172576 -0.00861953 -0.000656319)
(0.174761 -0.00752236 -0.000561531)
(0.176719 -0.00651877 -0.00048045)
(0.178486 -0.00560779 -0.000410167)
(0.180084 -0.00478716 -0.000348909)
(0.181526 -0.00405345 -0.000295433)
(0.18282 -0.003402 -0.000248867)
(0.183975 -0.0028272 -0.000208381)
(0.184997 -0.00232318 -0.000173468)
(0.185897 -0.00188374 -0.000143513)
(0.186682 -0.00150339 -0.000118109)
(0.187365 -0.00117639 -9.67261e-05)
(0.187954 -0.000898468 -7.89389e-05)
(0.188468 -0.000662872 -6.43052e-05)
(0.188906 -0.000469326 -5.21563e-05)
(0.189301 -0.000303772 -4.36395e-05)
(0.174253 -0.00297767 -0.000719617)
(0.176131 -0.00260679 -0.000616211)
(0.177823 -0.00226692 -0.000527682)
(0.179366 -0.00195756 -0.00045082)
(0.18078 -0.00167791 -0.000383682)
(0.182074 -0.00142688 -0.000324954)
(0.183251 -0.001203 -0.000273714)
(0.184314 -0.00100451 -0.000229096)
(0.185264 -0.000829577 -0.000190554)
(0.186107 -0.000676257 -0.000157463)
(0.186846 -0.000542867 -0.000129351)
(0.187493 -0.000427605 -0.000105705)
(0.188053 -0.000329265 -8.59964e-05)
(0.188543 -0.000245485 -6.97914e-05)
(0.188963 -0.000176601 -5.64408e-05)
(0.18934 -0.000117216 -4.62991e-05)
(0.22369 0.0223525 -6.58877e-05)
(0.224899 0.0202846 -5.0832e-05)
(0.225906 0.0183463 -4.21712e-05)
(0.226594 0.0165384 -3.85601e-05)
(0.226924 0.0148806 -3.5659e-05)
(0.226984 0.0134027 -3.18017e-05)
(0.227037 0.0121025 -2.74945e-05)
(0.227279 0.0109405 -2.51956e-05)
(0.227575 0.00984647 -2.52129e-05)
(0.227571 0.00881377 -2.51555e-05)
(0.22716 0.00786954 -2.66861e-05)
(0.226728 0.00710386 -1.53255e-05)
(0.222289 0.0223198 -3.83342e-05)
(0.223565 0.0202489 -2.62438e-05)
(0.224727 0.0183433 -1.84718e-05)
(0.225702 0.0165913 -1.54652e-05)
(0.226395 0.0149762 -1.48674e-05)
(0.226753 0.0134969 -1.44746e-05)
(0.226859 0.0121654 -1.33264e-05)
(0.226954 0.0109943 -1.07832e-05)
(0.227178 0.00994765 -9.2355e-06)
(0.227432 0.00898826 -7.82069e-06)
(0.227452 0.00804368 -8.65313e-06)
(0.227076 0.00720055 -3.74313e-06)
(0.21916 0.0241982 -1.31922e-05)
(0.220671 0.0219687 -5.85559e-06)
(0.222018 0.0199068 1.55275e-06)
(0.223256 0.0180232 7.09986e-06)
(0.22439 0.0163128 9.19048e-06)
(0.225367 0.0147555 8.35355e-06)
(0.226102 0.01333 6.11254e-06)
(0.226516 0.0120237 3.65612e-06)
(0.226699 0.0108474 3.3205e-06)
(0.226819 0.00979523 4.05131e-06)
(0.22699 0.00886977 5.39848e-06)
(0.227219 0.00799535 4.82592e-06)
(0.227137 0.00718346 5.00195e-06)
(0.217286 0.0234716 4.45328e-06)
(0.219 0.0212938 6.68566e-06)
(0.220472 0.0192809 9.71844e-06)
(0.221772 0.0174441 1.24339e-05)
(0.22297 0.0157855 1.36455e-05)
(0.22408 0.0142911 1.27286e-05)
(0.225075 0.0129402 1.05319e-05)
(0.225858 0.0117055 7.79173e-06)
(0.226352 0.0105758 5.30335e-06)
(0.226625 0.0095435 4.46784e-06)
(0.226751 0.00862584 4.5783e-06)
(0.22693 0.00779951 4.65679e-06)
(0.226989 0.00704557 2.50891e-06)
(0.215314 0.0224241 1.77482e-05)
(0.21733 0.0203405 1.59972e-05)
(0.219024 0.0184173 1.52466e-05)
(0.220454 0.0166606 1.47609e-05)
(0.221709 0.0150751 1.43675e-05)
(0.222857 0.0136527 1.34649e-05)
(0.22393 0.0123791 1.14703e-05)
(0.224921 0.0112307 9.36103e-06)
(0.225722 0.010184 6.66024e-06)
(0.226308 0.0092184 4.64948e-06)
(0.226634 0.00833597 3.54666e-06)
(0.226853 0.00753818 4.01847e-06)
(0.226922 0.00683921 -2.06505e-07)
(0.210462 0.0230986 3.58456e-05)
(0.213181 0.020987 2.93684e-05)
(0.215549 0.0190438 2.50404e-05)
(0.217554 0.0172559 2.14849e-05)
(0.219225 0.0156212 1.82677e-05)
(0.220628 0.0141418 1.56273e-05)
(0.221844 0.0128133 1.36404e-05)
(0.222931 0.0116263 1.13948e-05)
(0.223956 0.0105664 9.67251e-06)
(0.224886 0.00961361 7.78718e-06)
(0.225701 0.00874301 5.80966e-06)
(0.226301 0.00793894 3.74931e-06)
(0.226748 0.00719366 4.02727e-06)
(0.226942 0.00654494 -1.55872e-06)
(0.20791 0.0210663 4.3203e-05)
(0.210958 0.0191418 3.55144e-05)
(0.213653 0.0173836 2.98416e-05)
(0.215985 0.0157752 2.47785e-05)
(0.217963 0.0143071 2.00059e-05)
(0.219617 0.0129757 1.57466e-05)
(0.221009 0.0117757 1.25544e-05)
(0.222177 0.0106981 9.52184e-06)
(0.223219 0.00973601 7.96604e-06)
(0.224152 0.00887662 7.02766e-06)
(0.225024 0.0081046 5.89469e-06)
(0.22577 0.00739682 4.09614e-06)
(0.22641 0.00673995 3.93356e-06)
(0.226829 0.00615313 -2.65711e-06)
(0.20544 0.018586 4.34194e-05)
(0.208783 0.0168982 3.56421e-05)
(0.211754 0.0153656 2.96097e-05)
(0.214367 0.0139732 2.41297e-05)
(0.216637 0.0127089 1.90148e-05)
(0.218571 0.0115631 1.40843e-05)
(0.220217 0.0105291 1.04631e-05)
(0.221576 0.0095946 7.17501e-06)
(0.222725 0.00875443 5.43399e-06)
(0.223694 0.00799964 4.39488e-06)
(0.224554 0.00732581 3.68828e-06)
(0.225315 0.00671361 2.97376e-06)
(0.226 0.00615634 3.50678e-06)
(0.226562 0.00566552 -5.31541e-06)
(0.199132 0.0172246 4.50835e-05)
(0.203165 0.0156696 3.50768e-05)
(0.206775 0.0142692 2.84704e-05)
(0.209985 0.0130036 2.33492e-05)
(0.212821 0.0118591 1.84904e-05)
(0.215327 0.0108271 1.42137e-05)
(0.217501 0.00989499 9.70356e-06)
(0.219391 0.00905692 6.37937e-06)
(0.220989 0.00829907 3.70527e-06)
(0.22233 0.00761406 2.01936e-06)
(0.223437 0.00699251 1.00194e-06)
(0.224357 0.00643369 5.4182e-07)
(0.225128 0.00592639 6.95336e-08)
(0.225791 0.00546365 1.54191e-06)
(0.226357 0.00508991 -8.48095e-06)
(0.196899 0.0135348 2.09237e-05)
(0.201219 0.0123493 1.48585e-05)
(0.205063 0.0112845 1.09552e-05)
(0.208478 0.0103264 8.13853e-06)
(0.211493 0.00946287 5.26735e-06)
(0.214166 0.00868972 2.96892e-06)
(0.216513 0.00799629 4.07805e-07)
(0.218577 0.00737747 -1.41726e-06)
(0.220367 0.00682244 -2.59812e-06)
(0.2219 0.00632191 -3.37245e-06)
(0.223186 0.00586524 -3.51809e-06)
(0.224252 0.00544945 -3.36434e-06)
(0.225119 0.00506948 -3.20454e-06)
(0.22583 0.00471057 -9.46506e-07)
(0.226383 0.00444368 -9.90703e-06)
(0.195221 0.00945648 -2.01507e-05)
(0.199779 0.00868702 -2.00272e-05)
(0.203816 0.00799953 -1.9246e-05)
(0.207392 0.0073865 -1.80408e-05)
(0.21054 0.00683915 -1.73082e-05)
(0.213321 0.00635542 -1.63033e-05)
(0.215765 0.00592837 -1.55231e-05)
(0.217916 0.00555311 -1.45241e-05)
(0.2198 0.00522156 -1.30731e-05)
(0.221441 0.00492552 -1.16306e-05)
(0.222848 0.00465363 -1.0103e-05)
(0.224047 0.00440133 -8.70065e-06)
(0.225043 0.00416408 -7.39297e-06)
(0.22587 0.00392929 -4.52457e-06)
(0.226499 0.00375383 -1.11129e-05)
(0.194257 0.00512039 -8.13774e-05)
(0.198996 0.00479952 -7.19396e-05)
(0.203178 0.00452052 -6.35935e-05)
(0.206865 0.00428238 -5.59657e-05)
(0.2101 0.00408108 -4.94651e-05)
(0.212939 0.00391558 -4.33948e-05)
(0.215416 0.00377987 -3.79719e-05)
(0.217585 0.00367002 -3.27293e-05)
(0.219472 0.00357714 -2.7847e-05)
(0.221119 0.00349537 -2.34549e-05)
(0.222546 0.00341429 -1.9302e-05)
(0.223779 0.00333028 -1.58941e-05)
(0.224838 0.00323728 -1.29835e-05)
(0.225736 0.00313252 -9.25301e-06)
(0.226476 0.00305151 -1.53575e-05)
(0.188597 0.000602745 -0.000191872)
(0.194079 0.000744075 -0.000166456)
(0.198923 0.000885187 -0.000143925)
(0.203185 0.0010286 -0.000124365)
(0.206929 0.00117911 -0.000107089)
(0.2102 0.00133607 -9.21625e-05)
(0.213056 0.00149977 -7.86105e-05)
(0.21553 0.00166347 -6.67324e-05)
(0.217676 0.00182314 -5.61173e-05)
(0.219526 0.00197024 -4.66553e-05)
(0.221121 0.00209919 -3.85342e-05)
(0.222499 0.00220296 -3.11104e-05)
(0.223682 0.00227931 -2.52154e-05)
(0.224711 0.00232453 -2.0458e-05)
(0.225584 0.00233733 -1.51703e-05)
(0.226346 0.00236054 -2.11825e-05)
(0.189197 -0.0039993 -0.000325734)
(0.194689 -0.00336237 -0.000279244)
(0.199529 -0.00277286 -0.000239106)
(0.20378 -0.00222008 -0.00020426)
(0.207504 -0.0016951 -0.000173764)
(0.21075 -0.00119648 -0.000147284)
(0.213573 -0.000723718 -0.000123821)
(0.216014 -0.000282192 -0.000103349)
(0.218117 0.000123512 -8.56635e-05)
(0.219923 0.000487495 -7.02744e-05)
(0.221466 0.000805793 -5.72929e-05)
(0.222787 0.00107512 -4.61714e-05)
(0.223908 0.0012944 -3.74565e-05)
(0.224874 0.00146619 -3.00758e-05)
(0.225683 0.00158241 -2.24099e-05)
(0.22638 0.00170376 -2.64007e-05)
(0.190739 -0.00788092 -0.000494537)
(0.196075 -0.00681449 -0.000421164)
(0.200772 -0.00583444 -0.000358248)
(0.204891 -0.00492702 -0.000303895)
(0.208493 -0.0040818 -0.000256688)
(0.211631 -0.00329593 -0.00021571)
(0.214357 -0.00256883 -0.000180029)
(0.216715 -0.00190347 -0.000149164)
(0.218748 -0.0013023 -0.00012262)
(0.220493 -0.000768292 -9.9972e-05)
(0.221987 -0.000301987 -8.099e-05)
(0.223262 9.72567e-05 -6.50767e-05)
(0.224343 0.000430271 -5.23011e-05)
(0.225265 0.000704484 -4.18187e-05)
(0.226038 0.000910081 -3.18595e-05)
(0.226681 0.00110262 -3.19916e-05)
(0.193184 -0.0105514 -0.000695058)
(0.198196 -0.00918982 -0.00058902)
(0.202603 -0.0079399 -0.0004986)
(0.206466 -0.00678799 -0.000421019)
(0.209843 -0.00572471 -0.000354161)
(0.212785 -0.00474703 -0.000296414)
(0.215342 -0.00385371 -0.00024655)
(0.217556 -0.00304563 -0.000203719)
(0.219471 -0.00232225 -0.000166987)
(0.221118 -0.00168328 -0.000135817)
(0.222533 -0.00112646 -0.000109756)
(0.223746 -0.000648063 -8.79402e-05)
(0.22478 -0.000244435 -7.01266e-05)
(0.225665 9.25647e-05 -5.58111e-05)
(0.226414 0.000359205 -4.3125e-05)
(0.227041 0.000590425 -3.86792e-05)
(0.196335 -0.0115408 -0.000920026)
(0.200887 -0.0100911 -0.000777221)
(0.204888 -0.00875636 -0.000656038)
(0.208398 -0.00752569 -0.000552517)
(0.211468 -0.0063931 -0.000463713)
(0.214148 -0.00535703 -0.0003873)
(0.216481 -0.00441657 -0.000321589)
(0.218506 -0.00357121 -0.000265265)
(0.22026 -0.00281887 -0.000217177)
(0.221773 -0.00215659 -0.000176406)
(0.223075 -0.00158049 -0.000142288)
(0.224195 -0.0010854 -0.000113819)
(0.225153 -0.000666096 -9.04531e-05)
(0.225979 -0.00031477 -7.16558e-05)
(0.226681 -3.03969e-05 -5.56562e-05)
(0.227288 0.00020983 -4.75175e-05)
(0.199719 -0.0104671 -0.00115707)
(0.203754 -0.00918847 -0.000975698)
(0.207301 -0.00800168 -0.000822116)
(0.210415 -0.00690182 -0.000691203)
(0.213148 -0.00588781 -0.000579164)
(0.215541 -0.00496065 -0.000483012)
(0.217633 -0.00412094 -0.000400552)
(0.219455 -0.00336804 -0.000329958)
(0.221038 -0.00269983 -0.000269858)
(0.222409 -0.00211262 -0.000218965)
(0.223591 -0.00160224 -0.000176315)
(0.224609 -0.00116352 -0.000140832)
(0.225481 -0.000791759 -0.000111668)