/*--------------------------------*- C++ -*----------------------------------*\
  =========                 |
  \\      /  F ield         | OpenFOAM: The Open Source CFD Toolbox
   \\    /   O peration     | Website:  https://openfoam.org
    \\  /    A nd           | Version:  6
     \\/     M anipulation  |
\*---------------------------------------------------------------------------*/
FoamFile
{
    version     2.0;
    format      ascii;
    class       volScalarField;
    location    "1";
    object      k;
}
// * * * * * * * * * * * * * * * * * * * * * * * * * * * * * * * * * * * * * //

dimensions      [0 2 -2 0 0 0 0];

internalField   nonuniform List<scalar> 
63568
(
0.000285749
0.000341372
0.000336569
0.000319574
0.000307777
0.000301035
0.000296906
0.000296628
0.000295475
0.000296462
0.000298338
0.000297051
0.000294678
0.000293853
0.000294712
0.000296386
0.000298191
0.000299829
0.000301288
0.0003026
0.000303991
0.000305358
0.000307131
0.000308888
0.000311217
0.000313671
0.000316618
0.000319987
0.000323734
0.000327979
0.000333084
0.000338741
0.000345554
0.000352235
0.00036129
0.000267069
0.000314966
0.000314071
0.000304308
0.000298521
0.000295284
0.000293059
0.000292682
0.000292121
0.000292773
0.000293717
0.000292902
0.000291395
0.00029071
0.000291145
0.000292392
0.000294134
0.000296149
0.000298321
0.0003005
0.000302792
0.000304956
0.00030752
0.000309833
0.000312986
0.000315617
0.000319861
0.000322562
0.000328695
0.000330848
0.000339897
0.000341361
0.000355044
0.000351878
0.000373325
0.000249386
0.000287664
0.000279982
0.000263319
0.000250671
0.000243215
0.000239675
0.000239497
0.000239627
0.000240766
0.000242007
0.000242186
0.000242212
0.000242998
0.000244461
0.000246089
0.00024751
0.000248639
0.00024962
0.000250589
0.000251791
0.000253109
0.000254908
0.000256703
0.000259121
0.00026143
0.000264561
0.000267203
0.000271463
0.000274061
0.000280133
0.000282496
0.000291267
0.000291718
0.000306418
0.000231382
0.000260656
0.000255598
0.00024544
0.000238189
0.000234268
0.00023232
0.000233309
0.000233506
0.000235219
0.00023708
0.000236992
0.000236323
0.000236449
0.000237439
0.000238894
0.000240513
0.000242143
0.000243756
0.000245316
0.000246962
0.000248566
0.00025048
0.000252336
0.00025461
0.000256958
0.00025963
0.000262505
0.000265841
0.000269031
0.000273568
0.000277229
0.00028313
0.000287411
0.000295082
0.00021341
0.000238237
0.000236661
0.000231878
0.000229236
0.000228221
0.000228193
0.000229414
0.000230478
0.000231928
0.000233227
0.000233535
0.0002333
0.000233227
0.000233662
0.000234688
0.000236251
0.000238202
0.000240377
0.000242592
0.000244872
0.000247051
0.000249448
0.000251766
0.00025438
0.000257192
0.000260043
0.000263457
0.00026683
0.000270415
0.000275207
0.000278157
0.000285648
0.000285238
0.000297621
0.000195505
0.000212518
0.000206633
0.000198158
0.000191957
0.000188672
0.000187357
0.000188417
0.000188997
0.000190556
0.000192095
0.000192508
0.000192597
0.000193087
0.000194017
0.000195203
0.000196506
0.000197848
0.000199209
0.000200558
0.000202002
0.00020343
0.00020514
0.000206769
0.000208842
0.000210741
0.000213313
0.000215272
0.000218692
0.000220499
0.000225007
0.000226754
0.000232848
0.000233369
0.000243934
0.000178017
0.00019154
0.000188112
0.000182963
0.000179456
0.000178219
0.000178575
0.000180618
0.000182041
0.000183889
0.000185445
0.000185908
0.000186002
0.000186408
0.000187238
0.00018837
0.000189684
0.0001911
0.000192581
0.000194075
0.000195659
0.000197203
0.000198989
0.000200635
0.000202712
0.000204488
0.000207063
0.000208686
0.000212179
0.000213378
0.000217941
0.000218696
0.000224666
0.000223138
0.000232784
0.000160685
0.000169073
0.000162982
0.000155489
0.000149885
0.000147176
0.000146645
0.000148037
0.0001491
0.000150631
0.000151972
0.000152609
0.000153068
0.000153744
0.000154626
0.000155592
0.000156565
0.00015752
0.000158472
0.000159421
0.000160457
0.0001615
0.000162759
0.000163971
0.000165469
0.000166915
0.000168652
0.000170234
0.000172372
0.000173961
0.000176718
0.000178097
0.000182097
0.000182332
0.0001895
0.000144554
0.000150499
0.000146552
0.000142006
0.000138938
0.000138242
0.000139166
0.000141528
0.000143072
0.000144849
0.000146247
0.000146753
0.000147005
0.000147494
0.000148261
0.000149201
0.000150231
0.000151298
0.000152389
0.000153476
0.000154625
0.00015575
0.000157044
0.000158261
0.000159715
0.000161105
0.000162722
0.000164224
0.000166139
0.000167647
0.000170031
0.000171168
0.000174753
0.000173802
0.000180639
0.000130179
0.00013303
0.000127087
0.000120634
0.000116117
0.000114431
0.000114766
0.000116413
0.000117648
0.000118979
0.000120022
0.00012061
0.000121142
0.00012184
0.00012264
0.00012342
0.000124123
0.000124763
0.000125391
0.000126039
0.000126778
0.000127545
0.000128484
0.000129379
0.000130497
0.000131531
0.000132833
0.000133865
0.000135554
0.00013641
0.000138607
0.00013924
0.000142129
0.000142079
0.000147092
0.000116067
0.000117306
0.000112972
0.0001088
0.000106417
0.000106531
0.000108084
0.000110584
0.000112051
0.000113573
0.00011467
0.000115086
0.00011538
0.000115879
0.000116554
0.000117304
0.000118065
0.000118817
0.000119571
0.000120329
0.000121141
0.000121946
0.000122882
0.00012375
0.000124804
0.000125772
0.000126953
0.000127928
0.000129389
0.000130268
0.000132058
0.000132735
0.000135146
0.000134566
0.000139296
0.000103168
0.000102503
9.67735e-05
9.12563e-05
8.79995e-05
8.74819e-05
8.85975e-05
9.03844e-05
9.15698e-05
9.26283e-05
9.33719e-05
9.38177e-05
9.43002e-05
9.49426e-05
9.56374e-05
9.62494e-05
9.67343e-05
9.71348e-05
9.75287e-05
9.79615e-05
9.8484e-05
9.90424e-05
9.97305e-05
0.00010038
0.000101189
0.000101931
0.000102842
0.000103581
0.000104751
0.000105334
0.000106875
0.000107211
0.000109294
0.000109035
0.000112669
9.01628e-05
8.84402e-05
8.40441e-05
8.05835e-05
7.94361e-05
8.06874e-05
8.28893e-05
8.53378e-05
8.65909e-05
8.77568e-05
8.85233e-05
8.88246e-05
8.90987e-05
8.95252e-05
9.00478e-05
9.05908e-05
9.11243e-05
9.16494e-05
9.21836e-05
9.27307e-05
9.3322e-05
9.39088e-05
9.45861e-05
9.52056e-05
9.59583e-05
9.66425e-05
9.74631e-05
9.81487e-05
9.91637e-05
9.97574e-05
0.000100998
0.000101455
0.000103061
0.00010274
0.000105962
7.83678e-05
7.54991e-05
7.02216e-05
6.60267e-05
6.44937e-05
6.53406e-05
6.70954e-05
6.88636e-05
6.97832e-05
7.05443e-05
7.10258e-05
7.13068e-05
7.16772e-05
7.21958e-05
7.2735e-05
7.31738e-05
7.34936e-05
7.37524e-05
7.40235e-05
7.43423e-05
7.47336e-05
7.51522e-05
7.56572e-05
7.61246e-05
7.67049e-05
7.7229e-05
7.7859e-05
7.83856e-05
7.91876e-05
7.95826e-05
8.06565e-05
8.08365e-05
8.22928e-05
8.20462e-05
8.4553e-05
6.64819e-05
6.30793e-05
5.89276e-05
5.66301e-05
5.71544e-05
5.96222e-05
6.2251e-05
6.43901e-05
6.52856e-05
6.60547e-05
6.65384e-05
6.67595e-05
6.69815e-05
6.72593e-05
6.75643e-05
6.78969e-05
6.82676e-05
6.86714e-05
6.90966e-05
6.95278e-05
6.99759e-05
7.04097e-05
7.08968e-05
7.13337e-05
7.1866e-05
7.23432e-05
7.29043e-05
7.33915e-05
7.40799e-05
7.44855e-05
7.53419e-05
7.56369e-05
7.67288e-05
7.65534e-05
7.87411e-05
5.53817e-05
5.14505e-05
4.69633e-05
4.45419e-05
4.49891e-05
4.70662e-05
4.91109e-05
5.05998e-05
5.11124e-05
5.16043e-05
5.18744e-05
5.20154e-05
5.22761e-05
5.26462e-05
5.29963e-05
5.32597e-05
5.34607e-05
5.36563e-05
5.38861e-05
5.41556e-05
5.44645e-05
5.47812e-05
5.51442e-05
5.54729e-05
5.58799e-05
5.62408e-05
5.66636e-05
5.70444e-05
5.7562e-05
5.78526e-05
5.8557e-05
5.86751e-05
5.96673e-05
5.94501e-05
6.11496e-05
4.47017e-05
4.07319e-05
3.726e-05
3.6627e-05
3.89462e-05
4.22692e-05
4.47898e-05
4.62824e-05
4.67366e-05
4.71165e-05
4.74167e-05
4.76423e-05
4.77894e-05
4.78181e-05
4.78312e-05
4.79743e-05
4.82821e-05
4.86822e-05
4.90894e-05
4.94594e-05
4.97996e-05
5.01102e-05
5.04448e-05
5.07435e-05
5.11096e-05
5.14357e-05
5.18018e-05
5.21649e-05
5.25797e-05
5.29084e-05
5.34171e-05
5.36691e-05
5.43885e-05
5.42464e-05
5.58389e-05
3.39133e-05
3.00345e-05
2.70949e-05
2.67684e-05
2.85663e-05
3.07007e-05
3.20679e-05
3.28377e-05
3.29075e-05
3.31911e-05
3.32814e-05
3.3335e-05
3.35571e-05
3.3824e-05
3.39927e-05
3.40751e-05
3.416e-05
3.43034e-05
3.45028e-05
3.47283e-05
3.49606e-05
3.51857e-05
3.54251e-05
3.56443e-05
3.5912e-05
3.61418e-05
3.64193e-05
3.66708e-05
3.69955e-05
3.71691e-05
3.76603e-05
3.76352e-05
3.84717e-05
3.79604e-05
3.96895e-05
2.35391e-05
2.07434e-05
1.72339e-05
1.5748e-05
1.64154e-05
1.76144e-05
1.83759e-05
1.8605e-05
1.86566e-05
1.87685e-05
1.86526e-05
1.87609e-05
1.92247e-05
1.97077e-05
1.98871e-05
1.97715e-05
1.95811e-05
1.94845e-05
1.95116e-05
1.96142e-05
1.97495e-05
1.98837e-05
2.00366e-05
2.01642e-05
2.03386e-05
2.04764e-05
2.0645e-05
2.08142e-05
2.09945e-05
2.1133e-05
2.13679e-05
2.14573e-05
2.18514e-05
2.17758e-05
2.24039e-05
1.13476e-05
1.2222e-05
1.09127e-05
1.12236e-05
1.30352e-05
1.44443e-05
1.49876e-05
1.50662e-05
1.50718e-05
1.51184e-05
1.5115e-05
1.52115e-05
1.52945e-05
1.53008e-05
1.5301e-05
1.53642e-05
1.5486e-05
1.56255e-05
1.57551e-05
1.58697e-05
1.59804e-05
1.60853e-05
1.62077e-05
1.63105e-05
1.64519e-05
1.65631e-05
1.66964e-05
1.68385e-05
1.69718e-05
1.71076e-05
1.72392e-05
1.74069e-05
1.76043e-05
1.77109e-05
1.81198e-05
2.17121e-05
2.42499e-05
3.36662e-05
3.89621e-05
3.9867e-05
4.02851e-05
4.08324e-05
4.1753e-05
4.11312e-05
4.34456e-05
4.17322e-05
3.9544e-05
3.96565e-05
4.11245e-05
4.25804e-05
4.34482e-05
4.38152e-05
4.39573e-05
4.40551e-05
4.41668e-05
4.42949e-05
4.44394e-05
4.45718e-05
4.47763e-05
4.48361e-05
4.51882e-05
4.51945e-05
4.53906e-05
4.57707e-05
4.58525e-05
4.59166e-05
4.55128e-05
4.61883e-05
4.54918e-05
4.7001e-05
0.00106153
0.00102571
0.00102649
0.00103503
0.00103533
0.0010323
0.00102814
0.00102687
0.00102557
0.00102482
0.00102528
0.00102604
0.00102627
0.00102586
0.0010253
0.00102503
0.00102519
0.00102561
0.00102617
0.00102663
0.00102718
0.00102748
0.00102806
0.00102845
0.00102903
0.00102967
0.00103041
0.00103119
0.00103208
0.00103322
0.00103432
0.00103561
0.00103714
0.00103818
0.00104061
0.00104493
0.00101436
0.00101408
0.00102272
0.00102552
0.00102531
0.00102368
0.0010229
0.00102198
0.00102141
0.00102174
0.00102236
0.00102259
0.00102224
0.00102164
0.00102118
0.00102108
0.00102135
0.00102198
0.00102271
0.00102371
0.00102442
0.00102557
0.00102609
0.00102752
0.00102748
0.00103009
0.00102875
0.00103291
0.00103076
0.00103579
0.00103342
0.0010393
0.00103578
0.00104407
0.00102769
0.00100266
0.00100436
0.00101052
0.00100693
0.00100004
0.000994078
0.00099186
0.000990912
0.000990797
0.000991502
0.000992278
0.000992632
0.000992734
0.000993046
0.000993743
0.000994659
0.000995487
0.00099613
0.000996492
0.00099696
0.000997221
0.000997981
0.000998467
0.000999595
0.00100014
0.00100205
0.00100196
0.00100506
0.00100428
0.00100847
0.00100725
0.00101201
0.0010103
0.00101666
0.0010108
0.000985469
0.000986298
0.000993196
0.000992282
0.000988866
0.000984986
0.000984551
0.000984
0.000984098
0.000985388
0.000986812
0.000987475
0.000987379
0.00098711
0.00098711
0.00098751
0.000988187
0.000989047
0.000989859
0.000990813
0.000991514
0.000992511
0.000993288
0.000994246
0.000995246
0.00099643
0.000997277
0.000999047
0.000999678
0.00100198
0.00100286
0.00100475
0.00100629
0.00100832
0.00098931
0.000970337
0.000970492
0.000978138
0.00098044
0.000980215
0.000979237
0.000979352
0.000979569
0.000980046
0.000981108
0.000982277
0.000982946
0.000982912
0.000982471
0.000982078
0.000982098
0.000982646
0.000983698
0.000984943
0.000986422
0.00098766
0.000989068
0.000990307
0.000991411
0.000992968
0.000993975
0.000995548
0.000997049
0.000998118
0.00100079
0.00100095
0.00100483
0.00100338
0.00101033
0.000967147
0.000951118
0.000951542
0.000955972
0.000952973
0.000948285
0.000944096
0.000943772
0.000943532
0.000944061
0.000945622
0.000947178
0.000947997
0.000948177
0.000948238
0.00094855
0.000949214
0.000950128
0.00095121
0.000952245
0.000953425
0.000954339
0.000955648
0.000956549
0.000958097
0.00095888
0.000961223
0.000961236
0.000964688
0.000964285
0.000968188
0.000967848
0.000972172
0.000970793
0.000977501
0.000941933
0.000930455
0.000931068
0.000936131
0.000934655
0.000931633
0.000929362
0.000930418
0.000931482
0.000932871
0.000934848
0.000936564
0.00093742
0.000937584
0.000937613
0.000937899
0.000938558
0.000939504
0.000940666
0.000941833
0.000943183
0.000944271
0.000945772
0.000946759
0.000948524
0.000949153
0.000951904
0.000951374
0.000955514
0.000954312
0.000958934
0.00095776
0.000962897
0.000960255
0.000968465
0.000913838
0.000907382
0.000906833
0.000907309
0.000900369
0.00089314
0.000888584
0.000888975
0.000889826
0.000891403
0.000893535
0.000895316
0.000896374
0.000897002
0.000897629
0.000898466
0.000899488
0.000900567
0.000901664
0.000902658
0.000903779
0.000904692
0.000906005
0.000907031
0.000908517
0.000909723
0.000911596
0.000912547
0.000915061
0.000915751
0.00091901
0.00091894
0.000923394
0.000921885
0.000928647
0.000884639
0.000881349
0.000880983
0.000882426
0.000877608
0.000873037
0.000871002
0.000873587
0.000875745
0.000878106
0.000880756
0.000882764
0.000883759
0.000884153
0.000884531
0.000885205
0.000886198
0.000887378
0.000888669
0.000889905
0.000891269
0.000892408
0.000893893
0.00089506
0.000896606
0.000897913
0.00089969
0.000900826
0.000903013
0.000904058
0.000906849
0.000906953
0.000911539
0.00090897
0.00091768
0.000854164
0.00085655
0.000853657
0.000849145
0.000838609
0.00083032
0.000827032
0.000829078
0.00083131
0.000833809
0.000836243
0.000838012
0.000839166
0.000840159
0.000841322
0.000842645
0.000843939
0.00084506
0.000846056
0.000846936
0.000847978
0.000848902
0.000850281
0.000851374
0.000853015
0.000854227
0.000856391
0.00085704
0.00086026
0.000860242
0.000864241
0.000863825
0.00086829
0.000866872
0.000873938
0.000821891
0.000825812
0.000822581
0.000818679
0.00081043
0.00080569
0.000805625
0.000810625
0.000814054
0.000817274
0.000820285
0.000822279
0.000823281
0.000823922
0.000824713
0.000825792
0.000827046
0.000828322
0.000829589
0.000830773
0.000832086
0.000833226
0.000834744
0.000835934
0.00083759
0.000838866
0.000840872
0.000841745
0.00084445
0.000845063
0.000848125
0.000848439
0.000852406
0.000850588
0.000858924
0.00078633
0.000796292
0.000788718
0.000777581
0.000763899
0.000756525
0.000756304
0.000760897
0.000764547
0.000767698
0.000770191
0.000771792
0.000772966
0.000774306
0.00077599
0.000777728
0.000779165
0.000780194
0.000781
0.000781739
0.000782713
0.000783671
0.000785106
0.000786281
0.000787976
0.000789322
0.000791389
0.000792281
0.000795339
0.000795482
0.000799506
0.000798816
0.000803775
0.000801724
0.000809377
0.000747779
0.000757843
0.000748569
0.000738134
0.000728562
0.000727125
0.000731626
0.000739764
0.000744368
0.00074808
0.000751048
0.00075281
0.0007538
0.000754676
0.000755757
0.000757022
0.000758327
0.00075958
0.000760812
0.000762008
0.000763351
0.000764568
0.000766146
0.000767397
0.000769095
0.000770463
0.000772399
0.000773427
0.00077607
0.000776752
0.000779763
0.000780216
0.000783813
0.000782604
0.00079026
0.000705374
0.000719956
0.000704157
0.000686313
0.000673208
0.000671253
0.000676482
0.000684242
0.000688663
0.000691942
0.000694231
0.000695539
0.000696659
0.00069822
0.000700176
0.000702018
0.000703367
0.00070425
0.000704968
0.000705738
0.000706798
0.000707896
0.000709428
0.000710687
0.000712435
0.000713869
0.00071583
0.000716935
0.000719809
0.000720115
0.000724012
0.000723335
0.000728258
0.000726268
0.000733789
0.000657799
0.000671034
0.000651426
0.000635567
0.000630324
0.000637477
0.00064884
0.000659845
0.000664786
0.000668259
0.000670775
0.0006723
0.000673384
0.000674326
0.000675234
0.000676216
0.000677356
0.000678659
0.000680083
0.000681522
0.000683047
0.000684418
0.000686066
0.000687368
0.000689097
0.000690529
0.000692362
0.000693576
0.000696078
0.000696844
0.000699818
0.000700243
0.000703717
0.000702889
0.000709914
0.000604607
0.000618314
0.000590659
0.000569911
0.000565131
0.000574034
0.000586061
0.000596219
0.000599992
0.000602864
0.000604696
0.000605579
0.000606638
0.000608289
0.000610129
0.000611635
0.000612691
0.000613527
0.000614436
0.000615517
0.000616839
0.000618153
0.000619774
0.000621096
0.000622869
0.00062435
0.000626162
0.000627537
0.000630053
0.000630692
0.000634208
0.000633722
0.00063854
0.000636579
0.000643984
0.000543532
0.000553977
0.000520833
0.000506542
0.000515527
0.000536091
0.000553906
0.000565346
0.0005691
0.000571355
0.000573218
0.000575024
0.000576449
0.000576763
0.000576347
0.000576348
0.00057743
0.000579372
0.000581585
0.000583617
0.000585426
0.000586934
0.000588582
0.000589904
0.000591635
0.000593124
0.000594776
0.000596348
0.000598384
0.000599637
0.000602091
0.00060277
0.000606354
0.000605152
0.000612609
0.000471346
0.00047376
0.000436722
0.000424889
0.000435611
0.000453307
0.000466211
0.000474167
0.000475192
0.000477461
0.000478424
0.000478729
0.000480213
0.000482371
0.000483923
0.000484572
0.000484938
0.000485662
0.0004869
0.000488436
0.000490072
0.000491608
0.000493261
0.000494662
0.000496465
0.000497938
0.000499752
0.000501287
0.000503627
0.000504316
0.000507937
0.000506886
0.000513104
0.000508965
0.000520042
0.000378819
0.000384381
0.000331798
0.000304756
0.000308143
0.000322597
0.000333353
0.000337088
0.000337984
0.000339557
0.000337991
0.000338205
0.000342924
0.000349078
0.000352347
0.000351705
0.000349352
0.00034768
0.0003475
0.000348387
0.000349789
0.000351178
0.000352824
0.000354079
0.000355915
0.000357318
0.000358989
0.000360705
0.000362645
0.000363885
0.000366317
0.000366757
0.000371026
0.000369886
0.00037661
0.000233589
0.000264314
0.000231908
0.000229682
0.000255213
0.000277094
0.000286217
0.000287669
0.000287799
0.000288212
0.000288035
0.000289655
0.000291132
0.000291256
0.000290981
0.000291426
0.000292729
0.000294394
0.000295993
0.00029739
0.000298718
0.000299924
0.00030138
0.000302512
0.000304175
0.000305446
0.000306914
0.000308558
0.000310097
0.000311602
0.000312952
0.000314703
0.00031696
0.000317686
0.000322735
0.000107719
0.000111328
0.000123793
0.000128005
0.000127509
0.000127687
0.000128351
0.000130022
0.000128298
0.000132863
0.000129926
0.000125725
0.000125823
0.000128375
0.000130717
0.000131965
0.000132406
0.000132521
0.000132578
0.000132653
0.000132741
0.000132852
0.000132918
0.000133143
0.000133026
0.000133525
0.000133346
0.000133443
0.00013396
0.000133958
0.000133997
0.000132999
0.000134115
0.000132645
0.000135135
0.00113094
0.0011095
0.00109707
0.00110131
0.00110457
0.00110462
0.00110086
0.00109971
0.00109768
0.00109609
0.00109653
0.00109706
0.00109672
0.00109596
0.00109535
0.00109511
0.00109525
0.00109559
0.00109609
0.00109642
0.00109695
0.00109707
0.00109756
0.00109775
0.00109808
0.00109844
0.00109888
0.00109929
0.00109971
0.00110042
0.00110095
0.00110161
0.00110272
0.00110274
0.00110472
0.00111766
0.00109727
0.00108401
0.00108791
0.00109317
0.00109575
0.00109498
0.00109436
0.00109291
0.00109168
0.00109177
0.00109215
0.00109204
0.0010915
0.00109084
0.0010903
0.00109004
0.00109006
0.00109046
0.00109092
0.00109182
0.00109224
0.00109339
0.00109343
0.0010951
0.00109392
0.00109749
0.00109413
0.0010996
0.00109531
0.00110124
0.00109703
0.00110348
0.00109854
0.00110596
0.00110257
0.00108473
0.00107444
0.00107798
0.00107833
0.00107439
0.0010685
0.00106569
0.00106372
0.00106276
0.0010632
0.00106364
0.00106348
0.00106313
0.00106315
0.00106371
0.0010646
0.00106542
0.00106607
0.00106629
0.00106664
0.00106653
0.00106707
0.00106705
0.00106799
0.00106767
0.00106981
0.00106821
0.00107195
0.00106924
0.00107404
0.00107105
0.00107601
0.00107272
0.00107877
0.00108659
0.00106776
0.00105628
0.00106006
0.00106246
0.00106189
0.00105796
0.00105734
0.00105574
0.00105488
0.00105603
0.00105711
0.00105721
0.00105677
0.0010564
0.00105635
0.00105664
0.00105711
0.00105777
0.00105831
0.00105911
0.0010595
0.00106029
0.00106075
0.00106134
0.00106191
0.00106282
0.00106285
0.00106455
0.00106409
0.00106612
0.0010663
0.00106733
0.0010682
0.00106935
0.00106921
0.00105203
0.00104004
0.00104398
0.00104908
0.00105145
0.00105096
0.00105075
0.0010501
0.00104975
0.00105044
0.00105134
0.00105178
0.00105163
0.00105106
0.00105041
0.00105004
0.00105012
0.00105077
0.00105163
0.0010529
0.00105383
0.00105499
0.001056
0.00105657
0.00105793
0.00105833
0.00105941
0.00106061
0.00106059
0.00106333
0.00106218
0.00106613
0.00106346
0.00106953
0.0010491
0.00103361
0.00102332
0.00102602
0.00102676
0.00102475
0.00102021
0.00101932
0.00101776
0.00101723
0.00101851
0.00101964
0.00101988
0.00101966
0.00101952
0.00101968
0.00102014
0.00102075
0.00102155
0.00102223
0.00102318
0.00102366
0.00102471
0.00102503
0.00102636
0.00102614
0.0010287
0.00102708
0.00103098
0.00102893
0.00103287
0.00103114
0.00103541
0.00103243
0.00103839
0.00102736
0.00101321
0.00100323
0.00100633
0.00100806
0.00100703
0.00100392
0.00100393
0.00100354
0.00100388
0.00100559
0.00100699
0.00100744
0.00100729
0.00100709
0.00100713
0.00100748
0.00100807
0.0010089
0.00100968
0.00101077
0.0010114
0.00101267
0.00101302
0.0010147
0.00101416
0.00101746
0.00101495
0.00101998
0.00101682
0.00102186
0.0010191
0.00102454
0.00102046
0.00102762
0.00100307
0.000991788
0.000982948
0.000983545
0.00098051
0.000974974
0.000968954
0.000967908
0.000967063
0.000967552
0.000969361
0.000970682
0.000971135
0.000971299
0.000971677
0.000972352
0.000973185
0.000973994
0.000974792
0.00097539
0.000976189
0.000976586
0.000977522
0.000977944
0.000978969
0.000979401
0.000980974
0.000980801
0.000983174
0.00098248
0.000985801
0.000983997
0.000988636
0.000985445
0.000991338
0.0009775
0.000967201
0.000958516
0.000959481
0.000957519
0.000953598
0.000949236
0.000950013
0.000950311
0.000951595
0.000954065
0.000955754
0.000956272
0.000956293
0.000956427
0.00095686
0.00095755
0.00095836
0.000959287
0.000960095
0.000961123
0.000961748
0.000962861
0.000963457
0.000964534
0.000965167
0.000966554
0.000966799
0.000968629
0.000968624
0.000971343
0.000969793
0.000974919
0.000970549
0.000978482
0.000951559
0.000945129
0.000937062
0.000934374
0.000927257
0.000919088
0.000913027
0.000912906
0.000913315
0.000914867
0.000917033
0.000918331
0.000918799
0.000919222
0.000920065
0.000921234
0.000922401
0.000923313
0.000924022
0.000924473
0.000925115
0.000925439
0.000926367
0.000926768
0.000927928
0.000928226
0.000930227
0.000929392
0.000932835
0.000931077
0.000935195
0.000933249
0.000937579
0.000934567
0.000940971
0.000923099
0.000917352
0.000908923
0.000905734
0.000898996
0.000892677
0.000888582
0.000891209
0.000892675
0.000895009
0.000897999
0.00089965
0.000900076
0.000900273
0.000900817
0.000901697
0.000902699
0.000903634
0.000904521
0.000905233
0.000906133
0.000906683
0.000907768
0.000908305
0.000909484
0.00090996
0.000911698
0.000911398
0.000913982
0.000913406
0.000916188
0.000915316
0.000919233
0.000915939
0.000923447
0.000892996
0.000892198
0.000883368
0.000875094
0.000862991
0.000853196
0.000848714
0.000850741
0.000852767
0.000855277
0.000857638
0.000858754
0.000859117
0.000859755
0.000861075
0.000862725
0.000864147
0.000865049
0.000865574
0.000865839
0.00086633
0.000866621
0.000867541
0.000867992
0.000869133
0.000869616
0.000871376
0.000870883
0.000874067
0.000872443
0.000876736
0.00087421
0.000879375
0.000875492
0.000882571
0.000859168
0.000858911
0.000848274
0.000838302
0.000826947
0.000820656
0.000819678
0.000825418
0.000828437
0.000831657
0.000834752
0.00083613
0.000836468
0.000836895
0.000837776
0.000838896
0.000839966
0.000840853
0.000841643
0.0008423
0.000843155
0.000843735
0.000844832
0.000845408
0.000846575
0.00084718
0.000848749
0.000848648
0.000851127
0.000850626
0.000853284
0.000852721
0.000855929
0.000853612
0.000860129
0.000823041
0.00082812
0.000815336
0.000799291
0.000783682
0.000776048
0.000776029
0.000781682
0.000785056
0.000788108
0.000790445
0.000791213
0.000791365
0.000792129
0.000793746
0.000795587
0.000796989
0.000797752
0.00079814
0.000798379
0.000798893
0.000799297
0.000800285
0.000800813
0.000801963
0.000802593
0.00080412
0.000803955
0.000806846
0.000805448
0.000809588
0.000807084
0.000812182
0.00080844
0.00081538
0.000781792
0.000787368
0.000770064
0.000751129
0.00073811
0.000736821
0.000742361
0.000751899
0.000756106
0.000759515
0.000762183
0.000763229
0.000763685
0.00076435
0.000765197
0.000766012
0.000766768
0.000767535
0.000768393
0.000769244
0.000770256
0.000770998
0.000772157
0.000772786
0.00077395
0.000774674
0.000776031
0.000776205
0.000778489
0.000778065
0.000780721
0.000780124
0.00078308
0.000781381
0.000787075
0.000735922
0.000746225
0.000724837
0.0007005
0.00068646
0.000686897
0.000694109
0.000703697
0.000707215
0.000710217
0.000712218
0.00071242
0.000712361
0.000713244
0.000714868
0.00071643
0.000717473
0.000718068
0.000718541
0.000719055
0.000719823
0.000720476
0.000721559
0.000722165
0.000723316
0.000724066
0.0007253
0.000725595
0.000727944
0.000727043
0.000730728
0.000728401
0.00073346
0.000729756
0.000736686
0.000683448
0.000693813
0.000663552
0.000636534
0.00062952
0.000639669
0.000653494
0.000665233
0.000669234
0.000671595
0.000673282
0.000674502
0.000675777
0.00067647
0.000676183
0.000675616
0.000675705
0.000676699
0.000678229
0.000679749
0.000681139
0.000682103
0.000683279
0.000683942
0.000685082
0.000685946
0.000686968
0.000687719
0.000689351
0.000689546
0.000691754
0.000691087
0.000694608
0.000692149
0.000698608
0.000623402
0.000631988
0.000597344
0.000570056
0.00056501
0.00057442
0.000584752
0.000593661
0.000594623
0.000597102
0.000598287
0.000597555
0.000597644
0.000599293
0.000601162
0.000602137
0.000602321
0.000602427
0.000602931
0.000603797
0.000604879
0.000605819
0.000606948
0.000607656
0.000608836
0.00060961
0.000610768
0.000611378
0.000613393
0.000612807
0.000616313
0.000613741
0.000619711
0.000614841
0.000623628
0.000542339
0.000566947
0.000522997
0.000478618
0.000463429
0.000470042
0.000480928
0.000485906
0.000487356
0.000489402
0.000487517
0.000485279
0.000486938
0.000492075
0.000496987
0.000498632
0.000497273
0.000495145
0.000493929
0.000493838
0.000494557
0.000495264
0.000496461
0.000496956
0.000498215
0.000499003
0.000499905
0.000500808
0.000502376
0.000502579
0.000504763
0.000503621
0.000507712
0.00050498
0.000511312
0.000428028
0.000482243
0.00042364
0.000382662
0.000391213
0.000412737
0.000424867
0.00042709
0.000427334
0.00042724
0.000426223
0.000428029
0.000430655
0.00043146
0.000430799
0.000430124
0.000430217
0.000430973
0.000431981
0.00043292
0.000433864
0.000434546
0.000435648
0.000436142
0.000437361
0.000438161
0.000438965
0.000440025
0.000441185
0.000442029
0.000442928
0.000443557
0.000445677
0.000444836
0.00045016
0.000156944
0.000160582
0.000173732
0.000177436
0.000176295
0.000176178
0.000176809
0.000178934
0.000176666
0.000182155
0.000179117
0.000174005
0.000173783
0.000176662
0.000179449
0.00018098
0.000181534
0.00018167
0.00018172
0.000181786
0.000181867
0.000181979
0.000182022
0.000182284
0.00018209
0.000182662
0.000182462
0.00018248
0.000183061
0.000183063
0.000183214
0.00018191
0.000183233
0.000181363
0.000184211
0.00113766
0.00113393
0.00111909
0.00111758
0.00112053
0.00112288
0.00112002
0.00111932
0.00111708
0.00111466
0.00111491
0.00111555
0.0011148
0.00111337
0.00111237
0.00111214
0.00111244
0.0011129
0.00111348
0.00111378
0.00111435
0.0011144
0.00111482
0.00111494
0.00111512
0.00111529
0.00111556
0.00111574
0.00111582
0.00111626
0.00111645
0.00111652
0.00111752
0.00111663
0.00111842
0.00112497
0.00112156
0.00110584
0.00110355
0.00110798
0.0011124
0.00111279
0.00111269
0.0011111
0.00110927
0.0011091
0.00110943
0.00110904
0.00110809
0.00110719
0.00110661
0.00110637
0.00110633
0.00110666
0.00110691
0.00110777
0.00110795
0.00110916
0.00110876
0.00111086
0.00110851
0.00111318
0.0011081
0.00111451
0.001109
0.00111508
0.00111005
0.00111628
0.00111087
0.00111725
0.0011103
0.0011087
0.00109654
0.00109544
0.00109635
0.00109473
0.00108957
0.00108667
0.0010841
0.00108235
0.00108252
0.00108285
0.00108223
0.00108124
0.00108082
0.00108125
0.00108223
0.00108319
0.00108398
0.00108418
0.00108455
0.00108424
0.00108469
0.00108431
0.00108527
0.00108416
0.00108679
0.00108389
0.00108827
0.00108426
0.00108927
0.0010855
0.00109005
0.00108625
0.00109161
0.00109471
0.00109215
0.00107853
0.00107719
0.00107955
0.00108113
0.00107773
0.00107726
0.00107517
0.00107333
0.00107427
0.00107535
0.00107488
0.0010737
0.00107296
0.00107294
0.00107338
0.00107392
0.00107458
0.001075
0.00107575
0.00107598
0.00107664
0.00107697
0.00107735
0.00107758
0.0010785
0.00107781
0.00107966
0.00107845
0.00108017
0.00108017
0.00108044
0.00108091
0.00108159
0.00107835
0.00107614
0.00106182
0.00106019
0.0010648
0.00106898
0.0010694
0.00106933
0.00106822
0.00106714
0.00106746
0.0010682
0.00106837
0.0010679
0.00106714
0.00106638
0.00106587
0.00106572
0.00106614
0.00106673
0.00106786
0.00106863
0.00106958
0.00107057
0.00107072
0.00107201
0.00107207
0.0010727
0.0010739
0.00107301
0.00107578
0.0010739
0.00107761
0.00107437
0.00107963
0.0010588
0.00105795
0.00104605
0.0010446
0.00104578
0.0010459
0.00104173
0.00104077
0.00103849
0.00103692
0.00103795
0.00103895
0.00103855
0.0010376
0.00103711
0.00103727
0.00103783
0.00103845
0.00103919
0.00103969
0.00104056
0.00104079
0.00104175
0.00104169
0.00104306
0.00104198
0.00104506
0.00104216
0.00104641
0.00104354
0.0010472
0.00104491
0.00104888
0.00104535
0.00105035
0.00103811
0.00103746
0.00102567
0.00102444
0.00102632
0.00102694
0.00102382
0.00102334
0.00102202
0.00102133
0.00102276
0.00102407
0.00102402
0.00102328
0.00102276
0.00102274
0.0010231
0.00102361
0.00102434
0.00102491
0.0010259
0.00102626
0.00102747
0.00102738
0.00102925
0.00102764
0.00103177
0.0010277
0.00103339
0.00102925
0.00103417
0.00103078
0.00103607
0.00103158
0.00103749
0.00101483
0.00101625
0.00100666
0.00100446
0.00100236
0.000998435
0.000991976
0.000990152
0.00098819
0.000987614
0.000989193
0.000990321
0.000990105
0.000989569
0.000989638
0.000990344
0.000991297
0.000992124
0.000992865
0.000993273
0.00099395
0.000994068
0.000994826
0.000994932
0.000995757
0.000995646
0.000997249
0.00099627
0.000998699
0.000997124
0.00100057
0.000997786
0.00100234
0.000998735
0.00100357
0.00099033
0.000991847
0.000982217
0.000980079
0.000978454
0.00097547
0.000970003
0.00096963
0.000968629
0.000968774
0.0009711
0.000972701
0.000972608
0.000971981
0.000971841
0.000972293
0.000973043
0.0009738
0.000974614
0.000975205
0.000976099
0.000976452
0.000977386
0.000977704
0.000978545
0.00097876
0.000980037
0.000979739
0.000981386
0.000980759