/*--------------------------------*- C++ -*----------------------------------*\
  =========                 |
  \\      /  F ield         | OpenFOAM: The Open Source CFD Toolbox
   \\    /   O peration     | Website:  https://openfoam.org
    \\  /    A nd           | Version:  6
     \\/     M anipulation  |
\*---------------------------------------------------------------------------*/
FoamFile
{
    version     2.0;
    format      ascii;
    class       surfaceScalarField;
    location    "1";
    object      phi;
}
// * * * * * * * * * * * * * * * * * * * * * * * * * * * * * * * * * * * * * //

dimensions      [0 3 -1 0 0 0 0];

internalField   nonuniform List<scalar> 
185055
(
1.07497e-06
6.12771e-09
-3.28049e-07
-5.68329e-09
1.11572e-06
1.56155e-08
-4.22232e-08
-1.41449e-08
1.10593e-06
2.23317e-08
7.80523e-09
-2.03436e-08
1.09741e-06
2.77748e-08
6.40242e-09
-2.56547e-08
1.09275e-06
2.92221e-08
2.92591e-09
-2.74909e-08
1.09004e-06
2.63342e-08
1.69349e-09
-2.53217e-08
1.08892e-06
2.14885e-08
8.08231e-10
-2.11762e-08
1.0887e-06
1.70731e-08
3.68273e-10
-1.72134e-08
1.08881e-06
1.40997e-08
2.07963e-10
-1.44235e-08
1.08952e-06
1.25022e-08
-3.35121e-10
-1.28715e-08
1.08987e-06
1.1862e-08
-2.37139e-12
-1.22102e-08
1.0893e-06
1.18163e-08
8.82838e-10
-1.21345e-08
1.08865e-06
1.21411e-08
9.68567e-10
-1.24546e-08
1.08864e-06
1.27463e-08
3.33691e-10
-1.30738e-08
1.08927e-06
1.35985e-08
-2.73668e-10
-1.39501e-08
1.09018e-06
1.46525e-08
-5.30002e-10
-1.50368e-08
1.09111e-06
1.58462e-08
-5.09826e-10
-1.62695e-08
1.09197e-06
1.71272e-08
-3.82695e-10
-1.75969e-08
1.09274e-06
1.84576e-08
-2.45338e-10
-1.89843e-08
1.09349e-06
1.98229e-08
-1.52028e-10
-2.04245e-08
1.09426e-06
2.1207e-08
-7.92487e-11
-2.19005e-08
1.09513e-06
2.26139e-08
-6.1493e-11
-2.3417e-08
1.09611e-06
2.40168e-08
-5.23442e-11
-2.49412e-08
1.09722e-06
2.54317e-08
-5.17405e-11
-2.64916e-08
1.09851e-06
2.68035e-08
-8.89843e-11
-2.80053e-08
1.09997e-06
2.8164e-08
-9.74183e-11
-2.9525e-08
1.10162e-06
2.94491e-08
-1.29649e-10
-3.09713e-08
1.10348e-06
3.06787e-08
-1.5298e-10
-3.23844e-08
1.10556e-06
3.1813e-08
-2.01925e-10
-3.36935e-08
1.10789e-06
3.28645e-08
-2.40161e-10
-3.49552e-08
1.11051e-06
3.37482e-08
-3.49515e-10
-3.60206e-08
1.11341e-06
3.46215e-08
-4.10125e-10
-3.71112e-08
1.11661e-06
3.50015e-08
-5.15467e-10
-3.76819e-08
1.11996e-06
3.58658e-08
-5.34076e-10
-3.86837e-08
3.50331e-08
-9.78816e-10
1.12398e-06
-3.80753e-08
1.06366e-06
7.25399e-09
-3.17691e-07
1.10425e-06
1.69324e-08
-4.19011e-08
1.09664e-06
2.31519e-08
6.78628e-09
1.09088e-06
2.81361e-08
5.40099e-09
1.08858e-06
2.93478e-08
2.17369e-09
1.08737e-06
2.63374e-08
1.20545e-09
1.08683e-06
2.13828e-08
6.48733e-10
1.08675e-06
1.68515e-08
2.97222e-10
1.08694e-06
1.37875e-08
1.19643e-10
1.08746e-06
1.21622e-08
-1.79695e-10
1.08774e-06
1.15481e-08
4.05366e-11
1.08743e-06
1.15568e-08
5.68468e-10
1.087e-06
1.19285e-08
6.40256e-10
1.08695e-06
1.25338e-08
2.65142e-10
1.08737e-06
1.33219e-08
-1.45545e-10
1.08815e-06
1.42603e-08
-3.86401e-10
1.08915e-06
1.53182e-08
-4.69617e-10
1.09027e-06
1.64728e-08
-4.708e-10
1.09146e-06
1.77065e-08
-4.32874e-10
1.09268e-06
1.89995e-08
-3.97379e-10
1.0939e-06
2.03297e-08
-3.48392e-10
1.09518e-06
2.16718e-08
-3.36996e-10
1.09651e-06
2.30104e-08
-3.23666e-10
1.09796e-06
2.43231e-08
-3.38535e-10
1.0995e-06
2.56017e-08
-3.42456e-10
1.10128e-06
2.6827e-08
-4.42176e-10
1.10309e-06
2.79887e-08
-3.52676e-10
1.10527e-06
2.90705e-08
-5.63617e-10
1.10746e-06
3.00647e-08
-4.49251e-10
1.11003e-06
3.09527e-08
-6.5206e-10
1.1127e-06
3.17351e-08
-6.60933e-10
1.11578e-06
3.24187e-08
-8.75603e-10
1.11858e-06
3.29873e-08
-7.83364e-10
1.12184e-06
3.35208e-08
-9.15282e-10
3.42254e-08
-3.34077e-09
1.12599e-06
1.0514e-06
8.52784e-09
-3.11638e-07
1.08967e-06
1.97519e-08
-4.1087e-08
1.07815e-06
2.71152e-08
7.55379e-09
1.06707e-06
3.21921e-08
7.02768e-09
1.06019e-06
3.22232e-08
4.00449e-09
1.05647e-06
2.75749e-08
2.47738e-09
1.05529e-06
2.13823e-08
1.18619e-09
1.05549e-06
1.62718e-08
3.80016e-10
1.05616e-06
1.3074e-08
3.83079e-11
1.05713e-06
1.14875e-08
-2.99258e-10
1.05785e-06
1.09021e-08
-6.47745e-11
1.05812e-06
1.08747e-08
4.07379e-10
1.05849e-06
1.1184e-08
3.77867e-10
1.0593e-06
1.17611e-08
-4.43872e-11
1.06044e-06
1.2586e-08
-4.0253e-10
1.0616e-06
1.36059e-08
-5.00546e-10
1.06258e-06
1.47364e-08
-4.05076e-10
1.06341e-06
1.59059e-08
-2.57311e-10
1.06417e-06
1.70806e-08
-1.35751e-10
1.065e-06
1.82538e-08
-8.22615e-11
1.06595e-06
1.94331e-08
-5.55676e-11
1.06709e-06
2.06118e-08
-8.15406e-11
1.06841e-06
2.17934e-08
-9.97759e-11
1.06991e-06
2.29474e-08
-1.25199e-10
1.07159e-06
2.40781e-08
-1.57558e-10
1.07348e-06
2.51481e-08
-2.09524e-10
1.07548e-06
2.61585e-08
-1.69033e-10
1.07777e-06
2.70853e-08
-3.04256e-10
1.08013e-06
2.79212e-08
-2.15601e-10
1.08282e-06
2.86533e-08
-3.9536e-10
1.08562e-06
2.92771e-08
-3.45022e-10
1.08877e-06
2.97852e-08
-5.12115e-10
1.09202e-06
3.01968e-08
-4.60718e-10
1.09572e-06
3.04119e-08
-5.89552e-10
3.09284e-08
-1.04891e-09
1.10007e-06
1.03697e-06
9.63716e-09
-3.10332e-07
1.07443e-06
2.20772e-08
-3.97853e-08
1.06467e-06
2.9433e-08
7.44521e-09
1.0566e-06
3.41963e-08
6.06338e-09
1.05249e-06
3.35144e-08
2.81618e-09
1.05057e-06
2.79882e-08
1.50834e-09
1.0504e-06
2.10681e-08
4.81405e-10
1.0511e-06
1.55477e-08
2.75251e-11
1.05205e-06
1.22386e-08
-1.12755e-10
1.05344e-06
1.06934e-08
-5.99845e-10
1.05435e-06
1.02106e-08
-2.13927e-10
1.05436e-06
1.02833e-08
5.81054e-10
1.05427e-06
1.06563e-08
6.19498e-10
1.05469e-06
1.12538e-08
8.00876e-11
1.05562e-06
1.20534e-08
-3.94904e-10
1.05679e-06
1.301e-08
-5.78489e-10
1.05803e-06
1.40617e-08
-5.58931e-10
1.05925e-06
1.51568e-08
-4.75213e-10
1.06045e-06
1.62665e-08
-3.87288e-10
1.06166e-06
1.73781e-08
-3.34673e-10
1.0629e-06
1.84888e-08
-2.86825e-10
1.06421e-06
1.95901e-08
-2.89271e-10
1.06561e-06
2.06785e-08
-2.89934e-10
1.06712e-06
2.17339e-08
-2.98254e-10
1.0688e-06
2.27497e-08
-3.45385e-10
1.0706e-06
2.3705e-08
-3.61727e-10
1.07255e-06
2.45874e-08
-3.78393e-10
1.0747e-06
2.53887e-08
-4.54615e-10
1.07697e-06
2.60837e-08
-4.34972e-10
1.07951e-06
2.66859e-08
-5.65743e-10
1.08225e-06
2.71337e-08
-6.0077e-10
1.0852e-06
2.7507e-08
-6.69746e-10
1.08863e-06
2.75784e-08
-8.13653e-10
1.09209e-06
2.77276e-08
-7.74182e-10
2.70499e-08
-1.07091e-09
1.09704e-06
1.02261e-06
1.18148e-08
-2.97042e-07
1.06025e-06
2.44391e-08
-4.00059e-08
1.05331e-06
3.07519e-08
5.62942e-09
1.04835e-06
3.43663e-08
4.78733e-09
1.04683e-06
3.27899e-08
2.2459e-09
1.04668e-06
2.67712e-08
1.36126e-09
1.0474e-06
1.97167e-08
6.33501e-10
1.04856e-06
1.42852e-08
1.05355e-10
1.04978e-06
1.11569e-08
-1.43458e-10
1.05102e-06
9.81551e-09
-3.6282e-10
1.05188e-06
9.51466e-09
-1.55739e-10
1.05214e-06
9.75372e-09
2.68522e-10
1.05216e-06
1.02498e-08
3.81767e-10
1.05237e-06
1.08675e-08
1.7417e-10
1.05297e-06
1.15641e-08
-1.08826e-10
1.05397e-06
1.23329e-08
-3.25291e-10
1.05531e-06
1.31757e-08
-4.45092e-10
1.05685e-06
1.4094e-08
-4.8403e-10
1.05849e-06
1.50798e-08
-4.5533e-10
1.06017e-06
1.61137e-08
-4.0769e-10
1.06182e-06
1.71653e-08
-3.34022e-10
1.0635e-06
1.82134e-08
-3.03274e-10
1.06523e-06
1.92282e-08
-2.74737e-10
1.06701e-06
2.02082e-08
-2.55964e-10
1.06894e-06
2.11221e-08
-2.99558e-10
1.07095e-06
2.19797e-08
-2.8222e-10
1.0731e-06
2.27541e-08
-3.19195e-10
1.0754e-06
2.34426e-08
-3.58888e-10
1.07778e-06
2.40418e-08
-3.32032e-10
1.0804e-06
2.45403e-08
-4.81748e-10
1.08301e-06
2.49293e-08
-3.99517e-10
1.08587e-06
2.52467e-08
-5.99321e-10
1.08848e-06
2.54173e-08
-4.56285e-10
1.09114e-06
2.56357e-08
-5.62112e-10
2.56602e-08
-2.83799e-09
1.09537e-06
1.00478e-06
1.41549e-08
-2.93496e-07
1.0391e-06
2.80106e-08
-3.78881e-08
1.02827e-06
3.40979e-08
7.4784e-09
1.01923e-06
3.68165e-08
6.5961e-09
1.01457e-06
3.38243e-08
3.62238e-09
1.0127e-06
2.65455e-08
2.09186e-09
1.01295e-06
1.87811e-08
6.87449e-10
1.01415e-06
1.31651e-08
-7.57891e-11
1.01555e-06
1.01285e-08
-3.78196e-10
1.01726e-06
8.92998e-09
-8.22954e-10
1.01844e-06
8.73576e-09
-4.04191e-10
1.01886e-06
9.03504e-09
3.06632e-10
1.01921e-06
9.55891e-09
3.40529e-10
1.01998e-06
1.01735e-08
-7.5143e-11
1.02112e-06
1.08264e-08
-4.08847e-10
1.02245e-06
1.15163e-08
-5.10906e-10
1.02383e-06
1.22681e-08
-4.72898e-10
1.02522e-06
1.31011e-08
-3.98201e-10
1.02661e-06
1.40088e-08
-3.21454e-10
1.02804e-06
1.49617e-08
-2.72482e-10
1.02951e-06
1.5924e-08
-2.24878e-10
1.03108e-06
1.6869e-08
-2.2541e-10
1.03275e-06
1.77762e-08
-2.18165e-10
1.03455e-06
1.86372e-08
-2.32865e-10
1.03648e-06
1.9438e-08
-2.49618e-10
1.03859e-06
2.01739e-08
-3.02164e-10
1.04075e-06
2.08335e-08
-2.40879e-10
1.04317e-06
2.14052e-08
-3.84789e-10
1.04563e-06
2.18892e-08
-3.03883e-10
1.04833e-06
2.22679e-08
-4.26694e-10
1.05118e-06
2.25342e-08
-4.59249e-10
1.0543e-06
2.26977e-08
-5.6671e-10
1.0576e-06
2.26874e-08
-5.7244e-10
1.06135e-06
2.26191e-08
-7.26146e-10
2.22593e-08
-1.7429e-09
1.06649e-06
9.86671e-07
1.72937e-08
-2.84139e-07
1.02103e-06
3.18006e-08
-3.81462e-08
1.01236e-06
3.69439e-08
5.82074e-09
1.00557e-06
3.81023e-08
5.50498e-09
1.00299e-06
3.33187e-08
3.08144e-09
1.00299e-06
2.47982e-08
1.74721e-09
1.00471e-06
1.66107e-08
4.5048e-10
1.00696e-06
1.11712e-08
-2.52402e-10
1.00903e-06
8.54162e-09
-4.82652e-10
1.01099e-06
7.72405e-09
-7.59265e-10
1.01225e-06
7.79722e-09
-3.13155e-10
1.01269e-06
8.25623e-09
3.37926e-10
1.01303e-06
8.85403e-09
3.65011e-10
1.01376e-06
9.47622e-09
-3.45981e-11
1.01489e-06
1.00839e-08
-3.87549e-10
1.01625e-06
1.06883e-08
-5.35443e-10
1.01773e-06
1.13312e-08
-5.36096e-10
1.01925e-06
1.20492e-08
-4.77716e-10
1.02081e-06
1.28474e-08
-3.98617e-10
1.02241e-06
1.36991e-08
-3.36575e-10
1.02404e-06
1.45689e-08
-2.71696e-10
1.02574e-06
1.54222e-08
-2.54993e-10
1.0275e-06
1.62444e-08
-2.29523e-10
1.02937e-06
1.70104e-08
-2.36204e-10
1.03131e-06
1.77277e-08
-2.32073e-10
1.03342e-06
1.83659e-08
-2.98272e-10
1.03551e-06
1.89398e-08
-1.97879e-10
1.03786e-06
1.94259e-08
-3.7794e-10
1.04017e-06
1.98293e-08
-2.47201e-10
1.04267e-06
2.01481e-08
-3.81458e-10
1.0452e-06
2.03793e-08
-3.70281e-10
1.04782e-06
2.05349e-08
-4.58433e-10
1.05022e-06
2.06277e-08
-3.44032e-10
1.05261e-06
2.06573e-08
-4.28853e-10
2.07942e-08
-2.98202e-09
1.05706e-06
9.64861e-07
2.17868e-08
-2.74434e-07
9.95232e-07
3.71595e-08
-3.57303e-08
9.82693e-07
4.1722e-08
7.76141e-09
9.72009e-07
4.12373e-08
7.54922e-09
9.66655e-07
3.41439e-08
4.52795e-09
9.6526e-07
2.38405e-08
2.35354e-09
9.66548e-07
1.48831e-08
4.3918e-10
9.68778e-07
9.4681e-09
-5.26528e-10
9.70986e-07
7.16996e-09
-8.36571e-10
9.73168e-07
6.64674e-09
-1.10421e-09
9.74672e-07
6.8774e-09
-5.84809e-10
9.7549e-07
7.3917e-09
4.621e-11
9.76304e-07
7.99779e-09
4.25062e-11
9.77458e-07
8.60714e-09
-2.84837e-10
9.78844e-07
9.18519e-09
-4.86961e-10
9.80275e-07
9.74743e-09
-4.90284e-10
9.81673e-07
1.03412e-08
-4.08054e-10
9.83045e-07
1.10026e-08
-3.25149e-10
9.84419e-07
1.17304e-08
-2.57579e-10
9.85847e-07
1.24944e-08
-2.22785e-10
9.87344e-07
1.32612e-08
-1.89292e-10
9.88965e-07
1.40033e-08
-2.02093e-10
9.90698e-07
1.47105e-08
-1.99025e-10
9.92558e-07
1.53659e-08
-2.15482e-10
9.94556e-07
1.59723e-08
-2.42157e-10
9.96673e-07
1.65102e-08
-2.61824e-10
9.98876e-07
1.69821e-08
-2.45224e-10
1.00125e-06
1.73761e-08
-3.24936e-10
1.00368e-06
1.76873e-08
-2.884e-10
1.00631e-06
1.79151e-08
-3.95099e-10
1.00901e-06
1.80431e-08
-3.63053e-10
1.01202e-06
1.80864e-08
-5.59788e-10
1.01515e-06
1.79892e-08
-4.96172e-10
1.01862e-06
1.78222e-08
-6.3458e-10
1.74156e-08
-1.83044e-09
1.02383e-06
8.26233e-07
2.65857e-08
-2.34454e-07
8.52852e-07
4.18925e-08
-3.13515e-08
8.44093e-07
4.50617e-08
5.41937e-09
8.3738e-07
4.23657e-08
5.58427e-09
8.35285e-07
3.29242e-08
3.31465e-09
8.36286e-07
2.12743e-08
1.56588e-09
8.39069e-07
1.21199e-08
-2.05529e-11
8.42046e-07
7.18663e-09
-6.94896e-10
8.4451e-07
5.51072e-09
-8.05414e-10
8.46658e-07
5.4552e-09
-9.56428e-10
8.47945e-07
5.95772e-09
-3.6679e-10
8.48454e-07
6.60191e-09
2.80148e-10
8.48962e-07
7.25506e-09
2.35068e-10
8.49867e-07
7.86982e-09
-1.67836e-10
8.51087e-07
8.42522e-09
-4.59893e-10
8.52439e-07
8.93752e-09
-5.41645e-10
8.53823e-07
9.45835e-09
-5.0179e-10
8.55217e-07
1.00328e-08
-4.24413e-10
8.56619e-07
1.06689e-08
-3.40461e-10
8.58051e-07
1.13423e-08
-2.79358e-10
8.59512e-07
1.20222e-08
-2.21638e-10
8.61042e-07
1.26832e-08
-2.10346e-10
8.6263e-07
1.33117e-08
-1.89357e-10
8.64293e-07
1.38957e-08
-1.92696e-10
8.66046e-07
1.44275e-08
-2.08065e-10
8.67873e-07
1.49013e-08
-2.17921e-10
8.69758e-07
1.53044e-08
-2.07307e-10
8.71753e-07
1.564e-08
-2.5951e-10
8.73781e-07
1.59016e-08
-2.42455e-10
8.75917e-07
1.60825e-08
-3.02792e-10
8.78018e-07
1.62018e-08
-2.59644e-10
8.80291e-07
1.62436e-08
-4.30023e-10
8.82243e-07
1.62512e-08
-2.14723e-10
8.84237e-07
1.61945e-08
-3.65708e-10
1.62986e-08
-2.65189e-09
8.88006e-07
7.74331e-07
3.35048e-08
-2.14123e-07
7.95831e-07
4.81712e-08
-2.77783e-08
7.83722e-07
4.99992e-08
7.17144e-09
7.73894e-07
4.47579e-08
7.43599e-09
7.69827e-07
3.25528e-08
4.4374e-09
7.69979e-07
1.93318e-08
1.79068e-09
7.7243e-07
9.91942e-09
-2.50521e-10
7.7526e-07
5.44439e-09
-1.08715e-09
7.77652e-07
4.30666e-09
-1.18844e-09
7.79686e-07
4.57601e-09
-1.1547e-09
7.81049e-07
5.17982e-09
-5.85548e-10
7.81954e-07
5.80617e-09
-1.08559e-10
7.82955e-07
6.41367e-09
-1.5965e-10
7.84211e-07
7.00157e-09
-3.87619e-10
7.85538e-07
7.55934e-09
-4.61812e-10
7.86773e-07
8.08746e-09
-3.84176e-10
7.87894e-07
8.61015e-09
-2.73645e-10
7.88972e-07
9.15194e-09
-1.96655e-10
7.90078e-07
9.71768e-09
-1.54446e-10
7.91271e-07
1.0295e-08
-1.46293e-10
7.92563e-07
1.08688e-08
-1.38057e-10
7.93982e-07
1.14253e-08
-1.61959e-10
7.955e-07
1.19568e-08
-1.62361e-10
7.97125e-07
1.24502e-08
-1.7946e-10
7.98847e-07
1.29021e-08
-1.96738e-10
8.00663e-07
1.32972e-08
-2.12435e-10
8.02515e-07
1.36347e-08
-1.82323e-10
8.04527e-07
1.39044e-08
-2.76237e-10
8.06516e-07
1.41075e-08
-1.94258e-10
8.08678e-07
1.42359e-08
-3.15683e-10
8.10873e-07
1.42908e-08
-2.83702e-10
8.13236e-07
1.42693e-08
-3.88863e-10
8.15743e-07
1.41494e-08
-4.05792e-10
8.18467e-07
1.39535e-08
-4.83001e-10
1.3568e-08
-1.59425e-09
8.22792e-07
7.23509e-07
4.11638e-08
-2.02566e-07
7.43951e-07
5.39121e-08
-2.61828e-08
7.34447e-07
5.33777e-08
6.1256e-09
7.27972e-07
4.48277e-08
6.40472e-09
7.27185e-07
2.98164e-08
3.5238e-09
7.29923e-07
1.55821e-08
1.01151e-09
7.34082e-07
6.58839e-09
-8.27668e-10
7.37762e-07
3.0769e-09
-1.31246e-09
7.4047e-07
2.77671e-09
-1.17878e-09
7.42637e-07
3.52897e-09
-1.1198e-09
7.43833e-07
4.34344e-09
-3.59232e-10
7.44354e-07
5.03274e-09
2.52235e-10
7.45015e-07
5.64692e-09
1.0558e-10
7.46085e-07
6.2354e-09
-3.03641e-10
7.47377e-07
6.79078e-09
-5.23862e-10
7.48694e-07
7.29688e-09
-5.26296e-10
7.49973e-07
7.76809e-09
-4.36978e-10
7.51233e-07
8.23265e-09
-3.40826e-10
7.52505e-07
8.7072e-09
-2.61195e-10
7.53822e-07
9.19227e-09
-2.14212e-10
7.55185e-07
9.68072e-09
-1.75058e-10
7.56625e-07
1.01618e-08
-1.75828e-10
7.58117e-07
1.06257e-08
-1.60797e-10
7.59679e-07
1.10577e-08
-1.69519e-10
7.61309e-07
1.14518e-08
-1.80463e-10
7.63005e-07
1.17929e-08
-1.91641e-10
7.6473e-07
1.20791e-08
-1.68531e-10
7.6657e-07
1.23048e-08
-2.41149e-10
7.684e-07
1.24671e-08
-1.88968e-10
7.70327e-07
1.25684e-08
-2.60366e-10
7.72247e-07
1.26149e-08
-2.4382e-10
7.74248e-07
1.25979e-08
-3.29685e-10
7.76021e-07
1.25835e-08
-2.07038e-10
7.77802e-07
1.24797e-08
-3.06606e-10
1.26354e-08
-2.48283e-09
7.81217e-07
6.73199e-07
5.22385e-08
-1.80751e-07
6.88227e-07
6.12324e-08
-2.23484e-08
6.75541e-07
5.79736e-08
8.08973e-09
6.66506e-07
4.55506e-08
8.31223e-09
6.64433e-07
2.75191e-08
4.37062e-09
6.66759e-07
1.23804e-08
8.75683e-10
6.70657e-07
3.96019e-09
-1.26964e-09
6.74099e-07
1.42588e-09
-1.79139e-09
6.76597e-07
1.82355e-09
-1.54507e-09
6.78481e-07
2.85607e-09
-1.21063e-09
6.79704e-07
3.66582e-09
-5.45485e-10
6.80653e-07
4.25093e-09
-1.6767e-10
6.81821e-07
4.77787e-09
-2.98373e-10
6.83206e-07
5.34543e-09
-4.95448e-10
6.84533e-07
5.94233e-09
-4.78566e-10
6.85643e-07
6.50688e-09
-3.19504e-10
6.86579e-07
7.00115e-09
-1.69486e-10
6.87477e-07
7.42934e-09
-9.43993e-11
6.88446e-07
7.81848e-09
-7.99721e-11
6.89545e-07
8.19601e-09
-1.03213e-10
6.90769e-07
8.57731e-09
-1.20733e-10
6.92125e-07
8.96219e-09
-1.56088e-10
6.93567e-07
9.34212e-09
-1.58066e-10
6.951e-07
9.69985e-09
-1.75339e-10
6.9671e-07
1.00282e-08
-1.87101e-10
6.98387e-07
1.03079e-08
-1.91379e-10
7.00096e-07
1.05425e-08
-1.72673e-10
7.01929e-07
1.0718e-08
-2.46039e-10
7.03726e-07
1.08401e-08
-1.70147e-10
7.0568e-07
1.09011e-08
-2.8664e-10
7.07624e-07
1.09065e-08
-2.35349e-10
7.09741e-07
1.0844e-08
-3.63719e-10
7.11934e-07
1.0725e-08
-3.34314e-10
7.1433e-07
1.05107e-08
-4.26613e-10
1.01789e-08
-1.48924e-09
7.18276e-07
6.22634e-07
6.45295e-08
-1.70624e-07
6.36626e-07
6.72026e-08
-1.9962e-08
6.27251e-07
5.98079e-08
7.5406e-09
6.22774e-07
4.28423e-08
7.18538e-09
6.25033e-07
2.23369e-08
2.92348e-09
6.30414e-07
7.36626e-09
-3.67322e-10
6.36016e-07
3.95633e-10
-2.03725e-09
6.40098e-07
-6.69835e-10
-1.98603e-09
6.42736e-07
6.47059e-10
-1.4614e-09
6.44678e-07
2.05481e-09
-1.14058e-09
6.45673e-07
2.95917e-09
-2.88392e-10
6.46169e-07
3.55156e-09
2.02785e-10
6.46904e-07
4.07503e-09
-3.23383e-11
6.48e-07
4.64065e-09
-3.90928e-10
6.49229e-07
5.22223e-09
-5.08986e-10
6.50433e-07
5.74604e-09
-4.43227e-10
6.51596e-07
6.17424e-09
-3.357e-10
6.52758e-07
6.5202e-09
-2.52528e-10
6.53952e-07
6.82331e-09
-1.99361e-10
6.55203e-07
7.12197e-09
-1.76884e-10
6.56502e-07
7.43564e-09
-1.57542e-10
6.57868e-07
7.76309e-09
-1.66866e-10
6.59273e-07
8.09183e-09
-1.54125e-10
6.60734e-07
8.40232e-09
-1.64179e-10
6.62249e-07
8.68492e-09
-1.71652e-10
6.63809e-07
8.9223e-09
-1.74241e-10
6.65395e-07
9.11667e-09
-1.60351e-10
6.67076e-07
9.25847e-09
-2.20806e-10
6.68734e-07
9.34884e-09
-1.66913e-10
6.70485e-07
9.39092e-09
-2.41233e-10
6.72228e-07
9.38804e-09
-2.24552e-10
6.74033e-07
9.33166e-09
-2.92872e-10
6.75658e-07
9.30216e-09
-2.01695e-10
6.77266e-07
9.16958e-09
-2.67337e-10
9.35812e-09
-2.29234e-09
6.8038e-07
5.72053e-07
8.13401e-08
-1.49239e-07
5.80468e-07
7.4093e-08
-1.5306e-08
5.68583e-07
6.17277e-08
9.96546e-09
5.6267e-07
3.97624e-08
8.99287e-09
5.64546e-07
1.72e-08
3.26098e-09
5.69818e-07
3.01222e-09
-9.17404e-10
5.75058e-07
-2.18555e-09
-2.65895e-09
5.78678e-07
-1.83992e-09
-2.44985e-09
5.80917e-07
1.36392e-10
-1.72879e-09
5.82491e-07
1.63279e-09
-1.15174e-09
5.83466e-07
2.37879e-09
-3.94757e-10
5.84334e-07
2.80999e-09
-1.26043e-10
5.85527e-07
3.25913e-09
-3.77375e-10
5.86903e-07
3.83441e-09
-5.6951e-10
5.88126e-07
4.46623e-09
-4.67925e-10
5.89082e-07
5.0269e-09
-2.36857e-10
5.89882e-07
5.44326e-09
-6.83825e-11
5.90693e-07
5.7269e-09
-1.75351e-11
5.9162e-07
5.93854e-09
-4.27088e-11
5.92697e-07
6.14184e-09
-9.63404e-11
5.93894e-07
6.3696e-09
-1.31097e-10
5.95201e-07
6.62337e-09
-1.67571e-10
5.9657e-07
6.88756e-09
-1.64477e-10
5.98011e-07
7.13987e-09
-1.78335e-10
5.99508e-07
7.3694e-09
-1.81796e-10
6.01049e-07
7.55876e-09
-1.77737e-10
6.02623e-07
7.71228e-09
-1.69152e-10
6.0429e-07
7.81648e-09
-2.2485e-10
6.05914e-07
7.8775e-09
-1.53375e-10
6.07684e-07
7.89046e-09
-2.69112e-10
6.09425e-07
7.86023e-09
-2.12994e-10
6.11323e-07
7.77096e-09
-3.37483e-10
6.13264e-07
7.6539e-09
-2.93036e-10
6.1537e-07
7.43505e-09
-3.71663e-10
7.13374e-09
-1.32523e-09
6.1892e-07
5.20326e-07
1.00426e-07
-1.36625e-07
5.27963e-07
7.81302e-08
-1.16745e-08
5.21045e-07
5.90839e-08
9.56169e-09
5.2148e-07
3.21469e-08
7.18062e-09
5.28742e-07
9.09754e-09
8.40722e-10
5.37205e-07
-2.75123e-09
-2.69993e-09
5.43807e-07
-5.31239e-09
-3.47495e-09
5.47731e-07
-3.23879e-09
-2.52463e-09
5.49923e-07
-5.21184e-10
-1.53507e-09
5.51469e-07
1.08521e-09
-9.98535e-10
5.52259e-07
1.78591e-09
-1.96693e-10
5.52707e-07
2.25104e-09
1.10751e-10
5.5335e-07
2.75849e-09
-1.42644e-10
5.54244e-07
3.30867e-09
-3.6824e-10
5.55265e-07
3.82336e-09
-3.78103e-10
5.56353e-07
4.24002e-09
-3.00808e-10
5.57495e-07
4.53959e-09
-2.37771e-10
5.58678e-07
4.74625e-09
-2.02642e-10
5.5989e-07
4.9081e-09
-1.81765e-10
5.6113e-07
5.07615e-09
-1.74528e-10
5.6239e-07
5.2725e-09
-1.62508e-10
5.63689e-07
5.49474e-09
-1.70761e-10
5.65007e-07
5.72473e-09
-1.5507e-10
5.6637e-07
5.94117e-09
-1.64322e-10
5.67772e-07
6.13335e-09
-1.65979e-10
5.69203e-07
6.28961e-09
-1.62026e-10
5.70664e-07
6.41009e-09
-1.58412e-10
5.72195e-07
6.48837e-09
-2.02873e-10
5.73699e-07
6.52529e-09
-1.51919e-10
5.75298e-07
6.52283e-09
-2.31533e-10
5.76885e-07
6.48546e-09
-2.11713e-10
5.78537e-07
6.39854e-09
-2.80026e-10
5.80043e-07
6.346e-09
-1.9746e-10
5.8154e-07
6.17947e-09
-2.41423e-10
6.32528e-09
-2.06037e-09
5.84408e-07
4.66565e-07
1.23989e-07
-1.18002e-07
4.6909e-07
8.08275e-08
-5.22176e-09
4.61325e-07
5.42104e-08
1.2638e-08
4.62019e-07
2.29564e-08
8.49666e-09
4.69723e-07
1.02367e-09
3.69956e-10
4.78001e-07
-7.38915e-09
-3.64061e-09
4.83855e-07
-7.04942e-09
-4.11622e-09
4.86971e-07
-3.55082e-09
-2.80468e-09
4.88617e-07
-5.21718e-10
-1.64568e-09
4.89801e-07
8.4701e-10
-9.45365e-10
4.90482e-07
1.23715e-09
-1.32061e-10
4.91203e-07
1.56397e-09
-3.37618e-11
4.92304e-07
2.09796e-09
-4.41156e-10
4.93511e-07
2.71009e-09
-6.0763e-10
4.94516e-07
3.22267e-09
-4.05143e-10
4.95319e-07
3.56508e-09
-1.28028e-10
4.96084e-07
3.7626e-09
1.18687e-11
4.96945e-07
3.87841e-09
7.04386e-12
4.97941e-07
3.97151e-09
-5.96339e-11
4.99056e-07
4.08903e-09
-1.26913e-10
5.00246e-07
4.2403e-09
-1.58411e-10
5.01504e-07
4.41897e-09
-1.81883e-10
5.02793e-07
4.60269e-09
-1.67523e-10
5.04138e-07
4.7744e-09
-1.77439e-10
5.05521e-07
4.92145e-09
-1.71136e-10
5.06931e-07
5.04367e-09
-1.64213e-10
5.0838e-07
5.12841e-09
-1.674e-10
5.09885e-07
5.1814e-09
-1.97998e-10
5.11357e-07
5.19818e-09
-1.44762e-10
5.12959e-07
5.17308e-09
-2.52187e-10
5.14523e-07
5.12074e-09
-1.99437e-10
5.16235e-07
5.01983e-09
-3.33469e-10
5.17934e-07
4.87778e-09
-2.30444e-10
5.19751e-07
4.68471e-09
-3.22858e-10
4.17209e-09
-9.23415e-10
5.22828e-07
4.11712e-07
1.51534e-07
-9.66894e-08
4.14622e-07
7.80251e-08
-1.08203e-10
4.15147e-07
4.27489e-08
1.09374e-08
4.24349e-07
9.08699e-09
4.66737e-09
4.37838e-07
-8.97093e-09
-3.49455e-09
4.48637e-07
-1.23215e-08
-5.86729e-09
4.55027e-07
-8.65032e-09
-4.78881e-09
4.58005e-07
-3.82734e-09
-2.70165e-09
4.59413e-07
-6.31195e-10
-1.29868e-09
4.60538e-07
4.11696e-10
-6.8974e-10
4.61267e-07
6.73759e-10
-1.64699e-10
4.61604e-07
1.27336e-09
-4.6762e-11
4.61789e-07
2.04337e-09
-1.30403e-10
4.62112e-07
2.51694e-09
-1.30063e-10
4.6283e-07
2.62397e-09
-1.19413e-10
4.63978e-07
2.58836e-09
-1.71095e-10
4.65368e-07
2.5992e-09
-2.26785e-10
4.66783e-07
2.69801e-09
-2.34552e-10
4.68116e-07
2.84513e-09
-2.06581e-10
4.69369e-07
3.01699e-09
-1.80438e-10
4.70578e-07
3.18851e-09
-1.57458e-10
4.71795e-07
3.36187e-09
-1.59808e-10
4.73019e-07
3.51893e-09
-1.40109e-10
4.74284e-07
3.65963e-09
-1.50339e-10
4.75579e-07
3.77003e-09
-1.44141e-10
4.76889e-07
3.8711e-09
-1.37208e-10
4.78244e-07
3.91949e-09
-1.46456e-10
4.79627e-07
3.9584e-09
-1.59526e-10
4.81004e-07
3.96044e-09
-1.39291e-10
4.8246e-07
3.91377e-09
-1.96789e-10
4.83916e-07
3.86346e-09
-1.9828e-10
4.85466e-07
3.76683e-09
-2.97218e-10
4.86826e-07
3.67059e-09
-1.53273e-10
4.88351e-07
3.41729e-09
-2.56909e-10
3.20094e-09
-1.88612e-09
4.91208e-07
3.49639e-07
1.77589e-07
-8.16352e-08
3.50371e-07
6.67605e-08
1.05323e-08
3.53597e-07
2.45014e-08
1.50213e-08
3.6358e-07
-5.87205e-09
4.97681e-09
3.75656e-07
-1.56327e-08
-5.41471e-09
3.84131e-07
-1.3152e-08
-7.64455e-09
3.88629e-07
-7.53959e-09
-5.609e-09
3.9046e-07
-2.8705e-09
-2.78696e-09
3.91355e-07
-2.70578e-10
-1.25578e-09
3.92141e-07
1.63457e-10
-5.3829e-10
3.92594e-07
6.02469e-11
1.60713e-10
3.93305e-07
7.05956e-10
-1.4372e-10
3.9433e-07
1.72107e-09
-7.02893e-10
3.95215e-07
2.26323e-09
-6.3109e-10
3.95843e-07
2.15885e-09
-1.62432e-10
3.96455e-07
1.81268e-09
1.63159e-10
3.9726e-07
1.60552e-09
1.88936e-10
3.9827e-07
1.62659e-09
6.15288e-11
3.99399e-07
1.77753e-09
-6.19474e-11
4.00572e-07
1.96981e-09
-1.25836e-10
4.01758e-07
2.13864e-09
-1.35511e-10
4.02964e-07
2.29049e-09
-1.34612e-10
4.04184e-07
2.41115e-09
-1.12279e-10
4.0545e-07
2.50851e-09
-1.14751e-10
4.0674e-07
2.58734e-09
-1.07755e-10
4.08053e-07
2.65573e-09
-9.73793e-11
4.09407e-07
2.67514e-09
-1.09724e-10
4.10781e-07
2.70575e-09
-1.20988e-10
4.12118e-07
2.68498e-09
-6.19747e-11
4.13623e-07
2.62488e-09
-2.16202e-10
4.15013e-07
2.59173e-09
-1.17774e-10
4.1667e-07
2.45047e-09
-3.41045e-10
4.17867e-07
2.53506e-09
-6.15214e-11
4.19643e-07
1.88584e-09
-2.43992e-10
3.0672e-09
-2.5097e-09
4.22286e-07
2.80721e-07
2.02483e-07
-3.44997e-08
2.74831e-07
5.60445e-08
1.66058e-08
2.75196e-07
1.22761e-08
1.18608e-08
2.8202e-07
-1.41861e-08
1.49016e-09
2.92331e-07
-1.76256e-08
-8.31898e-09
2.99332e-07
-1.11977e-08
-8.95502e-09
3.02387e-07
-4.79144e-09
-5.80346e-09
3.03425e-07
-1.32211e-09
-2.58646e-09
3.03897e-07
2.69647e-11
-7.69467e-10
3.04115e-07
-8.60884e-11
3.221e-11
3.05089e-07
-9.85072e-10
7.07939e-11
3.07626e-07
-9.31383e-10
-8.99856e-10
3.10245e-07
4.28499e-10
-1.32559e-09
3.1132e-07
1.82546e-09
-6.3749e-10
3.10903e-07
2.30772e-09
2.67931e-10
3.10119e-07
1.97716e-09
6.19829e-10
3.09852e-07
1.4247e-09
4.47533e-10
3.10277e-07
1.07555e-09
1.26174e-10
3.11161e-07
9.94707e-10
-1.01079e-10
3.12246e-07
1.07249e-09
-1.87859e-10
3.13393e-07
1.18731e-09
-1.96098e-10
3.14575e-07
1.29184e-09
-1.83157e-10
3.1577e-07
1.3697e-09
-1.53588e-10
3.17016e-07
1.42554e-09
-1.62881e-10
3.18286e-07
1.47099e-09
-1.53991e-10
3.19569e-07
1.50434e-09
-1.31373e-10
3.20912e-07
1.51395e-09
-1.82048e-10
3.22228e-07
1.53417e-09
-1.43622e-10
3.2353e-07
1.49482e-09
-1.12515e-10
3.2496e-07
1.41818e-09
-2.23419e-10
3.26434e-07
1.35885e-09
-2.40548e-10
3.28057e-07
1.23395e-09
-4.06557e-10
3.29499e-07
1.29627e-09
-2.028e-10
3.30974e-07
7.04586e-10
-2.93787e-10
1.22415e-09
3.21788e-10
3.32495e-07
1.98167e-07
1.99309e-07
3.89888e-08
2.14507e-07
5.75202e-08
-1.78157e-08
2.38726e-07
4.61557e-09
-1.65585e-08
2.57072e-07
-2.32362e-08
-9.29612e-09
2.68792e-07
-2.22545e-08
-7.09089e-09
2.73636e-07
-1.10184e-08
-5.02338e-09
2.75153e-07
-2.3791e-09
-3.92904e-09
2.757e-07
7.42404e-10
-2.61129e-09
2.76201e-07
9.49062e-10
-1.42333e-09
2.76856e-07
-4.35415e-11
-6.9756e-10
2.77208e-07
-1.52554e-09
1.88517e-10
2.77193e-07
-1.28088e-09
3.64006e-10
2.77196e-07
5.95463e-10
-1.70013e-10
2.77543e-07
1.9717e-09
-4.92907e-10
2.78345e-07
1.93867e-09
-4.32444e-10
2.79483e-07
1.14835e-09
-3.09429e-10
2.80705e-07
4.552e-10
-2.52905e-10
2.81852e-07
1.82131e-10
-2.53318e-10
2.82912e-07
2.05392e-10
-2.70643e-10
2.83938e-07
3.17304e-10
-2.70786e-10
2.84973e-07
4.13e-10
-2.60696e-10
2.86044e-07
4.68178e-10
-2.47724e-10
2.87137e-07
5.05597e-10
-2.28229e-10
2.88276e-07
5.26877e-10
-2.40332e-10
2.89437e-07
5.4344e-10
-2.33649e-10
2.90605e-07
5.56607e-10
-2.20741e-10
2.91834e-07
5.59129e-10
-2.73684e-10
2.93029e-07
5.66591e-10
-2.28059e-10
2.94245e-07
5.28211e-10
-2.48458e-10
2.95508e-07
4.37858e-10
-2.8327e-10
2.96912e-07
3.11887e-10
-3.56934e-10
2.98347e-07
2.17906e-10
-4.18635e-10
2.99971e-07
-1.19877e-11
-3.16416e-10
3.01969e-07
-5.01105e-10
-7.91573e-10
-2.69304e-09
8.06982e-10
3.05079e-07
1.89702e-07
9.60679e-09
2.67715e-07
-2.04921e-08
3.30352e-07
-5.80217e-08
3.54544e-07
-4.74285e-08
3.61051e-07
-2.87611e-08
3.64054e-07
-1.40216e-08
3.6677e-07
-5.09508e-09
3.6827e-07
-7.57698e-10
3.69965e-07
-7.46282e-10
3.70309e-07
-3.875e-10
3.67253e-07
1.53072e-09
3.65088e-07
8.84013e-10
3.66392e-07
-7.08027e-10
3.69832e-07
-1.46912e-09
3.73192e-07
-1.42043e-09
3.75356e-07
-1.01639e-09
3.76478e-07
-6.66223e-10
3.77135e-07
-4.74806e-10
3.77729e-07
-3.8918e-10
3.78391e-07
-3.43966e-10
3.79123e-07
-3.19025e-10
3.79892e-07
-3.01329e-10
3.80709e-07
-3.11622e-10
3.81524e-07
-2.88301e-10
3.82415e-07
-3.46609e-10
3.83297e-07
-3.25406e-10
3.8414e-07
-2.84384e-10
3.85122e-07
-4.15731e-10
3.86064e-07
-4.13927e-10
3.8677e-07
-2.67596e-10
3.87157e-07
-7.47953e-11
3.87683e-07
-3.08551e-10
3.88046e-07
-3.75104e-10
3.88358e-07
-8.13388e-10
-2.85464e-09
3.8852e-07
2.19607e-06
6.85925e-09
-4.13479e-07
-6.34919e-09
2.22233e-06
2.15431e-08
-7.05651e-08
-1.94613e-08
2.21967e-06
3.50063e-08
7.10999e-09
-3.16486e-08
2.21147e-06
4.77595e-08
1.04742e-08
-4.36332e-08
2.20504e-06
5.43126e-08
5.47415e-09
-5.04314e-08
2.20106e-06
5.20774e-08
2.93094e-09
-4.93328e-08
2.19924e-06
4.41808e-08
1.26495e-09
-4.2819e-08
2.19887e-06
3.54588e-08
4.28982e-10
-3.51521e-08
2.19907e-06
2.88394e-08
2.45929e-10
-2.90799e-08
2.19975e-06
2.48516e-08
-5.59559e-10
-2.5301e-08
2.20044e-06
2.28727e-08
-2.06806e-10
-2.33582e-08
2.2005e-06
2.21735e-08
1.29304e-09
-2.26414e-08
2.2001e-06
2.22604e-08
1.83246e-09
-2.27243e-08
2.19991e-06
2.29049e-08
9.99408e-10
-2.33862e-08
2.20028e-06
2.40243e-08
-1.32178e-10
-2.45379e-08
2.20109e-06
2.5549e-08
-7.78669e-10
-2.61058e-08
2.20206e-06
2.7378e-08
-8.78829e-10
-2.79843e-08
2.20304e-06
2.94091e-08
-6.92511e-10
-3.00718e-08
2.20395e-06
3.15587e-08
-4.23771e-10
-3.22917e-08
2.20483e-06
3.37832e-08
-2.03942e-10
-3.4614e-08
2.20573e-06
3.605e-08
-1.71367e-11
-3.70101e-08
2.20671e-06
3.83598e-08
8.17346e-11
-3.94808e-08
2.20782e-06
4.06784e-08
1.43855e-10
-4.19836e-08
2.20907e-06
4.30228e-08
1.98831e-10
-4.45331e-08
2.21052e-06
4.53226e-08
1.9167e-10
-4.70517e-08
2.21218e-06
4.76055e-08
2.14458e-10
-4.95728e-08
2.21404e-06
4.97915e-08
2.23271e-10
-5.20098e-08
2.21614e-06
5.18923e-08
2.43421e-10
-5.43801e-08
2.21848e-06
5.38491e-08
2.19851e-10
-5.6618e-08
2.22109e-06
5.56837e-08
2.23466e-10
-5.87525e-08
2.22397e-06
5.72638e-08
1.48177e-10
-6.0642e-08
2.22714e-06
5.88018e-08
9.85109e-11
-6.24861e-08
2.23064e-06
5.96971e-08
2.04466e-11
-6.37309e-08
2.23427e-06
6.10624e-08
8.61269e-11
-6.5309e-08
6.06274e-08
-7.56068e-10
2.23867e-06
-6.5248e-08
2.18386e-06
8.21352e-09
-4.04238e-07
2.21012e-06
2.36366e-08
-7.02587e-08
2.2088e-06
3.65538e-08
6.56162e-09
2.20315e-06
4.86057e-08
1.02079e-08
2.19941e-06
5.48237e-08
5.39333e-09
2.19741e-06
5.24687e-08
2.81593e-09
2.19656e-06
4.44249e-08
1.25867e-09
2.19648e-06
3.54704e-08
3.62328e-10
2.19679e-06
2.86119e-08
3.85382e-11
2.1974e-06
2.44832e-08
-4.21038e-10
2.19798e-06
2.24824e-08
-1.52008e-10
2.19812e-06
2.18423e-08
7.65278e-10
2.1979e-06
2.20049e-08
1.11699e-09
2.19777e-06
2.26671e-08
6.31801e-10
2.19803e-06
2.36985e-08
-8.65535e-11
2.19872e-06
2.50297e-08
-5.55585e-10
2.19973e-06
2.66042e-08
-6.99293e-10
2.20094e-06
2.83791e-08
-6.50069e-10
2.20226e-06
3.03212e-08
-5.18092e-10