/*--------------------------------*- C++ -*----------------------------------*\
  =========                 |
  \\      /  F ield         | OpenFOAM: The Open Source CFD Toolbox
   \\    /   O peration     | Website:  https://openfoam.org
    \\  /    A nd           | Version:  6
     \\/     M anipulation  |
\*---------------------------------------------------------------------------*/
FoamFile
{
    version     2.0;
    format      ascii;
    class       volVectorField;
    location    "37";
    object      wallShearStress;
}
// * * * * * * * * * * * * * * * * * * * * * * * * * * * * * * * * * * * * * //

dimensions      [0 2 -2 0 0 0 0];

internalField   uniform (0 0 0);

boundaryField
{
    inlet
    {
        type            calculated;
        value           uniform (0 0 0);
    }
    outlet
    {
        type            calculated;
        value           uniform (0 0 0);
    }
    roughCylinder
    {
        type            calculated;
        value           nonuniform List<vector> 
5120
(
(-0.00025014 -0.000356381 -0.000183647)
(-0.000306608 -0.000460591 -4.20518e-05)
(-0.000340075 -0.000554268 -7.41538e-07)
(-0.000385699 -0.000644193 5.3936e-05)
(-0.0004426 -0.000722264 0.000117101)
(-0.000507234 -0.000784025 0.000180583)
(-0.000576139 -0.000826647 0.00023988)
(-0.00064467 -0.000850549 0.000292224)
(-0.000708754 -0.000858199 0.000335515)
(-0.000766301 -0.000854626 0.000369032)
(-0.000817546 -0.00084807 0.000394244)
(-0.000862786 -0.000844203 0.000413051)
(-0.000899044 -0.000843069 0.000424192)
(-0.000929611 -0.000847417 0.000428791)
(-0.000955788 -0.000856453 0.000427876)
(-0.000978912 -0.00086948 0.000422509)
(-0.0010004 -0.000885714 0.000413741)
(-0.0010215 -0.000904499 0.000402466)
(-0.00104314 -0.000925363 0.000389356)
(-0.00106598 -0.000948014 0.000374839)
(-0.00109038 -0.000972268 0.000359111)
(-0.00111644 -0.000997997 0.000342196)
(-0.00114414 -0.00102508 0.000323999)
(-0.0011733 -0.00105335 0.000304328)
(-0.00120368 -0.00108256 0.000282911)
(-0.00123493 -0.00111239 0.000259401)
(-0.00126661 -0.00114235 0.000233283)
(-0.00129817 -0.00117181 0.00020391)
(-0.00132861 -0.00119976 0.000170026)
(-0.0013567 -0.00122495 0.000130246)
(-0.00137914 -0.00124515 8.22969e-05)
(-0.00139219 -0.00125734 2.77607e-05)
(-0.000268563 -0.000344616 -0.000173429)
(-0.000328146 -0.000446089 -4.45196e-05)
(-0.0003642 -0.000538461 -6.50187e-06)
(-0.000411944 -0.000628105 4.47664e-05)
(-0.000470526 -0.000707201 0.000105293)
(-0.000536708 -0.000770768 0.000166988)
(-0.000607017 -0.00081558 0.000225139)
(-0.000677042 -0.000841921 0.000276856)
(-0.000743314 -0.000852634 0.000320154)
(-0.000804269 -0.000853326 0.00035472)
(-0.000859691 -0.000850849 0.000381928)
(-0.000908478 -0.000848564 0.000402582)
(-0.000947588 -0.000846163 0.000414818)
(-0.000979702 -0.000849408 0.00042)
(-0.00100741 -0.00085773 0.0004194)
(-0.00103197 -0.000870396 0.000414259)
(-0.00105487 -0.000886498 0.000405668)
(-0.00107739 -0.000905296 0.000394564)
(-0.0011005 -0.000926247 0.000381655)
(-0.00112485 -0.00094901 0.00036738)
(-0.00115081 -0.000973374 0.000351948)
(-0.0011785 -0.000999192 0.000335388)
(-0.00120786 -0.00102634 0.000317602)
(-0.00123872 -0.00105463 0.000298393)
(-0.0012708 -0.00108383 0.000277484)
(-0.00130377 -0.00111361 0.000254526)
(-0.00133712 -0.0011435 0.000228997)
(-0.0013703 -0.00117286 0.000200261)
(-0.00140226 -0.00120067 0.00016705)
(-0.00143173 -0.00122572 0.000128015)
(-0.00145522 -0.00124578 8.08954e-05)
(-0.00146892 -0.0012579 2.72696e-05)
(-0.000286968 -0.00032785 -0.000156054)
(-0.000349303 -0.000426313 -4.75117e-05)
(-0.000387728 -0.00051661 -1.29276e-05)
(-0.000437176 -0.000605289 3.47314e-05)
(-0.000497127 -0.000684855 9.23362e-05)
(-0.00056469 -0.000749959 0.000151991)
(-0.000636449 -0.000797089 0.000208905)
(-0.000708306 -0.000826493 0.000260147)
(-0.000777293 -0.000841184 0.000303883)
(-0.000841939 -0.000846468 0.00033987)
(-0.000901258 -0.000847625 0.000368869)
(-0.000953312 -0.000846854 0.000390809)
(-0.000995996 -0.000844497 0.000404348)
(-0.00102978 -0.000846199 0.000410053)
(-0.00105906 -0.000853639 0.000409771)
(-0.00108515 -0.000865762 0.000404901)
(-0.00110956 -0.000881574 0.000396539)
(-0.00113358 -0.000900223 0.000385671)
(-0.00115821 -0.0009211 0.000373015)
(-0.00118413 -0.000943806 0.000359042)
(-0.00121169 -0.000968108 0.000343969)
(-0.00124103 -0.000993841 0.000327826)
(-0.00127207 -0.00102086 0.00031051)
(-0.00130463 -0.00104899 0.000291825)
(-0.00133842 -0.00107798 0.000271485)
(-0.00137307 -0.00110751 0.000249138)
(-0.00140809 -0.00113711 0.00022426)
(-0.00144286 -0.00116616 0.000196227)
(-0.00147629 -0.00119363 0.000163756)
(-0.0015071 -0.00121837 0.000125544)
(-0.0015316 -0.00123815 7.93438e-05)
(-0.00154595 -0.0012501 2.67264e-05)
(-0.000303138 -0.000306962 -0.000134109)
(-0.000367838 -0.000401935 -5.05603e-05)
(-0.00040822 -0.000489432 -1.95947e-05)
(-0.000458799 -0.00057651 2.42587e-05)
(-0.000519693 -0.000656071 7.86559e-05)
(-0.000588435 -0.000722546 0.000136003)
(-0.000661739 -0.000772206 0.000191526)
(-0.000735777 -0.0008052 0.000242303)
(-0.00080781 -0.000824406 0.000286621)
(-0.000876151 -0.000834338 0.000324088)
(-0.00093919 -0.000838874 0.000354749)
(-0.000994696 -0.000839815 0.000377899)
(-0.00104106 -0.00083838 0.000392735)
(-0.00107744 -0.000838524 0.00039913)
(-0.0011084 -0.00084498 0.000399291)
(-0.00113617 -0.000856395 0.000394741)
(-0.00116217 -0.00087177 0.000386678)
(-0.00118776 -0.00089014 0.000376105)
(-0.00121397 -0.000910827 0.000363773)
(-0.00124148 -0.000933368 0.000350162)
(-0.00127066 -0.000957479 0.000335501)
(-0.00130162 -0.000982985 0.000319826)
(-0.00133431 -0.00100973 0.000303032)
(-0.00136852 -0.00103754 0.000284915)
(-0.00140394 -0.00106615 0.000265187)
(-0.0014402 -0.00109526 0.000243494)
(-0.00147678 -0.0011244 0.000219302)
(-0.00151305 -0.00115297 0.000192007)
(-0.00154785 -0.00117995 0.00016031)
(-0.00157992 -0.00120424 0.000122959)
(-0.00160536 -0.00122362 7.77226e-05)
(-0.0016203 -0.00123535 2.6158e-05)
(-0.000316443 -0.000282728 -0.000109937)
(-0.000383078 -0.000373646 -5.33513e-05)
(-0.000424902 -0.000457691 -2.61713e-05)
(-0.000476019 -0.00054254 1.37053e-05)
(-0.000537414 -0.000621576 6.46131e-05)
(-0.000607145 -0.000689201 0.000119329)
(-0.000682085 -0.000741509 0.000173224)
(-0.000758571 -0.000778371 0.000223443)
(-0.000833817 -0.000802188 0.000268296)
(-0.00090575 -0.000816501 0.000307104)
(-0.000972348 -0.00082416 0.000339275)
(-0.00103137 -0.000826879 0.000363679)
(-0.00108124 -0.000826545 0.000379617)
(-0.00112153 -0.000826299 0.000387172)
(-0.00115445 -0.000831211 0.000387904)
(-0.00118403 -0.000841721 0.000383785)
(-0.00121176 -0.000856475 0.000376117)
(-0.00123901 -0.000874423 0.000365925)
(-0.00126681 -0.000894756 0.000353988)
(-0.0012959 -0.000916964 0.000340805)
(-0.00132666 -0.000940734 0.000326616)
(-0.00135922 -0.000965862 0.000311465)
(-0.00139349 -0.000992173 0.000295244)
(-0.00142926 -0.00101948 0.000277743)
(-0.00146622 -0.00104755 0.000258668)
(-0.00150398 -0.00107606 0.000237663)
(-0.00154199 -0.00110457 0.000214189)
(-0.00157963 -0.00113248 0.000187662)
(-0.00161567 -0.0011588 0.000156763)
(-0.00164888 -0.00118247 0.0001203)
(-0.00167515 -0.00120133 7.60566e-05)
(-0.00169063 -0.00121275 2.55725e-05)
(-0.000326311 -0.000256022 -8.50901e-05)
(-0.000394402 -0.000342366 -5.57002e-05)
(-0.000437113 -0.000422388 -3.24331e-05)
(-0.000488165 -0.000504425 3.29362e-06)
(-0.000549607 -0.000582442 5.03997e-05)
(-0.000620117 -0.000650984 0.000102118)
(-0.000696723 -0.000705953 0.000154095)
(-0.000775799 -0.000746732 0.000203581)
(-0.000854339 -0.000774991 0.000248821)
(-0.000929859 -0.000793317 0.000288769)
(-0.00100005 -0.000803862 0.000322307)
(-0.00106272 -0.000808393 0.000348001)
(-0.00111636 -0.000809241 0.000365062)
(-0.00116076 -0.000809447 0.000373874)
(-0.00119678 -0.00081276 0.000375498)
(-0.00122835 -0.000822095 0.000371993)
(-0.00125793 -0.000835957 0.000364823)
(-0.0012869 -0.00085322 0.000355113)
(-0.00131637 -0.000873031 0.000343663)
(-0.00134707 -0.000894757 0.000330987)
(-0.0013794 -0.000918028 0.000317343)
(-0.00141349 -0.0009426 0.000302775)
(-0.00144925 -0.000968302 0.000287178)
(-0.00148648 -0.000994936 0.00027034)
(-0.00152484 -0.00102227 0.000251956)
(-0.00156395 -0.00105 0.000231672)
(-0.00160323 -0.00107769 0.000208944)
(-0.00164209 -0.00110477 0.00018321)
(-0.00167919 -0.00113026 0.000153128)
(-0.00171343 -0.00115318 0.000117577)
(-0.00174041 -0.00117139 7.4352e-05)
(-0.00175635 -0.00118245 2.49721e-05)
(-0.000332197 -0.000227727 -6.07316e-05)
(-0.000401191 -0.000309018 -5.74953e-05)
(-0.000444194 -0.000384483 -3.82001e-05)
(-0.000494516 -0.00046312 -6.79695e-06)
(-0.000555436 -0.000539559 3.61737e-05)
(-0.000626368 -0.000608646 8.44809e-05)
(-0.000704537 -0.00066612 0.000134172)
(-0.000786234 -0.000710709 0.000182646)
(-0.000868131 -0.000743181 0.000228037)
(-0.000947322 -0.000765204 0.000268895)
(-0.00102125 -0.000778467 0.000303651)
(-0.00108775 -0.000784829 0.000330645)
(-0.00114535 -0.00078687 0.000348954)
(-0.00119385 -0.000787794 0.00035898)
(-0.00123425 -0.00079068 0.000361933)
(-0.00126836 -0.00079808 0.000359243)
(-0.0013 -0.000810803 0.000352749)
(-0.00133089 -0.00082723 0.000343654)
(-0.00136207 -0.000846287 0.000332786)
(-0.00139437 -0.000867325 0.000320704)
(-0.00142824 -0.000889918 0.00030768)
(-0.0014638 -0.000913786 0.000293764)
(-0.00150097 -0.000938727 0.000278852)
(-0.00153953 -0.000964539 0.000262725)
(-0.00157916 -0.000990996 0.000245075)
(-0.00161947 -0.00101779 0.000225548)
(-0.00165987 -0.00104451 0.000203591)
(-0.00169976 -0.00107062 0.000178675)
(-0.00173777 -0.00109512 0.000149426)
(-0.00177289 -0.00111715 0.000114803)
(-0.00180044 -0.00113461 7.2619e-05)
(-0.00181677 -0.00114524 2.43594e-05)
(-0.000333423 -0.000198398 -3.76848e-05)
(-0.000402704 -0.000274203 -5.86542e-05)
(-0.000445377 -0.000344631 -4.33195e-05)
(-0.000494286 -0.000419288 -1.63758e-05)
(-0.000554043 -0.000493554 2.2122e-05)
(-0.000624961 -0.000562731 6.65686e-05)
(-0.000704464 -0.000622416 0.000113521)
(-0.000788671 -0.000670551 0.000160593)
(-0.00087389 -0.000706925 0.000205789)
(-0.000956855 -0.000732395 0.000247272)
(-0.00103475 -0.000748282 0.000283085)
(-0.00110536 -0.000756537 0.00031138)
(-0.00116726 -0.000759923 0.000331133)
(-0.00122008 -0.000761613 0.000342537)
(-0.00126469 -0.000764596 0.000346805)
(-0.00130294 -0.000770955 0.000345408)
(-0.00133707 -0.00078186 0.000339807)
(-0.00136999 -0.000796804 0.000331451)
(-0.001403 -0.000814935 0.000321326)
(-0.00143698 -0.000835132 0.00030995)
(-0.00147236 -0.000856892 0.000297634)
(-0.00150931 -0.00087989 0.000284445)
(-0.00154777 -0.000903909 0.000270279)
(-0.00158751 -0.000928736 0.000254914)
(-0.00162822 -0.00095415 0.000238036)
(-0.00166951 -0.000979854 0.000219296)
(-0.0017108 -0.00100549 0.000198137)
(-0.0017515 -0.00103055 0.000174063)
(-0.00179019 -0.001054 0.000145658)
(-0.00182602 -0.00107504 0.000111982)
(-0.00185398 -0.00109169 7.08597e-05)
(-0.00187063 -0.0011019 2.37353e-05)
(-0.000329519 -0.000168645 -1.66011e-05)
(-0.000398484 -0.000238652 -5.91139e-05)
(-0.00044021 -0.000303646 -4.76712e-05)
(-0.000486976 -0.00037376 -2.52493e-05)
(-0.000544787 -0.000445153 8.48023e-06)
(-0.000615015 -0.000513755 4.85888e-05)
(-0.000695402 -0.000575141 9.22723e-05)
(-0.000781923 -0.000626459 0.000137442)
(-0.000870473 -0.000666488 0.000182002)
(-0.000957347 -0.000695244 0.000223773)
(-0.00103949 -0.000713729 0.000260466)
(-0.00111454 -0.000723923 0.000290042)
(-0.00118091 -0.000728635 0.000311308)
(-0.00123825 -0.000731118 0.000324309)
(-0.00128723 -0.000734279 0.000330064)
(-0.00132954 -0.000740189 0.000330056)
(-0.0013674 -0.000749883 0.000325722)
(-0.00140336 -0.000763564 0.00031854)
(-0.00143829 -0.000780236 0.000309307)
(-0.00147392 -0.000799242 0.000298742)
(-0.00151078 -0.000819956 0.000287238)
(-0.00154904 -0.000841959 0.000274863)
(-0.00158865 -0.000864978 0.000261516)
(-0.00162941 -0.000888783 0.000246974)
(-0.001671 -0.000913141 0.000230915)
(-0.00171307 -0.000937766 0.000212998)
(-0.00175494 -0.000962254 0.00019265)
(-0.00179608 -0.000986103 0.000169417)
(-0.00183511 -0.00100838 0.000141849)
(-0.00187144 -0.00102833 0.000109128)
(-0.00189959 -0.00104409 6.90823e-05)
(-0.00191632 -0.00105379 2.31001e-05)
(-0.00032014 -0.000139272 1.94437e-06)
(-0.000387971 -0.000202801 -5.89993e-05)
(-0.000428068 -0.00026227 -5.11265e-05)
(-0.000471994 -0.000327245 -3.32005e-05)
(-0.000527003 -0.00039502 -4.46868e-06)
(-0.000595754 -0.000462288 3.08386e-05)
(-0.000676484 -0.000524764 7.06513e-05)
(-0.00076498 -0.000578808 0.000113292)
(-0.000856694 -0.000622155 0.000156654)
(-0.000947583 -0.000654078 0.000198293)
(-0.00103423 -0.000675162 0.000235628)
(-0.00111401 -0.000687305 0.000266404)
(-0.00118537 -0.000693473 0.000289303)
(-0.0012476 -0.000696816 0.000304103)
(-0.0013012 -0.000700194 0.000311605)
(-0.00134765 -0.00070569 0.00031317)
(-0.00138921 -0.000714535 0.000310299)
(-0.00142812 -0.000727063 0.000304411)
(-0.00146558 -0.000742373 0.000296332)
(-0.00150321 -0.000760133 0.000286824)
(-0.00154158 -0.000779643 0.000276288)
(-0.001581 -0.000800463 0.00026483)
(-0.00162149 -0.000822287 0.000252369)
(-0.00166286 -0.000844866 0.000238693)
(-0.00170486 -0.000867964 0.000223477)
(-0.00174718 -0.000891282 0.000206396)
(-0.00178919 -0.000914421 0.000186871)
(-0.00183044 -0.000936875 0.000164513)
(-0.00186948 -0.00095781 0.000137818)
(-0.00190607 -0.000976593 0.000106104)
(-0.00193413 -0.000991353 6.71976e-05)
(-0.0019509 -0.00100045 2.24234e-05)
(-0.000303146 -0.000110152 1.7521e-05)
(-0.000371725 -0.000167873 -5.80847e-05)
(-0.000408871 -0.000221348 -5.37118e-05)
(-0.000449096 -0.000280649 -4.00197e-05)
(-0.000500312 -0.000344005 -1.63732e-05)
(-0.000566507 -0.000408944 1.37039e-05)
(-0.000646672 -0.00047162 4.89661e-05)
(-0.000736654 -0.000527836 8.8331e-05)
(-0.000831485 -0.000574313 0.000129836)
(-0.000926494 -0.000609352 0.00017083)
(-0.00101792 -0.000633117 0.0002085)
(-0.00110298 -0.000647401 0.000240414)
(-0.00117954 -0.000654941 0.000264942)
(-0.00124692 -0.000659054 0.00028167)
(-0.00130541 -0.00066261 0.000291152)
(-0.00135638 -0.000667767 0.00029459)
(-0.00140179 -0.000675786 0.000293408)
(-0.00144387 -0.000687172 0.000289014)
(-0.00148384 -0.00070115 0.000282263)
(-0.00152335 -0.000717542 0.000273964)
(-0.00156319 -0.000735708 0.000264543)
(-0.00160366 -0.000755173 0.000254125)
(-0.00164485 -0.000775616 0.000242651)
(-0.00168663 -0.000796781 0.00022992)
(-0.0017288 -0.00081842 0.00021561)
(-0.00177111 -0.000840258 0.000199415)
(-0.00181299 -0.000861883 0.000180757)
(-0.0018541 -0.000882844 0.000159328)
(-0.00189287 -0.000902352 0.000133552)
(-0.00192946 -0.000919865 0.0001029)
(-0.00195725 -0.000933601 6.52015e-05)
(-0.00197391 -0.000942026 2.17021e-05)
(-0.000279174 -8.21897e-05 3.00609e-05)
(-0.000348824 -0.000134619 -5.62862e-05)
(-0.000382701 -0.000181707 -5.5244e-05)
(-0.000418215 -0.000234878 -4.54613e-05)
(-0.000464497 -0.000292951 -2.68297e-05)
(-0.000526952 -0.000354499 -2.30862e-06)
(-0.000605607 -0.000416441 2.77217e-05)
(-0.000696376 -0.000474145 6.29479e-05)
(-0.000793802 -0.000523304 0.000101746)
(-0.000892938 -0.000561446 0.00014146)
(-0.00098946 -0.00058806 0.000179075)
(-0.00107986 -0.00060445 0.000211873)
(-0.00116223 -0.000613551 0.000238071)
(-0.00123531 -0.000618485 0.00025689)
(-0.00129917 -0.000622203 0.000268593)
(-0.00135487 -0.000626901 0.000274153)
(-0.00140442 -0.000634058 0.000274938)
(-0.00144974 -0.000644174 0.000272256)
(-0.00149236 -0.000656766 0.000267056)
(-0.00153392 -0.000671725 0.000260165)
(-0.00157517 -0.000688404 0.00025201)
(-0.00161657 -0.000706362 0.00024276)
(-0.00165827 -0.000725274 0.000232382)
(-0.0017002 -0.000744867 0.000220679)
(-0.00174221 -0.000764905 0.000207335)
(-0.00178417 -0.000785115 0.000192074)
(-0.00182553 -0.000805088 0.000174325)
(-0.00186609 -0.000824421 0.000153871)
(-0.00190419 -0.000842379 0.000129045)
(-0.00194052 -0.000858564 9.95114e-05)
(-0.00196765 -0.000871169 6.30869e-05)
(-0.00198416 -0.0008789 2.09339e-05)
(-0.000248339 -5.64267e-05 3.9352e-05)
(-0.000318281 -0.000103272 -5.35098e-05)
(-0.000349149 -0.00014408 -5.55617e-05)
(-0.000379474 -0.000190874 -4.92641e-05)
(-0.000419762 -0.000242882 -3.53954e-05)
(-0.000476952 -0.000299753 -1.6567e-05)
(-0.000552447 -0.00035954 7.56933e-06)
(-0.000642958 -0.000417821 3.76886e-05)
(-0.000742865 -0.000469528 7.28268e-05)
(-0.000846053 -0.000510794 0.000110451)
(-0.000947648 -0.000540343 0.000147436)
(-0.00104423 -0.000559338 0.000180922)
(-0.00113269 -0.000570043 0.000208687)
(-0.00121176 -0.000575748 0.000229657)
(-0.00128122 -0.000579482 0.000243755)
(-0.00134214 -0.000583686 0.000251735)
(-0.00139607 -0.000589843 0.000254761)
(-0.00144502 -0.000598644 0.000254103)
(-0.0014904 -0.000609725 0.000250693)
(-0.0015339 -0.000623054 0.000245387)
(-0.0015765 -0.000638103 0.000238669)
(-0.00161869 -0.000654422 0.000230732)
(-0.00166069 -0.000671677 0.000221564)
(-0.0017025 -0.000689596 0.000210983)
(-0.00174405 -0.000707934 0.000198673)
(-0.00178532 -0.000726428 0.000184402)
(-0.00182586 -0.000744701 0.000167608)
(-0.00186559 -0.000762363 0.000148178)
(-0.00190271 -0.000778769 0.000124337)
(-0.00193846 -0.000793539 9.59646e-05)
(-0.00196481 -0.000805062 6.08795e-05)
(-0.00198098 -0.000812028 2.01244e-05)
(-0.000212027 -3.40538e-05 4.52387e-05)
(-0.00028071 -7.47235e-05 -4.9751e-05)
(-0.000308898 -0.000109507 -5.46292e-05)
(-0.000333771 -0.000149772 -5.12755e-05)
(-0.000367005 -0.000194956 -4.16523e-05)
(-0.000417387 -0.000245898 -2.83476e-05)
(-0.0004884 -0.000302288 -1.05764e-05)
(-0.000577347 -0.000360065 1.34359e-05)
(-0.000678175 -0.000413346 4.37363e-05)
(-0.000785012 -0.000457651 7.82829e-05)
(-0.00089218 -0.000490624 0.000113968)
(-0.000994516 -0.000512152 0.000147588)
(-0.00108952 -0.000524769 0.000176751)
(-0.00117514 -0.000531438 0.000199921)
(-0.00125091 -0.000535313 0.000216637)
(-0.00131728 -0.000538866 0.000227272)
(-0.001376 -0.000543932 0.000232851)
(-0.00142864 -0.000551207 0.000234477)
(-0.00147698 -0.000560661 0.000233134)
(-0.00152268 -0.000572309 0.000229677)
(-0.00156661 -0.000585616 0.000224591)
(-0.00160945 -0.000600182 0.00021812)
(-0.00165152 -0.000615682 0.000210281)
(-0.00169285 -0.00063183 0.000200905)
(-0.00173354 -0.000648395 0.000189683)
(-0.0017737 -0.000665102 0.000176439)
(-0.0018129 -0.000681589 0.000160622)
(-0.00185133 -0.000697525 0.000142252)
(-0.00188695 -0.000712309 0.000119411)
(-0.00192193 -0.000725682 9.22526e-05)
(-0.00194691 -0.000736019 5.85628e-05)
(-0.00196277 -0.000742248 1.92685e-05)
(-0.000170092 -1.56242e-05 4.74168e-05)
(-0.000235465 -4.9456e-05 -4.47408e-05)
(-0.000261394 -7.8359e-05 -5.21708e-05)
(-0.000281302 -0.000112165 -5.12512e-05)
(-0.00030725 -0.000150174 -4.51638e-05)
(-0.000349285 -0.000193937 -3.68961e-05)
(-0.000412735 -0.000244639 -2.56332e-05)
(-0.000497815 -0.000300177 -8.61236e-06)
(-0.000599592 -0.000354964 1.55833e-05)
(-0.000709702 -0.000402316 4.57851e-05)
(-0.000821472 -0.000438577 7.91182e-05)
(-0.000930728 -0.000463612 0.000112372)
(-0.00103262 -0.00047852 0.000142594)
(-0.00112513 -0.000486383 0.000167864)
(-0.0012072 -0.000490339 0.000187228)
(-0.00127955 -0.000493304 0.000200769)
(-0.00134319 -0.000497114 0.000209155)
(-0.00140003 -0.000502832 0.000213405)
(-0.00145145 -0.000510517 0.000214402)
(-0.00149912 -0.000520262 0.000212998)
(-0.00154427 -0.000531697 0.000209742)
(-0.0015876 -0.000544423 0.000204899)
(-0.00162947 -0.000558105 0.000198516)
(-0.00167005 -0.000572463 0.000190443)
(-0.00170951 -0.000587248 0.00018037)
(-0.0017482 -0.000602182 0.000168197)
(-0.00178581 -0.000616946 0.000153398)
(-0.00182258 -0.000631195 0.000136128)
(-0.00185641 -0.000644439 0.000114309)
(-0.00189017 -0.000656353 8.83951e-05)
(-0.0019138 -0.00066567 5.61661e-05)
(-0.00192908 -0.00067111 1.83704e-05)
(-0.000125381 -1.81878e-06 4.62237e-05)
(-0.00018512 -2.84655e-05 -3.86566e-05)
(-0.000209408 -5.16522e-05 -4.8336e-05)
(-0.000225024 -7.91591e-05 -4.94517e-05)
(-0.000242845 -0.000109597 -4.60218e-05)
(-0.000274445 -0.000145056 -4.14715e-05)
(-0.000330501 -0.000189459 -3.61159e-05)
(-0.000410197 -0.00024128 -2.69247e-05)
(-0.000508333 -0.00029487 -1.02419e-05)
(-0.000619983 -0.000344643 1.42266e-05)
(-0.000737339 -0.000385189 4.4063e-05)
(-0.000852002 -0.000413528 7.58796e-05)
(-0.000960844 -0.000431276 0.000106582)
(-0.00106037 -0.000440745 0.000133659)
(-0.00114959 -0.000445299 0.000155725)
(-0.00122806 -0.000447723 0.000172281)
(-0.00129717 -0.000450373 0.000183747)
(-0.0013581 -0.000454364 0.00019085)
(-0.00141274 -0.000460187 0.000194469)
(-0.00146278 -0.000468054 0.00019542)
(-0.00150918 -0.000477572 0.000194215)
(-0.00155281 -0.000488408 0.000191164)
(-0.00159419 -0.000500248 0.000186361)
(-0.00163356 -0.000512797 0.000179669)
(-0.00167129 -0.00052581 0.000170783)
(-0.00170799 -0.000538983 0.000159701)
(-0.00174333 -0.000552 0.00014592)
(-0.00177796 -0.000564598 0.000129781)
(-0.00180937 -0.000576302 0.000108984)
(-0.00184181 -0.000586854 8.43722e-05)
(-0.00186325 -0.000595058 5.36538e-05)
(-0.00187808 -0.000599782 1.74191e-05)
(-7.86705e-05 6.99274e-06 4.20012e-05)
(-0.000130296 -1.20655e-05 -3.0581e-05)
(-0.000152644 -2.93514e-05 -4.19155e-05)
(-0.000165105 -5.03639e-05 -4.39879e-05)
(-0.000178576 -7.31274e-05 -4.15317e-05)
(-0.000203499 -9.96919e-05 -4.16633e-05)
(-0.00024141 -0.00013369 -4.29528e-05)
(-0.000308003 -0.00017905 -3.97941e-05)
(-0.000405472 -0.000233067 -3.12755e-05)
(-0.000517907 -0.00028488 -1.45628e-05)
(-0.000637312 -0.000328709 1.00798e-05)
(-0.000759121 -0.000362106 3.93781e-05)
(-0.000874834 -0.000383426 6.965e-05)
(-0.000981858 -0.000395323 9.80449e-05)
(-0.00107765 -0.000400667 0.000122474)
(-0.00116258 -0.000402926 0.000142058)
(-0.00123698 -0.000404441 0.000156694)
(-0.00130262 -0.000406886 0.000166937)
(-0.00136063 -0.000410844 0.000173432)
(-0.00141255 -0.000416648 0.000176918)
(-0.00145992 -0.000424176 0.000177952)
(-0.00150362 -0.000433109 0.000176857)
(-0.00154421 -0.000443129 0.000173763)
(-0.00158204 -0.000453947 0.000168548)
(-0.00161767 -0.00046529 0.000160896)
(-0.00165202 -0.000476817 0.000150935)
(-0.00168492 -0.000488269 0.000138214)
(-0.00171699 -0.000499324 0.000123238)
(-0.0017457 -0.000509651 0.000103475)
(-0.00177629 -0.000518817 8.01929e-05)
(-0.00179572 -0.000526184 5.10597e-05)
(-0.00180978 -0.000530139 1.6418e-05)
(-3.87637e-05 1.08181e-05 3.45951e-05)
(-7.73917e-05 -2.13241e-06 -2.36183e-05)
(-9.76888e-05 -1.48915e-05 -3.31018e-05)
(-0.000109539 -2.97015e-05 -3.86046e-05)
(-0.000118585 -4.88691e-05 -4.14443e-05)
(-0.000122358 -6.83791e-05 -3.59028e-05)
(-0.000161178 -9.16219e-05 -3.30638e-05)
(-0.000226443 -0.000125844 -4.28132e-05)
(-0.000297123 -0.000169306 -4.71713e-05)
(-0.000404124 -0.000222525 -3.80698e-05)
(-0.000527887 -0.000271187 -2.04189e-05)
(-0.000652023 -0.000308324 4.48593e-06)
(-0.0007745 -0.000334416 3.30849e-05)
(-0.000888054 -0.000349376 6.17741e-05)
(-0.000991355 -0.000356701 8.81219e-05)
(-0.00108261 -0.000359298 0.000110466)
(-0.00116287 -0.000360203 0.000128309)
(-0.00123267 -0.000361122 0.000141735)
(-0.00129391 -0.000363275 0.000151289)
(-0.00134829 -0.000367249 0.000157605)
(-0.00139669 -0.000372892 0.000161096)
(-0.00144024 -0.000379976 0.000162107)
(-0.00147965 -0.000388246 0.000160834)
(-0.00151539 -0.000397399 0.000157158)
(-0.00154828 -0.000407166 0.000150749)
(-0.00157966 -0.00041712 0.000141902)
(-0.00160929 -0.000427024 0.000130218)
(-0.00163832 -0.000436663 0.00011644)
(-0.00166363 -0.000445666 9.76991e-05)
(-0.00169231 -0.000453591 7.58148e-05)
(-0.00170869 -0.000460073 4.8324e-05)
(-0.00172221 -0.000463355 1.53484e-05)
(-1.57876e-05 9.97713e-06 2.09885e-05)
(-2.51087e-05 -6.957e-07 -1.43201e-05)
(-3.25703e-05 -6.24971e-06 -1.88167e-05)
(-4.06849e-05 -1.06345e-05 -3.15001e-05)
(-3.95269e-05 -3.08556e-05 -3.06244e-05)
(-4.34863e-05 -3.21023e-05 -1.45949e-05)
(-5.98027e-05 -3.67777e-05 -2.54411e-05)
(-9.93702e-05 -7.75124e-05 -3.40114e-05)
(-0.000191692 -0.000115243 -3.3975e-05)
(-0.000286623 -0.000156354 -5.0999e-05)
(-0.000403654 -0.000208215 -4.41453e-05)
(-0.000535852 -0.000253356 -2.59164e-05)
(-0.000661836 -0.000284009 -1.30268e-06)
(-0.000782295 -0.000303616 2.64389e-05)
(-0.00089128 -0.000313367 5.36438e-05)
(-0.000988754 -0.000317194 7.81987e-05)
(-0.00107399 -0.000317862 9.89019e-05)
(-0.00114872 -0.000317912 0.000115567)
(-0.00121343 -0.0003186 0.000128318)
(-0.00126927 -0.000320694 0.000137527)
(-0.00131806 -0.000324493 0.000143582)
(-0.00136109 -0.000329843 0.00014682)
(-0.00139895 -0.000336496 0.000147474)
(-0.00143224 -0.000344168 0.000145414)
(-0.00146203 -0.000352561 0.00014027)
(-0.00149017 -0.000361145 0.000132551)
(-0.00151652 -0.000369772 0.000121949)
(-0.00154205 -0.000378154 0.000109396)
(-0.00156376 -0.000386038 9.16855e-05)
(-0.00159014 -0.000392774 7.12443e-05)
(-0.00160367 -0.000398688 4.54842e-05)
(-0.00161634 -0.000401254 1.42127e-05)
(7.09601e-06 8.41177e-06 1.91872e-05)
(1.18205e-06 1.85892e-06 -7.04565e-06)
(-4.06946e-06 2.6258e-06 -1.56054e-05)
(-1.44085e-05 -7.1205e-06 -2.23527e-05)
(-1.90636e-05 -1.49439e-05 -2.12577e-05)
(-2.24512e-05 -1.26133e-05 -2.15042e-05)
(-3.05389e-05 -2.39737e-05 -2.69702e-05)
(-4.44988e-05 -4.46866e-05 -2.43568e-05)
(-6.9272e-05 -5.1113e-05 -1.96527e-05)
(-0.00017757 -9.44979e-05 -4.46059e-05)
(-0.000288305 -0.000144588 -5.89739e-05)
(-0.000402637 -0.000192238 -4.96468e-05)
(-0.000537031 -0.000231508 -2.9952e-05)
(-0.000662328 -0.000255734 -6.06887e-06)
(-0.0007784 -0.000270179 2.04821e-05)
(-0.000881368 -0.000276352 4.61996e-05)
(-0.000972288 -0.000277993 6.92357e-05)
(-0.0010505 -0.000277476 8.87539e-05)
(-0.00111777 -0.000276998 0.0001046)
(-0.00117582 -0.000277814 0.000116886)
(-0.00122527 -0.00028017 0.000125653)
(-0.00126746 -0.000284005 0.000131197)
(-0.00130331 -0.000289236 0.000133843)
(-0.00133347 -0.000295577 0.000133418)
(-0.0013594 -0.00030275 0.000129493)
(-0.0013836 -0.000310065 0.000122851)
(-0.00140573 -0.000317431 0.000113294)
(-0.00142735 -0.000324755 0.000102005)
(-0.00144471 -0.00033154 8.5305e-05)
(-0.00146851 -0.000337208 6.63901e-05)
(-0.00147824 -0.000342562 4.24485e-05)
(-0.00149032 -0.000344514 1.29819e-05)
(2.09695e-05 7.79742e-06 2.64935e-05)
(2.2892e-05 8.00733e-06 -1.27487e-06)
(1.77393e-05 7.97503e-06 -9.9799e-06)
(1.38472e-05 -7.22823e-07 -5.53379e-06)
(-1.53097e-06 6.80879e-06 -1.34119e-05)
(-4.07811e-06 -6.00292e-06 -2.49337e-05)
(-7.70578e-06 -1.5496e-05 -1.43035e-05)
(-2.17825e-05 -1.08995e-05 -1.71664e-05)
(-3.58528e-05 -2.80758e-05 -3.79628e-05)
(-3.95851e-05 -2.98906e-05 -2.05635e-05)
(-0.000155775 -8.65052e-05 -4.24412e-05)
(-0.000290018 -0.000131987 -5.5279e-05)
(-0.000406452 -0.000173462 -5.38049e-05)
(-0.000536661 -0.000208196 -3.41876e-05)
(-0.000654832 -0.000226566 -9.65975e-06)
(-0.000762364 -0.00023646 1.57916e-05)
(-0.000856717 -0.000239753 4.00094e-05)
(-0.000939552 -0.000240002 6.19385e-05)
(-0.00100999 -0.000239268 8.07419e-05)
(-0.00106845 -0.000238981 9.5913e-05)
(-0.00111704 -0.000240079 0.000107274)
(-0.00115785 -0.000242682 0.00011511)
(-0.00119118 -0.000246749 0.00011977)
(-0.00121791 -0.000252041 0.00012101)
(-0.0012397 -0.000258276 0.000118278)
(-0.0012599 -0.000264542 0.000112698)
(-0.00127803 -0.000270906 0.000104242)
(-0.00129535 -0.000277377 9.42464e-05)
(-0.00130844 -0.000283196 7.85754e-05)
(-0.00132987 -0.000288021 6.12874e-05)
(-0.00133583 -0.000293051 3.9265e-05)
(-0.00134719 -0.000294405 1.16632e-05)
(3.49795e-05 1.43912e-05 4.09276e-05)
(4.49326e-05 1.12656e-05 -8.26459e-06)
(4.68457e-05 6.22337e-06 -1.44524e-05)
(4.58375e-05 -1.01722e-06 -1.75239e-05)
(3.62269e-05 -1.1706e-05 -1.75851e-05)
(3.19302e-05 -1.45496e-05 -1.30985e-05)
(1.66334e-05 -1.03539e-05 -1.13837e-05)
(-6.8488e-07 -7.51777e-06 -2.01739e-05)
(-7.82862e-06 -1.02276e-05 -2.25165e-05)
(-1.79845e-05 -1.98467e-05 -2.22021e-05)
(-5.12749e-05 -3.43485e-05 -2.61147e-05)
(-0.000142099 -7.23371e-05 -4.41311e-05)
(-0.000281871 -0.000117429 -5.98855e-05)
(-0.000396215 -0.000152701 -5.42679e-05)
(-0.000523087 -0.000181806 -3.41015e-05)
(-0.000633516 -0.000196638 -1.12778e-05)
(-0.0007325 -0.000203471 1.25249e-05)
(-0.00081697 -0.000204919 3.58117e-05)
(-0.000888146 -0.00020442 5.69978e-05)
(-0.000947901 -0.0002041 7.49484e-05)
(-0.000996505 -0.000204785 8.88682e-05)
(-0.00103553 -0.000206578 9.88915e-05)
(-0.00106588 -0.000209815 0.000105519)
(-0.0010883 -0.000214221 0.00010834)
(-0.00110509 -0.000219686 0.000106667)
(-0.0011206 -0.000224934 0.000102037)
(-0.00113389 -0.000230206 9.4645e-05)
(-0.00114647 -0.000236044 8.59717e-05)
(-0.00115448 -0.000240634 7.13026e-05)
(-0.00117268 -0.000244683 5.57444e-05)
(-0.00117439 -0.000249401 3.57935e-05)
(-0.00118511 -0.000250254 1.02123e-05)
(4.72555e-05 1.6576e-05 4.88507e-05)
(6.44938e-05 1.41004e-05 -8.25802e-06)
(7.12628e-05 1.04101e-05 -1.66187e-05)
(7.37379e-05 2.80601e-06 -2.12877e-05)
(7.23413e-05 -6.05019e-06 -2.32522e-05)
(6.70249e-05 -1.4162e-05 -2.306e-05)
(5.59827e-05 -2.14994e-05 -2.20288e-05)
(4.28374e-05 -2.46845e-05 -2.0866e-05)
(2.89751e-05 -2.28483e-05 -1.42553e-05)
(-7.88796e-07 -7.71817e-06 -1.87604e-05)
(-2.20795e-05 -8.3921e-06 -2.80328e-05)
(-3.56624e-05 -2.40008e-05 -2.65203e-05)
(-0.000143491 -7.0511e-05 -3.82847e-05)
(-0.000291819 -9.83699e-05 -5.29873e-05)
(-0.000389043 -0.000130501 -5.35817e-05)
(-0.000497728 -0.000156255 -3.34485e-05)
(-0.000597488 -0.000166912 -1.20173e-05)
(-0.000685988 -0.000171602 1.14423e-05)
(-0.000759262 -0.000172849 3.4437e-05)
(-0.000817422 -0.000172874 5.45608e-05)
(-0.000862792 -0.000173339 7.04678e-05)
(-0.000899188 -0.000174736 8.23798e-05)
(-0.000925822 -0.000177456 9.08016e-05)
(-0.000943991 -0.000181309 9.51411e-05)
(-0.000955772 -0.000186301 9.442e-05)
(-0.000966875 -0.000190632 9.06799e-05)
(-0.000975877 -0.000194877 8.44431e-05)
(-0.00098391 -0.000200462 7.71538e-05)
(-0.00098795 -0.000203784 6.35575e-05)
(-0.00100397 -0.000207525 4.98995e-05)
(-0.00100096 -0.000211742 3.21197e-05)
(-0.00101162 -0.000212478 8.6633e-06)
(5.51329e-05 1.58758e-05 5.0492e-05)
(7.71712e-05 1.34007e-05 -7.29993e-06)
(8.77938e-05 1.00467e-05 -1.64947e-05)
(9.39405e-05 2.77654e-06 -2.23219e-05)
(9.59828e-05 -6.06487e-06 -2.57497e-05)