/*--------------------------------*- C++ -*----------------------------------*\
  =========                 |
  \\      /  F ield         | OpenFOAM: The Open Source CFD Toolbox
   \\    /   O peration     | Website:  https://openfoam.org
    \\  /    A nd           | Version:  6
     \\/     M anipulation  |
\*---------------------------------------------------------------------------*/
FoamFile
{
    version     2.0;
    format      ascii;
    class       volVectorField;
    location    "37";
    object      wallShearStress;
}
// * * * * * * * * * * * * * * * * * * * * * * * * * * * * * * * * * * * * * //

dimensions      [0 2 -2 0 0 0 0];

internalField   uniform (0 0 0);

boundaryField
{
    inlet
    {
        type            calculated;
        value           uniform (0 0 0);
    }
    outlet
    {
        type            calculated;
        value           uniform (0 0 0);
    }
    roughCylinder
    {
        type            calculated;
        value           nonuniform List<vector> 
5120
(
(-0.000250355 -0.000356568 -0.000183636)
(-0.000306858 -0.000460821 -4.20641e-05)
(-0.000340341 -0.00055452 -7.51545e-07)
(-0.000385979 -0.000644459 5.39278e-05)
(-0.000442892 -0.000722547 0.000117086)
(-0.00050753 -0.000784326 0.000180571)
(-0.000576445 -0.00082696 0.000239873)
(-0.000644985 -0.000850878 0.000292216)
(-0.000709071 -0.000858535 0.00033551)
(-0.000766623 -0.000854964 0.000369026)
(-0.000817866 -0.000848415 0.000394235)
(-0.000863111 -0.000844561 0.000413048)
(-0.000899373 -0.000843434 0.000424195)
(-0.000929942 -0.00084779 0.000428798)
(-0.000956119 -0.000856834 0.000427895)
(-0.000979251 -0.000869864 0.000422536)
(-0.00100075 -0.000886102 0.000413777)
(-0.00102184 -0.000904895 0.000402512)
(-0.0010435 -0.000925766 0.000389414)
(-0.00106634 -0.000948416 0.000374901)
(-0.00109074 -0.000972669 0.000359179)
(-0.00111681 -0.000998407 0.000342273)
(-0.0011445 -0.00102548 0.00032408)
(-0.00117366 -0.00105375 0.000304413)
(-0.00120403 -0.00108295 0.000282995)
(-0.00123527 -0.00111277 0.00025949)
(-0.00126692 -0.0011427 0.000233371)
(-0.00129847 -0.00117216 0.000203984)
(-0.00132891 -0.0012001 0.000170136)
(-0.00135691 -0.00122521 0.000130353)
(-0.00137931 -0.00124538 8.2412e-05)
(-0.00139222 -0.00125746 2.78368e-05)
(-0.000268821 -0.000344848 -0.00017345)
(-0.000328439 -0.000446354 -4.453e-05)
(-0.000364505 -0.000538743 -6.51109e-06)
(-0.000412261 -0.000628403 4.47638e-05)
(-0.000470854 -0.000707507 0.000105297)
(-0.000537046 -0.000771082 0.000166988)
(-0.00060736 -0.000815903 0.000225138)
(-0.000677387 -0.00084225 0.00027686)
(-0.000743664 -0.000852963 0.000320158)
(-0.000804617 -0.000853656 0.000354719)
(-0.000860039 -0.000851184 0.000381923)
(-0.000908823 -0.000848907 0.000402581)
(-0.000947933 -0.000846514 0.000414819)
(-0.000980048 -0.000849767 0.000420011)
(-0.00100776 -0.0008581 0.00041942)
(-0.00103233 -0.000870772 0.00041429)
(-0.00105524 -0.00088688 0.000405706)
(-0.00107776 -0.000905681 0.000394612)
(-0.00110087 -0.00092664 0.000381713)
(-0.00112523 -0.000949404 0.000367443)
(-0.0011512 -0.000973767 0.000352017)
(-0.00117888 -0.000999591 0.000335468)
(-0.00120825 -0.00102673 0.000317686)
(-0.0012391 -0.00105502 0.000298482)
(-0.00127118 -0.00108422 0.000277573)
(-0.00130412 -0.00111399 0.000254621)
(-0.00133745 -0.00114384 0.00022909)
(-0.00137062 -0.00117319 0.000200334)
(-0.00140258 -0.001201 0.000167169)
(-0.00143194 -0.00122597 0.000128132)
(-0.0014554 -0.00124601 8.10238e-05)
(-0.00146892 -0.00125799 2.73572e-05)
(-0.000287199 -0.000328026 -0.000156057)
(-0.000349577 -0.000426537 -4.75195e-05)
(-0.000388027 -0.000516854 -1.2929e-05)
(-0.00043749 -0.000605547 3.4731e-05)
(-0.000497456 -0.000685129 9.2338e-05)
(-0.000565035 -0.000750248 0.000151995)
(-0.000636806 -0.00079739 0.000208914)
(-0.000708675 -0.000826801 0.000260154)
(-0.000777666 -0.000841499 0.000303889)
(-0.000842315 -0.000846786 0.000339874)
(-0.000901639 -0.000847953 0.000368875)
(-0.000953694 -0.000847193 0.000390815)
(-0.000996378 -0.000844845 0.000404361)
(-0.00103017 -0.000846554 0.000410071)
(-0.00105944 -0.000853999 0.000409794)
(-0.00108554 -0.00086613 0.000404934)
(-0.00110996 -0.000881944 0.00039658)
(-0.00113398 -0.000900605 0.00038572)
(-0.00115862 -0.000921485 0.000373076)
(-0.00118453 -0.000944193 0.000359109)
(-0.0012121 -0.000968496 0.00034404)
(-0.00124144 -0.000994231 0.000327904)
(-0.00127248 -0.00102125 0.000310596)
(-0.00130503 -0.00104937 0.000291917)
(-0.00133881 -0.00107835 0.000271577)
(-0.00137345 -0.00110787 0.000249239)
(-0.00140843 -0.00113744 0.000224358)
(-0.00144319 -0.00116648 0.000196299)
(-0.00147664 -0.00119396 0.000163883)
(-0.00150731 -0.00121861 0.000125672)
(-0.00153179 -0.00123837 7.94864e-05)
(-0.00154592 -0.00125017 2.68273e-05)
(-0.00030346 -0.000307217 -0.000134146)
(-0.000368194 -0.000402222 -5.05748e-05)
(-0.000408593 -0.00048974 -1.9596e-05)
(-0.00045919 -0.000576831 2.42677e-05)
(-0.000520093 -0.000656397 7.86727e-05)
(-0.000588843 -0.000722872 0.000136024)
(-0.000662153 -0.00077253 0.00019155)
(-0.000736194 -0.000805518 0.000242327)
(-0.000808227 -0.000824719 0.00028664)
(-0.000876567 -0.000834652 0.000324102)
(-0.000939607 -0.000839196 0.000354762)
(-0.000995106 -0.00084014 0.000377911)
(-0.00104146 -0.000838707 0.000392748)
(-0.00107784 -0.00083886 0.000399148)
(-0.00110881 -0.000845324 0.000399314)
(-0.00113658 -0.000856751 0.000394775)
(-0.0011626 -0.00087213 0.000386721)
(-0.00118818 -0.000890506 0.000376154)
(-0.0012144 -0.000911199 0.000363833)
(-0.00124191 -0.000933742 0.00035023)
(-0.00127109 -0.000957856 0.000335576)
(-0.00130206 -0.000983365 0.000319909)
(-0.00133475 -0.00101011 0.000303121)
(-0.00136895 -0.00103791 0.000285013)
(-0.00140436 -0.00106651 0.000265284)
(-0.00144062 -0.00109562 0.0002436)
(-0.00147714 -0.00112473 0.000219406)
(-0.00151341 -0.00115329 0.000192076)
(-0.00154824 -0.00118028 0.000160446)
(-0.00158014 -0.00120447 0.000123101)
(-0.00160555 -0.00122383 7.78812e-05)
(-0.00162023 -0.00123539 2.62746e-05)
(-0.0003167 -0.000282896 -0.000109942)
(-0.000383387 -0.000373859 -5.33576e-05)
(-0.000425237 -0.000457927 -2.61698e-05)
(-0.000476377 -0.000542793 1.37178e-05)
(-0.000537795 -0.000621838 6.46326e-05)
(-0.000607546 -0.000689476 0.000119351)
(-0.000682507 -0.000741795 0.000173253)
(-0.000759014 -0.000778665 0.000223473)
(-0.000834269 -0.000802487 0.000268323)
(-0.000906202 -0.000816799 0.000307128)
(-0.000972799 -0.000824465 0.000339296)
(-0.00103182 -0.000827191 0.000363701)
(-0.0010817 -0.000826872 0.000379642)
(-0.00112199 -0.000826637 0.0003872)
(-0.0011549 -0.000831557 0.000387938)
(-0.00118448 -0.000842072 0.000383822)
(-0.00121221 -0.00085683 0.000376164)
(-0.00123946 -0.000874783 0.00036598)
(-0.00126727 -0.00089512 0.000354052)
(-0.00129637 -0.000917333 0.000340876)
(-0.00132713 -0.000941102 0.000326696)
(-0.00135969 -0.000966231 0.000311551)
(-0.00139396 -0.00099254 0.000295336)
(-0.00142973 -0.00101984 0.000277845)
(-0.00146667 -0.0010479 0.000258768)
(-0.00150441 -0.00107641 0.000237775)
(-0.00154237 -0.00110488 0.000214298)
(-0.00158 -0.00113279 0.000187727)
(-0.00161609 -0.00115911 0.000156909)
(-0.0016491 -0.00118269 0.000120456)
(-0.00167536 -0.00120152 7.62333e-05)
(-0.00169052 -0.00121277 2.57074e-05)
(-0.000326717 -0.000256297 -8.5138e-05)
(-0.000394849 -0.000342678 -5.57139e-05)
(-0.000437584 -0.000422725 -3.24273e-05)
(-0.000488656 -0.000504775 3.3108e-06)
(-0.000550115 -0.0005828 5.04323e-05)
(-0.000620633 -0.000651334 0.000102163)
(-0.000697241 -0.00070629 0.000154144)
(-0.000776311 -0.00074705 0.000203628)
(-0.000854843 -0.000775293 0.000248864)
(-0.000930365 -0.000793615 0.000288809)
(-0.00100056 -0.000804169 0.000322346)
(-0.00106322 -0.000808701 0.000348035)
(-0.00111685 -0.000809545 0.000365092)
(-0.00116123 -0.000809748 0.0003739)
(-0.00119724 -0.000813073 0.000375527)
(-0.00122882 -0.000822423 0.000372033)
(-0.00125841 -0.000836291 0.000364873)
(-0.00128739 -0.000853563 0.000355167)
(-0.00131686 -0.000873382 0.000343728)
(-0.00134757 -0.000895115 0.00033106)
(-0.0013799 -0.000918385 0.000317424)
(-0.00141399 -0.000942959 0.000302863)
(-0.00144975 -0.000968659 0.000287272)
(-0.00148698 -0.000995293 0.000270445)
(-0.00152532 -0.00102261 0.000252061)
(-0.00156441 -0.00105033 0.000231791)
(-0.00160364 -0.00107799 0.00020906)
(-0.00164248 -0.00110506 0.000183269)
(-0.00167967 -0.00113058 0.000153286)
(-0.00171366 -0.00115338 0.000117749)
(-0.00174063 -0.00117157 7.45496e-05)
(-0.0017562 -0.00118245 2.51288e-05)
(-0.000332497 -0.000227896 -6.07459e-05)
(-0.00040155 -0.00030923 -5.74968e-05)
(-0.000444584 -0.000384715 -3.81869e-05)
(-0.000494932 -0.000463361 -6.7728e-06)
(-0.000555874 -0.000539805 3.62075e-05)
(-0.000626836 -0.0006089 8.45216e-05)
(-0.000705034 -0.000666387 0.000134219)
(-0.000786765 -0.000710993 0.000182699)
(-0.000868685 -0.000743476 0.000228094)
(-0.000947889 -0.000765499 0.00026895)
(-0.00102181 -0.000778756 0.000303695)
(-0.00108829 -0.000785117 0.000330686)
(-0.0011459 -0.00078717 0.000349)
(-0.00119441 -0.000788113 0.000359028)
(-0.0012348 -0.000791002 0.000361981)
(-0.0012689 -0.000798405 0.000359293)
(-0.00130053 -0.000811132 0.000352804)
(-0.00133142 -0.00082757 0.000343714)
(-0.0013626 -0.000846629 0.000332859)
(-0.00139491 -0.000867671 0.000320779)
(-0.00142877 -0.000890264 0.000307763)
(-0.00146434 -0.000914134 0.000293855)
(-0.00150151 -0.000939072 0.000278949)
(-0.00154007 -0.000964882 0.000262836)
(-0.00157968 -0.000991326 0.000245186)
(-0.00161997 -0.00101812 0.000225676)
(-0.00166029 -0.0010448 0.000203714)
(-0.00170017 -0.0010709 0.000178723)
(-0.0017383 -0.00109543 0.000149593)
(-0.00177313 -0.00111734 0.000114994)
(-0.00180068 -0.00113478 7.28399e-05)
(-0.00181655 -0.00114521 2.45418e-05)
(-0.000333928 -0.000198677 -3.77217e-05)
(-0.000403264 -0.000274528 -5.86775e-05)
(-0.000445976 -0.000344996 -4.33167e-05)
(-0.000494923 -0.000419676 -1.63479e-05)
(-0.000554705 -0.000493954 2.21697e-05)
(-0.000625637 -0.000563124 6.66349e-05)
(-0.000705135 -0.000622786 0.000113598)
(-0.000789321 -0.000670882 0.000160672)
(-0.00087451 -0.000707219 0.000205861)
(-0.000957462 -0.000732672 0.000247338)
(-0.00103537 -0.000748571 0.000283152)
(-0.00110599 -0.000756831 0.00031145)
(-0.00116787 -0.000760207 0.000331187)
(-0.00122064 -0.000761884 0.000342582)
(-0.00126525 -0.000764876 0.00034685)
(-0.00130349 -0.000771248 0.000345458)
(-0.00133763 -0.000782164 0.000339864)
(-0.00137055 -0.000797117 0.000331513)
(-0.00140355 -0.000815255 0.000321395)
(-0.00143754 -0.000835459 0.000310027)
(-0.00147294 -0.000857221 0.000297719)
(-0.00150989 -0.000880222 0.000284537)
(-0.00154836 -0.000904242 0.000270378)
(-0.0015881 -0.000929067 0.00025503)
(-0.00162878 -0.000954467 0.000238152)
(-0.00167005 -0.000980163 0.000219432)
(-0.00171124 -0.00100575 0.000198269)
(-0.00175194 -0.00103081 0.000174098)
(-0.0017908 -0.0010543 0.000145837)
(-0.00182628 -0.00107521 0.000112195)
(-0.00185426 -0.00109185 7.11077e-05)
(-0.00187034 -0.00110187 2.39485e-05)
(-0.000329891 -0.000168819 -1.66186e-05)
(-0.000398918 -0.000238866 -5.91184e-05)
(-0.000440672 -0.000303877 -4.76567e-05)
(-0.000487461 -0.000373996 -2.52156e-05)
(-0.000545291 -0.000445383 8.52838e-06)
(-0.000615544 -0.000513983 4.86472e-05)
(-0.000695973 -0.000575379 9.23418e-05)
(-0.00078255 -0.000626721 0.000137519)
(-0.000871155 -0.00066678 0.000182092)
(-0.000958062 -0.000695546 0.000223869)
(-0.00104018 -0.000714008 0.000260551)
(-0.00111519 -0.000724178 0.000290113)
(-0.00118157 -0.000728899 0.000311376)
(-0.00123893 -0.000731408 0.000324381)
(-0.00128789 -0.000734571 0.000330134)
(-0.0013302 -0.000740486 0.000330125)
(-0.00136803 -0.000750182 0.000325791)
(-0.00140399 -0.000763865 0.000318614)
(-0.00143891 -0.000780544 0.000309385)
(-0.00147454 -0.000799554 0.000298824)
(-0.0015114 -0.000820269 0.000287325)
(-0.00154967 -0.000842272 0.000274956)
(-0.00158929 -0.00086529 0.000261616)
(-0.00163005 -0.000889094 0.000247095)
(-0.00167161 -0.00091344 0.000231037)
(-0.00171366 -0.000938056 0.000213148)
(-0.00175542 -0.0009625 0.000192792)
(-0.00179654 -0.000986347 0.000169433)
(-0.00183581 -0.00100867 0.000142041)
(-0.00187171 -0.00102849 0.000109367)
(-0.00189988 -0.00104424 6.9362e-05)
(-0.00191592 -0.00105373 2.33502e-05)
(-0.000320754 -0.000139541 1.92107e-06)
(-0.000388653 -0.000203124 -5.90323e-05)
(-0.000428813 -0.000262649 -5.11326e-05)
(-0.000472802 -0.000327668 -3.31758e-05)
(-0.00052787 -0.000395476 -4.4166e-06)
(-0.000596658 -0.000462757 3.09177e-05)
(-0.000677385 -0.00052521 7.07541e-05)
(-0.000765842 -0.000579199 0.000113407)
(-0.000857488 -0.000622474 0.000156768)
(-0.000948321 -0.000654339 0.000198395)
(-0.00103498 -0.000675428 0.000235728)
(-0.0011148 -0.000687596 0.000266513)
(-0.00118614 -0.000693752 0.0002894)
(-0.0012483 -0.00069706 0.000304179)
(-0.00130187 -0.000700438 0.000311676)
(-0.00134832 -0.000705942 0.000313239)
(-0.00138987 -0.0007148 0.000310371)
(-0.00142879 -0.000727334 0.000304488)
(-0.00146623 -0.000742648 0.000296411)
(-0.00150387 -0.000760417 0.000286908)
(-0.00154226 -0.000779931 0.000276377)
(-0.0015817 -0.000800756 0.000264925)
(-0.00162219 -0.000822578 0.000252474)
(-0.00166357 -0.000845153 0.000238822)
(-0.00170554 -0.000868233 0.000223607)
(-0.00174782 -0.000891544 0.000206559)
(-0.00178969 -0.00091465 0.000187027)
(-0.00183095 -0.000937109 0.000164505)
(-0.00187033 -0.000958106 0.000138024)
(-0.00190636 -0.000976735 0.000106373)
(-0.0019345 -0.000991506 6.75131e-05)
(-0.00195038 -0.00100039 2.27166e-05)
(-0.000303628 -0.000110339 1.74993e-05)
(-0.000372256 -0.000168087 -5.80947e-05)
(-0.00040942 -0.000221577 -5.36978e-05)
(-0.000449648 -0.000280871 -3.99861e-05)
(-0.000500862 -0.000344206 -1.63218e-05)
(-0.000567064 -0.000409128 1.37732e-05)
(-0.000647275 -0.000471803 4.90507e-05)
(-0.000737336 -0.000528049 8.84293e-05)
(-0.000832267 -0.000574569 0.000129951)
(-0.000927366 -0.000609648 0.00017096)
(-0.00101879 -0.000633394 0.000208629)
(-0.00110375 -0.000647618 0.000240519)
(-0.0011803 -0.000655155 0.000265038)
(-0.00124774 -0.000659308 0.000281775)
(-0.00130622 -0.000662867 0.000291251)
(-0.00135718 -0.000668027 0.000294685)
(-0.00140256 -0.000676047 0.000293501)
(-0.00144463 -0.000687438 0.000289108)
(-0.00148459 -0.00070142 0.000282356)
(-0.0015241 -0.000717814 0.000274056)
(-0.00156394 -0.000735979 0.000264636)
(-0.00160443 -0.000755446 0.000254222)
(-0.00164564 -0.00077589 0.000242758)
(-0.00168743 -0.000797045 0.000230058)
(-0.00172958 -0.000818677 0.000215753)
(-0.00177186 -0.000840522 0.000199601)
(-0.0018135 -0.000862093 0.000180929)
(-0.00185463 -0.000883057 0.000159289)
(-0.00189385 -0.000902634 0.00013377)
(-0.00192978 -0.000919996 0.000103203)
(-0.00195763 -0.000933722 6.55557e-05)
(-0.00197322 -0.000941929 2.20456e-05)
(-0.000279877 -8.24312e-05 3.00439e-05)
(-0.000349628 -0.000134923 -5.63337e-05)
(-0.000383596 -0.000182082 -5.52716e-05)
(-0.000419223 -0.000235332 -4.54642e-05)
(-0.000465628 -0.000293485 -2.67995e-05)
(-0.000528173 -0.000355085 -2.23895e-06)
(-0.000606845 -0.000417017 2.78306e-05)
(-0.000697559 -0.000474654 6.30888e-05)
(-0.000794889 -0.00052371 0.000101902)
(-0.000893902 -0.000561744 0.000141607)
(-0.000990403 -0.000588324 0.00017922)
(-0.00108089 -0.000604749 0.000212032)
(-0.00116325 -0.000613834 0.000238222)
(-0.00123619 -0.000618702 0.000257005)
(-0.00130002 -0.000622417 0.000268699)
(-0.00135569 -0.000627113 0.000274253)
(-0.00140523 -0.000634276 0.000275036)
(-0.00145053 -0.000644395 0.000272352)
(-0.00149314 -0.00065699 0.00026715)
(-0.00153473 -0.000671967 0.000260262)
(-0.00157599 -0.00068865 0.000252107)
(-0.00161742 -0.000706613 0.000242861)
(-0.00165916 -0.000725526 0.000232492)
(-0.00170111 -0.000745116 0.000220826)
(-0.00174307 -0.000765128 0.000207487)
(-0.00178494 -0.000785323 0.000192277)
(-0.00182607 -0.000805275 0.000174516)
(-0.00186667 -0.000824624 0.000153791)
(-0.00190538 -0.00084267 0.000129279)
(-0.00194086 -0.000858678 9.98532e-05)
(-0.00196817 -0.000871302 6.34884e-05)
(-0.00198333 -0.000878801 2.13375e-05)
(-0.000248926 -5.66126e-05 3.93095e-05)
(-0.00031893 -0.000103492 -5.35393e-05)
(-0.000349782 -0.000144311 -5.55635e-05)
(-0.000380056 -0.000191077 -4.92402e-05)
(-0.000420277 -0.000243027 -3.53492e-05)
(-0.00047742 -0.00029984 -1.6498e-05)
(-0.000552975 -0.00035962 7.65611e-06)
(-0.000643621 -0.000417951 3.77903e-05)
(-0.000743676 -0.000469715 7.29525e-05)
(-0.000847028 -0.000511047 0.000110603)
(-0.000948654 -0.000540587 0.000147594)
(-0.00104512 -0.000559496 0.000181057)
(-0.00113354 -0.000570183 0.00020881)
(-0.00121276 -0.000575958 0.0002298)
(-0.00128221 -0.000579692 0.000243888)
(-0.00134311 -0.0005839 0.000251865)
(-0.00139702 -0.000590062 0.000254887)
(-0.00144597 -0.000598879 0.000254229)
(-0.00149134 -0.00060996 0.000250814)
(-0.0015348 -0.000623281 0.000245495)
(-0.00157742 -0.000638326 0.000238772)
(-0.00161964 -0.000654647 0.000230834)
(-0.00166168 -0.000671901 0.000221676)
(-0.00170352 -0.000689812 0.00021114)
(-0.00174506 -0.000708146 0.000198844)
(-0.00178631 -0.000726654 0.000184644)
(-0.00182643 -0.000744859 0.000167822)
(-0.00186618 -0.000762542 0.000148045)
(-0.00190408 -0.00077902 0.000124579)
(-0.00193886 -0.000793657 9.63531e-05)
(-0.00196535 -0.000805143 6.13298e-05)
(-0.00197991 -0.000811905 2.05987e-05)
(-0.00021273 -3.42692e-05 4.51618e-05)
(-0.000281563 -7.50156e-05 -4.98234e-05)
(-0.00030988 -0.000109884 -5.46935e-05)
(-0.000334964 -0.000150276 -5.13348e-05)
(-0.000368478 -0.000195631 -4.1696e-05)
(-0.000419112 -0.000246727 -2.83615e-05)
(-0.000490152 -0.000303119 -1.05357e-05)
(-0.000578972 -0.00036078 1.35435e-05)
(-0.000679665 -0.00041392 4.38967e-05)
(-0.000786323 -0.00045806 7.84681e-05)
(-0.000893438 -0.00049095 0.000114163)
(-0.000995895 -0.000512505 0.000147802)
(-0.00109089 -0.00052509 0.000176959)
(-0.00117625 -0.000531627 0.000200079)
(-0.00125198 -0.000535489 0.000216786)
(-0.00131832 -0.000539044 0.000227415)
(-0.00137698 -0.000544106 0.000232989)
(-0.00142957 -0.000551379 0.000234607)
(-0.00147789 -0.000560829 0.000233253)
(-0.00152364 -0.000572504 0.000229791)
(-0.00156762 -0.000585814 0.000224698)
(-0.00161052 -0.000600389 0.000218223)
(-0.00165266 -0.000615887 0.000210395)
(-0.00169405 -0.000632031 0.000201075)
(-0.00173466 -0.000648561 0.000189867)
(-0.00177467 -0.000665247 0.000176703)
(-0.0018135 -0.000681723 0.000160867)
(-0.00185196 -0.000697689 0.000142053)
(-0.00188866 -0.000712564 0.00011967)
(-0.00192232 -0.000725769 9.26919e-05)
(-0.00194767 -0.000736114 5.9074e-05)
(-0.00196149 -0.000742151 1.98278e-05)
(-0.000170691 -1.58058e-05 4.72391e-05)
(-0.000236173 -4.96916e-05 -4.48083e-05)
(-0.000262058 -7.85905e-05 -5.22303e-05)
(-0.000281789 -0.00011232 -5.13016e-05)
(-0.000307404 -0.00015015 -4.51897e-05)
(-0.000349108 -0.000193693 -3.68548e-05)
(-0.000412804 -0.000244473 -2.55357e-05)
(-0.000498337 -0.000300194 -8.50032e-06)
(-0.00060039 -0.000355079 1.57111e-05)
(-0.000710728 -0.00040251 4.59417e-05)
(-0.000822549 -0.000438751 7.92895e-05)
(-0.000931631 -0.000463662 0.000112521)
(-0.00103352 -0.000478556 0.000142731)
(-0.00112637 -0.000486558 0.00016804)
(-0.00120842 -0.000490505 0.000187402)
(-0.00128074 -0.000493464 0.000200944)
(-0.00134436 -0.000497286 0.000209334)
(-0.00140119 -0.000503023 0.000213582)
(-0.00145261 -0.000510715 0.000214566)
(-0.00150021 -0.00052044 0.000213129)
(-0.0015454 -0.000531873 0.000209855)
(-0.00158879 -0.000544598 0.000204999)
(-0.00163074 -0.000558275 0.000198624)
(-0.00167137 -0.000572615 0.00019062)
(-0.00171087 -0.0005874 0.000180581)
(-0.0017495 -0.000602354 0.000168524)
(-0.00178639 -0.000617043 0.000153678)
(-0.00182323 -0.000631333 0.000135844)
(-0.00185837 -0.000644621 0.000114571)
(-0.00189068 -0.000656465 8.88991e-05)
(-0.0019146 -0.0006657 5.67405e-05)
(-0.00192746 -0.000671015 1.90301e-05)
(-0.000125837 -2.19591e-06 4.57529e-05)
(-0.000185755 -2.89179e-05 -3.87331e-05)
(-0.000210229 -5.22031e-05 -4.84222e-05)
(-0.000226314 -7.99132e-05 -4.95273e-05)
(-0.000245242 -0.000110782 -4.60872e-05)
(-0.00027845 -0.000146823 -4.17957e-05)
(-0.000333808 -0.000191001 -3.65795e-05)
(-0.000412522 -0.000242367 -2.71101e-05)
(-0.000510242 -0.000295649 -1.01695e-05)
(-0.000621664 -0.000345189 1.44121e-05)
(-0.000739023 -0.00038564 4.42856e-05)
(-0.000853896 -0.000413999 7.61239e-05)
(-0.000962694 -0.000431669 0.000106819)
(-0.00106172 -0.000440893 0.000133837)
(-0.00115091 -0.000445424 0.000155908)
(-0.00122934 -0.000447845 0.000172478)
(-0.00129837 -0.000450488 0.00018395)
(-0.00135921 -0.000454469 0.000191041)
(-0.0014138 -0.000460294 0.000194631)
(-0.00146393 -0.000468195 0.000195558)
(-0.0015104 -0.000477718 0.000194329)
(-0.00155413 -0.000488556 0.000191259)
(-0.00159568 -0.000500391 0.000186468)
(-0.00163516 -0.000512927 0.000179864)
(-0.00167281 -0.000525894 0.000171011)
(-0.00170925 -0.000539032 0.00016006)
(-0.00174394 -0.000552061 0.000146246)
(-0.00177863 -0.000564712 0.000129392)
(-0.00181183 -0.000576458 0.000109261)
(-0.00184227 -0.000586928 8.4943e-05)
(-0.00186436 -0.000595085 5.43063e-05)
(-0.00187615 -0.000599744 1.81993e-05)
(-7.8796e-05 6.58496e-06 4.118e-05)
(-0.000130624 -1.25293e-05 -3.0756e-05)
(-0.000152763 -2.95426e-05 -4.23672e-05)
(-0.000164977 -5.05641e-05 -4.50543e-05)
(-0.000175962 -7.32817e-05 -4.35514e-05)
(-0.000195898 -9.93076e-05 -4.18569e-05)
(-0.000237848 -0.000134039 -4.09987e-05)
(-0.000308148 -0.000179673 -3.8672e-05)
(-0.000406624 -0.000233523 -3.08404e-05)
(-0.000519263 -0.000285268 -1.43655e-05)
(-0.000638365 -0.000328782 1.02577e-05)
(-0.000759869 -0.000361965 3.95214e-05)
(-0.000875683 -0.0003833 6.97715e-05)
(-0.0009834 -0.00039546 9.82199e-05)
(-0.00107923 -0.000400797 0.000122677)
(-0.0011641 -0.00040304 0.000142297)
(-0.00123844 -0.000404559 0.000156958)
(-0.00130401 -0.000407027 0.000167198)
(-0.001362 -0.000410999 0.00017366)
(-0.00141386 -0.000416785 0.000177079)
(-0.00146129 -0.000424302 0.000178072)
(-0.0015051 -0.000433229 0.000176943)
(-0.00154586 -0.000443221 0.000173851)
(-0.00158379 -0.000454 0.000168742)
(-0.00161952 -0.000465347 0.00016116)
(-0.00165377 -0.000476892 0.000151388)
(-0.00168554 -0.000488294 0.000138598)
(-0.00171769 -0.000499419 0.000122719)
(-0.00174856 -0.000509703 0.000103754)
(-0.00177692 -0.00051893 8.08516e-05)
(-0.00179694 -0.000526117 5.17928e-05)
(-0.00180738 -0.000530147 1.73405e-05)
(-3.71261e-05 1.02334e-05 3.2485e-05)
(-7.53288e-05 -2.82488e-06 -2.28833e-05)
(-9.66529e-05 -1.50123e-05 -3.28205e-05)
(-0.000109193 -3.06562e-05 -3.74506e-05)
(-0.000120951 -4.89141e-05 -3.5741e-05)
(-0.000137536 -6.5972e-05 -3.65146e-05)
(-0.000167301 -9.02534e-05 -4.08592e-05)
(-0.00022224 -0.000124696 -4.60151e-05)
(-0.000296214 -0.000169209 -4.72142e-05)
(-0.000404109 -0.000222245 -3.74571e-05)
(-0.000529836 -0.000271519 -2.00554e-05)
(-0.000654593 -0.000308814 4.62828e-06)
(-0.000776958 -0.000334884 3.3213e-05)
(-0.000889676 -0.00034945 6.1876e-05)
(-0.000992941 -0.000356735 8.8292e-05)
(-0.00108417 -0.000359329 0.000110723)
(-0.00116431 -0.000360234 0.000128618)
(-0.00123397 -0.000361171 0.000142039)
(-0.00129513 -0.000363336 0.000151535)
(-0.00134962 -0.000367344 0.000157776)
(-0.00139816 -0.000372981 0.000161213)
(-0.00144185 -0.000380062 0.000162175)
(-0.00148159 -0.000388304 0.000160907)
(-0.00151756 -0.000397428 0.000157374)
(-0.00155036 -0.000407131 0.000151038)
(-0.00158138 -0.000417049 0.000142409)
(-0.0016098 -0.000426984 0.000130665)
(-0.00163899 -0.000436722 0.000115759)
(-0.00166712 -0.000445644 9.7986e-05)
(-0.00169286 -0.000453694 7.65627e-05)
(-0.00171032 -0.000459967 4.91533e-05)
(-0.00171934 -0.000463453 1.64395e-05)
(-1.51741e-05 8.90681e-06 2.12448e-05)
(-2.5067e-05 -2.1022e-07 -1.15614e-05)
(-3.21045e-05 -4.14934e-06 -1.79704e-05)
(-3.90503e-05 -1.02622e-05 -2.73321e-05)
(-3.60616e-05 -2.33004e-05 -2.48086e-05)
(-3.89246e-05 -2.75037e-05 -1.50082e-05)
(-5.06519e-05 -3.15284e-05 -1.72861e-05)
(-0.000108377 -6.83032e-05 -3.17913e-05)
(-0.000203375 -0.000111447 -4.26386e-05)
(-0.00029666 -0.000157314 -5.42734e-05)
(-0.000405 -0.000207924 -4.5924e-05)
(-0.000536074 -0.000253239 -2.6013e-05)
(-0.000662361 -0.000283658 -1.32547e-06)
(-0.000784262 -0.000303712 2.64304e-05)
(-0.000893467 -0.000313489 5.37911e-05)
(-0.000990835 -0.000317282 7.85224e-05)
(-0.00107588 -0.00031794 9.93318e-05)
(-0.00115034 -0.000318002 0.000115992)
(-0.00121493 -0.000318709 0.000128652)
(-0.00127071 -0.000320792 0.000137722)
(-0.0013197 -0.000324573 0.000143705)
(-0.00136289 -0.000329919 0.000146869)
(-0.0014011 -0.000336499 0.000147505)
(-0.00143456 -0.000344086 0.000145618)
(-0.00146455 -0.000352479 0.000140607)
(-0.00149253 -0.000361085 0.000133188)
(-0.00151721 -0.000369736 0.000122498)
(-0.00154276 -0.000378199 0.000108524)
(-0.00156794 -0.000385923 9.19782e-05)
(-0.00159082 -0.000392947 7.21045e-05)
(-0.00160551 -0.000398448 4.641e-05)
(-0.00161287 -0.000401442 1.5502e-05)
(8.41037e-06 1.00895e-05 2.46432e-05)
(1.75825e-06 5.02245e-06 -7.81904e-06)
(-4.76965e-06 3.8164e-06 -2.01314e-05)
(-1.48605e-05 -7.59287e-06 -2.63146e-05)
(-2.09577e-05 -1.78645e-05 -2.92613e-05)
(-2.64073e-05 -2.18414e-05 -2.8131e-05)
(-2.54439e-05 -2.07913e-05 -2.3851e-05)
(-3.33102e-05 -2.94868e-05 -2.35285e-05)
(-6.20586e-05 -5.07541e-05 -2.52763e-05)
(-0.000166562 -0.000102024 -3.85997e-05)
(-0.000289061 -0.000145935 -5.15188e-05)
(-0.00040351 -0.000190365 -4.92912e-05)
(-0.000539767 -0.00023169 -3.03922e-05)
(-0.000664384 -0.000255714 -6.47323e-06)
(-0.000780394 -0.000270133 2.04837e-05)
(-0.000883257 -0.000276256 4.6545e-05)
(-0.000973942 -0.000277918 6.97781e-05)
(-0.00105193 -0.00027749 8.93026e-05)
(-0.00111912 -0.000277069 0.000105006)
(-0.00117732 -0.000277921 0.000117101)
(-0.00122698 -0.000280225 0.000125768)
(-0.00126933 -0.000284062 0.000131206)
(-0.00130578 -0.000289205 0.000133825)
(-0.00133639 -0.000295475 0.000133647)
(-0.00136227 -0.000302579 0.000129871)
(-0.00138595 -0.000309844 0.000123573)
(-0.0014059 -0.000317254 0.000113909)
(-0.00142795 -0.000324745 0.000100896)
(-0.00144956 -0.000331345 8.5597e-05)
(-0.00146909 -0.000337433 6.73632e-05)
(-0.00148064 -0.00034224 4.34827e-05)
(-0.00148621 -0.000344792 1.45011e-05)
(2.253e-05 9.57309e-06 2.76236e-05)
(2.76525e-05 7.47133e-06 -5.8348e-06)
(2.47978e-05 5.29374e-06 -1.09801e-05)
(1.9168e-05 -5.46992e-07 -4.70221e-06)
(6.8289e-07 7.88571e-06 -1.07011e-05)
(-2.9711e-06 1.1445e-06 -2.45854e-05)
(-8.43597e-06 -1.00786e-05 -2.77664e-05)
(-1.57873e-05 -1.84099e-05 -2.65e-05)
(-2.31287e-05 -2.66295e-05 -2.24887e-05)
(-6.86929e-05 -5.56221e-05 -2.53723e-05)
(-0.00015931 -8.34122e-05 -3.42785e-05)
(-0.000304643 -0.000126149 -5.50455e-05)
(-0.000409538 -0.000171693 -5.75924e-05)
(-0.000539019 -0.000208199 -3.54859e-05)
(-0.000658286 -0.000227071 -9.78156e-06)
(-0.000765671 -0.000236718 1.62591e-05)
(-0.000859281 -0.000239862 4.08252e-05)
(-0.000941278 -0.000240113 6.27311e-05)
(-0.00101135 -0.000239393 8.12716e-05)
(-0.00106976 -0.000239094 9.61289e-05)
(-0.00111892 -0.000240151 0.000107392)
(-0.00115989 -0.000242784 0.000115085)
(-0.00119394 -0.000246693 0.000119669)
(-0.00122097 -0.000251794 0.000121211)
(-0.00124307 -0.000258051 0.000118717)
(-0.00126304 -0.000264341 0.000113592)
(-0.00127894 -0.000270877 0.000105038)
(-0.00129598 -0.000277332 9.28733e-05)
(-0.00131431 -0.000283069 7.8888e-05)
(-0.00133048 -0.000288404 6.23902e-05)
(-0.00133856 -0.000292573 4.03976e-05)
(-0.00134227 -0.000294717 1.34457e-05)
(3.77884e-05 1.48945e-05 4.27909e-05)
(4.89958e-05 1.2371e-05 -8.1987e-06)
(5.13244e-05 7.49459e-06 -1.3537e-05)
(4.91677e-05 1.91614e-07 -1.54103e-05)
(3.85594e-05 -1.02186e-05 -1.59555e-05)
(3.15913e-05 -1.50505e-05 -1.48448e-05)
(2.11412e-05 -1.46566e-05 -9.96532e-06)
(2.46579e-06 -9.11387e-06 -7.76272e-06)
(-2.37569e-05 1.21665e-06 -1.96248e-05)
(-2.3463e-05 -8.19735e-06 -2.62385e-05)
(-4.05644e-05 -2.07751e-05 -2.83623e-05)
(-0.000137633 -8.97775e-05 -5.01787e-05)
(-0.000281533 -0.000128136 -4.98199e-05)
(-0.000402689 -0.000153801 -5.3323e-05)
(-0.000526033 -0.000182205 -3.47998e-05)
(-0.000635735 -0.000196427 -1.06606e-05)
(-0.000734316 -0.000203361 1.3769e-05)
(-0.000818219 -0.000205037 3.69569e-05)
(-0.000889402 -0.000204654 5.76939e-05)
(-0.000949498 -0.000204375 7.51961e-05)
(-0.000998422 -0.000204874 8.89753e-05)
(-0.0010375 -0.00020673 9.88021e-05)
(-0.00106889 -0.000209745 0.000105293)
(-0.00109216 -0.000213971 0.000108575)
(-0.00110895 -0.000219402 0.000107175)
(-0.00112369 -0.000224589 0.000103032)
(-0.00113331 -0.000229921 9.54606e-05)
(-0.00114697 -0.000235888 8.4293e-05)
(-0.00116113 -0.000240761 7.16259e-05)
(-0.00117308 -0.000245274 5.69668e-05)
(-0.00117781 -0.00024886 3.70221e-05)
(-0.0011796 -0.00025055 1.2291e-05)
(4.80444e-05 1.67511e-05 4.92639e-05)
(6.5136e-05 1.44046e-05 -7.98999e-06)
(7.17696e-05 1.05751e-05 -1.55106e-05)
(7.38837e-05 3.02437e-06 -1.94665e-05)
(7.17852e-05 -5.73604e-06 -2.07695e-05)
(6.60021e-05 -1.37962e-05 -1.98364e-05)
(5.555e-05 -1.99053e-05 -1.70183e-05)
(3.88867e-05 -2.17445e-05 -1.26894e-05)
(1.5389e-05 -1.63787e-05 -1.21017e-05)
(-6.07318e-06 -6.74057e-06 -2.90819e-05)
(-3.37702e-05 -1.55544e-05 -4.69385e-05)
(-5.03394e-05 -5.79077e-05 -4.4194e-05)
(-0.000132418 -7.502e-05 -2.70095e-05)
(-0.000279388 -0.000102223 -5.64802e-05)
(-0.000395711 -0.000136315 -5.18766e-05)
(-0.000506089 -0.000157818 -3.24267e-05)
(-0.000601559 -0.000167619 -1.01536e-05)
(-0.000687352 -0.000172134 1.31407e-05)
(-0.000759961 -0.000173263 3.53015e-05)
(-0.000818011 -0.000173144 5.47224e-05)
(-0.000864805 -0.000173482 7.05837e-05)
(-0.000901143 -0.000175047 8.22402e-05)
(-0.000929218 -0.000177457 9.04094e-05)
(-0.000947916 -0.00018089 9.53389e-05)
(-0.000960019 -0.000185974 9.50082e-05)
(-0.000971037 -0.000190433 9.1896e-05)
(-0.00097725 -0.000195172 8.55569e-05)
(-0.000984299 -0.000200098 7.51281e-05)
(-0.000995209 -0.000204478 6.39048e-05)
(-0.00100419 -0.000208478 5.12492e-05)
(-0.00100514 -0.000211369 3.34179e-05)
(-0.00100492 -0.000212472 1.10545e-05)
(5.38126e-05 1.53118e-05 4.87473e-05)
(7.54952e-05 1.28398e-05 -7.08664e-06)
(8.57811e-05 9.36311e-06 -1.55289e-05)
(9.14991e-05 2.16597e-06 -2.07381e-05)
(9.30337e-05 -6.58334e-06 -2.36154e-05)