/*--------------------------------*- C++ -*----------------------------------*\
  =========                 |
  \\      /  F ield         | OpenFOAM: The Open Source CFD Toolbox
   \\    /   O peration     | Website:  https://openfoam.org
    \\  /    A nd           | Version:  6
     \\/     M anipulation  |
\*---------------------------------------------------------------------------*/
FoamFile
{
    version     2.0;
    format      ascii;
    class       volScalarField;
    location    "37";
    object      yPlus;
}
// * * * * * * * * * * * * * * * * * * * * * * * * * * * * * * * * * * * * * //

dimensions      [0 0 0 0 0 0 0];

internalField   uniform 0;

boundaryField
{
    inlet
    {
        type            calculated;
        value           uniform 0;
    }
    outlet
    {
        type            calculated;
        value           uniform 0;
    }
    roughCylinder
    {
        type            calculated;
        value           nonuniform List<scalar> 
5120
(
43.4856
51.3054
57.5335
63.6594
68.9479
73.2376
76.6749
79.4533
81.728
83.6337
85.2896
86.7724
88.1192
89.3643
90.5384
91.6723
92.7964
93.939
95.1236
96.3673
97.6797
99.0633
100.515
102.027
103.591
105.192
106.815
108.437
110.018
111.491
112.702
113.421
42.7713
50.3072
56.3364
62.3224
67.5379
71.7928
75.212
77.9824
80.2571
82.1689
83.833
85.3192
86.6575
87.8887
89.0448
90.1573
91.2578
92.3753
93.5342
94.7508
96.0347
97.3881
98.8081
100.288
101.816
103.381
104.966
106.55
108.093
109.531
110.711
111.412
41.9845
49.2718
55.1133
60.9593
66.1009
70.3241
73.7319
76.5029
78.7878
80.7156
82.3938
83.8857
85.2207
86.4413
87.5812
88.6742
89.7531
90.8472
91.9803
93.17
94.4255
95.7494
97.1384
98.585
100.079
101.608
103.156
104.703
106.208
107.61
108.76
109.442
41.1728
48.225
53.8793
59.5818
64.6493
68.8445
72.2463
75.0251
77.3293
79.2816
80.9793
82.4799
83.8161
85.0273
86.1543
87.2302
88.2887
89.3601
90.4699
91.6346
92.8633
94.1585
95.5169
96.9314
98.3917
99.8852
101.397
102.905
104.373
105.74
106.86
107.523
40.3097
47.1394
52.6048
58.16
63.1547
67.3303
70.7395
73.5405
75.8757
77.8593
79.5802
81.0941
82.4367
83.6466
84.7639
85.8253
86.8663
87.9185
89.0055
90.1455
91.3483
92.616
93.9452
95.3286
96.7562
98.2157
99.6911
101.164
102.595
103.927
105.017
105.662
39.4417
46.0494
51.3193
56.7203
61.6418
65.8035
69.2267
72.0546
74.4249
76.4453
78.1958
79.7287
81.0824
82.2948
83.4065
84.4574
85.4838
86.517
87.5846
88.7034
89.8822
91.1238
92.4247
93.7778
95.1729
96.5986
98.0383
99.4747
100.87
102.168
103.229
103.856
38.5116
44.9043
49.9715
55.2102
60.0578
64.2161
67.672
70.5478
72.9695
75.0343
76.8172
78.3731
79.7429
80.9674
82.0813
83.1262
84.141
85.1611
86.2099
87.3069
88.4627
89.6793
90.9534
92.2775
93.642
95.0348
96.4404
97.842
99.2023
100.467
101.499
102.109
37.5801
43.7531
48.6073
53.6728
58.4439
62.6052
66.1012
69.0258
71.497
73.6103
75.4366
77.0258
78.4209
79.659
80.7814
81.8255
82.8346
83.8414
84.8762
85.957
87.0923
88.2856
89.5337
90.8294
92.1628
93.5224
94.8941
96.2604
97.5855
98.8173
99.8209
100.413
36.5561
42.5125
47.1404
52.0158
56.7015
60.8738
64.4336
67.4413
69.9952
72.1756
74.0495
75.6759
77.0991
78.3634
79.501
80.5545
81.5616
82.5644
83.5862
84.6486
85.7646
86.9357
88.1592
89.428
90.7323
92.0615
93.3987
94.7312
96.0224
97.2226
98.1976
98.772
35.5166
41.249
45.6406
50.3106
54.9044
59.095
62.7302
65.8204
68.4461
70.6942
72.6337
74.3132
75.7817
77.0734
78.2337
79.2979
80.3128
81.3123
82.3275
83.3811
84.4807
85.6317
86.8313
88.0727
89.3464
90.6422
91.9461
93.2433
94.4991
95.6666
96.6133
97.17
34.3116
39.8278
43.9656
48.3996
52.874
57.0776
60.8139
64.0429
66.8096
69.1701
71.1865
72.9286
74.4425
75.7804
76.9698
78.0588
79.0837
80.0907
81.1013
82.1406
83.2254
84.3572
85.5341
86.7496
87.9953
89.2612
90.5295
91.7934
93.0154
94.1524
95.0706
95.6093
33.041
38.3492
42.2251
46.4065
50.7508
54.9779
58.8375
62.2069
65.0881
67.5552
69.6786
71.5018
73.0884
74.47
75.7035
76.8172
77.8634
78.8751
79.8883
80.9289
82.0027
83.1179
84.2731
85.462
86.6761
87.9063
89.1424
90.37
91.557
92.6601
93.5498
94.0705
31.5042
36.6073
40.1859
44.0519
48.1957
52.4018
56.3988
60.0017
63.1437
65.8147
68.0686
70.0071
71.6733
73.1371
74.4165
75.5752
76.6466
77.6813
78.6998
79.7289
80.7924
81.8918
83.0262
84.1906
85.3787
86.5814
87.7787
88.9731
90.1257
91.1993
92.0599
92.5616
29.815
34.7381
38.0284
41.5708
45.5058
49.7125
53.8917
57.7263
61.0539
63.9161
66.3741
68.4414
70.2209
71.7447
73.1019
74.3061
75.4175
76.4668
77.4983
78.5431
79.603
80.6901
81.8055
82.9439
84.0974
85.2602
86.4263
87.5832
88.6996
89.7374
90.5673
91.0513
27.6244
32.3739
35.3141
38.4006
41.9498
45.997
50.3114
54.5578
58.4347
61.7031
64.3898
66.6863
68.621
70.3047
71.7339
73.0102
74.1661
75.2609
76.3126
77.3481
78.4023
79.4775
80.5736
81.6882
82.8187
83.9568
85.0793
86.202
87.2819
88.2904
89.0902
89.5525
25.0101
29.6828
32.3575
35.0532
38.265
42.2648
46.8394
51.4041
55.4995
59.1498
62.3015
64.8333
66.9637
68.7246
70.2889
71.6463
72.8726
73.9952
75.0723
76.1436
77.205
78.273
79.3537
80.4426
81.5324
82.6232
83.7125
84.7955
85.8378
86.8074
87.5723
88.0167
21.1782
25.8848
28.16
30.1373
32.4897
35.7239
40.227
45.7343
51.3554
55.9172
59.4695
62.5137
64.9602
67.0541
68.7445
70.218
71.5144
72.7154
73.8357
74.9003
75.9603
77.0213
78.0832
79.1468
80.2175
81.286
82.3284
83.3719
84.375
85.3129
86.0456
86.4658
15.7787
20.9154
23.3683
25.0722
26.9191
30.7166
35.7239
41.1102
46.0647
51.5517
56.453
59.9689
62.8598
65.077
67.0186
68.642
70.0671
71.3186
72.4803
73.609
74.6925
75.7523
76.8026
77.8414
78.8606
79.8711
80.8688
81.8727
82.8315
83.7272
84.4181
84.8173
5.67238
10.6451
11.7125
11.9979
11.1569
5.90662
12.9582
25.6124
38.8155
46.2402
51.4951
56.4783
59.9811
62.9219
65.1116
66.9429
68.4784
69.8614
71.1053
72.2317
73.3183
74.3774
75.409
76.4169
77.4203
78.4095
79.3642
80.312
81.2316
82.0891
82.741
83.1139
9.22797
5.36224
5.26584
11.56
17.0236
16.7409
6.66921
5.75208
16.6652
34.3552
46.0415
51.7372
56.7697
60.0398
62.7825
64.9151
66.7111
68.1933
69.5052
70.7417
71.8774
72.9431
73.9667
74.9501
75.8854
76.7984
77.6732
78.5929
79.4509
80.2572
80.8616
81.2049
12.8783
17.1993
18.2906
17.9977
17.1653
12.1138
5.2368
8.92084
11.7864
22.8014
34.5296
46.6765
51.8832
56.8413
60.0972
62.6705
64.6484
66.3653
67.8348
69.0756
70.2221
71.2963
72.3015
73.2429
74.1615
75.055
75.9098
76.7241
77.5473
78.3135
78.8573
79.1698
19.9567
24.5393
26.5671
27.5068
27.1949
25.7273
22.6536
18.7717
19.9287
12.1283
11.8998
29.1074
45.4279
51.549
56.3675
59.6035
62.2007
64.1365
65.7328
67.1784
68.42
69.5148
70.5147
71.4267
72.2501
73.0271
73.7176
74.5455
75.2747
75.9509
76.4425
76.7159
22.1438
27.125
29.8332
31.8297
33.0041
33.1881
32.0849
29.2389
24.2704
20.474
18.2459
20.9248
32.1386
46.0218
51.8703
56.2632
59.1229
61.5288
63.4486
64.905
66.1739
67.2927
68.2748
69.1265
69.9192
70.6909
71.4175
72.0202
72.7158
73.3822
73.7722
73.9905
22.5666
27.6576
30.5789
32.9398
34.7063
35.8574
36.3326
35.9425
34.1703
29.8372
25.872
28.2334
23.5324
33.4013
44.5692
50.3652
55.1106
58.0641
60.2682
62.1612
63.6246
64.7923
65.7746
66.5734
67.2153
67.766
68.1496
68.8531
69.4111
69.8551
70.1569
70.3403
21.9411
27.1574
30.2256
32.7954
34.829
36.3186
37.2669
37.6623
37.3844
35.8761
31.5857
31.1295
16.7749
12.9093
34.5874
45.3917
49.6731
53.7409
56.6598
58.5418
60.0627
61.2829
62.2413
62.9523
63.5036
64.1195
64.6432
64.8788
65.3431
65.9212
66.1035
66.1616
20.535
25.8783
29.0348
31.7305
33.9386
35.6577
36.9073
37.7195
38.1129
37.9873
36.7872
33.1702
26.6733
19.0414
7.43674
27.6824
41.802
47.1885
50.9942
53.9716
55.9376
57.2609
58.2374
58.7965
59.0566
59.1299
58.9628
59.342
59.7188
59.6198
59.4443
59.5343
18.6726
24.0991
27.2781
30.0164
32.3052
34.1584
35.6031
36.6933
37.5012
38.0765
38.3164
37.6241
34.6673
30.6808
15.0762
15.4975
26.7523
39.4342
44.258
47.0871
49.0358
50.5245
51.3723
51.8802
51.782
52.2964
52.2789
52.2245
51.5399
52.3243
52.6952
52.8703
16.5145
21.9198
25.0255
27.7107
29.9942
31.9122
33.506
34.83
35.9627
36.9799
37.8988
38.5482
38.2424
35.2426
25.5653
26.3126
17.5918
17.928
33.0176
38.4813
42.3058
43.4601
44.5819
44.7331
43.0745
42.5207
42.5267
39.4586
40.9809
39.3943
36.7202
35.8483
14.3127
19.5624
22.4937
25.0277
27.2158
29.1174
30.7898
32.2951
33.7061
35.0979
36.4962
37.8181
38.7789
38.4406
35.4871
27.8705
19.4325
15.3298
27.9577
21.0319
20.139
32.0616
24.6958
25.8569
26.6694
22.5842
21.0254
28.3739
34.552
9.09557
21.2125
32.6672
12.3596
17.3343
20.0172
22.3293
24.3551
26.173
27.8518
29.4563
31.0508
32.6986
34.4402
36.234
37.9023
39.0584
39.0417
35.7816
28.4647
24.5931
13.1828
29.4358
26.2615
38.7798
20.9084
23.7027
36.5273
29.1671
25.3432
34.382
34.7734
19.5469
29.7723
37.9847
10.8398
15.4684
17.8852
19.957
21.797
23.4969
25.1297
26.7552
28.4244
30.1829
32.0736
34.1054
36.2019
38.1182
39.4493
39.4402
37.5913
32.4029
25.6245
30.7802
25.2967
34.28
17.6909
34.2341
32.5531
33.577
32.988
39.3026
34.7154
31.9665
31.2244
30.3242
9.71608
14.1015
16.2925
18.1623
19.8463
21.4392
23.0071
24.5962
26.2419
27.9771
29.8406
31.8705
34.0739
36.3546
38.4374
39.8484
40.3084
38.9328
35.7552
31.7694
28.5384
30.4876
28.9783
29.7922
35.4177
34.6358
32.8243
36.4019
40.7623
40.1473
40.2992
39.7095
9.12095
13.3177
15.3508
17.091
18.6817
20.2077
21.7183
23.241
24.7969
26.4116
28.122
29.9779
32.0282
34.2808
36.6268
38.7552
40.2724
40.7042
39.9554
38.5026
37.8619
37.0719
38.6495
36.7241
42.442
41.3661
38.3358
42.1956
44.0455
43.7468
43.7759
43.9027
8.9547
13.0659
15.0312
16.7265
18.2929
19.7984
21.2724
22.7265
24.1717
25.6299
27.1363
28.7387
30.4955
32.4614
34.6461
36.9272
39.0044
40.4045
40.9251
40.9078
40.9867
40.913
41.5581
40.2879
43.7196
42.7655
40.6291
43.3532
43.8685
43.854
44.0844
44.5114
9.14315
13.2478
15.2187
16.9378
18.5337
20.0557
21.5165
22.9178
24.2671
25.5837
26.899
28.2539
29.6989
31.2943
33.0967
35.1114
37.2172
39.1004
40.4473
41.267
41.7986
41.9018
42.1338
41.2927
43.3365
42.4982
41.1957
42.7521
42.634
42.9056
43.1176
43.5956
9.58905
13.7386
15.7627
17.5505
19.2112
20.7773
22.2494
23.624
24.9076
26.1194
27.2879
28.4466
29.6341
30.8987
32.2982
33.8842
35.6573
37.4931
39.167
40.506
41.4024
41.7101
41.75
41.1491
42.132
41.298
40.4637
41.0942
40.7059
41.1461
41.3047
41.8154
10.2363
14.4601
16.56
18.4359
20.176
21.7979
23.2955
24.6644
25.9129
27.0617
28.137
29.1651
30.1731
31.1935
32.2709
33.4574
34.7959
36.2782
37.8064
39.2174
40.2655
40.7242
40.7245
40.2348
40.5312
39.6832
39.0635
39.0917
38.6259
39.2031
39.3567
39.9163
11.0309
15.356
17.5437
19.5134
21.334
23.0127
24.5405
25.9158
27.1513
28.2704
29.2978
30.2544
31.1567
32.0234
32.882
33.7717
34.7361
35.8059
36.9644
38.121
39.0602
39.5385
39.5455
39.1284
39.0029
38.1799
37.6516
37.3665
36.9569
37.6162
37.8297
38.4442
11.8813
16.3765
18.6602
20.7233
22.6205
24.3529
25.9123
27.3018
28.54
29.6531
30.665
31.5927
32.4452
33.2306
33.9628
34.6643
35.3661
36.1008
36.8819
37.6757
38.3482
38.7094
38.6791
38.2873
37.9244
37.15
36.6609
36.2714
35.9823
36.6813
36.999
37.6549
12.8713
17.4896
19.8673
22.0208
23.9904
25.7735
27.3649
28.7741
30.0256
31.1486
32.1662
33.0924
33.9313
34.6844
35.3563
35.9567
36.5012
37.0113
37.5043
37.9746
38.353
38.5206
38.3912
37.9724
37.4753
36.7469
36.2764
35.895
35.7426
36.4527
36.8891
37.5681
13.615
14.04
14.5298
14.9239
15.3044
15.6073
15.8708
16.0748
16.2383
16.3532
16.4309
16.4695
16.4733
16.4433
16.3838
16.2974
16.1862
16.0553
15.9155
15.7961
15.7884
15.9007
16.0374
16.1669
16.2775
16.3638
16.4234
16.4537
16.4507
16.413
16.3365
16.223
16.0614
15.8596
15.5988
15.2994
14.9221
14.5312
14.0443
13.6204
18.3555
18.7968
19.3064
19.7184
20.1169
20.4409
20.7269
20.9556
21.1447
21.2872
21.3927
21.4601
21.4923
21.4891
21.4529
21.3857
21.2884
21.1648
21.0251
20.9005
20.8935
21.0117
21.149
21.2717
21.3689
21.4363
21.4729
21.4767
21.4454
21.3789
21.2745
21.1334
20.9458
20.7192
20.4354
20.1144
19.7188
19.3096
18.8025
18.362
20.8074
21.2741
21.8136
22.2512
22.6778
23.0321
23.3524
23.6182
23.8476
24.0332
24.1834
24.2972
24.3765
24.4197
24.4271
24.3995
24.3372
24.2425
24.1245
24.013
24.0067
24.1127
24.229
24.3233
24.3859
24.414
24.4072
24.3647
24.2863
24.1733
24.024
23.8395
23.6114
23.3473
23.0287
22.677
22.2528
21.8181
21.281
20.8152
23.0191
23.5049
24.067
24.5237
24.9744
25.3556
25.7076
26.0087
26.277
26.5053
26.6999
26.8596
26.9857
27.0756
27.1279
27.1417
27.1167
27.0545
26.9642
26.8751
26.87
26.9545
27.0435
27.1058
27.1314
27.1185
27.0671
26.9781
26.8528
26.6938
26.5
26.2724
26.005
25.705
25.3542
24.9749
24.5262
24.0717
23.5119
23.0271
25.0288
25.5185
26.0877
26.5503
27.0122
27.4081
27.7798
28.1051
28.4011
28.6618
28.8922
29.0895
29.2543
29.3828
29.4726
29.5218
29.5291
29.4961
29.4321
29.3657
29.3618
29.4242
29.4874
29.5209
29.5145
29.4665
29.3777
29.2503
29.0863
28.8896
28.6597
28.3994
28.1038
27.7789
27.4078
27.0129
26.5522
26.091
25.5235
25.0346
26.8356
27.3126
27.8748
28.331
28.7926
29.193
29.5749
29.9169
30.2353
30.5225
30.783
31.0124
31.21
31.3714
31.4936
31.5731
31.6084
31.6006
31.5591
31.511
31.5079
31.5528
31.5939
31.6024
31.5686
31.4904
31.3697
31.2094
31.0126
30.7839
30.5237
30.2364
29.9177
29.5753
29.1932
28.7928
28.3313
27.8755
27.314
26.8371
28.4389
28.8917
29.4393
29.8834
30.3402
30.7425
31.1341
31.4923
31.8315
32.1437
32.4315
32.6901
32.9172
33.1083
33.2588
33.365
33.4244
33.4379
33.4144
33.3794
33.3769
33.4094
33.4329
33.4207
33.3631
33.2587
33.1097
32.9202
32.6939
32.4359
32.1482
31.8357
31.4958
31.1364
30.7436
30.34
29.8822
29.4371
28.889
28.4351
29.8541
30.2786
30.8111
31.2442
31.6989
32.1074
32.5107
32.8861
33.246
33.5818
33.8949
34.1801
34.434
34.6514
34.8269
34.9561
35.0357
35.0665
35.0565
35.0302
35.0282
35.0527
35.0632
35.0343
34.9568
34.8298
34.6562
34.4406
34.1877
33.9032
33.5901
33.2537
32.8929
32.5158
32.1107
31.6997
31.2428
30.8069
30.2725
29.8453
31.1102
31.5081
32.0292
32.457
32.9141
33.3314
33.7473
34.1396
34.5188
34.8762
35.2122
35.5208
35.798
36.0379
36.2346
36.383
36.4792
36.5232
36.523
36.502
36.5004
36.5201
36.5215
36.4798
36.3863
36.2407
36.0463
35.8084
35.5325
35.2246
34.8886
34.5305
34.1502
33.7559
33.3375
32.917
32.4566
32.0247
31.5001
31.0976
32.2383
32.6128
33.1267
33.5531
34.0142
34.4408
34.8685
35.276
35.6722
36.0483
36.4038
36.7323
37.029
37.2876
37.5016
37.6654
37.7745
37.8285
37.835
37.8171
37.8157
37.8331
37.8284
37.7774
37.6715
37.5109
37.2996
37.0434
36.7482
36.4206
36.0653
35.6884
35.2909
34.8811
34.4503
34.02
33.5546
33.123
32.6041
32.2232
33.2603
33.6129
34.1218
34.5475
35.0123
35.447
35.885
36.3056
36.716
37.1077
37.4792
37.824
38.1365
38.4101
38.6379
38.8137
38.9327
38.9942
39.0053
38.9894
38.9884
39.0044
38.9958
38.9379
38.8227
38.6506
38.426
38.1551
37.8444
37.5007
37.1295
36.7371
36.3252
35.902
35.4605
35.0215
34.5516
34.1198
33.6044
33.2434
34.1876
34.5174
35.0202
35.4443
35.912
36.3532
36.7999
37.2312
37.6533
38.0578
38.4424
38.8001
39.1254
39.4108
39.6495
39.8348
39.9618
40.0295
40.045
40.0314
40.0307
40.0452
40.0329
39.9695
39.8469
39.6659
39.431
39.1485
38.8256
38.469
38.0849
37.6797
37.2558
36.8216
36.3713
35.925
35.4515
35.0202
34.5095
34.1694
35.022
35.326
35.8208
36.2424
36.7118
37.1586
37.6124
38.0528
38.4847
38.8997
39.2948
39.663
39.9984
40.2933
40.5407
40.7338
40.8678
40.9417
40.9625
40.9528
40.9527
40.964
40.9472
40.8782
40.7494
40.5611
40.318
40.0266
39.6938
39.327
38.9324
38.5167
38.083
37.6395
37.1814
36.7291
36.2531
35.8231
35.3189
35.0021
35.7621
36.0363
36.5204
36.9383
37.4086
37.8603
38.3204
38.7688
39.2093
39.6331
40.037
40.4139
40.7573
41.0599
41.3144
41.5142
41.6547
41.7353
41.763
41.7593
41.7598
41.7661
41.7431
41.6683
41.5335
41.3391
41.0895
40.7908
40.4503
40.0752
39.6719
39.2473
38.8049
38.3532
37.8883
37.4304
36.9526
36.5249
36.0296
35.7398
36.408
36.6454
37.1149
37.5277
37.9982
38.4545
38.9209
39.3769
39.8253
40.2572
40.6688
41.053
41.4033
41.7122
41.9727
42.1787
42.3257
42.4136
42.4498
42.4535
42.4547
42.4547
42.4242
42.3426
42.2021
42.0022
41.747
41.4424
41.0954
40.7132
40.3023
39.8697
39.4192
38.9595
38.4879
38.0246
37.5454
37.1213
36.6383
36.3816
36.9616
37.1504
37.5997
38.0053
38.4752
38.9362
39.409
39.8729
40.329
40.7686
41.1875
41.5784
41.9348
42.2494
42.5156
42.7273
42.8809
42.9767
43.022
43.0334
43.0354
43.0289
42.9902
42.9014
42.7549
42.5499
42.2896
41.9798
41.627
41.2384
40.8204
40.3798
39.9213
39.4534
38.9749
38.506
38.0259
37.6071
37.141
36.9283
37.4267
37.5485
37.9691
38.364
38.8322
39.2977
39.7772
40.2494
40.7137
41.1613
41.5873
41.9847
42.3469
42.6669
42.9384
43.1558
43.3162
43.4199
43.4741
43.4927
43.4954
43.483
43.4363
43.3405
43.188
42.9779
42.7128
42.398
42.0397
41.6447
41.2194
40.7708
40.3037
39.8271
39.341
38.8665
38.3866
37.9761
37.535
37.384
37.81
37.8367
38.2133
38.594
39.0583
39.5282
40.0147
40.4956
40.9687
41.4247
41.8583
42.2623
42.6304
42.9558
43.2326
43.4557
43.6225
43.7338
43.7961
43.8209
43.8243
43.807
43.7531
43.6506
43.4923
43.2771
43.0073
42.6874
42.3234
41.9217
41.4889
41.0317
40.5553
40.0691
39.5751
39.0947
38.617
38.2176
37.8168
37.7557
38.1175
38.0155
38.3254
38.6826
39.1406
39.6141
40.1077
40.5978
41.0802
41.5452
41.9867
42.3978
42.7721
43.1032
43.3853
43.614
43.787
43.9053
43.9746
44.0048
44.0089
43.9875
43.9276
43.8188
43.655
43.4347
43.1599
42.8347
42.4646
42.0557
41.6145
41.1478
40.6616
40.1652
39.663
39.1777
38.7039
38.3258
37.989
38.0539
38.3419
38.0811
38.2996
38.6193
39.0658
39.5415
40.0415
40.5409
41.0329
41.5073
41.9574
42.3761
42.757
43.094
43.3816
43.6158
43.7947
43.9192
43.9945
44.029
44.0337
44.0091
43.9441
43.8299
43.6609
43.4355
43.1553
42.8244
42.4475
42.0309
41.5807
41.1041
40.6073
40.1008
39.5908
39.1019
38.6387
38.2975
38.053
38.2809
38.45
38.0191
38.1291
38.3976
38.8241
39.3007
39.8056
40.3137
40.8148
41.2985
41.757
42.1834
42.571
42.914
43.2072
43.4468
43.631
43.7609
43.8412
43.8791
43.8843
43.8574
43.7883
43.6693
43.4954
43.265
42.9796
42.6425
42.2587
41.8339
41.3746
40.8879
40.3811
39.8649
39.3492
38.8588
38.4157
38.128
37.9975
38.407
38.389
37.8066
37.809
38.0176
38.4159
38.8873
39.3975
39.9126
40.4219
40.9136
41.38
41.8134
42.2073
42.5558
42.854
43.0983
43.2871
43.4214
43.5055
43.5459
43.5517
43.5231
43.4508
43.3282
43.1502
42.9154
42.6249
42.2822
41.8917
41.4595
40.9918
40.496
39.9803
39.4562
38.9347
38.4496
38.0364
37.8121
37.7972
38.3713
38.1137
37.4186
37.3344
37.4889
37.858
38.3204
38.8325
39.3521
39.867
40.3644
40.8363
41.2748
41.6733
42.0259
42.3278
42.5755
42.7672
42.9043
42.9908
43.0328
43.0391
43.0096
42.9358
42.8109
42.6303
42.3925
42.0985
41.7516
41.3562
40.9184
40.4445
39.9426
39.4207
38.8922
38.3692
37.8945
37.5131
37.3473
37.424
38.1154
37.6406
36.8741
36.7325
36.8441
37.1861
37.6354
38.1447
38.6675
39.1849
39.685
40.1593
40.6
41.0003
41.3545
41.6577
41.9063
42.0988
42.2364
42.3232
42.3659
42.3726
42.3435
42.2702
42.1456
41.965
41.7267
41.4318
41.0834
40.6863
40.2463
39.7699
39.2652
38.741
38.2097
37.6906
37.2302
36.8774
36.7555
36.8879
37.6427
36.9597
36.1885
36.0363
36.132
36.4608
36.9012
37.4065
37.9289
38.4448
38.9436
39.4162
39.855
40.2534
40.6054
40.9062
41.1523
41.3423
41.4771
41.5617
41.6031
41.6104
41.5837
41.5137
41.3928
41.2157
40.9807
40.6888
40.343
39.9482
39.5102
39.0359
38.5328
38.0107
37.4813
36.9687
36.5218
36.1903
36.098
36.2658
37.069
36.2754
35.5191
35.3751
35.4682
35.7906
36.223
36.7214
37.2379
37.748
38.2409
38.7074
39.1401
39.5323
39.878
40.1725
40.4121
40.5955
40.724
40.8028
40.841
40.8491
40.8274
40.7649
40.6523
40.4834
40.2565
39.9725
39.6345
39.2473
38.8168
38.3499
37.8541
37.3392
36.8171
36.313
35.8754
35.5506
35.4592
35.6117
36.3844
35.7364
35.013
34.8908
34.991
35.3111
35.7353
36.2228
36.7273
37.2259
37.7073
38.1624
38.5837
38.9645
39.2989
39.5822
39.8108
39.9828
40.0999
40.1684
40.1998
40.2087
40.1953
40.1449
40.0453
39.8893
39.6749
39.4034
39.0779
38.7031
38.2849
37.8302
37.3468
36.8447
36.3364
35.8464
35.4224
35.1081
35.0229
35.1699
35.9321
35.58
34.8796
34.7638
34.8562
35.1613
35.5655
36.0304
36.5121
36.9909
37.454
37.8918
38.2966
38.6616
38.9806
39.249
39.4628
39.62
39.7221
39.7757
39.7963
39.8058
39.8045
39.7707
39.6879
39.5484
39.3502
39.0949
38.7856
38.4272
38.0254
37.5866
37.1189
36.6315
36.1374
35.6574
35.2361
34.913
34.8027
34.906
35.6042
35.9022
35.2044
35.0823
35.1533
35.4305
35.8009
36.23
36.6764
37.1247
37.56
37.9723
38.3532
38.6958
38.9939
39.2425
39.4377
39.5768
39.6604
39.6952
39.7004
39.7098
39.7243
39.7098
39.6458
39.5246
39.345
39.1087
38.8193
38.4812
38.1
37.6822
37.2353
36.7678
36.2932
35.8263
35.4079
35.0727
34.929
34.972
35.5748
36.3398
35.6956
35.6045
35.684
35.9539
36.3047
36.7077
37.1279
37.5496
37.9587
38.3454
38.7015
39.0204
39.2962
39.5239
39.6995
39.8201
39.8857
39.9017
39.889
39.8947
39.9216
39.9217
39.8718
39.7653
39.6015
39.3824
39.1117
38.7942
38.4354
38.0418
37.6216
37.1846
36.7451
36.3186
35.9422
35.6481
35.5471
35.6262
36.271
36.9202
36.3331
36.2797
36.3719
36.6388
36.9738
37.3545
37.7497
38.1455
38.5283
38.8893
39.2206
39.5158
39.7696
39.9772
40.1346
40.2391
40.2902
40.2928
40.2683
40.2724
40.3094
40.3212
40.2844
40.1924
40.045
39.8444
39.5942
39.2987
38.9634
38.5945
38.1996
37.7879
37.3729
36.9692
36.6071
36.3132
36.1948
36.2311
36.8085
37.2837
36.7389
36.7143
36.8226
37.0954
37.4283
37.8028
38.1894
38.5745
38.9458
39.2946
39.6135
39.8965
40.1385
40.3351
40.4823
40.5776
40.6205
40.6157
40.5842
40.5841
40.622
40.6372
40.6049
40.5191
40.3793
40.188
39.9484
39.6654
39.3442
38.9914
38.6151
38.225
37.8356
37.4624
37.1386
36.8843
36.8058
36.8749
37.4837
43.491
51.3113
57.54
63.6666
68.9559
73.2462
76.6841
79.4628
81.7377
83.6432
85.299
86.7815
88.1281
89.3728
90.5467
91.6802
92.804
93.9462
95.1303
96.3736
97.6856
99.0686
100.519
102.031
103.594
105.194
106.816
108.436
110.015
111.485
112.693
113.408
42.782
50.3165
56.3452
62.3308
67.5459
71.8006
75.2197
77.9899
80.2646
82.1765
83.8407
85.3271
86.6655
87.8968
89.053
90.1654
91.2657
92.3828
93.5413
94.7575
96.0406
97.3934
98.8125
100.291
101.819
103.383
104.967
106.55
108.091
109.525
110.702
111.398
41.9892
49.2772
55.1196
60.9664
66.109
70.3331
73.7417
76.5134
78.7986
80.7265
82.4046
83.8961
85.2305
86.4505
87.5899
88.6824
89.7609
90.8547
91.9873
93.1764
94.4315
95.7547
97.1428
98.5883
100.082
101.61
103.157
104.702
106.205
107.604
108.75
109.427
41.1846
48.2357
53.8895
59.5915
64.6585
68.8532
72.2545
75.0329
77.3367
79.2887
80.9862
82.487
83.8237
85.0355
86.1627
87.2386
88.2969
89.3679
90.4774
91.6415
92.8693
94.1637
95.5214
96.9347
98.394
99.8866
101.397
102.905
104.37
105.733
106.849
107.507
40.3141
47.1443
52.6105
58.1666
63.1624
67.3392
70.7495
73.5516
75.8876
77.8718
79.5931
81.1066
82.4481
83.6567
84.7729
85.8336
86.8743
87.9262
89.0125
90.1519
91.3542
92.6212
93.9495
95.3319
96.7585
98.2171
99.692
101.163
102.591
103.92
105.006
105.645
39.4541
46.0609
51.3305
56.7312
61.6523
65.8135
69.2361
72.0633
74.4328
76.452
78.2015
79.7342
81.0888
82.3026
83.4152
84.4664
85.4923
86.525
87.5923
88.7105
89.8882
91.1288
92.4289
93.7811
95.1751
96.5995
98.0383
99.4734
100.866
102.16
103.217
103.837
38.5159
44.909
49.9769
55.2164
60.0651
64.2245
67.6816
70.5585
72.9814
75.0474
76.8322
78.3887
79.757
80.979
82.0908
83.1344
84.1489
85.1686
86.2167
87.313
88.4685
89.6843
90.9573
92.2807
93.6438
95.0357
96.4409
97.8407
99.1976
100.459
101.486
102.088
37.5932
43.7654
48.6195
53.6848
58.4555
62.6165
66.1119
69.0361
71.5067
73.6184
75.4416
77.0287
78.4247
79.6654
80.7899
81.8351
82.8437
83.8498
84.8841
85.9642
87.0981
88.2903
89.5374
90.8319
92.1646
93.5233
94.8932
96.2582
97.5804
98.8089
99.8064
100.39
36.5599
42.517
47.1456
52.0218
56.7088
60.8824
64.4433
67.4517
70.0063
72.1882
74.066
75.6953
77.1176
78.3777
79.5116
80.5627
81.5691
82.5716
83.5927
84.6544
85.77
86.9403
88.1625
89.4301
90.7332
92.061
93.3987
94.7291
96.0165
97.2134
98.1819
98.7473
35.5309
41.2625
45.6539
50.3233
54.9163
59.1062
62.7412
65.8317
68.4574
70.7044
72.6388
74.3134
75.7814
77.0774
78.2411
79.3078
80.3228
81.3213
82.3358
83.3882
84.4861
85.6358
86.8342
88.0742
89.3473
90.6422
91.9439
93.2403
94.4924
95.6562
96.5961
97.1426
34.3149
39.8318
43.9706
48.4065
52.8836
57.0896
60.8267
64.0553
66.822
69.1835
71.2054
72.9528
74.4669
75.7985
76.9829
78.0674
79.0903
80.0968
81.1071
82.146
83.2304
84.361
85.5364
86.7505
87.9942
89.2581
90.5286
91.7896
93.0074
94.1408
95.0505
95.5783
33.0579
38.3646
42.2396
46.4187
50.7594
54.9837
58.844
62.2159
65.098
67.5638
69.6799
71.4968
73.0823
74.4716
75.7088
76.8267
77.8747
78.8855
79.8973
80.9359
82.0074
83.1209
84.2743
85.4617
86.6757
87.9058
89.1389
90.3662
91.5478
92.6481
93.5285
94.0355
31.5069
36.6114
40.1921
44.0633
48.2154
52.4287
56.4246
60.0216
63.1619
65.8349
68.0987
70.0425
71.7073
73.1582
74.433
75.5855
76.6522
77.6855
78.7039
79.7333
80.7965
81.8945
83.0272
84.1897
85.3746
86.5741
87.7761
88.9675
90.1152
91.1844
92.0341
92.522
29.8394
34.7593
38.0462
41.5799
45.4996
49.692
53.8765
57.7266
61.0582
63.9164
66.3583
68.4201
70.2032
71.7457
73.1054
74.3142
75.4302
76.4797
77.5089
78.5501
79.6068
80.6916
81.8042
82.9406
84.0953
85.2589
86.4215
87.5786
88.687
89.7233
90.5406
91.0052
27.63
32.3819
35.3278
38.4314
42.0142
46.0974
50.3919
54.5969
58.4625
61.7364
64.4485
66.7491
68.6736
70.3264
71.7523
73.0233
74.171
75.2625
76.3142
77.351
78.4051
79.4784
80.573
81.685
82.8101
83.9429
85.0735
86.1943
87.2684
88.2709
89.056
89.5021
25.0825
29.7486
32.4124
35.0753
38.2005
42.0719
46.7128
51.3847
55.5009
59.1428
62.2476
64.7757
66.9227
68.7287
70.2942
71.653
72.887
74.0114
75.0852
76.151
77.2079
78.2727
79.3482
80.4343
81.5274
82.6205
83.7074
84.7892
85.8191
86.7907
87.537
87.9539
21.2305
25.9149
28.2025
30.2453
32.8704
36.6378
40.725
45.8267
51.3822
55.9387
59.5781
62.622
65.0424
67.0697
68.7591
70.2338
71.5188
72.7139
73.8343
74.9008
75.9609
77.019
78.0799
79.1404
80.2022
81.2627
82.3159
83.3625
84.3589
85.2871
86.0008
86.3999
16.3105
21.4631
23.8885
25.4947
25.8782
26.2448
33.9087
41.0081
46.1076
51.6456
56.3471
59.8698
62.7918
65.0983
67.0356
68.6482
70.0835
71.3387
72.4955
73.6174
74.6945
75.7501
76.7913
77.825
78.8509
79.8643
80.866
81.8635
82.8022
83.7075
84.369
84.7273
5.2828
11.0683
12.2729
15.3339
19.0603
19.6849
21.7654
25.9196
38.7324
45.7896
51.6239
56.5812
60.0664
62.8968
65.1032
66.9589
68.4818
69.8568
71.1014
72.2286
73.3155
74.3697
75.4011
76.4049
77.3955
78.3723
79.3373
80.3023
81.213
82.0528
82.6812
83.0264
9.10723
4.46152
4.78709
4.65934
11.7292
14.9774
14.3086
20.8697
17.7858
36.8708
46.1104
51.7828
56.7545
60.1482
62.8439
64.9269
66.7328
68.2185
69.5216
70.7512
71.8787
72.9392
73.9467
74.9209
75.8675
76.7831
77.6796
78.5791
79.402
80.2354
80.787
81.0682
11.2041
15.4664
16.4519
16.1794
15.5089
13.8404
5.84983
18.988
20.2225
9.31271
33.134
45.9642
51.7091
56.6125
59.9964
62.67
64.6445
66.3557
67.8299
69.0683
70.2145
71.2803
72.2845
73.2191
74.1216
74.9922
75.8521
76.7162
77.5267
78.2562
78.773
79.0497
19.8762
24.2873
26.1505
26.895
26.3693
24.5618
21.0388
15.6959
12.5609
10.8777
23.5572
30.5984
45.9346
52.0391
56.5853
59.6594
62.2474
64.1739
65.7472
67.1882
68.4207
69.5082
70.4802
71.3752
72.2175
72.9964
73.7436
74.5274
75.1912
75.9334
76.3249
76.495
22.1715
27.1612
29.8966
31.9447
33.2154
33.5938
32.8321
30.2838
25.0912
25.937
29.8079
29.8502
32.8655
45.2295
51.4311
56.1507
59.0764
61.5059
63.4476
64.892
66.1595
67.2665
68.24
69.074
69.8548
70.5717
71.3058
72.0156
72.6925
73.2781
73.6308
73.8025
23.0608
28.1587
31.1115
33.5047
35.2996
36.4767
36.9927
36.6879
34.9787
30.2106
26.8497
25.0494
14.0888
32.3567
45.3503
50.745
55.305
58.1464
60.2648
62.1667
63.6271
64.7804
65.7088
66.4719
67.1518
67.6971
68.1805
68.8408
69.2673
69.8533
69.9695
69.9681
22.5217
27.7608
30.8753
33.4968
35.5861
37.1359
38.1503
38.6219
38.4622
37.2199
33.4376
25.916
23.0883
32.4894
32.0708
44.2201
49.4162
53.6849
56.7007
58.521
60.0339
61.2554
62.1695
62.8079
63.3984
63.8603
64.499
64.8704
65.3557
65.7248
65.8134
65.7829
21.0106
26.3847
29.5834
32.3238
34.5803
36.3528
37.6648
38.556
39.0564
39.0976
38.2641
35.1795
30.8268
33.6349
33.06
33.1074
42.8899
47.4902
50.8281
53.9347
55.9597
57.2399
58.0856
58.5617
58.9244
58.9115
58.7468
59.4094
59.5045
59.626
59.1797
58.9634
18.98
24.4422
27.6586
30.4367
32.7698
34.6739
36.1775
37.3367
38.2317
38.9211
39.3083
38.7739
35.2015
31.6015
31.9863
35.3876
30.7651
39.0477
44.9425
47.0823
48.9459
50.5829
51.2097
51.3099
51.5506
51.7207
53.0748
52.0247
52.4033
52.1751
52.2157
51.4353
16.7082
22.1431
25.2764
27.9903
30.3056
32.2606
33.8978
35.2729
36.4681
37.5644
38.5763
39.2892
38.771
35.0464
27.8934
28.9821
34.276
23.7466
29.137
38.1006
42.2097
43.7427
44.0578
43.674
43.3437
40.5625
38.0006
39.6202
40.4875
38.3446
35.2502
36.9753
14.4408
19.7154
22.6675
25.2224
27.4331
29.36
31.0625
32.6043
34.0612
35.514
36.9946
38.4076
39.4086
39.1531
35.4253
24.8586
27.6592
8.6715
28.0383
20.4385
20.7409
25.3123
24.5118
29.661
18.2292
30.4691
30.1572
29.8064
43.5302
19.9418
35.5809
41.2718
12.4531
17.4493
20.1482
22.4759
24.5175
26.3519
28.0495
29.6776
31.3042
32.9973
34.8066
36.6938
38.4632
39.7062
39.5078
36.3852
29.291
18.4148
25.3669
26.018
11.1922
25.2608
33.5344
39.4905
28.4907
42.5493
34.7831
38.3566
40.1087
28.4094
36.7899
40.923
10.9153
15.5632
17.9928
20.0762
21.9272
23.6376
25.2816
26.9215
28.612
30.4029
32.3427
34.4433
36.6211
38.6111
39.8978
39.8877
36.9795
32.4789
22.4321
28.3616
17.5176
30.7263
23.3083
32.8092
29.4323
36.7007
29.1781
38.8136
33.1433
38.2585
31.9258
29.0499
9.78076
14.1835
16.384
18.2614
19.9516
21.5501
23.1245
24.7232
26.384
28.1434
30.0433
32.1239
34.3877
36.7197
38.7895
40.1333
40.1473
39.0752
35.8389
31.2928
28.6004
27.8162
30.3208
33.905
34.8938
38.3776
37.6664
37.1826
36.7186
39.7557
41.352
38.4621
9.17437
13.3854
15.4246
17.1683
18.7612
20.2893
21.8039
23.3342
24.9029
26.5372
28.2757
30.1693
32.2658
34.5629
36.9224
39.0175
40.3562
40.8498
40.2785
38.9276
38.2605
36.7493
39.4729
41.8356
41.4505
43.8949
43.4153
42.1629
40.875
43.7883
44.863
42.3166
8.99621
13.1184
15.0864
16.7818
18.3474
19.8534
21.3307
22.7921
24.2493
25.7245
27.2539
28.8872
30.6829
32.6932
34.9154
37.2143
39.2541
40.6969
41.2791
41.283
41.265
40.711
42.0781
43.415
42.7182
44.3583
44.2196
42.6609
41.6918
43.9355
45.0119
43.1241
9.17282
13.2851
15.256
16.9727
18.5664
20.0888
21.5533
22.9621
24.3224
25.6538
26.9884
28.3685
29.8465
31.4839
33.3352
35.4005
37.5412
39.4726
40.8394
41.6095
41.9758
41.7839
42.4746
43.2288
42.5338
43.3892
43.3275