/*--------------------------------*- C++ -*----------------------------------*\
  =========                 |
  \\      /  F ield         | OpenFOAM: The Open Source CFD Toolbox
   \\    /   O peration     | Website:  https://openfoam.org
    \\  /    A nd           | Version:  6
     \\/     M anipulation  |
\*---------------------------------------------------------------------------*/
FoamFile
{
    version     2.0;
    format      ascii;
    class       volVectorField;
    location    "34";
    object      wallShearStress;
}
// * * * * * * * * * * * * * * * * * * * * * * * * * * * * * * * * * * * * * //

dimensions      [0 2 -2 0 0 0 0];

internalField   uniform (0 0 0);

boundaryField
{
    inlet
    {
        type            calculated;
        value           uniform (0 0 0);
    }
    outlet
    {
        type            calculated;
        value           uniform (0 0 0);
    }
    roughCylinder
    {
        type            calculated;
        value           nonuniform List<vector> 
5120
(
(-0.000250753 -0.000357091 -0.000183875)
(-0.000307314 -0.000461458 -4.21416e-05)
(-0.000340848 -0.000555286 -7.93308e-07)
(-0.000386555 -0.000645357 5.39451e-05)
(-0.00044355 -0.00072356 0.000117181)
(-0.000508285 -0.000785422 0.000180735)
(-0.000577292 -0.000828106 0.000240087)
(-0.000645907 -0.000852035 0.000292464)
(-0.000710054 -0.000859685 0.000335773)
(-0.000767648 -0.000856096 0.000369293)
(-0.000818927 -0.000849537 0.000394504)
(-0.000864197 -0.000845674 0.000413312)
(-0.000900468 -0.00084454 0.000424456)
(-0.000931043 -0.000848887 0.000429054)
(-0.000957222 -0.00085793 0.000428139)
(-0.000980348 -0.000870958 0.000422774)
(-0.00100184 -0.000887192 0.000414006)
(-0.00102293 -0.00090598 0.000402732)
(-0.00104457 -0.000926842 0.000389625)
(-0.00106741 -0.000949486 0.000375104)
(-0.00109179 -0.000973734 0.000359374)
(-0.00111784 -0.000999455 0.000342459)
(-0.00114552 -0.00102653 0.000324261)
(-0.00117466 -0.00105477 0.000304585)
(-0.001205 -0.00108396 0.000283162)
(-0.00123621 -0.00111374 0.000259641)
(-0.00126784 -0.00114367 0.000233511)
(-0.00129933 -0.00117308 0.00020411)
(-0.00132975 -0.001201 0.000170198)
(-0.00135779 -0.00122614 0.000130393)
(-0.0013802 -0.00124631 8.24034e-05)
(-0.00139322 -0.00125847 2.78032e-05)
(-0.000269242 -0.000345363 -0.000173696)
(-0.000328913 -0.000446976 -4.46088e-05)
(-0.000365031 -0.000539488 -6.55332e-06)
(-0.000412856 -0.000629273 4.47768e-05)
(-0.000471534 -0.000708491 0.00010538)
(-0.000537821 -0.000772151 0.000167139)
(-0.000608226 -0.000817021 0.000225345)
(-0.000678336 -0.00084338 0.000277101)
(-0.000744672 -0.000854087 0.000320413)
(-0.000805675 -0.000854767 0.00035498)
(-0.000861137 -0.000852289 0.00038219)
(-0.00090995 -0.00085001 0.000402846)
(-0.000949084 -0.000847612 0.000415087)
(-0.000981209 -0.000850863 0.000420271)
(-0.00100892 -0.00085919 0.000419676)
(-0.00103348 -0.000871854 0.000414535)
(-0.00105639 -0.000887961 0.000405944)
(-0.0010789 -0.00090676 0.000394843)
(-0.001102 -0.000927711 0.000381936)
(-0.00112635 -0.000950467 0.000367658)
(-0.0011523 -0.000974818 0.000352226)
(-0.00117997 -0.00100063 0.000335665)
(-0.00120931 -0.00102776 0.000317879)
(-0.00124014 -0.00105603 0.000298666)
(-0.00127219 -0.0010852 0.000277752)
(-0.0013051 -0.00111494 0.000254782)
(-0.00133841 -0.00114479 0.000229242)
(-0.00137151 -0.00117409 0.000200473)
(-0.00140344 -0.00120188 0.000167232)
(-0.00143284 -0.00122688 0.000128172)
(-0.00145631 -0.00124691 8.10087e-05)
(-0.00146998 -0.001259 2.73156e-05)
(-0.000287639 -0.000328521 -0.00015629)
(-0.000350077 -0.000427135 -4.7599e-05)
(-0.000388578 -0.000517578 -1.2982e-05)
(-0.000438116 -0.0006064 3.47349e-05)
(-0.000498167 -0.000686095 9.24151e-05)
(-0.000565845 -0.000751298 0.000152142)
(-0.000637709 -0.000798492 0.000209113)
(-0.000709664 -0.000827923 0.000260396)
(-0.000778727 -0.000842617 0.000304151)
(-0.000843437 -0.000847901 0.000340147)
(-0.000902803 -0.00084906 0.000369151)
(-0.000954888 -0.000848292 0.000391094)
(-0.000997589 -0.000845938 0.000404635)
(-0.00103138 -0.000847634 0.000410342)
(-0.00106066 -0.000855071 0.000410058)
(-0.00108676 -0.000867198 0.00040519)
(-0.00111116 -0.00088301 0.000396829)
(-0.00113518 -0.000901663 0.00038596)
(-0.0011598 -0.000922537 0.000373307)
(-0.00118571 -0.000945239 0.000359334)
(-0.00121326 -0.000969534 0.000344258)
(-0.00124258 -0.000995256 0.000328118)
(-0.0012736 -0.00102226 0.000310802)
(-0.00130613 -0.00105036 0.000292113)
(-0.00133988 -0.00107932 0.00027177)
(-0.00137447 -0.00110882 0.000249413)
(-0.00140943 -0.00113837 0.000224523)
(-0.00144411 -0.00116735 0.000196451)
(-0.00147752 -0.00119481 0.000163948)
(-0.00150825 -0.0012195 0.00012571)
(-0.00153274 -0.00123925 7.94636e-05)
(-0.00154704 -0.00125117 2.6776e-05)
(-0.000303914 -0.000307677 -0.000134355)
(-0.000368704 -0.000402782 -5.06595e-05)
(-0.000409155 -0.00049042 -1.96542e-05)
(-0.000459821 -0.000577634 2.42628e-05)
(-0.000520814 -0.000657312 7.87384e-05)
(-0.000589668 -0.000723877 0.00013616)
(-0.000663075 -0.000773585 0.000191743)
(-0.000737213 -0.000806598 0.000242558)
(-0.000809318 -0.000825806 0.000286893)
(-0.00087772 -0.000835737 0.000324375)
(-0.000940805 -0.00084027 0.000355039)
(-0.000996339 -0.000841212 0.000378192)
(-0.00104271 -0.000839777 0.000393028)
(-0.00107911 -0.000839926 0.000399429)
(-0.00111009 -0.000846384 0.000399589)
(-0.00113785 -0.000857804 0.000395042)
(-0.00116386 -0.000873178 0.000386978)
(-0.00118944 -0.000891555 0.000376406)
(-0.00121565 -0.000912238 0.000364079)
(-0.00124314 -0.000934773 0.000350468)
(-0.00127231 -0.000958875 0.000335808)
(-0.00130325 -0.000984372 0.000320133)
(-0.00133591 -0.0010111 0.000303339)
(-0.00137009 -0.00103888 0.000285221)
(-0.00140546 -0.00106747 0.00026549)
(-0.00144166 -0.00109653 0.000243785)
(-0.00147817 -0.00112564 0.000219584)
(-0.00151434 -0.00115414 0.000192245)
(-0.00154912 -0.0011811 0.000160512)
(-0.0015811 -0.00120533 0.000123136)
(-0.00160653 -0.00122469 7.78483e-05)
(-0.00162142 -0.00123637 2.6212e-05)
(-0.000317176 -0.00028333 -0.000110127)
(-0.000383921 -0.000374391 -5.3444e-05)
(-0.000425827 -0.000458578 -2.6233e-05)
(-0.000477042 -0.000543568 1.3705e-05)
(-0.00053855 -0.000622729 6.46884e-05)
(-0.000608405 -0.000690452 0.000119478)
(-0.000683465 -0.000742824 0.000173435)
(-0.000760067 -0.000779723 0.0002237)
(-0.000835406 -0.000803552 0.00026858)
(-0.000907411 -0.000817871 0.000307402)
(-0.000974064 -0.000825535 0.000339585)
(-0.00103312 -0.00082826 0.000363996)
(-0.00108302 -0.000827928 0.000379938)
(-0.00112331 -0.00082768 0.00038749)
(-0.00115623 -0.000832587 0.000388218)
(-0.00118581 -0.0008431 0.000384096)
(-0.00121353 -0.000857858 0.00037643)
(-0.00124077 -0.000875802 0.00036624)
(-0.00126856 -0.00089613 0.000354305)
(-0.00129764 -0.000918334 0.000341122)
(-0.00132839 -0.000942099 0.000326937)
(-0.00136093 -0.000967212 0.000311787)
(-0.00139517 -0.000993505 0.000295567)
(-0.0014309 -0.00102079 0.000278066)
(-0.00146781 -0.00104883 0.000258991)
(-0.0015055 -0.0010773 0.000237975)
(-0.00154342 -0.00110576 0.000214492)
(-0.00158094 -0.0011336 0.000187913)
(-0.00161697 -0.0011599 0.000156975)
(-0.00165008 -0.00118352 0.000120487)
(-0.00167635 -0.00120235 7.61888e-05)
(-0.00169175 -0.00121374 2.56313e-05)
(-0.000327197 -0.000256687 -8.52848e-05)
(-0.000395379 -0.000343155 -5.58046e-05)
(-0.000438164 -0.000423313 -3.25016e-05)
(-0.000489305 -0.000505483 3.28632e-06)
(-0.000550852 -0.000583616 5.04751e-05)
(-0.00062148 -0.000652243 0.000102275)
(-0.000698206 -0.000707263 0.000154319)
(-0.000777388 -0.000748063 0.00020385)
(-0.000856016 -0.000776324 0.000249116)
(-0.000931609 -0.000794654 0.000289082)
(-0.00100185 -0.000805199 0.000322633)
(-0.00106454 -0.00080972 0.000348327)
(-0.0011182 -0.000810559 0.000365386)
(-0.0011626 -0.000810766 0.000374196)
(-0.00119863 -0.00081409 0.000375824)
(-0.0012302 -0.000823427 0.000372318)
(-0.00125978 -0.000837291 0.000365149)
(-0.00128875 -0.000854557 0.000355439)
(-0.00131821 -0.000874375 0.000343993)
(-0.0013489 -0.000896095 0.000331321)
(-0.00138121 -0.000919355 0.000317678)
(-0.00141527 -0.000943917 0.000303113)
(-0.001451 -0.0009696 0.000287519)
(-0.00148819 -0.000996209 0.000270681)
(-0.00152649 -0.00102351 0.000252298)
(-0.00156551 -0.00105119 0.000232004)
(-0.00160472 -0.00107884 0.000209272)
(-0.00164341 -0.00110584 0.000183477)
(-0.00168053 -0.00113132 0.000153352)
(-0.00171464 -0.00115417 0.000117775)
(-0.00174163 -0.00117237 7.44911e-05)
(-0.00175749 -0.00118339 2.50367e-05)
(-0.000332983 -0.000228248 -6.08612e-05)
(-0.000402097 -0.000309672 -5.75884e-05)
(-0.000445188 -0.00038527 -3.82654e-05)
(-0.000495616 -0.000464043 -6.80334e-06)
(-0.000556661 -0.000540604 3.62411e-05)
(-0.000627732 -0.000609794 8.46239e-05)
(-0.000706041 -0.00066734 0.000134386)
(-0.000787873 -0.000711974 0.000182913)
(-0.000869885 -0.00074447 0.000228342)
(-0.000949165 -0.000766501 0.000269225)
(-0.00102315 -0.000779762 0.000303992)
(-0.00108969 -0.000786124 0.000330997)
(-0.00114733 -0.000788172 0.000349313)
(-0.00119583 -0.000789096 0.000359333)
(-0.00123621 -0.000791974 0.000362274)
(-0.00127031 -0.000799375 0.000359583)
(-0.00130194 -0.0008121 0.00035309)
(-0.00133282 -0.000828525 0.000343993)
(-0.00136398 -0.000847579 0.00033313)
(-0.00139627 -0.00086861 0.000321052)
(-0.00143012 -0.000891196 0.000308029)
(-0.00146565 -0.000915056 0.000294117)
(-0.00150279 -0.000939976 0.00027921)
(-0.00154131 -0.000965769 0.000263087)
(-0.00158088 -0.000992192 0.000245442)
(-0.00162109 -0.00101895 0.000225904)
(-0.00166138 -0.00104561 0.000203945)
(-0.00170108 -0.00107163 0.000178956)
(-0.00173912 -0.00109613 0.000149658)
(-0.00177409 -0.0011181 0.000115012)
(-0.00180166 -0.00113555 7.27638e-05)
(-0.0018179 -0.00114613 2.44303e-05)
(-0.000334416 -0.000198985 -3.77987e-05)
(-0.000403797 -0.000274913 -5.87717e-05)
(-0.000446548 -0.000345477 -4.34026e-05)
(-0.000495549 -0.000420261 -1.63917e-05)
(-0.000555419 -0.000494642 2.21865e-05)
(-0.000626465 -0.000563909 6.67198e-05)
(-0.000706099 -0.000623646 0.00011375)
(-0.000790427 -0.000671804 0.000160876)
(-0.000875743 -0.000708185 0.00020611)
(-0.000958787 -0.000733649 0.00024762)
(-0.00103675 -0.00074954 0.000283452)
(-0.00110739 -0.000757782 0.000311757)
(-0.00116929 -0.000761141 0.000331497)
(-0.00122209 -0.000762815 0.00034289)
(-0.00126672 -0.000765817 0.000347154)
(-0.00130495 -0.000772187 0.000345761)
(-0.00133908 -0.000783095 0.000340159)
(-0.00137199 -0.000798048 0.000331803)
(-0.00140499 -0.000816177 0.000321685)
(-0.00143896 -0.000836372 0.000310312)
(-0.00147432 -0.000858122 0.000298)
(-0.00151124 -0.000881114 0.000284815)
(-0.00154966 -0.000905115 0.000270655)
(-0.00158935 -0.000929917 0.000255295)
(-0.00162998 -0.000955294 0.000238425)
(-0.00167116 -0.000980949 0.000219674)
(-0.00171234 -0.00100656 0.000198522)
(-0.00175281 -0.00103153 0.00017436)
(-0.00179156 -0.00105499 0.000145901)
(-0.00182721 -0.00107595 0.000112204)
(-0.00185521 -0.00109259 7.10111e-05)
(-0.00187174 -0.00110276 2.38141e-05)
(-0.000330359 -0.000169074 -1.66577e-05)
(-0.000399452 -0.00023921 -5.92137e-05)
(-0.000441273 -0.000304327 -4.77435e-05)
(-0.000488155 -0.000374574 -2.52687e-05)
(-0.000546103 -0.000446096 8.53469e-06)
(-0.000616489 -0.000514807 4.87284e-05)
(-0.000697039 -0.000576269 9.24896e-05)
(-0.000783719 -0.000627642 0.000137723)
(-0.00087241 -0.000667705 0.00018234)
(-0.000959394 -0.000696466 0.000224147)
(-0.00104159 -0.000714933 0.000260854)
(-0.00111666 -0.000725103 0.000290435)
(-0.00118308 -0.000729819 0.000311703)
(-0.00124045 -0.000732318 0.000324702)
(-0.00128939 -0.000735461 0.000330443)
(-0.00133167 -0.000741372 0.000330429)
(-0.00136951 -0.000751068 0.000326094)
(-0.00140545 -0.00076475 0.000318908)
(-0.00144036 -0.000781426 0.00030968)
(-0.00147597 -0.000800426 0.000299118)
(-0.0015128 -0.000821135 0.000287619)
(-0.00155104 -0.000843131 0.000275249)
(-0.00159061 -0.000866132 0.000261911)
(-0.00163131 -0.000889918 0.000247378)
(-0.00167283 -0.000914244 0.000231332)
(-0.00171477 -0.000938823 0.000213406)
(-0.00175648 -0.000963262 0.000193068)
(-0.00179732 -0.000987024 0.000169726)
(-0.00183644 -0.00100932 0.000142099)
(-0.00187256 -0.00102919 0.000109362)
(-0.00190076 -0.00104494 6.92389e-05)
(-0.00191736 -0.0010546 2.31877e-05)
(-0.000321239 -0.000139758 1.92253e-06)
(-0.000389159 -0.000203409 -5.913e-05)
(-0.000429345 -0.00026301 -5.12271e-05)
(-0.000473364 -0.000328116 -3.32359e-05)
(-0.000528489 -0.000396004 -4.41985e-06)
(-0.00059738 -0.000463368 3.09764e-05)
(-0.000678263 -0.000525909 7.0875e-05)
(-0.0007669 -0.000579989 0.000113588)
(-0.000858717 -0.000623328 0.000157008)
(-0.000949685 -0.000655227 0.000198679)
(-0.00103642 -0.000676314 0.000236039)
(-0.00111628 -0.000688461 0.000266834)
(-0.00118763 -0.000694594 0.00028972)
(-0.00124979 -0.00069789 0.000304495)
(-0.00130339 -0.000701275 0.000311991)
(-0.00134984 -0.000706785 0.000313554)
(-0.00139138 -0.000715638 0.000310679)
(-0.00143028 -0.000728178 0.000304794)
(-0.00146772 -0.000743494 0.00029672)
(-0.00150532 -0.000761258 0.000287215)
(-0.00154367 -0.000780761 0.000276685)
(-0.00158306 -0.000801572 0.000265232)
(-0.0016235 -0.00082338 0.000252783)
(-0.00166481 -0.000845939 0.000239118)
(-0.00170672 -0.000869 0.000223921)
(-0.00174887 -0.000892277 0.000206829)
(-0.00179073 -0.000915366 0.000187327)
(-0.00183161 -0.00093774 0.000164837)
(-0.00187079 -0.000958695 0.000138072)
(-0.00190713 -0.000977391 0.00010635)
(-0.00193529 -0.00099216 6.73586e-05)
(-0.00195186 -0.00100121 2.25215e-05)
(-0.000304073 -0.000110505 1.75397e-05)
(-0.000372761 -0.000168328 -5.81861e-05)
(-0.000410015 -0.000221924 -5.37939e-05)
(-0.000450366 -0.000281362 -4.00564e-05)
(-0.000501742 -0.000344856 -1.63383e-05)
(-0.00056812 -0.000409922 1.38264e-05)
(-0.000648463 -0.000472681 4.91802e-05)
(-0.00073861 -0.000528946 8.86283e-05)
(-0.000833613 -0.000575457 0.000130205)
(-0.000928772 -0.000610514 0.000171255)
(-0.00102026 -0.000634241 0.000208951)
(-0.00110529 -0.000648452 0.000240853)
(-0.00118187 -0.000655983 0.000265377)
(-0.00124933 -0.000660123 0.000282111)
(-0.0013078 -0.000663665 0.000291577)
(-0.00135871 -0.000668809 0.000294998)
(-0.00140409 -0.000676828 0.000293811)
(-0.00144612 -0.000688217 0.000289418)
(-0.00148605 -0.0007022 0.000282668)
(-0.00152553 -0.000718591 0.000274371)
(-0.00156533 -0.00073675 0.000264953)
(-0.00160578 -0.000756211 0.000254542)
(-0.00164692 -0.00077664 0.000243085)
(-0.00168864 -0.000797781 0.000230369)
(-0.0017307 -0.000819395 0.000216084)
(-0.00177283 -0.000841193 0.000199879)
(-0.00181452 -0.000862762 0.000181256)
(-0.00185513 -0.000883625 0.000159663)
(-0.00189413 -0.000903165 0.000133808)
(-0.00193041 -0.000920593 0.000103156)
(-0.00195831 -0.00093432 6.53638e-05)
(-0.00197476 -0.000942704 2.18125e-05)
(-0.000280346 -8.25488e-05 3.01415e-05)
(-0.000350089 -0.000135094 -5.64319e-05)
(-0.000384046 -0.000182307 -5.53621e-05)
(-0.000419638 -0.000235602 -4.55224e-05)
(-0.000466023 -0.000293787 -2.68092e-05)
(-0.000528617 -0.000355433 -2.1921e-06)
(-0.000607458 -0.000417461 2.79356e-05)
(-0.000698436 -0.000475236 6.32577e-05)
(-0.000795999 -0.000524395 0.000102131)
(-0.000895186 -0.000562486 0.000141887)
(-0.000991795 -0.000589076 0.000179533)
(-0.00108236 -0.000605499 0.000212359)
(-0.00116476 -0.000614568 0.00023855)
(-0.00123772 -0.000619427 0.000257326)
(-0.00130155 -0.000623129 0.000269013)
(-0.00135725 -0.00062784 0.000274569)
(-0.00140679 -0.000635006 0.000275355)
(-0.00145207 -0.000645133 0.000272677)
(-0.00149465 -0.000657732 0.000267481)
(-0.00153618 -0.000672697 0.000260592)
(-0.00157739 -0.000689372 0.000252439)
(-0.00161875 -0.000707326 0.000243196)
(-0.00166041 -0.000726224 0.000232835)
(-0.00170226 -0.000745795 0.000221153)
(-0.00174416 -0.000765802 0.000207842)
(-0.00178588 -0.000785961 0.000192568)
(-0.00182703 -0.00080589 0.000174873)
(-0.00186702 -0.000825135 0.000154219)
(-0.00190541 -0.00084313 0.000129301)
(-0.00194137 -0.00085923 9.97812e-05)
(-0.00196871 -0.000871841 6.32533e-05)
(-0.00198492 -0.000879514 2.10599e-05)
(-0.000249363 -5.66852e-05 3.94735e-05)
(-0.000319431 -0.000103631 -5.36304e-05)
(-0.000350407 -0.000144561 -5.56633e-05)
(-0.000380886 -0.000191506 -4.93246e-05)
(-0.000421389 -0.000243687 -3.53897e-05)
(-0.000478818 -0.000300722 -1.64722e-05)
(-0.000554493 -0.000360596 7.76677e-06)
(-0.000645101 -0.000418887 3.79901e-05)
(-0.000745153 -0.000470601 7.32287e-05)
(-0.000848556 -0.000511898 0.000110932)
(-0.000950259 -0.000541417 0.000147953)
(-0.00104675 -0.000560284 0.00018142)
(-0.00113516 -0.000570919 0.000209158)
(-0.00121437 -0.000576665 0.000230132)
(-0.00128386 -0.000580398 0.00024422)
(-0.00134471 -0.000584575 0.000252183)
(-0.00139857 -0.000590727 0.000255206)
(-0.00144746 -0.00059953 0.000254552)
(-0.00149278 -0.000610612 0.000251144)
(-0.00153621 -0.000623936 0.000245834)
(-0.00157876 -0.000638981 0.000239115)
(-0.00162093 -0.000655298 0.000231184)
(-0.00166289 -0.000672541 0.000222038)
(-0.00170462 -0.000690438 0.000211483)
(-0.00174603 -0.000708746 0.000199216)
(-0.00178706 -0.000727206 0.000184932)
(-0.00182735 -0.000745426 0.000168216)
(-0.0018663 -0.000762989 0.000148535)
(-0.00190386 -0.000779437 0.000124588)
(-0.00193916 -0.000794138 9.62475e-05)
(-0.00196572 -0.00080562 6.10432e-05)
(-0.00198157 -0.000812559 2.02689e-05)
(-0.000213237 -3.42361e-05 4.54789e-05)
(-0.000282033 -7.50311e-05 -4.99158e-05)
(-0.000310254 -0.00010992 -5.47683e-05)
(-0.000335126 -0.000150281 -5.13592e-05)
(-0.000368352 -0.000195531 -4.16558e-05)
(-0.00041879 -0.000246537 -2.82445e-05)
(-0.000490069 -0.000303057 -1.03496e-05)
(-0.000579451 -0.000361021 1.3777e-05)
(-0.000680533 -0.00041436 4.41669e-05)
(-0.000787363 -0.000458573 7.87651e-05)
(-0.00089455 -0.000491479 0.000114471)
(-0.000997131 -0.000513063 0.000148113)
(-0.00109231 -0.000525695 0.000177273)
(-0.0011778 -0.000532261 0.000200391)
(-0.00125348 -0.000536073 0.000217078)
(-0.00131988 -0.00053964 0.00022772)
(-0.00137858 -0.000544715 0.000233314)
(-0.00143116 -0.000551998 0.000234953)
(-0.00147942 -0.000561454 0.000233612)
(-0.00152507 -0.000573113 0.00023015)
(-0.00156896 -0.000586418 0.000225058)
(-0.00161177 -0.000600978 0.000218591)
(-0.00165379 -0.000616463 0.000210777)
(-0.00169504 -0.00063259 0.000201433)
(-0.00173559 -0.000649127 0.00019027)
(-0.00177542 -0.000665788 0.000177006)
(-0.00181436 -0.000682228 0.0001613)
(-0.00185184 -0.000698089 0.000142621)
(-0.00188804 -0.000712906 0.000119655)
(-0.00192244 -0.00072621 9.25489e-05)
(-0.00194786 -0.00073654 5.87276e-05)
(-0.00196322 -0.000742729 1.94365e-05)
(-0.000171238 -1.5749e-05 4.76795e-05)
(-0.000236764 -4.96788e-05 -4.48999e-05)
(-0.000262832 -7.87158e-05 -5.23022e-05)
(-0.000283017 -0.000112714 -5.13367e-05)
(-0.000309396 -0.000150971 -4.51863e-05)
(-0.000351901 -0.000194995 -3.68777e-05)
(-0.000415475 -0.000245836 -2.55484e-05)
(-0.000500238 -0.000301231 -8.3507e-06)
(-0.000601963 -0.000355947 1.60266e-05)
(-0.000712384 -0.000403383 4.63359e-05)
(-0.000824334 -0.00043963 7.96984e-05)
(-0.00093342 -0.00046448 0.000112902)
(-0.00103516 -0.00047924 0.000143057)
(-0.0011279 -0.000487151 0.000168325)
(-0.00121013 -0.000491132 0.000187706)
(-0.00128242 -0.00049405 0.000201252)
(-0.00134595 -0.000497833 0.000209655)
(-0.00140267 -0.000503542 0.000213923)
(-0.00145399 -0.000511227 0.000214919)
(-0.00150155 -0.000520969 0.000213495)
(-0.00154667 -0.000532404 0.000210226)
(-0.00158998 -0.000545128 0.000205386)
(-0.00163181 -0.000558795 0.000199034)
(-0.00167231 -0.000573136 0.000191002)
(-0.0017116 -0.000587885 0.000181001)
(-0.00174993 -0.00060279 0.000168807)
(-0.00178724 -0.000617504 0.000154158)
(-0.00182279 -0.000631688 0.000136501)
(-0.00185741 -0.000644948 0.000114538)
(-0.00189053 -0.00065685 8.87084e-05)
(-0.00191454 -0.000666064 5.63222e-05)
(-0.00192932 -0.000671525 1.85672e-05)
(-0.000126704 -1.9657e-06 4.67584e-05)
(-0.000186695 -2.87439e-05 -3.88898e-05)
(-0.000210957 -5.20282e-05 -4.86332e-05)
(-0.000226322 -7.95984e-05 -4.97175e-05)
(-0.000243838 -0.00011004 -4.62053e-05)
(-0.000275281 -0.000145569 -4.14348e-05)
(-0.000331272 -0.000189942 -3.56617e-05)
(-0.00041219 -0.00024206 -2.62959e-05)
(-0.000510794 -0.000295678 -9.66575e-06)
(-0.00062211 -0.000345251 1.48185e-05)
(-0.000739445 -0.000385794 4.46261e-05)
(-0.000854544 -0.000414274 7.63826e-05)
(-0.000963835 -0.000432133 0.00010705)
(-0.00106327 -0.000441478 0.000134078)
(-0.00115236 -0.000445914 0.000156131)
(-0.00123088 -0.000448325 0.000172738)
(-0.0013 -0.000450985 0.00018427)
(-0.00136084 -0.000454979 0.000191415)
(-0.00141534 -0.000460806 0.00019503)
(-0.0014653 -0.000468683 0.000195952)
(-0.00151164 -0.000478195 0.000194719)
(-0.00155525 -0.000489023 0.000191665)
(-0.00159662 -0.000500848 0.000186901)
(-0.0016359 -0.000513381 0.00018026)
(-0.00167348 -0.000526366 0.000171469)
(-0.00170973 -0.000539508 0.000160355)
(-0.00174474 -0.000552474 0.000146778)
(-0.00177784 -0.000565046 0.00013016)
(-0.00181031 -0.000576734 0.000109194)
(-0.00184182 -0.00058728 8.46968e-05)
(-0.00186406 -0.000595418 5.38049e-05)
(-0.00187811 -0.000600159 1.76523e-05)
(-7.92565e-05 7.34137e-06 4.21556e-05)
(-0.000130566 -1.18151e-05 -3.10891e-05)
(-0.000152688 -2.91663e-05 -4.22449e-05)
(-0.000165872 -5.06948e-05 -4.43674e-05)
(-0.000179476 -7.39326e-05 -4.20629e-05)
(-0.00020381 -0.000100738 -4.10642e-05)
(-0.00024413 -0.000135222 -4.20067e-05)
(-0.000310393 -0.0001804 -3.95005e-05)
(-0.000408016 -0.000234235 -3.04987e-05)
(-0.000521401 -0.00028642 -1.38117e-05)
(-0.000640292 -0.000329768 1.06041e-05)
(-0.000761683 -0.000362842 3.9743e-05)
(-0.000877217 -0.000383977 6.99245e-05)
(-0.000984711 -0.000395968 9.83464e-05)
(-0.00108093 -0.000401372 0.000122862)
(-0.0011659 -0.000403568 0.000142545)
(-0.0012401 -0.000405013 0.000157272)
(-0.00130549 -0.000407426 0.00016757)
(-0.00136329 -0.000411386 0.000174055)
(-0.00141507 -0.000417188 0.00017748)
(-0.00146242 -0.00042471 0.000178473)
(-0.00150614 -0.000433637 0.000177371)
(-0.00154673 -0.000443638 0.000174322)
(-0.00158448 -0.000454441 0.000169173)
(-0.00161991 -0.000465742 0.000161636)
(-0.00165376 -0.00047726 0.000151638)
(-0.00168629 -0.000488657 0.000139186)
(-0.00171648 -0.000499743 0.000123618)
(-0.00174655 -0.000509991 0.000103656)
(-0.00177619 -0.000519278 8.05425e-05)
(-0.00179634 -0.000526423 5.1194e-05)
(-0.00180954 -0.000530467 1.66966e-05)
(-3.96678e-05 1.08924e-05 3.56889e-05)
(-7.98388e-05 -1.73238e-06 -2.19061e-05)
(-0.000101357 -1.29701e-05 -3.34811e-05)
(-0.00011275 -2.84438e-05 -3.89749e-05)
(-0.000118428 -4.43097e-05 -3.8557e-05)
(-0.000132999 -6.46254e-05 -3.64092e-05)
(-0.000163591 -8.77628e-05 -3.77387e-05)
(-0.000223115 -0.00012306 -4.54082e-05)
(-0.000296663 -0.000168031 -4.75776e-05)
(-0.000400331 -0.000220772 -3.69267e-05)
(-0.000527947 -0.000271034 -1.9234e-05)
(-0.0006542 -0.000308694 4.71189e-06)
(-0.000777648 -0.000335229 3.31522e-05)
(-0.000891188 -0.000350088 6.18811e-05)
(-0.000994393 -0.000357228 8.83399e-05)
(-0.00108572 -0.000359751 0.000110876)
(-0.00116601 -0.000360646 0.000128922)
(-0.00123564 -0.000361578 0.000142461)
(-0.00129663 -0.000363745 0.000151995)
(-0.00135088 -0.000367731 0.000158214)
(-0.00139924 -0.00037335 0.000161627)
(-0.00144281 -0.000380419 0.000162627)
(-0.00148228 -0.000388663 0.000161413)
(-0.00151793 -0.000397801 0.000157816)
(-0.00155067 -0.000407537 0.000151559)
(-0.00158145 -0.0004175 0.000142658)
(-0.00161068 -0.000427346 0.000131328)
(-0.00163727 -0.00043706 0.000116808)
(-0.00166444 -0.000445919 9.78429e-05)
(-0.00169163 -0.000454004 7.61724e-05)
(-0.00170934 -0.000460237 4.84393e-05)
(-0.0017217 -0.000463656 1.56838e-05)
(-1.4156e-05 1.05689e-05 2.50167e-05)
(-2.45637e-05 1.00204e-06 -1.25009e-05)
(-3.25699e-05 -2.83024e-06 -1.81663e-05)
(-4.10731e-05 -1.06621e-05 -2.42412e-05)
(-4.40183e-05 -1.70185e-05 -2.8603e-05)
(-4.04381e-05 -3.02907e-05 -2.32376e-05)
(-5.17438e-05 -3.48275e-05 -1.49852e-05)
(-0.000111617 -7.23252e-05 -2.76293e-05)
(-0.000206455 -0.000110803 -3.62412e-05)
(-0.000308349 -0.000155797 -5.10054e-05)
(-0.000407909 -0.000206721 -4.88646e-05)
(-0.000536854 -0.000253446 -2.74993e-05)
(-0.000663524 -0.000284333 -1.75654e-06)
(-0.00078519 -0.000304243 2.62225e-05)
(-0.000895063 -0.000314079 5.36903e-05)
(-0.000992776 -0.000317811 7.86075e-05)
(-0.0010777 -0.000318344 9.96294e-05)
(-0.00115187 -0.000318325 0.000116441)
(-0.00121609 -0.000319003 0.000129126)
(-0.0012717 -0.000321092 0.000138162)
(-0.00132062 -0.000324883 0.000144116)
(-0.00136376 -0.000330214 0.000147341)
(-0.0014017 -0.000336829 0.000148069)
(-0.00143491 -0.000344489 0.000146108)
(-0.0014645 -0.000352835 0.000141151)
(-0.00149194 -0.00036146 0.000133356)
(-0.00151784 -0.000370007 0.000123209)
(-0.00154057 -0.000378594 0.000109755)
(-0.00156456 -0.000386189 9.17831e-05)
(-0.00158937 -0.000393319 7.16372e-05)
(-0.00160435 -0.000398753 4.55698e-05)
(-0.00161548 -0.000401513 1.46178e-05)
(6.07555e-06 1.01649e-05 2.03079e-05)
(1.47849e-06 2.72525e-06 -8.04224e-06)
(-3.18868e-06 1.86612e-06 -1.40249e-05)
(-1.06628e-05 -1.95541e-06 -2.11695e-05)
(-2.04747e-05 -1.09902e-05 -2.77673e-05)
(-2.95537e-05 -2.10339e-05 -3.8564e-05)
(-2.50903e-05 -2.62568e-05 -2.83759e-05)
(-3.18324e-05 -3.40704e-05 -1.92944e-05)
(-6.8847e-05 -5.05458e-05 -2.47973e-05)
(-0.00015714 -0.000106961 -4.23261e-05)
(-0.000286401 -0.000150599 -4.70541e-05)
(-0.00040625 -0.000190261 -4.99213e-05)
(-0.00054049 -0.000231937 -3.16544e-05)
(-0.000665644 -0.000256664 -6.92744e-06)
(-0.000781969 -0.000270789 2.01231e-05)
(-0.000885091 -0.000276749 4.646e-05)
(-0.000975883 -0.000278317 7.00646e-05)
(-0.00105363 -0.000277826 8.98374e-05)
(-0.00112048 -0.000277408 0.000105569)
(-0.00117839 -0.000278238 0.000117579)
(-0.00122784 -0.00028051 0.000126173)
(-0.00127017 -0.000284311 0.000131704)
(-0.00130618 -0.00028949 0.000134449)
(-0.00133627 -0.000295826 0.000134147)
(-0.00136206 -0.000302958 0.000130463)
(-0.00138545 -0.000310363 0.000123713)
(-0.00140715 -0.00031764 0.000114738)
(-0.00142498 -0.000325181 0.000102313)
(-0.00144543 -0.000331555 8.53398e-05)
(-0.00146695 -0.000337779 6.67917e-05)
(-0.00147874 -0.000342454 4.24842e-05)
(-0.00148923 -0.000344738 1.34756e-05)
(2.24083e-05 9.79341e-06 3.00554e-05)
(2.47379e-05 1.15668e-05 -2.83944e-06)
(2.16498e-05 1.01242e-05 -1.3073e-05)
(1.68912e-05 3.8714e-06 -1.75192e-05)
(1.03198e-05 -1.74217e-06 -1.65306e-05)
(-1.00615e-05 -2.11391e-06 -3.05101e-05)
(-1.23668e-05 -1.52147e-05 -3.68345e-05)
(-1.98208e-05 -2.03002e-05 -2.79135e-05)
(-2.57023e-05 -2.54319e-05 -2.47017e-05)
(-5.73496e-05 -5.70437e-05 -2.47877e-05)
(-0.000145875 -8.8566e-05 -2.6404e-05)
(-0.000292938 -0.000126419 -5.43945e-05)
(-0.000410424 -0.000169787 -5.47735e-05)
(-0.00053954 -0.000208294 -3.54488e-05)
(-0.000659547 -0.000227545 -1.05233e-05)
(-0.000767777 -0.000237257 1.59705e-05)
(-0.000861385 -0.000240282 4.11293e-05)
(-0.000942937 -0.000240418 6.33818e-05)
(-0.0010123 -0.000239658 8.18935e-05)
(-0.00107041 -0.000239337 9.6589e-05)
(-0.00111954 -0.000240378 0.000107749)
(-0.00116062 -0.000242956 0.000115593)
(-0.00119419 -0.000246941 0.000120384)
(-0.00122085 -0.000252243 0.000121774)
(-0.00124248 -0.000258417 0.000119338)
(-0.00126168 -0.000264839 0.000113601)
(-0.00127936 -0.000271082 0.000105869)
(-0.00129259 -0.000277931 9.45217e-05)
(-0.00130952 -0.000283156 7.85602e-05)
(-0.00132803 -0.000288835 6.17288e-05)
(-0.00133684 -0.000292906 3.92499e-05)
(-0.00134555 -0.000294474 1.2261e-05)
(3.61918e-05 1.28809e-05 3.85685e-05)
(4.60581e-05 9.32766e-06 -7.98478e-06)
(4.9156e-05 3.8724e-06 -1.2947e-05)
(4.83889e-05 -4.79438e-06 -1.43946e-05)
(4.40261e-05 -1.14046e-05 -9.17964e-06)
(2.86716e-05 -1.58387e-05 8.85043e-06)
(-3.50968e-06 1.24733e-05 -8.1149e-07)
(-6.85753e-06 4.79485e-07 -2.87523e-05)
(-2.17896e-05 -1.16579e-05 -3.29547e-05)
(-3.11515e-05 -2.16286e-05 -3.29741e-05)
(-4.29931e-05 -3.00954e-05 -2.67889e-05)
(-0.000144824 -7.60408e-05 -4.49774e-05)
(-0.00032721 -0.000126959 -5.60937e-05)
(-0.000404278 -0.000154352 -5.40651e-05)
(-0.000528315 -0.000182771 -3.60776e-05)
(-0.00063888 -0.000197432 -1.12784e-05)
(-0.000737008 -0.000203963 1.41195e-05)
(-0.000819968 -0.000205366 3.77993e-05)
(-0.000890351 -0.000204981 5.84468e-05)
(-0.000950225 -0.000204685 7.56685e-05)
(-0.000999032 -0.000205109 8.92654e-05)
(-0.00103832 -0.000206848 9.93272e-05)
(-0.001069 -0.00020995 0.000106133)
(-0.0010914 -0.000214428 0.000109145)
(-0.00110808 -0.000219809 0.000107839)
(-0.00112249 -0.000225354 0.00010299)
(-0.0011354 -0.000230502 9.6482e-05)
(-0.00114248 -0.000236587 8.61189e-05)
(-0.00115521 -0.000240404 7.11898e-05)
(-0.00117012 -0.000245757 5.62135e-05)
(-0.00117493 -0.000248992 3.56711e-05)
(-0.00118351 -0.00025017 1.09431e-05)
(4.71955e-05 1.42605e-05 4.42703e-05)
(6.42695e-05 1.13552e-05 -7.84142e-06)
(7.09357e-05 7.20744e-06 -1.51048e-05)
(7.30325e-05 -9.37524e-07 -1.8768e-05)
(7.07203e-05 -1.02182e-05 -1.91905e-05)
(6.23864e-05 -1.75648e-05 -1.6633e-05)
(4.20362e-05 -2.7789e-05 -1.59291e-05)
(3.48641e-05 -2.65314e-05 -1.34928e-05)
(1.52136e-05 -1.65917e-05 -7.5431e-06)
(-2.06367e-05 6.0533e-06 -3.08052e-05)
(-2.53109e-05 -1.03763e-05 -4.99886e-05)
(-5.0923e-05 -2.57825e-05 -6.15013e-05)
(-0.00012691 -0.000165989 -6.98898e-05)
(-0.000277229 -0.00012211 -1.31486e-05)
(-0.000395046 -0.000134006 -5.26938e-05)
(-0.000507322 -0.000158463 -3.31094e-05)
(-0.000603792 -0.000168173 -9.42387e-06)
(-0.000689134 -0.00017249 1.43485e-05)
(-0.00076045 -0.000173603 3.61998e-05)
(-0.00081808 -0.000173413 5.51167e-05)
(-0.000864959 -0.000173624 7.07058e-05)
(-0.00090196 -0.000175048 8.27475e-05)
(-0.000929123 -0.000177563 9.14159e-05)
(-0.000947095 -0.000181557 9.59759e-05)
(-0.000958889 -0.000186433 9.57097e-05)
(-0.000968551 -0.000191261 9.16459e-05)
(-0.000977303 -0.000195416 8.64569e-05)
(-0.000979551 -0.000201165 7.71989e-05)
(-0.000989859 -0.000203726 6.34266e-05)
(-0.00100036 -0.000208943 5.03926e-05)
(-0.00100277 -0.000211605 3.1911e-05)
(-0.00100922 -0.000211888 9.53948e-06)
(5.51144e-05 1.35456e-05 4.60315e-05)
(7.71548e-05 1.05624e-05 -7.1574e-06)
(8.74117e-05 6.84421e-06 -1.58729e-05)
(9.3025e-05 -7.97516e-07 -2.13734e-05)
(9.42263e-05 -1.00875e-05 -2.43597e-05)