/*--------------------------------*- C++ -*----------------------------------*\
  =========                 |
  \\      /  F ield         | OpenFOAM: The Open Source CFD Toolbox
   \\    /   O peration     | Website:  https://openfoam.org
    \\  /    A nd           | Version:  6
     \\/     M anipulation  |
\*---------------------------------------------------------------------------*/
FoamFile
{
    version     2.0;
    format      ascii;
    class       volScalarField;
    location    "34";
    object      yPlus;
}
// * * * * * * * * * * * * * * * * * * * * * * * * * * * * * * * * * * * * * //

dimensions      [0 0 0 0 0 0 0];

internalField   uniform 0;

boundaryField
{
    inlet
    {
        type            calculated;
        value           uniform 0;
    }
    outlet
    {
        type            calculated;
        value           uniform 0;
    }
    roughCylinder
    {
        type            calculated;
        value           nonuniform List<scalar> 
5120
(
43.4899
51.3083
57.5358
63.6613
68.9497
73.2394
76.6766
79.4551
81.7299
83.6355
85.2913
86.7739
88.1206
89.3655
90.5395
91.6732
92.7971
93.9395
95.1238
96.3673
97.6796
99.0629
100.514
102.027
103.59
105.192
106.816
108.438
110.021
111.493
112.708
113.416
42.7672
50.3039
56.3337
62.3204
67.5365
71.7921
75.2121
77.9828
80.2576
82.1694
83.8335
85.3199
86.6583
87.8895
89.0457
90.1581
91.2584
92.3758
93.5345
94.7509
96.0343
97.3875
98.8071
100.287
101.815
103.38
104.967
106.551
108.097
109.532
110.718
111.406
41.9902
49.2759
55.1168
60.9621
66.1033
70.326
73.7334
76.5043
78.7894
80.7175
82.3959
83.8876
85.2223
86.4426
87.5823
88.675
89.7537
90.8477
91.9804
93.1696
94.4251
95.7487
97.1375
98.584
100.078
101.608
103.157
104.704
106.212
107.611
108.767
109.435
41.1675
48.2202
53.875
59.5783
64.6468
68.8432
72.2463
75.0259
77.3303
79.2823
80.9794
82.4799
83.8164
85.0279
86.155
87.2309
88.2892
89.3604
90.47
91.6345
92.8626
94.1575
95.5157
96.93
98.3903
99.8843
101.397
102.906
104.377
105.741
106.867
107.516
40.3146
47.1433
52.6083
58.1631
63.1574
67.3322
70.7404
73.5406
75.8757
77.86
79.582
81.0964
82.4387
83.6481
84.7649
85.8258
86.8668
87.9188
89.0053
90.1448
91.3475
92.6148
93.9438
95.3272
96.7548
98.2148
99.6916
101.164
102.599
103.929
105.025
105.654
39.4373
46.0445
51.3141
56.7154
61.6377
65.8009
69.2262
72.0563
74.4276
76.4476
78.1967
79.7283
81.0819
82.2948
83.407
84.4582
85.4841
86.517
87.5846
88.7031
89.8812
91.1223
92.4229
93.776
95.171
96.5968
98.0383
99.4747
100.875
102.17
103.237
103.846
38.5127
44.9055
49.9732
55.2125
60.0604
64.2182
67.6725
70.5461
72.9666
75.0317
76.8167
78.3748
79.7453
80.9693
82.0822
83.1263
84.1412
85.161
86.2093
87.3056
88.4613
89.6776
90.9513
92.2752
93.6402
95.033
96.4409
97.842
99.2062
100.469
101.509
102.098
37.5779
43.7492
48.6019
53.6662
58.4369
62.5995
66.0985
69.0272
71.5015
73.6157
75.4398
77.026
78.4197
79.658
80.7813
81.8263
82.835
83.8414
84.8759
85.9564
87.0908
88.2834
89.531
90.8263
92.1596
93.5202
94.8932
96.2595
97.5906
98.819
99.8313
100.4
36.5522
42.5098
47.1397
52.0175
56.7056
60.8786
64.4364
67.44
69.9903
72.1694
74.0458
75.676
77.1014
78.3657
79.5022
80.5541
81.5611
82.5637
83.5851
84.6468
85.7624
86.9332
88.1562
89.4247
90.7296
92.058
93.3987
94.7303
96.0262
97.2238
98.2092
98.758
35.5158
41.245
45.6331
50.2988
54.8893
59.0795
62.7187
65.8163
68.4485
70.7
72.6378
74.3134
75.7797
77.0713
78.2323
79.2984
80.3134
81.3124
82.3273
83.38
84.4786
85.6285
86.8273
88.0682
89.3415
90.6391
91.9444
93.2407
94.5046
95.6687
96.6265
97.1532
34.3026
39.8216
43.9637
48.4045
52.8863
57.094
60.8277
64.0485
66.808
69.1652
71.1838
72.9302
74.4455
75.783
76.9721
78.0585
79.0822
80.0888
81.0991
82.1381
83.2223
84.3537
85.5297
86.745
87.9913
89.2546
90.5282
91.7913
93.0196
94.1537
95.0854
95.5897
33.04
38.3425
42.2105
46.3806
50.7131
54.9343
58.8004
62.1856
65.0794
67.5522
69.6741
71.4941
73.082
74.4667
75.6998
76.8164
77.8643
78.8761
79.8886
80.9274
81.9998
83.1131
84.2669
85.4548
86.6682
87.9023
89.1398
90.3654
91.5624
92.663
93.5666
94.0469
31.4892
36.5981
40.1863
44.07
48.2359
52.4575
56.4486
60.0282
63.1541
65.8202
68.0791
70.0226
71.684
73.1404
74.4209
75.5763
76.6443
77.6775
78.6955
79.7252
80.7878
81.8868
83.0201
84.1845
85.3732
86.5702
87.7757
88.9697
90.1303
91.2009
92.0787
92.5347
29.8159
34.729
38.0022
41.5136
45.4078
49.5849
53.7785
57.6621
61.0214
63.8939
66.346
68.4066
70.1972
71.738
73.0946
74.3025
75.4185
76.4693
77.5002
78.5413
79.599
80.683
81.796
82.9325
84.0853
85.2554
86.4232
87.5756
88.7046
89.7415
90.5907
91.0174
27.5995
32.3589
35.3202
38.4546
42.0806
46.1944
50.4856
54.6397
58.4646
61.72
64.4199
66.7349
68.6563
70.3119
71.742
73.0151
74.1641
75.2552
76.3055
77.3426
78.3958
79.4704
80.5653
81.6802
82.8108
83.9385
85.0734
86.1951
87.2874
88.2925
89.115
89.5152
25.0508
29.7088
32.35
34.9632
38.0201
41.8591
46.4763
51.2345
55.4298
59.114
62.2523
64.7522
66.8989
68.7082
70.2755
71.6369
72.8728
73.9996
75.0766
76.1423
77.1996
78.2628
79.3391
80.4249
81.5146
82.6162
83.7095
84.784
85.8416
86.8141
87.6051
87.9671
21.1343
25.834
28.13
30.1955
32.8007
36.4097
40.8468
45.9494
51.3906
55.8882
59.4738
62.5937
65.0431
67.072
68.7597
70.2318
71.5152
72.709
73.826
74.8923
75.9514
77.0107
78.0709
79.1361
80.2051
81.2586
82.3174
83.3606
84.3805
85.3158
86.0812
86.4124
16.4892
21.4413
23.839
25.4958
27.1662
30.1822
35.0679
40.8739
46.0092
51.6356
56.4716
59.8636
62.724
65.0415
66.9949
68.6205
70.0644
71.3241
72.4868
73.6091
74.6852
75.7382
76.7809
77.8145
78.8355
79.8579
80.8667
81.8533
82.8339
83.7394
84.4637
84.7429
6.71582
11.0828
11.5954
11.6262
9.60638
18.6935
12.2141
24.3564
38.0533
45.5169
51.1853
56.469
60.1306
62.9564
65.1381
66.9765
68.4876
69.8582
71.0962
72.2205
73.3063
74.3611
75.3893
76.4012
77.4
78.3698
79.3448
80.2983
81.233
82.0914
82.7955
83.0359
9.3868
6.12671
5.72118
3.54769
7.08091
12.3518
14.9601
19.9658
22.8967
36.7138
46.729
51.8507
56.5235
59.9723
62.7447
64.8694
66.702
68.1982
69.5109
70.7442
71.8676
72.9234
73.9341
74.9097
75.8501
76.7723
77.6734
78.5517
79.4521
80.2827
80.9279
81.09
13.0749
17.5768
18.8329
18.5631
17.2114
17.013
13.7854
23.0457
26.0079
21.9285
30.7068
45.6532
52.118
56.9181
60.1407
62.7423
64.6759
66.374
67.8369
69.0626
70.2056
71.2709
72.2671
73.2173
74.1286
74.9951
75.8774
76.7219
77.5363
78.314
78.9407
79.0488
19.4147
23.9088
25.8802
26.8331
26.6298
25.632
25.514
19.4313
22.6499
23.6796
26.9458
30.7416
44.9596
51.3438
56.2963
59.5245
62.1865
64.1402
65.7273
67.184
68.4075
69.4858
70.462
71.3644
72.1984
72.9774
73.718
74.4452
75.2697
76.0032
76.5573
76.5324
22.0542
27.0353
29.739
31.7206
32.8564
32.9123
31.6246
29.2452
23.4465
18.9354
19.2433
7.40031
34.1791
46.5879
51.9634
56.375
59.1766
61.5696
63.4958
64.8971
66.1509
67.2516
68.2104
69.0797
69.8685
70.5884
71.3712
72.0687
72.6789
73.3917
73.8932
73.7781
22.7967
27.8913
30.8214
33.1767
34.913
36.0038
36.3922
35.9369
34.0135
29.0742
23.1309
8.47179
10.7077
29.9994
44.1691
50.3443
55.1486
58.0814
60.2227
62.1712
63.6085
64.7479
65.6744
66.4659
67.1327
67.6685
68.1266
68.6123
69.3762
69.9494
70.4126
70.0365
22.267
27.4929
30.5817
33.1681
35.2115
36.7026
37.6499
38.0665
37.8913
36.7334
33.2339
25.7335
17.9514
19.345
34.8091
45.1469
49.7118
53.8827
56.8745
58.5642
60.0307
61.2082
62.1104
62.8434
63.4377
63.9168
64.5998
65.0723
65.2792
66.0322
66.3068
65.7073
20.8111
26.1707
29.3519
32.0724
34.3036
36.0444
37.3188
38.1724
38.6547
38.7404
38.015
34.7453
26.6045
23.9927
10.3798
29.1939
42.1669
47.3955
50.8264
54.0043
55.9092
57.2037
58.0014
58.574
58.9131
58.8948
58.7722
58.8114
59.6333
59.7394
60.2608
59.0448
18.8771
24.3232
27.5272
30.2936
32.6125
34.498
35.9795
37.1175
37.9998
38.7033
39.1632
38.7856
35.5629
28.3793
21.4572
31.2975
30.3453
39.7418
45.3061
47.1638
49.0506
50.284
51.2132
51.4399
51.6972
51.9774
52.4128
52.5289
52.2434
53.4101
53.8099
51.3765
16.662
22.0906
25.2205
27.9322
30.2442
32.1935
33.8235
35.1924
36.3876
37.4993
38.5558
39.3568
39.1079
35.5315
27.8938
29.9793
7.15083
26.7632
33.7827
39.083
41.8915
43.7539
44.0478
43.8958
43.5288
41.0945
41.0057
40.48
42.7162
39.015
39.8825
35.2341
14.4228
19.6969
22.6505
25.2081
27.421
29.3489
31.0507
32.5908
34.0462
35.5003
36.9882
38.4161
39.4199
39.0458
35.2688
27.4138
22.3006
34.8681
36.831
23.8681
21.8232
22.7191
26.7175
20.2023
21.0079
26.5987
17.4083
22.8429
46.2537
27.919
42.737
37.0576
12.447
17.4442
20.1457
22.4771
24.5224
26.3599
28.0591
29.6865
31.309
32.9929
34.7839
36.636
38.342
39.4433
39.1261
35.5499
28.2891
28.7738
30.4503
9.69912
25.5753
19.5941
30.7588
14.653
15.7275
34.4741
23.5064
27.9902
46.7547
32.7923
47.1174
39.326
10.9161
15.5662
17.9983
20.0848
21.9387
23.6518
25.2977
26.9378
28.625
30.4071
32.3281
34.391
36.4964
38.3564
39.4824
39.1921
36.9191
29.5798
27.8682
24.9132
27.2
20.298
35.7435
19.55
30.2573
37.9663
36.1571
39.5741
39.1914
38.9052
43.612
32.9552
9.78437
14.1901
16.3929
18.2726
19.9649
21.565
23.1407
24.74
26.4001
28.1558
30.0456
32.1034
34.3221
36.5739
38.5324
39.7077
39.8099
37.5843
33.1415
31.2495
28.5921
28.1505
27.1918
33.5188
34.3416
35.5903
36.4163
35.2982
37.5929
36.8874
35.2403
40.8873
9.17726
13.3916
15.4327
17.1779
18.7716
20.3004
21.8155
23.347
24.9172
26.5529
28.2911
30.1796
32.2608
34.5256
36.8338
38.8454
40.1501
40.2071
38.6146
38.3787
37.8731
38.3453
37.0704
41.2194
40.9351
41.7628
40.9328
38.1352
42.3808
41.2574
41.6302
43.4269
8.99357
13.1183
15.0873
16.7828
18.3479
19.8534
21.3307
22.7932
24.253
25.7321
27.2667
28.9053
30.7054
32.7165
34.933
37.2103
39.2252
40.4699
40.6
40.9229
41.0356
41.3363
40.9835
42.7602
42.4486
42.9928
42.2022
40.4157
42.8276
42.3642
43.2671
43.3109
9.16161
13.275
15.2453
16.9606
18.5523
20.0728
21.5363
22.9455
24.3079
25.6435
26.9846
28.3737
29.8633
31.515
33.3832
35.4638
37.6154
39.4852
40.652
41.4461
41.7952
42.0665
41.9645
42.6466
42.3399
42.5912
42.0909
40.9631
42.1028
42.0419
42.7077
42.0945
9.58561
13.74
15.7606
17.5423
19.1975
20.7613
22.2356
23.6171
24.912
26.1397
27.3294
28.5164
29.7416
31.0565
32.5217
34.1883
36.0469
37.9397
39.5443
40.7397
41.3779
41.7342
41.7088
41.7791
41.3461
41.2398
40.8621
40.1634
40.647
40.7301
41.1164
40.2805
10.2114
14.4369
16.5318
18.4006
20.1353
21.7553
23.2552
24.6301
25.888
27.0492
28.1403
29.1892
30.2251
31.2837
32.4122
33.6648
35.0804
36.6287
38.1467
39.4339
40.2585
40.7191
40.7299
40.489
39.9152
39.5158
39.1382
38.7209
38.9433
39.0896
39.3156
38.6001
10.9867
15.3109
17.4928
19.4555
21.2714
22.9491
24.4796
25.8605
27.1038
28.2321
29.2706
30.2413
31.1624
32.0549
32.9486
33.8844
34.9046
36.027
37.1993
38.2903
39.091
39.5605
39.5769
39.2066
38.5543
37.9688
37.5568
37.318
37.4749
37.7027
37.9031
37.4751
11.8223
16.3138
18.5911
20.6478
22.5414
24.2736
25.8359
27.2304
28.4747
29.5945
30.6139
31.5507
32.4151
33.2168
33.9712
34.7025
35.4413
36.2138
37.0161
37.7891
38.3982
38.7546
38.7237
38.2984
37.62
36.9464
36.5062
36.3657
36.5374
36.8753
37.1442
37.0387
12.8004
17.4136
19.7849
21.9326
23.8993
25.6827
27.2769
28.6903
29.9463
31.0738
32.0961
33.0279
33.8739
34.6368
35.3223
35.9411
36.5094
37.0458
37.5605
38.034
38.3949
38.5658
38.4335
37.9621
37.2752
36.573
36.1165
36.0233
36.2356
36.6857
37.0637
37.2416
13.6026
14.0282
14.5182
14.9128
15.2936
15.5964
15.8599
16.064
16.2271
16.3415
16.4183
16.4559
16.4585
16.427
16.3657
16.2776
16.1646
16.0322
15.8914
15.7716
15.764
15.8753
16.0103
16.1374
16.2454
16.3287
16.3853
16.4123
16.4056
16.364
16.2837
16.166
16.0001
15.7939
15.5287
15.2248
14.8441
14.4511
13.9638
13.5432
18.3437
18.7855
19.2953
19.708
20.107
20.4314
20.7179
20.9469
21.1361
21.2783
21.3832
21.4497
21.4808
21.476
21.4379
21.3685
21.269
21.1433
21.0017
20.8755
20.8662
20.982
21.1167
21.2363
21.3301
21.3941
21.427
21.4271
21.3918
21.3213
21.2129
21.0676
20.8759
20.645
20.3571
20.0321
19.6333
19.2224
18.7153
18.2786
20.7966
21.2639
21.8036
22.2419
22.6694
23.0244
23.3455
23.6119
23.8416
24.0272
24.177
24.2899
24.3679
24.4094
24.4146
24.3845
24.3194
24.2219
24.1011
23.9871
23.9774
24.08
24.1927
24.2832
24.3418
24.3658
24.3549
24.3083
24.2256
24.1085
23.9552
23.7665
23.5344
23.2662
22.9439
22.5884
22.1614
21.7249
21.1877
20.7256
23.0091
23.4957
24.0582
24.516
24.9679
25.3503
25.7034
26.0055
26.2744
26.5028
26.6971
26.8559
26.9806
27.0685
27.1183
27.129
27.1007
27.0351
26.9411
26.8485
26.8392
26.9194
27.0042
27.0617
27.0826
27.065
27.009
26.9154
26.7856
26.6223
26.4243
26.1928
25.9215
25.6177
25.2636
24.8809
24.4296
23.9736
23.4137
22.9321
25.0186
25.5093
26.0794
26.5435
27.0071
27.4046
27.7779
28.1044
28.4013
28.6623
28.8924
29.0888
29.2518
29.3783
29.4652
29.511
29.5145
29.4774
29.4091
29.3384
29.3298
29.3873
29.4454
29.4736
29.4619
29.4086
29.3148
29.1824
29.0138
28.8127
28.5787
28.3145
28.0153
27.6871
27.313
26.9153
26.4525
25.9903
25.4228
24.937
26.824
27.3024
27.866
28.3244
28.7881
29.1907
29.5746
29.9183
30.2377
30.5255
30.7856
31.0141
31.21
31.3691
31.4881
31.5639
31.5949
31.5827
31.5364
31.4833
31.4752
31.5145
31.5498
31.5525
31.5128
31.429
31.3029
31.1373
30.9357
30.7023
30.4382
30.1471
29.8254
29.4801
29.0955
28.6931
28.2303
27.7741
27.2133
26.7397
28.4253
28.8802
29.4297
29.8766
30.3362
30.7412
31.1353
31.4955
31.8362
32.149
32.4366
32.6943
32.9197
33.1081
33.2555
33.3576
33.4124
33.4209
33.3922
33.3516
33.3436
33.3701
33.3875
33.3689
33.3049
33.1944
33.0396
32.8444
32.6131
32.3505
32.0587
31.7427
31.3999
31.0382
30.6436
30.2389
29.7808
29.3363
28.7898
28.34
29.8386
30.2659
30.801
31.2378
31.6958
32.1078
32.5139
32.8916
33.2532
33.5899
33.903
34.1873
34.4394
34.6539
34.826
34.9508
35.0255
35.0509
35.0351
35.003
34.9949
35.0129
35.0167
34.9809
34.8966
34.763
34.5833
34.3618
34.1037
33.8143
33.4971
33.1573
32.7936
32.4146
32.0083
31.597
31.1407
30.7067
30.1751
29.7532
31.0938
31.4951
32.0197
32.4516
32.9128
33.3339
33.7531
34.148
34.529
34.8875
35.2235
35.5313
35.8066
36.0435
36.2365
36.3802
36.4711
36.5093
36.5029
36.4755
36.4674
36.4803
36.4744
36.4254
36.3247
36.172
35.9709
35.7269
35.4453
35.1325
34.7923
34.4308
34.0478
33.6517
33.2325
32.8123
32.3532
31.9244
31.4038
31.0084
32.2221
32.6006
33.1186
33.5499
34.0154
34.4461
34.8774
35.2879
35.686
36.0633
36.4189
36.7463
37.0411
37.2967
37.5067
37.6655
37.7689
37.8167
37.8165
37.7917
37.7834
37.7933
37.7811
37.7222
37.6086
37.4407
37.2223
36.9595
36.6584
36.3257
35.9661
35.5856
35.1855
34.7741
34.3428
33.9132
33.45
33.0222
32.5087
32.1364
33.2457
33.6028
34.1163
34.5472
35.0167
35.4559
35.8978
36.3215
36.734
37.1268
37.4984
37.8421
38.1526
38.4229
38.6464
38.8169
38.9298
38.9847
38.9887
38.9655
38.957
38.9651
38.9484
38.8822
38.7589
38.5789
38.3469
38.0692
37.7523
37.4033
37.0275
36.6316
36.2171
35.7925
35.3507
34.9128
34.4456
34.0185
33.5097
33.1593
34.1761
34.5105
35.0183
35.4478
35.9204
36.3664
36.817
37.2515
37.6759
38.0815
38.4661
38.8227
39.1457
39.4276
39.6617
39.8414
39.962
40.0225
40.0304
40.0089
40.0003
40.0065
39.9856
39.9134
39.7823
39.5929
39.3503
39.0607
38.7312
38.3692
37.9804
37.5716
37.1452
36.7097
36.2593
35.8146
35.3443
34.9185
34.4156
34.0881
35.0147
35.3235
35.8234
36.2504
36.725
37.1765
37.6344
38.078
38.5121
38.9282
39.3232
39.6903
40.0231
40.3143
40.5568
40.744
40.8711
40.9374
40.9501
40.9321
40.9235
40.926
40.9
40.8219
40.6839
40.487
40.2358
39.9369
39.5975
39.2249
38.8255
38.4062
37.97
37.5253
37.0676
36.617
36.1448
35.7214
35.2265
34.9247
35.7606
36.0394
36.5285
36.9517
37.4272
37.8835
38.3478
38.7993
39.2418
39.6667
40.0704
40.4459
40.7866
41.0851
41.3345
41.528
41.6612
41.7338
41.753
41.7404
41.7318
41.7287
41.6961
41.6115
41.4674
41.2639
41.0058
40.6995
40.3521
39.971
39.5629
39.1346
38.6898
38.237
37.7727
37.3171
36.8438
36.4238
35.9396
35.668
36.4133
36.6551
37.1293
37.5472
38.0228
38.4835
38.9538
39.4129
39.8631
40.2959
40.7072
41.0897
41.437
41.7417
41.9968
42.1961
42.3355
42.415
42.4421
42.4363
42.4279
42.418
42.3773
42.2856
42.1351
41.9259
41.6619
41.3493
40.9953
40.6071
40.1913
39.755
39.3023
38.8417
38.3711
37.9107
37.4369
37.0218
36.5522
36.3175
36.9754
37.1683
37.6214
38.0316
38.5062
38.9713
39.4477
39.9144
40.3722
40.8126
41.2308
41.6199
41.973
42.2831
42.5435
42.7483
42.894
42.9809
43.0166
43.0181
43.0098
42.9927
42.9432
42.844
42.6872
42.4724
42.2032
41.8852
41.5252
41.1306
40.7077
40.2636
39.803
39.3346
38.8574
38.3922
37.9188
37.5107
37.0615
36.8754
37.4497
37.5749
37.9987
38.3974
38.8697
39.339
39.8217
40.2962
40.7621
41.2101
41.6353
42.0306
42.3893
42.7046
42.97
43.1802
43.3322
43.4267
43.4709
43.479
43.4707
43.4471
43.3893
43.2824
43.1194
42.8993
42.625
42.302
41.9364
41.5355
41.1055
40.6537
40.1849
39.7082
39.2241
38.7543
38.2823
37.8848
37.4645
37.3458
37.844
37.8731
38.2519
38.6349
39.1024
39.5754
40.0645
40.5476
41.0219
41.4779
41.9105
42.3122
42.6765
42.9969
43.2674
43.4829
43.6411
43.7428
43.7947
43.8085
43.8004
43.7713
43.7058
43.5918
43.4228
43.1974
42.9183
42.5903
42.2193
41.8119
41.3745
40.9145
40.437
39.9515
39.4604
38.986
38.5183
38.135
37.7587
37.7356
38.1654
38.063
38.3735
38.7313
39.1909
39.6666
40.1622
40.6539
41.1371
41.602
42.0423
42.4509
42.8213
43.1471
43.4226
43.6435
43.8077
43.9161
43.9746
43.9932
43.9853
43.9516
43.8796
43.7591
43.5844
43.354
43.07
42.7368
42.3599
41.9457
41.5007
41.0319
40.5453
40.0508
39.5529
39.0753
38.6141
38.255
37.9462
38.0526
38.4076
38.1404
38.3563
38.6747
39.1213
39.5978
40.0993
40.5998
41.0924
41.5665
42.0151
42.4311
42.808
43.1396
43.4205
43.6468
43.8165
43.9309
43.995
44.0176
44.0098
43.9725
43.8951
43.769
43.589
43.3536
43.0647
42.7261
42.343
41.9217
41.4686
40.9908
40.4948
39.9916
39.4879
39.0092
38.561
38.241
38.0256
38.2928
38.5399
38.0916
38.1931
38.4565
38.8817
39.358
39.864
40.3731
40.8747
41.358
41.8151
42.2388
42.6223
42.9599
43.2463
43.4778
43.6527
43.7723
43.8412
43.8667
43.8591
43.8191
43.7374
43.6066
43.4219
43.1818
42.8879
42.5439
42.1546
41.7262
41.2651
40.7784
40.2741
39.7629
39.2555
38.7779
38.3522
38.0874
37.9839
38.4243
38.495
37.8848
37.8725
38.0738
38.4699
38.9415
39.4527
39.9692
40.4793
40.971
41.436
41.8669
42.2568
42.6
42.8915
43.1277
43.307
43.4308
43.5033
43.5311
43.5237
43.4817
43.3968
43.2624
43.0738
42.8298
42.5315
42.1826
41.7878
41.353
40.8848
40.3907
39.8791
39.3621
38.8516
38.3813
37.987
37.7864
37.7972
38.3987
38.2084
37.488
37.3895
37.5362
37.9034
38.3665
38.8806
39.4023
39.9187
40.4165
40.8876
41.3239
41.7187
42.0661
42.3614
42.6009
42.7833
42.9096
42.9843
43.0136
43.0061
42.963
42.8765
42.74
42.5491
42.3025
42.0015
41.6493
41.2506
40.8115
40.3385
39.8397
39.3238
38.8044
38.2938
37.8351
37.4728
37.3294
37.4287
38.1433
37.7215
36.9279
36.7706
36.8751
37.2163
37.6681
38.1813
38.7079
39.2279
39.7293
40.2033
40.6423
41.0391
41.3883
41.6849
41.9253
42.1083
42.235
42.3097
42.339
42.3316
42.2885
42.2021
42.0659
41.8754
41.6289
41.3275
40.9748
40.5754
40.135
39.6606
39.1602
38.6427
38.1211
37.6136
37.1665
36.8275
36.7191
36.8619
37.6241
37.0678
36.2512
36.0736
36.1569
36.4824
36.9245
37.4339
37.9604
38.4794
38.9799
39.4525
39.8897
40.2847
40.6316
40.9257
41.1635
41.3436
41.4673
41.5391
41.5664
41.5585
41.5169
41.4335
41.3007
41.1137
40.8706
40.5727
40.2232
39.8268
39.3893
38.9178
38.4198
37.905
37.3853
36.8829
36.4455
36.1196
36.0253
36.1755
36.9388
36.3366
35.5498
35.39
35.477
35.8
36.237
36.7413
37.2635
37.7777
38.2727
38.7392
39.17
39.5583
39.8983
40.1855
40.416
40.5887
40.7049
40.7699
40.7923
40.7833
40.745
40.6678
40.5425
40.3633
40.1279
39.8376
39.4955
39.1066
38.6764
38.212
37.7209
37.2128
36.6994
36.2041
35.7739
35.4529
35.3587
35.4975
36.2432
35.7764
35.0326
34.9018
34.999
35.3219
35.7515
36.2454
36.7559
37.258
37.7409
38.1954
38.6141
38.9902
39.3183
39.5933
39.8119
39.9723
40.0761
40.1291
40.1426
40.1316
40.0989
40.0321
39.9186
39.7511
39.5274
39.2486
38.9181
38.5406
38.1219
37.6691
37.19
36.6944
36.1949
35.7138
35.2975
34.9881
34.9019
35.0417
35.785
35.4561
34.78
34.6929
34.814
35.1439
35.5693
36.0514
36.5461
37.0327
37.4994
37.9374
38.3396
38.6993
39.011
39.2699
39.4724
39.6166
39.7037
39.7397
39.7394
39.725
39.7016
39.65
39.5525
39.4008
39.1928
38.9298
38.6156
38.255
37.854
37.4198
36.961
36.4878
36.0146
35.5605
35.1703
34.8844
34.8179
34.967
35.7124
35.7705
35.1381
35.0649
35.1675
35.4677
35.8541
36.2944
36.7475
37.1987
37.6339
38.0437
38.4199
38.7556
39.0451
39.2833
39.4663
39.5918
39.66
39.6766
39.6587
39.6398
39.6295
39.5961
39.5166
39.3823
39.1918
38.9471
38.6521
38.3118
37.9322
37.5207
37.0861
36.6389
36.1949
35.7711
35.4076
35.1412
35.0853
35.23
35.9602
36.2042
35.6318
35.5939
35.7109
36.0085
36.3795
36.7969
37.2258
37.6522
38.0625
38.448
38.8006
39.1138
39.3818
39.6
39.7643
39.8724
39.9236
39.9229
39.8884
39.8655
39.8701
39.8545
39.7922
39.6756
39.5039
39.2797
39.0069
38.6905
38.3364
37.952
37.5459
37.1288
36.7161
36.3253
35.9915
35.743
35.6905
35.8132
36.496
37.0128
36.397
36.3285
36.4171
36.6863
37.0278
37.4162
37.8195
38.2224
38.6111
38.9759
39.3092
39.6042
39.8556
40.0586
40.2094
40.3053
40.3459
40.3355
40.2926
40.2698
40.2854
40.2821
40.2325
40.1296
39.9732
39.7656
39.5108
39.2135
38.8794
38.515
38.1286
37.7298
37.3333
36.9546
36.6269
36.3717
36.294
36.3682
36.9766
37.4375
36.9031
36.8854
36.9951
37.2681
37.6003
37.9743
38.3597
38.7436
39.1129
39.4588
39.7741
40.0524
40.2884
40.4777
40.6167
40.7027
40.7352
40.7189
40.6727
40.6528
40.6767
40.6833
40.6454
40.5563
40.416
40.2268
39.9926
39.7181
39.4085
39.0701
38.7105
38.3381
37.9658
37.6058
37.288
37.0229
36.9095
36.8992
37.3698
43.4919
51.3133
57.5425
63.6695
68.9586
73.2489
76.6865
79.4649
81.7395
83.6447
85.3003
86.7827
88.1293
89.3742
90.5481
91.6818
92.8056
93.9479
95.132
96.3753
97.6873
99.0701
100.521
102.033
103.595
105.195
106.816
108.437
110.017
111.488
112.703
113.415
42.7863
50.3214
56.3503
62.3358
67.5504
71.8045
75.2231
77.9929
80.2674
82.1792
83.8434
85.3298
86.6681
87.8991
89.0551
90.1673
91.2674
92.3845
93.543
94.7592
96.0423
97.3951
98.8145
100.292
101.82
103.384
104.967
106.55
108.092
109.527
110.712
111.405
41.9914
49.2802
55.123
60.9699
66.1123
70.3362
73.7445
76.5159
78.8008
80.7283
82.4062
83.8974
85.2316
86.4519
87.5915
88.6842
89.7629
90.8567
91.9893
93.1783
94.4334
95.7565
97.1443
98.5902
100.083
101.611
103.158
104.702
106.206
107.606
108.761
109.434
41.1901
48.2417
53.896
59.5982
64.6649
68.8589
72.2595
75.0372
77.3407
79.2926
80.9902
82.4911
83.8276
85.0388
86.1655
87.2411
88.299
89.3699
90.4794
91.6435
92.8713
94.1657
95.5232
96.9366
98.3954
99.8875
101.398
102.904
104.371
105.735
106.86
107.514
40.3178
47.1488
52.6153
58.1712
63.1665
67.3427
70.7527
73.5545
75.8903
77.8741
79.5948
81.1079
82.4491
83.6581
84.7748
85.8357
86.8767
87.9286
89.0149
90.1542
91.3565
92.6233
93.9515
95.3338
96.7599
98.218
99.6925
101.163
102.592
103.922
105.018
105.653
39.4619
46.0696
51.3399
56.7411
61.6619
65.8224
69.2441
72.0703
74.439
76.4581
78.2077
79.7403
81.0946
82.3073
83.4189
84.4697
85.4951
86.5275
87.5947
88.7129
89.8907
91.1312
92.4312
93.7829
95.177
96.6004
98.0388
99.4725
100.867
102.163
103.23
103.846
38.521
44.915
49.9831
55.2223
60.0699
64.2284
67.6847
70.5615
72.9843
75.0499
76.8336
78.3894
79.7578
80.9806
82.0934
83.1371
84.1518
85.1717
86.2198
87.316
88.4712
89.6869
90.9598
92.283
93.6456
95.037
96.4413
97.8402
99.1976
100.46
101.501
102.097
37.605
43.7785
48.634
53.7002
58.4711
62.6315
66.1257
69.0482
71.5169
73.6279
75.4514
77.0387
78.4337
79.6721
80.7947
81.8391
82.8474
83.8529
84.887
85.967
87.1012
88.2934
89.5403
90.8345
92.1664
93.5242
94.8932
96.2569
97.5808
98.8106
99.8222
100.4
36.5673
42.5253
47.1539
52.0292
56.7144
60.8858
64.4454
67.4538
70.009
72.1907
74.0667
75.6944
77.1169
78.3796
79.5157
80.5669
81.5728
82.5755
83.5967
84.6582
85.7734
86.9435
88.1656
89.4331
90.7354
92.0624
93.3991
94.7286
96.0152
97.2126
98.1993
98.7576
35.5488
41.2824
45.6764
50.3482
54.9424
59.1322
62.7654
65.8524
68.474
70.7184
72.6535
74.3295
75.7963
77.0874
78.2469
79.3124
80.3275
81.3256
82.3396
83.3918
84.4901
85.6398
86.8381
88.0776
89.35
90.644
91.9439
93.2377
94.4915
95.6579
96.6154
97.1536
34.3272
39.8446
43.9825
48.4158
52.8889
57.0906
60.8255
64.055
66.8246
69.1876
71.2068
72.9497
74.4629
75.7996
76.9891
78.0744
79.096
80.102
81.1122
82.151
83.2347
84.3652
85.5403
86.7546
87.9975
89.2603
90.5295
91.7896
93.0058
94.1383
95.0731
95.5901
33.0836
38.3939
42.2741
46.4593
50.8053
55.0317
58.8889
62.2529
65.1245
67.5826
69.6983
71.5198
73.1067
74.4876
75.7162
76.8314
77.8801
78.8912
79.9025
80.9407
82.0127
83.1263
84.2799
85.4663
86.6794
87.9085
89.1389
90.3615
91.5448
92.6489
93.5531
94.0489
31.5305
36.6341
40.2119
44.0761
48.2171
52.4195
56.4121
60.0137
63.1637
65.8442
68.1067
70.0405
71.6979
73.1566
74.4415
75.5965
76.6612
77.6928
78.7106
79.74
80.8024
81.9002
83.0325
84.1957
85.3794
86.5771
87.7774
88.968
90.1123
91.1798
92.0627
92.5367
29.8755
34.8009
38.0978
41.6479
45.5879
49.7951
53.9731
57.8025
61.1065
63.9427
66.3763
68.4464
70.2401
71.7724
73.1166
74.3197
75.4361
76.4868
77.5161
78.5566
79.6138
80.6987
81.8119
82.9471
84.1005
85.2632
86.4215
87.5709
88.679
89.7229
90.5735
91.0223
27.6791
32.4278
35.3668
38.4493
41.9926
46.0324
50.3281
54.5531
58.4515
61.7505
64.471
66.7573
68.6594
70.3183
71.7615
73.0386
74.1849
75.2733
76.323
77.3598
78.4131
79.4865
80.5803
81.6936
82.8173
83.9472
85.0746
86.1939
87.2647
88.2638
89.0948
89.5193
25.1237
29.7944
32.4754
35.1852
38.4084
42.4053
47.0014
51.6024
55.6272
59.1984
62.2691
64.8006
66.9744
68.7738
70.3147
71.6618
72.8938
74.02
75.0954
76.1601
77.217
78.2819
79.3591
80.4437
81.5348
82.6272
83.7081
84.7796
85.8035
86.7865
87.5822
87.9766
21.3465
26.0303
28.308
30.2766
32.6217
35.882
40.2473
45.5364
51.2661
55.9334
59.6096
62.648
65.0248
67.0488
68.7639
70.2515
71.5385
72.7302
73.8457
74.9124
75.972
77.0308
78.0905
79.1532
80.2132
81.2696
82.3166
83.3586
84.3511
85.2769
86.0544
86.4191
16.2522
21.4075
23.8048
25.6131
27.5959
31.1575
36.4939
42.1842
46.649
51.8026
56.4102
59.9026
62.8652
65.1768
67.079
68.6693
70.095
71.3491
72.5105
73.63
74.7062
75.7618
76.8067
77.8391
78.8613
79.8747
80.8683
81.8531
82.7773
83.6955
84.4337
84.7607
6.04525
11.3599
12.6635
12.4432
11.4229
10.0654
12.1649
22.9397
37.976
45.8305
51.6019
56.6023
60.0495
62.8571
65.0925
66.9704
68.5057
69.8815
71.1156
72.2439
73.3309
74.387
75.4163
76.4244
77.4129
78.3844
79.3365
80.2903
81.1923
82.0397
82.7586
83.0465
4.55946
8.15823
9.95818
9.71133
8.04733
1.67967
18.2481
15.6909
18.1363
35.6679
46.3454
51.9299
56.8623
60.2729
62.9375
64.984
66.7596
68.2329
69.546
70.7696
71.8939
72.9541
73.9693
74.9434
75.8821
76.7987
77.6863
78.5683
79.3678
80.2092
80.8865
81.1197
11.6346
15.851
16.6027
15.9711
13.7324
11.9812
13.7309
14.8805
15.9717
20.8907
31.8901
45.5821
51.7571
56.6245
59.9642
62.6584
64.6688
66.3947
67.8461
69.0884
70.2353
71.3054
72.3076
73.2502
74.1505
75.0165
75.845
76.6913
77.477
78.2389
78.8884
79.0686
19.7696
24.2277
26.0897
26.763
26.1945
24.5724
23.154
18.3271
22.0382
24.227
24.8557
34.2098
46.3044
52.0672
56.7555
59.7917
62.3103
64.1968
65.7909
67.2169
68.4409
69.5285
70.5142
71.4145
72.2385
73.0199
73.765
74.5111
75.1365
75.8808
76.493
76.5766
22.0486
27.0146
29.6899
31.6282
32.7038
32.7052
31.342
28.5727
23.3224
27.4481
30.3265
22.2096
32.307
46.1016
51.432
56.1271
59.1114
61.5797
63.4688
64.9211
66.1875
67.3009
68.28
69.1302
69.9067
70.6273
71.2673
71.9725
72.5985
73.2513
73.8218
73.8206
22.8838
27.9569
30.8647
33.191
34.8972
35.9609
36.3192
35.7816
33.7207
28.7552
27.3032
22.6305
24.0309
29.8269
45.3314
50.8631
55.4167
58.1879
60.343
62.2148
63.6515
64.8107
65.763
66.5487
67.1832
67.7382
68.2686
68.7977
69.1202
69.7524
70.2814
70.096
22.3248
27.5463
30.6278
33.2058
35.2429
36.734
37.6882
38.1079
37.8947
36.5248
32.3375
26.738
21.9448
26.5334
32.7128
45.1482
49.6202
53.8629
56.7614
58.5784
60.0811
61.2911
62.2519
62.9438
63.5066
64.0027
64.292
64.7888
65.2182
65.6523
66.2078
65.8027
20.8731
26.228
29.4048
32.1223
34.3567
36.1107
37.4117
38.3049
38.8329
38.9511
38.2331
35.0291
26.6262
30.0505
19.3543
28.7754
43.0306
47.6992
50.9231
54.0141
55.9714
57.2875
58.1919
58.726
58.9677
59.0406
59.2389
59.2759
58.8602
59.4638
59.8048
59.1694
18.9001
24.3489
27.5528
30.3197
32.6447
34.545
36.0517
37.2258
38.1518
38.8944
39.3702
39.0019
35.7299
31.7554
21.4497
20.8372
27.4429
39.4024
45.4629
47.2496
49.1209
50.5512
51.4276
51.8832
51.8216
51.9856
51.7527
51.5627
52.3365
51.6293
53.437
51.4937
16.6678
22.0975
25.227
27.9388
30.2541
32.2124
33.8583
35.2509
36.4775
37.6251
38.7103
39.5145
39.2382
35.8682
28.451
29.7047
25.8373
25.8989
29.9856
38.2577
42.4038
43.4471
44.5864
43.9246
43.5131
42.1898
42.2332
40.3106
36.6799
38.9255
36.9763
38.7691
14.4146
19.6879
22.6405
25.1975
27.4115
29.3434
31.053
32.6052
34.0771
35.5516
37.0639
38.5161
39.5295
39.1497
35.3285
31.2954
29.69
12.3935
18.4995
20.2808
22.9805
31.9528
24.378
27.7576
20.7449
21.2772
46.2264
12.1373
25.1805
7.13733
32.8017
43.6688
12.4298
17.4246
20.1252
22.4564
24.5026
26.3423
28.0453
29.678
31.3076
33.0003
34.8032
36.6708
38.3969
39.4975
38.9862
34.2093
28.0598
19.2777
27.431
10.6324
24.6435
38.6499
25.3844
34.2822
14.3152
24.032
44.4872
20.9681
31.7119
20.509
36.5604
41.4809
10.8981
15.5439
17.9752
20.0625
21.9183
23.634
25.2824
26.9244
28.6128
30.3953
32.3183
34.3877
36.5108
38.4054
39.531
38.8823
35.6083
30.8449
31.8398
24.1343
30.5728
33.7431
24.5301
34.3305
30.5793
32.4131
40.2921
33.9675
30.5129
37.5988
29.8774
31.1389
9.7676
14.1687
16.3718
18.2537
19.9494
21.5531
23.1315
24.7314
26.3895
28.14
30.0227
32.0746
34.2959
36.5665
38.5502
39.6771
39.4952
38.075
34.1616
30.812
35.8527
29.2606
28.8309
30.6173
34.3635
35.9124
34.805
39.6079
38.6188
40.1224
38.5432
41.8313
9.16451
13.3747
15.417
17.1658
18.7641
20.297
21.8147
23.346
24.9126
26.5408
28.2674
30.1412
32.2084
34.4672
36.7827
38.7983
40.0423
40.3497
39.0786
38.3729
36.115
37.5177
38.5885
39.3651
41.0402
41.6708
41.2093
43.8651
42.1169
43.0055
43.4891
44.8826
8.98722
13.1091
15.0805
16.7809
18.3513
19.8609
21.3402
22.8019
24.2575
25.7291
27.2521
28.8746
30.6537
32.6412
34.8373
37.1037
39.1023
40.4416
40.7457
40.8221
39.9077
40.9852
41.5992
42.0737
42.6057
42.7239
42.4989
43.9465
42.3143
42.7757
44.0988
44.8944
9.16435
13.2769
15.2507
16.9716
18.5689
20.0932
21.5581
22.9662
24.325
25.6546
26.9864
28.3619
29.8325
31.4586
33.2955
35.3442
37.4688
39.3636
40.6387
41.3633
41.3734
41.9148
42.2283
42.5306
42.7025
42.4815
42.1751
42.8713
41.5033