/*--------------------------------*- C++ -*----------------------------------*\
  =========                 |
  \\      /  F ield         | OpenFOAM: The Open Source CFD Toolbox
   \\    /   O peration     | Website:  https://openfoam.org
    \\  /    A nd           | Version:  6
     \\/     M anipulation  |
\*---------------------------------------------------------------------------*/
FoamFile
{
    version     2.0;
    format      ascii;
    class       volScalarField;
    location    "34";
    object      yPlus;
}
// * * * * * * * * * * * * * * * * * * * * * * * * * * * * * * * * * * * * * //

dimensions      [0 0 0 0 0 0 0];

internalField   uniform 0;

boundaryField
{
    inlet
    {
        type            calculated;
        value           uniform 0;
    }
    outlet
    {
        type            calculated;
        value           uniform 0;
    }
    roughCylinder
    {
        type            calculated;
        value           nonuniform List<scalar> 
5120
(
43.5209
51.3407
57.5702
63.6975
68.9871
73.2777
76.7155
79.4943
81.7692
83.6749
85.3308
86.8135
88.1604
89.4054
90.5798
91.7139
92.838
93.9805
95.165
96.4088
97.7212
99.1047
100.556
102.068
103.631
105.232
106.854
108.476
110.057
111.53
112.744
113.465
42.8076
50.3431
56.3735
62.3605
67.5768
71.8323
75.2521
78.0227
80.2973
82.2092
83.8736
85.3602
86.699
87.9306
89.0869
90.1993
91.2999
92.4176
93.5765
94.793
96.0765
97.4299
98.8498
100.329
101.857
103.421
105.006
106.589
108.132
109.57
110.753
111.456
42.0215
49.3087
55.1517
60.999
66.1417
70.3656
73.7738
76.5451
78.8303
80.7584
82.4368
83.9286
85.2633
86.4836
87.6236
88.7169
89.7958
90.8898
92.0227
93.2123
94.4678
95.7915
97.1802
98.6266
100.12
101.649
103.196
104.741
106.247
107.649
108.802
109.486
41.2093
48.2614
53.9169
59.6205
64.689
68.8851
72.2877
75.0671
77.3714
79.3235
81.0211
82.5219
83.8586
85.0705
86.1977
87.2733
88.3318
89.4034
90.5133
91.6778
92.9061
94.2009
95.559
96.9731
98.4327
99.9256
101.437
102.944
104.412
105.779
106.902
107.568
40.3479
47.1776
52.6447
58.2015
63.1974
67.3736
70.7828
73.5838
75.9192
77.9033
79.6248
81.1389
82.4811
83.6902
84.8072
85.8689
86.9102
87.9621
89.0487
90.1886
91.3913
92.6587
93.9876
95.3708
96.7977
98.2567
99.7314
101.202
102.634
103.966
105.059
105.707
39.4792
46.0864
51.357
56.7591
61.6816
65.8444
69.269
72.0982
74.4692
76.4895
78.2394
79.7718
81.1256
82.339
83.4514
84.5019
85.5279
86.5613
87.6291
88.7475
89.9258
91.1669
92.4673
93.8201
95.2145
96.6387
98.0792
99.5132
100.908
102.207
103.271
103.901
38.55
44.9434
50.0129
55.254
60.1034
64.2626
67.7181
70.5929
73.014
75.0789
76.8627
78.4195
79.7895
81.0129
82.1255
83.1705
84.1858
85.2055
86.2537
87.3505
88.5062
89.7226
90.9963
92.3198
93.6842
95.0763
96.4809
97.8797
99.2404
100.506
101.541
102.154
37.6192
43.791
48.6452
53.7107
58.4818
62.6443
66.1423
69.0698
71.5433
73.6575
75.4828
77.0707
78.4649
79.7036
80.8275
81.8715
82.8797
83.8865
84.9216
86.0019
87.1366
88.3294
89.5767
90.8718
92.2042
93.5632
94.9347
96.2983
97.6229
98.8555
99.8625
100.459
36.594
42.5523
47.184
52.0637
56.7535
60.9278
64.4868
67.4917
70.0428
72.2216
74.096
75.7237
77.1479
78.4115
79.5469
80.5997
81.6072
82.6096
83.6306
84.6928
85.8085
86.9794
88.2025
89.4705
90.7743
92.102
93.4391
94.768
96.0591
97.2601
98.2394
98.8188
35.5577
41.2878
45.6776
50.3448
54.9358
59.1258
62.7641
65.86
68.491
70.7426
72.6822
74.3603
75.8271
77.1185
78.2802
79.3451
80.3593
81.3587
82.374
83.4267
84.5257
85.6759
86.8746
88.1152
89.3882
90.683
91.9867
93.2799
94.5349
95.704
96.6545
97.217
34.35
39.8696
44.014
48.4574
52.9415
57.1508
60.8854
64.1069
66.8667
69.2223
71.2371
72.9793
74.4935
75.8312
77.019
78.1057
79.1301
80.1361
81.146
82.1854
83.2697
84.4012
85.5775
86.7922
88.0365
89.3005
90.5699
91.8282
93.0506
94.188
95.1112
95.657
33.0852
38.3886
42.2584
46.4295
50.762
54.9825
58.8479
62.2318
65.1245
67.5983
69.7239
71.548
73.135
74.5165
75.7492
76.8651
77.9115
78.9235
79.9365
80.9753
82.0481
83.1622
84.3163
85.5041
86.7183
87.9481
89.1823
90.4048
91.5892
92.6961
93.5903
94.119
31.5444
36.6538
40.2456
44.1342
48.3054
52.5302
56.5198
60.0969
63.2206
65.8829
68.134
70.0683
71.7292
73.1899
74.4708
75.6253
76.6941
77.7266
78.744
79.7739
80.8369
81.936
83.0696
84.2333
85.4185
86.6181
87.8195
89.0053
90.1583
91.2324
92.0988
92.6113
29.8688
34.7824
38.056
41.5649
45.4538
49.6267
53.8254
57.7144
61.0738
63.9445
66.4028
68.4756
70.2652
71.7951
73.1463
74.3536
75.4675
76.5181
77.5492
78.5907
79.6489
80.7342
81.8482
82.9849
84.14
85.3033
86.4658
87.6146
88.7272
89.7709
90.6067
91.1011
27.6717
32.431
35.3995
38.5505
42.1993
46.3289
50.6001
54.7277
58.5429
61.8019
64.4886
66.7746
68.6882
70.3571
71.7944
73.0661
74.2158
75.306
76.3556
77.3929
78.447
79.5219
80.6173
81.7312
82.8564
83.9894
85.1204
86.2301
87.3105
88.3208
89.1269
89.6054
25.116
29.7738
32.4089
34.9928
38.0001
41.7968
46.4742
51.2994
55.5003
59.1451
62.2911
64.8367
66.9992
68.7831
70.3334
71.6924
72.9245
74.0502
75.1271
76.1932
77.2513
78.3171
79.3953
80.4813
81.5747
82.6677
83.7536
84.8219
85.8585
86.8355
87.6088
88.0695
21.2767
25.9594
28.2779
30.4474
33.2097
36.9584
41.2102
46.0993
51.5143
56.1049
59.6412
62.6513
65.0456
67.1023
68.8102
70.2822
71.5681
72.7612
73.8774
74.944
76.0049
77.0654
78.1269
79.1908
80.2524
81.3135
82.3679
83.3951
84.3953
85.3412
86.0808
86.5225
16.3727
21.5352
23.9387
25.4346
26.7955
29.3308
34.698
40.9521
46.0647
51.3569
56.3317
59.9178
62.8815
65.1504
67.0682
68.6875
70.1211
71.377
72.5391
73.6615
74.7393
75.7965
76.8427
77.876
78.9015
79.9159
80.916
81.8901
82.8438
83.7454
84.4475
84.876
5.67831
10.9026
11.876
12.6595
12.0266
5.83745
12.7574
26.0064
39.248
47.0657
51.8726
56.6718
60.0882
62.9608
65.1775
67.0155
68.5382
69.9108
71.1465
72.273
73.3621
74.4202
75.4517
76.4619
77.4518
78.4303
79.3959
80.3289
81.2366
82.1143
82.7777
83.1746
8.37402
10.4667
9.53152
9.1104
9.39271
16.3068
10.1489
5.63624
18.0158
32.5934
45.6468
51.6617
56.7639
60.1321
62.8517
64.9701
66.7716
68.2541
69.567
70.7978
71.9249
72.988
74.0057
74.9788
75.922
76.8422
77.7401
78.5932
79.4461
80.2629
80.8727
81.2755
12.0954
16.5183
17.8032
17.3309
15.4056
16.7686
17.054
14.9551
11.1355
19.6333
33.1776
46.379
52.0363
56.8791
60.1454
62.7393
64.7116
66.4225
67.8769
69.1124
70.2625
71.3366
72.3404
73.2872
74.1885
75.063
75.9173
76.7323
77.5351
78.3242
78.8997
79.238
19.8193
24.2976
26.2388
27.1142
26.6363
24.6141
23.7696
20.0036
19.9875
20.7076
16.8988
31.5987
45.4196
51.6638
56.5185
59.7225
62.2936
64.2009
65.794
67.2386
68.4703
69.5604
70.5525
71.4465
72.275
73.0709
73.834
74.5125
75.2182
75.9499
76.422
76.8064
22.2942
27.267
29.966
31.9369
33.0567
33.0916
31.6041
29.0724
25.2614
25.8193
19.8579
18.5862
33.4654
45.9627
51.7315
56.2363
59.1577
61.599
63.497
64.9307
66.2025
67.3301
68.3077
69.1652
69.9418
70.6659
71.3686
72.0106
72.712
73.3434
73.809
74.0831
23.0925
28.1843
31.1186
33.4737
35.2041
36.2844
36.6664
36.1871
34.2772
30.0419
25.7424
29.6283
34.3704
33.827
45.3028
50.874
55.3706
58.1426
60.3017
62.2246
63.6863
64.8397
65.8051
66.5736
67.2054
67.8147
68.3665
68.7489
69.1961
69.8654
70.109
70.4655
22.551
27.783
30.8843
33.4802
35.5279
37.0167
37.9521
38.3414
38.1185
36.8628
33.2344
26.1621
27.4183
27.8759
32.9064
44.3916
49.4298
53.8276
56.7641
58.5349
60.0547
61.3198
62.2785
62.9659
63.5286
63.9872
64.4866
64.7999
65.4945
65.736
66.0536
66.342
21.0683
26.4351
29.627
32.3531
34.5839
36.3177
37.5783
38.4065
38.838
38.8098
37.8427
34.2236
28.5717
15.1018
10.3187
31.4887
43.0219
47.3603
50.7607
54.0203
56.042
57.3227
58.2315
58.7426
58.9283
59.2083
59.3178
59.0765
59.0226
59.7069
59.5251
59.7456
19.0533
24.5114
27.7239
30.4914
32.8049
34.6788
36.143
37.2576
38.1069
38.7521
39.0804
38.4023
34.7612
26.8892
14.4513
8.15193
26.6432
39.6506
45.1993
46.924
48.945
50.5214
51.6222
51.7005
51.7654
51.5972
52.1801
51.4527
53.0862
51.5686
51.7624
53.4204
16.7588
22.1974
25.3309
28.0392
30.3421
32.2782
33.8926
35.2449
36.4243
37.5194
38.5457
39.2704
38.7754
35.0377
29.4006
6.74943
26.269
18.0384
29.302
38.5971
42.7295
43.9393
44.1601
44.3363
43.099
42.6012
41.2754
39.1095
40.4977
39.4266
39.4068
37.8398
14.4682
19.7471
22.6989
25.2492
27.451
29.3661
31.056
32.5883
34.0447
35.5127
37.0271
38.4878
39.5292
39.2545
35.9355
26.9101
18.1647
17.8369
17.5261
16.9315
22.3738
23.5579
30.8257
23.2161
18.642
14.3569
23.3838
9.39287
24.7321
34.926
12.4581
30.7078
12.4639
17.4618
20.1586
22.4812
24.5157
26.3423
28.0329
29.658
31.2894
32.9997
34.8414
36.7724
38.5869
39.8454
39.7296
37.0449
28.3245
27.4319
27.3963
10.0232
16.627
20.1746
36.8769
14.1261
3.99377
32.69
28.966
12.8006
34.3945
8.60615
26.8258
40.4222
10.9238
15.5708
17.9969
20.0748
21.9195
23.6239
25.2636
26.9028
28.5988
30.4049
32.3727
34.5148
36.7406
38.7673
40.111
40.1906
37.623
31.4666
29.8552
18.7877
30.4909
25.2588
34.5054
27.2249
29.2298
29.5233
37.1155
33.3139
42.8961
33.1741
40.0771
41.7386
9.78624
14.1873
16.3839
18.2563
19.9414
21.5354
23.1069
24.7055
26.3711
28.1422
30.0645
32.1812
34.4944
36.8814
39.0139
40.4195
40.4937
38.5443
35.1732
32.1532
27.9998
27.1049
26.8546
32.7087
35.8352
37.6398
35.9905
39.5044
32.6994
41.3365
36.9094
36.2381
9.1774
13.386
15.4213
17.1604
18.749
20.2738
21.7865
23.3172
24.8894
26.5323
28.2875
30.21
32.3506
34.7053
37.1311
39.2813
40.6431
40.8064
39.9868
39.3428
35.7782
37.444
37.309
40.0275
42.1677
42.9767
41.619
42.8951
35.7158
44.1224
39.3256
41.3553
8.99768
13.117
15.0812
16.7725
18.3347
19.8383
21.3145
22.7763
24.2354
25.7157
27.2555
28.9073
30.7336
32.7889
35.0684
37.4212
39.4875
40.8155
41.291
41.3375
40.0638
41.0461
41.1627
42.3873
43.333
43.5108
42.6863
42.9586
39.4896
43.7532
41.0623
43.1508
9.17481
13.2841
15.2516
16.9654
18.557
20.0784
21.5428
22.9519
24.3129
25.646
26.9847
28.3735
29.8674
31.5299
33.4164
35.5197
37.6849
39.5805
40.8936
41.5994
41.4093
42.0412
42.066
42.7671
43.1265
42.9095
42.2021
42.2496
40.3848
42.5659
41.3067
42.9786
9.61036
13.7616
15.7818
17.5651
19.2238
20.7919
22.2698
23.6528
24.9464
26.1702
27.3539
28.5336
29.7516
31.0597
32.5181
34.176
36.0186
37.8969
39.5478
40.7489
41.2729
41.8368
41.8404
42.1573
42.0409
41.5359
40.8565
40.8413
39.6532
40.7559
40.3902
41.6487
10.2496
14.473
16.5697
18.4431
20.1843
21.8113
23.317
24.6952
25.953
27.1106
28.1949
29.2345
30.2589
31.3038
32.416
33.6477
35.0365
36.5563
38.0783
39.3941
40.2523
40.8467
40.8767
40.9252
40.5102
39.8417
39.174
39.1314
38.2787
38.8635
39.0113
39.995
11.0404
15.3641
17.5498
19.5194
21.3437
23.0298
24.5674
25.9525
27.1966
28.3224
29.355
30.3166
31.2258
32.1035
32.9792
33.8924
34.8851
35.9792
37.1398
38.2493
39.1017
39.6558
39.705
39.586
39.0313
38.3041
37.6668
37.5896
36.9981
37.3679
37.8067
38.6238
11.8907
16.3855
18.6685
20.7333
22.6361
24.3773
25.9469
27.3462
28.5921
29.7101
30.7245
31.6532
32.5069
33.2952
34.0329
34.7429
35.4569
36.204
36.9888
37.7646
38.4033
38.8072
38.8133
38.5796
37.9753
37.2452
36.6433
36.5402
36.1851
36.5148
37.117
37.8407
12.8882
17.5052
19.8828
22.0388
24.0146
25.8067
27.4082
28.8264
30.0843
31.2104
32.2286
33.1532
33.9897
34.7408
35.4114
36.0111
36.5573
37.0708
37.5651
38.0291
38.3962
38.5869
38.4838
38.1454
37.5167
36.7995
36.2312
36.1192
35.9686
36.3416
37.0375
37.7075
13.6752
14.0954
14.5787
14.9661
15.3409
15.6378
15.8973
16.0977
16.2582
16.3709
16.4469
16.484
16.4863
16.4557
16.3959
16.3093
16.1988
16.0701
15.9362
15.8322
15.8584
15.9849
16.1272
16.2589
16.37
16.4559
16.5146
16.5438
16.5388
16.4989
16.4199
16.3034
16.138
15.9315
15.6651
15.3582
14.9733
14.574
14.0782
13.6471
18.427
18.8628
19.3657
19.7709
20.1637
20.4823
20.7646
20.9901
21.1766
21.317
21.4211
21.4873
21.5179
21.5137
21.4768
21.4089
21.3115
21.1891
21.0538
20.9432
20.968
21.0991
21.2406
21.3641
21.4607
21.5268
21.5618
21.5638
21.5302
21.4615
21.3545
21.2103
21.0192
20.788
20.499
20.171
19.7682
19.3506
18.8348
18.387
20.8854
21.3461
21.879
22.31
22.7315
23.0812
23.3988
23.6623
23.8899
24.0742
24.2236
24.3367
24.4147
24.4567
24.4632
24.4346
24.3715
24.277
24.1622
24.0628
24.085
24.2021
24.3212
24.4152
24.4763
24.5023
24.4934
24.4488
24.3679
24.2528
24.1011
23.9139
23.6827
23.4146
23.0915
22.7336
22.3026
21.8596
21.3139
20.8403
23.1007
23.5805
24.1366
24.5878
25.0344
25.4123
25.7626
26.0627
26.3304
26.5583
26.7524
26.9119
27.0372
27.1258
27.1767
27.189
27.1625
27.0998
27.0118
26.933
26.9507
27.0445
27.1354
27.1964
27.2196
27.2039
27.1497
27.0581
26.9303
26.7693
26.5732
26.3436
26.0737
25.7706
25.4162
25.0319
24.5772
24.1154
23.5474
23.0548
25.1107
25.5948
26.1593
26.6176
27.0769
27.4709
27.8421
28.1676
28.4642
28.7255
28.9561
29.1536
29.3177
29.4449
29.5331
29.5801
29.5854
29.5512
29.4886
29.431
29.4444
29.5148
29.5787
29.6102
29.6005
29.5491
29.4571
29.3267
29.1601
28.9615
28.7298
28.4681
28.1707
27.8439
27.4703
27.0718
26.6064
26.1392
25.5645
25.0683
26.9153
27.3876
27.9465
28.4002
28.8609
29.2612
29.6439
29.9877
30.3078
30.5965
30.8577
31.0874
31.2843
31.4445
31.5644
31.6414
31.674
31.6644
31.6235
31.5826
31.5926
31.6438
31.6847
31.6904
31.6526
31.5704
31.4457
31.282
31.0826
30.8518
30.5902
30.3021
29.9828
29.64
29.2566
28.8541
28.3896
27.9294
27.3622
26.8792
28.5157
28.965
29.5108
29.9542
30.4121
30.8166
31.2108
31.5719
31.9139
32.228
32.5168
32.7756
33.0021
33.1914
33.3393
33.4423
33.4982
33.5091
33.4853
33.4558
33.4637
33.5008
33.5233
33.5073
33.4449
33.3356
33.1821
32.9886
32.7594
32.4992
32.2104
31.8975
31.5576
31.1989
30.8065
30.403
29.944
29.4966
28.9446
28.4861
29.9288
30.3516
30.884
31.3189
31.7767
32.1892
32.5962
32.9754
33.3383
33.6764
33.9907
34.276
34.5289
34.744
34.9163
35.0416
35.117
35.1441
35.1328
35.1106
35.1168
35.1445
35.1528
35.1191
35.036
34.9032
34.7244
34.5044
34.2481
33.9612
33.6469
33.3103
32.95
32.5744
32.171
31.7616
31.3058
30.8701
30.3337
29.9038
31.1849
31.5828
32.106
32.5376
32.9994
33.4217
33.8422
34.2388
34.6212
34.981
35.318
35.6266
35.9023
36.1394
36.3323
36.4758
36.5669
36.6063
36.6036
36.5855
36.5907
36.6123
36.6103
36.5627
36.4626
36.3103
36.1099
35.8669
35.5871
35.2764
34.9391
34.5809
34.2014
33.809
33.3931
32.9757
32.5177
32.0884
31.5638
31.1608
32.3152
32.6914
33.2094
33.6411
34.1077
34.54
34.973
35.3851
35.7847
36.1632
36.5196
36.8475
37.1423
37.3975
37.607
37.7651
37.8682
37.9164
37.9193
37.903
37.9074
37.9252
37.9161
37.858
37.7444
37.5762
37.3581
37.0961
36.7964
36.4657
36.1088
35.7317
35.3353
34.9277
34.5
34.0734
33.6119
33.184
32.6671
32.2877
33.342
33.6977
34.2117
34.6434
35.1147
35.5557
35.9994
36.4247
36.8386
37.2325
37.6047
37.9486
38.2586
38.5281
38.7505
38.9198
39.0318
39.0864
39.0928
39.0774
39.0809
39.0963
39.0818
39.0157
38.8917
38.711
38.4788
38.2013
37.8856
37.5385
37.1653
36.7725
36.3617
35.9411
35.5032
35.0685
34.6033
34.1763
33.6647
33.3069
34.2749
34.6092
35.1179
35.5489
36.0235
36.4716
36.9241
37.3604
37.786
38.1925
38.5774
38.9339
39.256
39.5367
39.7691
39.947
40.066
40.1258
40.1355
40.1211
40.1236
40.136
40.1166
40.0437
39.9113
39.7208
39.4773
39.1876
38.8589
38.4984
38.112
37.7063
37.2837
36.8522
36.4056
35.9643
35.4962
35.0708
34.5648
34.2295
35.116
35.4256
35.9269
36.356
36.8327
37.2866
37.7466
38.192
38.6274
39.0442
39.4393
39.8058
40.1374
40.4268
40.6672
40.852
40.9769
41.0419
41.0557
41.0439
41.0451
41.0529
41.0277
40.9481
40.8082
40.6095
40.357
40.0575
39.7185
39.3471
38.9499
38.5336
38.1009
37.6603
37.2065
36.7596
36.2896
35.8663
35.3682
35.0577
35.8642
36.1441
36.6354
37.0611
37.5392
37.9981
38.4646
38.918
39.3618
39.7874
40.191
40.5655
40.9047
41.201
41.4476
41.6381
41.7685
41.8392
41.8589
41.8514
41.8509
41.8519
41.8193
41.7327
41.5859
41.3801
41.1201
40.8126
40.4651
40.085
39.6787
39.2533
38.812
38.3631
37.9028
37.4508
36.9796
36.5597
36.0717
35.7903
36.5175
36.7616
37.2387
37.6596
38.1382
38.602
39.0748
39.536
39.9876
40.421
40.8319
41.2133
41.5586
41.8606
42.1125
42.3082
42.4443
42.5212
42.548
42.546
42.5435
42.5364
42.4948
42.4005
42.2468
42.0344
41.768
41.4538
41.0992
40.7115
40.2974
39.8637
39.4142
38.9576
38.4908
38.0339
37.562
37.1467
36.6723
36.4267
37.0782
37.2749
37.7318
38.1457
38.6241
39.0929
39.5721
40.0413
40.5006
40.9417
41.3595
41.7472
42.0981
42.405
42.6616
42.8622
43.0038
43.0876
43.122
43.1257
43.1211
43.1053
43.0541
42.9514
42.7907
42.5722
42.2998
41.9796
41.6186
41.224
40.8023
40.3607
39.9033
39.4387
38.9653
38.5034
38.0314
37.6222
37.1661
36.9674
37.5478
37.6792
38.1081
38.5118
38.9887
39.4622
39.9485
40.426
40.8938
41.3426
41.7675
42.1613
42.5174
42.8292
43.0902
43.2956
43.4427
43.5332
43.575
43.5835
43.577
43.5531
43.4924
43.3813
43.2135
42.9888
42.7108
42.3849
42.0178
41.6164
41.1873
40.7376
40.2718
39.7989
39.3184
38.8515
38.3806
37.9803
37.5513
37.4181
37.9331
37.9721
38.3581
38.7473
39.2204
39.6986
40.1923
40.6789
41.1557
41.613
42.0454
42.4456
42.8072
43.1237
43.3892
43.5993
43.7518
43.8485
43.8967
43.9092
43.9007
43.8696
43.8001
43.6809
43.5062
43.2754
42.9917
42.66
42.2867
41.8785
41.4417
40.9835
40.5089
40.0268
39.5393
39.0675
38.6
38.2127
37.8265
37.7872
38.2386
38.1521
38.4733
38.8393
39.3058
39.7879
40.2889
40.7852
41.2717
41.7384
42.179
42.5862
42.9537
43.2753
43.5455
43.7603
43.9178
44.0201
44.0735
44.0889
44.0787
44.0413
43.964
43.8372
43.6557
43.4188
43.1292
42.7916
42.4118
41.9962
41.5512
41.0839
40.5999
40.1086
39.6138
39.1382
38.6757
38.3116
37.9924
38.0829
38.463
38.2173
38.4473
38.7763
39.2313
39.7153
40.2234
40.7296
41.2264
41.7029
42.1523
42.5673
42.9413
43.2685
43.5435
43.7629
43.9252
44.0323
44.09
44.1075
44.0954
44.0528
43.9685
43.8347
43.6468
43.4038
43.1082
42.7642
42.3773
41.9539
41.5003
41.0234
40.5299
40.0292
39.528
39.0496
38.5993
38.2747
38.0504
38.3057
38.5696
38.152
38.2725
38.5496
38.985
39.4704
39.9843
40.5001
41.0069
41.4935
41.9521
42.375
42.7559
43.0889
43.369
43.5928
43.7594
43.8704
43.9313
43.9501
43.9363
43.8892
43.7991
43.6591
43.4649
43.2159
42.9141
42.5635
42.1695
41.7381
41.2757
40.7894
40.2868
39.7777
39.2719
38.7938
38.3661
38.098
37.99
38.4273
38.5288
37.9445
37.9495
38.1641
38.571
39.0516
39.5708
40.0944
40.6102
41.1059
41.5728
42.0033
42.3906
42.7289
43.0137
43.2415
43.4115
43.5253
43.5884
43.6077
43.5923
43.5415
43.4466
43.3012
43.1016
42.8471
42.5395
42.1827
41.7818
41.3429
40.8724
40.3779
39.8669
39.3511
38.8407
38.3703
37.9762
37.7763
37.7909
38.4015
38.2618
37.5602
37.4752
37.6335
38.0101
38.4815
39.0025
39.5305
40.0522
40.554
41.0269
41.4627
41.8547
42.1969
42.4846
42.7148
42.8866
43.0017
43.0652
43.0844
43.0673
43.0137
42.9152
42.7661
42.5626
42.3037
41.9916
41.6298
41.2236
40.779
40.3025
39.802
39.2855
38.7654
38.2551
37.7982
37.4408
37.3064
37.4217
38.1605
37.7661
37.0095
36.8754
36.9937
37.3439
37.8018
38.3192
38.849
39.3726
39.8766
40.3515
40.7891
41.1824
41.5254
41.8133
42.0432
42.2141
42.3281
42.39
42.4075
42.3887
42.3334
42.2335
42.0828
41.8775
41.6167
41.3023
40.9382
40.5293
40.0819
39.6026
39.0992
38.5807
38.0585
37.5532
37.1135
36.7896
36.7083
36.8953
37.7231
37.1155
36.3542
36.2106
36.311
36.6453
37.0911
37.6014
38.1277
38.6477
39.1484
39.6201
40.0543
40.444
40.7831
41.0669
41.2923
41.4585
41.5673
41.6245
41.6383
41.6179
41.5626
41.4639
41.3148
41.1109
40.8516
40.5385
40.1756
39.7681
39.3218
38.8441
38.342
37.8256
37.3055
36.8069
36.3807
36.0771
36.0214
36.2302
37.0784
36.5344
35.7728
35.6249
35.7093
36.0271
36.4567
36.9537
37.4692
37.9795
38.4716
38.9347
39.3606
39.7419
40.0725
40.3476
40.564
40.7208
40.8203
40.8688
40.8766
40.8543
40.8015
40.7077
40.564
40.3658
40.112
39.8044
39.447
39.0448
38.604
38.1315
37.6348
37.1233
36.6085
36.1174
35.7004
35.4049
35.3533
35.5538
36.3838
36.0017
35.3101
35.2052
35.3019
35.6179
36.036
36.5175
37.0162
37.5106
37.9869
38.4347
38.8453
39.2116
39.5273
39.7877
39.9892
40.1311
40.2155
40.25
40.2477
40.2234
40.1763
40.0917
39.9582
39.7699
39.526
39.2283
38.8809
38.4888
38.0583
37.5961
37.1098
36.6091
36.1054
35.6248
35.2163
34.9245
34.8689
35.0518
35.8514
35.8721
35.151
35.0331
35.1278
35.4399
35.8518
36.3235
36.81
37.2924
37.756
38.1904
38.587
38.9387
39.2394
39.4843
39.6701
39.7956
39.8629
39.8804
39.8656
39.8408
39.8045
39.7345
39.6158
39.4419
39.2123
38.9295
38.5973
38.2214
37.8076
37.363
36.8957
36.4156
35.9357
35.4779
35.0895
34.8126
34.7661
34.9476
35.7442
36.0578
35.3889
35.2981
35.3971
35.6991
36.0902
36.5357
36.9948
37.4514
37.8901
38.3005
38.674
39.0035
39.2829
39.5076
39.6739
39.7801
39.8278
39.8251
39.7937
39.7685
39.747
39.6946
39.5931
39.4364
39.2245
38.9604
38.6484
38.2936
37.9022
37.4811
37.0383
36.5832
36.1296
35.6928
35.3151
35.032
34.9549
35.0695
35.7551
36.4929
35.8664
35.8004
35.9067
36.2028
36.5776
37.0006
37.4372
37.8708
38.2868
38.6749
39.0266
39.335
39.5946
39.8005
39.9492
40.0387
40.07
40.0504
40.0036
39.9782
39.971
39.9344
39.8483
39.7077
39.5133
39.2682
38.9767
38.644
38.276
37.8793
37.4618
37.0328
36.6059
36.1952
35.8358
35.5581
35.4704
35.5539
36.1897
37.1286
36.5363
36.4859
36.5858
36.8647
37.214
37.6102
38.02
38.4276
38.8186
39.1827
39.5117
39.7991
40.039
40.227
40.3596
40.4347
40.4528
40.4205
40.3621
40.3349
40.336
40.3095
40.2343
40.1061
39.926
39.697
39.4236
39.1107
38.7645
38.3915
37.9999
37.5993
37.2039
36.8293
36.507
36.2605
36.1982
36.2917
36.9294
37.5934
37.0152
36.9716
37.0687
37.3391
37.6754
38.058
38.4537
38.8474
39.2243
39.5748
39.8908
40.1656
40.3938
40.5711
40.6939
40.7601
40.7705
40.7315
40.6668
40.6369
40.6397
40.6166
40.5463
40.4241
40.2513
40.0308
39.7672
39.4655
39.1315
38.7721
38.3954
38.0117
37.6354
37.2833
36.9891
36.7737
36.7447
36.8735
37.5548
43.4906
51.3122
57.5419
63.669
68.9577
73.247
76.6834
79.4605
81.7342
83.6389
85.2943
86.7769
88.1237
89.3688
90.543
91.6769
92.801
93.9436
95.1282
96.3721
97.6849
99.0686
100.52
102.033
103.597
105.199
106.823
108.449
110.034
111.512
112.729
113.45
42.7748
50.3123
56.3426
62.3288
67.5437
71.798
75.2168
77.9869
80.2617
82.1738
83.8382
85.3243
86.6625
87.8934
89.0494
90.1618
91.2623
92.38
93.539
94.7557
96.0396
97.3933
98.8135
100.293
101.822
103.388
104.975
106.563
108.11
109.552
110.739
111.442
41.9928
49.2813
55.1244
60.9713
66.1131
70.3357
73.7424
76.5119
78.7954
80.7219
82.3992
83.8905
85.2251
86.4457
87.5858
88.6789
89.7577
90.8519
91.9849
93.1746
94.4305
95.7545
97.1438
98.5902
100.085
101.615
103.165
104.715
106.225
107.632
108.788
109.472
41.1745
48.2288
53.8844
59.5871
64.6542
68.8487
72.2502
75.0291
77.3337
79.2867
80.9849
82.4856
83.8217
85.0326
86.1592
87.2349
88.2934
89.3648
90.4749
91.6397
92.8683
94.1635
95.5221
96.9366
98.3973
99.8917
101.404
102.917
104.39
105.762
106.889
107.554
40.3223
47.1528
52.6198
58.1761
63.1708
67.3455
70.7531
73.5522
75.8855
77.8672
79.5868
81.0997
82.4416
83.6513
84.7688
85.8301
86.8712
87.9234
89.0102
90.1502
91.3533
92.6211
93.9503
95.3338
96.7612
98.2217
99.6987
101.175
102.612
103.95
105.047
105.695
39.4421
46.0521
51.323
56.7245
61.6454
65.8066
69.23
72.0587
74.43
76.4513
78.2025
79.7354
81.089
82.301
83.4121
84.4628
85.489
86.5221
87.5901
88.7089
89.8875
91.1289
92.4299
93.7829
95.1783
96.6036
98.045
99.4869
100.887
102.192
103.26
103.89
38.5278
44.9219
49.9914
55.2317
60.0796
64.2366
67.69
70.5625
72.9812
75.0434
76.8247
78.3796
79.7487
80.9729
82.087
83.1316
84.1463
85.1663
86.2149
87.3118
88.468
89.6846
90.9586
92.2825
93.6465
95.0401
96.4475
97.8537
99.2194
100.491
101.531
102.144
37.5822
43.7567
48.6115
53.6768
58.4468
62.6076
66.1043
69.0311
71.5045
73.6195
75.446
77.0345
78.4291
79.6664
80.7878
81.8317
82.8408
83.8474
84.8824
85.9631
87.0981
88.2912
89.539
90.8345
92.1677
93.5273
94.8993
96.2725
97.6025
98.8425
99.8542
100.449
36.5737
42.5331
47.1647
52.0434
56.7308
60.9021
64.4581
67.46
70.0084
72.1845
74.0566
75.6827
77.1057
78.3703
79.5085
80.5613
81.5676
82.5702
83.5917
84.6542
85.7703
86.9416
88.1648
89.4328
90.7363
92.0655
93.4044
94.7428
96.0405
97.2485
98.2332
98.8106
35.5255
41.2582
45.6493
50.3172
54.9078
59.0963
62.7328
65.8273
68.4574
70.7085
72.648
74.3262
75.793
77.0827
78.2407
79.3051
80.3208
81.3202
82.3355
83.3884
84.4876
85.638
86.8373
88.0781
89.3513
90.6457
91.9491
93.2552
94.5168
95.6945
96.6504
97.2109
34.3286
39.8492
43.993
48.4341
52.9145
57.1195
60.85
64.0685
66.8261
69.1802
71.1943
72.9355
74.4491
75.7882
76.9801
78.068
79.0907
80.0971
81.1073
82.1474
83.2323
84.3643
85.5404
86.7547
87.9983
89.2634
90.5333
91.8048
93.0351
94.1806
95.1104
95.6529
33.0639
38.3712
42.2447
46.4195
50.7536
54.9729
58.8353
62.2149
65.1029
67.5727
69.6945
71.5174
73.1042
74.4839
75.7118
76.8256
77.8741
78.8862
79.8995
80.9383
82.0115
83.1257
84.2801
85.468
86.6807
87.9085
89.1419
90.3823
91.575
92.6919
93.592
94.1169
31.5204
36.6297
40.2181
44.1012
48.2657
52.4841
56.4677
60.0425
63.1678
65.8328
68.0882
70.0223
71.6825
73.1439
74.4296
75.5875
76.6546
77.688
78.7057
79.7373
80.8011
81.9007
83.034
84.1965
85.3807
86.581
87.7795
88.9841
90.147
91.2311
92.1049
92.6125
29.8683
34.7881
38.0709
41.5902
45.4839
49.6529
53.8487
57.7288
61.0736
63.9314
66.3753
68.4453
70.235
71.766
73.1136
74.3168
75.4327
76.4831
77.5151
78.5557
79.6145
80.7001
81.8142
82.9506
84.1016
85.259
86.4202
87.596
88.7184
89.7743
90.617
91.1056
27.6514
32.4071
35.367
38.5078
42.1545
46.2928
50.5392
54.6509
58.4727
61.7405
64.4483
66.7361
68.6473
70.3105
71.7483
73.0255
74.1747
75.2676
76.318
77.3586
78.4137
79.4893
80.584
81.6958
82.8204
83.9541
85.0751
86.2118
87.3055
88.3266
89.1426
89.614
25.1779
29.8419
32.4901
35.081
38.0468
41.7411
46.478
51.35
55.5309
59.16
62.2549
64.7926
66.9567
68.7521
70.3075
71.6614
72.8949
74.019
75.0969
76.1612
77.2204
78.2865
79.3647
80.4501
81.5343
82.6133
83.6972
84.809
85.8577
86.8518
87.6312
88.0811
21.3239
25.9825
28.2972
30.5087
33.472
37.6127
41.5253
46.0687
51.4242
55.9801
59.6214
62.6435
65.0314
67.066
68.7598
70.2371
71.5238
72.7225
73.8414
74.9138
75.976
77.037
78.0977
79.158
80.2209
81.2834
82.3158
83.3801
84.4005
85.3547
86.1085
86.5425
16.8428
22.004
24.3043
25.6617
26.5063
27.2503
33.423
40.7649
46.1012
51.5959
56.2887
59.8402
62.8111
65.1081
67.0474
68.6624
70.0983
71.3517
72.5138
73.6337
74.7135
75.7715
76.8178
77.8501
78.8574
79.8423
80.8369
81.8868
82.8539
83.7833
84.4887
84.895
5.52075
12.0434
14.0734
15.1402
14.8248
4.59816
15.0332
26.2022
39.0215
46.1112
51.8571
56.7196
60.1015
62.9366
65.1257
66.97
68.4917
69.8716
71.1151
72.2505
73.3408
74.3993
75.4298
76.4344
77.4291
78.4087
79.3348
80.3195
81.26
82.1355
82.8189
83.2164
9.23537
5.62335
5.77395
1.85709
16.4843
11.9457
19.2824
18.8487
16.8889
36.1358
45.71
51.6253
56.7653
60.1208
62.8375
64.9405
66.752
68.238
69.5484
70.7758
71.9074
72.972
73.9897
74.9619
75.8741
76.7382
77.6149
78.6028
79.4716
80.3371
80.947
81.2992
11.319
15.6835
16.937
17.0137
16.136
15.2251
15.3746
12.2062
6.46528
15.3943
34.7287
46.2812
51.7521
56.7284
60.0737
62.7101
64.6743
66.3844
67.8557
69.1057
70.2558
71.3291
72.3326
73.2718
74.18
75.047
75.8406
76.7398
77.5915
78.3565
78.9553
79.3169
19.3199
23.6675
25.4086
25.9939
25.4043
24.105
24.3928
21.3729
19.7575
20.0401
20.5019
33.5487
46.5639
52.0468
56.5434
59.6502
62.2545
64.1992
65.7903
67.2256
68.4657
69.5603
70.5536
71.446
72.2306
72.9223
73.6123
74.5336
75.2719
76.0826
76.5501
76.8369
21.7064
26.6881
29.3774
31.3429
32.4586
32.4969
31.0763
28.6697
24.246
24.7786
13.184
9.82554
30.2293
44.8727
51.5503
56.2751
59.1793
61.5717
63.4914
64.9591
66.2297
67.3478
68.326
69.1802
69.9569
70.6379
71.262
72.0749
72.8221
73.4008
73.904
74.208
22.6378
27.7197
30.6335
32.9772
34.7147
35.8278
36.2658
35.8979
34.1752
29.9443
24.8697
19.2728
16.8802
34.906
45.3369
50.627
55.2227
58.1661
60.3554
62.232
63.6993
64.8712
65.8469
66.6088
67.1946
67.5885
67.9139
68.768
69.3251
70.0988
70.2917
70.5337
22.1678
27.3984
30.4891
33.082
35.1381
36.6495
37.6206
38.0508
37.835
36.4623
32.3619
29.2175
23.3213
6.22533
32.2192
44.8645
49.8406
53.8767
56.7553
58.6453
60.1716
61.3897
62.3444
63.0721
63.6001
63.9086
64.3385
65.0578
65.6639
65.8595
66.3604
66.4411
20.7624
26.1263
29.3111
32.0393
34.2858
36.0508
37.3572
38.2419
38.734
38.7701
37.8774
34.4468
28.1429
20.1489
33.5894
32.1315
42.3459
47.4075
51.119
54.1089
56.0583
57.4185
58.381
58.8685
59.0815
58.8109
58.1959
59.0377
59.3829
60.1102
59.6164
59.9941
18.8018
24.2558
27.4634
30.2352
32.5652
34.4702
35.9785
37.1461
38.0511
38.7525
39.1788
38.8262
36.2997
29.0697
27.5948
34.3326
31.6878
40.0487
44.5889
47.1299
49.4182
50.6984
51.6592
52.2358
52.0425
51.5265
52.2588
52.5421
52.829
52.0735
54.2316
52.1134
16.5519
21.9797
25.1064
27.8171
30.1333
32.0941
33.7431
35.1361
36.3569
37.4876
38.5466
39.3446
39.1979
35.9255
28.3587
30.6005
34.6179
23.4901
32.4745
39.6361
41.9852
44.078
44.712
44.8174
44.1361
41.944
37.9457
39.7619
40.9487
39.0895
37.4557
39.2183
14.2983
19.558
22.4997
25.0485
27.2583
29.19
30.9024
32.458
33.9316
35.4026
36.9039
38.3464
39.3907
39.0926
35.1823
26.6803
26.3357
16.8196
10.3766
15.2994
25.6861
24.1085
27.2969
26.754
23.0138
34.4029
28.0707
17.2598
15.8692
13.9891
32.8738
7.02389
12.3346
17.3084
19.993
22.3113
24.3491
26.1854
27.8893
29.526
31.16
32.8557
34.6556
36.5144
38.2337
39.3584
38.9498
35.4854
29.0022
30.8836
16.3135
14.838
31.1541
18.6289
4.69006
27.7222
27.4098
41.5651
36.7015
24.0864
25.0096
24.5848
41.3128
18.2837
10.8294
15.4546
17.871
19.946
21.7935
23.5048
25.1524
26.7961
28.4869
30.2714
32.1921
34.2535
36.3613
38.2311
39.3531
39.1211
36.3099
35.5277
26.9197
25.6068
32.2083
22.9122
19.2713
33.6307
28.1253
39.265
34.5816
35.5594
36.4381
34.8753
41.8388
31.7793
9.72864
14.1139
16.3067
18.1811
19.872
21.4735
23.0512
24.6509
26.3082
28.0564
29.9341
31.9771
34.1827
36.4269
38.3756
39.5525
39.4476
37.0143
34.8782
31.7909
28.9793
28.3132
27.9351
29.2649
33.4604
32.9803
32.74
37.5195
35.838
41.7215
32.7597
40.3487
9.15373
13.3556
15.3944
17.1419
18.7406
20.2745
21.7925
23.3224
24.8854
26.5075
28.2258
30.089
32.1413
34.3753
36.65
38.6224
39.7932
39.6808
39.1019
38.3935
37.0859
37.9439
37.774
37.7285
40.2833
38.8145
36.9554
42.0328
39.9672
44.9916
39.4744
43.4231
9.00073
13.121
15.0947
16.7991
18.3738
19.8868
21.3673
22.8274
24.2787
25.7435
27.257
28.8675
30.6312
32.5963
34.7549
36.959
38.8477
39.9749
40.3897
40.5736
40.4942
41.1525
41.0876
41.0795
42.011
40.6098
38.9035
42.8349
41.4899
44.5381
42.3456
43.5699
9.19628
13.312
15.2921
17.0202
18.6237
20.1522
21.6186
23.0257
24.3813
25.7054
27.0296
28.3948
29.8516
31.4583
33.2645
35.2603
37.2905
39.0437
40.2085
40.9919
41.3682
41.928
41.8817
41.7972
42.0624
40.949
39.5266
42.4128
41.5466
43.1375