/*--------------------------------*- C++ -*----------------------------------*\
  =========                 |
  \\      /  F ield         | OpenFOAM: The Open Source CFD Toolbox
   \\    /   O peration     | Website:  https://openfoam.org
    \\  /    A nd           | Version:  6
     \\/     M anipulation  |
\*---------------------------------------------------------------------------*/
FoamFile
{
    version     2.0;
    format      ascii;
    class       volScalarField;
    location    "0.8";
    object      p;
}
// * * * * * * * * * * * * * * * * * * * * * * * * * * * * * * * * * * * * * //

dimensions      [0 2 -2 0 0 0 0];

internalField   nonuniform List<scalar> 
380496
(
0.0119997
0.0123862
0.0121365
0.0120785
0.0120388
0.0119961
0.0119557
0.0119094
0.0118548
0.0117929
0.0117258
0.0116541
0.0115803
0.0115065
0.0114327
0.0113582
0.0112831
0.0112074
0.0111309
0.0110532
0.010974
0.0108931
0.0108098
0.0107238
0.0106344
0.0105409
0.0104429
0.0103396
0.0102306
0.010115
0.00999361
0.0098634
0.00972977
0.00957951
0.0094393
0.0119674
0.0123482
0.0121166
0.0120677
0.0120336
0.0119943
0.0119552
0.0119085
0.0118522
0.0117875
0.0117168
0.0116412
0.0115634
0.0114853
0.0114068
0.0113275
0.0112473
0.0111661
0.0110836
0.0109995
0.0109137
0.0108257
0.0107353
0.0106418
0.0105453
0.0104441
0.0103394
0.0102288
0.0101137
0.00999163
0.0098659
0.00972987
0.0095995
0.00943866
0.00934184
0.0119274
0.0123026
0.0120844
0.0120441
0.0120182
0.0119857
0.0119509
0.0119059
0.0118489
0.0117819
0.0117076
0.0116277
0.0115452
0.0114618
0.0113773
0.0112915
0.0112046
0.0111163
0.0110267
0.0109351
0.0108416
0.0107456
0.0106469
0.010545
0.0104397
0.0103299
0.0102163
0.010097
0.00997327
0.00984267
0.00970899
0.00956432
0.0094242
0.0092513
0.00912439
0.0118811
0.0122603
0.0120645
0.0120367
0.0120182
0.0119894
0.0119549
0.0119085
0.0118488
0.0117781
0.0116998
0.0116154
0.0115284
0.0114406
0.0113518
0.0112615
0.0111698
0.0110765
0.0109814
0.0108841
0.0107844
0.0106821
0.0105771
0.0104687
0.0103569
0.0102409
0.0101209
0.0099958
0.00986643
0.0097306
0.00959157
0.00944215
0.00929491
0.00911923
0.00897054
0.011832
0.0122047
0.012029
0.012012
0.0120034
0.0119829
0.0119542
0.0119102
0.0118498
0.0117766
0.0116943
0.0116057
0.0115143
0.0114216
0.0113273
0.0112312
0.0111334
0.0110338
0.0109323
0.0108285
0.0107225
0.0106139
0.0105024
0.0103876
0.0102693
0.0101471
0.0100209
0.00989002
0.00975545
0.00961482
0.00947369
0.0093218
0.00918341
0.00900789
0.0089139
0.011771
0.0121562
0.0120109
0.0120109
0.0120128
0.0119969
0.0119681
0.011921
0.0118561
0.0117775
0.0116899
0.0115959
0.0114995
0.0114022
0.0113035
0.0112031
0.011101
0.010997
0.0108908
0.010782
0.0106705
0.0105562
0.010439
0.0103184
0.0101947
0.0100668
0.00993572
0.00979972
0.00966046
0.00951527
0.00936862
0.00921032
0.00906055
0.00887035
0.00873856
0.0116985
0.0120901
0.0119716
0.0119872
0.0120025
0.011996
0.0119723
0.0119265
0.0118601
0.0117786
0.0116872
0.0115893
0.0114888
0.011387
0.0112832
0.0111775
0.0110701
0.0109608
0.0108494
0.0107354
0.010619
0.0104999
0.0103779
0.0102527
0.0101244
0.00999206
0.00985691
0.00971704
0.00957477
0.00942722
0.0092806
0.00912361
0.00898385
0.00880317
0.00871455
0.0116185
0.0120376
0.0119595
0.0119964
0.0120246
0.0120222
0.0119966
0.0119456
0.0118723
0.0117837
0.0116858
0.011582
0.0114765
0.0113703
0.0112626
0.0111533
0.0110424
0.0109296
0.0108142
0.010696
0.010575
0.0104511
0.0103243
0.0101944
0.0100614
0.00992495
0.00978555
0.00964216
0.00949609
0.00934488
0.0091938
0.00903088
0.00887948
0.00868529
0.00855614
0.0115166
0.0119669
0.0119218
0.0119786
0.0120229
0.0120296
0.0120075
0.0119557
0.0118793
0.0117871
0.0116857
0.0115785
0.0114694
0.0113593
0.0112472
0.0111333
0.011018
0.0109009
0.0107817
0.0106598
0.0105354
0.0104082
0.0102783
0.0101453
0.0100093
0.00987007
0.00972801
0.00958239
0.00943458
0.00928239
0.00913216
0.0089714
0.00882982
0.00864573
0.00855911
0.0114192
0.0119229
0.0119195
0.0119988
0.0120554
0.0120638
0.0120374
0.0119781
0.0118936
0.011794
0.0116862
0.0115738
0.0114607
0.0113473
0.0112324
0.0111163
0.0109988
0.0108794
0.0107574
0.0106326
0.0105049
0.0103743
0.010241
0.0101047
0.00996574
0.00982359
0.00967905
0.00953098
0.00938117
0.00922677
0.00907377
0.00890971
0.0087593
0.0085656
0.00844239
0.0112888
0.0118618
0.0118911
0.011992
0.0120641
0.0120786
0.0120529
0.0119905
0.0119017
0.0117982
0.0116874
0.0115723
0.0114564
0.0113399
0.0112216
0.0111017
0.0109807
0.0108582
0.0107335
0.0106064
0.0104766
0.010344
0.0102087
0.0100705
0.00992964
0.00978577
0.00963959
0.00949026
0.0093394
0.0091846
0.00903232
0.00887001
0.00872713
0.00854169
0.0084552
0.0111582
0.0118298
0.0118979
0.0120234
0.0121072
0.0121201
0.0120869
0.0120146
0.0119163
0.0118053
0.0116886
0.0115691
0.01145
0.0113308
0.0112105
0.0110892
0.0109668
0.0108427
0.0107162
0.0105867
0.0104545
0.0103194
0.0101816
0.010041
0.00989798
0.00975218
0.00960429
0.00945345
0.00930133
0.00914521
0.00899137
0.00882683
0.00867724
0.00848485
0.00836403
0.0109858
0.0117899
0.0118841
0.0120322
0.0121281
0.0121422
0.0121057
0.0120279
0.0119243
0.0118095
0.0116901
0.0115683
0.0114471
0.0113257
0.0112028
0.0110786
0.0109535
0.010827
0.0106985
0.0105676
0.0104341
0.0102977
0.0101587
0.0100169
0.00987262
0.00972572
0.00957679
0.00942522
0.00927249
0.00911627
0.00896301
0.00879997
0.00865606
0.0084706
0.00838149
0.0108055
0.0117811
0.0119
0.0120747
0.0121796
0.0121878
0.0121406
0.0120506
0.0119372
0.0118157
0.0116915
0.0115663
0.0114425
0.0113191
0.0111947
0.0110696
0.0109437
0.0108163
0.0106866
0.0105541
0.0104188
0.0102806
0.0101398
0.00999633
0.00985057
0.00970241
0.00955239
0.00939995
0.0092465
0.00908964
0.0089356
0.00877131
0.00862252
0.00843242
0.00831287
0.0105828
0.0117848
0.0119088
0.0121041
0.0122129
0.0122149
0.0121602
0.0120627
0.0119436
0.0118191
0.0116928
0.0115655
0.0114402
0.0113157
0.0111899
0.0110629
0.0109348
0.0108056
0.0106745
0.0105411
0.010405
0.0102661
0.0101245
0.00998025
0.00983372
0.00968489
0.00953425
0.00938144
0.00922769
0.00907092
0.0089174
0.0087543
0.00860964
0.00842492
0.00833103
0.0103324
0.0118135
0.0119333
0.0121561
0.0122684
0.01226
0.0121918
0.0120815
0.0119534
0.0118238
0.0116943
0.0115645
0.0114372
0.0113109
0.0111841
0.0110566
0.0109284
0.0107988
0.010667
0.0105325
0.0103951
0.0102549
0.010112
0.00996676
0.0098193
0.00966969
0.00951843
0.00936519
0.00921111
0.00905417
0.00890044
0.00873695
0.00858946
0.00840237
0.00828482
0.0100567
0.0118876
0.011973
0.0122084
0.0123116
0.012289
0.0122097
0.0120906
0.0119575
0.0118264
0.0116952
0.0115632
0.0114348
0.0113087
0.0111819
0.0110533
0.0109234
0.0107923
0.0106596
0.0105246
0.0103868
0.0102461
0.0101028
0.00995707
0.00980915
0.00965918
0.00950762
0.00935422
0.00920008
0.00904336
0.00889007
0.00872768
0.00858271
0.00839995
0.00829889
0.00971697
0.0119689
0.0120059
0.0122657
0.0123638
0.0123269
0.0122336
0.0121033
0.0119636
0.0118295
0.0116967
0.011563
0.011433
0.0113054
0.0111778
0.0110493
0.0109198
0.0107888
0.0106557
0.0105198
0.0103811
0.0102396
0.0100956
0.00994918
0.00980079
0.00965031
0.00949863
0.00934488
0.00919081
0.00903425
0.00888091
0.00871893
0.0085743
0.00839003
0.00829474
0.00940419
0.0121317
0.0120795
0.0123369
0.0124116
0.012354
0.0122472
0.0121083
0.0119648
0.0118321
0.0116988
0.0115619
0.0114298
0.0113028
0.0111766
0.0110486
0.0109185
0.0107867
0.0106529
0.0105165
0.0103775
0.0102356
0.0100913
0.00994472
0.00979605
0.00964546
0.00949383
0.00933981
0.00918602
0.00902967
0.00887656
0.00871611
0.00857093
0.00839536
0.00827936
0.00900475
0.0122583
0.0121198
0.0123796
0.0124369
0.012369
0.0122575
0.0121146
0.0119685
0.0118337
0.0116985
0.0115609
0.0114289
0.0113019
0.0111756
0.0110476
0.0109176
0.0107857
0.0106517
0.0105148
0.0103754
0.0102331
0.0100886
0.00994174
0.00979288
0.00964216
0.0094904
0.00933631
0.00918276
0.00902657
0.0088733
0.00871355
0.00856599
0.00839273
0.00825428
0.00875893
0.0124849
0.0122113
0.0124501
0.0124758
0.0123829
0.0122569
0.0121115
0.0119672
0.0118349
0.0117021
0.0115617
0.0114262
0.011299
0.0111742
0.0110476
0.0109182
0.010786
0.0106515
0.0105143
0.0103747
0.0102323
0.0100877
0.00994085
0.00979193
0.00964119
0.0094895
0.00933538
0.00918214
0.00902614
0.00887341
0.00871457
0.00857307
0.00841064
0.00832443
0.011999
0.0123844
0.0121365
0.0120786
0.0120388
0.0119961
0.0119557
0.0119094
0.0118548
0.0117929
0.0117258
0.0116541
0.0115803
0.0115065
0.0114327
0.0113582
0.0112831
0.0112074
0.0111309
0.0110532
0.0109741
0.0108931
0.0108098
0.0107238
0.0106344
0.0105409
0.0104429
0.0103397
0.0102306
0.010115
0.00999371
0.00986351
0.0097299
0.00957966
0.00943948
0.0119664
0.0123465
0.0121166
0.0120678
0.0120337
0.0119943
0.0119552
0.0119085
0.0118522
0.0117875
0.0117168
0.0116412
0.0115634
0.0114853
0.0114068
0.0113275
0.0112473
0.0111661
0.0110836
0.0109995
0.0109137
0.0108257
0.0107354
0.0106418
0.0105453
0.0104442
0.0103394
0.0102288
0.0101137
0.00999173
0.00986598
0.00973001
0.00959958
0.00943885
0.00934202
0.0119264
0.0123008
0.0120844
0.0120441
0.0120182
0.0119857
0.0119509
0.0119059
0.0118489
0.0117819
0.0117076
0.0116277
0.0115452
0.0114618
0.0113773
0.0112915
0.0112045
0.0111163
0.0110267
0.0109351
0.0108416
0.0107456
0.010647
0.010545
0.0104398
0.01033
0.0102163
0.010097
0.00997331
0.00984274
0.00970905
0.00956441
0.00942426
0.00925143
0.00912444
0.0118801
0.0122587
0.0120645
0.0120368
0.0120183
0.0119894
0.0119549
0.0119084
0.0118488
0.0117781
0.0116998
0.0116154
0.0115284
0.0114407
0.0113518
0.0112615
0.0111698
0.0110765
0.0109814
0.0108841
0.0107845
0.0106822
0.0105771
0.0104687
0.0103569
0.0102409
0.0101209
0.00999585
0.00986649
0.00973068
0.00959165
0.00944225
0.009295
0.00911934
0.00897067
0.0118308
0.0122031
0.012029
0.0120121
0.0120034
0.0119829
0.0119542
0.0119101
0.0118498
0.0117766
0.0116943
0.0116057
0.0115143
0.0114216
0.0113273
0.0112312
0.0111334
0.0110338
0.0109323
0.0108286
0.0107225
0.0106139
0.0105024
0.0103877
0.0102694
0.0101472
0.010021
0.00989007
0.00975551
0.00961489
0.00947375
0.0093219
0.00918346
0.00900803
0.00891403
0.01177
0.0121547
0.0120109
0.012011
0.0120129
0.0119969
0.0119681
0.011921
0.0118561
0.0117775
0.0116899
0.0115959
0.0114995
0.0114022
0.0113035
0.0112031
0.011101
0.0109971
0.0108908
0.010782
0.0106705
0.0105562
0.010439
0.0103184
0.0101947
0.0100668
0.00993575
0.00979976
0.00966049
0.00951533
0.00936867
0.00921039
0.0090606
0.00887045
0.00873858
0.0116973
0.0120886
0.0119716
0.0119872
0.0120025
0.011996
0.0119723
0.0119265
0.0118601
0.0117786
0.0116872
0.0115894
0.0114888
0.011387
0.0112832
0.0111775
0.0110701
0.0109608
0.0108494
0.0107355
0.0106191
0.0104999
0.0103779
0.0102527
0.0101245
0.0099921
0.00985694
0.00971708
0.0095748
0.00942728
0.00928064
0.00912368
0.0089839
0.00880328
0.00871466
0.0116173
0.0120362
0.0119595
0.0119965
0.0120246
0.0120222
0.0119966
0.0119456
0.0118723
0.0117837
0.0116858
0.011582
0.0114765
0.0113703
0.0112626
0.0111533
0.0110424
0.0109296
0.0108142
0.010696
0.010575
0.0104511
0.0103243
0.0101944
0.0100615
0.00992497
0.00978558
0.00964219
0.00949613
0.00934492
0.00919384
0.00903092
0.0088795
0.00868536
0.00855613
0.0115153
0.0119654
0.0119218
0.0119787
0.0120229
0.0120296
0.0120075
0.0119557
0.0118794
0.0117871
0.0116857
0.0115785
0.0114695
0.0113593
0.0112472
0.0111333
0.011018
0.0109009
0.0107817
0.0106599
0.0105354
0.0104083
0.0102783
0.0101453
0.0100094
0.00987009
0.00972803
0.00958243
0.00943462
0.00928243
0.00913219
0.00897145
0.00882985
0.00864583
0.00855919
0.0114179
0.0119216
0.0119195
0.0119989
0.0120554
0.0120638
0.0120374
0.0119781
0.0118936
0.011794
0.0116862
0.0115739
0.0114608
0.0113473
0.0112325
0.0111163
0.0109988
0.0108794
0.0107574
0.0106326
0.0105049
0.0103743
0.010241
0.0101047
0.00996576
0.00982361
0.00967907
0.00953101
0.0093812
0.0092268
0.00907379
0.00890974
0.00875932
0.00856565
0.00844236
0.0112876
0.0118605
0.0118911
0.011992
0.0120641
0.0120787
0.0120529
0.0119905
0.0119017
0.0117982
0.0116874
0.0115723
0.0114565
0.0113399
0.0112216
0.0111017
0.0109807
0.0108582
0.0107336
0.0106064
0.0104766
0.010344
0.0102087
0.0100705
0.00992966
0.0097858
0.00963961
0.00949028
0.00933942
0.00918463
0.00903234
0.00887005
0.00872716
0.00854177
0.00845528
0.0111569
0.0118287
0.0118979
0.0120235
0.0121072
0.0121201
0.0120869
0.0120146
0.0119163
0.0118053
0.0116886
0.0115691
0.01145
0.0113308
0.0112105
0.0110892
0.0109668
0.0108427
0.0107162
0.0105868
0.0104545
0.0103194
0.0101816
0.0100411
0.009898
0.00975219
0.00960431
0.00945347
0.00930135
0.00914523
0.00899139
0.00882686
0.00867725
0.00848489
0.008364
0.0109846
0.0117888
0.0118841
0.0120323
0.0121282
0.0121422
0.0121057
0.0120279
0.0119243
0.0118095
0.0116901
0.0115683
0.0114471
0.0113257
0.0112028
0.0110786
0.0109535
0.010827
0.0106986
0.0105676
0.0104341
0.0102977
0.0101587
0.0100169
0.00987264
0.00972574
0.00957681
0.00942524
0.00927251
0.0091163
0.00896303
0.0088
0.00865608
0.00847067
0.00838156
0.0108042
0.0117802
0.0118999
0.0120748
0.0121796
0.0121878
0.0121406
0.0120506
0.0119372
0.0118157
0.0116916
0.0115663
0.0114425
0.0113191
0.0111947
0.0110696
0.0109437
0.0108163
0.0106866
0.0105541
0.0104188
0.0102806
0.0101398
0.00999635
0.00985059
0.00970242
0.0095524
0.00939996
0.00924652
0.00908966
0.00893561
0.00877133
0.00862253
0.00843246
0.00831283
0.0105816
0.0117839
0.0119088
0.0121042
0.012213
0.012215
0.0121602
0.0120627
0.0119436
0.0118191
0.0116928
0.0115655
0.0114402
0.0113157
0.0111899
0.0110629
0.0109348
0.0108056
0.0106745
0.0105411
0.010405
0.0102661
0.0101245
0.00998026
0.00983374
0.00968491
0.00953427
0.00938146
0.00922771
0.00907095
0.00891742
0.00875433
0.00860966
0.00842498
0.00833109
0.0103312
0.0118127
0.0119334
0.0121562
0.0122685
0.01226
0.0121918
0.0120815
0.0119534
0.0118238
0.0116943
0.0115645
0.0114372
0.0113109
0.0111841
0.0110566
0.0109284
0.0107988
0.010667
0.0105325
0.0103951
0.0102549
0.010112
0.00996677
0.00981931
0.00966971
0.00951845
0.0093652
0.00921112
0.00905419
0.00890045
0.00873698
0.00858947
0.0084024
0.00828478
0.0100556
0.0118871
0.0119731
0.0122086
0.0123117
0.012289
0.0122096
0.0120906
0.0119575
0.0118264
0.0116952
0.0115632
0.0114348
0.0113087
0.0111819
0.0110534
0.0109235
0.0107924
0.0106597
0.0105246
0.0103868
0.0102461
0.0101028
0.00995709
0.00980917
0.0096592
0.00950764
0.00935424
0.00920009
0.00904338
0.00889009
0.0087277
0.00858273
0.00840001
0.00829891
0.0097161
0.0119685
0.012006
0.0122658
0.0123638
0.0123268
0.0122336
0.0121033
0.0119636
0.0118295
0.0116967
0.011563
0.011433
0.0113054
0.0111778
0.0110493
0.0109198
0.0107888
0.0106557
0.0105198
0.0103811
0.0102396
0.0100956
0.00994919
0.0098008
0.00965032
0.00949864
0.0093449
0.00919082
0.00903427
0.00888091
0.00871896
0.00857429
0.0083901
0.00829477
0.00940175
0.0121314
0.0120795
0.0123369
0.0124115
0.012354
0.0122472
0.0121083
0.0119649
0.0118321
0.0116988
0.0115619
0.0114298
0.0113028
0.0111766
0.0110486
0.0109185
0.0107867
0.0106529
0.0105165
0.0103775
0.0102356
0.0100913
0.00994473
0.00979606
0.00964547
0.00949385
0.00933982
0.00918604
0.00902969
0.00887658
0.00871613
0.00857093
0.00839539
0.00827929
0.00900054
0.0122595
0.0121199
0.0123794
0.0124368
0.0123689
0.0122575
0.0121146
0.0119685
0.0118337
0.0116985
0.0115609
0.0114289
0.0113019
0.0111756
0.0110476
0.0109177
0.0107857
0.0106517
0.0105149
0.0103754
0.0102331
0.0100886
0.00994175
0.00979289
0.00964217
0.00949041
0.00933633
0.00918278
0.00902659
0.00887332
0.00871357
0.00856601
0.00839277
0.00825424
0.00877282
0.012489
0.0122084
0.0124467
0.0124737
0.012382
0.0122568
0.0121116
0.0119672
0.0118349
0.011702
0.0115616
0.0114261
0.011299
0.0111743
0.0110477
0.0109181
0.010786
0.0106515
0.0105143
0.0103747
0.0102323
0.0100877
0.00994086
0.00979194
0.00964119
0.00948951
0.00933539
0.00918216
0.00902615
0.00887341
0.00871454
0.00857304
0.00841058
0.00832416
0.012002
0.0123814
0.0121364
0.0120788
0.0120389
0.0119961
0.0119557
0.0119094
0.0118548
0.0117929
0.0117258
0.0116541
0.0115803
0.0115066
0.0114327
0.0113582
0.0112831
0.0112074
0.0111309
0.0110532
0.0109741
0.0108931
0.0108098
0.0107238
0.0106344
0.0105409
0.0104429
0.0103397
0.0102306
0.010115
0.0099937
0.00986349
0.00972989
0.00957964
0.0094395
0.0119695
0.0123437
0.0121166
0.012068
0.0120338
0.0119943
0.0119552
0.0119085
0.0118521
0.0117875
0.0117167
0.0116412
0.0115634
0.0114853
0.0114068
0.0113275
0.0112473
0.0111661
0.0110836
0.0109995
0.0109137
0.0108257
0.0107354
0.0106419
0.0105453
0.0104442
0.0103394
0.0102289
0.0101137
0.00999176
0.00986597
0.00973002
0.00959958
0.00943891
0.00934221
0.0119294
0.012298
0.0120843
0.0120443
0.0120182
0.0119857
0.0119509
0.0119059
0.0118489
0.0117819
0.0117076
0.0116277
0.0115452
0.0114618
0.0113774
0.0112915
0.0112045
0.0111163
0.0110267
0.0109351
0.0108416
0.0107456
0.010647
0.010545
0.0104398
0.01033
0.0102163
0.010097
0.00997331
0.00984275
0.00970903
0.00956441
0.00942424
0.00925143
0.0091244
0.0118831
0.0122559
0.0120645
0.012037
0.0120184
0.0119894
0.0119549
0.0119084
0.0118488
0.0117781
0.0116998
0.0116154
0.0115284
0.0114407
0.0113518
0.0112615
0.0111698
0.0110765
0.0109814
0.0108841
0.0107845
0.0106822
0.0105771
0.0104687
0.0103569
0.0102409
0.010121
0.00999587
0.0098665
0.00973069
0.00959164
0.00944225
0.009295
0.00911932
0.00897064
0.0118337
0.0122005
0.0120289
0.0120123
0.0120035
0.011983
0.0119542
0.0119101
0.0118498
0.0117766
0.0116943
0.0116057
0.0115143
0.0114216
0.0113273
0.0112312
0.0111334
0.0110338
0.0109323
0.0108286
0.0107225
0.0106139
0.0105024
0.0103877
0.0102694
0.0101472
0.010021
0.00989007
0.00975552
0.0096149
0.00947375
0.00932191
0.00918346
0.0090081
0.00891423
0.0117728
0.0121521
0.0120109
0.0120112
0.012013
0.011997
0.0119681
0.011921
0.0118561
0.0117775
0.0116899
0.0115959
0.0114995
0.0114023
0.0113035
0.0112031
0.011101
0.0109971
0.0108909
0.010782
0.0106706
0.0105562
0.010439
0.0103185
0.0101947
0.0100668
0.00993576
0.00979978
0.0096605
0.00951535
0.00936867
0.00921039
0.0090606
0.00887045
0.00873853
0.0117
0.0120861
0.0119715
0.0119874
0.0120026
0.011996
0.0119723
0.0119265
0.0118601
0.0117786
0.0116872
0.0115894
0.0114889
0.011387
0.0112832
0.0111775
0.0110701
0.0109608
0.0108494
0.0107355
0.0106191
0.0104999
0.010378
0.0102527
0.0101245
0.00999211
0.00985695
0.00971711
0.0095748
0.00942732
0.00928064
0.00912369
0.00898392
0.00880337
0.00871486
0.01162
0.0120338
0.0119594
0.0119966
0.0120247
0.0120222
0.0119966
0.0119455
0.0118723
0.0117837
0.0116858
0.011582
0.0114765
0.0113703
0.0112626
0.0111533
0.0110424
0.0109296
0.0108142
0.010696
0.010575
0.0104511
0.0103243
0.0101944
0.0100615
0.00992498
0.00978559
0.00964221
0.00949614
0.00934494
0.00919384
0.00903094
0.0088795
0.00868539
0.00855609
0.0115179
0.0119631
0.0119217
0.0119788
0.012023
0.0120296
0.0120075
0.0119557
0.0118793
0.0117871
0.0116857
0.0115785
0.0114695
0.0113593
0.0112472
0.0111333
0.011018
0.0109009
0.0107817
0.0106599
0.0105355
0.0104083
0.0102783
0.0101453
0.0100094
0.00987011
0.00972805
0.00958245
0.00943463
0.00928245
0.00913221
0.00897147
0.00882986
0.00864595
0.00855939
0.0114203
0.0119195
0.0119194
0.011999
0.0120555
0.0120638
0.0120374
0.0119781
0.0118936
0.011794
0.0116862
0.0115739
0.0114608
0.0113473
0.0112325
0.0111163
0.0109988
0.0108794
0.0107574
0.0106326
0.0105049
0.0103743
0.010241
0.0101048
0.00996577
0.00982362
0.00967909
0.00953103
0.00938121
0.00922683
0.00907379
0.00890977
0.00875933
0.00856568
0.00844234
0.01129
0.0118584
0.011891
0.0119921
0.0120642
0.0120786
0.0120529
0.0119905
0.0119017
0.0117982
0.0116874
0.0115723
0.0114565
0.0113399
0.0112216
0.0111017
0.0109807
0.0108582
0.0107336
0.0106064
0.0104766
0.010344
0.0102087
0.0100705
0.00992967
0.00978581
0.00963963
0.00949031
0.00933944
0.00918466
0.00903235
0.00887007
0.00872718
0.00854188
0.00845548
0.0111591
0.0118268
0.0118978
0.0120236
0.0121073
0.0121201
0.0120869
0.0120145
0.0119163
0.0118053
0.0116886
0.0115691
0.01145
0.0113308
0.0112105
0.0110892
0.0109668
0.0108427
0.0107162
0.0105868
0.0104545
0.0103194
0.0101816
0.0100411
0.00989801
0.00975221
0.00960432
0.00945349
0.00930136
0.00914526
0.00899139
0.00882689
0.00867726
0.00848494
0.00836397
0.0109867
0.0117869
0.0118839
0.0120324
0.0121282
0.0121422
0.0121057
0.0120278
0.0119242
0.0118095
0.0116901
0.0115684
0.0114471
0.0113257
0.0112028
0.0110786
0.0109535
0.010827
0.0106986
0.0105677
0.0104341
0.0102977
0.0101587
0.0100169
0.00987265
0.00972576
0.00957683
0.00942527
0.00927252
0.00911633
0.00896304
0.00880003
0.00865611
0.00847077
0.00838176
0.010806
0.0117785
0.0118999
0.0120749
0.0121797
0.0121878
0.0121405
0.0120506
0.0119372
0.0118157
0.0116915
0.0115663
0.0114425
0.0113191
0.0111947
0.0110696
0.0109437
0.0108163
0.0106867
0.0105542
0.0104188
0.0102806
0.0101398
0.00999636
0.0098506
0.00970243
0.00955242
0.00939999
0.00924653
0.00908969
0.00893561
0.00877137
0.00862254
0.00843251
0.00831281
0.0105833
0.0117823
0.0119087
0.0121042
0.012213
0.0122149
0.0121602
0.0120626
0.0119436
0.0118191
0.0116928
0.0115655
0.0114402
0.0113157
0.0111899
0.0110629
0.0109348
0.0108056
0.0106746
0.0105411
0.010405
0.0102661
0.0101245
0.00998028
0.00983376
0.00968493
0.00953429
0.00938149
0.00922773
0.00907098
0.00891743
0.00875436
0.00860968
0.00842507
0.00833128
0.0103327
0.0118114
0.0119333
0.0121563
0.0122685
0.01226
0.0121918
0.0120814
0.0119534
0.0118238
0.0116943
0.0115645
0.0114372
0.0113109
0.0111841
0.0110566
0.0109284
0.0107988
0.010667
0.0105325
0.0103951
0.0102549
0.0101121
0.00996678
0.00981932
0.00966972
0.00951847
0.00936523
0.00921114
0.00905422
0.00890046
0.00873701
0.00858947
0.00840245
0.00828471
0.0100568
0.011886
0.0119731
0.0122087
0.0123118
0.012289
0.0122096
0.0120905
0.0119575
0.0118264
0.0116952
0.0115632
0.0114348
0.0113087
0.0111819
0.0110534
0.0109235
0.0107924
0.0106597
0.0105246
0.0103868
0.0102461
0.0101029
0.00995711
0.00980919
0.00965922
0.00950766
0.00935427
0.00920012
0.00904341
0.00889011
0.00872773
0.00858274
0.00840011
0.00829902
0.00971705
0.0119678
0.0120062
0.0122658
0.0123637
0.0123267
0.0122335
0.0121033
0.0119636
0.0118295
0.0116967
0.011563
0.011433
0.0113054
0.0111778
0.0110493
0.0109198
0.0107888
0.0106557
0.0105198
0.0103811
0.0102396
0.0100956
0.00994921
0.00980081
0.00965034
0.00949866
0.00934491
0.00919084
0.00903431
0.00888092
0.008719
0.00857426
0.00839022
0.00829493
0.00940128
0.0121312
0.0120794
0.0123367
0.0124114
0.0123538
0.0122471
0.0121083
0.0119649
0.0118321
0.0116988
0.0115619
0.0114299
0.0113028
0.0111765
0.0110486
0.0109185
0.0107867
0.0106529
0.0105165
0.0103775
0.0102356
0.0100913
0.00994475
0.00979607
0.00964549
0.00949387
0.00933983
0.00918606
0.00902972
0.0088766
0.00871617
0.00857092
0.00839542
0.00827912
0.0089955
0.012262
0.0121203
0.0123791
0.0124365
0.0123687
0.0122574
0.0121146
0.0119685
0.0118337
0.0116985
0.0115609
0.0114289
0.0113019
0.0111756
0.0110477
0.0109177
0.0107858
0.0106517
0.0105149
0.0103754
0.0102331
0.0100886
0.00994177
0.00979291
0.00964219
0.00949044
0.00933634
0.00918281
0.00902662
0.00887336
0.00871358
0.00856602
0.00839278
0.00825391
0.00878303
0.0124938
0.0122088
0.0124456
0.0124727
0.0123815
0.0122567
0.0121116
0.0119673
0.0118349
0.011702
0.0115615
0.0114261
0.011299
0.0111744
0.0110478
0.0109182
0.010786
0.0106515
0.0105143
0.0103747
0.0102323
0.0100877
0.00994087
0.00979195
0.0096412
0.00948952
0.00933542
0.00918218
0.00902616
0.00887341
0.00871455
0.00857303
0.00841064
0.00832421
0.0120057
0.0123775
0.0121362
0.0120789
0.012039
0.0119961
0.0119557
0.0119094
0.0118548
0.0117929
0.0117257
0.0116541
0.0115803
0.0115066
0.0114327
0.0113582
0.0112831
0.0112074
0.0111309
0.0110532
0.0109741
0.0108931
0.0108098
0.0107238
0.0106344
0.0105409
0.0104429
0.0103397
0.0102306
0.0101151
0.00999372
0.0098635
0.00972991
0.00957966
0.00943958
0.011973
0.0123398
0.0121164
0.0120682
0.012034
0.0119944
0.0119552
0.0119084
0.0118521
0.0117875
0.0117167
0.0116411
0.0115634
0.0114853
0.0114068
0.0113275
0.0112473
0.0111661
0.0110836
0.0109996
0.0109137
0.0108257
0.0107354
0.0106419
0.0105453
0.0104442
0.0103394
0.0102289
0.0101137
0.00999182
0.00986599
0.00973006
0.00959962
0.00943903
0.00934263
0.0119329
0.0122942
0.012084
0.0120443
0.0120183
0.0119857
0.0119509
0.0119059
0.0118489
0.0117819
0.0117075
0.0116277
0.0115452
0.0114619
0.0113774
0.0112915
0.0112045
0.0111163
0.0110266
0.0109351
0.0108416
0.0107456
0.010647
0.010545
0.0104398
0.01033
0.0102163
0.010097
0.0099733
0.00984278
0.00970902
0.00956444
0.00942424
0.00925144
0.0091244
0.0118866
0.0122522
0.0120643
0.0120371
0.0120185
0.0119894
0.0119549
0.0119084
0.0118488
0.0117781
0.0116998
0.0116154
0.0115284
0.0114407
0.0113518
0.0112615
0.0111698
0.0110765
0.0109814
0.0108841
0.0107845
0.0106822
0.0105771
0.0104688
0.0103569
0.0102409
0.010121
0.00999589
0.00986652
0.00973073
0.00959166
0.00944228
0.00929504
0.00911932
0.00897064
0.011837
0.0121969
0.0120287
0.0120124
0.0120037
0.011983
0.0119542
0.0119101
0.0118498
0.0117766
0.0116942
0.0116057
0.0115143
0.0114216
0.0113273
0.0112312
0.0111334
0.0110339
0.0109323
0.0108286
0.0107225
0.0106139
0.0105024
0.0103877
0.0102694
0.0101472
0.010021
0.00989009
0.00975553
0.00961494
0.00947374
0.00932195
0.00918347
0.00900821
0.0089146
0.011776
0.0121486
0.0120107
0.0120113
0.0120131
0.011997
0.0119681
0.011921
0.0118561
0.0117775
0.0116899
0.0115959
0.0114995
0.0114023
0.0113036
0.0112031
0.011101
0.0109971
0.0108909
0.010782
0.0106706
0.0105562
0.010439
0.0103185
0.0101947
0.0100668
0.00993576
0.00979982
0.00966049
0.00951539
0.00936868
0.00921041
0.00906063
0.0088705
0.00873857
0.0117032
0.0120826
0.0119713
0.0119875
0.0120027
0.0119961
0.0119723
0.0119265
0.0118601
0.0117786
0.0116872
0.0115893
0.0114889
0.011387
0.0112832
0.0111775
0.0110701
0.0109608
0.0108494
0.0107355
0.0106191
0.0104999
0.010378
0.0102527
0.0101245
0.00999213
0.00985695
0.00971715
0.0095748
0.00942736
0.00928065
0.00912371
0.00898394
0.00880348
0.00871525
0.011623
0.0120305
0.0119592
0.0119967
0.0120248
0.0120222
0.0119966
0.0119455
0.0118722
0.0117837
0.0116858
0.011582
0.0114765
0.0113704
0.0112627
0.0111533
0.0110424
0.0109296
0.0108142
0.010696
0.010575
0.0104511
0.0103243
0.0101944
0.0100615
0.00992499
0.0097856
0.00964223
0.00949614
0.00934497
0.00919385
0.00903097
0.0088795
0.00868545
0.00855615
0.0115208
0.0119599
0.0119215
0.0119788
0.012023
0.0120296
0.0120075
0.0119556
0.0118793
0.0117871
0.0116857
0.0115785
0.0114695
0.0113593
0.0112472
0.0111333
0.011018
0.0109009
0.0107817
0.0106599
0.0105355
0.0104083
0.0102783
0.0101453
0.0100094
0.00987012
0.00972806
0.00958247
0.00943464
0.00928248
0.00913222
0.00897151
0.00882985
0.00864609
0.00855976
0.0114231
0.0119165
0.0119193
0.0119991
0.0120556
0.0120638
0.0120374
0.011978
0.0118935
0.011794
0.0116861
0.0115738
0.0114608
0.0113473
0.0112325
0.0111163
0.0109988
0.0108794
0.0107574
0.0106326
0.0105049
0.0103744
0.010241
0.0101048
0.00996578
0.00982363
0.00967909
0.00953106
0.0093812
0.00922686
0.00907379
0.0089098
0.00875934
0.00856572
0.00844241
0.0112927
0.0118553
0.0118907
0.0119921
0.0120642
0.0120786
0.0120528
0.0119905
0.0119017
0.0117982
0.0116873
0.0115723
0.0114565
0.0113399
0.0112216
0.0111017
0.0109807
0.0108582
0.0107336
0.0106064
0.0104766
0.010344
0.0102087
0.0100706
0.00992969
0.00978582
0.00963964
0.00949033
0.00933944
0.00918469
0.00903237
0.0088701
0.0087272
0.008542
0.00845584
0.0111616
0.011824
0.0118976
0.0120236
0.0121073
0.0121201
0.0120869
0.0120145
0.0119163
0.0118053
0.0116886
0.0115691
0.01145
0.0113308
0.0112105
0.0110892
0.0109668
0.0108427
0.0107162
0.0105868
0.0104545
0.0103194
0.0101816
0.0100411
0.00989802
0.00975221
0.00960433
0.00945351
0.00930136
0.00914529
0.00899138
0.00882693
0.00867726
0.00848499
0.00836405
0.0109891
0.0117842
0.0118837
0.0120323
0.0121282
0.0121422
0.0121057
0.0120278
0.0119242
0.0118095
0.0116901
0.0115683
0.0114471
0.0113258
0.0112028
0.0110786
0.0109535
0.010827
0.0106986
0.0105677
0.0104341
0.0102978
0.0101587
0.0100169
0.00987267
0.00972577
0.00957684
0.00942529
0.00927253
0.00911636
0.00896305
0.00880005
0.00865612
0.00847088
0.00838211
0.0108083
0.0117761
0.0118998
0.0120749
0.0121797
0.0121878
0.0121405
0.0120506
0.0119372
0.0118157
0.0116915
0.0115663
0.0114425
0.0113191
0.0111947
0.0110696
0.0109437
0.0108163
0.0106867
0.0105542
0.0104188
0.0102806
0.0101398
0.00999637
0.00985061
0.00970244
0.00955243
0.0094
0.00924652
0.00908972
0.0089356
0.0087714
0.00862254
0.00843257
0.00831288
0.0105854
0.0117801
0.0119087
0.0121042
0.0122131
0.0122149
0.0121601
0.0120626
0.0119436
0.0118191
0.0116928
0.0115655
0.0114402
0.0113157
0.01119
0.0110629
0.0109348
0.0108056
0.0106746
0.0105411
0.010405
0.0102661
0.0101245
0.00998029
0.00983377
0.00968494
0.0095343
0.00938151
0.00922773
0.00907101
0.00891744
0.00875438
0.0086097
0.00842517
0.00833159
0.0103346
0.0118095
0.0119334
0.0121563
0.0122686
0.0122599
0.0121917
0.0120814
0.0119534
0.0118238
0.0116942
0.0115645
0.0114372
0.011311
0.0111841
0.0110566
0.0109284
0.0107988
0.010667
0.0105325
0.0103951
0.0102549
0.0101121
0.00996679
0.00981933
0.00966972
0.00951847
0.00936524
0.00921114
0.00905425
0.00890045
0.00873705
0.00858946
0.0084025
0.00828472
0.0100584
0.0118845
0.0119733
0.0122087
0.0123118
0.0122889
0.0122095
0.0120905
0.0119575
0.0118264
0.0116952
0.0115632
0.0114347
0.0113087
0.0111819
0.0110534
0.0109235
0.0107924
0.0106597
0.0105246
0.0103868
0.0102461
0.0101029
0.00995712
0.0098092
0.00965923
0.00950767
0.00935428
0.00920013
0.00904343
0.00889013
0.00872776
0.00858273
0.00840021
0.00829929
0.0097183
0.0119666
0.0120066
0.0122659
0.0123637
0.0123265
0.0122334
0.0121032
0.0119636
0.0118295
0.0116966
0.011563
0.011433
0.0113054
0.0111778
0.0110493
0.0109198
0.0107888
0.0106557
0.0105198
0.0103811
0.0102396
0.0100956
0.00994921
0.00980082
0.00965034
0.00949866
0.00934492
0.00919083
0.00903433
0.0088809
0.00871904
0.00857422
0.00839034
0.00829526
0.00940163
0.012131
0.0120798
0.0123366
0.0124112
0.0123535
0.012247
0.0121082
0.0119649
0.0118321
0.0116988
0.011562
0.0114299
0.0113028
0.0111765
0.0110486
0.0109185
0.0107867
0.0106529
0.0105165
0.0103775
0.0102356
0.0100913
0.00994475
0.00979607
0.00964549
0.00949388
0.00933983
0.00918606
0.00902974
0.0088766
0.00871619
0.00857088
0.0083954
0.00827893
0.00899198
0.012265
0.0121213
0.0123789
0.012436
0.0123683