/*--------------------------------*- C++ -*----------------------------------*\
  =========                 |
  \\      /  F ield         | OpenFOAM: The Open Source CFD Toolbox
   \\    /   O peration     | Website:  https://openfoam.org
    \\  /    A nd           | Version:  6
     \\/     M anipulation  |
\*---------------------------------------------------------------------------*/
FoamFile
{
    version     2.0;
    format      ascii;
    class       volVectorField;
    location    "0.8";
    object      wallShearStress;
}
// * * * * * * * * * * * * * * * * * * * * * * * * * * * * * * * * * * * * * //

dimensions      [0 2 -2 0 0 0 0];

internalField   uniform (0 0 0);

boundaryField
{
    inlet
    {
        type            calculated;
        value           uniform (0 0 0);
    }
    outlet
    {
        type            calculated;
        value           uniform (0 0 0);
    }
    roughCylinder
    {
        type            calculated;
        value           nonuniform List<vector> 
3840
(
(-0.000579757 -0.000824492 -0.00034234)
(-0.000428442 -0.000628398 -5.9846e-06)
(-0.000483331 -0.000715242 6.66423e-05)
(-0.000588339 -0.000815682 0.00014173)
(-0.000690877 -0.000872825 0.000205477)
(-0.000784322 -0.000894813 0.000253277)
(-0.000864981 -0.00089602 0.000286077)
(-0.000933967 -0.000897075 0.00030899)
(-0.000988875 -0.000902489 0.0003222)
(-0.0010335 -0.000915488 0.000326983)
(-0.00106979 -0.000935083 0.000325564)
(-0.00110114 -0.000959389 0.000320058)
(-0.00113107 -0.000986794 0.000311973)
(-0.00116196 -0.00101642 0.000302026)
(-0.00119496 -0.00104797 0.000290393)
(-0.00123038 -0.00108141 0.000277057)
(-0.00126825 -0.00111668 0.000261922)
(-0.00130835 -0.00115353 0.000244756)
(-0.00135032 -0.00119152 0.00022506)
(-0.00139342 -0.00122985 0.00020193)
(-0.00143639 -0.00126726 0.000173648)
(-0.00147708 -0.00130176 0.000137769)
(-0.00151119 -0.00133036 9.01324e-05)
(-0.00153195 -0.00134804 3.12437e-05)
(-0.000572168 -0.000743021 -0.000314143)
(-0.000463287 -0.000625588 -1.05341e-05)
(-0.000516553 -0.000706697 5.91518e-05)
(-0.000624559 -0.000807502 0.000132615)
(-0.000730834 -0.000866682 0.000195759)
(-0.000828925 -0.000892472 0.000243639)
(-0.000915425 -0.000899176 0.000278048)
(-0.000989464 -0.000902021 0.000302945)
(-0.00104598 -0.000905188 0.000316655)
(-0.00109194 -0.000916841 0.000321482)
(-0.00112956 -0.000935496 0.000319997)
(-0.00116222 -0.000959148 0.000314356)
(-0.00119344 -0.000986029 0.000306138)
(-0.00122568 -0.00101517 0.000296122)
(-0.0012601 -0.00104623 0.000284514)
(-0.00129707 -0.00107915 0.000271307)
(-0.00133658 -0.00111386 0.000256396)
(-0.00137844 -0.00115013 0.000239548)
(-0.00142225 -0.00118753 0.000220257)
(-0.00146725 -0.00122528 0.000197629)
(-0.00151215 -0.00126214 0.000169966)
(-0.00155467 -0.00129616 0.000134864)
(-0.00159035 -0.00132441 8.8231e-05)
(-0.00161211 -0.00134188 3.05788e-05)
(-0.000598584 -0.000704668 -0.000294925)
(-0.000501335 -0.000616435 -1.63577e-05)
(-0.00055014 -0.000691528 5.09796e-05)
(-0.00066122 -0.000792703 0.000122806)
(-0.000771585 -0.00085439 0.000185638)
(-0.00087489 -0.000884605 0.0002342)
(-0.000967049 -0.000896392 0.000270241)
(-0.00104549 -0.000901217 0.000296632)
(-0.001104 -0.000902352 0.000310719)
(-0.00115101 -0.000912488 0.000315509)
(-0.00118979 -0.000929989 0.000313901)
(-0.00122363 -0.000952756 0.000308124)
(-0.00125606 -0.000978881 0.000299788)
(-0.00128954 -0.0010073 0.00028972)
(-0.00132529 -0.00103761 0.000278157)
(-0.00136367 -0.00106975 0.000265098)
(-0.00140472 -0.00110364 0.000250436)
(-0.00144821 -0.00113906 0.000233932)
(-0.00149374 -0.00117558 0.000215078)
(-0.00154053 -0.00121246 0.000192987)
(-0.00158723 -0.00124851 0.000165987)
(-0.00163146 -0.00128181 0.000131721)
(-0.00166864 -0.00130949 8.61718e-05)
(-0.00169136 -0.00132663 2.98583e-05)
(-0.000646871 -0.000686509 -0.000278727)
(-0.00054102 -0.000603252 -2.30384e-05)
(-0.000582173 -0.000671514 4.23349e-05)
(-0.000696177 -0.000772216 0.000112542)
(-0.000810854 -0.000836929 0.000175127)
(-0.000919548 -0.000871924 0.000224639)
(-0.00101716 -0.000888321 0.000262353)
(-0.00109955 -0.000894907 0.00028992)
(-0.00116077 -0.000894852 0.000304551)
(-0.00120871 -0.000903318 0.000309354)
(-0.00124855 -0.000919521 0.000307578)
(-0.00128344 -0.000941266 0.000301669)
(-0.00131697 -0.000966487 0.000293229)
(-0.00135159 -0.000994024 0.000283128)
(-0.00138855 -0.00102343 0.000271626)
(-0.00142823 -0.00105461 0.000258732)
(-0.00147065 -0.0010875 0.000244333)
(-0.00151562 -0.00112186 0.000228186)
(-0.00156271 -0.0011573 0.00020978)
(-0.00161113 -0.00119311 0.000188238)
(-0.00165947 -0.00122813 0.000161913)
(-0.0017053 -0.00126051 0.0001285)
(-0.00174386 -0.00128747 8.40602e-05)
(-0.00176749 -0.00130418 2.9119e-05)
(-0.000683672 -0.000651539 -0.000252295)
(-0.000576636 -0.000580965 -3.01781e-05)
(-0.000612153 -0.000646641 3.36972e-05)
(-0.000728838 -0.000746593 0.000101937)
(-0.000848012 -0.000814464 0.000164219)
(-0.000962083 -0.0008541 0.000214743)
(-0.00106484 -0.000874464 0.000254079)
(-0.001151 -0.000882518 0.000282686)
(-0.00121553 -0.000882003 0.000298111)
(-0.00126434 -0.000888594 0.000302998)
(-0.0013051 -0.000903363 0.000301051)
(-0.00134095 -0.000923944 0.000295029)
(-0.00137546 -0.000948106 0.000286509)
(-0.00141109 -0.000974604 0.000276397)
(-0.0014491 -0.00100294 0.000264978)
(-0.00148991 -0.00103299 0.000252265)
(-0.00153355 -0.00106467 0.000238144)
(-0.00157982 -0.00109778 0.000222364)
(-0.00162828 -0.00113193 0.000204414)
(-0.00167816 -0.00116645 0.000183427)
(-0.00172798 -0.00120023 0.000157784)
(-0.00177526 -0.00123149 0.000125233)
(-0.0018151 -0.00125756 8.19162e-05)
(-0.00183958 -0.00127375 2.8368e-05)
(-0.000651206 -0.000554294 -0.000204305)
(-0.000604139 -0.000550002 -3.61936e-05)
(-0.000640077 -0.000617378 2.49122e-05)
(-0.000758866 -0.000716729 9.09289e-05)
(-0.000882567 -0.000787657 0.000152881)
(-0.00100194 -0.000831492 0.000204424)
(-0.00110962 -0.000855121 0.000245321)
(-0.00119964 -0.000864403 0.000274932)
(-0.00126802 -0.000864088 0.000291368)
(-0.00131773 -0.00086843 0.000296396)
(-0.00135932 -0.000881609 0.000294301)
(-0.00139601 -0.000900858 0.000288196)
(-0.00143137 -0.000923808 0.000279624)
(-0.00146788 -0.000949118 0.000269533)
(-0.00150681 -0.000976226 0.00025822)
(-0.00154859 -0.00100497 0.000245708)
(-0.00159327 -0.00103528 0.00023188)
(-0.00164065 -0.00106694 0.000216477)
(-0.00169031 -0.00109961 0.00019899)
(-0.00174146 -0.00113263 0.000178562)
(-0.00179261 -0.00116498 0.000153606)
(-0.0018412 -0.00119494 0.000121923)
(-0.00188223 -0.00121997 7.97415e-05)
(-0.00190749 -0.00123553 2.76053e-05)
(-0.000870852 -0.000656401 -0.000236675)
(-0.000634014 -0.000524805 -4.06618e-05)
(-0.000665809 -0.000584295 1.60644e-05)
(-0.000785835 -0.000683502 7.95124e-05)
(-0.000913907 -0.000757145 0.000141098)
(-0.00103842 -0.000804577 0.000193633)
(-0.00115091 -0.000830835 0.000236028)
(-0.00124501 -0.000841176 0.0002667)
(-0.00131732 -0.000841431 0.000284176)
(-0.00136849 -0.000843303 0.000289451)
(-0.00141082 -0.00085471 0.000287316)
(-0.00144829 -0.000872457 0.000281165)
(-0.00148441 -0.000894054 0.000272579)
(-0.00152166 -0.000918036 0.000262538)
(-0.00156135 -0.000943775 0.000251358)
(-0.00160393 -0.000971072 0.000239069)
(-0.00164946 -0.000999845 0.000225547)
(-0.00169776 -0.00102991 0.000210531)
(-0.00174842 -0.00106093 0.00019351)
(-0.00180066 -0.00109229 0.000173644)
(-0.00185297 -0.00112303 0.000149378)
(-0.00190273 -0.00115152 0.000118569)
(-0.00194484 -0.00117537 7.75344e-05)
(-0.00197082 -0.00119022 2.68308e-05)
(-0.000860658 -0.000576275 -0.000196632)
(-0.000666993 -0.000496023 -4.60054e-05)
(-0.000688721 -0.000549391 6.75066e-06)
(-0.00080914 -0.000647238 6.78752e-05)
(-0.000941275 -0.000723059 0.000128927)
(-0.00107069 -0.000773512 0.000182318)
(-0.00118795 -0.000801914 0.000226121)
(-0.00128629 -0.000813143 0.000257944)
(-0.00136229 -0.000813801 0.00027632)
(-0.001416 -0.000813606 0.000282082)
(-0.00145902 -0.000823009 0.000280076)
(-0.0014972 -0.000839076 0.000273914)
(-0.00153396 -0.000859194 0.000265361)
(-0.00157183 -0.000881738 0.000255411)
(-0.00161212 -0.000905993 0.000244394)
(-0.00165532 -0.00093173 0.000232351)
(-0.0017015 -0.000958852 0.000219152)
(-0.00175051 -0.000987177 0.000204529)
(-0.00180197 -0.0010164 0.000187978)
(-0.0018551 -0.00104596 0.000168674)
(-0.00190838 -0.00107494 0.000145098)
(-0.00195918 -0.00110183 0.00011517)
(-0.00200225 -0.00112436 7.52943e-05)
(-0.0020289 -0.00113842 2.60439e-05)
(-0.000849072 -0.000503021 -0.000153966)
(-0.00069329 -0.000457699 -5.27376e-05)
(-0.000707842 -0.000512278 -2.16142e-06)
(-0.000828303 -0.000608206 5.61796e-05)
(-0.000964068 -0.000685657 0.000116446)
(-0.00109812 -0.000738557 0.000170474)
(-0.00122013 -0.000768695 0.000215549)
(-0.00132282 -0.000780613 0.000248569)
(-0.00140249 -0.000781384 0.000267781)
(-0.0014596 -0.00077983 0.000274301)
(-0.00150335 -0.000786852 0.00027255)
(-0.00154216 -0.000801068 0.000266434)
(-0.00157946 -0.000819575 0.000257974)
(-0.0016178 -0.000840576 0.000248155)
(-0.00165852 -0.000863248 0.000237336)
(-0.00170214 -0.000887323 0.000225563)
(-0.00174875 -0.000912694 0.000212701)
(-0.00179825 -0.000939196 0.000198479)
(-0.00185027 -0.00096652 0.000182398)
(-0.00190407 -0.00099416 0.000163655)
(-0.00195815 -0.00102125 0.000140769)
(-0.0020098 -0.0010464 0.000111723)
(-0.00205373 -0.0010675 7.30192e-05)
(-0.00208098 -0.0010807 2.52439e-05)
(-0.000857363 -0.000442826 -0.000123532)
(-0.000717215 -0.000421077 -5.81401e-05)
(-0.000723893 -0.000473256 -1.09383e-05)
(-0.000842669 -0.000566618 4.4338e-05)
(-0.000981438 -0.000645149 0.000103562)
(-0.0011199 -0.000699955 0.000158017)
(-0.00124666 -0.000731467 0.000204231)
(-0.0013538 -0.000743892 0.000238472)
(-0.00143733 -0.000744598 0.000258598)
(-0.00149819 -0.000742328 0.000266018)
(-0.00154319 -0.000746608 0.000264659)
(-0.00158258 -0.000758856 0.000258712)
(-0.00162032 -0.000775613 0.000250408)
(-0.00165897 -0.000794984 0.000240775)
(-0.00169994 -0.000816012 0.000230194)
(-0.00174377 -0.000838372 0.000218716)
(-0.00179056 -0.000861918 0.000206204)
(-0.00184028 -0.000886488 0.000192385)
(-0.00189262 -0.000911813 0.00017677)
(-0.00194687 -0.000937424 0.000158584)
(-0.00200155 -0.000962537 0.000136387)
(-0.00205391 -0.000985831 0.000108228)
(-0.00209859 -0.00100542 7.07071e-05)
(-0.00212638 -0.00101769 2.443e-05)
(-0.000788306 -0.000351929 -8.53232e-05)
(-0.000729092 -0.00037691 -6.26823e-05)
(-0.000735069 -0.000431913 -1.94051e-05)
(-0.00085182 -0.000522814 3.24988e-05)
(-0.00099298 -0.000601921 9.03189e-05)
(-0.00113552 -0.000658151 0.000144938)
(-0.00126702 -0.000690707 0.00019214)
(-0.00137867 -0.000703454 0.000227606)
(-0.0014662 -0.000703937 0.0002488)
(-0.00153059 -0.000701073 0.000257097)
(-0.001578 -0.000703114 0.000256371)
(-0.00161789 -0.000712904 0.000250731)
(-0.00165596 -0.000727823 0.000242668)
(-0.00169478 -0.000745462 0.000233279)
(-0.00173577 -0.000764772 0.000222973)
(-0.00177954 -0.000785345 0.00021182)
(-0.00182626 -0.000807137 0.000199678)
(-0.00187596 -0.000829867 0.000186267)
(-0.00192837 -0.000853236 0.000171115)
(-0.00198283 -0.000876801 0.000153477)
(-0.00203788 -0.000899834 0.00013196)
(-0.00209079 -0.000921122 0.000104684)
(-0.00213608 -0.000939008 6.83565e-05)
(-0.00216435 -0.000950265 2.36014e-05)
(-0.00102032 -0.00038515 -8.54596e-05)
(-0.000748948 -0.000341873 -6.62278e-05)
(-0.000743283 -0.000389414 -2.74723e-05)
(-0.000855286 -0.000477276 2.06278e-05)
(-0.000997891 -0.000556309 7.67108e-05)
(-0.00114419 -0.000613466 0.000131198)
(-0.00128038 -0.000646781 0.000179215)
(-0.00139669 -0.000659695 0.00021589)
(-0.00148836 -0.000659844 0.0002383)
(-0.00155625 -0.000656301 0.000247566)
(-0.00160636 -0.000656736 0.000247589)
(-0.00164749 -0.000664206 0.000242478)
(-0.00168576 -0.000677003 0.000234764)
(-0.00172459 -0.000692903 0.000225695)
(-0.0017654 -0.000710597 0.000215725)
(-0.0018089 -0.000729521 0.00020493)
(-0.00185498 -0.000749423 0.000193127)
(-0.00190407 -0.000770181 0.000180085)
(-0.00195605 -0.000791485 0.000165364)
(-0.00201036 -0.000812918 0.000148257)
(-0.0020656 -0.000833828 0.000127423)
(-0.00211903 -0.000853103 0.000101051)
(-0.00216503 -0.000869298 6.5949e-05)
(-0.0021938 -0.00087953 2.27528e-05)
(-0.000971241 -0.000307174 -5.55865e-05)
(-0.000763997 -0.000301226 -6.9514e-05)
(-0.00074588 -0.000345865 -3.55194e-05)
(-0.000852671 -0.000430453 8.99165e-06)
(-0.000995947 -0.000508802 6.28981e-05)
(-0.00114554 -0.000566474 0.000116865)
(-0.00128633 -0.000600288 0.000165467)
(-0.00140738 -0.000613208 0.000203297)
(-0.00150331 -0.000612891 0.000227028)
(-0.00157469 -0.000608549 0.000237433)
(-0.00162735 -0.000607589 0.00023831)
(-0.00166987 -0.000613106 0.000233828)
(-0.00170859 -0.00062388 0.000226611)
(-0.00174712 -0.000637949 0.000217946)
(-0.00178722 -0.000653893 0.000208322)
(-0.00182977 -0.000671039 0.000197849)
(-0.00187498 -0.000688952 0.000186385)
(-0.00192318 -0.000707609 0.000173713)
(-0.00197448 -0.000726734 0.000159423)
(-0.00202838 -0.000745961 0.000142854)
(-0.00208355 -0.000764706 0.000122718)
(-0.0021373 -0.000781982 9.7277e-05)
(-0.00218384 -0.000796513 6.34447e-05)
(-0.00221302 -0.000805707 2.18695e-05)
(-0.000928689 -0.000240289 -2.3633e-05)
(-0.000774644 -0.000256047 -7.47352e-05)
(-0.000745338 -0.000303198 -4.27279e-05)
(-0.000843741 -0.000382785 -2.17547e-06)
(-0.000986325 -0.000459705 4.90065e-05)
(-0.00113871 -0.000517541 0.000101964)
(-0.00128401 -0.00055167 0.000150868)
(-0.00140994 -0.000564484 0.000189768)
(-0.0015103 -0.000563581 0.000214889)
(-0.00158526 -0.000558312 0.000226607)
(-0.00164043 -0.00055598 0.000228498)
(-0.00168423 -0.000559703 0.000224747)
(-0.00172322 -0.000568566 0.000218099)
(-0.00176126 -0.000580749 0.000209896)
(-0.00180042 -0.00059482 0.000200663)
(-0.00184178 -0.00061004 0.000190539)
(-0.00188581 -0.000625932 0.000179427)
(-0.00193288 -0.000642431 0.000167135)
(-0.00198323 -0.000659341 0.000153285)
(-0.0020365 -0.000676331 0.000137264)
(-0.00209138 -0.000692884 0.000117841)
(-0.00214523 -0.000708141 9.3359e-05)
(-0.00219215 -0.000720997 6.08386e-05)
(-0.00222167 -0.000729127 2.0949e-05)
(-0.000898319 -0.000180499 -2.29589e-06)
(-0.000775292 -0.00021191 -7.76927e-05)
(-0.000737841 -0.000259528 -4.91434e-05)
(-0.000827927 -0.000334719 -1.28362e-05)
(-0.000968845 -0.00040982 3.51074e-05)
(-0.00112344 -0.00046745 8.65522e-05)
(-0.00127311 -0.000501709 0.000135443)
(-0.00140401 -0.000514271 0.000175302)
(-0.00150893 -0.000512631 0.00020185)
(-0.00158754 -0.000506257 0.000215022)
(-0.00164521 -0.000502467 0.000218102)
(-0.00169022 -0.000504412 0.00021522)
(-0.00172933 -0.000511385 0.000209232)
(-0.0017667 -0.000521656 0.000201556)
(-0.00180466 -0.000533811 0.000192766)
(-0.00184458 -0.000547079 0.000183031)
(-0.00188713 -0.000560939 0.000172289)
(-0.00193279 -0.000575289 0.000160382)
(-0.00198194 -0.000589973 0.000146972)
(-0.0020343 -0.000604712 0.000131501)
(-0.00208869 -0.000619074 0.000112804)
(-0.00214246 -0.000632301 8.93016e-05)
(-0.00218963 -0.000643461 5.81343e-05)
(-0.00221944 -0.000650514 1.99923e-05)
(-0.000787355 -0.00011469 1.67574e-05)
(-0.000769668 -0.000166986 -8.01358e-05)
(-0.000727595 -0.000217087 -5.49577e-05)
(-0.000805476 -0.000287017 -2.28158e-05)
(-0.000942795 -0.000359593 2.13502e-05)
(-0.00109886 -0.000416681 7.06931e-05)
(-0.0012527 -0.000450935 0.000119176)
(-0.00138872 -0.000463182 0.000159838)
(-0.00149843 -0.00046069 0.000187841)
(-0.00158087 -0.000453048 0.000202608)
(-0.0016411 -0.000447676 0.000207058)
(-0.00168728 -0.000447803 0.000205216)
(-0.00172641 -0.000452882 0.000200014)
(-0.0017629 -0.000461242 0.000192955)
(-0.00179945 -0.000471491 0.000184671)
(-0.00183762 -0.000482819 0.000175361)
(-0.00187839 -0.000494687 0.000165001)
(-0.00192238 -0.000506926 0.000153474)
(-0.00197007 -0.000519429 0.000140499)
(-0.00202135 -0.00053195 0.000125579)
(-0.00207504 -0.000544127 0.000107614)
(-0.00212857 -0.000555322 8.51108e-05)
(-0.00217586 -0.000564771 5.53336e-05)
(-0.0022059 -0.000570718 1.90003e-05)
(-0.000996479 -8.9906e-05 3.97091e-05)
(-0.000767367 -0.000127246 -8.23075e-05)
(-0.000710015 -0.000174736 -5.96998e-05)
(-0.000775762 -0.000240325 -3.19315e-05)
(-0.000908245 -0.000309953 7.92179e-06)
(-0.00106496 -0.000366137 5.45285e-05)
(-0.00122272 -0.000400255 0.000102156)
(-0.0013639 -0.000412109 0.00014342)
(-0.00147856 -0.000408639 0.000172873)
(-0.00156492 -0.000399536 0.000189351)
(-0.00162776 -0.000392422 0.000195359)
(-0.00167509 -0.000390643 0.000194747)
(-0.0017141 -0.000393807 0.000190483)
(-0.00174954 -0.000400279 0.000184153)
(-0.00178439 -0.000408669 0.000176438)
(-0.00182056 -0.000418122 0.000167581)
(-0.00185924 -0.000428085 0.0001576)
(-0.0019013 -0.000438302 0.000146441)
(-0.00194731 -0.000448696 0.000133888)
(-0.00199726 -0.000459048 0.00011951)
(-0.00205009 -0.000469076 0.000102281)
(-0.00210321 -0.000478245 8.07918e-05)
(-0.00215051 -0.000485963 5.24399e-05)
(-0.00218076 -0.000490787 1.79735e-05)
(-0.000842362 -3.11237e-05 4.54278e-05)
(-0.000751328 -8.88139e-05 -8.16173e-05)
(-0.000689082 -0.000134273 -6.36672e-05)
(-0.000739664 -0.000195677 -3.99896e-05)
(-0.000864811 -0.000261541 -4.90648e-06)
(-0.00102097 -0.000316398 3.82375e-05)
(-0.00118226 -0.000350288 8.44486e-05)
(-0.0013287 -0.000361739 0.000126036)
(-0.00144857 -0.000357243 0.000156903)
(-0.00153912 -0.000346552 0.000175221)
(-0.00160467 -0.000337541 0.000182988)
(-0.00165313 -0.000333763 0.000183814)
(-0.00169193 -0.000334993 0.000180665)
(-0.0017261 -0.000339625 0.000175182)
(-0.00175903 -0.000346251 0.000168105)
(-0.00179287 -0.000353946 0.000159716)
(-0.00182919 -0.000362116 0.000150103)
(-0.00186906 -0.000370452 0.000139291)
(-0.00191318 -0.000378841 0.00012714)
(-0.00196167 -0.00038712 0.000113297)
(-0.00201344 -0.000395047 9.68046e-05)
(-0.00206604 -0.000402211 7.63449e-05)
(-0.00211327 -0.000408181 4.94526e-05)
(-0.00214369 -0.000411857 1.69117e-05)
(-0.00071827 1.02202e-05 5.52582e-05)
(-0.000729847 -4.86282e-05 -8.2223e-05)
(-0.000663042 -9.66761e-05 -6.67899e-05)
(-0.000696894 -0.000153467 -4.65675e-05)
(-0.000812857 -0.00021517 -1.67124e-05)
(-0.000967198 -0.000268399 2.21564e-05)
(-0.00113152 -0.000301984 6.62718e-05)
(-0.0012832 -0.000313045 0.000107813)
(-0.00140842 -0.000307468 0.000139997)
(-0.0015033 -0.000295063 0.000160248)
(-0.00157166 -0.000284017 0.000169976)
(-0.00162125 -0.000278154 0.000172469)
(-0.00165967 -0.000277441 0.000170618)
(-0.00169238 -0.00028031 0.000166109)
(-0.00172306 -0.000285298 0.000159723)
(-0.00175432 -0.000291399 0.000151811)
(-0.001788 -0.000297943 0.000142541)
(-0.00182544 -0.000304551 0.000132042)
(-0.00186747 -0.000311077 0.000120268)
(-0.00191426 -0.000317376 0.000106944)
(-0.00196487 -0.00032328 9.11892e-05)
(-0.00201682 -0.000328465 7.17719e-05)
(-0.00206391 -0.000332681 4.63717e-05)
(-0.00209453 -0.000335186 1.58148e-05)
(-0.000834972 5.51633e-05 8.30924e-05)
(-0.000705637 -1.21291e-05 -8.34807e-05)
(-0.000631 -6.22647e-05 -6.88086e-05)
(-0.000648163 -0.000114654 -5.15518e-05)
(-0.000752285 -0.000171733 -2.72033e-05)
(-0.000903033 -0.000222825 6.58471e-06)
(-0.00106968 -0.00025599 4.78108e-05)
(-0.00122661 -0.00026673 8.88264e-05)
(-0.00135751 -0.000260122 0.000122178)
(-0.001457 -0.000245962 0.000144446)
(-0.00152828 -0.000232787 0.00015634)
(-0.00157899 -0.000224785 0.000160738)
(-0.00161693 -0.000222162 0.000160389)
(-0.00164791 -0.000223382 0.000156975)
(-0.00167611 -0.000226913 0.000151332)
(-0.00170446 -0.000231618 0.000143883)
(-0.00173521 -0.000236729 0.000134916)
(-0.00176999 -0.000241794 0.000124689)
(-0.00180976 -0.000246619 0.000113264)
(-0.00185479 -0.000251075 0.000100448)
(-0.00190408 -0.000255034 8.54291e-05)
(-0.00195528 -0.000258282 6.70673e-05)
(-0.00200219 -0.000260746 4.31938e-05)
(-0.00203299 -0.000262062 1.46809e-05)
(-0.00077813 9.28363e-05 8.5677e-05)
(-0.000670532 1.63013e-05 -8.09766e-05)
(-0.00059442 -3.09021e-05 -6.9675e-05)
(-0.000594316 -8.00346e-05 -5.5035e-05)
(-0.000683957 -0.000132181 -3.60404e-05)
(-0.000829242 -0.000180613 -8.07398e-06)
(-0.000997271 -0.000213215 2.93896e-05)
(-0.00115932 -0.000223713 6.92995e-05)
(-0.00129604 -0.000216138 0.000103591)
(-0.00140033 -0.000200208 0.000127916)
(-0.00147465 -0.000184862 0.000142178)
(-0.00152643 -0.000174717 0.000148721)
(-0.00156364 -0.000170247 0.000150065)
(-0.00159263 -0.000169983 0.000147861)
(-0.00161795 -0.000172272 0.000142983)
(-0.00164311 -0.000175822 0.000135966)
(-0.00167071 -0.000179731 0.000127247)
(-0.00170263 -0.000183453 0.00011724)
(-0.00173997 -0.000186751 0.000106127)
(-0.00178302 -0.000189493 9.38002e-05)
(-0.00183093 -0.000191617 7.95203e-05)
(-0.00188133 -0.000192988 6.22297e-05)
(-0.00192802 -0.000193708 3.99167e-05)
(-0.00195907 -0.000193819 1.35097e-05)
(-0.000650862 0.000109221 8.4066e-05)
(-0.000626538 4.43455e-05 -7.81464e-05)
(-0.000552072 -3.91701e-06 -6.98827e-05)
(-0.00053608 -5.02027e-05 -5.67001e-05)
(-0.000608717 -9.70934e-05 -4.26534e-05)
(-0.0007458 -0.00014235 -2.12189e-05)
(-0.000913972 -0.000174213 1.14421e-05)
(-0.00108087 -0.00018459 4.94861e-05)
(-0.0012237 -0.000176219 8.43864e-05)
(-0.00133304 -0.000158607 0.000110764)
(-0.00141045 -0.000141127 0.000127573)
(-0.00146321 -0.000128908 0.000136499)
(-0.00149955 -0.000122747 0.000139733)
(-0.00152619 -0.000121219 0.000138827)
(-0.00154835 -0.00012254 0.000134716)
(-0.00156998 -0.000125208 0.00012807)
(-0.00159416 -0.00012816 0.000119521)
(-0.00162306 -0.000130758 0.000109675)
(-0.00165786 -0.000132717 9.88411e-05)
(-0.00169896 -0.000133909 8.69966e-05)
(-0.00174536 -0.000134311 7.34571e-05)
(-0.00179486 -0.000133871 5.72529e-05)
(-0.00184132 -0.000132873 3.65363e-05)
(-0.00187259 -0.000131757 1.22986e-05)
(-0.000521225 0.000113691 7.95979e-05)
(-0.00056543 6.59745e-05 -7.5011e-05)
(-0.000504675 1.76155e-05 -6.86586e-05)
(-0.000474609 -2.57565e-05 -5.65054e-05)
(-0.00052795 -6.72871e-05 -4.66369e-05)
(-0.000654013 -0.000108793 -3.21661e-05)
(-0.000820647 -0.000139655 -5.4618e-06)
(-0.000991995 -0.000150032 2.98064e-05)
(-0.00114103 -0.000141063 6.4862e-05)
(-0.00125568 -0.000121934 9.32311e-05)
(-0.00133627 -0.000102457 0.000112745)
(-0.00138979 -8.83254e-05 0.000124261)
(-0.00142477 -8.06917e-05 0.000129528)
(-0.00144869 -7.8197e-05 0.000129975)
(-0.00146724 -7.8864e-05 0.000126581)
(-0.00148507 -8.09554e-05 0.00012021)
(-0.00150569 -8.32185e-05 0.00011174)
(-0.00153143 -8.49149e-05 0.000101988)
(-0.0015636 -8.57259e-05 9.13974e-05)
(-0.00160251 -8.55215e-05 8.00185e-05)
(-0.00164737 -8.43383e-05 6.72294e-05)
(-0.00169595 -8.21798e-05 5.21319e-05)
(-0.00174215 -7.95011e-05 3.305e-05)
(-0.00177376 -7.71511e-05 1.10476e-05)
(-0.000464651 0.000124758 7.95862e-05)
(-0.000504312 8.03767e-05 -7.01818e-05)
(-0.000451899 3.43059e-05 -6.65172e-05)
(-0.000411026 -6.98266e-06 -5.47149e-05)
(-0.000443683 -4.337e-05 -4.77563e-05)
(-0.000554942 -8.03683e-05 -4.01611e-05)
(-0.000717702 -0.000109889 -2.05966e-05)
(-0.000892804 -0.000120365 1.07652e-05)
(-0.00104822 -0.000111084 4.53825e-05)
(-0.00116826 -9.07034e-05 7.55908e-05)
(-0.00125191 -6.94865e-05 9.79081e-05)
(-0.00130602 -5.37437e-05 0.00011219)
(-0.00133941 -4.49937e-05 0.000119607)
(-0.00136004 -4.19065e-05 0.000121385)
(-0.00137462 -4.22923e-05 0.000118607)
(-0.00138835 -4.41293e-05 0.000112376)
(-0.00140516 -4.59655e-05 0.000103863)
(-0.00142769 -4.6978e-05 9.41376e-05)
(-0.00145716 -4.68342e-05 8.37643e-05)
(-0.00149406 -4.54153e-05 7.28624e-05)
(-0.00153731 -4.27947e-05 6.08372e-05)
(-0.00158493 -3.90306e-05 4.68693e-05)
(-0.00163087 -3.47303e-05 2.94591e-05)
(-0.00166274 -3.11431e-05 9.75587e-06)
(-0.000428413 0.000136732 8.47412e-05)
(-0.00044307 9.004e-05 -6.59509e-05)
(-0.000396648 4.54936e-05 -6.3404e-05)
(-0.000346813 6.11933e-06 -5.13869e-05)
(-0.000357419 -2.55086e-05 -4.57844e-05)
(-0.000450583 -5.74419e-05 -4.44146e-05)
(-0.000606625 -8.51083e-05 -3.30366e-05)
(-0.000784612 -9.58148e-05 -6.95175e-06)
(-0.000946301 -8.65185e-05 2.64798e-05)
(-0.00107204 -6.52695e-05 5.83121e-05)
(-0.00115864 -4.27168e-05 8.34817e-05)
(-0.00121268 -2.58041e-05 0.000100603)
(-0.0012437 -1.64112e-05 0.000110162)
(-0.00126068 -1.31997e-05 0.000113183)
(-0.00127087 -1.37093e-05 0.00011084)
(-0.00128026 -1.56159e-05 0.000104562)
(-0.0012933 -1.72769e-05 9.58842e-05)
(-0.00131258 -1.78079e-05 8.61169e-05)
(-0.0013394 -1.68943e-05 7.59449e-05)
(-0.00137397 -1.44357e-05 6.55146e-05)
(-0.00141552 -1.0553e-05 5.42742e-05)
(-0.001462 -5.3328e-06 4.14602e-05)
(-0.0015076 4.93244e-07 2.57622e-05)
(-0.00153991 5.2953e-06 8.42493e-06)
(-0.000367721 0.000136891 7.99359e-05)
(-0.000377359 9.08852e-05 -5.9232e-05)
(-0.000337797 5.1185e-05 -5.90811e-05)
(-0.000283193 1.36473e-05 -4.6605e-05)
(-0.000272898 -1.37659e-05 -4.0805e-05)
(-0.000344143 -4.01406e-05 -4.42428e-05)
(-0.000489014 -6.51515e-05 -4.16911e-05)
(-0.000668069 -7.61466e-05 -2.24558e-05)
(-0.000836212 -6.72417e-05 8.82833e-06)
(-0.000967342 -4.56091e-05 4.19424e-05)
(-0.00105657 -2.2305e-05 6.99041e-05)
(-0.00111024 -4.86344e-06 8.98529e-05)
(-0.00113833 4.54158e-06 0.000101436)
(-0.0011507 7.32889e-06 0.000105435)
(-0.00115601 6.27174e-06 0.000103246)
(-0.00116092 3.99937e-06 9.66931e-05)
(-0.00117003 2.30482e-06 8.76985e-05)
(-0.00118613 2.08234e-06 7.78427e-05)
(-0.00121022 3.58821e-06 6.78729e-05)
(-0.00124283 6.89217e-06 5.79645e-05)
(-0.00128272 1.18355e-05 4.7548e-05)
(-0.00132829 1.83281e-05 3.59291e-05)
(-0.00137364 2.55385e-05 2.19806e-05)
(-0.00140629 3.15008e-05 7.06105e-06)
(-0.000261832 0.00011116 6.60171e-05)
(-0.000306312 8.64108e-05 -5.20684e-05)
(-0.000279044 5.17364e-05 -5.41711e-05)
(-0.000222367 1.63065e-05 -4.08172e-05)
(-0.000189592 -7.3046e-06 -3.2668e-05)
(-0.000237699 -2.78204e-05 -3.88639e-05)
(-0.000367484 -4.95718e-05 -4.52897e-05)
(-0.000545681 -6.08222e-05 -3.4639e-05)
(-0.000719725 -5.28018e-05 -6.71038e-06)
(-0.00085644 -3.14271e-05 2.72881e-05)
(-0.000947516 -8.13843e-06 5.78525e-05)
(-0.000999493 8.99892e-06 8.03815e-05)
(-0.00102382 1.76547e-05 9.36617e-05)
(-0.00103148 1.94301e-05 9.82833e-05)
(-0.00103171 1.74356e-05 9.58732e-05)
(-0.001032 1.45635e-05 8.87575e-05)
(-0.00103741 1.26946e-05 7.93161e-05)
(-0.00105049 1.26524e-05 6.93418e-05)
(-0.00107221 1.45949e-05 5.96153e-05)
(-0.00110247 1.85346e-05 5.02499e-05)
(-0.00114051 2.4294e-05 4.06947e-05)
(-0.00118452 3.17902e-05 3.02891e-05)
(-0.0012292 4.0164e-05 1.81214e-05)
(-0.00126215 4.71694e-05 5.66891e-06)
(-0.000203791 9.86769e-05 6.31236e-05)
(-0.00023773 7.75152e-05 -4.52694e-05)
(-0.000219623 4.73826e-05 -4.85072e-05)
(-0.000164863 1.52236e-05 -3.35392e-05)
(-0.000116826 -4.05433e-06 -2.2981e-05)
(-0.000133332 -1.87454e-05 -2.8008e-05)
(-0.000246801 -3.73079e-05 -4.2537e-05)
(-0.000419443 -4.87922e-05 -4.2264e-05)
(-0.000598765 -4.232e-05 -1.90818e-05)
(-0.000740131 -2.20196e-05 1.5268e-05)
(-0.000832545 2.66556e-07 4.80766e-05)
(-0.000882097 1.60901e-05 7.27276e-05)
(-0.000901188 2.31193e-05 8.70665e-05)
(-0.000902622 2.32635e-05 9.16172e-05)
(-0.000897383 2.00136e-05 8.84721e-05)
(-0.000893306 1.64321e-05 8.05122e-05)
(-0.000895249 1.43455e-05 7.05214e-05)
(-0.000905503 1.44118e-05 6.04585e-05)
(-0.000924463 1.66289e-05 5.10298e-05)
(-0.000952747 2.09802e-05 4.23185e-05)
(-0.000988957 2.72638e-05 3.37033e-05)
(-0.00103213 3.54793e-05 2.45861e-05)
(-0.00107659 4.47438e-05 1.42359e-05)
(-0.00111014 5.26302e-05 4.2698e-06)
(-0.000129315 7.3103e-05 5.3402e-05)
(-0.000170411 6.33457e-05 -3.84001e-05)
(-0.000162344 3.94644e-05 -4.23942e-05)
(-0.000113351 1.14112e-05 -2.76045e-05)
(-8.18835e-05 -6.18461e-06 -1.91017e-05)
(-4.87648e-05 -1.10304e-05 -1.28047e-05)
(-0.000123979 -2.44997e-05 -2.94284e-05)
(-0.000291134 -3.82518e-05 -4.34137e-05)
(-0.0004756 -3.44679e-05 -2.69071e-05)
(-0.000621678 -1.63874e-05 7.03219e-06)
(-0.000712983 3.66673e-06 4.14089e-05)
(-0.000758495 1.7006e-05 6.7314e-05)
(-0.000772422 2.15837e-05 8.18765e-05)
(-0.000768232 1.96692e-05 8.56243e-05)
(-0.000757384 1.50432e-05 8.11218e-05)
(-0.000748791 1.08046e-05 7.19685e-05)
(-0.000747415 8.56331e-06 6.13542e-05)
(-0.000755209 8.72672e-06 5.12888e-05)
(-0.000772579 1.11298e-05 4.2331e-05)
(-0.000798824 1.56372e-05 3.43579e-05)
(-0.000833235 2.21125e-05 2.67462e-05)
(-0.000874217 3.05733e-05 1.89125e-05)
(-0.000917396 4.02648e-05 1.03742e-05)
(-0.000950459 4.86857e-05 2.87947e-06)
(-6.3829e-05 4.60396e-05 4.32403e-05)
(-0.000106952 4.61756e-05 -3.19849e-05)
(-0.000108988 2.94235e-05 -3.67907e-05)
(-6.69192e-05 6.26393e-06 -2.2751e-05)
(-5.24588e-05 -1.11314e-05 -1.68793e-05)
(-3.95083e-05 -2.08493e-05 -1.41478e-05)
(-7.38131e-05 -2.70317e-05 -2.4951e-05)
(-0.000175538 -2.77384e-05 -3.5333e-05)
(-0.000355556 -2.734e-05 -2.94566e-05)
(-0.000502809 -1.33558e-05 3.7701e-06)
(-0.000592487 3.15252e-06 3.87763e-05)
(-0.000631401 1.28176e-05 6.45561e-05)
(-0.00063666 1.41181e-05 7.77645e-05)
(-0.000625119 9.8635e-06 7.94851e-05)
(-0.000609757 4.05598e-06 7.30747e-05)
(-0.000598201 -5.16308e-07 6.26245e-05)
(-0.000594763 -2.65456e-06 5.15387e-05)
(-0.000600519 -2.34682e-06 4.16794e-05)
(-0.000614752 8.10912e-08 3.3308e-05)
(-0.000638504 4.38078e-06 2.6239e-05)
(-0.000670254 1.05716e-05 1.9746e-05)
(-0.000709997 1.88388e-05 1.33113e-05)
(-0.000752509 2.84836e-05 6.61373e-06)
(-0.000786809 3.71439e-05 1.54059e-06)
(-1.50573e-05 2.21483e-05 3.26748e-05)
(-5.03747e-05 2.76301e-05 -2.49835e-05)
(-6.05686e-05 1.86312e-05 -3.24825e-05)
(-2.99686e-05 1.37861e-06 -1.62198e-05)
(-2.89358e-05 -1.58387e-05 -1.77175e-05)
(-1.15389e-05 -2.73947e-05 -1.21152e-05)
(-1.60165e-05 -1.79904e-05 -1.04354e-05)
(-9.87833e-05 -2.31847e-05 -2.67281e-05)
(-0.000239454 -2.02982e-05 -2.34538e-05)
(-0.000386963 -1.16624e-05 6.50417e-06)
(-0.000469593 -2.90659e-07 4.04199e-05)
(-0.000502393 4.79409e-06 6.4422e-05)
(-0.000501991 2.66073e-06 7.50357e-05)
(-0.000483491 -3.50353e-06 7.35293e-05)
(-0.00046163 -1.0102e-05 6.42565e-05)
(-0.000445534 -1.43801e-05 5.22354e-05)
(-0.00043945 -1.61398e-05 4.08647e-05)
(-0.000443482 -1.56151e-05 3.15955e-05)
(-0.000457722 -1.30999e-05 2.42957e-05)
(-0.000480492 -9.47391e-06 1.83778e-05)
(-0.000511078 -3.87958e-06 1.31328e-05)
(-0.000548729 3.55422e-06 8.06416e-06)
(-0.000590566 1.22819e-05 3.12312e-06)
(-0.000622437 2.04433e-05 3.00826e-07)