/*--------------------------------*- C++ -*----------------------------------*\
  =========                 |
  \\      /  F ield         | OpenFOAM: The Open Source CFD Toolbox
   \\    /   O peration     | Website:  https://openfoam.org
    \\  /    A nd           | Version:  6
     \\/     M anipulation  |
\*---------------------------------------------------------------------------*/
FoamFile
{
    version     2.0;
    format      ascii;
    class       volScalarField;
    location    "31";
    object      yPlus;
}
// * * * * * * * * * * * * * * * * * * * * * * * * * * * * * * * * * * * * * //

dimensions      [0 0 0 0 0 0 0];

internalField   uniform 0;

boundaryField
{
    inlet
    {
        type            calculated;
        value           uniform 0;
    }
    outlet
    {
        type            calculated;
        value           uniform 0;
    }
    roughCylinder
    {
        type            calculated;
        value           nonuniform List<scalar> 
5120
(
43.4794
51.2996
57.528
63.6542
68.9428
73.2327
76.6701
79.4487
81.7237
83.6294
85.2853
86.7677
88.1141
89.3588
90.5326
91.6661
92.7899
93.9322
95.1165
96.36
97.6723
99.0557
100.507
102.02
103.583
105.184
106.807
108.429
110.011
111.485
112.699
113.417
42.7677
50.3036
56.3329
62.3189
67.5343
71.789
75.2081
77.978
80.2522
82.1635
83.8272
85.3133
86.6516
87.8827
89.0388
90.1511
91.2514
92.3686
93.5272
94.7436
96.0271
97.3802
98.8002
100.279
101.808
103.372
104.958
106.542
108.086
109.524
110.707
111.408
41.9793
49.2668
55.1085
60.9546
66.0962
70.3193
73.7269
76.498
78.7832
80.7114
82.3899
83.8815
85.2159
86.436
87.5755
88.668
89.7464
90.8403
91.9731
93.1623
94.4178
95.7414
97.1302
98.5763
100.07
101.6
103.148
104.694
106.201
107.603
108.756
109.438
41.1681
48.2208
53.8753
59.578
64.6456
68.841
72.2431
75.022
77.3258
79.2772
80.9739
82.474
83.8101
85.0213
86.1482
87.224
88.2824
89.3533
90.4629
91.6272
92.8554
94.1502
95.5084
96.9224
98.3828
99.8761
101.388
102.896
104.366
105.732
106.855
107.519
40.3064
47.1361
52.6017
58.157
63.1516
67.3266
70.7348
73.535
75.8701
77.8542
79.576
81.0902
82.4324
83.6417
84.7583
85.819
86.8595
87.9115
88.998
90.1375
91.3402
92.6076
93.9365
95.3197
96.7469
98.2066
99.6826
101.154
102.587
103.919
105.013
105.658
39.4355
46.0437
51.3137
56.7148
61.6364
65.7989
69.2234
72.0528
74.4237
76.4434
78.1923
79.7235
81.0766
82.2888
83.4005
84.4514
85.4776
86.5103
87.5776
88.696
89.8741
91.115
92.4157
93.7686
95.1637
96.5883
98.029
99.4642
100.861
102.16
103.224
103.851
38.5108
44.9037
49.9716
55.211
60.0586
64.2159
67.6695
70.5426
72.9623
75.0266
76.8109
78.3683
79.7386
80.9627
82.0759
83.1198
84.134
85.1537
86.202
87.2985
88.4542
89.6706
90.9442
92.2678
93.6325
95.0254
96.4312
97.8311
99.1925
100.458
101.494
102.103
37.5724
43.7454
48.599
53.6636
58.4342
62.5965
66.0952
69.0238
71.4983
73.6127
75.4371
77.0233
78.4165
79.6535
80.7755
81.8198
82.8287
83.8349
84.8693
85.9494
87.0839
88.2764
89.5242
90.8195
92.1529
93.5118
94.8836
96.2479
97.5753
98.8076
99.816
100.407
36.5575
42.5153
47.1453
52.023
56.7104
60.882
64.4379
67.4397
69.9881
72.1651
74.0397
75.6685
77.0933
78.3582
79.4957
80.5481
81.5542
82.5565
83.5777
84.6399
85.7556
86.9266
88.1494
89.4177
90.722
92.0509
93.3887
94.7192
96.011
97.2121
98.1927
98.7662
35.509
41.2399
45.629
50.2953
54.886
59.0762
62.7158
65.8136
68.4467
70.6998
72.6389
74.3151
75.7808
77.0704
78.2286
79.2927
80.3075
81.3065
82.3211
83.3734
84.472
85.6218
86.8211
88.0621
89.3357
90.6304
91.9353
93.2284
94.4873
95.6558
96.608
97.1643
34.3142
39.8336
43.9763
48.4173
52.8982
57.1039
60.8345
64.0522
66.8083
69.1608
71.1756
72.9191
74.4337
75.7724
76.964
78.0524
79.076
80.0818
81.0918
82.1315
83.216
84.3478
85.5235
86.7385
87.9839
89.249
90.5183
91.7794
93.0024
94.1404
95.0657
95.6027
33.0377
38.3422
42.2115
46.3823
50.7146
54.9353
58.8019
62.1866
65.0811
67.5573
69.682
71.5041
73.0914
74.4726
75.7008
76.8128
77.859
78.8706
79.8831
80.9211
81.9935
83.107
84.2618
85.4502
86.6643
87.8941
89.1308
90.3518
91.5427
92.6481
93.5441
94.0644
31.5061
36.6148
40.2037
44.0883
48.2553
52.4761
56.4603
60.0358
63.158
65.817
68.0699
70.0064
71.6648
73.1235
74.4086
75.5687
76.6384
77.671
78.6883
79.719
80.7823
81.8819
83.0148
84.1786
85.3658
86.567
87.7662
88.9574
90.1094
91.1848
92.0541
92.5538
29.8306
34.7466
38.0227
41.5338
45.4209
49.5881
53.7905
57.6757
61.0306
63.9034
66.3555
68.4243
70.2202
71.7563
73.1043
74.3034
75.4144
76.4644
77.4955
78.5356
79.593
80.6777
81.7927
82.93
84.0846
85.2478
86.4142
87.5599
88.6819
89.7233
90.5615
91.0448
27.6308
32.3853
35.3446
38.4871
42.1404
46.2907
50.532
54.6518
58.4741
61.7297
64.4327
66.7287
68.6287
70.283
71.7209
73.0033
74.1576
75.2489
76.2982
77.3368
78.3914
79.4668
80.5612
81.6754
82.8036
83.9385
85.0654
86.1836
87.2613
88.2734
89.0841
89.5439
25.127
29.7904
32.4383
35.0239
37.9665
41.6058
46.3939
51.273
55.4617
59.1169
62.2215
64.745
66.9338
68.7481
70.3015
71.6465
72.8716
73.9952
75.0723
76.1369
77.1943
78.2587
79.3385
80.4252
81.5183
82.6111
83.7011
84.764
85.8149
86.7898
87.5665
88.0097
21.2867
25.943
28.2242
30.4178
33.4666
37.8926
41.5525
46.0291
51.4126
55.9589
59.6111
62.6757
65.0244
67.0227
68.7206
70.21
71.5052
72.702
73.8185
74.8868
75.948
77.0093
78.0689
79.1336
80.1991
81.2624
82.3115
83.3522
84.3454
85.2926
86.0389
86.4545
16.7642
21.854
24.3244
25.7926
26.3073
24.9601
32.8552
40.8493
46.095
51.5646
56.2293
59.706
62.7484
65.1197
67.054
68.6484
70.0702
71.3213
72.4822
73.6033
74.681
75.7354
76.7844
77.8179
78.8445
79.8591
80.8602
81.8272
82.802
83.7049
84.4105
84.8093
6.44036
11.4099
12.549
13.8971
15.4355
9.24734
16.0061
24.6815
38.5252
46.0101
51.8684
56.8845
60.1632
62.8643
65.0554
66.9292
68.4665
69.8465
71.0873
72.2158
73.3033
74.363
75.3913
76.403
77.3978
78.3786
79.3398
80.2914
81.185
82.0623
82.7364
83.0988
4.08493
8.29893
8.85858
10.3566
9.94437
14.698
15.2491
16.8277
19.9095
35.8834
45.5338
51.2033
56.5452
60.1532
62.8862
64.9408
66.7244
68.2008
69.5062
70.7354
71.8653
72.9225
73.9442
74.9171
75.8657
76.7866
77.676
78.5266
79.4089
80.2308
80.8483
81.1942
11.2414
15.7169
17.1062
17.0479
16.768
17.7685
13.7785
18.5738
21.3071
19.5188
34.5835
46.9823
52.0971
56.6393
59.9216
62.6273
64.625
66.3454
67.8193
69.0593
70.2028
71.2781
72.2777
73.2258
74.134
75.0117
75.8631
76.6986
77.4723
78.2738
78.8558
79.1487
19.7008
24.0814
25.9202
26.7129
26.3575
24.9464
22.8155
16.2939
19.4922
16.1239
17.901
29.9372
45.4918
51.9903
56.7114
59.7
62.2453
64.1592
65.7293
67.1664
68.4067
69.487
70.4848
71.3785
72.2226
73.0191
73.7526
74.4539
75.1967
75.922
76.4255
76.6953
21.9201
26.9247
29.6443
31.6438
32.8132
33.0007
32.0438
29.689
24.3014
21.345
13.2169
22.4502
32.6839
45.2107
51.1806
56.0927
59.0578
61.4915
63.4422
64.8945
66.1487
67.2673
68.2411
69.0989
69.8882
70.6187
71.3154
71.9705
72.5978
73.3228
73.7582
73.9522
22.8219
27.9036
30.8209
33.1582
34.8693
35.9215
36.2447
35.6269
33.4771
28.4657
22.1051
21.7754
11.9073
33.7439
45.8388
50.7127
55.2688
58.1394
60.249
62.1283
63.6078
64.7479
65.7282
66.4904
67.1683
67.7741
68.2477
68.7404
69.2099
69.8205
70.1741
70.2957
22.2524
27.479
30.5609
33.1307
35.1431
36.5809
37.4344
37.6741
37.1521
35.3072
31.0824
28.3905
16.4171
15.1061
31.6771
44.7683
49.4451
53.6516
56.7163
58.565
60.0255
61.2384
62.1938
62.8929
63.485
63.9599
64.4134
64.7199
65.1695
65.862
66.0135
66.0261
20.8196
26.1747
29.3459
32.0477
34.2483
35.9421
37.1456
37.8917
38.215
38.0692
36.9587
33.6708
25.6482
18.2257
12.41
28.3837
42.6289
47.5394
50.8308
53.8406
55.9054
57.1629
58.1484
58.5963
58.9499
59.2066
59.109
59.3156
59.0159
59.56
59.7917
59.4218
18.8828
24.3289
27.5284
30.2849
32.5865
34.4447
35.8837
36.954
37.7271
38.2649
38.5172
37.8949
34.8242
29.1386
21.6221
18.9319
26.0834
39.2345
45.2581
47.2846
48.9555
50.3275
51.3207
51.7728
51.7992
51.6594
51.7839
51.0195
51.562
52.6312
52.3534
51.7128
16.6769
22.1055
25.2337
27.9414
30.2465
32.1853
33.799
35.1417
36.2932
37.3324
38.2752
38.9502
38.6835
35.1561
29.5225
24.5213
22.4035
21.0746
29.7938
38.2783
41.8378
43.2457
44.4204
43.6169
43.4715
42.7924
41.072
41.177
37.1456
39.3995
39.9587
34.9836
14.4356
19.7114
22.6656
25.2225
27.4336
29.3589
31.057
32.5904
34.0333
35.4655
36.9232
38.3215
39.3509
39.1749
36.0918
27.4473
24.7478
22.9238
24.962
20.0882
20.7947
21.1008
25.2995
25.5742
20.1801
16.4151
15.3391
33.8392
34.4172
21.7609
43.921
37.8183
12.4423
17.4415
20.1438
22.4747
24.519
26.3557
28.0548
29.6828
31.3063
32.9902
34.781
36.6433
38.3919
39.5988
39.5314
36.4897
29.0645
27.4286
28.1995
19.4316
28.6817
22.1942
14.2707
30.4147
16.6385
32.7629
22.9347
34.3211
16.1868
29.675
41.7813
29.9846
10.8919
15.5398
17.9707
20.0552
21.9072
23.6185
25.2632
26.9027
28.5907
30.3757
32.304
34.3887
36.55
38.531
39.8548
39.8187
36.8327
30.8279
26.9348
30.2942
18.9861
18.065
25.3057
34.0146
30.9901
30.0715
34.9149
36.0031
33.8051
39.0752
29.8554
37.6159
9.74627
14.1455
16.3449
18.2214
19.9108
21.5083
23.0813
24.6772
26.3333
28.0851
29.9738
32.0405
34.2934
36.6281
38.7358
40.0921
39.9789
38.2148
34.2326
31.8262
29.3168
30.2361
29.1517
32.1542
34.7493
37.2102
38.0243
39.0093
42.342
37.6246
40.0713
41.831
9.13486
13.3403
15.3773
17.1193
18.7107
20.2371
21.7489
23.275
24.8375
26.4634
28.1912
30.0725
32.1587
34.458
36.8462
38.972
40.2485
40.446
39.1756
37.9657
38.0695
39.1056
37.9069
40.1926
41.589
42.6883
43.1316
40.9483
44.9724
41.6204
43.8793
44.5497
8.95621
13.0721
15.0378
16.7316
18.2957
19.7995
21.2732
22.7295
24.1799
25.6467
27.1659
28.7877
30.5732
32.5811
34.8182
37.1434
39.1671
40.4719
40.6564
40.5679
40.9131
41.7373
41.1514
42.6171
43.0186
43.3646
43.7193
41.41
44.4369
42.7733
43.8999
44.4272
9.13444
13.2408
15.2097
16.9251
18.5172
20.0368
21.4969
22.8998
24.2531
25.5764
26.9019
28.272
29.7403
31.3713
33.2256
35.3051
37.4481
39.3244
40.4778
41.1405
41.59
42.1655
41.8975
42.7898
42.8591
42.7477
43.0164
40.9833
43.0449
42.4364
42.7268
43.4847
9.57125
13.7205
15.7413
17.5245
19.181
20.7442
22.2155
23.5913
24.8779
26.095
27.2714
28.4419
29.6474
30.9395
32.381
34.0263
35.8618
37.7396
39.3224
40.5026
41.2136
41.7251
41.63
41.9721
41.7504
41.342
41.4066
39.8838
41.0839
41.0252
40.8972
41.8264
10.2103
14.4322
16.5283
18.3993
20.1353
21.7547
23.2515
24.6211
25.872
27.0247
28.1056
29.1421
30.1628
31.2031
32.3105
33.541
34.9335
36.4651
37.9698
39.2768
40.1557
40.6861
40.6688
40.6358
40.188
39.5999
39.4596
38.4167
39.0864
39.2664
39.0937
40.055
10.9977
15.3199
17.5034
19.4684
21.2852
22.9617
24.4889
25.8648
27.102
28.2236
29.2545
30.2164
31.127
32.0066
32.8851
33.8042
34.8072
35.9173
37.083
38.1936
39.026
39.5207
39.5213
39.2767
38.7023
38.036
37.7348
37.0825
37.4813
37.7831
37.7738
38.6715
11.8425
16.3338
18.6131
20.6717
22.5656
24.2961
25.8549
27.2447
28.4838
29.5981
30.6117
31.5422
32.3993
33.1923
33.9367
34.6564
35.3834
36.1466
36.9435
37.7258
38.345
38.7037
38.6551
38.2975
37.6689
36.9841
36.5884
36.2051
36.505
36.9028
37.1205
37.9244
12.8279
17.4418
19.8151
21.9643
23.9308
25.7121
27.3028
28.7119
29.9634
31.0864
32.1042
33.0311
33.8718
34.6286
35.3069
35.9176
36.4771
37.0055
37.5132
37.9853
38.3406
38.5006
38.3472
37.9095
37.2542
36.5745
36.1372
35.9233
36.2115
36.6966
37.1249
37.8451
13.5731
13.9915
14.4757
14.8649
15.2419
15.5421
15.8038
16.0066
16.1696
16.2845
16.3625
16.4017
16.4064
16.3777
16.3197
16.235
16.1257
15.9969
15.8597
15.7435
15.7409
15.8561
15.9944
16.1248
16.2359
16.3224
16.3821
16.4124
16.4091
16.371
16.2941
16.18
16.0176
15.815
15.5533
15.253
14.8751
14.4839
13.9974
13.5748
18.31
18.7449
19.2492
19.6566
20.0517
20.373
20.6573
20.8845
21.073
21.2151
21.3207
21.3885
21.4212
21.4189
21.3841
21.3183
21.2227
21.1011
20.9637
20.8421
20.8395
20.9605
21.0994
21.223
21.3207
21.3885
21.4252
21.4291
21.3976
21.3309
21.2261
21.0844
20.8963
20.669
20.3845
20.0626
19.6666
19.2571
18.7505
18.3114
20.7577
21.2181
21.7523
22.1852
22.6085
22.96
23.2785
23.5428
23.7712
23.9563
24.1064
24.2203
24.3
24.3438
24.3523
24.326
24.2653
24.1724
24.0566
23.948
23.9458
24.0544
24.1723
24.2676
24.3309
24.3594
24.353
24.3107
24.2324
24.1193
23.9699
23.785
23.5566
23.292
22.9731
22.6208
22.1964
21.7613
21.2247
20.7602
22.9635
23.4433
24.0002
24.4526
24.9001
25.2785
25.6286
25.9282
26.1954
26.4231
26.6173
26.777
26.9034
26.9939
27.047
27.0619
27.0384
26.978
26.8898
26.8034
26.8019
26.8889
26.9797
27.043
27.0694
27.057
27.0061
26.9175
26.7924
26.6335
26.4398
26.2122
25.9448
25.6447
25.2939
24.9142
24.4655
24.0109
23.4516
22.9679
24.9662
25.4502
26.0148
26.4734
26.9324
27.3259
27.6958
28.0196
28.3146
28.5746
28.8046
29.0019
29.1668
29.2957
29.3863
29.4365
29.4452
29.4139
29.3518
29.288
29.2874
29.3523
29.4172
29.4517
29.4462
29.3988
29.3107
29.1837
29.0201
28.8238
28.5942
28.3341
28.0388
27.7142
27.3433
26.9485
26.488
26.0271
25.4602
24.9725
26.7651
27.2372
27.7955
28.2484
28.7075
29.1059
29.4863
29.8271
30.1445
30.4312
30.6911
30.9205
31.1181
31.2799
31.4027
31.4831
31.5196
31.5134
31.4738
31.4282
31.428
31.4753
31.518
31.5277
31.4947
31.4173
31.2971
31.1374
30.9412
30.7127
30.4532
30.1664
29.8483
29.5066
29.1251
28.7252
28.2644
27.8092
27.2486
26.7731
28.3603
28.8094
29.3539
29.7956
30.2504
30.6512
31.0416
31.3988
31.7373
32.0488
32.3361
32.5944
32.8216
33.0129
33.164
33.2709
33.3313
33.3462
33.3245
33.2918
33.2921
33.3268
33.3519
33.3408
33.284
33.1804
33.032
32.843
32.6172
32.3599
32.0729
31.7612
31.4221
31.0638
30.672
30.2694
29.8128
29.3689
28.8222
28.3701
29.7678
30.19
30.7205
31.1522
31.6053
32.0129
32.4151
32.7897
33.1488
33.484
33.7967
34.0816
34.3353
34.5526
34.7285
34.8583
34.9389
34.9707
34.9624
34.9382
34.9387
34.9654
34.9773
34.9494
34.8727
34.7463
34.5734
34.3583
34.106
33.8222
33.5099
33.1744
32.8146
32.4389
32.0352
31.6258
31.1706
30.7367
30.2043
29.7795
31.0168
31.4139
31.934
32.361
32.8174
33.234
33.649
34.0407
34.4192
34.7759
35.1113
35.4195
35.6964
35.9361
36.133
36.2817
36.3786
36.4237
36.4248
36.4058
36.4065
36.4282
36.4309
36.3901
36.2973
36.1522
35.9583
35.7208
35.4457
35.1384
34.8034
34.4464
34.0673
33.6745
33.2579
32.8394
32.3812
31.952
31.4301
31.0309
32.1381
32.5133
33.0272
33.4536
33.9144
34.3407
34.768
35.175
35.5704
35.946
36.3007
36.6286
36.925
37.1832
37.3972
37.561
37.6706
37.7254
37.7329
37.7168
37.7176
37.7366
37.7331
37.6828
37.5774
37.4173
37.2064
36.9506
36.656
36.3291
35.9748
35.5992
35.2031
34.7949
34.3663
33.9382
33.4758
33.0473
32.532
32.1554
33.153
33.5081
34.018
34.4447
34.9098
35.3447
35.7826
36.2028
36.6126
37.0037
37.3744
37.7185
38.0305
38.3035
38.531
38.7066
38.8258
38.8877
38.8997
38.8851
38.886
38.9036
38.8958
38.8384
38.7235
38.5516
38.3274
38.0569
37.7468
37.4038
37.0337
36.6424
36.2321
35.811
35.3719
34.9355
34.469
34.0409
33.5301
33.1746
34.0726
34.4067
34.912
35.3381
35.8069
36.2489
36.6957
37.127
37.5487
37.9525
38.3363
38.6932
39.0176
39.3023
39.5404
39.7252
39.8521
39.9199
39.9359
39.9233
39.9242
39.9398
39.9282
39.8649
39.7425
39.5615
39.3267
39.0447
38.7221
38.3663
37.9832
37.5794
37.1574
36.7254
36.2776
35.8345
35.365
34.9381
34.4328
34.0996
34.8981
35.2091
35.7081
36.1328
36.6042
37.0524
37.5069
37.9476
38.3792
38.7936
39.1878
39.5552
39.8895
40.1834
40.4298
40.6221
40.7555
40.8291
40.85
40.8409
40.842
40.8541
40.8375
40.7685
40.6395
40.4511
40.2079
39.9167
39.5843
39.2183
38.8247
38.4105
37.9787
37.5377
37.0826
36.634
36.1624
35.7378
35.2401
34.9319
35.6281
35.9122
36.4026
36.8251
37.2987
37.7524
38.2139
38.6628
39.1033
39.5267
39.9298
40.3055
40.6476
40.9489
41.202
41.4006
41.5401
41.6197
41.647
41.6434
41.6446
41.6514
41.6282
41.553
41.4178
41.2231
40.9731
40.6745
40.3343
39.9599
39.5577
39.1347
38.6945
38.2454
37.784
37.3303
36.8576
36.4365
35.9492
35.6702
36.2618
36.5128
36.9911
37.4105
37.8857
38.3452
38.8135
39.2706
39.7192
40.1506
40.5614
40.9444
41.2931
41.6003
41.8592
42.0634
42.2088
42.2953
42.3304
42.3337
42.3349
42.3349
42.3039
42.2216
42.0802
41.8797
41.624
41.3193
40.9725
40.5909
40.1812
39.7502
39.3022
38.8455
38.3778
37.9194
37.4463
37.0301
36.557
36.3144
36.799
37.0062
37.4686
37.8833
38.3599
38.8252
39.3008
39.7662
40.223
40.6624
41.0803
41.4698
41.8244
42.137
42.4009
42.6104
42.7618
42.8557
42.8992
42.9094
42.9109
42.9038
42.8641
42.7743
42.6267
42.4206
42.1596
41.8494
41.4968
41.1087
40.6918
40.2532
39.7973
39.3328
38.8587
38.3956
37.9229
37.5137
37.0605
36.8658
37.2448
37.3905
37.8284
38.2362
38.7131
39.1846
39.668
40.1423
40.6078
41.0553
41.4805
41.8764
42.2365
42.5541
42.8228
43.0375
43.1949
43.2959
43.3476
43.3644
43.3658
43.3523
43.3042
43.2067
43.0528
42.8414
42.5752
42.2599
41.9015
41.5071
41.0831
40.6366
40.1724
39.6996
39.2187
38.7509
38.2799
37.8814
37.4567
37.3291
37.6063
37.6628
38.0614
38.4591
38.9347
39.4125
39.9041
40.3882
40.8628
41.3191
41.7518
42.1542
42.52
42.8425
43.1161
43.3357
43.4989
43.6068
43.6659
43.6881
43.6896
43.6704
43.6146
43.51
43.3498
43.1329
42.8617
42.5411
42.1769
41.7759
41.3443
40.8894
40.4164
39.9347
39.4468
38.9744
38.5073
38.123
37.7427
37.7111
37.8914
37.8247
38.1609
38.5386
39.0116
39.4951
39.9953
40.4895
40.9742
41.4397
41.8806
42.2901
42.6618
42.9895
43.2678
43.4924
43.6611
43.7753
43.8406
43.8673
43.8686
43.8448
43.7823
43.671
43.5048
43.2826
43.0061
42.6799
42.3095
41.9014
41.4617
40.9975
40.515
40.0239
39.5288
39.0529
38.592
38.2319
37.9196
38.0191
38.0974
37.875
38.1235
38.4667
38.9304
39.4188
39.9272
40.4319
40.9269
41.4023
41.8518
42.2687
42.6467
42.98
43.2632
43.4927
43.6665
43.7861
43.8566
43.8868
43.888
43.8602
43.7921
43.6748
43.5029
43.2752
42.9932
42.6611
42.284
41.868
41.4195
40.9457
40.4533
39.9527
39.4507
38.9725
38.5241
38.2033
37.9858
38.2504
38.1899
37.8014
37.945
38.2392
38.6852
39.1759
39.6906
40.2048
40.7095
41.1945
41.6526
42.0771
42.4615
42.8003
43.0885
43.3226
43.5009
43.625
43.6997
43.7325
43.7335
43.7027
43.6298
43.5072
43.3301
43.0971
42.8095
42.4711
42.087
41.663
41.2056
40.722
40.22
39.7102
39.2031
38.7243
38.2968
38.0301
37.9256
38.367
38.1209
37.5803
37.6183
37.8557
38.2755
38.7628
39.2839
39.8062
40.3196
40.813
41.2789
41.71
42.1003
42.444
42.7365
42.9744
43.1564
43.2838
43.3614
43.3959
43.3966
43.3634
43.2868
43.1601
42.9785
42.7406
42.4479
42.1037
41.7129
41.2814
40.8157
40.3233
39.8124
39.2947
38.7816
38.3079
37.9102
37.7068
37.7178
38.3234
37.8529
37.1983
37.1511
37.336
37.728
38.2066
38.7293
39.2554
39.774
40.2725
40.7433
41.1788
41.5727
41.9196
42.2147
42.4547
42.6386
42.7677
42.8465
42.8817
42.882
42.8472
42.7686
42.6391
42.4545
42.2133
41.9167
41.5681
41.1723
40.7352
40.2631
39.7643
39.2467
38.7232
38.2074
37.7423
37.3742
37.2262
37.3253
38.0442
37.3783
36.6661
36.5704
36.7171
37.0837
37.5487
38.0668
38.5937
39.1127
39.6121
40.0834
40.5192
40.9133
41.2599
41.5546
41.7939
41.9769
42.105
42.1828
42.2173
42.2172
42.1821
42.1032
41.9736
41.7884
41.5463
41.2485
40.8983
40.5005
40.0608
39.5861
39.0838
38.5629
38.0352
37.5205
37.0665
36.7224
36.6124
36.7611
37.5389
36.7319
36.0251
35.9273
36.0621
36.4161
36.8696
37.3794
37.9006
38.4138
38.9076
39.3734
39.8038
40.1925
40.5339
40.8234
41.0578
41.2358
41.359
41.4327
41.4645
41.4637
41.4301
41.354
41.2274
41.0452
40.8059
40.5107
40.1629
39.7671
39.3293
38.8559
38.3547
37.8347
37.3066
36.795
36.3489
36.0175
35.9231
36.0842
36.8719
36.2162
35.504
35.3987
35.5165
35.8506
36.2833
36.7741
37.2788
37.7774
38.258
38.7115
39.1305
39.5082
39.8392
40.1186
40.3432
40.5115
40.6257
40.6912
40.7177
40.7164
40.6868
40.6173
40.4983
40.3237
40.0919
39.8041
39.4635
39.075
38.6442
38.178
37.6836
37.1704
36.6493
36.1456
35.7084
35.3839
35.2923
35.4435
36.2123
35.8348
35.169
35.0874
35.2035
35.5226
35.9315
36.3958
36.8738
37.3483
37.8062
38.2386
38.6375
38.9966
39.31
39.5728
39.7815
39.9348
40.0343
40.0864
40.104
40.102
40.0799
40.0218
39.9152
39.7531
39.5336
39.2582
38.9302
38.5543
38.1362
37.6825
37.2008
36.7003
36.1926
35.7016
35.2749
34.9569
34.8659
35.0096
35.7697
36.1296
35.395
35.2391
35.282
35.5377
35.892
36.3104
36.7493
37.1913
37.621
38.0281
38.4039
38.7414
39.0345
39.2782
39.4689
39.6044
39.686
39.7208
39.7252
39.7225
39.7123
39.6709
39.5813
39.436
39.2336
38.9758
38.6661
38.3095
37.9117
37.4796
37.0213
36.5465
36.0683
35.6066
35.2063
34.9066
34.8225
34.9462
35.6592
36.6622
35.9057
35.7139
35.7114
35.9229
36.2322
36.6072
37.0061
37.4111
37.8058
38.1798
38.5245
38.8329
39.0992
39.3183
39.4861
39.6002
39.6612
39.6758
39.6641
39.6616
39.6673
39.645
39.5741
39.4477
39.2648
39.0276
38.7399
38.4065
38.0334
37.6273
37.1967
36.7512
36.3058
35.8759
35.5019
35.2198
35.1438
35.2618
35.9625
36.5238
36.0091
36.0029
36.1248
36.4124
36.7598
37.1469
37.5421
37.9336
38.3087
38.6597
38.9796
39.2625
39.5033
39.6976
39.8415
39.9327
39.971
39.9623
39.9278
39.916
39.9292
39.9176
39.8582
39.7444
39.576
39.3554
39.0864
38.7737
38.4235
38.0422
37.6385
37.2222
36.808
36.4122
36.0688
35.8075
35.7394
35.8445
36.5127
37.0192
36.5263
36.5397
36.668
36.951
37.2857
37.6589
38.0401
38.418
38.78
39.118
39.4253
39.696
39.9253
40.1087
40.2426
40.3247
40.3549
40.3389
40.2998
40.296
40.3245
40.3273
40.2824
40.1846
40.0341
39.8335
39.5867
39.2984
38.9742
38.6209
38.2462
37.8597
37.4753
37.1076
36.7887
36.5375
36.4594
36.5172
37.0958
37.7582
37.1987
37.1536
37.2263
37.4628
37.7611
38.1065
38.4664
38.8272
39.1752
39.5014
39.7984
40.0602
40.2814
40.4576
40.5851
40.6614
40.6865
40.6659
40.6228
40.6171
40.6471
40.6529
40.6122
40.5194
40.3749
40.1812
39.9422
39.6624
39.3477
39.0046
38.6413
38.2677
37.8987
37.5498
37.2557
37.0346
36.9935
37.097
37.7434
43.49
51.3084
57.5358
63.6615
68.9502
73.2404
76.6782
79.4571
81.7325
83.6388
85.2953
86.7787
88.1262
89.372
90.5469
91.6816
92.8067
93.9505
95.1365
96.3819
97.6964
99.0823
100.537
102.052
103.62
105.225
106.852
108.476
110.061
111.526
112.74
113.449
42.7739
50.3086
56.3372
62.3231
67.5388
71.7944
75.2145
77.9856
80.2607
82.1729
83.8375
85.3243
86.6634
87.8955
89.0526
90.1663
91.268
92.3868
93.5472
94.7656
96.0513
97.4073
98.8302
100.313
101.845
103.414
105.004
106.591
108.138
109.567
110.75
111.439
41.9887
49.2741
55.1147
60.9602
66.102
70.3254
73.7333
76.5047
78.7902
80.7189
82.3981
83.8909
85.2268
86.4483
87.5891
88.6831
89.763
90.8585
91.993
93.1844
94.4423
95.7687
97.1608
98.6108
100.109
101.643
103.196
104.744
106.254
107.646
108.8
109.469
41.1716
48.2228
53.8764
59.5789
64.6471
68.8435
72.2469
75.0273
77.3325
79.2851
80.9829
82.4839
83.821
85.0331
86.1611
87.2383
88.2983
89.3711
90.4827
91.6493
92.88
94.1778
95.5393
96.957
98.4215
99.9201
101.437
102.948
104.422
105.777
106.9
107.55
40.3128
47.1402
52.6045
58.1593
63.154
67.3297
70.7385
73.539
75.8741
77.8588
79.5816
81.0973
82.4411
83.6522
84.7708
85.8333
86.8755
87.9292
89.0177
90.1595
91.3648
92.6353
93.968
95.3558
96.788
98.2517
99.7337
101.207
102.645
103.965
105.059
105.689
39.4357
46.042
51.3107
56.7114
61.6336
65.7972
69.2234
72.0548
74.4278
76.4492
78.1992
79.7315
81.0859
82.2994
83.4121
84.4645
85.4924
86.5272
87.5968
88.7178
89.8987
91.1431
92.4473
93.8043
95.2039
96.6351
98.0814
99.5206
100.923
102.206
103.271
103.882
38.511
44.9014
49.9677
55.2064
60.0548
64.2137
67.6685
70.5419
72.9614
75.0263
76.8124
78.3723
79.7445
80.9707
82.0864
83.1327
84.149
85.1709
86.2214
87.3202
88.4789
89.6986
90.9765
92.3056
93.6756
95.0727
96.4862
97.8888
99.2562
100.506
101.543
102.134
37.5685
43.7389
48.5907
53.6546
58.4254
62.5886
66.0891
69.0212
71.4998
73.617
75.4422
77.0284
78.4229
79.6619
80.7852
81.831
82.8418
83.8503
84.8873
85.9707
87.1084
88.3047
89.5562
90.8559
92.1947
93.5615
94.9404
96.3099
97.6437
98.8567
99.865
100.437
36.5476
42.5023
47.1301
52.0071
56.6964
60.8716
64.4305
67.4319
69.978
72.1548
74.0328
75.6674
77.0958
78.3631
79.5035
80.5588
81.5678
82.5727
83.5966
84.661
85.7799
86.9546
88.1825
89.4566
90.7672
92.1007
93.4482
94.7817
96.0819
97.2631
98.2435
98.7958
35.497
41.2251
45.612
50.2768
54.8663
59.0559
62.6971
65.8024
68.446
70.706
72.6461
74.3184
75.783
77.0743
78.2348
79.301
80.3182
81.3195
82.3372
83.3936
84.496
85.6502
86.8535
88.0994
89.3798
90.6843
91.9975
93.2983
94.5651
95.7077
96.6602
97.1925
34.2896
39.8053
43.9447
48.3848
52.87
57.0845
60.8227
64.0377
66.7841
69.1313
71.1494
72.9056
74.4301
75.774
76.9686
78.0601
79.0868
80.0963
81.1097
82.1516
83.2395
84.3754
85.5571
86.7788
88.0313
89.3018
90.5837
91.8482
93.0829
94.1938
95.119
95.6301
33.0095
38.3114
42.1779
46.3458
50.6739
54.8881
58.7516
62.1521
65.0737
67.5698
69.7007
71.5128
73.091
74.47
75.7009
76.8164
77.8662
78.8805
79.8964
80.9398
82.0167
83.1352
84.2944
85.4887
86.7112
87.9525
89.2004
90.4323
91.6339
92.7039
93.5993
94.0889
31.4602
36.564
40.1469
44.0281
48.2008
52.4416
56.453
60.0228
63.1169
65.7563
68.006
69.9639
71.6462
73.1191
74.4095
75.5729
76.6456
77.6827
78.7046
79.7374
80.8045
81.9088
83.0488
84.2202
85.4152
86.6234
87.8388
89.0345
90.2043
91.2427
92.1111
92.5783
29.7687
34.684
37.9593
41.4721
45.3589
49.5102
53.6723
57.5825
61.0013
63.9219
66.3983
68.4526
70.2234
71.7461
73.0953
74.2993
75.4164
76.4702
77.505
78.552
79.6154
80.7054
81.8252
82.97
84.1353
85.3124
86.4933
87.6562
88.7926
89.7842
90.6207
91.0632
27.543
32.2932
35.2379
38.3524
41.977
46.1453
50.5317
54.6577
58.4118
61.6214
64.3028
66.6287
68.5791
70.2678
71.7159
73.003
74.1601
75.2563
76.3117
77.3526
78.4109
79.4927
80.5954
81.718
82.8551
83.9994
85.147
86.2723
87.3766
88.3362
89.1451
89.564
24.9617
29.6337
32.298
34.95
38.0272
41.7595
46.148
51.0358
55.3807
59.1372
62.3049
64.8146
66.9481
68.7255
70.2798
71.6312
72.8647
73.9956
75.0775
76.1507
77.2158
78.2857
79.3704
80.4668
81.5732
82.6828
83.794
84.8843
85.955
86.856
87.63
88.0175
21.0637
25.7517
28.0047
29.9843
32.5462
36.4692
41.5644
46.1361
51.2951
55.7509
59.3545
62.4687
64.9218
66.9958
68.7053
70.2015
71.5026
72.7033
73.827
74.8984
75.9632
77.0332
78.1033
79.177
80.2536
81.3297
82.4047
83.4555
84.492
85.3631
86.1051
86.4691
15.9035
21.1185
23.6393
25.5042
27.0243
29.1388
31.9575
40.0413
45.9077
51.6152
56.4103
59.8457
62.7695
65.059
67.01
68.6188
70.0483
71.313
72.4828
73.6141
74.7021
75.7612
76.8148
77.8613
78.9038
79.9385
80.9727
81.9841
82.9868
83.7773
84.4804
84.8017
5.52653
10.7337
11.9224
12.3751
13.3671
14.7767
17.4964
23.9262
38.0507
45.4298
51.2367
56.4777
59.9957
62.8474
65.0267
66.9002
68.4568
69.8407
71.0867
72.2206
73.3118
74.3841
75.425
76.4473
77.4564
78.4552
79.4477
80.4169
81.3805
82.1428
82.8075
83.1027
6.28225
8.98535
9.04697
6.40506
9.93666
17.9573
17.5724
22.2181
19.9141
36.6121
46.2821
51.4652
56.4792
59.9563
62.7886
64.8973
66.6791
68.1764
69.5027
70.7438
71.8859
72.9472
73.972
74.9624
75.9296
76.8741
77.818
78.739
79.6692
80.313
80.9284
81.1644
10.6917
15.2927
16.3991
16.2311
15.5566
15.9778
20.0841
22.9499
20.549
15.8098
31.7406
46.0485
51.994
56.7379
59.8806
62.538
64.5968
66.3322
67.8018
69.0519
70.2009
71.2938
72.3092
73.271
74.1979
75.1017
75.9907
76.865
77.747
78.3576
78.9314
79.1312
19.783
24.2132
26.1253
26.9521
26.5484
24.9915
22.2557
23.2183
18.3426
14.0884
21.3988
31.7929
44.7638
51.3041
56.4654
59.6627
62.1713
64.1023
65.7238
67.1747
68.4268
69.5132
70.5068
71.426
72.2926
73.1144
73.941
74.7528
75.6017
76.0289
76.5185
76.6331
21.7987
26.7907
29.5033
31.5176
32.722
32.9454
31.9455
28.9952
23.3434
21.7053
15.8944
1.81014
33.6212
45.9
51.1319
55.7931
58.9583
61.4708
63.389
64.8627
66.1298
67.2735
68.2681
69.1445
69.9595
70.7287
71.471
72.2271
73.0147
73.3737
73.8504
73.8947
22.6533
27.7314
30.6448
32.9892
34.7257
35.8292
36.2404
35.7775
33.9345
29.089
21.0657
15.9826
13.2044
29.9701
45.054
50.8706
55.2056
58.0117
60.2502
62.1476
63.6264
64.7867
65.7335
66.5434
67.2479
67.8745
68.5182
69.195
69.9454
69.9878
70.2566
70.1691
22.0809
27.2987
30.3738
32.9484
34.9851
36.478
37.4374
37.8718
37.7208
36.5696
33.1401
26.6743
29.5359
30.6587
32.1219
43.3418
48.9912
53.633
56.5603
58.466
59.9798
61.2333
62.2147
62.9323
63.5719
64.1007
64.5955
65.2301
65.894
65.7381
66.1935
65.9185
20.6535
26.0017
29.168
31.8731
34.0905
35.8204
37.0898
37.9474
38.4459
38.5583
37.8783
34.8539
28.1698
29.7664
35.1077
32.4031
42.8714
47.1702
50.9087
53.9424
55.912
57.2682
58.0936
58.6778
59.0493
59.3036
59.563
60.0914
60.7123
59.9656
59.6142
59.1013
18.7372
24.1763
27.3694
30.1237
32.431
34.3067
35.7805
36.9113
37.7789
38.4413
38.8096
38.2872
34.9887
26.9086
28.6944
5.70677
24.5436
39.2885
44.6933
46.912
48.9543
50.3616
51.3845
51.7221
51.968
51.934
51.8427
53.2
53.208
52.0758
53.1774
51.8519
16.542
21.9591
25.0762
27.7739
30.0725
32.0104
33.6313
34.9928
36.1768
37.2601
38.2491
38.9407
38.6089
35.1017
28.7836
26.9413
26.0127
18.8881
29.507
38.437
41.7758
43.7011
44.1957
43.5376
43.6521
42.748
41.5389
41.0159
43.0934
41.8741
36.5413
34.4631
14.3194
19.5771
22.515
25.0561
27.2537
29.1691
30.8619
32.3955
33.8434
35.2811
36.7347
38.1072
39.0795
38.8762
35.6882
26.505
18.6441
12.0365
29.4019
20.6977
21.77
25.1665
24.5134
29.0015
20.7398
31.8721
11.4452
43.1771
26.4697
45.0412
30.1055
24.6507
12.3609
17.3393
20.0231
22.3358
24.3642
26.1884
27.8792
29.5026
31.1236
32.804
34.5854
36.4251
38.1339
39.3082
39.2488
36.6044
28.1516
23.4493
33.2849
15.4763
25.5251
6.6439
26.6579
37.3352
25.9455
42.4773
14.2544
43.054
31.2908
46.3161
36.5875
33.0792
10.8452
15.4781
17.8933
19.9619
21.8
23.5006
25.1382
26.7736
28.459
30.2406
32.1626
34.2353
36.3796
38.3475
39.7032
39.8922
37.5641
31.353
31.7861
22.6133
27.2927
23.6603
29.595
34.272
31.719
38.8117
29.9681
37.0959
36.2732
43.8966
30.9765
33.1444
9.73227
14.1226
16.3107
18.1758
19.8554
21.4454
23.0128
24.6049
26.2585
28.0085
29.8958
31.9611
34.2128
36.5515
38.69
40.1717
40.4177
38.7018
34.3729
31.713
29.213
28.5752
28.9475
32.424
34.9556
36.7395
40.9403
36.3365
32.9513
38.3532
40.5109
40.7577
9.14439
13.3472
15.3776
17.1125
18.6975
20.2183
21.7249
23.2462
24.8042
26.4268
28.1533
30.0363
32.1281
34.4381
36.8525
39.0501
40.5311
40.8308
39.7837
38.9754
37.5693
36.918
38.468
40.9268
41.89
43.029
45.1853
42.8231
40.0937
42.9046
44.1925
43.3426
8.97943
13.0967
15.059
16.7482
18.3076
19.8063
21.2745
22.7248
24.169
25.6302
27.1454
28.7655
30.5528
32.5671
34.8192
37.1809
39.309
40.7099
41.1418
41.1022
40.4231
40.3801
41.6422
42.9148
43.2974
43.9032
45.0882
43.6828
41.8507
43.1742
44.4352
43.5279
9.16246
13.2717
15.2388
16.951
18.5391
20.0538
21.5082
22.9046
24.2507
25.5668
26.8853
28.2491
29.7123
31.3399
33.1939
35.2802
37.4605
39.3887
40.6907
41.3194
41.1535
41.3451
42.2265
42.8897
42.9657
43.2489
43.7475
42.8411
41.7231
41.98
43.1881
42.6998