/*--------------------------------*- C++ -*----------------------------------*\
  =========                 |
  \\      /  F ield         | OpenFOAM: The Open Source CFD Toolbox
   \\    /   O peration     | Website:  https://openfoam.org
    \\  /    A nd           | Version:  6
     \\/     M anipulation  |
\*---------------------------------------------------------------------------*/
FoamFile
{
    version     2.0;
    format      ascii;
    class       volScalarField;
    location    "80";
    object      p;
}
// * * * * * * * * * * * * * * * * * * * * * * * * * * * * * * * * * * * * * //

dimensions      [0 2 -2 0 0 0 0];

internalField   nonuniform List<scalar> 
2160
(
-4.54344e-15
-1.89397e-08
-5.00449e-09
2.86514e-10
-1.86226e-08
-5.61495e-09
1.29061e-10
-1.85705e-08
-5.50727e-09
-2.53485e-09
-1.51062e-08
-6.31316e-09
-6.26507e-09
-1.01101e-08
-7.57534e-09
-9.41034e-09
-5.62395e-09
-8.91789e-09
-1.21037e-08
-2.16764e-09
-9.68292e-09
-1.38959e-08
-6.46331e-10
-9.41491e-09
-1.53035e-08
6.93817e-10
-9.34668e-09
-1.56283e-08
5.48856e-10
-8.88071e-09
-1.52634e-08
-2.05095e-10
-8.49676e-09
-1.4252e-08
-3.25209e-10
-9.38944e-09
-1.39859e-08
1.74081e-09
-1.17226e-08
-1.36764e-08
9.96236e-09
-2.02531e-08
-1.64321e-08
1.94062e-08
-2.69423e-08
-1.64876e-08
1.94723e-08
-2.69527e-08
-1.36634e-08
1.00269e-08
-2.03332e-08
-1.39921e-08
1.84682e-09
-1.18252e-08
-1.43404e-08
-1.86369e-10
-9.44344e-09
-1.52099e-08
-4.89716e-11
-8.70978e-09
-1.55947e-08
7.34354e-10
-9.11062e-09
-1.53152e-08
8.32125e-10
-9.48644e-09
-1.38219e-08
-4.63762e-10
-9.68364e-09
-1.20663e-08
-1.9945e-09
-9.90864e-09
-9.32589e-09
-5.53495e-09
-9.10782e-09
-6.05974e-09
-1.0139e-08
-7.77038e-09
-2.32801e-09
-1.51287e-08
-6.51609e-09
2.47259e-10
-1.85857e-08
-5.6296e-09
3.91864e-10
-1.86391e-08
-5.72705e-09
9.95843e-11
-1.89646e-08
-5.1075e-09
-1.69115e-12
-1.89368e-08
-5.00593e-09
2.70536e-10
-1.86187e-08
-5.60287e-09
1.11474e-10
-1.85562e-08
-5.50398e-09
-2.54731e-09
-1.50979e-08
-6.30911e-09
-6.26425e-09
-1.01125e-08
-7.57379e-09
-9.40564e-09
-5.63146e-09
-8.91514e-09
-1.20953e-08
-2.17532e-09
-9.68368e-09
-1.38884e-08
-6.50747e-10
-9.41796e-09
-1.52992e-08
6.93244e-10
-9.35049e-09
-1.56284e-08
5.53197e-10
-8.88511e-09
-1.52682e-08
-2.0032e-10
-8.49699e-09
-1.42627e-08
-3.26057e-10
-9.37786e-09
-1.39874e-08
1.71311e-09
-1.16935e-08
-1.36081e-08
9.87322e-09
-2.02314e-08
-1.63529e-08
1.92972e-08
-2.6911e-08
-1.64082e-08
1.93633e-08
-2.69216e-08
-1.35952e-08
9.93815e-09
-2.03117e-08
-1.39936e-08
1.81956e-09
-1.17965e-08
-1.43507e-08
-1.86781e-10
-9.43274e-09
-1.52145e-08
-4.42194e-11
-8.71013e-09
-1.55946e-08
7.38522e-10
-9.11495e-09
-1.53109e-08
8.31436e-10
-9.49016e-09
-1.38153e-08
-4.68265e-10
-9.68577e-09
-1.2058e-08
-2.00213e-09
-9.9093e-09
-9.32194e-09
-5.54292e-09
-9.10387e-09
-6.06171e-09
-1.01412e-08
-7.76627e-09
-2.3409e-09
-1.51204e-08
-6.51159e-09
2.29389e-10
-1.85716e-08
-5.62589e-09
3.75549e-10
-1.86354e-08
-5.71447e-09
9.80596e-11
-1.89616e-08
-5.10896e-09
-4.43287e-12
-1.8934e-08
-5.00626e-09
2.46575e-10
-1.86419e-08
-5.55571e-09
8.30245e-11
-1.85644e-08
-5.46741e-09
-2.56688e-09
-1.51073e-08
-6.2802e-09
-6.26519e-09
-1.01287e-08
-7.55672e-09
-9.39951e-09
-5.64587e-09
-8.90687e-09
-1.20815e-08
-2.18342e-09
-9.6893e-09
-1.38741e-08
-6.50951e-10
-9.43198e-09
-1.52838e-08
6.98944e-10
-9.37148e-09
-1.56189e-08
5.61533e-10
-8.9028e-09
-1.52573e-08
-1.97885e-10
-8.50998e-09
-1.42648e-08
-3.31851e-10
-9.36991e-09
-1.39843e-08
1.68233e-09
-1.16658e-08
-1.35705e-08
9.81947e-09
-2.02158e-08
-1.63473e-08
1.9262e-08
-2.68825e-08
-1.64027e-08
1.93281e-08
-2.68931e-08
-1.35578e-08
9.88506e-09
-2.02965e-08
-1.39905e-08
1.78933e-09
-1.17693e-08
-1.43522e-08
-1.92205e-10
-9.42576e-09
-1.52041e-08
-4.17931e-11
-8.72275e-09
-1.55853e-08
7.4626e-10
-9.13192e-09
-1.52959e-08
8.35567e-10
-9.50916e-09
-1.38014e-08
-4.6971e-10
-9.69809e-09
-1.20438e-08
-2.01173e-09
-9.91396e-09
-9.31777e-09
-5.55937e-09
-9.0916e-09
-6.06778e-09
-1.01575e-08
-7.74391e-09
-2.36106e-09
-1.5131e-08
-6.48085e-09
2.00625e-10
-1.85813e-08
-5.58757e-09
3.51308e-10
-1.86598e-08
-5.66585e-09
9.55967e-11
-1.89588e-08
-5.10932e-09
-7.90501e-12
-1.89336e-08
-5.00369e-09
2.2848e-10
-1.87198e-08
-5.45954e-09
5.20704e-11
-1.86312e-08
-5.36987e-09
-2.58262e-09
-1.51603e-08
-6.21133e-09
-6.26595e-09
-1.01657e-08
-7.51896e-09
-9.39757e-09
-5.65735e-09
-8.89739e-09
-1.20723e-08
-2.17293e-09
-9.7091e-09
-1.38647e-08
-6.19658e-10
-9.47263e-09
-1.52739e-08
7.4659e-10
-9.42898e-09
-1.56129e-08
6.13775e-10
-8.96101e-09
-1.52494e-08
-1.58973e-10
-8.55675e-09
-1.42763e-08
-3.10995e-10
-9.3793e-09
-1.39707e-08
1.66378e-09
-1.16607e-08
-1.3547e-08
9.76137e-09
-2.01815e-08
-1.63506e-08
1.91724e-08
-2.679e-08
-1.64062e-08
1.92383e-08
-2.68001e-08
-1.35346e-08
9.82712e-09
-2.02621e-08
-1.39771e-08
1.77066e-09
-1.1764e-08
-1.43609e-08
-1.69767e-10
-9.43947e-09
-1.51966e-08
-4.26127e-12
-8.76782e-09
-1.55794e-08
7.95859e-10
-9.18737e-09
-1.52859e-08
8.77306e-10
-9.5609e-09
-1.37917e-08
-4.42501e-10
-9.73508e-09
-1.2033e-08
-2.00546e-09
-9.93096e-09
-9.31797e-09
-5.57581e-09
-9.07501e-09
-6.07696e-09
-1.01961e-08
-7.69606e-09
-2.37676e-09
-1.51872e-08
-6.40891e-09
1.69389e-10
-1.86513e-08
-5.48644e-09
3.33372e-10
-1.87403e-08
-5.5672e-09
9.25043e-11
-1.89583e-08
-5.10675e-09
-1.13045e-11
-1.89379e-08
-4.99655e-09
2.23396e-10
-1.88734e-08
-5.30063e-09
3.46788e-11
-1.87802e-08
-5.20366e-09
-2.58969e-09
-1.52713e-08
-6.09324e-09
-6.2596e-09
-1.02237e-08
-7.46721e-09
-9.40322e-09
-5.65045e-09
-8.89874e-09
-1.20768e-08
-2.12195e-09
-9.75563e-09
-1.38738e-08
-5.34146e-10
-9.54899e-09
-1.52891e-08
8.60693e-10
-9.528e-09
-1.56266e-08
7.37037e-10
-9.07057e-09
-1.52578e-08
-6.01441e-11
-8.64719e-09
-1.43001e-08
-2.45461e-10
-9.42107e-09
-1.39492e-08
1.6568e-09
-1.16753e-08
-1.35122e-08
9.62959e-09
-2.00843e-08
-1.63222e-08
1.89308e-08
-2.65767e-08
-1.63778e-08
1.89958e-08
-2.65859e-08
-1.35003e-08
9.69454e-09
-2.01637e-08
-1.39555e-08
1.76232e-09
-1.17771e-08
-1.43813e-08
-1.01684e-10
-9.48724e-09
-1.5205e-08
9.12085e-11
-8.85503e-09
-1.55927e-08
9.13701e-10
-9.29191e-09
-1.52958e-08
9.80748e-10
-9.65449e-09
-1.38001e-08
-3.64156e-10
-9.80509e-09
-1.20352e-08
-1.96114e-09
-9.97316e-09
-9.32548e-09
-5.57588e-09
-9.0675e-09
-6.08129e-09
-1.02583e-08
-7.62944e-09
-2.38324e-09
-1.53026e-08
-6.28698e-09
1.5206e-10
-1.88053e-08
-5.31533e-09
3.28435e-10
-1.88976e-08
-5.40471e-09
8.95324e-11
-1.89625e-08
-5.09957e-09
-1.36301e-11
-1.89495e-08
-4.98311e-09
2.34082e-10
-1.9117e-08
-5.06749e-09
4.61351e-11
-1.90524e-08
-4.94265e-09
-2.5811e-09
-1.54695e-08
-5.90347e-09
-6.25025e-09
-1.03004e-08
-7.39989e-09
-9.42195e-09
-5.60905e-09
-8.92148e-09
-1.21025e-08
-2.00877e-09
-9.84314e-09
-1.39127e-08
-3.78017e-10
-9.66617e-09
-1.53386e-08
1.05382e-09
-9.67165e-09
-1.56775e-08
9.42838e-10
-9.22549e-09
-1.5284e-08
1.10323e-10
-8.79125e-09
-1.43376e-08
-1.25979e-10
-9.50295e-09
-1.39299e-08
1.65958e-09
-1.16972e-08
-1.34666e-08
9.37765e-09
-1.98777e-08
-1.62356e-08
1.8493e-08
-2.62254e-08
-1.62903e-08
1.85563e-08
-2.62337e-08
-1.34553e-08
9.44076e-09
-1.99547e-08
-1.39364e-08
1.76292e-09
-1.17969e-08
-1.44171e-08
1.89473e-11
-9.57204e-09
-1.52309e-08
2.56082e-10
-8.99396e-09
-1.5642e-08
1.11156e-09
-9.44052e-09
-1.5333e-08
1.16226e-09
-9.79886e-09
-1.3837e-08
-2.1759e-10
-9.91477e-09
-1.20578e-08
-1.85614e-09
-1.00555e-08
-9.34493e-09
-5.5432e-09
-9.08079e-09
-6.07946e-09
-1.03415e-08
-7.54794e-09
-2.37903e-09
-1.55067e-08
-6.0869e-09
1.64419e-10
-1.90841e-08
-5.04856e-09
3.38627e-10
-1.91428e-08
-5.16935e-09
8.76401e-11
-1.89742e-08
-5.08593e-09
-1.42082e-11
-1.89701e-08
-4.96255e-09
2.6663e-10
-1.94189e-08
-4.7982e-09
7.9672e-11
-1.94608e-08
-4.5686e-09
-2.54789e-09
-1.57722e-08
-5.63397e-09
-6.24631e-09
-1.03892e-08
-7.31508e-09
-9.46294e-09
-5.51547e-09
-8.97419e-09
-1.21579e-08
-1.80976e-09
-9.98669e-09
-1.39844e-08
-1.341e-10
-9.83815e-09
-1.54284e-08
1.33334e-09
-9.86128e-09
-1.5771e-08
1.23485e-09
-9.42401e-09
-1.53448e-08
3.61729e-10
-8.98166e-09
-1.43988e-08
6.26332e-11
-9.63031e-09
-1.39293e-08
1.68403e-09
-1.17223e-08
-1.34363e-08
9.02917e-09
-1.95596e-08
-1.60725e-08
1.78106e-08
-2.57057e-08
-1.61253e-08
1.7872e-08
-2.57142e-08
-1.34257e-08
9.08984e-09
-1.96334e-08
-1.39363e-08
1.78772e-09
-1.18217e-08
-1.44769e-08
2.06313e-10
-9.69961e-09
-1.52907e-08
5.00098e-10
-9.17819e-09
-1.57327e-08
1.39435e-09
-9.63249e-09
-1.5407e-08
1.43674e-09
-9.99922e-09
-1.3906e-08
1.53777e-11
-1.00787e-08
-1.211e-08
-1.66618e-09
-1.01933e-08
-9.38548e-09
-5.45978e-09
-9.12376e-09
-6.08107e-09
-1.04374e-08
-7.4504e-09
-2.35362e-09
-1.58174e-08
-5.80178e-09
1.99529e-10
-1.94997e-08
-4.66885e-09
3.71056e-10
-1.94472e-08
-4.89735e-09
8.74564e-11
-1.89952e-08
-5.06476e-09
-1.29512e-11
-1.9003e-08
-4.93142e-09
3.13204e-10
-1.97037e-08
-4.55998e-09
1.27264e-10
-1.99207e-08
-4.15612e-09
-2.49339e-09
-1.61413e-08
-5.31949e-09
-6.25266e-09
-1.04862e-08
-7.2118e-09
-9.53054e-09
-5.3521e-09
-9.0701e-09
-1.22521e-08
-1.49552e-09
-1.02069e-08
-1.4094e-08
2.23684e-10
-1.00862e-08
-1.55568e-08
1.71366e-09
-1.01132e-08
-1.59025e-08
1.62258e-09
-9.68011e-09
-1.54455e-08
7.02627e-10
-9.22161e-09
-1.44898e-08
3.48125e-10
-9.8247e-09
-1.39604e-08
1.76585e-09
-1.17729e-08
-1.34106e-08
8.65133e-09
-1.92076e-08
-1.58567e-08
1.69156e-08
-2.50266e-08
-1.59066e-08
1.69754e-08
-2.50365e-08
-1.34005e-08
8.70958e-09
-1.92785e-08
-1.39683e-08
1.8716e-09
-1.18735e-08
-1.45664e-08
4.88139e-10
-9.89193e-09
-1.539e-08
8.32819e-10
-9.41166e-09
-1.58614e-08
1.77259e-09
-9.88199e-09
-1.55231e-08
1.82419e-09
-1.02706e-08
-1.40125e-08
3.60671e-10
-1.03175e-08
-1.22014e-08
-1.36219e-09
-1.0406e-08
-9.45375e-09
-5.30693e-09
-9.20848e-09
-6.09227e-09
-1.05411e-08
-7.3355e-09
-2.30851e-09
-1.61935e-08
-5.47081e-09
2.49207e-10
-1.99631e-08
-4.25506e-09
4.24114e-10
-1.97404e-08
-4.657e-09
8.92198e-11
-1.90293e-08
-5.03244e-09
-1.01491e-11
-1.9062e-08
-4.87567e-09
3.63273e-10
-1.98955e-08
-4.4184e-09
1.87295e-10
-2.03605e-08
-3.77626e-09
-2.43059e-09
-1.65271e-08
-4.99649e-09
-6.27082e-09
-1.05806e-08
-7.09937e-09
-9.62218e-09
-5.11446e-09
-9.21616e-09
-1.23923e-08
-1.0306e-09
-1.05316e-08
-1.42464e-08
7.36397e-10
-1.04466e-08
-1.57189e-08
2.24921e-09
-1.04868e-08
-1.60674e-08
2.14985e-09
-1.00427e-08
-1.55841e-08
1.16008e-09
-9.54017e-09
-1.46289e-08
7.6521e-10
-1.01025e-08
-1.40368e-08
1.95944e-09
-1.18899e-08
-1.33562e-08
8.2901e-09
-1.89005e-08
-1.56265e-08
1.59755e-08
-2.43167e-08
-1.56733e-08
1.60327e-08
-2.43272e-08
-1.33458e-08
8.34586e-09
-1.89692e-08
-1.40455e-08
2.0645e-09
-1.19891e-08
-1.47034e-08
8.99203e-10
-1.01659e-08
-1.55272e-08
1.2806e-09
-9.72219e-09
-1.60249e-08
2.28854e-09
-1.02345e-08
-1.56799e-08
2.36934e-09
-1.06591e-08
-1.41631e-08
8.5747e-10
-1.06638e-08
-1.23384e-08
-9.09446e-10
-1.07218e-08
-9.55137e-09
-5.07901e-09
-9.3388e-09
-6.11524e-09
-1.06406e-08
-7.21305e-09
-2.25629e-09
-1.65831e-08
-5.13342e-09
3.1717e-10
-2.04038e-08
-3.88218e-09
4.8421e-10
-1.9938e-08
-4.51925e-09
9.37641e-11
-1.90926e-08
-4.97358e-09
-8.62874e-12
-1.91596e-08
-4.77995e-09
3.97362e-10
-2.0018e-08
-4.33084e-09
2.48246e-10
-2.07559e-08
-3.44157e-09
-2.37939e-09
-1.68714e-08
-4.7033e-09
-6.30765e-09
-1.06439e-08
-6.99941e-09
-9.73174e-09
-4.81068e-09
-9.41032e-09
-1.25837e-08
-4.11776e-10
-1.09591e-08
-1.44234e-08
1.44266e-09
-1.0976e-08
-1.58991e-08
3.00246e-09
-1.10601e-08
-1.6256e-08
2.90001e-09
-1.06048e-08
-1.57656e-08
1.80125e-09
-9.99985e-09
-1.48315e-08
1.35524e-09
-1.04898e-08
-1.41797e-08
2.31421e-09
-1.21016e-08
-1.33274e-08
8.0234e-09
-1.86624e-08
-1.54155e-08
1.50901e-08
-2.36423e-08
-1.54595e-08
1.51429e-08
-2.36512e-08
-1.33163e-08
8.07629e-09
-1.87289e-08
-1.41888e-08
2.41654e-09
-1.21976e-08
-1.49033e-08
1.48105e-09
-1.05479e-08
-1.57072e-08
1.90588e-09
-1.01678e-08
-1.62185e-08
3.02451e-09
-1.07774e-08
-1.58581e-08
3.11828e-09
-1.12301e-08
-1.43477e-08
1.54602e-09
-1.11682e-08
-1.25208e-08
-3.03385e-10
-1.11454e-08
-9.66622e-09
-4.78339e-09
-9.51955e-09
-6.15911e-09
-1.07065e-08
-7.10331e-09
-2.21091e-09
-1.69298e-08
-4.832e-09
3.90275e-10
-2.08058e-08
-3.55297e-09
5.23065e-10
-2.00612e-08
-4.43549e-09
9.74461e-11
-1.91962e-08
-4.87354e-09
-1.4272e-11
-1.92922e-08
-4.64198e-09
3.72637e-10
-2.01529e-08
-4.17237e-09
2.68387e-10
-2.10629e-08
-3.15417e-09
-2.38259e-09
-1.70993e-08
-4.47213e-09
-6.38331e-09
-1.06199e-08
-6.94781e-09
-9.88018e-09
-4.44486e-09
-9.62771e-09
-1.28308e-08
3.13695e-10
-1.14374e-08
-1.46479e-08
2.32879e-09
-1.16367e-08
-1.61201e-08
3.94922e-09
-1.1785e-08
-1.64884e-08
3.88588e-09
-1.1357e-08
-1.59667e-08
2.67204e-09
-1.06694e-08
-1.51054e-08
2.19163e-09
-1.10523e-08
-1.44069e-08
2.87134e-09
-1.24314e-08
-1.33887e-08
7.91411e-09
-1.84918e-08
-1.52606e-08
1.43069e-08
-2.30141e-08
-1.5302e-08
1.43546e-08
-2.30205e-08
-1.33767e-08
7.96379e-09
-1.8556e-08
-1.44163e-08
2.9699e-09
-1.25234e-08
-1.51739e-08
2.30774e-09
-1.11041e-08
-1.59071e-08
2.75896e-09
-1.08213e-08
-1.64571e-08
3.995e-09
-1.15083e-08
-1.60772e-08
4.04892e-09
-1.19408e-08
-1.45825e-08
2.41644e-09
-1.18031e-08
-1.27594e-08
4.11869e-10
-1.16221e-08
-9.81086e-09
-4.42267e-09
-9.73551e-09
-6.24301e-09
-1.06826e-08
-7.04329e-09
-2.21864e-09
-1.71621e-08
-4.59178e-09
4.16221e-10
-2.1124e-08
-3.2602e-09
4.99479e-10
-2.01962e-08
-4.27779e-09
9.38341e-11
-1.93326e-08
-4.73336e-09
-3.36914e-11
-1.94409e-08
-4.47416e-09
2.82079e-10
-2.02943e-08
-3.94037e-09
2.11148e-10
-2.12208e-08
-2.93832e-09
-2.49995e-09
-1.71016e-08
-4.35256e-09
-6.54852e-09
-1.04314e-08
-6.97116e-09
-1.00972e-08
-4.01122e-09
-9.84432e-09
-1.31318e-08
1.09567e-09
-1.19185e-08
-1.49555e-08
3.3197e-09
-1.23199e-08
-1.64086e-08
4.98796e-09
-1.25355e-08
-1.6786e-08
5.00105e-09
-1.21748e-08
-1.62032e-08
3.73049e-09
-1.14903e-08
-1.54417e-08
3.29851e-09
-1.18226e-08
-1.47167e-08
3.66945e-09
-1.29203e-08
-1.35825e-08
8.03292e-09
-1.84168e-08
-1.51962e-08
1.36945e-08
-2.24662e-08
-1.5235e-08
1.3737e-08
-2.24701e-08
-1.35702e-08
8.07899e-09
-1.84776e-08
-1.47263e-08
3.76359e-09
-1.30078e-08
-1.55068e-08
3.40384e-09
-1.18672e-08
-1.61423e-08
3.80487e-09
-1.1631e-08
-1.67543e-08
5.09496e-09
-1.23111e-08
-1.63634e-08
5.06927e-09
-1.26752e-08
-1.48907e-08
3.39382e-09
-1.24724e-08
-1.306e-08
1.18758e-09
-1.20973e-08
-1.00208e-08
-3.9917e-09
-9.95656e-09
-6.41688e-09
-1.04919e-08
-7.06009e-09
-2.34171e-09
-1.71698e-08
-4.46098e-09
3.59012e-10
-2.12928e-08
-3.03356e-09
4.07582e-10
-2.03388e-08
-4.04298e-09
7.6712e-11
-1.94852e-08
-4.56346e-09
-6.91431e-11
-1.95981e-08
-4.28166e-09
1.82676e-10
-2.04688e-08
-3.66594e-09
7.29913e-11
-2.118e-08
-2.84014e-09
-2.77421e-09
-1.67594e-08
-4.42047e-09
-6.86023e-09
-9.97155e-09
-7.11958e-09
-1.03638e-08
-3.48105e-09
-1.01079e-08
-1.34715e-08
1.90093e-09
-1.23843e-08
-1.53053e-08
4.33737e-09
-1.29878e-08
-1.67221e-08
6.01823e-09
-1.32524e-08
-1.71091e-08
6.13031e-09
-1.29811e-08
-1.64982e-08
4.87596e-09
-1.23406e-08
-1.5824e-08
4.58737e-09
-1.27289e-08
-1.50593e-08
4.77192e-09
-1.36808e-08
-1.3913e-08
8.43905e-09
-1.84921e-08
-1.52523e-08
1.33412e-08
-2.20564e-08
-1.52882e-08
1.33787e-08
-2.20583e-08
-1.39013e-08
8.48098e-09
-1.85482e-08
-1.50692e-08
4.86081e-09
-1.37628e-08
-1.58861e-08
4.68108e-09
-1.27649e-08
-1.64363e-08
4.93071e-09
-1.24631e-08
-1.70758e-08
6.20938e-09
-1.31042e-08
-1.66744e-08
6.0823e-09
-1.33774e-08
-1.52393e-08
4.39917e-09
-1.31293e-08
-1.34027e-08
1.98921e-09
-1.25565e-08
-1.02805e-08
-3.46136e-09
-1.02271e-08
-6.73782e-09
-1.00275e-08
-7.20368e-09
-2.62367e-09
-1.68318e-08
-4.51696e-09
2.18819e-10
-2.12612e-08
-2.92415e-09
3.06089e-10
-2.05178e-08
-3.76156e-09
4.38804e-11
-1.96477e-08
-4.36787e-09
-1.19763e-10
-1.97538e-08
-4.07491e-09
1.45568e-10
-2.07025e-08
-3.39684e-09
-1.44487e-10
-2.09202e-08
-2.88155e-09
-3.24139e-09
-1.5981e-08
-4.73184e-09
-7.36608e-09
-9.08572e-09
-7.49938e-09
-1.06658e-08
-2.80127e-09
-1.04858e-08
-1.38274e-08
2.69025e-09
-1.28178e-08
-1.56527e-08
5.29759e-09
-1.36006e-08
-1.70161e-08
6.94471e-09
-1.3885e-08
-1.74073e-08
7.15277e-09
-1.37054e-08
-1.67979e-08
5.97569e-09
-1.31405e-08
-1.62266e-08
5.90664e-09
-1.36455e-08
-1.54546e-08
6.15754e-09
-1.46683e-08
-1.4372e-08
9.16784e-09
-1.87618e-08
-1.54706e-08
1.33588e-08
-2.18542e-08
-1.55034e-08
1.33915e-08
-2.18544e-08
-1.43621e-08
9.20464e-09
-1.88109e-08
-1.54646e-08
6.23908e-09
-1.47429e-08
-1.62858e-08
5.99139e-09
-1.36757e-08
-1.67463e-08
6.00555e-09
-1.32283e-08
-1.73726e-08
7.21696e-09
-1.38151e-08
-1.69657e-08
6.99321e-09
-1.39971e-08
-1.55863e-08
5.34723e-09
-1.37304e-08
-1.37566e-08
2.77285e-09
-1.29863e-08
-1.05797e-08
-2.77787e-09
-1.06115e-08
-7.25357e-09
-9.13398e-09
-7.58111e-09
-3.09997e-09
-1.60551e-08
-4.81746e-09
-9.07495e-13
-2.10097e-08
-2.95504e-09
2.68568e-10
-2.07606e-08
-3.48245e-09
-4.68681e-12
-1.98108e-08
-4.15532e-09
-1.77663e-10
-1.98975e-08
-3.8724e-09
1.66899e-10
-2.09396e-08
-3.18378e-09
-4.61362e-10
-2.04239e-08
-3.05935e-09
-3.92817e-09
-1.47112e-08
-5.31539e-09
-8.13011e-09
-7.55399e-09
-8.26629e-09
-1.10636e-08
-1.91449e-09
-1.09745e-08
-1.41758e-08
3.39329e-09
-1.31725e-08
-1.59341e-08
6.06311e-09
-1.40848e-08
-1.71871e-08
7.61275e-09
-1.43821e-08
-1.75701e-08
7.9029e-09
-1.42927e-08
-1.70288e-08
6.87674e-09
-1.38105e-08
-1.65986e-08
7.06671e-09
-1.44336e-08
-1.5929e-08
7.59871e-09
-1.56355e-08
-1.49478e-08
1.02313e-08
-1.92496e-08
-1.58798e-08
1.38218e-08
-2.19077e-08
-1.59094e-08
1.385e-08
-2.19067e-08
-1.49411e-08
1.02607e-08
-1.92883e-08
-1.59382e-08
7.66865e-09
-1.56994e-08
-1.66406e-08
7.13959e-09
-1.44692e-08
-1.69905e-08
6.89167e-09
-1.38703e-08
-1.75327e-08
7.95034e-09
-1.43883e-08
-1.71337e-08
7.64451e-09
-1.44803e-08
-1.58689e-08
6.10103e-09
-1.42019e-08
-1.41028e-08
3.46539e-09
-1.33327e-08
-1.09808e-08
-1.88492e-09
-1.11031e-08
-8.02861e-09
-7.59074e-09
-8.34842e-09
-3.79722e-09
-1.47837e-08
-5.39204e-09
-3.20512e-10
-2.05208e-08
-3.12283e-09
2.91519e-10
-2.10101e-08
-3.25788e-09
-6.19302e-11
-1.99639e-08
-3.94377e-09
-2.46108e-10
-2.00052e-08
-3.69491e-09
1.52906e-10
-2.10593e-08
-3.05378e-09
-8.73665e-10
-1.97098e-08
-3.35922e-09
-4.84561e-09
-1.29359e-08
-6.17294e-09
-9.22784e-09
-5.20769e-09
-9.51293e-09
-1.16053e-08
-8.04242e-10
-1.15427e-08
-1.44731e-08
3.93849e-09
-1.34202e-08
-1.60525e-08
6.43004e-09
-1.43337e-08
-1.70841e-08
7.75153e-09
-1.4624e-08
-1.74117e-08
8.07006e-09
-1.46185e-08
-1.70019e-08
7.32047e-09
-1.42806e-08
-1.67751e-08
7.83037e-09
-1.50204e-08
-1.63505e-08
8.77669e-09
-1.63928e-08
-1.55552e-08
1.13883e-08
-1.97987e-08
-1.6352e-08
1.45077e-08
-2.2125e-08
-1.63786e-08
1.45321e-08
-2.21233e-08
-1.55501e-08
1.14096e-08
-1.98275e-08
-1.63559e-08
8.82878e-09
-1.64428e-08
-1.67921e-08
7.88245e-09
-1.50604e-08
-1.69636e-08
7.32674e-09
-1.43321e-08
-1.73705e-08
8.09772e-09
-1.46982e-08
-1.70283e-08
7.76525e-09
-1.47067e-08
-1.59897e-08
6.45736e-09
-1.44377e-08
-1.44077e-08
4.0007e-09
-1.35629e-08
-1.15311e-08
-7.67781e-10
-1.16696e-08
-9.13934e-09
-5.22876e-09
-9.59769e-09
-4.72704e-09
-1.30024e-08
-6.24324e-09
-7.36735e-10
-1.98127e-08
-3.41278e-09
2.78653e-10
-2.11431e-08
-3.11499e-09
-1.30934e-10
-2.00823e-08
-3.75457e-09
-3.33976e-10
-2.00492e-08
-3.56174e-09
8.17064e-11
-2.1022e-08
-3.02252e-09
-1.35808e-09
-1.88213e-08
-3.76101e-09
-5.96898e-09
-1.07692e-08
-7.21541e-09
-1.06004e-08
-2.33817e-09
-1.10197e-08
-1.22227e-08
4.3139e-10
-1.21589e-08
-1.46652e-08
4.2481e-09
-1.35376e-08
-1.58893e-08
6.16203e-09
-1.4229e-08
-1.65647e-08
7.01702e-09
-1.44092e-08
-1.67357e-08
7.23302e-09
-1.44581e-08
-1.64607e-08
6.86971e-09
-1.43713e-08
-1.646e-08
7.75345e-09
-1.5259e-08
-1.63838e-08
9.19604e-09
-1.6779e-08
-1.58609e-08
1.19544e-08
-2.00607e-08
-1.65756e-08
1.47977e-08
-2.21924e-08
-1.65989e-08
1.48183e-08
-2.21903e-08
-1.58552e-08
1.19689e-08
-2.00833e-08
-1.63809e-08
9.22278e-09
-1.6812e-08
-1.64655e-08
7.78489e-09
-1.52899e-08
-1.64209e-08
6.86466e-09
-1.44133e-08
-1.66918e-08
7.23961e-09
-1.45193e-08
-1.65076e-08
7.01404e-09
-1.44763e-08
-1.58303e-08
6.17966e-09
-1.43196e-08
-1.46108e-08
4.303e-09
-1.3662e-08
-1.216e-08
4.75585e-10
-1.22819e-08
-1.05278e-08
-2.33911e-09
-1.11085e-08
-5.86519e-09
-1.08261e-08
-7.28042e-09
-1.22679e-09
-1.89285e-08
-3.80473e-09
2.07355e-10
-2.11196e-08
-3.06916e-09
-2.20277e-10
-2.01381e-08
-3.60766e-09
-4.54081e-10
-2.00063e-08
-3.48423e-09
-4.95086e-11
-2.08269e-08
-3.08596e-09
-1.87743e-09
-1.78316e-08
-4.22669e-09
-7.169e-09
-8.52864e-09
-8.26551e-09
-1.14542e-08
-6.06128e-10
-1.19014e-08
-1.27885e-08
1.5251e-09
-1.26861e-08
-1.46985e-08
4.24281e-09
-1.34988e-08
-1.53367e-08
5.06696e-09
-1.36861e-08
-1.54857e-08
5.10227e-09
-1.35734e-08
-1.53609e-08
4.99235e-09
-1.35923e-08
-1.51917e-08
5.0154e-09
-1.37864e-08
-1.53701e-08
6.25325e-09
-1.48493e-08
-1.55823e-08
8.15696e-09
-1.65423e-08
-1.5331e-08
1.09745e-08
-1.9612e-08
-1.59703e-08
1.35299e-08
-2.15312e-08
-1.59893e-08
1.35454e-08
-2.15283e-08
-1.53246e-08
1.09834e-08
-1.96297e-08
-1.55712e-08
8.16113e-09
-1.6561e-08
-1.53706e-08
6.26944e-09
-1.48702e-08
-1.51535e-08
5.00037e-09
-1.38172e-08
-1.53156e-08
4.97909e-09
-1.36351e-08
-1.54288e-08
5.08475e-09
-1.36257e-08
-1.52819e-08
5.07415e-09
-1.37622e-08
-1.46547e-08
4.29036e-09
-1.36054e-08
-1.27401e-08
1.5789e-09
-1.28044e-08
-1.14032e-08
-5.81142e-10
-1.19948e-08
-7.08377e-09
-8.57011e-09
-8.32734e-09
-1.75395e-09
-1.79395e-08
-4.26168e-09
7.49232e-11
-2.09378e-08
-3.11762e-09
-3.42294e-10
-2.01072e-08
-3.51555e-09
-6.14071e-10
-1.98718e-08
-3.46001e-09
-2.32012e-10
-2.05142e-08
-3.21291e-09
-2.3517e-09
-1.69224e-08
-4.65891e-09
-8.03508e-09
-6.98489e-09
-8.95079e-09
-1.1492e-08
-5.54616e-10
-1.18941e-08
-1.34102e-08
2.70262e-09
-1.32426e-08
-1.4556e-08
3.93011e-09
-1.33281e-08
-1.43417e-08
3.09317e-09
-1.27069e-08
-1.37531e-08
1.85782e-09
-1.20603e-08
-1.31559e-08
1.09543e-09
-1.18983e-08
-1.29997e-08
1.35981e-09
-1.2322e-08
-1.32718e-08
2.83648e-09
-1.35308e-08
-1.36651e-08
5.03482e-09
-1.53369e-08
-1.35585e-08
7.6649e-09
-1.80727e-08
-1.40406e-08
9.71546e-09
-1.96428e-08
-1.40553e-08
9.72534e-09
-1.96387e-08
-1.35522e-08
7.66931e-09
-1.80857e-08
-1.36522e-08
5.02945e-09
-1.53481e-08
-1.32693e-08
2.84202e-09
-1.35442e-08
-1.29661e-08
1.33957e-09
-1.23431e-08
-1.31104e-08
1.06598e-09
-1.19252e-08
-1.36976e-08
1.82762e-09
-1.20985e-08
-1.429e-08
3.08717e-09
-1.27668e-08
-1.45207e-08
3.96792e-09
-1.34165e-08
-1.3377e-08
2.76764e-09
-1.33569e-08
-1.1466e-08
-4.99166e-10
-1.19926e-08
-7.97315e-09
-7.00136e-09
-9.01431e-09
-2.23819e-09
-1.70264e-08
-4.68751e-09
-1.09405e-10
-2.06365e-08
-3.23101e-09
-5.04064e-10
-1.99843e-08
-3.47725e-09
-8.05241e-10
-1.96735e-08
-3.46994e-09
-4.40548e-10
-2.01594e-08
-3.35512e-09
-2.71329e-09
-1.62624e-08
-4.96037e-09
-8.47277e-09
-6.28919e-09
-9.20042e-09
-1.21809e-08
4.91566e-10
-1.22499e-08
-1.43298e-08
4.31556e-09
-1.39371e-08
-1.4281e-08
3.42716e-09
-1.30984e-08
-1.29497e-08
4.21662e-10
-1.14302e-08
-1.14151e-08
-2.54806e-09
-9.99352e-09
-1.0177e-08
-4.3652e-09
-9.41774e-09
-9.83252e-09
-4.17914e-09
-9.94727e-09
-1.00573e-08
-2.68546e-09
-1.12205e-08
-1.05188e-08
-4.0982e-10
-1.30347e-08
-1.04595e-08
1.85224e-09
-1.53522e-08
-1.07344e-08
3.28049e-09
-1.65106e-08
-1.07451e-08
3.28524e-09
-1.65055e-08
-1.04538e-08
1.85289e-09
-1.53609e-08
-1.0508e-08
-4.17492e-10
-1.30417e-08
-1.00532e-08
-2.68652e-09
-1.12291e-08
-9.80635e-09
-4.19866e-09
-9.96202e-09
-1.01303e-08
-4.40436e-09
-9.43607e-09
-1.13609e-08
-2.5904e-09
-1.00183e-08
-1.28972e-08
3.98485e-10
-1.14735e-08
-1.42521e-08
3.45252e-09
-1.3168e-08
-1.43165e-08
4.39428e-09
-1.40452e-08
-1.21757e-08
5.75345e-10
-1.23563e-08
-8.43406e-09
-6.27784e-09
-9.26845e-09
-2.61097e-09
-1.63585e-08
-4.98529e-09
-3.1994e-10
-2.029e-08
-3.36248e-09
-6.96669e-10
-1.97957e-08
-3.4749e-09
-9.98162e-10
-1.94653e-08
-3.48936e-09
-6.39256e-10
-1.98429e-08
-3.46872e-09
-2.99328e-09
-1.58014e-08
-5.14372e-09
-8.91616e-09
-5.64405e-09
-9.40652e-09
-1.35259e-08
2.70952e-09
-1.31491e-08
-1.52101e-08
5.79554e-09
-1.45389e-08
-1.39327e-08
2.90713e-09
-1.29268e-08
-1.13237e-08
-2.47467e-09
-1.0159e-08
-8.70307e-09
-7.47251e-09
-7.77963e-09
-6.7048e-09
-1.0696e-08
-6.56111e-09
-5.97189e-09
-1.10832e-08
-6.90671e-09
-5.95123e-09
-9.9262e-09
-8.0864e-09
-6.35563e-09
-7.88243e-09
-9.72601e-09
-6.36235e-09
-6.08415e-09
-1.15189e-08
-6.36837e-09
-5.19248e-09
-1.2407e-08
-6.37476e-09
-5.19115e-09
-1.24028e-08
-6.35693e-09
-6.08607e-09
-1.15247e-08
-6.34633e-09
-7.8892e-09
-9.73246e-09
-5.9479e-09
-9.92864e-09
-8.09301e-09
-5.95459e-09
-1.10954e-08
-6.92008e-09
-6.65845e-09
-1.07374e-08
-6.57653e-09
-8.64848e-09
-7.52704e-09
-7.79252e-09
-1.12655e-08
-2.52128e-09
-1.01846e-08
-1.39074e-08
2.91818e-09
-1.29785e-08
-1.52192e-08
5.88705e-09
-1.46373e-08
-1.35436e-08
2.82223e-09
-1.32613e-08
-8.89922e-09
-5.60608e-09
-9.47944e-09
-2.90212e-09
-1.58879e-08
-5.16666e-09
-5.20801e-10
-1.99786e-08
-3.46835e-09
-8.9102e-10
-1.95934e-08
-3.48602e-09
-1.14824e-09
-1.93054e-08
-3.50606e-09
-7.66769e-10
-1.96374e-08
-3.54075e-09
-3.1514e-09
-1.55469e-08
-5.24179e-09
-9.2498e-09
-5.14934e-09
-9.56746e-09
-1.43845e-08
4.20503e-09
-1.37776e-08
-1.58627e-08
6.98211e-09
-1.50703e-08
-1.36395e-08
2.68365e-09
-1.29955e-08
-9.80231e-09
-4.87121e-09
-9.28224e-09
-6.12634e-09
-1.18452e-08
-5.97987e-09
-3.30567e-09
-1.66093e-08
-4.04239e-09
-2.04377e-09
-1.80463e-08
-3.86975e-09
-1.59294e-09
-1.76949e-08
-4.67688e-09
-1.72939e-09
-1.63384e-08
-5.90084e-09
-1.71001e-09
-1.51231e-08
-7.14007e-09
-1.46125e-09
-1.46597e-08
-7.85016e-09
-1.46418e-09
-1.466e-08
-7.84778e-09
-1.7051e-09
-1.5126e-08
-7.14436e-09
-1.7216e-09
-1.63426e-08
-5.90845e-09
-1.59247e-09
-1.76924e-08
-4.68561e-09
-2.03634e-09
-1.80456e-08
-3.88626e-09
-3.26785e-09
-1.66453e-08
-4.0549e-09
-6.07127e-09
-1.19104e-08
-5.98248e-09
-9.73855e-09
-4.94116e-09
-9.28997e-09
-1.36151e-08
2.68311e-09
-1.30349e-08
-1.58896e-08
7.08487e-09
-1.51623e-08
-1.4429e-08
4.34547e-09
-1.38909e-08
-9.25287e-09
-5.08907e-09
-9.64277e-09
-3.06988e-09
-1.56244e-08
-5.26415e-09
-6.51142e-10
-1.97725e-08
-3.5374e-09
-1.04337e-09
-1.9433e-08
-3.49954e-09
-1.22333e-09
-1.92157e-08
-3.54814e-09
-7.89759e-10
-1.95207e-08
-3.60688e-09
-3.17879e-09
-1.54896e-08
-5.27147e-09
-9.46913e-09
-4.88141e-09
-9.61874e-09
-1.49777e-08
5.11954e-09
-1.41e-08
-1.64271e-08
8.06339e-09
-1.55888e-08
-1.3581e-08
3.04393e-09
-1.34115e-08
-8.79126e-09
-6.07465e-09
-9.09398e-09
-4.28411e-09
-1.46143e-08
-5.0484e-09
-7.68273e-10
-2.07945e-08
-2.39545e-09
1.06687e-09
-2.34927e-08
-1.53229e-09
2.06635e-09
-2.4276e-08
-1.75253e-09
2.47736e-09
-2.40281e-08
-2.41386e-09
2.7753e-09
-2.35854e-08
-3.15721e-09
3.16935e-09
-2.35433e-08
-3.59497e-09
3.1675e-09
-2.35443e-08
-3.59308e-09
2.77848e-09
-2.3588e-08
-3.16005e-09
2.48119e-09
-2.40285e-08
-2.42145e-09
2.06242e-09
-2.42649e-08
-1.7656e-09
1.06507e-09
-2.34779e-08
-1.55387e-09
-7.40928e-10
-2.08198e-08
-2.40822e-09
-4.22938e-09
-1.46875e-08
-5.04255e-09
-8.72333e-09
-6.15983e-09
-9.09083e-09
-1.35569e-08
3.03978e-09
-1.34469e-08
-1.6467e-08
8.17856e-09
-1.56803e-08
-1.50428e-08
5.28007e-09
-1.42128e-08
-9.48655e-09
-4.80727e-09
-9.69382e-09
-3.10472e-09
-1.55595e-08
-5.2946e-09
-6.79961e-10
-1.96468e-08
-3.60776e-09
-1.12214e-09
-1.9334e-08
-3.54357e-09
-1.2066e-09
-1.92047e-08
-3.56458e-09
-7.43222e-10
-1.95461e-08
-3.62569e-09
-3.14639e-09
-1.55331e-08
-5.26322e-09
-9.5957e-09
-4.77254e-09
-9.60488e-09
-1.5369e-08
5.64705e-09
-1.42401e-08
-1.68629e-08
8.88367e-09
-1.59781e-08
-1.37374e-08
3.67304e-09
-1.38832e-08
-8.38642e-09
-6.20099e-09
-9.37646e-09
-3.42359e-09
-1.55928e-08
-4.93671e-09
4.70482e-10
-2.27051e-08
-1.73131e-09
2.70991e-09
-2.63684e-08
-3.03065e-10
4.15271e-09
-2.81235e-08
6.26376e-12
5.09635e-09
-2.89141e-08
-1.45205e-10
5.72468e-09
-2.91943e-08
-4.92775e-10
6.23559e-09
-2.94813e-08
-7.17208e-10
6.23393e-09
-2.94824e-08
-7.15545e-10
5.72632e-09
-2.91962e-08
-4.94869e-10
5.09688e-09
-2.8911e-08
-1.53169e-10
4.14511e-09
-2.81051e-08
-1.05894e-11
2.70247e-09
-2.6344e-08
-3.28584e-10
4.90612e-10
-2.2722e-08
-1.74546e-09
-3.37189e-09
-1.56706e-08
-4.92267e-09
-8.31533e-09
-6.2918e-09
-9.37089e-09
-1.37125e-08
3.67289e-09
-1.39232e-08
-1.69124e-08
9.01073e-09
-1.60717e-08
-1.5446e-08
5.81815e-09
-1.43515e-08
-9.62019e-09
-4.69338e-09
-9.67765e-09
-3.07678e-09
-1.56003e-08
-5.28382e-09
-6.38103e-10
-1.96711e-08
-3.62293e-09
-1.10823e-09
-1.93229e-08
-3.55856e-09
)
;

boundaryField
{
    freeSurface
    {
        type            slip;
    }
    inlet
    {
        type            cyclic;
    }
    outlet
    {
        type            cyclic;
    }
    sidewalls
    {
        type            zeroGradient;
    }
    noSlipWalls
    {
        type            zeroGradient;
    }
}


// ************************************************************************* //
