/*--------------------------------*- C++ -*----------------------------------*\
  =========                 |
  \\      /  F ield         | OpenFOAM: The Open Source CFD Toolbox
   \\    /   O peration     | Website:  https://openfoam.org
    \\  /    A nd           | Version:  6
     \\/     M anipulation  |
\*---------------------------------------------------------------------------*/
FoamFile
{
    version     2.0;
    format      ascii;
    class       volVectorField;
    location    "80";
    object      U;
}
// * * * * * * * * * * * * * * * * * * * * * * * * * * * * * * * * * * * * * //

dimensions      [0 1 -1 0 0 0 0];

internalField   nonuniform List<vector> 
2160
(
(0.0214147 -2.09818e-09 -9.68929e-11)
(0.0214147 -4.69608e-09 4.41112e-10)
(0.0214146 6.83106e-09 -3.55659e-10)
(0.0564808 1.22008e-09 -9.89913e-10)
(0.056479 -7.38266e-09 4.40389e-09)
(0.0564786 5.95896e-09 -3.40185e-09)
(0.0657929 2.31483e-08 -1.43233e-09)
(0.0657913 -2.31709e-08 4.72882e-09)
(0.0657907 -1.3188e-10 -3.285e-09)
(0.0731835 4.71523e-08 -9.62038e-10)
(0.0731824 -5.02381e-08 3.30679e-09)
(0.0731819 3.02919e-09 -2.33639e-09)
(0.0794775 4.3732e-08 -2.98508e-10)
(0.079477 -4.68076e-08 1.36844e-09)
(0.0794768 2.89039e-09 -1.07344e-09)
(0.0849916 3.38793e-08 5.32898e-10)
(0.0849914 -3.21361e-08 -1.68367e-10)
(0.0849917 -1.81934e-09 -3.63798e-10)
(0.0898876 1.87875e-08 9.66593e-10)
(0.0898878 -1.60283e-08 -1.36047e-09)
(0.0898883 -2.8045e-09 3.89558e-10)
(0.0942933 1.0173e-08 1.17964e-09)
(0.0942937 -6.29225e-09 -1.87758e-09)
(0.0942944 -3.93121e-09 6.94768e-10)
(0.0983418 4.45793e-09 1.30987e-09)
(0.0983423 -1.76087e-09 -2.24405e-09)
(0.0983432 -2.7139e-09 9.34457e-10)
(0.102092 -9.84939e-10 1.30023e-09)
(0.102093 2.93128e-09 -2.07008e-09)
(0.102094 -1.95137e-09 7.73744e-10)
(0.105574 -2.47115e-09 7.63864e-10)
(0.105575 9.7923e-10 -1.29599e-09)
(0.105575 1.47596e-09 5.4154e-10)
(0.108807 5.7986e-11 5.76315e-10)
(0.108807 -4.94138e-09 -4.31808e-10)
(0.108808 4.89786e-09 -1.49039e-10)
(0.111703 5.14146e-09 3.19645e-11)
(0.111703 -1.83596e-08 3.1574e-10)
(0.111703 1.32021e-08 -3.39658e-10)
(0.114233 1.20989e-08 6.69826e-11)
(0.114233 -2.9854e-08 -1.09324e-10)
(0.114231 1.77505e-08 -1.75426e-11)
(0.115734 7.24432e-09 1.72226e-09)
(0.115732 -1.41441e-08 -1.91265e-09)
(0.11573 6.90828e-09 1.04516e-10)
(0.115734 -7.15318e-09 1.72662e-09)
(0.115732 1.396e-08 -1.9151e-09)
(0.11573 -6.81788e-09 1.02332e-10)
(0.114231 -1.21042e-08 6.8757e-11)
(0.11423 2.97318e-08 -1.11965e-10)
(0.114228 -1.76277e-08 -1.66643e-11)
(0.1117 -4.91188e-09 3.19593e-11)
(0.111699 1.80087e-08 3.13497e-10)
(0.111699 -1.30891e-08 -3.37822e-10)
(0.108803 -1.12777e-10 5.64364e-10)
(0.108803 4.83885e-09 -4.51931e-10)
(0.108804 -4.75359e-09 -1.16045e-10)
(0.105569 2.37158e-09 7.449e-10)
(0.10557 -1.24626e-09 -1.25416e-09)
(0.105571 -1.12595e-09 5.18129e-10)
(0.102089 1.03304e-09 1.25917e-09)
(0.10209 -2.76561e-09 -1.99466e-09)
(0.102091 1.71918e-09 7.39288e-10)
(0.0983385 -4.54518e-09 1.24804e-09)
(0.098339 1.63777e-09 -2.14328e-09)
(0.0983399 2.89581e-09 8.95268e-10)
(0.094289 -1.02424e-08 1.12599e-09)
(0.0942894 6.10646e-09 -1.74383e-09)
(0.0942901 4.15555e-09 6.15701e-10)
(0.0898814 -1.89779e-08 8.69164e-10)
(0.0898815 1.64075e-08 -1.21042e-09)
(0.089882 2.57797e-09 3.37174e-10)
(0.0849825 -3.37017e-08 5.69024e-10)
(0.0849822 3.08636e-08 1.39083e-11)
(0.0849825 2.87102e-09 -5.79083e-10)
(0.0794664 -4.43484e-08 -6.22633e-11)
(0.0794656 4.74754e-08 1.52023e-09)
(0.0794655 -2.9989e-09 -1.46044e-09)
(0.0731725 -4.68238e-08 -9.77818e-10)
(0.0731713 5.0292e-08 3.46691e-09)
(0.0731708 -3.48804e-09 -2.48026e-09)
(0.0657843 -2.27359e-08 -1.45472e-09)
(0.0657827 2.35132e-08 4.86585e-09)
(0.0657821 -6.86767e-10 -3.40002e-09)
(0.0564746 -1.26279e-09 -1.01369e-09)
(0.0564727 7.6201e-09 4.53592e-09)
(0.0564722 -6.22413e-09 -3.51071e-09)
(0.0214125 2.11239e-09 -8.76946e-11)
(0.0214125 4.77134e-09 4.45373e-10)
(0.0214124 -6.92761e-09 -3.58644e-10)
(0.0570215 -2.57294e-09 -7.27748e-10)
(0.0570215 -8.66954e-09 1.89347e-09)
(0.0570213 1.12807e-08 -1.16486e-09)
(0.123235 3.45936e-09 -4.41124e-09)
(0.123233 -1.32205e-08 1.26336e-08)
(0.123232 9.30452e-09 -8.1963e-09)
(0.137534 3.4149e-08 -5.3409e-09)
(0.137533 -3.15654e-08 1.38554e-08)
(0.137532 -2.91353e-09 -8.49858e-09)
(0.148263 6.79765e-08 -3.55083e-09)
(0.148262 -6.70397e-08 9.41109e-09)
(0.148261 -1.06361e-09 -5.84937e-09)
(0.156963 6.19739e-08 -7.43969e-10)
(0.156963 -6.01792e-08 3.44144e-09)
(0.156963 -2.14652e-09 -2.70166e-09)
(0.164245 4.91583e-08 1.86316e-09)
(0.164245 -4.24891e-08 -1.1e-09)
(0.164245 -6.82292e-09 -7.66991e-10)
(0.170395 2.52408e-08 3.36856e-09)
(0.170395 -1.95223e-08 -4.47666e-09)
(0.170395 -5.81362e-09 1.10118e-09)
(0.175607 1.30693e-08 4.19032e-09)
(0.175607 -6.87031e-09 -6.15037e-09)
(0.175608 -6.29589e-09 1.95409e-09)
(0.180042 5.51107e-09 4.9144e-09)
(0.180042 -1.53233e-09 -7.73216e-09)
(0.180043 -4.01299e-09 2.81025e-09)
(0.183747 -1.64868e-09 5.45008e-09)
(0.183747 4.06856e-09 -8.13851e-09)
(0.183748 -2.43678e-09 2.68574e-09)
(0.18673 -3.08815e-09 4.29984e-09)
(0.18673 9.85511e-10 -6.64194e-09)
(0.186731 2.07025e-09 2.34023e-09)
(0.189002 5.56785e-10 4.18317e-09)
(0.189003 -6.88642e-09 -3.82479e-09)
(0.189003 6.35321e-09 -3.64176e-10)
(0.190555 8.41567e-09 4.21217e-10)
(0.190555 -2.5349e-08 1.1486e-09)
(0.190556 1.69055e-08 -1.56468e-09)
(0.191503 1.77242e-08 -7.10574e-09)
(0.191503 -3.90335e-08 1.06927e-08)
(0.191502 2.13005e-08 -3.61311e-09)
(0.192024 1.00612e-08 -1.11727e-08)
(0.192023 -1.81982e-08 1.75854e-08)
(0.192022 8.14985e-09 -6.4398e-09)
(0.192024 -9.93426e-09 -1.12043e-08)
(0.192023 1.79598e-08 1.76122e-08)
(0.192022 -8.04377e-09 -6.43517e-09)
(0.191503 -1.77157e-08 -7.11408e-09)
(0.191502 3.88618e-08 1.07205e-08)
(0.191502 -2.11466e-08 -3.63253e-09)
(0.190554 -8.10879e-09 4.15367e-10)
(0.190554 2.47302e-08 1.16385e-09)
(0.190554 -1.66084e-08 -1.57418e-09)
(0.189 -6.00877e-10 4.09185e-09)
(0.189 6.76225e-09 -3.9598e-09)
(0.189001 -6.20817e-09 -1.37331e-10)
(0.186726 3.00163e-09 4.18691e-09)
(0.186727 -1.37748e-09 -6.42496e-09)
(0.186727 -1.62632e-09 2.23617e-09)
(0.183744 1.66908e-09 5.28661e-09)
(0.183744 -3.82514e-09 -7.84423e-09)
(0.183745 2.1319e-09 2.55526e-09)
(0.180038 -5.60676e-09 4.68434e-09)
(0.180038 1.32974e-09 -7.42281e-09)
(0.180039 4.25804e-09 2.73116e-09)
(0.175601 -1.31411e-08 3.98539e-09)
(0.175601 6.61775e-09 -5.7582e-09)
(0.175602 6.55911e-09 1.76794e-09)
(0.170386 -2.55437e-08 3.08705e-09)
(0.170387 2.00132e-08 -4.0529e-09)
(0.170387 5.54661e-09 9.59145e-10)
(0.164232 -4.5972e-08 1.81041e-09)
(0.164232 3.94851e-08 -6.13506e-10)
(0.164232 6.54743e-09 -1.19645e-09)
(0.156947 -6.27648e-08 -2.98931e-10)
(0.156947 6.11886e-08 3.81975e-09)
(0.156947 1.81068e-09 -3.52326e-09)
(0.148246 -6.76947e-08 -3.61961e-09)
(0.148245 6.71407e-08 9.82866e-09)
(0.148244 5.2379e-10 -6.19665e-09)
(0.137521 -3.3744e-08 -5.42567e-09)
(0.137519 3.22334e-08 1.42025e-08)
(0.137519 1.68466e-09 -8.76157e-09)
(0.123225 -3.65472e-09 -4.51099e-09)
(0.123223 1.36642e-08 1.29754e-08)
(0.123222 -9.75058e-09 -8.44212e-09)
(0.0570164 2.56144e-09 -7.38507e-10)
(0.0570164 8.77504e-09 1.91497e-09)
(0.0570161 -1.14318e-08 -1.17692e-09)
(0.0831299 -2.06083e-09 -1.78184e-09)
(0.0831299 -8.85784e-09 3.98143e-09)
(0.0831297 1.09373e-08 -2.19054e-09)
(0.155999 4.36798e-09 -7.96321e-09)
(0.155998 -1.48696e-08 2.01278e-08)
(0.155997 9.94676e-09 -1.21337e-08)
(0.172647 3.55226e-08 -9.37893e-09)
(0.172646 -3.14506e-08 2.2275e-08)
(0.172645 -4.47377e-09 -1.28878e-08)
(0.184624 7.00959e-08 -6.2196e-09)
(0.184624 -6.62765e-08 1.48701e-08)
(0.184623 -3.97966e-09 -8.64624e-09)
(0.194229 6.40218e-08 -1.11345e-09)
(0.194228 -5.80521e-08 4.8186e-09)
(0.194228 -6.38817e-09 -3.70972e-09)
(0.202219 4.69868e-08 3.25166e-09)
(0.202219 -3.93236e-08 -2.45101e-09)
(0.20222 -7.85387e-09 -8.0898e-10)
(0.20894 2.56627e-08 5.89839e-09)
(0.20894 -1.89438e-08 -7.7302e-09)
(0.20894 -6.83661e-09 1.82574e-09)
(0.214612 1.30323e-08 7.00552e-09)
(0.214613 -6.23024e-09 -9.92831e-09)
(0.214613 -6.91946e-09 2.91888e-09)
(0.219418 5.40371e-09 8.01558e-09)
(0.219419 -1.18368e-09 -1.19569e-08)
(0.219419 -4.26251e-09 3.9323e-09)
(0.223407 -1.86381e-09 8.35968e-09)
(0.223407 4.19514e-09 -1.23629e-08)
(0.223408 -2.35307e-09 3.9981e-09)
(0.226584 -3.11203e-09 6.65692e-09)
(0.226585 9.43697e-10 -1.00611e-08)
(0.226585 2.12923e-09 3.39689e-09)
(0.228957 8.37561e-10 6.22057e-09)
(0.228958 -7.37121e-09 -6.34574e-09)
(0.228958 6.56138e-09 1.23124e-10)
(0.230516 9.18852e-09 9.7037e-10)
(0.230516 -2.57641e-08 3.64699e-10)
(0.230516 1.65428e-08 -1.33606e-09)
(0.23139 1.90971e-08 -7.90804e-09)
(0.231389 -3.92835e-08 1.35664e-08)
(0.231389 2.01764e-08 -5.6464e-09)
(0.231878 1.05889e-08 -1.37502e-08)
(0.231877 -1.83508e-08 2.34023e-08)
(0.231876 7.77717e-09 -9.62789e-09)
(0.231878 -1.04548e-08 -1.3797e-08)
(0.231877 1.81091e-08 2.34458e-08)
(0.231876 -7.67604e-09 -9.62454e-09)
(0.231389 -1.90804e-08 -7.9268e-09)
(0.231389 3.91072e-08 1.36317e-08)
(0.231388 -2.00279e-08 -5.69279e-09)
(0.230515 -8.89969e-09 9.53973e-10)
(0.230515 2.53151e-08 4.23045e-10)
(0.230515 -1.64003e-08 -1.37772e-09)
(0.228955 -8.56762e-10 6.07992e-09)
(0.228955 7.1795e-09 -6.50313e-09)
(0.228956 -6.37827e-09 4.21003e-10)
(0.22658 3.04094e-09 6.487e-09)
(0.22658 -1.34707e-09 -9.73849e-09)
(0.226581 -1.69707e-09 3.24447e-09)
(0.223403 1.86316e-09 8.12509e-09)
(0.223404 -3.94142e-09 -1.19293e-08)
(0.223404 2.04939e-09 3.79983e-09)
(0.219413 -5.49844e-09 7.64053e-09)
(0.219414 9.62195e-10 -1.15407e-08)
(0.219414 4.51444e-09 3.89174e-09)
(0.214606 -1.30996e-08 6.70958e-09)
(0.214606 5.9889e-09 -9.36271e-09)
(0.214606 7.15347e-09 2.64976e-09)
(0.208929 -2.59936e-08 5.4737e-09)
(0.20893 1.94588e-08 -7.11315e-09)
(0.20893 6.55545e-09 1.63372e-09)
(0.202204 -4.60211e-08 3.22579e-09)
(0.202204 3.86412e-08 -1.84428e-09)
(0.202205 7.45427e-09 -1.38678e-09)
(0.19421 -6.46842e-08 -4.70306e-10)
(0.194209 5.91642e-08 5.34848e-09)
(0.194209 5.79484e-09 -4.87962e-09)
(0.184605 -6.99601e-08 -6.31827e-09)
(0.184604 6.63436e-08 1.54826e-08)
(0.184604 3.58588e-09 -9.15814e-09)
(0.172631 -3.51979e-08 -9.51814e-09)
(0.172629 3.21891e-08 2.27722e-08)
(0.172629 3.21371e-09 -1.32457e-08)
(0.155986 -4.64764e-09 -8.12828e-09)
(0.155985 1.53978e-08 2.06438e-08)
(0.155985 -1.04476e-08 -1.24926e-08)
(0.0831232 2.02828e-09 -1.80994e-09)
(0.0831231 8.9416e-09 4.02922e-09)
(0.0831229 -1.10832e-08 -2.21755e-09)
(0.102708 -1.89157e-09 -3.10896e-09)
(0.102708 -7.08672e-09 6.55945e-09)
(0.102708 8.96984e-09 -3.41987e-09)
(0.175654 4.48547e-09 -1.10566e-08)
(0.175654 -1.48565e-08 2.57899e-08)
(0.175654 9.78095e-09 -1.46926e-08)
(0.194469 3.49854e-08 -1.34604e-08)
(0.194468 -2.99163e-08 2.97673e-08)
(0.194468 -5.50152e-09 -1.63116e-08)
(0.207511 6.83689e-08 -8.71878e-09)
(0.207511 -6.26002e-08 1.97948e-08)
(0.207511 -5.94721e-09 -1.10774e-08)
(0.217855 6.31198e-08 -1.07373e-09)
(0.217855 -5.33817e-08 5.67836e-09)
(0.217855 -1.01877e-08 -4.61202e-09)
(0.226423 4.48413e-08 5.00591e-09)
(0.226423 -3.7842e-08 -4.43899e-09)
(0.226423 -7.20992e-09 -5.79707e-10)
(0.233613 2.49972e-08 8.72158e-09)
(0.233613 -1.79714e-08 -1.14518e-08)
(0.233613 -7.15632e-09 2.72487e-09)
(0.239677 1.25405e-08 1.01213e-08)
(0.239677 -5.6199e-09 -1.39985e-08)
(0.239678 -7.04933e-09 3.87606e-09)
(0.244816 5.13658e-09 1.12505e-08)
(0.244817 -9.4068e-10 -1.63227e-08)
(0.244817 -4.24332e-09 5.06694e-09)
(0.249091 -1.94449e-09 1.15982e-08)
(0.249091 4.05438e-09 -1.66893e-08)
(0.249091 -2.13386e-09 5.08987e-09)
(0.252509 -3.06057e-09 9.05954e-09)
(0.252509 9.86059e-10 -1.37343e-08)
(0.25251 2.03206e-09 4.67281e-09)
(0.255081 9.12271e-10 8.3919e-09)
(0.255082 -7.27872e-09 -9.47542e-09)
(0.255082 6.39661e-09 1.08455e-09)
(0.256794 8.99283e-09 1.8164e-09)
(0.256795 -2.37165e-08 -1.02611e-09)
(0.256795 1.46881e-08 -7.92639e-10)
(0.257781 1.90954e-08 -8.2969e-09)
(0.25778 -3.69089e-08 1.63018e-08)
(0.25778 1.78027e-08 -7.99755e-09)
(0.258328 1.03683e-08 -1.72983e-08)
(0.258327 -1.73896e-08 3.05026e-08)
(0.258326 7.03808e-09 -1.31938e-08)
(0.258328 -1.02364e-08 -1.73693e-08)
(0.258327 1.71591e-08 3.05661e-08)
(0.258326 -6.94664e-09 -1.31863e-08)
(0.25778 -1.90745e-08 -8.33103e-09)
(0.257779 3.67439e-08 1.6414e-08)
(0.257779 -1.76709e-08 -8.07544e-09)
(0.256793 -8.74021e-09 1.79391e-09)
(0.256793 2.33483e-08 -9.30025e-10)
(0.256793 -1.45918e-08 -8.65845e-10)
(0.255078 -9.06884e-10 8.23786e-09)
(0.255078 6.97378e-09 -9.57538e-09)
(0.255079 -6.12747e-09 1.3386e-09)
(0.252504 2.99636e-09 8.83919e-09)
(0.252504 -1.3611e-09 -1.33012e-08)
(0.252504 -1.63922e-09 4.46027e-09)
(0.249086 1.93035e-09 1.12884e-08)
(0.249086 -3.81885e-09 -1.61324e-08)
(0.249087 1.85693e-09 4.84357e-09)
(0.24481 -5.23692e-09 1.07121e-08)
(0.24481 7.33833e-10 -1.58463e-08)
(0.244811 4.47992e-09 5.12956e-09)
(0.239668 -1.26032e-08 9.71094e-09)
(0.239668 5.41092e-09 -1.32936e-08)
(0.239669 7.23889e-09 3.58246e-09)
(0.233601 -2.53317e-08 8.20972e-09)
(0.233601 1.84877e-08 -1.07003e-08)
(0.233601 6.86762e-09 2.48615e-09)
(0.226406 -4.48418e-08 4.94357e-09)
(0.226406 3.81387e-08 -3.70672e-09)
(0.226406 6.78559e-09 -1.24661e-09)
(0.217834 -6.34915e-08 -4.91574e-10)
(0.217834 5.45134e-08 6.31514e-09)
(0.217834 9.27005e-09 -5.82614e-09)
(0.207489 -6.84233e-08 -8.80155e-09)
(0.207489 6.26099e-08 2.05537e-08)
(0.207489 5.7841e-09 -1.17508e-08)
(0.19445 -3.4718e-08 -1.36538e-08)
(0.19445 3.06236e-08 3.0354e-08)
(0.194449 4.31027e-09 -1.67035e-08)
(0.175639 -4.81029e-09 -1.12685e-08)
(0.175639 1.54329e-08 2.64091e-08)
(0.175639 -1.03068e-08 -1.5112e-08)
(0.102701 1.85032e-09 -3.17111e-09)
(0.102701 7.13328e-09 6.64592e-09)
(0.1027 -9.09397e-09 -3.46945e-09)
(0.118591 -2.3354e-09 -4.66983e-09)
(0.118591 -4.02498e-09 9.5201e-09)
(0.118591 6.32402e-09 -4.79681e-09)
(0.189498 3.94119e-09 -1.35757e-08)
(0.189498 -1.34757e-08 2.94936e-08)
(0.189498 8.93897e-09 -1.58585e-08)
(0.210279 3.41224e-08 -1.69674e-08)
(0.210278 -2.79685e-08 3.56641e-08)
(0.210278 -6.59644e-09 -1.87198e-08)
(0.224349 6.57137e-08 -1.10105e-08)
(0.224349 -5.82475e-08 2.36593e-08)
(0.224349 -7.65487e-09 -1.2653e-08)
(0.235385 6.20849e-08 -7.568e-10)
(0.235385 -4.82506e-08 5.68773e-09)
(0.235385 -1.42982e-08 -4.93853e-09)
(0.24448 4.30221e-08 7.01617e-09)
(0.24448 -3.64182e-08 -6.87221e-09)
(0.24448 -6.82742e-09 -1.63377e-10)
(0.252092 2.41325e-08 1.17682e-08)
(0.252092 -1.70755e-08 -1.54936e-08)
(0.252092 -7.19601e-09 3.71895e-09)
(0.258505 1.20115e-08 1.33386e-08)
(0.258505 -5.13074e-09 -1.816e-08)
(0.258506 -7.01673e-09 4.82095e-09)
(0.263943 4.8667e-09 1.46308e-08)
(0.263943 -7.42039e-10 -2.05989e-08)
(0.263944 -4.17556e-09 5.96317e-09)
(0.268474 -1.98813e-09 1.47714e-08)
(0.268474 3.91051e-09 -2.0819e-08)
(0.268475 -1.94761e-09 6.04856e-09)
(0.272112 -3.02332e-09 1.17678e-08)
(0.272112 1.09938e-09 -1.72733e-08)
(0.272112 1.87954e-09 5.50486e-09)
(0.274871 8.29424e-10 1.08692e-08)
(0.274872 -6.76948e-09 -1.27606e-08)
(0.274872 5.97175e-09 1.89232e-09)
(0.276733 8.365e-09 3.05931e-09)
(0.276733 -2.06594e-08 -2.61054e-09)
(0.276733 1.22569e-08 -4.49705e-10)
(0.277827 1.86013e-08 -8.67921e-09)
(0.277827 -3.32801e-08 1.90854e-08)
(0.277827 1.46675e-08 -1.04073e-08)
(0.27843 9.79872e-09 -2.10212e-08)
(0.278429 -1.59036e-08 3.74504e-08)
(0.278429 6.12266e-09 -1.64305e-08)
(0.27843 -9.67322e-09 -2.1123e-08)
(0.278429 1.5691e-08 3.75283e-08)
(0.278429 -6.0432e-09 -1.64066e-08)
(0.277826 -1.85772e-08 -8.72801e-09)
(0.277826 3.31352e-08 1.92403e-08)
(0.277826 -1.45597e-08 -1.05131e-08)
(0.276731 -8.15683e-09 3.03139e-09)
(0.276731 2.04576e-08 -2.49893e-09)
(0.276731 -1.22836e-08 -5.32932e-10)
(0.274867 -8.09524e-10 1.06528e-08)
(0.274868 6.40229e-09 -1.27707e-08)
(0.274868 -5.65661e-09 2.11937e-09)
(0.272105 2.95908e-09 1.14948e-08)
(0.272106 -1.43154e-09 -1.67646e-08)
(0.272106 -1.53211e-09 5.2696e-09)
(0.268468 1.96291e-09 1.44077e-08)
(0.268468 -3.70296e-09 -2.01831e-08)
(0.268469 1.7067e-09 5.7776e-09)
(0.263935 -4.98003e-09 1.39826e-08)
(0.263936 5.82168e-10 -2.00973e-08)
(0.263936 4.37407e-09 6.11036e-09)
(0.258495 -1.20659e-08 1.28754e-08)
(0.258495 4.96473e-09 -1.73818e-08)
(0.258496 7.15007e-09 4.50765e-09)
(0.252078 -2.44606e-08 1.12153e-08)
(0.252078 1.75689e-08 -1.46798e-08)
(0.252079 6.91753e-09 3.45987e-09)
(0.244461 -4.34821e-08 6.91849e-09)
(0.244461 3.7332e-08 -6.11528e-09)
(0.244461 6.23803e-09 -8.18846e-10)
(0.235362 -6.19664e-08 -2.02293e-10)
(0.235362 4.92668e-08 6.31714e-09)
(0.235362 1.29973e-08 -6.11614e-09)
(0.224325 -6.60328e-08 -1.09873e-08)
(0.224325 5.82106e-08 2.45067e-08)
(0.224325 7.79416e-09 -1.35184e-08)
(0.210258 -3.38917e-08 -1.71934e-08)
(0.210257 2.85857e-08 3.62657e-08)
(0.210257 5.5222e-09 -1.90921e-08)
(0.189481 -4.28729e-09 -1.38241e-08)
(0.189481 1.40839e-08 3.01613e-08)
(0.189481 -9.48205e-09 -1.62941e-08)
(0.118582 2.29323e-09 -4.77171e-09)
(0.118582 4.03576e-09 9.65847e-09)
(0.118582 -6.42502e-09 -4.8767e-09)
(0.13267 -3.41806e-09 -6.41425e-09)
(0.13267 1.73256e-10 1.2762e-08)
(0.13267 3.18304e-09 -6.26672e-09)
(0.200292 2.82317e-09 -1.51601e-08)
(0.200292 -1.04465e-08 3.0325e-08)
(0.200292 7.03863e-09 -1.50781e-08)
(0.222745 3.34181e-08 -1.9719e-08)
(0.222745 -2.55837e-08 3.8448e-08)
(0.222745 -8.27521e-09 -1.87625e-08)
(0.237817 6.30169e-08 -1.25647e-08)
(0.237817 -5.34439e-08 2.54592e-08)
(0.237817 -9.76578e-09 -1.28969e-08)
(0.249526 6.1313e-08 -3.84613e-11)
(0.249526 -4.56534e-08 5.36138e-09)
(0.249526 -1.6127e-08 -5.32717e-09)
(0.259124 4.15603e-08 9.17719e-09)
(0.259124 -3.46678e-08 -9.45428e-09)
(0.259124 -7.12459e-09 2.49668e-10)
(0.267132 2.33068e-08 1.48357e-08)
(0.267133 -1.63229e-08 -1.95612e-08)
(0.267133 -7.12854e-09 4.71695e-09)
(0.273869 1.15556e-08 1.64919e-08)
(0.273869 -4.73593e-09 -2.22467e-08)
(0.27387 -6.96034e-09 5.75346e-09)
(0.27958 4.63534e-09 1.78091e-08)
(0.27958 -5.52098e-10 -2.45822e-08)
(0.279581 -4.13677e-09 6.76639e-09)
(0.284346 -2.02889e-09 1.78574e-08)
(0.284346 3.86644e-09 -2.46308e-08)
(0.284347 -1.86363e-09 6.77509e-09)
(0.288187 -3.02271e-09 1.43231e-08)
(0.288187 1.26176e-09 -2.04015e-08)
(0.288187 1.71539e-09 6.07651e-09)
(0.291121 6.33654e-10 1.31704e-08)
(0.291121 -6.06508e-09 -1.60288e-08)
(0.291122 5.46415e-09 2.85864e-09)
(0.293122 7.6189e-09 4.78848e-09)
(0.293122 -1.83087e-08 -4.42709e-09)
(0.293123 1.0651e-08 -3.61296e-10)
(0.294318 1.81295e-08 -8.50743e-09)
(0.294317 -2.8807e-08 2.02757e-08)
(0.294318 1.06659e-08 -1.17689e-08)
(0.294971 9.02865e-09 -2.38503e-08)
(0.29497 -1.40264e-08 4.26079e-08)
(0.29497 5.01639e-09 -1.87649e-08)
(0.29497 -8.91188e-09 -2.39812e-08)
(0.29497 1.38366e-08 4.26894e-08)
(0.29497 -4.95115e-09 -1.87157e-08)
(0.294316 -1.81003e-08 -8.56973e-09)
(0.294316 2.86882e-08 2.04512e-08)
(0.294316 -1.05899e-08 -1.18817e-08)
(0.29312 -7.44909e-09 4.76832e-09)
(0.29312 1.82251e-08 -4.34196e-09)
(0.29312 -1.07584e-08 -4.25616e-10)
(0.291116 -6.13525e-10 1.29413e-08)
(0.291116 5.71352e-09 -1.59306e-08)
(0.291117 -5.16607e-09 2.99056e-09)
(0.288179 2.95373e-09 1.40171e-08)
(0.288179 -1.55095e-09 -1.98589e-08)
(0.28818 -1.40789e-09 5.8407e-09)
(0.284339 1.99336e-09 1.74564e-08)
(0.284339 -3.68707e-09 -2.39553e-08)
(0.28434 1.65915e-09 6.50219e-09)
(0.279571 -4.76561e-09 1.70744e-08)
(0.279571 4.66635e-10 -2.40658e-08)
(0.279572 4.27509e-09 6.98536e-09)
(0.273858 -1.15934e-08 1.60012e-08)
(0.273858 4.62689e-09 -2.14441e-08)
(0.273858 7.01685e-09 5.44401e-09)
(0.267117 -2.36249e-08 1.42847e-08)
(0.267117 1.67682e-08 -1.87434e-08)
(0.267117 6.88424e-09 4.45314e-09)
(0.259103 -4.22013e-08 9.06814e-09)
(0.259103 3.58445e-08 -8.74676e-09)
(0.259103 6.4487e-09 -3.43787e-10)
(0.2495 -6.12645e-08 4.41693e-10)
(0.2495 4.65558e-08 5.95982e-09)
(0.249501 1.50053e-08 -6.3972e-09)
(0.237791 -6.37338e-08 -1.24995e-08)
(0.237791 5.34189e-08 2.63063e-08)
(0.237791 1.02878e-08 -1.38001e-08)
(0.222722 -3.32127e-08 -1.99706e-08)
(0.222722 2.60613e-08 3.89843e-08)
(0.222722 7.36277e-09 -1.9042e-08)
(0.200273 -3.17964e-09 -1.54462e-08)
(0.200273 1.10713e-08 3.11128e-08)
(0.200273 -7.58618e-09 -1.56014e-08)
(0.13266 3.37916e-09 -6.56803e-09)
(0.13266 -1.8128e-10 1.29686e-08)
(0.13266 -3.27379e-09 -6.38452e-09)
(0.145839 -5.02414e-09 -8.19388e-09)
(0.145839 4.98221e-09 1.61214e-08)
(0.145839 -3.82592e-11 -7.81646e-09)
(0.209361 1.11747e-09 -1.59006e-08)
(0.209361 -6.51175e-09 3.03634e-08)
(0.209361 4.8347e-09 -1.43448e-08)
(0.233133 3.00571e-08 -2.15035e-08)
(0.233133 -2.38428e-08 4.01587e-08)
(0.233133 -6.64263e-09 -1.8705e-08)
(0.249163 6.06259e-08 -1.34266e-08)
(0.249163 -5.12811e-08 2.65484e-08)
(0.249163 -9.53624e-09 -1.31207e-08)
(0.261542 5.77211e-08 9.91276e-10)
(0.261542 -4.50401e-08 4.48392e-09)
(0.261542 -1.31429e-08 -5.47617e-09)
(0.271638 4.05431e-08 1.13312e-08)
(0.271638 -3.27057e-08 -1.19022e-08)
(0.271638 -8.07487e-09 5.3428e-10)
(0.280033 2.26006e-08 1.77547e-08)
(0.280033 -1.57191e-08 -2.33604e-08)
(0.280033 -7.02989e-09 5.59484e-09)
(0.28708 1.12207e-08 1.94253e-08)
(0.28708 -4.41965e-09 -2.60439e-08)
(0.28708 -6.94468e-09 6.61617e-09)
(0.29305 4.46596e-09 2.05624e-08)
(0.29305 -3.61936e-10 -2.82911e-08)
(0.293051 -4.15959e-09 7.72005e-09)
(0.298037 -2.06737e-09 2.0534e-08)
(0.298038 3.90804e-09 -2.81709e-08)
(0.298038 -1.86724e-09 7.63908e-09)
(0.302068 -3.05793e-09 1.66477e-08)
(0.302068 1.45265e-09 -2.33304e-08)
(0.302068 1.55917e-09 6.68032e-09)
(0.305167 3.60285e-10 1.56593e-08)
(0.305167 -5.28866e-09 -1.92963e-08)
(0.305167 4.96178e-09 3.63677e-09)
(0.3073 6.88132e-09 6.97481e-09)
(0.3073 -1.67895e-08 -6.83698e-09)
(0.3073 9.86883e-09 -1.37509e-10)
(0.308588 1.78358e-08 -8.26903e-09)
(0.308588 -2.68222e-08 2.08327e-08)
(0.308588 8.97464e-09 -1.25622e-08)
(0.309287 8.15424e-09 -2.49988e-08)
(0.309287 -1.17368e-08 4.35878e-08)
(0.309286 3.60179e-09 -1.85953e-08)
(0.309286 -8.04718e-09 -2.51519e-08)
(0.309286 1.15739e-08 4.36681e-08)
(0.309286 -3.55404e-09 -1.85225e-08)
(0.308587 -1.7811e-08 -8.34567e-09)
(0.308587 2.67184e-08 2.10223e-08)
(0.308587 -8.90953e-09 -1.26747e-08)
(0.307296 -6.737e-09 6.95952e-09)
(0.307297 1.67258e-08 -6.74795e-09)
(0.307297 -9.97092e-09 -2.10271e-10)
(0.305161 -3.51563e-10 1.54015e-08)
(0.305161 4.98922e-09 -1.91032e-08)
(0.305162 -4.70519e-09 3.70277e-09)
(0.302059 2.98215e-09 1.63304e-08)
(0.302059 -1.70952e-09 -2.27801e-08)
(0.30206 -1.27822e-09 6.44853e-09)
(0.298029 2.02455e-09 2.01277e-08)
(0.298029 -3.7609e-09 -2.74838e-08)
(0.29803 1.70099e-09 7.36021e-09)
(0.29304 -4.61264e-09 1.9867e-08)
(0.29304 3.62711e-10 -2.77055e-08)
(0.29304 4.22636e-09 7.83103e-09)
(0.287067 -1.12279e-08 1.8938e-08)
(0.287067 4.38499e-09 -2.52571e-08)
(0.287068 6.89406e-09 6.31991e-09)
(0.280016 -2.29126e-08 1.72331e-08)
(0.280016 1.60965e-08 -2.25792e-08)
(0.280016 6.84483e-09 5.3397e-09)
(0.271615 -4.11711e-08 1.12525e-08)
(0.271615 3.38673e-08 -1.12955e-08)
(0.271615 7.39868e-09 1.29671e-11)
(0.261514 -5.81447e-08 1.40309e-09)
(0.261514 4.58252e-08 5.0008e-09)
(0.261514 1.26087e-08 -6.39357e-09)
(0.249135 -6.09977e-08 -1.32282e-08)
(0.249135 5.13661e-08 2.73881e-08)
(0.249135 9.60331e-09 -1.4147e-08)
(0.233108 -2.9954e-08 -2.1776e-08)
(0.233108 2.42469e-08 4.06107e-08)
(0.233109 5.90655e-09 -1.88765e-08)
(0.20934 -1.47452e-09 -1.62449e-08)
(0.20934 6.96359e-09 3.09354e-08)
(0.209341 -5.2006e-09 -1.46007e-08)
(0.145828 4.99957e-09 -8.41953e-09)
(0.145828 -4.98751e-09 1.63986e-08)
(0.145828 -6.76273e-11 -7.95739e-09)
(0.158366 -6.73746e-09 -9.66662e-09)
(0.158365 9.03794e-09 1.90276e-08)
(0.158365 -2.38806e-09 -9.22165e-09)
(0.217441 -1.24837e-09 -1.572e-08)
(0.217441 -5.75561e-10 2.77963e-08)
(0.217441 1.299e-09 -1.19246e-08)
(0.242153 2.70847e-08 -2.21417e-08)
(0.242153 -2.18057e-08 4.02915e-08)
(0.242153 -5.68676e-09 -1.82267e-08)
(0.259061 5.85699e-08 -1.32489e-08)
(0.259061 -5.06839e-08 2.60485e-08)
(0.259061 -8.06955e-09 -1.27985e-08)
(0.272106 5.57249e-08 2.52387e-09)
(0.272106 -4.56004e-08 2.95653e-09)
(0.272106 -1.05748e-08 -5.47845e-09)
(0.282705 4.02177e-08 1.33207e-08)
(0.282705 -3.10052e-08 -1.39728e-08)
(0.282705 -9.45246e-09 6.039e-10)
(0.29149 2.20615e-08 2.03323e-08)
(0.29149 -1.52826e-08 -2.65125e-08)
(0.29149 -6.92918e-09 6.16629e-09)
(0.298845 1.10538e-08 2.18816e-08)
(0.298845 -4.19576e-09 -2.93087e-08)
(0.298845 -7.00307e-09 7.42446e-09)
(0.305067 4.39059e-09 2.28069e-08)
(0.305067 -2.31034e-10 -3.15556e-08)
(0.305068 -4.21662e-09 8.73781e-09)
(0.310268 -2.08489e-09 2.27452e-08)
(0.310268 3.92634e-09 -3.1352e-08)
(0.310268 -1.86821e-09 8.61018e-09)
(0.31448 -3.11728e-09 1.88104e-08)
(0.31448 1.66261e-09 -2.60971e-08)
(0.31448 1.40852e-09 7.28408e-09)
(0.317737 3.50109e-11 1.80693e-08)
(0.317737 -4.43647e-09 -2.24969e-08)
(0.317737 4.43525e-09 4.42726e-09)
(0.319996 6.14839e-09 9.66217e-09)
(0.319996 -1.56273e-08 -9.8897e-09)
(0.319996 9.43921e-09 2.28206e-10)
(0.321371 1.46214e-08 -5.78013e-09)
(0.321371 -2.33879e-08 1.8325e-08)
(0.321371 8.75506e-09 -1.25471e-08)
(0.32211 7.32466e-09 -2.42144e-08)
(0.32211 -1.0303e-08 4.28605e-08)
(0.32211 2.99806e-09 -1.86488e-08)
(0.322109 -7.22642e-09 -2.43756e-08)
(0.322109 1.01535e-08 4.29417e-08)
(0.322109 -2.95503e-09 -1.8569e-08)
(0.321369 -1.46042e-08 -5.85926e-09)
(0.321369 2.33033e-08 1.85139e-08)
(0.321369 -8.70192e-09 -1.26561e-08)
(0.319992 -6.0211e-09 9.6442e-09)
(0.319992 1.55534e-08 -9.81427e-09)
(0.319992 -9.51444e-09 1.71972e-10)
(0.31773 -4.50214e-11 1.77879e-08)
(0.31773 4.2026e-09 -2.22419e-08)
(0.317731 -4.22597e-09 4.45528e-09)
(0.31447 3.0339e-09 1.84942e-08)
(0.31447 -1.89373e-09 -2.55531e-08)
(0.314471 -1.14618e-09 7.05785e-09)
(0.310258 2.04143e-09 2.23624e-08)
(0.310258 -3.82421e-09 -3.06748e-08)
(0.310259 1.74695e-09 8.31786e-09)
(0.305056 -4.54588e-09 2.21762e-08)
(0.305056 2.94978e-10 -3.08513e-08)
(0.305056 4.22802e-09 8.66649e-09)
(0.29883 -1.10029e-08 2.144e-08)
(0.29883 4.24676e-09 -2.85726e-08)
(0.298831 6.80771e-09 7.1341e-09)
(0.291471 -2.23841e-08 1.98554e-08)
(0.291471 1.55788e-08 -2.58056e-08)
(0.291471 6.83496e-09 5.94233e-09)
(0.282681 -4.06636e-08 1.33053e-08)
(0.282681 3.19459e-08 -1.3472e-08)
(0.282681 8.81442e-09 1.26955e-10)
(0.272077 -5.63627e-08 2.91797e-09)
(0.272077 4.63299e-08 3.36117e-09)
(0.272077 1.03105e-08 -6.26249e-09)
(0.259031 -5.88027e-08 -1.31086e-08)
(0.259031 5.09303e-08 2.68472e-08)
(0.259031 7.83983e-09 -1.37244e-08)
(0.242126 -2.70875e-08 -2.24403e-08)
(0.242127 2.22017e-08 4.07413e-08)
(0.242127 5.0695e-09 -1.83679e-08)
(0.217418 8.67868e-10 -1.60402e-08)
(0.217419 8.43776e-10 2.82554e-08)
(0.217419 -1.44464e-09 -1.20998e-08)
(0.158353 6.74289e-09 -1.00078e-08)
(0.158353 -9.0265e-09 1.94444e-08)
(0.158353 2.24417e-09 -9.41587e-09)
(0.170239 -7.946e-09 -1.02014e-08)
(0.170239 1.05887e-08 1.96476e-08)
(0.170239 -2.71866e-09 -9.27545e-09)
(0.225049 -4.22652e-09 -1.49147e-08)
(0.225049 6.97259e-09 2.54445e-08)
(0.22505 -3.22503e-09 -1.03379e-08)
(0.25026 2.39514e-08 -2.17569e-08)
(0.25026 -1.82684e-08 3.85089e-08)
(0.250261 -6.06266e-09 -1.68491e-08)
(0.267919 5.65472e-08 -1.1968e-08)
(0.267919 -5.04745e-08 2.39798e-08)
(0.267919 -6.24138e-09 -1.20123e-08)
(0.281615 5.46162e-08 4.54247e-09)
(0.281615 -4.68413e-08 6.03603e-10)
(0.281615 -8.20733e-09 -5.14161e-09)
(0.292727 4.10554e-08 1.52489e-08)
(0.292727 -3.04405e-08 -1.58605e-08)
(0.292727 -1.08546e-08 5.50631e-10)
(0.30191 2.17441e-08 2.24079e-08)
(0.30191 -1.51395e-08 -2.85597e-08)
(0.30191 -6.75492e-09 6.13299e-09)
(0.309578 1.11589e-08 2.37571e-08)
(0.309578 -4.12288e-09 -3.15976e-08)
(0.309579 -7.18083e-09 7.83532e-09)
(0.316054 4.46185e-09 2.427e-08)
(0.316054 -2.80041e-10 -3.34384e-08)
(0.316054 -4.23981e-09 9.15272e-09)
(0.321465 -2.06524e-09 2.42392e-08)
(0.321465 3.78e-09 -3.36193e-08)
(0.321465 -1.7413e-09 9.38375e-09)
(0.325855 -3.19261e-09 2.04407e-08)
(0.325855 1.87699e-09 -2.84822e-08)
(0.325855 1.26992e-09 8.03884e-09)
(0.329266 -3.11316e-10 2.03445e-08)
(0.329266 -3.55009e-09 -2.55771e-08)
(0.329266 3.89537e-09 5.2335e-09)
(0.331647 5.36739e-09 1.26286e-08)
(0.331647 -1.43858e-08 -1.35269e-08)
(0.331647 8.97878e-09 9.00075e-10)
(0.333104 1.22538e-08 -2.86598e-09)
(0.333104 -2.08454e-08 1.44531e-08)
(0.333104 8.58052e-09 -1.15924e-08)
(0.333879 6.57502e-09 -2.13068e-08)
(0.33388 -9.35046e-09 3.93098e-08)
(0.33388 2.79565e-09 -1.80056e-08)
(0.333879 -6.48458e-09 -2.14663e-08)
(0.333879 9.20291e-09 3.93815e-08)
(0.333879 -2.74692e-09 -1.79178e-08)
(0.333101 -1.22363e-08 -2.94726e-09)
(0.333102 2.0756e-08 1.46285e-08)
(0.333102 -8.52299e-09 -1.16857e-08)
(0.331642 -5.25534e-09 1.25954e-08)
(0.331642 1.43285e-08 -1.34203e-08)
(0.331643 -9.05539e-09 8.28154e-10)
(0.329259 2.79882e-10 2.00474e-08)
(0.329259 3.37795e-09 -2.52894e-08)
(0.329259 -3.72653e-09 5.24496e-09)
(0.325844 3.10064e-09 2.01456e-08)
(0.325844 -2.0781e-09 -2.79654e-08)
(0.325845 -1.02891e-09 7.81966e-09)
(0.321455 2.02712e-09 2.3906e-08)
(0.321455 -3.73473e-09 -3.30125e-08)
(0.321455 1.6715e-09 9.11295e-09)
(0.316041 -4.61646e-09 2.377e-08)
(0.316041 3.37304e-10 -3.28228e-08)
(0.316041 4.25714e-09 9.04053e-09)
(0.309563 -1.0987e-08 2.33874e-08)
(0.309563 4.24739e-09 -3.09667e-08)
(0.309563 6.79091e-09 7.5798e-09)
(0.30189 -2.21214e-08 2.19788e-08)
(0.30189 1.53394e-08 -2.79433e-08)
(0.30189 6.81194e-09 5.95342e-09)
(0.292701 -4.11281e-08 1.52088e-08)
(0.292701 3.11769e-08 -1.54892e-08)
(0.292701 1.00485e-08 2.29978e-10)
(0.281584 -5.53445e-08 4.96631e-09)
(0.281585 4.76153e-08 8.87471e-10)
(0.281585 7.99164e-09 -5.8311e-09)
(0.267887 -5.67773e-08 -1.17946e-08)
(0.267887 5.08417e-08 2.47187e-08)
(0.267887 5.89483e-09 -1.29093e-08)
(0.250232 -2.40673e-08 -2.1979e-08)
(0.250232 1.85762e-08 3.8827e-08)
(0.250233 5.65547e-09 -1.69334e-08)
(0.225026 3.99182e-09 -1.52415e-08)
(0.225026 -6.89587e-09 2.57914e-08)
(0.225026 3.14364e-09 -1.04026e-08)
(0.170225 7.97829e-09 -1.05972e-08)
(0.170225 -1.0423e-08 1.97917e-08)
(0.170225 2.40813e-09 -9.17299e-09)
(0.181423 -8.39468e-09 -9.58729e-09)
(0.181423 1.02168e-08 1.82767e-08)
(0.181423 -1.8565e-09 -8.47578e-09)
(0.23255 -7.76022e-09 -1.40062e-08)
(0.23255 1.22505e-08 2.22411e-08)
(0.23255 -4.91113e-09 -8.00409e-09)
(0.257773 2.03226e-08 -2.04768e-08)
(0.257773 -1.3086e-08 3.58069e-08)
(0.257774 -7.58074e-09 -1.54425e-08)