/*--------------------------------*- C++ -*----------------------------------*\
  =========                 |
  \\      /  F ield         | OpenFOAM: The Open Source CFD Toolbox
   \\    /   O peration     | Website:  https://openfoam.org
    \\  /    A nd           | Version:  6
     \\/     M anipulation  |
\*---------------------------------------------------------------------------*/
FoamFile
{
    version     2.0;
    format      ascii;
    class       volScalarField;
    location    "47";
    object      yPlus;
}
// * * * * * * * * * * * * * * * * * * * * * * * * * * * * * * * * * * * * * //

dimensions      [0 0 0 0 0 0 0];

internalField   uniform 0;

boundaryField
{
    inlet
    {
        type            calculated;
        value           uniform 0;
    }
    outlet
    {
        type            calculated;
        value           uniform 0;
    }
    roughCylinder
    {
        type            calculated;
        value           nonuniform List<scalar> 
5120
(
42.7377
50.5103
56.686
62.6989
67.8415
71.9856
75.2929
77.9578
80.1355
81.9627
83.559
84.9895
86.2928
87.5002
88.6418
89.7473
90.8464
91.9659
93.1279
94.3485
95.6361
96.9924
98.4142
99.8942
101.423
102.986
104.568
106.145
107.678
109.098
110.262
110.943
42.0653
49.5526
55.5315
61.4075
66.4785
70.5873
73.8754
76.5317
78.7096
80.5439
82.1474
83.5801
84.8734
86.0656
87.1886
88.2728
89.3483
90.4431
91.5797
92.7734
94.0327
95.3595
96.7504
98.1979
99.6923
101.22
102.766
104.307
105.803
107.189
108.324
108.988
41.2931
48.5388
54.337
60.0811
65.0847
69.1651
72.4433
75.101
77.2893
79.139
80.7545
82.1909
83.4781
84.6591
85.7656
86.8299
87.8838
88.9552
90.0663
91.2336
92.4653
93.7631
95.1233
96.539
97.9997
99.4929
101.003
102.506
103.967
105.318
106.425
107.071
40.5329
47.5403
53.1524
58.7559
63.6865
67.7378
71.0084
73.6731
75.881
77.7548
79.3875
80.8307
82.1174
83.2879
84.38
85.4267
86.46
87.509
88.5972
89.7395
90.9445
92.214
93.5446
94.9286
96.3562
97.8152
99.2888
100.756
102.181
103.498
104.577
105.205
39.6815
46.473
51.9036
57.369
62.2346
66.2713
69.5522
72.2408
74.4796
76.3826
78.0358
79.49
80.7814
81.9475
83.0296
84.0612
85.0771
86.1064
87.1716
88.29
89.4699
90.7125
92.0143
93.3682
94.7638
96.1886
97.6283
99.0602
100.45
101.734
102.785
103.396
38.8755
45.4415
50.6778
55.9929
60.7871
64.8081
68.0995
70.8124
73.0849
75.023
76.7028
78.1735
79.4734
80.6403
81.7147
82.7347
83.7346
84.7452
85.7915
86.8882
88.0439
89.2606
90.535
91.8591
93.2234
94.6151
96.0202
97.417
98.7721
100.023
101.047
101.641
37.952
44.3104
49.3521
54.5155
59.2457
63.2703
66.5988
69.3617
71.6843
73.6632
75.3726
76.864
78.1784
79.3546
80.4293
81.4422
82.4308
83.4272
84.4541
85.5299
86.6635
87.8561
89.1036
90.3996
91.7334
93.0935
94.4651
95.8282
97.1494
98.3692
99.3674
99.944
37.0982
43.233
48.0644
53.0601
57.7171
61.7423
65.1038
67.9084
70.2767
72.302
74.0505
75.5717
76.9073
78.0956
79.1758
80.1855
81.1656
82.1483
83.1615
84.2201
85.3327
86.5017
87.7245
88.9923
90.2964
91.6242
92.9628
94.2915
95.5797
96.7671
97.7392
98.2987
36.0752
42.0016
46.6147
51.4326
56.017
60.063
63.4955
66.3869
68.8354
70.9211
72.714
74.2695
75.6321
76.8426
77.9365
78.9539
79.9318
80.9092
81.9079
82.9494
84.0435
85.1916
86.3892
87.631
88.906
90.203
91.5093
92.8056
94.0602
95.2187
96.1651
96.7079
35.1361
40.8352
45.2168
49.8382
54.3371
58.3989
61.8938
64.8516
67.3628
69.5145
71.3667
72.971
74.3727
75.6093
76.7213
77.7464
78.7285
79.7003
80.6928
81.7229
82.7997
83.9267
85.1023
86.3168
87.5631
88.8288
90.1017
91.3642
92.5862
93.7118
94.6332
95.1576
33.9326
39.421
43.555
47.9531
52.3485
56.4381
60.0476
63.1541
65.8043
68.055
69.9793
71.6392
73.0844
74.3598
75.5005
76.5483
77.5396
78.5177
79.5034
80.5217
81.5846
82.6941
83.8454
85.0353
86.2525
87.4867
88.728
89.9574
91.1459
92.2438
93.1394
93.6475
32.7948
38.0726
41.9539
46.115
50.3939
54.5064
58.2172
61.4299
64.1729
66.5279
68.5476
70.2865
71.7973
73.1189
74.2947
75.3624
76.3709
77.3507
78.3393
79.354
80.4041
81.4949
82.6273
83.7903
84.9792
86.1817
87.3884
88.5827
89.7391
90.8031
91.6745
92.1634
31.2667
36.3426
39.9287
43.7843
47.8805
51.9958
55.8728
59.3461
62.352
64.8851
67.0306
68.8646
70.4456
71.8294
73.0539
74.165
75.1957
76.1972
77.187
78.1949
79.2363
80.3141
81.423
82.5631
83.7229
84.8933
86.0681
87.23
88.3516
89.3896
90.2348
90.7067
29.7626
34.6568
37.9701
41.5301
45.4476
49.5708
53.592
57.2268
60.3705
63.0909
65.4056
67.3744
69.0668
70.5289
71.8141
72.9607
74.0281
75.0398
76.0439
77.0584
78.0925
79.1542
80.2482
81.3613
82.4927
83.6306
84.7686
85.8928
86.9825
87.984
88.8047
89.2554
27.6093
32.3268
35.2834
38.3883
41.9328
45.9369
50.1667
54.2849
57.9837
61.0488
63.6045
65.7509
67.5657
69.131
70.4947
71.7163
72.821
73.8763
74.8931
75.9066
76.9386
77.9928
79.0631
80.1549
81.2565
82.3599
83.4657
84.5576
85.6097
86.5859
87.3799
87.814
25.3083
29.9425
32.6574
35.4197
38.7001
42.6696
47.0614
51.3482
55.1928
58.6578
61.5561
63.9597
65.9791
67.6827
69.1524
70.4309
71.6039
72.6801
73.726
74.7613
75.793
76.8336
77.8942
78.9578
80.0298
81.099
82.1628
83.2115
84.2312
85.1669
85.9352
86.3438
21.5924
26.2113
28.4828
30.519
32.9173
36.2839
40.8801
46.304
51.5665
55.7061
59.1216
61.8993
64.1605
66.0548
67.6564
69.0665
70.2953
71.4482
72.5238
73.5639
74.6019
75.6425
76.6777
77.7212
78.761
79.7904
80.8216
81.8386
82.8141
83.7254
84.4668
84.8595
17.035
22.0562
24.6351
26.3752
28.614
32.1668
36.7908
41.5584
46.4804
51.8593
56.085
59.4338
62.1236
64.284
66.0884
67.5908
68.9484
70.1385
71.2635
72.3489
73.3964
74.4255
75.4581
76.4702
77.4773
78.4693
79.4483
80.411
81.3547
82.2179
82.9289
83.2875
6.94745
11.7958
12.7953
13.7438
13.4118
12.5702
18.2872
30.7481
40.6393
46.518
52.0955
56.3583
59.5985
62.1778
64.2285
65.9831
67.4203
68.7423
69.9262
71.0221
72.0871
73.127
74.1296
75.1219
76.092
77.0335
77.9792
78.9124
79.7982
80.6387
81.3235
81.6692
7.72969
10.2455
14.2739
15.3316
15.1688
15.8438
16.0622
10.7063
23.2497
39.0147
46.4026
52.2218
56.5326
59.6756
62.1703
64.0909
65.7954
67.1892
68.4543
69.638
70.7285
71.7571
72.7679
73.7223
74.6526
75.5503
76.4244
77.2814
78.1386
78.9155
79.5598
79.8546
9.86252
14.4365
14.8572
14.5005
11.8441
5.81952
5.03678
12.604
5.57271
19.2798
37.9913
46.4154
52.227
56.5159
59.5385
62.0052
63.8193
65.4509
66.8344
68.0333
69.1587
70.2168
71.1873
72.1192
73.0033
73.83
74.6685
75.5031
76.2735
77.0344
77.6551
77.9456
18.9053
23.1119
24.6943
24.8709
23.5946
20.8945
17.0018
14.2738
18.9704
22.6246
19.8202
37.3067
46.4914
52.1184
56.3108
59.1378
61.6017
63.3946
64.9203
66.2968
67.4786
68.5219
69.5206
70.4017
71.2298
71.9976
72.7283
73.4382
74.1913
74.8522
75.413
75.6127
21.6444
26.533
29.119
30.9146
31.7986
31.5617
29.8511
26.2297
19.5103
19.8208
18.0594
18.7949
37.2298
46.5235
51.9401
56.1036
58.6589
60.9362
62.721
64.1114
65.3632
66.4744
67.408
68.2578
69.0189
69.675
70.3596
71.0717
71.6733
72.3468
72.8859
73.1172
22.6837
27.6889
30.5478
32.8046
34.4273
35.396
35.639
34.9213
32.6109
26.6399
23.1832
1.8375
15.4704
35.7171
45.467
50.6484
55.1442
57.7933
59.8509
61.6441
63.0209
64.1013
65.1094
65.8785
66.5464
67.103
67.6089
68.0733
68.6886
69.156
69.6083
69.6235
22.35
27.4957
30.5358
33.052
35.0104
36.4073
37.2467
37.5125
37.0673
35.3302
30.305
25.6137
10.7138
28.48
36.1785
45.5899
49.7676
53.7326
56.4167
58.1691
59.7042
60.9477
61.8204
62.5295
63.0687
63.4252
63.8455
64.3908
64.7287
65.3407
65.7136
65.9633
20.9965
26.2799
29.4237
32.0919
34.2613
35.9365
37.1448
37.927
38.3069
38.1746
36.9531
32.6649
30.977
32.5485
33.2245
31.7805
43.6614
48.0645
51.328
54.1635
55.9936
57.119
58.1791
58.741
59.0905
59.2368
59.3055
59.2607
59.6105
59.6152
60.0108
59.4784
19.0995
24.4894
27.6731
30.4051
32.6792
34.5126
35.9384
37.0192
37.8365
38.4421
38.7021
37.8726
33.8431
35.0992
31.4965
32.0062
31.3786
40.405
45.1032
47.4409
49.6693
51.3555
52.0042
52.3092
52.3061
52.0001
52.088
52.1023
52.3992
53.221
52.6442
53.7799
16.8891
22.2923
25.4254
28.1261
30.4137
32.3266
33.9106
35.2274
36.3645
37.4035
38.3447
38.9304
38.2347
33.8946
33.6775
27.0691
9.36535
26.6626
34.4601
40.5529
43.8072
44.9159
45.5155
46.0256
45.1878
44.7586
42.9724
42.2415
41.2831
39.7903
40.979
39.4372
14.617
19.8935
22.8694
25.4354
27.6416
29.5482
31.2163
32.7126
34.1156
35.5047
36.9036
38.193
38.9583
38.081
33.1567
29.2053
24.2983
3.17277
16.948
20.5091
26.2814
29.0332
30.397
27.7595
25.2998
23.3318
27.5023
14.7793
24.0799
24.0819
13.4055
21.3578
12.5534
17.5682
20.3024
22.6553
24.7089
26.5418
28.2247
29.8256
31.4123
33.0505
34.78
36.5437
38.117
38.9725
38.0904
33.6671
27.483
21.7383
28.3241
27.3979
22.7293
31.6602
19.858
18.0167
30.8285
19.282
35.4284
10.4652
31.7918
29.435
11.2894
33.432
10.9475
15.6052
18.0662
20.1754
22.0439
23.7632
25.4065
27.0348
28.7007
30.4521
32.3338
34.3446
36.3751
38.1162
39.015
38.0069
34.6957
29.1842
30.0387
25.6377
23.6505
37.0942
20.7345
26.7833
16.9206
33.5458
38.1543
30.2477
39.3036
35.3668
32.9682
38.841
9.74964
14.1534
16.3771
18.2752
19.9819
21.5923
23.1724
24.7681
26.4153
28.1489
30.009
32.0313
34.2066
36.3883
38.212
39.0529
38.7609
36.8605
33.1207
28.7745
23.0178
33.2368
26.7205
28.0636
32.0347
31.9082
35.4207
38.4397
36.3356
38.3246
39.9234
35.8755
9.10962
13.309
15.3615
17.1195
18.7254
20.2638
21.7831
23.311
24.8691
26.4847
28.1964
30.0544
32.1047
34.3374
36.593
38.4684
39.6311
39.7807
38.9278
37.6556
35.3415
33.6312
35.9335
38.061
40.8404
38.6997
42.3612
43.3285
41.7745
43.1367
43.8872
40.5849
8.92279
13.0259
15.0008
16.7063
18.2814
19.7928
21.2687
22.7212
24.1631
25.6181
27.1234
28.7298
30.4984
32.4838
34.683
36.9334
38.927
40.2134
40.6884
40.5001
39.6531
38.9347
40.2178
41.4558
42.7304
41.0577
43.5078
43.6308
42.6638
43.5371
43.8187
42.3444
9.11635
13.2077
15.1826
16.9065
18.5054
20.0264
21.4807
22.8711
24.2076
25.5127
26.8202
28.1733
29.627
31.2479
33.0991
35.1842
37.3723
39.2942
40.6038
41.1357
40.9519
40.6747
41.2844
42.1411
42.6765
41.5255
42.9786
42.8
42.025
42.6209
42.823
42.3545
9.58276
13.7174
15.7442
17.5346
19.1947
20.7538
22.2117
23.5669
24.829
26.0208
27.1729
28.3208
29.5063
30.7835
32.2205
33.8812
35.7734
37.7294
39.4221
40.4987
40.8672
40.9253
41.2452
41.671
41.6871
40.7994
41.4392
41.1007
40.4105
40.8059
41.104
41.0535
10.257
14.4648
16.568
18.4466
20.1845
21.7961
23.2748
24.6188
25.8404
26.9632
28.015
29.0235
30.0176
31.0342
32.1245
33.3517
34.7701
36.3553
37.9352
39.1943
39.9083
40.2264
40.4179
40.4973
40.1702
39.3673
39.4819
39.0648
38.485
38.8093
39.2224
39.3106
11.0802
15.3889
17.5814
19.5547
21.3727
23.0392
24.5457
25.8937
27.1
28.1903
29.1903
30.1213
31.0007
31.8496
32.6993
33.5951
34.5889
35.7074
36.8974
37.9799
38.7368
39.1429
39.256
39.1199
38.6062
37.8499
37.6496
37.2354
36.8424
37.188
37.6873
37.8324
11.9569
16.4384
18.7288
20.7968
22.6913
24.4105
25.9475
27.3092
28.5178
29.6015
30.5845
31.4836
32.308
33.0667
33.7753
34.458
35.1509
35.8868
36.6629
37.4046
37.9723
38.2859
38.2944
38.0214
37.4242
36.7079
36.3491
35.9971
35.8108
36.2316
36.7921
36.9891
12.9781
17.5815
19.9674
22.1264
24.0931
25.8627
27.4318
28.8137
30.0365
31.1309
32.1196
33.016
33.8243
34.5461
35.1863
35.7533
36.2658
36.7459
37.2042
37.6168
37.9134
38.0284
37.8887
37.5006
36.8571
36.1691
35.7465
35.4795
35.478
35.9864
36.5945
36.8531
13.3722
13.7916
14.2766
14.669
15.0491
15.3548
15.6222
15.8326
16.0037
16.129
16.2188
16.2702
16.2876
16.2735
16.2315
16.1625
16.0699
15.96
15.8485
15.7843
15.863
16.011
16.1683
16.3139
16.4389
16.5385
16.6106
16.6526
16.6602
16.632
16.5631
16.4549
16.2961
16.0937
15.8294
15.5214
15.1317
14.7203
14.2118
13.7558
18.0657
18.5007
19.0043
19.4133
19.8098
20.1352
20.4243
20.6588
20.8554
21.0085
21.1272
21.209
21.2567
21.271
21.2546
21.2076
21.1317
21.0321
20.9248
20.8668
20.9627
21.1232
21.2839
21.4242
21.5364
21.6173
21.6658
21.6802
21.658
21.5989
21.4998
21.3614
21.1741
20.9443
20.6547
20.3227
19.9132
19.4827
18.9541
18.4821
20.4926
20.9521
21.485
21.9186
22.3428
22.6981
23.0216
23.2941
23.5322
23.7299
23.8954
24.0267
24.1247
24.1883
24.2187
24.2152
24.1781
24.1112
24.0293
23.9878
24.0863
24.2376
24.3797
24.4934
24.5723
24.6147
24.6204
24.5886
24.5189
24.4127
24.2678
24.0849
23.8558
23.5871
23.2614
22.8973
22.4582
22.0014
21.4422
20.9442
22.6746
23.1518
23.7063
24.1581
24.6055
24.9871
25.3422
25.6505
25.9289
26.1706
26.3822
26.5622
26.7104
26.8239
26.9022
26.9436
26.9475
26.9172
26.8675
26.8496
26.9413
27.0748
27.1931
27.2771
27.3208
27.3235
27.2857
27.2083
27.0925
26.9407
26.7514
26.5256
26.2569
25.9521
25.5935
25.2014
24.7373
24.2606
23.6787
23.1617
24.6546
25.1339
25.6941
26.1505
26.608
27.0035
27.378
27.7107
28.0181
28.2942
28.5434
28.763
28.9522
29.1071
29.2256
29.305
29.3442
29.3464
29.3269
29.3306
29.4134
29.5277
29.6232
29.6805
29.6939
29.6628
29.5888
29.4738
29.3201
29.1313
28.9065
28.6483
28.3518
28.0224
27.6435
27.2357
26.7595
26.2763
25.6868
25.1663
26.4343
26.8989
27.4503
27.8989
28.3552
28.7547
29.1396
29.4901
29.821
30.1251
30.4057
30.659
30.883
31.073
31.2256
31.3371
31.4064
31.4362
31.4414
31.4612
31.5375
31.6353
31.7107
31.7449
31.7318
31.6715
31.5662
31.4188
31.2329
31.0121
30.7575
30.4726
30.1532
29.8066
29.4163
29.0029
28.5257
28.0477
27.4637
26.9555
28.0143
28.4526
28.9874
29.4226
29.8735
30.2758
30.6711
31.0384
31.3911
31.721
32.0301
32.3136
32.5683
32.7892
32.9714
33.1111
33.2056
33.2579
33.2819
33.3128
33.3855
33.4711
33.5301
33.5444
33.5083
33.4222
33.2889
33.1126
32.8973
32.6475
32.3654
32.0552
31.7143
31.3503
30.9492
30.5323
30.058
29.5899
29.018
28.5321
29.41
29.8181
30.3364
30.7601
31.209
31.6176
32.0248
32.4096
32.7831
33.1372
33.4724
33.7831
34.0654
34.3133
34.5214
34.6846
34.8002
34.8701
34.9077
34.9462
35.0169
35.0943
35.1409
35.1389
35.0833
34.9748
34.8171
34.6149
34.373
34.0968
33.789
33.4548
33.0927
32.7105
32.2964
31.8716
31.3974
30.9375
30.3774
29.9167
30.6495
31.0295
31.5355
31.9535
32.4045
32.8214
33.2412
33.6429
34.0358
34.4117
34.7699
35.1045
35.4105
35.6814
35.911
36.0937
36.226
36.3094
36.3563
36.3995
36.4699
36.5423
36.5798
36.565
36.4934
36.3663
36.1876
35.9633
35.6982
35.3986
35.068
34.7119
34.3301
33.9303
33.5024
33.0674
32.5886
32.132
31.5799
31.1422
31.7625
32.1181
32.6162
33.0321
33.4864
33.912
34.3435
34.7603
35.1701
35.5646
35.9424
36.2968
36.6226
36.9123
37.1595
37.3577
37.5028
37.596
37.6492
37.6952
37.766
37.8357
37.8668
37.8424
37.7581
37.6159
37.4203
37.1773
36.8931
36.5736
36.2235
35.8486
35.4494
35.0338
34.5931
34.1476
33.6633
33.2058
32.6582
32.2407
32.7701
33.1029
33.5948
34.0092
34.4668
34.9
35.3415
35.7709
36.1949
36.6049
36.9986
37.3693
37.7108
38.0156
38.2764
38.4867
38.6417
38.7422
38.8
38.8479
38.9191
38.9871
39.0136
38.9817
38.8876
38.7335
38.5244
38.2666
37.9665
37.6309
37.2648
36.874
36.4602
36.0311
35.5793
35.1249
34.6352
34.1768
33.6322
33.2332
33.6824
33.9914
34.4764
34.8889
35.3487
35.7883
36.2379
36.6778
37.1132
37.5357
37.9423
38.3258
38.6798
38.9963
39.2679
39.4874
39.6504
39.7572
39.8194
39.8697
39.9406
40.0062
40.0283
39.9903
39.8884
39.7249
39.5051
39.2355
38.923
38.5743
38.195
37.7913
37.3655
36.9249
36.4639
36.0019
35.5081
35.0497
34.5089
34.1297
34.501
34.7838
35.26
35.6694
36.1304
36.5753
37.0319
37.4805
37.9254
38.3582
38.7749
39.1687
39.5323
39.858
40.1379
40.3651
40.535
40.6482
40.7162
40.7701
40.8397
40.9009
40.9179
40.874
40.7654
40.5944
40.3661
40.0871
39.7645
39.4052
39.0152
38.6008
38.1647
37.7146
37.2458
36.7772
36.2804
35.8228
35.2878
34.9314
35.2256
35.4777
35.9421
36.3475
36.8091
37.2584
37.7211
38.1775
38.6307
39.0719
39.4971
39.8989
40.2702
40.6032
40.8899
41.1237
41.3003
41.4207
41.4963
41.5554
41.6224
41.6772
41.6875
41.6373
41.5226
41.3451
41.1097
40.8233
40.4925
40.1245
39.7253
39.3016
38.8565
38.3978
37.9215
37.447
36.9479
36.4922
35.9657
35.6362
35.857
36.0709
36.5193
36.9188
37.3803
37.8338
38.3024
38.7661
39.2269
39.6756
40.1082
40.5168
40.8944
41.2332
41.5257
41.7656
41.9489
42.0774
42.1621
42.2271
42.291
42.3379
42.3403
42.2834
42.1625
41.9791
41.7378
41.4448
41.1069
40.7312
40.324
39.8917
39.4379
38.9707
38.4873
38.0068
37.5056
37.0527
36.5378
36.2424
36.3991
36.5623
36.9876
37.3786
37.8385
38.2964
38.7708
39.2419
39.71
40.166
40.6052
41.0198
41.4029
41.7469
42.0446
42.2901
42.4804
42.6174
42.7114
42.7821
42.843
42.8817
42.8758
42.8117
42.6846
42.4956
42.2487
41.9498
41.6054
41.2226
40.8075
40.3667
39.9042
39.4281
38.9368
38.45
37.9468
37.4981
36.9986
36.749
36.8573
36.9493
37.342
37.7201
38.1766
38.6378
39.1183
39.597
40.0726
40.5359
40.9816
41.402
41.7903
42.139
42.4415
42.6926
42.8895
43.0347
43.1374
43.213
43.2714
43.3027
43.2886
43.2173
43.084
42.8894
42.637
42.3324
41.9816
41.5917
41.1684
40.7187
40.2468
39.761
39.2612
38.7671
38.2622
37.8183
37.344
37.1605
37.2417
37.2335
37.576
37.9348
38.384
38.8478
39.3338
39.8203
40.3038
40.7747
41.227
41.6532
42.0464
42.3998
42.7069
42.9632
43.1665
43.3192
43.4293
43.5091
43.5655
43.5902
43.5686
43.4903
43.351
43.1508
42.8928
42.5821
42.2247
41.827
41.3952
40.9357
40.4534
39.9569
39.4474
38.9453
38.4387
38.0043
37.572
37.4853
37.5597
37.416
37.684
38.0129
38.4494
38.9131
39.4037
39.8978
40.3893
40.8679
41.3272
41.7595
42.1579
42.5159
42.8276
43.0888
43.2979
43.4571
43.5734
43.6566
43.7112
43.7306
43.7023
43.6175
43.4721
43.2659
43.002
42.6848
42.3201
41.914
41.4726
41.0025
40.5087
40.0003
39.4799
38.969
38.4625
38.0479
37.6822
37.7295
37.8005
37.4928
37.6609
37.9441
38.3616
38.8211
39.3144
39.815
40.3142
40.8007
41.267
41.7055
42.1092
42.472
42.7882
43.0539
43.2681
43.4329
43.5541
43.6399
43.6932
43.7081
43.6739
43.5829
43.4313
43.219
42.9486
42.6242
42.2514
41.8359
41.384
40.902
40.3959
39.8739
39.342
38.8202
38.3203
37.9414
37.6704
37.8876
37.9281
37.448
37.4993
37.7221
38.1111
38.5629
39.0557
39.5611
40.0667
40.5603
41.0333
41.4778
41.8868
42.254
42.5744
42.8443
43.0628
43.2319
43.3569
43.4447
43.4969
43.508
43.4687
43.3719
43.2142
42.9955
42.718
42.3859
42.0043
41.5789
41.1157
40.6212
40.1012
39.565
39.0181
38.4901
38.0082
37.6827
37.5288
37.9316
37.8694
37.2476
37.1903
37.3477
37.7016
38.1407
38.6288
39.1355
39.6449
40.1436
40.6219
41.0712
41.4843
41.8553
42.1789
42.452
42.6735
42.8458
42.9734
43.0625
43.1139
43.122
43.0784
42.9764
42.8129
42.5879
42.3034
41.9635
41.5729
41.1376
40.6631
40.1561
39.6225
39.0708
38.5125
37.9863
37.5336
37.2745
37.2459
37.8271
37.6123
36.8797
36.7311
36.8273
37.1433
37.5647
38.0467
38.5515
39.062
39.5629
40.0438
40.4958
40.9113
41.2841
41.6093
41.8836
42.1065
42.2801
42.409
42.4989
42.5498
42.5561
42.5093
42.4034
42.2353
42.0049
41.7143
41.3676
40.9695
40.5254
40.0413
39.5232
38.9778
38.4119
37.8471
37.33
36.9115
36.7192
36.7997
37.5232
37.1493
36.3514
36.1454
36.1953
36.4794
36.8819
37.3543
37.8529
38.3598
38.8586
39.3382
39.7891
40.2035
40.5749
40.8987
41.1715
41.3929
41.5654
41.6941
41.7842
41.8356
41.8416
41.7938
41.6861
41.5155
41.282
40.9878
40.6368
40.2336
39.7838
39.2929
38.7668
38.211
37.6384
37.0759
36.5739
36.1889
36.052
36.2093
37.0283
36.5433
35.7079
35.4741
35.4986
35.7628
36.1513
36.6145
37.106
37.6069
38.1004
38.5751
39.0211
39.4306
39.797
40.1155
40.3831
40.5996
40.768
40.8944
40.9849
41.0382
41.0468
41.0013
40.8952
40.7257
40.493
40.1992
39.8483
39.4448
38.9942
38.5019
37.9736
37.4138
36.841
36.2845
35.7965
35.4333
35.325
35.5092
36.3559
35.8126
35.0194
34.8129
34.8454
35.1086
35.4902
35.945
36.4273
36.9188
37.4027
37.8676
38.3038
38.7033
39.0597
39.368
39.6256
39.8325
39.9929
40.1146
40.2056
40.2636
40.2786
40.2396
40.1398
39.9763
39.7493
39.4613
39.1162
38.7186
38.2739
37.7873
37.2649
36.7109
36.1464
35.6014
35.1277
34.7782
34.681
34.861
35.6952
35.2797
34.5147
34.33
34.3733
34.6379
35.0142
35.4594
35.9314
36.4116
36.8837
37.3363
37.7595
38.1457
38.4884
38.7828
39.0261
39.219
39.3671
39.4817
39.5743
39.641
39.6673
39.6399
39.5511
39.3985
39.1827
38.9063
38.573
38.1878
37.7559
37.2826
36.7741
36.2355
35.6873
35.1582
34.699
34.3592
34.2653
34.4372
35.2624
35.1607
34.4245
34.2547
34.2949
34.5463
34.9011
35.3219
35.7713
36.2299
36.6811
37.1132
37.5163
37.8826
38.2058
38.4808
38.7047
38.878
39.0079
39.111
39.2062
39.2857
39.3273
39.3148
39.2408
39.1032
38.9031
38.6434
38.3281
37.962
37.5503
37.0989
36.6137
36.1014
35.5787
35.0717
34.6279
34.2913
34.1843
34.3172
35.0797
35.411
34.6941
34.5341
34.5686
34.8034
35.1338
35.5294
35.9544
36.389
36.8164
37.225
37.6052
37.949
38.2502
38.5037
38.7063
38.8579
38.966
39.0537
39.152
39.2466
39.3041
39.3067
39.2478
39.1263
38.9438
38.7034
38.4093
38.0662
37.6796
37.2555
36.8001
36.3215
35.8308
35.3507
34.9257
34.5931
34.4689
34.55
35.221
35.9161
35.253
35.1179
35.1495
35.3671
35.6733
36.0423
36.4392
36.8452
37.2442
37.6248
37.9778
38.2959
38.5726
38.803
38.9834
39.1134
39.1996
39.2696
39.3696
39.4759
39.5454
39.5596
39.5134
39.4064
39.2404
39.0188
38.7456
38.4259
38.065
37.6691
37.2453
36.8014
36.3496
35.9068
35.5146
35.2043
35.0897
35.1575
35.797
36.4577
35.8453
35.7369
35.7739
35.9865
36.2799
36.6317
37.0085
37.3929
37.7697
38.1281
38.4594
38.7566
39.0135
39.2255
39.3887
39.5022
39.5724
39.628
39.7265
39.8379
39.9131
39.9339
39.8958
39.7986
39.6443
39.4362
39.1782
38.8753
38.5328
38.157
37.7552
37.3355
36.9106
36.4932
36.1233
35.8305
35.7283
35.798
36.4338
37.0171
36.3613
36.2228
36.2355
36.428
36.7037
37.0393
37.4011
37.7714
38.1349
38.481
38.8008
39.0873
39.3347
39.5379
39.6934
39.8002
39.8646
39.916
40.0154
40.1302
40.2096
40.2354
40.2032
40.113
39.9667
39.7675
39.5193
39.2268
38.8952
38.5305
38.1399
37.7309
37.3157
36.9054
36.5375
36.2388
36.1194
36.1587
36.7503
42.6062
50.3709
56.5397
62.5489
67.6903
71.8345
75.1426
77.809
79.9885
81.8168
83.4129
84.843
86.1453
87.3517
88.4918
89.5957
90.6931
91.8108
92.9708
94.1893
95.4746
96.8284
98.2474
99.7244
101.249
102.809
104.386
105.959
107.486
108.901
110.058
110.741
41.9156
49.3987
55.3729
61.2476
66.3194
70.4297
73.7194
76.3771
78.5562
80.3913
81.9947
83.4272
84.72
85.9116
87.0338
88.117
89.1911
90.284
91.4188
92.6104
93.8674
95.1917
96.5797
98.0241
99.5145
101.039
102.58
104.115
105.606
106.986
108.115
108.78
41.1496
48.3859
54.1761
59.916
64.9183
68.9992
72.2788
74.9387
77.1298
78.9814
80.5975
82.0341
83.3213
84.5017
85.6071
86.6699
87.7222
88.792
89.9012
91.0664
92.2958
93.5909
94.9483
96.3607
97.8176
99.307
100.812
102.31
103.764
105.11
106.21
106.857
40.3605
47.3636
52.9708
58.5734
63.5065
67.5617
70.836
73.5036
75.7135
77.5883
79.2217
80.6654
81.9525
83.123
84.215
85.2615
86.2939
87.3413
88.4278
89.5681
90.7708
92.0378
93.3653
94.746
96.1699
97.6241
99.0927
100.555
101.972
103.284
104.355
104.985
39.5237
46.3035
51.7241
57.1844
62.0488
66.0864
69.3689
72.0603
74.3028
76.2091
77.8644
79.3201
80.6126
81.7795
82.8612
83.8916
84.9062
85.9343
86.9978
88.1141
89.2916
90.5315
91.8304
93.1807
94.5728
95.9934
97.4277
98.8539
100.236
101.514
102.557
103.171
38.6711
45.2318
50.4621
55.7764
60.5752
64.604
67.9034
70.6224
72.8985
74.8386
76.5202
77.9926
79.2941
80.4622
81.5375
82.5586
83.5585
84.5679
85.6128
86.7078
87.8613
89.0756
90.3466
91.6672
93.027
94.4143
95.8137
97.2046
98.5515
99.7971
100.812
101.409
37.7752
44.1184
49.1478
54.3048
59.0341
63.0603
66.3907
69.1564
71.4841
73.4687
75.1822
76.6769
77.9943
79.1733
80.2493
81.2615
82.2492
83.2452
84.2706
85.3446
86.4758
87.6654
88.9102
90.2024
91.5325
92.888
94.2545
95.6112
96.9232
98.1375
99.1256
99.7061
36.8482
42.9753
47.7973
52.7912
57.4551
61.4937
64.8707
67.6883
70.0643
72.0938
73.8462
75.371
76.7098
77.9002
78.9835
79.9959
80.9776
81.96
82.9723
84.0295
85.1401
86.307
87.5258
88.7901
90.0893
91.4126
92.7447
94.0669
95.3459
96.5272
97.4885
98.0532
35.8687
41.7764
46.3743
51.1844
55.7689
59.8184
63.2536
66.1477
68.6029
70.698
72.4983
74.0593
75.427
76.6437
77.7413
78.7594
79.7371
80.7151
81.7132
82.753
83.8448
84.9896
86.1848
87.4222
88.6935
89.986
91.2869
92.5762
93.8205
94.972
95.9069
96.4554
34.821
40.507
44.8726
49.4875
53.9939
58.076
61.5992
64.5841
67.1124
69.2724
71.1324
72.7439
74.1523
75.392
76.5088
77.5389
78.5249
79.4981
80.4903
81.5199
82.5951
83.7203
84.8911
86.1023
87.343
88.6038
89.8698
91.1237
92.3361
93.454
94.3623
94.8949
33.6741
39.1415
43.2578
47.6472
52.0452
56.1428
59.757
62.8656
65.5253
67.7925
69.729
71.3984
72.8503
74.137
75.2848
76.335
77.3273
78.3079
79.294
80.3109
81.3715
82.4773
83.6269
84.8117
86.0252
87.255
88.4904
89.7117
90.888
91.9788
92.8602
93.3765
32.3784
37.6379
41.4915
45.6336
49.9136
54.0528
57.8139
61.0822
63.8619
66.2339
68.2689
70.0212
71.5468
72.8731
74.0557
75.1315
76.1469
77.1301
78.119
79.1342
80.1835
81.2731
82.3996
83.5594
84.7419
85.9394
87.1384
88.3233
89.468
90.523
91.3781
91.879
30.9151
35.9705
39.5362
43.3834
47.4898
51.6237
55.5066
58.9779
61.9994
64.5639
66.7314
68.5826
70.171
71.5734
72.8101
73.9262
74.9602
75.9661
76.9585
77.9654
79.0045
80.0778
81.186
82.3202
83.4762
84.6426
85.8111
86.9642
88.0712
89.1005
89.928
90.4127
29.179
34.0522
37.3184
40.8285
44.7152
48.8563
52.9728
56.7293
59.9528
62.7089
65.0566
67.0493
68.7743
70.2449
71.54
72.6997
73.7772
74.7947
75.8
76.8167
77.8509
78.9124
79.9986
81.1088
82.2326
83.3654
84.4953
85.6084
86.6836
87.6736
88.4741
88.9441
27.0845
31.7901
34.7265
37.8306
41.4213
45.4896
49.6871
53.7642
57.4934
60.6292
63.2273
65.4119
67.2311
68.8272
70.2118
71.4416
72.5542
73.6168
74.6393
75.6523
76.6818
77.7304
78.8016
79.8862
80.9839
82.0846
83.1833
84.2655
85.2995
86.2654
87.0366
87.4896
24.3922
29.02
31.6597
34.2896
37.3686
41.1902
45.8965
50.5411
54.5638
58.1027
61.083
63.5299
65.6259
67.3454
68.8303
70.1312
71.3178
72.4027
73.4505
74.4898
75.5232
76.5651
77.615
78.6759
79.7387
80.8027
81.8585
82.8946
83.8948
84.8159
85.5578
85.9965
20.7322
25.4038
27.693
29.8136
32.6226
36.6053
40.462
45.3945
50.748
55.089
58.5941
61.4728
63.724
65.676
67.3165
68.739
69.9842
71.1496
72.2358
73.2763
74.3113
75.3442
76.3826
77.4172
78.4529
79.4822
80.505
81.5104
82.4656
83.3622
84.0726
84.494
15.2959
20.4121
22.8389
24.1612
24.8866
25.6585
33.395
40.1003
45.3532
50.8818
55.3564
58.7888
61.6823
63.8722
65.6995
67.2418
68.6154
69.8166
70.9442
72.0363
73.0877
74.1206
75.1373
76.1472
77.1425
78.1293
79.1014
80.0505
80.9644
81.8091
82.4846
82.8919
6.19548
10.9882
11.7669
12.6895
12.7286
9.77625
15.3235
27.3308
38.8977
45.4314
51.202
55.7799
58.936
61.6548
63.7911
65.5684
67.0417
68.3882
69.5901
70.688
71.7489
72.7769
73.7867
74.7674
75.7327
76.6796
77.6153
78.5327
79.3992
80.2147
80.8549
81.2459
4.68748
9.66914
14.1539
15.3722
15.5877
11.9752
18.1743
3.0997
17.3535
36.5981
45.0411
51.0401
56.0099
59.1684
61.694
63.6809
65.3994
66.8026
68.0718
69.2657
70.3631
71.401
72.3859
73.3388
74.2528
75.1457
76.0159
76.8597
77.6642
78.4194
79.0142
79.3899
11.7396
15.9375
16.8234
17.3593
16.1876
11.7303
10.8932
19.8506
13.6472
14.113
35.8968
45.5134
50.8339
55.6498
58.8778
61.4204
63.3221
65.0109
66.426
67.6299
68.7488
69.7872
70.772
71.6883
72.5649
73.4082
74.2356
75.0441
75.8075
76.5172
77.0705
77.4339
19.9084
24.3035
26.1345
26.7702
26.3168
24.5755
21.4628
19.0143
13.1956
10.0254
10.1061
34.4036
46.259
51.4589
55.797
58.6642
61.1148
62.9005
64.4369
65.8296
67.0233
68.0886
69.0401
69.9204
70.724
71.4881
72.2208
72.9248
73.5665
74.2109
74.6956
75.0408
21.8839
26.8128
29.5089
31.5078
32.7235
33.0182
32.1145
29.5625
24.7629
19.0906
16.5363
16.3578
33.4011
45.2568
50.5271
55.1418
57.9276
60.3495
62.1896
63.5936
64.8311
65.9073
66.87
67.698
68.4434
69.1403
69.8153
70.4733
71.123
71.671
72.1053
72.4492
22.6714
27.6942
30.5981
32.9323
34.6694
35.7982
36.2728
35.911
34.2215
29.5645
26.0806
9.22332
8.67398
32.835
45.9479
50.0953
54.4757
57.0777
59.1834
61.0035
62.4029
63.5374
64.448
65.215
65.8388
66.3933
66.9144
67.4063
67.7372
68.2397
68.5453
68.8648
22.0892
27.2599
30.3299
32.8944
34.9185
36.3979
37.3395
37.7417
37.516
36.1985
32.2013
24.2594
18.5969
19.7394
30.437
44.697
48.7074
52.917
55.6508
57.4396
58.923
60.1019
61.0371
61.7139
62.2244
62.6724
63.0861
63.5222
64.1276
64.3701
64.6161
64.953
20.6484
25.9534
29.113
31.8036
34.003
35.7137
36.9628
37.7947
38.2519
38.2853
37.4649
34.3818
27.8658
25.0259
21.6191
26.4462
41.9973
46.6159
50.2587
53.165
55.0232
56.3106
57.1543
57.6792
57.9101
58.05
58.1952
58.2653
57.727
58.1403
58.0822
58.3392
18.6807
24.0832
27.2673
30.0019
32.2832
34.1291
35.569
36.6608
37.4849
38.0988
38.3965
37.7625
34.0437
30.4299
27.798
23.3286
28.6607
40.1313
43.8836
46.2108
48.3049
49.7195
50.6593
50.8794
50.8798
50.7205
50.5203
50.9838
52.4283
52.3812
52.2657
51.8498
16.4627
21.8438
24.9486
27.6243
29.8956
31.8031
33.3906
34.7146
35.8578
36.897
37.8272
38.38
37.6102
33.2352
30.4635
30.8214
14.3922
18.468
31.9624
39.1582
41.5871
43.4434
43.8663
43.7829
42.9733
42.0773
41.3496
39.6205
36.2371
34.7265
33.4328
36.0667
14.242
19.4641
22.3873
24.9053
27.075
28.9591
30.6174
32.1145
33.5269
34.9322
36.3476
37.639
38.376
37.4194
33.0023
30.0963
16.6253
26.8274
19.1804
15.0964
23.2015
24.7558
28.7888
23.4842
19.3413
14.7227
9.43804
21.7373
25.1017
33.2002
33.4983
18.2945
12.3001
17.2436
19.912
22.2019
24.2025
25.9946
27.6492
29.2349
30.8209
32.4734
34.2308
36.0278
37.623
38.4791
37.6043
33.4562
25.737
26.9511
32.8299
15.7445
29.1635
22.4972
33.7477
15.8906
20.3149
11.8964
32.7488
32.5759
29.9044
38.5492
36.0017
25.1971
10.7978
15.3946
17.794
19.8402
21.6502
23.3181
24.9195
26.5188
28.1726
29.9307
31.8359
33.8869
35.9747
37.7851
38.7792
38.2046
35.3668
29.8879
27.59
24.4155
25.816
24.5591
31.5192
24.5438
30.01
31.2216
31.2245
36.3814
28.2296
32.0677
23.5975
28.8249
9.68085
14.0371
16.2086
18.0498
19.7002
21.2571
22.7907
24.3518
25.9802
27.7123
29.588
31.6419
33.8658
36.1214
38.0567
39.1396
38.9534
36.6286
33.9979
30.2924
26.5127
27.7644
25.6194
30.4993
33.9881
36.3082
38.0858
36.8952
36.5236
36.6994
37.5079
40.4833
9.07945
13.2463
15.2575
16.9663
18.5208
20.01
21.4878
22.9856
24.527
26.1389
27.8593
29.7381
31.8177
34.0849
36.381
38.3257
39.4253
39.2676
38.9404
37.3962
36.9843
35.664
36.6008
38.8245
40.9485
41.7797
42.7212
41.9195
41.4431
41.9162
42.1394
43.3688
8.89326
12.9719
14.9129
16.5747
18.1043
19.5754
21.0215
22.4565
23.8917
25.3491
26.8642
28.4863
30.2728
32.2705
34.4628
36.6772
38.5421
39.6353
40.235
39.9482
39.9964
39.1526
40.1247
40.863
42.2083
42.3821
42.9904
42.4781
42.3256
42.8084
42.8145
43.6044
9.05235
13.1201
15.0646
16.7496
18.3108
19.8031
21.2423
22.6307
23.9743
25.2915
26.6138
27.9836
29.4536
31.0835
32.9211
34.946
36.9907
38.7443
40.0426
40.5635
40.8311
40.2577
40.8705
41.1219
42.0673
41.8641
42.1645
41.7039
41.7932
42.0161