/*--------------------------------*- C++ -*----------------------------------*\
  =========                 |
  \\      /  F ield         | OpenFOAM: The Open Source CFD Toolbox
   \\    /   O peration     | Website:  https://openfoam.org
    \\  /    A nd           | Version:  6
     \\/     M anipulation  |
\*---------------------------------------------------------------------------*/
FoamFile
{
    version     2.0;
    format      ascii;
    class       volVectorField;
    location    "0.8";
    object      wallShearStress;
}
// * * * * * * * * * * * * * * * * * * * * * * * * * * * * * * * * * * * * * //

dimensions      [0 2 -2 0 0 0 0];

internalField   uniform (0 0 0);

boundaryField
{
    inlet
    {
        type            calculated;
        value           uniform (0 0 0);
    }
    outlet
    {
        type            calculated;
        value           uniform (0 0 0);
    }
    roughCylinder
    {
        type            calculated;
        value           nonuniform List<vector> 
5120
(
(-0.000296905 -0.000363987 -0.000200899)
(-0.000234108 -0.00037692 -8.40354e-05)
(-0.000301511 -0.000506988 3.19052e-06)
(-0.000361721 -0.000586781 6.50549e-05)
(-0.000424343 -0.000639248 0.000115509)
(-0.000475539 -0.000657483 0.000152841)
(-0.000516997 -0.000656384 0.000177484)
(-0.000548256 -0.000643708 0.000191396)
(-0.000575081 -0.000633184 0.000201305)
(-0.000596009 -0.000623108 0.000208974)
(-0.000611399 -0.000615287 0.00021389)
(-0.000622445 -0.000609548 0.000215716)
(-0.000630521 -0.000606246 0.000215164)
(-0.000636056 -0.000604603 0.000212331)
(-0.000640581 -0.000605043 0.000207775)
(-0.000644232 -0.000606847 0.000201637)
(-0.000647213 -0.000609545 0.000194144)
(-0.000649567 -0.000612659 0.000185494)
(-0.000651715 -0.000616183 0.000175977)
(-0.000653556 -0.000619755 0.000165709)
(-0.00065462 -0.000622791 0.000154711)
(-0.000654684 -0.000624967 0.000143049)
(-0.00065323 -0.000625783 0.000130727)
(-0.000649062 -0.000624137 0.00011777)
(-0.000641891 -0.000619505 0.00010432)
(-0.000637921 -0.000617406 9.12737e-05)
(-0.000638902 -0.000619725 7.8492e-05)
(-0.000637159 -0.000619647 6.50864e-05)
(-0.000633022 -0.000617212 5.14022e-05)
(-0.000626384 -0.000612253 3.75791e-05)
(-0.0006211 -0.000607825 2.40205e-05)
(-0.000622104 -0.0006084 8.76074e-06)
(-0.000111269 -0.000121016 -6.4205e-05)
(-0.000240869 -0.000350393 -8.67645e-05)
(-0.000328642 -0.000506237 -6.27549e-06)
(-0.000390942 -0.000588293 5.66571e-05)
(-0.000456551 -0.000643728 0.000108384)
(-0.000510367 -0.00066456 0.000146827)
(-0.000554359 -0.000665857 0.000171903)
(-0.000588715 -0.000657054 0.000186845)
(-0.000618481 -0.000649511 0.000198395)
(-0.000641565 -0.000640554 0.000207723)
(-0.000657911 -0.000631402 0.000213405)
(-0.000669402 -0.000624815 0.00021551)
(-0.00067796 -0.000621013 0.000215146)
(-0.000683956 -0.000619208 0.000212451)
(-0.000688982 -0.000619726 0.000207993)
(-0.000693042 -0.000621678 0.000201894)
(-0.000696324 -0.000624527 0.000194401)
(-0.000699133 -0.000627993 0.000185803)
(-0.000701736 -0.000631885 0.000176336)
(-0.00070394 -0.000635774 0.000166102)
(-0.000705472 -0.000639261 0.000155177)
(-0.000706048 -0.000641972 0.000143603)
(-0.000705131 -0.000643441 0.000131377)
(-0.000701589 -0.000642666 0.000118572)
(-0.000695031 -0.000639005 0.000105258)
(-0.000690999 -0.000637155 9.21528e-05)
(-0.000692451 -0.000639938 7.93085e-05)
(-0.000690756 -0.000640075 6.5793e-05)
(-0.000687075 -0.00063834 5.20275e-05)
(-0.0006808 -0.000634104 3.80956e-05)
(-0.000675675 -0.000630119 2.44056e-05)
(-0.000676797 -0.000630738 8.92223e-06)
(-0.000396319 -0.00037922 -0.000184434)
(-0.000289855 -0.000375843 -0.000103141)
(-0.000354841 -0.000497106 -1.74815e-05)
(-0.00042116 -0.00058411 4.69558e-05)
(-0.000489613 -0.000642405 9.9955e-05)
(-0.00054649 -0.000666679 0.000139573)
(-0.000593684 -0.000671563 0.000165586)
(-0.000631556 -0.000667113 0.000182144)
(-0.000664309 -0.000662438 0.000195521)
(-0.000689289 -0.000654532 0.000206197)
(-0.000707151 -0.000644725 0.000212679)
(-0.000719041 -0.000637234 0.00021509)
(-0.000728107 -0.000632884 0.000214852)
(-0.00073465 -0.000630917 0.000212286)
(-0.000740241 -0.000631483 0.000207916)
(-0.000744697 -0.000633506 0.000201844)
(-0.000748363 -0.000636526 0.00019438)
(-0.000751688 -0.000640335 0.000185848)
(-0.000754742 -0.000644549 0.000176438)
(-0.00075733 -0.000648733 0.000166261)
(-0.000759384 -0.000652668 0.000155432)
(-0.000760501 -0.000655901 0.000143959)
(-0.000760139 -0.000658005 0.000131844)
(-0.000757269 -0.000658109 0.000119213)
(-0.000751497 -0.000655517 0.000106071)
(-0.000747477 -0.000653993 9.29271e-05)
(-0.000749313 -0.00065714 8.00198e-05)
(-0.000747697 -0.00065753 6.64157e-05)
(-0.000744583 -0.000656561 5.25875e-05)
(-0.000738711 -0.000653063 3.85608e-05)
(-0.000733797 -0.000649567 2.47579e-05)
(-0.000735029 -0.000650207 9.07232e-06)
(-0.000331146 -0.000275227 -0.000116391)
(-0.000288368 -0.000332558 -0.000102081)
(-0.000380979 -0.000483664 -2.87776e-05)
(-0.000450495 -0.000574427 3.62713e-05)
(-0.000521763 -0.00063579 9.03292e-05)
(-0.000582149 -0.000664215 0.000131049)
(-0.000633096 -0.000673726 0.000158389)
(-0.000674731 -0.000673926 0.000177009)
(-0.000710489 -0.000671992 0.000192357)
(-0.000737554 -0.000665219 0.000204253)
(-0.000757418 -0.00065571 0.000211734)
(-0.000769856 -0.000647014 0.000214525)
(-0.000779571 -0.000642184 0.000214392)
(-0.000786827 -0.000640089 0.000211964)
(-0.000793006 -0.000640645 0.000207664)
(-0.000797829 -0.000642665 0.000201603)
(-0.000801962 -0.000645886 0.000194189)
(-0.000805843 -0.00065002 0.000185734)
(-0.000809339 -0.00065451 0.000176387)
(-0.000812382 -0.00065902 0.000166292)
(-0.000814996 -0.000663397 0.000155573)
(-0.000816659 -0.00066713 0.000144209)
(-0.000816862 -0.000669847 0.000132213)
(-0.000814671 -0.000670793 0.000119765)
(-0.000809893 -0.000669358 0.000106818)
(-0.000806043 -0.0006683 9.36577e-05)
(-0.000808151 -0.00067171 8.06791e-05)
(-0.000806811 -0.000672525 6.70112e-05)
(-0.000804357 -0.000672347 5.31244e-05)
(-0.000799 -0.000669651 3.90082e-05)
(-0.000794379 -0.000666693 2.50991e-05)
(-0.000795733 -0.000667356 9.21851e-06)
(-0.000564059 -0.000406468 -0.000137176)
(-0.000355785 -0.000361274 -0.000123182)
(-0.000405725 -0.000465032 -4.12659e-05)
(-0.000478071 -0.000559082 2.45437e-05)
(-0.000552385 -0.000623831 7.95641e-05)
(-0.000616807 -0.000657207 0.000121343)
(-0.000671935 -0.000671983 0.000150341)
(-0.000717464 -0.000676843 0.000171306)
(-0.000756261 -0.000677518 0.000188699)
(-0.000785686 -0.000672013 0.000201851)
(-0.000807589 -0.000663235 0.000210323)
(-0.000821343 -0.000653614 0.000213677)
(-0.000831827 -0.000648264 0.000213752)
(-0.000839888 -0.000645961 0.000211459)
(-0.000846634 -0.000646405 0.000207213)
(-0.000851796 -0.000648361 0.000201166)
(-0.000856521 -0.000651825 0.00019384)
(-0.000860988 -0.000656263 0.000185476)
(-0.000864913 -0.000660994 0.000176204)
(-0.000868463 -0.000665839 0.000166217)
(-0.000871617 -0.000670613 0.000155616)
(-0.000873825 -0.000674815 0.000144371)
(-0.000874588 -0.000678122 0.000132502)
(-0.00087306 -0.000679868 0.000120243)
(-0.000869454 -0.000679639 0.000107509)
(-0.000865855 -0.000679107 9.43406e-05)
(-0.000868023 -0.000682627 8.12772e-05)
(-0.000867266 -0.000684095 6.75766e-05)
(-0.000865519 -0.0006847 5.36329e-05)
(-0.000860714 -0.000682796 3.94296e-05)
(-0.000856478 -0.000680425 2.54221e-05)
(-0.000857933 -0.000681087 9.35763e-06)
(-0.000564014 -0.000346979 -7.97594e-05)
(-0.000364455 -0.000324595 -0.000124074)
(-0.000427288 -0.000440173 -5.28696e-05)
(-0.00050363 -0.000538667 1.21855e-05)
(-0.000581133 -0.000607168 6.77083e-05)
(-0.000649846 -0.000645869 0.000110513)
(-0.000709495 -0.00066624 0.000141435)
(-0.000759137 -0.000675666 0.00016494)
(-0.000801167 -0.000678858 0.00018442)
(-0.000833257 -0.000674719 0.00019891)
(-0.000857339 -0.000666742 0.000208278)
(-0.000873185 -0.000656903 0.000212417)
(-0.000884575 -0.000650843 0.000212859)
(-0.00089353 -0.000648226 0.000210699)
(-0.000900805 -0.000648423 0.000206502)
(-0.000906315 -0.000650258 0.000200489)
(-0.000911683 -0.000653939 0.000193273)
(-0.000916759 -0.000658648 0.000185026)
(-0.000921143 -0.000663611 0.000175861)
(-0.000925246 -0.000668787 0.00016601)
(-0.000928942 -0.000673931 0.000155544)
(-0.000931687 -0.000678577 0.000144433)
(-0.000932963 -0.000682425 0.000132701)
(-0.00093207 -0.00068492 0.000120638)
(-0.000929805 -0.000685921 0.00010813)
(-0.000926469 -0.000685935 9.49591e-05)
(-0.000928551 -0.000689505 8.18105e-05)
(-0.000928789 -0.000691875 6.81121e-05)
(-0.00092769 -0.000693178 5.41065e-05)
(-0.000923547 -0.000692117 3.98231e-05)
(-0.000919765 -0.000690358 2.57246e-05)
(-0.000921389 -0.000691059 9.48934e-06)
(-0.000704095 -0.000366781 -3.75414e-05)
(-0.000419628 -0.000326085 -0.000137823)
(-0.0004494 -0.000413496 -6.50311e-05)
(-0.000526563 -0.000513785 -1.0802e-06)
(-0.00060718 -0.000586019 5.4725e-05)
(-0.00068054 -0.000630495 9.85914e-05)
(-0.000745041 -0.000656611 0.000131649)
(-0.000799078 -0.000670452 0.000157801)
(-0.000844645 -0.000676119 0.0001794)
(-0.000879733 -0.000673434 0.000195309)
(-0.000906385 -0.000666383 0.000205574)
(-0.000924847 -0.000657117 0.000210684)
(-0.000937544 -0.00065004 0.000211637)
(-0.000947406 -0.000646946 0.000209641)
(-0.000955231 -0.000646781 0.000205514)
(-0.000961086 -0.000648417 0.000199559)
(-0.000967189 -0.000652294 0.000192496)
(-0.000972936 -0.000657254 0.000184398)
(-0.00097781 -0.000662434 0.000175371)
(-0.000982425 -0.000667885 0.000165672)
(-0.000986623 -0.000673345 0.000155359)
(-0.00098991 -0.000678422 0.000144403)
(-0.000991684 -0.000682801 0.000132825)
(-0.000991399 -0.000686009 0.000120967)
(-0.000990581 -0.000688209 0.000108689)
(-0.000987529 -0.000688797 9.55211e-05)
(-0.00098929 -0.000692319 8.22806e-05)
(-0.000990942 -0.000695807 6.86146e-05)
(-0.00099044 -0.000697753 5.45456e-05)
(-0.000986994 -0.000697536 4.01851e-05)
(-0.000983747 -0.00069642 2.60029e-05)
(-0.000985538 -0.000697126 9.61074e-06)
(-0.000858513 -0.000377081 2.53874e-05)
(-0.000483606 -0.000322264 -0.000151728)
(-0.000466563 -0.000381232 -7.64934e-05)
(-0.000545738 -0.000484075 -1.50275e-05)
(-0.000629926 -0.000560633 4.06847e-05)
(-0.000707961 -0.000611003 8.56113e-05)
(-0.000777512 -0.000642808 0.000120891)
(-0.000836299 -0.000660975 0.000149716)
(-0.000885814 -0.000669163 0.000173456)
(-0.000924318 -0.000668075 0.000190889)
(-0.000953936 -0.000662059 0.000202199)
(-0.000974989 -0.000653505 0.0002082)
(-0.000989858 -0.000645854 0.000209857)
(-0.00100068 -0.000641975 0.000208171)
(-0.00100908 -0.000641273 0.000204148)
(-0.00101539 -0.000642692 0.000198317)
(-0.00102226 -0.000646688 0.00019144)
(-0.00102876 -0.000651884 0.00018354)
(-0.00103423 -0.000657311 0.000174703)
(-0.00103933 -0.000662991 0.000165185)
(-0.00104405 -0.00066877 0.000155058)
(-0.00104783 -0.000674244 0.000144275)
(-0.00104996 -0.000679082 0.000132859)
(-0.00105024 -0.000682997 0.000121217)
(-0.0010509 -0.000686336 0.000109166)
(-0.00104808 -0.000687513 9.60039e-05)
(-0.00104947 -0.000691076 8.26855e-05)
(-0.00105286 -0.000695768 6.90717e-05)
(-0.00105283 -0.000698245 5.49356e-05)
(-0.00105015 -0.000698877 4.05058e-05)
(-0.0010475 -0.000698412 2.62482e-05)
(-0.00104957 -0.000699183 9.71915e-06)
(-0.000880167 -0.000320155 9.04821e-05)
(-0.000538104 -0.000304011 -0.000160117)
(-0.000485825 -0.000349313 -8.7457e-05)
(-0.000561594 -0.000450708 -2.96933e-05)
(-0.000648431 -0.000531061 2.56164e-05)
(-0.000731232 -0.000587394 7.16103e-05)
(-0.000806113 -0.000624805 0.000109122)
(-0.00087005 -0.000647214 0.000140573)
(-0.000923959 -0.000657969 0.000166457)
(-0.000966307 -0.000658601 0.000185519)
(-0.000999214 -0.000653688 0.000198034)
(-0.00102308 -0.00064585 0.000204916)
(-0.00104057 -0.000638287 0.000207405)
(-0.00105285 -0.00063334 0.000206215)
(-0.00106197 -0.000632107 0.000202418)
(-0.00106879 -0.000633164 0.000196761)
(-0.00107648 -0.000637184 0.000190125)
(-0.00108378 -0.000642563 0.000182473)
(-0.00108988 -0.00064822 0.000173873)
(-0.00109532 -0.000654056 0.000164555)
(-0.00110054 -0.000660159 0.000154648)
(-0.00110482 -0.000666069 0.00014407)
(-0.0011073 -0.000671405 0.000132843)
(-0.00110811 -0.000676005 0.000121425)
(-0.00111021 -0.00068037 0.000109589)
(-0.00110764 -0.000682189 9.64399e-05)
(-0.00110854 -0.00068584 8.30495e-05)
(-0.0011138 -0.000691793 6.94928e-05)
(-0.00111415 -0.000694901 5.52906e-05)
(-0.00111224 -0.000696494 4.07959e-05)
(-0.00111025 -0.000696719 2.64657e-05)
(-0.00111266 -0.000697472 9.81429e-06)
(-0.000985563 -0.000291253 0.000165233)
(-0.000613575 -0.000288151 -0.000170444)
(-0.000503212 -0.000314517 -9.78198e-05)
(-0.000572052 -0.000412802 -4.46849e-05)
(-0.000661835 -0.000497447 9.71345e-06)
(-0.000749382 -0.000559637 5.66483e-05)
(-0.000829735 -0.000602414 9.62859e-05)
(-0.000899234 -0.00062898 0.000130228)
(-0.000958061 -0.000642381 0.000158242)
(-0.00100472 -0.000644846 0.000179028)
(-0.00104122 -0.000641104 0.000192901)
(-0.00106811 -0.000633974 0.000200792)
(-0.00108827 -0.000626765 0.000204055)
(-0.00110293 -0.000621459 0.000203623)
(-0.00111283 -0.000619021 0.000200206)
(-0.00112035 -0.000619746 0.000194822)
(-0.00112894 -0.000623718 0.000188496)
(-0.00113712 -0.000629232 0.000181162)
(-0.001144 -0.000635143 0.000172869)
(-0.00114968 -0.000641078 0.000163788)
(-0.00115536 -0.000647472 0.000154138)
(-0.00115993 -0.000653723 0.000143777)
(-0.00116253 -0.000659578 0.000132752)
(-0.0011638 -0.000665082 0.000121578)
(-0.00116718 -0.000670522 0.000109947)
(-0.00116483 -0.000673212 9.6824e-05)
(-0.00116534 -0.000677293 8.33933e-05)
(-0.00117221 -0.000684162 6.98701e-05)
(-0.00117268 -0.000687758 5.55916e-05)
(-0.00117135 -0.000690188 4.1028e-05)
(-0.00117003 -0.000691081 2.66269e-05)
(-0.00117298 -0.000691896 9.88417e-06)
(-0.000922729 -0.000213154 0.00020835)
(-0.00066211 -0.000253225 -0.000169335)
(-0.00052579 -0.000281046 -0.000107994)
(-0.000578371 -0.000372099 -5.95478e-05)
(-0.000669361 -0.000460054 -6.79274e-06)
(-0.000761481 -0.000527826 4.08099e-05)
(-0.000847531 -0.000575766 8.23843e-05)
(-0.000923027 -0.000606416 0.000118616)
(-0.000987299 -0.000622519 0.000148712)
(-0.00103874 -0.00062689 0.000171306)
(-0.00107918 -0.000624365 0.000186679)
(-0.00110937 -0.000618006 0.000195756)
(-0.00113231 -0.000611183 0.000199905)
(-0.00114938 -0.000605943 0.000200195)
(-0.00116134 -0.000603018 0.000197468)
(-0.00116967 -0.000602944 0.000192545)
(-0.00117915 -0.000606549 0.000186583)
(-0.00118817 -0.000612038 0.000179626)
(-0.00119579 -0.000618202 0.000171703)
(-0.00120159 -0.000624338 0.000162914)
(-0.00120767 -0.000631211 0.000153575)
(-0.00121253 -0.000638089 0.000143493)
(-0.0012151 -0.000644548 0.000132706)
(-0.00121639 -0.000650762 0.000121733)
(-0.00122052 -0.000656984 0.000110242)
(-0.00121817 -0.000660495 9.71249e-05)
(-0.00121812 -0.000665068 8.36441e-05)
(-0.00122633 -0.000672469 7.01247e-05)
(-0.00122689 -0.000676459 5.57835e-05)
(-0.00122616 -0.000679611 4.11682e-05)
(-0.00122553 -0.000681112 2.67134e-05)
(-0.00122913 -0.000682072 9.92264e-06)
(-0.000997815 -0.000167513 0.000277659)
(-0.000719782 -0.000219138 -0.000167443)
(-0.00054687 -0.000244445 -0.000116409)
(-0.000579202 -0.000328473 -7.34302e-05)
(-0.000669995 -0.000418958 -2.35349e-05)
(-0.000766349 -0.000491939 2.41842e-05)
(-0.000858228 -0.00054482 6.73941e-05)
(-0.0009401 -0.000579429 0.00010564)
(-0.00101036 -0.000598304 0.000137722)
(-0.00106709 -0.000604622 0.00016218)
(-0.00111186 -0.000603348 0.000179171)
(-0.00114568 -0.000597837 0.00018961)
(-0.00117169 -0.000591526 0.000194853)
(-0.00119133 -0.000586452 0.000195989)
(-0.00120525 -0.000583413 0.000193968)
(-0.00121519 -0.000582937 0.000189692)
(-0.001226 -0.00058631 0.000184329)
(-0.00123595 -0.000591728 0.000177898)
(-0.00124425 -0.000598043 0.000170428)
(-0.00124979 -0.000604258 0.00016196)
(-0.00125571 -0.000611378 0.000152919)
(-0.00126016 -0.000618608 0.000143063)
(-0.00126238 -0.000625531 0.000132483)
(-0.0012636 -0.000632266 0.000121696)
(-0.00126827 -0.000639019 0.000110324)
(-0.00126596 -0.000643337 9.72319e-05)
(-0.00126555 -0.000648508 8.3732e-05)
(-0.00127462 -0.000656049 7.01982e-05)
(-0.00127532 -0.00066044 5.58227e-05)
(-0.00127509 -0.000664195 4.11828e-05)
(-0.00127521 -0.000666285 2.67032e-05)
(-0.00127952 -0.000667437 9.92058e-06)
(-0.000896687 -9.63738e-05 0.000295372)
(-0.000760434 -0.000176363 -0.000159877)
(-0.000570329 -0.000206884 -0.000123131)
(-0.000574878 -0.000282834 -8.56135e-05)
(-0.000663111 -0.000374431 -4.00497e-05)
(-0.000763101 -0.000452187 6.92942e-06)
(-0.000860912 -0.000509889 5.1333e-05)
(-0.00094958 -0.000548391 9.12981e-05)
(-0.00102636 -0.000570068 0.000125226)
(-0.00108898 -0.000578374 0.000151573)
(-0.00113861 -0.000578399 0.000170304)
(-0.0011765 -0.000573807 0.000182283)
(-0.00120579 -0.000568014 0.000188804)
(-0.00122809 -0.000563129 0.000190963)
(-0.00124414 -0.00056011 0.000189789)
(-0.00125579 -0.000559552 0.000186298)
(-0.00126785 -0.000562758 0.000181642)
(-0.00127851 -0.000567973 0.000175796)
(-0.00128737 -0.000574293 0.000168839)
(-0.00129258 -0.000580488 0.000160754)
(-0.00129823 -0.000587726 0.000152055)
(-0.0013023 -0.000595236 0.000142471)
(-0.00130413 -0.000602586 0.000132115)
(-0.00130506 -0.000609696 0.000121496)
(-0.00130983 -0.000616737 0.000110216)
(-0.0013075 -0.000621825 9.71602e-05)
(-0.00130687 -0.000627696 8.36739e-05)
(-0.00131613 -0.000634921 7.00999e-05)
(-0.00131695 -0.000639726 5.5716e-05)
(-0.00131716 -0.000644008 4.10778e-05)
(-0.00131801 -0.000646617 2.65931e-05)
(-0.00132314 -0.000648019 9.87472e-06)
(-0.000945384 -4.52137e-05 0.000357084)
(-0.000791564 -0.000131086 -0.000150366)
(-0.000594146 -0.00016789 -0.000127285)
(-0.000567523 -0.000236755 -9.55313e-05)
(-0.000648298 -0.000327085 -5.57548e-05)
(-0.000750477 -0.000408736 -1.06916e-05)
(-0.000854076 -0.000471097 3.42325e-05)
(-0.00094988 -0.000513433 7.55515e-05)
(-0.00103378 -0.000537946 0.000111131)
(-0.00110286 -0.000548237 0.000139335)
(-0.00115789 -0.000549527 0.000159887)
(-0.00120029 -0.000545835 0.000173559)
(-0.00123333 -0.000540626 0.000181571)
(-0.00125869 -0.000536039 0.000184988)
(-0.00127703 -0.000533102 0.000184854)
(-0.00129048 -0.000532537 0.000182302)
(-0.00130377 -0.000535566 0.000178463)
(-0.00131501 -0.000540494 0.000173278)
(-0.00132422 -0.000546709 0.000166902)
(-0.00132886 -0.000552792 0.000159257)
(-0.00133377 -0.000559951 0.000150918)
(-0.00133705 -0.000567559 0.000141628)
(-0.00133837 -0.000575231 0.000131529)
(-0.00133886 -0.00058266 0.000121082)
(-0.00134338 -0.000589846 0.000109882)
(-0.00134095 -0.00059568 9.6877e-05)
(-0.00134006 -0.000602254 8.34258e-05)
(-0.00134894 -0.000608846 6.98022e-05)
(-0.00134983 -0.000614059 5.54406e-05)
(-0.00135026 -0.000618759 4.08311e-05)
(-0.00135185 -0.000621851 2.63634e-05)
(-0.0013579 -0.000623537 9.77517e-06)
(-0.000971147 1.02535e-05 0.00040921)
(-0.000821209 -8.61314e-05 -0.000140405)
(-0.00061518 -0.00012742 -0.000128494)
(-0.000555202 -0.000190056 -0.000102147)
(-0.000624996 -0.000277613 -6.97951e-05)
(-0.000727793 -0.00036219 -2.82218e-05)
(-0.000836808 -0.000429037 1.62418e-05)
(-0.000940112 -0.000475284 5.84491e-05)
(-0.00103174 -0.00050266 9.54643e-05)
(-0.00110803 -0.000514917 0.000125465)
(-0.00116921 -0.000517426 0.000147908)
(-0.00121679 -0.000514594 0.000163429)
(-0.00125397 -0.000509882 0.00017313)
(-0.00128241 -0.000505441 0.000177984)
(-0.00130306 -0.000502529 0.000179087)
(-0.00131841 -0.000501975 0.000177667)
(-0.00133286 -0.000504759 0.00017478)
(-0.00134444 -0.000509294 0.000170358)
(-0.00135381 -0.000515317 0.000164654)
(-0.00135778 -0.000521311 0.00015754)
(-0.00136176 -0.000528371 0.000149623)
(-0.0013641 -0.000536044 0.000140676)
(-0.00136457 -0.00054388 0.000130837)
(-0.00136403 -0.000551457 0.000120521)
(-0.00136775 -0.000558603 0.00010936)
(-0.00136499 -0.00056513 9.64058e-05)
(-0.00136397 -0.000572488 8.30144e-05)
(-0.00137176 -0.000578178 6.93198e-05)
(-0.00137268 -0.000583819 5.50085e-05)
(-0.00137318 -0.000588912 4.04527e-05)
(-0.00137544 -0.000592426 2.60126e-05)
(-0.00138246 -0.000594376 9.61824e-06)
(-0.000846449 5.58294e-05 0.000392815)
(-0.000826601 -3.81198e-05 -0.000127451)
(-0.000634654 -8.7176e-05 -0.000127272)
(-0.000542255 -0.000144834 -0.000105525)
(-0.000593853 -0.000227243 -8.13013e-05)
(-0.000694029 -0.00031302 -4.50103e-05)
(-0.00080744 -0.000383963 -2.35753e-06)
(-0.000918394 -0.000434263 4.00257e-05)
(-0.00101845 -0.000464656 7.81742e-05)
(-0.00110274 -0.000478846 0.000109867)
(-0.00117079 -0.000482374 0.000134222)
(-0.0012241 -0.000480159 0.000151684)
(-0.00126582 -0.000475776 0.000163242)
(-0.00129786 -0.000471479 0.0001698)
(-0.00132129 -0.000468637 0.000172432)
(-0.00133864 -0.000468037 0.000172372)
(-0.00135414 -0.000470468 0.000170608)
(-0.00136574 -0.000474512 0.00016708)
(-0.00137471 -0.000480178 0.000162125)
(-0.00137754 -0.000486001 0.000155601)
(-0.00137998 -0.000492844 0.000148133)
(-0.00138092 -0.000500482 0.000139551)
(-0.00138039 -0.000508423 0.000129991)
(-0.00137855 -0.000516198 0.000119796)
(-0.00138099 -0.000523252 0.000108642)
(-0.00137753 -0.000530342 9.57204e-05)
(-0.00137592 -0.000538319 8.23746e-05)
(-0.00138222 -0.000543093 6.86135e-05)
(-0.00138292 -0.000549082 5.43781e-05)
(-0.00138319 -0.000554512 3.99064e-05)
(-0.00138603 -0.000558392 2.55096e-05)
(-0.00139423 -0.000560656 9.39073e-06)
(-0.000833994 9.99761e-05 0.000420619)
(-0.00082363 7.87557e-06 -0.000115197)
(-0.000647247 -4.74027e-05 -0.000123)
(-0.000527295 -0.000101409 -0.000105065)
(-0.000555349 -0.0001772 -8.91578e-05)
(-0.000649249 -0.000262319 -6.01791e-05)
(-0.000765466 -0.000336776 -2.10442e-05)
(-0.000883887 -0.000391261 2.04912e-05)
(-0.000993023 -0.000424962 5.93112e-05)
(-0.0010863 -0.000441179 9.2567e-05)
(-0.00116224 -0.00044553 0.000118903)
(-0.00122211 -0.000443535 0.0001384)
(-0.001269 -0.000439249 0.000151953)
(-0.00130473 -0.000434868 0.00016045)
(-0.00133072 -0.000431809 0.000164858)
(-0.00134997 -0.000430994 0.000166399)
(-0.00136639 -0.000432959 0.000165972)
(-0.00137776 -0.000436482 0.000163513)
(-0.00138608 -0.000441794 0.000159439)
(-0.00138754 -0.000447554 0.000153607)
(-0.00138811 -0.000454256 0.00014665)
(-0.00138717 -0.000461776 0.000138434)
(-0.00138492 -0.000469564 0.000129086)
(-0.001381 -0.000477476 0.000118924)
(-0.00138163 -0.000484523 0.000107726)
(-0.0013772 -0.000492301 9.48306e-05)
(-0.00137497 -0.0005011 8.15596e-05)
(-0.0013792 -0.000504944 6.77175e-05)
(-0.00137949 -0.000511308 5.3578e-05)
(-0.00137924 -0.000517058 3.92153e-05)
(-0.00138252 -0.000521224 2.48632e-05)
(-0.00139192 -0.000523686 9.09241e-06)
(-0.000815188 0.00013997 0.000440036)
(-0.000815678 5.02975e-05 -0.000103835)
(-0.000653974 -9.43446e-06 -0.000116826)
(-0.000511782 -6.12687e-05 -0.000100984)
(-0.000510831 -0.000129008 -9.23118e-05)
(-0.000593108 -0.000211111 -7.25227e-05)
(-0.000709334 -0.000287928 -3.89832e-05)
(-0.000834622 -0.000346642 2.29687e-07)
(-0.000953356 -0.000384052 3.89256e-05)
(-0.00105664 -0.0004026 7.34225e-05)
(-0.00114153 -0.000407699 0.000101691)
(-0.00120877 -0.000405671 0.000123352)
(-0.00126125 -0.000400844 0.000139191)
(-0.00130113 -0.000395789 0.000149835)
(-0.00133027 -0.000392504 0.000156295)
(-0.00135155 -0.0003914 0.00015978)
(-0.00136857 -0.00039276 0.000160943)
(-0.00137916 -0.000395665 0.000159723)
(-0.001386 -0.000400496 0.000156614)
(-0.00138544 -0.000406183 0.000151512)
(-0.00138355 -0.000412868 0.000145061)
(-0.00138027 -0.000420577 0.000137217)
(-0.00137581 -0.000428469 0.000128077)
(-0.00136931 -0.00043682 0.000117927)
(-0.0013674 -0.000443888 0.000106629)
(-0.00136137 -0.000452177 9.37215e-05)
(-0.00135791 -0.000461547 8.04963e-05)
(-0.00135987 -0.000464863 6.65836e-05)
(-0.00135943 -0.000471484 5.25685e-05)
(-0.00135831 -0.000477499 3.83461e-05)
(-0.00136189 -0.000481849 2.40431e-05)
(-0.00137266 -0.000484481 8.71033e-06)
(-0.000774404 0.000171874 0.000440271)
(-0.000789851 8.60202e-05 -9.14486e-05)
(-0.000651764 2.57955e-05 -0.000108594)
(-0.000496806 -2.53334e-05 -9.38863e-05)
(-0.000463171 -8.46345e-05 -9.03336e-05)
(-0.00052715 -0.000161134 -8.06726e-05)
(-0.000639652 -0.000238785 -5.51003e-05)
(-0.000770141 -0.000301384 -2.00788e-05)
(-0.000898743 -0.000342905 1.73198e-05)
(-0.00101302 -0.000364212 5.24586e-05)
(-0.00110825 -0.000370353 8.25205e-05)
(-0.00118398 -0.000368067 0.000106477)
(-0.00124298 -0.000362517 0.000124861)
(-0.00128737 -0.000356478 0.000138069)
(-0.00131941 -0.00035224 0.00014698)
(-0.0013424 -0.000350325 0.000152663)
(-0.00135976 -0.000350948 0.000155642)
(-0.00136928 -0.00035341 0.000155855)
(-0.0013742 -0.000358098 0.000153857)
(-0.00137107 -0.000364077 0.00014958)
(-0.00136608 -0.000371015 0.000143671)
(-0.00135964 -0.000378958 0.000136153)
(-0.00135223 -0.000386997 0.000127143)
(-0.0013425 -0.00039592 0.000116922)
(-0.00133746 -0.000403151 0.000105446)
(-0.0013292 -0.000411778 9.24612e-05)
(-0.00132387 -0.000421467 7.92339e-05)
(-0.00132321 -0.000424654 6.52405e-05)
(-0.00132156 -0.000431361 5.13628e-05)
(-0.00131912 -0.000437551 3.73031e-05)
(-0.00132278 -0.000441945 2.30444e-05)
(-0.00133498 -0.000444676 8.23949e-06)
(-0.000675003 0.000179679 0.000396297)
(-0.000757722 0.000115675 -7.97687e-05)
(-0.000639814 5.6576e-05 -9.85371e-05)
(-0.000478877 5.6997e-06 -8.36682e-05)
(-0.000413669 -4.57257e-05 -8.29121e-05)
(-0.000452813 -0.000114062 -8.29833e-05)
(-0.000555497 -0.00019008 -6.76924e-05)
(-0.00068883 -0.000255936 -3.93873e-05)
(-0.000826888 -0.000301758 -5.01605e-06)
(-0.000953346 -0.000326415 2.97888e-05)
(-0.0010601 -0.000333991 6.1297e-05)
(-0.00114555 -0.000331287 8.76552e-05)
(-0.00121174 -0.000324792 0.000108757)
(-0.00126148 -0.000317679 0.000125035)
(-0.0012969 -0.000312282 0.000136902)
(-0.00132152 -0.000309378 0.000145169)
(-0.00133856 -0.000309172 0.000150235)
(-0.00134623 -0.000311253 0.000152072)
(-0.00134838 -0.000315965 0.00015129)
(-0.00134206 -0.000322463 0.000147885)
(-0.00133335 -0.000329917 0.000142514)
(-0.00132278 -0.000338138 0.000135225)
(-0.00131124 -0.000346298 0.000126195)
(-0.00129742 -0.000355784 0.000115777)
(-0.00128854 -0.00036328 0.000104025)
(-0.00127754 -0.000372144 9.09124e-05)
(-0.0012698 -0.000381958 7.76561e-05)
(-0.00126638 -0.000385442 6.3597e-05)
(-0.00126312 -0.000392107 4.98869e-05)
(-0.00125895 -0.000398427 3.60331e-05)
(-0.00126248 -0.00040274 2.18296e-05)
(-0.00127634 -0.000405558 7.66593e-06)
(-0.000642129 0.000195303 0.000384144)
(-0.000723894 0.000140667 -6.9931e-05)
(-0.000626983 8.24416e-05 -8.89431e-05)
(-0.000462247 3.10864e-05 -7.18046e-05)
(-0.000365422 -1.39677e-05 -7.07984e-05)
(-0.000373828 -7.24166e-05 -7.83884e-05)
(-0.000459723 -0.000143859 -7.48847e-05)
(-0.000591102 -0.000211454 -5.62409e-05)
(-0.000737886 -0.000261649 -2.73035e-05)
(-0.000876909 -0.000289936 5.74873e-06)
(-0.000997034 -0.000299502 3.80998e-05)
(-0.00109401 -0.000296838 6.69231e-05)
(-0.00116867 -0.000289045 9.12161e-05)
(-0.00122371 -0.000280516 0.000110966)
(-0.00126239 -0.000273761 0.000126276)
(-0.00128836 -0.000269806 0.000137558)
(-0.00130477 -0.000268923 0.000145058)
(-0.00131004 -0.000270859 0.000148727)
(-0.00130843 -0.000275819 0.000149218)
(-0.00129778 -0.000282978 0.000146634)
(-0.00128439 -0.000291105 0.000141702)
(-0.00126897 -0.000299792 0.000134527)
(-0.00125255 -0.000308253 0.000125336)
(-0.001234 -0.000318396 0.000114578)
(-0.0012205 -0.000326273 0.000102408)
(-0.0012059 -0.00033523 8.90604e-05)
(-0.001195 -0.000344974 7.57278e-05)
(-0.00118837 -0.000349001 6.15997e-05)
(-0.0011831 -0.000355504 4.80921e-05)
(-0.00117676 -0.000361914 3.45029e-05)
(-0.00117987 -0.000365992 2.03794e-05)
(-0.00119533 -0.0003688 6.9818e-06)
(-0.000624435 0.000210608 0.000371271)
(-0.000685227 0.000157126 -6.04686e-05)
(-0.000602854 0.000101634 -7.79924e-05)
(-0.000442269 5.02265e-05 -5.81411e-05)
(-0.000318952 9.62236e-06 -5.48373e-05)
(-0.000293609 -3.8582e-05 -6.65552e-05)
(-0.000353755 -0.000101718 -7.43191e-05)
(-0.000476526 -0.000168567 -6.84675e-05)
(-0.000629064 -0.000222453 -4.83525e-05)
(-0.000782395 -0.000255057 -1.9198e-05)
(-0.000917353 -0.000266936 1.31003e-05)
(-0.00102711 -0.000264612 4.43247e-05)
(-0.00111142 -0.000255571 7.23083e-05)
(-0.00117298 -0.000245559 9.61281e-05)
(-0.00121511 -0.000237501 0.000115425)
(-0.00124173 -0.000232552 0.00013011)
(-0.00125616 -0.000231098 0.000140247)
(-0.00125802 -0.000233151 0.000145853)
(-0.00125186 -0.000238704 0.00014764)
(-0.00123626 -0.000246836 0.000145822)
(-0.00121727 -0.000255888 0.00014117)
(-0.00119578 -0.000265195 0.000133877)
(-0.00117327 -0.000274093 0.000124275)
(-0.00114928 -0.000284923 0.000113021)
(-0.00113061 -0.000293341 0.000100334)
(-0.00111197 -0.000302375 8.66943e-05)
(-0.00109741 -0.000311944 7.32809e-05)
(-0.00108738 -0.000316617 5.91167e-05)
(-0.00107959 -0.000322681 4.58572e-05)
(-0.00107064 -0.000328953 3.26208e-05)
(-0.00107313 -0.000332663 1.86479e-05)
(-0.0010904 -0.000335535 6.17557e-06)
(-0.000588439 0.000212743 0.000335234)
(-0.000639964 0.000163652 -5.14254e-05)
(-0.00056977 0.00011292 -6.52059e-05)
(-0.000417523 6.23061e-05 -4.26903e-05)
(-0.000274571 2.44154e-05 -3.60743e-05)
(-0.000216719 -1.47471e-05 -4.84869e-05)
(-0.000244442 -6.68779e-05 -6.46532e-05)
(-0.000348226 -0.000129001 -7.34275e-05)
(-0.000502787 -0.000185374 -6.6713e-05)
(-0.000669159 -0.000221886 -4.44604e-05)
(-0.00082169 -0.000236632 -1.33154e-05)
(-0.000947011 -0.000235168 2.03957e-05)
(-0.00104228 -0.000225381 5.26537e-05)
(-0.00111 -0.000213707 8.12122e-05)
(-0.00115486 -0.000204354 0.000104917)
(-0.00118177 -0.00019874 0.000123367)
(-0.00119393 -0.000197251 0.000136387)
(-0.00119135 -0.000199873 0.000143929)
(-0.00117912 -0.000206352 0.00014681)
(-0.00115716 -0.000215685 0.000145485)
(-0.00113158 -0.000225978 0.000140892)
(-0.0011033 -0.000236248 0.000133282)
(-0.00107385 -0.000245796 0.000123024)
(-0.00104369 -0.000256946 0.000111035)
(-0.00101912 -0.000265598 9.76601e-05)
(-0.000995834 -0.000274348 8.36214e-05)
(-0.000977215 -0.000283494 7.01342e-05)
(-0.000963492 -0.000288623 5.59854e-05)
(-0.000953095 -0.000294106 4.30596e-05)
(-0.00094125 -0.000300049 3.03065e-05)
(-0.000942775 -0.000303248 1.66055e-05)
(-0.000961667 -0.000306186 5.24149e-06)
(-0.000559875 0.000208049 0.000288085)