/*--------------------------------*- C++ -*----------------------------------*\
  =========                 |
  \\      /  F ield         | OpenFOAM: The Open Source CFD Toolbox
   \\    /   O peration     | Website:  https://openfoam.org
    \\  /    A nd           | Version:  6
     \\/     M anipulation  |
\*---------------------------------------------------------------------------*/
FoamFile
{
    version     2.0;
    format      ascii;
    class       volScalarField;
    location    "0.8";
    object      yPlus;
}
// * * * * * * * * * * * * * * * * * * * * * * * * * * * * * * * * * * * * * //

dimensions      [0 0 0 0 0 0 0];

internalField   uniform 0;

boundaryField
{
    inlet
    {
        type            calculated;
        value           uniform 0;
    }
    outlet
    {
        type            calculated;
        value           uniform 0;
    }
    roughCylinder
    {
        type            calculated;
        value           nonuniform List<scalar> 
5120
(
43.4077
30.984
38.8578
42.6517
45.3123
46.5381
47.3057
47.6436
47.969
48.107
48.2314
48.2257
48.1745
48.0597
47.9706
47.8777
47.7674
47.6204
47.458
47.2611
46.9869
46.6161
46.1105
45.3789
44.4138
43.7179
43.4413
42.9772
42.3563
41.5825
40.9573
40.8851
11.0872
28.6527
38.8629
42.5621
45.2409
46.5199
47.3094
47.6771
48.0197
48.1716
48.2975
48.2974
48.2574
48.1612
48.0945
48.017
47.9145
47.7893
47.6482
47.4665
47.2205
46.8869
46.429
45.7668
44.8866
44.207
43.9589
43.5057
42.9379
42.223
41.6342
41.5627
48.7547
32.1207
38.6033
42.4923
45.1833
46.5278
47.3474
47.7545
48.1183
48.2827
48.4081
48.4151
48.3888
48.3157
48.2724
48.2061
48.1152
48.0125
47.8887
47.7217
47.5037
47.2049
46.791
46.1948
45.4024
44.7427
44.5137
44.0727
43.5599
42.8997
42.3469
42.2748
35.3599
28.8545
38.4225
42.4314
45.1402
46.5495
47.4127
47.8689
48.256
48.4325
48.5596
48.5751
48.5692
48.5263
48.5025
48.4419
48.3656
48.284
48.1739
48.0239
47.8332
47.5657
47.1919
46.6549
45.9543
45.3233
45.1039
44.687
44.2289
43.6241
43.108
43.035
60.7866
33.9393
38.2431
42.3535
45.0998
46.5891
47.507
48.0171
48.4284
48.6187
48.7537
48.7836
48.8025
48.7884
48.7786
48.7195
48.6636
48.6021
48.5033
48.3719
48.2047
47.966
47.6286
47.1448
46.5376
45.9376
45.7144
45.3392
44.9326
44.3791
43.9005
43.825
55.7486
32.128
37.8748
42.2658
45.0681
46.6347
47.6168
48.1869
48.6252
48.8339
48.9821
49.0295
49.0747
49.0889
49.0868
49.0284
48.9933
48.9514
48.8649
48.7539
48.6091
48.3973
48.0914
47.6556
47.1432
46.5731
46.3396
46.0269
45.6634
45.1626
44.7212
44.6463
67.0122
35.4115
37.7703
42.168
45.0255
46.6894
47.748
48.3814
48.8491
49.0806
49.2472
49.3188
49.389
49.4264
49.4293
49.3697
49.3579
49.3371
49.2641
49.17
49.0445
48.8592
48.5834
48.1917
47.7729
47.2325
46.9782
46.7472
46.4212
45.9701
45.5665
45.491
79.2447
39.2443
37.4154
41.998
44.979
46.7448
47.886
48.5891
49.0919
49.3526
49.5413
49.6364
49.7257
49.7817
49.7871
49.7307
49.7412
49.7441
49.6905
49.6116
49.5072
49.3459
49.0932
48.7426
48.413
47.899
47.6261
47.4891
47.1913
46.7904
46.4244
46.3526
76.9639
42.0465
37.5016
41.8441
44.9102
46.797
48.0355
48.8147
49.3571
49.6503
49.8624
49.9801
50.0873
50.1606
50.1735
50.1202
50.1527
50.1806
50.1482
50.0778
49.9948
49.8592
49.6311
49.321
49.0753
48.5898
48.2973
48.2585
47.985
47.6327
47.3041
47.2367
83.9677
46.5997
37.6249
41.5565
44.8057
46.834
48.1784
49.0411
49.6302
49.9603
50.1955
50.333
50.4569
50.5447
50.563
50.5202
50.576
50.632
50.6285
50.5647
50.5037
50.3873
50.1768
49.9067
49.7365
49.2812
48.9804
49.0334
48.7818
48.4775
48.1876
48.1261
75.4394
48.5219
38.3846
41.2812
44.6599
46.8488
48.3164
49.2727
49.9144
50.284
50.5421
50.6984
50.8369
50.9435
50.9759
50.9456
51.0226
51.104
51.1292
51.069
51.0314
50.9394
50.7533
50.5239
50.4204
49.9994
49.7001
49.8291
49.5984
49.3407
49.0882
49.0356
81.4504
51.3064
39.1603
40.9224
44.4408
46.8168
48.4246
49.4837
50.1871
50.5995
50.8804
51.0566
51.2161
51.3436
51.39
51.3769
51.4786
51.5869
51.6458
51.5889
51.5688
51.4926
51.3294
51.1405
51.0954
50.7151
50.4317
50.6172
50.4112
50.1965
49.9834
49.9403
71.691
52.8878
40.267
40.5116
44.1349
46.7314
48.5029
49.6804
50.4546
50.9164
51.226
51.4265
51.6044
51.7497
51.8157
51.8261
51.9526
52.0819
52.1721
52.1208
52.12
52.068
51.936
51.7827
51.7833
51.4462
51.193
51.4094
51.2319
51.0601
50.8846
50.8533
76.9259
54.1203
41.5368
40.208
43.7321
46.5531
48.5142
49.827
50.6874
51.206
51.5481
51.7761
51.9809
52.154
52.242
52.2788
52.4324
52.5811
52.7
52.6513
52.6577
52.6224
52.5275
52.4131
52.4548
52.1667
51.9514
52.1807
52.0354
51.9021
51.7651
51.7484
80.8524
55.8427
42.756
39.8143
43.1881
46.2724
48.4599
49.9342
50.8974
51.4867
51.8743
52.1407
52.3741
52.5629
52.6669
52.7341
52.9149
53.0777
53.2244
53.1861
53.2048
53.1945
53.1362
53.0473
53.1184
52.8823
52.722
52.9421
52.8362
52.7422
52.6434
52.6394
70.7755
56.2443
44.1173
39.6415
42.5251
45.8321
48.2805
49.9524
51.0462
51.7221
52.1642
52.4735
52.7353
52.9521
53.0876
53.1887
53.3955
53.566
53.7278
53.6917
53.7116
53.7248
53.714
53.6571
53.7525
53.5644
53.4515
53.6567
53.5889
53.5313
53.4705
53.4868
72.2865
56.5961
45.266
39.5117
41.7176
45.2262
47.9812
49.8933
51.1513
51.937
52.45
52.8101
53.1131
53.3511
53.4989
53.6288
53.8612
54.0397
54.2207
54.1961
54.2231
54.2556
54.277
54.2366
54.3537
54.2226
54.1772
54.3521
54.3286
54.308
54.2851
54.3176
73.8101
57.224
46.3626
39.5169
40.7646
44.3652
47.4583
49.6792
51.1529
52.0819
52.6797
53.0993
53.4334
53.6948
53.8824
54.0519
54.3038
54.478
54.6585
54.6357
54.666
54.7253
54.7849
54.767
54.8973
54.8191
54.8366
54.9867
55.0095
55.0275
55.0426
55.0961
73.6089
56.9833
47.2031
39.7471
39.7504
43.2592
46.725
49.3107
51.0667
52.1801
52.8959
53.3917
53.7683
54.0468
54.2513
54.4459
54.717
54.8936
55.0796
55.064
55.1004
55.1828
55.2788
55.2883
55.4328
55.4016
55.4764
55.6034
55.6679
55.7218
55.7732
55.8466
66.6658
56.9316
47.7422
39.8749
38.6067
41.7895
45.5902
48.6552
50.7786
52.1577
53.0235
53.6033
54.0336
54.3537
54.5892
54.8099
55.0843
55.2528
55.4385
55.4379
55.489
55.5831
55.6918
55.7215
55.8765
55.8956
56.0281
56.1467
56.2508
56.3416
56.4285
56.5327
67.4482
57.2316
48.7746
40.3364
37.4911
39.9649
44.0643
47.6743
50.3011
52.0014
53.0937
53.805
54.3078
54.6509
54.91
55.1564
55.445
55.6104
55.7859
55.787
55.8478
55.9579
56.0791
56.1311
56.2851
56.336
56.5147
56.6247
56.7701
56.9038
57.0217
57.1537
70.3454
57.3487
49.2046
40.6807
36.3391
37.6919
41.7837
46.0873
49.3688
51.6101
52.9975
53.8708
54.4595
54.8832
55.1881
55.4491
55.7182
55.8728
56.046
56.0637
56.1275
56.2247
56.326
56.4071
56.5687
56.6606
56.8896
57.0034
57.1767
57.3515
57.4984
57.6783
70.3927
56.8669
49.0339
40.6767
35.0962
35.0298
38.7215
43.6715
47.9887
50.8563
52.7133
53.8791
54.6041
55.0652
55.4046
55.7073
55.9903
56.1278
56.2665
56.2788
56.3514
56.447
56.5203
56.6138
56.7617
56.8746
57.1528
57.2708
57.4768
57.6956
57.8593
58.0935
70.0241
56.587
48.7896
40.3771
33.5677
31.5729
34.2572
39.7754
45.2553
49.5293
52.0965
53.6109
54.557
55.1669
55.5821
55.8657
56.0954
56.2254
56.3585
56.3731
56.4259
56.4908
56.5163
56.6289
56.7478
56.8621
57.1783
57.2974
57.5092
57.7759
57.9504
58.2735
69.1249
56.2282
48.3895
39.5848
31.3298
26.7996
26.2206
32.1062
41.1416
47.098
50.9539
53.1957
54.4355
55.1436
55.6088
55.9677
56.2235
56.3102
56.3751
56.3623
56.3773
56.3862
56.3082
56.3938
56.4497
56.539
56.8969
57.0032
57.2175
57.5288
57.689
58.1412
67.5629
55.4492
47.6047
38.0858
27.1571
11.2993
5.36451
17.1759
26.3146
42.1933
48.9305
52.2014
53.9974
55.0182
55.5895
55.8676
56.0166
56.0946
56.1365
56.0672
55.9705
55.8775
55.6827
55.717
55.6318
55.5982
55.9374
55.9986
56.1531
56.5056
56.6295
57.2909
65.9077
54.2144
46.2604
35.3267
18.738
5.37593
12.1309
12.1579
8.66265
30.3266
45.1736
50.8782
53.3297
54.5524
55.2598
55.6985
55.8661
55.7799
55.624
55.4404
55.193
54.8799
54.3547
54.1879
53.854
53.6217
53.9132
53.8751
53.9084
54.283
54.2909
55.3252
64.6869
53.0617
44.8132
32.1005
7.94378
6.23283
9.6782
12.8779
12.7198
3.14024
39.0876
48.4521
52.2632
54.0003
54.759
54.9464
54.9205
54.8267
54.56
54.0731
53.3877
52.6873
51.7511
51.2101
50.331
49.5148
49.3649
48.8683
48.2811
48.2262
47.931
49.9669
63.7118
52.5527
44.2771
31.3766
8.45466
15.0151
23.8574
5.90898
8.9
18.3944
35.6944
46.228
50.6973
52.7378
53.7497
54.1789
54.0149
53.3452
52.4435
51.4587
50.1472
48.5886
46.303
43.907
40.8061
37.8071
35.6824
34.1598
31.9879
30.7122
30.0673
33.9028
61.8241
52.8673
45.3832
34.1713
18.4941
21.2271
28.8496
14.7327
16.5969
26.5094
34.302
44.2049
49.0359
51.2931
51.9746
51.6877
51.0408
50.1384
48.6132
46.1282
42.0166
36.4134
30.0295
22.7436
14.742
4.18247
21.3587
17.0577
15.1925
16.3155
8.159
15.4735
56.3225
52.2194
46.9346
38.7894
28.0722
26.5748
30.0661
6.14953
13.9055
29.3223
34.3033
42.6566
46.1852
48.2683
49.0869
48.8196
47.2144
43.7727
37.874
29.3506
17.2635
21.9338
4.29903
20.5425
18.4333
18.1324
11.446
20.2398
14.3145
17.933
17.6207
13.2474
46.689
48.9407
46.5546
41.5171
34.534
31.2874
29.5142
7.8553
6.60722
24.5208
32.4912
38.671
41.9905
43.3986
42.1074
38.2214
31.3849
20.1402
21.3031
20.9835
15.7129
20.993
18.0663
24.2769
26.4446
28.1013
30.3222
29.718
30.7095
30.9291
30.9
30.7848
34.7054
43.4398
43.7838
41.0927
36.3502
33.1695
23.0224
18.1617
12.538
8.34445
19.4635
23.4523
24.5397
23.1918
16.7015
20.5398
12.2894
8.04165
17.1204
26.6324
31.0473
34.3742
37.2636
37.5307
37.6639
36.5164
36.0314
34.8911
33.4235
33.3275
33.075
33.3257
26.0809
38.4101
40.2525
38.9768
36.0158
33.4466
15.3114
8.39434
10.807
2.44262
12.6986
11.633
18.7653
11.1873
10.8693
19.9091
29.5398
36.5187
40.7307
41.8591
42.1045
41.3206
40.5217
40.053
39.3885
38.5299
37.8541
36.291
35.371
34.8675
34.5959
33.8214
20.9238
34.3452
36.3895
35.1404
30.6666
12.851
12.2558
6.23324
17.1808
15.6354
20.957
24.9606
30.162
35.5869
38.9621
41.461
42.3679
42.9793
43.9875
44.9475
45.0493
45.0103
45.1077
45.0243
44.4066
43.1933
42.5595
40.9625
39.818
39.7059
39.4153
38.9355
18.4218
31.9235
33.4666
30.9576
22.1837
8.87511
13.1561
15.6307
17.1435
21.7015
31.1164
35.0207
38.195
39.3248
40.3221
41.7087
44.0499
46.7429
49.3869
50.7502
51.0361
50.2837
49.7127
48.9571
48.2918
47.2591
46.8132
45.862
45.0715
45.0888
45.0456
44.7827
14.9699
28.4243
29.0547
24.2213
14.2196
7.87513
10.1573
17.6329
24.4378
26.097
25.1495
29.5643
35.7842
40.282
43.5113
46.1836
49.1066
51.4349
53.6835
54.3992
53.6664
52.1633
51.2273
50.6545
50.3168
49.7537
49.5169
48.7475
48.3618
48.5486
48.6202
48.3605
12.4
26.4156
26.9973
21.4065
9.78918
8.25829
18.7612
26.866
28.8867
28.3655
27.8856
30.1146
35.8113
41.1953
43.905
47.0024
50.9794
53.1023
54.4768
54.3173
53.306
51.9359
51.688
51.4928
51.6734
51.5114
51.3617
51.2451
51.0164
51.2377
51.4242
51.6533
3.24128
21.9383
23.2535
16.7176
11.8668
19.763
26.838
30.7111
32.4856
32.9038
32.5369
32.3479
34.8699
39.6774
41.2896
43.7212
49.6531
51.389
52.4171
52.8277
52.9302
52.1855
51.9679
51.4938
51.8329
51.9751
51.8824
52.2429
52.3433
52.5679
52.8661
53.2165
5.64159
18.2282
22.4224
21.7744
17.879
19.9458
25.8872
29.8297
31.5456
32.1712
32.9978
34.7718
38.0951
39.8413
32.5266
31.3966
46.7636
51.5522
52.3192
52.0639
51.1427
49.1984
48.0199
46.8704
47.3431
47.7891
48.0132
48.6048
48.94
49.2699
49.7161
51.0717
11.7693
8.9602
7.71868
5.1387
11.3812
24.3704
44.5212
32.8211
38.3416
28.0699
35.779
24.3012
33.4971
22.1433
29.8038
22.6653
25.3946
23.4471
22.9783
21.9079
21.8894
23.1355
23.2261
25.5809
22.6112
30.0386
22.1157
33.7204
24.4289
36.0459
28.4279
38.7805
33.3601
44.8294
24.8311
11.665
2.27003
8.15885
9.3289
12.0128
10.8921
7.22804
8.59912
5.9195
8.04609
33.0858
32.7593
26.9975
31.7164
27.3509
31.8556
28.5767
32.4948
30.5534
33.7979
33.4134
35.8967
36.7836
38.5176
39.7199
39.7339
38.5389
36.7884
35.9336
33.4521
33.8683
30.6229
32.577
28.6676
31.948
27.4618
31.8409
27.1759
32.8965
33.3055
6.82334
5.50623
7.85083
7.37579
10.9309
11.8958
9.19011
8.9343
15.3798
23.7837
33.1652
28.6313
30.2747
30.8191
31.3295
32.5088
33.0228
34.4198
35.3227
36.9979
38.3103
40.2444
41.8371
43.6295
45.034
45.0491
43.6332
41.8395
40.2468
38.3292
37.0055
35.3748
34.4088
33.1215
32.4519
31.4876
30.7057
30.4702
28.5116
33.3143
23.5772
15.4935
11.4045
8.97301
11.675
11.2786
11.4167
15.4435
25.3852
27.0462
32.7897
29.2262
32.7127
31.704
34.3088
33.955
36.0709
36.4828
38.2628
39.3998
41.1658
42.793
44.5192
46.1903
47.7323
47.7493
46.1974
44.5239
42.8015
41.1698
39.4191
38.2607
36.508
36.0564
33.9803
34.2854
31.7248
32.7094
29.172
32.913
26.6628
25.949
14.0536
11.3079
11.0849
7.19165
12.9705
20.1541
27.4466
28.4816
33.3766
31.1841
33.9814
33.7197
35.8406
35.9344
37.6805
38.2616
40.0585
40.9722
42.7962
44.1837
45.9153
47.5508
49.254
49.2738
47.5657
45.934
44.1988
42.8157
40.9813
40.0701
38.2494
37.6782
35.8938
35.8614
33.6326
34.0755
30.9857
33.5991
27.9669
28.1307
19.2644
12.8796
6.9088
7.02982
13.9109
20.0863
29.3065
29.5727
35.1318
32.9004
35.6061
35.6817
37.235
37.3675
38.9163
39.3857
41.1319
42.0124
43.7133
44.9864
46.6934
48.4162
50.4013
50.4239
48.4402
46.7263
45.0143
43.7463
42.032
41.1381
39.3823
38.8838
37.3667
37.1756
35.71
35.5509
32.8823
35.1527
29.4642
29.2934
20.3176
13.9279
6.87853
8.89169
14.7736
20.2475
30.7168
31.4976
36.7894
35.2444
37.3089
38.3352
38.479
38.7136
39.7056
40.3061
41.8437
42.7704
44.4494
45.6342
47.4552
49.3734
51.7211
51.7463
49.4078
47.4988
45.6758
44.4999
42.7916
41.8691
40.2852
39.7117
38.6542
38.5143
38.2522
37.3956
35.0868
36.9682
31.1748
31.114
19.7567
14.6941
8.03725
11.2037
15.7463
20.3537
32.0601
33.4922
39.2247
37.6699
39.8951
40.7694
40.4795
40.0407
40.6185
41.1005
42.6317
43.563
45.2647
46.5711
48.4713
50.6672
53.3537
53.3816
50.7123
48.5193
46.6369
45.3094
43.6221
42.6321
41.1354
40.5714
40.0642
40.4542
40.7412
40.0013
37.484
39.3459
33.5608
31.6059
21.3736
15.8414
11.0936
12.7325
16.7211
17.4353
33.2583
35.7179
41.1872
40.8824
41.9984
43.5805
42.0025
41.718
41.7775
42.1824
43.5672
44.7031
46.3545
47.8382
49.7998
52.2074
55.2047
55.2357
52.2598
49.8577
47.9137
46.4138
44.7708
43.5829
42.2183
41.7585
41.7096
42.049
43.4914
42.1516
40.7867
41.1788
35.8089
33.1673
17.716
16.737
12.6087
15.3013
18.3147
10.3247
33.5646
37.1303
43.1764
44.0206
43.5563
45.3911
43.3326
43.0732
42.9704
43.3196
44.857
45.9724
47.731
49.2505
51.2995
53.8297
57.1021
57.1357
53.8891
51.3622
49.3429
47.7904
46.0618
44.8694
43.3685
42.9554
43.0487
43.3873
45.3443
43.5806
44.1003
43.0612
37.1731
33.55
9.8585
17.8556
15.344
20.771
11.6768
21.1757
29.7149
39.6584
44.152
47.0448
43.8197
46.499
43.0413
43.6379
43.465
44.5344
45.9967
47.3858
49.1266
50.7154
52.8499
55.4218
58.8985
58.935
55.4822
52.9295
50.8031
49.2133
47.4615
46.0391
44.5706
43.435
43.6541
42.958
46.6062
43.6912
47.1585
44.0549
39.7112
28.8953
17.7653
20.2678
20.2216
25.7731
21.0767
11.6227
18.0089
40.0427
47.6134
48.1237
42.2841
44.583
40.9908
43.0919
44.1412
45.2331
47.5125
48.7065
50.6918
52.1186
54.4338
57.0251
60.5663
60.6035
57.0895
54.5165
52.2256
50.7671
48.8261
47.5232
45.3354
44.0559
43.1325
40.8873
44.5747
42.3095
48.1561
47.5193
39.8964
17.4818
11.9633
11.8177
26.0346
31.2562
11.4431
20.227
27.5533
51.5321
50.3758
43.0133
36.157
35.2278
38.4408
42.6829
44.6652
46.6182
49.2032
50.2051
52.4115
53.5974
56.0037
58.6662
62.0618
62.0992
58.72
56.1133
53.6719
52.5439
50.2621
49.3338
46.6016
44.7757
42.5524
38.4595
35.0772
36.1978
42.9606
50.3755
51.4921
27.4194
20.3105
14.3876
31.3303
33.2832
20.014
7.8926
37.6485
48.0355
36.241
14.7502
21.9778
25.6115
40.7665
42.9542
46.9908
48.5905
51.1874
52.1396
54.0562
55.2259
57.5454
60.2378
63.4233
63.4513
60.2976
57.6398
55.3188
54.1523
52.2626
51.2389
48.7403
46.9468
43.0899
40.6765
25.3606
21.9966
15.5594
36.338
47.9688
37.678
4.31476
20.1423
33.3761
27.2989
14.8711
2.73396
29.1928
31.7914
8.53872
15.8512
11.8113
32.8016
44.8117
45.7331
49.8164
51.4063
53.0556
54.4134
55.3839
57.1066
58.8682
61.6981
64.5313
64.5534
61.746
58.9685
57.1651
55.5205
54.4613
53.2245
51.4048
50.0494
45.5815
45.1356
32.492
11.7748
15.8248
9.16841
31.9856
29.2697
11.6084
14.9609
27.4175
18.1882
17.9033
13.1234
18.8326
17.8755
5.35408
6.17683
24.2849
44.0556
47.0202
50.2014
52.8033
53.9313
55.3417
56.0286
57.2488
58.6312
60.5086
62.924
65.5836
65.5982
62.9605
60.5949
58.6735
57.3818
56.0509
55.5353
53.8948
53.0817
50.0642
47.399
43.7999
25.3009
15.3918
6.2634
17.7998
18.8393
8.18041
17.1162
21.2046
47.3974
38.8886
27.317
21.6709
10.8982
4.90693
11.5181
42.0817
47.8669
51.7359
53.8676
55.4672
56.3008
57.1774
57.8575
59.0011
60.2328
62.1214
64.1438
66.4398
66.4443
64.1829
62.1606
60.2985
59.0631
57.9414
57.26
56.3976
55.5585
53.9876
51.7951
48.0604
42.0561
13.0304
4.91357
10.4356
21.3335
27.2774
39.3457
47.9445
51.8786
37.6222
26.8911
7.10677
12.1685
19.0919
40.6363
48.3927
53.0726
55.2548
56.7888
57.716
58.3238
59.0155
59.7023
60.677
61.9233
63.5645
65.4559
67.0055
67.0095
65.4828
63.574
61.9968
60.6917
59.8177
59.0462
58.4595
57.7724
56.9255
55.3305
53.2043
48.4879
40.7547
19.1969
2.12269
6.22708
26.6201
38.2656
52.1851
47.0718
28.6377
13.6333
14.5838
16.6106
36.4125
50.9358
52.0419
57.4321
57.2842
59.5096
59.3849
60.4503
60.7372
61.6265
62.4174
63.7401
65.1498
66.6387
67.4667
67.4729
66.6459
65.1735
63.7651
62.4765
61.675
60.839
60.5069
59.5375
59.5534
57.4794
57.4496
52.2482
50.9528
36.5003
16.7777
14.7234
13.9164
28.0513
46.7014
43.0333
26.1078
3.17673
13.3117
32.1883
47.0132
53.2586
55.7459
59.1325
59.4617
61.0925
61.2273
62.1444
62.6396
63.4395
64.4164
65.4757
66.7035
67.5703
67.9407
67.9481
67.5755
66.7262
65.504
64.4733
63.5009
62.7346
62.2347
61.3519
61.2027
59.5903
59.2546
55.8276
53.3855
46.9944
32.1427
13.223
3.19578
26.2698
43.2169
40.7432
26.0303
16.154
16.6772
37.807
49.5863
54.6448
57.4115
60.2181
60.8435
62.3142
62.7292
63.6882
64.3704
65.2271
66.189
67.0836
67.9815
68.4195
68.5842
68.5907
68.4289
68.0042
67.1229
66.2531
65.3086
64.4748
63.8066
62.8562
62.4639
60.9542
60.397
57.4433
54.8103
49.5561
37.699
16.463
16.1874
26.0659
40.9145
38.4799
26.161
14.5715
11.2805
38.2054
50.3687
54.6565
58.2003
60.7937
61.7454
63.3437
63.9141
65.0119
65.8132
66.6749
67.6639
68.3826
69.1098
69.2631
69.3674
69.3749
69.2658
69.1361
68.4275
67.7361
66.7688
65.9315
65.1481
64.0581
63.5062
61.8839
60.9541
58.2856
54.7491
50.3843
38.0532
10.5869
14.5228
26.161
38.5345
37.5299
27.2185
20.6263
18.76
34.3532
50.4019
53.9568
58.5278
61.02
62.5729
64.05
65.0181
66.001
67.0502
67.8836
68.9459
69.6261
70.2341
70.2688
70.3468
70.3511
70.2789
70.2539
69.6734
69.0241
67.9803
67.1888
66.1348
65.1902
64.2166
62.7182
61.2099
58.5676
54.0893
50.411
34.0613
18.5936
20.6335
27.1333
37.6756
37.3248
28.4783
9.70277
15.3432
26.6383
49.8438
53.0246
58.4402
61.2915
63.0874
64.8415
65.9569
66.9717
68.1992
69.0633
70.2475
70.901
71.4875
71.4619
71.5414
71.5458
71.4671
71.5018
70.9708
70.2939
69.2295
68.2666
67.2176
66.052
65.0891
63.2431
61.389
58.7054
52.8658
49.9697
26.334
15.1101
10.0785
28.7897
37.1894
38.3191
30.7934
18.0933
23.6031
27.6208
47.3286
52.1437
58.2241
61.5647
63.4991
65.6007
66.7956
68.0135
69.2616
70.2679
71.5189
72.2132
72.7825
72.7857
72.8369
72.8422
72.7866
72.8046
72.276
71.5993
70.4077
69.4009
68.2144
66.9753
65.8185
63.6729
61.7549
58.2548
52.4787
46.6415
24.3027
16.7664
18.6537
30.8922
38.3088
39.1113
32.0568
23.5764
23.4057
16.6486
42.4175
52.5647
57.3759
62.4203
63.6068
66.6517
67.3229
69.2147
70.0409
71.5342
72.5653
73.518
73.9836
74.0902
74.088
74.0931
74.0929
74.0108
73.5821
72.666
71.6747
70.2179
69.4163
67.5442
66.879
63.8022
62.6233
57.449
52.6828
42.2156
16.3465
1.43868
23.6552
32.093
39.1266
39.6425
33.1717
27.0822
16.6097
27.2377
38.0545
52.5512
57.4043
62.8398
64.3278
67.2039
68.2017
69.9283
70.9886
72.4124
73.6016
74.5498
75.0832
75.2137
75.1842
75.1901
75.2175
75.1162
74.6183
73.7136
72.5681
71.1779
70.1579
68.4311
67.4686
64.5173
63.0863
57.4432
52.7013
37.666
27.0362
16.5138
27.1141
33.1268
39.7526
40.6418
33.52
29.1856
25.1267
15.9215
31.9311
53.3066
57.2775
63.7086
64.7893
67.939
68.8133
70.6254
71.7185
73.1662
74.4239
75.3972
75.9625
76.1364
76.0607
76.067
76.1379
76.0033
75.4573
74.5625
73.3004
71.9605
70.8195
69.1164
68.1631
65.0549
63.9273
57.3672
53.4309
31.8234
26.547
19.3556
29.2324
33.5389
40.7319
40.8595
33.4665
29.8584
12.6468
25.9387
27.8178
54.0076
57.3276
64.5767
65.1478
68.641
69.2413
71.241
72.2436
73.7913
75.0292
76.0555
76.6181
76.8043
76.7108
76.7166
76.8074
76.6561
76.1233
75.1569
73.9485
72.468
71.4738
69.5216
68.9138
65.3851
64.8466
57.3606
54.2004
26.9148
25.7201
12.9408
29.9558
33.5554
41.0163
41.5152
34.1811
30.7614
20.2082
26.3546
23.8633
54.8243
57.429
65.2717
65.506
69.0984
69.6457
71.607
72.6927
74.1913
75.4977
76.5051
77.0967
77.3031
77.1718
77.178
77.3047
77.1344
76.5747
75.6242
74.3546
72.9188
71.8507
69.9302
69.3867
65.7447
65.5642
57.4406
55.0554
22.5374
26.2158
20.2013
30.747
34.1724
41.5785
41.8371
34.0953
30.4212
20.3659
26.2105
19.492
55.6704
57.2416
65.8728
65.6439
69.4465
69.8618
71.8605
72.9631
74.4342
75.7936
76.7649
77.3839
77.5356
77.4343
77.4315
77.5636
77.4111
76.8441
75.8994
74.6192
73.1683
72.1263
70.1355
69.7378
65.9193
66.0924
57.3859
55.8013
17.7796
26.0705
20.4507
30.9965
34.6732
42.1876
44.104
35.6254
31.5555
25.8542
25.1624
17.2638
54.3439
57.6139
65.4964
66.0447
69.2691
70.1878
71.8043
73.2158
74.4743
75.9767
76.8581
77.4989
77.6152
77.4983
77.5036
77.6231
77.5326
76.942
76.082
74.6817
73.3936
72.1267
70.3998
69.6558
66.1912
65.8994
57.4858
54.788
12.4903
9.15121
26.2148
31.243
35.1218
43.5257
19.9876
28.5795
38.8818
42.4476
45.1948
46.4433
47.2442
47.5987
47.9412
48.0854
48.2156
48.2099
48.1603
48.0471
47.9581
47.8596
47.7535
47.6097
47.4243
47.2436
46.9695
46.5965
46.0964
45.475
44.844
44.0272
43.6912
42.8389
42.2419
41.6094
40.9651
40.9708
29.1692
31.0331
38.4861
42.4174
45.1214
46.4283
47.2464
47.6285
47.9869
48.1452
48.2787
48.2833
48.2513
48.1592
48.087
48.0021
47.9086
47.7792
47.6125
47.4532
47.2046
46.871
46.4114
45.8369
45.2507
44.5047
44.1912
43.3922
42.821
42.25
41.6357
41.6337
21.5733
28.5113
38.5753
42.3312
45.0774
46.4438
47.288
47.7085
48.0866
48.2579
48.393
48.4086
48.393
48.3203
48.2635
48.1916
48.1118
47.9982
47.8504
47.7115
47.4844
47.1902
46.77
46.2432
45.6959
45.0107
44.7156
43.9766
43.4325
42.918
42.336
42.3271
39.8619
30.5095
38.231
42.3091
45.0521
46.4822
47.3671
47.8348
48.2346
48.4181
48.5559
48.5813
48.5835
48.5326
48.4896
48.4304
48.3632
48.2655
48.1369
48.0197
47.8143
47.5589
47.1775
46.7002
46.1901
45.5626
45.2854
44.615
44.1033
43.6423
43.0962
43.0786
33.4782
31.3788
38.2368
42.2356
45.0373
46.5415
47.478
47.9984
48.4205
48.6172
48.7621
48.7998
48.8199
48.7878
48.7581
48.7112
48.6582
48.5765
48.4674
48.3695
48.1824
47.9638
47.6206
47.1943
46.7166
46.1407
45.8776
45.2806
44.8005
44.3879
43.8805
43.8555
13.3296
26.6858
37.819
42.199
45.0294
46.6111
47.6101
48.1886
48.6353
48.849
49.005
49.0562
49.0937
49.0811
49.0635
49.03
48.9883
48.9223
48.8335
48.7566
48.5884
48.4049
48.0982
47.7245
47.2792
46.7546
46.5054
45.9848
45.5402
45.1715
44.7056
44.6742
57.7164
35.4534
37.9179
42.0912
45.0093
46.6842
47.7571
48.3981
48.8725
49.1082
49.2809
49.3521
49.4062
49.4099
49.4044
49.3817
49.3528
49.3037
49.2327
49.1739
49.0222
48.8711
48.6024
48.2815
47.8658
47.3904
47.154
46.7106
46.2991
45.9709
45.5487
45.5116
21.7325
27.4693
37.2966
41.9809
44.9808
46.7553
47.9104
48.6205
49.1293
49.3946
49.5894
49.6817
49.7481
49.7651
49.7688
49.7591
49.7425
49.7113
49.6591
49.6211
49.4865
49.3649
49.131
48.8617
48.4761
48.0511
47.8293
47.4598
47.0842
46.7926
46.4152
46.3754
56.6914
34.4394
37.2856
41.8043
44.9137
46.812
48.0641
48.8513
49.4015
49.7029
49.9242
50.0393
50.1186
50.1475
50.1625
50.1623
50.1606
50.1475
50.1093
50.0891
49.9712
49.8792
49.684
49.464
49.1081
48.7334
48.5268
48.2274
47.8865
47.6297
47.2968
47.2553
54.5236
34.3323
36.8907
41.5564
44.8157
46.8528
48.2112
49.0837
49.6845
50.0288
50.2792
50.4167
50.5089
50.5459
50.5664
50.5794
50.5975
50.6024
50.582
50.5806
50.4797
50.4117
50.2497
50.0745
49.75
49.4268
49.2399
49.0037
48.7003
48.477
48.1896
48.1494
62.2199
36.2493
36.7011
41.2574
44.6593
46.8606
48.3441
49.3137
49.9734
50.3665
50.6484
50.8088
50.9122
50.9609
50.9918
51.0173
51.0571
51.0755
51.0702
51.0835
51.0035
50.9649
50.8414
50.7061
50.4138
50.143
49.9762
49.7961
49.5291
49.3378
49.0931
49.0553
78.2354
42.0216
36.576
40.8463
44.4368
46.8273
48.451
49.527
50.2557
50.7018
51.0159
51.2001
51.321
51.3835
51.4241
51.4649
51.5316
51.5614
51.5782
51.6026
51.5417
51.5237
51.4342
51.3326
51.076
50.8568
50.7159
50.5854
50.3566
50.1968
49.9946
49.964
71.7413
46.6216
37.3262
40.4041
44.1282
46.7314
48.52
49.7188
50.5265
51.0328
51.3847
51.5969
51.7336
51.8088
51.8653
51.9268
52.0213
52.0558
52.0965
52.1278
52.0931
52.1034
52.0509
51.9734
51.75
51.5812
51.4656
51.3778
51.1877
51.0601
50.8972
50.8733
72.0158
49.004
38.3294
39.8909
43.7084
46.5508
48.5285
49.8652
50.7657
51.3375
51.7289
51.971
52.1311
52.2319
52.3107
52.3957
52.518
52.5549
52.6237
52.6523
52.6362
52.6643
52.6492
52.5968
52.4114
52.2896
52.2044
52.1525
52.0007
51.9042
51.7797
51.769
80.1733
52.8346
40.0821
39.4675
43.1705
46.2619
48.4633
49.9639
50.9724
51.6213
52.0624
52.3428
52.5323
52.6528
52.7518
52.8637
53.0107
53.0477
53.1505
53.1784
53.1889
53.2404
53.2577
53.2174
53.0646
52.9874
52.9356
52.9179
52.8072
52.7451
52.6574
52.6571
70.0193
54.1448
41.8701
39.136
42.4831
45.8207
48.2811
49.9781
51.1187
51.8561
52.3526
52.6762
52.8937
53.0487
53.1876
53.3303
53.4968
53.5324
53.6623
53.6779
53.7029
53.7729
53.8296
53.8093
53.6901
53.6486
53.6275
53.636
53.5636
53.5339
53.483
53.5018
74.1013
55.7292
43.5206
38.9435
41.664
45.2093
47.9716
49.9065
51.2101
52.0564
52.6213
52.9923
53.256
53.447
53.6105
53.778
53.9604
53.9999
54.1648
54.1766
54.2206
54.3028
54.3824
54.3694
54.2856
54.2814
54.2988
54.3367
54.3057
54.311
54.2966
54.3306
69.2968
55.9409
45.1818
39.0079
40.7065
44.3546
47.4488
49.6862
51.1997
52.1832
52.8278
53.2577
53.5571
53.7852
53.9994
54.2013
54.3929
54.4326
54.6142
54.6129
54.6665
54.7681
54.8754
54.878
54.8253
54.8522
54.9063
54.9747
54.9869
55.0284
55.0512
55.105
72.9958
56.2577
46.109
39.1209
39.6475
43.2446
46.7095
49.3044
51.0922
52.2522
53.0082
53.5137
53.8637
54.1252
54.369
54.591
54.7925
54.843
55.0456
55.0395
55.1021
55.2208
55.3543
55.3795
55.3624
55.4175
55.5021
55.5967
55.6486
55.723
55.7815
55.8542
76.1855
57.7716
47.4114
39.4775
38.5217
41.7883
45.5814
48.6443
50.7871
52.201
53.0991
53.6882
54.0977
54.4169
54.7015
54.943
55.1411
55.1964
55.4116
55.4114
55.4864
55.6137
55.7525
55.7924
55.8104
55.899
56.0154
56.1432
56.2341
56.3395
56.4331
56.5337
74.9637
57.9007
48.1647
39.8307
37.3713
39.9608
44.0518
47.6515
50.2866
52.0106
53.1269
53.8476
54.3397
54.6959
55.0107
55.2719
55.4835
55.5528
55.765
55.7608
55.8414
55.9847
56.1304
56.1853
56.2306
56.341
56.4748
56.6294
56.7656
56.9033
57.0282
57.1503
74.1575
57.8501
48.6162
40.1123
36.1692
37.6902
41.7767
46.0591
49.3359
51.5878
52.9925
53.8736
54.4601
54.9088
55.2703
55.5391
55.7356
55.8131
56.026
56.0343
56.1119
56.2461
56.3715
56.4431
56.5294
56.6777
56.8286
57.0146
57.1848
57.3491
57.5034
57.6651
73.588
58.0177
49.0253
40.3169
34.9483
35.0261
38.6983
43.6169
47.929
50.8024
52.6692
53.845
54.5768
55.0712
55.4674
55.7745
55.9942
56.0744
56.2486
56.2491
56.332
56.4686
56.5683
56.636
56.7481
56.9285
57.0867
57.2932
57.5116
57.698
57.8706
58.0719
72.129
57.7975
49.1086
40.1962
33.4325
31.5547
34.2096
39.6949
45.1618
49.4402
52.0192
53.5445
54.5049
55.1537
55.6183
55.9007
56.0815
56.1755
56.3376
56.338
56.4001
56.5108
56.5719
56.6336
56.7645
56.9663
57.1066
57.3292
57.5783
57.7813
57.9678
58.2347
70.3086
57.1056
48.7129
39.4757
31.2242
26.701
25.8774
31.7906
40.9823
46.9792
50.8448
53.1019
54.3621
55.1121
55.6252
55.9855
56.2053
56.2766
56.3564
56.3255
56.3546
56.4091
56.3808
56.3876
56.5142
56.7314
56.8405
57.0426
57.342
57.5446
57.7241
58.0857
68.2486
55.9882
47.8148
37.9748
26.9581
10.3141
3.93905
17.0158
25.7879
41.9938
48.7937
52.0837
53.9074
54.9701
55.5759
55.8519
55.9825
56.0716
56.1163
56.0256
55.9525
55.8993
55.7756
55.6999
55.751
55.898
55.8934
56.0391
56.3549
56.5337
56.6916
57.2098
66.4842
54.6263
46.435
35.2653
18.6123
5.1534
12.0823
12.1998
8.40947
30.1317
45.0202
50.7451
53.2233
54.4899
55.2357
55.681
55.8343
55.7816
55.6082
55.3969
55.1955
54.9034
54.4792
54.1719
54.0632
54.0963
53.9181
53.8886
54.2381
54.3333
54.4152
55.2136
65.1542
53.4325
45.0095
32.0642
7.08923
5.94956
8.85576
12.8555
12.8115
5.05588
38.9518
48.3077
52.1483
53.9226
54.7032
54.8963
54.8695
54.8489
54.5508
54.0296
53.4168
52.7072
51.9107
51.2173
50.661
50.184
49.4201
48.749
48.7368
48.2591
48.1288
49.8259
64.065
52.8797
44.4816
31.3543
8.76846
15.2048
24.1728
5.58654
7.63851
17.9879
35.5343
46.0719
50.5699
52.6523
53.6982
54.1451
53.9638
53.3976
52.4365
51.4121
50.2367
48.5994
46.4859
44.0216
41.2469
38.485
35.7899
33.7509
32.5938
30.6636
30.1291
33.7504
62.0525
53.1446
45.625
34.2457
18.3469
21.4756
28.9921
15.3393
16.1726
26.173
34.0788
44.0242
48.902
51.1902
51.8928
51.6247
50.963
50.2318
48.6216
46.0706
42.1606
36.3683
30.2125
23.0756
15.7306
4.2247
21.4245
17.1158
15.454
16.2046
16.5803
15.2397
56.343
52.3851
47.1344
38.9474
28.1147
26.7194
30.1235
6.56781
13.4731
29.075
34.0212
42.4661
46.0385
48.1633
49.0243
48.7869
47.1311
43.906
37.7844
28.9003
17.8098
21.9695
4.97638
20.6133
18.2945
20.1375
12.6731
20.3473
15.4818
18.1695
18.8211
12.6839
46.5153
48.9559
46.6491
41.6462
34.6464
31.404
29.5542
9.75372
5.44734
24.2413
32.2585
38.5193
41.8606
43.3122
42.0917
38.2436
31.2341
20.7108
15.5329
21.2042
16.124
21.0683
18.5092
24.6993
26.8859
29.2575
30.5089
29.9308
30.9745
30.9376
30.712
30.7136
34.4242
43.3407
43.7643
41.1284
36.4018
33.2331
22.9436
14.9759
11.5633
6.97759
19.0585
23.3952
24.4392
23.2438
16.8487
20.4866
11.8462
19.4605
14.3447
25.9785
31.4235
34.4011
37.2485
37.7414
37.7616
36.3548
35.7359
35.4143
33.4942
33.3303
33.0019
33.3767
25.8343
38.2677
40.1594
38.9246
35.9862
33.4342
15.2422
7.04359
10.755
15.8573
11.3972
11.9052
18.7451
10.8519
9.73485
19.2135
29.1539
36.0148
40.7814
42.3333
42.0077
41.3727
40.4093
40.3429
39.5519
38.6856
37.7271
36.8584
35.498
34.903
34.4917
33.8831
20.7063
34.2031
36.259
35.0161
30.4993
11.8467
11.9227
12.0697
4.48513
3.25568
16.6687
25.7765
29.843
35.577
39.0463
41.587
42.5723
43.0868
43.6495
44.8854
45.0733
45.0707
44.9734
45.3484
44.6218