/*--------------------------------*- C++ -*----------------------------------*\
  =========                 |
  \\      /  F ield         | OpenFOAM: The Open Source CFD Toolbox
   \\    /   O peration     | Website:  https://openfoam.org
    \\  /    A nd           | Version:  6
     \\/     M anipulation  |
\*---------------------------------------------------------------------------*/
FoamFile
{
    version     2.0;
    format      ascii;
    class       volScalarField;
    location    "4";
    object      p;
}
// * * * * * * * * * * * * * * * * * * * * * * * * * * * * * * * * * * * * * //

dimensions      [0 2 -2 0 0 0 0];

internalField   nonuniform List<scalar> 
380496
(
0.0140747
0.0145488
0.0141494
0.0140493
0.0139388
0.0138255
0.0137183
0.0136112
0.0135047
0.0133996
0.0132959
0.0131939
0.0130938
0.0129955
0.0128991
0.0128041
0.0127103
0.0126172
0.0125242
0.0124307
0.0123361
0.0122398
0.0121412
0.0120395
0.0119342
0.0118245
0.01171
0.0115898
0.0114638
0.0113305
0.0111919
0.0110434
0.0108958
0.0107275
0.0105929
0.01405
0.0145169
0.0141296
0.0140339
0.0139266
0.013815
0.0137081
0.0136001
0.013492
0.0133845
0.0132778
0.0131724
0.0130683
0.0129657
0.0128644
0.0127641
0.0126646
0.0125653
0.0124656
0.0123651
0.0122632
0.0121591
0.0120525
0.0119426
0.011829
0.0117109
0.0115881
0.0114596
0.0113257
0.0111841
0.0110381
0.0108794
0.0107243
0.0105341
0.0103922
0.014022
0.014484
0.014108
0.0140171
0.0139129
0.0138026
0.0136953
0.0135857
0.0134751
0.0133644
0.0132539
0.0131441
0.0130352
0.0129273
0.0128203
0.0127139
0.0126076
0.0125011
0.0123938
0.012285
0.0121743
0.012061
0.0119447
0.0118246
0.0117007
0.0115718
0.0114383
0.0112988
0.0111542
0.011002
0.0108466
0.0106782
0.0105176
0.0103198
0.0101811
0.013986
0.0144482
0.014086
0.0140017
0.0139016
0.0137933
0.0136861
0.0135754
0.0134628
0.0133494
0.0132357
0.0131222
0.0130093
0.012897
0.0127852
0.0126736
0.0125618
0.0124494
0.0123358
0.0122204
0.0121028
0.0119824
0.0118587
0.0117313
0.0115998
0.0114635
0.0113225
0.0111757
0.0110242
0.0108651
0.0107033
0.0105278
0.0103611
0.0101543
0.0100082
0.0139532
0.0144101
0.0140643
0.013987
0.0138911
0.0137845
0.013677
0.0135648
0.0134497
0.0133332
0.0132158
0.0130984
0.0129811
0.0128641
0.0127473
0.0126304
0.0125129
0.0123943
0.0122742
0.0121521
0.0120274
0.0118996
0.0117685
0.0116333
0.011494
0.0113499
0.0112012
0.0110468
0.010888
0.0107219
0.0105538
0.0103724
0.010202
0.00999068
0.00984699
0.0139071
0.0143693
0.0140424
0.0139737
0.0138828
0.0137782
0.0136705
0.0135569
0.0134395
0.01332
0.0131994
0.0130783
0.0129571
0.0128359
0.0127146
0.012593
0.0124705
0.0123466
0.012221
0.012093
0.0119624
0.0118285
0.0116912
0.0115498
0.0114044
0.0112542
0.0110996
0.0109396
0.0107754
0.0106042
0.0104316
0.0102456
0.010072
0.00985551
0.00971178
0.0138584
0.0143264
0.0140211
0.0139622
0.0138766
0.0137738
0.0136657
0.0135502
0.0134302
0.0133076
0.0131834
0.0130585
0.0129333
0.012808
0.0126823
0.012556
0.0124286
0.0122997
0.0121687
0.0120353
0.0118989
0.0117593
0.0116162
0.011469
0.0113178
0.011162
0.011002
0.0108367
0.0106676
0.0104917
0.0103153
0.0101255
0.00994988
0.00973047
0.00958872
0.0137995
0.0142827
0.0140017
0.0139537
0.0138737
0.0137722
0.0136633
0.0135459
0.0134232
0.0132975
0.0131699
0.0130415
0.0129125
0.0127834
0.0126537
0.0125233
0.0123916
0.0122581
0.0121225
0.0119843
0.0118431
0.0116986
0.0115506
0.0113987
0.0112428
0.0110826
0.0109182
0.0107489
0.0105761
0.0103968
0.0102174
0.0100249
0.00984741
0.00962552
0.00948338
0.0137293
0.014239
0.0139839
0.0139482
0.0138739
0.0137734
0.0136634
0.0135439
0.0134184
0.0132896
0.0131587
0.0130269
0.0128945
0.0127619
0.0126286
0.0124945
0.012359
0.0122216
0.012082
0.0119397
0.0117944
0.0116459
0.0114938
0.011338
0.0111784
0.0110145
0.0108467
0.0106742
0.0104985
0.0103165
0.0101349
0.00994047
0.00976193
0.00953883
0.0093971
0.0136589
0.0142035
0.013972
0.0139474
0.0138776
0.013777
0.0136654
0.0135436
0.0134155
0.0132838
0.01315
0.0130152
0.0128799
0.0127443
0.0126081
0.0124709
0.0123323
0.0121917
0.0120488
0.0119033
0.0117548
0.0116031
0.011448
0.0112893
0.0111269
0.0109603
0.01079
0.0106152
0.0104374
0.0102537
0.0100706
0.00987479
0.00969546
0.00947147
0.00932956
0.0135666
0.0141679
0.0139607
0.0139493
0.013884
0.013783
0.0136696
0.0135452
0.0134143
0.0132797
0.0131431
0.0130055
0.0128674
0.0127291
0.0125901
0.0124502
0.0123088
0.0121654
0.0120197
0.0118713
0.0117201
0.0115658
0.0114082
0.0112471
0.0110824
0.0109138
0.0107415
0.0105649
0.0103856
0.0102005
0.0100163
0.00981971
0.00964002
0.00941576
0.00927429
0.0134727
0.0141437
0.0139559
0.0139563
0.0138937
0.0137908
0.0136749
0.0135479
0.0134141
0.0132769
0.0131376
0.0129974
0.0128568
0.0127161
0.0125747
0.0124324
0.0122885
0.0121428
0.0119947
0.0118441
0.0116907
0.0115343
0.0113748
0.0112119
0.0110455
0.0108753
0.0107016
0.0105238
0.0103433
0.0101574
0.00997253
0.0097754
0.00959544
0.00937103
0.00922948
0.013348
0.0141238
0.0139526
0.0139668
0.0139065
0.013801
0.0136823
0.0135522
0.0134156
0.0132757
0.0131338
0.0129912
0.0128483
0.0127053
0.0125617
0.0124172
0.0122713
0.0121234
0.0119733
0.0118208
0.0116657
0.0115076
0.0113466
0.0111823
0.0110147
0.0108434
0.0106687
0.0104901
0.0103089
0.0101224
0.00993724
0.00974
0.00956012
0.00933606
0.00919506
0.0132177
0.01412
0.0139557
0.0139819
0.0139213
0.0138119
0.01369
0.0135569
0.0134176
0.0132752
0.0131309
0.0129861
0.012841
0.0126959
0.0125505
0.0124041
0.0122564
0.0121068
0.0119552
0.0118013
0.0116448
0.0114857
0.0113236
0.0111585
0.01099
0.010818
0.0106428
0.0104636
0.0102821
0.0100953
0.00991
0.00971281
0.00953292
0.00930908
0.00916809
0.0130548
0.0141285
0.0139625
0.014002
0.0139398
0.0138254
0.0136997
0.0135632
0.0134211
0.0132762
0.0131298
0.0129829
0.0128359
0.012689
0.0125417
0.0123937
0.0122444
0.0120934
0.0119405
0.0117854
0.011628
0.011468
0.0113053
0.0111395
0.0109706
0.0107983
0.0106227
0.0104434
0.0102617
0.0100751
0.00988985
0.0096931
0.00951357
0.00929082
0.00915086
0.0128735
0.0141569
0.0139735
0.0140241
0.0139575
0.0138375
0.0137082
0.0135688
0.0134244
0.0132774
0.013129
0.01298
0.0128311
0.0126824
0.0125336
0.0123842
0.0122337
0.0120817
0.011928
0.0117724
0.0116146
0.0114544
0.0112916
0.0111258
0.0109568
0.0107845
0.0106089
0.0104295
0.0102478
0.0100612
0.00987592
0.00967951
0.00949958
0.00927726
0.0091359
0.0126696
0.0142055
0.0139915
0.0140537
0.0139799
0.0138529
0.0137192
0.0135765
0.0134296
0.0132806
0.0131304
0.0129796
0.0128291
0.0126789
0.0125287
0.0123781
0.0122267
0.0120739
0.0119197
0.0117637
0.0116058
0.0114455
0.0112827
0.0111168
0.0109479
0.0107755
0.0106
0.0104206
0.010239
0.0100526
0.00986745
0.00967189
0.00949239
0.0092731
0.00913261
0.0124292
0.0142768
0.0140083
0.014079
0.013997
0.0138642
0.0137275
0.0135826
0.013434
0.0132833
0.0131312
0.0129786
0.0128263
0.0126745
0.0125232
0.0123719
0.0122201
0.0120674
0.0119136
0.011758
0.0116007
0.011441
0.0112787
0.0111132
0.0109445
0.0107721
0.0105965
0.0104168
0.0102349
0.0100483
0.00986276
0.00966758
0.0094862
0.00926783
0.00911721
0.0121847
0.0143647
0.0140365
0.0141157
0.0140221
0.0138819
0.0137408
0.0135927
0.0134418
0.0132892
0.0131355
0.0129816
0.0128283
0.0126758
0.0125241
0.0123726
0.0122208
0.0120682
0.0119145
0.0117591
0.0116018
0.0114418
0.0112793
0.0111132
0.0109441
0.0107711
0.010595
0.0104149
0.0102327
0.0100461
0.00986084
0.00966689
0.00948721
0.00927607
0.00912971
0.0119182
0.0144673
0.0140592
0.0141439
0.0140395
0.0138942
0.0137503
0.0136004
0.0134482
0.0132943
0.0131394
0.0129843
0.01283
0.0126768
0.0125249
0.0123735
0.0122222
0.0120701
0.011917
0.0117619
0.0116048
0.0114448
0.0112821
0.0111157
0.0109462
0.0107725
0.0105959
0.0104151
0.0102324
0.0100453
0.00985954
0.00966624
0.00948331
0.0092741
0.00909446
0.0116672
0.0145757
0.0141059
0.0141886
0.0140695
0.0139158
0.0137666
0.0136133
0.0134592
0.0133045
0.0131494
0.0129946
0.012841
0.0126885
0.0125369
0.0123852
0.012233
0.0120794
0.0119243
0.011767
0.0116077
0.0114455
0.011281
0.0111133
0.0109429
0.0107688
0.0105921
0.0104116
0.0102295
0.010043
0.00985846
0.00966657
0.00949017
0.00929062
0.00916579
0.0140778
0.0145416
0.0141494
0.0140497
0.0139389
0.0138255
0.0137183
0.0136112
0.0135047
0.0133996
0.0132959
0.0131939
0.0130938
0.0129955
0.0128991
0.0128041
0.0127103
0.0126172
0.0125241
0.0124307
0.0123361
0.0122398
0.0121412
0.0120395
0.0119342
0.0118246
0.0117101
0.0115899
0.0114639
0.0113306
0.011192
0.0110435
0.0108959
0.0107277
0.010593
0.0140529
0.0145099
0.0141297
0.0140342
0.0139267
0.013815
0.0137081
0.0136001
0.013492
0.0133845
0.0132778
0.0131724
0.0130683
0.0129657
0.0128644
0.0127641
0.0126646
0.0125652
0.0124656
0.0123651
0.0122632
0.0121592
0.0120526
0.0119427
0.0118291
0.011711
0.0115882
0.0114597
0.0113258
0.0111843
0.0110382
0.0108795
0.0107244
0.0105342
0.0103923
0.0140248
0.0144771
0.014108
0.0140174
0.013913
0.0138026
0.0136953
0.0135857
0.0134751
0.0133644
0.0132539
0.0131441
0.0130352
0.0129273
0.0128203
0.0127138
0.0126076
0.0125011
0.0123937
0.012285
0.0121743
0.012061
0.0119447
0.0118247
0.0117007
0.0115719
0.0114383
0.0112988
0.0111543
0.0110021
0.0108467
0.0106783
0.0105177
0.01032
0.0101812
0.0139889
0.0144415
0.0140861
0.014002
0.0139017
0.0137933
0.0136861
0.0135754
0.0134628
0.0133494
0.0132356
0.0131222
0.0130093
0.012897
0.0127852
0.0126736
0.0125618
0.0124494
0.0123358
0.0122204
0.0121028
0.0119824
0.0118588
0.0117313
0.0115998
0.0114636
0.0113226
0.0111759
0.0110244
0.0108653
0.0107034
0.010528
0.0103613
0.0101544
0.0100083
0.0139557
0.0144035
0.0140643
0.0139873
0.0138912
0.0137845
0.013677
0.0135648
0.0134497
0.0133331
0.0132158
0.0130984
0.0129811
0.0128641
0.0127473
0.0126303
0.0125128
0.0123943
0.0122742
0.0121521
0.0120274
0.0118997
0.0117685
0.0116333
0.0114941
0.01135
0.0112013
0.0110469
0.0108881
0.010722
0.010554
0.0103725
0.0102022
0.00999083
0.00984709
0.0139097
0.0143628
0.0140424
0.013974
0.0138829
0.0137782
0.0136705
0.0135569
0.0134395
0.01332
0.0131994
0.0130783
0.0129571
0.0128359
0.0127146
0.0125929
0.0124704
0.0123466
0.012221
0.0120931
0.0119624
0.0118286
0.0116912
0.0115499
0.0114045
0.0112543
0.0110997
0.0109397
0.0107755
0.0106043
0.0104317
0.0102457
0.0100721
0.00985567
0.00971189
0.0138608
0.0143202
0.0140211
0.0139625
0.0138767
0.0137738
0.0136656
0.0135502
0.0134302
0.0133076
0.0131834
0.0130585
0.0129333
0.012808
0.0126823
0.012556
0.0124286
0.0122997
0.0121687
0.0120353
0.011899
0.0117594
0.0116162
0.0114691
0.0113179
0.0111622
0.0110021
0.0108368
0.0106677
0.0104919
0.0103154
0.0101257
0.00995003
0.00973063
0.00958882
0.0138017
0.0142766
0.0140017
0.013954
0.0138738
0.0137722
0.0136633
0.0135459
0.0134232
0.0132975
0.0131699
0.0130414
0.0129125
0.0127833
0.0126537
0.0125232
0.0123916
0.0122581
0.0121225
0.0119843
0.0118432
0.0116987
0.0115507
0.0113988
0.011243
0.0110827
0.0109184
0.0107491
0.0105762
0.010397
0.0102176
0.010025
0.00984757
0.00962569
0.00948347
0.0137314
0.0142332
0.013984
0.0139485
0.013874
0.0137734
0.0136634
0.0135439
0.0134184
0.0132896
0.0131587
0.0130269
0.0128945
0.0127618
0.0126286
0.0124945
0.012359
0.0122217
0.012082
0.0119398
0.0117945
0.011646
0.011494
0.0113382
0.0111786
0.0110147
0.0108469
0.0106744
0.0104986
0.0103167
0.0101351
0.00994062
0.00976207
0.00953899
0.00939718
0.0136608
0.0141978
0.013972
0.0139477
0.0138776
0.013777
0.0136654
0.0135436
0.0134154
0.0132838
0.01315
0.0130152
0.0128799
0.0127443
0.0126081
0.0124709
0.0123323
0.0121918
0.0120489
0.0119034
0.0117549
0.0116033
0.0114482
0.0112895
0.011127
0.0109605
0.0107902
0.0106154
0.0104376
0.0102538
0.0100707
0.00987494
0.0096956
0.00947162
0.00932964
0.0135684
0.0141624
0.0139608
0.0139495
0.0138841
0.013783
0.0136695
0.0135452
0.0134142
0.0132797
0.0131431
0.0130055
0.0128674
0.012729
0.0125901
0.0124502
0.0123088
0.0121655
0.0120198
0.0118715
0.0117203
0.011566
0.0114084
0.0112473
0.0110826
0.0109139
0.0107417
0.0105651
0.0103857
0.0102006
0.0100165
0.00981985
0.00964015
0.0094159
0.00927436
0.0134742
0.0141384
0.0139559
0.0139565
0.0138938
0.0137908
0.0136749
0.0135478
0.0134141
0.0132769
0.0131376
0.0129974
0.0128568
0.012716
0.0125747
0.0124324
0.0122886
0.0121429
0.0119948
0.0118443
0.0116909
0.0115345
0.011375
0.0112121
0.0110457
0.0108755
0.0107018
0.010524
0.0103435
0.0101575
0.00997266
0.00977553
0.00959556
0.00937116
0.00922953
0.0133496
0.0141188
0.0139527
0.013967
0.0139066
0.013801
0.0136823
0.0135522
0.0134156
0.0132756
0.0131338
0.0129911
0.0128482
0.0127052
0.0125617
0.0124173
0.0122714
0.0121236
0.0119735
0.0118211
0.0116659
0.0115079
0.0113469
0.0111826
0.0110149
0.0108436
0.0106689
0.0104902
0.010309
0.0101225
0.00993735
0.00974011
0.00956022
0.00933617
0.00919509
0.0132189
0.0141153
0.0139557
0.013982
0.0139213
0.0138118
0.01369
0.0135568
0.0134175
0.0132751
0.0131309
0.012986
0.012841
0.0126959
0.0125505
0.0124042
0.0122565
0.0121071
0.0119555
0.0118016
0.0116451
0.011486
0.0113239
0.0111587
0.0109902
0.0108182
0.0106429
0.0104637
0.0102822
0.0100954
0.00991008
0.00971289
0.00953299
0.00930916
0.00916809
0.013056
0.0141241
0.0139625
0.0140022
0.0139398
0.0138253
0.0136996
0.0135631
0.013421
0.0132761
0.0131297
0.0129828
0.0128358
0.012689
0.0125418
0.0123939
0.0122447
0.0120938
0.0119409
0.0117858
0.0116284
0.0114683
0.0113056
0.0111398
0.0109708
0.0107984
0.0106228
0.0104435
0.0102618
0.0100751
0.00988988
0.00969313
0.0095136
0.00929087
0.00915083
0.0128744
0.0141528
0.0139735
0.0140241
0.0139574
0.0138373
0.0137081
0.0135687
0.0134242
0.0132772
0.0131288
0.01298
0.0128312
0.0126826
0.0125339
0.0123846
0.0122342
0.0120823
0.0119286
0.0117729
0.0116151
0.0114548
0.0112919
0.011126
0.010957
0.0107845
0.0106089
0.0104295
0.0102478
0.0100612
0.0098759
0.00967949
0.00949956
0.00927726
0.00913582
0.0126702
0.0142018
0.0139913
0.0140537
0.0139798
0.0138528
0.0137191
0.0135764
0.0134295
0.0132805
0.0131303
0.0129797
0.0128294
0.0126793
0.0125293
0.0123788
0.0122274
0.0120746
0.0119204
0.0117642
0.0116062
0.0114458
0.0112828
0.0111169
0.0109479
0.0107755
0.0105999
0.0104205
0.0102388
0.0100524
0.00986735
0.00967181
0.00949232
0.00927308
0.00913252
0.0124299
0.0142734
0.0140081
0.0140789
0.0139969
0.0138641
0.0137274
0.0135825
0.0134339
0.0132833
0.0131314
0.012979
0.0128269
0.0126753
0.0125241
0.0123728
0.012221
0.0120681
0.0119141
0.0117584
0.0116009
0.011441
0.0112786
0.011113
0.0109443
0.0107719
0.0105962
0.0104166
0.0102347
0.0100481
0.00986259
0.00966744
0.00948609
0.00926776
0.00911708
0.0121836
0.0143621
0.0140363
0.0141157
0.0140221
0.0138819
0.0137408
0.0135928
0.013442
0.0132896
0.0131362
0.0129824
0.0128293
0.0126769
0.0125252
0.0123735
0.0122215
0.0120686
0.0119147
0.0117591
0.0116016
0.0114415
0.0112789
0.0111128
0.0109437
0.0107707
0.0105946
0.0104146
0.0102325
0.0100459
0.00986065
0.00966674
0.00948712
0.00927601
0.00912969
0.0119154
0.0144664
0.0140593
0.0141442
0.0140397
0.0138943
0.0137504
0.0136007
0.0134486
0.013295
0.0131403
0.0129852
0.0128309
0.0126776
0.0125254
0.0123738
0.0122223
0.01207
0.0119166
0.0117614
0.0116043
0.0114442
0.0112815
0.0111151
0.0109457
0.0107721
0.0105956
0.0104148
0.0102322
0.0100451
0.00985939
0.00966611
0.00948323
0.00927398
0.00909441
0.0116815
0.014579
0.0141053
0.0141874
0.0140681
0.0139145
0.0137657
0.0136128
0.0134589
0.0133043
0.0131493
0.0129944
0.0128405
0.0126877
0.0125358
0.0123839
0.0122316
0.012078
0.011923
0.0117659
0.0116068
0.0114448
0.0112805
0.0111129
0.0109426
0.0107685
0.0105919
0.0104114
0.0102293
0.0100428
0.00985825
0.00966638
0.00948997
0.00929041
0.00916529
0.0140862
0.0145362
0.0141493
0.0140498
0.013939
0.0138255
0.0137183
0.0136112
0.0135047
0.0133996
0.0132959
0.0131939
0.0130937
0.0129955
0.012899
0.0128041
0.0127103
0.0126171
0.0125241
0.0124307
0.0123361
0.0122398
0.0121412
0.0120395
0.0119343
0.0118246
0.0117101
0.0115899
0.0114639
0.0113307
0.0111921
0.0110435
0.010896
0.0107277
0.0105931
0.0140612
0.0145046
0.0141295
0.0140343
0.0139268
0.0138151
0.0137081
0.0136001
0.013492
0.0133845
0.0132778
0.0131724
0.0130683
0.0129657
0.0128644
0.0127641
0.0126646
0.0125652
0.0124656
0.0123651
0.0122632
0.0121592
0.0120526
0.0119427
0.0118291
0.0117111
0.0115883
0.0114597
0.0113259
0.0111844
0.0110383
0.0108796
0.0107245
0.0105343
0.0103924
0.0140329
0.0144719
0.0141079
0.0140175
0.0139131
0.0138027
0.0136953
0.0135857
0.0134751
0.0133643
0.0132538
0.013144
0.0130352
0.0129273
0.0128202
0.0127138
0.0126076
0.012501
0.0123937
0.012285
0.0121743
0.012061
0.0119447
0.0118247
0.0117007
0.0115719
0.0114384
0.0112989
0.0111543
0.0110022
0.0108467
0.0106784
0.0105178
0.01032
0.0101813
0.0139969
0.0144363
0.014086
0.0140021
0.0139017
0.0137933
0.0136861
0.0135754
0.0134628
0.0133493
0.0132356
0.0131222
0.0130093
0.012897
0.0127852
0.0126736
0.0125618
0.0124494
0.0123358
0.0122204
0.0121029
0.0119824
0.0118588
0.0117314
0.0115999
0.0114636
0.0113227
0.0111759
0.0110244
0.0108654
0.0107035
0.0105281
0.0103614
0.0101545
0.0100084
0.0139636
0.0143985
0.0140642
0.0139874
0.0138912
0.0137845
0.013677
0.0135648
0.0134497
0.0133331
0.0132158
0.0130984
0.0129811
0.0128641
0.0127473
0.0126303
0.0125128
0.0123943
0.0122743
0.0121521
0.0120274
0.0118997
0.0117685
0.0116334
0.0114941
0.0113501
0.0112014
0.011047
0.0108882
0.0107221
0.010554
0.0103726
0.0102022
0.0099909
0.00984721
0.0139174
0.0143579
0.0140423
0.0139741
0.013883
0.0137782
0.0136705
0.0135569
0.0134395
0.01332
0.0131994
0.0130783
0.012957
0.0128359
0.0127146
0.0125929
0.0124704
0.0123466
0.012221
0.0120931
0.0119625
0.0118286
0.0116913
0.01155
0.0114045
0.0112544
0.0110998
0.0109398
0.0107756
0.0106044
0.0104318
0.0102458
0.0100722
0.00985575
0.00971202
0.0138683
0.0143154
0.014021
0.0139626
0.0138768
0.0137738
0.0136657
0.0135502
0.0134302
0.0133076
0.0131834
0.0130585
0.0129333
0.0128079
0.0126823
0.012556
0.0124286
0.0122997
0.0121688
0.0120353
0.011899
0.0117595
0.0116163
0.0114692
0.011318
0.0111623
0.0110022
0.0108369
0.0106678
0.010492
0.0103155
0.0101258
0.00995012
0.0097307
0.00958895
0.0138091
0.0142719
0.0140017
0.0139541
0.0138738
0.0137722
0.0136633
0.0135459
0.0134232
0.0132975
0.0131699
0.0130414
0.0129125
0.0127833
0.0126537
0.0125232
0.0123915
0.0122581
0.0121225
0.0119844
0.0118432
0.0116988
0.0115508
0.0113989
0.0112431
0.0110828
0.0109185
0.0107492
0.0105763
0.0103971
0.0102177
0.0100251
0.00984766
0.00962576
0.0094836
0.0137386
0.0142286
0.0139839
0.0139486
0.013874
0.0137735
0.0136634
0.0135439
0.0134184
0.0132895
0.0131587
0.0130268
0.0128945
0.0127618
0.0126286
0.0124945
0.012359
0.0122217
0.0120821
0.0119398
0.0117946
0.0116461
0.0114941
0.0113383
0.0111787
0.0110148
0.010847
0.0106745
0.0104987
0.0103168
0.0101352
0.0099407
0.00976216
0.00953905
0.0093973
0.0136677
0.0141934
0.0139719
0.0139477
0.0138777
0.013777
0.0136654
0.0135436
0.0134154
0.0132837
0.01315
0.0130152
0.0128799
0.0127442
0.012608
0.0124709
0.0123323
0.0121918
0.012049
0.0119035
0.011755
0.0116034
0.0114483
0.0112896
0.0111272
0.0109606
0.0107903
0.0106155
0.0104377
0.0102539
0.0100708
0.00987502
0.00969569
0.00947168
0.00932975
0.0135752
0.0141581
0.0139607
0.0139496
0.0138841
0.013783
0.0136695
0.0135451
0.0134142
0.0132797
0.013143
0.0130054
0.0128673
0.012729
0.0125901
0.0124502
0.0123088
0.0121655
0.0120199
0.0118716
0.0117204
0.0115661
0.0114086
0.0112474
0.0110827
0.0109141
0.0107418
0.0105652
0.0103858
0.0102007
0.0100166
0.00981992
0.00964022
0.00941595
0.00927446
0.0134807
0.0141343
0.0139558
0.0139565
0.0138938
0.0137908
0.0136749
0.0135478
0.0134141
0.0132768
0.0131375
0.0129973
0.0128567
0.0127159
0.0125746
0.0124324
0.0122886
0.012143
0.011995
0.0118444
0.0116911
0.0115347
0.0113752
0.0112123
0.0110458
0.0108756
0.0107019
0.0105241
0.0103436
0.0101576
0.00997273
0.00977559
0.00959561
0.0093712
0.00922961
0.0133559
0.0141148
0.0139526
0.013967
0.0139066
0.013801
0.0136823
0.0135521
0.0134155
0.0132756
0.0131337
0.0129911
0.0128482
0.0127052
0.0125617
0.0124173
0.0122715
0.0121237
0.0119738
0.0118213
0.0116662
0.0115082
0.0113471
0.0111828
0.0110151
0.0108437
0.010669
0.0104903
0.0103091
0.0101226
0.00993739
0.00974014
0.00956025
0.00933619
0.00919515
0.0132249
0.0141115
0.0139556
0.013982
0.0139213
0.0138118
0.0136899
0.0135567
0.0134174
0.013275
0.0131308
0.0129859
0.0128409
0.0126959
0.0125505
0.0124043
0.0122567
0.0121073
0.0119558
0.0118019
0.0116455
0.0114863
0.0113242
0.0111589
0.0109904
0.0108184
0.010643
0.0104638
0.0102822
0.0100955
0.00991009
0.00971289
0.00953298
0.00930914
0.00916812
0.0130618
0.0141206
0.0139624
0.0140022
0.0139398
0.0138252
0.0136995
0.013563
0.0134209
0.013276
0.0131296
0.0129827
0.0128358
0.012689
0.012542
0.0123942
0.0122451
0.0120942
0.0119413
0.0117862
0.0116287
0.0114687
0.0113058
0.01114
0.0109709
0.0107985
0.0106229
0.0104435
0.0102618
0.0100751
0.00988984
0.00969309
0.00951356
0.00929082
0.00915083
0.0128799
0.0141496
0.0139734
0.0140241
0.0139573
0.0138372
0.013708
0.0135685
0.0134241
0.0132771
0.0131287
0.0129799
0.0128312
0.0126828
0.0125343
0.0123851
0.0122348
0.0120828
0.0119291
0.0117734
0.0116155
0.0114551
0.0112921
0.0111261
0.010957
0.0107845
0.0106089
0.0104294
0.0102477
0.0100611
0.00987579
0.00967938
0.00949947
0.00927717
0.00913578
0.0126753
0.0141989
0.0139911
0.0140535
0.0139797
0.0138526
0.0137189
0.0135762
0.0134293
0.0132804
0.0131303
0.0129798
0.0128297
0.0126798
0.0125299
0.0123795
0.0122282
0.0120754
0.011921
0.0117648
0.0116066
0.011446
0.0112829
0.0111169
0.0109478
0.0107753
0.0105997
0.0104203
0.0102386
0.0100523
0.00986717
0.00967165
0.00949218
0.00927296
0.00913247
0.0124347
0.0142708
0.0140079
0.0140788
0.0139967
0.0138639
0.0137273
0.0135824
0.0134339
0.0132834
0.0131316
0.0129794
0.0128276
0.0126762
0.0125251
0.0123738
0.0122219
0.0120689
0.0119147
0.0117588
0.0116011
0.011441
0.0112785
0.0111128
0.010944
0.0107716
0.0105959
0.0104163
0.0102344
0.0100478
0.00986236
0.00966723
0.00948592
0.0092676
0.00911697
0.0121873
0.0143602
0.014036
0.0141156
0.014022
0.0138819
0.0137408
0.0135929
0.0134422
0.01329
0.0131368
0.0129833
0.0128304
0.0126781
0.0125263
0.0123744
0.0122222
0.012069
0.0119149
0.011759
0.0116014
0.0114411
0.0112784
0.0111123
0.0109432
0.0107702
0.0105941
0.0104141
0.0102321
0.0100455
0.0098604
0.00966652
0.00948695
0.00927587
0.00912966
0.0119175
0.0144665
0.0140596
0.0141446
0.01404
0.0138944
0.0137505
0.0136009
0.0134491
0.0132957
0.0131412
0.0129863
0.0128319
0.0126784
0.012526
0.0123741
0.0122223
0.0120697
0.0119162
0.0117609
0.0116036
0.0114436
0.0112809
0.0111145
0.0109451
0.0107716
0.0105951
0.0104145
0.0102319
0.0100448
0.00985917
0.00966592
0.0094831
0.00927379
0.00909415
0.0116897
0.014581
0.0141052
0.0141868
0.0140674
0.0139139
0.0137653
0.0136125
0.0134588
0.0133044
0.0131494
0.0129944
0.0128404
0.0126873
0.0125352
0.0123832
0.0122308
0.0120772
0.0119223
0.0117652
0.0116062
0.0114444
0.0112802
0.0111126
0.0109423
0.0107683
0.0105917
0.0104112
0.0102291
0.0100427
0.00985814
0.00966629
0.00948987
0.00929035
0.00916513
0.0140913
0.014531
0.014149
0.0140497
0.013939
0.0138255
0.0137184
0.0136112
0.0135047
0.0133996
0.0132958
0.0131939
0.0130937
0.0129955
0.012899
0.0128041
0.0127102
0.0126171
0.0125241
0.0124306
0.0123361
0.0122398
0.0121412
0.0120395
0.0119343
0.0118246
0.0117101
0.0115899
0.0114639
0.0113307
0.0111921
0.0110435
0.010896
0.0107278
0.0105932
0.0140662
0.0144995
0.0141292
0.0140342
0.0139268
0.0138151
0.0137081
0.0136001
0.013492
0.0133845
0.0132778
0.0131723
0.0130683
0.0129657
0.0128643
0.0127641
0.0126646
0.0125652
0.0124656
0.0123651
0.0122632
0.0121592
0.0120526
0.0119427
0.0118292
0.0117111
0.0115883
0.0114598
0.0113259
0.0111844
0.0110384
0.0108797
0.0107246
0.0105344
0.0103925
0.0140378
0.0144669
0.0141076
0.0140174
0.0139131
0.0138027
0.0136953
0.0135857
0.0134751
0.0133643
0.0132538
0.013144
0.0130351
0.0129272
0.0128202
0.0127138
0.0126075
0.012501
0.0123937
0.0122849
0.0121743
0.012061
0.0119447
0.0118247
0.0117007
0.011572
0.0114384
0.0112989
0.0111543
0.0110022
0.0108467
0.0106784
0.0105178
0.01032
0.0101814
0.0140018
0.0144313
0.0140857
0.014002
0.0139018
0.0137933
0.0136861
0.0135754
0.0134628
0.0133493
0.0132356
0.0131222
0.0130093
0.012897
0.0127852
0.0126736
0.0125618
0.0124494
0.0123358
0.0122204
0.0121029
0.0119825
0.0118589
0.0117314
0.0116
0.0114637
0.0113227
0.011176
0.0110245
0.0108654
0.0107036
0.0105281
0.0103614
0.0101546
0.0100085
0.0139683
0.0143936
0.0140639
0.0139873
0.0138912
0.0137845
0.013677
0.0135648
0.0134497
0.0133331
0.0132158
0.0130983
0.0129811
0.0128641
0.0127473
0.0126303
0.0125128
0.0123943
0.0122742
0.0121521
0.0120275
0.0118997
0.0117686
0.0116334
0.0114942
0.0113501
0.0112014
0.011047
0.0108882
0.0107221
0.0105541
0.0103726
0.0102023
0.00999094
0.00984732
0.0139221
0.0143531
0.0140421
0.013974
0.013883
0.0137783
0.0136705
0.0135569
0.0134395
0.01332
0.0131994
0.0130782
0.012957
0.0128359
0.0127146
0.0125929
0.0124704
0.0123466
0.012221
0.0120931
0.0119625
0.0118287
0.0116913
0.01155
0.0114046
0.0112545
0.0110999
0.0109399
0.0107757
0.0106045
0.0104319
0.0102459
0.0100723
0.00985582
0.00971216
0.0138729
0.0143106
0.0140208
0.0139625
0.0138768
0.0137739
0.0136657
0.0135502
0.0134302
0.0133076
0.0131834
0.0130585
0.0129333
0.0128079
0.0126822
0.0125559
0.0124286
0.0122997
0.0121688
0.0120354
0.0118991
0.0117595
0.0116164
0.0114692
0.0113181
0.0111623
0.0110022
0.010837
0.0106678
0.010492
0.0103155
0.0101258
0.00995015
0.00973076
0.00958909
0.0138136
0.0142673
0.0140014
0.013954
0.0138738
0.0137723
0.0136633
0.0135459
0.0134232
0.0132975
0.0131699
0.0130414
0.0129125
0.0127833
0.0126536
0.0125232
0.0123915
0.0122582
0.0121226
0.0119844
0.0118433
0.0116988
0.0115508
0.011399
0.0112431
0.0110829
0.0109185
0.0107492
0.0105764
0.0103971
0.0102177
0.0100252
0.00984769
0.00962582
0.00948374
0.013743
0.0142241
0.0139837
0.0139485
0.013874
0.0137735
0.0136634
0.0135438
0.0134184
0.0132895
0.0131586
0.0130268
0.0128944
0.0127618
0.0126285
0.0124945
0.012359
0.0122217
0.0120821
0.0119399
0.0117946
0.0116461
0.0114942
0.0113384
0.0111788
0.0110149
0.0108471
0.0106745
0.0104988
0.0103169
0.0101352
0.00994075
0.00976219
0.00953911
0.00939745
0.013672
0.014189
0.0139717
0.0139477
0.0138777
0.013777
0.0136654
0.0135435
0.0134154
0.0132837
0.0131499
0.0130151
0.0128798
0.0127442
0.012608
0.0124709
0.0123323
0.0121919
0.012049
0.0119036
0.0117551
0.0116035
0.0114484
0.0112897
0.0111272
0.0109607
0.0107904
0.0106156
0.0104377
0.010254
0.0100709
0.00987507
0.00969571
0.00947174
0.0093299
0.0135795
0.0141539
0.0139605
0.0139495
0.0138841
0.013783
0.0136695
0.0135451
0.0134142
0.0132796
0.013143
0.0130054
0.0128673
0.012729
0.0125901
0.0124502
0.0123089
0.0121656
0.0120199
0.0118717
0.0117205
0.0115662
0.0114086
0.0112475
0.0110828
0.0109141
0.0107419
0.0105653
0.0103858
0.0102008
0.0100166
0.00981996
0.00964023
0.009416
0.00927461
0.0134848
0.0141303
0.0139556
0.0139565
0.0138938
0.0137907
0.0136748
0.0135477
0.013414
0.0132767
0.0131374
0.0129972
0.0128567
0.0127159
0.0125746
0.0124324
0.0122887
0.0121431
0.0119951
0.0118446
0.0116912
0.0115349
0.0113753
0.0112124
0.0110459
0.0108757
0.010702
0.0105241
0.0103436
0.0101576
0.00997275
0.00977562
0.00959562
0.00937124
0.00922975
0.0133599
0.0141109
0.0139524
0.013967
0.0139066
0.0138009
0.0136822
0.0135521
0.0134155
0.0132755
0.0131336
0.012991
0.0128481
0.0127052
0.0125617
0.0124174
0.0122716
0.0121239
0.0119739
0.0118215
0.0116663
0.0115083
0.0113472
0.0111829
0.0110151
0.0108438
0.0106691
0.0104903
0.0103091
0.0101226
0.0099374
0.00974016
0.00956024
0.00933622
0.00919528
0.0132287
0.0141078
0.0139555
0.0139819
0.0139213
0.0138117
0.0136898
0.0135567
0.0134173
0.0132749
0.0131307
0.0129858
0.0128408
0.0126959
0.0125506
0.0124045
0.0122569
0.0121076
0.011956
0.0118021
0.0116457
0.0114865
0.0113243
0.011159
0.0109905
0.0108184
0.0106431
0.0104638
0.0102822
0.0100955
0.00991008
0.00971288
0.00953296
0.00930915
0.00916823
0.0130655
0.0141171
0.0139623
0.0140021
0.0139397
0.0138251
0.0136994
0.0135629
0.0134208
0.0132759
0.0131295
0.0129826
0.0128358
0.0126891
0.0125422
0.0123944
0.0122453
0.0120945
0.0119416
0.0117865
0.011629
0.0114689
0.011306
0.0111401
0.010971
0.0107985
0.0106229
0.0104435
0.0102617
0.0100751
0.00988979
0.00969305
0.00951349
0.00929079
0.00915091
0.0128834
0.0141463
0.0139732
0.0140239
0.0139572
0.0138371
0.0137078
0.0135684
0.0134239
0.013277
0.0131286
0.0129799
0.0128313
0.012683
0.0125346
0.0123855
0.0122352
0.0120833
0.0119296
0.0117738
0.0116158
0.0114553
0.0112922
0.0111262
0.010957
0.0107845
0.0106088
0.0104293
0.0102476
0.010061
0.00987568
0.00967928
0.00949935
0.0092771
0.00913582
0.0126785
0.014196
0.013991
0.0140534
0.0139796
0.0138524
0.0137188
0.013576
0.0134292
0.0132803
0.0131303
0.01298
0.01283
0.0126802
0.0125305
0.0123802
0.0122288
0.012076
0.0119215
0.0117652
0.0116068
0.0114461
0.011283
0.0111168
0.0109477
0.0107752
0.0105995
0.0104201
0.0102384
0.0100521
0.00986698
0.00967148
0.00949201
0.00927285
0.00913248
0.0124376
0.0142682
0.0140077
0.0140786
0.0139966
0.0138638
0.0137271
0.0135822
0.0134338
0.0132834
0.0131318
0.0129798
0.0128282
0.0126769
0.012526
0.0123746
0.0122227
0.0120695
0.0119152
0.0117591
0.0116012
0.011441
0.0112783
0.0111125
0.0109437
0.0107712
0.0105956
0.010416
0.010234
0.0100475
0.0098621
0.00966701
0.00948571
0.00926745
0.00911691
0.0121897
0.0143587
0.0140361
0.0141155
0.014022
0.0138818
0.0137407
0.0135928
0.0134423
0.0132903
0.0131374
0.0129841
0.0128314
0.0126791
0.0125273
0.0123753
0.0122228
0.0120695
0.0119151
0.011759
0.0116011
0.0114408
0.0112779
0.0111118
0.0109426
0.0107697
0.0105937
0.0104137
0.0102317
0.0100452
0.00986011
0.00966628
0.00948675
0.00927571
0.00912958
0.0119194
0.014467
0.0140598
0.0141446
0.0140399
0.0138942
0.0137503
0.0136008
0.0134493
0.0132963
0.013142
0.0129872
0.0128328
0.0126792
0.0125266
0.0123744
0.0122224
0.0120696
0.0119159
0.0117604
0.011603
0.0114429
0.0112802
0.0111138
0.0109444
0.010771
0.0105946
0.010414
0.0102315
0.0100445
0.00985892
0.00966571
0.00948291
0.00927359
0.00909348
0.0116883
0.0145823
0.0141059
0.0141868
0.0140674
0.0139139
0.0137652
0.0136126
0.0134589
0.0133045
0.0131494
0.0129944
0.0128403
0.0126873
0.0125351
0.0123831
0.0122307
0.0120771
0.0119222
0.0117652
0.0116062
0.0114444
0.0112801
0.0111126
0.0109423
0.0107683
0.0105917
0.0104112
0.0102291
0.0100427
0.00985814