/*--------------------------------*- C++ -*----------------------------------*\
  =========                 |
  \\      /  F ield         | OpenFOAM: The Open Source CFD Toolbox
   \\    /   O peration     | Website:  https://openfoam.org
    \\  /    A nd           | Version:  6
     \\/     M anipulation  |
\*---------------------------------------------------------------------------*/
FoamFile
{
    version     2.0;
    format      ascii;
    class       volVectorField;
    location    "4";
    object      wallShearStress;
}
// * * * * * * * * * * * * * * * * * * * * * * * * * * * * * * * * * * * * * //

dimensions      [0 2 -2 0 0 0 0];

internalField   uniform (0 0 0);

boundaryField
{
    inlet
    {
        type            calculated;
        value           uniform (0 0 0);
    }
    outlet
    {
        type            calculated;
        value           uniform (0 0 0);
    }
    roughCylinder
    {
        type            calculated;
        value           nonuniform List<vector> 
3840
(
(-0.000286215 -0.000419337 -0.000171914)
(-0.000345881 -0.000536167 -2.07445e-05)
(-0.00039852 -0.000661483 4.61738e-05)
(-0.000477997 -0.000766657 0.000131066)
(-0.000569987 -0.000840385 0.000215314)
(-0.000664147 -0.000878881 0.000287876)
(-0.000750298 -0.000886827 0.000343881)
(-0.000824015 -0.000876484 0.000382137)
(-0.000886483 -0.000869704 0.000408122)
(-0.00093377 -0.000868388 0.000421018)
(-0.000971464 -0.000876317 0.000423079)
(-0.00100259 -0.000891661 0.000416632)
(-0.00103034 -0.000912727 0.000404236)
(-0.00105763 -0.000938 0.000387954)
(-0.00108648 -0.000966558 0.000369158)
(-0.00111791 -0.000997894 0.000348432)
(-0.00115222 -0.00103169 0.000325792)
(-0.00118916 -0.00106761 0.000300857)
(-0.0012282 -0.00110514 0.000272989)
(-0.00126857 -0.0011435 0.000241237)
(-0.00130922 -0.00118156 0.000204168)
(-0.00134829 -0.00121738 0.000159488)
(-0.00138229 -0.00124818 0.000103668)
(-0.00140371 -0.00126767 3.60926e-05)
(-0.000307694 -0.000407649 -0.000164986)
(-0.000371087 -0.000521698 -2.47869e-05)
(-0.000426632 -0.000646837 3.76217e-05)
(-0.000508722 -0.000753459 0.000119204)
(-0.0006029 -0.0008299 0.000201753)
(-0.000699246 -0.00087128 0.000273468)
(-0.000788683 -0.000883274 0.000329551)
(-0.000867757 -0.0008794 0.000370154)
(-0.000935296 -0.000875315 0.000398811)
(-0.0009857 -0.000872035 0.000412837)
(-0.0010252 -0.000878762 0.000415418)
(-0.00105816 -0.00089351 0.000409224)
(-0.00108768 -0.000914383 0.000396998)
(-0.0011168 -0.000939679 0.000380892)
(-0.00114753 -0.000968332 0.000362343)
(-0.00118095 -0.000999764 0.000341963)
(-0.00121732 -0.00103362 0.000319772)
(-0.00125638 -0.00106953 0.000295382)
(-0.00129755 -0.00110699 0.000268139)
(-0.00134 -0.00114521 0.000237072)
(-0.00138268 -0.00118307 0.000200753)
(-0.00142362 -0.00121867 0.000156884)
(-0.00145926 -0.00124926 0.000102004)
(-0.00148167 -0.00126858 3.55219e-05)
(-0.000329696 -0.000390608 -0.000152307)
(-0.000396016 -0.000501501 -2.94726e-05)
(-0.000454262 -0.000625355 2.82392e-05)
(-0.000538494 -0.000732717 0.000106145)
(-0.000634745 -0.000811711 0.000186742)
(-0.000733686 -0.000856776 0.000257789)
(-0.0008272 -0.000874072 0.000314725)
(-0.000911488 -0.000876306 0.000357688)
(-0.000983449 -0.000874638 0.000388227)
(-0.00103793 -0.000870491 0.000403576)
(-0.00107928 -0.000875752 0.000406711)
(-0.00111412 -0.00088966 0.000400762)
(-0.00114551 -0.000910151 0.000388774)
(-0.00117653 -0.000935268 0.000372917)
(-0.00120922 -0.000963817 0.000354693)
(-0.00124466 -0.000995123 0.000334737)
(-0.0012831 -0.00102879 0.000313074)
(-0.00132426 -0.00106445 0.000289305)
(-0.00136752 -0.00110157 0.000262763)
(-0.00141203 -0.00113938 0.000232459)
(-0.00145668 -0.00117678 0.000196966)
(-0.00149944 -0.0012119 0.000153991)
(-0.00153668 -0.00124207 0.000100153)
(-0.00156003 -0.00126109 3.48879e-05)
(-0.000349561 -0.000368787 -0.000135608)
(-0.000418186 -0.000476083 -3.43632e-05)
(-0.000478672 -0.000597772 1.83812e-05)
(-0.000564513 -0.000705391 9.22991e-05)
(-0.000662821 -0.000786965 0.000170661)
(-0.000764789 -0.000836441 0.000241062)
(-0.000862746 -0.000859734 0.000299143)
(-0.000952085 -0.000867625 0.000344338)
(-0.00102851 -0.00086839 0.000376486)
(-0.00108786 -0.000864692 0.000393507)
(-0.00113135 -0.000868009 0.000397199)
(-0.00116819 -0.000880974 0.000391565)
(-0.00120154 -0.000900906 0.000379885)
(-0.00123451 -0.000925691 0.00036436)
(-0.00126918 -0.000953974 0.000346533)
(-0.00130663 -0.000984992 0.000327074)
(-0.00134711 -0.0010183 0.000306004)
(-0.00139029 -0.00105351 0.00028292)
(-0.00143555 -0.00109008 0.000257134)
(-0.00148197 -0.00112725 0.000227637)
(-0.00152845 -0.00116398 0.000193013)
(-0.00157288 -0.0011984 0.000150969)
(-0.0016116 -0.00122799 9.82193e-05)
(-0.0016358 -0.00124658 3.42268e-05)
(-0.000366948 -0.000343381 -0.00011685)
(-0.000437087 -0.000446289 -3.91412e-05)
(-0.000499058 -0.000564833 8.3833e-06)
(-0.000585897 -0.00067209 7.79712e-05)
(-0.000686232 -0.000756174 0.000153742)
(-0.000791537 -0.000810434 0.000223367)
(-0.000894038 -0.0008398 0.00028254)
(-0.000988268 -0.000852846 0.000329761)
(-0.00106936 -0.000856195 0.000363546)
(-0.00113374 -0.000853862 0.000382334)
(-0.00118041 -0.00085506 0.000386789)
(-0.00121935 -0.000866801 0.000381645)
(-0.00125479 -0.000885965 0.000370374)
(-0.00128976 -0.000910228 0.000355268)
(-0.00132642 -0.00093806 0.000337934)
(-0.00136584 -0.000968593 0.000319046)
(-0.00140826 -0.00100133 0.000298641)
(-0.00145334 -0.00103586 0.000276301)
(-0.00150042 -0.00107165 0.000251321)
(-0.00154859 -0.00110796 0.000222673)
(-0.0015967 -0.00114378 0.000188949)
(-0.00164263 -0.00117729 0.000147861)
(-0.00168268 -0.0012061 9.62313e-05)
(-0.00170764 -0.00122415 3.35498e-05)
(-0.000380877 -0.000314839 -9.70803e-05)
(-0.000451919 -0.000412807 -4.35943e-05)
(-0.000514717 -0.00052748 -1.5413e-06)
(-0.000602045 -0.000633901 6.33317e-05)
(-0.000704321 -0.000720384 0.000136107)
(-0.000813128 -0.000779515 0.000204739)
(-0.000920258 -0.000814701 0.00026481)
(-0.0010194 -0.000832417 0.000313844)
(-0.00110534 -0.000838318 0.000349333)
(-0.00117448 -0.000837339 0.000369641)
(-0.00122592 -0.000837177 0.00037535)
(-0.00126724 -0.000847391 0.000370959)
(-0.00130491 -0.000865476 0.000360211)
(-0.00134196 -0.00088899 0.000345652)
(-0.0013806 -0.000916165 0.0003289)
(-0.00142194 -0.000946012 0.000310676)
(-0.00146621 -0.000977973 0.000291015)
(-0.00151306 -0.00101161 0.000269484)
(-0.00156178 -0.00104639 0.000245362)
(-0.00161146 -0.0010816 0.000217597)
(-0.001661 -0.00111627 0.0001848)
(-0.00170821 -0.00114867 0.000144685)
(-0.00174943 -0.00117651 9.41988e-05)
(-0.00177499 -0.00119391 3.28595e-05)
(-0.000391391 -0.000284584 -7.73428e-05)
(-0.000462405 -0.000376884 -4.76097e-05)
(-0.000525045 -0.000486784 -1.12192e-05)
(-0.000612089 -0.000591673 4.85035e-05)
(-0.000716007 -0.00068024 0.000117795)
(-0.000828313 -0.000744089 0.000185085)
(-0.00094012 -0.000784723 0.000245742)
(-0.00104433 -0.00080673 0.000296365)
(-0.00113539 -0.000815159 0.00033359)
(-0.0012097 -0.000815638 0.000355434)
(-0.00126697 -0.000815518 0.000362877)
(-0.00131123 -0.000823231 0.000359383)
(-0.00135131 -0.000840044 0.00034936)
(-0.00139054 -0.00086252 0.00033548)
(-0.0014312 -0.000888809 0.000319441)
(-0.00147441 -0.000917759 0.00030198)
(-0.00152039 -0.000948748 0.000283144)
(-0.0015688 -0.000981298 0.000262488)
(-0.00161894 -0.00101489 0.000239274)
(-0.00166992 -0.00104883 0.00021243)
(-0.00172063 -0.00108218 0.000180581)
(-0.00176888 -0.00111328 0.000141454)
(-0.00181111 -0.00114002 9.21305e-05)
(-0.00183717 -0.00115668 3.21606e-05)
(-0.000397137 -0.00025265 -5.81115e-05)
(-0.000467433 -0.00033884 -5.10394e-05)
(-0.000529135 -0.000443307 -2.04778e-05)
(-0.000615163 -0.000546046 3.36448e-05)
(-0.000720271 -0.000636233 9.8891e-05)
(-0.000835916 -0.000704454 0.000164351)
(-0.000952466 -0.000750178 0.00022519)
(-0.00106199 -0.00077623 0.000277151)
(-0.00115852 -0.000787184 0.00031612)
(-0.00123827 -0.000789096 0.000339673)
(-0.00130113 -0.00078949 0.000348838)
(-0.00135037 -0.000795429 0.000346805)
(-0.00139312 -0.000810092 0.000337737)
(-0.00143468 -0.000831322 0.000324728)
(-0.00147738 -0.000856496 0.000309536)
(-0.0015224 -0.000884363 0.00029296)
(-0.00156997 -0.000914191 0.000275046)
(-0.00161975 -0.000945464 0.000255339)
(-0.00167106 -0.000977673 0.000233085)
(-0.00172298 -0.00101013 0.000207188)
(-0.00177456 -0.00104198 0.000176306)
(-0.00182357 -0.00107161 0.000138171)
(-0.00186658 -0.00109711 9.0028e-05)
(-0.00189292 -0.00111301 3.14537e-05)
(-0.000398489 -0.000220234 -4.00163e-05)
(-0.000466966 -0.000299729 -5.38601e-05)
(-0.000526529 -0.000397921 -2.91459e-05)
(-0.000610433 -0.000497578 1.89542e-05)
(-0.000716019 -0.000588681 7.95059e-05)
(-0.000834722 -0.000660823 0.000142513)
(-0.000955978 -0.000711227 0.000203004)
(-0.00107103 -0.000741113 0.000255973)
(-0.00117341 -0.000754615 0.000296643)
(-0.0012592 -0.000758121 0.000322178)
(-0.00132786 -0.000759105 0.000333207)
(-0.00138262 -0.000764208 0.000332926)
(-0.00142945 -0.000776838 0.000325291)
(-0.00147349 -0.000796054 0.000313359)
(-0.00151831 -0.000819742 0.000299186)
(-0.00156503 -0.000846317 0.000283634)
(-0.00161399 -0.000874887 0.00026675)
(-0.00166487 -0.000904866 0.000248076)
(-0.00171701 -0.000935717 0.00022684)
(-0.00176958 -0.000966781 0.00020193)
(-0.00182167 -0.00099718 0.00017203)
(-0.00187113 -0.00102536 0.000134884)
(-0.00191468 -0.00104957 8.79217e-05)
(-0.00194103 -0.00106461 3.07485e-05)
(-0.000393674 -0.000187152 -2.33128e-05)
(-0.00045986 -0.000259832 -5.58658e-05)
(-0.000516452 -0.000351169 -3.70196e-05)
(-0.000597203 -0.000446935 4.68051e-06)
(-0.000702345 -0.000538081 5.98417e-05)
(-0.00082358 -0.000613494 0.000119622)
(-0.000949587 -0.0006683 0.000179138)
(-0.00107055 -0.000701967 0.000232749)
(-0.00117929 -0.00071808 0.000275038)
(-0.00127137 -0.000723078 0.000302661)
(-0.00134618 -0.000724663 0.000315849)
(-0.00140655 -0.000729281 0.000317558)
(-0.00145805 -0.000740444 0.00031167)
(-0.00150562 -0.000757811 0.000301238)
(-0.00155285 -0.000779842 0.000288379)
(-0.00160121 -0.000804901 0.000274019)
(-0.0016512 -0.000831975 0.000258257)
(-0.00170262 -0.000860411 0.000240656)
(-0.00175488 -0.000889646 0.000220448)
(-0.00180727 -0.000919021 0.000196507)
(-0.00185912 -0.00094772 0.00016758)
(-0.00190837 -0.000974257 0.000131428)
(-0.00195205 -0.000997023 8.56937e-05)
(-0.00197812 -0.00101105 3.00022e-05)
(-0.000384074 -0.000155187 -8.5288e-06)
(-0.000446467 -0.000220027 -5.73746e-05)
(-0.00049867 -0.000304199 -4.38733e-05)
(-0.000574825 -0.000394796 -8.83963e-06)
(-0.000678315 -0.000484892 4.01798e-05)
(-0.000801523 -0.000562926 9.5828e-05)
(-0.000932023 -0.000621723 0.000153552)
(-0.00105902 -0.000659057 0.000207284)
(-0.00117451 -0.000677804 0.000251015)
(-0.00127374 -0.000684491 0.000280917)
(-0.00135525 -0.000686682 0.00029658)
(-0.00142153 -0.000690851 0.000300599)
(-0.00147776 -0.000700691 0.000296724)
(-0.00152894 -0.000716375 0.000288069)
(-0.00157866 -0.000736693 0.000276771)
(-0.00162854 -0.000760001 0.000263784)
(-0.0016793 -0.000785298 0.000249274)
(-0.00173089 -0.000811891 0.000232836)
(-0.00178286 -0.000839219 0.000213717)
(-0.00183467 -0.000866657 0.000190793)
(-0.00188584 -0.000893419 0.000162877)
(-0.0019345 -0.000918134 0.000127755)
(-0.00197802 -0.000939325 8.33176e-05)
(-0.00200371 -0.00095231 2.92103e-05)
(-0.000364242 -0.000122936 3.96954e-06)
(-0.000426724 -0.000181106 -5.78555e-05)
(-0.000472593 -0.000257411 -4.95491e-05)
(-0.000542788 -0.000341861 -2.12655e-05)
(-0.000643088 -0.000429638 2.09128e-05)
(-0.000767152 -0.0005093 7.13556e-05)
(-0.000902118 -0.000571926 0.000126346)
(-0.00103566 -0.000613134 0.000179617)
(-0.00115867 -0.00063477 0.000224593)
(-0.00126525 -0.000642948 0.00025675)
(-0.00135391 -0.000645614 0.000275146)
(-0.0014266 -0.0006493 0.000281854)
(-0.00148799 -0.000657836 0.000280366)
(-0.0015429 -0.000671749 0.000273771)
(-0.00159502 -0.000690133 0.000264252)
(-0.00164634 -0.00071152 0.000252849)
(-0.00169771 -0.000734871 0.00023976)
(-0.00174922 -0.000759473 0.000224614)
(-0.0018005 -0.00078473 0.000206668)
(-0.0018512 -0.000810054 0.000184804)
(-0.00190122 -0.000834743 0.000157939)
(-0.00194881 -0.000857496 0.000123879)
(-0.00199185 -0.000877014 8.08009e-05)
(-0.00201677 -0.000888846 2.83729e-05)
(-0.000338827 -9.22868e-05 1.44711e-05)
(-0.000401367 -0.000145196 -5.7908e-05)
(-0.000439197 -0.000212361 -5.36967e-05)
(-0.000501219 -0.000289288 -3.20043e-05)
(-0.000596474 -0.000373189 2.63916e-06)
(-0.000720442 -0.000453591 4.6713e-05)
(-0.000859047 -0.000519458 9.77572e-05)
(-0.000998905 -0.000564437 0.000149699)
(-0.00112955 -0.000588992 0.000195476)
(-0.00124468 -0.000599048 0.000229988)
(-0.00134134 -0.000602207 0.000251406)
(-0.00142093 -0.000605258 0.000261178)
(-0.0014878 -0.00061231 0.000262457)
(-0.00154674 -0.000624336 0.000258283)
(-0.0016015 -0.000640685 0.000250862)
(-0.00165412 -0.00065995 0.000241265)
(-0.00170571 -0.000681147 0.000229752)
(-0.00175662 -0.000703559 0.000216003)
(-0.00180667 -0.000726609 0.000199307)
(-0.00185575 -0.000749723 0.000178553)
(-0.00190408 -0.00077224 0.000152774)
(-0.00195014 -0.000792984 0.000119803)
(-0.00199237 -0.000810755 7.81469e-05)
(-0.00201641 -0.000821473 2.74966e-05)
(-0.000302832 -6.45628e-05 2.28531e-05)
(-0.000366815 -0.000110042 -5.48103e-05)
(-0.000397668 -0.000168462 -5.64811e-05)
(-0.000449975 -0.00023753 -4.09312e-05)
(-0.000537874 -0.000315955 -1.40145e-05)
(-0.000659292 -0.000395368 2.24553e-05)
(-0.000801313 -0.000464378 6.81817e-05)
(-0.000948072 -0.000513628 0.000117803)
(-0.00108751 -0.000541789 0.000163941)
(-0.00121126 -0.00055361 0.000200596)
(-0.00131632 -0.000557111 0.000225194)
(-0.00140346 -0.00055937 0.000238419)
(-0.00147644 -0.000564823 0.000242929)
(-0.00153967 -0.000574763 0.000241575)
(-0.00159697 -0.000588814 0.000236556)
(-0.00165081 -0.000605815 0.000229035)
(-0.00170246 -0.000624785 0.000219301)
(-0.00175247 -0.000644973 0.00020709)
(-0.00180074 -0.000665754 0.000191714)
(-0.00184759 -0.000686614 0.000172101)
(-0.00189362 -0.000706917 0.000147427)
(-0.00193759 -0.000725621 0.000115552)
(-0.00197867 -0.000741609 7.53666e-05)
(-0.00200138 -0.000751149 2.6582e-05)
(-0.000263539 -4.20922e-05 2.54291e-05)
(-0.00032716 -8.07055e-05 -4.86366e-05)
(-0.000350981 -0.00012798 -5.67017e-05)
(-0.000391124 -0.00018811 -4.71953e-05)
(-0.000468607 -0.000259164 -2.816e-05)
(-0.000586323 -0.000336666 -3.62999e-07)
(-0.000729572 -0.000407635 3.83943e-05)
(-0.000882219 -0.000460957 8.4295e-05)
(-0.00102987 -0.000492747 0.000129872)
(-0.00116362 -0.000507081 0.000168523)
(-0.00127823 -0.000511217 0.000196501)
(-0.00137358 -0.000512586 0.000213545)
(-0.00145295 -0.000516157 0.000221707)
(-0.00152081 -0.000523806 0.000223616)
(-0.00158099 -0.000535471 0.000221412)
(-0.00163586 -0.000550052 0.000216237)
(-0.00168704 -0.000566647 0.000208446)
(-0.00173546 -0.000584493 0.000197866)
(-0.0017814 -0.000603028 0.000183887)
(-0.00182535 -0.000621656 0.000165437)
(-0.00186853 -0.000639807 0.00014189)
(-0.00190986 -0.000656526 0.000111115)
(-0.00194948 -0.000670725 7.24504e-05)
(-0.00197074 -0.0006792 2.56317e-05)
(-0.000215745 -2.1589e-05 2.70865e-05)
(-0.000279005 -5.57609e-05 -4.47477e-05)
(-0.000297335 -9.31154e-05 -5.43755e-05)
(-0.000325591 -0.000142955 -4.96201e-05)
(-0.000390862 -0.000204864 -3.85731e-05)
(-0.000498348 -0.000276226 -2.05787e-05)
(-0.000641901 -0.000348654 9.46508e-06)
(-0.0008007 -0.000406554 4.99488e-05)
(-0.000958088 -0.000443234 9.39978e-05)
(-0.00110157 -0.000460256 0.000134039)
(-0.00122593 -0.000465134 0.000165322)
(-0.00133012 -0.000465631 0.000186486)
(-0.0014167 -0.000467291 0.000198793)
(-0.00148953 -0.000472473 0.000204428)
(-0.00155233 -0.000481476 0.000205382)
(-0.00160812 -0.000493559 0.00020286)
(-0.00165871 -0.000507826 0.000197235)
(-0.0017053 -0.000523459 0.000188438)
(-0.00174813 -0.000539785 0.000175895)
(-0.00178855 -0.0005563 0.000158622)
(-0.00182814 -0.000572374 0.000136195)
(-0.00186622 -0.000587199 0.000106505)
(-0.00190401 -0.000599636 6.94038e-05)
(-0.00192333 -0.000607045 2.46445e-05)
(-0.000165069 -4.4573e-06 2.86817e-05)
(-0.000225419 -3.43068e-05 -4.18812e-05)
(-0.000240013 -6.32911e-05 -5.1298e-05)
(-0.000255105 -0.000101839 -5.00704e-05)
(-0.000298637 -0.000150921 -4.42076e-05)
(-0.000401298 -0.000217444 -3.52488e-05)
(-0.000541419 -0.00028821 -1.67367e-05)
(-0.000704104 -0.000350463 1.60335e-05)
(-0.00086943 -0.000392098 5.68235e-05)
(-0.00102422 -0.000413238 9.75336e-05)
(-0.00115942 -0.000419657 0.000131947)
(-0.00127305 -0.000419526 0.000157413)
(-0.00136695 -0.000419145 0.000174207)
(-0.00144495 -0.000421733 0.000184008)
(-0.00151086 -0.000428108 0.000188581)
(-0.00156728 -0.000437629 0.000189001)
(-0.00161649 -0.000449493 0.000185687)
(-0.00166028 -0.000462871 0.000178735)
(-0.00169952 -0.000477198 0.000167706)
(-0.00173556 -0.000491737 0.000151597)
(-0.00177102 -0.000505927 0.000130306)
(-0.00180528 -0.000519033 0.00010169)
(-0.00184098 -0.000529765 6.61997e-05)
(-0.0018582 -0.000536268 2.36176e-05)
(-0.000109703 6.70105e-06 2.7184e-05)
(-0.000163947 -1.77444e-05 -3.70231e-05)
(-0.000177415 -3.97577e-05 -4.47929e-05)
(-0.000187239 -6.67712e-05 -3.97144e-05)
(-0.000234075 -0.000101857 -4.26904e-05)
(-0.000297576 -0.000154379 -5.04962e-05)
(-0.000428298 -0.000226969 -4.0017e-05)
(-0.000592838 -0.0002924 -1.60001e-05)
(-0.000767246 -0.000340557 1.98011e-05)
(-0.000931653 -0.000366178 5.98366e-05)
(-0.00107767 -0.000374891 9.67594e-05)
(-0.00120121 -0.00037468 0.000126471)
(-0.00130328 -0.000372625 0.000148084)
(-0.00138682 -0.000372693 0.000162466)
(-0.00145525 -0.000376284 0.000170975)
(-0.00151209 -0.000383291 0.000174636)
(-0.00155986 -0.000392967 0.000173856)
(-0.00160075 -0.000404387 0.000168899)
(-0.00163532 -0.000416823 0.000159376)
(-0.00166642 -0.000429657 0.000144427)
(-0.00169689 -0.000442122 0.000124245)
(-0.00172664 -0.000453696 9.66668e-05)
(-0.00175986 -0.000462771 6.28291e-05)
(-0.00177454 -0.000468447 2.25464e-05)
(-5.88596e-05 1.35531e-05 2.72599e-05)
(-0.000106668 -3.83802e-06 -3.13362e-05)
(-0.000124123 -1.87773e-05 -4.22603e-05)
(-0.000126643 -3.58494e-05 -5.12421e-05)
(-0.000119555 -7.27661e-05 -4.06568e-05)
(-0.000201566 -0.000109036 -3.6425e-05)
(-0.00030479 -0.000158989 -5.1051e-05)
(-0.000467852 -0.000230946 -4.22226e-05)
(-0.000648579 -0.000285768 -1.49851e-05)
(-0.00082503 -0.00031882 2.23302e-05)
(-0.000982059 -0.000331302 6.06687e-05)
(-0.00111565 -0.000331866 9.42319e-05)
(-0.00122551 -0.000328461 0.000120674)
(-0.00131443 -0.000326193 0.000139907)
(-0.0013859 -0.000327309 0.000152757)
(-0.0014427 -0.000331917 0.000159903)
(-0.00148795 -0.000339445 0.000161736)
(-0.00152461 -0.000348937 0.000158772)
(-0.00155421 -0.000359848 0.000150824)
(-0.00157932 -0.00037117 0.000136978)
(-0.00160439 -0.000382202 0.000117923)
(-0.00162911 -0.000392515 9.13686e-05)
(-0.00165986 -0.000400047 5.92512e-05)
(-0.00167168 -0.000405042 2.14212e-05)
(-1.10279e-05 1.1261e-05 1.80551e-05)
(-3.86745e-05 1.77623e-06 -2.15304e-05)
(-5.45203e-05 -6.81992e-06 -3.3915e-05)
(-6.36415e-05 -1.9797e-05 -4.63083e-05)
(-4.16e-05 -3.47064e-05 -2.72762e-05)
(-7.81238e-05 -5.93457e-05 -1.69352e-05)
(-0.000210284 -0.000100785 -3.81861e-05)
(-0.000343197 -0.000162867 -6.37078e-05)
(-0.000521854 -0.000230525 -4.67425e-05)
(-0.000703798 -0.000270277 -1.32194e-05)
(-0.000871712 -0.000288049 2.48245e-05)
(-0.00101545 -0.000290787 6.13189e-05)
(-0.00113377 -0.00028711 9.24042e-05)
(-0.00122824 -0.000283091 0.000116625)
(-0.00130161 -0.000281869 0.000133952)
(-0.00135795 -0.000284365 0.000144779)
(-0.00140066 -0.000290144 0.000149377)
(-0.00143326 -0.000298147 0.000148524)
(-0.00145656 -0.000307686 0.000142085)
(-0.00147537 -0.000317872 0.000129317)
(-0.00149414 -0.00032763 0.000111354)
(-0.00151309 -0.000336923 8.57772e-05)
(-0.00154069 -0.000342829 5.54206e-05)
(-0.00154962 -0.000347341 2.02326e-05)
(1.34965e-05 8.82502e-06 1.1897e-05)
(3.13074e-06 -2.63886e-07 -1.17725e-05)
(-9.41635e-06 -2.22422e-06 -1.79746e-05)
(-2.9371e-05 -4.41883e-06 -3.861e-05)
(-2.35127e-05 -2.58583e-05 -3.98019e-05)
(-2.99005e-05 -2.77185e-05 -2.30948e-05)
(-4.68958e-05 -3.84551e-05 -2.04838e-05)
(-0.00021014 -0.000109907 -5.14641e-05)
(-0.000379557 -0.000166096 -6.38681e-05)
(-0.000572852 -0.000220072 -4.36512e-05)
(-0.000750008 -0.000245168 -9.04791e-06)
(-0.000903153 -0.000251643 2.89272e-05)
(-0.00102875 -0.000248718 6.39255e-05)
(-0.00112799 -0.000243688 9.29385e-05)
(-0.00120382 -0.000240932 0.000114908)
(-0.00125896 -0.000241704 0.000129477)
(-0.00129771 -0.000245936 0.000136763)
(-0.00132464 -0.000252528 0.000137904)
(-0.00134148 -0.000261094 0.000132997)
(-0.0013528 -0.000270281 0.000121191)
(-0.00136517 -0.000279031 0.000104371)
(-0.00137802 -0.000287608 7.97779e-05)
(-0.00140357 -0.000292123 5.13099e-05)
(-0.00140853 -0.000296115 1.89596e-05)
(3.56029e-05 7.30989e-06 1.91475e-05)
(3.6074e-05 1.64351e-06 -7.03967e-06)
(2.53427e-05 1.28291e-06 -1.14782e-05)
(-4.62621e-06 -4.09306e-06 -2.543e-05)
(-1.10752e-05 -4.56906e-06 -3.00857e-05)
(-2.90068e-05 -1.05591e-05 -3.38187e-05)
(-1.80718e-05 -2.27875e-05 -2.55316e-05)
(-7.12163e-05 -4.81654e-05 -2.37152e-05)
(-0.000262239 -0.000106738 -6.16762e-05)
(-0.00043451 -0.000164808 -6.73997e-05)
(-0.000617215 -0.000201431 -3.89034e-05)
(-0.000778818 -0.000213374 -1.52057e-06)
(-0.000911776 -0.000213039 3.61617e-05)
(-0.0010156 -0.000208263 6.94654e-05)
(-0.00109162 -0.000204509 9.57604e-05)
(-0.00114487 -0.000204165 0.00011398)
(-0.00117964 -0.000207404 0.000123906)
(-0.00120134 -0.000213062 0.000127057)
(-0.00121069 -0.000220799 0.000123569)
(-0.00121473 -0.000229352 0.000112684)
(-0.00121992 -0.000237111 9.69848e-05)
(-0.00122599 -0.000245148 7.33381e-05)
(-0.00124739 -0.000247737 4.6773e-05)
(-0.00125003 -0.00025169 1.75912e-05)
(5.17745e-05 5.18921e-06 2.52969e-05)
(6.14222e-05 -3.09556e-06 -7.50613e-06)
(5.99068e-05 -1.25316e-05 -3.60145e-06)
(3.98562e-05 -1.69377e-05 2.10634e-05)
(-1.46034e-05 2.8237e-05 -1.96206e-06)
(-3.98812e-08 -9.00199e-06 -2.53686e-05)
(-2.50717e-05 1.95519e-06 -2.77486e-05)
(-2.81174e-05 -1.08634e-05 -3.05401e-05)
(-9.9089e-05 -5.79469e-05 -5.00935e-05)
(-0.000290413 -0.000117857 -6.76847e-05)
(-0.000477197 -0.000155248 -6.01057e-05)
(-0.000646287 -0.000175328 -2.82566e-05)
(-0.000784547 -0.000179361 1.0275e-05)
(-0.00089113 -0.000176174 4.68275e-05)
(-0.00096831 -0.000172896 7.70963e-05)
(-0.00101854 -0.0001721 9.86229e-05)
(-0.00104779 -0.000174684 0.000110822)
(-0.00106265 -0.000179415 0.000115675)
(-0.00106411 -0.00018646 0.0001135)
(-0.00105967 -0.000194301 0.000103347)
(-0.00105824 -0.000201131 8.89124e-05)
(-0.00105761 -0.000208811 6.62936e-05)
(-0.00107924 -0.000210194 4.19066e-05)
(-0.00107584 -0.000213403 1.60837e-05)
(6.20231e-05 7.17557e-06 2.8377e-05)
(7.96782e-05 -1.0654e-06 -9.99826e-06)
(8.49068e-05 -9.1255e-06 -1.61755e-05)
(7.71602e-05 -1.91744e-05 -1.74571e-05)
(4.59001e-05 -3.54132e-05 -2.30708e-05)
(4.59356e-05 -3.26402e-05 -2.55856e-05)
(1.19718e-05 -2.45724e-05 -2.85419e-05)
(-1.28676e-05 -1.8678e-05 -3.98756e-05)
(-4.10921e-05 -3.54497e-05 -4.10061e-05)
(-0.000155974 -6.53701e-05 -5.29708e-05)
(-0.000338588 -0.00010714 -7.1817e-05)
(-0.000509006 -0.000136849 -4.9357e-05)
(-0.000650835 -0.000147096 -1.22966e-05)
(-0.000759568 -0.00014718 2.60529e-05)
(-0.000833379 -0.000145069 5.91828e-05)
(-0.000879616 -0.000144635 8.33767e-05)
(-0.00090321 -0.000147073 9.74006e-05)
(-0.000912147 -0.000151207 0.000103778)
(-0.000906068 -0.00015762 0.000102813)
(-0.000894495 -0.000165037 9.33592e-05)
(-0.000885969 -0.000170618 8.02097e-05)
(-0.00087805 -0.000177734 5.86105e-05)
(-0.000893371 -0.000176361 3.63131e-05)
(-0.000890492 -0.000180121 1.44528e-05)
(7.53301e-05 5.55149e-06 2.9515e-05)
(9.94507e-05 -3.3591e-06 -1.21194e-05)
(0.00010968 -1.10944e-05 -2.13171e-05)
(0.000110563 -2.21934e-05 -2.74766e-05)
(0.000101629 -3.3032e-05 -3.18561e-05)
(8.87249e-05 -3.87684e-05 -3.38558e-05)
(6.19957e-05 -4.07263e-05 -3.34342e-05)
(3.30165e-05 -3.54665e-05 -2.78039e-05)
(-2.68443e-05 -4.36111e-06 -3.26858e-05)
(-3.8219e-05 -1.14039e-05 -2.59141e-05)
(-0.000199711 -5.99855e-05 -6.80199e-05)
(-0.000364105 -9.30277e-05 -6.12292e-05)
(-0.000512056 -0.000114456 -2.97649e-05)
(-0.000619967 -0.000119452 8.06909e-06)
(-0.000693278 -0.000120717 4.29186e-05)
(-0.000734092 -0.0001213 6.87472e-05)
(-0.000750745 -0.000123789 8.37877e-05)
(-0.000752408 -0.000127019 9.10996e-05)
(-0.000737335 -0.000132044 9.09656e-05)
(-0.000717511 -0.000138794 8.19232e-05)
(-0.00070383 -0.000142856 7.0428e-05)
(-0.000689504 -0.000149042 5.01761e-05)
(-0.000711777 -0.000147191 3.05197e-05)
(-0.000698282 -0.000149344 1.25552e-05)
(8.53081e-05 3.16295e-06 2.98707e-05)
(0.000114531 -6.42668e-06 -1.24718e-05)
(0.000128363 -1.38944e-05 -2.29381e-05)
(0.000133334 -2.5201e-05 -3.03606e-05)
(0.000130031 -3.67648e-05 -3.51392e-05)
(0.000119309 -4.48274e-05 -3.71257e-05)
(9.95972e-05 -4.90754e-05 -3.68368e-05)
(7.07315e-05 -4.12194e-05 -3.1906e-05)
(1.00066e-05 -2.64836e-05 -3.78481e-05)
(-1.76856e-05 -9.61173e-06 -2.69687e-05)
(-8.53818e-05 -2.17747e-05 -3.94936e-05)
(-0.000264673 -3.69887e-05 -5.88454e-05)
(-0.000379663 -7.68779e-05 -4.41891e-05)
(-0.000484642 -9.35464e-05 -6.31539e-06)
(-0.000547406 -9.7922e-05 2.84594e-05)
(-0.000581566 -9.99688e-05 5.45625e-05)
(-0.000591245 -0.000102513 6.96285e-05)
(-0.000587918 -0.000104903 7.7526e-05)
(-0.000568885 -0.000109424 7.83278e-05)
(-0.000543791 -0.000115215 6.97015e-05)
(-0.00052493 -0.000117198 5.98524e-05)
(-0.000502485 -0.000119903 4.08398e-05)
(-0.000513067 -0.000117807 2.35867e-05)
(-0.000507992 -0.000119637 1.06902e-05)
(8.83727e-05 2.32504e-07 2.95127e-05)
(0.000120534 -9.07456e-06 -1.11115e-05)
(0.000136261 -1.56917e-05 -2.21522e-05)
(0.000144397 -2.62755e-05 -3.04635e-05)
(0.000144724 -3.78262e-05 -3.58267e-05)
(0.000137517 -4.77491e-05 -3.80267e-05)
(0.000122306 -5.37322e-05 -3.69891e-05)
(9.83029e-05 -5.19863e-05 -3.37926e-05)
(5.58022e-05 -3.75463e-05 -3.02149e-05)
(-6.36881e-06 -9.21495e-06 -4.83529e-05)
(-3.02738e-05 1.7306e-06 -2.84857e-05)
(-0.000160762 -4.70658e-05 -5.53969e-05)
(-0.000287283 -4.87457e-05 -3.20623e-05)
(-0.000345465 -6.64922e-05 -1.43684e-05)
(-0.000408292 -7.70042e-05 1.73616e-05)
(-0.000434818 -8.04209e-05 4.16656e-05)
(-0.0004364 -8.19343e-05 5.54648e-05)
(-0.000426206 -8.31408e-05 6.28029e-05)
(-0.000391526 -8.27059e-05 6.36486e-05)
(-0.000365764 -9.02228e-05 5.50775e-05)
(-0.000344905 -8.94884e-05 4.77733e-05)
(-0.000315579 -7.40382e-05 3.13949e-05)
(-0.000347955 -8.13383e-05 1.74915e-05)
(-0.000326077 -8.45491e-05 8.04941e-06)
(8.44613e-05 -3.31118e-06 2.77311e-05)
(0.000118154 -1.18376e-05 -8.23306e-06)
(0.000134814 -1.74815e-05 -1.88553e-05)
(0.000144562 -2.65565e-05 -2.75003e-05)
(0.000148277 -3.7717e-05 -3.36718e-05)
(0.000144678 -4.87579e-05 -3.65221e-05)
(0.000133624 -5.68597e-05 -3.5702e-05)
(0.000114775 -5.88536e-05 -3.21156e-05)
(8.60004e-05 -4.9263e-05 -2.7257e-05)
(3.49615e-05 -2.42174e-05 -4.42144e-05)
(-3.7863e-05 2.36499e-06 -7.61905e-05)
(-9.69507e-05 -8.38146e-05 -7.62054e-05)
(-0.000160869 -9.11033e-05 -1.30565e-05)
(-0.000232607 -4.17007e-05 -9.73579e-07)
(-0.000269478 -5.51516e-05 8.01094e-06)
(-0.000286946 -6.00447e-05 2.92277e-05)
(-0.000281253 -5.45302e-05 4.06279e-05)
(-0.000273968 -5.64616e-05 4.89291e-05)
(-0.000268743 -4.59026e-05 5.02025e-05)
(-0.000219748 -6.12916e-05 4.06903e-05)
(-0.000202581 -5.61434e-05 3.58186e-05)
(-0.000259733 -2.36433e-05 2.15449e-05)
(-0.000201597 -5.13179e-05 1.04145e-05)
(-0.000189945 -4.4398e-05 5.82531e-06)
(7.82105e-05 -6.56651e-06 2.58733e-05)
(0.00011144 -1.46822e-05 -5.53873e-06)
(0.000127975 -1.96803e-05 -1.47795e-05)
(0.000138164 -2.73334e-05 -2.27213e-05)
(0.000143265 -3.70188e-05 -2.90182e-05)
(0.000142803 -4.82282e-05 -3.23941e-05)
(0.000135271 -5.80773e-05 -3.17176e-05)
(0.000121059 -6.35172e-05 -2.71963e-05)
(9.94069e-05 -6.22834e-05 -2.06245e-05)
(6.50632e-05 -4.33048e-05 -1.64049e-05)
(-4.52104e-05 -1.36118e-05 -4.7711e-05)
(-4.61294e-05 4.67258e-06 -5.01959e-05)
(-0.000103479 -3.15146e-05 -2.55016e-05)
(-0.000120212 -2.53274e-05 -2.6709e-06)
(-0.000162099 -3.38222e-05 4.34895e-06)
(-0.00017236 -3.75366e-05 1.9406e-05)
(-0.000202011 -2.3357e-05 2.68063e-05)
(-0.000159317 -3.0237e-05 2.72855e-05)
(-0.000125736 -5.28775e-05 2.86204e-05)
(-8.64679e-05 -3.04008e-05 2.3318e-05)
(-6.47817e-05 -2.97295e-05 8.90143e-06)
(-9.81326e-05 -0.000161215 1.22276e-05)
(-7.50692e-05 -3.49357e-05 9.79072e-06)
(-7.83483e-05 -4.77064e-05 3.49274e-06)
(7.2029e-05 -8.67924e-06 2.50916e-05)
(0.000103596 -1.67383e-05 -3.74392e-06)
(0.000119106 -2.14585e-05 -1.16268e-05)
(0.000128753 -2.81356e-05 -1.83754e-05)
(0.000133874 -3.66122e-05 -2.39449e-05)
(0.000134858 -4.69262e-05 -2.70831e-05)
(0.000129942 -5.74037e-05 -2.62376e-05)
(0.000119162 -6.51211e-05 -2.10726e-05)
(0.000101957 -6.88614e-05 -1.17386e-05)
(7.45423e-05 -6.41371e-05 3.76429e-06)
(2.29899e-05 -5.12587e-05 3.36143e-05)
(-6.55704e-05 9.82899e-05 -9.28316e-06)
(-6.39273e-05 1.43731e-05 -5.02723e-05)
(-4.44659e-05 -1.39889e-05 -8.94541e-06)
(-4.72501e-05 -1.33849e-05 2.44869e-06)
(-5.23298e-05 -1.59232e-05 1.91013e-07)
(-8.15379e-05 -7.86326e-05 1.11997e-05)
(-6.76734e-05 -3.53331e-05 2.16984e-05)
(-5.27063e-05 -4.8211e-05 2.53677e-05)
(-1.62553e-05 -1.6937e-05 1.04672e-05)
(-2.0019e-05 -1.76609e-05 -3.88137e-06)
(-4.14403e-06 -4.70799e-05 1.65243e-05)
(-4.29965e-05 -4.51018e-05 2.33412e-05)
(-1.85936e-05 -4.09689e-05 2.2495e-06)
(6.57399e-05 -9.47684e-06 2.5185e-05)
(9.52093e-05 -1.75407e-05 -2.75348e-06)
(0.000109389 -2.22595e-05 -9.63075e-06)
(0.000118102 -2.84648e-05 -1.52022e-05)
(0.000122702 -3.61514e-05 -1.96586e-05)
(0.000123862 -4.53835e-05 -2.20178e-05)
(0.000120899 -5.5606e-05 -2.07774e-05)
(0.000112919 -6.37245e-05 -1.52303e-05)
(0.000100109 -6.89118e-05 -5.51229e-06)
(7.84468e-05 -6.75107e-05 9.18965e-06)
(3.56959e-05 -4.81324e-05 2.47578e-05)
(-5.35032e-05 -1.39908e-05 1.41313e-05)
(-4.20141e-05 4.38986e-05 -2.34447e-05)
(-1.92921e-05 -9.57319e-06 -1.13169e-05)
(-1.89087e-05 -1.36062e-05 2.99713e-07)
(-1.58664e-05 -1.21878e-05 3.02199e-07)
(-3.17358e-05 -3.92763e-05 1.78705e-05)
(-2.76023e-05 -3.71048e-05 3.08526e-05)