/*--------------------------------*- C++ -*----------------------------------*\
  =========                 |
  \\      /  F ield         | OpenFOAM: The Open Source CFD Toolbox
   \\    /   O peration     | Website:  https://openfoam.org
    \\  /    A nd           | Version:  6
     \\/     M anipulation  |
\*---------------------------------------------------------------------------*/
FoamFile
{
    version     2.0;
    format      ascii;
    class       volVectorField;
    location    "20";
    object      wallShearStress;
}
// * * * * * * * * * * * * * * * * * * * * * * * * * * * * * * * * * * * * * //

dimensions      [0 2 -2 0 0 0 0];

internalField   uniform (0 0 0);

boundaryField
{
    inlet
    {
        type            calculated;
        value           uniform (0 0 0);
    }
    outlet
    {
        type            calculated;
        value           uniform (0 0 0);
    }
    roughCylinder
    {
        type            calculated;
        value           nonuniform List<vector> 
5120
(
(-0.000242013 -0.000343146 -0.000172323)
(-0.000296556 -0.000445481 -3.94991e-05)
(-0.000329817 -0.000536429 1.59421e-06)
(-0.00037492 -0.00062304 5.53027e-05)
(-0.000430719 -0.000697569 0.000116612)
(-0.000493728 -0.000755693 0.000177711)
(-0.000560373 -0.000794954 0.000234316)
(-0.00062604 -0.000815996 0.000283763)
(-0.000686868 -0.000821525 0.000324106)
(-0.000741245 -0.000816952 0.000354963)
(-0.000789687 -0.000810843 0.000378269)
(-0.000831999 -0.000807146 0.000395309)
(-0.000866001 -0.000806637 0.000405183)
(-0.000894725 -0.000811187 0.000408852)
(-0.00091936 -0.000820156 0.000407393)
(-0.00094122 -0.000832827 0.000401806)
(-0.00096164 -0.000848471 0.000393095)
(-0.000981771 -0.000866475 0.000382087)
(-0.00100248 -0.000886407 0.000369397)
(-0.00102435 -0.000908001 0.00035541)
(-0.0010477 -0.000931086 0.000340299)
(-0.0010726 -0.000955547 0.000324078)
(-0.00109903 -0.000981261 0.000306657)
(-0.0011268 -0.00100806 0.000287849)
(-0.00115568 -0.00103571 0.00026741)
(-0.00118532 -0.00106388 0.000244996)
(-0.00121533 -0.00109214 0.000220153)
(-0.00124509 -0.00111983 0.000192203)
(-0.00127381 -0.00114609 0.000160105)
(-0.00129995 -0.0011695 0.000122435)
(-0.00132094 -0.00118839 7.72408e-05)
(-0.00133271 -0.00119946 2.61063e-05)
(-0.000259918 -0.000332029 -0.000162794)
(-0.000317561 -0.000431708 -4.19794e-05)
(-0.000353316 -0.000521455 -4.07935e-06)
(-0.000400448 -0.000607879 4.63817e-05)
(-0.000457866 -0.000683453 0.000105236)
(-0.000522358 -0.000743312 0.000164684)
(-0.000590324 -0.000784625 0.000220226)
(-0.000657445 -0.000807985 0.000269104)
(-0.000720508 -0.000816573 0.000309538)
(-0.000778342 -0.000816294 0.000341598)
(-0.000830769 -0.000813782 0.000366811)
(-0.000876601 -0.000811381 0.000385645)
(-0.000912933 -0.00080939 0.000396392)
(-0.000943105 -0.000812919 0.000400561)
(-0.000969185 -0.000821233 0.000399386)
(-0.000992415 -0.000833575 0.000394004)
(-0.00101418 -0.000849101 0.000385452)
(-0.00103568 -0.000867117 0.000374607)
(-0.00105779 -0.000887126 0.000362108)
(-0.00108111 -0.000908818 0.000348351)
(-0.00110596 -0.000932001 0.000333523)
(-0.00113242 -0.000956538 0.000317643)
(-0.00116043 -0.000982301 0.000300615)
(-0.00118983 -0.00100912 0.00028225)
(-0.00122034 -0.00103676 0.000262297)
(-0.00125161 -0.00106488 0.000240408)
(-0.0012832 -0.00109306 0.000216128)
(-0.0013145 -0.00112065 0.000188775)
(-0.00134467 -0.00114679 0.000157326)
(-0.00137207 -0.00117005 0.000120358)
(-0.00139408 -0.00118883 7.59466e-05)
(-0.0014064 -0.0011998 2.56713e-05)
(-0.000277698 -0.000315943 -0.000146417)
(-0.000338116 -0.000412703 -4.49689e-05)
(-0.000376161 -0.000500518 -1.04024e-05)
(-0.000424936 -0.000586105 3.66083e-05)
(-0.000483685 -0.000662217 9.27148e-05)
(-0.000549514 -0.000723606 0.000150278)
(-0.000618903 -0.000767191 0.0002047)
(-0.000687865 -0.000793576 0.000253199)
(-0.000753699 -0.000806133 0.000294185)
(-0.000815188 -0.00081031 0.000327732)
(-0.000871349 -0.000811022 0.000354638)
(-0.000920245 -0.000809876 0.000374672)
(-0.000959794 -0.000807436 0.00038651)
(-0.000991514 -0.000809694 0.000391184)
(-0.0010191 -0.000817178 0.000390287)
(-0.00104378 -0.000829022 0.000385149)
(-0.00106698 -0.000844279 0.000376811)
(-0.00108992 -0.000862154 0.000366185)
(-0.00111348 -0.000882089 0.000353925)
(-0.0011383 -0.000903724 0.000340459)
(-0.00116468 -0.000926843 0.000325974)
(-0.00119272 -0.000951294 0.000310491)
(-0.00122235 -0.000976934 0.000293915)
(-0.00125336 -0.00100358 0.00027605)
(-0.0012855 -0.00103102 0.000256642)
(-0.00131838 -0.0010589 0.000235335)
(-0.00135156 -0.00108681 0.000211677)
(-0.00138436 -0.0011141 0.000184983)
(-0.00141594 -0.00113994 0.000154247)
(-0.00144458 -0.0011629 0.000118056)
(-0.00146757 -0.00118142 7.45123e-05)
(-0.00148043 -0.00119222 2.51907e-05)
(-0.000293498 -0.000296043 -0.000125822)
(-0.000356282 -0.000389369 -4.8027e-05)
(-0.000396185 -0.000474538 -1.69719e-05)
(-0.000446035 -0.000558667 2.64033e-05)
(-0.000505701 -0.000634848 7.94991e-05)
(-0.000572679 -0.000697609 0.000134922)
(-0.000643578 -0.00074367 0.000188082)
(-0.000714718 -0.000773589 0.000236229)
(-0.000783577 -0.000790568 0.000277894)
(-0.000848656 -0.000799148 0.000312938)
(-0.000908359 -0.000802872 0.000341401)
(-0.00096052 -0.000803225 0.000362544)
(-0.00100378 -0.000801533 0.000375676)
(-0.00103758 -0.000802106 0.000380893)
(-0.00106677 -0.000808673 0.000380374)
(-0.00109304 -0.000819882 0.00037554)
(-0.00111776 -0.000834729 0.000367476)
(-0.00114219 -0.000852345 0.000357124)
(-0.00116727 -0.000872097 0.000345174)
(-0.00119361 -0.000893565 0.000332054)
(-0.00122153 -0.000916497 0.000317963)
(-0.00125113 -0.000940723 0.000302928)
(-0.00128233 -0.000966098 0.000286849)
(-0.00131492 -0.000992442 0.000269528)
(-0.00134862 -0.00101952 0.000250706)
(-0.00138302 -0.001047 0.00023002)
(-0.00141769 -0.00107447 0.000207018)
(-0.0014519 -0.0011013 0.000181014)
(-0.00148482 -0.00112669 0.000151027)
(-0.00151458 -0.0011492 0.000115647)
(-0.00153851 -0.00116737 7.30161e-05)
(-0.00155182 -0.00117793 2.46913e-05)
(-0.000306371 -0.00027269 -0.000103032)
(-0.000371127 -0.00036206 -5.08264e-05)
(-0.000412411 -0.000443959 -2.34605e-05)
(-0.000462783 -0.000526042 1.60957e-05)
(-0.00052298 -0.000601835 6.58899e-05)
(-0.000590979 -0.000665835 0.000118864)
(-0.000663561 -0.000714587 0.000170562)
(-0.000737187 -0.000748374 0.000218299)
(-0.000809246 -0.000769855 0.000260617)
(-0.000877808 -0.000782554 0.000297014)
(-0.000940915 -0.000789083 0.000326913)
(-0.000996442 -0.000791006 0.000349221)
(-0.00104306 -0.000790258 0.000363412)
(-0.00108034 -0.000790001 0.0003696)
(-0.00111135 -0.000795283 0.000369625)
(-0.00113933 -0.0008056 0.00036518)
(-0.00116567 -0.000819882 0.000357484)
(-0.00119167 -0.000837091 0.000347489)
(-0.00121826 -0.000856499 0.00033591)
(-0.00124611 -0.000877649 0.000323195)
(-0.00127556 -0.000900247 0.000309555)
(-0.00130667 -0.000924108 0.000295021)
(-0.00133939 -0.000949062 0.000279489)
(-0.00137347 -0.000974925 0.000262756)
(-0.00140863 -0.00100147 0.00024456)
(-0.00144445 -0.00102838 0.000224527)
(-0.00148049 -0.00105526 0.000202213)
(-0.00151599 -0.00108146 0.000176926)
(-0.00155011 -0.00110623 0.000147712)
(-0.00158091 -0.00112816 0.00011317)
(-0.00160566 -0.00114585 7.14787e-05)
(-0.00161938 -0.00115611 2.41814e-05)
(-0.000316242 -0.000247213 -7.96815e-05)
(-0.000382464 -0.000332082 -5.32261e-05)
(-0.000424565 -0.000410152 -2.96638e-05)
(-0.000474864 -0.000489619 5.90596e-06)
(-0.000535148 -0.000564552 5.20996e-05)
(-0.000603953 -0.000629556 0.000102283)
(-0.000678207 -0.000680971 0.000152248)
(-0.000754386 -0.000718586 0.000199408)
(-0.000829645 -0.000744314 0.000242211)
(-0.000901646 -0.000760742 0.000279758)
(-0.000968187 -0.000769871 0.000310968)
(-0.00102722 -0.00077341 0.000334485)
(-0.00107744 -0.000773697 0.000349713)
(-0.00111879 -0.000773683 0.000357125)
(-0.0011524 -0.000777219 0.00035791)
(-0.00118226 -0.000786578 0.000354042)
(-0.00121036 -0.0008 0.000346803)
(-0.00123799 -0.000816577 0.000337258)
(-0.00126617 -0.000835496 0.000326138)
(-0.00129556 -0.000856176 0.000313903)
(-0.00132649 -0.000878285 0.00030078)
(-0.00135907 -0.000901616 0.000286802)
(-0.00139321 -0.000925983 0.000271867)
(-0.00142868 -0.000951203 0.000255766)
(-0.00146519 -0.000977053 0.000238232)
(-0.00150229 -0.00100321 0.000218885)
(-0.00153954 -0.0010293 0.000197282)
(-0.00157618 -0.0010547 0.000172733)
(-0.00161138 -0.00107871 0.000144315)
(-0.00164307 -0.00109991 0.000110632)
(-0.00166855 -0.00111702 6.99094e-05)
(-0.00168258 -0.00112691 2.36638e-05)
(-0.000321935 -0.000219895 -5.66853e-05)
(-0.000389123 -0.00029982 -5.50664e-05)
(-0.000431486 -0.000373533 -3.53883e-05)
(-0.000481092 -0.000449812 -4.0021e-06)
(-0.000540948 -0.000523379 3.82374e-05)
(-0.000610296 -0.000589112 8.52245e-05)
(-0.000686222 -0.000643143 0.000133116)
(-0.000765091 -0.000684581 0.000179462)
(-0.000843698 -0.000714392 0.000222554)
(-0.000919276 -0.000734283 0.000261047)
(-0.000989427 -0.000745897 0.000293447)
(-0.00105213 -0.000751076 0.000318208)
(-0.00110614 -0.000752407 0.000334603)
(-0.00115143 -0.000752992 0.000343167)
(-0.00118919 -0.000755869 0.000345189)
(-0.00122115 -0.000763213 0.000342008)
(-0.00125116 -0.000775684 0.000335398)
(-0.00128059 -0.000791456 0.000326416)
(-0.00131038 -0.000809652 0.000315844)
(-0.0013413 -0.000829677 0.000304168)
(-0.0013737 -0.000851144 0.000291634)
(-0.00140769 -0.000873792 0.000278277)
(-0.00144318 -0.00089743 0.000263995)
(-0.00147993 -0.000921867 0.000248573)
(-0.00151764 -0.000946877 0.000231743)
(-0.00155588 -0.000972149 0.000213115)
(-0.00159421 -0.000997326 0.000192252)
(-0.00163184 -0.00102181 0.00016846)
(-0.00166793 -0.00104489 0.000140853)
(-0.00170039 -0.00106525 0.000108049)
(-0.00172647 -0.00108167 6.83153e-05)
(-0.00174074 -0.00109114 2.31423e-05)
(-0.000323612 -0.000191876 -3.49915e-05)
(-0.000391115 -0.000266417 -5.63455e-05)
(-0.000433123 -0.000335333 -4.05343e-05)
(-0.000481373 -0.000407889 -1.34476e-05)
(-0.000540187 -0.000479518 2.45228e-05)
(-0.000609618 -0.00054552 6.78867e-05)
(-0.000686911 -0.000601796 0.000113287)
(-0.000768224 -0.000646654 0.00015843)
(-0.000850021 -0.000680135 0.000201447)
(-0.000929211 -0.000703205 0.000240606)
(-0.00100315 -0.000717211 0.00027405)
(-0.0010698 -0.000724109 0.000300077)
(-0.00112793 -0.000726639 0.000317835)
(-0.00117737 -0.000727895 0.000327702)
(-0.00121916 -0.000730759 0.000330962)
(-0.00125507 -0.000736979 0.000329006)
(-0.00128719 -0.000747594 0.000323175)
(-0.00131854 -0.000762066 0.000314882)
(-0.00135008 -0.000779398 0.000305002)
(-0.00138258 -0.000798623 0.00029399)
(-0.00141642 -0.000819289 0.000282127)
(-0.00145174 -0.000841106 0.000269461)
(-0.00148846 -0.000863863 0.000255891)
(-0.00152634 -0.000887362 0.000241196)
(-0.00156509 -0.000911378 0.000225108)
(-0.00160426 -0.000935611 0.000207226)
(-0.00164344 -0.000959717 0.000187122)
(-0.00168181 -0.000983153 0.000164104)
(-0.00171866 -0.00100527 0.000137332)
(-0.00175167 -0.00102468 0.00010542)
(-0.00177827 -0.00104036 6.6701e-05)
(-0.00179262 -0.00104943 2.26191e-05)
(-0.000319827 -0.000163094 -1.50791e-05)
(-0.000387098 -0.000231955 -5.68774e-05)
(-0.000428149 -0.000295613 -4.49094e-05)
(-0.000474319 -0.000363862 -2.22416e-05)
(-0.000531344 -0.000432879 1.11317e-05)
(-0.000600283 -0.000498562 5.03891e-05)
(-0.000678665 -0.000556732 9.2785e-05)
(-0.000762459 -0.000604848 0.000136277)
(-0.000847663 -0.00064192 0.00017885)
(-0.000930724 -0.000668104 0.000218398)
(-0.00100879 -0.000684511 0.000252749)
(-0.00107969 -0.000693165 0.00028003)
(-0.0011421 -0.000696883 0.00029925)
(-0.00119586 -0.000698828 0.000310626)
(-0.00124172 -0.000701723 0.000315259)
(-0.00128142 -0.000707382 0.000314577)
(-0.00131703 -0.0007167 0.000309925)
(-0.00135106 -0.00072986 0.000302684)
(-0.00138436 -0.00074582 0.000293622)
(-0.00141843 -0.00076392 0.000283376)
(-0.00145369 -0.000783595 0.000272281)
(-0.00149026 -0.000804464 0.000260387)
(-0.00152808 -0.000826267 0.000247599)
(-0.00156693 -0.000848784 0.000233688)
(-0.00160653 -0.000871799 0.000218387)
(-0.00164642 -0.000894995 0.000201286)
(-0.00168626 -0.000918054 0.000181968)
(-0.00172513 -0.0009404 0.00015973)
(-0.00176237 -0.000961387 0.000133782)
(-0.00179577 -0.00097979 0.000102773)
(-0.00182263 -0.000994637 6.50797e-05)
(-0.00183684 -0.00100324 2.20992e-05)
(-0.000311482 -0.000135017 2.40221e-06)
(-0.000377569 -0.000197516 -5.69397e-05)
(-0.000417076 -0.000255918 -4.84828e-05)
(-0.000460535 -0.000319339 -3.01927e-05)
(-0.000514971 -0.000385066 -1.62448e-06)
(-0.000582641 -0.000449695 3.3095e-05)
(-0.00066145 -0.000509056 7.19141e-05)
(-0.000747148 -0.000559782 0.000113139)
(-0.000835346 -0.000599924 0.000154692)
(-0.000922236 -0.000629012 0.000194211)
(-0.00100461 -0.000647788 0.000229244)
(-0.00108008 -0.000658238 0.000257726)
(-0.00114726 -0.000663282 0.000278529)
(-0.00120565 -0.000665968 0.000291623)
(-0.00125595 -0.000669006 0.000297905)
(-0.00129958 -0.000674218 0.000298692)
(-0.00133871 -0.000682663 0.000295403)
(-0.00137553 -0.000694645 0.000289372)
(-0.00141121 -0.000709293 0.000281386)
(-0.00144716 -0.000726202 0.000272126)
(-0.00148384 -0.000744729 0.000261942)
(-0.00152152 -0.000764468 0.000250915)
(-0.00156018 -0.000785133 0.000238971)
(-0.00159964 -0.000806487 0.000225884)
(-0.00163964 -0.000828298 0.000211394)
(-0.00167976 -0.000850273 0.000195088)
(-0.00171972 -0.000872075 0.000176559)
(-0.00175864 -0.000893124 0.000155109)
(-0.0017961 -0.000912904 0.000130033)
(-0.00182955 -0.000930161 9.99686e-05)
(-0.00185656 -0.000944135 6.3368e-05)
(-0.00187043 -0.00095213 2.15532e-05)
(-0.000295135 -0.000106868 1.70668e-05)
(-0.00036184 -0.000163559 -5.61385e-05)
(-0.000398417 -0.000216146 -5.11399e-05)
(-0.000438242 -0.000274091 -3.70408e-05)
(-0.000489052 -0.000335659 -1.34339e-05)
(-0.000554435 -0.000398277 1.62704e-05)
(-0.000633029 -0.000458141 5.08325e-05)
(-0.000720567 -0.000511253 8.90987e-05)
(-0.000812137 -0.000554591 0.000129068)
(-0.000903222 -0.000586717 0.000168139)
(-0.000990321 -0.000608018 0.000203623)
(-0.00107082 -0.000620387 0.000233254)
(-0.00114296 -0.000626648 0.000255654)
(-0.00120628 -0.000630006 0.000270601)
(-0.00126112 -0.000633095 0.00027873)
(-0.00130892 -0.000637853 0.000281244)
(-0.00135161 -0.000645426 0.000279513)
(-0.00139138 -0.000656262 0.000274868)
(-0.0014294 -0.000669615 0.000268121)
(-0.00146712 -0.000685217 0.000259995)
(-0.00150519 -0.000702457 0.000250858)
(-0.00154388 -0.000720904 0.000240813)
(-0.00158322 -0.000740255 0.000229808)
(-0.00162307 -0.00076026 0.000217617)
(-0.00166326 -0.000780697 0.000204002)
(-0.00170335 -0.000801264 0.000188537)
(-0.0017432 -0.000821669 0.000170841)
(-0.001782 -0.000841339 0.000150227)
(-0.00181928 -0.000859744 0.000126058)
(-0.00185263 -0.000875836 9.69987e-05)
(-0.00187949 -0.000888812 6.15546e-05)
(-0.00189298 -0.000896209 2.09803e-05)
(-0.000272692 -8.00658e-05 2.88836e-05)
(-0.000340545 -0.000131562 -5.45983e-05)
(-0.000373916 -0.000178059 -5.29055e-05)
(-0.00040927 -0.000230239 -4.26481e-05)
(-0.000455496 -0.000286947 -2.39134e-05)
(-0.000517499 -0.000346588 4.77765e-07)
(-0.000594781 -0.000405943 3.01361e-05)
(-0.000683039 -0.000460475 6.46016e-05)
(-0.000776992 -0.000506247 0.000102138)
(-0.00087197 -0.000541195 0.000140119)
(-0.000963876 -0.000565059 0.000175655)
(-0.00104961 -0.000579407 0.000206247)
(-0.00112736 -0.000587088 0.000230308)
(-0.00119604 -0.000591123 0.000247256)
(-0.00125601 -0.000594315 0.000257503)
(-0.00130835 -0.000598617 0.000262023)
(-0.00135499 -0.000605344 0.000262135)
(-0.00139783 -0.000614949 0.000259093)
(-0.00143835 -0.000626963 0.000253796)
(-0.00147797 -0.000641184 0.000246981)
(-0.00151737 -0.000657 0.000239032)
(-0.00155695 -0.000674011 0.000230093)
(-0.00159679 -0.000691905 0.000220127)
(-0.00163681 -0.000710428 0.000208915)
(-0.00167686 -0.000729338 0.000196232)
(-0.0017166 -0.000748367 0.000181658)
(-0.00175595 -0.000767218 0.000164827)
(-0.00179414 -0.000785338 0.000145072)
(-0.00183111 -0.000802362 0.000121866)
(-0.00186392 -0.000817158 9.38563e-05)
(-0.00189054 -0.000829148 5.96456e-05)
(-0.00190335 -0.000835847 2.03819e-05)
(-0.000242826 -5.50952e-05 3.75906e-05)
(-0.000311082 -0.000101065 -5.1986e-05)
(-0.000341292 -0.000141373 -5.3368e-05)
(-0.000371361 -0.000187288 -4.65723e-05)
(-0.000411648 -0.000238093 -3.25433e-05)
(-0.000468662 -0.00029337 -1.37095e-05)
(-0.000543328 -0.000351024 1.03162e-05)
(-0.000632028 -0.000406607 4.00341e-05)
(-0.000729017 -0.000455207 7.42956e-05)
(-0.000828323 -0.000493307 0.000110512)
(-0.00092547 -0.000520057 0.000145661)
(-0.00101707 -0.000536713 0.000177026)
(-0.00110054 -0.000545759 0.000202651)
(-0.00117499 -0.000550451 0.0002217)
(-0.00124018 -0.000553531 0.000234208)
(-0.00129729 -0.000557227 0.000240977)
(-0.00134795 -0.000562916 0.000243166)
(-0.00139416 -0.000571225 0.000242005)
(-0.00143722 -0.000581761 0.000238372)
(-0.00147868 -0.000594425 0.000233039)
(-0.00151937 -0.000608687 0.00022644)
(-0.00155971 -0.000624134 0.000218742)
(-0.00159985 -0.000640447 0.000209927)
(-0.00163974 -0.000657368 0.000199774)
(-0.00167941 -0.000674679 0.000188098)
(-0.00171844 -0.000692083 0.000174464)
(-0.00175702 -0.000709341 0.000158546)
(-0.00179447 -0.00072593 0.000139696)
(-0.0018306 -0.000741431 0.000117475)
(-0.00186276 -0.000754964 9.057e-05)
(-0.00188875 -0.000765862 5.76513e-05)
(-0.00190085 -0.000771931 1.97669e-05)
(-0.000208255 -3.35479e-05 4.31532e-05)
(-0.000275605 -7.35317e-05 -4.85576e-05)
(-0.000303311 -0.000108097 -5.27835e-05)
(-0.000328253 -0.000147886 -4.89301e-05)
(-0.000362018 -0.000192384 -3.9094e-05)
(-0.000412838 -0.000242328 -2.56519e-05)
(-0.000483328 -0.000296955 -7.70075e-06)
(-0.000570327 -0.000352012 1.63198e-05)
(-0.000667967 -0.000401964 4.6145e-05)
(-0.000770687 -0.000442837 7.96152e-05)
(-0.000872893 -0.000472589 0.000113667)
(-0.000970219 -0.000491659 0.000145338)
(-0.00106017 -0.00050251 0.000172436)
(-0.00114077 -0.000507971 0.000193625)
(-0.001212 -0.000511118 0.000208649)
(-0.00127441 -0.0005142 0.000217954)
(-0.00132966 -0.000518846 0.000222554)
(-0.00137936 -0.000525689 0.000223534)
(-0.00142524 -0.000534669 0.000221833)
(-0.00146874 -0.00054571 0.000218223)
(-0.00151069 -0.0005583 0.000213153)
(-0.00155166 -0.000572078 0.00020684)
(-0.00159189 -0.000586724 0.000199291)
(-0.00163139 -0.000601981 0.000190286)
(-0.00167025 -0.000617586 0.000179666)
(-0.00170818 -0.000633314 0.000167014)
(-0.00174548 -0.000648883 0.000152021)
(-0.00178152 -0.000663813 0.000134077)
(-0.00181675 -0.000677866 0.000112895)
(-0.00184772 -0.000690042 8.71273e-05)
(-0.00187304 -0.000699907 5.55781e-05)
(-0.001884 -0.000705272 1.91352e-05)
(-0.000167577 -1.55956e-05 4.51602e-05)
(-0.000231874 -4.88325e-05 -4.38075e-05)
(-0.000257115 -7.75721e-05 -5.05719e-05)
(-0.000276658 -0.000110854 -4.91234e-05)
(-0.000302674 -0.000148061 -4.27946e-05)
(-0.000345021 -0.000190899 -3.4325e-05)
(-0.000408855 -0.000240522 -2.27352e-05)
(-0.000493485 -0.000294333 -5.41704e-06)
(-0.0005932 -0.000346457 1.87385e-05)
(-0.000699709 -0.000390565 4.83221e-05)
(-0.000807183 -0.00042377 8.04406e-05)
(-0.000911088 -0.000445972 0.00011195)
(-0.00100737 -0.000458718 0.000140169)
(-0.00109463 -0.000465205 0.000163463)
(-0.00117176 -0.000468265 0.00018103)
(-0.00123959 -0.000470605 0.000193057)
(-0.00129933 -0.00047395 0.000200276)
(-0.0013529 -0.000479255 0.000203702)
(-0.00140159 -0.000486507 0.000204175)
(-0.00144696 -0.000495725 0.00020248)
(-0.00149011 -0.000506535 0.000199131)
(-0.00153156 -0.000518557 0.000194359)
(-0.00157161 -0.000531466 0.000188196)
(-0.00161034 -0.000545 0.000180415)
(-0.00164815 -0.000558935 0.000170929)
(-0.00168458 -0.000572983 0.0001593)
(-0.00172034 -0.000586934 0.000145272)
(-0.00175493 -0.000600338 0.000128274)
(-0.00178858 -0.00061283 0.000108132)
(-0.00181827 -0.000623757 8.35548e-05)
(-0.00184246 -0.000632524 5.34331e-05)
(-0.00185234 -0.000637331 1.84968e-05)
(-0.000124492 -2.39517e-06 4.39131e-05)
(-0.000183679 -2.86101e-05 -3.80839e-05)
(-0.00020775 -5.19464e-05 -4.71605e-05)
(-0.00022377 -7.94178e-05 -4.7787e-05)
(-0.000243036 -0.000109811 -4.41269e-05)
(-0.000276818 -0.000145362 -3.96356e-05)
(-0.000332676 -0.000188876 -3.40183e-05)
(-0.000410622 -0.000238705 -2.399e-05)
(-0.000506205 -0.000289399 -6.71154e-06)
(-0.000614326 -0.000335839 1.76578e-05)
(-0.000726466 -0.000372694 4.66317e-05)
(-0.0008359 -0.000398115 7.70202e-05)
(-0.000939323 -0.000413632 0.000105917)
(-0.00103323 -0.000421474 0.000131037)
(-0.00111725 -0.000425018 0.000151244)
(-0.00119112 -0.000426848 0.000166194)
(-0.0012562 -0.000429086 0.000176353)
(-0.00131369 -0.000432734 0.000182468)
(-0.00136548 -0.000438215 0.000185398)
(-0.00141308 -0.000445628 0.000185898)
(-0.00145738 -0.000454586 0.000184467)
(-0.00149915 -0.000464796 0.000181394)
(-0.00153878 -0.000475954 0.000176742)
(-0.00157647 -0.000487801 0.000170271)
(-0.00161266 -0.000500023 0.000161951)
(-0.00164711 -0.000512434 0.000151376)
(-0.0016807 -0.00052475 0.000138305)
(-0.00171298 -0.00053653 0.000122229)
(-0.00174509 -0.000547652 0.000103184)
(-0.00177285 -0.000557266 7.98233e-05)
(-0.0017959 -0.000565057 5.12142e-05)
(-0.0018041 -0.000569257 1.78471e-05)
(-7.86634e-05 6.45313e-06 3.99216e-05)
(-0.000130078 -1.22194e-05 -3.0609e-05)
(-0.00015136 -2.93297e-05 -4.16525e-05)
(-0.000163145 -5.02394e-05 -4.35313e-05)
(-0.000175339 -7.26795e-05 -4.15138e-05)
(-0.000197772 -9.87225e-05 -3.98573e-05)
(-0.0002398 -0.000132457 -3.87938e-05)
(-0.000310414 -0.000177602 -3.59767e-05)
(-0.000407832 -0.000230393 -2.75415e-05)
(-0.000517122 -0.000279202 -1.05595e-05)
(-0.000632955 -0.000320064 1.38273e-05)
(-0.000749186 -0.000350067 4.20828e-05)
(-0.000858872 -0.000368641 7.07939e-05)
(-0.000960071 -0.000378633 9.73578e-05)
(-0.00105024 -0.000382712 0.000119907)
(-0.00112995 -0.000384128 0.000137742)
(-0.00119976 -0.000385115 0.000150891)
(-0.00126155 -0.000387203 0.000159951)
(-0.00131637 -0.000390832 0.000165556)
(-0.00136577 -0.000396258 0.000168418)
(-0.0014111 -0.000403322 0.000169096)
(-0.00145299 -0.000411719 0.000167884)
(-0.00149186 -0.000421131 0.000164864)
(-0.00152801 -0.000431302 0.000159767)
(-0.00156238 -0.000441946 0.000152689)
(-0.00159442 -0.00045282 0.000143201)
(-0.0016256 -0.000463665 0.000131117)
(-0.0016557 -0.00047408 0.000116003)
(-0.00168538 -0.000483748 9.8039e-05)
(-0.00171123 -0.000492238 7.59542e-05)
(-0.00173262 -0.00049903 4.89257e-05)
(-0.0017393 -0.000502847 1.71991e-05)
(-3.83993e-05 1.01993e-05 3.23929e-05)
(-7.7053e-05 -2.64402e-06 -2.23366e-05)
(-9.93226e-05 -1.44563e-05 -3.17663e-05)
(-0.000112771 -2.94275e-05 -3.82462e-05)
(-0.000124308 -4.88376e-05 -3.81932e-05)
(-0.000141262 -6.84147e-05 -3.52075e-05)
(-0.000181314 -9.30876e-05 -3.65389e-05)
(-0.000241181 -0.000127805 -4.35742e-05)
(-0.000301591 -0.000168366 -4.45677e-05)
(-0.000407763 -0.00021986 -3.38906e-05)
(-0.000526711 -0.000264641 -1.6089e-05)
(-0.000646139 -0.000298807 8.26717e-06)
(-0.000762788 -0.000321951 3.56336e-05)
(-0.000870194 -0.000334691 6.27025e-05)
(-0.000967718 -0.000340553 8.7231e-05)
(-0.00105385 -0.000342288 0.000107816)
(-0.00112957 -0.000342697 0.000124095)
(-0.00119544 -0.000343316 0.000136198)
(-0.00125351 -0.000345239 0.000144691)
(-0.00130525 -0.000348893 0.000150185)
(-0.00135153 -0.000354112 0.000153158)
(-0.0013933 -0.000360726 0.000153956)
(-0.00143113 -0.00036847 0.00015269)
(-0.00146545 -0.000377103 0.00014904)
(-0.0014973 -0.000386196 0.000143212)
(-0.00152635 -0.000395642 0.000134825)
(-0.00155436 -0.000405071 0.000123696)
(-0.00158116 -0.000414045 0.000109492)
(-0.00160868 -0.000422547 9.26773e-05)
(-0.00163183 -0.00042987 7.18939e-05)
(-0.00165156 -0.000435829 4.65532e-05)
(-0.00165591 -0.00043923 1.65413e-05)
(-1.47256e-05 7.8466e-06 1.97941e-05)
(-2.48719e-05 2.34881e-07 -8.80123e-06)
(-3.23205e-05 -1.74845e-06 -1.57051e-05)
(-4.0984e-05 -7.94377e-06 -2.82819e-05)
(-4.12759e-05 -2.30598e-05 -3.03524e-05)
(-4.52676e-05 -3.1606e-05 -2.63979e-05)
(-5.78681e-05 -4.74647e-05 -3.32698e-05)
(-0.000103516 -0.000103169 -2.71583e-05)
(-0.000205551 -0.00011968 -1.69826e-05)
(-0.000295933 -0.000154489 -4.87107e-05)
(-0.00040999 -0.0002067 -4.04817e-05)
(-0.000535485 -0.000247172 -2.1615e-05)
(-0.000656646 -0.000274954 2.49651e-06)
(-0.00077125 -0.000292076 2.89254e-05)
(-0.000874076 -0.00029995 5.4467e-05)
(-0.000965762 -0.000302471 7.72798e-05)
(-0.00104577 -0.000302367 9.63502e-05)
(-0.00111604 -0.000301996 0.000111536)
(-0.00117705 -0.000302382 0.000122993)
(-0.0012302 -0.00030421 0.000131168)
(-0.00127714 -0.00030767 0.00013657)
(-0.00131855 -0.000312627 0.000139516)
(-0.00135489 -0.000318808 0.000140106)
(-0.00138673 -0.000326 0.000137933)
(-0.00141595 -0.000333762 0.000133415)
(-0.00144161 -0.000341971 0.000126159)
(-0.00146629 -0.000350232 0.000116001)
(-0.00149021 -0.000358106 0.000102757)
(-0.00151445 -0.000365383 8.70624e-05)
(-0.00153508 -0.000371768 6.76556e-05)
(-0.00155267 -0.000376937 4.40984e-05)
(-0.00155503 -0.000380233 1.58908e-05)
(5.6609e-06 9.60573e-06 2.24268e-05)
(-8.38669e-07 3.94179e-06 -8.38831e-06)
(-6.00462e-06 2.35684e-06 -1.87532e-05)
(-1.53851e-05 -8.4068e-06 -2.49717e-05)
(-2.55532e-05 -2.07495e-05 -3.08987e-05)
(-3.44335e-05 -2.96121e-05 -3.39951e-05)
(-4.45203e-05 -3.93005e-05 -3.20123e-05)
(-4.58624e-05 -4.62222e-05 -2.578e-05)
(-7.70005e-05 -5.7013e-05 -2.03109e-05)
(-0.000196513 -9.96459e-05 -4.05594e-05)
(-0.000291961 -0.000142231 -5.33266e-05)
(-0.000410345 -0.000189644 -4.50445e-05)
(-0.000536769 -0.000224629 -2.65026e-05)
(-0.000654827 -0.00024642 -2.6876e-06)
(-0.000764943 -0.000258732 2.2563e-05)
(-0.000862615 -0.000263425 4.66969e-05)
(-0.000948664 -0.000264272 6.82288e-05)
(-0.00102251 -0.000263354 8.62208e-05)
(-0.00108643 -0.000262679 0.000100626)
(-0.00114182 -0.000263245 0.000111642)
(-0.00118931 -0.000265212 0.000119573)
(-0.00122994 -0.000268683 0.000124753)
(-0.00126445 -0.000273493 0.00012729)
(-0.00129355 -0.000279496 0.000126627)
(-0.00131931 -0.000286001 0.000123383)
(-0.00134089 -0.000293114 0.000117246)
(-0.00136139 -0.000300297 0.000107998)
(-0.00138106 -0.000306968 9.56315e-05)
(-0.00140258 -0.000313382 8.11482e-05)
(-0.00141982 -0.000318759 6.31537e-05)
(-0.00143522 -0.000323325 4.15271e-05)
(-0.00143452 -0.000326477 1.52258e-05)
(1.73916e-05 1.03361e-05 2.72381e-05)
(2.18717e-05 7.04756e-06 -7.25111e-06)
(1.9167e-05 4.2201e-06 -1.10411e-05)
(1.33e-05 -1.59674e-06 -6.78898e-06)
(6.59332e-08 7.36512e-07 -7.72685e-06)
(-6.52981e-06 -2.39065e-06 -1.24794e-05)
(-1.39782e-05 -4.03689e-06 -1.19812e-05)
(-3.15473e-05 -1.51191e-06 -2.73582e-05)
(-2.63112e-05 -1.79831e-05 -3.15647e-05)
(-6.09047e-05 -5.66654e-05 -2.4948e-05)
(-0.000182746 -8.8245e-05 -2.97672e-05)
(-0.000292468 -0.000129695 -5.92859e-05)
(-0.000412507 -0.00017343 -4.91473e-05)
(-0.000537619 -0.000202938 -2.9711e-05)
(-0.000649039 -0.000218716 -6.79516e-06)
(-0.000750869 -0.00022633 1.75075e-05)
(-0.000839364 -0.000228255 4.05448e-05)
(-0.000917089 -0.000227824 6.09397e-05)
(-0.000983326 -0.000226643 7.80428e-05)
(-0.00103904 -0.000226079 9.16702e-05)
(-0.00108641 -0.00022684 0.000102087)
(-0.00112598 -0.000229152 0.000109548)
(-0.00115812 -0.000232804 0.000114067)
(-0.00118363 -0.000237787 0.000114861)
(-0.00120597 -0.000243302 0.000112914)
(-0.00122326 -0.000249558 0.000107926)
(-0.00123963 -0.000255948 9.95924e-05)
(-0.00125594 -0.000261768 8.81795e-05)
(-0.0012734 -0.000267255 7.48683e-05)
(-0.00128771 -0.000271811 5.83926e-05)
(-0.00130063 -0.0002759 3.88461e-05)
(-0.00129751 -0.000279275 1.45719e-05)
(3.1703e-05 1.38954e-05 3.9296e-05)
(4.17021e-05 1.16612e-05 -8.01911e-06)
(4.35168e-05 6.5749e-06 -1.34779e-05)
(4.10183e-05 -1.10394e-06 -1.48344e-05)
(3.17591e-05 -9.84731e-06 -1.35397e-05)
(2.1776e-05 -1.24496e-05 -1.08306e-05)
(7.2945e-06 -9.78116e-06 -1.0278e-05)
(-4.56704e-06 -6.14645e-06 -1.50842e-05)
(-2.37216e-05 -1.35747e-05 -3.25397e-05)
(-4.06682e-05 -3.35245e-05 -4.74642e-05)
(-5.08266e-05 -5.16677e-05 -2.92931e-05)
(-0.000163686 -8.37752e-05 -3.58736e-05)
(-0.000285637 -0.000115485 -5.71639e-05)
(-0.000398388 -0.000151732 -4.94748e-05)
(-0.00051946 -0.000176433 -3.06185e-05)
(-0.000625953 -0.000188406 -8.82476e-06)
(-0.000719989 -0.000193901 1.44796e-05)
(-0.000799433 -0.000194608 3.63042e-05)
(-0.0008673 -0.00019375 5.56289e-05)
(-0.000924776 -0.000193146 7.1753e-05)
(-0.000971971 -0.000193261 8.45415e-05)
(-0.00100976 -0.000194741 9.42084e-05)
(-0.00103912 -0.00019752 0.00010071)
(-0.00106086 -0.000201826 0.000102909)
(-0.00107896 -0.000206421 0.000102138)
(-0.00109115 -0.000211888 9.82501e-05)
(-0.00110244 -0.000217551 9.07278e-05)
(-0.00111379 -0.000222226 8.01607e-05)
(-0.00112816 -0.000227234 6.81483e-05)
(-0.00113863 -0.000230692 5.3247e-05)
(-0.00114887 -0.000234545 3.59864e-05)
(-0.00114193 -0.000237986 1.38868e-05)
(4.38876e-05 1.62082e-05 4.70848e-05)
(5.97678e-05 1.42346e-05 -7.95988e-06)
(6.57178e-05 1.02644e-05 -1.58315e-05)
(6.73618e-05 2.48731e-06 -1.98925e-05)
(6.50507e-05 -6.352e-06 -2.12334e-05)
(5.88644e-05 -1.42965e-05 -2.04721e-05)
(4.84091e-05 -2.08978e-05 -1.82046e-05)
(3.44626e-05 -2.08003e-05 -1.48802e-05)
(1.87989e-05 -1.85449e-05 -1.01048e-05)
(-2.30921e-05 -2.57049e-06 -3.1728e-05)
(-2.46569e-05 -2.94035e-05 -4.23851e-05)
(-5.48167e-05 -4.01602e-05 -2.27972e-05)
(-0.000163272 -6.84598e-05 -4.05513e-05)
(-0.000294661 -0.000101314 -5.57332e-05)
(-0.000394132 -0.00013268 -5.1195e-05)
(-0.00049998 -0.000151969 -3.12665e-05)
(-0.000592041 -0.000160163 -8.65023e-06)
(-0.000674224 -0.000163652 1.35299e-05)
(-0.000743053 -0.000163995 3.42419e-05)
(-0.000798453 -0.000163493 5.21154e-05)
(-0.000844121 -0.000163398 6.68747e-05)
(-0.000879876 -0.00016462 7.85828e-05)
(-0.000905814 -0.000166766 8.69505e-05)
(-0.000922744 -0.000170552 9.03433e-05)
(-0.000936925 -0.000174456 9.06868e-05)
(-0.00094428 -0.000179336 8.79414e-05)
(-0.000950993 -0.00018455 8.12362e-05)
(-0.000958969 -0.000188229 7.16444e-05)
(-0.000968909 -0.00019279 6.09021e-05)
(-0.000976616 -0.000195223 4.77282e-05)
(-0.00098424 -0.000199042 3.29765e-05)
(-0.000974566 -0.000202777 1.32143e-05)
(5.10528e-05 1.52811e-05 4.81139e-05)
(7.16361e-05 1.33726e-05 -6.94861e-06)
(8.12625e-05 9.78461e-06 -1.57481e-05)