/*--------------------------------*- C++ -*----------------------------------*\
  =========                 |
  \\      /  F ield         | OpenFOAM: The Open Source CFD Toolbox
   \\    /   O peration     | Website:  https://openfoam.org
    \\  /    A nd           | Version:  6
     \\/     M anipulation  |
\*---------------------------------------------------------------------------*/
FoamFile
{
    version     2.0;
    format      ascii;
    class       volScalarField;
    location    "1.4";
    object      omega;
}
// * * * * * * * * * * * * * * * * * * * * * * * * * * * * * * * * * * * * * //

dimensions      [0 0 -1 0 0 0 0];

internalField   nonuniform List<scalar> 
380496
(
843.917
843.917
843.917
843.917
843.917
843.917
843.917
843.917
843.917
843.917
843.917
843.917
843.917
843.917
843.917
843.917
843.917
843.917
843.917
843.917
843.917
843.917
843.917
843.917
843.917
843.917
843.917
843.917
843.917
843.917
843.917
843.917
843.917
843.917
843.917
843.917
843.917
843.917
843.917
843.917
843.917
843.917
843.917
843.917
843.917
843.917
843.917
843.917
843.917
843.917
843.917
843.917
843.917
843.917
843.917
843.917
843.917
843.917
843.917
843.917
843.917
843.917
843.917
843.917
843.917
843.917
843.917
843.917
843.917
843.917
843.917
843.917
843.917
843.917
843.917
843.917
843.917
843.917
843.917
843.917
843.917
843.917
843.917
843.917
843.917
843.917
843.917
843.917
843.917
843.917
843.917
843.917
843.917
843.917
843.917
843.917
843.917
843.917
843.917
843.917
843.917
843.917
843.917
843.917
843.917
843.917
843.917
843.917
843.917
843.917
843.917
843.917
843.917
843.917
843.917
843.917
843.917
843.917
843.917
843.917
843.917
843.917
843.917
843.917
843.917
843.917
843.917
843.917
843.917
843.917
843.917
843.917
843.917
843.917
843.917
843.917
843.917
843.917
843.917
843.917
843.917
843.917
843.917
843.917
843.917
843.917
843.917
843.917
843.917
843.917
843.917
843.917
843.917
843.917
843.917
843.917
843.917
843.917
843.917
843.917
843.917
843.917
843.917
843.917
843.917
843.917
843.917
843.917
843.917
843.917
843.917
843.917
843.917
843.917
843.917
843.917
843.917
843.917
843.917
843.917
843.917
843.917
843.917
843.917
843.917
843.917
843.917
843.917
843.917
843.917
843.917
843.917
843.917
843.917
843.917
843.917
843.917
843.917
843.917
843.917
843.917
843.917
843.917
843.917
843.917
843.917
843.917
843.917
843.917
843.917
843.917
843.917
843.917
843.917
843.917
843.917
843.917
843.917
843.917
843.917
843.917
843.917
843.917
843.917
843.917
843.917
843.917
843.917
843.917
843.917
843.917
843.917
843.917
843.917
843.917
843.917
843.917
843.917
843.917
843.917
843.917
843.917
843.917
843.917
843.917
843.917
843.917
843.917
843.917
843.917
843.917
843.917
843.917
843.917
843.917
843.917
843.917
843.917
843.917
843.917
843.917
843.917
843.917
843.917
843.917
843.917
843.917
843.917
843.917
843.917
843.917
843.917
843.917
843.917
843.917
843.917
843.917
843.917
843.917
843.917
843.917
843.917
843.917
843.917
843.917
843.917
843.917
843.917
843.917
843.917
843.917
843.917
843.917
843.917
843.917
843.917
843.917
843.917
843.917
843.917
843.917
843.917
843.917
843.917
843.917
843.917
843.917
843.917
843.917
843.917
843.917
843.917
843.917
843.917
843.917
843.917
843.917
843.917
843.917
843.917
843.917
843.917
843.917
843.917
843.917
843.917
843.917
843.917
843.917
843.917
843.917
843.917
843.917
843.917
843.917
843.917
843.917
843.917
843.917
843.917
843.917
843.917
843.917
843.917
843.917
843.917
843.917
843.917
843.917
843.917
843.917
843.917
843.917
843.917
843.917
843.917
843.917
843.917
843.917
843.917
843.917
843.917
843.917
843.917
843.917
843.917
843.917
843.917
843.917
843.917
843.917
843.917
843.917
843.917
843.917
843.917
843.917
843.917
843.917
843.917
843.917
843.917
843.917
843.917
843.917
843.917
843.917
843.917
843.917
843.917
843.917
843.917
843.917
843.917
843.917
843.917
843.917
843.917
843.917
843.917
843.917
843.917
843.917
843.917
843.917
843.917
843.917
843.917
843.917
843.917
843.917
843.917
843.917
843.917
843.917
843.917
843.917
843.917
843.917
843.917
843.917
843.917
843.917
843.917
843.917
843.917
843.917
843.917
843.917
843.917
843.917
843.917
843.917
843.917
843.917
843.917
843.917
843.917
843.917
843.917
843.917
843.917
843.917
843.917
843.917
843.917
843.917
843.917
843.917
843.917
843.917
843.917
843.917
843.917
843.917
843.917
843.917
843.917
843.917
843.917
843.917
843.917
843.917
843.917
843.917
843.917
843.917
843.917
843.917
843.917
843.917
843.917
843.917
843.917
843.917
843.917
843.917
843.917
843.917
843.917
843.917
843.917
843.917
843.917
843.917
843.917
843.917
843.917
843.917
843.917
843.917
843.917
843.917
843.917
843.917
843.917
843.917
843.917
843.917
843.917
843.917
843.917
843.917
843.917
843.917
843.917
843.917
843.917
843.917
843.917
843.917
843.917
843.917
843.917
843.917
843.917
843.917
843.917
843.917
843.917
843.917
843.917
843.917
843.917
843.917
843.917
843.917
843.917
843.917
843.917
843.917
843.917
843.917
843.917
843.917
843.917
843.917
843.917
843.917
843.917
843.917
843.917
843.917
843.917
843.917
843.917
843.917
843.917
843.917
843.917
843.917
843.917
843.917
843.917
843.917
843.917
843.917
843.917
843.917
843.917
843.917
843.917
843.917
843.917
843.917
843.917
843.917
843.917
843.917
843.917
843.917
843.917
843.917
843.917
843.917
843.917
843.917
843.917
843.917
843.917
843.917
843.917
843.917
843.917
843.917
843.917
843.917
843.917
843.917
843.917
843.917
843.917
843.917
843.917
843.917
843.917
843.917
843.917
843.917
843.917
843.917
843.917
843.917
843.917
843.917
843.917
843.917
843.917
843.917
843.917
843.917
843.917
843.917
843.917
843.917
843.917
843.917
843.917
843.917
843.917
843.917
843.917
843.917
843.917
843.917
843.917
843.917
843.917
843.917
843.917
843.917
843.917
843.917
843.917
843.917
843.917
843.917
843.917
843.917
843.917
843.917
843.917
843.917
843.917
843.917
843.917
843.917
843.917
843.917
843.917
843.917
843.917
843.917
843.917
843.917
843.917
843.917
843.917
843.917
843.917
843.917
843.917
843.917
843.917
843.917
843.917
843.917
843.917
843.917
843.917
843.917
843.917
843.917
843.917
843.917
843.917
843.917
843.917
843.917
843.917
843.917
843.917
843.917
843.917
843.917
843.917
843.917
843.917
843.917
843.917
843.917
843.917
843.917
843.917
843.917
843.917
843.917
843.917
843.917
843.917
423.923
423.923
423.923
423.923
423.923
423.923
423.923
423.923
423.923
423.923
423.923
423.923
423.923
423.923
423.923
423.923
423.923
423.923
423.923
423.923
423.923
423.923
423.923
423.923
423.923
423.923
423.923
423.923
423.923
423.923
423.923
423.923
423.923
423.923
423.923
281.586
267.558
268.922
270.216
270.399
270.203
270.022
269.799
269.654
269.591
269.538
269.549
269.643
269.751
269.81
269.82
269.802
269.782
269.771
269.776
269.79
269.817
269.843
269.874
269.904
269.935
269.971
270.006
270.052
270.1
270.151
270.212
270.254
270.334
270.353
281.426
267.544
268.809
269.982
270.062
269.833
269.663
269.528
269.459
269.442
269.434
269.461
269.539
269.628
269.689
269.715
269.715
269.706
269.695
269.696
269.701
269.726
269.747
269.796
269.811
269.89
269.888
269.985
269.982
270.086
270.087
270.204
270.182
270.354
270.217
281.096
267.372
268.664
269.876
270.019
269.787
269.51
269.202
268.983
268.879
268.845
268.883
268.98
269.08
269.148
269.182
269.202
269.226
269.261
269.311
269.361
269.419
269.465
269.522
269.559
269.636
269.665
269.769
269.802
269.927
269.97
270.108
270.133
270.327
270.247
280.529
267.006
268.342
269.437
269.463
269.173
268.938
268.692
268.568
268.55
268.557
268.624
268.763
268.906
269
269.044
269.061
269.071
269.086
269.116
269.153
269.205
269.26
269.32
269.38
269.45
269.509
269.595
269.657
269.753
269.831
269.929
269.994
270.128
270.127
280.11
266.762
267.945
268.92
268.884
268.612
268.426
268.306
268.278
268.322
268.392
268.488
268.612
268.736
268.832
268.895
268.932
268.955
268.971
268.996
269.028
269.08
269.145
269.215
269.3
269.38
269.464
269.559
269.633
269.749
269.817
269.956
269.99
270.208
270.114
279.307
266.186
267.41
268.336
268.255
267.903
267.631
267.38
267.278
267.293
267.345
267.453
267.617
267.776
267.891
267.961
268.005
268.043
268.083
268.138
268.201
268.283
268.363
268.463
268.544
268.666
268.738
268.881
268.96
269.112
269.197
269.368
269.418
269.661
269.555
278.464
265.545
266.658
267.485
267.375
267.042
266.799
266.61
266.58
266.677
266.808
266.975
267.17
267.344
267.465
267.541
267.593
267.638
267.686
267.748
267.815
267.9
267.982
268.087
268.166
268.301
268.366
268.525
268.596
268.762
268.84
269.027
269.073
269.349
269.228
277.415
264.742
265.77
266.478
266.268
265.816
265.444
265.138
265.045
265.118
265.253
265.442
265.66
265.852
265.989
266.082
266.154
266.223
266.296
266.383
266.474
266.579
266.682
266.796
266.904
267.034
267.141
267.292
267.403
267.577
267.683
267.883
267.952
268.232
268.122
276.154
263.689
264.603
265.204
264.978
264.57
264.286
264.093
264.139
264.343
264.573
264.825
265.081
265.287
265.424
265.512
265.58
265.648
265.723
265.813
265.907
266.017
266.125
266.243
266.358
266.489
266.606
266.752
266.874
267.043
267.151
267.361
267.421
267.737
267.607
274.928
262.671
263.395
263.824
263.442
262.875
262.434
262.15
262.159
262.36
262.614
262.889
263.153
263.363
263.511
263.619
263.714
263.812
263.915
264.028
264.139
264.259
264.374
264.501
264.622
264.772
264.892
265.074
265.196
265.397
265.523
265.744
265.829
266.141
266.017
273.247
261.185
261.787
262.103
261.71
261.203
260.903
260.79
261.011
261.386
261.742
262.077
262.376
262.594
262.731
262.824
262.908
263
263.103
263.219
263.334
263.461
263.581
263.714
263.841
263.992
264.12
264.294
264.429
264.615
264.75
264.967
265.05
265.391
265.251
271.638
259.774
260.065
260.139
259.53
258.83
258.377
258.228
258.457
258.858
259.25
259.6
259.891
260.104
260.251
260.369
260.485
260.612
260.743
260.876
260.998
261.124
261.244
261.379
261.515
261.677
261.818
262.016
262.157
262.378
262.515
262.758
262.852
263.188
263.06
269.348
257.677
257.777
257.696
257.074
256.501
256.326
256.501
257.059
257.679
258.17
258.563
258.872
259.078
259.206
259.302
259.401
259.513
259.636
259.768
259.896
260.033
260.166
260.312
260.458
260.623
260.772
260.963
261.114
261.316
261.47
261.692
261.801
262.146
262.019
267.085
255.59
255.259
254.849
253.95
253.202
252.975
253.226
253.868
254.543
255.058
255.443
255.73
255.929
256.068
256.192
256.327
256.472
256.617
256.755
256.879
257.01
257.139
257.289
257.446
257.624
257.791
258.003
258.163
258.398
258.55
258.806
258.916
259.261
259.146
264.019
252.696
251.985
251.334
250.446
250.009
250.333
251.15
252.228
253.122
253.698
254.082
254.353
254.535
254.658
254.76
254.863
254.975
255.097
255.231
255.37
255.526
255.681
255.853
256.024
256.208
256.381
256.585
256.753
256.97
257.137
257.368
257.5
257.842
257.735
260.549
249.405
248.148
247.048
245.875
245.429
245.945
247.013
248.268
249.203
249.745
250.087
250.332
250.508
250.648
250.785
250.927
251.065
251.194
251.318
251.445
251.595
251.753
251.938
252.127
252.329
252.523
252.748
252.93
253.178
253.342
253.615
253.736
254.096
253.992
256.415
245.353
243.293
241.832
240.857
241.19
242.696
244.525
246.157
247.204
247.718
247.98
248.172
248.348
248.502
248.614
248.687
248.749
248.838
248.975
249.153
249.361
249.57
249.786
249.991
250.196
250.398
250.611
250.808
251.034
251.221
251.473
251.607
251.983
251.823
250.11
239.743
237.349
235.373
234.095
234.358
235.825
237.587
239.149
240.088
240.53
240.758
240.921
241.091
241.302
241.53
241.721
241.845
241.923
242.003
242.121
242.295
242.498
242.733
242.966
243.204
243.435
243.69
243.903
244.181
244.371
244.679
244.819
245.241
245.072
241.198
232.211
228.76
225.468
222.985
222.941
224.666
226.574
227.874
228.477
228.661
228.714
228.853
229.16
229.602
230.037
230.303
230.35
230.263
230.18
230.189
230.314
230.508
230.754
231.002
231.253
231.508
231.766
232.012
232.282
232.515
232.801
232.997
233.357
233.379
218.45
218.315
214.487
211.603
212.188
215.753
219.432
221.84
222.939
223.288
223.304
223.27
223.359
223.572
223.805
223.963
224.057
224.153
224.297
224.491
224.715
224.956
225.192
225.44
225.679
225.923
226.174
226.424
226.677
226.925
227.178
227.401
227.648
227.848
228.469
9.62253
9.77631
10.2688
10.3433
10.2182
10.1428
10.1445
10.2506
10.1829
10.3386
10.2836
10.1081
10.0651
10.1519
10.2603
10.3302
10.3593
10.3665
10.3675
10.3693
10.3726
10.3792
10.3813
10.3945
10.3909
10.4064
10.4122
10.4098
10.4283
10.4194
10.4499
10.3945
10.4624
10.3693
10.4984
135.23
128.861
128.62
129.244
129.533
129.535
129.425
129.261
129.118
129.029
128.975
128.961
128.997
129.056
129.103
129.123
129.12
129.107
129.096
129.092
129.098
129.11
129.127
129.147
129.166
129.187
129.208
129.233
129.26
129.293
129.329
129.37
129.409
129.461
129.503
135.06
128.662
128.372
128.94
129.181
129.17
129.084
128.979
128.896
128.846
128.819
128.819
128.851
128.901
128.945
128.969
128.974
128.967
128.957
128.951
128.955
128.965
128.988
129.009
129.042
129.066
129.108
129.13
129.182
129.203
129.265
129.291
129.35
129.411
129.417
134.778
128.37
128.088
128.697
128.985
128.966
128.796
128.561
128.359
128.235
128.178
128.178
128.222
128.282
128.331
128.36
128.375
128.387
128.405
128.43
128.459
128.486
128.516
128.539
128.568
128.591
128.628
128.656
128.706
128.74
128.804
128.845
128.909
128.976
129.002
134.345
127.968
127.698
128.264
128.495
128.448
128.301
128.115
127.976
127.911
127.89
127.914
127.986
128.076
128.149
128.19
128.205
128.207
128.208
128.215
128.232
128.257
128.288
128.32
128.356
128.391
128.431
128.469
128.514
128.559
128.608
128.664
128.703
128.783
128.783
134.026
127.639
127.296
127.789
127.979
127.943
127.846
127.746
127.684
127.67
127.689
127.735
127.806
127.884
127.952
127.998
128.02
128.027
128.028
128.032
128.046
128.072
128.11
128.154
128.204
128.254
128.308
128.358
128.417
128.467
128.535
128.589
128.653
128.74
128.761
133.473
127.127
126.827
127.338
127.52
127.432
127.255
127.054
126.917
126.862
126.857
126.9
126.989
127.09
127.173
127.225
127.252
127.266
127.278
127.296
127.323
127.359
127.403
127.448
127.5
127.548
127.605
127.654
127.719
127.772
127.842
127.902
127.961
128.052
128.043
132.906
126.575
126.221
126.673
126.829
126.743
126.578
126.403
126.304
126.297
126.346
126.434
126.551
126.668
126.757
126.812
126.841
126.857
126.873
126.895
126.926
126.964
127.011
127.058
127.113
127.162
127.224
127.274
127.344
127.397
127.473
127.535
127.6
127.707
127.706
132.231
125.958
125.618
126.059
126.175
126.009
125.739
125.461
125.292
125.25
125.286
125.377
125.503
125.628
125.724
125.787
125.827
125.858
125.888
125.922
125.964
126.01
126.06
126.11
126.164
126.216
126.276
126.331
126.399
126.459
126.533
126.601
126.657
126.762
126.737
131.443
125.206
124.809
125.175
125.254
125.086
124.844
124.617
124.522
124.561
124.666
124.81
124.972
125.117
125.218
125.278
125.312
125.336
125.364
125.398
125.441
125.49
125.544
125.598
125.656
125.713
125.775
125.834
125.904
125.965
126.042
126.111
126.175
126.292
126.284
130.681
124.525
124.117
124.449
124.459
124.182
123.817
123.498
123.355
123.378
123.488
123.639
123.8
123.939
124.039
124.106
124.157
124.203
124.251
124.301
124.353
124.404
124.455
124.506
124.562
124.616
124.68
124.741
124.814
124.881
124.959
125.035
125.091
125.207
125.171
129.688
123.584
123.119
123.362
123.31
123.011
122.673
122.425
122.396
122.533
122.725
122.932
123.132
123.29
123.392
123.45
123.488
123.524
123.565
123.613
123.666
123.721
123.777
123.833
123.893
123.952
124.018
124.082
124.154
124.223
124.301
124.378
124.44
124.566
124.549
128.72
122.737
122.23
122.403
122.236
121.79
121.322
121.012
120.971
121.121
121.336
121.551
121.739
121.88
121.975
122.043
122.103
122.166
122.232
122.294
122.351
122.402
122.451
122.5
122.556
122.613
122.682
122.748
122.826
122.898
122.98
123.061
123.119
123.242
123.198
127.42
121.525
120.936
120.969
120.684
120.194
119.796
119.641
119.799
120.112
120.42
120.686
120.903
121.058
121.151
121.206
121.249
121.295
121.346
121.402
121.459
121.516
121.573
121.63
121.694
121.758
121.829
121.899
121.976
122.051
122.13
122.213
122.273
122.408
122.382
126.103
120.383
119.716
119.619
119.15
118.494
118.013
117.876
118.09
118.453
118.787
119.05
119.244
119.376
119.46
119.526
119.594
119.668
119.742
119.807
119.862
119.909
119.957
120.009
120.07
120.136
120.212
120.285
120.369
120.448
120.533
120.619
120.678
120.808
120.761
124.398
118.841
118.01
117.655
116.974
116.288
116.001
116.183
116.703
117.259
117.673
117.957
118.156
118.291
118.379
118.437
118.483
118.527
118.573
118.624
118.679
118.74
118.805
118.873
118.947
119.021
119.1
119.177
119.259
119.34
119.421
119.51
119.57
119.709
119.678
122.438
117.15
116.206
115.61
114.661
113.854
113.628
113.961
114.626
115.255
115.678
115.938
116.106
116.215
116.292
116.362
116.436
116.507
116.568
116.619
116.666
116.716
116.776
116.844
116.922
117.002
117.087
117.169
117.261
117.345
117.435
117.525
117.588
117.724
117.675
120.116
115.145
113.814
112.718
111.448
110.74
110.969
111.811
112.807
113.582
114.024
114.243
114.379
114.502
114.613
114.691
114.726
114.734
114.746
114.781
114.845
114.93
115.024
115.118
115.211
115.3
115.388
115.474
115.565
115.652
115.742
115.835
115.899
116.051
115.991
116.483
112.188
110.796
109.206
107.474
106.644
106.888
107.722
108.706
109.449
109.861
110.052
110.14
110.218
110.337
110.488
110.623
110.7
110.72
110.716
110.727
110.772
110.846
110.941
111.044
111.145
111.25
111.348
111.457
111.553
111.662
111.76
111.843
112.001
111.958
111.049
107.977
106.344
103.967
101.205
99.7871
100.223
101.455
102.553
103.203
103.461
103.465
103.419
103.506
103.78
104.147
104.432
104.527
104.461
104.34
104.261
104.261
104.325
104.43
104.546
104.662
104.78
104.896
105.014
105.128
105.248
105.36
105.461
105.603
105.63
97.5838
101.954
99.655
95.5714
92.9799
93.8383
96.0202
97.8362
98.8304
99.252
99.3634
99.3558
99.3714
99.4553
99.6041
99.7395
99.8094
99.831
99.851
99.9
99.9808
100.084
100.193
100.308
100.419
100.53
100.64
100.755
100.867
100.982
101.097
101.185
101.31
101.323
101.664
12.1116
12.3094
12.9469
13.1756
13.1282
13.04
13.0088
13.1255
13.0622
13.2136
13.203
13.036
12.9544
13.0117
13.1225
13.2131
13.2626
13.2818
13.2876
13.291
13.295
13.3038
13.3068
13.3236
13.3225
13.3377
13.3508
13.3484
13.3711
13.3597
13.4061
13.3477
13.4232
13.3269
13.4481
79.7771
77.227
76.6886
76.8506
77.0618
77.159
77.1429
77.0576
76.9525
76.8654
76.8094
76.7847
76.7896
76.8148
76.8444
76.8645
76.8709
76.8659
76.8572
76.8489
76.8466
76.8483
76.8542
76.8623
76.8698
76.8792
76.8866
76.8977
76.9071
76.9203
76.9355
76.9503
76.9702
76.9853
77.0144
79.5898
77.0406
76.4833
76.6146
76.7938
76.8723
76.8662
76.8137
76.7479
76.692
76.6553
76.6401
76.6466
76.6689
76.6958
76.7159
76.7247
76.7218
76.7146
76.7045
76.7022
76.6992
76.712
76.7132
76.7412
76.7374
76.7766
76.7677
76.812
76.8024
76.851
76.8442
76.8886
76.9008
76.9279
79.3487
76.7972
76.2439
76.4088
76.6343
76.7272
76.6779
76.5397
76.385
76.2663
76.1991
76.1778
76.1899
76.2185
76.2477
76.2683
76.2806
76.2879
76.297
76.3069
76.3219
76.333
76.3491
76.354
76.3724
76.3694
76.3969
76.391
76.4275
76.4241
76.4679
76.4683
76.5135
76.5239
76.5597
79.0333
76.4901
75.9427
76.0886
76.2783
76.347
76.2995
76.1879
76.072
75.9908
75.9511
75.9491
75.9788
76.0263
76.0739
76.1081
76.126
76.13
76.1287
76.1263
76.1299
76.1371
76.1505
76.1644
76.1828
76.1958
76.2181
76.2306
76.2539
76.2716
76.2932
76.3189
76.3336
76.3697
76.3685
78.7475
76.2122
75.6321
75.7272
75.8786
75.9404
75.9248
75.868
75.8074
75.7681
75.7565
75.7702
75.8041
75.8494
75.8941
75.9277
75.9459
75.9495
75.9457
75.9397
75.9397
75.9474
75.9628
75.9858
76.0112
76.037
76.0685
76.0887
76.1262
76.1406
76.1854
76.1987
76.2447
76.2693
76.3093
78.3471
75.8287
75.2861
75.4214
75.5912
75.6337
75.5614
75.4321
75.3086
75.2276
75.1931
75.2003
75.2401
75.2959
75.3496
75.3894
75.4129
75.4225
75.4263
75.4281
75.437
75.4479
75.4701
75.4863
75.5183
75.5309
75.5696
75.5799
75.6211
75.6329
75.6776
75.6908
75.7317
75.7531
75.7749
77.922
75.4099
74.8373
74.9305
75.0743
75.1068
75.0323
74.9068
74.7975
74.7423
74.741
74.7806
74.8459
74.918
74.9796
75.0217
75.0451
75.0546
75.06
75.0641
75.0764
75.0891
75.115
75.1313
75.1687
75.1794
75.2259
75.2336
75.2826
75.2924
75.3444
75.3582
75.4061
75.438
75.4717
77.4248
74.9491
74.4192
74.5458
74.6906
74.6784
74.526
74.3174
74.1449
74.0536
74.0375
74.0749
74.1427
74.2175
74.2821
74.3293
74.3607
74.3802
74.3953
74.4086
74.4267
74.445
74.4693
74.4898
74.5179
74.5354
74.5692
74.5841
74.6245
74.6382
74.6848
74.7011
74.7398
74.7669
74.7825
76.8648
74.4052
73.8441
73.9156
74.0177
73.9835
73.8262
73.6314
73.4934
73.4498
73.4822
73.5612
73.6606
73.7557
73.8296
73.8772
73.9038
73.9175
73.9283
73.9399
73.9583
73.979
74.0058
74.0306
74.0609
74.084
74.1189
74.1393
74.1809
74.1964
74.2492
74.2631
74.3131
74.345
74.3783
76.2963
73.9009
73.3905
73.4942
73.5819
73.4794
73.2298
72.9556
72.7704
72.7099
72.7429
72.8256
72.9231
73.0114
73.0797
73.1287
73.1651
73.1942
73.2213
73.2457
73.2716
73.2932
73.3182
73.3366
73.3645
73.3791
73.4168
73.43
73.4743
73.4904
73.5386
73.5579
73.5988
73.6272
73.643
75.6114
73.2447
72.7082
72.748
72.7673
72.611
72.3355
72.0769
71.9467
71.9573
72.0538
72.185
72.3169
72.4262
72.5027
72.5498
72.5781
72.5979
72.6177
72.6385
72.664
72.6879
72.7159
72.739
72.7696
72.7903
72.8278
72.8482
72.8905
72.9114
72.9613
72.9802
73.0301
73.0614
73.097
74.8982
72.6313
72.1519
72.2099
72.1806
71.9207
71.5402
71.2174
71.0697
71.091
71.2051
71.3436
71.4676
71.5613
71.6262
71.6733
71.7144
71.7544
71.7945
71.8293
71.8601
71.8818
71.9033
71.9187
71.9434
71.9585
71.9967
72.0114
72.0595
72.0756
72.1288
72.1477
72.1907
72.2207
72.2358
74.0097
71.808
71.3052
71.2644
71.1044
70.7419
70.3335
70.0702
70.0367
70.1732
70.3695
70.5575
70.7105
70.8207
70.892
70.9365
70.9674
70.9938
71.0208
71.0469
71.0745
71.0982
71.1246
71.1473
71.1772
71.2005
71.2394
71.263
71.3063
71.3323
71.3797
71.4054
71.4499
71.4875
71.5155
73.0576
71.009
70.5694
70.5105
70.2416
69.743
69.2515
68.9831
68.991
69.1736
69.3978
69.588
69.7236
69.8101
69.8655
69.9095
69.9551
70.0034
70.0502
70.0873
70.116
70.1338
70.1521
70.1674
70.193
70.2128
70.254
70.2729
70.3243
70.3432
70.3985
70.4196
70.4627
70.4955
70.5098
71.88
69.9818
69.5063
69.2601
68.7469
68.0939
67.6203
67.5143
67.727
68.0671
68.3749
68.5967
68.7425
68.8375
68.9021
68.9486
68.9836
69.0104
69.0335
69.0541
69.0775
69.1004
69.1292
69.1574
69.1924
69.2227
69.2655
69.2935
69.3395
69.3693
69.4161
69.447
69.4876
69.529
69.5536
70.4958
68.8415
68.4397
68.0983
67.3854
66.5956
66.1272
66.1216
66.4472
66.8583
67.1866
67.3942
67.5086
67.5703
67.6143
67.6607
67.7124
67.7615
67.8012
67.8274
67.848
67.864
67.8872
67.9119
67.9457
67.976
68.0218
68.0458
68.1015
68.121
68.1814
68.2003
68.248
68.2812
68.2959
68.8502
67.5185
67.0105
66.2734
65.1291
64.1636
63.8396
64.1383
64.7263
65.2848
65.6586
65.853
65.9499
66.0225
66.0967
66.1607
66.1976
66.207
66.2056
66.2092
66.2298
66.2625
66.3072
66.3522
66.3978
66.4411
66.4859
66.5223
66.5714
66.6033
66.6593
66.6846
66.735
66.773
66.7983
66.4347
65.5595
65.1471
64.08
62.5282
61.3982
61.0684
61.386
61.9793
62.5283
62.8914
63.0617
63.1076
63.1253
63.1836
63.2886
63.3981
63.4675
63.4852
63.4694
63.4523
63.4506
63.4736
63.51
63.558
63.6027
63.6589
63.6908
63.7589
63.7809
63.8566
63.8721
63.939
63.9694
64.0125
62.8402
62.8194
62.5642
61.1489
58.9014
57.2396
56.9851
57.642
58.4242
58.9883
59.276
59.3027
59.1994
59.1589
59.2904
59.5536
59.8056
59.9318
59.9199
59.8331
59.7503
59.7081
59.7152
59.7519
59.8036
59.8559
59.9129
59.9576
60.0208
60.0572
60.1301
60.1531
60.2306
60.2452
60.3212
55.8257
60.7722
59.8382
56.3777
53.1617
52.5611
53.6576
54.9198
55.7123
56.0965
56.2327
56.2498
56.2661
56.3116
56.3996
56.4951
56.5477
56.5497
56.5306
56.5206
56.5361
56.5715
56.6211
56.6754
56.7282
56.7824
56.8323
56.885
56.9365
56.9876
57.0514
57.0721
57.168
57.1101
57.317
13.6206
13.8471
14.6011
14.9807
15.0614
14.9985
14.93
15.029
14.9729
15.0977
15.1296
15.003
14.9028
14.9192
15.0085
15.1029
15.1677
15.2007
15.2145
15.2214
15.2266
15.237
15.2407
15.2589
15.2621
15.2747
15.2939
15.2926
15.3192
15.3037
15.3607
15.308
15.3855
15.2987
15.4032
52.8615
51.8614
51.4488
51.4008
51.4948
51.5974
51.6337
51.608
51.5445
51.4719
51.4177
51.3898
51.3815
51.3856
51.3967
51.4092
51.4185
51.4209
51.4191
51.4132
51.4095
51.407
51.4072
51.4098
51.4116
51.4153
51.4162
51.4201
51.4224
51.4244
51.4314
51.431
51.4433
51.4374
51.4602
52.6902
51.7012
51.286
51.2227
51.2946
51.3758
51.411
51.4006
51.3611
51.3121
51.2732
51.2518
51.2455
51.2503
51.2619
51.2746
51.2842
51.2862
51.2846
51.276
51.2734
51.2639
51.2728
51.2621
51.2867
51.2696
51.3031
51.2836
51.3178
51.2979
51.3333
51.3149
51.3468
51.3354
51.3654
52.4919
51.5059
51.0924
51.0531
51.1677
51.2782
51.3001
51.2379
51.1336
51.0323
50.9642
50.9335
50.9286
50.9367
50.9489
50.9602
50.9696
50.9759
50.9833
50.9883
50.9979
51.0013
51.0123
51.0078
51.0228
51.0076
51.0294
51.0107
51.0366
51.0191
51.0489
51.0323
51.0651
51.0495
51.0839
52.2542
51.273
50.8658
50.8195
50.9103
50.9998
51.0118
50.9604
50.8788
50.8005
50.7519
50.7369
50.7443
50.763
50.7864
50.8088
50.8265
50.8356
50.8389
50.8366
50.8363
50.8363
50.841
50.8451
50.8554
50.8573
50.8705
50.8722
50.8832
50.8891
50.8972
50.9061
50.9125
50.9219
50.9257
52.012
51.0438
50.6233
50.5426
50.6005
50.6728
50.7012
50.6839
50.641
50.5969
50.5703
50.5658
50.5781
50.6004
50.6262
50.6491
50.6647
50.6699
50.6679
50.6607
50.6553
50.6548
50.6583
50.6691
50.6823
50.6934
50.7141
50.7183
50.7444
50.7416
50.7728
50.7664
50.801
50.7949
50.8351
51.7095
50.7508
50.3598
50.3222
50.412
50.4888
50.4828
50.415
50.3223
50.2393
50.191
50.1799
50.1929
50.2172
50.245
50.2711
50.2921
50.3037
50.3094
50.3079
50.3107
50.3101
50.322
50.3233
50.3456
50.342
50.3693
50.3643
50.3913
50.3853
50.4158
50.4072
50.4391
50.4271
50.4597
51.3802
50.4273
50.0181
49.9493
50.0161
50.0789
50.0642
49.989
49.8958
49.8233
49.7942
49.8051
49.8384
49.8783
49.9156
49.9453
49.9659
49.976
49.9814
49.9805
49.9861
49.9864
50.0029
50.0025
50.0317
50.0242
50.06
50.0515
50.0861
50.0783
50.1151
50.108
50.1444
50.1416
50.1816
50.9978
50.0676
49.7021
49.6826
49.7751
49.8216
49.7534
49.6134
49.4653
49.3587
49.3146
49.3217
49.3548
49.3944
49.4321
49.4646
49.4911
49.5093
49.5222
49.5289
49.5379
49.5439
49.556
49.5622
49.5788
49.5798
49.6018
49.5987
49.6255
49.6189
49.6509
49.6438
49.6749
49.6649
49.6965
50.5778
49.6566
49.272
49.2123
49.2663
49.2848
49.1969
49.0505
48.9127
48.8306
48.8186
48.8574
48.9165
48.9744
49.0223
49.058
49.0823
49.096
49.1047
49.1089
49.1172
49.1248
49.1382
49.1485
49.1661
49.1728
49.1951
49.1968
49.2264
49.2197
49.2594
49.2496
49.2896
49.2848
49.3258
50.1392
49.2562
48.9324
48.9324
49.0079
48.9924
48.8392
48.6271
48.4458
48.3469
48.3341
48.3752
48.433
48.4856
48.5279
48.5623
48.5915
48.6152
48.636
48.6507
48.6663
48.675
48.6885
48.6919
48.7088
48.7051
48.7301
48.724
48.753
48.7472
48.781
48.7733
48.8089
48.7966
48.8317
49.6313
48.7662
48.4313
48.3892
48.4061
48.3317
48.1297
47.9018
47.7391
47.68
47.7129
47.794
47.8807
47.9514
48.0031
48.0398
48.0659
48.0837
48.0985
48.1093
48.1231
48.1328
48.1477
48.1553
48.1732
48.1763
48.2
48.2015
48.2295
48.2274
48.2654
48.2562
48.3008
48.2897
48.3385
49.0799
48.277
48.0217
48.0404
48.0567
47.9172
47.6348
47.3476
47.1634
47.1123
47.1609
47.2496
47.3324
47.3923
47.4334
47.4661
47.4974
47.5281
47.5581
47.5812
47.6014
47.6109
47.6218
47.6226
47.6357
47.6311
47.6561
47.649
47.6818
47.6737
47.7125
47.7032
47.7414
47.7285
47.7654
48.4184
47.6628
47.4133
47.3743
47.2809
47.0281
46.6723
46.3867
46.2603
46.2849
46.3994
46.5329
46.6415
46.7156
46.7646
46.7998
46.8279
46.8506
46.8707
46.8855
46.9009
46.91
46.9227
46.9292
46.945
46.9493
46.9729
46.977
47.0041
47.007
47.0413
47.0385
47.0781
47.0723
47.1144
47.6835
47.0308
46.8845
46.8911
46.7502
46.3972
45.9672
45.6641
45.565
45.6309
45.7743
45.9147
46.0122
46.0676
46.1008
46.1303
46.1645
46.2012
46.2366
46.2621
46.281
46.2875
46.2949
46.2948
46.3067
46.305
46.3316
46.3268
46.3619
46.3554
46.3958
46.3875
46.4261
46.4139
46.4514
46.7938
46.2585
46.1422
46.0408
45.6906
45.1504
44.6482
44.4064
44.4337
44.6178
44.8374
45.0127
45.1217
45.1838
45.226
45.2626
45.2951
45.32
45.3379
45.3482
45.3586
45.365
45.3774
45.3868
45.4048
45.4143
45.4403
45.4477
45.4759
45.4824
45.5152
45.5168
45.5532
45.5488
45.5908
45.7394
45.3787
45.3996
45.2993
44.822
44.1587
43.6326
43.4553
43.5704
43.8199
44.0678
44.239
44.3248
44.3587
44.38
44.4096
44.4487
44.4876
44.5189
44.5368
44.5484
44.5517
44.5603
44.5664
44.5823
44.5898
44.6181
44.6183
44.6555
44.6498
44.6933
44.6842
44.7242
44.7126
44.7517
44.4754
44.3745
44.4374
44.0854
43.2137
42.28
41.7289
41.7034
42.0033
42.3795
42.68
42.8525
42.9264
42.9647
43.0088
43.0602
43.1009
43.119
43.1196
43.1132
43.1148
43.1227
43.1423
43.1638
43.1875
43.2097
43.235
43.25
43.2797
43.2867
43.3274
43.3231
43.3681
43.3561
43.4102
42.8506
42.9989
43.206
42.6711
41.49
40.3935
39.8302
39.8485
40.1756
40.5587
40.8591
41.0156
41.048
41.0338
41.0468
41.1099
41.1956
41.2624
41.289
41.2804
41.2603
41.2432
41.2435
41.254
41.2754
41.2938
41.3263
41.3318
41.3743
41.3714
41.4204
41.4108
41.4591
41.4461
41.5
40.5372
41.2115
41.6813
41.073
39.4771
37.9878
37.4303
37.6909
38.2114
38.662
38.9365
38.9956
38.9001
38.8028
38.8285
38.9886
39.1902
39.3284
39.3624
39.3175
39.2519
39.1995
39.1814
39.1857
39.2043
39.2255
39.2525
39.2647
39.2984
39.3014
39.3455
39.3333
39.391
39.3595
39.4332
37.6428
41.9952
41.5875
38.8287
35.827
34.5764
34.9809
35.8294
36.4432
36.7689
36.9009
36.9247
36.9424
36.9814
37.0428
37.111
37.1491
37.1435
37.112
37.0792
37.0654
37.0679
37.0871
37.1121
37.1363
37.164
37.1861
37.2105
37.2342
37.2532
37.2944
37.2826
37.3632
37.2911
37.4318
14.7685
15.0059
15.8737
16.3867
16.6005
16.5951
16.5029
16.571
16.5215
16.6127
16.6735
16.5955
16.4964
16.4787
16.5381
16.6239
16.6962
16.7414
16.7647
16.7767
16.7839
16.7957
16.8005
16.8187
16.8269
16.8364
16.8604
16.86
16.8918
16.8718
16.9343
16.8892
16.9675
16.8934
16.9854
37.6236
37.2178
36.974
36.8675
36.8761
36.9477
36.9991
37.0087
36.9798
36.9263
36.8779
36.8505
36.8383
36.8319
36.8295
36.8319
36.8386
36.8444
36.8486
36.8476
36.8461
36.8436
36.842
36.8423
36.8417
36.8431
36.8419
36.842
36.8431
36.839
36.8444
36.8359
36.8471