/*--------------------------------*- C++ -*----------------------------------*\
  =========                 |
  \\      /  F ield         | OpenFOAM: The Open Source CFD Toolbox
   \\    /   O peration     | Website:  https://openfoam.org
    \\  /    A nd           | Version:  6
     \\/     M anipulation  |
\*---------------------------------------------------------------------------*/
FoamFile
{
    version     2.0;
    format      ascii;
    class       volScalarField;
    location    "1.4";
    object      p;
}
// * * * * * * * * * * * * * * * * * * * * * * * * * * * * * * * * * * * * * //

dimensions      [0 2 -2 0 0 0 0];

internalField   nonuniform List<scalar> 
380496
(
0.0137614
0.0141193
0.0138926
0.0138382
0.0138032
0.013761
0.0137174
0.0136697
0.0136195
0.0135678
0.0135149
0.0134598
0.0134014
0.0133398
0.0132756
0.0132091
0.0131401
0.013069
0.0129955
0.0129199
0.0128419
0.0127611
0.012677
0.012589
0.0124967
0.0123992
0.0122962
0.0121869
0.012071
0.0119474
0.011817
0.0116765
0.0115322
0.0113704
0.0112201
0.0137269
0.0140771
0.0138651
0.0138197
0.0137912
0.0137534
0.0137116
0.0136641
0.0136127
0.0135589
0.013503
0.0134442
0.0133814
0.013315
0.0132453
0.0131727
0.0130972
0.0130191
0.0129384
0.012855
0.012769
0.0126796
0.0125869
0.0124898
0.0123884
0.0122817
0.0121697
0.0120512
0.0119268
0.0117946
0.0116568
0.0115075
0.0113601
0.0111833
0.011053
0.0136873
0.0140321
0.0138339
0.013797
0.0137745
0.0137407
0.0137009
0.013654
0.013602
0.0135466
0.0134882
0.013426
0.013359
0.0132874
0.0132117
0.0131323
0.0130493
0.012963
0.0128735
0.0127809
0.0126853
0.0125859
0.012483
0.0123753
0.012263
0.0121452
0.012022
0.0118923
0.0117568
0.0116135
0.0114654
0.0113054
0.0111483
0.0109603
0.0108137
0.0136392
0.0139835
0.0138031
0.0137787
0.0137649
0.0137363
0.0136988
0.0136519
0.0135984
0.0135406
0.0134791
0.0134131
0.0133415
0.0132647
0.0131833
0.0130979
0.0130086
0.0129156
0.0128191
0.0127193
0.0126161
0.0125089
0.012398
0.0122822
0.0121617
0.0120358
0.0119045
0.0117671
0.011624
0.0114734
0.0113182
0.0111512
0.010986
0.0107913
0.0106257
0.0135919
0.0139293
0.0137693
0.013757
0.0137513
0.0137277
0.0136926
0.0136463
0.0135923
0.0135331
0.0134692
0.0133998
0.0133242
0.0132426
0.0131556
0.0130638
0.0129675
0.0128672
0.0127632
0.0126556
0.0125444
0.0124292
0.0123099
0.0121858
0.0120569
0.0119226
0.0117832
0.0116377
0.0114872
0.0113295
0.0111689
0.0109966
0.0108333
0.0106354
0.0105015
0.013531
0.0138716
0.0137367
0.0137406
0.0137456
0.0137284
0.0136958
0.0136498
0.0135945
0.0135328
0.0134656
0.0133922
0.0133116
0.0132243
0.0131314
0.0130335
0.012931
0.0128243
0.0127137
0.0125993
0.0124813
0.0123591
0.012233
0.0121018
0.0119661
0.011825
0.0116789
0.0115271
0.0113705
0.0112068
0.0110404
0.0108615
0.0106905
0.0104812
0.0103287
0.0134653
0.0138074
0.0137003
0.0137205
0.0137361
0.013725
0.0136954
0.0136503
0.0135945
0.0135311
0.0134614
0.0133844
0.0132995
0.0132075
0.0131092
0.0130055
0.0128968
0.0127838
0.0126667
0.0125458
0.0124213
0.0122926
0.0121599
0.0120224
0.0118803
0.0117331
0.0115812
0.0114237
0.0112621
0.0110941
0.0109246
0.0107436
0.0105755
0.010368
0.0102385
0.0133887
0.0137403
0.013668
0.0137091
0.0137377
0.0137333
0.0137063
0.0136613
0.013604
0.0135379
0.0134644
0.0133826
0.0132922
0.0131943
0.01309
0.0129804
0.0128659
0.012747
0.0126242
0.0124975
0.0123672
0.0122328
0.0120944
0.0119513
0.0118037
0.0116512
0.0114943
0.011332
0.0111659
0.0109934
0.0108195
0.0106334
0.0104581
0.0102419
0.0100911
0.0133011
0.0136691
0.013633
0.0136948
0.0137357
0.0137374
0.013713
0.0136687
0.0136107
0.0135427
0.0134662
0.0133806
0.0132859
0.0131832
0.0130741
0.0129595
0.01284
0.012716
0.0125881
0.0124565
0.0123212
0.0121821
0.012039
0.0118914
0.0117395
0.0115829
0.0114221
0.0112563
0.0110871
0.010912
0.0107367
0.01055
0.0103782
0.0101654
0.0100361
0.0132141
0.013605
0.0136077
0.0136918
0.0137454
0.0137528
0.0137302
0.0136857
0.013626
0.0135551
0.0134745
0.0133839
0.0132837
0.0131757
0.0130616
0.0129422
0.0128182
0.01269
0.0125579
0.0124223
0.0122831
0.0121399
0.011993
0.0118416
0.0116862
0.0115261
0.0113621
0.0111934
0.0110215
0.0108439
0.010666
0.0104764
0.0102998
0.0100812
0.00993405
0.0131074
0.0135364
0.0135796
0.0136866
0.0137521
0.0137641
0.0137431
0.0136985
0.0136375
0.0135642
0.0134803
0.0133857
0.0132812
0.0131691
0.0130509
0.0129278
0.0128
0.012668
0.0125323
0.012393
0.0122503
0.0121039
0.0119538
0.0117994
0.0116412
0.0114786
0.0113122
0.0111414
0.0109678
0.0107887
0.0106102
0.0104205
0.0102469
0.0100314
0.00990276
0.012999
0.0134743
0.0135599
0.0136915
0.0137696
0.0137863
0.0137665
0.0137212
0.0136579
0.0135808
0.0134918
0.0133916
0.0132817
0.0131645
0.0130421
0.0129151
0.0127838
0.0126486
0.0125099
0.0123677
0.0122221
0.0120729
0.01192
0.011763
0.0116023
0.0114374
0.011269
0.0110963
0.010921
0.0107405
0.0105604
0.0103691
0.0101919
0.00997279
0.00982683
0.0128649
0.0134126
0.0135414
0.0136982
0.013787
0.0138059
0.013786
0.0137393
0.0136736
0.013593
0.0135
0.0133954
0.0132812
0.0131604
0.0130347
0.0129048
0.0127709
0.012633
0.0124915
0.0123467
0.0121985
0.0120469
0.0118919
0.0117329
0.0115704
0.0114039
0.011234
0.0110602
0.0108838
0.0107027
0.0105225
0.0103315
0.0101568
0.00994074
0.00981027
0.0127257
0.013358
0.0135277
0.0137114
0.0138116
0.0138337
0.0138142
0.013766
0.013697
0.0136117
0.0135128
0.0134021
0.0132826
0.0131575
0.0130285
0.0128957
0.0127593
0.0126191
0.0124756
0.0123288
0.0121786
0.0120252
0.0118683
0.0117075
0.0115435
0.0113754
0.0112042
0.0110293
0.010852
0.0106702
0.0104892
0.0102976
0.0101204
0.00990238
0.00975628
0.0125619
0.013315
0.0135238
0.0137334
0.0138407
0.0138616
0.0138398
0.0137885
0.0137156
0.0136255
0.0135215
0.0134062
0.0132829
0.0131548
0.0130234
0.0128887
0.0127506
0.0126087
0.0124633
0.0123145
0.0121626
0.0120075
0.0118492
0.0116872
0.0115221
0.011353
0.0111811
0.0110055
0.0108277
0.0106457
0.010465
0.0102741
0.0100989
0.00988385
0.00975019
0.0123813
0.0132746
0.0135157
0.0137541
0.0138707
0.013893
0.0138706
0.0138169
0.0137397
0.0136439
0.0135335
0.0134121
0.0132841
0.0131527
0.013019
0.0128825
0.0127427
0.0125993
0.0124526
0.0123027
0.0121496
0.0119934
0.0118339
0.0116708
0.0115047
0.0113347
0.011162
0.0109858
0.0108076
0.0106254
0.0104446
0.0102539
0.0100774
0.00986194
0.00971609
0.0121903
0.013265
0.0135307
0.0137928
0.0139108
0.0139282
0.013901
0.0138427
0.01376
0.0136576
0.0135411
0.0134152
0.0132841
0.0131507
0.0130156
0.0128781
0.0127375
0.0125932
0.0124452
0.0122939
0.0121397
0.0119824
0.0118222
0.0116584
0.0114918
0.0113212
0.0111481
0.0109716
0.0107933
0.0106114
0.0104308
0.0102413
0.0100666
0.00985427
0.00971834
0.0119605
0.0132449
0.0135277
0.0138194
0.0139423
0.0139594
0.0139313
0.01387
0.0137821
0.0136733
0.0135504
0.0134191
0.0132845
0.0131491
0.0130128
0.0128743
0.0127326
0.0125873
0.0124387
0.012287
0.0121325
0.0119747
0.0118141
0.0116495
0.0114823
0.011311
0.0111375
0.0109606
0.0107822
0.0106004
0.0104201
0.0102317
0.0100571
0.00984587
0.00971249
0.011755
0.0132823
0.0135609
0.0138711
0.0139902
0.0139989
0.0139639
0.0138971
0.0138015
0.0136842
0.0135547
0.0134201
0.0132842
0.0131481
0.0130111
0.012872
0.0127298
0.0125839
0.0124348
0.0122825
0.0121276
0.0119695
0.0118089
0.0116439
0.0114766
0.0113049
0.0111312
0.010954
0.0107758
0.0105942
0.0104142
0.0102277
0.0100529
0.00984979
0.00969909
0.0114932
0.0132779
0.0135687
0.0139026
0.0140155
0.0140194
0.0139834
0.0139139
0.013815
0.0136943
0.0135609
0.0134222
0.0132836
0.0131467
0.0130099
0.0128708
0.0127283
0.0125819
0.0124326
0.0122802
0.0121254
0.0119671
0.0118063
0.011641
0.0114733
0.0113012
0.0111274
0.0109498
0.0107719
0.0105905
0.0104105
0.0102256
0.0100494
0.0098519
0.00968464
0.0114106
0.0133485
0.0136172
0.0139604
0.0140675
0.0140625
0.0140134
0.0139288
0.0138168
0.0136898
0.0135564
0.0134196
0.0132824
0.0131458
0.0130091
0.0128701
0.0127277
0.0125815
0.0124322
0.0122798
0.012125
0.0119666
0.0118056
0.0116402
0.0114724
0.0113002
0.0111264
0.010949
0.0107711
0.01059
0.0104105
0.0102266
0.0100558
0.00986569
0.00974397
0.0137607
0.0141178
0.0138925
0.0138382
0.0138032
0.013761
0.0137174
0.0136697
0.0136195
0.0135678
0.0135149
0.0134598
0.0134014
0.0133398
0.0132756
0.0132091
0.0131402
0.013069
0.0129956
0.0129199
0.0128419
0.0127611
0.012677
0.0125891
0.0124967
0.0123992
0.0122963
0.0121869
0.0120711
0.0119475
0.0118171
0.0116766
0.0115323
0.0113706
0.0112203
0.0137259
0.0140757
0.013865
0.0138197
0.0137912
0.0137534
0.0137116
0.0136641
0.0136127
0.0135589
0.013503
0.0134442
0.0133814
0.013315
0.0132453
0.0131727
0.0130972
0.0130192
0.0129385
0.0128551
0.0127691
0.0126796
0.012587
0.0124899
0.0123885
0.0122818
0.0121697
0.0120513
0.0119269
0.0117947
0.0116569
0.0115077
0.0113602
0.0111835
0.0110532
0.0136863
0.0140307
0.0138338
0.013797
0.0137745
0.0137406
0.0137009
0.0136539
0.013602
0.0135466
0.0134882
0.013426
0.013359
0.0132874
0.0132117
0.0131323
0.0130493
0.012963
0.0128735
0.0127809
0.0126853
0.012586
0.012483
0.0123753
0.012263
0.0121452
0.012022
0.0118923
0.0117568
0.0116136
0.0114654
0.0113055
0.0111484
0.0109604
0.0108138
0.0136383
0.0139821
0.0138031
0.0137787
0.0137649
0.0137363
0.0136988
0.0136519
0.0135984
0.0135406
0.0134791
0.0134131
0.0133415
0.0132647
0.0131834
0.0130979
0.0130086
0.0129156
0.0128192
0.0127193
0.0126161
0.012509
0.012398
0.0122822
0.0121618
0.0120359
0.0119046
0.0117672
0.0116241
0.0114735
0.0113183
0.0111513
0.0109861
0.0107914
0.0106259
0.0135909
0.0139279
0.0137692
0.013757
0.0137513
0.0137277
0.0136926
0.0136463
0.0135924
0.0135331
0.0134692
0.0133999
0.0133242
0.0132426
0.0131556
0.0130638
0.0129675
0.0128672
0.0127632
0.0126556
0.0125444
0.0124292
0.0123099
0.0121858
0.0120569
0.0119227
0.0117832
0.0116377
0.0114873
0.0113296
0.011169
0.0109967
0.0108333
0.0106356
0.0105016
0.01353
0.0138703
0.0137367
0.0137406
0.0137456
0.0137284
0.0136958
0.0136498
0.0135945
0.0135328
0.0134656
0.0133922
0.0133116
0.0132243
0.0131314
0.0130335
0.012931
0.0128243
0.0127137
0.0125993
0.0124813
0.0123591
0.012233
0.0121019
0.0119661
0.0118251
0.011679
0.0115271
0.0113705
0.0112069
0.0110405
0.0108616
0.0106906
0.0104813
0.0103288
0.0134642
0.0138061
0.0137002
0.0137206
0.0137362
0.013725
0.0136954
0.0136503
0.0135945
0.0135311
0.0134614
0.0133844
0.0132995
0.0132075
0.0131092
0.0130055
0.0128968
0.0127838
0.0126667
0.0125458
0.0124213
0.0122926
0.0121599
0.0120224
0.0118804
0.0117332
0.0115812
0.0114238
0.0112622
0.0110941
0.0109246
0.0107436
0.0105755
0.0103681
0.0102386
0.0133876
0.0137391
0.0136679
0.0137091
0.0137377
0.0137333
0.0137063
0.0136613
0.013604
0.0135379
0.0134644
0.0133826
0.0132923
0.0131943
0.01309
0.0129804
0.0128659
0.012747
0.0126242
0.0124975
0.0123673
0.0122328
0.0120944
0.0119513
0.0118038
0.0116513
0.0114943
0.011332
0.0111659
0.0109934
0.0108195
0.0106334
0.0104582
0.010242
0.0100912
0.0133
0.0136679
0.013633
0.0136948
0.0137357
0.0137374
0.013713
0.0136687
0.0136107
0.0135427
0.0134662
0.0133806
0.0132859
0.0131832
0.0130741
0.0129595
0.01284
0.012716
0.0125881
0.0124565
0.0123212
0.0121821
0.012039
0.0118914
0.0117395
0.0115829
0.0114221
0.0112563
0.0110872
0.010912
0.0107367
0.01055
0.0103782
0.0101655
0.0100362
0.0132129
0.0136038
0.0136076
0.0136918
0.0137454
0.0137528
0.0137303
0.0136857
0.013626
0.0135551
0.0134745
0.0133839
0.0132837
0.0131757
0.0130616
0.0129422
0.0128182
0.01269
0.0125579
0.0124223
0.0122831
0.01214
0.011993
0.0118416
0.0116862
0.0115261
0.0113621
0.0111934
0.0110215
0.0108439
0.010666
0.0104764
0.0102998
0.0100812
0.00993406
0.0131063
0.0135353
0.0135796
0.0136866
0.0137521
0.0137641
0.0137431
0.0136985
0.0136375
0.0135642
0.0134803
0.0133857
0.0132813
0.0131691
0.0130509
0.0129278
0.0128
0.012668
0.0125323
0.012393
0.0122503
0.0121039
0.0119538
0.0117994
0.0116412
0.0114786
0.0113122
0.0111415
0.0109678
0.0107887
0.0106103
0.0104206
0.010247
0.0100315
0.00990283
0.0129978
0.0134733
0.0135599
0.0136915
0.0137696
0.0137863
0.0137665
0.0137212
0.0136579
0.0135808
0.0134918
0.0133916
0.0132817
0.0131645
0.0130421
0.0129151
0.0127838
0.0126486
0.0125099
0.0123677
0.0122221
0.0120729
0.01192
0.011763
0.0116024
0.0114374
0.011269
0.0110963
0.010921
0.0107405
0.0105605
0.0103692
0.0101919
0.00997284
0.00982683
0.0128638
0.0134116
0.0135414
0.0136983
0.013787
0.0138059
0.013786
0.0137393
0.0136736
0.013593
0.0135
0.0133953
0.0132812
0.0131604
0.0130347
0.0129048
0.0127709
0.012633
0.0124915
0.0123467
0.0121985
0.0120469
0.0118919
0.0117329
0.0115705
0.0114039
0.011234
0.0110602
0.0108839
0.0107027
0.0105225
0.0103315
0.0101568
0.0099408
0.00981033
0.0127245
0.0133571
0.0135277
0.0137114
0.0138117
0.0138337
0.0138143
0.013766
0.013697
0.0136117
0.0135127
0.0134021
0.0132826
0.0131575
0.0130285
0.0128957
0.0127593
0.0126191
0.0124756
0.0123288
0.0121787
0.0120252
0.0118683
0.0117075
0.0115435
0.0113754
0.0112042
0.0110293
0.0108521
0.0106702
0.0104892
0.0102977
0.0101204
0.00990242
0.00975627
0.0125608
0.0133142
0.0135238
0.0137334
0.0138407
0.0138617
0.0138398
0.0137886
0.0137156
0.0136254
0.0135214
0.0134062
0.0132829
0.0131548
0.0130234
0.0128887
0.0127506
0.0126087
0.0124633
0.0123145
0.0121626
0.0120075
0.0118492
0.0116872
0.0115221
0.011353
0.0111811
0.0110055
0.0108278
0.0106458
0.010465
0.0102741
0.0100989
0.0098839
0.00975023
0.0123802
0.0132739
0.0135156
0.0137541
0.0138708
0.0138931
0.0138706
0.0138169
0.0137397
0.0136439
0.0135335
0.0134121
0.0132841
0.0131527
0.013019
0.0128825
0.0127427
0.0125993
0.0124526
0.0123027
0.0121496
0.0119934
0.011834
0.0116708
0.0115047
0.0113347
0.011162
0.0109858
0.0108076
0.0106254
0.0104446
0.0102539
0.0100774
0.00986197
0.00971607
0.0121893
0.0132645
0.0135307
0.0137929
0.013911
0.0139283
0.013901
0.0138427
0.0137599
0.0136576
0.0135411
0.0134152
0.0132841
0.0131507
0.0130156
0.0128781
0.0127375
0.0125932
0.0124452
0.0122939
0.0121397
0.0119824
0.0118222
0.0116584
0.0114918
0.0113212
0.0111481
0.0109716
0.0107933
0.0106114
0.0104308
0.0102413
0.0100666
0.00985432
0.00971837
0.0119597
0.0132443
0.0135277
0.0138196
0.0139425
0.0139595
0.0139313
0.0138699
0.013782
0.0136733
0.0135503
0.0134191
0.0132845
0.0131491
0.0130128
0.0128743
0.0127326
0.0125873
0.0124387
0.012287
0.0121325
0.0119747
0.0118141
0.0116495
0.0114823
0.011311
0.0111375
0.0109606
0.0107822
0.0106004
0.0104201
0.0102317
0.0100571
0.00984591
0.00971253
0.011754
0.013282
0.013561
0.0138713
0.0139903
0.0139989
0.0139639
0.013897
0.0138014
0.0136841
0.0135547
0.0134201
0.0132842
0.0131481
0.0130111
0.012872
0.0127298
0.0125839
0.0124348
0.0122825
0.0121276
0.0119695
0.0118089
0.0116439
0.0114766
0.0113049
0.0111312
0.010954
0.0107758
0.0105943
0.0104142
0.0102277
0.0100529
0.00984982
0.00969905
0.011492
0.0132782
0.0135693
0.0139031
0.0140156
0.0140193
0.0139832
0.0139137
0.0138148
0.0136943
0.0135609
0.0134222
0.0132836
0.0131466
0.0130099
0.0128708
0.0127283
0.0125819
0.0124326
0.0122802
0.0121254
0.0119671
0.0118063
0.011641
0.0114733
0.0113012
0.0111274
0.0109499
0.0107719
0.0105905
0.0104105
0.0102256
0.0100494
0.00985188
0.00968457
0.0114125
0.0133499
0.0136175
0.0139601
0.014067
0.014062
0.0140131
0.0139287
0.0138167
0.0136898
0.0135564
0.0134196
0.0132824
0.0131458
0.0130091
0.0128701
0.0127277
0.0125815
0.0124322
0.0122798
0.012125
0.0119666
0.0118056
0.0116402
0.0114724
0.0113002
0.0111264
0.010949
0.0107711
0.01059
0.0104105
0.0102266
0.0100558
0.0098657
0.00974403
0.0137632
0.0141152
0.0138923
0.0138383
0.0138033
0.013761
0.0137174
0.0136697
0.0136194
0.0135678
0.0135149
0.0134598
0.0134014
0.0133398
0.0132756
0.0132091
0.0131401
0.013069
0.0129955
0.0129199
0.0128419
0.0127611
0.012677
0.0125891
0.0124967
0.0123992
0.0122963
0.0121869
0.0120711
0.0119475
0.0118171
0.0116766
0.0115323
0.0113706
0.0112204
0.0137284
0.0140731
0.0138648
0.0138198
0.0137913
0.0137534
0.0137117
0.0136641
0.0136127
0.0135589
0.013503
0.0134442
0.0133814
0.013315
0.0132453
0.0131727
0.0130972
0.0130192
0.0129385
0.0128551
0.0127691
0.0126796
0.012587
0.0124899
0.0123885
0.0122818
0.0121697
0.0120513
0.0119269
0.0117947
0.0116569
0.0115077
0.0113602
0.0111835
0.0110533
0.0136888
0.0140282
0.0138336
0.0137971
0.0137745
0.0137406
0.0137009
0.0136539
0.0136019
0.0135466
0.0134882
0.013426
0.013359
0.0132874
0.0132117
0.0131323
0.0130493
0.012963
0.0128735
0.0127809
0.0126853
0.012586
0.012483
0.0123753
0.012263
0.0121452
0.012022
0.0118924
0.0117568
0.0116136
0.0114654
0.0113055
0.0111484
0.0109604
0.0108138
0.0136408
0.0139797
0.0138029
0.0137788
0.013765
0.0137364
0.0136988
0.0136519
0.0135984
0.0135406
0.0134791
0.0134131
0.0133415
0.0132647
0.0131834
0.0130979
0.0130086
0.0129156
0.0128192
0.0127193
0.0126161
0.012509
0.012398
0.0122822
0.0121618
0.0120359
0.0119046
0.0117672
0.0116241
0.0114735
0.0113183
0.0111513
0.0109861
0.0107914
0.0106258
0.0135933
0.0139256
0.013769
0.0137571
0.0137513
0.0137278
0.0136926
0.0136463
0.0135924
0.0135331
0.0134692
0.0133998
0.0133242
0.0132426
0.0131556
0.0130638
0.0129675
0.0128672
0.0127632
0.0126556
0.0125444
0.0124292
0.0123099
0.0121858
0.012057
0.0119227
0.0117832
0.0116378
0.0114873
0.0113296
0.011169
0.0109967
0.0108333
0.0106356
0.0105018
0.0135324
0.013868
0.0137365
0.0137407
0.0137457
0.0137284
0.0136959
0.0136498
0.0135945
0.0135328
0.0134656
0.0133922
0.0133116
0.0132243
0.0131314
0.0130335
0.012931
0.0128243
0.0127137
0.0125993
0.0124813
0.0123592
0.012233
0.0121019
0.0119661
0.0118251
0.011679
0.0115271
0.0113705
0.0112069
0.0110405
0.0108616
0.0106906
0.0104813
0.0103288
0.0134665
0.0138039
0.0137
0.0137206
0.0137362
0.013725
0.0136954
0.0136503
0.0135945
0.0135311
0.0134614
0.0133844
0.0132995
0.0132075
0.0131092
0.0130055
0.0128968
0.0127838
0.0126667
0.0125458
0.0124213
0.0122926
0.0121599
0.0120224
0.0118804
0.0117332
0.0115812
0.0114238
0.0112622
0.0110941
0.0109247
0.0107437
0.0105756
0.0103682
0.0102388
0.0133898
0.013737
0.0136678
0.0137092
0.0137378
0.0137334
0.0137063
0.0136613
0.013604
0.0135379
0.0134644
0.0133826
0.0132922
0.0131943
0.01309
0.0129804
0.0128659
0.012747
0.0126242
0.0124975
0.0123673
0.0122328
0.0120944
0.0119513
0.0118038
0.0116513
0.0114943
0.011332
0.0111659
0.0109934
0.0108195
0.0106335
0.0104582
0.010242
0.0100912
0.0133022
0.0136659
0.0136328
0.0136949
0.0137357
0.0137375
0.013713
0.0136687
0.0136107
0.0135427
0.0134662
0.0133806
0.0132859
0.0131832
0.0130741
0.0129595
0.01284
0.012716
0.0125881
0.0124565
0.0123212
0.0121821
0.012039
0.0118914
0.0117395
0.0115829
0.0114221
0.0112563
0.0110872
0.0109121
0.0107367
0.01055
0.0103782
0.0101655
0.0100364
0.013215
0.0136019
0.0136075
0.0136919
0.0137454
0.0137528
0.0137303
0.0136857
0.013626
0.0135551
0.0134745
0.0133838
0.0132837
0.0131757
0.0130616
0.0129422
0.0128182
0.01269
0.0125579
0.0124223
0.0122831
0.01214
0.011993
0.0118416
0.0116862
0.0115261
0.0113621
0.0111934
0.0110215
0.0108439
0.010666
0.0104764
0.0102998
0.0100813
0.00993408
0.0131083
0.0135334
0.0135794
0.0136866
0.0137521
0.0137641
0.0137431
0.0136985
0.0136375
0.0135642
0.0134802
0.0133857
0.0132812
0.0131691
0.0130509
0.0129278
0.0128
0.012668
0.0125323
0.012393
0.0122503
0.0121039
0.0119538
0.0117994
0.0116412
0.0114787
0.0113122
0.0111415
0.0109678
0.0107888
0.0106103
0.0104206
0.010247
0.0100316
0.00990299
0.0129997
0.0134716
0.0135597
0.0136916
0.0137697
0.0137863
0.0137666
0.0137212
0.0136579
0.0135807
0.0134918
0.0133916
0.0132816
0.0131645
0.0130421
0.0129151
0.0127838
0.0126486
0.0125099
0.0123677
0.0122221
0.0120729
0.01192
0.011763
0.0116024
0.0114374
0.011269
0.0110963
0.010921
0.0107405
0.0105605
0.0103692
0.0101919
0.00997288
0.00982685
0.0128657
0.01341
0.0135412
0.0136983
0.013787
0.0138059
0.013786
0.0137393
0.0136736
0.013593
0.0134999
0.0133953
0.0132812
0.0131604
0.0130347
0.0129048
0.0127709
0.012633
0.0124915
0.0123467
0.0121985
0.0120469
0.0118919
0.0117329
0.0115705
0.0114039
0.011234
0.0110602
0.0108839
0.0107027
0.0105225
0.0103316
0.0101568
0.00994088
0.00981048
0.0127262
0.0133556
0.0135276
0.0137114
0.0138117
0.0138338
0.0138143
0.013766
0.013697
0.0136116
0.0135127
0.013402
0.0132826
0.0131575
0.0130285
0.0128957
0.0127593
0.0126191
0.0124756
0.0123288
0.0121787
0.0120252
0.0118683
0.0117075
0.0115435
0.0113754
0.0112043
0.0110293
0.0108521
0.0106702
0.0104892
0.0102977
0.0101204
0.00990247
0.00975629
0.0125624
0.0133128
0.0135237
0.0137334
0.0138408
0.0138617
0.0138399
0.0137886
0.0137155
0.0136254
0.0135214
0.0134061
0.0132829
0.0131547
0.0130234
0.0128887
0.0127506
0.0126087
0.0124633
0.0123145
0.0121626
0.0120075
0.0118492
0.0116872
0.0115221
0.0113531
0.0111811
0.0110055
0.0108278
0.0106458
0.010465
0.0102741
0.0100989
0.00988398
0.00975036
0.0123816
0.0132727
0.0135156
0.0137542
0.0138709
0.0138932
0.0138707
0.0138169
0.0137397
0.0136438
0.0135335
0.0134121
0.0132841
0.0131527
0.013019
0.0128825
0.0127427
0.0125993
0.0124526
0.0123027
0.0121497
0.0119934
0.011834
0.0116709
0.0115047
0.0113347
0.011162
0.0109858
0.0108076
0.0106255
0.0104446
0.0102539
0.0100774
0.00986201
0.00971608
0.0121905
0.0132635
0.0135307
0.0137929
0.0139111
0.0139283
0.0139011
0.0138426
0.0137598
0.0136575
0.013541
0.0134151
0.0132841
0.0131507
0.0130156
0.0128781
0.0127375
0.0125932
0.0124452
0.0122939
0.0121397
0.0119824
0.0118223
0.0116585
0.0114918
0.0113212
0.0111481
0.0109716
0.0107933
0.0106114
0.0104308
0.0102413
0.0100666
0.00985439
0.0097185
0.0119608
0.0132434
0.0135278
0.0138198
0.0139427
0.0139596
0.0139313
0.0138698
0.0137818
0.0136731
0.0135503
0.0134191
0.0132845
0.0131491
0.0130128
0.0128743
0.0127326
0.0125873
0.0124387
0.012287
0.0121325
0.0119747
0.0118141
0.0116495
0.0114823
0.011311
0.0111375
0.0109606
0.0107822
0.0106004
0.0104201
0.0102317
0.0100571
0.00984599
0.00971268
0.0117549
0.0132814
0.013561
0.0138714
0.0139904
0.0139988
0.0139637
0.0138967
0.0138011
0.013684
0.0135547
0.0134201
0.0132842
0.0131481
0.0130112
0.012872
0.0127298
0.0125839
0.0124348
0.0122825
0.0121276
0.0119695
0.0118089
0.0116439
0.0114766
0.0113049
0.0111313
0.010954
0.0107758
0.0105943
0.0104142
0.0102277
0.0100529
0.00984986
0.00969899
0.0114921
0.0132782
0.0135702
0.0139039
0.014016
0.0140192
0.0139828
0.0139134
0.0138146
0.0136942
0.0135608
0.0134222
0.0132837
0.0131466
0.0130098
0.0128708
0.0127283
0.012582
0.0124326
0.0122802
0.0121254
0.0119671
0.0118063
0.011641
0.0114733
0.0113012
0.0111274
0.0109499
0.0107719
0.0105905
0.0104105
0.0102256
0.0100494
0.00985176
0.00968391
0.011414
0.0133514
0.0136181
0.0139598
0.0140664
0.0140616
0.0140128
0.0139286
0.0138168
0.0136898
0.0135564
0.0134196
0.0132824
0.0131458
0.0130091
0.0128701
0.0127277
0.0125815
0.0124322
0.0122798
0.0121249
0.0119666
0.0118056
0.0116402
0.0114724
0.0113002
0.0111264
0.010949
0.0107711
0.01059
0.0104105
0.0102266
0.0100557
0.00986579
0.00974443
0.0137667
0.0141117
0.0138921
0.0138384
0.0138033
0.0137611
0.0137174
0.0136697
0.0136194
0.0135678
0.0135149
0.0134598
0.0134014
0.0133398
0.0132756
0.0132091
0.0131401
0.013069
0.0129955
0.0129199
0.0128419
0.0127611
0.012677
0.0125891
0.0124967
0.0123992
0.0122963
0.0121869
0.0120711
0.0119475
0.0118171
0.0116766
0.0115323
0.0113706
0.0112205
0.0137318
0.0140697
0.0138646
0.0138198
0.0137914
0.0137535
0.0137117
0.0136642
0.0136127
0.0135589
0.013503
0.0134441
0.0133814
0.013315
0.0132453
0.0131727
0.0130972
0.0130192
0.0129385
0.0128551
0.0127691
0.0126797
0.012587
0.0124899
0.0123885
0.0122818
0.0121698
0.0120514
0.0119269
0.0117948
0.0116569
0.0115078
0.0113603
0.0111836
0.0110536
0.0136921
0.0140249
0.0138333
0.0137971
0.0137746
0.0137406
0.0137009
0.0136539
0.0136019
0.0135465
0.0134882
0.013426
0.013359
0.0132874
0.0132117
0.0131323
0.0130493
0.012963
0.0128735
0.0127809
0.0126853
0.012586
0.012483
0.0123753
0.012263
0.0121452
0.012022
0.0118924
0.0117568
0.0116136
0.0114654
0.0113055
0.0111484
0.0109605
0.0108138
0.0136441
0.0139763
0.0138027
0.0137788
0.013765
0.0137364
0.0136989
0.0136519
0.0135984
0.0135406
0.0134791
0.0134131
0.0133415
0.0132647
0.0131834
0.0130979
0.0130086
0.0129156
0.0128192
0.0127193
0.0126161
0.012509
0.012398
0.0122823
0.0121618
0.0120359
0.0119046
0.0117672
0.0116241
0.0114735
0.0113183
0.0111513
0.0109862
0.0107915
0.0106259
0.0135964
0.0139224
0.0137688
0.0137571
0.0137514
0.0137278
0.0136927
0.0136464
0.0135924
0.0135331
0.0134692
0.0133998
0.0133242
0.0132426
0.0131556
0.0130638
0.0129675
0.0128672
0.0127632
0.0126556
0.0125444
0.0124292
0.0123099
0.0121858
0.012057
0.0119227
0.0117832
0.0116378
0.0114873
0.0113296
0.011169
0.0109968
0.0108334
0.0106357
0.010502
0.0135355
0.0138648
0.0137363
0.0137407
0.0137458
0.0137285
0.0136959
0.0136499
0.0135945
0.0135328
0.0134656
0.0133922
0.0133116
0.0132243
0.0131314
0.0130335
0.012931
0.0128243
0.0127137
0.0125993
0.0124813
0.0123592
0.012233
0.0121019
0.0119661
0.0118251
0.011679
0.0115272
0.0113705
0.0112069
0.0110405
0.0108617
0.0106906
0.0104814
0.0103289
0.0134695
0.0138008
0.0136998
0.0137206
0.0137362
0.0137251
0.0136954
0.0136503
0.0135945
0.0135311
0.0134613
0.0133843
0.0132995
0.0132075
0.0131092
0.0130055
0.0128968
0.0127838
0.0126667
0.0125458
0.0124213
0.0122926
0.0121599
0.0120224
0.0118804
0.0117332
0.0115813
0.0114238
0.0112622
0.0110942
0.0109247
0.0107437
0.0105756
0.0103683
0.0102391
0.0133928
0.013734
0.0136676
0.0137092
0.0137378
0.0137334
0.0137063
0.0136613
0.013604
0.0135379
0.0134644
0.0133826
0.0132922
0.0131943
0.01309
0.0129804
0.0128659
0.012747
0.0126242
0.0124975
0.0123673
0.0122328
0.0120944
0.0119513
0.0118038
0.0116513
0.0114943
0.0113321
0.0111659
0.0109934
0.0108195
0.0106335
0.0104582
0.0102421
0.0100913
0.013305
0.013663
0.0136326
0.0136948
0.0137357
0.0137375
0.013713
0.0136687
0.0136107
0.0135426
0.0134661
0.0133806
0.0132858
0.0131832
0.0130741
0.0129595
0.01284
0.012716
0.0125881
0.0124565
0.0123212
0.0121821
0.012039
0.0118914
0.0117395
0.011583
0.0114222
0.0112563
0.0110872
0.0109121
0.0107368
0.0105501
0.0103782
0.0101656
0.0100367
0.0132177
0.0135992
0.0136073
0.0136919
0.0137455
0.0137529
0.0137303
0.0136858
0.013626
0.013555
0.0134744
0.0133838
0.0132837
0.0131757
0.0130615
0.0129422
0.0128182
0.01269
0.0125579
0.0124223
0.0122831
0.01214
0.011993
0.0118416
0.0116862
0.0115262
0.0113621
0.0111934
0.0110215
0.0108439
0.010666
0.0104765
0.0102998
0.0100813
0.00993423
0.0131109
0.0135308
0.0135792
0.0136866
0.0137521
0.0137641
0.0137431
0.0136985
0.0136375
0.0135641
0.0134802
0.0133856
0.0132812
0.013169
0.0130509
0.0129278
0.0128
0.012668
0.0125323
0.012393
0.0122503
0.0121039
0.0119538
0.0117994
0.0116412
0.0114787
0.0113122
0.0111415
0.0109678
0.0107888
0.0106103
0.0104206
0.010247
0.0100317
0.00990328
0.0130021
0.0134691
0.0135596
0.0136916
0.0137697
0.0137864
0.0137666
0.0137212
0.0136578
0.0135807
0.0134918
0.0133915
0.0132816
0.0131645
0.0130421
0.012915
0.0127838
0.0126487
0.0125099
0.0123677
0.0122221
0.0120729
0.01192
0.011763
0.0116024
0.0114375
0.011269
0.0110964
0.010921
0.0107405
0.0105605
0.0103692
0.0101919
0.00997296
0.00982701
0.012868
0.0134076
0.0135411
0.0136983
0.013787
0.0138059
0.013786
0.0137393
0.0136735
0.0135929
0.0134999
0.0133953
0.0132812
0.0131604
0.0130347
0.0129048
0.0127709
0.012633
0.0124915
0.0123467
0.0121985
0.0120469
0.0118919
0.0117329
0.0115705
0.0114039
0.011234
0.0110602
0.0108839
0.0107027
0.0105225
0.0103316
0.0101568
0.00994099
0.00981076
0.0127283
0.0133535
0.0135275
0.0137114
0.0138118
0.0138338
0.0138143
0.0137661
0.013697
0.0136116
0.0135126
0.013402
0.0132826
0.0131575
0.0130285
0.0128957
0.0127593
0.0126191
0.0124756
0.0123288
0.0121787
0.0120252
0.0118683
0.0117076
0.0115435
0.0113754
0.0112043
0.0110293
0.0108521
0.0106702
0.0104892
0.0102977
0.0101204
0.00990254
0.00975644
0.0125644
0.0133108
0.0135236
0.0137335
0.0138409
0.0138618
0.0138399
0.0137885
0.0137155
0.0136253
0.0135213
0.0134061
0.0132828
0.0131547
0.0130234
0.0128887
0.0127506
0.0126087
0.0124633
0.0123145
0.0121626
0.0120075
0.0118492
0.0116872
0.0115221
0.0113531
0.0111811
0.0110055
0.0108278
0.0106458
0.010465
0.0102742
0.0100989
0.00988408
0.00975059
0.0123834
0.0132709
0.0135156
0.0137542
0.013871
0.0138933
0.0138708
0.0138169
0.0137396
0.0136438
0.0135334
0.013412
0.0132841
0.0131527
0.013019
0.0128825
0.0127427
0.0125993
0.0124526
0.0123027
0.0121497
0.0119934
0.011834
0.0116709
0.0115047
0.0113347
0.011162
0.0109858
0.0108076
0.0106255
0.0104446
0.010254
0.0100774
0.00986207
0.00971618
0.0121921
0.0132621
0.0135308
0.013793
0.0139112
0.0139285
0.0139011
0.0138425
0.0137597
0.0136574
0.0135409
0.0134151
0.0132841
0.0131507
0.0130156
0.0128781
0.0127375
0.0125932
0.0124452
0.012294
0.0121397
0.0119824
0.0118223
0.0116585
0.0114919
0.0113212
0.0111481
0.0109717
0.0107933
0.0106114
0.0104308
0.0102414
0.0100666
0.00985449
0.00971879
0.0119622
0.013242
0.0135279
0.0138201
0.013943
0.0139598
0.0139312
0.0138696
0.0137816
0.0136729
0.0135502
0.013419
0.0132845
0.0131491
0.0130128
0.0128742
0.0127326
0.0125873
0.0124388
0.012287
0.0121325
0.0119747
0.0118141
0.0116495
0.0114823
0.0113111
0.0111375
0.0109606
0.0107822
0.0106005
0.0104201
0.0102318
0.0100571
0.00984608
0.00971296
0.0117562
0.0132806
0.0135614
0.0138718
0.0139907
0.0139988
0.0139634
0.0138963
0.0138008
0.0136838
0.0135546
0.01342
0.0132842
0.013148
0.0130111
0.012872
0.0127298
0.0125839
0.0124348
0.0122825
0.0121276
0.0119695
0.0118088
0.0116439
0.0114766
0.0113049
0.0111312
0.010954
0.0107758
0.0105943
0.0104142
0.0102277
0.0100529
0.00984987
0.00969896
0.0114934
0.0132773
0.0135711
0.0139049
0.0140166
0.0140191
0.0139823
0.0139128
0.0138141
0.0136939
0.0135608
0.0134223
0.0132837
0.0131466
0.0130098
0.0128707
0.0127283
0.012582
0.0124326
0.0122802
0.0121254
0.0119671
0.0118063
0.011641
0.0114733
0.0113012
0.0111274
0.0109499
0.0107719
0.0105905
0.0104105
0.0102257
0.0100494
0.00985154
0.00968262
0.0114143
0.0133532
0.0136192
0.0139597
0.0140658
0.014061
0.0140126
0.0139286
0.0138168
0.0136899
0.0135564
0.0134196
0.0132824
0.0131458
0.0130091
0.0128701
0.0127277
0.0125815
0.0124322
0.0122798
0.0121249
0.0119666
0.0118056
0.0116402
0.0114724
0.0113002
0.0111264
0.010949
0.0107711
0.0105901
0.0104105
0.0102267
0.0100557
0.009866
0.00974523
0.013771
0.0141073
0.0138918
0.0138383
0.0138034
0.0137611
0.0137174
0.0136697
0.0136194
0.0135678
0.0135149
0.0134597
0.0134014
0.0133398
0.0132756
0.013209
0.0131401
0.013069
0.0129955