/*--------------------------------*- C++ -*----------------------------------*\
  =========                 |
  \\      /  F ield         | OpenFOAM: The Open Source CFD Toolbox
   \\    /   O peration     | Website:  https://openfoam.org
    \\  /    A nd           | Version:  6
     \\/     M anipulation  |
\*---------------------------------------------------------------------------*/
FoamFile
{
    version     2.0;
    format      ascii;
    class       volVectorField;
    location    "1.4";
    object      wallShearStress;
}
// * * * * * * * * * * * * * * * * * * * * * * * * * * * * * * * * * * * * * //

dimensions      [0 2 -2 0 0 0 0];

internalField   uniform (0 0 0);

boundaryField
{
    inlet
    {
        type            calculated;
        value           uniform (0 0 0);
    }
    outlet
    {
        type            calculated;
        value           uniform (0 0 0);
    }
    roughCylinder
    {
        type            calculated;
        value           nonuniform List<vector> 
3840
(
(-0.000100321 -0.000131532 -5.91269e-05)
(-0.000235528 -0.000395102 -4.41843e-05)
(-0.000327472 -0.000546871 4.50778e-05)
(-0.000395311 -0.000610405 0.000108787)
(-0.000463866 -0.000643892 0.000159257)
(-0.000506627 -0.000631879 0.000188034)
(-0.000543109 -0.000615761 0.00020518)
(-0.00056534 -0.000598086 0.000214963)
(-0.000585172 -0.000589522 0.000222697)
(-0.000596247 -0.000582286 0.000224183)
(-0.000605308 -0.000580413 0.000222153)
(-0.00060879 -0.000578447 0.000215459)
(-0.000614302 -0.000581533 0.000206962)
(-0.000623857 -0.000590431 0.000197451)
(-0.000622012 -0.000590622 0.000182796)
(-0.000610955 -0.000583336 0.00016488)
(-0.000613222 -0.000588514 0.000149757)
(-0.000614489 -0.000592641 0.000133569)
(-0.00061859 -0.000599169 0.000116955)
(-0.000603857 -0.000587852 9.59555e-05)
(-0.000599117 -0.000585806 7.58718e-05)
(-0.000594278 -0.000583199 5.49783e-05)
(-0.000590294 -0.000580972 3.34952e-05)
(-0.00058605 -0.000577869 1.12506e-05)
(-0.000110296 -0.000128977 -5.6831e-05)
(-0.000255915 -0.000389751 -5.15428e-05)
(-0.000353425 -0.000545176 3.65359e-05)
(-0.000425483 -0.000614593 0.000101613)
(-0.000497504 -0.000651631 0.000153249)
(-0.000542836 -0.000642692 0.000182871)
(-0.000582169 -0.000630292 0.000201523)
(-0.000606857 -0.000614405 0.000213523)
(-0.000628673 -0.000604637 0.000222394)
(-0.000639868 -0.000596041 0.000224208)
(-0.000650617 -0.000594672 0.000222829)
(-0.000655729 -0.000593645 0.000216746)
(-0.000662001 -0.000597005 0.000208421)
(-0.000669648 -0.000603854 0.00019822)
(-0.00066627 -0.000602998 0.000183387)
(-0.000657375 -0.000598236 0.00016642)
(-0.000662938 -0.000606258 0.000152076)
(-0.000662771 -0.000609453 0.000135591)
(-0.000667081 -0.00061609 0.000118883)
(-0.000650909 -0.000604404 9.76369e-05)
(-0.000647172 -0.000603652 7.73981e-05)
(-0.000641873 -0.000600991 5.60623e-05)
(-0.000637938 -0.000599069 3.41397e-05)
(-0.000633953 -0.000596465 1.14641e-05)
(-0.000172851 -0.000177902 -7.4433e-05)
(-0.000277415 -0.000380139 -5.92687e-05)
(-0.000380186 -0.000537922 2.69116e-05)
(-0.00045595 -0.000612415 9.30399e-05)
(-0.000530936 -0.000652665 0.000145657)
(-0.000580021 -0.000648757 0.000176899)
(-0.000624544 -0.000642706 0.000198209)
(-0.000653217 -0.000630031 0.000212642)
(-0.000677185 -0.000619413 0.000222598)
(-0.000689191 -0.00060997 0.000225037)
(-0.00069951 -0.000606999 0.000223517)
(-0.0007048 -0.000605478 0.000217543)
(-0.000710437 -0.000607897 0.000209018)
(-0.00071612 -0.000612892 0.000198318)
(-0.00071339 -0.000612959 0.000184013)
(-0.000707147 -0.000610886 0.000168053)
(-0.000714375 -0.000620043 0.000154095)
(-0.00071462 -0.000623994 0.000137755)
(-0.000718223 -0.000630043 0.000120812)
(-0.000700746 -0.000618283 9.93636e-05)
(-0.000698171 -0.000618913 7.89601e-05)
(-0.000692477 -0.000616346 5.71708e-05)
(-0.000689083 -0.000615178 3.48138e-05)
(-0.000685823 -0.00061348 1.16924e-05)
(-0.000132074 -0.00011875 -4.55365e-05)
(-0.000296455 -0.000364051 -6.65701e-05)
(-0.000405116 -0.00052444 1.63604e-05)
(-0.000484964 -0.000604519 8.32517e-05)
(-0.000564766 -0.000650489 0.000137191)
(-0.000618946 -0.000653365 0.000170754)
(-0.000666935 -0.000651572 0.000194412)
(-0.000697625 -0.000640135 0.000210463)
(-0.000725047 -0.000630577 0.000221999)
(-0.000737179 -0.000619156 0.00022482)
(-0.000749101 -0.000616342 0.000223815)
(-0.000755461 -0.00061503 0.000218246)
(-0.000761275 -0.000617267 0.000209836)
(-0.000764882 -0.000620547 0.000198744)
(-0.000761306 -0.000620213 0.0001846)
(-0.000758026 -0.000620798 0.000169665)
(-0.000767316 -0.000631319 0.00015621)
(-0.000767762 -0.000635768 0.000139985)
(-0.000770221 -0.000641095 0.000122779)
(-0.000751786 -0.0006297 0.000101185)
(-0.000750455 -0.000631708 8.05859e-05)
(-0.000744174 -0.000629142 5.82982e-05)
(-0.000740969 -0.000628398 3.54674e-05)
(-0.000738117 -0.000627264 1.19044e-05)
(-0.000209022 -0.00016293 -5.46364e-05)
(-0.000314284 -0.000343938 -7.3474e-05)
(-0.00042852 -0.000506284 5.21883e-06)
(-0.000512386 -0.000591596 7.24533e-05)
(-0.000595556 -0.0006418 0.000127218)
(-0.000654031 -0.000650965 0.000162981)
(-0.000707569 -0.000655445 0.000189669)
(-0.000744261 -0.000648805 0.00020851)
(-0.000774438 -0.00064009 0.00022143)
(-0.00078892 -0.000627935 0.000225219)
(-0.000800647 -0.000623589 0.00022428)
(-0.000806243 -0.000620932 0.000218625)
(-0.000810721 -0.000621824 0.000210026)
(-0.000813073 -0.000624214 0.000198921)
(-0.000811349 -0.00062558 0.000185636)
(-0.000809962 -0.000627757 0.000171439)
(-0.000819482 -0.000638121 0.000158168)
(-0.000822536 -0.000644895 0.000142523)
(-0.000822592 -0.000648779 0.000124881)
(-0.000803278 -0.000637958 0.000103137)
(-0.000802939 -0.000641122 8.22724e-05)
(-0.000796076 -0.000638711 5.94562e-05)
(-0.000793453 -0.000638734 3.61431e-05)
(-0.000791517 -0.000638551 1.21277e-05)
(-0.000304562 -0.000203725 -5.55033e-05)
(-0.000333276 -0.000323171 -8.05305e-05)
(-0.000448158 -0.000481792 -6.23988e-06)
(-0.000536233 -0.000572504 6.05036e-05)
(-0.000625197 -0.000629779 0.000116381)
(-0.000690766 -0.000647788 0.00015511)
(-0.000748903 -0.000656997 0.000184647)
(-0.000787077 -0.000650918 0.000205073)
(-0.000820882 -0.00064387 0.000219488)
(-0.000837737 -0.000631027 0.00022426)
(-0.000851211 -0.000626435 0.000224102)
(-0.000857272 -0.000623324 0.000218784)
(-0.000862153 -0.000624213 0.000210564)
(-0.00086403 -0.000626349 0.000199716)
(-0.000861526 -0.00062732 0.000186688)
(-0.000862225 -0.000631119 0.000173295)
(-0.00087198 -0.000641408 0.000160298)
(-0.000876359 -0.000649326 0.000145012)
(-0.000874969 -0.000652927 0.000127156)
(-0.000855148 -0.000643187 0.000105286)
(-0.000855711 -0.000647399 8.40898e-05)
(-0.00084831 -0.000645282 6.06917e-05)
(-0.000845918 -0.00064577 3.68321e-05)
(-0.000844525 -0.000646168 1.23448e-05)
(-0.00025248 -0.000143028 -2.84306e-05)
(-0.000340962 -0.000292297 -8.41797e-05)
(-0.000466686 -0.000454645 -1.79217e-05)
(-0.000558538 -0.000550766 4.77139e-05)
(-0.000651297 -0.000613064 0.000104296)
(-0.000721096 -0.000637036 0.000145332)
(-0.000784161 -0.000651055 0.000177713)
(-0.000830268 -0.000650753 0.000201337)
(-0.000867904 -0.000645248 0.00021723)
(-0.00088917 -0.000633682 0.000223629)
(-0.000903277 -0.000627146 0.000223986)
(-0.000908235 -0.000622388 0.000218729)
(-0.000911963 -0.000622049 0.000210621)
(-0.000914454 -0.000624636 0.000200386)
(-0.000913728 -0.00062702 0.000188236)
(-0.000914132 -0.000630747 0.000175211)
(-0.000923442 -0.000640661 0.000162478)
(-0.000930691 -0.000650761 0.00014784)
(-0.000926435 -0.000653339 0.000129582)
(-0.000905866 -0.000644658 0.000107533)
(-0.000906709 -0.000649842 8.59281e-05)
(-0.000898634 -0.000648311 6.19165e-05)
(-0.00089662 -0.000649554 3.7505e-05)
(-0.000896156 -0.000650841 1.25575e-05)
(-0.00049114 -0.000233877 -2.31715e-05)
(-0.000364096 -0.000272412 -9.06272e-05)
(-0.000478803 -0.000421133 -2.98616e-05)
(-0.000574488 -0.000522471 3.38125e-05)
(-0.00067331 -0.000592181 9.10707e-05)
(-0.000751714 -0.00062563 0.000135199)
(-0.000821654 -0.000645367 0.000170844)
(-0.000869151 -0.000645187 0.000196157)
(-0.000910803 -0.000641234 0.000213646)
(-0.000935258 -0.000630451 0.000221341)
(-0.000952778 -0.000623669 0.000222946)
(-0.000958298 -0.000618034 0.000218374)
(-0.000963285 -0.000617987 0.000211061)
(-0.000967135 -0.000621344 0.000201652)
(-0.00096484 -0.000622899 0.000189752)
(-0.000966024 -0.000627421 0.000177424)
(-0.000973705 -0.000636341 0.000164853)
(-0.00098181 -0.00064725 0.000150594)
(-0.00097697 -0.000651261 0.000132361)
(-0.000955702 -0.000644359 0.000110122)
(-0.000955999 -0.000650031 8.79462e-05)
(-0.000947173 -0.000649206 6.32275e-05)
(-0.000945167 -0.000650966 3.81889e-05)
(-0.000945237 -0.000652794 1.27617e-05)
(-0.000392342 -0.000153472 5.22482e-06)
(-0.000372566 -0.00024127 -9.33993e-05)
(-0.000489725 -0.000386733 -4.12699e-05)
(-0.000588749 -0.000492909 1.93246e-05)
(-0.000691582 -0.000568284 7.68615e-05)
(-0.000774518 -0.000607358 0.000123231)
(-0.000848351 -0.000630215 0.0001613)
(-0.000905441 -0.000636186 0.000189987)
(-0.000952409 -0.000634445 0.000209485)
(-0.000981728 -0.000625455 0.000218896)
(-0.00100184 -0.000618325 0.000221654)
(-0.00100757 -0.000610999 0.000217837)
(-0.00101231 -0.000609819 0.000211135)
(-0.00101801 -0.000614038 0.000202763)
(-0.00101647 -0.000616354 0.000191715)
(-0.00101519 -0.000619938 0.00017963)
(-0.00102257 -0.000629464 0.000167645)
(-0.00103113 -0.000641438 0.00015381)
(-0.001023 -0.000645462 0.000135237)
(-0.00100019 -0.000640086 0.000112656)
(-0.000999361 -0.000645723 8.98004e-05)
(-0.00098961 -0.000645393 6.43545e-05)
(-0.000987497 -0.000647483 3.87245e-05)
(-0.000988258 -0.00064982 1.29109e-05)
(-0.000531971 -0.000167082 3.32898e-05)
(-0.000376227 -0.000208896 -9.33264e-05)
(-0.000492471 -0.000346204 -5.19699e-05)
(-0.000592993 -0.000455965 4.09856e-06)
(-0.000701741 -0.000538647 6.12914e-05)
(-0.000794235 -0.000586911 0.000110356)
(-0.000878059 -0.000616774 0.000151842)
(-0.000937364 -0.000623026 0.000182429)
(-0.0009886 -0.000622576 0.000203819)
(-0.00102146 -0.000614476 0.000214798)
(-0.0010456 -0.000608302 0.000219138)
(-0.00105399 -0.000601051 0.00021677)
(-0.00106143 -0.00060015 0.000211516)
(-0.00106904 -0.000604923 0.000204325)
(-0.00106525 -0.000606505 0.00019374)
(-0.00106364 -0.000610959 0.000182513)
(-0.00106648 -0.000618904 0.000170535)
(-0.00107354 -0.000630956 0.00015688)
(-0.00106498 -0.000636638 0.000138329)
(-0.0010402 -0.000632468 0.000115267)
(-0.00103751 -0.000637656 9.16052e-05)
(-0.00102723 -0.000638087 6.54187e-05)
(-0.00102525 -0.000640598 3.91982e-05)
(-0.00102664 -0.000643286 1.30304e-05)
(-0.000703606 -0.000173643 7.63613e-05)
(-0.000409719 -0.000189681 -9.88926e-05)
(-0.000493087 -0.000305704 -6.21987e-05)
(-0.00059524 -0.000418744 -1.13057e-05)
(-0.000707783 -0.00050719 4.49244e-05)
(-0.000805745 -0.000561169 9.58637e-05)
(-0.000892568 -0.000592764 0.000139239)
(-0.000963021 -0.000605156 0.000173157)
(-0.00102098 -0.000607272 0.000196997)
(-0.00105952 -0.000601178 0.000210191)
(-0.0010867 -0.000595398 0.000216117)
(-0.00109727 -0.000588309 0.000215296)
(-0.00110611 -0.000587035 0.000211409)
(-0.00111539 -0.000592098 0.000205577)
(-0.00111108 -0.000594157 0.000196024)
(-0.00110505 -0.000597441 0.000185116)
(-0.00110741 -0.000606198 0.000173914)
(-0.00111033 -0.000616869 0.000160083)
(-0.00109856 -0.000622522 0.000141186)
(-0.00107218 -0.000619831 0.000117686)
(-0.00106718 -0.000624403 9.31776e-05)
(-0.00105601 -0.000625339 6.62292e-05)
(-0.00105364 -0.000627892 3.94613e-05)
(-0.00105548 -0.000630703 1.30687e-05)
(-0.000778796 -0.000143492 0.000118804)
(-0.000441454 -0.000165136 -0.000102503)
(-0.000483901 -0.000261312 -7.01945e-05)
(-0.000583688 -0.000373557 -2.63449e-05)
(-0.000700988 -0.000468589 2.74291e-05)
(-0.000808858 -0.00053112 7.99359e-05)
(-0.000909294 -0.000570951 0.000126434)
(-0.00098353 -0.000584045 0.000162389)
(-0.00104648 -0.000587292 0.000188407)
(-0.00108918 -0.000582156 0.000203698)
(-0.00112101 -0.000577658 0.000211787)
(-0.00113516 -0.00057156 0.000213034)
(-0.0011473 -0.000571013 0.000211105)
(-0.00115782 -0.000576191 0.00020677)
(-0.00115109 -0.000577891 0.000198143)
(-0.0011438 -0.000581916 0.000188286)
(-0.00113871 -0.000587975 0.000176894)
(-0.00113837 -0.000598033 0.000163172)
(-0.00112544 -0.000604772 0.000144234)
(-0.00109596 -0.000602822 0.000120071)
(-0.0010873 -0.000606206 9.45522e-05)
(-0.0010755 -0.000607817 6.68415e-05)
(-0.00107334 -0.000610746 3.9584e-05)
(-0.00107585 -0.000613703 1.30526e-05)
(-0.000777084 -9.67411e-05 0.000149133)
(-0.00047743 -0.000139961 -0.000104909)
(-0.000474527 -0.000218832 -7.64038e-05)
(-0.00057014 -0.000329332 -4.08376e-05)
(-0.000689226 -0.000429267 9.54665e-06)
(-0.000803639 -0.000497844 6.26324e-05)
(-0.000906327 -0.000538409 0.000110289)
(-0.000993483 -0.000557423 0.000149291)
(-0.00106497 -0.000563391 0.00017806)
(-0.00111461 -0.000560349 0.000196133)
(-0.00115051 -0.000556613 0.000206568)
(-0.00116829 -0.000551404 0.000210171)
(-0.00118228 -0.000550835 0.000210195)
(-0.00119296 -0.000555693 0.000207455)
(-0.00118479 -0.000557743 0.000200205)
(-0.00117219 -0.00056078 0.000190985)
(-0.00116668 -0.000568131 0.000180734)
(-0.00115736 -0.000575088 0.000166375)
(-0.00113974 -0.000581107 0.000146965)
(-0.00110828 -0.000580618 0.000122261)
(-0.00109608 -0.000583118 9.57051e-05)
(-0.00108315 -0.00058511 6.71724e-05)
(-0.00108036 -0.000587917 3.94556e-05)
(-0.00108311 -0.000590662 1.29367e-05)
(-0.000708975 -4.76107e-05 0.000161716)
(-0.000502568 -0.00011066 -0.000102854)
(-0.000455466 -0.000174171 -7.88512e-05)
(-0.000538826 -0.000277864 -5.29083e-05)
(-0.000659603 -0.000382048 -8.42951e-06)
(-0.000783259 -0.000458315 4.37024e-05)
(-0.000903587 -0.00050859 9.35384e-05)
(-0.000996717 -0.000528692 0.00013452)
(-0.0010746 -0.000535499 0.000165679)
(-0.00112972 -0.000533341 0.000186411)
(-0.00117134 -0.000530895 0.000199781)
(-0.00119366 -0.000526784 0.000206242)
(-0.00121076 -0.000526723 0.000208791)
(-0.00122135 -0.000531314 0.000207962)
(-0.00121109 -0.000533688 0.000202318)
(-0.00119607 -0.000537511 0.000194497)
(-0.00117902 -0.000541314 0.000183844)
(-0.00116486 -0.000547873 0.000169654)
(-0.00114331 -0.00055364 0.00014984)
(-0.00110693 -0.000553377 0.00012417)
(-0.00108917 -0.000554563 9.63718e-05)
(-0.00107517 -0.000557096 6.70684e-05)
(-0.00107262 -0.000560256 3.90435e-05)
(-0.00107604 -0.000562954 1.27197e-05)
(-0.000713813 -8.12981e-06 0.000186108)
(-0.000525153 -8.1842e-05 -9.89903e-05)
(-0.000440198 -0.000133756 -7.90515e-05)
(-0.000507755 -0.000230063 -6.2889e-05)
(-0.000624948 -0.000335549 -2.57397e-05)
(-0.000754867 -0.000417959 2.39133e-05)
(-0.000876205 -0.000468658 7.35133e-05)
(-0.000984565 -0.000494728 0.00011696)
(-0.00107364 -0.000504014 0.000151075)
(-0.00113765 -0.000503574 0.000175129)
(-0.00118475 -0.000501794 0.000191711)
(-0.00121191 -0.000498552 0.000201475)
(-0.00123078 -0.000498355 0.000206749)
(-0.00123985 -0.000502282 0.000208038)
(-0.00122675 -0.000504932 0.000204263)
(-0.00120525 -0.000508228 0.000197518)
(-0.00118729 -0.000514007 0.00018838)
(-0.00115908 -0.000516805 0.00017298)
(-0.00112976 -0.000521571 0.000152284)
(-0.00109041 -0.000522789 0.000125868)
(-0.00106801 -0.000523666 9.68465e-05)
(-0.00105233 -0.000526364 6.66686e-05)
(-0.00104911 -0.000529336 3.83548e-05)
(-0.00105276 -0.000531642 1.23917e-05)
(-0.000657466 2.76216e-05 0.000191042)
(-0.000541553 -5.31879e-05 -9.31565e-05)
(-0.000415822 -9.44482e-05 -7.46751e-05)
(-0.000455891 -0.000177236 -6.71143e-05)
(-0.000567966 -0.000281415 -4.0744e-05)
(-0.00070378 -0.000369829 3.4551e-06)
(-0.000846814 -0.000432377 5.26538e-05)
(-0.000963689 -0.000460595 9.74601e-05)
(-0.00106166 -0.000470433 0.000134248)
(-0.00113327 -0.000469872 0.000161579)
(-0.00118736 -0.00046859 0.000181864)
(-0.00121953 -0.000465947 0.000195404)
(-0.00124085 -0.000465864 0.000204064)
(-0.0012486 -0.000469479 0.000208023)
(-0.0012331 -0.000472954 0.000206629)
(-0.00120695 -0.00047707 0.000201554)
(-0.00117229 -0.000479324 0.000191597)
(-0.00113805 -0.000483452 0.000176419)
(-0.0011007 -0.000487903 0.000154799)
(-0.00105387 -0.00048863 0.000126983)
(-0.00102412 -0.000488314 9.64566e-05)
(-0.00100687 -0.000491039 6.55198e-05)
(-0.00100386 -0.000494109 3.71841e-05)
(-0.00100822 -0.000496181 1.18971e-05)
(-0.00063646 5.93474e-05 0.000201704)
(-0.000544422 -2.57351e-05 -8.54456e-05)
(-0.000400294 -6.20818e-05 -6.87263e-05)
(-0.00041094 -0.000132016 -6.7937e-05)
(-0.000508017 -0.000230619 -5.31379e-05)
(-0.000646243 -0.000323697 -1.65986e-05)
(-0.000786929 -0.000386269 2.92853e-05)
(-0.000921977 -0.000421905 7.48248e-05)
(-0.00103496 -0.000434956 0.000114566)
(-0.00111862 -0.000435271 0.000146021)
(-0.00118006 -0.000433409 0.000170585)
(-0.00121776 -0.000430532 0.000188496)
(-0.00124018 -0.000429779 0.000200825)
(-0.00124475 -0.000432888 0.000207692)
(-0.00122394 -0.000436732 0.00020866)
(-0.00118915 -0.000441316 0.000204996)
(-0.00115267 -0.00044746 0.000196994)
(-0.00109911 -0.000448711 0.00017991)
(-0.00104992 -0.000451877 0.000156684)
(-0.000998304 -0.000453409 0.000127681)
(-0.000962794 -0.00045317 9.57046e-05)
(-0.000943086 -0.000455323 6.38934e-05)
(-0.00093957 -0.000457904 3.56219e-05)
(-0.000944379 -0.000459526 1.12557e-05)
(-0.000631769 8.87401e-05 0.000212269)
(-0.000542675 -1.80789e-06 -7.74219e-05)
(-0.000371714 -3.36588e-05 -5.7919e-05)
(-0.000343296 -8.58086e-05 -5.99576e-05)
(-0.000423413 -0.000174389 -5.90471e-05)
(-0.000558709 -0.000268755 -3.43297e-05)
(-0.000724505 -0.000345277 5.56166e-06)
(-0.000869887 -0.000384599 5.01709e-05)
(-0.000995109 -0.000399601 9.222e-05)
(-0.00108958 -0.000399519 0.000127909)
(-0.00115969 -0.000396904 0.000157417)
(-0.00120259 -0.000393077 0.000180312)
(-0.00122653 -0.000391806 0.000197036)
(-0.00122818 -0.000394962 0.000207498)
(-0.00120333 -0.000400251 0.000211583)
(-0.00116058 -0.000406415 0.000209835)
(-0.00110116 -0.000409387 0.000200244)
(-0.00104043 -0.000413654 0.000183267)
(-0.000978652 -0.000416082 0.00015812)
(-0.000916434 -0.000415714 0.000126983)
(-0.000872863 -0.000414118 9.33724e-05)
(-0.000851461 -0.000415545 6.10365e-05)
(-0.00084834 -0.000417747 3.33039e-05)
(-0.000853985 -0.000419059 1.03618e-05)
(-0.000526399 9.54357e-05 0.00018257)
(-0.000525267 1.81087e-05 -6.82727e-05)
(-0.00035731 -1.29958e-05 -4.70662e-05)
(-0.000295118 -5.1907e-05 -4.98154e-05)
(-0.00034292 -0.000126112 -5.97381e-05)
(-0.000469495 -0.000219469 -4.94184e-05)
(-0.000624038 -0.000293265 -1.84076e-05)
(-0.000791471 -0.000342341 2.28992e-05)
(-0.000936515 -0.000362755 6.67934e-05)
(-0.00104742 -0.000364466 0.000107464)
(-0.0011273 -0.000360601 0.00014274)
(-0.00117612 -0.000355841 0.00017145)
(-0.00119985 -0.000353727 0.0001931)
(-0.00119638 -0.000356587 0.000207455)
(-0.00116252 -0.000362204 0.000214242)
(-0.00110755 -0.000369226 0.000213842)
(-0.0010444 -0.000377334 0.000206267)
(-0.000958854 -0.000378662 0.00018593)
(-0.000881782 -0.000379121 0.000158035)
(-0.000813155 -0.000377973 0.000125153)
(-0.000763695 -0.000375374 9.00556e-05)
(-0.000739717 -0.000375142 5.72217e-05)
(-0.000736551 -0.000376425 3.03349e-05)
(-0.000743063 -0.000377419 9.2479e-06)
(-0.000537399 0.000114875 0.000183998)
(-0.00049837 3.13521e-05 -5.88379e-05)
(-0.000320883 1.47499e-06 -3.16878e-05)
(-0.00021915 -2.25594e-05 -3.07661e-05)
(-0.000238742 -7.69019e-05 -4.89915e-05)
(-0.000344689 -0.000160712 -5.56926e-05)
(-0.000525741 -0.000249485 -4.15944e-05)
(-0.000703401 -0.000302536 -5.90823e-06)
(-0.00086457 -0.000326627 3.90583e-05)
(-0.000989487 -0.00032946 8.47124e-05)
(-0.00107995 -0.000324553 0.00012654)
(-0.00113377 -0.00031842 0.000161636)
(-0.0011577 -0.000315959 0.000188983)
(-0.00114865 -0.000319084 0.000207725)
(-0.00110734 -0.000326306 0.000217865)
(-0.00104006 -0.000335212 0.000219015)
(-0.000947728 -0.000339621 0.000208168)
(-0.00085436 -0.000343796 0.000187354)
(-0.000762919 -0.000341859 0.000156237)
(-0.000681899 -0.000335939 0.000120331)
(-0.000625786 -0.000330588 8.39409e-05)
(-0.000600955 -0.000328764 5.14529e-05)
(-0.000598845 -0.000329349 2.62589e-05)
(-0.000606414 -0.000330203 7.78377e-06)
(-0.00046955 0.000107862 0.000147788)
(-0.000469783 3.82876e-05 -4.92167e-05)
(-0.00030086 9.41438e-06 -1.70194e-05)
(-0.000178197 -6.59908e-06 -1.36281e-05)
(-0.000156859 -4.29783e-05 -3.42799e-05)
(-0.000231315 -0.00011347 -5.71455e-05)
(-0.000378004 -0.000189125 -5.89784e-05)
(-0.000584467 -0.000255733 -3.51901e-05)
(-0.000771888 -0.000287864 9.50819e-06)
(-0.000917773 -0.000294775 6.06413e-05)
(-0.00102 -0.000290004 0.000109682)
(-0.00107917 -0.000282974 0.000151899)
(-0.00110012 -0.000279874 0.000185009)
(-0.00108311 -0.000283462 0.000208155)
(-0.00102851 -0.000291336 0.000220698)
(-0.000943946 -0.000300331 0.000222104)
(-0.000845952 -0.000308778 0.000212546)
(-0.00072487 -0.00030718 0.000185844)
(-0.000617797 -0.000300358 0.000150374)
(-0.000532387 -0.000291285 0.0001126)
(-0.000473071 -0.000283082 7.55377e-05)
(-0.000446997 -0.000278585 4.38984e-05)
(-0.000445583 -0.000278057 2.11355e-05)
(-0.000454255 -0.000278986 5.99745e-06)
(-0.000477247 0.000107621 0.000123847)
(-0.000431701 3.84296e-05 -3.75944e-05)
(-0.000253395 1.06198e-05 -4.17221e-07)
(-8.79201e-05 7.65065e-07 3.91169e-06)
(-3.87965e-05 -9.98482e-06 -6.20478e-06)
(-8.3088e-05 -5.3691e-05 -3.69818e-05)
(-0.000251113 -0.000143965 -7.6707e-05)
(-0.00046061 -0.000211017 -6.45992e-05)
(-0.000670028 -0.000249574 -1.99473e-05)
(-0.000831563 -0.000259357 3.67161e-05)
(-0.000944454 -0.000255622 9.28565e-05)
(-0.00100725 -0.000248692 0.000142139)
(-0.00102633 -0.000246292 0.000181393)
(-0.000999657 -0.000250443 0.000208696)
(-0.000931969 -0.000259185 0.000223509)
(-0.000832393 -0.000268454 0.000225016)
(-0.000701601 -0.000269876 0.000208634)
(-0.000575204 -0.000268231 0.000180273)
(-0.000458183 -0.000255842 0.000140407)
(-0.000362731 -0.000237136 9.88613e-05)
(-0.000301888 -0.000223883 6.2247e-05)
(-0.000277646 -0.000217291 3.33565e-05)
(-0.000278333 -0.000216501 1.45161e-05)
(-0.000288112 -0.000218001 3.77776e-06)
(-0.000484863 9.89591e-05 8.74229e-05)
(-0.000400413 3.56632e-05 -2.53088e-05)
(-0.000219428 8.69514e-06 1.10277e-05)
(-4.88668e-05 -6.52625e-07 1.13955e-05)
(-1.1454e-06 -6.45151e-06 6.95612e-06)
(7.99957e-06 -1.19708e-05 -8.74999e-06)
(-6.0554e-05 -5.23007e-05 -5.11179e-05)
(-0.00030884 -0.000152115 -8.73697e-05)
(-0.0005488 -0.000205658 -4.58526e-05)
(-0.000734343 -0.000223136 1.56542e-05)
(-0.000858421 -0.000222111 7.80685e-05)
(-0.000923754 -0.00021653 0.000133869)
(-0.000934996 -0.000214567 0.000177991)
(-0.000896686 -0.000219307 0.000208556)
(-0.000813274 -0.000227801 0.000224053)
(-0.000691096 -0.000233632 0.000222004)
(-0.00055622 -0.000235752 0.000204904)
(-0.000405037 -0.000221861 0.000166337)
(-0.000280064 -0.00019904 0.000120838)
(-0.000192569 -0.000175478 7.95691e-05)
(-0.000136334 -0.000156849 4.50196e-05)
(-0.000114959 -0.000147114 2.02875e-05)
(-0.00011739 -0.000146229 6.63784e-06)
(-0.000127556 -0.000148967 1.20005e-06)
(-0.000478833 8.56228e-05 4.50428e-05)
(-0.000366163 3.15915e-05 -1.38317e-05)
(-0.000136418 4.49014e-06 1.86628e-05)
(-2.88574e-05 2.09486e-06 2.92915e-05)
(2.8905e-05 6.4121e-06 2.06897e-05)
(5.26268e-05 4.46141e-06 1.26963e-05)
(2.29478e-05 -8.8442e-06 -2.24783e-05)
(-0.00016085 -8.08505e-05 -8.76861e-05)
(-0.000427883 -0.000159021 -6.19169e-05)
(-0.000625902 -0.000184886 1.26988e-06)
(-0.000757827 -0.000187866 6.67365e-05)
(-0.000823136 -0.000184793 0.00012693)
(-0.000829907 -0.000185002 0.000175272)
(-0.000777544 -0.000190032 0.000207347)
(-0.000674763 -0.000196524 0.000220745)
(-0.000540758 -0.000200021 0.000215644)
(-0.000375759 -0.000187702 0.000184423)
(-0.000231226 -0.00016852 0.000143751)
(-0.000110615 -0.000133361 9.32112e-05)
(-2.78176e-05 -8.5162e-05 4.49357e-05)
(6.24821e-06 -5.40337e-05 1.63576e-05)
(1.39445e-05 -4.29347e-05 1.92072e-06)
(1.19217e-05 -4.6759e-05 -2.99331e-06)
(6.43872e-06 -5.38589e-05 -1.71651e-06)
(-0.000461206 7.76335e-05 7.89483e-06)
(-0.000327772 3.08458e-05 -2.64774e-06)
(-9.07022e-05 7.33035e-06 2.51155e-05)
(-1.0435e-05 1.73401e-05 3.28049e-05)
(4.78795e-05 2.75918e-05 3.07066e-05)
(6.41569e-05 1.01747e-05 2.2634e-05)
(6.478e-05 7.93881e-06 1.82735e-05)
(-2.09291e-05 -1.39614e-05 -2.57442e-05)
(-0.000288033 -0.000101696 -5.97828e-05)
(-0.000509866 -0.000146372 -3.76e-06)
(-0.000650724 -0.000154966 6.08366e-05)
(-0.000714491 -0.000155265 0.000122855)
(-0.000706992 -0.000156099 0.000171503)
(-0.000639498 -0.000160701 0.000202288)
(-0.000524244 -0.000165086 0.000212255)
(-0.000365491 -0.000157575 0.000194162)
(-0.000209047 -0.000140209 0.000159811)
(-5.50408e-05 -8.90814e-05 9.60516e-05)
(1.10062e-05 -1.87016e-05 2.61532e-05)
(3.54334e-05 -3.98661e-06 2.1255e-05)
(3.48308e-05 5.71518e-06 8.83176e-07)
(3.69231e-05 7.47367e-06 -1.28385e-05)
(4.91808e-05 7.7636e-06 -2.14253e-05)
(5.27081e-05 5.58531e-06 -1.02576e-05)
(-0.000427382 7.80708e-05 -1.66942e-05)
(-0.000299308 3.77742e-05 2.08166e-06)
(-8.33351e-05 1.81308e-05 3.29976e-05)
(-1.46065e-05 4.93108e-05 3.79842e-05)
(5.98919e-05 7.59184e-05 2.16224e-05)
(9.33707e-05 2.52368e-05 1.97145e-05)
(0.000100463 3.77054e-06 3.57317e-05)
(3.87632e-05 -3.21171e-06 1.45979e-05)
(-0.000167702 -5.35243e-05 -4.32093e-05)
(-0.000384992 -0.000109008 1.67995e-06)
(-0.000530164 -0.000122322 5.92431e-05)
(-0.000589902 -0.000126028 0.000119493)
(-0.000576847 -0.000129134 0.000167226)
(-0.000494319 -0.000132199 0.00019329)
(-0.000355053 -0.000128015 0.000190107)
(-0.000200525 -0.000113585 0.000164604)
(-3.45653e-05 -5.4683e-05 8.8503e-05)
(3.19409e-05 -6.89812e-06 6.8223e-05)
(3.15275e-05 1.2278e-05 4.05932e-05)
(3.71373e-05 1.53498e-05 2.4336e-05)
(6.36327e-05 2.41339e-05 2.30424e-06)
(5.30926e-05 2.11155e-05 -2.37538e-05)
(6.2904e-05 2.67573e-05 -3.83155e-05)
(3.96974e-05 1.7521e-05 -1.16765e-05)
(-0.000349226 8.04792e-05 -2.52955e-05)
(-0.000289474 4.9489e-05 -1.07851e-05)
(-8.42244e-05 2.74315e-05 2.53512e-05)
(-4.91381e-05 9.89e-05 4.34905e-05)
(3.05815e-05 0.000131899 -3.78279e-06)
(0.000119074 7.12373e-05 -2.09387e-05)
(9.78805e-05 1.1581e-07 1.33033e-05)
(5.69012e-05 -2.6314e-06 2.1954e-05)
(-3.6927e-05 -2.49428e-05 -5.03668e-06)
(-0.000262205 -7.40469e-05 7.9698e-06)
(-0.000410929 -9.44671e-05 6.1059e-05)
(-0.000465764 -9.99424e-05 0.000117432)
(-0.000432156 -0.000101254 0.000156871)
(-0.000332563 -9.96745e-05 0.000171316)
(-0.000196766 -8.95585e-05 0.000158768)
(-3.18246e-05 -3.49112e-05 8.00278e-05)
(1.56154e-05 2.41636e-06 5.35665e-05)
(3.74717e-05 2.13787e-05 9.86447e-05)
(7.35286e-05 1.86963e-05 0.000118845)
(9.64269e-05 1.85156e-06 7.38166e-05)
(0.000101373 -3.10703e-06 8.20139e-06)
(9.63875e-05 3.74925e-06 -4.33391e-05)
(8.17732e-05 1.30573e-05 -5.41342e-05)
(7.28484e-05 1.7612e-05 -2.45444e-05)
(-0.000202669 6.7924e-05 -9.99817e-06)
(-0.000260807 5.85526e-05 -3.94207e-05)
(-0.000150605 5.41623e-05 5.0847e-06)
(-8.58677e-05 9.63484e-05 1.16188e-05)
(-1.22662e-05 0.000136174 -2.92336e-05)
(7.70909e-05 9.90854e-05 -7.03469e-05)
(8.66233e-05 4.70297e-07 -2.41233e-05)
(8.59473e-05 -9.91976e-06 1.85217e-05)
(1.67095e-05 -1.05243e-05 1.18066e-05)
(-0.000148848 -4.48544e-05 1.25981e-05)
(-0.000283503 -6.78159e-05 6.10198e-05)
(-0.000327863 -7.3175e-05 0.000109244)
(-0.000291406 -7.4788e-05 0.000141419)
(-0.000184671 -6.69779e-05 0.000140842)
(-3.0639e-05 -2.08738e-05 6.4594e-05)
(1.12364e-05 7.19728e-06 8.94652e-05)
(2.67258e-05 2.38038e-05 0.000149303)
(7.09929e-05 7.2121e-07 0.000210074)
(0.000105541 -3.84763e-05 0.000159877)
(0.000125187 -5.92157e-05 8.64766e-05)
(0.000125387 -6.07865e-05 9.56904e-06)
(0.000107951 -4.48053e-05 -4.80957e-05)
(8.97545e-05 -2.69892e-05 -6.35779e-05)
(7.72622e-05 -1.64295e-05 -2.91307e-05)
(-4.60694e-05 2.94213e-05 1.65215e-05)
(-0.000142362 4.52902e-05 -4.92274e-05)
(-0.000148688 5.76114e-05 -4.0191e-05)
(-0.000113199 8.26388e-05 -3.25597e-05)
(-5.77954e-05 0.00010917 -6.21451e-05)
(2.11243e-05 8.14879e-05 -0.000104681)
(6.69815e-05 -7.01471e-06 -6.0686e-05)
(7.42869e-05 -1.67343e-05 -4.81505e-06)
(4.26302e-05 -5.14857e-06 1.36672e-05)
(-5.53838e-05 -2.44713e-05 1.59318e-05)
(-0.00017639 -4.52011e-05 5.88484e-05)
(-0.000208096 -5.0768e-05 9.86212e-05)
(-0.000143148 -4.33629e-05 0.000104714)
(-2.45202e-05 -1.03635e-05 4.41844e-05)
(-1.55206e-06 7.19472e-06 7.23674e-05)
(8.81745e-06 2.8502e-05 0.000198662)
(4.82222e-05 -8.10422e-06 0.000276662)
(0.000104517 -6.47284e-05 0.000250773)
(0.00015634 -0.000104915 0.000190083)
(0.000180546 -0.000117917 0.000102068)
(0.00016772 -0.000110008 1.06386e-05)
(0.000128802 -8.54643e-05 -5.28294e-05)
(9.34633e-05 -6.01732e-05 -6.60236e-05)
(7.60165e-05 -4.74775e-05 -3.02748e-05)
(1.19374e-05 7.14859e-07 1.3622e-05)
(-2.62357e-05 2.09411e-05 -2.43577e-05)
(-7.79421e-05 3.84194e-05 -4.63006e-05)
(-9.32194e-05 5.36301e-05 -5.34156e-05)
(-7.49757e-05 6.74914e-05 -8.091e-05)
(-2.29296e-05 3.03157e-05 -0.000110314)
(3.05643e-05 -2.67897e-05 -5.15726e-05)
(3.91071e-05 -1.49681e-05 -6.51327e-06)
(3.05772e-05 1.15257e-06 2.74376e-06)
(-8.24417e-06 -9.15888e-06 1.19142e-05)
(-6.70572e-05 -1.96762e-05 3.82899e-05)
(-7.11271e-05 -2.00369e-05 5.65204e-05)
(-2.65786e-05 -6.83261e-06 4.672e-05)
(-1.09875e-05 1.05091e-05 7.84546e-05)
(-1.07998e-05 2.70622e-05 0.000175467)
(1.47163e-05 -4.08511e-06 0.000329718)
(8.74625e-05 -6.95463e-05 0.000337785)
(0.000179509 -0.000125374 0.000313606)
(0.000250188 -0.00014675 0.000229876)
(0.00026794 -0.000144799 0.000118494)
(0.000236403 -0.000133927 1.12171e-05)
(0.000165568 -0.000108032 -5.88649e-05)
(0.000105478 -7.80695e-05 -6.88127e-05)
(7.75885e-05 -6.14028e-05 -3.00744e-05)
(1.99828e-05 -6.61707e-06 1.0169e-05)
(6.77544e-06 2.11442e-06 -9.57713e-07)
(-2.92981e-05 1.79225e-05 -1.93471e-05)
(-6.01259e-05 2.44021e-05 -3.73816e-05)
(-6.09126e-05 1.51907e-05 -6.18497e-05)
(-1.81809e-05 -2.4678e-05 -6.1902e-05)
(1.68783e-05 -2.78487e-05 -1.70338e-05)
(3.37509e-05 -1.45512e-05 3.3357e-06)
(3.0906e-05 6.05732e-06 6.10573e-06)
(1.66649e-05 4.04354e-06 5.79737e-06)
(-8.75842e-06 -3.55527e-06 1.83194e-05)
(-1.765e-05 4.39442e-07 4.66527e-05)
(-1.61404e-05 1.41593e-05 7.6139e-05)
(-2.33175e-05 2.43373e-05 0.000143167)
(-2.58915e-05 8.3307e-06 0.000353676)