/*--------------------------------*- C++ -*----------------------------------*\
  =========                 |
  \\      /  F ield         | OpenFOAM: The Open Source CFD Toolbox
   \\    /   O peration     | Website:  https://openfoam.org
    \\  /    A nd           | Version:  6
     \\/     M anipulation  |
\*---------------------------------------------------------------------------*/
FoamFile
{
    version     2.0;
    format      ascii;
    class       volVectorField;
    location    "40";
    object      wallShearStress;
}
// * * * * * * * * * * * * * * * * * * * * * * * * * * * * * * * * * * * * * //

dimensions      [0 2 -2 0 0 0 0];

internalField   uniform (0 0 0);

boundaryField
{
    inlet
    {
        type            calculated;
        value           uniform (0 0 0);
    }
    outlet
    {
        type            calculated;
        value           uniform (0 0 0);
    }
    roughCylinder
    {
        type            calculated;
        value           nonuniform List<vector> 
5120
(
(-0.000427955 -0.000616198 -0.000322479)
(-0.000383251 -0.000553196 -3.84854e-05)
(-0.000344913 -0.000539833 1.61129e-06)
(-0.000383515 -0.00060312 4.92718e-05)
(-0.000450377 -0.000681739 0.000104543)
(-0.000520846 -0.000742066 0.000156926)
(-0.000592125 -0.000782013 0.000203131)
(-0.00065988 -0.000803749 0.000241894)
(-0.000721594 -0.000811226 0.000272453)
(-0.000777205 -0.000812042 0.000295601)
(-0.00082772 -0.000813451 0.000313349)
(-0.000870269 -0.000816031 0.000324931)
(-0.000906129 -0.00082287 0.000330678)
(-0.000936783 -0.00083408 0.000331616)
(-0.000963254 -0.000849052 0.000328879)
(-0.000987174 -0.000867017 0.000323574)
(-0.00100999 -0.00088711 0.000316519)
(-0.00103313 -0.000908953 0.00030832)
(-0.00105729 -0.000932141 0.0002992)
(-0.00108282 -0.000956543 0.000289236)
(-0.00110987 -0.000982119 0.000278416)
(-0.00113842 -0.00100883 0.00026667)
(-0.00116832 -0.00103656 0.000253886)
(-0.00119937 -0.00106515 0.000239908)
(-0.00123134 -0.00109434 0.000224494)
(-0.00126383 -0.00112376 0.000207278)
(-0.00129636 -0.00115293 0.000187709)
(-0.00132823 -0.00118117 0.000165038)
(-0.00135843 -0.00120756 0.000138137)
(-0.00138546 -0.00123081 0.000105848)
(-0.00140657 -0.00124921 6.64564e-05)
(-0.00141812 -0.00125994 2.22227e-05)
(-0.000555634 -0.000727525 -0.000379727)
(-0.000424296 -0.000559924 -4.33886e-05)
(-0.000370978 -0.00053208 -4.40846e-06)
(-0.000403128 -0.000585991 4.00431e-05)
(-0.000471046 -0.000664443 9.325e-05)
(-0.000543505 -0.000726557 0.000144357)
(-0.00061674 -0.000768723 0.000189719)
(-0.000686853 -0.000793145 0.000228066)
(-0.000751881 -0.000804431 0.000258944)
(-0.000811805 -0.000809516 0.000283375)
(-0.000866016 -0.000813171 0.000302501)
(-0.000911992 -0.000815497 0.000315269)
(-0.000949578 -0.000821017 0.000321615)
(-0.000981751 -0.000831204 0.000322849)
(-0.00100976 -0.000845527 0.000320345)
(-0.00103505 -0.00086298 0.00031517)
(-0.0010594 -0.000882882 0.000308287)
(-0.00108382 -0.000904402 0.000300199)
(-0.00110928 -0.000927319 0.000291241)
(-0.00113622 -0.000951506 0.000281514)
(-0.00116474 -0.000976874 0.000270997)
(-0.00119478 -0.00100333 0.000259606)
(-0.0012262 -0.00103078 0.00024723)
(-0.00125879 -0.00105905 0.000233709)
(-0.00129227 -0.00108787 0.000218788)
(-0.00132626 -0.0011169 0.000202109)
(-0.00136025 -0.00114566 0.00018312)
(-0.00139352 -0.00117348 0.00016108)
(-0.001425 -0.00119947 0.000134873)
(-0.00145314 -0.00122236 0.000103371)
(-0.00147512 -0.00124048 6.48939e-05)
(-0.00148715 -0.00125101 2.16897e-05)
(-0.000593001 -0.000696003 -0.000357361)
(-0.000445511 -0.000536612 -4.62343e-05)
(-0.000391199 -0.000510497 -1.09508e-05)
(-0.000421337 -0.000562702 3.01034e-05)
(-0.000490032 -0.000640886 8.0992e-05)
(-0.000564072 -0.000704234 0.00013065)
(-0.000639132 -0.000748554 0.000175144)
(-0.000711989 -0.000776359 0.000213347)
(-0.000780837 -0.000792056 0.000244954)
(-0.000844792 -0.00080101 0.000270604)
(-0.000902647 -0.000806913 0.000290768)
(-0.000952349 -0.000810288 0.000304674)
(-0.00099202 -0.000814127 0.000311556)
(-0.00102582 -0.000823281 0.000313174)
(-0.00105533 -0.000836668 0.00031091)
(-0.00108221 -0.000853537 0.000305969)
(-0.00110776 -0.000872752 0.000299206)
(-0.00113367 -0.000893915 0.000291338)
(-0.00116059 -0.000916507 0.000282633)
(-0.00118892 -0.000940285 0.000273185)
(-0.0012188 -0.000965181 0.000262995)
(-0.00125026 -0.000991161 0.000251994)
(-0.00128311 -0.0010181 0.000240063)
(-0.00131715 -0.00104581 0.000227035)
(-0.0013521 -0.00107407 0.000212658)
(-0.00138754 -0.00110251 0.000196563)
(-0.00142291 -0.00113066 0.000178201)
(-0.00145748 -0.00115787 0.000156837)
(-0.00149016 -0.00118328 0.000131377)
(-0.00151934 -0.00120564 0.000100717)
(-0.00154213 -0.00122335 6.32227e-05)
(-0.0015546 -0.00123362 2.11209e-05)
(-0.000639338 -0.000673486 -0.000330258)
(-0.000481129 -0.000524218 -5.11487e-05)
(-0.000413314 -0.000490207 -1.80815e-05)
(-0.000435127 -0.000533435 1.97542e-05)
(-0.00050371 -0.000610373 6.79516e-05)
(-0.000579536 -0.000675376 0.000115963)
(-0.000657032 -0.000722715 0.000159584)
(-0.000732973 -0.000754452 0.000197708)
(-0.000805381 -0.000774418 0.000230016)
(-0.000873362 -0.000787269 0.000256894)
(-0.000934867 -0.000795431 0.000278082)
(-0.000987785 -0.000799985 0.000292809)
(-0.00103109 -0.000803468 0.000300629)
(-0.00106656 -0.000811025 0.000302686)
(-0.00109782 -0.000823398 0.000300762)
(-0.00112612 -0.000839326 0.000296067)
(-0.00115346 -0.000858096 0.000289636)
(-0.00118069 -0.000878621 0.000282002)
(-0.00120888 -0.000900581 0.000273557)
(-0.00123859 -0.00092383 0.000264447)
(-0.00126993 -0.000948229 0.00025466)
(-0.00130281 -0.000973638 0.000244107)
(-0.0013371 -0.000999961 0.000232671)
(-0.00137256 -0.00102702 0.000220182)
(-0.00140886 -0.00105455 0.000206375)
(-0.0014456 -0.00108222 0.000190889)
(-0.00148223 -0.00110959 0.000173175)
(-0.001518 -0.00113604 0.000152509)
(-0.00155176 -0.00116072 0.000127815)
(-0.00158187 -0.00118242 9.80149e-05)
(-0.00160537 -0.00119961 6.15237e-05)
(-0.00161823 -0.00120956 2.05439e-05)
(-0.000634909 -0.000596636 -0.000276169)
(-0.000488058 -0.000480885 -5.31392e-05)
(-0.000427131 -0.000459232 -2.48855e-05)
(-0.000445081 -0.00050028 9.31532e-06)
(-0.000512859 -0.000575594 5.45526e-05)
(-0.000589969 -0.000641659 0.000100615)
(-0.00066933 -0.000691397 0.000143051)
(-0.000748184 -0.000726892 0.000180925)
(-0.000824549 -0.000751445 0.000213946)
(-0.000896178 -0.000767787 0.000241876)
(-0.000961223 -0.000778153 0.000264088)
(-0.00101784 -0.00078423 0.000279707)
(-0.0010649 -0.000788222 0.000288498)
(-0.0011033 -0.000794319 0.000291317)
(-0.00113629 -0.000805357 0.000289861)
(-0.00116653 -0.000820393 0.000285603)
(-0.00119508 -0.000838023 0.000279434)
(-0.00122389 -0.000857882 0.000272171)
(-0.00125367 -0.000879297 0.000264129)
(-0.00128474 -0.000901872 0.000255416)
(-0.00131733 -0.000925494 0.000246052)
(-0.00135148 -0.000950116 0.000235976)
(-0.00138702 -0.000975607 0.000225064)
(-0.00142372 -0.00100179 0.000213138)
(-0.00146126 -0.00102843 0.000199939)
(-0.00149921 -0.00105519 0.000185095)
(-0.00153698 -0.00108163 0.000168056)
(-0.00157379 -0.00110714 0.000148107)
(-0.0016085 -0.00113093 0.000124196)
(-0.00163943 -0.00115184 9.52746e-05)
(-0.00166357 -0.00116841 5.9803e-05)
(-0.00167673 -0.00117799 1.99603e-05)
(-0.000676601 -0.000562128 -0.000249284)
(-0.000507794 -0.00045585 -5.51195e-05)
(-0.000437792 -0.000425481 -3.13484e-05)
(-0.00044829 -0.000461777 -1.1766e-06)
(-0.000514617 -0.000535138 4.06786e-05)
(-0.000593053 -0.000602389 8.44338e-05)
(-0.000675124 -0.000655415 0.000125587)
(-0.000757503 -0.000695121 0.000163165)
(-0.000837149 -0.000723367 0.000196568)
(-0.000912578 -0.000743087 0.00022544)
(-0.000981388 -0.000755771 0.000248701)
(-0.00104142 -0.000763043 0.000265195)
(-0.00109248 -0.00076807 0.000274964)
(-0.00113481 -0.000773741 0.000278813)
(-0.0011703 -0.000782953 0.000278076)
(-0.00120214 -0.000796439 0.000274284)
(-0.00123291 -0.000813373 0.000268706)
(-0.00126319 -0.000832243 0.00026187)
(-0.00129416 -0.000852626 0.000254226)
(-0.00132657 -0.000874346 0.000245982)
(-0.00136059 -0.000897188 0.000237146)
(-0.00139608 -0.000920963 0.000227626)
(-0.00143291 -0.000945543 0.000217301)
(-0.00147084 -0.000970757 0.000205993)
(-0.00150949 -0.000996345 0.000193429)
(-0.00154848 -0.00102202 0.000179245)
(-0.00158722 -0.00104734 0.000162897)
(-0.00162495 -0.00107178 0.000143681)
(-0.00166047 -0.00109454 0.000120561)
(-0.00169209 -0.00111452 9.25231e-05)
(-0.00171676 -0.00113037 5.80791e-05)
(-0.00173018 -0.00113953 1.93775e-05)
(-0.000609104 -0.000453328 -0.000179561)
(-0.000521377 -0.000416284 -5.82262e-05)
(-0.000445479 -0.000392323 -3.8123e-05)
(-0.000447319 -0.000422373 -1.1202e-05)
(-0.000510911 -0.00049256 2.69095e-05)
(-0.00059005 -0.000560496 6.79182e-05)
(-0.000673575 -0.000615575 0.00010726)
(-0.000758334 -0.000658343 0.000144049)
(-0.000842121 -0.000690787 0.000177778)
(-0.000921311 -0.000713575 0.00020737)
(-0.000993713 -0.000728305 0.000231542)
(-0.00105804 -0.000737349 0.000249195)
(-0.0011129 -0.000743144 0.000259971)
(-0.00115943 -0.000749205 0.000264917)
(-0.00119864 -0.000757354 0.000265193)
(-0.00123342 -0.00076936 0.000262283)
(-0.0012655 -0.000784277 0.000257187)
(-0.00129754 -0.000801991 0.000250953)
(-0.00133034 -0.000821567 0.000243931)
(-0.00136417 -0.000842321 0.000236251)
(-0.00139931 -0.000864061 0.000227961)
(-0.0014359 -0.000886719 0.000219025)
(-0.00147377 -0.000910153 0.000209315)
(-0.00151268 -0.000934165 0.000198648)
(-0.00155234 -0.000958574 0.000186761)
(-0.00159226 -0.000983029 0.000173276)
(-0.00163184 -0.00100713 0.000157648)
(-0.0016703 -0.00103034 0.000139181)
(-0.00170651 -0.00105196 0.000116871)
(-0.00173871 -0.00107092 8.97344e-05)
(-0.0017638 -0.00108597 5.63352e-05)
(-0.00177738 -0.00109465 1.87897e-05)
(-0.000648934 -0.000429449 -0.000147589)
(-0.000523813 -0.000371626 -6.0666e-05)
(-0.000444092 -0.000353728 -4.36862e-05)
(-0.0004372 -0.000378373 -2.06703e-05)
(-0.000497141 -0.000445004 1.30799e-05)
(-0.00057635 -0.000513118 5.07157e-05)
(-0.000662332 -0.000571202 8.79314e-05)
(-0.000751133 -0.000618333 0.000123832)
(-0.000837937 -0.000653809 0.00015734)
(-0.000921048 -0.000679555 0.000187448)
(-0.000997922 -0.000696789 0.000212591)
(-0.00106597 -0.000707074 0.000231273)
(-0.00112538 -0.000714043 0.000243368)
(-0.00117574 -0.0007202 0.000249447)
(-0.00121913 -0.000728175 0.000250927)
(-0.0012568 -0.000738656 0.000248939)
(-0.00129258 -0.000752685 0.000244969)
(-0.00132665 -0.000768907 0.000239522)
(-0.00136061 -0.000786835 0.000233098)
(-0.00139577 -0.000806282 0.000226057)
(-0.00143237 -0.000826923 0.000218457)
(-0.00147025 -0.000848441 0.00021021)
(-0.00150928 -0.000870691 0.000201196)
(-0.00154925 -0.000893487 0.000191238)
(-0.00158974 -0.00091656 0.000180055)
(-0.00163038 -0.000939659 0.000167285)
(-0.00167061 -0.000962401 0.000152389)
(-0.00170967 -0.000984285 0.000134684)
(-0.00174638 -0.00100462 0.000113186)
(-0.00177899 -0.00102244 8.69496e-05)
(-0.00180438 -0.0010366 5.45984e-05)
(-0.00181805 -0.00104484 1.82068e-05)
(-0.000712906 -0.000412493 -0.000128085)
(-0.000530729 -0.000339719 -6.18177e-05)
(-0.00044268 -0.000317504 -4.90598e-05)
(-0.000423482 -0.000335732 -2.97344e-05)
(-0.000476925 -0.00039714 -4.62742e-07)
(-0.000555851 -0.000465093 3.34437e-05)
(-0.000642443 -0.000524477 6.79153e-05)
(-0.000732172 -0.00057331 0.000102046)
(-0.00082336 -0.000612739 0.000135171)
(-0.000910803 -0.000641548 0.000165549)
(-0.000991528 -0.000660677 0.000191354)
(-0.00106483 -0.000673077 0.000211355)
(-0.00112849 -0.000680859 0.000224795)
(-0.0011837 -0.000687622 0.000232401)
(-0.0012307 -0.000695033 0.000235128)
(-0.00127282 -0.00070519 0.000234532)
(-0.00131064 -0.000717569 0.0002315)
(-0.00134714 -0.000732403 0.000227032)
(-0.00138368 -0.000749253 0.00022159)
(-0.00142064 -0.000767443 0.000215394)
(-0.00145838 -0.000786627 0.000208538)
(-0.00149723 -0.000806715 0.000201029)
(-0.00153709 -0.000827519 0.000192754)
(-0.00157776 -0.000848845 0.000183536)
(-0.00161895 -0.000870505 0.000173114)
(-0.00166019 -0.000892173 0.000161108)
(-0.0017009 -0.00091348 0.00014698)
(-0.00174034 -0.000933949 0.000130062)
(-0.00177741 -0.000952962 0.000109405)
(-0.00181036 -0.000969604 8.41006e-05)
(-0.00183595 -0.000982844 5.28284e-05)
(-0.00184947 -0.000990552 1.76146e-05)
(-0.000579013 -0.000296007 -7.45749e-05)
(-0.000504954 -0.00028537 -6.06513e-05)
(-0.000424582 -0.000274056 -5.26781e-05)
(-0.000398561 -0.000289533 -3.74879e-05)
(-0.000444458 -0.000345013 -1.32501e-05)
(-0.000520715 -0.00041097 1.60432e-05)
(-0.000608705 -0.000472347 4.71021e-05)
(-0.000703494 -0.000526037 7.93011e-05)
(-0.000797356 -0.000568009 0.000111251)
(-0.000888746 -0.000599507 0.000141463)
(-0.000975136 -0.0006216 0.000168038)
(-0.00105258 -0.000635204 0.00018906)
(-0.00112172 -0.000644337 0.00020413)
(-0.00118117 -0.000651157 0.000213297)
(-0.0012332 -0.000658667 0.000217748)
(-0.001278 -0.00066744 0.000218416)
(-0.0013201 -0.000679284 0.000216877)
(-0.00135933 -0.000692874 0.00021358)
(-0.00139728 -0.000707994 0.00020908)
(-0.00143572 -0.000724699 0.000203826)
(-0.00147513 -0.000742656 0.000197926)
(-0.00151534 -0.000761462 0.000191319)
(-0.0015563 -0.000780928 0.000183912)
(-0.0015978 -0.000800854 0.000175536)
(-0.00163948 -0.000820983 0.000165923)
(-0.00168103 -0.000841092 0.000154716)
(-0.00172194 -0.000860856 0.000141389)
(-0.00176155 -0.00087985 0.000125292)
(-0.00179873 -0.000897478 0.000105504)
(-0.00183177 -0.000912898 8.11599e-05)
(-0.00185736 -0.000925169 5.10032e-05)
(-0.00187066 -0.000932277 1.70057e-05)
(-0.000542943 -0.000241155 -4.60138e-05)
(-0.000476798 -0.000238811 -5.96583e-05)
(-0.000406315 -0.000235345 -5.57853e-05)
(-0.000369284 -0.000245763 -4.40983e-05)
(-0.000405213 -0.000294146 -2.47841e-05)
(-0.000479535 -0.000358598 -5.77115e-07)
(-0.000567023 -0.000420378 2.63425e-05)
(-0.00065974 -0.00047359 5.52839e-05)
(-0.000758156 -0.000519475 8.56532e-05)
(-0.000854818 -0.000554525 0.000115371)
(-0.000945151 -0.000578422 0.000142129)
(-0.00102921 -0.000594609 0.000164466)
(-0.00110326 -0.000604547 0.000181075)
(-0.00116872 -0.000612168 0.000192242)
(-0.00122466 -0.000618953 0.000198415)
(-0.00127515 -0.000627709 0.000201074)
(-0.00131931 -0.000637697 0.000200852)
(-0.00136103 -0.00064979 0.000198878)
(-0.00140205 -0.000663887 0.000195731)
(-0.00144252 -0.000679257 0.000191626)
(-0.00148287 -0.000695526 0.000186696)
(-0.00152376 -0.000712648 0.000181014)
(-0.00156516 -0.00073041 0.0001745)
(-0.00160698 -0.000748646 0.000167003)
(-0.00164896 -0.000767161 0.00015827)
(-0.00169067 -0.000785665 0.00014793)
(-0.00173158 -0.000803831 0.000135462)
(-0.00177104 -0.000821256 0.000120231)
(-0.0018081 -0.000837444 0.000101365)
(-0.00184104 -0.00085161 7.80416e-05)
(-0.00186648 -0.000862872 4.90697e-05)
(-0.00187944 -0.000869335 1.63616e-05)
(-0.000518155 -0.000196146 -2.62578e-05)
(-0.000436698 -0.000195649 -5.65175e-05)
(-0.000371466 -0.000192476 -5.65278e-05)
(-0.000330923 -0.000201798 -4.87988e-05)
(-0.000352722 -0.000240496 -3.41929e-05)
(-0.000419465 -0.000299198 -1.57929e-05)
(-0.000505695 -0.000360764 5.89655e-06)
(-0.000605671 -0.000420164 3.11042e-05)
(-0.000706011 -0.000468182 5.87775e-05)
(-0.000806127 -0.00050572 8.71897e-05)
(-0.000903772 -0.00053354 0.000114191)
(-0.000992355 -0.000551016 0.00013732)
(-0.00107318 -0.000562646 0.000155737)
(-0.00114335 -0.000570163 0.000168795)
(-0.00120573 -0.000577266 0.000177283)
(-0.00125878 -0.000584245 0.000181663)
(-0.00130833 -0.000593778 0.000183503)
(-0.00135354 -0.000604651 0.000183196)
(-0.00139585 -0.000616732 0.00018132)
(-0.0014377 -0.000630345 0.000178434)
(-0.0014799 -0.000645246 0.000174728)
(-0.00152221 -0.000660956 0.000170178)
(-0.00156469 -0.00067727 0.000164725)
(-0.00160709 -0.000693939 0.000158218)
(-0.00164919 -0.000710771 0.000150416)
(-0.00169073 -0.000727554 0.000140975)
(-0.00173132 -0.000744035 0.000129391)
(-0.00177047 -0.00075988 0.000115057)
(-0.00180714 -0.000774571 9.71317e-05)
(-0.00183971 -0.000787427 7.48488e-05)
(-0.0018648 -0.000797649 4.70915e-05)
(-0.00187736 -0.000803461 1.57052e-05)
(-0.000448011 -0.000145919 -6.41255e-06)
(-0.000393966 -0.000155358 -5.38345e-05)
(-0.000332698 -0.00015473 -5.62657e-05)
(-0.000284791 -0.000159541 -5.07829e-05)
(-0.000295078 -0.000189955 -4.07413e-05)
(-0.000356465 -0.000244405 -2.87717e-05)
(-0.000441176 -0.000305421 -1.31062e-05)
(-0.000532846 -0.000360411 6.98895e-06)
(-0.000638007 -0.000412783 3.11809e-05)
(-0.000744773 -0.000455049 5.76849e-05)
(-0.000845798 -0.000484678 8.39078e-05)
(-0.000942731 -0.000505742 0.000108008)
(-0.00102908 -0.000518373 0.000127943)
(-0.00110688 -0.000527136 0.000143371)
(-0.00117331 -0.00053321 0.000153994)
(-0.00123385 -0.000540473 0.00016102)
(-0.00128552 -0.000547832 0.000164678)
(-0.00133328 -0.00055689 0.000166132)
(-0.00137948 -0.000567927 0.000166058)
(-0.00142383 -0.000580128 0.000164681)
(-0.00146681 -0.000593103 0.0001622)
(-0.00150946 -0.000606872 0.000158773)
(-0.00155188 -0.00062123 0.000154368)
(-0.00159425 -0.000636073 0.000148891)
(-0.00163622 -0.000651147 0.00014209)
(-0.00167747 -0.000666226 0.000133622)
(-0.00171757 -0.000681024 0.000122982)
(-0.00175601 -0.000695206 0.000109583)
(-0.00179206 -0.000708395 9.26518e-05)
(-0.00182409 -0.000719945 7.14711e-05)
(-0.00184868 -0.000729117 4.50028e-05)
(-0.00186066 -0.000734252 1.50144e-05)
(-0.000327311 -9.09687e-05 9.24299e-06)
(-0.000323478 -0.000110877 -4.8962e-05)
(-0.000283627 -0.00011917 -5.47109e-05)
(-0.000237469 -0.000122934 -5.13179e-05)
(-0.000224558 -0.000137841 -4.24907e-05)
(-0.000270967 -0.000180978 -3.64954e-05)
(-0.000348599 -0.000237384 -2.80023e-05)
(-0.000453174 -0.000302106 -1.5018e-05)
(-0.000557516 -0.000355391 4.01234e-06)
(-0.000665848 -0.000399769 2.73291e-05)
(-0.000776473 -0.000435236 5.25109e-05)
(-0.000877689 -0.00045796 7.66609e-05)
(-0.000972403 -0.000473257 9.82231e-05)
(-0.00105502 -0.000481966 0.00011564)
(-0.00112975 -0.000488905 0.000129051)
(-0.0011923 -0.000493919 0.0001382)
(-0.00125069 -0.000500936 0.00014449)
(-0.00130305 -0.000508845 0.000148158)
(-0.00135032 -0.000517537 0.000149726)
(-0.00139587 -0.00052769 0.000149878)
(-0.00144099 -0.000539195 0.000148921)
(-0.0014853 -0.000551504 0.000146882)
(-0.00152899 -0.00056441 0.000143758)
(-0.00157163 -0.000577572 0.000139418)
(-0.00161336 -0.000590903 0.000133675)
(-0.00165393 -0.000604196 0.000126197)
(-0.00169315 -0.000617264 0.000116513)
(-0.00173078 -0.000629846 0.000104071)
(-0.00176593 -0.000641523 8.81377e-05)
(-0.00179713 -0.000651751 6.80637e-05)
(-0.00182101 -0.000659862 4.28995e-05)
(-0.00183238 -0.000664361 1.43221e-05)
(-0.000190259 -4.32902e-05 1.6646e-05)
(-0.000228822 -6.78741e-05 -4.08439e-05)
(-0.000214448 -8.21438e-05 -4.99814e-05)
(-0.000178868 -8.69854e-05 -4.76354e-05)
(-0.000159084 -9.43654e-05 -3.98972e-05)
(-0.000190734 -0.00012549 -3.89757e-05)
(-0.000266723 -0.000180741 -3.97306e-05)
(-0.000347277 -0.000231809 -3.27727e-05)
(-0.000459091 -0.000292088 -2.05057e-05)
(-0.000576275 -0.000343507 -2.08102e-06)
(-0.000687888 -0.000380665 2.04625e-05)
(-0.000799651 -0.000409086 4.43533e-05)
(-0.000899761 -0.000426066 6.68051e-05)
(-0.000991995 -0.00043727 8.65137e-05)
(-0.00107022 -0.000443129 0.000102185)
(-0.00114261 -0.000449183 0.000114456)
(-0.00120289 -0.000453821 0.00012298)
(-0.0012575 -0.000459601 0.000128784)
(-0.00130969 -0.000467323 0.000132597)
(-0.00135845 -0.000476075 0.000134641)
(-0.00140412 -0.000485458 0.000135169)
(-0.0014483 -0.000495616 0.000134452)
(-0.00149119 -0.000506334 0.00013252)
(-0.00153352 -0.00051764 0.000129364)
(-0.00157461 -0.00052917 0.000124738)
(-0.00161443 -0.000540763 0.000118332)
(-0.00165263 -0.000552175 0.000109668)
(-0.00168893 -0.000563112 9.82175e-05)
(-0.00172292 -0.000573314 8.33376e-05)
(-0.00175312 -0.000582269 6.444e-05)
(-0.00177614 -0.000589358 4.06667e-05)
(-0.0017867 -0.000593212 1.35896e-05)
(-7.02597e-05 -1.18884e-05 1.29382e-05)
(-0.000128769 -3.43314e-05 -2.68979e-05)
(-0.000136471 -4.73002e-05 -4.04268e-05)
(-0.000122468 -5.5909e-05 -4.28413e-05)
(-6.7598e-05 -3.97824e-05 -2.37359e-05)
(-7.01659e-05 -4.68503e-05 -2.12986e-05)
(-0.000131763 -9.11739e-05 -3.15528e-05)
(-0.000252071 -0.000169711 -4.39107e-05)
(-0.000351778 -0.000225844 -4.09384e-05)
(-0.000466189 -0.000279379 -2.8413e-05)
(-0.000591281 -0.000326288 -9.99077e-06)
(-0.000705208 -0.000356948 1.21339e-05)
(-0.000815495 -0.000378809 3.50149e-05)
(-0.000911438 -0.000390548 5.6095e-05)
(-0.00100022 -0.000398776 7.44411e-05)
(-0.00107289 -0.000402378 8.88739e-05)
(-0.00114136 -0.000407231 0.000100326)
(-0.00120193 -0.000412253 0.00010875)
(-0.00125464 -0.00041742 0.000114492)
(-0.00130412 -0.000423902 0.000118321)
(-0.00135231 -0.000431832 0.000120657)
(-0.00139856 -0.000440598 0.000121583)
(-0.0014432 -0.000450014 0.000121162)
(-0.00148543 -0.000459614 0.000119283)
(-0.00152596 -0.000469464 0.000115837)
(-0.00156455 -0.000479335 0.000110506)
(-0.00160126 -0.000489087 0.000102856)
(-0.00163625 -0.000498538 9.24102e-05)
(-0.00166879 -0.000507318 7.85708e-05)
(-0.00169768 -0.000515015 6.08359e-05)
(-0.00171962 -0.000521107 3.84488e-05)
(-0.00172938 -0.000524404 1.28661e-05)
(-1.76676e-05 -7.16236e-07 1.23231e-05)
(-4.03927e-05 -9.58489e-06 -9.01757e-06)
(-5.07032e-05 -1.4585e-05 -2.2149e-05)
(-3.70597e-05 -1.61542e-05 -2.06554e-05)
(-3.96721e-05 -2.53679e-05 -2.2807e-05)
(-5.81875e-05 -4.44991e-05 -2.8181e-05)
(-5.78069e-05 -4.42972e-05 -2.14627e-05)
(-9.05511e-05 -6.38283e-05 -2.57178e-05)
(-0.000230049 -0.00015021 -4.85655e-05)
(-0.000352286 -0.000213849 -4.89031e-05)
(-0.000472073 -0.000262486 -3.62161e-05)
(-0.000600544 -0.000303577 -1.77331e-05)
(-0.00071414 -0.000328355 4.05871e-06)
(-0.00082197 -0.000345307 2.60527e-05)
(-0.000911891 -0.00035293 4.59352e-05)
(-0.000997433 -0.000359423 6.32294e-05)
(-0.00106667 -0.000362137 7.69003e-05)
(-0.00112841 -0.000365013 8.7539e-05)
(-0.00118724 -0.000369627 9.57847e-05)
(-0.00124087 -0.000374993 0.000101793)
(-0.0012892 -0.00038076 0.000105815)
(-0.00133457 -0.000387276 0.00010822)
(-0.00137731 -0.000394366 0.000109095)
(-0.00141889 -0.000402204 0.00010854)
(-0.00145818 -0.00041032 0.000106312)
(-0.00149551 -0.000418634 0.000102138)
(-0.00153065 -0.000426896 9.55717e-05)
(-0.0015636 -0.000434831 8.61594e-05)
(-0.00159442 -0.00044228 7.34265e-05)
(-0.00162185 -0.000448832 5.69431e-05)
(-0.00164256 -0.000454011 3.60558e-05)
(-0.00165124 -0.000456745 1.20865e-05)
(2.00883e-06 3.39057e-06 1.66758e-05)
(-2.34856e-06 6.44585e-07 -1.09185e-06)
(-7.3892e-06 -1.46368e-06 -1.21288e-05)
(-1.4527e-05 -1.04227e-05 -2.18153e-05)
(-1.7029e-05 -1.67076e-05 -2.08922e-05)
(-2.85485e-05 -3.11507e-05 -2.70658e-05)
(-4.28444e-05 -4.16309e-05 -2.84471e-05)
(-4.84351e-05 -3.9577e-05 -2.30951e-05)
(-7.22634e-05 -5.01196e-05 -2.44409e-05)
(-0.000218653 -0.000133726 -5.19854e-05)
(-0.000357014 -0.000199977 -5.59739e-05)
(-0.000478432 -0.000243425 -4.23112e-05)
(-0.000605253 -0.000277864 -2.37234e-05)
(-0.000713095 -0.000296516 -2.47554e-06)
(-0.000816571 -0.000309709 1.84041e-05)
(-0.000898212 -0.000313983 3.69968e-05)
(-0.000977164 -0.000318416 5.30984e-05)
(-0.00104645 -0.000321657 6.6249e-05)
(-0.00110446 -0.000323849 7.64183e-05)
(-0.00115767 -0.000326978 8.42682e-05)
(-0.00120893 -0.000331581 9.02646e-05)
(-0.00125695 -0.000337008 9.45044e-05)
(-0.00130219 -0.000343141 9.70911e-05)
(-0.00134336 -0.000349434 9.79313e-05)
(-0.00138179 -0.000356095 9.69893e-05)
(-0.00141725 -0.000362874 9.3954e-05)
(-0.00145023 -0.000369689 8.84394e-05)
(-0.0014814 -0.00037639 8.00645e-05)
(-0.00151024 -0.000382624 6.84033e-05)
(-0.00153586 -0.000388098 5.31327e-05)
(-0.00155512 -0.00039242 3.37164e-05)
(-0.00156284 -0.000394719 1.13292e-05)
(7.12998e-06 8.41192e-06 2.58224e-05)
(1.53772e-05 7.13595e-06 -1.4492e-06)
(1.87279e-05 4.90159e-06 -1.22512e-05)
(1.80384e-05 -2.98357e-06 -1.89245e-05)
(1.20728e-05 -1.18306e-05 -2.22134e-05)
(1.89873e-06 -2.01411e-05 -2.38085e-05)
(-1.19245e-05 -2.76241e-05 -2.53708e-05)
(-3.18684e-05 -3.60635e-05 -2.93639e-05)
(-6.13499e-05 -4.84325e-05 -3.4419e-05)
(-0.000117575 -7.46054e-05 -4.47025e-05)
(-0.000202657 -0.000114969 -5.21787e-05)
(-0.000356328 -0.000182348 -5.7609e-05)
(-0.000478139 -0.000220712 -4.51751e-05)
(-0.000601732 -0.000249936 -2.72714e-05)
(-0.000700396 -0.000263219 -7.1055e-06)
(-0.000799413 -0.000274074 1.23571e-05)
(-0.000876225 -0.000277187 2.97283e-05)
(-0.000944108 -0.000278802 4.45177e-05)
(-0.0010096 -0.000281565 5.69482e-05)
(-0.00106814 -0.000284403 6.69718e-05)
(-0.00111864 -0.000287095 7.46739e-05)
(-0.00116451 -0.000290396 8.04234e-05)
(-0.00120629 -0.000294275 8.43221e-05)
(-0.00124607 -0.000299015 8.65428e-05)
(-0.00128248 -0.000304174 8.6872e-05)
(-0.00131616 -0.000309696 8.50517e-05)
(-0.00134699 -0.000315322 8.06602e-05)
(-0.00137531 -0.000320763 7.33398e-05)
(-0.00140182 -0.00032592 6.2835e-05)
(-0.00142553 -0.000330472 4.8902e-05)
(-0.0014432 -0.000334052 3.11153e-05)
(-0.00144955 -0.000335899 1.04847e-05)
(1.63657e-05 1.22581e-05 3.14506e-05)
(2.92327e-05 1.13057e-05 -4.44803e-06)
(3.2883e-05 7.78081e-06 -1.2684e-05)
(3.22642e-05 1.2133e-06 -1.55435e-05)
(3.20936e-05 -6.53061e-06 -1.76565e-05)
(2.1994e-05 -1.19074e-05 -1.46469e-05)
(1.07911e-05 -1.4746e-05 -1.20715e-05)
(-1.55647e-06 -1.62584e-05 -1.18055e-05)
(-1.77143e-05 -1.91092e-05 -1.64843e-05)
(-4.0753e-05 -2.82285e-05 -2.34581e-05)
(-9.83246e-05 -5.59832e-05 -3.72526e-05)
(-0.00020504 -0.000104385 -5.22225e-05)
(-0.000353876 -0.000164019 -5.7601e-05)
(-0.000467465 -0.000195629 -4.49999e-05)
(-0.000585711 -0.000220499 -2.8715e-05)
(-0.000671908 -0.000229085 -1.00812e-05)
(-0.000760696 -0.000236908 7.68189e-06)
(-0.000838086 -0.000241108 2.38078e-05)
(-0.000899915 -0.000242061 3.7567e-05)
(-0.000955634 -0.000243098 4.90672e-05)
(-0.00100939 -0.000245416 5.8608e-05)
(-0.00105869 -0.000248339 6.61951e-05)
(-0.0011037 -0.000251867 7.18661e-05)
(-0.00114329 -0.000255579 7.55578e-05)
(-0.00117855 -0.00025969 7.72252e-05)
(-0.00120964 -0.000264027 7.65597e-05)
(-0.00123756 -0.000268552 7.32199e-05)
(-0.00126373 -0.000273128 6.69491e-05)
(-0.00128777 -0.000277389 5.75339e-05)
(-0.0013092 -0.000281123 4.48601e-05)
(-0.00132508 -0.000284054 2.86314e-05)
(-0.00133043 -0.00028561 9.6845e-06)
(2.60942e-05 1.33759e-05 3.34816e-05)
(5.24334e-05 1.54754e-05 -6.16949e-06)
(6.75157e-05 1.25518e-05 -1.85847e-05)
(6.98621e-05 3.9409e-06 -2.33351e-05)
(5.54882e-05 -5.55855e-06 -2.03148e-05)
(5.23626e-05 -1.54697e-05 -1.97202e-05)
(3.5317e-05 -1.96549e-05 -1.30426e-05)
(2.07326e-05 -2.14202e-05 -7.95832e-06)
(4.24148e-06 -2.48198e-05 -9.55411e-06)
(-2.55224e-05 -2.44233e-05 -2.01773e-05)
(-6.55828e-05 -3.69019e-05 -3.48175e-05)
(-6.96145e-05 -3.55147e-05 -2.58065e-05)
(-0.000202987 -9.3311e-05 -4.95138e-05)
(-0.000346179 -0.000145938 -5.53554e-05)
(-0.000444963 -0.000169887 -4.30627e-05)
(-0.000558543 -0.000191834 -2.88396e-05)
(-0.000638561 -0.000198993 -1.19414e-05)
(-0.000709423 -0.000202414 4.30579e-06)
(-0.000780663 -0.000206145 1.91282e-05)
(-0.000843276 -0.000208541 3.21721e-05)
(-0.000894468 -0.000209622 4.30631e-05)
(-0.000939381 -0.000210854 5.19202e-05)
(-0.000979124 -0.000212574 5.8746e-05)
(-0.00101519 -0.000214973 6.36519e-05)
(-0.00104743 -0.000218005 6.65331e-05)
(-0.00107616 -0.000221536 6.70622e-05)
(-0.00110137 -0.000225303 6.48361e-05)
(-0.00112374 -0.000228947 5.96072e-05)
(-0.00114485 -0.000232454 5.13975e-05)
(-0.00116393 -0.000235561 4.01687e-05)
(-0.00117791 -0.000237969 2.5734e-05)
(-0.00118159 -0.000239171 8.74044e-06)
(3.33365e-05 1.35993e-05 3.48734e-05)
(7.1588e-05 1.81605e-05 -5.03086e-06)
(9.44825e-05 1.61776e-05 -2.01728e-05)
(0.000106182 7.50366e-06 -2.90884e-05)
(0.000106586 -5.30979e-06 -3.23535e-05)
(9.23272e-05 -1.7518e-05 -2.93003e-05)
(5.42347e-05 -2.02699e-05 -1.71227e-05)
(4.84171e-05 -3.09327e-05 -1.32577e-05)
(1.8429e-05 -2.03369e-05 -2.97791e-06)
(3.96636e-06 -2.14887e-05 -1.53601e-06)
(-1.8744e-05 -1.60337e-05 -1.08964e-05)
(-4.15458e-05 -2.15982e-05 -2.01158e-05)
(-6.83621e-05 -3.14012e-05 -2.38017e-05)
(-0.00018507 -7.92149e-05 -4.42186e-05)
(-0.000325867 -0.000126468 -5.09967e-05)
(-0.000405062 -0.000142737 -3.9852e-05)
(-0.000503863 -0.000160015 -2.71774e-05)
(-0.000587828 -0.00016952 -1.25651e-05)
(-0.00064946 -0.000172058 2.1948e-06)
(-0.000704761 -0.000173418 1.56889e-05)
(-0.000759548 -0.00017563 2.76796e-05)
(-0.000808972 -0.000177808 3.79512e-05)
(-0.000852026 -0.000180083 4.6276e-05)
(-0.000889848 -0.000182573 5.26377e-05)
(-0.000920667 -0.000185175 5.67813e-05)
(-0.000946024 -0.000187993 5.83845e-05)
(-0.000967544 -0.000191073 5.71379e-05)
(-0.000987683 -0.000194313 5.29379e-05)
(-0.00100599 -0.00019729 4.58158e-05)
(-0.0010224 -0.000199875 3.58823e-05)
(-0.00103435 -0.000201861 2.30846e-05)
(-0.00103719 -0.000202917 7.88541e-06)
(3.93845e-05 1.36859e-05 3.75003e-05)
(8.06704e-05 1.91978e-05 -2.65951e-06)
(0.0001088 1.9354e-05 -1.91715e-05)
(0.000125567 1.24906e-05 -3.00189e-05)
(0.000129962 1.80179e-07 -3.61264e-05)
(0.000123596 -1.41243e-05 -3.72158e-05)
(0.000109221 -2.81927e-05 -3.33829e-05)
(7.40324e-05 -3.27717e-05 -2.08974e-05)
(4.57941e-05 -3.205e-05 -9.45301e-06)
(3.58449e-05 -4.06519e-05 -8.15468e-07)
(2.91068e-06 -1.53768e-05 1.12279e-06)
(-2.21872e-05 -1.71805e-05 -1.00461e-05)
(-6.65194e-05 -3.30754e-05 -3.13333e-05)
(-8.86093e-05 -3.9401e-05 -2.96898e-05)
(-0.000155893 -6.18639e-05 -3.60922e-05)
(-0.000298623 -0.000107511 -4.7212e-05)
(-0.000371124 -0.000121955 -3.74714e-05)
(-0.000439289 -0.000131114 -2.4881e-05)
(-0.000515613 -0.000140194 -1.19332e-05)
(-0.000580082 -0.000145504 1.34832e-06)
(-0.000628698 -0.000147331 1.37529e-05)
(-0.000669868 -0.000148418 2.46015e-05)
(-0.000705731 -0.000149658 3.35804e-05)
(-0.000734854 -0.000150834 4.05499e-05)
(-0.000761249 -0.000152901 4.56038e-05)
(-0.000783685 -0.000155467 4.82124e-05)
(-0.000802068 -0.000158247 4.79684e-05)
(-0.000817277 -0.00016082 4.47369e-05)
(-0.000832041 -0.000163333 3.88723e-05)
(-0.000845785 -0.000165569 3.05305e-05)
(-0.000855605 -0.000167229 1.97416e-05)
(-0.000856442 -0.000167958 6.77961e-06)
(4.3324e-05 1.35764e-05 4.09756e-05)
(8.22566e-05 1.93256e-05 2.50093e-07)
(0.000111939 2.1478e-05 -1.68496e-05)