/*--------------------------------*- C++ -*----------------------------------*\
  =========                 |
  \\      /  F ield         | OpenFOAM: The Open Source CFD Toolbox
   \\    /   O peration     | Website:  https://openfoam.org
    \\  /    A nd           | Version:  6
     \\/     M anipulation  |
\*---------------------------------------------------------------------------*/
FoamFile
{
    version     2.0;
    format      ascii;
    class       volScalarField;
    location    "40";
    object      yPlus;
}
// * * * * * * * * * * * * * * * * * * * * * * * * * * * * * * * * * * * * * //

dimensions      [0 0 0 0 0 0 0];

internalField   uniform 0;

boundaryField
{
    inlet
    {
        type            calculated;
        value           uniform 0;
    }
    outlet
    {
        type            calculated;
        value           uniform 0;
    }
    roughCylinder
    {
        type            calculated;
        value           nonuniform List<scalar> 
5120
(
75.9686
60.1108
52.3319
55.5552
61.5686
66.648
70.866
74.4026
77.4098
80.0362
82.4117
84.598
86.6396
88.5814
90.4444
92.2737
94.0979
95.9747
97.9184
99.9421
102.054
104.254
106.535
108.887
111.293
113.726
116.151
118.514
120.742
122.726
124.28
125.148
94.0852
62.0388
52.1523
54.1069
59.8913
64.9335
69.134
72.6537
75.6502
78.2846
80.6495
82.8053
84.8127
86.698
88.5073
90.2691
92.0441
93.8444
95.7115
97.6644
99.7054
101.831
104.036
106.308
108.631
110.981
113.322
115.606
117.757
119.672
121.173
122.01
92.8408
60.7454
51.0579
52.6611
58.2515
63.2152
67.3674
70.8851
73.9069
76.5424
78.9062
81.0515
83.0137
84.8593
86.6102
88.3218
90.0132
91.7567
93.564
95.4445
97.4075
99.4545
101.579
103.77
106.012
108.28
110.539
112.742
114.818
116.666
118.114
118.92
94.1995
62.0246
50.7617
51.1423
56.4779
61.4239
65.6017
69.1418
72.1664
74.8298
77.1963
79.3151
81.2573
83.0527
84.7605
86.4042
88.063
89.7348
91.4649
93.2783
95.1773
97.1555
99.2079
101.324
103.486
105.673
107.852
109.976
111.979
113.761
115.156
115.932
87.8062
59.5881
49.7667
49.7203
54.7857
59.6713
63.8066
67.3518
70.4393
73.1186
75.4891
77.6195
79.5308
81.3039
82.9609
84.5749
86.1472
87.7698
89.4543
91.2036
93.0275
94.9314
96.9079
98.9456
101.032
103.143
105.245
107.293
109.224
110.943
112.289
113.033
90.0989
60.1186
48.9616
48.0815
52.8812
57.7603
61.9722
65.5971
68.6899
71.4109
73.8095
75.9177
77.8346
79.5719
81.2074
82.7534
84.3181
85.8809
87.4888
89.1769
90.9477
92.792
94.7048
96.677
98.6892
100.724
102.75
104.726
106.587
108.245
109.541
110.257
77.5696
60.0903
48.5675
46.6608
51.0927
55.9417
60.1192
63.727
66.9236
69.6838
72.0894
74.2426
76.1422
77.8884
79.4842
81.0338
82.5103
84.032
85.614
87.2497
88.9494
90.7234
92.5647
94.462
96.4056
98.3696
100.325
102.229
104.024
105.623
106.872
107.559
82.5758
59.4744
47.7934
44.9109
48.963
53.7929
58.1058
61.8967
65.1015
67.9146
70.3922
72.5288
74.4634
76.1855
77.7964
79.277
80.7808
82.2621
83.7672
85.3472
87.0072
88.7336
90.5217
92.3624
94.2374
96.131
98.0152
99.8525
101.582
103.123
104.326
104.986
92.4147
61.0083
47.8727
43.558
46.9722
51.8173
56.1243
59.8317
63.1993
66.1029
68.5887
70.8201
72.7532
74.5199
76.097
77.6306
79.0469
80.4952
82.0011
83.5455
85.1381
86.7968
88.5155
90.2853
92.0967
93.9255
95.7439
97.5135
99.1819
100.668
101.827
102.458
75.0904
58.9189
46.796
41.6961
44.4428
49.1787
53.6888
57.7979
61.1973
64.1661
66.8023
69.0246
71.0353
72.7872
74.424
75.8763
77.3614
78.798
80.2257
81.7189
83.2888
84.9152
86.5945
88.3168
90.0655
91.8272
93.5786
95.2853
96.8919
98.3228
99.4374
100.041
74.2184
57.8617
46.7565
40.186
42.0031
46.8309
51.4406
55.3172
58.9877
62.159
64.8035
67.2009
69.231
71.083
72.6845
74.2552
75.6451
77.0498
78.5124
79.9926
81.4969
83.0552
84.6633
86.3173
88.0065
89.7087
91.3979
93.0389
94.5863
95.9654
97.0382
97.6127
77.5542
56.8464
45.6048
38.3724
38.7456
43.1971
48.0669
52.8468
56.613
59.8685
62.8146
65.2147
67.3934
69.2367
70.9693
72.432
73.9451
75.3779
76.7542
78.182
79.6839
81.2298
82.8176
84.4322
86.0643
87.7021
89.3257
90.9077
92.3955
93.7204
94.7503
95.2978
75.8231
57.2124
45.2754
36.3156
35.4245
39.9401
45.2432
49.4279
53.7507
57.4691
60.4217
63.1478
65.3761
67.4154
69.1
70.783
72.1888
73.5829
75.0405
76.4878
77.9237
79.3961
80.9031
82.4539
84.0291
85.6117
87.1773
88.6937
90.1236
91.3988
92.3874
92.9052
64.9714
54.4749
44.8126
34.9164
30.4933
33.9958
39.564
46.0779
50.5863
54.4342
58.0285
60.7804
63.296
65.3271
67.2642
68.787
70.3945
71.8796
73.2353
74.6225
76.0834
77.5723
79.0903
80.6073
82.1328
83.6523
85.1527
86.6136
87.9852
89.2062
90.1516
90.6436
47.2848
47.2437
41.586
32.1159
25.8539
28.1671
35.3377
39.9989
46.1987
51.2202
54.8208
58.2419
60.8591
63.2707
65.1258
67.0395
68.5169
69.9424
71.4478
72.9042
74.2952
75.6973
77.1109
78.5721
80.0403
81.5094
82.9547
84.3474
85.6615
86.8338
87.7386
88.1984
24.4691
36.0031
35.3081
29.3032
13.0394
9.44874
20.0859
34.6449
40.9308
46.3989
51.5959
55.0895
58.3188
60.7159
63.0553
64.7046
66.5097
68.1295
69.5021
70.8776
72.3331
73.7958
75.2719
76.7028
78.1313
79.5363
80.9144
82.2556
83.5105
84.6277
85.488
85.9229
14.6935
19.1934
19.7655
11.197
7.45449
15.7518
5.92669
14.1212
32.0734
41.0138
46.3952
51.5991
55.039
58.2258
60.3995
62.7614
64.388
65.8995
67.5317
69.0582
70.4326
71.7808
73.1069
74.4902
75.8564
77.2157
78.5413
79.8064
81.002
82.0699
82.8888
83.287
6.94708
8.77611
6.25976
13.9174
4.20101
15.9532
16.7928
6.70962
5.32873
30.6093
41.2257
46.5362
51.569
54.7293
57.9079
59.7815
61.9724
63.8632
65.3003
66.6987
68.2001
69.6806
71.1508
72.5143
73.8555
75.1459
76.398
77.6174
78.7515
79.7603
80.5323
80.9065
11.7407
5.44436
12.1788
14.1475
16.053
17.23
17.9959
18.3565
18.2252
21.9951
27.9432
40.8257
46.3129
51.4102
54.2018
57.4989
59.3939
61.0736
62.9703
64.668
66.0625
67.3736
68.6202
69.9259
71.1925
72.4427
73.6441
74.7703
75.839
76.7962
77.5238
77.8519
1.45047
11.8655
10.9273
11.1576
14.009
12.8717
11.9875
10.7487
9.96337
5.97653
17.7832
28.3129
40.6469
45.6739
50.9278
53.1819
56.1961
58.6332
60.2008
61.6675
63.3029
64.8754
66.3847
67.7284
68.9926
70.1635
71.2778
72.3692
73.3729
74.2637
74.9395
75.2473
6.75338
15.9516
19.4233
20.3588
16.8744
19.2403
16.7928
16.5801
22.9116
21.441
20.9812
10.5489
28.2877
40.5011
44.6633
50.3495
52.7167
54.7168
57.1848
59.2577
60.7279
62.02
63.2144
64.4032
65.5697
66.708
67.7747
68.7369
69.6611
70.4957
71.1214
71.363
7.98905
18.338
23.1865
26.6647
28.6001
27.2319
17.4699
22.0022
12.6251
17.8333
14.6153
12.1641
7.03918
26.2897
39.7884
42.567
47.8332
51.5442
53.3352
54.9572
56.9231
58.7469
60.3577
61.8217
63.0279
64.0671
65.0199
65.9745
66.8313
67.5876
68.1537
68.3863
7.82107
18.2828
24.0423
28.2378
30.8079
31.9007
31.7395
24.6131
19.3552
27.1425
11.4851
18.1485
22.8335
17.0703
23.0195
39.0904
42.1763
44.941
48.952
51.8953
53.5403
54.8411
56.0436
56.9809
58.0437
59.0682
59.9818
60.7272
61.4733
62.1652
62.6715
62.7909
7.46123
17.1207
23.1698
27.8874
31.3494
33.3871
33.5961
32.7931
26.736
15.2868
23.9587
13.2249
18.2723
15.4546
5.89336
12.5307
32.9088
40.264
42.3506
44.4267
47.3558
49.8632
51.8527
53.776
54.9877
55.8738
56.6165
57.4342
58.1225
58.7178
59.1528
59.3007
6.70404
15.5915
21.5701
26.2648
29.8373
32.4198
34.0403
34.0836
33.0614
28.432
17.5193
24.8046
14.7751
9.73932
16.1408
12.6262
5.48435
23.8477
34.1931
40.2142
42.2835
43.6738
44.6565
45.1833
46.1189
47.0428
47.7893
48.1702
48.6537
49.1822
49.5349
49.4258
5.98997
14.3612
20.0049
24.4872
27.9954
30.6577
32.4453
33.4462
33.2439
32.2184
29.326
14.0044
21.4469
28.0105
12.466
16.6779
14.5087
24.5426
22.5774
20.1673
27.6899
33.7784
38.1407
40.9442
42.5605
43.2894
43.6452
44.3527
44.9483
45.2355
45.5693
45.5823
5.23388
13.2285
18.2607
22.2587
25.452
28.0221
30.0042
31.2488
31.8189
31.6752
30.9629
31.9407
22.5005
25.4468
7.0066
4.93353
24.6149
23.2037
16.2
25.2512
21.556
9.71221
11.1308
15.5758
13.9871
15.5542
16.1958
16.7239
14.3394
16.8867
14.7215
15.3039
4.62379
12.2613
16.086
19.1834
21.8422
24.1783
26.1307
27.625
28.5847
29.2325
30.0542
29.4959
31.3681
26.6146
23.5482
11.7579
21.0712
25.2537
19.2567
4.49835
26.4953
7.95978
18.8465
28.0194
20.1781
7.74239
21.156
30.0253
8.41028
31.0308
22.5032
31.442
4.26364
12.4092
13.6623
15.3112
17.0485
18.8888
20.7352
22.431
23.9664
25.4594
26.855
29.1463
29.7872
31.3258
30.2541
17.7286
28.9641
5.87609
10.0385
25.7135
20.0658
26.9789
10.9222
20.7062
9.63204
27.8637
30.2486
21.2027
29.6331
22.8001
11.8196
22.703
3.98772
11.2793
12.1369
12.5813
13.1442
14.0049
15.3115
17.0627
19.0659
21.2115
23.6117
25.5043
28.2281
29.9922
31.0333
32.7735
25.9232
23.9956
5.23034
26.7823
17.4714
18.0787
9.82696
19.2904
30.1306
4.63042
19.383
8.99682
32.1523
21.2046
31.6084
13.177
3.76992
11.3284
11.6105
11.8392
11.9895
12.2003
13.0332
14.6384
16.6136
18.6896
20.741
23.2917
25.35
27.8133
30.299
31.1726
32.3408
30.2277
21.0972
10.1022
27.3598
23.5368
11.5307
18.8468
26.223
4.8169
6.23574
21.158
29.2626
20.0154
12.8228
7.59149
3.558
11.3676
11.6031
11.7432
11.8515
12.1188
13.296
15.1315
16.9765
18.6303
20.2647
21.7009
23.6622
25.5828
27.5625
30.2348
31.7627
32.2698
32.6435
29.6362
21.0841
21.6771
30.0957
14.5821
32.5856
17.1956
30.3081
18.5817
17.4363
7.54312
33.3286
8.11414
2.45805
9.16718
11.3628
11.5337
11.5461
11.9844
13.7973
15.9807
17.9041
19.5101
20.8281
22.1511
23.2118
24.4854
26.0924
27.6431
29.8094
31.8517
32.4743
32.4932
32.3063
29.3755
27.454
23.1961
21.2067
18.5461
18.7099
17.9081
17.7189
18.6238
19.8885
20.244
2.22415
8.45434
10.7658
11.4431
11.6997
13.1669
15.5263
17.6647
19.3938
20.8034
22.0202
22.9779
23.9175
24.6934
25.4086
26.5871
27.9452
29.5653
31.4404
32.5434
32.4253
32.0099
31.2931
31.0547
30.7418
30.5225
30.0868
29.7707
29.4585
29.3712
29.4131
29.5154
2.87055
9.69638
11.4508
11.8347
12.8398
15.2302
17.528
19.4377
21.0165
22.3403
23.437
24.3976
25.1069
25.6735
26.162
26.479
27.0903
28.1666
29.4327
30.7266
31.6491
31.9949
31.438
30.4587
29.342
28.139
26.9233
26.0922
25.5168
25.3343
25.5333
25.822
3.70412
11.2375
11.5376
13.0748
15.4388
17.7373
19.7162
21.3928
22.8176
24.0335
25.0836
25.9325
26.6311
27.1117
27.3564
27.5352
27.6169
27.7873
28.3895
29.3078
30.0864
30.4596
30.3875
29.9183
29.1574
28.1939
27.0833
26.1658
25.6267
25.566
25.7834
26.0067
3.85011
11.5052
13.5057
15.7895
17.9836
19.9575
21.7056
23.2433
24.5966
25.7862
26.8144
27.6902
28.3497
28.7956
29.0402
29.0262
28.8802
28.7199
28.6066
28.7154
29.0767
29.4265
29.3406
28.7787
27.7461
26.3766
24.8625
23.6573
23.0112
23.0157
23.4227
23.8666
4.28238
12.4006
15.5926
18.096
20.1814
21.9987
23.6226
25.0832
26.3991
27.5777
28.6222
29.4974
30.1911
30.6607
30.8753
30.8788
30.6606
30.2632
29.8304
29.4612
29.1858
28.9843
28.7066
28.1694
27.3003
26.1421
24.847
23.7714
23.2571
23.4084
23.9046
24.3667
5.53573
14.6205
17.8142
20.1435
22.0584
23.7763
25.3572
26.8112
28.1478
29.3654
30.4506
31.381
32.1102
32.6158
32.8906
32.9003
32.6701
32.2412
31.6414
30.9539
30.2802
29.6575
29.0057
28.2147
27.1703
25.8737
24.4701
23.3235
22.8102
23.0361
23.6589
24.2357
6.70993
16.1533
19.4214
21.7672
23.6981
25.4303
27.0247
28.5052
29.8848
31.1547
32.2968
33.275
34.0626
34.63
34.952
35.0301
34.8523
34.4171
33.7678
32.953
32.0279
31.0518
30.0508
28.9896
27.8132
26.5166
25.2066
24.1751
23.7742
24.0886
24.7583
25.3429
8.04085
9.38324
10.7345
11.562
11.5488
11.5874
11.9227
11.6274
11.9885
11.6534
11.8963
11.3208
11.521
11.2259
10.4063
9.92515
9.50218
9.20411
9.00775
8.91237
8.91245
9.00802
9.20462
9.50298
9.92628
10.4075
11.2297
11.3395
11.7221
11.8948
11.8066
11.6747
11.9942
11.5164
11.7209
11.3191
11.5146
10.7244
9.38474
8.04362
17.4244
18.2209
18.8768
19.2458
19.505
19.6602
19.7605
19.7753
19.7707
19.7099
19.6327
19.5143
19.4006
19.2588
19.1137
19.0123
18.9198
18.8546
18.8097
18.7879
18.788
18.8098
18.8549
18.9203
19.013
19.1142
19.2599
19.4005
19.5202
19.6327
19.7127
19.7712
19.7803
19.7523
19.6576
19.5025
19.2405
18.8758
18.2228
17.4272
20.6374
21.2493
21.7535
22.0315
22.2611
22.3622
22.4339
22.429
22.4108
22.3517
22.2897
22.2083
22.1301
22.0472
21.9732
21.9113
21.8585
21.8198
21.7927
21.7789
21.779
21.7929
21.8202
21.859
21.9119
21.9739
22.0482
22.1309
22.2094
22.2907
22.353
22.4118
22.4305
22.4343
22.3631
22.2624
22.0318
21.7548
21.2513
20.64
22.9066
23.4305
23.8833
24.1526
24.3839
24.5043
24.6046
24.6417
24.6678
24.6624
24.6567
24.6375
24.6199
24.5988
24.5789
24.5626
24.5485
24.5388
24.5315
24.5273
24.5274
24.5317
24.5392
24.549
24.5632
24.5797
24.5997
24.6209
24.6387
24.6579
24.6637
24.6691
24.6431
24.6061
24.5057
24.3855
24.154
23.885
23.4324
22.9088
24.8041
25.2947
25.7385
26.0222
26.2768
26.4364
26.5816
26.6764
26.7647
26.8257
26.8851
26.9322
26.9773
27.0167
27.0517
27.0838
27.1103
27.1319
27.1462
27.1525
27.1525
27.1463
27.1323
27.1108
27.0845
27.0526
27.0176
26.9784
26.9334
26.8864
26.827
26.7661
26.6779
26.5831
26.438
26.2785
26.0239
25.7403
25.2966
24.8061
26.5351
27.0031
27.4572
27.7603
28.0539
28.2633
28.4692
28.6271
28.7834
28.9131
29.0412
29.1555
29.2655
29.366
29.4576
29.5393
29.6077
29.6616
29.6979
29.715
29.7151
29.6981
29.6621
29.6083
29.54
29.4585
29.367
29.2665
29.1567
29.0425
28.9144
28.785
28.6286
28.4708
28.2649
28.0556
27.762
27.4589
27.0049
26.537
28.1521
28.6036
29.086
29.4157
29.7623
30.0222
30.2901
30.5091
30.731
30.9258
31.1191
31.2968
31.4679
31.6257
31.7701
31.8978
32.0051
32.0886
32.145
32.1717
32.1717
32.1453
32.0891
32.0057
31.8986
31.771
31.6268
31.4691
31.2982
31.1205
30.9272
30.7325
30.5107
30.2918
30.0238
29.764
29.4174
29.0877
28.6054
28.1539
29.6747
30.1185
30.6413
31.0008
31.3981
31.7045
32.0283
32.3024
32.5826
32.8355
33.0867
33.3206
33.5456
33.7535
33.9438
34.1113
34.2519
34.3609
34.434
34.4683
34.4684
34.4343
34.3614
34.2527
34.1122
33.9448
33.7546
33.5468
33.3219
33.0881
32.8369
32.5841
32.3041
32.03
31.7061
31.3996
31.0024
30.643
30.1203
29.6765
31.1074
31.5473
32.1123
32.4963
32.9387
33.2849
33.6565
33.9777
34.3071
34.6093
34.9092
35.1905
35.4603
35.71
35.938
36.138
36.3054
36.4346
36.5209
36.5611
36.5612
36.5212
36.4351
36.3061
36.1389
35.939
35.7111
35.4616
35.1919
34.9107
34.6109
34.3088
33.9794
33.6581
33.2866
32.9404
32.498
32.1141
31.549
31.1091
32.4334
32.8708
33.4715
33.876
34.3551
34.7344
35.1449
35.5051
35.8746
36.2172
36.5565
36.8758
37.1815
37.4641
37.7215
37.9468
38.1348
38.2792
38.3755
38.4199
38.42
38.3758
38.2798
38.1355
37.9478
37.7226
37.4653
37.1828
36.8773
36.558
36.2188
35.8763
35.5067
35.1465
34.7361
34.3569
33.8776
33.4732
32.8724
32.4351
33.6257
34.0588
34.6901
35.1107
35.6195
36.0261
36.4676
36.8596
37.2613
37.6361
38.0064
38.3556
38.6887
38.9962
39.2756
39.5194
39.7221
39.8776
39.9807
40.0282
40.0282
39.9811
39.878
39.7229
39.5204
39.2767
38.9974
38.69
38.357
38.0079
37.6377
37.2629
36.8614
36.4693
36.0278
35.6213
35.1124
34.6917
34.0604
33.6273
34.6554
35.0806
35.7407
36.1743
36.7089
37.1382
37.6057
38.0239
38.4516
38.8522
39.2469
39.619
39.9728
40.2989
40.5939
40.8506
41.0634
41.2261
41.3337
41.383
41.3831
41.334
41.2266
41.0641
40.8515
40.595
40.3001
39.9742
39.6205
39.2485
38.8539
38.4534
38.0256
37.6075
37.14
36.7106
36.1761
35.7424
35.0822
34.657
35.4896
35.9132
36.6001
37.0483
37.6066
38.0574
38.5483
38.9897
39.4399
39.8623
40.2769
40.6674
41.0372
41.3771
41.6835
41.9493
42.1689
42.3361
42.4466
42.4969
42.497
42.4469
42.3366
42.1695
41.9502
41.6846
41.3783
41.0386
40.6688
40.2785
39.8639
39.4416
38.9915
38.5502
38.0591
37.6082
37.05
36.6018
35.9148
35.491
36.1065
36.5376
37.2534
37.7211
38.304
38.7782
39.2924
39.7565
40.2278
40.6701
41.1024
41.5087
41.8919
42.2428
42.558
42.8304
43.0547
43.2252
43.3375
43.3885
43.3886
43.3378
43.2258
43.0554
42.8313
42.5591
42.244
41.8932
41.5102
41.104
40.6718
40.2295
39.7582
39.2941
38.7799
38.3057
37.7228
37.255
36.5394
36.108
36.4963
36.9392
37.6941
38.1855
38.7985
39.2987
39.8388
40.3267
40.8198
41.2818
41.7312
42.1522
42.5474
42.9081
43.2307
43.5086
43.7366
43.9096
44.0233
44.0748
44.075
44.0236
43.91
43.7373
43.5094
43.2318
42.9093
42.5487
42.1537
41.7327
41.2834
40.8215
40.3284
39.8405
39.3005
38.8004
38.1873
37.6957
36.9408
36.4978
36.6366
37.1144
37.9125
38.4389
39.0865
39.618
40.1869
40.7011
41.2175
41.7002
42.167
42.6027
43.0098
43.3797
43.7093
43.9921
44.2235
44.3986
44.5136
44.5658
44.5659
44.5139
44.3991
44.2242
43.993
43.7103
43.3809
43.0111
42.6042
42.1686
41.7019
41.2193
40.703
40.1887
39.6198
39.0883
38.4405
37.9142
37.1159
36.6381
36.5209
37.0513
37.9004
38.473
39.1601
39.7294
40.3305
40.8744
41.4159
41.9207
42.4058
42.8568
43.2759
43.6552
43.9917
44.2795
44.5143
44.6916
44.8081
44.861
44.8612
44.8084
44.6921
44.515
44.2803
43.9927
43.6563
43.2772
42.8582
42.4073
41.9224
41.4177
40.8763
40.3323
39.7313
39.1619
38.4748
37.9021
37.053
36.5224
36.149
36.7297
37.6454
38.2716
39.0058
39.6177
40.255
40.8317
41.4006
41.9293
42.434
42.9012
43.333
43.7223
44.0662
44.3594
44.5979
44.7778
44.896
44.9499
44.95
44.8962
44.7783
44.5986
44.3602
44.0672
43.7235
43.3343
42.9026
42.4356
41.9309
41.4024
40.8335
40.2569
39.6196
39.0077
38.2733
37.6472
36.7312
36.1506
35.5193
36.1434
37.1227
37.8147
38.6007
39.2608
39.9376
40.5502
41.1489
41.7035
42.2293
42.7142
43.1601
43.5604
43.9127
44.2121
44.4551
44.6381
44.7583
44.8135
44.8136
44.7586
44.6386
44.4557
44.2129
43.9136
43.5615
43.1614
42.7156
42.2309
41.7052
41.1506
40.5521
39.9395
39.2627
38.6027
37.8165
37.1244
36.1452
35.5207
34.6537
35.2973
36.3166
37.0739
37.9188
38.6315
39.3509
40.0021
40.6328
41.2154
41.7645
42.2687
42.7302
43.1431
43.5051
43.8121
44.0606
44.2477
44.3705
44.4273
44.4274
44.3708
44.2481
44.0613
43.8128
43.5061
43.1443
42.7316
42.2701
41.766
41.2172
40.6346
40.0039
39.3528
38.6334
37.9208
37.0758
36.3184
35.2987
34.6551
33.6047
34.213
35.238
36.0404
36.9359
37.7065
38.4689
39.1607
39.8244
40.4368
41.0106
41.5361
42.015
42.4423
42.8158
43.1316
43.3871
43.5792
43.7054
43.7642
43.7644
43.7058
43.5797
43.3878
43.1325
42.8167
42.4435
42.0164
41.5376
41.0122
40.4386
39.8263
39.1626
38.471
37.7086
36.938
36.0423
35.2395
34.2146
33.6049
32.4317
32.9367
33.921
34.7309
35.6555
36.4733
37.2783
38.0084
38.7045
39.3465
39.9454
40.4931
40.9908
41.4338
41.8203
42.1466
42.4102
42.6083
42.7387
42.8
42.8001
42.7391
42.6088
42.4109
42.1474
41.8212
41.435
40.9921
40.4945
39.947
39.3482
38.7064
38.0104
37.2803
36.4753
35.6574
34.7326
33.9224
32.9373
32.432
31.1806
31.5259
32.4192
33.1909
34.1115
34.9522
35.7895
36.5503
37.2737
37.9414
38.5635
39.1322
39.6483
40.1074
40.5074
40.8449
41.1174
41.3224
41.4575
41.5215
41.5216
41.4578
41.3228
41.1181
40.8457
40.5083
40.1086
39.6496
39.1336
38.5651
37.9431
37.2755
36.5522
35.7914
34.954
34.1131
33.1921
32.4198
31.5252
31.1782
29.864
30.0293
30.7945
31.4857
32.3648
33.1951
34.0417
34.8236
35.565
36.2515
36.8912
37.4771
38.0089
38.4823
38.8947
39.2429
39.5241
39.7357
39.8756
39.9423
39.9424
39.8759
39.7361
39.5247
39.2436
38.8956
38.4833
38.0101
37.4784
36.8926
36.253
35.5666
34.8251
34.0431
33.1962
32.3656
31.486
30.7938
30.0278
29.8597
28.4684
28.4852
29.1133
29.7045
30.5156
31.3071
32.1382
32.9201
33.6658
34.3594
35.008
35.604
36.146
36.6295
37.0513
37.4077
37.696
37.9132
38.0571
38.1262
38.1263
38.0574
37.9136
37.6966
37.4084
37.0521
36.6304
36.147
35.6051
35.0093
34.3607
33.667
32.9211
32.1389
31.3077
30.5156
29.704
29.1121
28.483
28.4651
27.0102
26.947
27.4594
27.9604
28.6953
29.4331
30.2286
30.9915
31.729
32.4185
33.0662
33.6637
34.209
34.6966
35.1228
35.4837
35.7759
35.9964
36.1428
36.2135
36.2136
36.1431
35.9967
35.7764
35.4843
35.1235
34.6974
34.2099
33.6647
33.0671
32.4195
31.7299
30.9922
30.229
29.4332
28.695
27.9597
27.4581
26.9457
27.0078
25.6013
25.5425
25.977
26.4262
27.0974
27.7871
28.5415
29.2754
29.9918
30.6666
31.304
31.8944
32.435
32.9195
33.344
33.7039
33.9958
34.2163
34.363
34.4341
34.4342
34.3632
34.2166
33.9963
33.7046
33.3447
32.9204
32.4359
31.8955
31.3051
30.6676
29.9929
29.2762
28.5423
27.7874
27.0975
26.4253
25.9763
25.5393
25.5992
24.531
24.5227
24.926
25.3601
25.9894
26.6434
27.3571
28.0554
28.7393
29.3896
30.0069
30.5808
31.1075
31.5806
31.9956
32.3478
32.6338
32.85
32.9938
33.0637
33.0638
32.994
32.8502
32.6341
32.3483
31.996
31.581
31.1081
30.5813
30.0072
29.39
28.7394
28.0552
27.3565
26.6423
25.9876
25.3579
24.9222
24.5188
24.524
24.1299
24.1793
24.5711
25.0014
25.5947
26.2118
26.8771
27.5293
28.1732
28.7899
29.377
29.9244
30.4273
30.8796
31.2766
31.6139
31.8878
32.095
32.2329
32.2997
32.2997
32.233
32.0951
31.888
31.6143
31.2769
30.8799
30.4277
29.9247
29.3773
28.7902
28.1732
27.5291
26.8764
26.2108
25.593
24.9994
24.5684
24.1766
24.1261
24.4766
24.5399
24.9212
25.328
25.8807
26.4488
27.0587
27.66
28.2588
28.8346
29.3842
29.8975
30.3696
30.7947
31.1681
31.4854
31.7432
31.9382
32.0678
32.1303
32.1305
32.0679
31.9384
31.7435
31.4858
31.1684
30.7952
30.3701
29.898
29.3846
28.835
28.259
27.6601
27.0584
26.4482
25.8793
25.3266
24.918
24.5377
24.4704
25.1915
25.2447
25.6187
25.9952
26.5131
27.0358
27.6025
28.1625
28.7229
29.262
29.7775
30.2593
30.7028
31.1022
31.4532
31.7517
31.994
32.1773
32.299
32.3575
32.3575
32.2991
32.1775
31.9943
31.7519
31.4534
31.1024
30.7031
30.2595
29.7778
29.2622
28.7229
28.1624
27.6022
27.0353
26.5124
25.9942
25.6178
25.2433
25.1913
25.8221
25.8484
26.2231
26.5727
27.0714
27.5651
28.1087
28.644
29.1819
29.6989
30.1939
30.6565
31.0827
31.4666
31.8042
32.0912
32.3244
32.5006
32.6175
32.6735
32.6736
32.6178
32.501
32.3248
32.0918
31.8049
31.4674
31.0836
30.6575
30.1949
29.6999
29.183
28.645
28.1097
27.566
27.0721
26.5733
26.2233
25.8486
25.8218
93.9757
61.3042
52.4944
55.5761
61.5687
66.6497
70.8681
74.4042
77.4112
80.0378
82.4128
84.5987
86.6402
88.5817
90.4446
92.2738
94.098
95.9749
97.9185
99.9424
102.054
104.254
106.535
108.887
111.293
113.726
116.151
118.515
120.742
122.726
124.28
125.149
94.0051
61.1364
51.7019
54.0732
59.8999
64.94
69.1384
72.6573
75.6528
78.2859
80.6505
82.8061
84.8132
86.6983
88.5076
90.2693
92.0443
93.8445
95.7116
97.6642
99.7059
101.831
104.036
106.308
108.631
110.981
113.322
115.606
117.757
119.673
121.174
122.011
91.5467
60.0657
50.8202
52.6406
58.2505
63.2155
67.3693
70.8868
73.9081
76.5444
78.9078
81.0525
83.0145
84.8599
86.6104
88.322
90.0133
91.7568
93.5641
95.445
97.407
99.4545
101.578
103.77
106.012
108.28
110.539
112.742
114.818
116.667
118.115
118.92
93.4214
61.3921
50.5091
51.1145
56.4869
61.4324
65.6077
69.1467
72.1707
74.8319
77.1975
79.3162
81.2579
83.0531
84.7608
86.4045
88.0633
89.7349
91.465
93.278
95.1776
97.156
99.2093
101.324
103.486
105.673
107.852
109.977
111.979
113.761
115.157
115.932
88.1222
58.8268
49.2975
49.6697
54.7893
59.6743
63.81
67.3543
70.4401
73.1207
75.4912
77.6208
79.5318
81.3047
82.9613
84.575
86.1471
87.7701
89.4544
91.2042
93.0273
94.931
96.9065
98.9465
101.032
103.143
105.244
107.293
109.224
110.944
112.289
113.034
74.7905
58.7013
48.7325
48.05
52.8903
57.7698
61.9794
65.6031
68.6964
71.4141
73.8109
75.9188
77.8353
79.5722
81.2077
82.7537
84.3187
85.8809
87.489
89.1762
90.9481
92.7928
94.7071
96.6761
98.6897
100.724
102.751
104.726
106.587
108.245
109.541
110.257
86.5658
59.3566
48.1627
46.6128
51.1006
55.9495
60.1252
63.7307
66.9229
69.6849
72.0916
74.2441
76.1434
77.8894
79.4847
81.0339
82.51
84.0323
85.6139
87.2506
88.9492
90.7227
92.5624
94.4633
96.4056
98.3696
100.324
102.229
104.024
105.623
106.872
107.56
72.1287
59.1171
47.9754
44.9639
48.9791
53.803
58.1125
61.902
65.1103
67.9195
70.3936
72.5298
74.4639
76.1856
77.7965
79.2773
80.7815
82.2621
83.7675
85.3461
87.0077
88.7345
90.5245
92.3615
94.2378
96.1314
98.016
99.8525
101.582
103.123
104.326
104.986
88.7667
59.5208
47.355
43.4749
46.9803
51.8283
56.1326
59.838
63.1962
66.1016
68.5905
70.8216
72.7543
74.5211
76.0976
77.6309
79.0463
80.4955
82.0008
83.5469
85.1378
86.796
88.5126
90.2867
92.0967
93.9255
95.7435
97.5139
99.1819
100.668
101.827
102.458
81.1697
58.5142
46.5655
41.6498
44.4486
49.1866
53.6936
57.7994
61.2088
64.1737
66.8043
69.0254
71.0357
72.7869
74.4238
75.8762
77.3623
78.7978
80.2262
81.7172
83.2892
84.9161
86.5979
88.3156
90.066
91.828
93.5798
95.2849
96.8919
98.3224
99.4378
100.042
74.5829
57.1475
46.2374
40.0631
42.0042
46.8476
51.4531
55.329
58.9811
62.1538
64.8041
67.2021
69.2319
71.0844
72.6853
74.2557
75.6443
77.0501
78.5118
79.9947
81.4966
83.0544
84.6602
86.3187
88.0064
89.7083
91.3966
93.0393
94.5863
95.9654
97.0378
97.6127
66.4595
54.0024
44.7827
38.1931
38.7441
43.1867
48.0622
52.8406
56.6297
59.8814
62.8177
65.2155
67.3937
69.2359
70.9685
72.4314
73.9462
75.3775
76.755
78.1794
79.6842
81.2305
82.8205
84.431
86.0647
87.7029
89.3278
90.9073
92.3955
93.7204
94.7503
95.2978
74.3915
56.5773
45.0219
36.2152
35.4092
40.012
45.2868
49.453
53.7367
57.4564
60.4206
63.1488
65.3768
67.4171
69.1012
70.7838
72.187
73.5833
75.0393
76.491
77.9234
79.3957
80.9012
82.4549
84.0289
85.6111
87.1751
88.6941
90.1236
91.3992
92.387
92.9056
65.071
54.5823
44.8738
34.9385
30.551
33.9062
39.5092
46.0693
50.6176
54.4591
58.0335
60.7806
63.2956
65.3252
67.2626
68.7857
70.397
71.8789
73.2367
74.6183
76.0836
77.5724
79.0907
80.607
82.1332
83.6533
85.1558
86.6128
87.9848
89.2058
90.1521
90.6436
46.9844
47.2316
41.6358
32.1346
25.7696
28.2111
35.4533
39.9754
46.1673
51.1907
54.8167
58.2434
60.8611
63.2735
65.1276
67.0409
68.513
69.9428
71.4456
72.9092
74.295
75.6976
77.1127
78.5716
80.0402
81.5083
82.951
84.348
85.6611
86.8342
87.7378
88.1988
24.9078
36.0419
35.3355
29.2431
13.3254
13.0812
20.0107
34.9266
40.9328
46.4283
51.6034
55.0881
58.3154
60.7115
63.0523
64.702
66.5142
68.1283
69.5047
70.8708
72.333
73.795
75.2678
76.7047
78.1317
79.5379
80.9198
82.2541
83.5101
84.6268
85.4885
85.9229
13.5461
19.4626
19.8603
12.9022
7.96343
16.0092
7.00085
11.685
32.4642
41.1317
46.4017
51.6018
55.0445
58.2319
60.403
62.7641
64.3821
65.9002
67.5276
69.0665
70.4326
71.782
73.1135
74.4866
75.8565
77.2138
78.5348
79.8075
81.0013
82.0701
82.8874
83.2873
12.9512
8.9772
6.79541
7.62451
5.08708
15.991
16.7171
17.1938
21.8523
29.5541
41.1092
46.5421
51.5615
54.7199
57.902
59.7767
61.9766
63.861
65.3051
66.6873
68.1997
69.6789
71.1439
72.5205
73.8555
75.1488
76.4076
77.6148
78.7509
79.7588
80.5327
80.9065
7.7252
10.3634
11.9562
14.0211
15.7759
17.0926
6.35518
2.82775
6.07367
10.2485
28.97
40.7318
46.3194
51.4218
54.2082
57.5033
59.3907
61.0759
62.9626
64.6824
66.063
67.3757
68.624
69.9169
71.193
72.4393
73.6323
74.7723
75.8378
76.7967
77.5214
77.8525
3.43377
11.3621
10.3954
16.0615
5.92341
18.5738
19.5084
19.7543
19.8534
9.7313
22.6745
29.2316
40.6763
45.656
50.9173
53.175
56.1952
58.6269
60.2108
61.6469
63.3017
64.8736
66.3954
67.7415
68.9924
70.1686
71.2958
72.3647
73.3718
74.261
74.9405
75.2474
6.65458
15.9068
19.3842
20.5086
16.7546
12.2822
10.8996
2.7956
21.8833
20.9542
19.965
22.8528
27.7245
40.492
44.6795
50.3514
52.7072
54.7241
57.1656
59.2853
60.7296
62.021
63.1703
64.3857
65.5706
66.7017
67.752
68.7408
69.6591
70.4971
71.1169
71.3638
7.98999
18.3737
23.2376
26.6959
28.599
26.9889
17.0946
16.8488
11.0671
24.7064
13.1537
9.68305
18.7328
26.9002
39.7098
42.5642
47.8906
51.5323
53.3694
54.9155
56.9202
58.7488
60.4749
61.8453
63.028
64.0771
65.0559
65.9664
66.8295
67.5822
68.1567
68.387
7.84975
18.2928
24.0407
28.2365
30.812
31.9498
31.7434
24.4353
10.5541
20.7449
19.0841
24.1882
21.3745
22.8115
23.7224
39.0626
41.9309
44.9381
48.8892
51.9553
53.5448
54.8353
55.7974
56.9479
58.0435
59.0549
59.934
60.7347
61.4699
62.1702
62.6619
62.792
7.47064
17.137
23.1854
27.8988
31.3559
33.3868
33.5978
32.8119
27.2902
9.43977
11.4498
20.6108
23.6954
21.8575
22.271
13.2305
33.578
40.3276
42.359
44.3192
47.3496
49.8773
52.3008
53.8285
54.9914
55.895
56.6982
57.4196
58.1179
58.7059
59.1614
59.3019
6.70897
15.6028
21.5808
26.275
29.8461
32.4256
34.0442
34.0857
33.0284
28.8911
16.9674
23.464
27.1758
18.9261
22.3559
21.7941
6.18496
22.8032
35.1013
40.4172
42.2932
43.6454
43.9279
45.06
46.1068
47.0233
47.6623
48.1764
48.6584
49.1848
49.5106
49.4318
5.98933
14.3652
20.0096
24.4923
28.0007
30.6631
32.4494
33.4496
33.252
32.1978
29.57
14.6608
3.7433
16.6038
24.731
22.7188
22.574
16.7838
26.2548
19.2254
27.6749
33.8482
39.0666
41.3386
42.6085
43.2419
43.8898
44.4149
44.8888
45.318
45.5978
45.5761
5.23766
13.2447
18.2677
22.2645
25.4573
28.0262
30.0078
31.2518
31.8214
31.6751
30.8692
31.9126
23.0032
30.1661
18.1732
12.6334
3.83743
16.1718
23.3942
25.479
21.623
9.28357
9.39063
10.3945
13.9965
17.2962
15.3347
14.8211
14.3527
14.7075
14.5456
15.3882
4.65211
12.3072
16.1077
19.1938
21.8504
24.1844
26.1342
27.6265
28.5836
29.2272
30.091
29.4893
31.32
27.7144
29.7874
28.6685
15.6576
19.685
25.4263
17.0258
26.6748
7.54124
26.194
19.3622
6.13764
28.8558
21.4062
7.43787
22.2758
8.31371
22.655
31.2842
4.36597
11.8512
13.69
15.3233
17.0559
18.894
20.7384
22.4321
23.9659
25.4597
26.8314
29.1492
29.8227
31.2666
31.2461
18.0022
26.6912
23.1551
17.6303
12.0819
18.9612
27.326
10.0419
4.94717
27.4051
19.2335
11.0448
30.4579
12.4352
30.5908
12.2313
20.8912
4.07752
11.6817
12.1863
12.5824
13.1471
14.0076
15.3115
17.0601
19.0608
21.2029
23.6117
25.4881
28.1994
29.9725
30.8834
32.7531
26.1348
28.7041
17.7617
21.4594
22.9732
22.7467
10.4261
16.9817
28.9941
24.1939
30.0653
26.1734
8.77272
19.2964
31.8719
26.195
3.71141
11.2313
11.8711
11.8537
11.9856
12.1987
13.0307
14.6347
16.6101
18.6862
20.7339
23.2918
25.355
27.8183
30.2883
31.1436
32.2934
30.8738
20.1815
22.0919
30.3529
26.066
13.6871
27.4261
12.0621
5.86992
32.5248
21.8473
32.7574
24.8886
14.7579
29.3663
3.56307
11.3837
11.6813
11.7439
11.8599
12.1185
13.2923
15.1269
16.972
18.6264
20.2608
21.6927
23.6502
25.5715
27.564
30.2344
31.7373
32.2307
32.6329
29.0028
21.721
20.2932
27.0575
10.1331
29.6032
14.2537
30.1743
18.0307
20.8688
13.0597
26.7895
31.2006
2.45735
9.16672
11.3653
11.5098
11.7034
11.9925
13.7933
15.9762
17.9008
19.5071
20.8261
22.1504
23.2127
24.4823
26.0852
27.6359
29.815
31.83
32.4508
32.5184
32.2213
29.6395
26.8849
23.9113
20.6974
18.5236
18.8577
18.2418
17.588
18.2567
18.2782
20.2492
2.22258
8.45148
10.7716
11.5855
11.6234
13.1621
15.5218
17.6607
19.3906
20.8011
22.0178
22.9752
23.9136
24.6921
25.4049
26.5813
27.9391
29.5666
31.4339
32.5365
32.4669
31.9792
31.3184
30.9545
30.7003
30.5436
30.1143
29.7221
29.4243
29.3817
29.3445
29.4151
2.87051
9.71006
11.5617
11.5673
12.8378
15.2238
17.5233
19.4344
21.014
22.338
23.4353
24.3963
25.1065
25.6713
26.1617
26.479
27.0877
28.1647
29.4231
30.7379
31.6406
32.0059
31.548
30.573
29.3704
28.109