/*--------------------------------*- C++ -*----------------------------------*\
  =========                 |
  \\      /  F ield         | OpenFOAM: The Open Source CFD Toolbox
   \\    /   O peration     | Website:  https://openfoam.org
    \\  /    A nd           | Version:  6
     \\/     M anipulation  |
\*---------------------------------------------------------------------------*/
FoamFile
{
    version     2.0;
    format      ascii;
    class       volScalarField;
    location    "11";
    object      yPlus;
}
// * * * * * * * * * * * * * * * * * * * * * * * * * * * * * * * * * * * * * //

dimensions      [0 0 0 0 0 0 0];

internalField   uniform 0;

boundaryField
{
    inlet
    {
        type            calculated;
        value           uniform 0;
    }
    outlet
    {
        type            calculated;
        value           uniform 0;
    }
    roughCylinder
    {
        type            calculated;
        value           nonuniform List<scalar> 
3840
(
45.9422
54.3605
62.2874
69.3112
74.6409
78.6095
81.637
84.044
86.1078
87.9254
89.576
91.1226
92.6361
94.1857
95.825
97.5852
99.4729
101.478
103.577
105.741
107.922
110.049
111.922
113.176
45.1465
53.2849
60.9957
67.9179
73.211
77.1626
80.1876
82.6054
84.6743
86.4802
88.1078
89.6258
91.1076
92.6227
94.226
95.9473
97.7937
99.7546
101.807
103.922
106.052
108.128
109.954
111.178
44.2653
52.1679
59.6767
66.4965
71.7605
75.7087
78.7465
81.1846
83.2613
85.0592
86.6682
88.1608
89.6124
91.0951
92.6622
94.3454
96.151
98.0685
100.075
102.141
104.22
106.246
108.026
109.219
43.3909
51.0437
58.3496
65.0646
70.3016
74.2527
77.3128
79.7805
81.8713
83.6716
85.2641
86.7335
88.158
89.6091
91.1435
92.7901
94.5562
96.4309
98.3917
100.409
102.438
104.415
106.149
107.312
42.4323
49.8665
56.9717
63.5852
68.8116
72.7882
75.889
78.3944
80.505
82.3106
83.8933
85.3448
86.7446
88.1687
89.6701
91.282
93.0102
94.8439
96.7608
98.7318
100.712
102.64
104.329
105.463
41.5514
48.7015
55.5903
62.098
67.3171
71.3221
74.4652
77.0146
79.1523
80.973
82.5547
83.9922
85.3723
86.7694
88.2435
89.8227
91.5147
93.3084
95.1815
97.1065
99.0379
100.918
102.563
103.669
40.5163
47.4434
54.1168
60.5263
65.7611
69.826
73.0377
75.6417
77.8142
79.652
81.2431
82.6737
84.0374
85.4154
86.8611
88.4096
90.0673
91.8232
93.6552
95.5357
97.4205
99.2537
100.855
101.933
39.6562
46.2318
52.6509
58.9458
64.1978
68.3228
71.5965
74.2608
76.476
78.3466
79.9525
81.3859
82.742
84.0999
85.5247
87.0457
88.6706
90.3893
92.1794
94.0148
95.8527
97.6403
99.199
100.25
38.4968
44.8406
51.0154
57.2069
62.5049
66.7369
70.1214
72.8667
75.1396
77.0437
78.677
80.1234
81.4756
82.8261
84.2291
85.7238
87.3183
89.002
90.7533
92.5472
94.3389
96.0807
97.5979
98.6211
37.6482
43.5542
49.4059
55.4535
60.7947
65.1322
68.609
71.443
73.7817
75.7436
77.4102
78.8755
80.2397
81.5814
82.9721
84.446
86.0115
87.6602
89.3704
91.1193
92.8649
94.5618
96.0348
97.0341
36.266
41.9429
47.5028
53.4093
58.8204
63.3362
67.004
69.9688
72.405
74.4248
76.1422
77.6422
79.0154
80.3645
81.7431
83.1958
84.735
86.3508
88.024
89.7317
91.4299
93.082
94.5145
95.486
35.2885
40.5081
45.6557
51.3556
56.8239
61.5127
65.3236
68.433
70.9721
73.0878
74.8647
76.4022
77.8095
79.1614
80.538
81.979
83.4929
85.0756
86.7068
88.3684
90.0217
91.6277
93.0154
93.965
33.8909
38.6923
43.3363
48.7543
54.2808
59.2548
63.4247
66.7677
69.485
71.6992
73.561
75.1648
76.5965
77.9734
79.3492
80.7731
82.2659
83.8183
85.4147
87.0361
88.6389
90.201
91.5489
92.4703
32.6055
37.047
41.165
46.2067
51.7521
56.9988
61.3874
64.9921
67.8776
70.2566
72.2206
73.8867
75.3834
76.7782
78.1645
79.5898
81.0615
82.5824
84.1349
85.7073
87.2668
88.7796
90.0798
90.9823
30.5299
34.5894
38.0361
42.5322
48.0166
53.6806
58.8227
62.8933
66.1484
68.7057
70.811
72.5927
74.1349
75.5806
76.9817
78.393
79.8497
81.3427
82.8619
84.3938
85.8976
87.3686
88.6272
89.5
28.5941
32.4699
35.3444
39.1619
44.4858
50.6115
56.0003
60.6059
64.1529
67.0261
69.3226
71.2073
72.8617
74.3427
75.7702
77.2024
78.6429
80.1054
81.5769
83.056
84.5145
85.928
87.1352
87.9952
24.8867
28.5187
30.4889
33.2239
38.1051
44.5322
51.8574
57.4792
61.9129
65.1418
67.6817
69.7702
71.5003
73.0765
74.5414
75.9606
77.3934
78.8296
80.268
81.7029
83.1006
84.4758
85.6386
86.4612
21.3832
25.5073
27.111
28.7875
32.5612
40.263
46.9758
53.9769
58.9728
62.9157
65.8787
68.1571
70.088
71.7177
73.2317
74.7008
76.1232
77.5289
78.9129
80.2888
81.6324
82.9343
84.0369
84.8613
9.01903
15.7926
16.1973
12.3355
14.9075
21.7744
38.8232
48.1363
55.6224
60.3423
63.7534
66.4182
68.4752
70.2854
71.8711
73.3276
74.751
76.1308
77.479
78.8021
80.0799
81.3498
82.4047
83.1746
8.67308
12.5713
13.129
8.50302
20.1027
23.473
24.3513
41.4187
50.0539
56.7633
61.2522
64.3292
66.7797
68.6709
70.3465
71.897
73.3186
74.6646
75.9465
77.1987
78.402
79.5702
80.546
81.3452
14.6081
17.6315
18.476
17.7529
6.67952
24.4783
17.04
24.0369
44.073
52.4978
58.0312
61.9471
64.6433
66.8906
68.6967
70.238
71.6728
72.9931
74.2306
75.413
76.5443
77.6882
78.6135
79.3328
23.0441
26.0672
27.117
26.4112
23.516
17.8367
17.1205
18.388
30.5411
45.5106
53.8724
58.8096
62.3517
64.7469
66.737
68.4514
69.8988
71.1737
72.3221
73.407
74.4195
75.4174
76.2263
77.0095
25.886
29.8587
32.2656
33.5683
33.2923
30.546
24.5851
28.0548
34.9451
34.8565
47.7573
54.9288
59.0825
62.2417
64.4706
66.1875
67.6733
68.9235
70.0055
70.9865
71.9205
72.8964
73.6396
74.3436
26.8203
30.9148
33.7614
35.7539
36.7376
36.4505
33.8614
26.173
29.2514
10.0701
39.2261
49.3688
55.465
58.9342
61.6033
63.6702
65.1878
66.36
67.302
68.1216
68.824
69.5859
70.1536
70.9205
26.7403
30.9803
33.9041
36.1739
37.6713
38.3543
38.1309
35.9662
29.5937
22.7514
21.5154
41.6481
49.6198
54.8788
57.9621
60.0496
61.6669
62.8159
63.6328
64.2698
64.9058
65.6815
66.0531
66.9145
24.7003
29.2867
32.4818
35.1013
37.0357
38.2923
38.9343
38.8907
36.4106
31.3607
25.6147
28.9098
42.5725
48.8368
53.0985
56.0056
57.6561
58.6298
59.1691
59.4747
59.5118
59.9397
60.1051
60.7898
21.7188
26.6993
30.126
33.0182
35.301
37.0051
38.2591
39.1549
39.2874
36.0226
31.8863
32.7878
31.9087
41.3122
46.2208
48.9902
50.8478
51.7808
51.9804
52.1115
52.0788
53.6111
51.8984
54.1211
18.5894
23.7984
27.2695
30.2533
32.7376
34.7875
36.5333
38.1181
39.4018
39.285
32.1655
34.5847
29.86
30.4475
34.7746
42.5654
43.712
44.4322
43.7359
41.7279
40.8037
40.2448
40.8524
41.2369
15.943
21.0724
24.3577
27.224
29.7262
31.9679
34.0766
36.188
38.2645
39.6806
37.9187
26.8691
30.7921
35.7817
31.3934
23.7907
24.7083
23.7581
21.8933
34.9185
15.5042
41.7485
8.47111
26.4367
13.575
18.5324
21.5643
24.2367
26.6611
28.966
31.2763
33.7041
36.2835
38.6718
39.5999
35.8378
28.2273
34.4791
16.9575
18.6607
32.2466
17.6108
4.28171
40.8464
22.0356
45.9267
19.0322
32.8637
11.8832
16.5511
19.2818
21.7102
23.9864
26.2413
28.5823
31.1003
33.8654
36.7513
39.0496
39.2048
34.6769
33.2743
12.9088
31.1524
21.4705
27.8956
29.1136
39.1272
34.1511
43.3573
36.955
37.6929
10.892
15.2424
17.7116
19.9239
22.0425
24.1789
26.4117
28.8174
31.4813
34.4344
37.3661
39.2394
38.7749
35.6961
33.0548
27.3133
28.5109
30.6452
35.2647
36.1051
38.9044
35.1143
39.1828
35.7904
10.4417
14.6425
16.933
18.9991
20.9925
22.9897
25.039
27.2027
29.5733
32.2578
35.2326
37.9858
39.4025
38.7837
39.42
34.7008
37.9442
39.532
41.2379
42.5244
43.5046
41.7732
41.8297
40.8216
10.5091
14.6151
16.8291
18.837
20.7612
22.6432
24.506
26.4005
28.4148
30.6718
33.2822
36.1439
38.6269
39.83
41.0939
39.2997
41.2033
42.1168
42.3955
43.5288
43.7785
43.5876
42.3516
42.4353
10.9076
15.0088
17.2348
19.2556
21.1623
22.9698
24.6873
26.356
28.0512
29.8799
31.9808
34.4552
37.134
39.3974
41.2576
40.9311
42.068
42.5537
42.0857
43.0391
43.0756
43.2099
42.039
42.4225
11.5287
15.6857
17.9736
20.0537
21.9876
23.7681
25.3958
26.9073
28.3656
29.8532
31.486
33.4101
35.7054
38.1553
40.3841
41.0392
41.9047
42.0009
41.1342
41.7603
41.6362
41.7022
40.9612
41.3553
12.2588
16.572
18.9399
21.0985
23.081
24.8658
26.4518
27.8746
29.1863
30.4446
31.7292
33.1625
34.8874
36.9335
39.0468
40.175
40.9614
40.8369
39.8403
40.1625
39.9324
39.8665
39.5839
39.9461
13.264
17.6136
20.0621
22.3055
24.3458
26.1524
27.7288
29.1142
30.3536
31.4836
32.5493
33.6301
34.8497
36.3153
37.9514
39.0833
39.759
39.56
38.6382
38.7036
38.4397
38.3216
38.4284
38.8111
14.2919
18.736
21.2834
23.6182
25.7209
27.5601
29.1487
30.5314
31.7495
32.8246
33.7768
34.6454
35.5102
36.4722
37.5494
38.3893
38.8522
38.6174
37.8257
37.7044
37.47
37.4052
37.7978
38.2386
15.3611
19.9182
22.5718
24.9995
27.1663
29.045
30.6602
32.063
33.2915
34.3583
35.2677
36.0317
36.6885
37.3027
37.9186
38.3828
38.567
38.2583
37.5579
37.3106
37.1424
37.1952
37.787
38.2909
16.2101
16.6479
17.1119
17.4649
17.7933
18.0395
18.2531
18.4079
18.5294
18.6071
18.6561
18.6701
18.6561
18.6121
18.5415
18.4457
18.327
18.1887
18.0407
17.9124
17.9142
18.0424
18.1896
18.3272
18.4453
18.5405
18.6102
18.653
18.6656
18.6497
18.5985
18.518
18.3932
18.2338
18.0153
17.763
17.4284
17.0684
16.5982
16.1539
20.8615
21.2869
21.7578
22.1249
22.4763
22.7551
23.0047
23.2023
23.3684
23.4941
23.5914
23.6555
23.6902
23.6926
23.6633
23.6027
23.5116
23.3922
23.2531
23.1251
23.1288
23.2584
23.3975
23.5168
23.6075
23.6677
23.6961
23.6923
23.6561
23.5898
23.49
23.361
23.1909
22.9883
22.7334
22.4484
22.0909
21.7173
21.2411
20.8109
23.5937
24.0407
24.5474
24.9486
25.3435
25.6709
25.9742
26.2303
26.459
26.6496
26.8126
26.9441
27.0459
27.1144
27.1478
27.1444
27.1042
27.0282
26.9249
26.8258
26.8292
26.9309
27.0349
27.1114
27.1519
27.1551
27.1212
27.0517
26.9485
26.8148
26.6492
26.4549
26.2219
25.9605
25.6515
25.3176
24.9162
24.5083
23.9959
23.5443
26.076
26.5324
27.0611
27.4828
27.9071
28.2681
28.6103
28.9098
29.1873
29.4321
29.6513
29.8404
29.9996
30.1244
30.2119
30.2591
30.2647
30.2299
30.1643
30.0983
30.101
30.1702
30.2375
30.2733
30.2684
30.2215
30.1338
30.0084
29.848
29.657
29.4353
29.1867
28.9048
28.6001
28.2521
27.8844
27.4534
27.0248
26.4901
26.029
28.2698
28.7143
29.2443
29.6677
30.1021
30.4791
30.8462
31.1782
31.4924
31.7791
32.0424
32.2773
32.4821
32.652
32.7828
32.8708
32.9133
32.9117
32.8751
32.8319
32.8344
32.8809
32.9196
32.9227
32.8812
32.794
32.6632
32.493
32.2871
32.0504
31.7846
31.4945
31.1759
30.8388
30.4658
30.0822
29.6413
29.2113
28.6755
28.2267
30.1579
30.5779
31.1003
31.5198
31.9607
32.3539
32.7425
33.1031
33.4493
33.772
34.073
34.3468
34.5905
34.7985
34.9655
35.0868
35.159
35.1828
35.167
35.1378
35.1402
35.173
35.1913
35.1692
35.0983
34.978
34.8113
34.6033
34.3587
34.0831
33.7796
33.4534
33.103
32.7372
32.3427
31.9431
31.4957
31.0703
30.5429
30.1195
31.7788
32.1749
32.693
33.1139
33.565
33.9751
34.3849
34.7716
35.1463
35.5001
35.8335
36.1405
36.4167
36.6559
36.8522
37
37.0951
37.1377
37.1357
37.1143
37.1168
37.1419
37.1466
37.1063
37.0127
36.8662
36.6705
36.4312
36.1542
35.8457
35.51
35.1526
34.7737
34.3819
33.9663
33.5497
33.0925
32.6656
32.1433
31.7452
33.1887
33.565
34.0829
34.5088
34.9702
35.3965
35.8251
36.2341
36.6328
37.0124
37.3721
37.7055
38.0076
38.2713
38.4902
38.658
38.77
38.8257
38.8329
38.816
38.8187
38.8397
38.8355
38.7823
38.6721
38.5058
38.2877
38.0241
37.7215
37.3867
37.0246
36.6416
36.2387
35.8245
35.3902
34.9575
34.4902
34.0586
33.5368
33.1596
34.4203
34.7775
35.2959
35.7264
36.197
36.6371
37.0814
37.5087
37.9268
38.3269
38.7072
39.061
39.3828
39.665
39.9008
40.0835
40.2082
40.2739
40.2884
40.2757
40.2784
40.2957
40.2848
40.2217
40.0993
39.9184
39.6837
39.4018
39.0797
38.7244
38.3418
37.9384
37.5163
37.0836
36.6338
36.1875
35.7111
35.2755
34.7539
34.3975
35.4806
35.8163
36.3332
36.7674
37.2458
37.6979
38.1556
38.5984
39.0323
39.4489
39.8454
40.215
40.5517
40.8479
41.0964
41.2906
41.4255
41.5005
41.5233
41.5168
41.5197
41.5313
41.5124
41.4405
41.3083
41.1162
40.8691
40.5735
40.2366
39.8656
39.4669
39.0472
38.6092
38.1613
37.6982
37.2401
36.7562
36.3173
35.7984
35.4651
36.3663
36.6747
37.1865
37.6235
38.1093
38.5731
39.0434
39.5004
39.9485
40.379
40.789
41.1714
41.5198
41.8268
42.0853
42.2889
42.4332
42.5181
42.5513
42.5535
42.5566
42.56
42.5312
42.4501
42.3089
42.1077
41.8509
41.5447
41.1962
40.8127
40.4007
39.9669
39.5149
39.0531
38.5774
38.1079
37.6171
37.176
36.663
36.3588
37.074
37.3406
37.8435
38.2822
38.7757
39.2519
39.7357
40.2072
40.6692
41.1133
41.5355
41.929
42.2875
42.6037
42.8708
43.083
43.2365
43.332
43.3769
43.3886
43.3919
43.3864
43.3466
43.2555
43.1055
42.8961
42.631
42.3159
41.9575
41.5631
41.1389
40.6918
40.226
39.7498
39.2608
38.7793
38.2811
37.839
37.3363
37.0741
37.6169
37.8086
38.2872
38.7259
39.2262
39.7162
40.2149
40.7025
41.1795
41.6378
42.0725
42.4772
42.8454
43.1703
43.4456
43.666
43.8287
43.9346
43.9908
44.0112
44.0149
44.0013
43.951
43.85
43.6914
43.4741
43.2012
42.8776
42.5098
42.1045
41.6679
41.207
40.7262
40.2341
39.7304
39.2352
38.7301
38.2882
37.8086
37.6192
38.0267
38.0818
38.5008
38.9278
39.4336
39.9379
40.4534
40.9589
41.4531
41.927
42.3759
42.7926
43.1712
43.5052
43.789
44.0178
44.1895
44.3052
44.3714
44.3991
44.4031
44.3831
44.3236
44.2134
44.0463
43.8212
43.5402
43.2079
42.8299
42.4128
41.9625
41.4861
40.9884
40.4784
39.958
39.4478
38.9364
38.5031
38.0788
38.0201
38.326
38.1696
38.4758
38.8642
39.3659
39.8848
40.4178
40.9433
41.4566
41.9485
42.413
42.8435
43.234
43.5784
43.8714
44.109
44.2895
44.4141
44.4887
44.5221
44.5266
44.5016
44.4345
44.3161
44.1409
43.9075
43.6177
43.2754
42.8859
42.4554
41.9897
41.4957
40.9793
40.4492
39.9108
39.3848
38.8747
38.4761
38.1601
38.3095
38.4849
38.071
38.2168
38.5324
39.0096
39.5365
40.0864
40.6319
41.1649
41.6757
42.1573
42.603
43.0065
43.3622
43.6651
43.9116
44.1005
44.233
44.3143
44.3524
44.3574
44.3288
44.2556
44.1301
43.9471
43.7052
43.406
43.0528
42.6508
42.2058
41.7236
41.2111
40.6751
40.1251
39.5687
39.0326
38.5429
38.2109
38.0453
38.4379
38.3388
37.7205
37.7186
37.9521
38.3919
38.9152
39.4784
40.0403
40.5906
41.1178
41.6147
42.074
42.4895
42.8555
43.1673
43.4216
43.6172
43.7556
43.8418
43.8832
43.8888
43.8579
43.7808
43.6501
43.4609
43.2117
42.904
42.5409
42.1275
41.6692
41.1724
40.6442
40.0916
39.5258
38.9569
38.4259
37.9765
37.7319
37.725
38.3418
37.8652
37.1287
37.0303
37.1982
37.6004
38.1104
38.6765
39.2503
39.8115
40.3494
40.8558
41.3235
41.7461
42.1181
42.4347
42.6927
42.8912
43.0317
43.1196
43.1622
43.1685
43.1376
43.0599
42.9277
42.7361
42.4836
42.1715
41.8031
41.3833
40.9177
40.4127
39.8758
39.3151
38.7412
38.1748
37.6641
37.2608
37.0916
37.1876
37.9236
37.2228
36.452
36.3199
36.4531
36.8279
37.3197
37.8762
38.4466
39.0053
39.5416
40.0461
40.5119
40.9322
41.3014
41.6148
41.8694
42.0639
42.2003
42.2846
42.3258
42.3336
42.3067
42.2344
42.1077
41.9213
41.6734
41.3655
41.0011
40.5848
40.1227
39.6215
39.0886
38.5333
37.9664
37.4139
36.9261
36.553
36.4177
36.5339
37.2688
36.7117
35.9614
35.837
35.961
36.3187
36.7899
37.3259
37.8774
38.4194
38.9399
39.4297
39.8811
40.2875
40.6431
40.9432
41.1846
41.366
41.4897
41.5628
41.5976
41.607
41.5888
41.5287
41.4149
41.2412
41.0059
40.7105
40.3585
39.9549
39.5056
39.0175
38.4987
37.9592
37.4117
36.883
36.4245
36.0857
35.9902
36.1489
36.9417
36.8067
36.0651
35.9327
36.0274
36.347
36.7745
37.2655
37.7739
38.2793
38.7673
39.2277
39.6521
40.0335
40.3658
40.6441
40.865
41.0266
41.1312
41.187
41.2117
41.226
41.2254
41.1873
41.0962
40.9451
40.7331
40.4618
40.1348
39.7571
39.3345
38.874
38.3837
37.8736
37.3571
36.8568
36.4201
36.0907
35.9877
36.1123
36.8481
37.2407
36.5903
36.4993
36.595
36.8916
37.2795
37.7233
38.1851
38.6477
39.096
39.5195
39.9096
40.2591
40.562
40.8134
41.0093
41.1476
41.2294
41.2628
41.2714
41.2899
41.3102
41.296
41.2285
41.1018
40.9148
40.6699
40.3706
40.0216
39.6284
39.1976
38.7368
38.2549
37.7655
37.2836
36.8508
36.5055
36.3586
36.4071
37.0319
37.7936
37.2088
37.159
37.2737
37.5707
37.945
38.3668
38.8046
39.2421
39.6649
40.0631
40.4286
40.7546
41.0353
41.266
41.4427
41.5631
41.6275
41.6435
41.6377
41.661
41.6988
41.7024
41.6527
41.5445
41.3777
41.1549
40.8798
40.5569
40.1921
39.7916
39.3632
38.9163
38.4643
38.0217
37.6225
37.2982
37.1564
37.1797
37.7492
38.3833
37.8176
37.7839
37.9002
38.1901
38.5496
38.9546
39.3739
39.7923
40.1961
40.5756
40.9228
41.2313
41.4955
41.7105
41.8725
41.9792
42.0304
42.0328
42.0135
42.0329
42.075
42.0838
42.0397
41.9378
41.7784
41.5642
41.2988
40.9869
40.634
40.2465
39.8324
39.4011
38.9662
38.5429
38.1618
37.8517
37.7183
37.74
38.2951
45.944
54.3491
62.2728
69.2958
74.6252
78.5938
81.6214
84.0286
86.0926
87.9105
89.5613
91.1081
92.6217
94.1716
95.8112
97.5718
99.4602
101.466
103.567
105.732
107.917
110.043
111.926
113.165
45.1339
53.2654
60.9753
67.8982
73.1922
77.1448
80.171
82.5895
84.6585
86.4645
88.0923
89.6106
91.0927
92.6079
94.2116
95.9334
97.7805
99.7424
101.797
103.913
106.047
108.122
109.959
111.166
44.2576
52.1533
59.6595
66.4792
71.7438
75.6922
78.7295
81.1672
83.2443
85.0429
86.6522
88.145
89.5966
91.0797
92.6472
94.3308
96.1373
98.0555
100.064
102.131
104.215
106.24
108.032
109.207
43.3805
51.0267
58.3283
65.0412
70.2782
74.2307
77.293
79.7622
81.8534
83.6539
85.2469
86.7166
88.1416
89.5929
91.1276
92.775
94.5418
96.4176
98.38
100.399
102.433
104.409
106.155
107.299
42.4266
49.8535
56.9549
63.5674
68.7944
72.7711
75.8706
78.3746
80.4857
82.2924
83.8755
85.3273
86.7273
88.1517
89.6537
91.266
92.9952
94.8302
96.7483
98.721
100.707
102.633
104.336
105.449
41.5335
48.6787
55.5632
62.0686
67.287
71.2934
74.4398
76.993
79.1318
80.9525
82.5353
83.9732
85.354
86.7515
88.2259
89.806
91.4988
93.2938
95.1692
97.0953
99.0322
100.911
102.572
103.653
40.5063
47.4258
54.0957
60.505
65.7416
69.8079
73.0179
75.6188
77.7913
79.6312
81.2228
82.654
84.0181
85.3967
86.843
88.3919
90.0506
91.8077
93.6416
95.5237
97.4148
99.246
100.865
101.917
39.6254
46.1977
52.6136
58.907
64.1591
68.2856
71.5639
74.2348
76.4528
78.3227
79.9303
81.3648
82.7215
84.0798
85.5051
87.0271
88.6529
90.3729
92.1655
94.0029
95.8467
97.6331
99.2098
100.232
38.4849
44.8187
50.9882
57.1788
62.4793
66.7139
70.0977
72.8387
75.1108
77.0188
78.653
80.0997
81.4533
82.8048
84.2085
85.7038
87.2995
88.9846
90.7381
92.5328
94.3324
96.0726
97.6099
98.6026
37.5992
43.503
49.3527
55.4016
60.7459
65.0873
68.57
71.4129
73.7564
75.7165
77.3844
78.8522
80.2163
81.5585
82.9498
84.4248
85.9914
87.6416
89.3553
91.1058
92.858
94.5529
96.0497
97.012
36.2521
41.9169
47.4681
53.3702
58.782
63.3003
66.9695
69.9313
72.3663
74.3927
76.1132
77.6123
78.9881
80.3393
81.719
83.1726
84.7131
86.3305
88.0056
89.7139
91.4226
93.0724
94.5302
95.4636
35.2125
40.4299
45.5763
51.2821
56.7608
61.462
65.2814
68.3997
70.9457
73.0579
74.8339
76.3761
77.7831
79.1347
80.512
81.9539
83.4695
85.0539
86.6895
88.3532
90.0132
91.6176
93.036
93.9377
33.8731
38.6614
43.2916
48.6979
54.2195
59.1913
63.3677
66.7151
69.4324
71.657
73.5253
75.1264
76.5614
77.9422
79.3197
80.7455
82.2397
83.7939
85.3919
87.0136
88.6303
90.1909
91.569
92.4421
32.4848
36.9253
41.039
46.0922
51.6633
56.9419
61.3422
64.9519
67.8478
70.2205
72.1814
73.8554
75.3529
76.7467
78.1338
79.5592
81.0335
82.5565
84.1146
85.6893
87.2553
88.7674
90.1083
90.9467
30.4962
34.5391
37.9683
42.4349
47.8972
53.5577
58.7291
62.824
66.0783
68.6546
70.7691
72.5453
74.0899
75.5401
76.9436
78.3593
79.8174
81.3126
82.8334
84.3658
85.8886
87.3568
88.6546
89.4655
28.3595
32.2535
35.1135
38.9681
44.3756
50.5464
55.9332
60.541
64.119
66.9736
69.2655
71.1634
72.8219
74.3048
75.734
77.1639
78.6083
80.0735
81.552
83.0324
84.4974
85.9148
87.1761
87.9456
24.7045
28.3202
30.2818
32.8707
37.5885
44.2034
51.735
57.4092
61.8
65.0777
67.6364
69.7152
71.4466
73.0224
74.4898
75.9183
77.3525
78.7918
80.232
81.6687
83.0924
84.4597
85.6756
86.4186
20.3745
24.7837
26.3587
28.2114
32.3026
40.1313
46.6703
53.8158
58.9795
62.8553
65.7873
68.0868
70.0246
71.6695
73.1878
74.6506
76.0789
77.4882
78.8801
80.255
81.6044
82.9222
84.0985
84.7894
1.82265
13.6662
15.0052
9.86195
12.9379
21.7571
39.6558
48.233
55.3343
60.1902
63.6963
66.3546
68.4188
70.2122
71.7997
73.2726
74.698
76.0824
77.4327
78.7606
80.0756
81.3268
82.4543
83.1198
6.1381
10.1441
10.3641
13.091
20.2885
16.8603
18.363
40.6519
50.2947
56.8099
61.1077
64.2075
66.6651
68.6033
70.2891
71.8286
73.2591
74.6107
75.9009
77.1476
78.3532
79.5603
80.6452
81.2383
15.8009
18.2204
17.8966
16.0985
8.63015
7.10606
23.3882
26.0868
43.3076
51.9424
57.912
61.8676
64.5914
66.7896
68.5956
70.1634
71.6016
72.9286
74.1683
75.3612
76.5484
77.6635
78.6807
79.2517
23.8303
27.108
28.4372
27.8732
25.0322
18.9048
22.3138
26.9542
28.849
46.0396
53.5878
58.5603
62.1342
64.6394
66.6501
68.3498
69.8138
71.0985
72.2539
73.326
74.3343
75.3985
76.3942
76.8522
26.1726
30.1846
32.6568
34.131
34.1408
31.7485
25.6372
27.4748
32.2571
33.6205
47.6861
54.8587
59.0361
62.0917
64.3232
66.0816
67.5712
68.8324
69.9149
70.9182
71.9331
72.9027
73.7405
74.1933
26.9157
31.0349
33.9083
35.9417
37.0229
36.9955
35.0318
28.8438
31.8259
23.7966
37.0248
48.5766
55.0435
58.7405
61.4357
63.4916
65.0565
66.2479
67.1885
67.978
68.679
69.5206
70.4552
70.6845
26.6282
30.8898
33.8264
36.1111
37.6278
38.3313
38.1137
36.0349
28.0666
28.5355
31.9444
41.6492
49.4405
54.6105
57.7365
59.8853
61.5068
62.6749
63.4919
64.1689
64.9028
65.8018
66.2266
66.5994
24.5285
29.1212
32.304
34.899
36.7943
37.9867
38.4821
37.9902
34.6332
35.3669
35.7558
31.2793
42.4969
48.3366
52.6532
55.6181
57.438
58.4496
58.932
59.1554
59.2718
59.7311
60.7002
60.4043
21.5502
26.5222
29.9196
32.7675
34.9907
36.6146
37.7479
38.4192
37.9794
33.5157
32.4987
22.8697
26.7288
40.8751
45.8492
48.6401
50.6363
51.5357
51.9441
51.683
51.7904
53.5357
52.277
53.9079
18.5047
23.6794
27.1062
30.0327
32.4471
34.4116
36.0429
37.4534
38.4677
37.5559
32.1623
27.6854
25.3025
24.7019
35.1984
41.2498
43.2958
44.143
42.8461
42.0307
40.8046
42.3933
41.5848
38.4155
15.8583
20.9594
24.2044
27.0192
29.4617
31.6357
33.6641
35.672
37.6101
38.9121
38.5564
30.5886
29.5331
14.8674
27.9967
20.379
27.36
23.5061
25.446
13.4651
1.37006
25.6808
8.7806
36.764
13.4768
18.4067
21.401
24.0286
26.4047
28.6594
30.9138
33.2797
35.8031
38.1996
39.7729
37.4415
30.0235
31.583
34.2737
27.194
35.4105
17.6105
32.5444
13.0044
7.66602
32.7085
36.0623
39.9052
11.7777
16.4129
19.1061
21.4947
23.7323
25.9506
28.2533
30.732
33.4671
36.3882
39.0014
39.795
36.7539
30.2027
32.2137
27.7409
31.5086
28.4227
35.6709
32.7305
27.8761
42.1779
35.6191
30.2777
10.8012
15.1143
17.5483
19.7267
21.8141
23.9209
26.1224
28.4958
31.1361
34.1061
37.2039
39.4563
39.658
37.5737
31.6424
34.4171
28.8271
31.0838
33.7166
38.2004
39.8138
32.1562
40.6928
37.8628
10.3747
14.5421
16.8048
18.8455
20.815
22.7871
24.808
26.9402
29.2836
31.9649
35.0142
37.9873
39.8598
40.2576
38.9017
37.0308
37.7873
39.4028
41.0649
43.3689
43.7315
35.357
43.3605
43.2926
10.4737
14.5538
16.7491
18.7396
20.6463
22.5068
24.3437
26.2083
28.1921
30.4284
33.0568
36.0221
38.7628
40.5993
40.9589
40.2752
41.0063
41.8774
42.8148
43.908
44.0243
39.4936
43.2376
44.1402
10.892
14.9789
17.1958
19.2077
21.1037
22.8957
24.5915
26.2329
27.8977
29.6987
31.7881
34.2946
37.0859
39.7058
41.144
41.364
41.8517
42.3595
42.8357
43.3452
43.3143
40.735
42.3706
43.5197
11.5173
15.6831
17.9657
20.0426
21.9708
23.7405
25.3515
26.8407
28.2727
29.7328
31.3444
33.2687
35.6035
38.2254
40.2632
41.2263
41.6641
41.8606
41.8994
41.9309
41.8186
40.307
41.0539
42.0108
12.297
16.5902
18.9552
21.113
23.0922
24.8691
26.4424
27.8483
29.1396
30.3751
31.6386
33.0616
34.7976
36.9248
38.95
40.268
40.7467
40.7367
40.4562
40.1608
40.0396
39.1857
39.5956
40.3327
13.3025
17.6448
20.0942
22.3379
24.3752
26.175
27.7415
29.1143
30.3386
31.4513
32.5
33.5694
34.7919
36.299
37.9043
39.1549
39.6186
39.4891
39.0245
38.553
38.4763
38.1093
38.4416
39.0337
14.3467
18.7811
21.3278
23.6615
25.7606
27.5937
29.1744
30.5479
31.7547
32.817
33.7562
34.6151
35.4806
36.4673
37.5427
38.4597
38.787
38.5599
38.0047
37.4718
37.4627
37.4605
37.8336
38.3778
15.417
19.9675
22.6209
25.0471
27.2103
29.0836
30.6925
32.0885
33.3086
34.3657
35.2653
36.0208
36.677
37.3068
37.9317
38.4464
38.5472
38.2024
37.5948
37.0594
37.1122
37.3729
37.8363
38.3948
45.9947
44.3414
43.4168
41.7973
40.8621
39.2759
38.2434
36.8607
35.7533
34.4709
33.4708
32.2998
31.4029
30.4184
29.4708
28.5676
28.0315
27.3983
27.0519
26.6108
26.611
27.0547
27.3973
28.0148
28.5956
29.5326
30.4537
31.4343
32.3054
33.4903
34.5083
35.79
36.8334
38.2789
39.2828
40.9016
41.817
43.4524
44.2781
45.9606
54.5976
53.1143
52.2627
50.8472
49.9237
48.5722
47.6106
46.4758
45.3895
44.3409
43.4104
42.4489
41.7014
40.8615
40.0341
39.4441
38.8158
38.3669
38.1487
37.868
37.8684
38.1506
38.366
38.8449
39.4155
40.0305
40.8562
41.7049
42.4591
43.3969
44.4073
45.414
46.414
47.6139
48.5958
49.9429
50.8529
52.2716
53.0728
54.584
62.6248
61.2029
60.3782
59.0384
58.1073
56.8572
55.8976
54.7752
53.7897
52.779
51.881
50.9795
50.1971
49.4273
48.7159
48.1258
47.5849
47.1689
46.8936
46.7074
46.7079
46.8951
47.1715
47.592
48.1199
48.7139
49.4257
50.1985
50.9872
51.8779
52.802
53.8026
54.7682
55.8978
56.8691
58.1185
59.0446
60.3878
61.1985
62.6291
69.6298
68.1882
67.2905
65.9316
64.9407
63.6823
62.6686
61.5254
60.5327
59.5092
58.591
57.6943
56.8848
56.1283
55.4491
54.8568
54.3529
53.9563
53.6782
53.5249
53.5254
53.6794
53.9587
54.357
54.8584
55.4504
56.1303
56.8879
57.6997
58.5953
59.5183
60.5403
61.5316
62.6756
63.6921
64.9511
65.9413
67.3019
68.1978
69.6427
74.9093
73.4138
72.4257
71.0204
69.9582
68.6669
67.5963
66.4283
65.3998
64.3597
63.4176
62.5136
61.6926
60.9376
60.2662
59.6822
59.195
58.8145
58.5499
58.4096
58.41
58.5511
58.8166
59.1983
59.685
60.2688
60.9408
61.6967
62.5187
63.4234
64.3669
65.407
66.4358
67.6047
68.6764
69.9685
71.0313
72.4375
73.4263
74.9242
78.8368
77.2983
76.2397
74.8034
73.6857
72.3751
71.2636
70.0831
69.0292
67.9814
67.0267
66.1202
65.2969
64.5461
63.8821
63.3086
62.8343
62.4668
62.2136
62.0811
62.0815
62.2147
62.4688
62.8371
63.3115
63.8853
64.5497
65.3013
66.1254
67.0326
67.9883
69.0365
70.0908
71.2721
72.3845
73.6959
74.8145
76.2517
77.3113
78.8515
81.8316
80.2654
79.1524
77.702
76.5426
75.2239
74.0843
72.8984
71.829
70.7782
69.8174
68.9112
68.0889
67.3426
66.6852
66.1198
65.6548
65.2962
65.0507
64.9231
64.9235
65.0518
65.2982
65.6573
66.1228
66.6885
67.3464
68.0934
68.9165
69.8234
70.7849
71.8363
72.9062
74.0928
75.2332
76.5526
77.713
79.1643
80.2785
81.846
84.2074
82.6222
81.4642
80.0083
78.8192
77.4974
76.3396
75.1502
74.0712
73.0179
72.0531
71.1466
70.3243
69.5801
68.9259
68.3648
67.9044
67.5504
67.3086
67.1835
67.1838
67.3097
67.5522
67.9068
68.3677
68.9293
69.5841
70.3289
71.1518
72.0591
73.0246
74.0785
75.1581
76.3482
77.5067
78.8293
80.0193
81.4761
82.6352
84.2214
86.2467
84.6435
83.4504
81.9841
80.7721
79.4413
78.2682
77.0705
75.981
74.9208
73.9488
73.037
72.2099
71.4624
70.8055
70.2428
69.7813
69.4267
69.1845
69.059
69.0593
69.1856
69.4285
69.7837
70.2457
70.809
71.4665
72.2146
73.0423
73.9547
74.9275
75.9883
77.0783
78.2768
79.4505
80.7822
81.9952
83.4623
84.6565
86.2607
88.0571
86.4263
85.2108
83.7268
82.497
81.1526
79.9649
78.7557
77.6539
76.5838
75.6013
74.6808
73.8452
73.0902
72.4265
71.8578
71.3912
71.0324
70.7869
70.6591
70.6594
70.788
71.0341
71.3936
71.8608
72.4301
73.0944
73.8499
74.6862
75.6074
76.5904
77.6612
78.7636
79.9735
81.1619
82.5071
83.7377
85.2227
86.4391
88.0711
89.7097
88.0494
86.8147
85.3103
84.0625
82.7019
81.4977
80.274
79.1573
78.0738
77.0779
76.1449
75.2972
74.531
73.8568
73.2785
72.8034
72.4375
72.1865
72.0549
72.0553
72.1875
72.4392
72.8058
73.2815
73.8604
74.5352
75.302
76.1503
77.0839
78.0804
79.1646
80.282
81.5063
82.7112
84.0727
85.3212
86.8265
88.0621
89.7236
91.2642
89.5721
88.3213
86.7934
85.5281
84.148
82.9264
81.6854
80.5518
79.452
78.4402
77.4919
76.6294
75.8489
75.1612
74.5704
74.0841
73.7087
73.4503
73.314
73.3143
73.4514
73.7104
74.0865
74.5734
75.1648
75.8532
76.6342
77.4973
78.4463
79.4586
80.5591
81.6933
82.935
84.1574
85.5382
86.8042
88.3331
89.5848
91.278
92.7885
91.0626
89.7969
88.2431
86.9599
85.5582
84.3178
83.0571
81.905
80.7867
79.7569
78.7909
77.9111
77.114
76.4102
75.8045
75.3046
74.9176
74.6503
74.5082
74.5085
74.6513
74.9193
75.3069
75.8074
76.4138
77.1182
77.9159
78.7963
79.7628
80.7933
81.9122
83.065
84.3263
85.5674
86.97
88.2538
89.8086
91.0752
92.802
94.3494
92.5882
91.3072
89.7252
88.4231
86.9975
85.7367
84.4543
83.2817
82.1428
81.0928
80.107
79.2077
78.3916
77.6695
77.0464
76.5307
76.1301
75.8524
75.7036
75.704
75.8534
76.1318
76.533
77.0493
77.6731
78.3958
79.2125
80.1124
81.0987
82.1493
83.2888
84.4621
85.7452
87.0066
88.433
89.7359
91.3187
92.6005
94.3629
96.0013
94.2015
92.9043
91.2916
89.9689
88.5169
87.2339
85.9274
84.7323
83.5705
82.4983
81.4904
80.5694
79.7319
78.9891
78.3462
77.8122
77.3959
77.106
76.9496
76.95
77.1071
77.3976
77.8146
78.3491
78.9926
79.736
80.574
81.4957
82.5041
83.5769
84.7393
85.935
87.2422
88.5259
89.9786
91.302
92.9157
94.2136
96.0144
97.7738
95.9334
94.618
92.9723
91.6267
90.146
88.8384
87.5057
86.2857
85.0989
84.0021
82.9699
82.0248
81.1637
80.3976
79.7323
79.1775
78.7429
78.4388
78.2736
78.274
78.4398
78.7446
79.1798
79.7352
80.401
81.1677
82.0294
82.975
84.0078
85.1051
86.2925
87.5131
88.8465
90.1547
91.6361
92.9823
94.6289
95.9452
97.7865
99.6746
97.7916
96.4559
94.775
93.4046
91.8932
90.559
89.1978
87.9509
86.737
85.6137
84.555
83.5837
82.6965
81.9047
81.2144
80.6359
80.1802
79.8593
79.684
79.6844
79.8604
80.1818
80.6381
81.2172
81.9081
82.7004
83.5881
84.5599
85.6191
86.7429
87.9575
89.2049
90.5667
91.9014
93.4135
94.7846
96.4663
97.8026
99.6867
101.693
99.7667
98.4093
96.6917
95.2949
93.7514
92.3888
90.9978
89.7225
88.4798
87.3283
86.2415
85.2421
84.327
83.5072
82.7892
82.184
81.7039
81.3635
81.1761
81.1764
81.3645
81.7056
82.1861
82.7919
83.5104
84.3306
85.2463
86.2461
87.3333
88.4853
89.7286
91.0043
92.3961
93.7588
95.3033
96.7007
98.4188
99.7769
101.705
103.809
101.838
100.458
98.7035
97.2796
95.7028
94.3117
92.8895
91.5851
90.3127
89.1318
88.016
86.9872
86.0427
85.1932
84.4452
83.8102
83.3022
82.9385
82.7365
82.7369
82.9394
83.3037
83.8122
84.4476
85.1961
86.046
86.9911
88.02
89.1366
90.3176
91.5904
92.8954
94.318
95.7096
97.2869
98.7114
100.466
101.847
103.818
105.99
103.975
102.573
100.783
99.3312
97.7217
96.3012
94.8486
93.5146
92.2124
91.0024
89.8568
88.7987
87.8236
86.9433
86.1633
85.4957
84.9558
84.5642
84.3445
84.3449
84.565
84.9571
85.4978
86.1655
86.9458
87.8266
88.8021
89.8607
91.0063
92.2167
93.5194
94.8538
96.3069
97.728