/*--------------------------------*- C++ -*----------------------------------*\
  =========                 |
  \\      /  F ield         | OpenFOAM: The Open Source CFD Toolbox
   \\    /   O peration     | Website:  https://openfoam.org
    \\  /    A nd           | Version:  6
     \\/     M anipulation  |
\*---------------------------------------------------------------------------*/
FoamFile
{
    version     2.0;
    format      ascii;
    class       volVectorField;
    location    "40";
    object      wallShearStress;
}
// * * * * * * * * * * * * * * * * * * * * * * * * * * * * * * * * * * * * * //

dimensions      [0 2 -2 0 0 0 0];

internalField   uniform (0 0 0);

boundaryField
{
    inlet
    {
        type            calculated;
        value           uniform (0 0 0);
    }
    outlet
    {
        type            calculated;
        value           uniform (0 0 0);
    }
    roughCylinder
    {
        type            calculated;
        value           nonuniform List<vector> 
5120
(
(-0.000240579 -0.000341688 -0.000172102)
(-0.0002949 -0.000443711 -3.93713e-05)
(-0.00032803 -0.000534429 1.67148e-06)
(-0.000373002 -0.000620824 5.53081e-05)
(-0.000428658 -0.000695157 0.000116531)
(-0.000491521 -0.000753118 0.000177549)
(-0.000558024 -0.000792257 0.000234077)
(-0.000623571 -0.000813243 0.00028347)
(-0.000684317 -0.00081877 0.000323792)
(-0.000738641 -0.000814217 0.000354653)
(-0.000787041 -0.000808096 0.000377953)
(-0.000829323 -0.000804391 0.000394988)
(-0.000863311 -0.000803869 0.000404855)
(-0.000892025 -0.000808403 0.000408518)
(-0.000916641 -0.000817348 0.000407049)
(-0.000938491 -0.00083 0.000401459)
(-0.000958901 -0.000845629 0.000392747)
(-0.000979021 -0.000863613 0.00038174)
(-0.000999721 -0.000883533 0.000369057)
(-0.00102158 -0.000905113 0.000355081)
(-0.00104492 -0.00092818 0.000339985)
(-0.00106981 -0.000952626 0.000323783)
(-0.00109622 -0.000978319 0.000306381)
(-0.00112397 -0.00100509 0.000287596)
(-0.00115283 -0.00103272 0.000267179)
(-0.00118244 -0.00106087 0.000244784)
(-0.00121242 -0.0010891 0.000219965)
(-0.00124214 -0.00111675 0.000192022)
(-0.00127085 -0.00114301 0.000159938)
(-0.00129696 -0.0011664 0.000122282)
(-0.00131798 -0.00118531 7.70886e-05)
(-0.00132984 -0.00119645 2.60332e-05)
(-0.000258346 -0.00033051 -0.000162501)
(-0.000315764 -0.000429898 -4.18528e-05)
(-0.000351385 -0.000519419 -4.01547e-06)
(-0.000398383 -0.000605643 4.63684e-05)
(-0.000455657 -0.000681033 0.000105131)
(-0.000519996 -0.000740746 0.000164489)
(-0.000587825 -0.000781965 0.000219957)
(-0.000654824 -0.000805283 0.000268782)
(-0.000717803 -0.000813876 0.000309198)
(-0.000775574 -0.000813609 0.000341259)
(-0.000827954 -0.000811081 0.000366468)
(-0.000873748 -0.000808666 0.000385291)
(-0.00091006 -0.000806659 0.00039603)
(-0.000940219 -0.000810172 0.000400194)
(-0.000966298 -0.00081847 0.000399016)
(-0.000989525 -0.000830799 0.000393635)
(-0.00101129 -0.00084631 0.000385086)
(-0.00103278 -0.000864308 0.000374242)
(-0.00105488 -0.000884302 0.000361752)
(-0.00107819 -0.000905981 0.000348008)
(-0.00110302 -0.000929147 0.000333198)
(-0.00112947 -0.000953669 0.000317341)
(-0.00115747 -0.000979411 0.000300332)
(-0.00118684 -0.00100621 0.000281991)
(-0.00121733 -0.00103382 0.000262063)
(-0.00124856 -0.00106192 0.000240193)
(-0.00128013 -0.00109007 0.000215938)
(-0.00131138 -0.00111762 0.000188593)
(-0.00134153 -0.00114375 0.000157155)
(-0.0013689 -0.00116699 0.000120199)
(-0.00139095 -0.00118579 7.57819e-05)
(-0.00140338 -0.00119684 2.55903e-05)
(-0.000276063 -0.000314499 -0.000146143)
(-0.000336232 -0.000410957 -4.48475e-05)
(-0.000374128 -0.000498542 -1.03485e-05)
(-0.000422748 -0.000583924 3.6577e-05)
(-0.000481336 -0.000659851 9.25897e-05)
(-0.000546995 -0.000721088 0.000150056)
(-0.000616222 -0.000764571 0.000204396)
(-0.000685053 -0.000790913 0.000252839)
(-0.000750784 -0.000803468 0.0002938)
(-0.000812199 -0.000807646 0.000327342)
(-0.000868308 -0.000808352 0.000354241)
(-0.000917178 -0.000807203 0.000374277)
(-0.000956734 -0.000804766 0.000386115)
(-0.000988453 -0.000807009 0.000390789)
(-0.00101604 -0.000814478 0.000389891)
(-0.00104071 -0.000826304 0.000384755)
(-0.00106392 -0.000841542 0.000376421)
(-0.00108684 -0.000859401 0.0003658)
(-0.00111041 -0.000879324 0.000353554)
(-0.00113522 -0.000900947 0.000340105)
(-0.00116159 -0.00092405 0.000325639)
(-0.00118961 -0.000948481 0.000310179)
(-0.00121922 -0.000974101 0.000293626)
(-0.00125022 -0.00100073 0.000275787)
(-0.00128233 -0.00102814 0.000256405)
(-0.00131517 -0.001056 0.00023512)
(-0.00134831 -0.00108388 0.000211488)
(-0.00138106 -0.00111112 0.000184799)
(-0.00141263 -0.00113695 0.000154074)
(-0.00144122 -0.00115988 0.000117891)
(-0.00146426 -0.00117843 7.43338e-05)
(-0.00147723 -0.00118932 2.51004e-05)
(-0.000291641 -0.00029451 -0.000125512)
(-0.000354175 -0.000387555 -4.79035e-05)
(-0.000393927 -0.0004725 -1.69284e-05)
(-0.000443619 -0.000556436 2.63517e-05)
(-0.000503126 -0.000632454 7.93421e-05)
(-0.00056994 -0.00069509 0.00013466)
(-0.000640692 -0.000741086 0.000187734)
(-0.000711704 -0.000770987 0.000235826)
(-0.000780464 -0.000787973 0.000277468)
(-0.000845466 -0.000796559 0.000312505)
(-0.000905119 -0.000800278 0.000340966)
(-0.00095725 -0.000800622 0.000362103)
(-0.0010005 -0.000798923 0.000375235)
(-0.00103431 -0.000799471 0.000380454)
(-0.00106351 -0.000806022 0.000379939)
(-0.00108979 -0.000817224 0.000375117)
(-0.00111452 -0.000832055 0.000367061)
(-0.00113895 -0.000849657 0.000356724)
(-0.00116403 -0.000869396 0.000344788)
(-0.00119036 -0.000890848 0.000331684)
(-0.00121827 -0.000913767 0.000317615)
(-0.00124786 -0.000937977 0.000302607)
(-0.00127904 -0.000963333 0.000286554)
(-0.00131161 -0.000989652 0.000269262)
(-0.00134527 -0.0010167 0.000250468)
(-0.00137963 -0.00104415 0.000229803)
(-0.00141426 -0.0010716 0.000206831)
(-0.00144841 -0.00109838 0.00018083)
(-0.0014813 -0.00112375 0.000150851)
(-0.00151103 -0.00114624 0.000115478)
(-0.00153499 -0.00116444 7.28213e-05)
(-0.00154847 -0.00117509 2.45903e-05)
(-0.000304476 -0.00027129 -0.000102794)
(-0.000368944 -0.000360363 -5.07147e-05)
(-0.00041005 -0.000442036 -2.34279e-05)
(-0.000460244 -0.000523918 1.60314e-05)
(-0.000520259 -0.000599541 6.57109e-05)
(-0.000588065 -0.000663404 0.000118571)
(-0.000660459 -0.000712066 0.000170172)
(-0.000733924 -0.000745809 0.000217843)
(-0.00080586 -0.000767283 0.000260124)
(-0.00087433 -0.000779981 0.000296504)
(-0.000937379 -0.000786507 0.000326399)
(-0.000992888 -0.000788433 0.000348707)
(-0.00103953 -0.000787706 0.000362909)
(-0.00107686 -0.000787464 0.000369121)
(-0.0011079 -0.000792725 0.000369159)
(-0.00113589 -0.000803021 0.000364722)
(-0.00116224 -0.000817285 0.000357042)
(-0.00118825 -0.000834477 0.000347062)
(-0.00121485 -0.000853873 0.000335502)
(-0.0012427 -0.000875007 0.00032281)
(-0.00127213 -0.000897595 0.000309198)
(-0.00130324 -0.000921435 0.000294692)
(-0.00133593 -0.00094637 0.00027919)
(-0.00136999 -0.000972211 0.000262488)
(-0.00140511 -0.000998734 0.000244321)
(-0.00144089 -0.00102561 0.000224312)
(-0.00147688 -0.00105245 0.000202027)
(-0.00151231 -0.00107861 0.000176742)
(-0.00154641 -0.00110336 0.000147535)
(-0.00157715 -0.00112526 0.000112997)
(-0.00160195 -0.00114298 7.12666e-05)
(-0.00161586 -0.00115334 2.40676e-05)
(-0.000314001 -0.000245688 -7.94382e-05)
(-0.00037993 -0.000330279 -5.30961e-05)
(-0.000421856 -0.000408116 -2.96266e-05)
(-0.000471978 -0.000487389 5.82115e-06)
(-0.000532083 -0.000562174 5.18788e-05)
(-0.000600714 -0.000627081 0.000101938)
(-0.000674815 -0.000678458 0.000151801)
(-0.000750862 -0.000716077 0.000198891)
(-0.000826015 -0.000741824 0.00024166)
(-0.000897937 -0.000758264 0.00027919)
(-0.000964433 -0.000767408 0.000310396)
(-0.00102345 -0.000770954 0.000333918)
(-0.00107367 -0.000771242 0.000349154)
(-0.00111505 -0.000771224 0.00035658)
(-0.00114871 -0.000774737 0.000357389)
(-0.00117861 -0.000784079 0.000353544)
(-0.00120674 -0.000797485 0.000346327)
(-0.00123439 -0.000814051 0.000336806)
(-0.00126258 -0.000832952 0.00032571)
(-0.00129197 -0.000853622 0.000313504)
(-0.0013229 -0.000875715 0.00030041)
(-0.00135547 -0.000899029 0.000286464)
(-0.00138959 -0.000923377 0.000271562)
(-0.00142503 -0.000948575 0.000255495)
(-0.0014615 -0.000974396 0.000237994)
(-0.00149855 -0.00100052 0.00021867)
(-0.00153575 -0.00102657 0.000197102)
(-0.00157231 -0.00105194 0.000172551)
(-0.00160747 -0.00107592 0.000144137)
(-0.0016391 -0.00109708 0.000110455)
(-0.00166463 -0.00111423 6.96761e-05)
(-0.0016789 -0.00112424 2.3535e-05)
(-0.000319698 -0.000218556 -5.6537e-05)
(-0.000386539 -0.000298183 -5.49469e-05)
(-0.000428699 -0.000371666 -3.53662e-05)
(-0.000478108 -0.000447755 -4.10417e-06)
(-0.000537754 -0.000521162 3.79981e-05)
(-0.00060688 -0.000586767 8.48489e-05)
(-0.000682586 -0.000640713 0.000132618)
(-0.000761253 -0.000682104 0.000178873)
(-0.000839711 -0.000711911 0.00022191)
(-0.000915196 -0.000731813 0.000260375)
(-0.000985285 -0.000743437 0.000292758)
(-0.00104798 -0.000748641 0.000317527)
(-0.00110203 -0.000750005 0.000333948)
(-0.00114742 -0.000750631 0.000342552)
(-0.00118529 -0.000753529 0.000344625)
(-0.00121729 -0.00076084 0.000341473)
(-0.00124734 -0.000773273 0.000334884)
(-0.0012768 -0.000789027 0.000325934)
(-0.00130661 -0.000807207 0.000315393)
(-0.00133754 -0.00082722 0.000303751)
(-0.00136994 -0.00084867 0.000291253)
(-0.00140392 -0.0008713 0.000277932)
(-0.00143938 -0.000894919 0.000263685)
(-0.00147611 -0.000919334 0.000248301)
(-0.00151378 -0.000944316 0.000231506)
(-0.00155197 -0.000969558 0.000212902)
(-0.00159023 -0.000994693 0.000192077)
(-0.00162774 -0.00101912 0.000168279)
(-0.00166383 -0.0010422 0.000140677)
(-0.0016962 -0.00106251 0.000107868)
(-0.00172235 -0.00107898 6.80586e-05)
(-0.00173689 -0.00108857 2.29954e-05)
(-0.000320877 -0.000190395 -3.48664e-05)
(-0.000388027 -0.000264635 -5.61834e-05)
(-0.000429823 -0.000333294 -4.04929e-05)
(-0.000477865 -0.000405648 -1.35631e-05)
(-0.000536471 -0.000477128 2.42444e-05)
(-0.000605715 -0.000543044 6.74493e-05)
(-0.000682852 -0.000599315 0.000112717)
(-0.000764045 -0.000644206 0.000157766)
(-0.000845736 -0.000677732 0.000200721)
(-0.00092485 -0.000700842 0.000239847)
(-0.000998768 -0.000714894 0.000273282)
(-0.00106543 -0.000721834 0.000299324)
(-0.0011236 -0.000724385 0.00031711)
(-0.00117308 -0.000725649 0.000327009)
(-0.00121495 -0.000728517 0.000330317)
(-0.00125093 -0.000734711 0.0003284)
(-0.00128316 -0.000745312 0.000322616)
(-0.00131456 -0.000759748 0.000314367)
(-0.00134612 -0.000777064 0.000304525)
(-0.00137864 -0.000796273 0.000293555)
(-0.00141248 -0.00081692 0.000281733)
(-0.0014478 -0.000838719 0.000269108)
(-0.00148449 -0.000861458 0.000255576)
(-0.00152234 -0.000884932 0.000240922)
(-0.00156104 -0.000908916 0.000224871)
(-0.00160015 -0.000933115 0.000207013)
(-0.00163927 -0.000957189 0.000186955)
(-0.00167753 -0.000980594 0.000163929)
(-0.00171433 -0.00100268 0.000137154)
(-0.00174725 -0.00102206 0.000105237)
(-0.00177391 -0.00103778 6.64155e-05)
(-0.00178862 -0.00104699 2.24508e-05)
(-0.00031712 -0.000161818 -1.50491e-05)
(-0.000383988 -0.000230384 -5.67377e-05)
(-0.000424814 -0.000293807 -4.48816e-05)
(-0.000470762 -0.000361858 -2.23646e-05)
(-0.000527552 -0.00043072 1.08369e-05)
(-0.000596238 -0.000496283 4.99269e-05)
(-0.000674349 -0.00055436 9.21647e-05)
(-0.000757897 -0.000602426 0.000135525)
(-0.000842923 -0.000639501 0.000178004)
(-0.00092589 -0.000665732 0.0002175)
(-0.0010039 -0.000682183 0.000251828)
(-0.00107481 -0.000690885 0.000279115)
(-0.00113731 -0.000694666 0.000298379)
(-0.00119121 -0.000696674 0.000309825)
(-0.00123724 -0.000699616 0.000314532)
(-0.00127703 -0.000705255 0.000313907)
(-0.00131275 -0.000714557 0.000309306)
(-0.00134686 -0.000727689 0.000302127)
(-0.00138021 -0.000743622 0.000293117)
(-0.00141431 -0.000761702 0.00028292)
(-0.00144957 -0.00078136 0.000271874)
(-0.00148614 -0.000802205 0.000260028)
(-0.00152394 -0.000823987 0.000247281)
(-0.00156276 -0.000846484 0.000233416)
(-0.0016023 -0.000869464 0.000218155)
(-0.00164215 -0.000892635 0.00020108)
(-0.00168189 -0.000915651 0.000181811)
(-0.00172058 -0.000937945 0.000159554)
(-0.00175783 -0.000958941 0.000133608)
(-0.00179108 -0.000977292 0.000102586)
(-0.00181804 -0.000992181 6.47611e-05)
(-0.00183267 -0.00100091 2.19043e-05)
(-0.000308165 -0.000133639 2.36941e-06)
(-0.000373805 -0.000195799 -5.67362e-05)
(-0.00041305 -0.000253919 -4.84059e-05)
(-0.000456257 -0.000317095 -3.02979e-05)
(-0.000510439 -0.00038264 -1.93683e-06)
(-0.000577886 -0.000447174 3.25754e-05)
(-0.000656537 -0.000506542 7.12098e-05)
(-0.000742136 -0.000557354 0.000112292)
(-0.000830249 -0.000597586 0.000153745)
(-0.000917064 -0.00062675 0.000193199)
(-0.000999432 -0.000645615 0.00022821)
(-0.00107496 -0.000656158 0.000256715)
(-0.00114224 -0.000661261 0.000277566)
(-0.00120073 -0.000663977 0.000290717)
(-0.00125111 -0.000667014 0.000297068)
(-0.00129487 -0.000672199 0.000297926)
(-0.00133414 -0.000680652 0.000294713)
(-0.0013711 -0.000692626 0.000288762)
(-0.00140684 -0.000707242 0.000280844)
(-0.00144282 -0.000724122 0.000271644)
(-0.00147952 -0.000742628 0.000261516)
(-0.0015172 -0.000762344 0.000250544)
(-0.00155584 -0.000782986 0.000238646)
(-0.00159526 -0.000804316 0.000225609)
(-0.0016352 -0.000826095 0.000211164)
(-0.00167525 -0.000848032 0.000194881)
(-0.00171514 -0.000869814 0.000176411)
(-0.00175389 -0.00089082 0.000154941)
(-0.00179128 -0.000910565 0.000129857)
(-0.00182457 -0.000927792 9.97785e-05)
(-0.00185165 -0.000941784 6.30073e-05)
(-0.0018661 -0.00094994 2.13266e-05)
(-0.000291764 -0.000105662 1.69542e-05)
(-0.000358053 -0.000162062 -5.59487e-05)
(-0.000394366 -0.000214389 -5.10774e-05)
(-0.000433962 -0.000272121 -3.71498e-05)
(-0.000484521 -0.000333524 -1.37482e-05)
(-0.000549617 -0.000396013 1.57401e-05)
(-0.000627882 -0.000455774 5.00881e-05)
(-0.000715095 -0.000508824 8.81591e-05)
(-0.000806448 -0.000552186 0.000127976)
(-0.000897455 -0.000584416 0.000166957)
(-0.000984532 -0.000605819 0.000202401)
(-0.00106507 -0.00061828 0.000232036)
(-0.00113733 -0.000624633 0.00025449)
(-0.00120084 -0.000628078 0.000269528)
(-0.00125593 -0.000631231 0.000277771)
(-0.00130393 -0.000635998 0.000280384)
(-0.00134679 -0.000643569 0.000278748)
(-0.00138668 -0.000654387 0.000274195)
(-0.00142479 -0.000667703 0.000267531)
(-0.00146257 -0.000683281 0.00025948)
(-0.00150067 -0.000700497 0.000250411)
(-0.00153936 -0.000718923 0.000240428)
(-0.00157868 -0.000738252 0.000229473)
(-0.00161851 -0.000758236 0.000217341)
(-0.00165862 -0.000778637 0.000203774)
(-0.00169867 -0.000799181 0.000188337)
(-0.00173839 -0.000819539 0.000170703)
(-0.00177692 -0.000839134 0.000150055)
(-0.00181425 -0.000857561 0.000125885)
(-0.00184734 -0.000873598 9.6805e-05)
(-0.00187434 -0.000886616 6.11469e-05)
(-0.00188848 -0.000894153 2.0715e-05)
(-0.000268695 -7.88354e-05 2.86987e-05)
(-0.000336075 -0.000130001 -5.43165e-05)
(-0.000369127 -0.000176164 -5.2759e-05)
(-0.000404157 -0.00022804 -4.26896e-05)
(-0.000450045 -0.000284493 -2.41887e-05)
(-0.000511751 -0.000343976 -5.69524e-08)
(-0.000588841 -0.000403325 2.9339e-05)
(-0.000677031 -0.000457988 6.3577e-05)
(-0.000770919 -0.000503919 0.000100942)
(-0.000865813 -0.000538989 0.000138805)
(-0.000957739 -0.000563008 0.000174287)
(-0.0010436 -0.00057751 0.000204892)
(-0.0011215 -0.000585311 0.000229017)
(-0.00119036 -0.00058941 0.000246059)
(-0.00125048 -0.000592606 0.000256407)
(-0.001303 -0.000596895 0.000261038)
(-0.00134985 -0.000603629 0.000261273)
(-0.00139287 -0.000613225 0.000258351)
(-0.00143351 -0.000625208 0.000253156)
(-0.0014732 -0.000639397 0.000246432)
(-0.00151263 -0.000655185 0.000238562)
(-0.00155221 -0.000672174 0.000229691)
(-0.00159204 -0.000690044 0.00021978)
(-0.00163202 -0.00070854 0.000208632)
(-0.00167199 -0.000727421 0.000196003)
(-0.00171164 -0.000746412 0.000181452)
(-0.0017509 -0.000765243 0.000164699)
(-0.00178887 -0.000783317 0.000144909)
(-0.00182576 -0.000800299 0.000121693)
(-0.00185831 -0.000815066 9.36609e-05)
(-0.00188501 -0.000827058 5.91783e-05)
(-0.00189871 -0.000833931 2.00698e-05)
(-0.000238704 -5.4002e-05 3.7388e-05)
(-0.000306429 -9.96609e-05 -5.16809e-05)
(-0.000336409 -0.000139666 -5.32003e-05)
(-0.000366252 -0.000185333 -4.65841e-05)
(-0.000406285 -0.000235937 -3.27831e-05)
(-0.000462971 -0.000291047 -1.42118e-05)
(-0.000537211 -0.000348549 9.5231e-06)
(-0.000625461 -0.000404035 3.89474e-05)
(-0.000722169 -0.000452686 7.29628e-05)
(-0.000821434 -0.000490985 0.000109014)
(-0.000918596 -0.00051793 0.000144074)
(-0.00101028 -0.000534756 0.000175425)
(-0.00109393 -0.000543956 0.00020111)
(-0.00116863 -0.00054876 0.000220273)
(-0.00123418 -0.000551931 0.000232934)
(-0.00129161 -0.000555671 0.000239862)
(-0.00134253 -0.000561372 0.000242203)
(-0.00138892 -0.000569659 0.000241181)
(-0.00143212 -0.000580158 0.000237671)
(-0.00147367 -0.000592793 0.000232449)
(-0.00151441 -0.00060703 0.000225945)
(-0.00155476 -0.000622455 0.000218326)
(-0.00159488 -0.000638746 0.000209568)
(-0.00163478 -0.000655651 0.000199491)
(-0.00167432 -0.000672923 0.000187871)
(-0.00171334 -0.000690313 0.000174266)
(-0.00175174 -0.000707518 0.00015843)
(-0.00178879 -0.000724013 0.000139523)
(-0.00182503 -0.000739538 0.000117307)
(-0.00185678 -0.000753025 9.03741e-05)
(-0.00188297 -0.00076396 5.7118e-05)
(-0.00189607 -0.000770146 1.93976e-05)
(-0.000203815 -3.25417e-05 4.2979e-05)
(-0.000270472 -7.21189e-05 -4.81478e-05)
(-0.000297872 -0.000106331 -5.25004e-05)
(-0.000322437 -0.000145744 -4.88015e-05)
(-0.000355723 -0.000189863 -3.91818e-05)
(-0.000406084 -0.000239523 -2.60262e-05)
(-0.000476301 -0.00029409 -8.43405e-06)
(-0.000563252 -0.000349324 1.52217e-05)
(-0.000660817 -0.0003995 4.47446e-05)
(-0.000763391 -0.000440562 7.79912e-05)
(-0.000865632 -0.000470564 0.000111921)
(-0.000963148 -0.000489895 0.000143572)
(-0.00105334 -0.000500941 0.00017073)
(-0.00113425 -0.000506545 0.000192046)
(-0.00120574 -0.000509732 0.000207221)
(-0.00126838 -0.000512809 0.000216689)
(-0.00132391 -0.000517458 0.00022147)
(-0.00137386 -0.000524289 0.000222623)
(-0.00141991 -0.000533235 0.000221074)
(-0.00146351 -0.000544245 0.000217592)
(-0.00150551 -0.000556806 0.000212632)
(-0.00154648 -0.000570555 0.000206406)
(-0.00158668 -0.000585178 0.000198914)
(-0.00162617 -0.000600399 0.00018999)
(-0.00166491 -0.000615993 0.000179436)
(-0.00170274 -0.000631673 0.000166802)
(-0.00173992 -0.000647223 0.000151919)
(-0.00177569 -0.00066211 0.000133916)
(-0.00181083 -0.000676105 0.000112727)
(-0.00184135 -0.000688259 8.69331e-05)
(-0.00186677 -0.000698126 5.49585e-05)
(-0.00187912 -0.00070363 1.86961e-05)
(-0.000163051 -1.47202e-05 4.51809e-05)
(-0.000226484 -4.75487e-05 -4.32848e-05)
(-0.000251548 -7.59681e-05 -5.0112e-05)
(-0.000270986 -0.000109001 -4.87924e-05)
(-0.000296883 -0.000146021 -4.27043e-05)
(-0.000338817 -0.000188593 -3.45875e-05)
(-0.000401875 -0.000237827 -2.34004e-05)
(-0.00048569 -0.000291358 -6.49499e-06)
(-0.000585015 -0.000343547 1.7269e-05)
(-0.000691549 -0.000388003 4.65501e-05)
(-0.000799083 -0.000421549 7.84787e-05)
(-0.00090311 -0.000444045 0.000109915)
(-0.000999691 -0.000457067 0.000138183)
(-0.00108726 -0.000463726 0.000161602)
(-0.00116482 -0.000466928 0.000179365)
(-0.00123313 -0.000469358 0.00019162)
(-0.00129327 -0.000472733 0.000199064)
(-0.0013471 -0.000478023 0.000202692)
(-0.00139598 -0.000485236 0.000203342)
(-0.00144149 -0.000494429 0.000201806)
(-0.00148469 -0.000505215 0.000198584)
(-0.00152615 -0.000517211 0.000193909)
(-0.00156619 -0.0005301 0.000187801)
(-0.00160498 -0.000543619 0.000180121)
(-0.00164257 -0.000557517 0.000170699)
(-0.00167904 -0.00057156 0.000159096)
(-0.00171456 -0.000585453 0.000145187)
(-0.0017486 -0.00059874 0.000128096)
(-0.00178244 -0.000611261 0.000107974)
(-0.0018115 -0.000622166 8.33679e-05)
(-0.00183593 -0.000630977 5.27185e-05)
(-0.00184737 -0.000635825 1.79714e-05)
(-0.000120417 -1.33827e-06 4.45573e-05)
(-0.000178542 -2.69941e-05 -3.75236e-05)
(-0.000202064 -4.98954e-05 -4.66551e-05)
(-0.000217082 -7.67749e-05 -4.73763e-05)
(-0.000234416 -0.000106343 -4.37079e-05)
(-0.000267275 -0.000141453 -3.91813e-05)
(-0.000324033 -0.000185137 -3.40626e-05)
(-0.000402665 -0.000235295 -2.48499e-05)
(-0.000498117 -0.000286371 -8.14791e-06)
(-0.00060585 -0.000333125 1.58335e-05)
(-0.000717992 -0.000370414 4.45492e-05)
(-0.000827723 -0.000396293 7.48236e-05)
(-0.000931446 -0.000412143 0.000103741)
(-0.00102583 -0.000420258 0.00012901)
(-0.00111025 -0.000423933 0.000149423)
(-0.00118444 -0.000425796 0.000164599)
(-0.00124984 -0.000428041 0.000175005)
(-0.00130764 -0.000431681 0.000181361)
(-0.00135967 -0.000437133 0.000184504)
(-0.00140738 -0.000444508 0.000185181)
(-0.00145173 -0.000453439 0.000183895)
(-0.00149348 -0.000463623 0.000180924)
(-0.00153308 -0.000474762 0.000176317)
(-0.0015708 -0.000486563 0.000169958)
(-0.0016068 -0.000498786 0.000161717)
(-0.00164117 -0.000511135 0.000151147)
(-0.00167459 -0.000523429 0.000138232)
(-0.00170652 -0.000535184 0.000122062)
(-0.00173859 -0.00054622 0.000103029)
(-0.00176559 -0.000555863 7.96465e-05)
(-0.00178874 -0.000563646 5.03751e-05)
(-0.00179907 -0.000567868 1.72162e-05)
(-7.52816e-05 7.24265e-06 4.10767e-05)
(-0.000124884 -1.08633e-05 -2.97517e-05)
(-0.000146806 -2.82364e-05 -3.93621e-05)
(-0.000161025 -4.89689e-05 -3.92473e-05)
(-0.000179263 -7.08669e-05 -3.79894e-05)
(-0.000201329 -9.61348e-05 -4.11538e-05)
(-0.000235385 -0.000129535 -4.21956e-05)
(-0.000302093 -0.000174438 -3.79295e-05)
(-0.000398498 -0.00022683 -2.90387e-05)
(-0.000507802 -0.000276041 -1.2391e-05)
(-0.00062366 -0.000317394 1.15919e-05)
(-0.000739996 -0.000347855 3.96346e-05)
(-0.000850136 -0.000366927 6.83475e-05)
(-0.00095174 -0.000377244 9.50439e-05)
(-0.00104239 -0.00038154 0.000117819)
(-0.0011227 -0.000383131 0.000135945)
(-0.00119306 -0.000384202 0.000149399)
(-0.00125519 -0.0003863 0.000158737)
(-0.00131025 -0.0003899 0.000164582)
(-0.00135983 -0.000395314 0.000167657)
(-0.0014052 -0.00040236 0.000168501)
(-0.00144708 -0.000410736 0.0001674)
(-0.00148594 -0.000420134 0.000164409)
(-0.00152225 -0.000430276 0.000159456)
(-0.00155626 -0.000440906 0.000152453)
(-0.00158845 -0.000451763 0.000142977)
(-0.00161932 -0.000462553 0.000131069)
(-0.00164865 -0.000472846 0.000115807)
(-0.00167869 -0.0004825 9.78999e-05)
(-0.00170353 -0.000491057 7.57997e-05)
(-0.00172518 -0.000497891 4.79483e-05)
(-0.00173428 -0.000501548 1.64371e-05)
(-3.77046e-05 1.21994e-05 3.76202e-05)
(-7.68679e-05 1.80511e-06 -2.19062e-05)
(-9.84192e-05 -1.03398e-05 -3.66188e-05)
(-0.000106525 -2.87567e-05 -4.8547e-05)
(-0.000100314 -5.37443e-05 -4.40838e-05)
(-0.000112852 -7.37933e-05 -2.6736e-05)
(-0.000160209 -9.04981e-05 -2.56823e-05)
(-0.000223842 -0.000121665 -4.1571e-05)
(-0.000292111 -0.000163892 -4.46931e-05)
(-0.000398231 -0.000216133 -3.5246e-05)
(-0.000516985 -0.000261487 -1.81964e-05)
(-0.000637058 -0.000296504 5.75836e-06)
(-0.000754106 -0.00032026 3.30389e-05)
(-0.000862037 -0.000333458 6.02415e-05)
(-0.000960173 -0.000339633 8.50226e-05)
(-0.00104668 -0.000341491 0.000105896)
(-0.00112272 -0.000341934 0.000122485)
(-0.00118892 -0.000342577 0.000134896)
(-0.00124725 -0.000344495 0.000143663)
(-0.00129909 -0.000348121 0.000149388)
(-0.0013454 -0.000353323 0.000152544)
(-0.00138711 -0.000359922 0.000153455)
(-0.00142489 -0.000367656 0.000152184)
(-0.00145936 -0.000376213 0.000148701)
(-0.00149086 -0.000385348 0.000142969)
(-0.00151991 -0.000394698 0.000134556)
(-0.00154766 -0.000404101 0.000123653)
(-0.00157402 -0.000413059 0.000109295)
(-0.00160163 -0.000421403 9.25447e-05)
(-0.00162351 -0.000428884 7.17655e-05)
(-0.00164332 -0.00043483 4.53936e-05)
(-0.00165097 -0.000437982 1.56176e-05)
(-1.36489e-05 1.27689e-05 3.20714e-05)
(-2.78661e-05 6.10805e-06 -1.66404e-05)
(-3.99344e-05 -3.2784e-06 -3.25132e-05)
(-4.41029e-05 -1.83492e-05 -3.73493e-05)
(-3.74844e-05 -2.85372e-05 -3.01999e-05)
(-4.0836e-05 -3.55092e-05 -2.00996e-05)
(-6.04752e-05 -4.02917e-05 -2.16426e-05)
(-0.000108637 -7.68069e-05 -2.78508e-05)
(-0.000207174 -0.000109192 -3.2576e-05)
(-0.000286386 -0.000148937 -5.19745e-05)
(-0.000399788 -0.000202462 -4.28724e-05)
(-0.000525378 -0.000243897 -2.45515e-05)
(-0.000646981 -0.00027261 -2.9871e-07)
(-0.000762261 -0.00029044 2.63e-05)
(-0.000865496 -0.00029868 5.20532e-05)
(-0.000957827 -0.000301518 7.51772e-05)
(-0.00103854 -0.000301615 9.46153e-05)
(-0.00110921 -0.000301333 0.000110142)
(-0.00117049 -0.000301735 0.000121894)
(-0.00122384 -0.000303585 0.000130342)
(-0.0012708 -0.000307056 0.000135951)
(-0.0013121 -0.000312003 0.000139009)
(-0.00134842 -0.000318194 0.000139545)
(-0.00138066 -0.000325313 0.000137593)
(-0.00140924 -0.000333125 0.000133173)
(-0.00143525 -0.000341273 0.000125885)
(-0.00145956 -0.000349488 0.000115995)
(-0.00148249 -0.000357224 0.000102512)
(-0.00150736 -0.000364369 8.69561e-05)
(-0.00152637 -0.000371039 6.75792e-05)
(-0.00154416 -0.000376221 4.27356e-05)
(-0.00155027 -0.00037895 1.47664e-05)
(8.48898e-06 9.41754e-06 2.03465e-05)
(2.72211e-06 3.63871e-06 -8.16763e-06)
(-2.16289e-06 1.7937e-06 -1.40775e-05)
(-7.52502e-06 -1.41695e-06 -1.50786e-05)
(-1.60185e-05 -2.04671e-06 -1.62031e-05)
(-2.35009e-05 -6.02919e-06 -2.66941e-05)
(-3.41413e-05 -2.56667e-05 -3.45041e-05)
(-4.91296e-05 -4.65084e-05 -3.41041e-05)
(-6.48199e-05 -6.09317e-05 -1.98825e-05)
(-0.000202139 -0.000102743 -2.80338e-05)
(-0.000284182 -0.000137511 -5.53279e-05)
(-0.000401451 -0.000186657 -4.80682e-05)
(-0.000528974 -0.000222693 -2.93304e-05)
(-0.000646571 -0.00024477 -5.44233e-06)
(-0.000757331 -0.000257643 2.01281e-05)
(-0.000855387 -0.00026263 4.45638e-05)
(-0.000941659 -0.000263581 6.64466e-05)
(-0.00101572 -0.000262776 8.47906e-05)
(-0.00107992 -0.000262167 9.95033e-05)
(-0.00113532 -0.000262744 0.000110805)
(-0.00118273 -0.000264736 0.000118955)
(-0.00122322 -0.000268215 0.000124246)
(-0.00125764 -0.000273048 0.000126642)
(-0.00128716 -0.000278894 0.000126244)
(-0.00131221 -0.000285548 0.000123134)
(-0.00133402 -0.00029249 0.000116896)
(-0.0013541 -0.000299631 0.000107982)
(-0.00137323 -0.000306254 9.53544e-05)
(-0.00139516 -0.000312315 8.10519e-05)
(-0.0014103 -0.000318184 6.31318e-05)
(-0.00142573 -0.000322687 3.98984e-05)
(-0.00143007 -0.000325035 1.38535e-05)
(2.28007e-05 4.67074e-06 1.98553e-05)
(2.34299e-05 6.68933e-06 3.92692e-06)
(1.49689e-05 1.00135e-05 2.66846e-06)
(-1.14063e-07 1.40783e-05 -6.45306e-06)
(-7.35604e-06 7.79111e-06 -2.03732e-05)
(-8.81441e-06 -1.92104e-06 -2.22426e-05)
(-1.08465e-05 -9.46537e-06 -2.05754e-05)
(-2.6176e-05 -1.36659e-05 -2.98987e-05)
(-3.27764e-05 -2.48195e-05 -4.77416e-05)
(-4.77716e-05 -8.94201e-05 -3.32638e-05)
(-0.000163872 -9.27657e-05 -8.811e-06)
(-0.000282843 -0.000123455 -5.84743e-05)
(-0.000400875 -0.000169462 -5.12074e-05)
(-0.000528437 -0.000200678 -3.15346e-05)
(-0.00064029 -0.000216775 -9.07099e-06)
(-0.000742547 -0.00022501 1.53427e-05)
(-0.000831946 -0.000227299 3.87277e-05)
(-0.000910025 -0.00022715 5.94878e-05)
(-0.00097651 -0.000226103 7.68784e-05)
(-0.00103243 -0.000225641 9.08405e-05)
(-0.00107973 -0.000226494 0.000101501)
(-0.00111903 -0.000228811 0.000109057)
(-0.00115106 -0.000232525 0.000113314)
(-0.00117747 -0.00023732 0.000114472)
(-0.00119865 -0.000243051 0.000112678)
(-0.00121669 -0.000249137 0.000107549)
(-0.00123263 -0.000255499 9.96295e-05)
(-0.00124778 -0.000261128 8.78249e-05)
(-0.00126638 -0.00026615 7.48202e-05)
(-0.00127804 -0.000271521 5.84774e-05)
(-0.00129094 -0.000275442 3.69178e-05)
(-0.00129359 -0.000277499 1.28917e-05)
(3.23975e-05 1.12777e-05 3.45117e-05)
(4.07796e-05 8.9175e-06 -5.79407e-06)
(4.02887e-05 4.40868e-06 -9.59614e-06)
(3.45651e-05 -2.89344e-06 -1.3319e-05)
(3.05872e-05 -9.75256e-06 -1.61789e-05)
(2.50559e-05 -1.44628e-05 -1.35009e-05)
(1.35039e-05 -1.02131e-05 -9.18714e-06)
(-2.74313e-06 -4.84968e-06 -1.85503e-05)
(-3.78664e-05 -1.74756e-05 -4.0487e-05)
(-1.84891e-05 -2.63848e-05 -4.07201e-05)
(-5.39749e-05 -4.51048e-05 -2.83863e-05)
(-0.000158195 -7.26357e-05 -4.27567e-05)
(-0.0002875 -0.000111123 -5.99045e-05)
(-0.000390798 -0.000147777 -5.27891e-05)
(-0.000512371 -0.000174631 -3.29956e-05)
(-0.000619135 -0.000186999 -1.08876e-05)
(-0.000713487 -0.000192767 1.27498e-05)
(-0.000792744 -0.000193815 3.49419e-05)
(-0.000860888 -0.000193238 5.4494e-05)
(-0.000918231 -0.000192717 7.09634e-05)
(-0.000965086 -0.00019296 8.40009e-05)
(-0.0010026 -0.000194466 9.37561e-05)
(-0.00103171 -0.000197347 9.98025e-05)
(-0.00105454 -0.00020133 0.000102451)
(-0.00107117 -0.000206297 0.000101903)
(-0.00108408 -0.000211454 9.77443e-05)
(-0.00109467 -0.000217033 9.07171e-05)
(-0.00110528 -0.000221528 7.96947e-05)
(-0.00112083 -0.000225645 6.81099e-05)
(-0.00112789 -0.000230475 5.34321e-05)
(-0.0011381 -0.000233894 3.36726e-05)
(-0.00113878 -0.000235641 1.18297e-05)
(4.21413e-05 1.35125e-05 4.02462e-05)
(5.81006e-05 1.11513e-05 -7.68617e-06)
(6.39189e-05 7.46321e-06 -1.52933e-05)
(6.52872e-05 7.04221e-09 -1.96781e-05)
(6.35167e-05 -8.42989e-06 -2.15927e-05)
(5.82665e-05 -1.65738e-05 -2.11941e-05)
(4.79852e-05 -2.34158e-05 -1.90574e-05)
(3.39682e-05 -2.51844e-05 -1.4022e-05)
(1.928e-05 -2.42524e-05 7.21013e-06)
(-3.60501e-05 3.71521e-05 -2.47487e-05)
(-2.23812e-05 -1.58406e-05 -5.22947e-05)
(-4.87499e-05 -3.45253e-05 -2.6839e-05)
(-0.000151628 -6.95971e-05 -4.08072e-05)
(-0.000292614 -9.91264e-05 -5.35509e-05)
(-0.000386399 -0.000128923 -5.33503e-05)
(-0.000492285 -0.000149918 -3.32694e-05)
(-0.000585318 -0.000158273 -1.03912e-05)
(-0.000667407 -0.000162472 1.2282e-05)
(-0.000736344 -0.000163243 3.30922e-05)
(-0.000791997 -0.00016296 5.13953e-05)
(-0.00083737 -0.000163146 6.64368e-05)
(-0.000872573 -0.000164319 7.82026e-05)
(-0.000898186 -0.000166648 8.58522e-05)
(-0.000917091 -0.000170077 8.98639e-05)
(-0.000929074 -0.000174498 9.05056e-05)
(-0.000937866 -0.000179038 8.73774e-05)
(-0.000944198 -0.000184242 8.13217e-05)
(-0.000951305 -0.000187765 7.10949e-05)
(-0.000963155 -0.000190838 6.09598e-05)
(-0.000966367 -0.000195395 4.81075e-05)
(-0.000973548 -0.000198204 3.02285e-05)
(-0.000972599 -0.000199636 1.0694e-05)
(5.07056e-05 1.26458e-05 4.23169e-05)
(7.15518e-05 1.03012e-05 -6.81481e-06)
(8.12438e-05 6.71813e-06 -1.53039e-05)