/*--------------------------------*- C++ -*----------------------------------*\
  =========                 |
  \\      /  F ield         | OpenFOAM: The Open Source CFD Toolbox
   \\    /   O peration     | Website:  https://openfoam.org
    \\  /    A nd           | Version:  6
     \\/     M anipulation  |
\*---------------------------------------------------------------------------*/
FoamFile
{
    version     2.0;
    format      ascii;
    class       volScalarField;
    location    "40";
    object      yPlus;
}
// * * * * * * * * * * * * * * * * * * * * * * * * * * * * * * * * * * * * * //

dimensions      [0 0 0 0 0 0 0];

internalField   uniform 0;

boundaryField
{
    inlet
    {
        type            calculated;
        value           uniform 0;
    }
    outlet
    {
        type            calculated;
        value           uniform 0;
    }
    roughCylinder
    {
        type            calculated;
        value           nonuniform List<scalar> 
5120
(
42.58
50.3442
56.5111
62.5185
67.6583
71.8012
75.1082
77.7737
79.9526
81.7806
83.3764
84.8064
86.1088
87.3153
88.4555
89.5596
90.6575
91.7757
92.9364
94.1556
95.4417
96.7966
98.2168
99.6952
101.221
102.783
104.363
105.937
107.468
108.883
110.045
110.724
41.882
49.3662
55.3393
61.2126
66.2836
70.3936
73.6834
76.3412
78.5205
80.3554
81.9585
83.3908
84.6833
85.8747
86.9972
88.0808
89.1553
90.2488
91.3842
92.5766
93.8345
95.1598
96.5492
97.9951
99.4877
101.013
102.557
104.094
105.588
106.969
108.102
108.763
41.1251
48.3607
54.1491
59.8872
64.8876
68.9668
72.2449
74.9035
77.0936
78.9445
80.5601
81.9965
83.284
84.4649
85.5705
86.6335
87.6863
88.7567
89.8667
91.0327
92.2632
93.5595
94.9182
96.3321
97.7911
99.2823
100.789
102.29
103.748
105.093
106.198
106.842
40.3262
47.3302
52.936
58.537
63.469
67.5238
70.7983
73.4664
75.6764
77.5514
79.1847
80.6285
81.9155
83.0855
84.1778
85.2249
86.2578
87.306
88.3931
89.5344
90.7381
92.0063
93.3353
94.7177
96.1436
97.5997
99.0714
100.535
101.957
103.268
104.345
104.971
39.5005
46.28
51.6993
57.1577
62.0202
66.0558
69.3363
72.0259
74.2669
76.1722
77.8268
79.2821
80.5746
81.7423
82.8244
83.8551
84.8701
85.8987
86.9633
88.0806
89.2593
90.5006
91.8009
93.1531
94.5468
95.9697
97.4067
98.8349
100.222
101.5
102.549
103.157
38.6373
45.1986
50.4271
55.7393
60.5364
64.5644
67.8638
70.5834
72.86
74.8002
76.482
77.9548
79.2566
80.4243
81.4997
82.5214
83.5222
84.5326
85.5782
86.6743
87.8289
89.0444
90.3172
91.6396
93.0018
94.3913
95.7937
97.1867
98.5383
99.7835
100.806
101.397
37.7518
44.0956
49.1243
54.2799
59.0075
63.0318
66.3599
69.1233
71.4491
73.4324
75.1453
76.6395
77.9561
79.1358
80.2126
81.2252
82.2132
83.2094
84.2362
85.3113
86.444
87.6352
88.8816
90.1758
91.5079
92.8656
94.2347
95.5935
96.9126
98.125
99.1201
99.6942
36.8185
42.9453
47.7649
52.7556
57.4166
61.4532
64.8297
67.6478
70.0243
72.0539
73.8059
75.331
76.6711
77.8618
78.945
79.9581
80.9409
81.9249
82.938
83.9962
85.1081
86.2762
87.4972
88.7635
90.0654
91.3908
92.7269
94.051
95.3354
96.5165
97.4855
98.0427
35.8415
41.7512
46.3495
51.1592
55.7427
59.7908
63.224
66.1156
68.5686
70.6627
72.463
74.0241
75.3903
76.6065
77.705
78.7236
79.7016
80.6794
81.6788
82.7201
83.8136
84.9605
86.1572
87.3971
88.6704
89.966
91.2691
92.5604
93.8135
94.9626
95.9061
96.4461
34.8013
40.4864
44.8491
49.4597
53.9612
58.0393
61.56
64.544
67.0722
69.2315
71.0899
72.7002
74.1102
75.3521
76.4693
77.5001
78.4874
79.4633
80.4566
81.4871
82.5637
83.6902
84.8637
86.077
87.3208
88.5836
89.8543
91.1111
92.3296
93.4468
94.3648
94.8878
33.6377
39.1084
43.2256
47.6156
52.0137
56.1109
59.7243
62.8318
65.4903
67.7571
69.6952
71.3668
72.818
74.1018
75.2494
76.3002
77.2929
78.2723
79.2596
80.2787
81.3415
82.4497
83.6008
84.7887
86.0043
87.2379
88.4754
89.6983
90.8862
91.9729
92.8652
93.3706
32.3787
37.6377
41.4897
45.6277
49.9014
54.0335
57.7872
61.0494
63.8254
66.1945
68.2255
69.9731
71.498
72.8293
74.0145
75.0914
76.1082
77.0956
78.0865
79.1024
80.153
81.2441
82.374
83.536
84.7223
85.9214
87.1262
88.3146
89.4667
90.52
91.3873
91.8753
30.8628
35.9217
39.4866
43.3326
47.4374
51.5699
55.4563
58.9328
61.9582
64.5255
66.6972
68.555
70.1469
71.5436
72.7768
73.8932
74.9279
75.9313
76.9241
77.9341
78.976
80.0525
81.162
82.3
83.4584
84.6298
85.8001
86.9533
88.0759
89.0993
89.9414
90.411
29.2174
34.0919
37.3626
40.8755
44.7622
48.8998
52.9947
56.7267
59.9319
62.6765
65.0153
66.9975
68.7138
70.1919
71.495
72.6573
73.7365
74.7604
75.7694
76.7864
77.822
78.8849
79.9754
81.088
82.2166
83.3501
84.4868
85.6048
86.6905
87.6774
88.4931
88.9441
27.0144
31.723
34.6518
37.7436
41.3122
45.3453
49.5659
53.6769
57.4311
60.581
63.1879
65.3853
67.2218
68.81
70.1833
71.4116
72.5252
73.5834
74.6049
75.6224
76.6556
77.7083
78.7805
79.87
80.9703
82.0777
83.1782
84.2583
85.3131
86.271
87.0615
87.4934
24.5223
29.1465
31.7966
34.4425
37.5571
41.4973
46.1105
50.6443
54.5927
58.091
61.0521
63.4786
65.5424
67.2711
68.7768
70.0848
71.2736
72.3683
73.4228
74.4619
75.4966
76.5398
77.5953
78.6592
79.728
80.7911
81.8542
82.8973
83.9135
84.8285
85.5909
86.002
20.6876
25.3507
27.6498
29.8028
32.6106
36.0304
40.0254
45.1613
50.6298
55.0184
58.5347
61.4364
63.7442
65.6885
67.299
68.7138
69.9607
71.1187
72.2013
73.2481
74.2882
75.3268
76.3658
77.4066
78.4455
79.4841
80.5091
81.509
82.4914
83.3779
84.1139
84.504
15.971
21.1095
23.2818
24.1684
23.7242
26.6406
34.2556
40.5942
45.5289
50.9196
55.3681
58.7532
61.5438
63.7427
65.6242
67.1876
68.5651
69.7818
70.921
72.0122
73.0645
74.0984
75.1226
76.1363
77.1395
78.1229
79.1018
80.0601
81.0019
81.8347
82.5389
82.9044
5.72266
11.9033
13.9422
15.1022
14.4415
14.9904
16.9554
26.0145
38.7484
45.3921
51.0548
55.7036
59.0376
61.7492
63.8027
65.5511
67.0271
68.3611
69.5554
70.6624
71.7307
72.7668
73.7761
74.7651
75.735
76.6948
77.634
78.5418
79.4421
80.2463
80.9213
81.2636
3.60931
8.52887
9.38725
9.45751
10.837
10.1002
14.3093
19.9123
18.915
36.3309
45.2851
51.0265
55.6955
58.8768
61.5561
63.6124
65.3386
66.7667
68.0553
69.2474
70.3452
71.3832
72.3785
73.3366
74.2614
75.1473
76.0209
76.8755
77.7338
78.4654
79.1027
79.4126
10.7343
15.678
17.9229
19.3904
16.9841
12.289
11.1701
15.672
16.351
20.2785
34.9173
45.5476
51.2201
55.985
58.9773
61.414
63.3213
64.9895
66.3905
67.6078
68.7379
69.7884
70.7701
71.6987
72.5832
73.4445
74.2792
75.0753
75.8758
76.576
77.1769
77.4601
19.2768
23.556
25.2585
25.8849
25.5802
23.8944
20.9761
16.1994
22.0309
24.8642
22.6248
33.7409
45.6708
50.74
55.4487
58.5774
61.0425
62.8643
64.4305
65.8216
67.0145
68.0772
69.0442
69.9328
70.752
71.5042
72.2271
72.9363
73.6977
74.2915
74.8469
75.0811
21.3655
26.2859
28.9653
30.9419
32.1432
32.4184
31.4562
28.9092
23.6815
25.0512
18.0974
16.9281
32.1359
45.9924
50.9803
55.1345
57.9434
60.3341
62.1573
63.5759
64.8322
65.9274
66.8809
67.7292
68.4912
69.2135
69.908
70.5681
71.2341
71.7797
72.2773
72.4798
22.2434
27.2593
30.1453
32.4702
34.2107
35.3482
35.8201
35.4303
33.6491
28.9274
28.0761
22.0823
21.3594
30.1538
44.1383
50.0012
54.4302
57.0575
59.1828
61.0177
62.4134
63.5392
64.4732
65.2561
65.9091
66.4441
66.9068
67.358
68.0082
68.3886
68.8419
68.9549
21.7613
26.9242
29.9788
32.533
34.5566
36.0453
37.0004
37.4058
37.1475
35.7516
31.6173
28.3432
24.7018
25.5649
34.2632
44.5053
48.7256
52.8572
55.6745
57.4349
58.9504
60.1515
61.0715
61.7889
62.3286
62.8298
63.3033
63.8752
64.3398
64.5778
64.8754
64.9458
20.3709
25.6672
28.8129
31.4949
33.6944
35.4152
36.6805
37.5252
37.9701
37.92
36.813
32.9319
26.497
28.0538
11.3843
28.18
42.5765
46.9103
50.1311
53.207
55.0784
56.3503
57.2154
57.7906
58.1191
58.1912
58.0804
57.8247
58.3956
58.3809
58.8293
58.7409
18.4722
23.8567
27.0244
29.7486
32.0287
33.8837
35.3435
36.4632
37.3148
37.9376
38.1881
37.3951
33.5261
30.3418
16.855
21.7786
27.6028
39.2388
44.6216
46.4546
48.4227
49.7904
50.7994
51.0677
51.1349
51.2856
51.2542
52.7797
53.038
52.4037
52.0758
51.5514
16.2954
21.6586
24.7486
27.4144
29.6821
31.5941
33.1953
34.5435
35.7211
36.8033
37.7834
38.4207
37.9858
34.5835
28.1434
28.667
27.0841
23.4476
29.852
38.8145
41.9675
43.582
44.0948
44.3635
43.2676
42.3955
40.2633
38.2721
39.4418
36.8087
36.5339
37.774
14.1011
19.3051
22.2156
24.7245
26.8895
28.7737
30.4378
31.948
33.3819
34.8201
36.2874
37.6726
38.6261
38.2719
35.2655
29.277
29.872
25.4833
22.2923
19.0159
22.1621
24.0571
27.5979
23.8419
28.4624
21.3334
17.9082
25.0105
27.6133
27.637
37.0088
41.1498
12.1737
17.1003
19.7585
22.0418
24.0391
25.8306
27.4873
29.0779
30.6723
32.3382
34.1203
35.9693
37.6829
38.8201
38.6698
34.6608
26.2464
32.837
23.0901
23.6435
23.3421
19.7328
32.0925
22.694
38.1911
27.907
33.3287
33.9449
35.9903
33.2774
36.0836
37.2769
10.6868
15.2695
17.6617
19.7043
21.5138
23.183
24.7867
26.388
28.043
29.8017
31.7109
33.778
35.9143
37.8502
39.1104
38.6778
35.1913
29.1147
26.927
29.1112
27.3038
18.3862
34.5
28.052
34.4838
34.7626
29.1619
37.3598
36.1268
33.2605
27.9618
28.7029
9.58976
13.9348
16.1033
17.9456
19.5998
21.1618
22.6999
24.263
25.8898
27.6161
29.4834
31.5317
33.7647
36.0697
38.1259
39.3164
38.9539
36.2372
33.6211
30.1784
27.9998
26.3338
25.5053
29.8807
32.573
35.0309
38.3904
33.9392
33.6697
37.5235
39.6393
40.5366
9.00952
13.1704
15.1839
16.899
18.4621
19.9599
21.4442
22.9447
24.484
26.0889
27.7978
29.6626
31.7327
34.01
36.3589
38.3927
39.5313
39.3521
38.6941
37.5224
36.8546
37.374
36.4311
38.7114
39.7561
40.8768
42.7501
39.2774
39.2503
40.9349
43.3405
43.7806
8.84283
12.9208
14.8684
16.5408
18.082
19.563
21.0155
22.4526
23.8857
25.3369
26.8423
28.4522
30.2272
32.2222
34.4364
36.7096
38.6481
39.8
40.2669
40.249
40.122
40.5393
40.3268
41.1848
41.456
41.9325
42.9539
41.1943
41.0096
41.4216
43.5872
43.9322
9.01938
13.0908
15.0445
16.7417
18.3142
19.8146
21.2577
22.646
23.9867
25.2992
26.6151
27.9771
29.4388
31.0637
32.908
34.9634
37.0617
38.8649
40.1245
40.8027
41.0212
41.3664
41.3144
41.6653
41.4993
41.5423
42.0987
41.2581
40.8454
40.7726
42.5571
42.8609
9.44716
13.5627
15.5694
17.3351
18.9727
20.5177
21.9732
23.3361
24.6126
25.8217
26.9915
28.1565
29.3578
30.6472
32.0849
33.7205
35.5335
37.3679
38.9661
40.1097
40.7102
41.1244
41.1133
41.1315
40.6821
40.3576
40.5231
40.0456
39.5456
39.4101
40.8281
41.1004
10.0749
14.264
16.3457
18.1981
19.9136
21.5133
22.9931
24.3494
25.5901
26.7352
27.8104
28.8424
29.8598
30.8982
32.0041
33.2307
34.6113
36.1148
37.6001
38.8583
39.6966
40.2124
40.2264
40.0242
39.4036
38.8517
38.7212
38.3677
37.9091
37.8958
39.0106
39.2728
10.849
15.1388
17.3068
19.2511
21.0449
22.6991
24.2069
25.5674
26.7928
27.9056
28.9302
29.8868
30.7933
31.6707
32.5478
33.4648
34.4612
35.5546
36.6983
37.773
38.6001
39.1165
39.135
38.8154
38.1322
37.479
37.1536
36.8569
36.5351
36.6912
37.5977
37.8815
11.6789
16.1364
18.3984
20.4339
22.302
24.0074
25.5441
26.916
28.141
29.2445
30.2504
31.1739
32.0255
32.815
33.5567
34.2742
34.9972
35.7521
36.5355
37.3004
37.9328
38.3243
38.2974
37.9171
37.2321
36.5513
36.1252
35.8759
35.7193
36.0309
36.823
37.1516
12.6445
17.2234
19.5782
21.7022
23.6405
25.3942
26.9603
28.3491
29.5845
30.6948
31.7031
32.6213
33.4546
34.2062
34.8805
35.4882
36.0449
36.57
37.0729
37.5419
37.9184
38.1131
37.9878
37.5544
36.878
36.1991
35.735
35.5337
35.5297
35.9682
36.7112
37.0934
13.778
14.2179
14.714
15.1142
15.4951
15.7962
16.0554
16.2537
16.4092
16.5151
16.5826
16.6101
16.6027
16.5608
16.4894
16.3907
16.2665
16.1208
15.9608
15.8034
15.6964
15.7345
15.8386
15.9481
16.0432
16.1164
16.1633
16.1831
16.1717
16.1271
16.0443
15.9262
15.763
15.5611
15.3037
15.0097
14.6404
14.2588
13.7846
13.3725
18.4989
18.9541
19.4693
19.8876
20.287
20.6104
20.8934
21.1176
21.3002
21.4349
21.5316
21.5889
21.6107
21.5963
21.5486
21.4692
21.3588
21.22
21.0589
20.8919
20.7718
20.8056
20.9079
21.0093
21.0897
21.1427
21.1654
21.1579
21.1171
21.0425
20.9309
20.785
20.5959
20.3697
20.0901
19.7755
19.3896
18.9915
18.499
18.0725
20.956
21.4367
21.9815
22.4251
22.8527
23.2066
23.524
23.7854
24.0083
24.1861
24.3274
24.4307
24.4993
24.531
24.5262
24.4859
24.4097
24.2989
24.1583
24.0033
23.8847
23.9056
23.985
24.0558
24.0994
24.1103
24.0875
24.0318
23.9413
23.8174
23.6587
23.4678
23.2367
22.9718
22.6568
22.3111
21.8969
21.4739
20.9522
20.5019
23.1685
23.6675
24.234
24.6961
25.1471
25.5272
25.8755
26.1714
26.4325
26.6519
26.8366
26.9848
27.099
27.1763
27.2154
27.2152
27.1753
27.0954
26.9803
26.8453
26.7384
26.7409
26.7902
26.8263
26.8306
26.7982
26.729
26.6243
26.4842
26.3118
26.1067
25.8716
25.5993
25.2975
24.9495
24.5758
24.137
23.6947
23.1509
22.6831
25.1693
25.6712
26.2441
26.7113
27.173
27.5671
27.9341
28.253
28.5408
28.791
29.0103
29.1952
29.3467
29.4617
29.5373
29.5717
29.5629
29.5106
29.4196
29.3054
29.212
29.1977
29.2186
29.2238
29.1942
29.1252
29.0171
28.8719
28.6914
28.4794
28.2366
27.9665
27.664
27.3366
26.9675
26.578
26.1273
25.679
25.1282
24.658
26.9561
27.4449
28.0111
28.4717
28.933
29.3313
29.708
30.0424
30.3516
30.6277
30.8761
31.0923
31.2761
31.4234
31.5309
31.595
31.6134
31.5854
31.5154
31.4192
31.3361
31.3096
31.3075
31.2864
31.2282
31.1282
30.987
30.8077
30.5932
30.3478
30.0736
29.7749
29.448
29.101
28.7192
28.3234
27.872
27.4295
26.8858
26.4293
28.5309
28.9965
29.5492
29.9983
30.4552
30.8554
31.2414
31.5916
31.9213
32.222
32.4973
32.7424
32.9557
33.1322
33.2679
33.3584
33.4008
33.3936
33.341
33.2586
33.1821
33.1473
33.1282
33.0861
33.0038
32.8772
32.7073
32.4981
32.2534
31.9783
31.6758
31.3509
31.0017
30.6364
30.2424
29.8413
29.3929
28.9613
28.4319
28
29.9132
30.3525
30.8922
31.3315
31.7864
32.1929
32.5906
32.958
33.3081
33.6323
33.9329
34.2045
34.4444
34.6473
34.808
34.9217
34.9844
34.9946
34.9558
34.8829
34.8103
34.7703
34.7393
34.6808
34.579
34.43
34.2356
34.0002
33.7289
33.4271
33.0988
32.7496
32.379
31.9954
31.5882
31.179
30.7297
30.3068
29.7917
29.3876
31.1348
31.5499
32.0806
32.5148
32.973
33.3883
33.7989
34.1834
34.5526
34.8985
35.2217
35.5168
35.7801
36.0057
36.1878
36.3211
36.4007
36.4248
36.3963
36.3299
36.2591
36.2162
36.1773
36.107
35.9898
35.8226
35.6078
35.3503
35.056
34.7311
34.3801
34.0092
33.619
33.2181
32.7975
32.3784
31.9254
31.5053
30.9999
30.6217
32.2276
32.6218
33.1468
33.5803
34.0432
34.4681
34.8907
35.2905
35.6767
36.0414
36.384
36.6992
36.9822
37.2267
37.4267
37.5758
37.6692
37.704
37.6832
37.6208
37.5509
37.5065
37.4629
37.3843
37.2555
37.0741
36.8429
36.5675
36.2544
35.9101
35.5401
35.1507
34.7436
34.3272
33.8943
33.4656
33.0079
32.5881
32.088
31.7323
33.214
33.5884
34.1091
34.5427
35.0099
35.443
35.8762
36.2892
36.6897
37.07
37.429
37.7606
38.0598
38.3198
38.5341
38.6959
38.8
38.8435
38.8285
38.7692
38.7002
38.6552
38.6085
38.5239
38.3866
38.1943
37.9504
37.6611
37.333
36.9731
36.5875
36.183
35.7618
35.3326
34.8893
34.4523
33.9905
33.5708
33.0755
32.7407
34.1031
34.4565
34.9725
35.4054
35.8759
36.3161
36.7581
37.182
37.5946
37.9879
38.3602
38.7052
39.0174
39.2897
39.5155
39.6876
39.8006
39.8511
39.8418
39.7861
39.7189
39.673
39.6234
39.5338
39.3899
39.1893
38.9358
38.6356
38.2958
37.9238
37.5259
37.1091
36.6766
36.2368
35.785
35.3412
34.8765
34.4579
33.9685
33.6557
34.8971
35.2266
35.7358
36.1669
36.6398
37.0861
37.5356
37.9689
38.3916
38.7957
39.179
39.5348
39.8576
40.14
40.3751
40.5557
40.6762
40.7338
40.7308
40.6808
40.6169
40.5693
40.5154
40.4207
40.2708
40.0636
39.8027
39.4943
39.1455
38.764
38.3562
37.9296
37.4877
37.0391
36.5803
36.1309
35.6644
35.2481
34.7669
34.4791
35.5948
35.8956
36.3954
36.8238
37.2984
37.7501
38.2065
38.6483
39.0798
39.4934
39.8859
40.2509
40.5824
40.8731
41.1158
41.3039
41.4316
41.4964
41.501
41.459
41.4002
41.3501
41.2898
41.1889
41.0334
40.8206
40.5538
40.2389
39.8833
39.4941
39.0785
38.6435
38.1936
37.7373
37.2722
36.8181
36.3505
35.9379
35.4677
35.2106
36.1948
36.4593
36.9468
37.3712
37.8472
38.3042
38.7674
39.2173
39.6574
40.0795
40.4804
40.8534
41.1924
41.4903
41.7398
41.9346
42.0694
42.142
42.1557
42.1233
42.0705
42.0173
41.9496
41.8418
41.6804
41.4624
41.1907
40.8707
40.5093
40.1138
39.6914
39.249
38.7917
38.328
37.8569
37.3982
36.9305
36.5232
36.0684
35.849
36.6989
36.9148
37.3847
37.8034
38.2803
38.7428
39.2132
39.6716
40.1201
40.5506
40.9595
41.34
41.6858
41.9902
42.2461
42.4473
42.5893
42.6703
42.6936
42.6713
42.6245
42.5686
42.4935
42.3783
42.211
41.9883
41.7121
41.3876
41.0212
40.6202
40.1913
39.7419
39.2773
38.8061
38.3288
37.8656
37.3989
36.9994
36.5666
36.3958
37.112
37.2583
37.7002
38.1122
38.589
39.0575
39.5356
40.003
40.4605
40.8997
41.3165
41.7044
42.057
42.3676
42.6297
42.8374
42.9866
43.0759
43.109
43.0963
43.055
42.9971
42.9152
42.7932
42.6203
42.3929
42.1127
41.7841
41.4131
41.0066
40.5713
40.1147
39.6423
39.1633
38.6796
38.2122
37.7482
37.3606
36.9593
36.8559
37.4433
37.4898
37.8862
38.2857
38.7617
39.2364
39.7227
40.2
40.667
41.1155
41.5407
41.9362
42.2957
42.6127
42.881
43.0953
43.2516
43.3492
43.3915
43.3875
43.3511
43.2919
43.2047
43.0766
42.8985
42.6668
42.3827
42.0499
41.6741
41.262
40.8202
40.3558
39.8752
39.3879
38.898
38.4274
37.9694
37.5999
37.2452
37.2364
37.7
37.6097
37.9357
38.3114
38.784
39.2648
39.7599
40.2474
40.7248
41.1832
41.6175
42.021
42.388
42.7118
42.9867
43.2076
43.3712
43.4767
43.5273
43.5309
43.4989
43.439
43.3478
43.2147
43.032
42.7962
42.5081
42.1712
41.7905
41.3723
40.9232
40.4506
39.9613
39.4657
38.9702
38.4985
38.0518
37.7094
37.4243
37.5438
37.8769
37.6146
37.8419
38.1773
38.639
39.1268
39.6307
40.1295
40.6178
41.0868
41.5307
41.9431
42.3179
42.6491
42.931
43.1587
43.3294
43.4425
43.5007
43.511
43.4828
43.4229
43.3287
43.1917
43.005
42.7655
42.4735
42.132
41.7459
41.3212
40.8645
40.3835
39.8854
39.3822
38.8826
38.4135
37.9838
37.6844
37.4967
37.7786
37.9443
37.4931
37.5999
37.8778
38.3173
38.8073
39.3221
39.8325
40.3323
40.8123
41.2664
41.688
42.0713
42.4101
42.6992
42.9341
43.1119
43.232
43.2971
43.3131
43.2883
43.2287
43.1326
42.9927
42.8028
42.5599
42.2641
41.9181
41.5267
41.0955
40.6313
40.1422
39.6366
39.1273
38.627
38.1646
37.7625
37.5234
37.4548
37.9163
37.8542
37.226
37.2072
37.4161
37.8233
38.3081
38.8311
39.3531
39.8641
40.3546
40.8186
41.2493
41.6409
41.9875
42.2838
42.5255
42.7099
42.8363
42.9072
42.9281
42.9063
42.8475
42.7506
42.6089
42.417
42.1716
41.8728
41.5231
41.127
40.6903
40.2201
39.7246
39.2138
38.7017
38.2049
37.7548
37.3892
37.2202
37.2734
37.9037
37.5756
36.7979
36.6653
36.8033
37.1726
37.6451
38.1715
38.705
39.2256
39.7258
40.1982
40.6369
41.0357
41.389
41.6916
41.9393
42.1292
42.2609
42.3365
42.361
42.3417
42.2839
42.1875
42.046
41.8537
41.6076
41.3076
40.9563
40.5577
40.118
39.6444
39.1459
38.6333
38.1223
37.631
37.1981
36.8701
36.7639
36.9102
37.6552
37.0826
36.2071
35.9953
36.0755
36.4093
36.8654
37.3888
37.9284
38.4579
38.9649
39.4436
39.8878
40.2916
40.6495
40.9563
41.2079
41.4015
41.5363
41.6144
41.641
41.6233
41.5674
41.4731
41.3341
41.1444
40.9007
40.6029
40.253
39.8557
39.4168
38.9442
38.4473
37.9376
37.4319
36.9492
36.5336
36.235
36.1705
36.3671
37.1672
36.3924
35.4869
35.2454
35.295
35.6061
36.0481
36.5657
37.1063
37.6403
38.15
38.6308
39.0763
39.4814
39.8403
40.148
40.4004
40.5944
40.7294
40.8073
40.8336
40.8163
40.7625
40.6726
40.5396
40.3565
40.1196
39.8281
39.4846
39.0931
38.6601
38.1935
37.703
37.2005
36.7035
36.2309
35.8292
35.5469
35.4988
35.7026
36.5019
35.6565
34.7701
34.5379
34.5821
34.8841
35.316
35.8258
36.3612
36.8922
37.3983
37.8754
38.3171
38.7183
39.0735
39.3774
39.6262
39.8166
39.9477
40.0215
40.0438
40.0247
39.9733
39.8907
39.768
39.5965
39.3712
39.0913
38.759
38.3786
37.9563
37.5003
37.0203
36.5285
36.0425
35.5814
35.1908
34.9162
34.8705
35.0627
35.8432
35.1083
34.2575
34.0478
34.0965
34.3938
34.8147
35.3118
35.8342
36.3528
36.8477
37.3143
37.7459
38.1374
38.4833
38.7786
39.0191
39.2013
39.3242
39.3894
39.4034
39.3791
39.3299
39.258
39.1507
38.996
38.7876
38.5242
38.2078
37.8431
37.4363
36.9951
36.5296
36.0521
35.5798
35.1327
34.7534
34.4843
34.4369
34.616
35.3809
34.868
34.077
33.9042
33.9659
34.2607
34.6683
35.1462
35.6462
36.142
36.6168
37.0648
37.4794
37.855
38.1863
38.468
38.6958
38.8661
38.9771
39.0301
39.0318
38.9979
38.9506
38.894
38.8079
38.6751
38.4879
38.2455
37.9498
37.6056
37.219
36.7979
36.3521
35.894
35.4407
35.0131
34.6489
34.3866
34.3352
34.4942
35.2257
35.0866
34.3323
34.1797
34.2426
34.5253
34.9109
35.3607
35.8292
36.2929
36.7403
37.1635
37.5559
37.9113
38.2242
38.4894
38.7021
38.859
38.9573
38.9976
38.9857
38.9398
38.894
38.8573
38.7958
38.687
38.5234
38.3044
38.0325
37.7125
37.3503
36.9535
36.5316
36.0966
35.6649
35.2563
34.9064
34.6454
34.5769
34.6897
35.3421
35.6232
34.9047
34.7694
34.8281
35.0932
35.4504
35.866
36.2976
36.7284
37.1464
37.5432
37.9117
38.2455
38.5391
38.7872
38.9852
39.1292
39.2165
39.2468
39.2246
39.1692
39.1272
39.1122
39.0744
38.9886
38.8482
38.6532
38.4065
38.1126
37.7775
37.4085
37.0145
36.6069
36.2018
35.8177
35.4895
35.2417
35.1735
35.2618
35.8702
36.1716
35.5216
35.424
35.4921
35.7494
36.0856
36.4733
36.8749
37.2783
37.6709
38.0445
38.3915
38.7059
38.982
39.2145
39.399
39.5316
39.6094
39.6318
39.6028
39.5414
39.5014
39.4994
39.476
39.405
39.2804
39.1023
38.8738
38.5992
38.2843
37.936
37.5631
37.1768
36.7927
36.4291
36.1212
35.8932
35.8454
35.9523
36.5862
36.6845
36.0522
35.9603
36.0191
36.2602
36.5745
36.9387
37.319
37.7032
38.0783
38.4359
38.7685
39.0699
39.3343
39.5567
39.7326
39.858
39.9302
39.9485
39.9169
39.8551
39.8198
39.826
39.8112
39.7497
39.6357
39.4692
39.2532
38.992
38.6908
38.3565
37.9975
37.6242
37.2518
36.8976
36.5958
36.3683
36.3145
36.4049
37.0126
42.7087
50.477
56.6493
62.6602
67.8026
71.9473
75.2557
77.9219
80.1009
81.9291
83.5256
84.9563
86.2593
87.4664
88.6075
89.7125
90.8109
91.9295
93.0906
94.3101
95.5963
96.9511
98.3712
99.8493
101.375
102.936
104.516
106.09
107.62
109.036
110.196
110.875
42.0336
49.5176
55.4935
61.3684
66.4396
70.5492
73.8383
76.4953
78.674
80.5088
82.1124
83.5453
84.8385
86.0307
87.1535
88.2373
89.3121
90.4062
91.542
92.7345
93.9925
95.3178
96.7068
98.1523
99.6441
101.17
102.713
104.25
105.743
107.125
108.256
108.918
41.2609
48.502
54.2965
60.0387
65.042
69.1232
72.4027
75.0619
77.2519
79.1028
80.7189
82.1556
83.4431
84.624
85.73
86.7938
87.8472
88.9177
90.0278
91.1939
92.4243
93.7204
95.0789
96.4924
97.9506
99.4413
100.948
102.449
103.905
105.253
106.356
106.999
40.4951
47.4991
53.1083
58.7107
63.642
67.6948
70.9668
73.6328
75.8417
77.716
79.3491
80.7928
82.0797
83.2503
84.3426
85.3893
86.422
87.4703
88.5577
89.6989
90.9025
92.1705
93.499
94.8809
96.3062
97.7617
99.2324
100.697
102.117
103.431
104.505
105.131
39.6457
46.4319
51.8583
57.3214
62.1869
66.2245
69.5068
72.1971
74.4376
76.3421
77.9965
79.4515
80.7437
81.9104
82.9919
84.0229
85.0386
86.0671
87.1313
88.2485
89.4269
90.6678
91.9677
93.3192
94.7124
96.1347
97.5707
98.9993
100.385
101.665
102.711
103.32
38.8286
45.391
50.6241
55.9379
60.7332
64.7567
68.0506
70.7656
73.0398
74.979
76.6597
78.1312
79.4317
80.5989
81.674
82.6947
83.6941
84.704
85.7497
86.8455
87.9998
89.2149
90.487
91.8088
93.1702
94.559
95.9603
97.354
98.7047
99.9526
100.971
101.562
37.9115
44.2636
49.3004
54.4611
59.1913
63.2174
66.5476
69.312
71.6363
73.617
75.3279
76.8208
78.1367
79.3143
80.3891
81.4011
82.3897
83.3857
84.4114
85.4859
86.618
87.8087
89.0545
90.3478
91.6789
93.036
94.4044
95.7635
97.0803
98.2962
99.2883
99.8623
37.0385
43.169
47.9961
52.9899
57.648
61.6765
65.0421
67.8507
70.2225
72.2506
74.0011
75.5237
76.8602
78.0488
79.1305
80.1417
81.1217
82.1038
83.1166
84.1745
85.2857
86.4532
87.6732
88.9387
90.2397
91.5645
92.8985
94.2237
95.5072
96.6917
97.6564
98.2134
36.0268
41.9459
46.5533
51.3682
55.9531
60.0019
63.4373
66.3307
68.7806
70.8676
72.6622
74.2196
75.5845
76.7977
77.8924
78.909
79.8869
80.8646
81.8622
82.9021
83.9946
85.1405
86.3366
87.5753
88.8474
90.1414
91.4441
92.736
93.9864
95.1402
96.0798
96.6193
35.0594
40.7525
45.1276
49.7451
54.244
58.3093
61.8101
64.7749
67.2931
69.451
71.3082
72.9153
74.3184
75.5554
76.6694
77.6972
78.6797
79.651
80.6433
81.6733
82.7489
83.8745
85.0465
86.2588
87.5015
88.7637
90.032
91.2897
92.5072
93.6295
94.542
95.0635
33.8687
39.3493
43.477
47.8721
52.2696
56.3652
59.981
63.0914
65.7431
67.9937
69.918
71.5801
73.0286
74.3082
75.4505
76.4973
77.4888
78.4684
79.4532
80.4695
81.5307
82.6374
83.7879
84.9741
86.1879
87.4194
88.6559
89.8806
91.065
92.1575
93.0456
93.5496
32.6945
37.965
41.8363
45.9886
50.2631
54.3771
58.095
61.3188
64.0744
66.4429
68.4745
70.2197
71.7331
73.0554
74.2341
75.3059
76.3157
77.295
78.2833
79.2985
80.3476
81.4375
82.565
83.7259
84.9105
86.1094
87.3101
88.5001
89.6511
90.7119
91.5729
92.0573
31.1729
36.2408
39.8192
43.6723
47.7749
51.9034
55.7945
59.2775
62.2875
64.8176
66.9575
68.7927
70.3787
71.7688
72.9954
74.1052
75.1368
76.1409
77.1307
78.1362
79.1755
80.2496
81.3587
82.4942
83.6502
84.8181
85.9874
87.1444
88.2615
89.2933
90.129
90.5969
29.6284
34.5157
37.8151
41.3571
45.2572
49.372
53.3986
57.0496
60.2143
62.9634
65.3078
67.2908
68.9882
70.4515
71.7419
72.8954
73.9646
74.9754
75.979
76.9949
78.0285
79.09
80.1768
81.2881
82.4143
83.5483
84.6792
85.7991
86.8824
87.8808
88.6887
89.1341
27.4567
32.1652
35.1094
38.2108
41.7738
45.8088
50.067
54.2073
57.9228
60.9802
63.5151
65.6599
67.4831
69.0588
70.4242
71.6429
72.7503
73.8102
74.8284
75.8392
76.8683
77.9175
78.9897
80.0756
81.1726
82.2744
83.3728
84.4589
85.5077
86.4768
87.2592
87.6867
25.1165
29.7532
32.4569
35.191
38.4089
42.3322
46.7308
51.052
54.9185
58.4427
61.4152
63.8498
65.8778
67.583
69.0635
70.3553
71.5302
72.6047
73.6495
74.6865
75.7186
76.7604
77.8103
78.8726
79.9379
81.0027
82.0581
83.1031
84.1149
85.0478
85.7997
86.2017
21.3017
25.9065
28.156
30.1532
32.6466
36.1116
40.7072
46.1104
51.4792
55.6301
58.9925
61.7722
64.054
65.968
67.5692
68.9712
70.2069
71.368
72.4472
73.4847
74.5187
75.5519
76.5917
77.6274
78.6614
79.6913
80.7114
81.7214
82.6972
83.5989
84.3256
84.7073
16.705
21.8864
24.3786
26.2945
28.1289
31.4257
36.2388
41.4028
46.0968
51.4968
55.8891
59.2833
61.9817
64.1452
65.9739
67.5054
68.8623
70.0482
71.1711
72.2587
73.3078
74.3405
75.3564
76.368
77.3662
78.3529
79.3218
80.2831
81.2145
82.0765
82.7657
83.117
5.11951
11.3003
12.5449
11.6088
10.8417
11.3791
17.8322
28.4911
39.899
46.2276
51.7759
56.1401
59.4536
62.0715
64.115
65.8469
67.3024
68.6412
69.832
70.9265
71.9858
73.0141
74.0257
75.007
75.9692
76.9158
77.8437
78.7673
79.6626
80.4877
81.1543
81.4782
2.70432
7.5113
9.36279
9.81833
9.27858
17.0217
18.2251
7.806
21.977
38.4701
46.2438
51.9941
56.2907
59.459
62.0158
64.0032
65.6976
67.0782
68.3408
69.5254
70.6191
71.6565
72.6399
73.5948
74.5131
75.4036
76.2647
77.1263
77.9607
78.7421
79.3553
79.6421
10.304
14.6066
15.619
15.5231
13.3104
16.0335
18.242
13.8381
12.2248
18.4479
37.1989
46.0567
52.0594
56.3717
59.3593
61.777
63.6444
65.3169
66.7111
67.9129
69.0302
70.0691
71.0564
71.9724
72.8436
73.6856
74.4937
75.3122
76.1149
76.8452
77.4466
77.6897
19.2189
23.4934
25.1077
25.4491
24.4857
21.9302
19.0063
10.9699
12.1192
21.9996
14.4134
36.6703
45.9037
51.7517
56.1285
59.0864
61.4983
63.2492
64.7776
66.1496
67.3365
68.401
69.3497
70.2334
71.0454
71.8022
72.5131
73.2435
73.946
74.6316
75.1386
75.3354
21.7552
26.6447
29.2457
31.0659
31.9902
31.834
30.2412
26.8431
20.6287
18.9841
6.84303
16.1951
36.9224
46.1253
51.4223
55.6292
58.3648
60.7483
62.5422
63.9479
65.1875
66.2647
67.2323
68.0554
68.7936
69.4868
70.1172
70.7973
71.4883
72.0868
72.624
72.736
22.6334
27.6401
30.495
32.7444
34.3559
35.3068
35.5221
34.7374
32.1561
26.3313
23.3909
3.79826
14.9816
35.1131
45.6136
50.7479
55.0332
57.5641
59.6658
61.4375
62.8195
63.9544
64.8585
65.6343
66.2805
66.8177
67.2838
67.809
68.3028
68.867
69.1865
69.2394
22.2084
27.3429
30.366
32.8618
34.7982
36.1733
36.9952
37.256
36.8292
35.0825
30.319
24.8746
26.2009
22.0259
33.4738
44.75
49.3242
53.4892
56.1194
57.9165
59.4277
60.6067
61.5534
62.2078
62.717
63.1466
63.4755
63.9593
64.4978
64.9133
65.4234
65.2947
20.8239
26.0964
29.2232
31.8718
34.0211
35.6775
36.8702
37.6431
38.0293
37.958
36.8742
32.8425
28.3625
28.4971
24.0404
31.7593
43.2259
47.5029
51.0736
53.8401
55.6564
56.937
57.7689
58.325
58.6496
58.7516
58.7172
58.8025
58.931
59.263
59.1548
58.9372
18.9319
24.3077
27.4734
30.1859
32.4416
34.2601
35.6778
36.7593
37.5857
38.2028
38.4758
37.6783
33.3392
30.7611
19.2882
16.4787
30.3537
40.3828
44.6334
46.9708
49.1028
50.6375
51.4509
51.6929
51.7234
51.4682
51.7062
51.5748
51.6819
52.5918
52.8442
53.0374
16.7381
22.1235
25.2365
27.9164
30.1861
32.0875
33.6698
34.9974
36.1586
37.23
38.1952
38.7628
37.9636
33.3439
30.4595
10.7263
26.9985
24.4491
32.8681
39.9191
42.9544
44.4182
44.9042
44.8108
44.8696
43.4965
40.2464
40.8486
40.5441
37.8259
39.0901
34.567
14.4855
19.7395
22.6924
25.2353
27.4227
29.3191
30.9893
32.5032
33.9411
35.3812
36.8439
38.2076
39.0655
38.5034
34.969
25.0597
21.8744
29.6114
26.7569
18.9734
24.2308
27.1041
28.8545
30.0564
23.425
18.424
38.0378
17.8096
14.1454
32.0894
20.5979
33.6817
12.4555
17.4443
20.1533
22.4818
24.5164
26.3396
28.025
29.6429
31.2622
32.9489
34.7431
36.5905
38.2794
39.3628
38.9869
36.3997
26.7247
28.9686
20.8299
25.9896
13.7377
26.4153
12.2541
37.2688
22.2547
21.7755
38.1004
25.7355
16.1392
36.4672
26.2706
36.1653
10.896
15.5293
17.966
20.0519
21.9026
23.6121
25.2558
26.8954
28.5844
30.3712
32.3022
34.3817
36.511
38.413
39.5697
39.539
35.946
28.1372
27.5867
24.4043
19.0229
27.1468
20.9866
27.7943
31.0219
27.0297
36.0436
34.8777
33.0697
35.7778
33.6763
25.5021
9.74606
14.131
16.3349
18.2144
19.9069
21.5085
23.0861
24.6859
26.3445
28.0978
29.9884
32.0558
34.2979
36.5849
38.5712
39.8128
39.3977
36.8875
33.2555
29.4958
26.6962
22.9364
29.8284
29.0594
29.9343
35.8502
34.1446
37.5689
37.6327
37.6412
37.9486
38.0149
9.14552
13.3346
15.3736
17.1185
18.7138
20.2444
21.7586
23.2844
24.8443
26.4673
28.194
30.077
32.1637
34.445
36.7587
38.7463
39.7885
39.7896
38.7717
38.055
36.744
35.3459
36.8217
39.4719
39.2188
42.3683
41.6583
42.5574
41.9845
42.7913
42.3216
42.9553
8.98773
13.0875
15.0541
16.7504
18.3172
19.821
21.2902
22.737
24.1752
25.6306
27.1418
28.7606
30.5475
32.5538
34.7652
37.0136
38.8863
40.0952
40.4902
40.6436
40.2549
39.7961
40.7125
42.0143
41.7419
43.1604
42.9414
42.8872
42.3429
43.2977
42.8249
43.5333
9.19712
13.2884
15.2584
16.9759
18.5684
20.0824
21.5298
22.9136
24.2448
25.5469
26.8547
28.2125
29.6748
31.3046
33.155
35.2133
37.2985
39.1491
40.4226
41.1606
41.2651
41.1324
41.6777
42.4214
42.2353
42.6678
42.4606
42.1043
41.7848