/*--------------------------------*- C++ -*----------------------------------*\
  =========                 |
  \\      /  F ield         | OpenFOAM: The Open Source CFD Toolbox
   \\    /   O peration     | Website:  https://openfoam.org
    \\  /    A nd           | Version:  6
     \\/     M anipulation  |
\*---------------------------------------------------------------------------*/
FoamFile
{
    version     2.0;
    format      ascii;
    class       volScalarField;
    location    "30";
    object      p;
}
// * * * * * * * * * * * * * * * * * * * * * * * * * * * * * * * * * * * * * //

dimensions      [0 2 -2 0 0 0 0];

internalField   nonuniform List<scalar> 
380496
(
0.0124722
0.0128241
0.0125821
0.012511
0.0124598
0.0124051
0.0123533
0.0123004
0.0122463
0.0121912
0.0121355
0.0120792
0.0120226
0.0119657
0.0119084
0.0118507
0.0117924
0.0117333
0.0116729
0.0116109
0.0115469
0.0114802
0.0114104
0.0113368
0.011259
0.0111759
0.0110873
0.0109921
0.0108902
0.0107803
0.0106636
0.010537
0.0104073
0.0102618
0.010133
0.0124469
0.0127898
0.0125588
0.0124931
0.0124456
0.0123935
0.0123426
0.0122896
0.0122342
0.0121771
0.0121185
0.0120588
0.011998
0.0119364
0.0118739
0.0118104
0.0117457
0.0116797
0.011612
0.0115421
0.0114699
0.0113945
0.0113159
0.0112331
0.0111459
0.0110534
0.0109555
0.010851
0.0107402
0.0106214
0.0104964
0.0103596
0.0102217
0.0100559
0.00991857
0.012418
0.0127544
0.0125339
0.0124742
0.0124308
0.0123811
0.012331
0.0122775
0.0122205
0.0121609
0.012099
0.0120353
0.0119699
0.0119029
0.0118345
0.0117645
0.0116928
0.0116191
0.0115431
0.0114644
0.0113828
0.0112976
0.0112085
0.0111149
0.0110166
0.0109126
0.0108031
0.0106869
0.0105645
0.0104341
0.0102986
0.0101511
0.010006
0.00983194
0.00969601
0.0123818
0.0127154
0.0125075
0.0124554
0.0124171
0.0123705
0.0123217
0.012268
0.0122098
0.012148
0.0120832
0.0120159
0.0119463
0.0118747
0.0118011
0.0117254
0.0116475
0.0115672
0.0114842
0.0113981
0.0113087
0.0112154
0.0111181
0.0110161
0.0109093
0.0107968
0.0106789
0.0105545
0.0104243
0.0102862
0.0101435
0.00998862
0.00983744
0.00965406
0.00951413
0.0123486
0.0126732
0.0124808
0.0124371
0.0124042
0.0123609
0.0123132
0.0122592
0.0121995
0.0121353
0.0120675
0.0119964
0.0119226
0.0118461
0.0117672
0.0116857
0.0116016
0.0115146
0.0114245
0.011331
0.0112338
0.0111325
0.0110268
0.0109163
0.0108009
0.0106798
0.0105533
0.0104205
0.0102821
0.0101362
0.00998649
0.00982471
0.00966868
0.00947948
0.00934002
0.0123035
0.0126275
0.0124528
0.0124191
0.0123926
0.012353
0.0123068
0.0122526
0.0121916
0.0121252
0.0120544
0.0119798
0.0119019
0.011821
0.0117373
0.0116505
0.0115608
0.0114678
0.0113714
0.0112713
0.0111674
0.0110591
0.0109464
0.0108287
0.0107062
0.0105781
0.0104448
0.0103054
0.0101609
0.0100092
0.00985431
0.00968743
0.00952775
0.00933334
0.00919329
0.0122568
0.0125783
0.0124244
0.012402
0.0123827
0.012347
0.0123023
0.0122478
0.0121853
0.0121165
0.0120427
0.0119646
0.0118828
0.0117975
0.0117089
0.0116171
0.0115219
0.0114232
0.0113208
0.0112145
0.0111041
0.0109892
0.0108698
0.0107455
0.0106163
0.0104818
0.0103422
0.0101967
0.0100466
0.00988951
0.00973001
0.00955875
0.00939627
0.00919803
0.009059
0.0122019
0.0125261
0.0123964
0.0123869
0.0123752
0.0123436
0.0123001
0.0122452
0.0121812
0.0121101
0.0120334
0.0119519
0.0118663
0.0117769
0.011684
0.0115874
0.0114873
0.0113834
0.0112757
0.0111638
0.0110477
0.0109271
0.0108019
0.0106719
0.0105371
0.0103972
0.0102524
0.0101021
0.00994754
0.00978641
0.0096235
0.00944899
0.00928464
0.00908335
0.00894564
0.0121393
0.0124722
0.0123691
0.0123738
0.0123705
0.0123429
0.0123006
0.0122452
0.0121796
0.0121062
0.0120267
0.011942
0.011853
0.0117599
0.011663
0.0115623
0.0114579
0.0113494
0.011237
0.0111203
0.0109994
0.0108739
0.0107439
0.010609
0.0104696
0.0103251
0.0101761
0.0100219
0.0098637
0.00969933
0.00953377
0.00935676
0.00919115
0.00898753
0.00885132
0.0120785
0.0124234
0.0123469
0.0123652
0.0123693
0.0123448
0.0123032
0.0122471
0.0121798
0.0121043
0.0120222
0.0119348
0.0118428
0.0117465
0.0116463
0.0115421
0.011434
0.0113218
0.0112055
0.0110849
0.01096
0.0108305
0.0106966
0.010558
0.0104149
0.0102669
0.0101147
0.00995751
0.00979675
0.00963008
0.00946273
0.00928401
0.00911776
0.00891242
0.00877785
0.0120021
0.012372
0.0123244
0.012358
0.0123704
0.012349
0.012308
0.012251
0.012182
0.0121042
0.0120197
0.0119296
0.0118348
0.0117356
0.0116323
0.011525
0.0114136
0.0112981
0.0111784
0.0110544
0.0109261
0.0107932
0.0106559
0.010514
0.0103678
0.0102169
0.010062
0.00990242
0.00973959
0.00957111
0.00940243
0.00922245
0.00905589
0.00884926
0.00871641
0.0119274
0.012326
0.0123068
0.0123554
0.0123748
0.0123555
0.0123144
0.0122562
0.0121853
0.0121054
0.0120185
0.011926
0.0118287
0.0117269
0.0116209
0.0115108
0.0113966
0.0112782
0.0111557
0.0110287
0.0108974
0.0107617
0.0106216
0.010477
0.0103283
0.0101751
0.0100181
0.00985659
0.0096922
0.00952243
0.0093529
0.00917211
0.00900558
0.00879804
0.00866695
0.0118318
0.0122799
0.01229
0.0123552
0.0123821
0.0123646
0.0123231
0.0122633
0.0121904
0.0121083
0.0120192
0.0119243
0.0118246
0.0117204
0.011612
0.0114995
0.0113828
0.0112619
0.0111368
0.0110073
0.0108735
0.0107353
0.0105929
0.010446
0.0102952
0.0101401
0.00998137
0.00981845
0.0096529
0.00948223
0.00931217
0.00913095
0.0089647
0.00875665
0.00862731
0.0117364
0.0122414
0.0122778
0.0123589
0.0123916
0.0123748
0.0123325
0.012271
0.012196
0.0121118
0.0120205
0.0119235
0.0118217
0.0117154
0.011605
0.0114903
0.0113715
0.0112485
0.0111213
0.0109897
0.0108539
0.0107136
0.0105693
0.0104206
0.0102681
0.0101115
0.00995145
0.00978746
0.00962111
0.00944989
0.00927962
0.00909832
0.00893251
0.0087243
0.0085965
0.0116209
0.0122082
0.012269
0.0123672
0.0124052
0.0123881
0.0123443
0.0122806
0.0122033
0.0121168
0.0120234
0.0119244
0.0118206
0.0117124
0.0116001
0.0114836
0.011363
0.0112382
0.0111091
0.0109758
0.0108382
0.0106963
0.0105503
0.0104002
0.0102463
0.0100885
0.00992748
0.00976271
0.00959584
0.00942436
0.00925413
0.00907311
0.00890795
0.00870026
0.008574
0.0114981
0.0121835
0.0122622
0.0123767
0.0124186
0.0124008
0.0123553
0.0122895
0.01221
0.0121215
0.0120262
0.0119255
0.0118201
0.0117103
0.0115965
0.0114785
0.0113564
0.0112301
0.0110996
0.0109648
0.0108259
0.0106827
0.0105354
0.0103842
0.0102292
0.0100705
0.00990879
0.0097435
0.00957633
0.00940484
0.00923482
0.00905437
0.00888974
0.00868294
0.00855707
0.011365
0.0121713
0.0122632
0.012394
0.0124373
0.0124171
0.0123689
0.0123003
0.0122184
0.0121278
0.0120306
0.0119282
0.0118212
0.01171
0.0115948
0.0114755
0.0113521
0.0112246
0.0110929
0.010957
0.010817
0.0106727
0.0105245
0.0103723
0.0102166
0.0100573
0.00989499
0.0097294
0.0095621
0.0093908
0.00922118
0.00904172
0.00887787
0.00867358
0.00854815
0.011214
0.0121665
0.0122603
0.0124078
0.0124525
0.0124303
0.0123798
0.0123089
0.012225
0.0121326
0.012034
0.0119303
0.0118222
0.0117099
0.0115937
0.0114734
0.0113492
0.0112207
0.0110882
0.0109515
0.0108107
0.0106657
0.0105168
0.010364
0.0102077
0.010048
0.00988536
0.00971962
0.0095523
0.00938134
0.00921209
0.00903387
0.00887008
0.00866845
0.00853838
0.0110682
0.0121823
0.0122709
0.0124312
0.0124729
0.0124469
0.0123933
0.0123195
0.0122334
0.0121392
0.0120391
0.0119341
0.011825
0.0117117
0.0115947
0.0114736
0.0113486
0.0112195
0.0110864
0.010949
0.0108076
0.0106621
0.0105128
0.0103595
0.0102029
0.0100428
0.00988004
0.00971426
0.00954703
0.00937646
0.00920779
0.0090311
0.00886857
0.00867284
0.00854016
0.0109141
0.01219
0.0122705
0.0124472
0.0124871
0.0124586
0.0124027
0.012327
0.0122394
0.0121441
0.0120432
0.0119375
0.0118277
0.0117139
0.0115964
0.0114748
0.0113494
0.0112199
0.0110864
0.0109486
0.0108069
0.0106611
0.0105115
0.010358
0.0102012
0.010041
0.00987807
0.00971232
0.00954512
0.00937499
0.00920656
0.00903163
0.0088685
0.00867875
0.00853365
0.010837
0.012215
0.012282
0.0124672
0.0125037
0.0124727
0.0124145
0.0123368
0.0122478
0.0121513
0.0120494
0.0119428
0.0118324
0.0117181
0.0116001
0.0114781
0.0113524
0.0112225
0.0110888
0.0109508
0.010809
0.010663
0.0105133
0.0103597
0.0102028
0.0100426
0.00987972
0.009714
0.009547
0.00937704
0.0092093
0.00903517
0.00887645
0.00869118
0.00858023
0.0124714
0.0128227
0.012582
0.012511
0.0124598
0.0124051
0.0123533
0.0123004
0.0122463
0.0121912
0.0121355
0.0120792
0.0120226
0.0119656
0.0119084
0.0118507
0.0117924
0.0117333
0.0116729
0.0116109
0.0115469
0.0114802
0.0114105
0.0113369
0.011259
0.0111759
0.0110873
0.0109921
0.0108903
0.0107804
0.0106637
0.0105371
0.0104074
0.010262
0.0101332
0.0124459
0.0127884
0.0125587
0.0124931
0.0124456
0.0123935
0.0123426
0.0122895
0.0122342
0.0121771
0.0121185
0.0120588
0.011998
0.0119364
0.0118739
0.0118104
0.0117457
0.0116797
0.011612
0.0115421
0.0114699
0.0113946
0.0113159
0.0112331
0.0111459
0.0110535
0.0109555
0.0108511
0.0107403
0.0106215
0.0104965
0.0103597
0.0102219
0.0100562
0.00991885
0.012417
0.012753
0.0125339
0.0124742
0.0124308
0.0123811
0.012331
0.0122774
0.0122205
0.0121609
0.012099
0.0120353
0.0119699
0.0119029
0.0118345
0.0117645
0.0116928
0.0116191
0.0115431
0.0114644
0.0113828
0.0112976
0.0112085
0.011115
0.0110166
0.0109127
0.0108031
0.010687
0.0105646
0.0104343
0.0102987
0.0101513
0.0100061
0.00983216
0.00969624
0.0123809
0.012714
0.0125075
0.0124554
0.0124171
0.0123705
0.0123217
0.012268
0.0122098
0.012148
0.0120832
0.0120159
0.0119463
0.0118747
0.0118011
0.0117254
0.0116475
0.0115672
0.0114842
0.0113981
0.0113087
0.0112155
0.0111182
0.0110162
0.0109093
0.0107969
0.010679
0.0105546
0.0104244
0.0102863
0.0101437
0.00998877
0.00983759
0.00965427
0.00951436
0.0123476
0.0126718
0.0124808
0.0124371
0.0124042
0.0123608
0.0123132
0.0122592
0.0121995
0.0121353
0.0120675
0.0119964
0.0119226
0.0118461
0.0117672
0.0116857
0.0116016
0.0115146
0.0114245
0.011331
0.0112338
0.0111325
0.0110269
0.0109164
0.0108009
0.0106799
0.0105534
0.0104205
0.0102822
0.0101363
0.00998659
0.00982485
0.00966881
0.00947967
0.00934022
0.0123024
0.0126261
0.0124527
0.0124191
0.0123926
0.012353
0.0123068
0.0122526
0.0121916
0.0121252
0.0120544
0.0119798
0.0119019
0.011821
0.0117373
0.0116505
0.0115608
0.0114678
0.0113715
0.0112714
0.0111674
0.0110591
0.0109464
0.0108288
0.0107062
0.0105782
0.0104449
0.0103055
0.010161
0.0100093
0.00985441
0.00968756
0.00952787
0.00933352
0.00919347
0.0122557
0.012577
0.0124243
0.0124021
0.0123827
0.012347
0.0123022
0.0122477
0.0121853
0.0121165
0.0120427
0.0119646
0.0118828
0.0117975
0.011709
0.0116171
0.0115219
0.0114232
0.0113208
0.0112145
0.0111041
0.0109892
0.0108699
0.0107455
0.0106164
0.0104818
0.0103422
0.0101968
0.0100466
0.0098896
0.0097301
0.00955887
0.00939636
0.00919819
0.00905915
0.0122008
0.0125248
0.0123963
0.0123869
0.0123752
0.0123436
0.0123001
0.0122452
0.0121812
0.0121101
0.0120334
0.0119519
0.0118663
0.0117769
0.011684
0.0115874
0.0114873
0.0113834
0.0112757
0.0111638
0.0110477
0.0109271
0.010802
0.0106719
0.0105372
0.0103972
0.0102525
0.0101022
0.0099476
0.00978648
0.00962357
0.00944909
0.00928472
0.00908349
0.00894577
0.0121382
0.012471
0.0123691
0.0123738
0.0123705
0.0123429
0.0123006
0.0122452
0.0121796
0.0121062
0.0120267
0.0119421
0.011853
0.0117599
0.0116631
0.0115624
0.0114579
0.0113494
0.011237
0.0111203
0.0109994
0.0108739
0.0107439
0.010609
0.0104696
0.0103251
0.0101761
0.0100219
0.00986375
0.0096994
0.00953384
0.00935684
0.00919122
0.00898765
0.00885143
0.0120773
0.0124222
0.0123468
0.0123652
0.0123693
0.0123448
0.0123032
0.0122471
0.0121798
0.0121043
0.0120222
0.0119348
0.0118428
0.0117465
0.0116463
0.0115421
0.011434
0.0113218
0.0112055
0.0110849
0.01096
0.0108306
0.0106967
0.010558
0.0104149
0.010267
0.0101147
0.00995756
0.0097968
0.00963014
0.00946279
0.00928409
0.00911782
0.00891254
0.00877794
0.012001
0.0123709
0.0123243
0.012358
0.0123704
0.012349
0.012308
0.012251
0.012182
0.0121042
0.0120197
0.0119296
0.0118348
0.0117356
0.0116324
0.011525
0.0114137
0.0112981
0.0111785
0.0110544
0.0109261
0.0107932
0.0106559
0.010514
0.0103678
0.010217
0.0100621
0.00990247
0.00973963
0.00957116
0.00940248
0.00922252
0.00905594
0.00884936
0.00871649
0.0119262
0.012325
0.0123068
0.0123554
0.0123748
0.0123555
0.0123144
0.0122562
0.0121853
0.0121054
0.0120185
0.011926
0.0118287
0.0117269
0.0116209
0.0115108
0.0113966
0.0112783
0.0111557
0.0110287
0.0108974
0.0107617
0.0106216
0.010477
0.0103283
0.0101751
0.0100181
0.00985663
0.00969224
0.00952248
0.00935294
0.00917217
0.00900562
0.00879813
0.00866702
0.0118307
0.012279
0.01229
0.0123553
0.0123821
0.0123646
0.0123231
0.0122633
0.0121904
0.0121083
0.0120192
0.0119243
0.0118246
0.0117204
0.011612
0.0114995
0.0113828
0.0112619
0.0111368
0.0110073
0.0108735
0.0107353
0.0105929
0.0104461
0.0102952
0.0101401
0.00998139
0.00981848
0.00965293
0.00948227
0.00931221
0.00913101
0.00896474
0.00875673
0.00862737
0.0117352
0.0122406
0.0122778
0.0123589
0.0123916
0.0123748
0.0123325
0.012271
0.012196
0.0121118
0.0120205
0.0119235
0.0118217
0.0117154
0.011605
0.0114903
0.0113715
0.0112485
0.0111213
0.0109897
0.0108539
0.0107137
0.0105693
0.0104206
0.0102681
0.0101115
0.00995147
0.00978749
0.00962114
0.00944993
0.00927966
0.00909837
0.00893254
0.00872438
0.00859655
0.0116199
0.0122074
0.012269
0.0123673
0.0124052
0.0123881
0.0123443
0.0122806
0.0122033
0.0121168
0.0120234
0.0119244
0.0118206
0.0117124
0.0116001
0.0114836
0.011363
0.0112382
0.0111091
0.0109758
0.0108382
0.0106963
0.0105503
0.0104002
0.0102463
0.0100885
0.0099275
0.00976274
0.00959587
0.00942439
0.00925416
0.00907315
0.00890797
0.00870033
0.00857404
0.0114971
0.0121828
0.0122621
0.0123767
0.0124186
0.0124008
0.0123553
0.0122895
0.01221
0.0121215
0.0120262
0.0119255
0.0118201
0.0117103
0.0115965
0.0114785
0.0113564
0.0112301
0.0110996
0.0109648
0.0108259
0.0106827
0.0105355
0.0103842
0.0102292
0.0100706
0.00990881
0.00974353
0.00957636
0.00940487
0.00923485
0.00905441
0.00888977
0.00868301
0.00855711
0.0113639
0.0121707
0.0122632
0.012394
0.0124373
0.0124171
0.0123689
0.0123003
0.0122184
0.0121278
0.0120306
0.0119282
0.0118212
0.01171
0.0115948
0.0114755
0.0113521
0.0112246
0.0110929
0.010957
0.010817
0.0106727
0.0105245
0.0103724
0.0102166
0.0100573
0.00989501
0.00972943
0.00956213
0.00939084
0.00922121
0.00904176
0.0088779
0.00867365
0.0085482
0.0112132
0.012166
0.0122603
0.0124078
0.0124525
0.0124303
0.0123798
0.0123089
0.012225
0.0121326
0.012034
0.0119303
0.0118222
0.0117099
0.0115937
0.0114734
0.0113492
0.0112208
0.0110882
0.0109515
0.0108107
0.0106657
0.0105168
0.010364
0.0102078
0.010048
0.00988539
0.00971966
0.00955234
0.00938138
0.00921212
0.00903392
0.00887011
0.00866852
0.00853843
0.0110673
0.0121819
0.0122709
0.0124312
0.0124729
0.0124469
0.0123933
0.0123195
0.0122334
0.0121392
0.0120391
0.0119341
0.011825
0.0117117
0.0115947
0.0114736
0.0113486
0.0112195
0.0110864
0.010949
0.0108077
0.0106622
0.0105128
0.0103596
0.0102029
0.0100429
0.00988008
0.00971431
0.00954707
0.0093765
0.00920783
0.00903115
0.00886861
0.00867291
0.00854018
0.0109131
0.01219
0.0122706
0.0124473
0.0124872
0.0124587
0.0124028
0.0123271
0.0122395
0.0121442
0.0120433
0.0119375
0.0118278
0.011714
0.0115964
0.0114749
0.0113495
0.0112199
0.0110864
0.0109487
0.010807
0.0106611
0.0105115
0.010358
0.0102012
0.010041
0.00987811
0.00971236
0.00954516
0.00937503
0.00920661
0.00903168
0.00886855
0.00867878
0.00853362
0.0108383
0.0122155
0.0122822
0.0124673
0.0125037
0.0124727
0.0124144
0.0123368
0.0122477
0.0121512
0.0120493
0.0119428
0.0118323
0.011718
0.0116
0.011478
0.0113523
0.0112225
0.0110887
0.0109508
0.0108089
0.0106629
0.0105132
0.0103596
0.0102028
0.0100425
0.00987966
0.00971394
0.00954693
0.00937697
0.00920923
0.00903511
0.00887637
0.00869114
0.00858024
0.012474
0.01282
0.0125818
0.0125111
0.0124598
0.0124052
0.0123533
0.0123004
0.0122462
0.0121912
0.0121355
0.0120792
0.0120226
0.0119656
0.0119084
0.0118507
0.0117924
0.0117333
0.0116729
0.0116109
0.0115469
0.0114802
0.0114105
0.0113369
0.011259
0.0111759
0.0110873
0.0109921
0.0108903
0.0107805
0.0106637
0.0105371
0.0104074
0.0102621
0.0101334
0.0124484
0.0127858
0.0125586
0.0124932
0.0124457
0.0123935
0.0123426
0.0122895
0.0122342
0.0121771
0.0121185
0.0120588
0.011998
0.0119364
0.0118739
0.0118104
0.0117457
0.0116797
0.011612
0.0115421
0.0114699
0.0113946
0.0113159
0.0112331
0.0111459
0.0110535
0.0109556
0.0108511
0.0107404
0.0106216
0.0104966
0.0103598
0.0102219
0.0100562
0.00991891
0.0124195
0.0127505
0.0125337
0.0124743
0.0124309
0.0123811
0.012331
0.0122774
0.0122205
0.0121609
0.012099
0.0120353
0.0119699
0.0119029
0.0118345
0.0117645
0.0116928
0.0116191
0.0115431
0.0114644
0.0113828
0.0112976
0.0112085
0.011115
0.0110166
0.0109127
0.0108031
0.010687
0.0105646
0.0104343
0.0102987
0.0101513
0.0100062
0.0098322
0.0096963
0.0123834
0.0127116
0.0125073
0.0124555
0.0124172
0.0123706
0.0123217
0.012268
0.0122098
0.012148
0.0120832
0.0120159
0.0119463
0.0118747
0.0118011
0.0117254
0.0116475
0.0115672
0.0114842
0.0113981
0.0113087
0.0112155
0.0111182
0.0110162
0.0109093
0.0107969
0.010679
0.0105546
0.0104244
0.0102863
0.0101437
0.00998882
0.00983763
0.00965433
0.00951444
0.01235
0.0126695
0.0124806
0.0124372
0.0124042
0.0123609
0.0123132
0.0122592
0.0121995
0.0121353
0.0120675
0.0119964
0.0119225
0.0118461
0.0117672
0.0116857
0.0116016
0.0115146
0.0114245
0.011331
0.0112338
0.0111325
0.0110269
0.0109164
0.0108009
0.0106799
0.0105534
0.0104206
0.0102822
0.0101363
0.00998661
0.00982488
0.00966883
0.00947973
0.00934029
0.0123048
0.0126238
0.0124526
0.0124192
0.0123927
0.012353
0.0123068
0.0122526
0.0121916
0.0121252
0.0120544
0.0119798
0.0119019
0.011821
0.0117373
0.0116505
0.0115608
0.0114678
0.0113715
0.0112714
0.0111674
0.0110591
0.0109464
0.0108288
0.0107062
0.0105782
0.0104449
0.0103055
0.010161
0.0100093
0.00985443
0.0096876
0.0095279
0.00933358
0.00919356
0.012258
0.0125748
0.0124241
0.0124021
0.0123827
0.012347
0.0123022
0.0122477
0.0121853
0.0121165
0.0120427
0.0119646
0.0118828
0.0117975
0.011709
0.0116171
0.0115219
0.0114232
0.0113208
0.0112145
0.0111041
0.0109892
0.0108699
0.0107456
0.0106164
0.0104818
0.0103422
0.0101968
0.0100467
0.00988963
0.00973012
0.00955891
0.00939639
0.00919825
0.00905925
0.0122031
0.0125227
0.0123962
0.012387
0.0123753
0.0123436
0.0123001
0.0122452
0.0121812
0.0121101
0.0120334
0.0119519
0.0118663
0.0117769
0.011684
0.0115874
0.0114873
0.0113834
0.0112757
0.0111638
0.0110477
0.0109271
0.010802
0.010672
0.0105372
0.0103972
0.0102525
0.0101022
0.00994762
0.00978652
0.0096236
0.00944913
0.00928475
0.00908357
0.00894587
0.0121404
0.012469
0.0123689
0.0123739
0.0123705
0.0123429
0.0123006
0.0122452
0.0121796
0.0121062
0.0120267
0.011942
0.011853
0.0117599
0.0116631
0.0115624
0.0114579
0.0113494
0.011237
0.0111203
0.0109994
0.0108739
0.0107439
0.0106091
0.0104696
0.0103252
0.0101762
0.0100219
0.00986377
0.00969943
0.00953386
0.00935689
0.00919125
0.00898773
0.00885154
0.0120794
0.0124203
0.0123467
0.0123652
0.0123693
0.0123448
0.0123032
0.012247
0.0121798
0.0121042
0.0120222
0.0119348
0.0118427
0.0117465
0.0116463
0.0115421
0.011434
0.0113218
0.0112055
0.0110849
0.01096
0.0108306
0.0106967
0.010558
0.0104149
0.010267
0.0101148
0.00995759
0.00979682
0.00963017
0.00946281
0.00928413
0.00911785
0.00891261
0.00877805
0.012003
0.012369
0.0123242
0.0123581
0.0123704
0.012349
0.012308
0.0122509
0.0121819
0.0121042
0.0120197
0.0119296
0.0118348
0.0117356
0.0116324
0.011525
0.0114137
0.0112981
0.0111785
0.0110544
0.0109261
0.0107932
0.0106559
0.010514
0.0103678
0.010217
0.0100621
0.00990249
0.00973965
0.00957119
0.0094025
0.00922256
0.00905596
0.00884944
0.0087166
0.0119281
0.0123233
0.0123067
0.0123554
0.0123748
0.0123555
0.0123144
0.0122561
0.0121853
0.0121054
0.0120185
0.011926
0.0118286
0.0117269
0.0116209
0.0115108
0.0113966
0.0112783
0.0111557
0.0110287
0.0108974
0.0107617
0.0106216
0.010477
0.0103283
0.0101751
0.0100181
0.00985666
0.00969226
0.00952252
0.00935296
0.00917222
0.00900565
0.00879821
0.00866713
0.0118326
0.0122773
0.0122899
0.0123553
0.0123821
0.0123646
0.0123231
0.0122633
0.0121904
0.0121083
0.0120191
0.0119243
0.0118246
0.0117204
0.011612
0.0114995
0.0113828
0.0112619
0.0111368
0.0110073
0.0108735
0.0107353
0.0105929
0.0104461
0.0102952
0.0101401
0.00998141
0.00981851
0.00965296
0.0094823
0.00931223
0.00913105
0.00896476
0.00875682
0.00862748
0.0117369
0.0122391
0.0122777
0.0123589
0.0123917
0.0123748
0.0123325
0.012271
0.012196
0.0121118
0.0120205
0.0119235
0.0118217
0.0117154
0.0116049
0.0114903
0.0113715
0.0112485
0.0111213
0.0109897
0.0108539
0.0107137
0.0105693
0.0104207
0.0102681
0.0101115
0.00995149
0.00978751
0.00962116
0.00944996
0.00927968
0.00909841
0.00893257
0.00872446
0.00859667
0.0116215
0.0122061
0.0122689
0.0123673
0.0124052
0.0123881
0.0123443
0.0122806
0.0122033
0.0121168
0.0120234
0.0119244
0.0118206
0.0117124
0.0116001
0.0114836
0.011363
0.0112382
0.0111091
0.0109758
0.0108382
0.0106963
0.0105504
0.0104002
0.0102463
0.0100885
0.00992752
0.00976277
0.00959589
0.00942443
0.00925419
0.0090732
0.008908
0.00870042
0.00857416
0.0114985
0.0121816
0.0122621
0.0123767
0.0124186
0.0124008
0.0123553
0.0122894
0.01221
0.0121215
0.0120262
0.0119255
0.0118201
0.0117103
0.0115965
0.0114785
0.0113564
0.0112301
0.0110996
0.0109648
0.0108259
0.0106827
0.0105355
0.0103842
0.0102293
0.0100706
0.00990882
0.00974356
0.00957638
0.00940491
0.00923488
0.00905446
0.00888979
0.0086831
0.00855723
0.0113651
0.0121698
0.0122631
0.012394
0.0124373
0.012417
0.0123689
0.0123003
0.0122184
0.0121278
0.0120306
0.0119281
0.0118212
0.01171
0.0115948
0.0114755
0.0113521
0.0112246
0.0110929
0.010957
0.010817
0.0106728
0.0105245
0.0103724
0.0102166
0.0100573
0.00989504
0.00972947
0.00956216
0.00939088
0.00922124
0.00904182
0.00887793
0.00867375
0.00854833
0.0112144
0.0121651
0.0122603
0.0124078
0.0124525
0.0124302
0.0123798
0.0123089
0.012225
0.0121326
0.012034
0.0119303
0.0118222
0.0117099
0.0115937
0.0114734
0.0113492
0.0112208
0.0110883
0.0109515
0.0108107
0.0106657
0.0105169
0.0103641
0.0102078
0.010048
0.00988543
0.00971971
0.00955238
0.00938144
0.00921217
0.00903399
0.00887016
0.00866863
0.00853854
0.0110682
0.0121815
0.0122709
0.0124311
0.0124729
0.0124468
0.0123932
0.0123195
0.0122334
0.0121392
0.0120391
0.0119341
0.011825
0.0117118
0.0115947
0.0114737
0.0113487
0.0112196
0.0110864
0.0109491
0.0108077
0.0106622
0.0105129
0.0103596
0.010203
0.0100429
0.00988014
0.00971437
0.00954713
0.00937658
0.00920789
0.00903123
0.00886867
0.00867301
0.00854027
0.0109138
0.0121898
0.0122708
0.0124476
0.0124874
0.0124589
0.0124029
0.0123272
0.0122396
0.0121443
0.0120434
0.0119376
0.0118279
0.0117141
0.0115965
0.011475
0.0113496
0.01122
0.0110865
0.0109487
0.010807
0.0106612
0.0105116
0.0103581
0.0102013
0.0100411
0.00987816
0.00971241
0.00954522
0.00937508
0.00920667
0.00903173
0.00886861
0.00867877
0.00853317
0.0108394
0.0122159
0.0122823
0.0124673
0.0125037
0.0124726
0.0124143
0.0123367
0.0122476
0.0121511
0.0120492
0.0119427
0.0118323
0.0117179
0.0115999
0.011478
0.0113523
0.0112224
0.0110887
0.0109507
0.0108088
0.0106629
0.0105131
0.0103596
0.0102027
0.0100424
0.00987959
0.00971387
0.00954686
0.0093769
0.00920915
0.00903504
0.00887628
0.00869114
0.00858048
0.0124774
0.0128165
0.0125816
0.0125111
0.0124599
0.0124052
0.0123533
0.0123004
0.0122462
0.0121912
0.0121355
0.0120792
0.0120226
0.0119656
0.0119084
0.0118507
0.0117924
0.0117333
0.0116729
0.0116109
0.0115469
0.0114802
0.0114105
0.0113369
0.011259
0.0111759
0.0110873
0.0109922
0.0108903
0.0107805
0.0106637
0.0105371
0.0104075
0.0102621
0.0101336
0.0124518
0.0127824
0.0125583
0.0124932
0.0124458
0.0123935
0.0123426
0.0122895
0.0122342
0.0121771
0.0121185
0.0120588
0.011998
0.0119364
0.0118739
0.0118104
0.0117457
0.0116797
0.011612
0.0115422
0.0114699
0.0113946
0.0113159
0.0112332
0.011146
0.0110535
0.0109556
0.0108512
0.0107404
0.0106216
0.0104966
0.0103599
0.010222
0.0100563
0.00991906
0.0124228
0.0127472
0.0125334
0.0124743
0.0124309
0.0123811
0.012331
0.0122774
0.0122205
0.0121609
0.012099
0.0120352
0.0119699
0.0119029
0.0118345
0.0117645
0.0116928
0.0116191
0.0115431
0.0114644
0.0113828
0.0112976
0.0112086
0.011115
0.0110166
0.0109127
0.0108032
0.010687
0.0105646
0.0104343
0.0102987
0.0101514
0.0100062
0.00983227
0.00969644
0.0123867
0.0127082
0.0125071
0.0124555
0.0124172
0.0123706
0.0123217
0.012268
0.0122098
0.012148
0.0120832
0.0120158
0.0119463
0.0118747
0.0118011
0.0117254
0.0116475
0.0115672
0.0114842
0.0113981
0.0113087
0.0112155
0.0111182
0.0110162
0.0109094
0.010797
0.010679
0.0105546
0.0104244
0.0102864
0.0101437
0.00998888
0.00983768
0.00965443
0.00951462
0.0123531
0.0126663
0.0124804
0.0124372
0.0124043
0.0123609
0.0123132
0.0122592
0.0121995
0.0121353
0.0120675
0.0119964
0.0119225
0.0118461
0.0117672
0.0116857
0.0116016
0.0115146
0.0114245
0.011331
0.0112338
0.0111325
0.0110269
0.0109164
0.0108009
0.0106799
0.0105534
0.0104206
0.0102822
0.0101364
0.00998664
0.00982493
0.00966887
0.00947982
0.00934047
0.0123079
0.0126207
0.0124524
0.0124192
0.0123927
0.0123531
0.0123068
0.0122526
0.0121916
0.0121252
0.0120544
0.0119798
0.0119019
0.011821
0.0117373
0.0116505
0.0115608
0.0114678
0.0113715
0.0112714
0.0111674
0.0110591
0.0109464
0.0108288
0.0107063
0.0105782
0.0104449
0.0103056
0.0101611
0.0100094
0.00985447
0.00968767
0.00952795
0.00933369
0.00919376
0.012261
0.0125718
0.0124239
0.0124022
0.0123828
0.0123471
0.0123022
0.0122477
0.0121852
0.0121165
0.0120427
0.0119646
0.0118828
0.0117975
0.0117089
0.0116171
0.0115219
0.0114232
0.0113208
0.0112145
0.0111041
0.0109892
0.0108699
0.0107456
0.0106164
0.0104819
0.0103422
0.0101968
0.0100467
0.00988967
0.00973015
0.00955896
0.00939643
0.00919835
0.00905945
0.012206
0.0125198
0.012396
0.012387
0.0123753
0.0123436
0.0123001
0.0122452
0.0121812
0.0121101
0.0120334
0.0119519
0.0118663
0.0117769
0.011684
0.0115874
0.0114873
0.0113834
0.0112757
0.0111638
0.0110477
0.0109271
0.010802
0.010672
0.0105372
0.0103973
0.0102525
0.0101022
0.00994765
0.00978656
0.00962363
0.00944919
0.00928479
0.00908367
0.0089461
0.0121432
0.0124661
0.0123687
0.0123739
0.0123706
0.0123429
0.0123006
0.0122452
0.0121796
0.0121062
0.0120267
0.011942
0.011853
0.0117599
0.011663
0.0115623
0.0114579
0.0113494
0.011237
0.0111203
0.0109994
0.0108739
0.0107439
0.0106091
0.0104696
0.0103252
0.0101762
0.010022
0.0098638
0.00969947
0.00953389
0.00935694
0.00919128
0.00898783
0.00885176
0.0120821
0.0124176
0.0123465
0.0123652
0.0123693
0.0123448
0.0123032
0.012247
0.0121798
0.0121042
0.0120222
0.0119348
0.0118427
0.0117465
0.0116463
0.0115421
0.011434
0.0113218
0.0112055
0.0110849
0.01096
0.0108306
0.0106967
0.010558
0.0104149
0.010267
0.0101148
0.00995762
0.00979684
0.00963021
0.00946284
0.00928419
0.00911788
0.00891272
0.00877828
0.0120056
0.0123664
0.012324
0.0123581
0.0123704
0.012349
0.012308
0.0122509
0.0121819
0.0121042
0.0120197
0.0119296
0.0118348
0.0117356
0.0116323
0.011525
0.0114136
0.0112981
0.0111785
0.0110544
0.0109261
0.0107932
0.0106559
0.010514
0.0103678
0.010217
0.0100621
0.00990252
0.00973967
0.00957123
0.00940252
0.00922261
0.00905599
0.00884955
0.00871684
0.0119305
0.0123208
0.0123065
0.0123554
0.0123748
0.0123555
0.0123144
0.0122561
0.0121853
0.0121054
0.0120185
0.011926
0.0118286
0.0117269
0.0116209
0.0115108
0.0113966
0.0112782
0.0111557
0.0110287
0.0108974
0.0107617
0.0106216
0.0104771
0.0103283
0.0101751
0.0100181
0.00985668
0.00969228
0.00952255
0.00935298
0.00917227
0.00900567
0.00879832
0.00866737
0.0118349
0.012275
0.0122897
0.0123553
0.0123821
0.0123646
0.0123231
0.0122633
0.0121904
0.0121083
0.0120191
0.0119243
0.0118245
0.0117204
0.011612
0.0114994
0.0113828
0.0112619
0.0111368
0.0110073
0.0108735
0.0107353
0.0105929
0.0104461
0.0102952
0.0101401
0.00998142
0.00981853
0.00965297
0.00948233
0.00931225
0.0091311
0.00896478
0.00875692
0.00862773
0.011739
0.012237
0.0122776
0.0123589
0.0123917
0.0123748
0.0123324
0.0122709
0.012196
0.0121117
0.0120204
0.0119235
0.0118216
0.0117154
0.0116049
0.0114903
0.0113715
0.0112485
0.0111213
0.0109897
0.0108539
0.0107137
0.0105693
0.0104207
0.0102681
0.0101115
0.0099515
0.00978753
0.00962117
0.00944999
0.00927969
0.00909846
0.00893258
0.00872457
0.00859691
0.0116234
0.0122041
0.0122689
0.0123673
0.0124053
0.0123881
0.0123442
0.0122805
0.0122033
0.0121168
0.0120233
0.0119244
0.0118206
0.0117124
0.0116001
0.0114836
0.011363
0.0112381
0.0111091
0.0109758
0.0108382
0.0106963
0.0105504
0.0104002
0.0102463
0.0100885
0.00992752
0.00976279
0.0095959
0.00942446
0.0092542
0.00907325
0.00890801
0.00870053
0.00857441
0.0115002
0.0121799
0.012262
0.0123767
0.0124186
0.0124008
0.0123553
0.0122894
0.01221
0.0121215
0.0120262
0.0119255
0.01182
0.0117103
0.0115964
0.0114784
0.0113563
0.01123
0.0110996
0.0109648
0.0108259
0.0106827
0.0105355
0.0103842
0.0102293
0.0100706
0.00990883
0.00974358
0.00957639
0.00940494
0.00923489
0.00905451
0.00888981
0.00868322
0.00855748
0.0113667
0.0121684
0.0122632
0.012394
0.0124374
0.012417
0.0123689
0.0123003
0.0122184
0.0121277
0.0120306
0.0119281
0.0118211
0.01171
0.0115947
0.0114754
0.0113521
0.0112246
0.0110929
0.010957
0.010817
0.0106728
0.0105245
0.0103724
0.0102167
0.0100573
0.00989506
0.00972949
0.00956218
0.00939092
0.00922126
0.00904188
0.00887795
0.00867388
0.00854858
0.0112157
0.0121638
0.0122603
0.0124078
0.0124525
0.0124302
0.0123798
0.0123088
0.0122249
0.0121326
0.0120339
0.0119302
0.0118221
0.0117099
0.0115937
0.0114734
0.0113492
0.0112208
0.0110883
0.0109516
0.0108107
0.0106658
0.0105169
0.0103641
0.0102078
0.0100481
0.00988546
0.00971975
0.00955242
0.00938149
0.00921221
0.00903406
0.00887019
0.00866876
0.00853876
0.0110695
0.0121808
0.012271
0.0124312
0.0124729
0.0124468
0.0123932
0.0123195
0.0122334
0.0121392
0.0120391
0.0119342
0.011825
0.0117118
0.0115947
0.0114737
0.0113487
0.0112196
0.0110865
0.0109491
0.0108078
0.0106623
0.0105129
0.0103597
0.010203
0.010043
0.00988019
0.00971443
0.00954718
0.00937664
0.00920795
0.00903131
0.00886871
0.00867313
0.00854046
0.0109157
0.0121893
0.0122711
0.0124478
0.0124877
0.0124591
0.0124031
0.0123274
0.0122398
0.0121445
0.0120435
0.0119377
0.011828
0.0117141
0.0115966
0.011475
0.0113496
0.01122
0.0110865
0.0109488
0.0108071
0.0106612
0.0105116
0.0103581
0.0102013
0.0100411
0.00987818
0.00971243
0.00954523
0.00937509
0.00920668
0.00903174
0.0088686
0.00867867
0.00853221
0.0108392
0.0122165
0.0122826
0.0124674