/*--------------------------------*- C++ -*----------------------------------*\
  =========                 |
  \\      /  F ield         | OpenFOAM: The Open Source CFD Toolbox
   \\    /   O peration     | Website:  https://openfoam.org
    \\  /    A nd           | Version:  6
     \\/     M anipulation  |
\*---------------------------------------------------------------------------*/
FoamFile
{
    version     2.0;
    format      ascii;
    class       volScalarField;
    location    "30";
    object      yPlus;
}
// * * * * * * * * * * * * * * * * * * * * * * * * * * * * * * * * * * * * * //

dimensions      [0 0 0 0 0 0 0];

internalField   uniform 0;

boundaryField
{
    inlet
    {
        type            calculated;
        value           uniform 0;
    }
    outlet
    {
        type            calculated;
        value           uniform 0;
    }
    roughCylinder
    {
        type            calculated;
        value           nonuniform List<scalar> 
3840
(
7.22235
27.7007
38.6493
41.619
44.3991
44.9407
45.7606
45.8398
46.1483
45.8114
45.8912
46.0676
44.8298
43.956
43.5895
42.7514
42.0233
41.6895
41.9201
42.3833
41.6451
41.1917
40.5629
40.0399
5.77999
26.8
38.4143
41.4517
44.2779
44.7856
45.7544
45.7205
46.2833
46.0794
46.1181
45.967
44.8443
44.2004
43.6958
43.0245
42.3695
42.1234
42.4436
42.5442
41.9536
41.4787
40.8882
40.3923
9.35758
26.5459
37.8639
41.2082
44.0792
44.814
45.6332
45.802
46.1245
45.8827
45.9282
45.9163
45.0084
44.4469
43.7131
43.101
42.4855
42.3466
42.8116
42.8712
42.5008
42.0834
41.5562
41.0936
4.53739
25.7941
37.4854
41.0172
43.9646
44.6639
45.6868
45.6588
46.2199
46.158
46.2144
45.9619
45.2281
44.8088
43.9485
43.4209
42.9212
42.9592
43.4096
43.1359
42.8944
42.4489
41.9599
41.5235
15.6353
24.5603
36.8519
40.6867
43.7059
44.6871
45.5186
45.7846
46.1386
45.9753
46.0432
46.0391
45.5568
45.1541
44.1314
43.5861
43.1499
43.3204
43.8054
43.5557
43.4976
43.1097
42.684
42.2859
10.5461
24.3574
36.2259
40.3663
43.5072
44.4658
45.6179
45.6487
46.2129
46.2846
46.4249
46.2163
45.8428
45.5162
44.4792
43.9884
43.69
44.015
44.4594
43.9424
43.9494
43.5298
43.1407
42.768
9.00377
21.8775
35.3712
39.8582
43.1469
44.4793
45.3863
45.7981
46.236
46.1386
46.2916
46.3773
46.2028
45.868
44.7867
44.2724
44.031
44.4054
44.8608
44.4428
44.5728
44.22
43.8962
43.5683
15.8063
22.1497
34.4252
39.3659
42.8278
44.1405
45.5215
45.7076
46.2928
46.4962
46.7619
46.6229
46.4617
46.1722
45.1965
44.7667
44.6594
45.1066
45.5455
44.9467
45.0584
44.6756
44.3815
44.0779
13.3703
19.2803
33.2958
38.5554
42.3185
44.1477
45.2229
45.8324
46.4046
46.3757
46.6295
46.8133
46.8074
46.5214
45.5952
45.1657
45.0869
45.4779
45.9245
45.4975
45.6735
45.3755
45.146
44.8939
10.9494
18.2107
31.8001
37.8522
41.8167
43.6231
45.3341
45.7707
46.4049
46.7591
47.1531
47.0662
47.0103
46.7654
46.0219
45.7208
45.7586
46.1602
46.6051
46.0859
46.1597
45.833
45.6184
45.3897
11.2716
17.4339
30.4083
36.4788
41.0379
43.5558
44.9214
45.7878
46.5509
46.6128
46.9606
47.243
47.3417
47.1263
46.4677
46.1772
46.2044
46.4788
46.9156
46.6119
46.7215
46.5051
46.3549
46.1834
14.1598
13.0014
28.0694
35.4892
40.1662
42.7034
44.9007
45.6923
46.422
46.9754
47.4963
47.4577
47.4684
47.2989
46.8472
46.7162
46.8499
47.1238
47.5537
47.2261
47.1674
46.9128
46.7545
46.6024
15.3513
14.4582
26.0478
32.986
38.8808
42.3865
44.249
45.4909
46.5365
46.718
47.1644
47.5765
47.7834
47.669
47.2873
47.1506
47.2288
47.344
47.7344
47.6152
47.6091
47.494
47.404
47.314
18.3776
8.91662
22.9552
31.6443
37.1664
40.9025
43.9138
45.259
46.1799
47.0101
47.6657
47.6868
47.7676
47.7077
47.5294
47.5685
47.7647
47.913
48.2823
48.1709
47.9578
47.7846
47.6637
47.5866
19.8372
11.4259
19.5024
26.8806
34.9328
39.9301
42.7303
44.6271
46.1816
46.5418
47.1147
47.6903
48.0294
48.0416
47.8957
47.8876
47.9861
47.9716
48.287
48.3421
48.2462
48.2428
48.2019
48.1926
21.344
13.5443
15.663
24.9967
31.166
37.1117
41.6545
44.0358
45.3765
46.7118
47.5572
47.6458
47.7966
47.865
47.9145
48.1135
48.3837
48.4603
48.7499
48.8083
48.4613
48.3441
48.2374
48.2174
21.4315
8.09419
4.50489
14.5167
26.8669
34.3065
39.2484
42.4608
45.069
45.7861
46.6362
47.4869
48.0087
48.156
48.2038
48.2927
48.3609
48.2559
48.4445
48.5567
48.4679
48.5684
48.5695
48.6293
21.2724
10.9848
11.7734
5.74984
13.1156
27.7005
36.0252
40.9807
43.2746
45.6505
46.8877
47.0977
47.357
47.6008
47.8399
48.1524
48.5059
48.5856
48.7908
48.8608
48.4193
48.2822
48.126
48.1089
19.8133
7.34446
3.78167
7.08337
8.32974
13.8336
30.4106
37.0052
42.2468
43.6738
45.1782
46.5935
47.463
47.7965
47.9964
48.0912
47.9989
47.7757
47.7581
47.6265
47.6698
47.817
47.8469
47.9445
18.1684
9.01712
0.957696
8.1463
7.18164
7.66568
8.51967
33.1811
38.0451
42.8779
44.8874
45.3329
45.785
46.3013
46.674
47.0134
47.4575
47.5705
47.7148
47.501
46.9204
46.5295
46.1066
45.9215
13.4177
9.51667
9.13273
9.4862
9.35278
7.98996
8.8862
20.4967
35.3926
38.1452
41.2822
43.988
45.5933
46.1739
46.4558
46.4129
45.7466
45.1151
44.6245
43.4718
43.7853
43.7564
43.8195
43.8772
12.0359
10.0685
9.50813
9.73945
7.91812
6.76978
8.99692
9.49337
23.8379
35.9642
39.4874
40.2365
40.9921
42.035
42.3779
42.4603
43.0505
43.1259
43.2477
42.2229
40.8919
39.1517
36.8941
35.2721
5.4537
1.32233
6.66205
14.1811
17.2399
9.54987
15.1878
10.0178
10.4832
11.7237
27.9545
36.3025
40.1489
40.9968
41.1859
40.5969
37.0807
33.5924
29.7998
20.625
17.8751
8.87256
9.66772
9.72431
5.64241
8.88969
1.0133
11.9007
20.0436
22.2871
19.1949
8.12198
14.5859
14.538
12.8274
7.95634
15.891
22.1895
20.56
13.351
13.7934
17.2856
12.7914
18.8765
13.523
9.55531
8.75772
14.0786
11.1259
13.249
10.7126
11.4307
17.8966
22.3053
22.6998
16.9196
9.04461
16.611
12.3827
15.2457
15.2163
17.1117
5.3119
16.9393
13.1648
12.6983
6.9775
16.3841
8.84025
15.9265
7.73448
10.4592
12.8176
18.2556
18.3675
18.5542
21.0785
23.8682
24.3442
21.8682
20.998
20.5791
17.3407
9.47214
17.9359
14.8581
15.4933
16.4061
12.3689
9.23142
15.3372
18.8807
22.405
24.3576
25.7678
25.7819
14.5428
21.1446
23.0974
24.1294
25.2088
26.1134
25.706
24.6125
24.6739
24.6204
25.4388
26.0718
24.503
21.731
20.3038
21.6868
23.7633
26.2306
26.9184
27.3956
27.3743
27.2509
26.998
26.8649
14.0574
21.8036
24.6458
26.3208
27.1859
27.3566
26.6966
25.8001
25.0391
24.5256
26.3444
27.3608
27.3148
27.0397
26.9585
27.0113
27.2655
27.8496
28.4258
28.7225
28.4018
27.8016
26.7802
25.9473
12.1755
21.0871
24.4979
26.5801
27.5787
27.5233
26.2792
23.3166
18.6493
14.2286
19.9023
25.2576
27.75
28.4507
28.4552
28.2542
27.9721
27.8813
27.4358
26.7159
25.3135
23.551
21.8027
20.6695
9.91107
19.5731
23.4352
25.8297
27.0477
27.0478
25.6543
22.8456
19.4769
17.1376
14.3789
16.3895
21.418
24.7206
26.0262
25.8098
24.7965
24.1393
23.4877
22.8575
22.1402
21.3237
20.4083
19.7989
7.53793
17.7672
21.9473
24.5808
26.0194
26.1986
24.9638
22.4402
18.239
12.3763
13.7661
18.2112
20.417
21.9969
22.9989
23.2914
23.0927
22.8505
22.5245
22.019
21.1903
20.2286
19.3735
18.8178
5.79429
15.9166
20.2105
22.95
24.4753
24.6859
23.395
20.734
16.1534
13.3732
14.4633
16.4347
19.3425
21.5625
22.6101
22.7284
22.1586
21.4845
20.9313
20.5103
20.013
19.4457
18.891
18.4888
4.52733
13.8098
17.9724
20.6888
22.1786
22.357
21.2286
18.9716
14.8153
11.7075
13.0473
16.4545
18.9392
20.6396
21.4728
21.472
21.0446
20.608
20.2721
20.0054
19.6786
19.3171
18.9279
18.6413
3.731
11.7311
15.4643
18.0871
19.6373
20.1516
19.8152
17.7149
13.2346
12.7235
15.6436
17.6007
19.1935
20.4677
21.2051
21.3358
21.0892
20.7675
20.5505
20.4243
20.2581
20.0053
19.6831
19.4318
3.84162
11.5
14.1067
16.493
18.2643
19.2962
19.0784
15.7659
12.1986
13.5491
16.0823
18.4434
20.1531
21.2697
21.8536
21.9773
21.8322
21.6053
21.4298
21.3097
21.1485
20.9061
20.5955
20.3501
4.15145
11.4167
13.8908
16.2468
18.0968
18.9451
17.4653
13.1564
12.3133
15.3572
18.217
20.0399
21.3089
22.2354
22.7923
22.9772
22.9141
22.75
22.6073
22.4969
22.3348
22.0721
21.7464
21.49
4.37456
11.4644
13.8432
16.1253
17.6411
17.4772
14.3878
11.6137
14.0158
17.2658
19.6209
21.3772
22.6598
23.5304
24.0422
24.2483
24.2527
24.1567
24.0482
23.9382
23.7612
23.4677
23.1111
22.8313
4.4155
11.3874
13.48
15.3403
16.0538
14.525
11.6545
12.6824
16.2485
19.2787
21.5094
23.0754
24.1822
24.9632
25.4636
25.7218
25.81
25.7943
25.7319
25.6282
25.4343
25.1014
24.7019
24.3879
4.08078
10.8026
12.4883
13.6772
13.3623
11.6351
11.5035
14.9887
18.5591
21.2662
23.2573
24.746
25.8423
26.6111
27.1139
27.4118
27.5707
27.6303
27.618
27.5264
27.3177
26.9462
26.4994
26.1453
3.29807
9.53241
11.4426
11.6878
11.5524
11.5216
14.0373
17.7553
20.8456
23.2733
25.1503
26.5732
27.6302
28.3943
28.9236
29.2757
29.5057
29.6374
29.6758
29.6015
29.3843
28.9796
28.4858
28.0898
1.29959
1.24074
1.64833
2.58128
3.99067
6.02465
8.49162
10.5935
11.468
11.7052
11.3416
11.4313
11.5811
11.6965
11.7373
11.5302
11.5157
11.3573
11.2744
10.9008
9.75316
9.05252
8.67606
8.31433
7.98383
7.68753
7.43912
7.21388
6.99257
6.7541
6.47545
6.13033
5.6477
4.91775
4.49907
4.08787
3.452
2.86404
2.18398
2.39838
11.4252
11.4629
11.6621
12.4037
14.0759
15.4
16.4501
17.2338
17.7142
18.0933
18.3026
18.4325
18.4641
18.4397
18.3579
18.2279
18.0727
17.8886
17.6833
17.4412
17.1526
16.8457
16.5222
16.1945
15.9102
15.6305
15.3281
14.9999
14.6408
14.2418
13.7906
13.2688
12.6156
11.7806
11.6011
11.2827
10.0792
8.52285
7.01987
7.57586
13.096
13.7389
15.2557
16.6921
17.9666
19.0038
19.7636
20.3822
20.8082
21.1403
21.3483
21.4855
21.5475
21.5592
21.521
21.4387
21.3175
21.1624
20.971
20.7368
20.4658
20.1785
19.8709
19.5468
19.2379
18.9192
18.5655
18.1718
17.7349
17.2486
16.7043
16.0851
15.3555
14.4931
13.637
12.5923
11.5312
10.8412
9.55282
9.72915
15.7127
16.8565
18.4362
19.673
20.7628
21.633
22.3393
22.9051
23.3461
23.6875
23.9414
24.1254
24.2469
24.318
24.3447
24.3254
24.258
24.142
23.9708
23.7611
23.5264
23.2822
23.0205
22.7299
22.4118
22.0643
21.6741
21.2327
20.7385
20.188
19.5751
18.886
18.0992
17.1802
16.1144
14.8572
13.455
11.5973
11.5146
11.3337
18.5686
19.7316
21.1132
22.1802
23.1579
23.9337
24.6078
25.1424
25.5906
25.9456
26.2341
26.4623
26.6419
26.7734
26.8592
26.8971
26.8804
26.8046
26.6774
26.5135
26.3232
26.1014
25.8449
25.5576
25.2377
24.8822
24.475
24.0087
23.4837
22.9001
22.2549
21.5392
20.7386
19.8277
18.7774
17.5152
16.0808
14.2805
12.154
11.5794
21.1413
22.1566
23.3909
24.3104
25.2089
25.9214
26.5614
27.0848
27.5351
27.9137
28.2386
28.5163
28.7487
28.9388
29.0825
29.1754
29.2092
29.1842
29.1049
28.9609
28.7684
28.5544
28.3074
28.0318
27.7274
27.3887
26.9829
26.5088
25.9695
25.3701
24.7115
23.9897
23.196
22.3152
21.3237
20.184
18.8385
17.273
15.311
12.9962
23.2435
24.1622
25.2923
26.1007
26.9587
27.6258
28.2499
28.7718
29.2315
29.6395
29.9994
30.3224
30.6043
30.847
31.0437
31.1875
31.273
31.2952
31.2275
31.0497
30.8045
30.5741
30.3376
30.0966
29.8525
29.5867
29.212
28.752
28.2128
27.6103
26.9501
26.2328
25.4547
24.6086
23.6785
22.6487
21.4745
20.1262
18.5093
16.6166
24.9177
25.8404
26.8558
27.626
28.4494
29.0933
29.7121
30.2337
30.7096
31.1414
31.5341
31.8953
32.2204
32.5087
32.7519
32.9445
33.0786
33.1256
33.0496
32.7764
32.5744
32.3389
32.1093
31.8706
31.6298
31.3905
31.144
30.7348
30.2114
29.6174
28.9651
28.2597
27.5018
26.6902
25.8153
24.8749
23.8328
22.7051
21.354
19.9198
26.3138
27.1955
28.1467
28.9107
29.7043
30.3432
30.9601
31.4847
31.9779
32.429
32.851
33.244
33.6061
33.9331
34.2192
34.4591
34.6307
34.7095
34.6439
34.3617
34.1604
33.9355
33.7124
33.4791
33.243
33.0139
32.7988
32.4603
31.9627
31.3864
30.7496
30.0609
29.3249
28.545
27.7169
26.8452
25.9024
24.9235
23.7857
22.667
27.4371
28.2418
29.1935
29.9526
30.7356
31.3827
32.0034
32.5389
33.0488
33.5195
33.9671
34.3872
34.7797
35.1397
35.4643
35.7371
35.944
36.0623
36.0499
35.8148
35.5907
35.3792
35.1621
34.9391
34.7159
34.5038
34.3038
33.9479
33.4765
32.9253
32.3088
31.6384
30.9229
30.1688
29.3765
28.5541
27.6812
26.7992
25.7962
24.8861
28.2597
29.0226
29.9994
30.7646
31.5602
32.228
32.866
33.4226
33.9519
34.4442
34.9149
35.3586
35.7773
36.1672
36.517
36.8159
37.0503
37.2005
37.2437
37.1541
36.8985
36.6958
36.4843
36.2761
36.0725
35.8747
35.5947
35.2099
34.775
34.2567
33.663
33.0095
32.3089
31.5716
30.8016
30.0092
29.1791
28.3555
27.4329
26.6414
28.7707
29.6185
30.5783
31.3941
32.2072
32.918
33.5857
34.1773
34.7305
35.2472
35.7395
36.2058
36.6489
37.0583
37.427
37.7432
37.9917
38.1536
38.2117
38.1659
38.0705
37.93
37.7348
37.5285
37.2785
36.9749
36.6457
36.2961
35.9071
35.4205
34.8449
34.2009
33.506
32.7738
32.0108
31.2293
30.4173
29.6216
28.7384
28.0163
29.1673
30.0306
31.0273
31.8821
32.7397
33.4972
34.2101
34.8454
35.432
35.9747
36.4919
36.9822
37.444
37.8715
38.2573
38.588
38.8481
39.0169
39.076
39.0243
38.9209
38.7866
38.6182
38.414
38.1734
37.9005
37.6044
37.2901
36.9322
36.4609
35.8887
35.2412
34.5394
33.7984
33.0269
32.2384
31.4231
30.6295
29.7559
29.0673
29.4923
30.3335
31.3928
32.2851
33.2008
34.0107
34.7773
35.4608
36.0884
36.6636
37.2075
37.7185
38.2
38.6457
39.0486
39.3962
39.6729
39.8582
39.9311
39.8846
39.7634
39.6233
39.4582
39.2653
39.0433
38.7945
38.524
38.2315
37.8812
37.4025
36.8155
36.15
35.4284
34.6665
33.8735
33.0626
32.2274
31.4149
30.5305
29.8445
29.7243
30.5771
31.6936
32.6357
33.6092
34.4762
35.2981
36.0353
36.7107
37.3202
37.8893
38.4217
38.9211
39.3834
39.8024
40.1673
40.4636
40.6725
40.7722
40.7464
40.609
40.4573
40.289
40.1027
39.8948
39.6649
39.412
39.1247
38.7483
38.2412
37.6277
36.9362
36.1882
35.3982
34.5756
33.7331
32.8669
32.022
31.112
30.4051
29.8581
30.753
31.9281
32.9322
33.9677
34.8963
35.7744
36.5632
37.2829
37.9282
38.5217
39.0729
39.5865
40.0607
40.4909
40.868
41.1801
41.411
41.5413
41.553
41.4453
41.2758
41.0982
40.9119
40.7131
40.4963
40.2521
39.9532
39.5256
38.9752
38.3282
37.6083
36.8327
36.0135
35.1597
34.283
33.3817
32.4981
31.5522
30.8084
29.9041
30.8561
32.0935
33.1643
34.2619
35.2519
36.185
37.0241
37.7866
38.4668
39.0829
39.65
40.1746
40.6572
41.095
41.4812
41.8066
42.0588
42.2223
42.2805
42.2221
42.0603
41.8704
41.6779
41.4797
41.2627
41.0009
40.6468
40.1686
39.5814
38.9071
38.1642
37.3658
36.5222
35.6411
34.7333
33.7987
32.8765
31.8911
31.1022
29.8859
30.8961
32.1928
33.3267
34.4818
35.5288
36.5126
37.399
38.203
38.9187
39.5583
40.1394
40.6725
41.1597
41.6001
41.9894
42.3211
42.5861
42.7742
42.8733
42.8736
42.7735
42.5936
42.385
42.1648
41.9142
41.5943
41.1739
40.6506
40.0353
39.3421
38.5835
37.7693
36.9075
36.0052
35.0724
34.1098
33.1532
32.1312
31.2974
29.8454
30.903
32.2482
33.4362
34.6412
35.7385
36.768
37.6967
38.5374
39.2842
39.9471
40.5405
41.0788
41.5663
42.0037
42.3888
42.717
42.9822
43.1771
43.2941
43.326
43.2688
43.1287
42.9256
42.6694
42.3561
41.9714
41.5012
40.945
40.3094
39.6026
38.833
38.0072
37.1324
36.2148
35.2636
34.2805
33.2974
32.2496
31.3822
29.8181
30.9047
32.2816
33.5088
34.751
35.888
36.954
37.9174
38.7881
39.5607
40.2422
40.8439
41.3829
41.8654
42.2936
42.6664
42.9809
43.2328
43.4174
43.5298
43.5656
43.5212
43.3946
43.1871
42.9056
42.552
42.1207
41.6091
41.0244
40.3715
39.653
38.8735
38.0383
37.1533
36.2248
35.2614
34.2666
33.2683
32.2107
31.3272
29.8206
30.9187
32.3092
33.5564
34.8186
35.9792
37.0677
38.0534
38.9441
39.7335
40.4267
41.0311
41.5661
42.039
42.4529
42.8076
43.101
43.3299
43.4903
43.5786
43.5915
43.5268
43.3837
43.1609
42.8589
42.4786
42.021
41.4883
40.886
40.2189
39.4891
38.6996
37.8555
36.9625
36.027
35.057
34.0575
33.0527
31.9958
31.1084
29.6868
30.7972
32.1987
33.4629
34.7413
35.9208
37.0276
38.0312
38.9372
39.7391
40.4403
41.0461
41.5751
42.0362
42.4333
42.7673
43.0366
43.2389
43.3708
43.4292
43.412
43.3176
43.1454
42.895
42.567
42.1625
41.6831
41.1312
40.5102
39.8263
39.0827
38.2819
37.4288
36.5288
35.5884
34.6155
33.6161
32.6111
31.5638
30.6823
29.4646
30.58
31.9853
33.2592
34.5469
35.7385
36.8564
37.8704
38.7844
39.5921
40.2967
40.9024
41.4239
41.8719
42.2517
42.5646
42.8099
42.9856
43.0891
43.118
43.0706
42.9461
42.7445
42.4661
42.1117
41.6829
41.1819
40.6112
39.9736
39.2743
38.5185
37.7092
36.8504
35.9478
35.0076
34.0376
33.0445
32.0472
31.0185
30.1529
29.3055
30.4274
31.8364
33.1162
34.4086
35.6049
36.7265
37.7429
38.6579
39.4647
40.1667
40.7673
41.2798
41.7153
42.0796
42.3745
42.5995
42.7531
42.8332
42.8375
42.7651
42.6155
42.3894
42.0871
41.7102
41.2607
40.7409
40.1539
39.5027
38.7914
38.0262
37.2108
36.3491
35.4465
34.5095
33.5454
32.562
31.5766
30.5688
29.7223
13.7026
29.2724
40.2422
43.1502
45.7308
45.9915
46.615
46.5214
47.0501
46.7934
46.4562
46.2835
46.1811
45.7346
43.9959
43.4769
42.8601
43.187
44.4753
43.1509
42.5913
42.04
41.5633
41.1496
3.10799
28.6909
39.7892
42.8958
45.5051
45.8286
46.5344
46.5372
47.0467
46.7477
46.5091
46.4049
46.418
45.8036
44.0959
43.7029
43.0261
43.5633
44.8757
43.6573
43.1271
42.6247
42.2167
41.7845
8.68507
28.2221
39.4199
42.673
45.3512
45.8954
46.7195
46.799
47.2855
46.8856
46.5968
46.6093
46.6131
45.9714
44.4393
44.0944
43.382
44.0688
45.244
44.0238
43.4526
43.0287
42.7041
42.2894
8.07149
27.5511
38.8772
42.4393
45.2285
45.8652
46.7158
46.8451
47.2476
46.8654
46.75
46.7991
46.8039
46.0701
44.718
44.363
43.688
44.5751
45.6907
44.6273
44.0602
43.6877
43.4119
42.9861
11.7872
26.9079
38.4443
42.2251
45.0751
45.9361
46.9195
47.0768
47.4913
47.1314
46.9766
47.0651
46.9801
46.3121
45.2116
44.797
44.1732
45.159
46.0656
45.0588
44.4593
44.1688
43.9633
43.5661
16.3413
25.9608
37.7135
41.887
44.9272
45.9244
46.888
47.1138
47.4674
47.1437
47.1654
47.2531
47.1382
46.4945
45.5874
45.1192
44.6226
45.7389
46.5448
45.7204
45.1248
44.8779
44.7004
44.3034
13.9937
25.1638
37.089
41.5681
44.6835
45.8876
47.047
47.3104
47.7294
47.5104
47.4853
47.5442
47.3365
46.8438
46.1433
45.607
45.2166
46.3446
46.9159
46.174
45.5763
45.4063
45.2852
44.9307
10.5311
23.9175
36.0617
40.9939
44.3996
45.8397
46.957
47.3388
47.7471
47.5361
47.6574
47.708
47.5058
47.1091
46.5358
45.983
45.7697
46.9502
47.4271
46.8638
46.2852
46.1448
46.0334
45.6898
11.6082
22.7385
35.0835
40.4427
44.012
45.6359
47.0498
47.5055
48.0062
47.9586
48.0356
48.03
47.7761
47.5522
47.1015
46.526
46.4326
47.5432
47.7939
47.3115
46.767
46.6929
46.6242
46.335
12.4901
21.2177
33.67
39.5078
43.4748
45.5166
46.8781
47.4954
48.0403
47.9604
48.1486
48.1605
47.9782
47.8596
47.4661
46.9402
47.0311
48.1349
48.327
47.9974
47.4887
47.4277
47.3539
47.0826
13.3935
19.7751
32.1109
38.5269
42.8645
45.0633
46.858
47.5977
48.2325
48.3742
48.5521
48.5197
48.3291
48.3444
48.0084
47.5117
47.6979
48.6726
48.6653
48.4003
47.9543
47.9508
47.9081
47.6992
14.7267
18.0857
30.2137
37.0361
41.8484
44.7711
46.5258
47.4691
48.2183
48.2951
48.5581
48.5926
48.534
48.627
48.3115
47.9237
48.2633
49.2012
49.1891
49.0445
48.6422
48.6347
48.574
48.3863
17.1062
16.5746
27.7071
35.2441
40.8142
43.8699
46.2816
47.4331
48.2603
48.6251
48.9417
48.9709
48.9256
49.0898
48.8053
48.48
48.8556
49.6237
49.4438
49.3423
49.0163
49.0606
49.0226
48.901
20.1251
15.2648
25.2252
32.8094
38.7713
43.1246
45.5737
47.0462
48.1257
48.4028
48.7699
48.915
49.0429
49.2587
48.9977
48.8185
49.2872
50.0159
49.8945
49.8853
49.6078
49.6416
49.5787
49.4797
22.7267
13.9002
21.1955
29.3655
36.8788
41.2953
44.877
46.7224
47.9103
48.5944
49.1109
49.2687
49.3861
49.6159
49.3947
49.281
49.7236
50.2696
50.0225
50.041
49.8407
49.9242
49.8807
49.848
24.3297
13.8116
18.0294
25.2886
32.2033
39.3735
43.2202
45.7753
47.5206
48.1613
48.71
49.0202
49.3316
49.6078
49.4422
49.4997
49.9743
50.4965
50.372
50.463
50.2962
50.3547
50.278
50.2606
25.4177
11.1358
10.6095
16.5136
28.6649
35.1557
41.5583
44.8126
46.7883
48.0871
48.9513
49.3106
49.5894
49.8327
49.7288
49.8261
50.1966
50.4881
50.2561
50.3417
50.2487
50.3545
50.2999
50.344
25.5264
12.2154
12.4317
1.3301
4.75274
29.2112
37.0441
42.5633
45.8326
47.1998
48.137
48.7146
49.21
49.5234
49.5219
49.7716
50.1129
50.4118
50.3809
50.5215
50.436
50.5034
50.4022
50.4409
24.7516
2.19533
4.40417
11.7395
13.1449
15.145
32.8082
39.9207
43.9502
46.5497
48.0751
48.7701
49.2282
49.4843
49.57
49.8085
49.9687
49.9321
49.7224
49.726
49.6739
49.748
49.6422
49.7349
23.3016
11.5427
7.75493
12.6474
6.94577
13.2873
19.1703
34.1557
41.7192
44.6122
46.3109
47.3596
48.0869
48.4715
48.6871
49.0028
49.0424
49.0674
49.1754
49.2223
49.1391
49.1435
48.9583
48.9605
21.8863
11.9505
12.9504
5.35844
9.48173
13.7972
9.85761
25.7078
36.9475
42.6553
45.4962
46.7361
47.4438
47.7456
48.056
48.289
48.0277
47.3667
46.9613
46.3994
46.1629
45.9552
45.5937
45.6738
19.9364
13.9162
9.24282
9.0569
3.70322
2.15258
13.9689
10.1575
32.879
37.971
41.0567
43.0352
44.2067
44.7433
45.1112
45.1665
44.4306
44.0358
44.2126
43.7401
43.3493
42.8894
42.2868
41.3105
17.036
7.6214
7.2722
5.93676
9.87901
15.1577
14.4915
14.4716
13.777
31.3095
37.7659
40.4219
41.574
41.9148
42.3283
42.1277
40.6983
37.2464
34.262
28.9058
24.9199
18.5121
9.83713
18.8438
13.1823
4.69101
6.67675
13.6847
16.7435
14.3483
14.917
15.6165
9.75916
13.6149
15.0137
20.1261
26.0384
27.6775
26.6673
22.2054
8.18408
11.9271
13.2037
16.3459
19.5558
18.2433
6.39799
5.90013
4.67822
10.6309
6.59298
16.8157
24.7056
27.012
23.0573
12.6717
8.32769
4.58334
15.8674
16.623
14.0506
7.16686
13.6192
13.6125
12.9546
18.4389
15.0639
10.9027
15.0915
12.4772
10.3058
19.9082
1.41521
3.17726
11.0619
13.819
21.9591
27.1871
28.9125
27.8344
21.1625
15.2401
13.1034
9.79096
14.4902
16.579
2.70379
12.6187
15.4852
18.103
13.9587
14.7754
19.7228
22.7069
24.2177
25.3446
7.95608
15.1671
15.8232
16.3354
21.0135
25.9615
28.6194
28.849
29.0628
28.6542
28.4799
27.3036
24.8227
22.2935
21.0928
22.0119
24.0498
26.2608
27.6702
29.4889
29.2722
28.8157
28.477
28.0878
9.76556
18.1033
21.618
22.8636
24.5573
27.0689
29.3054
30.4833
29.4765
26.7531
27.4706
28.2189
29.0887
29.3827
29.2859
28.9724
28.8132
28.6804
29.1562
29.0751
28.8115
28.5653
28.1014
27.7094
6.31211
14.9554
20.6718
24.3639
26.373
27.9364
29.2241
29.4413
26.3954
21.9255
22.5392
25.204
27.5708
28.6832
28.8757
28.7209
28.6132
28.5334
27.9995
27.9549
26.9019
25.147
23.5853
22.4634
1.81248
9.70209
15.7015
20.897
24.0262
25.5532
25.6404
23.3506
15.3035
8.67786
12.0696
13.0732
16.6352
23.175
25.6069
25.7733
25.0168
23.9373
22.807
22.2466
21.5687
20.6203
19.8562
19.3937
1.04529
6.93535
11.2767
14.8868
17.6637
18.5975
17.4849
13.1915
8.88647
6.70369
15.8061
19.9665
18.5876
18.4094
20.5015
21.7104
22.0538
21.9975
22.0768
22.2317
21.9878
21.4283
20.9376
20.5453
2.83143
10.0583
13.0935
14.1609
13.5115
11.0002
11.0954
9.48913
4.36199
12.9794
13.9598
14.0351
20.1878
22.6676
23.0858
23.1245
22.8089
22.2016
21.5155
21.0244
20.4212
19.7203
19.1983
18.8112
4.85797
12.8358
15.9405
17.8319
18.2541
16.8528
13.7752
11.5947
13.9562
15.2015
16.4535
17.0463
14.9924
17.4412
19.9079
20.6536
20.5507
20.1824
19.9095
19.8374
19.7266
19.4735
19.2485
19.059
3.60848
11.5993
15.1356
17.7623
19.1741
19.4353
18.6433
17.3293
16.8155
16.8189
16.7443
18.2558
20.5295
20.6761
20.6729
20.7735
20.7161
20.4975
20.249
20.0906
19.9311
19.6752
19.4487
19.2628
3.31583
10.5337
13.5687
16.0447
17.3704
17.1498
15.9217
15.6585
16.3631
17.4348
18.6277
18.4984
18.4289
19.8273
20.808
21.108
21.018
20.7811
20.5974
20.5326
20.4905
20.3273
20.1452
19.9839
3.51018
10.0115
12.4642
14.4032
15.2636
15.5175
15.8208
16.6832
18.3191
19.344
19.6568
20.7056
21.5514
21.6769
21.8176
21.8884
21.8053
21.6135
21.4245
21.3298
21.2774
21.0993
20.9036
20.7433
4.18549
11.4066
12.2638
12.7605
12.9842
13.9729
16.0691
18.5555
20.0088
20.7151
21.4099
21.513
21.8135
22.4703
22.8706
22.9694
22.8628
22.6601
22.4925
22.4207
22.4019
22.2541
22.0632
21.9067
2.65297
11.0932
11.78
12.3589
13.9895
16.3397
18.5248
20.0194
21.0922
22.1064
22.8315
23.6175
24.0586
24.2194
24.3469
24.382
24.2952
24.1351
23.9859
23.907
23.8856
23.7338
23.531
23.3742
0.888286
9.91932
11.4967
13.1566
15.3129
17.5702
19.6183
21.4219
22.9729
24.0841
24.8359
25.1649
25.4965
25.8536
26.0659
26.1227
26.0569
25.9237
25.7974
25.7281
25.7143
25.569
25.3584
25.1999
0.273306
10.359
11.6133
13.7124
16.4805
19.2358
21.6004
23.4777
24.8485
25.8706
26.629
27.2643
27.6446
27.8686
28.0337
28.1127
28.0973
28.0183
27.9295
27.8745
27.8654
27.7225
27.5027
27.3425
5.23374
9.53706
12.8537
10.6369
3.07132
10.8072
3.33348
9.61008
13.2648
12.6145
12.1131
11.5326
8.72365
4.12704
7.03276
8.40927
4.02849
6.94069
2.22443
6.61633
1.4801
2.5637
6.62093
3.51852
7.03543
8.17457
4.58405
4.06075
5.87078
5.30658
3.98287
5.08534
7.21254
12.6384
7.91365
9.74199
11.6972
16.2642
10.7662
13.0736
29.1832
27.1897
26.3741
24.4754
23.5105
21.4589
20.586
18.4097
17.7941
15.5873
15.0328
13.5011
12.784
11.6053
12.1204
11.5482
10.4416
11.0061
9.07894
10.9505
8.66314
9.57441
10.3556
10.3361
10.9348
11.6889
11.8871
11.9519
12.6876
14.1866
14.5836
16.4632
17.0367
19.2551
19.9343
21.9761
22.7457
24.7113
25.6994
27.1739
40.0268
38.5467
37.635
36.1805
35.1858
33.8217
32.7572
31.5476
30.4445
29.5401
28.4766
27.8657
26.9136
26.4502
25.5523
25.3879
24.915
24.3407
24.2309
23.8071
23.7545
23.8552
23.6298
23.8327
24.389
24.821
25.382
26.1613
27.0795
27.936
28.871
29.8285
30.6849
31.8563
32.6284
34.0788
34.7765
36.3804
36.9909
38.6725
42.7868
41.2673
40.1887
38.7396
37.5747
36.1851
34.9419
33.6568
32.436
31.4159
30.4355
29.7894
29.0751
28.6177
28.0324
27.5887
27.3215
27.002
26.5881
26.7941
26.1637
26.3101
26.2969
26.5132
26.8456
27.2456
27.7435
28.5531
29.239
30.1709
30.9435
31.838
32.7062
33.7672
34.8115
36.0823
37.1895
38.6111
39.6865
41.2372
45.2851
43.9609
42.8096
41.5911
40.3602
39.1592
37.8179
36.6345
35.2841
34.2954
33.2144
32.6246
31.9253
31.5552
30.9615
30.6302
30.3493
29.953
29.6933
29.6002
29.2087
29.2702
29.0519
29.235
29.6754
30.0357
30.6625
31.3923
32.175
33.038
33.7565
34.6252
35.4956
36.572
37.6329
38.8959
40.0189
41.3743
42.4963
43.9551
45.3792
44.1622
42.9527
41.8717
40.6595
39.5603
38.2351
37.0795
35.7226
34.6897
33.6194
32.991
32.4174
32.0547
31.5219
31.0745
30.9887
30.6629
30.3906
30.491
29.868
29.9062
29.7017
29.9169
30.2257
30.5539
31.209
31.9964
32.7537
33.5236
34.1217
34.958
35.801
36.8851
38.0083
39.2275
40.4455
41.7057
42.9645
44.3044
45.8894
44.6993
43.4589
42.4801
41.3255
40.369
39.1093
38.0537
36.7452
35.7139
34.6417
33.9315
33.3773
33.0876
32.5601
32.0993
31.9197
31.6476
31.467
31.4669
30.8993
30.9079
30.6277
30.8256
31.2313
31.6077
32.3956
33.102
33.8015
34.4017
34.9363
35.8164
36.6975
37.916
39.0076
40.3012
41.408
42.6977
43.846
45.2318
45.6369
44.3922
43.0256
42.058
40.928
40.0797
38.9765
38.0309
36.9365
35.9637
35.0036
34.1746
33.5123
33.1659
32.6445
32.1641
31.9167
31.6559
31.6013
31.6801
30.9424
30.9678
30.7944
31.1998
31.5902
31.9657
32.6963
33.3022
33.9275
34.3867
34.9948
35.97
36.988
38.2442
39.3296
40.5213
41.5456
42.7224
43.8908
45.177
46.1349
44.7477
43.2824
42.0911
40.9419
39.9961
39.0766
38.2049
37.3515
36.5641
35.7852
35.0001
34.1188
33.5666
33.0162
32.6571
32.1333
31.876
31.9475
32.0164
31.2084
31.3196
31.4812
32.2665
32.4859
32.7235
33.3038
33.791
34.3456
34.7748
35.5678
36.6969
37.8313
39.1194
40.0061
41.1105
41.8689
43.1549
44.1451
45.6863
46.07
44.733
43.3699
42.0998
40.8795
39.7944
38.7882
37.924
37.0851
36.4147
35.7435
35.1652
34.236
33.3719
32.6516
32.5029
31.8835
31.5489
31.753
31.9396
30.9046
31.2309
32.2133
32.952
32.5423
32.5307
32.9623
33.4673
34.1392
34.7094
35.7377
36.7502
37.8717
38.8358
39.6007
40.5019
41.31
42.6095
43.6899
45.3132
45.8568
44.5815
43.3907
42.2007
41.0438
39.8883
38.7368
37.656
36.6137
35.8097
35.1468
34.7849
34.2183
33.3379
32.2727
32.0889
31.793
31.5898
31.5689
31.9718
30.9826
31.541
32.7166
32.45
31.6165
31.7574
32.4442
33.1211
33.8689
34.673
35.7277
36.5725
37.4876
38.2436
39.1168
40.0837
41.1665
42.5247
43.7735
45.3582
45.5311
44.2093
42.8917
41.7135
40.4728
39.3813
38.1636
37.1556
36.0082
35.2121
34.4084
34.1702
33.8181
33.5272
32.2865
31.5558
31.3453
31.6154
31.4667
31.7723
31.2806
31.7179
32.2435
31.3346
31.03
31.6063
32.5046
33.0155
33.7075
34.5343
35.3871
35.9835
36.8011
37.6754
38.9306
40.1897
41.6304
42.9266
44.2687
45.5261
45.3059
43.7533
42.2571
40.8994
39.5865
38.4924
37.351
36.4197
35.322
34.4469
33.4668
32.8772
32.3896
32.3587
32.3482
31.9624
31.2207
31.2017
31.8688
31.3636
31.646
31.6867
31.4896
30.8349
31.0328
31.6283
32.1806
32.858
33.5873
34.1775
34.8447
35.5425
36.3723
37.362
38.5346
39.7792
41.0012
42.0979
43.2117
44.285
44.8968
43.488
41.914
40.6058
39.1579
38.1296
36.9732
36.2289
35.1515
34.2591
32.8997
32.1936
31.4072
30.8339
30.2148
29.9019
29.653
29.6274
29.8282
30.4212
29.6988
29.662
29.9703
29.9288
30.4311
31.2996
31.6964
32.6719
33.2403
33.6222
34.2961
35.1255
36.0481
36.9981
37.8651
38.7976
39.7323
40.826
41.9786
43.2626
43.1956
42.0835
40.7373
39.7168
38.4028
37.3975
36.1321
35.3171
34.3161
33.7619
32.7539
32.154
31.1746
31.0263
30.408
29.9604
29.0933
29.9341
28.4047
29.6397
29.6971
29.5639
30.2494
30.4372
30.5124
29.9278
30.2105
31.1513
31.4547
31.8133
32.5149
33.2827
34.2053
35.2343
36.3844
37.6988
39.0644
40.4699
41.7633
43.075
42.4815
41.1688
39.6188
38.5569
37.2722
36.5181
35.3775
34.6194
33.3059
32.5156
31.5138
31.3071
30.2628
29.59
28.983
28.8717
28.2867
28.0372
27.8405
27.4281
27.8026
28.0352
27.7038
28.8686
29.0933
29.9865
30.5428
30.7419
30.7826
31.3311
32.1031
32.9885
33.8709
34.6327
35.5021
36.5881
37.8216
39.2391
40.5776
42.0824
41.966
40.7763
39.2042
38.0752
36.5574
35.6273
34.3585
33.7176
32.5824
31.8821
30.4795
29.7003
28.5943
28.4112
27.3258
27.1348
26.6497
26.8931
26.9068
26.0453
26.9767
26.0122
28.6226
28.0041
27.9856
28.3892
28.4226
28.4898
29.0559
29.7062
30.5452
31.2984
32.1588
33.2133
34.4515
35.8746
37.2322
38.6795
39.947
41.3938
42.1673
40.8469
39.2536
38.0547
36.4903
35.3892
33.8942
33.0395
31.8248
31.3908
30.4744
30.2224
29.2716
28.9795
28.0669
27.7181
27.0208
27.5974
27.4245
26.5351
26.0826
25.0591
25.0584
25.109
25.8774
26.4759
26.7136
26.9696
27.6554
28.7226
29.9486
31.0926
32.1917
33.4011
34.6481
36.0222
37.2835
38.5857
39.7785
41.0929
43.4827
41.9747
40.3555
39.0136
37.4985
36.3344
34.8804
33.8118
32.3626
31.373
30.033
29.2992
28.2481
27.7992
26.7422
26.2145
25.4642
25.7824
26.2701
27.3061
26.0385
25.8477
25.7519
25.466
25.8483
26.0847
26.743
27.0706
27.8023
28.3334
29.3052
30.1329
31.3439
32.3876
33.7254
34.9478
36.4135
37.8274
39.3956
40.9505
42.2481
40.7471
39.2639
37.888
36.4761
35.224
33.8901
32.7854
31.571
30.6934
29.6807
29.0614
28.1931
27.7685
27.0678
26.8407
26.2715
26.138
25.4986
25.1814
25.565
25.6586
26.3645
26.4098
26.8447
27.0706
27.825
28.2584
29.26
29.8709
31.0395
31.8088
33.0817
33.9624
35.3063
36.3028