/*--------------------------------*- C++ -*----------------------------------*\
  =========                 |
  \\      /  F ield         | OpenFOAM: The Open Source CFD Toolbox
   \\    /   O peration     | Website:  https://openfoam.org
    \\  /    A nd           | Version:  6
     \\/     M anipulation  |
\*---------------------------------------------------------------------------*/
FoamFile
{
    version     2.0;
    format      ascii;
    class       volScalarField;
    location    "48";
    object      p;
}
// * * * * * * * * * * * * * * * * * * * * * * * * * * * * * * * * * * * * * //

dimensions      [0 2 -2 0 0 0 0];

internalField   nonuniform List<scalar> 
380496
(
0.014209
0.0146829
0.014283
0.0141822
0.0140707
0.0139561
0.0138475
0.0137387
0.0136302
0.0135227
0.0134162
0.0133111
0.0132074
0.0131051
0.0130041
0.0129042
0.0128052
0.0127067
0.0126083
0.0125096
0.01241
0.012309
0.0122059
0.0121
0.0119909
0.0118775
0.0117595
0.0116358
0.0115065
0.0113699
0.0112278
0.011076
0.0109245
0.0107545
0.010614
0.0141845
0.0146511
0.0142633
0.0141668
0.0140585
0.0139457
0.0138372
0.0137274
0.0136171
0.013507
0.0133974
0.0132885
0.0131805
0.0130733
0.012967
0.0128612
0.0127558
0.0126504
0.0125447
0.0124382
0.0123304
0.0122207
0.0121087
0.0119937
0.0118752
0.0117525
0.0116252
0.0114922
0.0113539
0.011208
0.0110574
0.0108943
0.0107338
0.0105394
0.0103886
0.0141566
0.0146184
0.0142418
0.0141502
0.0140449
0.0139333
0.0138243
0.0137128
0.0135999
0.0134865
0.0133728
0.0132592
0.013146
0.0130331
0.0129204
0.0128077
0.0126948
0.0125813
0.012467
0.0123512
0.0122336
0.0121136
0.0119909
0.0118646
0.0117346
0.0115999
0.0114606
0.0113154
0.0111651
0.0110074
0.0108461
0.0106721
0.0105051
0.0103025
0.0101551
0.0141209
0.0145829
0.0142201
0.0141349
0.0140337
0.013924
0.0138151
0.0137024
0.0135874
0.0134711
0.013354
0.0132366
0.0131189
0.0130011
0.0128831
0.0127646
0.0126455
0.0125254
0.012404
0.0122807
0.0121554
0.0120273
0.0118963
0.0117615
0.0116229
0.0114797
0.0113318
0.0111783
0.01102
0.0108543
0.0106856
0.0105035
0.0103297
0.0101165
0.00996344
0.0140884
0.014545
0.0141986
0.0141205
0.0140234
0.0139153
0.0138061
0.0136918
0.0135742
0.0134547
0.0133338
0.0132121
0.0130897
0.0129668
0.0128431
0.0127186
0.012593
0.012466
0.0123373
0.0122064
0.012073
0.0119366
0.0117969
0.0116534
0.0115059
0.0113537
0.011197
0.0110347
0.010868
0.0106941
0.010518
0.0103289
0.01015
0.00993136
0.00977783
0.0140426
0.0145045
0.014177
0.0141074
0.0140153
0.0139092
0.0137997
0.0136839
0.013564
0.0134415
0.0133172
0.0131916
0.013065
0.0129374
0.0128087
0.0126789
0.0125476
0.0124146
0.0122795
0.012142
0.0120017
0.0118583
0.0117115
0.0115607
0.011406
0.0112467
0.011083
0.010914
0.0107409
0.0105609
0.0103793
0.0101847
0.0100015
0.00977749
0.00962149
0.0139942
0.014462
0.014156
0.0140962
0.0140094
0.013905
0.013795
0.0136774
0.0135548
0.0134292
0.0133012
0.0131717
0.0130407
0.0129085
0.012775
0.0126399
0.0125031
0.0123642
0.012223
0.0120791
0.0119323
0.0117821
0.0116285
0.0114709
0.0113093
0.0111432
0.010973
0.0107976
0.0106185
0.0104329
0.0102464
0.0100473
0.0098608
0.00963324
0.00947691
0.0139358
0.0144186
0.014137
0.0140881
0.0140068
0.0139037
0.0137929
0.0136733
0.013548
0.0134192
0.0132878
0.0131546
0.0130197
0.0128833
0.0127453
0.0126055
0.0124637
0.0123196
0.012173
0.0120236
0.011871
0.0117151
0.0115556
0.0113921
0.0112248
0.0110532
0.0108776
0.0106972
0.0105134
0.0103234
0.0101332
0.00993047
0.00974162
0.00951105
0.00935447
0.0138659
0.0143754
0.0141196
0.014083
0.0140073
0.0139052
0.0137932
0.0136714
0.0135434
0.0134115
0.0132769
0.0131402
0.0130017
0.0128615
0.0127195
0.0125755
0.0124294
0.0122808
0.0121295
0.0119752
0.0118177
0.0116568
0.0114923
0.011324
0.0111518
0.0109755
0.0107954
0.0106108
0.0104232
0.0102297
0.0100365
0.00983106
0.00964062
0.00940778
0.00925168
0.013796
0.0143402
0.014108
0.0140826
0.0140114
0.0139091
0.0137955
0.0136714
0.0135407
0.013406
0.0132685
0.0131288
0.0129873
0.0128439
0.0126986
0.0125512
0.0124014
0.0122491
0.012094
0.0119358
0.0117743
0.0116095
0.011441
0.0112687
0.0110927
0.0109128
0.0107293
0.0105416
0.0103511
0.0101551
0.00995983
0.00975239
0.00956102
0.00932632
0.00917106
0.0137041
0.0143051
0.0140972
0.0140848
0.0140182
0.0139153
0.0137998
0.0136731
0.0135397
0.0134022
0.0132619
0.0131195
0.012975
0.0128288
0.0126805
0.01253
0.012377
0.0122215
0.012063
0.0119014
0.0117365
0.0115681
0.0113962
0.0112207
0.0110414
0.0108585
0.0106721
0.0104817
0.0102889
0.0100908
0.00989402
0.00968505
0.0094932
0.00925699
0.00910319
0.0136106
0.0142813
0.0140928
0.0140923
0.0140283
0.0139235
0.0138055
0.013676
0.0135397
0.0133996
0.0132568
0.0131118
0.0129649
0.0128161
0.0126652
0.0125121
0.0123564
0.012198
0.0120367
0.0118722
0.0117044
0.0115332
0.0113584
0.0111801
0.0109982
0.0108128
0.0106241
0.0104316
0.010237
0.0100374
0.00983948
0.00962937
0.00943742
0.00919984
0.0090479
0.0134865
0.0142618
0.0140899
0.0141031
0.0140414
0.0139339
0.013813
0.0136804
0.0135413
0.0133986
0.0132533
0.013106
0.0129568
0.0128057
0.0126525
0.012497
0.012339
0.0121782
0.0120144
0.0118475
0.0116772
0.0115036
0.0113264
0.0111458
0.0109618
0.0107743
0.0105837
0.0103896
0.0101936
0.00999282
0.00979412
0.00958326
0.00939155
0.00915298
0.00900347
0.0133566
0.0142584
0.0140935
0.0141187
0.0140566
0.0139451
0.0138208
0.0136851
0.0135432
0.0133981
0.0132506
0.0131012
0.0129501
0.0127971
0.012642
0.0124846
0.0123245
0.0121618
0.011996
0.011827
0.0116547
0.0114791
0.0113
0.0111175
0.0109316
0.0107425
0.0105505
0.0103552
0.0101581
0.00995648
0.00975726
0.00954592
0.00935447
0.00911506
0.00896781
0.0131943
0.0142674
0.0141006
0.0141392
0.0140754
0.0139587
0.0138304
0.0136912
0.0135464
0.0133989
0.0132494
0.0130981
0.0129452
0.0127906
0.0126338
0.0124747
0.0123131
0.0121486
0.0119811
0.0118105
0.0116366
0.0114593
0.0112786
0.0110946
0.0109074
0.010717
0.0105238
0.0103276
0.0101297
0.00992758
0.00972809
0.00951672
0.00932575
0.00908661
0.00894182
0.0130135
0.0142962
0.0141122
0.0141618
0.0140935
0.0139711
0.0138389
0.0136965
0.0135492
0.0133997
0.0132484
0.0130957
0.0129414
0.0127853
0.0126272
0.0124669
0.0123039
0.0121381
0.0119693
0.0117974
0.0116221
0.0114436
0.0112617
0.0110765
0.0108882
0.0106968
0.0105028
0.0103058
0.0101075
0.00990504
0.00970533
0.00949411
0.00930291
0.00906409
0.00891884
0.0128101
0.0143451
0.0141304
0.0141916
0.0141159
0.0139863
0.0138494
0.0137034
0.0135536
0.013402
0.0132492
0.0130951
0.0129396
0.0127823
0.0126232
0.0124617
0.0122977
0.0121309
0.0119611
0.0117881
0.0116118
0.0114323
0.0112495
0.0110634
0.0108743
0.0106822
0.0104876
0.0102902
0.0100915
0.00988898
0.00968933
0.00947889
0.009288
0.00905233
0.00890722
0.0125703
0.0144169
0.0141478
0.0142175
0.0141334
0.0139977
0.0138573
0.0137086
0.0135568
0.0134039
0.0132498
0.0130947
0.0129383
0.0127803
0.0126203
0.0124581
0.0122934
0.0121257
0.0119552
0.0117814
0.0116045
0.0114242
0.0112408
0.0110541
0.0108645
0.0106718
0.0104769
0.010279
0.0100802
0.00987772
0.00967796
0.00946825
0.00927567
0.00904194
0.00888651
0.0123262
0.0145048
0.0141761
0.0142541
0.0141581
0.0140146
0.0138694
0.0137174
0.0135634
0.0134087
0.0132535
0.0130973
0.0129401
0.0127812
0.0126206
0.0124577
0.0122924
0.0121242
0.0119531
0.0117788
0.0116014
0.0114206
0.0112368
0.0110496
0.0108597
0.0106666
0.0104715
0.0102735
0.0100747
0.00987236
0.009673
0.00946467
0.00927335
0.00904682
0.00889317
0.0120602
0.014608
0.0141993
0.0142829
0.0141758
0.0140268
0.0138784
0.0137242
0.0135686
0.0134129
0.0132568
0.0130999
0.0129421
0.0127827
0.0126217
0.0124583
0.0122926
0.012124
0.0119526
0.0117779
0.0116003
0.0114191
0.0112351
0.0110476
0.0108576
0.0106643
0.0104692
0.010271
0.0100723
0.00987004
0.00967066
0.00946335
0.00926893
0.00904578
0.00886014
0.0118094
0.0147159
0.0142454
0.0143269
0.0142049
0.0140474
0.0138936
0.0137357
0.0135777
0.0134202
0.0132628
0.013105
0.0129464
0.0127865
0.012625
0.0124613
0.0122954
0.0121265
0.0119549
0.0117801
0.0116023
0.0114211
0.011237
0.0110495
0.0108594
0.0106661
0.0104711
0.0102729
0.0100744
0.0098723
0.00967357
0.00946712
0.00927788
0.00906196
0.00892345
0.0142121
0.0146757
0.014283
0.0141826
0.0140708
0.0139562
0.0138476
0.0137387
0.0136302
0.0135227
0.0134162
0.0133111
0.0132074
0.0131051
0.0130041
0.0129042
0.0128052
0.0127067
0.0126083
0.0125096
0.01241
0.012309
0.0122059
0.0121001
0.0119909
0.0118775
0.0117595
0.0116359
0.0115065
0.01137
0.0112279
0.0110761
0.0109246
0.0107546
0.0106141
0.0141874
0.0146441
0.0142634
0.0141672
0.0140586
0.0139457
0.0138372
0.0137274
0.0136171
0.013507
0.0133974
0.0132885
0.0131805
0.0130733
0.012967
0.0128612
0.0127558
0.0126505
0.0125447
0.0124382
0.0123304
0.0122207
0.0121087
0.0119937
0.0118753
0.0117525
0.0116252
0.0114922
0.011354
0.0112081
0.0110575
0.0108944
0.0107339
0.0105395
0.0103887
0.0141594
0.0146116
0.0142419
0.0141505
0.014045
0.0139333
0.0138243
0.0137128
0.0135999
0.0134864
0.0133728
0.0132592
0.013146
0.0130331
0.0129204
0.0128077
0.0126948
0.0125814
0.012467
0.0123512
0.0122336
0.0121136
0.0119909
0.0118646
0.0117346
0.0115999
0.0114606
0.0113154
0.0111652
0.0110074
0.0108461
0.0106722
0.0105052
0.0103026
0.0101552
0.0141238
0.0145761
0.0142202
0.0141352
0.0140338
0.013924
0.0138151
0.0137024
0.0135874
0.0134711
0.013354
0.0132366
0.0131189
0.0130011
0.0128831
0.0127647
0.0126455
0.0125254
0.012404
0.0122808
0.0121554
0.0120274
0.0118963
0.0117616
0.011623
0.0114797
0.0113319
0.0111784
0.0110201
0.0108544
0.0106857
0.0105036
0.0103298
0.0101167
0.00996354
0.0140909
0.0145384
0.0141987
0.0141208
0.0140235
0.0139153
0.0138061
0.0136918
0.0135742
0.0134547
0.0133338
0.0132121
0.0130897
0.0129668
0.0128431
0.0127186
0.0125931
0.0124661
0.0123373
0.0122064
0.012073
0.0119366
0.011797
0.0116534
0.0115059
0.0113538
0.0111971
0.0110348
0.010868
0.0106941
0.0105181
0.010329
0.0101501
0.00993148
0.00977792
0.0140451
0.0144981
0.014177
0.0141077
0.0140154
0.0139092
0.0137997
0.0136839
0.013564
0.0134415
0.0133172
0.0131916
0.013065
0.0129374
0.0128087
0.0126789
0.0125476
0.0124146
0.0122795
0.012142
0.0120018
0.0118584
0.0117115
0.0115608
0.0114061
0.0112468
0.0110831
0.0109141
0.010741
0.010561
0.0103794
0.0101848
0.0100016
0.00977763
0.0096216
0.0139966
0.0144557
0.014156
0.0140965
0.0140095
0.013905
0.013795
0.0136774
0.0135548
0.0134292
0.0133012
0.0131717
0.0130407
0.0129085
0.012775
0.0126399
0.0125031
0.0123642
0.012223
0.0120791
0.0119323
0.0117822
0.0116285
0.0114709
0.0113093
0.0111433
0.010973
0.0107977
0.0106186
0.010433
0.0102465
0.0100474
0.00986092
0.00963338
0.00947701
0.0139379
0.0144126
0.014137
0.0140884
0.0140069
0.0139037
0.0137929
0.0136733
0.013548
0.0134192
0.0132878
0.0131546
0.0130197
0.0128833
0.0127453
0.0126055
0.0124637
0.0123197
0.0121731
0.0120236
0.0118711
0.0117151
0.0115556
0.0113922
0.0112249
0.0110532
0.0108776
0.0106972
0.0105135
0.0103235
0.0101333
0.00993059
0.00974175
0.0095112
0.00935456
0.013868
0.0143695
0.0141197
0.0140832
0.0140074
0.0139052
0.0137932
0.0136714
0.0135434
0.0134115
0.0132769
0.0131402
0.0130017
0.0128615
0.0127195
0.0125755
0.0124294
0.0122808
0.0121295
0.0119752
0.0118178
0.0116569
0.0114924
0.011324
0.0111518
0.0109755
0.0107955
0.0106109
0.0104232
0.0102298
0.0100366
0.00983118
0.00964075
0.00940792
0.00925177
0.0137978
0.0143346
0.0141081
0.0140828
0.0140114
0.0139091
0.0137955
0.0136714
0.0135407
0.013406
0.0132685
0.0131288
0.0129873
0.0128439
0.0126986
0.0125512
0.0124014
0.0122491
0.012094
0.0119358
0.0117744
0.0116095
0.011441
0.0112688
0.0110928
0.0109129
0.0107294
0.0105416
0.0103512
0.0101552
0.00995994
0.00975252
0.00956114
0.00932648
0.00917115
0.0137059
0.0142996
0.0140973
0.0140851
0.0140182
0.0139153
0.0137998
0.0136731
0.0135397
0.0134022
0.0132619
0.0131195
0.012975
0.0128288
0.0126805
0.01253
0.0123771
0.0122215
0.012063
0.0119014
0.0117365
0.0115682
0.0113963
0.0112207
0.0110415
0.0108585
0.0106722
0.0104818
0.010289
0.0100909
0.00989413
0.00968517
0.00949333
0.00925714
0.00910327
0.0136121
0.014276
0.0140928
0.0140925
0.0140283
0.0139235
0.0138054
0.013676
0.0135397
0.0133996
0.0132568
0.0131118
0.0129649
0.0128161
0.0126652
0.0125121
0.0123564
0.012198
0.0120367
0.0118722
0.0117044
0.0115332
0.0113585
0.0111801
0.0109983
0.0108128
0.0106242
0.0104317
0.0102371
0.0100375
0.00983959
0.0096295
0.00943755
0.0092
0.00904798
0.013488
0.0142568
0.01409
0.0141033
0.0140414
0.0139339
0.0138129
0.0136804
0.0135413
0.0133985
0.0132532
0.0131059
0.0129568
0.0128057
0.0126525
0.0124971
0.012339
0.0121783
0.0120145
0.0118476
0.0116773
0.0115036
0.0113265
0.0111459
0.0109618
0.0107743
0.0105838
0.0103897
0.0101937
0.00999293
0.00979424
0.00958339
0.00939168
0.00915314
0.00900354
0.0133578
0.0142537
0.0140935
0.0141189
0.0140567
0.0139451
0.0138208
0.013685
0.0135432
0.013398
0.0132506
0.0131012
0.0129501
0.0127971
0.012642
0.0124846
0.0123246
0.0121618
0.011996
0.011827
0.0116547
0.0114791
0.0113
0.0111175
0.0109317
0.0107426
0.0105506
0.0103553
0.0101582
0.00995659
0.00975738
0.00954605
0.0093546
0.00911523
0.00896788
0.0131954
0.0142629
0.0141006
0.0141394
0.0140754
0.0139587
0.0138304
0.0136911
0.0135464
0.0133989
0.0132493
0.0130981
0.0129452
0.0127905
0.0126338
0.0124747
0.0123131
0.0121487
0.0119812
0.0118106
0.0116366
0.0114594
0.0112787
0.0110947
0.0109075
0.0107171
0.0105239
0.0103277
0.0101298
0.00992771
0.00972822
0.00951687
0.0093259
0.00908679
0.00894189
0.0130144
0.0142921
0.0141122
0.0141619
0.0140934
0.013971
0.0138388
0.0136964
0.0135492
0.0133996
0.0132484
0.0130956
0.0129414
0.0127853
0.0126273
0.0124669
0.0123039
0.0121382
0.0119694
0.0117974
0.0116222
0.0114437
0.0112618
0.0110766
0.0108883
0.0106969
0.0105029
0.010306
0.0101076
0.00990518
0.00970548
0.00949428
0.00930307
0.0090643
0.00891892
0.0128107
0.0143414
0.0141303
0.0141916
0.0141159
0.0139862
0.0138494
0.0137034
0.0135535
0.013402
0.0132492
0.0130951
0.0129396
0.0127824
0.0126232
0.0124618
0.0122978
0.012131
0.0119612
0.0117882
0.0116119
0.0114324
0.0112496
0.0110635
0.0108745
0.0106824
0.0104878
0.0102903
0.0100917
0.00988916
0.00968951
0.00947908
0.00928819
0.00905256
0.00890735
0.012571
0.0144135
0.0141476
0.0142175
0.0141333
0.0139976
0.0138573
0.0137086
0.0135569
0.0134039
0.0132499
0.0130948
0.0129384
0.0127804
0.0126205
0.0124582
0.0122935
0.0121259
0.0119553
0.0117816
0.0116047
0.0114244
0.0112409
0.0110542
0.0108646
0.010672
0.010477
0.0102792
0.0100804
0.00987791
0.00967816
0.00946845
0.00927587
0.00904218
0.00888664
0.0123252
0.0145022
0.0141758
0.0142541
0.0141581
0.0140147
0.0138695
0.0137176
0.0135635
0.0134089
0.0132536
0.0130975
0.0129402
0.0127814
0.0126208
0.0124579
0.0122925
0.0121243
0.0119533
0.0117789
0.0116015
0.0114207
0.0112369
0.0110497
0.0108598
0.0106668
0.0104717
0.0102737
0.0100749
0.00987253
0.00967318
0.00946485
0.00927355
0.00904704
0.00889337
0.0120575
0.014607
0.0141994
0.0142832
0.0141761
0.0140271
0.0138786
0.0137243
0.0135688
0.013413
0.0132569
0.0131
0.0129421
0.0127828
0.0126217
0.0124584
0.0122926
0.0121241
0.0119527
0.011778
0.0116003
0.0114192
0.0112351
0.0110477
0.0108576
0.0106643
0.0104692
0.010271
0.0100724
0.0098701
0.00967071
0.00946339
0.009269
0.00904579
0.0088602
0.0118237
0.0147192
0.0142449
0.0143258
0.0142036
0.0140463
0.0138926
0.0137348
0.0135769
0.0134195
0.0132622
0.0131044
0.0129459
0.0127861
0.0126246
0.0124609
0.012295
0.0121261
0.0119546
0.0117797
0.011602
0.0114207
0.0112366
0.0110491
0.0108591
0.0106658
0.0104707
0.0102726
0.010074
0.00987191
0.00967317
0.00946671
0.00927746
0.00906152
0.00892281
0.0142205
0.0146704
0.0142829
0.0141826
0.0140709
0.0139562
0.0138476
0.0137387
0.0136302
0.0135227
0.0134162
0.0133111
0.0132074
0.0131051
0.0130041
0.0129042
0.0128052
0.0127067
0.0126083
0.0125096
0.01241
0.012309
0.0122059
0.0121001
0.0119909
0.0118775
0.0117595
0.0116359
0.0115065
0.01137
0.0112279
0.0110761
0.0109246
0.0107546
0.0106142
0.0141956
0.0146389
0.0142633
0.0141672
0.0140587
0.0139457
0.0138372
0.0137274
0.0136171
0.013507
0.0133974
0.0132885
0.0131805
0.0130734
0.012967
0.0128612
0.0127559
0.0126505
0.0125448
0.0124382
0.0123304
0.0122207
0.0121088
0.0119938
0.0118753
0.0117526
0.0116253
0.0114923
0.011354
0.0112082
0.0110575
0.0108945
0.010734
0.0105396
0.0103888
0.0141675
0.0146064
0.0142418
0.0141506
0.0140451
0.0139333
0.0138243
0.0137128
0.0135999
0.0134864
0.0133728
0.0132592
0.013146
0.0130331
0.0129204
0.0128077
0.0126948
0.0125814
0.012467
0.0123512
0.0122336
0.0121136
0.0119909
0.0118646
0.0117346
0.0115999
0.0114606
0.0113154
0.0111652
0.0110074
0.0108461
0.0106722
0.0105052
0.0103026
0.0101553
0.0141318
0.014571
0.0142201
0.0141353
0.0140339
0.0139241
0.0138151
0.0137024
0.0135874
0.0134711
0.013354
0.0132366
0.0131189
0.0130011
0.0128831
0.0127647
0.0126456
0.0125254
0.012404
0.0122808
0.0121554
0.0120274
0.0118963
0.0117616
0.011623
0.0114798
0.011332
0.0111784
0.0110202
0.0108544
0.0106857
0.0105037
0.0103299
0.0101167
0.00996364
0.0140987
0.0145334
0.0141985
0.0141208
0.0140235
0.0139154
0.0138061
0.0136918
0.0135742
0.0134547
0.0133338
0.0132121
0.0130897
0.0129668
0.0128431
0.0127186
0.0125931
0.0124661
0.0123373
0.0122064
0.012073
0.0119366
0.011797
0.0116535
0.011506
0.0113538
0.0111971
0.0110348
0.0108681
0.0106942
0.0105181
0.010329
0.0101502
0.00993151
0.00977801
0.0140529
0.0144931
0.0141769
0.0141078
0.0140155
0.0139093
0.0137997
0.0136839
0.013564
0.0134415
0.0133172
0.0131916
0.013065
0.0129374
0.0128088
0.0126789
0.0125477
0.0124146
0.0122796
0.012142
0.0120018
0.0118584
0.0117116
0.0115608
0.0114061
0.0112468
0.0110831
0.0109141
0.010741
0.010561
0.0103795
0.0101849
0.0100017
0.00977768
0.0096217
0.0140041
0.0144509
0.0141559
0.0140966
0.0140096
0.0139051
0.013795
0.0136774
0.0135548
0.0134292
0.0133012
0.0131717
0.0130407
0.0129085
0.012775
0.0126399
0.0125031
0.0123642
0.012223
0.0120792
0.0119323
0.0117822
0.0116285
0.0114709
0.0113094
0.0111433
0.0109731
0.0107977
0.0106187
0.0104331
0.0102466
0.0100474
0.00986098
0.00963342
0.00947711
0.0139453
0.0144079
0.014137
0.0140884
0.0140069
0.0139038
0.0137929
0.0136733
0.013548
0.0134192
0.0132878
0.0131546
0.0130197
0.0128833
0.0127453
0.0126055
0.0124637
0.0123197
0.0121731
0.0120236
0.0118711
0.0117151
0.0115556
0.0113922
0.0112249
0.0110533
0.0108777
0.0106973
0.0105135
0.0103236
0.0101333
0.00993064
0.00974182
0.00951125
0.00935467
0.0138752
0.014365
0.0141196
0.0140833
0.0140075
0.0139052
0.0137932
0.0136714
0.0135434
0.0134115
0.0132769
0.0131402
0.0130017
0.0128615
0.0127195
0.0125755
0.0124294
0.0122808
0.0121295
0.0119753
0.0118178
0.0116569
0.0114924
0.011324
0.0111519
0.0109756
0.0107955
0.0106109
0.0104233
0.0102298
0.0100367
0.00983124
0.00964081
0.00940798
0.00925187
0.0138048
0.0143302
0.014108
0.0140829
0.0140115
0.0139091
0.0137955
0.0136714
0.0135407
0.013406
0.0132685
0.0131288
0.0129873
0.0128439
0.0126986
0.0125512
0.0124014
0.0122491
0.012094
0.0119358
0.0117744
0.0116095
0.011441
0.0112688
0.0110928
0.0109129
0.0107294
0.0105417
0.0103512
0.0101552
0.00996
0.00975257
0.00956121
0.00932653
0.00917126
0.0137127
0.0142953
0.0140972
0.0140851
0.0140183
0.0139153
0.0137998
0.0136731
0.0135396
0.0134022
0.0132619
0.0131194
0.012975
0.0128288
0.0126805
0.01253
0.0123771
0.0122215
0.012063
0.0119014
0.0117365
0.0115682
0.0113963
0.0112207
0.0110415
0.0108586
0.0106722
0.0104818
0.010289
0.010091
0.00989418
0.00968523
0.00949339
0.00925719
0.00910338
0.0136187
0.0142719
0.0140928
0.0140925
0.0140284
0.0139235
0.0138054
0.0136759
0.0135397
0.0133996
0.0132568
0.0131118
0.0129649
0.0128161
0.0126652
0.0125121
0.0123564
0.012198
0.0120367
0.0118722
0.0117044
0.0115332
0.0113585
0.0111802
0.0109983
0.0108129
0.0106242
0.0104318
0.0102372
0.0100376
0.00983964
0.00962955
0.00943761
0.00920005
0.00904809
0.0134944
0.0142528
0.0140899
0.0141034
0.0140415
0.0139339
0.0138129
0.0136803
0.0135412
0.0133985
0.0132532
0.0131059
0.0129567
0.0128057
0.0126525
0.012497
0.012339
0.0121783
0.0120145
0.0118476
0.0116773
0.0115037
0.0113265
0.0111459
0.0109618
0.0107744
0.0105838
0.0103898
0.0101938
0.00999298
0.00979429
0.00958345
0.00939175
0.00915321
0.00900366
0.0133639
0.01425
0.0140934
0.0141189
0.0140567
0.013945
0.0138207
0.013685
0.0135431
0.013398
0.0132505
0.0131012
0.01295
0.012797
0.0126419
0.0124845
0.0123245
0.0121618
0.011996
0.011827
0.0116547
0.0114791
0.0113
0.0111176
0.0109317
0.0107426
0.0105506
0.0103553
0.0101583
0.00995665
0.00975744
0.00954611
0.00935467
0.0091153
0.008968
0.0132013
0.0142594
0.0141006
0.0141394
0.0140753
0.0139586
0.0138303
0.0136911
0.0135463
0.0133988
0.0132493
0.0130981
0.0129452
0.0127905
0.0126338
0.0124747
0.0123131
0.0121486
0.0119812
0.0118106
0.0116366
0.0114594
0.0112787
0.0110947
0.0109075
0.0107171
0.010524
0.0103277
0.0101299
0.00992778
0.0097283
0.00951695
0.00932598
0.00908689
0.00894204
0.0130199
0.0142889
0.0141121
0.0141619
0.0140933
0.0139709
0.0138387
0.0136963
0.0135491
0.0133995
0.0132483
0.0130956
0.0129413
0.0127853
0.0126272
0.0124669
0.0123039
0.0121382
0.0119694
0.0117975
0.0116222
0.0114437
0.0112618
0.0110767
0.0108884
0.010697
0.010503
0.0103061
0.0101077
0.00990527
0.00970558
0.00949438
0.00930318
0.00906441
0.00891908
0.0128158
0.0143385
0.0141301
0.0141915
0.0141157
0.0139861
0.0138492
0.0137033
0.0135535
0.013402
0.0132492
0.0130951
0.0129396
0.0127824
0.0126233
0.0124618
0.0122978
0.012131
0.0119612
0.0117882
0.011612
0.0114325
0.0112497
0.0110636
0.0108746
0.0106824
0.0104879
0.0102904
0.0100918
0.00988928
0.00968964
0.00947921
0.00928833
0.00905271
0.00890755
0.0125757
0.0144109
0.0141474
0.0142174
0.0141332
0.0139975
0.0138572
0.0137086
0.0135569
0.013404
0.01325
0.0130949
0.0129385
0.0127805
0.0126206
0.0124583
0.0122936
0.012126
0.0119554
0.0117817
0.0116048
0.0114245
0.0112411
0.0110543
0.0108647
0.0106721
0.0104772
0.0102793
0.0100806
0.00987805
0.0096783
0.00946859
0.00927602
0.00904232
0.00888681
0.0123288
0.0145004
0.0141756
0.014254
0.0141581
0.0140148
0.0138697
0.0137177
0.0135637
0.0134091
0.0132538
0.0130976
0.0129404
0.0127815
0.0126209
0.012458
0.0122927
0.0121244
0.0119534
0.011779
0.0116017
0.0114208
0.011237
0.0110498
0.0108599
0.0106669
0.0104718
0.0102738
0.010075
0.00987265
0.0096733
0.00946496
0.00927368
0.00904716
0.00889358
0.0120595
0.0146072
0.0141997
0.0142838
0.0141765
0.0140274
0.0138788
0.0137245
0.0135689
0.0134131
0.0132569
0.0131
0.0129422
0.0127828
0.0126218
0.0124584
0.0122927
0.0121241
0.0119527
0.011778
0.0116003
0.0114192
0.0112351
0.0110477
0.0108576
0.0106643
0.0104692
0.010271
0.0100723
0.00987009
0.00967071
0.00946338
0.00926901
0.00904573
0.00886007
0.011832
0.0147213
0.0142449
0.0143253
0.014203
0.0140457
0.0138921
0.0137344
0.0135766
0.0134192
0.0132619
0.0131041
0.0129457
0.0127858
0.0126244
0.0124607
0.0122948
0.0121259
0.0119544
0.0117795
0.0116018
0.0114206
0.0112365
0.0110489
0.0108589
0.0106656
0.0104705
0.0102724
0.0100739
0.00987173
0.00967298
0.00946653
0.00927726
0.00906135
0.00892253
0.0142256
0.0146652
0.0142826
0.0141825
0.0140709
0.0139562
0.0138476
0.0137387
0.0136302
0.0135227
0.0134162
0.0133111
0.0132074
0.0131051
0.0130041
0.0129042
0.0128052
0.0127067
0.0126083
0.0125096
0.01241
0.012309
0.0122059
0.0121
0.0119909
0.0118775
0.0117595
0.0116359
0.0115065
0.01137
0.0112278
0.0110761
0.0109246
0.0107546
0.0106143
0.0142006
0.0146337
0.0142629
0.0141671
0.0140587
0.0139458
0.0138372
0.0137274
0.0136171
0.013507
0.0133974
0.0132885
0.0131805
0.0130734
0.012967
0.0128613
0.0127559
0.0126505
0.0125448
0.0124382
0.0123304
0.0122208
0.0121088
0.0119938
0.0118753
0.0117526
0.0116253
0.0114923
0.011354
0.0112082
0.0110576
0.0108945
0.010734
0.0105396
0.0103889
0.0141725
0.0146013
0.0142415
0.0141505
0.0140451
0.0139333
0.0138243
0.0137128
0.0135999
0.0134864
0.0133728
0.0132592
0.013146
0.013033
0.0129203
0.0128077
0.0126948
0.0125813
0.012467
0.0123512
0.0122336
0.0121136
0.0119909
0.0118646
0.0117346
0.0115999
0.0114606
0.0113154
0.0111652
0.0110074
0.0108461
0.0106722
0.0105052
0.0103027
0.0101553
0.0141367
0.014566
0.0142198
0.0141352
0.0140339
0.0139241
0.0138151
0.0137024
0.0135874
0.0134711
0.013354
0.0132366
0.0131189
0.0130011
0.0128831
0.0127647
0.0126456
0.0125255
0.012404
0.0122808
0.0121554
0.0120274
0.0118963
0.0117616
0.011623
0.0114798
0.011332
0.0111785
0.0110202
0.0108544
0.0106858
0.0105037
0.0103299
0.0101168
0.00996373
0.0141035
0.0145285
0.0141982
0.0141207
0.0140235
0.0139154
0.0138061
0.0136918
0.0135742
0.0134547
0.0133338
0.0132121
0.0130897
0.0129668
0.0128431
0.0127186
0.0125931
0.012466
0.0123373
0.0122064
0.012073
0.0119366
0.011797
0.0116535
0.011506
0.0113538
0.0111971
0.0110348
0.0108681
0.0106942
0.0105181
0.010329
0.0101502
0.00993154
0.00977809
0.0140576
0.0144883
0.0141767
0.0141077
0.0140155
0.0139093
0.0137997
0.0136839
0.013564
0.0134415
0.0133172
0.0131916
0.013065
0.0129374
0.0128087
0.0126789
0.0125476
0.0124146
0.0122796
0.012142
0.0120018
0.0118584
0.0117116
0.0115608
0.0114061
0.0112468
0.0110831
0.0109141
0.010741
0.010561
0.0103795
0.0101849
0.0100017
0.00977772
0.00962181
0.0140087
0.0144462
0.0141557
0.0140965
0.0140096
0.0139051
0.013795
0.0136774
0.0135548
0.0134291
0.0133012
0.0131716
0.0130407
0.0129085
0.012775
0.0126399
0.0125031
0.0123642
0.012223
0.0120792
0.0119323
0.0117822
0.0116285
0.0114709
0.0113094
0.0111433
0.0109731
0.0107978
0.0106187
0.0104331
0.0102466
0.0100474
0.00986098
0.00963346
0.00947722
0.0139498
0.0144033
0.0141367
0.0140884
0.0140069
0.0139038
0.0137929
0.0136733
0.013548
0.0134192
0.0132878
0.0131546
0.0130197
0.0128833
0.0127453
0.0126055
0.0124637
0.0123197
0.0121731
0.0120236
0.0118711
0.0117152
0.0115556
0.0113922
0.0112249
0.0110533
0.0108777
0.0106973
0.0105135
0.0103236
0.0101334
0.00993067
0.00974183
0.0095113
0.0093548
0.0138796
0.0143605
0.0141194
0.0140832
0.0140075
0.0139053
0.0137932
0.0136714
0.0135434
0.0134115
0.0132769
0.0131402
0.0130017
0.0128615
0.0127195
0.0125755
0.0124294
0.0122808
0.0121295
0.0119752
0.0118178
0.0116569
0.0114924
0.011324
0.0111519
0.0109756
0.0107955
0.0106109
0.0104233
0.0102299
0.0100367
0.00983126
0.00964082
0.00940802
0.009252
0.0138091
0.0143258
0.0141078
0.0140828
0.0140115
0.0139091
0.0137955
0.0136714
0.0135406
0.013406
0.0132685
0.0131288
0.0129872
0.0128439
0.0126986
0.0125512
0.0124014
0.0122491
0.012094
0.0119358
0.0117744
0.0116095
0.011441
0.0112688
0.0110928
0.0109129
0.0107294
0.0105417
0.0103512
0.0101552
0.00996001
0.0097526
0.00956122
0.00932658
0.0091714
0.013717
0.0142911
0.014097
0.014085
0.0140183
0.0139153
0.0137998
0.0136731
0.0135396
0.0134022
0.0132619
0.0131194
0.012975
0.0128288
0.0126804
0.01253
0.012377
0.0122215
0.012063
0.0119014
0.0117365
0.0115682
0.0113963
0.0112207
0.0110415
0.0108586
0.0106722
0.0104819
0.010289
0.010091
0.00989419
0.00968525
0.0094934
0.00925724
0.00910352
0.0136228
0.0142679
0.0140926
0.0140924
0.0140284
0.0139235
0.0138054
0.0136759
0.0135397
0.0133996
0.0132567
0.0131118
0.0129649
0.0128161
0.0126652
0.012512
0.0123564
0.012198
0.0120367
0.0118722
0.0117044
0.0115332
0.0113585
0.0111802
0.0109983
0.0108129
0.0106242
0.0104318
0.0102372
0.0100376
0.00983965
0.00962958
0.00943762
0.00920011
0.00904825
0.0134983
0.0142489
0.0140898
0.0141033
0.0140415
0.0139339
0.0138129
0.0136803
0.0135412
0.0133985
0.0132532
0.0131059
0.0129567
0.0128056
0.0126524
0.012497
0.012339
0.0121782
0.0120144
0.0118475
0.0116773
0.0115036
0.0113265
0.0111459
0.0109618
0.0107744
0.0105838
0.0103898
0.0101938
0.009993
0.0097943
0.00958348
0.00939176
0.00915326
0.00900383
0.0133677
0.0142463
0.0140933
0.0141188
0.0140566
0.013945
0.0138206
0.0136849
0.0135431
0.0133979
0.0132505
0.0131011
0.01295
0.012797
0.0126419
0.0124845
0.0123245
0.0121618
0.011996
0.011827
0.0116547
0.0114791
0.0113
0.0111176
0.0109317
0.0107426
0.0105506
0.0103553
0.0101583
0.00995667
0.00975745
0.00954615
0.00935469
0.00911537
0.00896819
0.0132049
0.0142559
0.0141004
0.0141393
0.0140753
0.0139585
0.0138302
0.013691
0.0135463
0.0133987
0.0132492
0.013098
0.0129451
0.0127905
0.0126337
0.0124747
0.012313
0.0121486
0.0119812
0.0118106
0.0116366
0.0114594
0.0112787
0.0110947
0.0109075
0.0107171
0.010524
0.0103277
0.0101299
0.00992781
0.00972832
0.009517
0.00932601
0.00908696
0.00894224
0.0130233
0.0142856
0.0141119
0.0141617
0.0140933
0.0139708
0.0138386
0.0136962
0.013549
0.0133995
0.0132482
0.0130955
0.0129413
0.0127853
0.0126272
0.0124668
0.0123039
0.0121382
0.0119694
0.0117975
0.0116222
0.0114437
0.0112618
0.0110767
0.0108884
0.010697
0.010503
0.0103061
0.0101077
0.00990532
0.00970562
0.00949444
0.00930322
0.0090645
0.0089193
0.012819
0.0143356
0.01413
0.0141913
0.0141156
0.013986
0.0138491
0.0137032
0.0135534
0.0134019
0.0132491
0.013095
0.0129396
0.0127824
0.0126233
0.0124618
0.0122979
0.012131
0.0119612
0.0117883
0.0116121
0.0114325
0.0112497
0.0110637
0.0108746
0.0106825
0.0104879
0.0102905
0.0100918
0.00988934
0.0096897
0.00947929
0.0092884
0.00905282
0.00890779
0.0125787
0.0144083
0.0141473
0.0142172
0.0141331
0.0139975
0.0138571
0.0137086
0.0135569
0.013404
0.01325
0.0130949
0.0129385
0.0127805
0.0126206
0.0124584
0.0122936
0.012126
0.0119555
0.0117817
0.0116048
0.0114245
0.0112411
0.0110544
0.0108648
0.0106721
0.0104772
0.0102794
0.0100806
0.00987812
0.00967837
0.00946867
0.00927609
0.00904242
0.00888702
0.0123312
0.0144989
0.0141757
0.014254
0.0141582
0.0140148
0.0138697
0.0137178
0.0135638
0.0134092
0.0132539
0.0130977
0.0129404
0.0127816
0.012621
0.0124581
0.0122927
0.0121245
0.0119534
0.0117791
0.0116017
0.0114209
0.0112371
0.0110499
0.01086
0.0106669
0.0104718
0.0102738
0.0100751
0.00987269
0.00967334
0.00946501
0.00927373
0.00904722
0.00889373
0.0120615
0.0146077
0.0142001
0.0142839
0.0141767
0.0140275
0.0138789
0.0137245
0.0135689
0.0134131
0.0132569
0.0131
0.0129422
0.0127828
0.0126217
0.0124584
0.0122926
0.012124
0.0119526
0.0117779
0.0116003
0.0114191
0.0112351
0.0110476
0.0108575
0.0106643
0.0104691
0.010271
0.0100723
0.00987003
0.00967065
0.00946331
0.00926894
0.00904563
0.00885957
0.0118306
0.0147225
0.0142456
0.0143253
0.014203
0.0140456
0.013892
0.0137343
0.0135765
0.0134191
0.0132618
0.0131041
0.0129456
0.0127858
0.0126243
0.0124607
0.0122947
0.0121259
0.0119544
0.0117795
0.0116018
0.0114206
0.0112365
0.0110489
0.0108589
0.0106656
0.0104705
0.0102724
0.0100739
0.00987177