/*--------------------------------*- C++ -*----------------------------------*\
  =========                 |
  \\      /  F ield         | OpenFOAM: The Open Source CFD Toolbox
   \\    /   O peration     | Website:  https://openfoam.org
    \\  /    A nd           | Version:  6
     \\/     M anipulation  |
\*---------------------------------------------------------------------------*/
FoamFile
{
    version     2.0;
    format      ascii;
    class       volVectorField;
    location    "48";
    object      wallShearStress;
}
// * * * * * * * * * * * * * * * * * * * * * * * * * * * * * * * * * * * * * //

dimensions      [0 2 -2 0 0 0 0];

internalField   uniform (0 0 0);

boundaryField
{
    inlet
    {
        type            calculated;
        value           uniform (0 0 0);
    }
    outlet
    {
        type            calculated;
        value           uniform (0 0 0);
    }
    roughCylinder
    {
        type            calculated;
        value           nonuniform List<vector> 
3840
(
(-0.000271112 -0.000397203 -0.000162935)
(-0.000327502 -0.000510679 -2.24476e-05)
(-0.000376654 -0.00063243 4.15174e-05)
(-0.000451823 -0.000736129 0.000123608)
(-0.000539988 -0.000810332 0.00020621)
(-0.000631428 -0.000850772 0.000278428)
(-0.000716435 -0.000861543 0.000335185)
(-0.000790264 -0.000854013 0.000375042)
(-0.000853387 -0.00084759 0.000402326)
(-0.000902025 -0.000846191 0.00041665)
(-0.000940743 -0.000853841 0.000420009)
(-0.000972915 -0.000868986 0.000414566)
(-0.00100163 -0.000890012 0.000402869)
(-0.00102979 -0.00091543 0.000386983)
(-0.00105943 -0.000944294 0.000368344)
(-0.00109168 -0.000976093 0.000347608)
(-0.00112686 -0.00101051 0.000324849)
(-0.00116481 -0.00104719 0.000299761)
(-0.00120499 -0.00108564 0.000271753)
(-0.0012466 -0.00112501 0.000239958)
(-0.00128848 -0.0011641 0.000202934)
(-0.00132875 -0.00120093 0.000158568)
(-0.00136332 -0.00123225 0.00010314)
(-0.00138515 -0.00125213 3.58666e-05)
(-0.000290656 -0.000384955 -0.000155652)
(-0.000350506 -0.000495305 -2.62484e-05)
(-0.00040227 -0.000616567 3.30312e-05)
(-0.000479738 -0.000721453 0.000111592)
(-0.000569814 -0.00079823 0.000192218)
(-0.000663211 -0.00084163 0.000263366)
(-0.000751227 -0.000856507 0.000320095)
(-0.000829994 -0.000855121 0.000361989)
(-0.000898063 -0.000851911 0.00039182)
(-0.000950702 -0.000849296 0.000407664)
(-0.000991396 -0.000855612 0.000411674)
(-0.00102551 -0.000870101 0.000406547)
(-0.00105611 -0.00089092 0.000395082)
(-0.00108618 -0.000916353 0.000379425)
(-0.00111782 -0.000945335 0.000361077)
(-0.00115216 -0.00097726 0.000340716)
(-0.00118952 -0.00101176 0.000318437)
(-0.00122971 -0.00104849 0.000293922)
(-0.00127217 -0.00108691 0.000266576)
(-0.00131602 -0.0011262 0.000235516)
(-0.0013601 -0.00116516 0.000199294)
(-0.00140239 -0.00120182 0.000155822)
(-0.00143863 -0.00123294 0.00010141)
(-0.00146149 -0.00125266 3.5271e-05)
(-0.00031022 -0.000367182 -0.000142738)
(-0.000372789 -0.000474192 -3.06773e-05)
(-0.000426979 -0.000593888 2.37551e-05)
(-0.000506302 -0.00069928 9.83812e-05)
(-0.000598194 -0.000778507 0.000176732)
(-0.000693933 -0.000825625 0.000246945)
(-0.000785672 -0.000845763 0.000304315)
(-0.000869341 -0.00085032 0.00034833)
(-0.000941961 -0.000850026 0.000380042)
(-0.000999292 -0.000847439 0.000397567)
(-0.00104209 -0.000852058 0.000402215)
(-0.00107822 -0.000865685 0.000397427)
(-0.00111082 -0.000886071 0.000386263)
(-0.00114291 -0.000911323 0.000370913)
(-0.00117661 -0.000940204 0.00035293)
(-0.00121308 -0.000972029 0.000333028)
(-0.00125266 -0.00100639 0.00031131)
(-0.00129511 -0.00104291 0.000287452)
(-0.00133984 -0.00108105 0.000260849)
(-0.00138593 -0.00111998 0.000230604)
(-0.00143214 -0.00115853 0.000195266)
(-0.00147641 -0.00119476 0.000152779)
(-0.00151428 -0.00122546 9.94922e-05)
(-0.00153812 -0.00124487 3.46116e-05)
(-0.000327821 -0.000345224 -0.000126151)
(-0.000392242 -0.000448213 -3.53219e-05)
(-0.000448284 -0.000565389 1.40351e-05)
(-0.000528859 -0.000670723 8.44019e-05)
(-0.000622462 -0.00075233 0.000160165)
(-0.00072086 -0.000803745 0.000229398)
(-0.000816619 -0.000829759 0.000287612)
(-0.000905137 -0.000840035 0.000333677)
(-0.000982448 -0.000842833 0.00036714)
(-0.00104487 -0.000841583 0.000386526)
(-0.00109045 -0.000844017 0.000391833)
(-0.00112874 -0.00085658 0.0003875)
(-0.00116348 -0.000876356 0.000376724)
(-0.00119766 -0.000901246 0.000361762)
(-0.00123347 -0.000929875 0.000344231)
(-0.0012721 -0.000961429 0.000324862)
(-0.00131386 -0.000995464 0.000303775)
(-0.0013585 -0.00103156 0.000280636)
(-0.00140541 -0.0010692 0.000254832)
(-0.0014536 -0.00110755 0.000225453)
(-0.00150185 -0.00114548 0.000191049)
(-0.00154797 -0.00118106 0.000149596)
(-0.00158734 -0.00121117 9.74887e-05)
(-0.00161206 -0.00123016 3.39241e-05)
(-0.000342127 -0.000319219 -0.000107465)
(-0.000407868 -0.000417728 -3.98039e-05)
(-0.000465084 -0.000531462 4.21168e-06)
(-0.000546313 -0.000636156 6.99494e-05)
(-0.000641586 -0.000720096 0.000142743)
(-0.000742961 -0.000776205 0.000210844)
(-0.000842947 -0.000808252 0.000269825)
(-0.000936225 -0.000823904 0.000317753)
(-0.00101828 -0.000829797 0.000352993)
(-0.00108532 -0.000830036 0.000373946)
(-0.00113542 -0.000830954 0.000380404)
(-0.00117608 -0.000842262 0.000376786)
(-0.0012131 -0.000861141 0.000366492)
(-0.00124947 -0.000885478 0.000352041)
(-0.00128741 -0.000913631 0.000335042)
(-0.00132815 -0.000944715 0.000316289)
(-0.00137203 -0.00097821 0.000295905)
(-0.00141876 -0.00101367 0.00027355)
(-0.00146773 -0.00105058 0.000248603)
(-0.00151789 -0.00108812 0.000220138)
(-0.00156797 -0.00112517 0.000186699)
(-0.00161578 -0.00115988 0.000146319)
(-0.0016565 -0.00118921 9.54312e-05)
(-0.001682 -0.00120765 3.32195e-05)
(-0.000353514 -0.000291007 -8.81396e-05)
(-0.000419527 -0.000384103 -4.39547e-05)
(-0.000477086 -0.000493559 -5.47584e-06)
(-0.000558335 -0.000597008 5.52596e-05)
(-0.000655068 -0.000683033 0.000124654)
(-0.000759462 -0.000743791 0.000191327)
(-0.00086369 -0.000781605 0.000250813)
(-0.000961756 -0.000802205 0.000300373)
(-0.00104867 -0.000811096 0.000337368)
(-0.00112056 -0.000812924 0.000359813)
(-0.00117639 -0.000813905 0.000368001)
(-0.00121978 -0.000822894 0.000365182)
(-0.00125929 -0.000840664 0.000355544)
(-0.00129794 -0.000864132 0.000341719)
(-0.00133805 -0.000891618 0.000325377)
(-0.00138089 -0.000922016 0.000307332)
(-0.00142681 -0.000954748 0.000287728)
(-0.00147552 -0.000989339 0.000266222)
(-0.00152635 -0.00102527 0.000242183)
(-0.00157826 -0.00106174 0.000214673)
(-0.00163 -0.00109771 0.000182237)
(-0.00167931 -0.00113134 0.00014296)
(-0.00172119 -0.00115968 9.33277e-05)
(-0.00174734 -0.00117748 3.25011e-05)
(-0.000360022 -0.000260282 -6.87128e-05)
(-0.000425998 -0.00034774 -4.75286e-05)
(-0.000483108 -0.000452102 -1.48306e-05)
(-0.000563645 -0.000553657 4.04301e-05)
(-0.000661534 -0.00064148 0.000105896)
(-0.000769015 -0.000706839 0.000170758)
(-0.000877684 -0.000750227 0.000230429)
(-0.000980713 -0.00077547 0.000281358)
(-0.00107271 -0.000787285 0.000320083)
(-0.00114976 -0.000790745 0.00034416)
(-0.00121109 -0.000792417 0.00035407)
(-0.00125916 -0.000799486 0.000352564)
(-0.00130137 -0.00081551 0.000343819)
(-0.0013425 -0.00083791 0.000330793)
(-0.00138481 -0.000864429 0.000315225)
(-0.00142972 -0.000893913 0.000297991)
(-0.00147759 -0.000925672 0.000279257)
(-0.00152812 -0.000959199 0.000258672)
(-0.00158068 -0.000993963 0.000235603)
(-0.00163415 -0.00102918 0.000209093)
(-0.00168728 -0.00106383 0.000177682)
(-0.00173787 -0.00109619 0.000139537)
(-0.00178072 -0.00112339 9.11906e-05)
(-0.00180737 -0.00114044 3.17733e-05)
(-0.000363145 -0.000229256 -5.01837e-05)
(-0.000427488 -0.000310099 -5.06108e-05)
(-0.000483074 -0.000408578 -2.36534e-05)
(-0.000561991 -0.000507393 2.57545e-05)
(-0.000660441 -0.000596372 8.66883e-05)
(-0.000770676 -0.000665849 0.000149163)
(-0.000883609 -0.000714299 0.00020851)
(-0.000991738 -0.00074389 0.000260475)
(-0.00108914 -0.000758613 0.000300864)
(-0.00117183 -0.000763869 0.000326798)
(-0.00123874 -0.000766344 0.000338483)
(-0.00129245 -0.000772665 0.000338716)
(-0.00133843 -0.00078657 0.000331234)
(-0.00138219 -0.000807135 0.00031918)
(-0.00142682 -0.000832504 0.000304568)
(-0.00147378 -0.000860864 0.00028827)
(-0.00152349 -0.000891443 0.000270499)
(-0.00157567 -0.000923684 0.000250909)
(-0.00162967 -0.000957062 0.000228861)
(-0.00168438 -0.000990846 0.000203391)
(-0.00173868 -0.00102413 0.000173044)
(-0.00179028 -0.00105509 0.000136056)
(-0.00183386 -0.00108108 8.90251e-05)
(-0.00186083 -0.00109736 3.10388e-05)
(-0.000359291 -0.000196571 -3.26186e-05)
(-0.000422287 -0.000270862 -5.27051e-05)
(-0.000475524 -0.000362747 -3.17584e-05)
(-0.000551823 -0.000458036 1.13473e-05)
(-0.000650102 -0.000547468 6.70934e-05)
(-0.000762864 -0.000620689 0.000126501)
(-0.000880283 -0.000674082 0.000184979)
(-0.000993821 -0.000707909 0.000237614)
(-0.00109705 -0.000725584 0.000279562)
(-0.00118565 -0.000732625 0.000307481)
(-0.00125852 -0.000736003 0.000321211)
(-0.00131784 -0.000742075 0.000323354)
(-0.00136866 -0.000754526 0.000317538)
(-0.00141619 -0.000773431 0.000306932)
(-0.00146315 -0.000797069 0.00029344)
(-0.00151211 -0.000823996 0.000278204)
(-0.00156353 -0.000853237 0.000261511)
(-0.00161716 -0.000884123 0.000243003)
(-0.00167239 -0.000916095 0.000222049)
(-0.00172801 -0.000948387 0.000197651)
(-0.00178288 -0.000980039 0.000168351)
(-0.0018351 -0.00100946 0.00013253)
(-0.00187904 -0.00103408 8.68347e-05)
(-0.001906 -0.00104947 3.02962e-05)
(-0.000352607 -0.000165247 -1.68977e-05)
(-0.000411426 -0.00023215 -5.45676e-05)
(-0.000461061 -0.000316715 -3.87254e-05)
(-0.000533544 -0.000407219 -2.24966e-06)
(-0.000630589 -0.000496034 4.75276e-05)
(-0.000745159 -0.000572198 0.000103005)
(-0.000866564 -0.000629891 0.000159816)
(-0.000985595 -0.000667776 0.000212613)
(-0.001095 -0.000688412 0.000255931)
(-0.00119018 -0.000697422 0.000285978)
(-0.00126936 -0.000701709 0.000302031)
(-0.00133448 -0.000707613 0.000306362)
(-0.00139029 -0.000719024 0.000302498)
(-0.00144158 -0.000736398 0.000293549)
(-0.00149149 -0.000758311 0.000281491)
(-0.00154257 -0.000783652 0.000267553)
(-0.00159548 -0.000811306 0.000252066)
(-0.00165011 -0.000840566 0.000234718)
(-0.00170594 -0.000870845 0.000214894)
(-0.00176185 -0.00090135 0.000191593)
(-0.00181699 -0.000931181 0.000163389)
(-0.00186942 -0.000958849 0.000128794)
(-0.00191338 -0.000981959 8.45146e-05)
(-0.00194011 -0.000996328 2.95102e-05)
(-0.000335995 -0.000134424 -2.97062e-06)
(-0.000393429 -0.00019214 -5.3824e-05)
(-0.00043812 -0.00026942 -4.48722e-05)
(-0.000505479 -0.000354407 -1.50954e-05)
(-0.000599957 -0.000441551 2.8187e-05)
(-0.000715615 -0.000519961 7.8771e-05)
(-0.000841234 -0.000582001 0.000133076)
(-0.000966109 -0.000624067 0.00018547)
(-0.0010823 -0.000647876 0.000229947)
(-0.00118433 -0.000658768 0.000262107)
(-0.00127036 -0.000663958 0.000280749)
(-0.00134176 -0.000669749 0.000287626)
(-0.00140267 -0.00068009 0.000285997)
(-0.00145796 -0.000695929 0.00027897)
(-0.00151076 -0.000716054 0.000268567)
(-0.00156382 -0.000739586 0.00025611)
(-0.00161806 -0.000765431 0.000241989)
(-0.00167346 -0.00079283 0.000225921)
(-0.00172962 -0.000821189 0.000207322)
(-0.00178549 -0.000849716 0.00018519)
(-0.00184045 -0.000877527 0.000158134)
(-0.00189277 -0.00090332 0.000124836)
(-0.0019364 -0.000924806 8.20585e-05)
(-0.00196268 -0.0009381 2.86794e-05)
(-0.000314175 -0.000106237 5.2928e-06)
(-0.000371426 -0.000156789 -5.02948e-05)
(-0.000409273 -0.000223302 -4.90607e-05)
(-0.000469155 -0.000301711 -2.64379e-05)
(-0.000559196 -0.000385726 9.65678e-06)
(-0.000674748 -0.000465366 5.43167e-05)
(-0.000803504 -0.00053094 0.000104988)
(-0.000934098 -0.000577109 0.000156182)
(-0.00105722 -0.000604158 0.000201404)
(-0.00116699 -0.000617231 0.000235729)
(-0.00126041 -0.00062328 0.000257171)
(-0.00133843 -0.000628825 0.000266913)
(-0.00140498 -0.000638104 0.00026791)
(-0.00146439 -0.000652251 0.0002631)
(-0.00152025 -0.000670486 0.000254632)
(-0.00157538 -0.000692095 0.000243888)
(-0.00163079 -0.000715933 0.000231298)
(-0.00168665 -0.000741269 0.000216632)
(-0.00174269 -0.0007675 0.000199348)
(-0.00179799 -0.000793842 0.000178445)
(-0.00185234 -0.000819501 0.00015259)
(-0.00190412 -0.000843289 0.000120656)
(-0.001947 -0.000863047 7.94664e-05)
(-0.00197254 -0.000875192 2.78037e-05)
(-0.000283003 -7.76205e-05 1.2617e-05)
(-0.000341852 -0.000124247 -4.84145e-05)
(-0.000372284 -0.000179619 -5.07955e-05)
(-0.000423046 -0.00024958 -3.51938e-05)
(-0.000506757 -0.000328529 -7.25392e-06)
(-0.000620276 -0.000407797 3.01597e-05)
(-0.000752085 -0.000476833 7.59308e-05)
(-0.000888548 -0.000527335 0.00012496)
(-0.00101943 -0.000558182 0.00017048)
(-0.00113715 -0.000573447 0.00020678)
(-0.00123856 -0.000580372 0.000231199)
(-0.0013239 -0.000585631 0.000244174)
(-0.0013963 -0.00059362 0.000248141)
(-0.00146029 -0.000605991 0.000245941)
(-0.00151928 -0.000622164 0.000239701)
(-0.00157624 -0.000641578 0.000230871)
(-0.0016326 -0.000663236 0.000219994)
(-0.00168862 -0.000686362 0.000206869)
(-0.0017442 -0.000710349 0.000191005)
(-0.00179853 -0.000734436 0.000171405)
(-0.00185184 -0.000757866 0.000146796)
(-0.0019026 -0.000779557 0.00011628)
(-0.0019444 -0.000797572 7.67612e-05)
(-0.00196895 -0.000808558 2.68925e-05)
(-0.000246633 -5.11953e-05 1.87707e-05)
(-0.00030623 -9.50028e-05 -4.74822e-05)
(-0.000329896 -0.000140305 -5.08811e-05)
(-0.000369481 -0.000200008 -4.12481e-05)
(-0.000443729 -0.000271509 -2.16892e-05)
(-0.000554012 -0.000349171 7.3819e-06)
(-0.000687089 -0.000420444 4.6662e-05)
(-0.000829069 -0.000475298 9.22593e-05)
(-0.000967256 -0.000509959 0.000137214)
(-0.00109382 -0.000527992 0.00017529)
(-0.00120382 -0.000535925 0.000202779)
(-0.00129679 -0.000540742 0.000219259)
(-0.00137574 -0.000547388 0.000226638)
(-0.0014444 -0.000557711 0.000227398)
(-0.0015067 -0.000571665 0.000223724)
(-0.00156577 -0.000588847 0.000217118)
(-0.00162291 -0.000608189 0.000208149)
(-0.0016787 -0.000628977 0.000196697)
(-0.00173328 -0.000650602 0.000182338)
(-0.00178599 -0.000672328 0.000164085)
(-0.00183761 -0.000693435 0.000140743)
(-0.00188703 -0.000713045 0.000111711)
(-0.00192714 -0.000729245 7.39371e-05)
(-0.00195037 -0.000739069 2.59431e-05)
(-0.000202959 -2.82851e-05 2.31082e-05)
(-0.000261393 -6.78404e-05 -4.5378e-05)
(-0.00027996 -0.000104344 -4.91698e-05)
(-0.000309226 -0.000153432 -4.40614e-05)
(-0.000372888 -0.000216144 -3.2716e-05)
(-0.000474617 -0.00028865 -1.31661e-05)
(-0.000607539 -0.000361456 1.80565e-05)
(-0.000754087 -0.000420554 5.8647e-05)
(-0.000900731 -0.0004602 0.000102153)
(-0.00103622 -0.000481351 0.000141462)
(-0.00115536 -0.000490624 0.000171979)
(-0.00125681 -0.000495176 0.00019226)
(-0.00134243 -0.000500247 0.000203375)
(-0.00141639 -0.000508479 0.00020754)
(-0.00148215 -0.000520049 0.000206777)
(-0.00154283 -0.000534693 0.000202607)
(-0.00160046 -0.0005516 0.000195747)
(-0.00165568 -0.000569998 0.000186111)
(-0.00170884 -0.000589265 0.00017336)
(-0.00175947 -0.00060868 0.000156514)
(-0.00180913 -0.000627574 0.00013448)
(-0.00185647 -0.000645016 0.000106961)
(-0.00189466 -0.000659521 7.10172e-05)
(-0.00191628 -0.000668232 2.49646e-05)
(-0.000156792 -1.03514e-05 2.55363e-05)
(-0.000213413 -4.50279e-05 -4.26918e-05)
(-0.000228464 -7.4137e-05 -4.7063e-05)
(-0.000244688 -0.000111381 -4.46797e-05)
(-0.000290393 -0.000161169 -3.91515e-05)
(-0.000385227 -0.000228742 -2.88195e-05)
(-0.000515308 -0.000300668 -8.02756e-06)
(-0.000666188 -0.000364408 2.55332e-05)
(-0.000819333 -0.000408754 6.59773e-05)
(-0.000964118 -0.000433949 0.000105774)
(-0.00109268 -0.000445077 0.000139042)
(-0.00120261 -0.00044945 0.000163169)
(-0.00129571 -0.000453143 0.000178402)
(-0.00137484 -0.000459053 0.000186286)
(-0.00144411 -0.000468106 0.000188778)
(-0.00150692 -0.000480314 0.000187407)
(-0.00156487 -0.000494754 0.00018287)
(-0.00161905 -0.000510732 0.000175179)
(-0.00167016 -0.000527634 0.000164112)
(-0.00171792 -0.000544748 0.000148693)
(-0.00176462 -0.00056135 0.000127948)
(-0.00180984 -0.00057683 0.000102024)
(-0.00184528 -0.000589601 6.79774e-05)
(-0.00186491 -0.000597271 2.39479e-05)
(-0.000104274 3.26003e-06 2.57691e-05)
(-0.000154988 -2.42864e-05 -3.73551e-05)
(-0.000168549 -4.69483e-05 -4.21771e-05)
(-0.00018011 -7.45179e-05 -3.95405e-05)
(-0.000233842 -0.000117431 -3.94183e-05)
(-0.000288183 -0.0001659 -4.02831e-05)
(-0.000411176 -0.000237722 -3.04533e-05)
(-0.000561809 -0.000304186 -5.78615e-06)
(-0.000723024 -0.000355384 3.00057e-05)
(-0.000876905 -0.000385585 6.89961e-05)
(-0.00101526 -0.000399554 0.00010442)
(-0.00113457 -0.000404522 0.000132353)
(-0.00123484 -0.00040686 0.000151815)
(-0.00131986 -0.000410682 0.000163804)
(-0.00139283 -0.000417223 0.000169885)
(-0.0014569 -0.000426719 0.000171495)
(-0.00151473 -0.000438651 0.000169469)
(-0.00156746 -0.000452285 0.000163863)
(-0.00161605 -0.00046694 0.000154574)
(-0.00166051 -0.00048195 0.000140632)
(-0.0017043 -0.000496563 0.000121218)
(-0.00174621 -0.000509974 9.68897e-05)
(-0.00177886 -0.000521278 6.48431e-05)
(-0.00179619 -0.000528003 2.29027e-05)
(-5.84976e-05 1.07834e-05 2.5056e-05)
(-0.000104322 -1.02681e-05 -3.23487e-05)
(-0.000123729 -2.85094e-05 -3.93222e-05)
(-0.000131977 -4.36526e-05 -6.06587e-05)
(-0.000121818 -0.000107946 -4.51392e-05)
(-0.000202672 -0.000119612 -1.41402e-05)
(-0.000300562 -0.000170491 -4.57147e-05)
(-0.000450911 -0.000243931 -3.25998e-05)
(-0.000614311 -0.000300002 -4.02984e-06)
(-0.000776313 -0.000336547 3.25003e-05)
(-0.000923718 -0.00035433 6.89568e-05)
(-0.00105151 -0.000360436 0.00010014)
(-0.00115981 -0.000362215 0.000123906)
(-0.0012501 -0.000363983 0.000140102)
(-0.00132656 -0.000368078 0.000150016)
(-0.00139261 -0.000375192 0.000154967)
(-0.00145013 -0.000384749 0.000155657)
(-0.00150083 -0.000396125 0.000152239)
(-0.00154618 -0.000408651 0.000144785)
(-0.00158632 -0.000421651 0.000132305)
(-0.00162578 -0.000434186 0.000114154)
(-0.00166484 -0.000445924 9.15384e-05)
(-0.00169356 -0.000455752 6.15615e-05)
(-0.00170818 -0.000461636 2.18098e-05)
(-1.34646e-05 1.13456e-05 1.942e-05)
(-4.22761e-05 3.35308e-06 -2.77391e-05)
(-5.10908e-05 -1.44218e-05 -5.00873e-05)
(-6.64849e-05 -5.6525e-05 -5.04276e-05)
(-6.55944e-05 -6.28734e-05 -3.0746e-05)
(-8.20891e-05 -6.7848e-05 -2.45498e-05)
(-0.000196955 -0.000116312 -3.64888e-05)
(-0.000325355 -0.000174453 -5.01493e-05)
(-0.000493494 -0.000241989 -3.2996e-05)
(-0.000661436 -0.000285143 -1.87607e-06)
(-0.000817969 -0.000308841 3.38391e-05)
(-0.000955214 -0.000317803 6.74146e-05)
(-0.00107021 -0.000319517 9.50384e-05)
(-0.00116647 -0.000320012 0.000115533)
(-0.00124641 -0.000321991 0.00012945)
(-0.00131309 -0.00032663 0.000137819)
(-0.00136962 -0.000333929 0.000141353)
(-0.00141783 -0.000343258 0.000140225)
(-0.00145943 -0.000353888 0.000134677)
(-0.00149498 -0.000365212 0.000123696)
(-0.00153059 -0.000376119 0.00010686)
(-0.00156515 -0.000386029 8.59327e-05)
(-0.00159024 -0.000394792 5.8163e-05)
(-0.00160189 -0.000399978 2.06798e-05)
(1.3379e-05 9.80802e-06 7.79597e-06)
(-2.59785e-06 -4.00205e-06 -2.20047e-05)
(-1.61476e-05 -1.73733e-05 -2.94784e-05)
(-1.67245e-05 -2.27875e-05 -1.1779e-05)
(-4.69901e-05 -5.52884e-07 -2.56376e-05)
(-3.99455e-05 -3.25595e-05 -3.73814e-05)
(-7.73714e-05 -5.42297e-05 -2.38311e-05)
(-0.00021873 -0.000114326 -5.03372e-05)
(-0.000363243 -0.000177706 -5.3755e-05)
(-0.000538262 -0.000233206 -3.11711e-05)
(-0.000700746 -0.000262995 7.107e-07)
(-0.000844724 -0.000275753 3.50746e-05)
(-0.000967386 -0.000279146 6.59451e-05)
(-0.00106803 -0.000278866 9.03306e-05)
(-0.00115098 -0.000279245 0.000108221)
(-0.00121905 -0.00028208 0.000120229)
(-0.0012743 -0.000287461 0.000126724)
(-0.00131933 -0.000294984 0.000127921)
(-0.00135637 -0.000303921 0.00012429)
(-0.00138604 -0.000313688 0.000114738)
(-0.0014161 -0.000322828 9.91065e-05)
(-0.00144716 -0.00033143 8.00323e-05)
(-0.00146704 -0.000339077 5.45501e-05)
(-0.00147536 -0.000343646 1.9477e-05)
(3.06134e-05 4.62618e-06 1.69212e-05)
(2.95169e-05 -1.12198e-06 2.92211e-06)
(1.09143e-05 4.15555e-06 8.11522e-06)
(-1.43653e-05 1.62933e-05 -1.00592e-05)
(-1.65822e-05 -3.82955e-06 -1.86124e-05)
(-1.98043e-05 -6.22355e-06 -2.08063e-05)
(-4.28607e-05 -3.38475e-05 -4.07384e-05)
(-7.91924e-05 -5.08524e-05 -3.00289e-05)
(-0.000250277 -0.00011517 -5.57366e-05)
(-0.000400379 -0.000172439 -5.57407e-05)
(-0.000571427 -0.000215752 -2.80546e-05)
(-0.000724544 -0.000234617 4.75764e-06)
(-0.000851457 -0.000240534 3.74526e-05)
(-0.00095712 -0.000241013 6.51645e-05)
(-0.00104231 -0.000240529 8.67559e-05)
(-0.00110981 -0.000241794 0.000102234)
(-0.0011629 -0.000245619 0.000111664)
(-0.00120421 -0.000251711 0.000115181)
(-0.00123628 -0.000259258 0.000113487)
(-0.00126021 -0.000267897 0.000105391)
(-0.00128559 -0.000275689 9.10168e-05)
(-0.00131126 -0.000282766 7.37726e-05)
(-0.00132702 -0.000289892 5.07752e-05)
(-0.00133172 -0.000293881 1.82173e-05)
(4.24823e-05 1.35234e-05 3.01363e-05)
(4.95245e-05 7.07476e-06 -8.88344e-06)
(4.27664e-05 -2.8102e-06 -1.24514e-05)
(2.83709e-05 -1.42756e-05 -1.60844e-05)
(2.27107e-05 -1.71861e-05 -1.82435e-05)
(6.34317e-06 -1.33786e-05 -1.75324e-05)
(-8.69018e-06 -1.13553e-05 -2.27202e-05)
(-2.55826e-05 -2.14961e-05 -2.46088e-05)
(-0.000104991 -6.28315e-05 -3.8361e-05)
(-0.000290035 -0.000115096 -5.57692e-05)
(-0.0004406 -0.000163994 -5.29438e-05)
(-0.000593232 -0.000192603 -2.24835e-05)
(-0.000726136 -0.000203609 1.09266e-05)
(-0.000833538 -0.000205631 4.06386e-05)
(-0.000920472 -0.000205448 6.53682e-05)
(-0.0009881 -0.000206243 8.42021e-05)
(-0.00103844 -0.00020904 9.64529e-05)
(-0.00107521 -0.000214089 0.000102166)
(-0.00110149 -0.000220446 0.000102326)
(-0.00111807 -0.000227984 9.5529e-05)
(-0.00113723 -0.000234115 8.22889e-05)
(-0.00115889 -0.000240146 6.70839e-05)
(-0.0011681 -0.000246558 4.66564e-05)
(-0.0011693 -0.000249925 1.68396e-05)
(5.54076e-05 1.53542e-05 3.46692e-05)
(7.05723e-05 8.99211e-06 -1.19501e-05)
(7.42672e-05 1.84691e-06 -2.00026e-05)
(7.07883e-05 -9.31947e-06 -2.39093e-05)
(6.31892e-05 -1.90131e-05 -2.50484e-05)
(4.90548e-05 -2.45332e-05 -2.28739e-05)
(2.5888e-05 -2.10755e-05 -2.13693e-05)
(-1.58217e-05 -1.84708e-05 -3.6199e-05)
(-4.52481e-05 -3.52442e-05 -3.69129e-05)
(-0.000143037 -7.55148e-05 -4.43965e-05)
(-0.000305346 -0.000117571 -5.54469e-05)
(-0.000461868 -0.000150175 -4.27645e-05)
(-0.000592221 -0.000166808 -1.2369e-05)
(-0.000702147 -0.000172568 1.78492e-05)
(-0.000788487 -0.00017358 4.46666e-05)
(-0.00085335 -0.000174438 6.62103e-05)
(-0.000899929 -0.000176776 8.09505e-05)
(-0.000931685 -0.000181313 8.86366e-05)
(-0.000952036 -0.000186721 9.05666e-05)
(-0.000962288 -0.000193612 8.50994e-05)
(-0.000976416 -0.00019821 7.30476e-05)
(-0.000992532 -0.000202902 5.99014e-05)
(-0.000997927 -0.000209549 4.23297e-05)
(-0.000994979 -0.000211911 1.53727e-05)
(6.71936e-05 1.37441e-05 3.60216e-05)
(8.77878e-05 7.44813e-06 -1.17659e-05)
(9.63996e-05 1.42035e-07 -2.08566e-05)
(9.81134e-05 -1.14225e-05 -2.58174e-05)
(9.37987e-05 -2.24031e-05 -2.7202e-05)
(8.3487e-05 -3.09127e-05 -2.53903e-05)
(6.53475e-05 -3.11411e-05 -1.87e-05)
(2.96296e-05 -2.6569e-05 -2.2086e-05)
(-2.51538e-05 -2.04288e-05 -4.10673e-05)
(-6.51101e-05 -4.39633e-05 -3.82852e-05)
(-0.000176077 -7.16712e-05 -4.10257e-05)
(-0.000322588 -0.000104242 -5.32513e-05)
(-0.00045787 -0.000130901 -3.0303e-05)
(-0.000563357 -0.000139922 -2.15664e-06)
(-0.000649108 -0.000143782 2.53695e-05)
(-0.000712219 -0.000146283 4.89538e-05)
(-0.00075396 -0.000148593 6.56578e-05)
(-0.000779849 -0.00015315 7.49043e-05)
(-0.000793539 -0.000157578 7.83531e-05)
(-0.000795404 -0.000163574 7.39197e-05)
(-0.000803033 -0.000165337 6.29649e-05)
(-0.000815183 -0.000169068 5.21077e-05)
(-0.000813007 -0.000175902 3.74377e-05)
(-0.000806882 -0.000176317 1.37219e-05)
(7.43682e-05 1.19298e-05 3.64046e-05)
(9.88335e-05 5.65103e-06 -1.10201e-05)
(0.000110553 -8.78268e-07 -2.09967e-05)
(0.000115086 -1.23004e-05 -2.68593e-05)
(0.000113264 -2.44861e-05 -2.8723e-05)
(0.00010539 -3.48405e-05 -2.65195e-05)
(9.08256e-05 -4.15261e-05 -2.04837e-05)
(6.40084e-05 -3.65987e-05 -7.42837e-06)
(5.8758e-06 -2.06425e-05 -1.82146e-05)
(-3.71406e-05 -1.1173e-05 -3.42396e-05)
(-6.90201e-05 -2.85418e-05 -2.84552e-05)
(-0.000209015 -6.26972e-05 -5.02903e-05)
(-0.000319907 -9.16525e-05 -4.2299e-05)
(-0.000426889 -0.0001086 -1.79513e-05)
(-0.000507164 -0.000115139 8.21748e-06)
(-0.00056333 -0.000119326 3.24972e-05)
(-0.000599263 -0.000121754 5.03602e-05)
(-0.000619024 -0.000127153 6.05713e-05)
(-0.000626768 -0.000130503 6.53077e-05)
(-0.000623202 -0.000136279 6.20704e-05)
(-0.000629155 -0.000136238 5.23774e-05)
(-0.000636036 -0.000138148 4.37865e-05)
(-0.000630492 -0.000145884 3.24031e-05)
(-0.000622345 -0.000144875 1.2004e-05)
(7.47743e-05 9.52056e-06 3.58547e-05)
(0.000101539 4.13246e-06 -9.39993e-06)
(0.000114491 -1.33902e-06 -2.00638e-05)
(0.000121578 -1.2065e-05 -2.68307e-05)
(0.000122454 -2.47835e-05 -2.95765e-05)
(0.000117391 -3.67945e-05 -2.80589e-05)
(0.000105822 -4.59285e-05 -2.20905e-05)
(8.56165e-05 -4.84939e-05 -1.10145e-05)
(4.43836e-05 -3.95582e-05 6.29241e-06)
(-2.90602e-05 1.33361e-05 -1.86725e-05)
(-3.47906e-05 -1.17858e-05 -4.09811e-05)
(-8.37219e-05 -3.58445e-05 -3.22962e-05)
(-0.00021214 -5.46037e-05 -4.06934e-05)
(-0.000287811 -7.13987e-05 -2.96077e-05)
(-0.000364536 -8.47153e-05 -5.62014e-06)
(-0.000420912 -9.40502e-05 1.80955e-05)
(-0.000449922 -9.68239e-05 3.60174e-05)
(-0.000462871 -0.000103272 4.63901e-05)
(-0.000463798 -0.000105188 5.1878e-05)
(-0.000451463 -0.000109662 4.90662e-05)
(-0.000438989 -0.000100877 4.06551e-05)
(-0.000446136 -0.000102742 3.48341e-05)
(-0.000441057 -0.000115033 2.63883e-05)
(-0.000418571 -0.000104331 9.90221e-06)
(6.8868e-05 6.63119e-06 3.34814e-05)
(9.66711e-05 2.37001e-06 -6.86742e-06)
(0.000110303 -2.02738e-06 -1.72721e-05)
(0.000118646 -1.10833e-05 -2.44787e-05)
(0.00012275 -2.30444e-05 -2.84157e-05)
(0.000121476 -3.55579e-05 -2.84947e-05)
(0.000114433 -4.6139e-05 -2.45182e-05)
(9.95822e-05 -5.23857e-05 -1.67568e-05)
(7.18177e-05 -4.78537e-05 -4.71374e-06)
(1.56188e-05 -3.30193e-05 -8.60263e-06)
(-1.55935e-05 -8.03942e-06 -3.70909e-05)
(-4.07439e-05 -2.32696e-05 -3.80358e-05)
(-9.03824e-05 -3.71411e-05 -2.75312e-05)
(-0.000200823 -3.40807e-05 -2.70368e-05)
(-0.000253101 -4.82221e-05 -1.68239e-05)
(-0.000277383 -6.66843e-05 4.42873e-06)
(-0.000294256 -6.46786e-05 2.21819e-05)
(-0.000304858 -7.78281e-05 3.15921e-05)
(-0.000300919 -7.56211e-05 3.77121e-05)
(-0.000289642 -8.20664e-05 3.7601e-05)
(-0.000323089 -4.9409e-05 3.12919e-05)
(-0.000312568 -5.05708e-05 2.53594e-05)
(-0.000278591 -8.21244e-05 2.11779e-05)
(-0.000306183 -4.94202e-05 9.11259e-06)
(5.96439e-05 3.83585e-06 2.98817e-05)
(8.6952e-05 1.51915e-07 -4.59766e-06)
(0.000100605 -3.59208e-06 -1.3629e-05)
(0.000109651 -1.11193e-05 -2.02154e-05)
(0.000115582 -2.1134e-05 -2.4627e-05)
(0.00011826 -3.27381e-05 -2.62673e-05)
(0.000116279 -4.37256e-05 -2.46006e-05)
(0.000108102 -5.17178e-05 -1.98361e-05)
(9.03705e-05 -5.35718e-05 -1.29127e-05)
(5.5243e-05 -4.57914e-05 -9.91739e-06)
(2.21143e-05 -2.90977e-05 -1.45846e-05)
(-2.03984e-05 -4.08579e-06 -3.68026e-05)
(-4.92194e-05 -2.16577e-05 -4.45275e-05)
(-9.13351e-05 -5.15413e-05 -3.02837e-05)
(-0.000141396 -4.35612e-05 -1.3873e-05)
(-0.000171015 -4.00765e-05 1.71722e-06)
(-0.00020994 -2.63328e-05 1.13367e-05)
(-0.000180211 -5.05142e-05 1.82943e-05)
(-0.000184772 -4.21967e-05 2.39637e-05)
(-0.000150672 -5.18962e-05 1.89123e-05)
(-0.000168838 -7.28155e-05 1.42054e-05)
(-0.000184181 -5.30261e-05 1.68241e-05)
(-0.000135669 -4.69566e-05 1.32992e-05)
(-0.000140701 -7.52866e-05 3.36704e-06)
(4.9918e-05 1.94186e-06 2.63085e-05)
(7.53502e-05 -1.76629e-06 -3.21654e-06)
(8.81788e-05 -5.43334e-06 -1.05185e-05)
(9.71835e-05 -1.18997e-05 -1.57974e-05)
(0.000103952 -2.02593e-05 -1.97055e-05)
(0.000109132 -2.99831e-05 -2.19586e-05)
(0.000111681 -4.0099e-05 -2.20219e-05)
(0.000109682 -4.86135e-05 -1.98558e-05)
(0.000100548 -5.33795e-05 -1.56981e-05)
(7.97504e-05 -5.31059e-05 -1.25754e-05)
(5.17277e-05 -3.98407e-05 -1.05232e-05)
(1.22748e-05 -2.25112e-05 -1.74269e-05)
(-3.09589e-05 -6.70257e-06 -4.33494e-05)
(-4.54585e-05 -3.35328e-05 -4.91719e-05)
(-7.5792e-05 -4.75707e-05 -2.2257e-05)
(-6.03243e-05 -2.01852e-05 -7.05126e-06)
(-9.29931e-05 -5.93881e-05 -2.0436e-06)
(-5.75698e-05 -2.05953e-05 7.44186e-06)
(-6.76782e-05 -3.77899e-05 8.72277e-06)
(-3.90529e-05 -1.81353e-05 1.30027e-06)
(-7.42487e-05 -6.71929e-05 4.29251e-06)
(-8.84098e-05 -8.28832e-05 1.37827e-05)
(-3.53244e-05 -2.34778e-05 2.08599e-06)
(-4.8355e-05 -5.99923e-05 2.32555e-06)
(4.02232e-05 9.24035e-07 2.27008e-05)
(6.31303e-05 -3.11163e-06 -2.7282e-06)
(7.46934e-05 -7.14727e-06 -8.40364e-06)
(8.32253e-05 -1.31638e-05 -1.22145e-05)
(9.02885e-05 -2.04469e-05 -1.5039e-05)
(9.66955e-05 -2.84811e-05 -1.69856e-05)
(0.000102318 -3.69357e-05 -1.7817e-05)
(0.000105046 -4.47067e-05 -1.73438e-05)
(0.000102838 -5.05964e-05 -1.56685e-05)
(9.20566e-05 -5.32034e-05 -1.34734e-05)
(7.24352e-05 -4.87683e-05 -1.1859e-05)
(3.95636e-05 -3.41524e-05 -1.25736e-05)
(9.94888e-06 -2.49416e-05 -1.50094e-05)
(-2.98679e-05 2.18761e-05 -4.30894e-05)
(-3.04561e-05 -6.91214e-06 -3.95315e-05)
(-3.10361e-05 -1.90764e-05 -1.96906e-05)
(-3.52856e-05 -4.11803e-05 -1.0171e-05)
(-1.73326e-05 -1.89747e-05 1.72636e-06)
(-2.5199e-05 -3.76609e-05 5.83573e-06)
(-7.20896e-06 -1.42925e-05 3.78293e-06)
(-1.95877e-05 -6.26956e-06 1.42112e-06)
(-2.33401e-05 -3.01658e-05 9.61374e-06)
(-9.05419e-06 -2.43013e-05 9.84872e-06)
(-3.1657e-05 1.73887e-05 6.06372e-06)
(3.22095e-05 1.94042e-07 1.93129e-05)
(5.22303e-05 -4.35355e-06 -2.75589e-06)
(6.23097e-05 -8.96201e-06 -7.05931e-06)
(7.01008e-05 -1.49144e-05 -9.54772e-06)
(7.70798e-05 -2.15924e-05 -1.12144e-05)
(8.4004e-05 -2.84854e-05 -1.24464e-05)
(9.08439e-05 -3.52196e-05 -1.33162e-05)
(9.64722e-05 -4.16772e-05 -1.37182e-05)
(9.88622e-05 -4.71254e-05 -1.35834e-05)
(9.55968e-05 -5.11784e-05 -1.32118e-05)
(8.41722e-05 -5.09782e-05 -1.27034e-05)
(6.11181e-05 -4.45924e-05 -1.46062e-05)
(3.26236e-05 -3.1167e-05 -1.68588e-05)
(-7.13346e-06 -2.18912e-05 -1.98088e-05)
(-2.03361e-05 1.66956e-05 -3.64374e-05)
(-5.44318e-06 -5.80178e-06 -2.72731e-05)
(-2.43687e-05 2.64887e-05 -1.76067e-05)