/*--------------------------------*- C++ -*----------------------------------*\
  =========                 |
  \\      /  F ield         | OpenFOAM: The Open Source CFD Toolbox
   \\    /   O peration     | Website:  https://openfoam.org
    \\  /    A nd           | Version:  6
     \\/     M anipulation  |
\*---------------------------------------------------------------------------*/
FoamFile
{
    version     2.0;
    format      ascii;
    class       volScalarField;
    location    "48";
    object      yPlus;
}
// * * * * * * * * * * * * * * * * * * * * * * * * * * * * * * * * * * * * * //

dimensions      [0 0 0 0 0 0 0];

internalField   uniform 0;

boundaryField
{
    inlet
    {
        type            calculated;
        value           uniform 0;
    }
    outlet
    {
        type            calculated;
        value           uniform 0;
    }
    roughCylinder
    {
        type            calculated;
        value           nonuniform List<scalar> 
3840
(
45.8549
54.2755
62.2027
69.2291
74.5621
78.5334
81.5634
83.9721
86.0363
87.854
89.5044
91.0505
92.5632
94.1118
95.7496
97.508
99.3939
101.396
103.494
105.655
107.834
109.953
111.823
113.055
45.0691
53.209
60.9152
67.8358
73.131
77.0851
80.1124
82.5319
84.6011
86.4073
88.0347
89.5525
91.0337
92.5477
94.1497
95.8693
97.7138
99.6723
101.723
103.834
105.963
108.031
109.855
111.055
44.2038
52.1008
59.5994
66.4136
71.6777
75.6282
78.6684
81.1082
83.1855
84.9848
86.594
88.0864
89.5373
91.019
92.5848
94.2663
96.0703
97.9857
99.9903
102.053
104.131
106.148
107.925
109.094
43.3294
50.9749
58.2705
64.9793
70.216
74.1694
77.2319
79.7014
81.7933
83.5949
85.1876
86.657
88.0814
89.5316
91.0647
92.7101
94.4744
96.3471
98.3059
100.32
102.348
104.316
106.048
107.185
42.3761
49.7981
56.891
63.4973
68.7225
72.701
75.8044
78.3118
80.424
82.2315
83.8155
85.2673
86.6665
88.0898
89.5902
91.2004
92.9272
94.7591
96.6744
98.6418
100.621
102.54
104.227
105.333
41.4795
48.6206
55.4998
62.0029
67.2222
71.2299
74.3759
76.9278
79.0676
80.8905
82.4735
83.9113
85.2918
86.6887
88.1616
89.7398
91.4301
93.222
95.0932
97.0136
98.946
100.817
102.46
103.535
40.4503
47.3631
54.0244
60.4278
65.6623
69.7297
72.9446
75.5516
77.7265
79.5669
81.1605
82.5922
83.9557
85.3329
86.7778
88.3248
89.9811
91.7353
93.5658
95.4428
97.3263
99.1509
100.75
101.796
39.5636
46.1308
52.5413
58.8335
64.088
68.2177
71.4958
74.1637
76.3824
78.2564
79.8649
81.2993
82.6563
84.0148
85.4387
86.9589
88.5824
90.2993
92.088
93.9186
95.7579
97.5353
99.0923
100.107
38.4203
44.748
50.9092
57.0949
62.3939
66.6288
70.0176
72.7675
75.0441
76.9512
78.5873
80.0356
81.389
82.7388
84.1413
85.6345
87.2279
88.91
90.6607
92.4494
94.2412
95.9738
97.4885
98.4741
37.5295
43.427
49.2683
55.3128
60.659
65.0072
68.493
71.3324
73.676
75.6434
77.3141
78.7813
80.1463
81.4901
82.8802
84.3538
85.9182
87.5653
89.2748
91.0177
92.7651
94.4512
95.923
96.8779
36.182
41.8421
47.3873
53.2884
58.7019
63.217
66.8864
69.8577
72.2995
74.3228
76.0428
77.5451
78.9213
80.2705
81.649
83.1001
84.6381
86.2525
87.9248
89.6265
91.3271
92.9684
94.3989
95.3246
35.1365
40.344
45.4723
51.1587
56.6291
61.347
65.1843
68.3051
70.8514
72.9744
74.7574
76.2987
77.7065
79.0607
80.4371
81.8786
83.3921
84.9734
86.6053
88.2599
89.9148
91.5105
92.8967
93.7911
33.8029
38.5918
43.2265
48.6527
54.1947
59.1431
63.2922
66.6384
69.3636
71.5842
73.449
75.0547
76.492
77.8701
79.2467
80.6688
82.16
83.7113
85.3068
86.9199
88.5307
90.0788
91.4252
92.2886
32.4081
36.8321
40.9021
45.8786
51.3832
56.7204
61.2001
64.8415
67.7421
70.1269
72.0982
73.771
75.2677
76.6652
78.051
79.4779
80.9507
82.4705
84.0255
85.5898
87.1482
88.6551
89.9522
90.7834
30.4394
34.4934
37.9618
42.5473
48.1401
53.67
58.6907
62.7332
65.9915
68.5685
70.6823
72.4658
74.0164
75.4642
76.8677
78.2773
79.7316
81.2239
82.7423
84.264
85.7833
87.2339
88.4928
89.2912
28.3358
32.207
34.9715
38.5052
43.5236
49.9874
55.6861
60.4212
64.017
66.8818
69.1787
71.0733
72.7271
74.213
75.6401
77.0744
78.5181
79.9801
81.4564
82.9237
84.3787
85.7958
86.9961
87.7589
24.7745
28.3707
30.4067
33.6124
39.1145
44.9218
51.7894
57.262
61.6619
64.9516
67.5274
69.6211
71.3649
72.9412
74.4102
75.8296
77.2584
78.6948
80.133
81.5565
82.9795
84.3228
85.4885
86.2148
20.9819
25.2571
26.8116
27.3356
28.8086
38.8639
46.3324
53.754
58.8888
62.7806
65.7036
67.9934
69.9214
71.5651
73.0804
74.5503
75.9784
77.3845
78.776
80.1327
81.4728
82.7933
83.8843
84.5688
7.8056
15.7643
16.4391
21.3041
25.8726
23.3012
39.0617
47.6905
55.1258
59.999
63.5486
66.2364
68.3196
70.1223
71.7125
73.1743
74.5922
75.9735
77.3235
78.6341
79.9472
81.1707
82.2304
82.872
7.08463
13.1708
18.3353
19.4371
21.1985
17.7851
22.4569
41.5723
50.0517
56.72
61.0282
64.1108
66.5565
68.4821
70.167
71.7146
73.1433
74.4922
75.7848
77.0046
78.2114
79.4191
80.3735
80.9633
14.369
16.9964
17.4189
18.9462
10.6829
11.4918
22.9331
20.9052
43.5095
51.7158
57.7048
61.7109
64.4557
66.6843
68.4929
70.0488
71.478
72.8014
74.0443
75.2135
76.3871
77.4724
78.4068
78.9339
23.379
26.433
27.4729
26.627
23.9809
16.1772
7.67523
5.30595
25.2312
46.01
53.5428
58.4644
62.0228
64.4931
66.5134
68.2194
69.6725
70.956
72.1194
73.1465
74.1875
75.2489
76.0073
76.4761
25.714
29.6621
32.1909
33.6808
33.7655
31.8774
25.1885
20.5898
18.5681
31.1803
47.1524
54.6114
58.8205
61.9574
64.1911
65.9377
67.4169
68.6712
69.7667
70.7352
71.7177
72.6312
73.4028
73.7515
26.8871
30.9683
33.773
35.828
36.9395
36.9461
35.2736
28.8662
25.8143
24.2397
37.7829
48.5702
54.9235
58.5495
61.2937
63.3442
64.8668
66.0597
67.0213
67.722
68.5189
69.3755
69.7984
70.0832
26.7897
31.0422
33.9874
36.2882
37.8092
38.4923
38.2119
36.0327
30.1563
30.3095
23.3734
41.4831
49.0403
54.4165
57.5739
59.6871
61.2958
62.4342
63.296
63.9218
64.6882
65.357
65.8332
65.9068
24.8503
29.4308
32.6263
35.2364
37.1348
38.3043
38.7484
38.1616
34.6635
34.6712
24.0038
24.1992
41.9636
48.1679
52.5535
55.4777
57.1462
58.1567
58.6994
58.694
59.0237
59.5857
59.267
59.2314
21.9315
26.903
30.3224
33.1921
35.4298
37.0511
38.1563
38.7638
38.2292
33.5948
28.7773
23.9178
25.7572
40.3033
46.2049
48.3649
50.4369
51.0217
51.6378
51.378
53.1005
53.3525
52.2724
52.8741
18.8301
24.0277
27.4909
30.4516
32.8929
34.8754
36.5163
37.9336
38.962
38.2982
32.9012
28.154
27.4533
27.5866
33.6459
41.0922
42.8422
43.5094
42.4304
40.4242
38.5449
39.2127
37.5567
35.6945
16.141
21.2738
24.558
27.4081
29.8782
32.0738
34.1239
36.1545
38.1191
39.4477
38.9199
30.9988
29.3892
33.5753
31.8923
21.431
29.0845
19.9664
24.6494
16.5213
37.286
37.9613
17.7229
36.622
13.6885
18.6575
21.691
24.353
26.7569
29.038
31.328
33.7395
36.3081
38.7222
40.1789
38.2881
29.888
34.7139
34.1259
22.8549
34.801
14.942
31.8069
6.65773
41.4811
44.2749
24.6986
41.4176
11.9043
16.5778
19.3056
21.7261
23.9935
26.2458
28.5972
31.1439
33.9549
36.9337
39.5475
40.4718
38.1364
29.6466
33.9517
25.8718
36.3831
25.6102
34.8375
31.4629
38.2724
43.1858
31.353
27.4137
10.8577
15.1955
17.6534
19.8587
21.9789
24.1292
26.3907
28.8441
31.5796
34.6415
37.805
40.1742
40.6166
37.5413
32.7335
30.9549
27.6683
32.9409
33.944
38.7744
32.7771
34.2315
40.1647
37.1013
10.3847
14.5647
16.8415
18.9058
20.9119
22.9343
25.0194
27.2314
29.6688
32.4471
35.5797
38.632
40.5903
40.4829
38.0334
37.2867
36.8675
40.886
41.5287
43.487
39.6594
40.6995
43.5266
42.5758
10.4711
14.5556
16.7606
18.7753
20.7216
22.6342
24.532
26.4664
28.5295
30.8487
33.5501
36.5617
39.2988
40.7521
40.3862
40.2163
40.7076
42.7636
43.1968
43.8408
41.7073
42.4448
43.7783
43.3277
10.8948
14.9889
17.2185
19.2592
21.1977
23.0392
24.7877
26.4858
28.2125
30.0763
32.2173
34.7396
37.48
39.7694
40.7034
41.139
41.7408
42.9123
43.1029
43.0812
41.7153
42.0485
42.9173
42.4685
11.5267
15.7187
18.0206
20.1322
22.1056
23.9224
25.5786
27.1126
28.5912
30.0971
31.7424
33.6637
35.9223
38.2599
39.9143
40.9662
41.5917
42.1711
42.0279
41.4999
40.512
40.4971
41.217
40.7377
12.3815
16.6689
19.0544
21.2508
23.2758
25.0968
26.7096
28.1521
29.4796
30.7488
32.0351
33.451
35.1147
37.0188
38.7403
40.0588
40.6891
40.9042
40.4709
39.6279
38.8336
38.6056
39.3089
38.9415
13.4235
17.7682
20.2432
22.5274
24.609
26.4492
28.0502
29.4539
30.7075
31.8468
32.9128
33.9781
35.1471
36.4989
37.8751
39.0643
39.6083
39.5903
38.9566
37.9689
37.2778
36.9926
37.7229
37.5906
14.524
18.9563
21.5285
23.9013
26.0416
27.911
29.5219
30.9218
32.1532
33.2374
34.1913
35.0511
35.8837
36.772
37.6873
38.5152
38.8544
38.6437
37.875
36.8441
36.2058
35.9721
36.7528
36.896
15.641
20.1891
22.8683
25.332
27.5332
29.4389
31.0742
32.493
33.7341
34.8094
35.7213
36.4812
37.1202
37.6919
38.2108
38.6349
38.6956
38.286
37.4059
36.3665
35.7529
35.6225
36.4631
36.859
16.3742
16.8183
17.2795
17.6249
17.9408
18.1743
18.3748
18.5153
18.6226
18.6867
18.722
18.7227
18.6964
18.6411
18.5603
18.4556
18.3307
18.1904
18.0478
17.9428
17.9948
18.1431
18.3048
18.4565
18.5895
18.7013
18.7876
18.8476
18.8784
18.8812
18.8492
18.788
18.6813
18.5389
18.3352
18.0945
17.7689
17.4101
16.9329
16.4712
21.0387
21.4711
21.9414
22.3039
22.6462
22.9147
23.1531
23.3382
23.4912
23.6041
23.6884
23.7393
23.7612
23.7517
23.7115
23.641
23.5425
23.4196
23.2843
23.1784
23.2318
23.3807
23.5332
23.6657
23.771
23.8473
23.8917
23.9051
23.8872
23.8394
23.7583
23.6474
23.4939
23.3062
23.0636
22.7873
22.4347
22.0582
21.5717
21.1204
23.7941
24.2479
24.7546
25.1524
25.5405
25.8594
26.1531
26.3988
26.6155
26.7939
26.9444
27.0629
27.1515
27.2072
27.2286
27.2143
27.1653
27.0847
26.9845
26.9053
26.9503
27.0717
27.1893
27.2795
27.3352
27.355
27.3383
27.2873
27.2035
27.0896
26.9435
26.7674
26.5511
26.3045
26.0077
25.6821
25.2847
24.8735
24.3511
23.8778
26.3041
26.766
27.2942
27.713
28.1316
28.4853
28.8188
29.1095
29.3766
29.61
29.8167
29.9926
30.1378
30.2487
30.3229
30.358
30.3538
30.3136
30.2504
30.2022
30.2365
30.3252
30.4068
30.4567
30.4675
30.438
30.3687
30.263
30.1232
29.9529
29.7514
29.5221
29.2579
28.969
28.6339
28.2755
27.8494
27.4187
26.876
26.3951
28.5244
28.9719
29.5001
29.9202
30.3496
30.7212
31.0814
31.4056
31.7102
31.9859
32.2366
32.4578
32.648
32.8029
32.9193
32.9937
33.0254
33.0175
32.9825
32.9547
32.9826
33.0474
33.1003
33.1178
33.0922
33.0228
32.9112
32.7614
32.5767
32.3613
32.1163
31.8462
31.5462
31.2257
30.8671
30.4942
30.0598
29.6299
29.0887
28.6232
30.4375
30.8581
31.3778
31.7938
32.2315
32.6202
33.0031
33.3565
33.6936
34.0053
34.2938
34.5536
34.7819
34.9738
35.1251
35.2317
35.2919
35.3083
35.2929
35.2769
35.3013
35.3511
35.3829
35.3749
35.3198
35.2172
35.07
34.8826
34.6593
34.4053
34.1228
33.817
33.4856
33.1372
32.7576
32.37
31.9308
31.5077
30.9769
30.5398
32.0827
32.4775
32.9926
33.4116
33.8595
34.266
34.6704
35.0501
35.4159
35.7587
36.0792
36.3715
36.6316
36.854
37.0335
37.1655
37.2475
37.2814
37.2785
37.2689
37.2914
37.3322
37.3495
37.3225
37.2442
37.115
36.9384
36.7197
36.4639
36.1768
35.8622
35.5253
35.1656
34.7915
34.3913
33.9877
33.5396
33.1169
32.5931
32.1836
33.5193
33.892
34.4071
34.8304
35.2885
35.7108
36.134
36.5358
36.9253
37.2936
37.64
37.9583
38.2435
38.4897
38.6909
38.8421
38.9399
38.986
38.9912
38.985
39.0063
39.0414
39.0487
39.0076
38.9118
38.7621
38.5626
38.319
38.0372
37.7236
37.3825
37.0201
36.6367
36.2407
35.8226
35.4037
34.9465
34.5207
33.9989
33.6126
34.7797
35.1309
35.6445
36.0713
36.5377
36.9729
37.4109
37.8305
38.2388
38.627
38.9935
39.3317
39.636
39.9001
40.1177
40.2831
40.393
40.4486
40.4604
40.4573
40.4771
40.5067
40.5054
40.4531
40.3438
40.1783
39.9613
39.6987
39.3969
39.0626
38.7009
38.3182
37.9159
37.5024
37.0695
36.6382
36.1734
35.745
35.2252
34.8616
35.87
36.196
36.7052
37.1335
37.606
38.0518
38.502
38.936
39.3593
39.7632
40.1452
40.4984
40.8173
41.0948
41.3247
41.5014
41.6214
41.6862
41.7063
41.7085
41.7258
41.7471
41.7359
41.673
41.5522
41.3742
41.1435
40.8662
40.549
40.1987
39.8209
39.4222
39.0048
38.5767
38.1319
37.6903
37.2198
36.7903
36.2749
35.9364
36.7851
37.0788
37.5795
38.0078
38.4853
38.9407
39.4018
39.8485
40.2846
40.7016
41.0961
41.4614
41.7915
42.0795
42.3193
42.5055
42.6352
42.7102
42.7409
42.7501
42.7641
42.7744
42.7511
42.6768
42.545
42.3562
42.1144
41.8255
41.496
41.1328
40.7419
40.3297
39.8992
39.4584
39.0028
38.5519
38.0764
37.647
37.1396
36.8318
37.5187
37.7692
38.2548
38.6812
39.1629
39.628
40.1001
40.5593
41.0077
41.4366
41.8423
42.218
42.5576
42.8545
43.1028
43.2977
43.4371
43.5231
43.5652
43.5817
43.5922
43.5905
43.5537
43.4672
43.3245
43.1257
42.8741
42.5751
42.2351
41.8609
41.4581
41.0336
40.5907
40.1375
39.6709
39.2105
38.7307
38.3031
37.809
37.5445
38.0712
38.2538
38.7142
39.1346
39.6192
40.0942
40.5783
41.0507
41.5117
41.9528
42.3695
42.755
43.1034
43.4085
43.6647
43.868
44.0166
44.1131
44.1656
44.1883
44.1954
44.1827
44.1329
44.034
43.8807
43.6722
43.4113
43.1031
42.7532
42.3683
41.9541
41.5173
41.0616
40.5955
40.1173
39.6473
39.1645
38.7418
38.2728
38.0792
38.4519
38.5214
38.932
39.3405
39.8243
40.3089
40.805
41.2916
41.7665
42.2205
42.6487
43.0445
43.4018
43.7149
43.979
44.1901
44.3474
44.4531
44.5141
44.5412
44.5455
44.5234
44.4619
44.3517
44.1879
43.9699
43.6999
43.3822
43.0226
42.6268
42.2008
41.7509
41.2818
40.8018
40.3121
39.8328
39.3504
38.9409
38.5268
38.4562
38.6654
38.5657
38.8859
39.2637
39.7416
40.2329
40.7404
41.2412
41.7305
42.1983
42.639
43.0458
43.4128
43.7346
44.0064
44.2253
44.3903
44.5038
44.5713
44.6015
44.6031
44.5734
44.5018
44.3813
44.2076
43.9801
43.7006
43.3732
43.003
42.5957
42.157
41.6934
41.2103
40.7165
40.2156
39.7292
39.2543
38.8814
38.5693
38.6877
38.7209
38.3924
38.5704
38.8827
39.3365
39.83
40.3454
40.8591
41.3621
41.8439
42.2974
42.7158
43.093
43.4237
43.7035
43.9298
44.1018
44.2214
44.2939
44.3261
44.3254
44.2893
44.2094
44.0797
43.8967
43.6597
43.3707
43.0331
42.6519
42.2326
41.7813
41.3042
40.8079
40.3017
39.7928
39.305
38.8582
38.5581
38.4003
38.7664
38.5443
37.9771
37.9871
38.2046
38.6109
39.0915
39.6098
40.1313
40.6446
41.1375
41.602
42.0304
42.4167
42.7554
43.0423
43.2746
43.4519
43.576
43.6515
43.6847
43.6819
43.641
43.5546
43.4174
43.2264
42.981
42.6831
42.3362
41.9451
41.5154
41.0529
40.565
40.0581
39.5437
39.0297
38.5538
38.1539
37.947
37.9518
38.5452
37.9861
37.2588
37.1408
37.2693
37.6208
38.0752
38.5853
39.1066
39.6226
40.1198
40.5893
41.0227
41.4136
41.756
42.0461
42.281
42.46
42.5851
42.6609
42.6937
42.6892
42.6454
42.5551
42.4135
42.2176
41.9669
41.6632
41.3103
40.9129
40.4766
40.0076
39.5129
39.0002
38.4793
37.9696
37.5174
37.1696
37.0499
37.1832
37.9412
37.0949
36.2773
36.0897
36.1616
36.4729
36.9019
37.3989
37.9154
38.4275
38.9223
39.3894
39.8207
40.2091
40.5489
40.8357
41.0667
41.2414
41.3621
41.4337
41.4635
41.4576
41.4135
41.3236
41.1822
40.9861
40.7349
40.4306
40.0767
39.6781
39.2405
38.7703
38.2742
37.7603
37.2401
36.7403
36.3108
36.0014
35.9363
36.1351
36.9701
35.9882
35.2058
35.0353
35.1073
35.4107
35.8286
36.3152
36.8224
37.3251
37.8103
38.2674
38.6883
39.066
39.3945
39.6695
39.8881
40.05
40.1581
40.2189
40.2423
40.2361
40.1967
40.114
39.9805
39.7921
39.5485
39.2517
38.9055
38.5148
38.0855
37.6238
37.1372
36.6332
36.1268
35.6451
35.2382
34.9518
34.9074
35.1109
35.94
35.3902
34.6666
34.5249
34.5963
34.8853
35.2788
35.7369
36.2148
36.6917
37.1523
37.5862
37.9844
38.3397
38.646
38.8987
39.0946
39.2332
39.3178
39.3574
39.3678
39.3625
39.3347
39.2674
39.1494
38.9759
38.7469
38.4645
38.1331
37.7576
37.344
36.8992
36.4306
35.9476
35.4633
35.004
34.6189
34.3511
34.3197
34.5236
35.3446
35.6777
34.9442
34.7943
34.8448
35.1049
35.4619
35.8794
36.3178
36.7586
37.1853
37.5867
37.9536
38.2787
38.5557
38.7799
38.9481
39.0587
39.1143
39.1256
39.1177
39.1182
39.1111
39.0665
38.9702
38.8183
38.6112
38.3523
38.0455
37.6963
37.3107
36.8955
36.4585
36.0093
35.5611
35.132
34.7652
34.4978
34.443
34.5909
35.3236
36.3024
35.718
35.6581
35.7393
35.9961
36.3237
36.702
37.0975
37.494
37.8767
38.2352
38.5608
38.8465
39.0868
39.2766
39.4125
39.4927
39.5186
39.4994
39.4662
39.4675
39.4762
39.4487
39.37
39.2373
39.0517
38.8169
38.5373
38.2179
37.865
37.4854
37.0878
36.6819
36.2828
35.9064
35.5878
35.3574
35.3288
35.4798
36.2072
37.2346
36.5879
36.4848
36.529
36.7534
37.0526
37.4063
37.779
38.154
38.5157
38.8537
39.1595
39.4263
39.6486
39.822
39.943
40.0098
40.0237
39.994
39.9541
39.9611
39.9807
39.9649
39.8998
39.7827
39.6152
39.4007
39.1436
38.8489
38.5223
38.1705
37.8013
37.4243
37.0527
36.7011
36.4005
36.1696
36.1127
36.193
36.7967
45.8337
54.2343
62.1518
69.1717
74.501
78.4705
81.4996
83.908
85.9717
87.789
89.4392
90.9853
92.498
94.0468
95.6852
97.4443
99.3313
101.335
103.434
105.597
107.775
109.895
111.755
112.997
45.0296
53.1588
60.8578
67.7736
73.0666
77.0202
80.0475
82.4666
84.5354
86.3413
87.9684
89.4858
90.9671
92.4814
94.0839
95.8046
97.6501
99.61
101.662
103.776
105.902
107.973
109.785
110.996
44.1657
52.0539
59.5455
66.354
71.6138
75.5616
78.6007
81.0402
83.1173
84.9163
86.5255
88.0181
89.4693
90.9514
92.518
94.2003
96.0056
97.9222
99.928
101.993
104.069
106.089
107.855
109.034
43.2735
50.9149
58.2056
64.911
70.1463
74.1004
77.1638
79.6332
81.7246
83.5259
85.1183
86.5875
88.0119
89.4627
90.9965
92.643
94.4085
96.2828
98.2429
100.26
102.286
104.256
105.975
107.124
42.3267
49.7439
56.833
63.4356
68.6565
72.6309
75.7319
78.239
80.3513
82.1591
83.7435
85.1958
86.5957
88.0196
89.5211
91.1322
92.8605
94.694
96.6102
98.5811
100.558
102.479
104.152
105.271
41.4057
48.5462
55.4228
61.9243
67.144
71.1549
74.3041
76.8566
78.9961
80.8186
82.4013
83.839
85.2196
86.6171
88.0908
89.6706
91.3623
93.156
95.0291
96.953
98.8818
100.755
102.382
103.472
40.3936
47.3044
53.964
60.3658
65.5961
69.657
72.8667
75.4727
77.6482
79.4896
81.0844
82.5171
83.8819
85.2601
86.7064
88.2544
89.9125
91.6684
93.5004
95.3809
97.263
99.0888
100.672
101.732
39.4792
46.0451
52.4507
58.74
63.9962
68.133
71.4184
74.0886
76.3075
78.1814
79.7895
81.224
82.5811
83.9403
85.3652
86.8876
88.5128
90.2317
92.0223
93.8576
95.6925
97.4728
99.0102
100.043
38.3641
44.6904
50.8508
57.036
62.3309
66.5557
69.9345
72.682
74.9591
76.8675
78.506
79.9559
81.3113
82.663
84.0675
85.562
87.1574
88.8414
90.5931
92.3875
94.1775
95.9103
97.4052
98.4082
37.4422
43.3331
49.1633
55.1999
60.5466
64.9066
68.406
71.2505
73.5956
75.5643
77.2347
78.7023
80.0678
81.4124
82.8038
84.2802
85.8466
87.496
89.2075
90.9569
92.6986
94.3876
95.8347
96.8118
36.1195
41.7801
47.3271
53.2309
58.642
63.1443
66.7989
69.7663
72.2086
74.2319
75.9546
77.4595
78.8384
80.1905
81.572
83.025
84.5656
86.1821
87.8556
89.5647
91.2634
92.9042
94.3101
95.2571
35.049
40.2452
45.3557
51.0283
56.4964
61.2273
65.0822
68.2101
70.7598
72.8879
74.6731
76.2148
77.6236
78.9793
80.3574
81.8022
83.3184
84.9023
86.5361
88.1991
89.8475
91.4464
92.8002
93.7229
33.7217
38.5141
43.1509
48.5784
54.1174
59.0583
63.1985
66.5445
69.2702
71.4871
73.351
74.9605
76.4017
77.784
79.1649
80.5905
82.0853
83.6387
85.2352
86.8596
88.4672
90.0143
91.3282
92.2195
32.3192
36.7325
40.7855
45.753
51.2613
56.6001
61.08
64.7206
67.6269
70.0247
72.0064
73.6804
75.1785
76.5787
77.9679
79.3984
80.8745
82.397
83.9537
85.53
87.0812
88.5892
89.8442
90.7129
30.3317
34.3928
37.8518
42.4069
47.9779
53.5183
58.5786
62.6481
65.9086
68.4711
70.5717
72.3584
73.9156
75.3692
76.7784
78.1945
79.6541
81.1483
82.6676
84.2058
85.7195
87.169
88.3832
89.2196
28.2273
32.0857
34.8494
38.4359
43.4624
49.9356
55.5569
60.2467
63.8482
66.7456
69.073
70.9729
72.6276
74.1191
75.5528
76.9912
78.4389
79.9033
81.3807
82.8665
84.3161
85.7272
86.8732
87.6856
24.659
28.3063
30.3559
33.4629
39.1467
44.6398
51.6375
57.2197
61.6267
64.8698
67.4017
69.4924
71.2487
72.8334
74.3104
75.7405
77.1773
78.6148
80.0541
81.5012
82.9125
84.2588
85.3593
86.1403
20.7041
25.0026
26.487
27.1608
27.4276
38.5621
46.1606
53.4671
58.6061
62.5735
65.5677
67.8763
69.804
71.4585
72.9857
74.4621
75.8962
77.303
78.6925
80.0813
81.4206
82.7206
83.7391
84.4922
6.96066
15.5347
17.009
17.5429
15.3651
23.4108
39.2439
47.8683
55.2234
59.9655
63.4042
66.0688
68.1772
69.995
71.6
73.0766
74.5063
75.8862
77.2401
78.5836
79.8754
81.1098
82.0704
82.7931
8.241
12.5967
17.6976
18.7287
18.4834
13.7232
21.0256
41.1288
49.6544
56.3809
60.8158
63.9583
66.4052
68.3531
70.0558
71.6187
73.0591
74.4036
75.6806
76.9642
78.1775
79.336
80.1932
80.8839
15.0326
17.3468
17.2299
18.4405
19.3797
5.86217
22.7944
22.3135
43.6321
51.7821
57.5405
61.4569
64.2594
66.5223
68.3684
69.9408
71.3855
72.7008
73.967
75.1736
76.3146
77.4254
78.1964
78.8488
22.8224
25.9732
26.9946
26.1882
23.9637
17.8326
11.6505
11.9893
26.5242
45.2899
53.03
58.2134
61.8017
64.3222
66.3628
68.1098
69.5903
70.8544
71.9477
73.1277
74.1833
75.1342
75.7628
76.3932
25.5587
29.526
31.8891
33.2305
33.1849
31.3381
25.1282
22.0049
23.7778
32.572
47.1069
54.111
58.4834
61.7155
64.061
65.8174
67.3164
68.5489
69.7519
70.7216
71.6547
72.6273
73.1078
73.6541
26.3238
30.4854
33.2795
35.2511
36.3348
36.3932
34.7093
27.8259
28.5671
23.8402
35.5022
47.9808
54.5429
58.2946
61.0427
63.2059
64.7991
65.9193
66.6216
67.7537
68.5817
69.169
69.406
69.9921
25.9412
30.221
33.1464
35.4351
36.9971
37.8177
37.8171
36.231
29.5869
28.5012
20.5864
39.7201
48.2933
53.9084
57.4493
59.559
61.1838
62.297
63.5688
63.9799
64.6031
65.4287
65.4141
65.7295
23.8067
28.423
31.6048
34.216
36.1538
37.4253
38.0589
37.8134
34.7248
35.5558
26.8288
23.2032
41.5795
47.7751
52.0232
55.2561
57.135
57.849
57.5226
58.8804
59.2979
59.0814
58.4315
59.0062
20.8857
25.8691
29.2545
32.1064
34.3563
36.0267
37.2138
37.9229
37.5576
33.6917
31.8397
27.4139
24.3263
37.9131
45.5811
48.2594
50.107
51.1366
53.3109
51.6275
51.9439
52.7569
52.2367
51.4365
17.9307
23.0863
26.4788
29.3872
31.8047
33.7916
35.4628
36.9157
37.9318
37.3565
33.4324
29.1815
28.2916
26.5599
34.2037
40.8432
43.0205
42.0498
40.0862
41.5796
40.9382
38.9347
34.934
33.54
15.3746
20.4333
23.6341
26.4173
28.8399
31.002
33.0232
35.02
36.9088
38.1049
37.3745
28.9296
34.2315
23.1267
11.6139
21.2073
23.9093
26.6014
25.0418
18.7318
21.2958
19.7291
22.9185
14.3513
13.1128
17.9848
20.9303
23.5178
25.8607
28.0863
30.3125
32.6456
35.0975
37.3528
38.5296
36.2857
27.9876
25.5078
9.08862
9.06788
29.9654
10.5729
31.7902
33.9438
26.7034
26.3717
34.0553
18.1476
11.5365
16.1015
18.7553
21.1103
23.3197
25.5122
27.7866
30.2276
32.8973
35.7128
38.1291
38.9964
35.0012
31.1144
25.1628
28.8668
18.418
29.9917
16.5159
30.071
36.5558
30.104
31.6041
34.2209
10.6355
14.9084
17.3145
19.4752
21.5526
23.6528
25.8445
28.1968
30.7955
33.7017
36.7289
39.118
39.2475
38.3077
34.6359
30.6832
29.0539
30.3599
29.5981
37.3242
36.3746
37.6732
38.0763
43.9406
10.269
14.4131
16.6668
18.7105
20.6924
22.6802
24.7136
26.8491
29.1845
31.8463
34.8817
37.984
39.9843
40.7694
39.8071
36.9381
37.9463
36.8351
39.5254
42.5631
41.3437
42.3298
42.1459
45.6525
10.4175
14.4879
16.6891
18.6988
20.6344
22.5263
24.3925
26.2816
28.2845
30.5356
33.1835
36.2392
39.1002
40.9412
41.1727
40.1264
40.9404
40.1285
42.3125
43.2564
42.0845
42.9902
42.6744
45.138
10.8734
14.9622
17.1958
19.2378
21.1725
23.0051
24.7395
26.4172
28.1165
29.9499
32.0705
34.6266
37.4636
39.8928
41.0538
41.1277
41.7593
41.2794
42.8316
42.7645
41.5
42.3677
41.8045
43.7055
11.5302
15.7112
18.0163
20.1281
22.0977
23.91
25.5624
27.0924
28.5651
30.0653
31.7104
33.656
35.9655
38.3251
39.9823
40.8553
41.5411
41.2668
42.0063
41.3709
40.0772
40.7933
40.1065
41.736
12.3589
16.6613
19.0504
21.2435
23.2627
25.0798
26.6923
28.1384
29.4713
30.7485
32.0463
33.4811
35.1649
37.0415
38.6666
39.8584
40.6158
40.4281
40.5385
39.573
38.3751
38.9273
38.364
39.782
13.4012
17.754
20.2275
22.5047
24.5785
26.4144
28.0162
29.4262
30.6897
31.8429
32.9262
34.0097
35.1878
36.5036
37.7719
38.8577
39.5333
39.3619
39.0443
37.9312
36.9158
37.3274
37.056
38.2907
14.4742
18.9204
21.4913
23.8564
25.9883
27.8533
29.465
30.872
32.1147
33.2148
34.1883
35.0672
35.9092
36.7726
37.6073
38.3585
38.797
38.5566
37.9696
36.8207
35.986
36.314
36.3848
37.4781
15.5694
20.1315
22.8081
25.2634
27.4559
29.3573
30.9936
32.4197
33.6721
34.7636
35.6957
36.476
37.1286
37.6911
38.1634
38.5393
38.6666
38.2813
37.5136
36.3741
35.6765
35.9721
36.3556
37.3573
45.8667
44.2725
43.4113
41.6933
40.7142
39.203
38.218
36.6864
35.7152
34.357
33.3973
32.1707
31.2372
30.3304
29.4047
28.5178
27.9141
27.3777
26.9855
26.5616
26.5655
27.0004
27.3821
27.8887
28.6196
29.4999
30.4086
31.2924
32.2494
33.4362
34.4062
35.7838
36.738
38.2306
39.2957
40.8465
41.8082
43.4039
44.2084
45.8717
54.4605
52.9971
52.2096
50.7338
49.7819
48.5097
47.5716
46.2701
45.4201
44.2483
43.3274
42.359
41.5643
40.8046
39.9645
39.3348
38.7565
38.3142
38.0939
37.8176
37.8206
38.1033
38.3272
38.8039
39.3245
39.9894
40.834
41.5985
42.3904
43.3711
44.2732
45.4623
46.3463
47.5343
48.572
49.9011
50.8111
52.2025
52.9909
54.4946
62.496
61.0854
60.2819
58.9277
57.9983
56.7715
55.8137
54.6589
53.7405
52.6993
51.8
50.9039
50.108
49.3612
48.6485
48.0498
47.5262
47.1092
46.8373
46.6538
46.6566
46.8455
47.1216
47.5494
48.0576
48.6658
49.3825
50.1352
50.9285
51.8359
52.7285
53.7715
54.7104
55.8329
56.8163
58.0612
58.9827
60.3159
61.1189
62.5442
69.5073
68.0731
67.1832
65.8265
64.8398
63.5886
62.5781
61.4351
60.4548
59.4309
58.5135
57.6208
56.8109
56.0605
55.3838
54.7924
54.2927
53.8975
53.622
53.4712
53.4737
53.6294
53.9091
54.308
54.8077
55.4024
56.082
56.8358
57.647
58.5447
59.463
60.4885
61.4741
62.6153
63.6315
64.8884
65.8749
67.2314
68.1228
69.5638
74.7897
73.2998
72.3177
70.9175
69.8594
68.5729
67.5064
66.3423
65.3186
64.2819
63.3422
62.4413
61.6225
60.871
60.2026
59.6209
59.1361
58.7575
58.4951
58.3571
58.3594
58.5019
58.7683
59.1501
59.6371
60.2217
60.893
61.6473
62.4685
63.3728
64.3148
65.354
66.3801
67.547
68.6166
69.9068
70.9664
72.3697
73.3544
74.8489
78.7186
77.1856
76.133
74.7021
73.5887
72.2827
71.1753
69.9989
68.949
67.9048
66.953
66.0496
65.2291
64.4814
63.8204
63.2493
62.7772
62.4117
62.1605
62.0302
62.0323
62.1669
62.4218
62.7906
63.2655
63.8395
64.5033
65.254
66.0771
66.9836
67.9381
68.9849
70.0373
71.2168
72.327
73.6364
74.7521
76.1863
77.2421
78.7788
81.7146
80.154
79.0467
77.6019
76.447
75.1329
73.9974
72.8157
71.75
70.7028
69.7451
68.8421
68.0227
67.2794
66.6248
66.062
65.5991
65.2427
64.9991
64.8736
64.8757
65.0052
65.2524
65.6122
66.0781
66.6438
67.3013
68.0476
68.8698
69.7759
70.7362
71.7862
72.8544
74.0393
75.1776
76.4951
77.6525
79.1009
80.2112
81.7754
84.0912
82.5115
81.3589
79.9082
78.7238
77.4067
76.2529
75.0677
73.9924
72.9427
71.9812
71.0778
70.2585
69.5174
68.8659
68.3074
67.8493
67.4975
67.2578
67.1346
67.1366
67.2637
67.507
67.8622
68.3235
68.885
69.5394
70.2835
71.1057
72.012
72.9763
74.0288
75.1068
76.2951
77.4517
78.7721
79.9594
81.4136
82.5692
84.1525
86.1303
84.5326
83.3447
81.8837
80.6762
79.35
78.181
76.9875
75.9018
74.8453
73.8766
72.9681
72.1441
71.3996
70.7455
70.1853
69.7262
69.3739
69.1338
69.0102
69.0122
69.1396
69.3834
69.7392
70.2015
70.7648
71.4218
72.1693
72.9962
73.9076
74.8792
75.9385
77.027
78.2237
79.3954
80.7249
81.9353
83.3998
84.5908
86.192
87.9399
86.3146
85.1043
83.6255
82.4003
81.0607
79.877
78.6722
77.5741
76.5077
75.5287
74.6115
73.779
73.027
72.3661
71.8
71.3359
70.9794
70.736
70.6102
70.6122
70.7419
70.989
71.349
71.8164
72.3856
73.0495
73.8045
74.6399
75.56
76.5419
77.6112
78.712
79.92
81.1065
82.4494
83.6776
85.1598
86.3734
88.0021
89.5915
87.937
86.7073
85.2083
83.965
82.6092
81.409
80.1897
79.0768
77.997
77.0046
76.075
75.2305
74.4673
73.7959
73.2203
72.7477
72.3842
72.1353
72.0058
72.0079
72.1413
72.3939
72.761
73.2369
73.8156
74.4901
75.2563
76.1037
77.0363
78.0315
79.1142
80.23
81.4524
82.6553
84.0144
85.2606
86.7631
87.996
89.654
91.145
89.4589
88.2129
86.6904
85.4297
84.0545
82.837
81.6002
80.4706
79.3745
78.3662
77.4214
76.5619
75.7845
75.0997
74.5116
74.0279
73.6549
73.3987
73.2645
73.2666
73.4049
73.6647
74.0413
74.5284
75.1197
75.8076
76.588
77.4503
78.3982
79.4093
80.5083
81.6407
82.8805
84.1009
85.4794
86.7431
88.2691
89.5181
91.2078
92.6682
90.9484
89.6875
88.1391
86.8605
85.4636
84.2273
82.971
81.8227
80.7083
79.6819
78.7194
77.8427
77.0486
76.3477
75.7448
75.2475
74.8629
74.5979
74.458
74.4602
74.6042
74.873
75.2612
75.7618
76.3681
77.072
77.869
78.7486
79.714
80.7432
81.8606
83.0117
84.2711
85.5102
86.9103
88.1918
89.7437
91.0076
92.7311
94.2281
92.4728
91.1966
89.6201
88.3224
86.9017
85.645
84.3669
83.1981
82.0631
81.0166
80.0342
79.1381
78.325
77.6058
76.9855
76.4724
76.0743
75.7989
75.6524
75.6547
75.8054
76.0846
76.4863
77.0028
77.6264
78.3486
79.1647
80.0636
81.0489
82.0981
83.2361
84.4077
85.6888
86.9482
88.3723
89.6728
91.2527
92.5319
94.2907
95.8785
94.0848
92.7924
91.1852
89.8668
88.4197
87.1407
85.8386
84.6473
83.4893
82.4206
81.416
80.4982
79.6638
78.9238
78.2837
77.7524
77.3386
77.0511
76.897
76.8994
77.0577
77.3492
77.7666
78.3013
78.9446
79.6875
80.5249
81.4455
82.4529
83.5243
84.6852
85.8792
87.1844
88.4661
89.9164
91.2375
92.8481
94.1435
95.9407
97.6497
95.8152
94.5045
92.8642
91.523
90.0473
88.7437
87.4152
86.1991
85.016
83.9227
82.8939
81.9519
81.0937
80.3305
79.668
79.1159
78.6839
78.3822
78.2195
78.2219
78.389
78.6946
79.1303
79.6858
80.3514
81.1176
81.9786
82.9233
83.9549
85.0509
86.2368
87.4556
88.7871
90.0932
91.5721
92.9161
94.5597
95.8733
97.7111
99.5489
97.6718
96.3408
94.6654
93.2992
91.7927
90.4626
89.1056
87.8625
86.6523
85.5324
84.4771
83.5089
82.6246
81.8358
81.1482
80.5724
80.1192
79.8009
79.6281
79.6306
79.8079
80.1302
80.587
81.1661
81.8568
82.6485
83.5355
84.5064
85.5644
86.6869
87.8999
89.1455
90.5054
91.8381
93.3477
94.7165
96.3952
97.7289
99.6093
101.566
99.6451
98.2923
96.5801
95.188
93.6492
92.2908
90.9037
89.6321
88.3932
87.245
86.1616
85.1653
84.2531
83.4362
82.7209
82.1184
81.641
81.3031
81.1183
81.1209
81.3103
81.6522
82.1333
82.739
83.4573
84.2769
85.1918
86.1906
87.2767
88.4273
89.669
90.943
92.3327
93.6938
95.2353
96.6305
98.346
99.7011
101.625
103.679
101.714
100.339
98.5896
97.1702
95.5981
94.2112
92.7935
91.4925
90.2238
89.0464
87.9337
86.9082
85.9666
85.1199
84.3747
83.7424
83.237
82.8759
82.6768
82.6795
82.8834
83.2486
83.7575
84.3929
85.1411
85.9904
86.9347
87.9625
89.078
90.2577
91.5288
92.8319
94.2527
95.6423
97.2171
98.6394
100.391
101.769
103.737
105.857
103.849
102.451
100.666
99.2192
97.6148
96.1984
94.7501
93.4196
92.1214
90.9146
89.7724
88.7171
87.7453
86.8676
86.0903
85.4252
84.8883
84.4992
84.2825
84.2853
84.5072
84.9001
85.4408
86.1085
86.8888
87.769
88.7435
89.801
90.9454
92.1542
93.4552
94.7878
96.239
97.6576
99.2646
100.714