/*--------------------------------*- C++ -*----------------------------------*\
  =========                 |
  \\      /  F ield         | OpenFOAM: The Open Source CFD Toolbox
   \\    /   O peration     | Website:  https://openfoam.org
    \\  /    A nd           | Version:  6
     \\/     M anipulation  |
\*---------------------------------------------------------------------------*/
FoamFile
{
    version     2.0;
    format      ascii;
    class       volScalarField;
    location    "42";
    object      yPlus;
}
// * * * * * * * * * * * * * * * * * * * * * * * * * * * * * * * * * * * * * //

dimensions      [0 0 0 0 0 0 0];

internalField   uniform 0;

boundaryField
{
    inlet
    {
        type            calculated;
        value           uniform 0;
    }
    outlet
    {
        type            calculated;
        value           uniform 0;
    }
    roughCylinder
    {
        type            calculated;
        value           nonuniform List<scalar> 
3840
(
7.0734
28.3766
39.8369
42.9181
45.5713
45.7241
46.1171
45.6438
45.9657
46.1718
46.2377
45.5572
44.9591
44.69
43.323
42.6562
42.6195
43.8196
43.2581
43.3267
41.7776
41.8145
40.9293
40.6775
14.4048
27.8655
39.426
42.6925
45.3491
45.5964
46.0107
45.6102
45.98
46.1439
46.2423
45.5532
45.0036
44.778
43.5814
42.9366
42.9737
44.1911
43.7309
43.6697
42.3006
42.3288
41.5052
41.238
12.3039
27.2249
38.8768
42.3769
45.1274
45.5106
46.0021
45.7409
46.1521
46.3565
46.3839
45.7182
45.204
45.0478
44.0239
43.3934
43.4655
44.5717
44.1497
43.9432
42.7322
42.7832
42.0804
41.8548
12.1166
26.3966
38.3708
42.137
44.9049
45.4214
46.0153
45.8053
46.2579
46.3594
46.4043
45.7822
45.3621
45.2839
44.3707
43.776
43.9688
45.0223
44.6987
44.3877
43.3311
43.3584
42.7059
42.4682
15.6492
25.6074
37.685
41.7083
44.6363
45.3837
46.0452
46.0324
46.508
46.6529
46.6609
46.0938
45.7305
45.7152
44.8755
44.314
44.5732
45.4256
45.1401
44.7519
43.8375
43.8959
43.3606
43.1698
7.37618
24.2903
36.9321
41.3761
44.4063
45.2873
46.1523
46.1765
46.6672
46.6866
46.6908
46.1936
45.9438
46.012
45.2313
44.7627
45.1763
45.9144
45.7315
45.2927
44.4826
44.5068
44.0038
43.8085
12.7603
23.2538
36.0178
40.7809
44.0175
45.2648
46.1689
46.4031
46.9222
46.9921
47.0288
46.6094
46.409
46.5087
45.7495
45.3433
45.8209
46.3202
46.1753
45.7336
45.0408
45.1058
44.7085
44.5657
11.9546
21.6083
34.8825
40.2136
43.7466
45.1009
46.2868
46.5745
47.0853
47.0632
47.0737
46.7211
46.6234
46.7872
46.0949
45.8287
46.4491
46.8448
46.7863
46.3397
45.713
45.7341
45.3497
45.2102
10.9659
19.8713
33.5071
39.346
43.1076
44.9872
46.2131
46.6941
47.277
47.3257
47.4434
47.2017
47.1441
47.3014
46.6318
46.4265
47.0632
47.2598
47.2169
46.8275
46.304
46.3725
46.079
45.9932
7.5247
18.2854
31.8569
38.2636
42.6462
44.6569
46.2262
46.8228
47.3949
47.4309
47.5101
47.3096
47.3328
47.5349
46.9718
46.9173
47.6504
47.8134
47.8137
47.4454
46.9689
46.9849
46.6893
46.6098
10.4755
14.3166
29.5026
36.8769
41.523
44.2485
45.9462
46.7379
47.4623
47.5882
47.8443
47.8059
47.8775
48.0474
47.5189
47.4867
48.1693
48.2128
48.1983
47.9239
47.5495
47.6187
47.4032
47.3732
11.6043
14.4724
27.1218
34.7196
40.5227
43.5803
45.7295
46.7513
47.4793
47.697
47.9212
47.89
48.0121
48.2163
47.8277
47.9304
48.6676
48.7508
48.7365
48.4887
48.1551
48.1639
47.9365
47.9089
11.7842
3.09233
22.8338
32.374
38.4598
42.5124
45.0296
46.3416
47.3657
47.6737
48.1214
48.3139
48.5234
48.6943
48.3411
48.4091
49.0403
49.0663
49.0218
48.8814
48.6515
48.7178
48.5684
48.5806
11.7629
6.05994
19.2341
27.7126
36.0918
41.0945
44.3548
46.1147
47.1973
47.7394
48.1702
48.3173
48.5311
48.7352
48.5422
48.7296
49.4045
49.4996
49.4373
49.3211
49.1361
49.1442
48.978
48.9894
12.0348
12.3942
8.84355
23.2354
31.8119
38.4366
42.7448
45.1144
46.7904
47.4565
48.1411
48.5643
48.9146
49.1038
48.9361
49.0547
49.6096
49.6679
49.5923
49.5835
49.5044
49.5711
49.4933
49.5311
10.8511
6.12754
6.5143
13.3452
24.6491
34.9823
40.8806
44.2868
46.1901
47.354
48.1173
48.4677
48.759
48.9722
48.9841
49.2267
49.8442
49.9492
49.856
49.8505
49.8185
49.8103
49.7103
49.7366
10.3636
8.84336
5.71571
5.14049
11.9819
25.3501
36.7258
41.9862
45.1912
46.5819
47.6815
48.3755
48.8958
49.154
49.1901
49.3311
49.8023
49.8275
49.7533
49.8521
49.9182
49.9738
49.9839
50.0214
9.0761
11.7851
5.96436
12.0806
13.0216
12.041
29.8387
39.3551
43.508
45.9845
47.344
48.0042
48.4191
48.7001
48.9378
49.2315
49.8023
49.8274
49.7327
49.8029
49.9138
49.8426
49.797
49.7847
7.64175
8.86924
12.553
8.13002
5.85442
13.214
18.2866
33.1942
41.1834
44.1491
46.067
47.1964
48.0067
48.4609
48.7453
48.9155
49.2651
49.0481
48.9549
49.0963
49.254
49.2541
49.3666
49.3628
11.421
11.1698
9.19654
7.89807
13.8927
10.5764
4.64458
25.1209
36.6667
42.3457
44.8758
46.0677
46.7254
47.1988
47.7064
48.0743
48.5865
48.3452
48.2057
48.2487
48.4099
48.0668
47.9794
47.7884
6.78287
6.97774
5.13782
9.95983
2.85737
10.471
9.54048
8.05057
32.2894
37.7627
41.4331
43.5129
44.9593
45.8489
46.4369
46.6175
46.5916
45.6631
45.2677
45.2086
45.1999
45.0381
45.2494
45.0885
2.8209
3.04914
10.2015
16.8629
19.1964
15.0695
10.5359
14.4266
10.9571
32.1052
37.8728
40.0953
41.2257
42.0968
42.9108
43.3344
43.6624
42.8113
42.3092
41.8608
41.6012
39.4412
38.1595
36.8507
3.34101
10.8129
10.5994
13.3413
20.5804
22.7531
8.82229
1.52433
15.068
9.40116
19.672
29.1265
34.0505
36.4038
37.4545
37.1535
34.9184
29.9392
24.7106
19.1312
10.7991
10.2461
13.4432
19.0235
8.80196
11.9527
14.0316
17.0673
19.4112
20.8594
20.4894
8.07164
12.4978
16.0022
11.8459
13.626
19.4283
16.7371
6.21775
17.674
2.81331
15.5023
7.50296
7.93436
13.5709
13.5413
18.2846
10.4371
9.33612
18.1722
21.7466
24.0074
25.1334
24.7217
21.1851
13.0947
10.5477
12.0098
15.0723
12.9885
6.79474
13.4789
8.52883
17.8746
0.959878
19.0472
19.3931
10.2561
13.4026
9.39409
14.6795
14.9507
11.5028
20.3614
24.3019
26.7851
27.4768
26.3533
23.4052
20.8049
20.3238
22.7332
24.7176
24.3674
22.4462
20.043
16.9691
16.6145
15.2054
17.8059
22.112
24.2246
25.4278
26.7426
26.4593
26.4703
10.1631
19.2688
23.2112
25.7117
26.4069
25.309
23.4086
23.1597
25.7183
28.1373
29.3812
30.4713
31.0683
30.9127
31.2885
30.5952
30.8549
31.0219
30.8068
30.2128
30.1075
29.1424
28.4752
28.0169
8.72888
18.0563
22.0114
24.5682
25.5754
25.2372
24.3443
24.0972
24.5075
24.9337
27.0856
29.7214
31.0981
31.6626
31.3266
31.4151
31.6232
31.6357
31.2716
30.5888
30.197
28.7601
27.4078
26.4534
8.3172
17.8785
21.9262
24.6817
26.1241
26.3508
25.4631
23.9214
21.7914
18.9338
18.4248
22.2281
26.5746
29.2537
30.9955
31.5125
31.7888
31.4156
30.4077
28.9101
27.3772
24.5775
21.8152
20.2366
8.31864
18.0694
22.2494
25.179
26.8802
27.4183
27.0575
26.0995
24.4792
22.6938
21.7464
21.6137
22.3396
23.7854
25.0968
26.6045
27.6433
27.8802
27.1907
25.9701
24.09
21.7499
19.9507
19.4692
8.20286
18.0672
22.3517
25.3881
27.2504
28.0579
28.0127
26.8731
23.9882
20.1857
19.291
22.2592
25.442
27.0312
27.4964
27.5372
27.6271
27.5846
26.8559
25.4917
23.741
21.865
20.6961
20.2191
8.08788
17.9881
22.3315
25.4388
27.4144
28.3329
28.0469
25.8204
21.1434
15.9681
12.6179
13.061
17.1278
21.0936
23.9757
25.6585
26.2019
25.7603
24.5869
23.2527
21.7799
20.1851
18.9658
18.4496
7.97043
17.8681
22.3068
25.5429
27.6642
28.6289
28.0002
25.0823
20.8063
18.721
20.1886
22.1588
22.9747
23.2455
23.4811
23.8265
24.0129
23.7442
22.967
21.8939
20.7747
19.7006
19.0922
18.9154
7.85615
17.7177
22.2667
25.64
27.8363
28.571
27.0994
23.1628
18.5828
15.6917
15.5292
17.2947
19.7403
21.9597
23.3989
24.0531
24.1058
23.637
22.7375
21.6868
20.6802
19.7983
19.2431
19.0257
7.75435
17.3424
21.9565
25.4625
27.5543
27.4676
24.6461
20.174
16.402
15.9548
18.2573
20.3262
21.5195
22.2986
23.0009
23.5226
23.6224
23.186
22.3329
21.3811
20.5484
19.8684
19.5136
19.4238
8.34061
17.8637
22.427
25.6544
26.7784
24.9504
21.2594
17.5323
15.5512
17.1314
19.6943
21.5996
22.9918
23.9225
24.3577
24.3749
24.0188
23.2887
22.2867
21.3072
20.5513
20.0391
19.8295
19.7995
8.81236
18.9343
23.1832
25.3007
24.3674
21.3406
18.3147
15.3143
15.5583
18.9471
21.6221
23.2651
24.2428
24.8194
25.1068
25.0509
24.5682
23.6536
22.4885
21.4319
20.7317
20.3598
20.2918
20.354
7.20246
18.1732
22.3995
22.9112
20.7871
18.6892
15.5895
13.7449
17.7276
21.6981
24.2146
25.8159
26.7806
27.1908
27.1142
26.6222
25.738
24.492
23.0756
21.8932
21.2091
20.9604
21.0323
21.1847
5.44542
16.7103
20.6183
20.083
18.7775
16.3617
12.4982
15.8135
21.186
24.6152
26.7541
28.0956
28.8661
29.1724
29.0268
28.4131
27.3238
25.8188
24.1472
22.7854
22.0621
21.8995
22.0884
22.3267
4.13899
15.7425
18.2075
17.7954
16.4621
12.0712
13.1606
19.9524
24.5042
27.3823
29.339
30.6748
31.4715
31.7231
31.4415
30.6431
29.3428
27.6117
25.717
24.1852
23.4057
23.3028
23.5877
23.899
2.99037
3.00129
3.46218
4.17483
5.82049
8.87768
11.7069
11.8767
12.4126
13.343
13.6771
13.9742
13.965
13.9101
13.6857
13.3909
12.9992
12.5877
12.2369
11.934
11.6632
11.5581
11.2598
11.0729
10.8963
10.6464
10.3941
9.94203
9.21077
7.92865
5.99773
3.98222
2.8165
3.27664
3.69772
3.82382
3.21761
2.35598
0.418515
2.06688
8.28226
8.58563
10.3968
12.2077
14.487
16.8266
18.1277
19.1242
19.8767
20.4808
20.8661
21.154
21.3185
21.4103
21.4283
21.3969
21.3238
21.2175
21.0819
20.9516
20.8365
20.7268
20.615
20.5004
20.3808
20.2223
19.983
19.5692
18.95
18.0209
16.6239
14.5253
11.3238
11.4722
11.1922
10.2571
9.69887
9.56703
8.97011
12.0953
10.1118
10.3515
12.0657
14.5718
17.7881
19.8348
21.2137
22.4385
23.2901
23.9853
24.4829
24.8492
25.091
25.2332
25.2889
25.2738
25.2002
25.0928
24.9607
24.8236
24.6961
24.5672
24.4328
24.2865
24.1259
23.9361
23.6815
23.3232
22.8183
22.0808
21.0505
19.61
17.4404
14.8359
11.8757
11.4349
11.56
11.5922
11.8518
14.1382
11.4794
11.7168
13.7697
17.6062
20.7891
22.6026
24.2039
25.433
26.3818
27.1336
27.7
28.1214
28.4125
28.5919
28.672
28.6747
28.6183
28.525
28.4097
28.2728
28.1285
27.9781
27.8194
27.6425
27.4296
27.1731
26.8561
26.4708
25.9954
25.3627
24.5283
23.4495
22.0146
20.1583
17.7142
14.7621
11.5314
11.6262
12.2421
14.5349
12.1381
12.8551
16.7623
20.9191
23.374
25.2481
26.8317
28.0369
29.0285
29.8031
30.413
30.8728
31.2015
31.4147
31.5242
31.5462
31.5004
31.3997
31.2682
31.0985
30.9302
30.7642
30.5992
30.4266
30.2279
29.9842
29.674
29.2624
28.7637
28.1757
27.4608
26.587
25.5138
24.195
22.5239
20.3717
17.4503
13.3734
11.533
12.3784
12.7236
15.1931
20.4932
23.6235
25.765
27.6759
29.1372
30.3623
31.3505
32.1538
32.7945
33.2921
33.6602
33.9075
34.039
34.058
33.9811
33.8114
33.6458
33.4749
33.2985
33.1188
32.9339
32.7371
32.5297
32.3413
32.1145
31.7225
31.2105
30.6196
29.9582
29.2009
28.3289
27.3038
26.0768
24.5367
22.5609
19.7137
15.6814
11.4986
13.5658
19.6215
23.5854
25.9796
28.1405
29.869
31.3013
32.4978
33.489
34.3085
34.9774
35.5109
35.9148
36.1863
36.3179
36.302
36.1483
36.0067
35.8477
35.6767
35.4953
35.305
35.1044
34.8886
34.6447
34.397
34.2113
33.9135
33.4037
32.7983
32.1437
31.437
30.669
29.8127
28.8299
27.6591
26.2077
24.3441
21.6971
18.2427
18.7195
23.3837
26.1013
28.4003
30.3578
31.9735
33.3533
34.5163
35.5026
36.3331
37.0267
37.5895
38.0193
38.3028
38.4145
38.3085
38.2006
38.0677
37.9162
37.7464
37.5613
37.3626
37.1473
36.9137
36.6491
36.3578
36.1293
35.9063
35.4016
34.7721
34.0992
33.4051
32.6793
31.9163
31.0675
30.1201
28.955
27.6186
25.7578
23.6955
23.2885
26.2408
28.6302
30.7012
32.4732
33.9918
35.3068
36.4372
37.4138
38.253
38.9668
39.5548
40.0058
40.2877
40.3279
40.2466
40.1495
40.0274
39.8804
39.7096
39.5196
39.3122
39.0832
38.8309
38.5462
38.2304
37.9773
37.7645
37.2426
36.574
35.8669
35.1606
34.4453
33.7267
32.9505
32.1359
31.1363
30.0816
28.6211
27.19
26.5983
28.8877
31.0147
32.8415
34.4691
35.8927
37.1504
38.2519
39.223
40.0737
40.8096
41.4231
41.895
42.1803
42.1599
42.1084
42.0213
41.9062
41.7603
41.5853
41.3874
41.1688
40.9245
40.6515
40.3436
40.0149
39.776
39.5397
38.9397
38.2135
37.4616
36.7267
36.0028
35.2988
34.5584
33.8164
32.917
32.0101
30.7619
29.6248
29.3475
31.2577
33.1405
34.7774
36.2938
37.6424
38.8609
39.9478
40.9243
41.7938
42.5569
43.2
43.696
43.9896
43.9453
43.9078
43.8306
43.7191
43.5707
43.3879
43.1777
42.9437
42.6804
42.383
42.0496
41.7313
41.5426
41.1736
40.4703
39.6804
38.8803
38.1083
37.3606
36.651
35.9223
35.2104
34.3636
33.528
32.3858
31.3893
31.5922
33.2366
34.9451
36.4582
37.9017
39.2074
40.4096
41.4998
42.4948
43.3925
44.1898
44.87
45.4006
45.7186
45.6712
45.6434
45.5725
45.4612
45.307
45.1124
44.8858
44.6315
44.343
44.0158
43.6688
43.4155
43.229
42.6137
41.8044
40.9521
40.1054
39.2932
38.5123
37.7773
37.0406
36.3263
35.4935
34.6705
33.5746
32.621
33.2736
34.7562
36.3752
37.8272
39.2424
40.5387
41.7483
42.858
43.8818
44.8146
45.6516
46.3749
46.9518
47.3141
47.2948
47.2668
47.1965
47.081
46.9161
46.7045
46.4564
46.1769
45.8591
45.5107
45.2141
45.0551
44.576
43.7808
42.8931
41.9902
41.102
40.25
39.4302
38.6556
37.8866
37.1379
36.2833
35.4289
34.3326
33.3706
34.3442
35.7624
37.363
38.811
40.2392
41.557
42.7946
43.9358
44.9936
45.9626
46.8376
47.6017
48.224
48.6435
48.7413
48.6737
48.5969
48.4696
48.2871
48.0532
47.7805
47.4762
47.147
46.8566
46.6867
46.281
45.514
44.6197
43.68
42.738
41.8133
40.9223
40.059
39.2349
38.4109
37.5931
36.6702
35.7536
34.6093
33.6388
34.7827
36.2042
37.8354
39.3223
40.7936
42.1557
43.4358
44.6143
45.7046
46.7028
47.6047
48.3959
49.0547
49.5463
49.8133
49.7323
49.6304
49.4804
49.2747
49.0187
48.7358
48.4557
48.2233
48.0416
47.5916
46.8697
46.0066
45.0669
44.0952
43.1229
42.1657
41.2349
40.3237
39.4382
38.5304
37.6078
36.5823
35.5784
34.3597
33.3844
34.6041
36.0604
37.7434
39.2893
40.818
42.2363
43.5657
44.7835
45.9019
46.9194
47.8328
48.6306
49.2964
49.8097
50.1498
50.3004
50.2379
50.0368
49.8212
49.589
49.3744
49.1789
48.8735
48.3628
47.7331
46.9491
46.0495
45.0826
44.0864
43.0872
42.0964
41.1212
40.1521
39.1762
38.148
37.0922
35.9465
34.8401
33.5505
32.5739
33.8778
35.3728
37.1065
38.7138
40.3023
41.7797
43.1619
44.4251
45.574
46.6092
47.5298
48.3256
48.9822
49.4817
49.8097
49.9687
50.013
49.9667
49.8318
49.6156
49.3393
49.0144
48.6243
48.1212
47.4384
46.6023
45.6649
44.6705
43.6497
42.6202
41.5893
40.5564
39.495
38.3857
37.2114
36.0082
34.7356
33.5228
32.1778
31.2086
32.7543
34.2768
36.0481
37.7099
39.3528
40.8877
42.3231
43.6345
44.8202
45.88
46.8149
47.6177
48.2765
48.7759
49.1032
49.2604
49.2863
49.2398
49.1322
48.9712
48.7667
48.5027
48.1155
47.5289
46.766
45.878
44.9099
43.8934
42.848
41.7841
40.6998
39.5739
38.3778
37.1148
35.7869
34.4326
33.0332
31.7162
30.3297
29.3765
31.4641
33.0067
34.8075
36.5186
38.2123
39.8031
41.2907
42.6506
43.8778
44.9685
45.9249
46.7436
47.4162
47.9325
48.2839
48.4719
48.521
48.501
48.4419
48.3398
48.1691
47.8636
47.358
46.6744
45.8553
44.9398
43.9572
42.9268
41.8591
40.7548
39.5932
38.3482
37.0148
35.6081
34.1372
32.6418
31.1252
29.7134
28.2982
27.3675
30.2634
31.8407
33.6774
35.4415
37.1872
38.8335
40.3721
41.7793
43.047
44.1711
45.1542
45.9957
46.6918
47.2377
47.6314
47.8779
47.9958
48.0189
47.978
47.8475
47.5746
47.1397
46.5445
45.8141
44.9779
44.0607
43.0803
42.0475
40.9658
39.8216
38.5865
37.2491
35.8178
34.3084
32.7349
31.1384
29.5397
28.0629
26.6407
25.7349
29.3696
31.0095
32.8986
34.7225
36.5207
38.218
39.8008
41.2464
42.5455
43.6964
44.7024
45.5645
46.2816
46.8525
47.2779
47.5613
47.7109
47.7374
47.6465
47.4273
47.069
46.5718
45.9453
45.2091
44.3829
43.4832
42.5211
41.5027
40.4249
39.2658
38.0003
36.6276
35.1585
33.6085
31.9943
30.3573
28.7279
27.2251
25.8099
24.9104
29.1277
30.8079
32.7227
34.5711
36.3861
38.0981
39.6906
41.1421
42.4441
43.5969
44.6034
45.4638
46.1775
46.7448
47.1667
47.4464
47.5883
47.5956
47.4671
47.1986
46.8002
46.2827
45.6553
44.9328
44.1296
43.2579
42.3252
41.3351
40.2809
39.1384
37.8855
36.5246
35.0667
33.5269
31.9227
30.2942
28.6743
27.1738
25.7623
24.8373
29.4219
31.1056
33.0101
34.8416
36.6351
38.3241
39.8923
41.319
42.5987
43.7319
44.7194
45.5607
46.2556
46.8044
47.2081
47.4692
47.5893
47.5697
47.4121
47.1226
46.7141
46.1982
45.5832
44.8814
44.1047
43.2632
42.3629
41.4057
40.3845
39.2749
38.0551
36.7276
35.3028
33.7957
32.2235
30.6249
29.0307
27.5443
26.1339
25.1771
29.8796
31.5422
33.4181
35.2155
36.9728
38.6254
40.1578
41.5506
42.8002
43.9063
44.8682
45.6849
46.356
46.8816
47.2633
47.5029
47.6022
47.5636
47.392
47.0945
46.6843
46.1732
45.5693
44.8834
44.1262
43.307
42.4309
41.4992
40.5047
39.4238
38.2348
36.9388
35.5462
34.0711
32.5302
30.9603
29.3904
27.9189
26.5099
25.5312
12.7159
29.5084
40.3054
43.2068
45.7592
45.9583
46.4734
46.1428
46.5612
46.6875
46.8792
46.3416
45.8644
44.4152
43.4643
42.8044
42.7567
43.2298
43.9988
43.0647
42.4698
41.8193
40.8606
40.7798
2.27201
28.7043
39.9301
42.9902
45.6707
45.9512
46.5563
46.4534
46.7439
46.7188
46.5541
46.1173
45.696
44.4649
43.6826
43.0418
42.9248
43.4299
44.2937
43.4273
43.0118
42.5164
41.6225
41.5327
12.4944
28.6381
39.5347
42.7711
45.4534
45.9266
46.6058
46.4349
46.8534
46.8493
46.9387
46.347
45.8228
44.8197
44.2079
43.6173
43.501
44.0754
44.7891
43.7778
43.3365
42.8731
42.017
41.9247
10.3227
27.5657
39.0607
42.5412
45.3593
45.9026
46.6607
46.7169
47.0103
46.846
46.6889
46.24
45.7908
45.0004
44.5368
43.9347
43.735
44.3794
45.0951
44.1776
43.9213
43.6108
42.8437
42.7368
11.8752
27.3209
38.601
42.2562
45.0984
45.8795
46.7203
46.6944
47.0823
47.0692
47.1475
46.5812
46.0105
45.3995
45.0695
44.5025
44.3526
45.1343
45.6748
44.657
44.3678
44.0576
43.3168
43.1935
12.8763
26.0948
37.995
41.9763
44.9745
45.8356
46.7549
46.9263
47.2805
47.0745
47.0047
46.5984
46.159
45.7032
45.4633
44.8647
44.6767
45.5098
45.9957
45.0909
44.9698
44.8068
44.1736
44.0438
11.3537
25.7164
37.3955
41.587
44.6704
45.8007
46.7981
46.9597
47.3384
47.4207
47.5282
47.0118
46.4729
46.1355
45.9619
45.3884
45.3332
46.2987
46.6352
45.6872
45.513
45.3182
44.6949
44.5432
8.81456
24.2708
36.6038
41.2121
44.4791
45.7179
46.8488
47.1202
47.593
47.4287
47.4789
47.141
46.7961
46.5701
46.4161
45.7912
45.7564
46.6996
46.9684
46.1421
46.1068
46.0569
45.5555
45.4156
16.3296
23.7767
35.7869
40.6465
44.1093
45.6619
46.8163
47.2286
47.6504
47.8748
48.0284
47.5851
47.1699
47.0177
46.8737
46.2735
46.4377
47.4672
47.6469
46.8396
46.7318
46.6203
46.1075
45.9438
13.8065
22.3316
34.7202
40.0758
43.7568
45.4561
46.8948
47.2993
47.9197
47.8503
48.0302
47.8126
47.6325
47.5615
47.3967
46.7366
46.9448
47.8644
47.9817
47.2895
47.2909
47.322
46.943
46.8111
16.8985
21.6373
33.5968
39.2078
43.2357
45.3483
46.7077
47.437
47.9747
48.3506
48.5582
48.2313
47.993
47.9707
47.799
47.1894
47.6106
48.5695
48.6617
48.0442
47.9671
47.9093
47.4928
47.3334
18.3559
20.3735
32.1134
38.2814
42.5684
44.877
46.7694
47.3985
48.18
48.2409
48.5674
48.5265
48.5368
48.5659
48.37
47.7146
48.1517
48.9326
48.9627
48.4377
48.4476
48.53
48.2648
48.1534
21.8642
19.7726
30.6524
36.924
41.7502
44.6338
46.3402
47.4667
48.2061
48.7411
49.0176
48.848
48.7894
48.8601
48.6738
48.119
48.7374
49.5383
49.5991
49.1894
49.133
49.0991
48.7625
48.6161
25.0096
19.1192
28.5101
35.4275
40.5289
43.7138
46.2762
47.2793
48.2446
48.4731
48.984
49.16
49.3532
49.4453
49.25
48.6774
49.2504
49.8281
49.8109
49.4526
49.4615
49.5634
49.4084
49.3207
27.9354
18.9972
26.9492
33.3429
39.1945
43.1347
45.456
47.1356
48.2043
48.9159
49.2734
49.2808
49.3857
49.5328
49.3824
48.9662
49.6672
50.2792
50.34
50.125
50.1085
50.0792
49.8098
49.6775
30.9066
18.8744
23.8134
31.004
36.9488
41.467
45.0646
46.6966
47.946
48.4273
49.1683
49.5569
49.9018
50.0412
49.8961
49.4896
50.1001
50.4678
50.4393
50.2212
50.2354
50.336
50.2967
50.23
34.1337
19.5433
22.6359
27.9131
34.8033
40.1006
43.5091
46.0759
47.7656
48.7554
49.2215
49.3976
49.6393
49.8579
49.8025
49.6053
50.2965
50.7368
50.8354
50.7761
50.8173
50.7569
50.5299
50.4009
37.08
20.2756
18.6014
24.1181
30.3102
37.0243
42.3502
45.1343
46.9051
47.9001
49.0057
49.6359
50.107
50.2842
50.2397
50.0738
50.6272
50.7757
50.7088
50.5697
50.569
50.6326
50.724
50.6842
38.832
21.3053
17.0903
19.8209
27.1188
33.5845
39.2289
43.4462
46.4226
47.8993
48.5901
48.9715
49.3729
49.6849
49.7877
49.8794
50.4191
50.7056
50.8462
50.8996
51.0156
50.8797
50.6441
50.4616
39.4458
21.9076
13.9299
8.22857
12.8533
27.487
36.0341
41.4489
44.2285
46.3583
48.135
49.1273
49.7283
49.9591
50.0847
50.216
50.5836
50.4818
50.2364
50.0149
49.8799
49.7987
50.0198
50.0159
39.4828
22.0503
3.93882
3.96948
12.5814
17.0618
28.733
37.0652
43.2161
45.4918
46.6279
47.3395
48.0175
48.4948
48.832
49.2225
49.3866
49.4869
49.6383
49.7196
49.8881
49.5741
49.1698
48.7567
38.3895
22.1112
5.32616
12.3391
8.64003
13.3287
10.5758
32.8278
37.6238
42.5582
45.6497
47.2525
47.991
48.3113
48.6994
49.1436
49.1378
48.6636
47.7517
46.9769
46.2472
45.6233
45.8744
45.9738
36.652
22.2426
2.81343
2.03613
2.68253
9.22764
9.52341
18.3286
36.2621
39.3726
41.27
42.5573
43.8737
44.6772
45.3378
45.8891
45.1079
44.7613
44.8112
44.7974
44.913
44.1297
42.8062
41.0963
34.0652
22.7288
3.04622
11.0645
11.5329
5.28258
14.1703
10.747
15.53
31.9364
38.6104
41.954
42.7231
43.1169
43.8194
44.4873
43.7922
42.5351
38.3902
33.3308
27.4197
19.0808
12.0976
13.037
25.0888
22.1865
10.2584
9.95208
7.26306
9.41076
8.5911
14.6731
14.8387
5.17365
18.5144
20.5432
27.2412
29.4461
30.6259
29.4206
23.001
15.3052
7.10772
9.74581
19.7825
18.3362
8.3946
13.2465
13.3572
19.8558
9.92597
11.5024
17.8814
20.6438
19.7598
11.576
9.20344
10.7139
16.1114
11.4348
8.0555
15.4577
18.9435
11.4541
13.9236
17.3004
7.72796
14.8658
13.0592
11.6203
14.5525
6.399
11.158
17.1007
8.93757
10.5123
18.8543
24.5179
26.5825
24.9169
16.5202
8.54437
17.8131
5.8693
6.71223
12.5433
9.20925
10.0628
6.03205
19.3872
13.2681
12.1442
16.516
20.3365
22.3665
23.4232
12.0226
17.1587
12.778
11.041
17.0248
23.6083
27.4616
25.9565
22.5285
24.2881
26.0765
25.1979
23.7641
22.569
22.1193
21.891
21.3425
22.7678
25.3003
27.3356
28.0115
27.7309
27.3476
27.0359
12.0404
18.6446
18.2153
16.408
18.4781
23.1919
25.9712
24.5216
24.6949
27.4884
28.8467
28.8869
28.8659
28.9134
28.9615
28.9265
29.2187
29.5178
29.3889
29.3511
29.8915
29.3303
28.4586
27.7601
11.252
19.1747
21.0648
21.0192
21.5684
23.5311
24.4423
24.276
26.582
29.3699
30.3394
30.2884
30.5218
30.9967
31.3887
31.5463
31.6902
31.6705
31.1808
30.188
29.72
27.9694
25.608
24.0128
9.74583
18.4208
21.4794
22.8368
23.4936
24.2685
24.6441
25.5189
27.2447
27.9478
26.4395
24.8233
25.6904
27.8914
29.8009
30.7823
31.1599
30.9585
29.7405
28.0954
26.8384
24.5988
21.8825
20.4547
8.46877
17.0021
20.5668
22.842
24.2025
25.0376
25.6758
26.7325
27.5156
26.4744
23.0786
19.9141
20.1351
22.6667
25.507
27.4651
28.3607
28.3729
27.4904
26.1891
24.8929
23.0454
20.8283
19.8115
6.78623
15.2715
19.1963
22.0685
24.0513
25.3443
26.3174
27.1809
27.2948
25.5111
21.2555
18.5238
20.0237
22.8036
25.0655
26.4881
27.1142
27.0347
26.2171
24.8388
23.1176
21.15
19.6485
19.0759
4.99192
13.6243
17.7664
20.9717
23.3305
24.9942
26.1368
26.6731
26.0049
23.1016
18.0624
16.3609
18.8921
21.9183
24.1634
25.429
25.8365
25.4366
24.2382
22.667
21.2056
19.8607
18.9589
18.7027
3.74155
12.169
16.2297
19.5559
22.1194
23.9994
25.1652
25.3458
24.1054
20.3106
15.745
16.6666
19.8123
22.2473
23.794
24.5523
24.6251
24.1472
23.1422
21.8281
20.5482
19.6068
19.1824
19.196
3.54967
11.5477
14.6746
17.8674
20.4879
22.4422
23.5319
23.4439
21.853
17.2981
14.9141
18.1397
21.3746
23.4427
24.582
24.9542
24.7209
24.0571
23.06
21.8987
20.8062
20.1302
19.945
20.1059
3.7589
10.9857
13.2334
15.9986
18.4729
20.338
21.2534
21.0873
18.8111
14.3631
16.3124
20.5531
23.4525
25.1302
25.9221
26.0133
25.5651
24.7659
23.7495
22.6412
21.6291
21.1116
21.1007
21.3711
3.86509
9.96279
11.9459
14.1495
16.2774
17.9105
18.6987
18.3491
14.5954
14.4806
19.4659
23.3344
25.7522
27.1526
27.74
27.6563
27.0533
26.1206
25.0233
23.9052
22.9349
22.524
22.6445
23.0059
3.50417
9.06867
11.1711
12.8149
14.5305
15.8477
16.3895
14.4829
13.1001
18.4703
23.1133
26.2075
28.2688
29.4938
29.9678
29.793
29.0975
28.0597
26.8727
25.7164
24.7675
24.4307
24.6417
25.0629
3.24974
8.6622
10.6779
12.1186
13.4153
14.2071
13.7816
12.8109
18.2089
23.1218
26.5549
29.1148
30.9553
32.0844
32.5208
32.3208
31.5841
30.4768
29.2149
28.0204
27.0901
26.8063
27.0751
27.5298
17.8517
13.2577
9.52705
15.039
5.29224
5.02967
7.35937
1.39121
12.8242
8.7149
11.1792
10.5926
9.432
9.19025
5.06827
7.59951
6.94629
2.25948
6.49062
2.54759
6.25382
6.53929
2.83227
4.24526
8.08294
3.74388
3.66773
6.04434
10.3905
8.95769
12.0231
4.72883
10.7914
3.44973
10.1626
13.8132
7.18968
11.7542
10.8981
9.05458
29.1369
27.3285
26.5183
24.3673
23.5
21.2114
20.3425
17.9479
17.3464
14.7555
14.5056
13.0283
12.2538
11.7723
11.5691
11.5963
10.3138
9.10499
10.027
9.92921
9.42934
10.3044
10.4874
10.9677
11.5348
12.238
11.3985
12.9459
13.2844
14.6736
14.9481
17.0012
17.8102
19.8839
20.6847
22.9548
23.6173
25.8937
26.3064
28.5627
40.1074
38.4984
37.5923
36.0452
35.0383
33.6149
32.5388
31.3247
30.2396
29.2911
28.1785
27.3803
26.5693
25.9409
25.5413
24.9769
24.7442
24.4842
24.2045
24.2361
24.1412
24.3586
24.2236
24.4892
25.0885
25.6951
26.4595
27.0289
27.7056
28.4347
29.348
30.3349
31.3427
32.5984
33.6199
35.0027
35.937
37.383
38.2245
39.7315
42.7479
41.1372
39.9702
38.4077
37.2256
35.7116
34.6026
33.2555
32.3332
31.2219
30.4416
29.4802
28.9349
28.3645
28.1645
27.6869
27.2333
26.8988
26.8156
26.7475
26.6452
26.8622
26.8347
27.2716
27.812
28.3843
28.6613
29.2453
29.7018
30.6019
31.3306
32.4996
33.4986
34.8306
35.9119
37.3281
38.404
39.9063
40.964
42.5516
45.2799
43.6835
42.5194
41.0184
39.8627
38.4717
37.3486
36.1908
35.221
34.2924
33.3852
32.459
31.7376
31.2154
30.9423
30.6322
30.247
29.9596
29.7371
29.6299
29.5173
29.6894
29.598
30.0169
30.5676
30.9348
31.3754
31.8831
32.55
33.375
34.2998
35.3865
36.4643
37.6807
38.8022
40.0721
41.1928
42.5427
43.6737
45.1242
45.3375
43.7699
42.5518
41.1276
39.9882
38.6927
37.6339
36.5621
35.7704
34.9171
34.1927
33.1954
32.4614
31.8811
31.6688
31.3246
30.9355
30.6546
30.4843
30.2624
30.0832
30.1905
30.1089
30.6343
31.063
31.4023
31.6737
32.2508
32.9032
33.8678
34.7825
35.8854
36.9135
38.0543
39.1057
40.2672
41.3671
42.6185
43.7976
45.1802
45.768
44.2241
42.9615
41.6534
40.5429
39.3966
38.4026
37.4439
36.747
36.0214
35.3322
34.3919
33.4992
32.8736
32.5189
32.283
31.8519
31.6023
31.4115
31.1037
30.8096
30.8474
30.7684
31.2985
31.645
31.8309
32.2381
32.9281
33.8193
34.8729
35.8506
36.9081
37.8619
38.8668
39.8247
40.8566
41.9034
43.0471
44.2351
45.5154
45.4474
43.7784
42.5663
41.2249
40.2756
39.15
38.3513
37.4072
36.8324
36.1901
35.572
34.7091
33.7869
33.0959
32.6234
32.297
31.849
31.5624
31.4531
31.0578
30.5731
30.4672
30.4481
31.0925
31.2509
31.541
32.1127
33.0301
34.0505
35.1563
36.0765
37.023
37.7958
38.6633
39.4883
40.4241
41.4216
42.5238
43.7206
44.9822
45.7421
44.1685
42.8805
41.5913
40.636
39.6177
38.7976
37.9299
37.1421
36.5184
35.778
35.0872
34.1596
33.533
32.8626
32.5526
31.9933
31.6305
31.5644
31.2181
30.5239
30.2053
30.4454
31.1503
31.2709
31.7784
32.7005
33.6962
34.7501
35.7265
36.5271
37.2477
37.9007
38.719
39.529
40.5079
41.5612
42.7035
43.979
45.2456
45.8886
44.4457
43.058
41.9124
40.7507
39.9266
38.8303
38.0915
36.9578
36.314
35.2869
34.7452
33.9065
33.445
32.6863
32.3106
31.7893
31.2773
31.1668
31.0693
30.3204
29.7473
30.3937
31.2197
31.3982
32.2371
33.1602
33.9651
34.8125
35.5014
36.0745
36.7273
37.5101
38.4368
39.3856
40.4878
41.5974
42.8252
44.1152
45.4167
45.8593
44.8183
43.1952
42.3113
40.9228
40.1789
38.8915
38.0431
36.7381
36.0085
34.8772
34.283
33.4929
33.1474
32.4422
32.1192
31.6817
31.3617
30.9317
31.1714
30.6885
30.1165
30.7189
31.7838
32.0011
32.7083
33.0068
33.5022
34.1725
34.7071
35.3384
36.1573
37.1622
38.2249
39.3377
40.4862
41.6661
42.9178
44.2019
45.5413
45.5193
44.4041
42.9062
41.895
40.5421
39.7282
38.4641
37.6862
36.3883
35.6331
34.2405
33.6031
32.9169
32.5139
31.9045
31.6042
31.1282
30.915
31.0766
30.7687
30.3272
30.3156
31.0108
31.7749
31.9427
32.2336
32.308
32.7752
33.4532
34.0388
34.7373
35.6335
36.6735
37.7342
38.8242
39.9414
41.1254
42.3291
43.6093
44.8748
45.093
43.9145
42.3544
41.2407
39.7757
38.9162
37.7025
36.9507
35.8794
35.0004
33.7192
32.756
32.1516
31.803
30.8695
30.697
30.1902
30.4861
30.5298
30.0573
29.7812
29.4247
30.6775
30.837
31.1642
30.8588
31.1811
32.0558
33.0477
33.6291
34.4388
35.3282
36.3242
37.2274
38.2554
39.3343
40.5624
41.7612
43.0554
44.2875
43.5125
42.4183
41.0561
40.2235
38.9895
38.1866
36.8803
36.0431
34.9032
34.2362
32.9408
31.9236
30.8795
30.7482
30.119
30.0967
29.1773
28.9754
28.9697
29.3203
29.8417
28.6021
29.417
29.625
30.2224
30.6133
31.5234
32.3305
32.9458
33.4983
34.035
34.4994
35.1568
35.8545
36.9892
38.2976
39.8256
41.2053
42.6582
43.9496
42.3874
41.191
39.6447
38.7049
37.4029
36.7108
35.6036
34.9755
33.8443
33.0713
31.8948
31.0861
30.395
30.2892
29.2946
28.8642
29.0481
28.3245
28.8713
27.4593
27.2491
28.3946
29.5152
28.6137
28.9665
29.9398
30.1973
31.0486
31.8256
32.2913
33.0274
33.7385
34.7648
35.6049
36.6593
37.554
38.7097
39.7542
41.1261
42.3777
41.6553
40.4521
38.7933
37.7892
36.3427
35.5788
34.391
33.8595
32.8855
32.3914
31.3589
30.667
29.7566
29.3523
29.0427
28.6116
27.6811
27.5154
26.752
27.0503
27.4159
26.7745
27.5391
27.2434
27.8738
28.202
28.8554
29.0233
29.7967
30.3405
31.2805
31.9827
32.9625
33.7374
34.9446
36.0382
37.5131
38.7777
40.3428
41.6743
41.6034
40.398
38.6732
37.5795
36.0029
35.0517
33.6671
32.8635
31.6719
30.9404
29.9242
29.4793
28.8821
28.5452
27.9082
27.8179
27.883
27.5478
27.4896
27.3004
26.4995
26.7318
26.9187
26.9455
27.193
27.3715
27.7591
28.1443
29.126
29.7597
30.6882
31.3488
32.5413
33.5299
34.9739
36.098
37.6036
38.7879
40.3427
41.6391
42.1013
40.8785
39.206
38.0346
36.4729
35.3596
33.9464
32.9545
31.7544
30.9743
30.0693
29.554
28.9882
28.767
28.4982
28.3179
28.0303
27.6232
27.7742
28.4576
27.9155
27.8075
28.1004
27.9609
28.082
27.8614
28.2283
28.3747
29.1565
29.7406
30.9884
31.9712
33.4325
34.5498
36.0127
37.1879
38.6487
39.9206
41.4411
42.8579
42.9582
41.4988
39.8682
38.4402
36.9063
35.5276
34.0947
32.7802
31.4768
30.2935
29.1894
28.2307
27.4131
26.7644
26.3507
26.0833
26.0026
26.0743
25.6117
25.8056
24.4267
23.8609
25.881
26.1425
26.5061
26.6058
27.4578
27.9843
29.1962
29.9637
31.2513
32.0523
33.2868
34.1418
35.4057
36.4434
37.8526
39.1413
40.7101
42.2354
42.2072
40.7525
39.3276
37.9457
36.6442
35.3549
34.2071
33.0219
32.0328
30.9661
30.1321
29.1972
28.4885
27.7036
27.1416
26.5179
26.0834
25.5853
25.3981
25.3893
25.5711
26.111
26.3726
26.3841
26.5268
26.5044
27.3532
27.7765
28.8987
29.5983
30.8681
31.6938