/*--------------------------------*- C++ -*----------------------------------*\
  =========                 |
  \\      /  F ield         | OpenFOAM: The Open Source CFD Toolbox
   \\    /   O peration     | Website:  https://openfoam.org
    \\  /    A nd           | Version:  6
     \\/     M anipulation  |
\*---------------------------------------------------------------------------*/
FoamFile
{
    version     2.0;
    format      ascii;
    class       volScalarField;
    location    "5";
    object      yPlus;
}
// * * * * * * * * * * * * * * * * * * * * * * * * * * * * * * * * * * * * * //

dimensions      [0 0 0 0 0 0 0];

internalField   uniform 0;

boundaryField
{
    inlet
    {
        type            calculated;
        value           uniform 0;
    }
    outlet
    {
        type            calculated;
        value           uniform 0;
    }
    roughCylinder
    {
        type            calculated;
        value           nonuniform List<scalar> 
3840
(
86.815
51.819
54.6749
62.9641
69.3647
74.4664
78.5661
82.017
85.0963
87.8921
90.5187
93.0618
95.5876
98.1981
100.95
103.874
106.965
110.207
113.563
116.974
120.332
123.472
126.083
127.677
82.2621
50.7301
53.212
61.3151
67.6708
72.7307
76.8067
80.2764
83.2979
86.0562
88.6242
91.064
93.5042
96.0205
98.6759
101.49
104.471
107.598
110.837
114.127
117.37
120.402
122.924
124.463
73.2902
50.5195
51.8864
59.6895
65.9473
70.9882
75.0981
78.5356
81.5785
84.264
86.7377
89.1191
91.4649
93.8843
96.4342
99.1497
102.021
105.035
108.157
111.33
114.457
117.382
119.817
121.301
62.9517
49.3488
50.3748
57.953
64.2188
69.266
73.3562
76.8542
79.8328
82.4921
84.9364
87.2158
89.4846
91.8175
94.2815
96.8903
99.6567
102.561
105.569
108.625
111.64
114.461
116.809
118.239
76.866
49.1251
49.0355
56.3134
62.477
67.5081
71.6932
75.1467
78.1791
80.7966
83.1396
85.383
87.5692
89.8158
92.178
94.6997
97.3649
100.163
103.061
106.007
108.912
111.633
113.899
115.277
67.8835
48.7004
47.5158
54.4426
60.6766
65.7893
69.9332
73.5033
76.4695
79.0761
81.4387
83.589
85.7129
87.8855
90.1801
92.602
95.1715
97.8673
100.66
103.497
106.296
108.919
111.104
112.431
78.7808
48.3329
46.136
52.7679
58.8957
63.9561
68.2799
71.7797
74.8424
77.451
79.7116
81.8576
83.9171
86.0185
88.2151
90.5636
93.0419
95.6406
98.3303
101.065
103.762
106.293
108.401
109.679
69.4354
48.0016
44.545
50.6515
56.9135
62.1917
66.422
70.1247
73.13
75.7274
78.0776
80.1492
82.1685
84.2116
86.3648
88.6217
91.0129
93.518
96.1099
98.7425
101.341
103.779
105.812
107.043
59.1156
46.7279
43.1084
48.868
55.0275
60.1598
64.722
68.3154
71.4695
74.1378
76.3721
78.4815
80.4629
82.4568
84.5148
86.714
89.0246
91.4406
93.9367
96.4726
98.9763
101.329
103.292
104.476
69.3737
46.4091
41.3229
46.2789
52.6336
58.26
62.6291
66.571
69.698
72.3443
74.7527
76.8063
78.7747
80.7303
82.7783
84.8952
87.127
89.4567
91.8605
94.3
96.7096
98.9755
100.867
102.004
58.987
45.4415
39.7661
44.2307
50.5127
55.7819
60.7906
64.5677
67.911
70.7396
73.0098
75.146
77.1024
79.0358
80.9857
83.0612
85.223
87.4696
89.7825
92.1296
94.4489
96.6335
98.4591
99.5512
64.0768
44.29
37.6072
40.7072
47.2059
53.597
58.2099
62.6046
65.9927
68.776
71.3433
73.447
75.4221
77.3327
79.3149
81.3166
83.4065
85.5727
87.7981
90.0519
92.2797
94.3804
96.1364
97.1833
60.0404
43.3895
35.2875
38.0352
44.6036
50.1097
56.0743
60.2154
63.934
67.0868
69.4787
71.7283
73.7244
75.6513
77.5232
79.5021
81.5335
83.6226
85.7597
87.9242
90.0646
92.0877
93.7815
94.7843
56.3902
41.9295
33.3077
32.3097
39.0317
47.3702
52.4388
57.7998
61.7128
64.7861
67.6792
69.93
71.9894
73.9076
75.8749
77.7887
79.7543
81.7681
83.8216
85.8941
87.9451
89.8844
91.5092
92.4677
52.5484
40.8657
28.9721
28.5297
35.353
41.1976
49.7135
54.6007
59.1239
62.9197
65.5623
68.0574
70.184
72.1784
74.0065
75.9214
77.8417
79.7832
81.7489
83.7332
85.6973
87.5626
89.1286
90.0434
44.7609
38.9753
28.9657
11.5468
21.6696
37.3458
43.2671
51.2476
56.2799
59.958
63.5009
66.0493
68.3068
70.3006
72.3234
74.1807
76.0394
77.9091
79.7936
81.685
83.5591
85.339
86.8351
87.7046
20.4253
26.8047
14.5095
10.3973
19.1082
18.6071
39.409
45.9462
52.5924
57.7739
60.9001
63.8777
66.2701
68.4398
70.2613
72.1515
73.9807
75.7808
77.5737
79.375
81.1601
82.8678
84.3086
85.1343
11.8023
8.861
15.208
16.5911
4.74124
19.7302
18.6374
40.4763
48.2726
53.4145
58.3606
61.4692
64.1175
66.2817
68.465
70.303
72.071
73.7998
75.5116
77.2155
78.9073
80.5249
81.8907
82.67
6.21834
12.5445
8.38694
9.03666
18.7359
19.2463
10.509
25.3467
41.8788
50.6331
54.7636
58.7583
61.6465
64.1678
66.0217
67.9369
69.6957
71.3544
72.9637
74.5696
76.1659
77.712
79.0272
79.7597
9.80679
6.99375
4.93215
19.0014
20.0221
21.0994
11.8131
3.55381
31.5695
42.6742
51.3412
55.5491
58.9882
61.4758
63.9973
65.8662
67.5569
69.1399
70.6658
72.166
73.6619
75.1075
76.3386
77.0218
8.74713
12.608
9.67014
16.1772
22.8605
4.10706
23.7005
22.0452
20.7549
38.5269
45.2138
51.816
55.6838
58.9136
60.8409
62.8522
64.5658
66.0738
67.4731
68.8582
70.2448
71.6202
72.8083
73.4392
11.6139
20.1429
24.8491
24.6758
14.4704
11.0465
21.5419
25.3665
13.1552
10.267
40.0441
46.7625
52.074
55.174
58.4052
60.3881
62.0127
63.4334
64.7472
66.0133
67.2899
68.5467
69.6345
70.212
11.8342
19.2407
24.3604
28.5552
31.8596
23.7145
21.5993
14.85
18.0729
14.7306
22.9892
40.748
46.8997
51.7981
53.8268
56.0744
57.7886
59.1223
60.2566
61.3742
62.5145
63.71
64.7762
65.2911
11.5136
17.5899
24.1291
29.0192
31.016
33.306
25.3222
28.2166
30.1621
23.9995
8.70709
28.9928
41.1874
45.6807
50.675
52.9389
54.5079
55.7344
56.7919
57.7742
58.797
59.8426
60.777
61.2396
11.7188
14.3347
20.5703
26.1334
31.1983
33.0039
34.3788
24.757
27.7092
27.9335
16.3577
14.8815
30.8408
40.7002
42.5758
45.526
47.3888
48.4844
49.2271
49.9732
50.8098
51.8466
52.8496
53.2083
11.0104
14.3714
19.7735
24.8273
28.6909
32.4295
33.435
34.6091
19.7196
30.63
20.3971
6.73857
0.987874
26.1556
38.4448
41.2732
42.7704
43.762
44.4684
45.1157
45.8157
46.5572
47.3274
47.7923
8.9703
12.3038
16.9113
21.796
26.6155
30.0981
33.1378
33.2639
33.9251
19.4964
26.2425
25.2661
3.92229
12.9812
9.19054
21.1703
24.196
24.9693
24.3586
24.4257
24.5369
27.199
28.7809
27.755
7.87291
12.2886
15.1135
18.9044
22.8632
27.0585
30.2087
33.1055
32.5805
28.1593
22.656
27.2146
24.7
18.7628
17.7811
8.14853
22.3674
12.2964
23.4447
12.0895
24.156
31.2565
31.8298
15.3018
7.05858
12.7649
12.8558
15.1316
18.7903
22.7332
27.0468
30.1284
32.4998
32.0635
14.7807
14.6912
10.272
10.6923
7.20155
20.9694
29.1713
20.8317
30.8758
22.052
30.665
6.92592
7.75555
23.9181
3.32074
11.4468
12.223
13.2248
15.0542
18.4135
22.6003
27.252
29.9772
30.6648
30.3647
25.8458
7.13622
23.1773
27.0376
16.0601
22.0818
22.5068
24.5556
26.2553
5.66461
19.4766
17.1754
26.5064
4.87049
12.3909
11.7537
12.1915
13.0841
14.7336
18.4338
23.0735
27.4994
29.6579
28.4249
21.2286
23.0265
9.51388
9.48957
17.9621
6.78513
27.5829
22.9827
23.0693
11.8464
17.4821
32.5014
18.7215
3.58453
11.9078
11.9128
12.6291
13.0214
13.3828
14.8462
19.0668
23.8522
27.299
29.1739
29.0548
17.7034
20.0425
25.3341
15.9891
25.5538
22.426
26.5047
14.7441
13.7552
5.11789
7.50393
33.3
3.81188
11.4207
11.9032
12.6801
13.3241
13.5328
13.7019
15.3562
20.0249
24.5944
26.9849
28.1479
29.946
23.62
17.0904
12.1574
13.6069
16.4728
19.4859
20.1752
20.3227
18.6732
14.8522
13.4665
3.6274
11.5789
12.429
13.474
13.9023
13.9606
13.831
13.8779
16.0746
20.8625
25.0886
27.6765
28.5606
30.5588
31.2798
31.6217
31.781
31.8837
31.8667
32.0729
32.0048
31.9298
31.817
31.4776
3.66953
11.4166
13.1338
14.3759
14.866
14.7795
14.4081
13.9733
13.9966
16.902
21.4325
25.1557
28.2523
29.1849
29.6156
29.5514
29.5054
29.6643
29.8677
29.9369
29.723
29.0539
28.1375
27.1943
3.92399
12.1507
14.3967
15.7245
16.0953
15.9848
15.4171
14.6662
14.0983
14.2613
17.6631
22.0512
25.4171
28.3088
29.8313
30.3786
30.4643
30.4229
30.4163
30.4411
30.3029
29.9238
29.4162
28.6979
4.95562
13.2518
16.0671
17.2318
17.5656
17.4853
16.921
15.8558
14.9223
14.5596
15.0522
18.3044
22.3875
25.2669
27.165
28.0393
28.4145
28.7141
28.9819
29.1417
28.9728
28.3395
27.3525
26.2944
6.58119
15.2802
17.8479
18.8146
19.1414
19.1905
18.7294
17.7118
16.3314
15.5246
15.7769
17.0132
19.9219
23.3622
25.8817
27.4074
28.3031
28.9222
29.398
29.6886
29.6413
29.1118
28.2108
27.1725
8.48389
17.1122
19.5436
20.3859
20.7939
21.0116
20.7375
19.8623
18.6107
17.2481
16.8323
17.7834
19.6921
22.2686
24.834
26.7486
28.0925
29.1068
29.8656
30.3065
30.2832
29.6402
28.464
27.3142
10.6614
19.1312
21.2526
21.9246
22.4531
22.8837
22.8349
22.2115
21.1202
19.9588
19.0521
19.3303
20.9656
23.2971
25.673
27.7081
29.2984
30.5285
31.448
31.9892
32.0206
31.3805
30.1681
28.8734
12.9741
16.7761
20.304
23.8577
26.828
29.056
30.3642
30.7233
30.1344
28.7025
26.6369
24.1909
21.6522
19.2589
17.1701
15.4332
14.1252
13.1827
12.6346
12.4741
12.4705
12.6578
13.2352
14.2179
15.5482
17.3123
19.3893
21.7635
24.2354
26.5777
28.4749
29.705
30.046
29.4539
27.9103
25.5023
22.3833
18.8237
15.3541
11.8072
21.4062
22.8864
23.945
24.784
25.1813
25.2257
24.9201
24.3811
23.7103
23.0428
22.4823
22.0818
21.8587
21.7953
21.8671
22.0191
22.208
22.3848
22.5594
22.8293
22.792
22.4925
22.3124
22.1447
21.9522
21.799
21.7306
21.8084
22.0416
22.4547
23.0063
23.6517
24.2585
24.7205
24.9155
24.7718
24.2532
23.3374
22.1979
20.697
22.9038
23.543
23.9192
24.132
24.1607
24.0956
23.9618
23.8099
23.6655
23.5431
23.4566
23.4075
23.4059
23.4517
23.5519
23.6824
23.8137
23.91
23.9244
24.1941
24.1615
23.8885
23.8501
23.7904
23.6527
23.5073
23.4012
23.3569
23.3579
23.4082
23.4875
23.6027
23.7251
23.8549
23.945
23.9682
23.8724
23.5978
23.1447
22.4346
23.3985
23.8579
24.2943
24.5919
24.8452
25.0124
25.1429
25.2171
25.2765
25.3174
25.3775
25.4636
25.6134
25.8384
26.1579
26.5403
26.9155
27.1635
27.2198
27.5045
27.4766
27.1841
27.1195
26.8655
26.4789
26.0878
25.7685
25.549
25.4018
25.3149
25.2459
25.1922
25.111
25.0126
24.8501
24.6501
24.3575
24.0182
23.5375
23.0248
24.1446
24.7133
25.3591
25.7985
26.2258
26.5147
26.7744
26.95
27.12
27.2691
27.453
27.678
27.9906
28.4057
28.944
29.5708
30.197
30.6692
30.8791
31.105
31.0834
30.8389
30.6006
30.1094
29.4724
28.8451
28.3116
27.9022
27.5923
27.3649
27.1734
27.0093
26.8197
26.6164
26.3241
25.9963
25.5293
25.0451
24.3593
23.746
24.8483
25.5524
26.3626
26.9211
27.4784
27.8721
28.2426
28.5189
28.7972
29.0595
29.3688
29.7312
30.1948
30.7745
31.4884
32.3004
33.1193
33.7894
34.1872
34.4456
34.4209
34.1284
33.6933
32.9996
32.1713
31.3614
30.6543
30.0812
29.6206
29.2555
28.9385
28.6607
28.3625
28.0556
27.6496
27.212
26.6101
26.0006
25.1441
24.3917
25.1061
25.9858
26.9801
27.6958
28.4046
28.935
29.4344
29.8321
30.2269
30.61
31.0428
31.5342
32.1279
32.8361
33.671
34.5942
35.5186
36.3011
36.8198
37.1053
37.0787
36.75
36.1904
35.3818
34.4467
33.5243
32.6949
31.9921
31.4001
30.9057
30.4638
30.0649
29.6468
29.2137
28.6736
28.0939
27.3346
26.5617
25.5133
24.5795
24.8409
25.958
27.1823
28.1047
28.9972
29.6971
30.3461
30.8841
31.4027
31.9043
32.4509
33.052
33.7464
34.5405
35.4389
36.4018
37.3499
38.1609
38.7246
39.0148
38.9887
38.6522
38.0475
37.2088
36.2471
35.2812
34.3846
33.5928
32.8977
32.2917
31.734
31.2148
30.6682
30.0905
29.3961
28.6408
27.6908
26.7031
25.4164
24.2373
24.1353
25.5275
27.0238
28.191
29.2954
30.1873
30.9994
31.6847
32.3278
32.937
33.5786
34.2617
35.0206
35.8553
36.7642
37.7074
38.6165
39.3922
39.9412
40.2151
40.1909
39.872
39.2836
38.4795
37.5536
36.6024
35.6906
34.8534
34.0907
33.3993
32.7442
32.1143
31.4379
30.7072
29.8435
28.8906
27.7227
26.4846
24.9218
23.4646
23.1227
24.8299
26.5863
28.0184
29.345
30.4364
31.4173
32.2481
33.0101
33.7103
34.4218
35.1554
35.9403
36.7737
37.6489
38.5293
39.3583
40.0584
40.5552
40.7983
40.7768
40.492
39.9585
39.2297
38.3811
37.488
36.6047
35.7639
34.9712
34.2254
33.4974
32.7703
31.9703
31.0941
30.0577
28.9074
27.5106
26.0156
24.1877
22.4335
22.2593
24.0282
26.0765
27.6933
29.2514
30.516
31.6585
32.6176
33.4825
34.2576
35.0124
35.7665
36.5425
37.3398
38.1481
38.9378
39.6634
40.2675
40.6929
40.8979
40.879
40.6369
40.1775
39.5455
38.7983
37.9922
37.1713
36.3623
35.5749
34.8052
34.032
33.2271
32.3259
31.3192
30.1269
28.8028
27.1891
25.5213
23.4229
21.6749
21.9671
23.6623
25.7307
27.5062
29.1732
30.5964
31.846
32.9165
33.8528
34.6822
35.4559
36.206
36.948
37.6851
38.407
39.0919
39.7054
40.2069
40.5557
40.7207
40.7046
40.5071
40.1279
39.5999
38.9642
38.2612
37.5239
36.7728
36.0169
35.2508
34.4582
33.6018
32.6321
31.5233
30.2341
28.7696
27.0744
25.2717
23.2292
21.5484
22.7071
24.162
26.0345
27.7763
29.4566
30.9264
32.2342
33.3566
34.3364
35.1892
35.9666
36.6958
37.3938
38.0625
38.6958
39.278
39.7858
40.1921
40.47
40.5988
40.5855
40.4296
40.1258
39.6962
39.168
38.5683
37.9197
37.2372
36.5264
35.7835
34.991
34.1188
33.1169
31.9724
30.6441
29.1622
27.4798
25.7591
23.9352
22.5529
24.4696
25.5758
27.1833
28.7528
30.3453
31.7714
33.0692
34.1943
35.1804
36.0351
36.8076
37.517
38.178
38.7919
39.355
39.8569
40.2828
40.6159
40.8396
40.9416
40.9313
40.8085
40.5645
40.2128
39.7702
39.2539
38.6783
38.0536
37.3829
36.6646
35.8835
35.0192
34.0243
32.8937
31.5954
30.1774
28.6048
27.0722
25.5197
24.4869
26.6246
27.4552
28.8514
30.2448
31.7242
33.0783
34.3365
35.4409
36.4179
37.2752
38.0523
38.7594
39.4074
39.9961
40.5232
40.9813
41.3613
41.6525
41.8454
41.9327
41.9251
41.8227
41.6148
41.3095
40.9171
40.4481
39.9119
39.3158
38.6619
37.9504
37.1701
36.3114
35.3344
34.2337
32.9838
31.6457
30.1904
28.833
27.4799
26.7001
28.6332
29.3237
30.5873
31.8539
33.2395
34.5298
35.751
36.8382
37.813
38.6862
39.4822
40.2061
40.8641
41.4549
41.9762
42.4222
42.7868
43.063
43.2445
43.3269
43.3214
43.2277
43.0349
42.7483
42.3743
41.9202
41.3924
40.7967
40.1352
39.4095
38.6136
37.7425
36.772
35.6927
34.4832
33.2097
31.8458
30.6069
29.3735
28.7147
30.3272
30.9772
32.1782
33.3667
34.6865
35.9263
37.1144
38.1849
39.1624
40.0513
40.8671
41.6106
42.2846
42.8868
43.4143
43.8625
44.2262
44.5002
44.68
44.7624
44.7582
44.6674
44.479
44.1971
43.8265
43.3725
42.8405
42.2352
41.5595
40.8161
40.002
39.1168
38.1452
37.0835
35.9071
34.6823
33.3797
32.2116
31.0305
30.4017
31.7063
32.3617
33.5513
34.6965
35.9763
37.1784
38.3392
39.3933
40.3716
41.269
42.0965
42.8519
43.5361
44.146
44.6787
45.1297
45.4946
45.769
45.9493
46.0327
46.0296
45.9399
45.7534
45.4731
45.1033
44.6482
44.1126
43.5008
42.8161
42.0617
41.2366
40.3432
39.371
38.3253
37.1746
35.9848
34.7183
33.5878
32.4125
31.7713
32.7523
33.4322
34.6295
35.7553
37.0126
38.1895
39.3297
40.3707
41.3457
42.2445
43.0754
43.8342
44.5213
45.1328
45.666
46.1166
46.4807
46.7544
46.9345
47.0186
47.0163
46.9278
46.7431
46.4651
46.0974
45.644
45.1088
44.4962
43.8093
43.0517
42.2234
41.3283
40.3586
39.3247
38.1934
37.027
35.7803
34.6667
33.4788
32.8116
33.3677
34.0662
35.2696
36.385
37.6289
38.7897
39.9171
40.952
41.9246
42.8228
43.6535
44.4119
45.0979
45.7079
46.239
46.6872
47.0492
47.3212
47.5005
47.5846
47.5828
47.4953
47.3125
47.0372
46.6726
46.2221
45.6896
45.0789
44.393
43.6358
42.8072
41.9123
40.9442
39.9152
38.7954
37.6435
36.4085
35.3031
34.1076
33.4201
33.4032
34.1059
35.2986
36.4023
37.6324
38.7822
39.9011
40.9322
41.9032
42.8011
43.6318
44.39
45.0755
45.6845
46.2142
46.6611
47.0217
47.2927
47.4713
47.5554
47.5539
47.467
47.2854
47.0117
46.6488
46.2001
45.6691
45.0595
44.374
43.6167
42.7879
41.8929
40.9259
39.9002
38.7886
37.6474
36.4257
35.3316
34.1474
33.4535
32.6841
33.373
34.526
35.61
36.8207
37.9623
39.0772
40.1089
41.0822
41.984
42.819
43.5818
44.2715
44.8842
45.4171
45.8665
46.229
46.5016
46.6814
46.7663
46.765
46.6778
46.4956
46.2209
45.8565
45.4056
44.8718
44.2587
43.5693
42.8075
41.9744
41.0755
40.1063
39.0801
37.9727
36.8393
35.6377
34.5623
33.4187
32.7366
31.2802
31.9443
33.0186
34.0749
35.2533
36.3875
37.4993
38.5353
39.5145
40.4255
41.2702
42.0434
42.7431
43.3653
43.9067
44.3635
44.7321
45.0094
45.1924
45.279
45.2779
45.1894
45.0046
44.7258
44.3558
43.898
43.3562
42.734
42.0351
41.2635
40.4212
39.5138
38.5394
37.5099
36.4068
35.2829
34.1147
33.0699
32.0053
31.3526
29.8956
30.5417
31.5468
32.58
33.7331
34.8618
35.9751
37.0167
38.0032
38.9229
39.7775
40.5608
41.2707
41.9025
42.4526
42.9171
43.2921
43.5743
43.7608
43.8492
43.8485
43.7587
43.5713
43.2882
42.9126
42.4479
41.8982
41.2674
40.5593
39.7787
38.9277
38.0131
37.0324
36.0009
34.8943
33.7841
32.6242
31.6331
30.5788
30.0261
72.4843
51.7772
54.6609
62.9587
69.3581
74.4599
78.5575
82.0078
85.0875
87.8832
90.5095
93.0526
95.5783
98.1899
100.942
103.867
106.959
110.202
113.56
116.972
120.332
123.473
126.085
127.679
85.9794
51.2193
53.2231
61.311
67.6628
72.7208
76.7975
80.2678
83.2883
86.0463
88.6146
91.0546
93.496
96.012
98.6685
101.484
104.465
107.594
110.834
114.126
117.37
120.404
122.927
124.466
73.5985
50.494
51.8658
59.6809
65.9381
70.9816
75.0896
78.5256
81.5691
84.2549
86.7285
89.1101
91.4553
93.8763
96.4266
99.143
102.016
105.031
108.155
111.329
114.457
117.385
119.821
121.305
67.6744
49.6165
50.3732
57.9473
64.2106
69.2543
73.3448
76.8447
79.8226
82.4815
84.9259
87.2055
89.476
91.8086
94.2737
96.8836
99.6517
102.557
105.566
108.625
111.64
114.463
116.812
118.243
58.4162
48.4897
48.9983
56.2975
62.4628
67.4998
71.685
75.1364
78.1689
80.7865
83.1301
85.374
87.5589
89.8073
92.1703
94.6931
97.3599
100.159
103.059
106.007
108.913
111.636
113.903
115.281
72.859
47.9941
47.4644
54.438
60.6701
65.7777
69.9194
73.4921
76.4581
79.0654
81.4273
83.5776
85.7041
87.8763
90.1719
92.5951
95.166
97.8637
100.657
103.497
106.298
108.922
111.108
112.436
63.4706
47.4743
46.082
52.7461
58.8778
63.9447
68.272
71.77
74.8323
77.4394
79.7015
81.8484
83.9061
86.0096
88.2072
90.5568
93.0365
95.637
98.329
101.065
103.764
106.296
108.406
109.684
74.445
46.8444
44.4546
50.653
56.9095
62.183
66.4072
70.1107
73.1158
75.7169
78.0654
80.1368
82.1595
84.202
86.3564
88.6147
91.0076
93.5149
96.1081
98.7429
101.344
103.783
105.818
107.048
68.0353
47.1364
43.0329
48.8378
55.0079
60.1428
64.7121
68.3069
71.4619
74.1245
76.361
78.4721
80.451
82.4475
84.5065
86.7072
89.0195
91.437
93.9359
96.4735
98.9796
101.333
103.298
104.482
58.2156
45.2755
41.208
46.2904
52.6301
58.256
62.6152
66.5534
69.6773
72.3328
74.74
76.7928
78.7656
80.7201
82.7697
84.888
87.1219
89.454
91.8596
94.3016
96.7133
98.9811
100.874
102.011
58.6896
45.0596
39.524
44.1666
50.484
55.752
60.7739
64.5585
67.9094
70.7258
72.9972
75.1359
77.0893
79.0261
80.9768
83.0545
85.2183
87.4668
89.783
92.1317
94.4539
96.64
98.467
99.5602
65.8654
44.6722
37.5678
40.7479
47.2107
53.6044
58.2001
62.5856
65.9608
68.761
71.3296
73.4317
75.4122
77.3216
79.3064
81.3092
83.4016
85.5709
87.7981
90.0549
92.2851
94.3877
96.1448
97.1927
60.2087
43.3792
35.1862
37.842
44.5316
50.0469
56.0424
60.1983
63.9399
67.0742
69.4646
71.7185
73.7106
75.6413
77.5134
79.4958
81.5294
83.6207
85.7619
87.9285
90.0721
92.0963
93.7916
94.7958
59.9535
42.3368
33.2578
32.6747
39.1114
47.4187
52.4427
57.7902
61.6698
64.7665
67.6634
69.91
71.977
73.8949
75.8665
77.7812
79.7499
81.7677
83.8233
85.8996
87.9527
89.8947
91.5206
92.4798
53.6463
40.6193
28.8031
27.4949
35.1083
41.0302
49.6447
54.5489
59.1307
62.9027
65.5462
68.0514
70.1715
72.1685
73.9959
75.9153
77.8385
79.7825
81.7537
83.7403
85.7083
87.5744
89.1422
90.0585
44.1855
38.4276
28.3933
15.1382
21.981
37.5244
43.3096
51.2943
56.2343
59.9449
63.4827
66.0182
68.2876
70.2849
72.3144
74.1732
76.0358
77.9107
79.7973
81.6937
83.5699
85.3531
86.8497
87.7208
20.1173
26.502
14.178
16.8678
18.5992
17.8465
39.2646
45.7562
52.5823
57.7271
60.8774
63.8798
66.2622
68.4303
70.25
72.1457
73.979
75.7818
77.5824
79.3859
81.1763
82.8844
84.3271
85.1546
9.18103
10.4876
9.30622
16.6602
17.4004
19.6849
18.6416
40.7111
48.2241
53.4418
58.3427
61.4214
64.0866
66.2614
68.455
70.2958
72.0684
73.8045
75.5181
77.2285
78.9223
80.5439
81.9104
82.6908
10.3568
7.9838
7.95354
8.39455
7.20295
6.26823
12.6482
24.8717
41.8733
50.5037
54.7239
58.7666
61.6431
64.1581
66.0079
67.9312
69.6962
71.3577
72.9783
74.5865
76.1901
77.7352
79.0527
79.7876
7.3325
10.3999
16.4107
18.4164
20.2089
21.2805
21.0923
23.2254
31.8581
42.7834
51.323
55.4821
58.944
61.4499
63.9905
65.8595
67.5558
69.1498
70.6765
72.1853
73.6825
75.1338
76.3648
77.0491
5.13325
12.7299
10.7089
21.1648
7.1692
16.4169
14.9586
21.7406
4.32412
38.2183
45.1468
51.8279
55.6811
58.9005
60.8132
62.8468
64.5698
66.0802
67.4974
68.884
70.2817
71.6537
72.8449
73.4792
11.478
20.1157
24.8571
25.7803
14.7037
26.6211
25.5323
3.27351
12.6261
10.26
39.9734
46.6379
51.9967
55.1397
58.4201
60.3829
62.0146
63.4523
64.7643
66.0434
67.3185
68.5838
69.6696
70.2485
11.5101
19.309
24.4813
28.5924
31.9729
24.756
30.2397
22.6944
18.2799
14.8876
22.6103
40.7372
46.9264
51.7796
53.749
56.0685
57.7984
59.1341
60.299
61.4135
62.5744
63.7611
64.8329
65.3536
11.7368
17.6729
24.2406
29.1686
31.1983
33.4247
26.3328
23.108
15.4541
25.7153
18.5133
29.5233
41.059
45.6188
50.7539
52.938
54.5174
55.7686
56.8199
57.8242
58.8378
59.8977
60.8246
61.2856
11.5755
14.5073
20.7319
26.3104
31.3741
33.2121
34.5285
25.0375
31.7989
20.9816
25.303
25.1864
29.8253
40.6684
42.4018
45.5268
47.403
48.5165
49.3072
50.052
50.926
51.9364
52.9484
53.3387
11.194
14.5697
19.9322
24.9946
28.8815
32.6129
33.6441
34.7981
20.9611
26.1733
19.8281
24.052
22.723
26.0796
38.4547
41.1991
42.8235
43.806
44.5453
45.1065
45.8672
46.6476
47.4725
47.8038
10.4865
12.43
17.0082
21.9239
26.7515
30.2564
33.2941
33.4667
34.2872
14.8909
29.0858
24.6809
6.91198
12.7372
10.7791
22.2809
24.4257
24.897
24.8718
25.8423
25.0068
27.5053
27.7633
28.0251
5.15945
11.8556
15.1051
18.9266
22.8955
27.0939
30.2776
33.2153
32.8191
29.6725
15.5306
13.1804
24.9612
18.7407
17.1594
26.631
12.0905
23.0554
12.4685
29.9737
24.1976
31.6912
25.7089
25.9831
7.98452
11.8361
12.8647
15.07
18.6711
22.6044
26.9404
30.1484
32.6529
32.2606
17.5345
11.9409
8.89354
13.3387
27.0361
8.08581
20.2882
28.857
22.8289
6.79055
31.1182
12.4299
31.4889
31.7762
3.56024
12.4841
12.2064
13.1575
14.8896
18.1324
22.2937
27.0562
30.0458
31.0015
30.5985
21.1715
27.0556
11.7777
22.1065
27.3602
22.0409
28.535
4.17508
18.5483
17.2751
31.393
30.7172
30.7765
4.79369
11.5942
11.8015
12.2745
13.0758
14.5081
17.9921
22.6628
27.3492
29.8005
28.8718
22.0153
24.4209
25.8748
16.3606
29.2667
25.32
10.1197
28.8274
18.2391
22.3476
17.8518
9.27959
31.7518
3.49071
12.0687
11.9695
12.7314
13.186
13.4714
14.5714
18.5123
23.4652
27.2927
29.3675
29.3106
18.6345
7.29362
27.5791
20.9971
27.3336
29.0243
23.8275
9.4418
33.5754
12.3417
32.6794
32.5058
3.75977
11.4631
11.9771
12.8286
13.4962
13.7573
13.8292
14.9777
19.4524
24.3268
27.0685
28.3785
30.0895
24.4762
17.4634
12.1594
13.9355
16.8093
18.9859
20.1933
21.0905
17.7536
15.3204
13.7843
3.60681
11.6376
12.5881
13.7109
14.181
14.2322
14.1096
13.9862
15.5955
20.3957
24.9986
27.7653
28.6753
30.615
31.2654
31.5821
31.7961
31.8002
31.8407
32.0825
31.9856
31.9376
31.7878
31.4763
3.67688
11.4073
13.389
14.7064
15.2119
15.1646
14.7631
14.2906
14.0517
16.4103
21.0922
25.1627
28.4026
29.2267
29.6161
29.5602
29.4944
29.6237
29.8189
29.821
29.6433
29.0273
28.1361
27.3483
3.98586
11.6495
14.764
16.1354
16.5079
16.4293
15.9064
15.0779
14.4438
14.2672
17.2869
21.7895
25.2985
28.2954
29.8104
30.3599
30.447
30.368
30.3827
30.4332
30.288
29.8943
29.4009
28.794
5.43567
14.0251
16.6434
17.6976
18.012
17.9794
17.4691
16.4404
15.359
14.9082
15.0276
18.0919
22.3003
25.1697
27.1005
27.9923
28.3651
28.6511
28.9186
29.0574
28.9123
28.2969
27.2821
26.2856
7.14665
15.8175
18.3587
19.2706
19.5955
19.6987
19.3145
18.3526
16.9862
15.9343
16.0368
16.889
19.615
23.1736
25.7456
27.312
28.2281
28.8456
29.3382
29.6396
29.5817
29.0509
28.1399
27.1839
9.32202
17.8326
20.1132
20.8395
21.2425
21.5187
21.3221
20.5282
19.3095
17.9241
17.1967
17.9755
19.6723
22.0982
24.6823
26.6354
28.0018
29.029
29.7954
30.2403
30.2239
29.5827
28.3803
27.1838
11.3406
19.8128
21.759
22.3337
22.8799
23.3729
23.4019
22.8607
21.8318
20.6467
19.6407
19.5665
20.9692
23.205
25.5503
27.6003
29.2116
30.4534
31.3853
31.934
31.9626
31.3199
30.0905
28.8611
71.6901
70.2615
73.5912
59.866
63.8953
59.2963
59.7389
60.1724
62.3838
55.3445
13.2327
50.302
11.2078
22.4461
12.8127
16.5179
14.1543
14.686
13.9832
13.879
13.8799
13.9506
14.9845
12.568
19.4175
7.63127
22.5231
2.36586
31.8937
22.5681
53.8826
57.3038
63.5046
58.7613
59.1603
71.9353
67.3837
58.1481
76.8965
81.3597
50.7572
48.8672
47.044
45.438
43.776
41.8941
40.9111
38.9636
37.4491
35.8025
34.9581
33.9768
33.5918
32.503
32.4129
31.7854
31.4728
31.129
30.9524
30.8265
30.8265
30.955
31.1017
31.5883
31.5611
32.5831
32.5639
33.6041
33.9492
34.934
35.5824
38.0037
38.6344
40.7593
41.8612
44.1918
45.4624
47.0957
48.4189
50.6811
55.132
53.5504
53.0321
51.5279
50.935
49.5564
48.9277
47.7363
47.1344
46.1273
45.4789
44.6237
44.0574
43.4622
42.9344
42.5031
42.1524
41.889
41.6948
41.5913
41.5914
41.6942
41.8969
42.1285
42.5369
42.9256
43.4371
44.0663
44.6381
45.4986
46.12
47.107
47.7494
48.9301
49.5536
50.9242
51.5286
53.0409
53.5596
55.1469
63.58
62.0266
61.4723
59.9896
59.3106
57.9573
57.2204
56.0296
55.2944
54.3024
53.6107
52.7995
52.1827
51.5611
51.066
50.6227
50.2715
49.9978
49.8126
49.7082
49.7084
49.8131
49.9963
50.2787
50.6144
51.0697
51.5663
52.1846
52.8098
53.6101
54.299
55.2932
56.0281
57.2176
57.955
59.3148
59.997
61.4807
62.0358
63.588
69.9764
68.3789
67.7391
66.2397
65.4836
64.1353
63.3292
62.1592
61.3572
60.377
59.6261
58.8272
58.1765
57.5569
57.0375
56.5888
56.2315
55.9564
55.7663
55.6634
55.6635
55.7666
55.958
56.2295
56.5927
57.0393
57.5564
58.1793
58.8313
59.6288
60.3772
61.3581
62.1615
63.3318
64.1378
65.4888
66.2448
67.7466
68.385
69.9849
75.0418
73.423
72.698
71.1964
70.3651
69.0291
68.1564
67.0028
66.1489
65.1779
64.3944
63.5969
62.9266
62.3004
61.774
61.3204
60.9561
60.677
60.4864
60.383
60.3831
60.4869
60.6773
60.9583
61.3206
61.7754
62.3027
62.9292
63.5999
64.3967
65.1796
66.1513
67.0059
68.1599
69.0331
70.3701
71.202
72.7048
73.4292
75.0502
79.0979
77.4576
76.6647
75.1646
74.2758
72.953
72.0343
70.8917
70.0055
69.0376
68.2351
67.4363
66.7554
66.1262
65.5926
65.1353
64.7682
64.4869
64.2941
64.1908
64.1909
64.2946
64.4879
64.7687
65.137
65.5945
66.128
66.7577
67.4391
68.2379
69.0405
70.0089
70.8954
72.0384
72.9575
74.2812
75.1706
76.6713
77.4648
79.1056
82.5358
80.8699
80.0292
78.531
77.5988
76.2834
75.3319
74.1924
73.2845
72.314
71.4972
70.6939
70.003
69.3685
68.8286
68.3668
67.9945
67.7095
67.5143
67.4088
67.409
67.5148
67.7102
67.9959
68.3681
68.8303
69.3707
70.0055
70.6967
71.5004
72.3174
73.2882
74.1965
75.3366
76.2884
77.6046
78.5372
80.0363
80.8773
82.5438
85.5812
83.9046
83.0202
81.52
80.5568
79.2381
78.2653
77.1197
76.1961
75.2185
74.3893
73.5788
72.8779
72.2366
71.6888
71.221
70.8431
70.5532
70.3536
70.2449
70.245
70.3542
70.5541
70.8442
71.2226
71.6908
72.2388
72.8805
73.5817
74.3925
75.2222
76.2001
77.1242
78.2702
79.2434
80.5629
81.5262
83.0276
83.9119
85.59
88.4146
86.6782
85.7933
84.2586
83.2871
81.9477
80.9619
79.8026
78.8644
77.8762
77.0332
76.2132
75.5009
74.851
74.2943
73.8191
73.4341
73.1383
72.9338
72.8206
72.8208
72.9343
73.1392
73.4354
73.8207
74.2963
74.8533
75.5036
76.2163
77.0366
77.8799
78.8685
79.8072
80.9669
81.9533
83.2932
84.2652
85.8006
86.6857
88.4234
91.0869
89.2918
88.4036
86.8375
85.8511
84.4932
83.4887
82.3159
81.3596
80.3593
79.5008
78.6695
77.9445
77.2844
76.7179
76.234
75.8414
75.5389
75.3286
75.2103
75.2105
75.3292
75.5399
75.8427
76.2356
76.7198
77.2867
77.9472
78.6725
79.5042
80.3632
81.3638
82.3206
83.4938
84.4989
85.8571
86.8442
88.4108
89.2996
91.0954
93.6615
91.8177
90.9224
89.3245
88.3237
86.9435
85.922
84.7314
83.7584
82.7429
81.8694
81.0249
80.2872
79.6161
79.0392
78.5464
78.1458
77.8366
77.6203
77.4967
77.4969
77.6208
77.8375
78.1471
78.548
79.0411
79.6184
80.2899
81.0279
81.8728
82.7467
83.7626
84.736
85.9271
86.949
88.3297
89.331
90.9295
91.8254
93.6699
96.2454
94.333
93.4467
91.8047
90.7976
89.3883
88.3531
87.1415
86.1525
85.1204
84.2315
83.3733
82.6224
81.94
81.3524
80.8505
80.442
80.1259
79.9037
79.7748
79.775
79.9042
80.1267
80.4432
80.8521
81.3543
81.9422
82.625
83.3762
84.2348
85.1241
86.1565
87.146
88.358
89.3936
90.8034
91.8111
93.4535
94.3405
96.2531
98.913
96.9349
96.0537
94.3693
93.352
91.9146
90.8625
89.63
88.6227
87.5736
86.6679
85.7953
85.0303
84.3357
83.7371
83.2257
82.8089
82.4859
82.2579
82.1238
82.124
82.2584
82.4867
82.81
83.2272
83.7388
84.3379
85.0327
85.798
86.671
87.5771
88.6265
89.6342
90.8672
91.9196
93.3577
94.375
96.0605
96.9416
98.9209
101.726
99.6777
98.8014
97.0714
96.0423
94.5742
93.5031
92.2474
91.2202
90.152
89.228
88.3393
87.5593
86.8512
86.2407
85.7191
85.2934
84.9634
84.7295
84.5902
84.5906
84.7299
84.9642
85.2947
85.7204
86.242
86.8533
87.5614
88.3419
89.2306
90.155
91.2233
92.2514
93.5072
94.5788
96.0474
97.0766
98.8071
99.684
101.733
104.707
102.589
101.711
99.9362
98.89
97.3907
96.2968
95.0168
93.9661
92.8777
91.933
91.0269
90.2298
89.5075
88.8834
88.3511
87.9163
87.5783
87.3382
87.194
87.1944
87.3386
87.5788
87.9171
88.3523
88.8851
89.5092
90.2315
91.029
91.9356
92.8803
93.9696
95.0199
96.3007
97.3947
98.8946
99.9408
101.717
102.595
104.713
107.859
105.667
104.787
102.962
101.898
100.364
99.2451
97.9381
96.8626
95.7509
94.7843
93.8589
93.0431
92.3051
91.6668
91.1222
90.6773
90.3315
90.085
89.9359
89.9359
90.0854
90.3319
90.6781
91.1234
91.668
92.3063
93.0447
93.8605
94.7864
95.7534
96.8651
97.9406
99.2485
100.367
101.902
102.966
104.791
105.671
107.864
111.164
108.895
108.011
106.137
105.05
103.48
102.334
100.998
99.8957
98.76
97.7692
96.823
95.9874
95.2322
94.5789
94.0214
93.5658
93.2115
92.9588
92.8046
92.8046
92.9588
93.2119
93.5666
94.0225
94.5797
95.2334
95.9885
96.8242
97.7708
98.7616
99.8977
101
102.337
103.483
105.053
106.14
108.014
108.899
111.168
114.586
112.239
111.348
109.424
108.313
106.707
105.531
104.166
103.035
101.873
100.857
99.8887
99.0323
98.2595
97.5902
97.0195
96.5525
96.1897
95.9299
95.771
95.771
95.9303
96.19
96.5533
97.0199
97.5909
98.2602
99.0334
99.8899
100.858
101.874
103.036
104.167
105.533
106.709
108.315
109.426
111.35
112.241
114.588
118.061
115.637
114.737
112.763
111.626
109.984
108.778
107.383
106.222
105.034
103.992
103.002
102.124
101.332
100.647
100.063
99.5844
99.2125
98.9461
98.7825
98.7825
98.9464
99.2125
99.5847
100.063
100.647
101.333
102.124
103.002
103.993
105.035
106.223
107.383
108.779
109.985
111.628
112.764
114.739
115.638
118.062