/*--------------------------------*- C++ -*----------------------------------*\
  =========                 |
  \\      /  F ield         | OpenFOAM: The Open Source CFD Toolbox
   \\    /   O peration     | Website:  https://openfoam.org
    \\  /    A nd           | Version:  6
     \\/     M anipulation  |
\*---------------------------------------------------------------------------*/
FoamFile
{
    version     2.0;
    format      ascii;
    class       volScalarField;
    location    "43";
    object      p;
}
// * * * * * * * * * * * * * * * * * * * * * * * * * * * * * * * * * * * * * //

dimensions      [0 2 -2 0 0 0 0];

internalField   nonuniform List<scalar> 
380496
(
0.0142014
0.0146753
0.0142753
0.0141744
0.0140628
0.0139481
0.0138393
0.0137303
0.0136216
0.0135138
0.0134071
0.0133018
0.0131977
0.0130951
0.0129938
0.0128936
0.0127943
0.0126954
0.0125967
0.0124976
0.0123976
0.0122961
0.0121926
0.0120863
0.0119766
0.0118628
0.0117443
0.0116201
0.0114902
0.0113531
0.0112104
0.0110581
0.010906
0.0107354
0.0105943
0.0141768
0.0146435
0.0142556
0.014159
0.0140506
0.0139376
0.0138289
0.0137189
0.0136084
0.0134981
0.0133882
0.013279
0.0131707
0.0130633
0.0129566
0.0128505
0.0127448
0.012639
0.0125329
0.012426
0.0123178
0.0122077
0.0120953
0.0119798
0.0118609
0.0117376
0.0116099
0.0114764
0.0113376
0.0111912
0.01104
0.0108764
0.0107153
0.0105205
0.0103691
0.0141489
0.0146107
0.0142341
0.0141423
0.0140369
0.0139251
0.013816
0.0137043
0.0135911
0.0134774
0.0133635
0.0132497
0.0131361
0.0130229
0.0129099
0.0127969
0.0126836
0.0125698
0.0124551
0.0123389
0.0122209
0.0121005
0.0119773
0.0118506
0.0117201
0.011585
0.0114452
0.0112995
0.0111488
0.0109905
0.0108287
0.0106543
0.0104868
0.0102837
0.0101358
0.0141131
0.0145751
0.0142122
0.0141269
0.0140256
0.0139158
0.0138066
0.0136938
0.0135785
0.013462
0.0133447
0.0132269
0.013109
0.0129908
0.0128725
0.0127537
0.0126342
0.0125138
0.0123919
0.0122683
0.0121426
0.0120141
0.0118826
0.0117474
0.0116084
0.0114647
0.0113164
0.0111624
0.0110036
0.0108374
0.0106683
0.0104857
0.0103114
0.0100978
0.00994426
0.0140806
0.0145372
0.0141907
0.0141125
0.0140152
0.013907
0.0137976
0.0136831
0.0135653
0.0134455
0.0133244
0.0132024
0.0130797
0.0129564
0.0128324
0.0127076
0.0125817
0.0124543
0.0123252
0.0121939
0.0120601
0.0119233
0.0117832
0.0116392
0.0114913
0.0113387
0.0111815
0.0110188
0.0108516
0.0106772
0.0105008
0.0103112
0.0101319
0.00991282
0.00975886
0.0140348
0.0144966
0.014169
0.0140994
0.0140071
0.0139008
0.0137912
0.0136752
0.013555
0.0134323
0.0133076
0.0131818
0.0130548
0.0129269
0.0127979
0.0126678
0.0125361
0.0124027
0.0122673
0.0121294
0.0119887
0.0118449
0.0116977
0.0115465
0.0113914
0.0112316
0.0110675
0.0108981
0.0107245
0.0105441
0.0103621
0.0101671
0.00998347
0.00975909
0.0096027
0.0139863
0.0144541
0.014148
0.0140881
0.0140012
0.0138966
0.0137864
0.0136686
0.0135458
0.0134198
0.0132916
0.0131617
0.0130305
0.012898
0.0127641
0.0126287
0.0124915
0.0123523
0.0122107
0.0120664
0.0119192
0.0117687
0.0116146
0.0114566
0.0112946
0.0111281
0.0109574
0.0107817
0.0106022
0.0104162
0.0102293
0.0100297
0.0098429
0.009615
0.00945832
0.0139278
0.0144107
0.014129
0.0140799
0.0139985
0.0138953
0.0137842
0.0136644
0.0135389
0.0134098
0.0132782
0.0131446
0.0130094
0.0128727
0.0127343
0.0125942
0.012452
0.0123076
0.0121606
0.0120108
0.0118579
0.0117015
0.0115416
0.0113778
0.0112101
0.011038
0.010862
0.0106812
0.010497
0.0103067
0.0101161
0.00991302
0.00972384
0.00949294
0.00933603
0.013858
0.0143674
0.0141116
0.0140748
0.013999
0.0138967
0.0137845
0.0136625
0.0135342
0.0134021
0.0132671
0.0131301
0.0129913
0.0128508
0.0127085
0.0125642
0.0124177
0.0122687
0.012117
0.0119624
0.0118045
0.0116432
0.0114783
0.0113096
0.011137
0.0109603
0.0107798
0.0105949
0.0104069
0.010213
0.0100195
0.0098137
0.00962294
0.0093898
0.0092334
0.013788
0.0143322
0.0141
0.0140744
0.014003
0.0139006
0.0137868
0.0136624
0.0135315
0.0133965
0.0132587
0.0131187
0.0129768
0.0128332
0.0126875
0.0125398
0.0123896
0.012237
0.0120815
0.0119229
0.0117611
0.0115958
0.0114269
0.0112543
0.011078
0.0108976
0.0107138
0.0105256
0.0103348
0.0101384
0.00994286
0.0097351
0.00954342
0.00930844
0.0091529
0.0136961
0.014297
0.0140891
0.0140766
0.0140098
0.0139068
0.0137911
0.0136641
0.0135304
0.0133927
0.0132521
0.0131093
0.0129646
0.012818
0.0126694
0.0125185
0.0123652
0.0122093
0.0120504
0.0118885
0.0117232
0.0115545
0.0113822
0.0112062
0.0110266
0.0108433
0.0106565
0.0104658
0.0102726
0.0100742
0.0098771
0.00966782
0.00947568
0.0092392
0.00908514
0.0136026
0.0142732
0.0140847
0.014084
0.0140199
0.0139149
0.0137967
0.0136669
0.0135304
0.0133901
0.0132469
0.0131017
0.0129544
0.0128053
0.012654
0.0125006
0.0123445
0.0121858
0.0120241
0.0118593
0.0116911
0.0115195
0.0113443
0.0111656
0.0109834
0.0107976
0.0106085
0.0104157
0.0102208
0.0100208
0.0098226
0.0096122
0.00941997
0.00918213
0.00902995
0.0134784
0.0142537
0.0140818
0.0140949
0.014033
0.0139253
0.0138041
0.0136713
0.013532
0.013389
0.0132434
0.0130958
0.0129462
0.0127948
0.0126413
0.0124855
0.0123271
0.012166
0.0120018
0.0118346
0.0116639
0.0114899
0.0113123
0.0111314
0.0109469
0.0107591
0.0105682
0.0103737
0.0101774
0.00997628
0.00977728
0.00956613
0.00937415
0.00913534
0.0089856
0.0133486
0.0142503
0.0140853
0.0141104
0.0140482
0.0139365
0.013812
0.013676
0.0135339
0.0133885
0.0132407
0.013091
0.0129396
0.0127862
0.0126308
0.012473
0.0123127
0.0121495
0.0119833
0.011814
0.0116413
0.0114653
0.0112858
0.011103
0.0109168
0.0107273
0.010535
0.0103393
0.0101419
0.00993995
0.00974044
0.00952882
0.00933712
0.00909748
0.00895001
0.0131862
0.0142593
0.0140925
0.0141309
0.0140669
0.0139501
0.0138215
0.0136821
0.0135371
0.0133893
0.0132394
0.0130879
0.0129347
0.0127797
0.0126226
0.0124632
0.0123012
0.0121364
0.0119685
0.0117975
0.0116232
0.0114455
0.0112645
0.0110801
0.0108925
0.0107018
0.0105083
0.0103117
0.0101135
0.00991107
0.0097113
0.00949966
0.00930844
0.00906907
0.00892406
0.0130054
0.0142881
0.014104
0.0141535
0.014085
0.0139624
0.01383
0.0136873
0.0135398
0.01339
0.0132384
0.0130854
0.0129308
0.0127744
0.012616
0.0124553
0.012292
0.0121258
0.0119567
0.0117844
0.0116087
0.0114298
0.0112476
0.011062
0.0108734
0.0106816
0.0104873
0.01029
0.0100913
0.00988855
0.00968856
0.00947708
0.00928563
0.00904659
0.00890113
0.012802
0.014337
0.0141222
0.0141833
0.0141075
0.0139776
0.0138405
0.0136943
0.0135442
0.0133924
0.0132392
0.0130848
0.012929
0.0127714
0.0126119
0.0124501
0.0122858
0.0121186
0.0119484
0.011775
0.0115984
0.0114185
0.0112353
0.0110489
0.0108595
0.010667
0.0104721
0.0102743
0.0100753
0.0098725
0.00967257
0.00946188
0.00927074
0.00903485
0.00888954
0.0125622
0.0144087
0.0141396
0.0142092
0.0141249
0.013989
0.0138484
0.0136995
0.0135474
0.0133942
0.0132399
0.0130844
0.0129277
0.0127693
0.0126091
0.0124465
0.0122814
0.0121134
0.0119425
0.0117684
0.0115911
0.0114104
0.0112267
0.0110396
0.0108496
0.0106566
0.0104613
0.0102632
0.0100641
0.00986125
0.00966121
0.00945125
0.00925843
0.00902449
0.00886887
0.0123181
0.0144967
0.0141679
0.0142458
0.0141496
0.0140059
0.0138605
0.0137082
0.0135539
0.013399
0.0132435
0.013087
0.0129294
0.0127703
0.0126094
0.0124461
0.0122804
0.0121119
0.0119404
0.0117657
0.011588
0.0114068
0.0112226
0.011035
0.0108448
0.0106514
0.010456
0.0102576
0.0100586
0.0098559
0.00965626
0.00944768
0.00925612
0.00902938
0.00887554
0.0120522
0.0145998
0.0141911
0.0142745
0.0141673
0.0140181
0.0138695
0.013715
0.0135592
0.0134032
0.0132468
0.0130896
0.0129314
0.0127718
0.0126104
0.0124467
0.0122806
0.0121117
0.0119399
0.0117649
0.0115868
0.0114053
0.0112209
0.0110331
0.0108427
0.0106491
0.0104536
0.0102551
0.0100561
0.00985358
0.00965392
0.00944636
0.00925171
0.00902835
0.00884252
0.0118013
0.0147078
0.0142372
0.0143185
0.0141964
0.0140387
0.0138847
0.0137265
0.0135683
0.0134105
0.0132528
0.0130947
0.0129358
0.0127756
0.0126137
0.0124497
0.0122834
0.0121142
0.0119422
0.011767
0.0115889
0.0114073
0.0112228
0.0110349
0.0108446
0.0106509
0.0104555
0.0102571
0.0100583
0.00985584
0.00965684
0.00945014
0.00926066
0.00904453
0.00890582
0.0142045
0.0146681
0.0142753
0.0141748
0.014063
0.0139482
0.0138394
0.0137303
0.0136216
0.0135138
0.0134071
0.0133017
0.0131977
0.0130951
0.0129938
0.0128936
0.0127943
0.0126954
0.0125967
0.0124976
0.0123976
0.0122961
0.0121926
0.0120863
0.0119766
0.0118628
0.0117443
0.0116201
0.0114902
0.0113531
0.0112105
0.0110582
0.010906
0.0107355
0.0105944
0.0141797
0.0146365
0.0142556
0.0141593
0.0140507
0.0139376
0.0138289
0.0137189
0.0136084
0.0134981
0.0133882
0.013279
0.0131707
0.0130633
0.0129566
0.0128505
0.0127448
0.0126391
0.012533
0.012426
0.0123178
0.0122077
0.0120953
0.0119798
0.0118609
0.0117377
0.0116099
0.0114764
0.0113376
0.0111912
0.0110401
0.0108765
0.0107154
0.0105206
0.0103692
0.0141517
0.0146038
0.0142341
0.0141426
0.014037
0.0139251
0.013816
0.0137042
0.0135911
0.0134774
0.0133635
0.0132497
0.0131361
0.0130229
0.0129099
0.0127969
0.0126836
0.0125698
0.0124551
0.0123389
0.0122209
0.0121005
0.0119774
0.0118507
0.0117202
0.011585
0.0114452
0.0112996
0.0111488
0.0109906
0.0108288
0.0106544
0.0104868
0.0102838
0.0101359
0.014116
0.0145683
0.0142123
0.0141273
0.0140257
0.0139158
0.0138067
0.0136938
0.0135785
0.013462
0.0133447
0.0132269
0.013109
0.0129908
0.0128725
0.0127537
0.0126343
0.0125138
0.012392
0.0122684
0.0121426
0.0120141
0.0118826
0.0117475
0.0116084
0.0114647
0.0113165
0.0111625
0.0110037
0.0108375
0.0106684
0.0104858
0.0103116
0.010098
0.00994437
0.0140831
0.0145306
0.0141908
0.0141128
0.0140154
0.013907
0.0137976
0.013683
0.0135653
0.0134455
0.0133244
0.0132024
0.0130797
0.0129564
0.0128324
0.0127076
0.0125817
0.0124543
0.0123252
0.0121939
0.0120601
0.0119233
0.0117832
0.0116393
0.0114914
0.0113387
0.0111816
0.0110189
0.0108517
0.0106773
0.0105008
0.0103113
0.010132
0.00991295
0.00975895
0.0140373
0.0144902
0.0141691
0.0140997
0.0140072
0.0139009
0.0137912
0.0136752
0.013555
0.0134323
0.0133077
0.0131818
0.0130548
0.0129269
0.012798
0.0126678
0.0125362
0.0124028
0.0122673
0.0121294
0.0119888
0.0118449
0.0116977
0.0115466
0.0113914
0.0112317
0.0110676
0.0108981
0.0107246
0.0105442
0.0103622
0.0101672
0.0099836
0.00975923
0.0096028
0.0139887
0.0144478
0.0141481
0.0140884
0.0140013
0.0138966
0.0137864
0.0136686
0.0135458
0.0134198
0.0132916
0.0131617
0.0130305
0.012898
0.0127641
0.0126287
0.0124915
0.0123523
0.0122107
0.0120665
0.0119192
0.0117687
0.0116146
0.0114566
0.0112946
0.0111282
0.0109575
0.0107818
0.0106023
0.0104163
0.0102294
0.0100298
0.00984302
0.00961514
0.00945841
0.01393
0.0144046
0.014129
0.0140802
0.0139986
0.0138953
0.0137842
0.0136644
0.0135389
0.0134098
0.0132782
0.0131446
0.0130094
0.0128727
0.0127343
0.0125942
0.0124521
0.0123076
0.0121607
0.0120108
0.0118579
0.0117016
0.0115417
0.0113779
0.0112101
0.0110381
0.0108621
0.0106813
0.0104971
0.0103068
0.0101162
0.00991315
0.00972396
0.00949309
0.00933613
0.0138601
0.0143615
0.0141116
0.0140751
0.0139991
0.0138967
0.0137845
0.0136625
0.0135342
0.0134021
0.0132671
0.0131301
0.0129913
0.0128508
0.0127085
0.0125642
0.0124177
0.0122687
0.0121171
0.0119624
0.0118046
0.0116433
0.0114784
0.0113096
0.0111371
0.0109604
0.0107799
0.0105949
0.0104069
0.0102131
0.0100196
0.00981383
0.00962306
0.00938994
0.00923348
0.0137898
0.0143265
0.0141
0.0140746
0.0140031
0.0139006
0.0137868
0.0136624
0.0135315
0.0133965
0.0132587
0.0131187
0.0129769
0.0128332
0.0126875
0.0125398
0.0123897
0.012237
0.0120815
0.011923
0.0117611
0.0115959
0.011427
0.0112544
0.011078
0.0108977
0.0107138
0.0105257
0.0103349
0.0101385
0.00994297
0.00973523
0.00954354
0.0093086
0.00915299
0.0136979
0.0142916
0.0140891
0.0140768
0.0140099
0.0139068
0.013791
0.0136641
0.0135304
0.0133927
0.0132521
0.0131093
0.0129646
0.012818
0.0126694
0.0125185
0.0123653
0.0122093
0.0120505
0.0118885
0.0117232
0.0115545
0.0113822
0.0112063
0.0110267
0.0108434
0.0106566
0.0104659
0.0102727
0.0100743
0.00987721
0.00966794
0.0094758
0.00923935
0.00908522
0.0136041
0.014268
0.0140847
0.0140842
0.0140199
0.0139149
0.0137966
0.0136669
0.0135304
0.0133901
0.0132469
0.0131016
0.0129544
0.0128053
0.0126541
0.0125006
0.0123446
0.0121858
0.0120241
0.0118593
0.0116911
0.0115195
0.0113444
0.0111657
0.0109835
0.0107976
0.0106086
0.0104158
0.0102209
0.0100209
0.00982271
0.00961232
0.00942009
0.00918229
0.00903002
0.01348
0.0142487
0.0140818
0.0140951
0.014033
0.0139253
0.0138041
0.0136713
0.0135319
0.0133889
0.0132433
0.0130957
0.0129462
0.0127948
0.0126413
0.0124855
0.0123271
0.012166
0.0120019
0.0118346
0.0116639
0.0114899
0.0113124
0.0111314
0.010947
0.0107591
0.0105682
0.0103738
0.0101775
0.00997639
0.00977739
0.00956626
0.00937428
0.0091355
0.00898567
0.0133497
0.0142456
0.0140854
0.0141106
0.0140482
0.0139365
0.0138119
0.013676
0.0135338
0.0133884
0.0132406
0.013091
0.0129395
0.0127862
0.0126308
0.012473
0.0123127
0.0121495
0.0119834
0.0118141
0.0116414
0.0114654
0.0112859
0.0111031
0.0109169
0.0107274
0.010535
0.0103394
0.010142
0.00994007
0.00974056
0.00952896
0.00933725
0.00909764
0.00895007
0.0131874
0.0142548
0.0140925
0.0141311
0.0140669
0.01395
0.0138215
0.013682
0.013537
0.0133892
0.0132394
0.0130879
0.0129347
0.0127797
0.0126226
0.0124632
0.0123012
0.0121364
0.0119685
0.0117976
0.0116232
0.0114456
0.0112646
0.0110802
0.0108926
0.0107019
0.0105084
0.0103118
0.0101136
0.0099112
0.00971143
0.00949981
0.00930858
0.00906925
0.00892414
0.0130063
0.014284
0.014104
0.0141536
0.0140849
0.0139623
0.0138299
0.0136873
0.0135398
0.0133899
0.0132384
0.0130854
0.0129308
0.0127744
0.012616
0.0124553
0.012292
0.0121259
0.0119567
0.0117844
0.0116088
0.0114299
0.0112476
0.0110621
0.0108735
0.0106817
0.0104874
0.0102901
0.0100914
0.00988869
0.00968871
0.00947724
0.00928579
0.00904679
0.00890121
0.0128026
0.0143333
0.0141221
0.0141833
0.0141074
0.0139775
0.0138405
0.0136942
0.0135441
0.0133923
0.0132392
0.0130848
0.012929
0.0127715
0.012612
0.0124502
0.0122858
0.0121187
0.0119485
0.0117751
0.0115985
0.0114186
0.0112355
0.011049
0.0108596
0.0106671
0.0104722
0.0102744
0.0100755
0.00987268
0.00967275
0.00946207
0.00927094
0.00903509
0.00888967
0.0125629
0.0144054
0.0141394
0.0142092
0.0141248
0.013989
0.0138483
0.0136995
0.0135475
0.0133942
0.0132399
0.0130845
0.0129278
0.0127695
0.0126092
0.0124466
0.0122815
0.0121135
0.0119427
0.0117685
0.0115912
0.0114106
0.0112268
0.0110397
0.0108498
0.0106567
0.0104615
0.0102634
0.0100642
0.00986144
0.00966141
0.00945145
0.00925864
0.00902472
0.00886899
0.0123171
0.0144941
0.0141676
0.0142457
0.0141496
0.014006
0.0138606
0.0137084
0.0135541
0.0133992
0.0132436
0.0130872
0.0129296
0.0127705
0.0126095
0.0124463
0.0122806
0.012112
0.0119406
0.0117659
0.0115881
0.0114069
0.0112228
0.0110352
0.0108449
0.0106516
0.0104561
0.0102578
0.0100587
0.00985607
0.00965644
0.00944786
0.00925632
0.0090296
0.00887574
0.0120494
0.0145989
0.0141912
0.0142749
0.0141676
0.0140184
0.0138697
0.0137152
0.0135594
0.0134033
0.0132469
0.0130897
0.0129315
0.0127719
0.0126104
0.0124467
0.0122807
0.0121117
0.01194
0.0117649
0.0115869
0.0114054
0.011221
0.0110331
0.0108427
0.0106491
0.0104537
0.0102552
0.0100562
0.00985363
0.00965398
0.00944641
0.00925179
0.00902836
0.00884259
0.0118156
0.0147111
0.0142367
0.0143174
0.0141951
0.0140376
0.0138837
0.0137257
0.0135675
0.0134098
0.0132522
0.0130941
0.0129353
0.0127751
0.0126133
0.0124493
0.012283
0.0121138
0.0119419
0.0117667
0.0115885
0.0114069
0.0112225
0.0110346
0.0108442
0.0106506
0.0104552
0.0102567
0.0100579
0.00985545
0.00965644
0.00944973
0.00926025
0.00904409
0.00890518
0.0142129
0.0146627
0.0142752
0.0141749
0.014063
0.0139482
0.0138394
0.0137303
0.0136216
0.0135138
0.0134071
0.0133017
0.0131977
0.0130951
0.0129938
0.0128936
0.0127943
0.0126954
0.0125967
0.0124976
0.0123976
0.0122961
0.0121926
0.0120863
0.0119766
0.0118628
0.0117443
0.0116201
0.0114902
0.0113531
0.0112105
0.0110582
0.0109061
0.0107355
0.0105945
0.014188
0.0146312
0.0142555
0.0141594
0.0140508
0.0139376
0.0138289
0.0137189
0.0136084
0.0134981
0.0133882
0.0132791
0.0131707
0.0130633
0.0129566
0.0128505
0.0127448
0.0126391
0.012533
0.012426
0.0123178
0.0122078
0.0120953
0.0119799
0.011861
0.0117377
0.01161
0.0114765
0.0113377
0.0111913
0.0110402
0.0108766
0.0107155
0.0105206
0.0103693
0.0141598
0.0145986
0.014234
0.0141427
0.0140371
0.0139251
0.013816
0.0137043
0.0135911
0.0134774
0.0133635
0.0132497
0.0131361
0.0130229
0.0129099
0.0127969
0.0126836
0.0125698
0.0124551
0.0123389
0.0122209
0.0121005
0.0119774
0.0118507
0.0117202
0.011585
0.0114452
0.0112996
0.0111488
0.0109906
0.0108288
0.0106544
0.0104869
0.0102838
0.0101359
0.014124
0.0145632
0.0142122
0.0141274
0.0140258
0.0139158
0.0138067
0.0136938
0.0135785
0.013462
0.0133447
0.0132269
0.013109
0.0129909
0.0128725
0.0127537
0.0126343
0.0125138
0.012392
0.0122684
0.0121426
0.0120141
0.0118827
0.0117475
0.0116085
0.0114648
0.0113165
0.0111625
0.0110038
0.0108376
0.0106684
0.0104859
0.0103116
0.010098
0.00994446
0.0140909
0.0145256
0.0141906
0.0141129
0.0140154
0.0139071
0.0137976
0.013683
0.0135653
0.0134455
0.0133244
0.0132024
0.0130797
0.0129564
0.0128324
0.0127076
0.0125817
0.0124543
0.0123252
0.0121939
0.0120601
0.0119233
0.0117832
0.0116393
0.0114914
0.0113388
0.0111816
0.0110189
0.0108517
0.0106774
0.0105009
0.0103113
0.010132
0.00991298
0.00975904
0.014045
0.0144853
0.014169
0.0140998
0.0140073
0.0139009
0.0137912
0.0136752
0.013555
0.0134323
0.0133077
0.0131818
0.0130548
0.0129269
0.012798
0.0126678
0.0125362
0.0124028
0.0122673
0.0121294
0.0119888
0.011845
0.0116977
0.0115466
0.0113914
0.0112317
0.0110676
0.0108982
0.0107246
0.0105442
0.0103622
0.0101673
0.00998366
0.00975928
0.00960291
0.0139962
0.014443
0.014148
0.0140885
0.0140014
0.0138967
0.0137864
0.0136686
0.0135458
0.0134198
0.0132916
0.0131617
0.0130305
0.012898
0.0127641
0.0126287
0.0124915
0.0123523
0.0122107
0.0120665
0.0119193
0.0117687
0.0116147
0.0114567
0.0112947
0.0111282
0.0109575
0.0107818
0.0106023
0.0104163
0.0102294
0.0100299
0.00984308
0.00961518
0.00945851
0.0139373
0.0143999
0.0141289
0.0140803
0.0139987
0.0138953
0.0137842
0.0136644
0.0135389
0.0134098
0.0132781
0.0131446
0.0130094
0.0128727
0.0127343
0.0125942
0.0124521
0.0123077
0.0121607
0.0120109
0.0118579
0.0117016
0.0115417
0.0113779
0.0112102
0.0110381
0.0108621
0.0106813
0.0104972
0.0103069
0.0101163
0.0099132
0.00972403
0.00949314
0.00933624
0.0138672
0.014357
0.0141115
0.0140751
0.0139992
0.0138968
0.0137845
0.0136625
0.0135342
0.0134021
0.0132671
0.0131301
0.0129913
0.0128508
0.0127085
0.0125642
0.0124177
0.0122687
0.0121171
0.0119624
0.0118046
0.0116433
0.0114784
0.0113097
0.0111371
0.0109604
0.0107799
0.010595
0.010407
0.0102132
0.0100197
0.00981388
0.00962313
0.00939
0.00923359
0.0137968
0.0143221
0.0140999
0.0140747
0.0140031
0.0139006
0.0137868
0.0136624
0.0135314
0.0133965
0.0132587
0.0131187
0.0129768
0.0128332
0.0126875
0.0125398
0.0123897
0.012237
0.0120815
0.011923
0.0117612
0.0115959
0.011427
0.0112544
0.011078
0.0108978
0.0107139
0.0105258
0.0103349
0.0101386
0.00994302
0.00973528
0.00954361
0.00930865
0.0091531
0.0137047
0.0142873
0.0140891
0.0140769
0.0140099
0.0139068
0.013791
0.0136641
0.0135304
0.0133927
0.0132521
0.0131093
0.0129646
0.012818
0.0126694
0.0125185
0.0123653
0.0122093
0.0120505
0.0118885
0.0117232
0.0115545
0.0113822
0.0112063
0.0110267
0.0108434
0.0106566
0.0104659
0.0102728
0.0100744
0.00987726
0.009668
0.00947587
0.00923941
0.00908533
0.0136106
0.0142639
0.0140846
0.0140843
0.01402
0.0139149
0.0137966
0.0136669
0.0135304
0.01339
0.0132469
0.0131016
0.0129544
0.0128053
0.012654
0.0125006
0.0123446
0.0121858
0.0120241
0.0118593
0.0116911
0.0115195
0.0113444
0.0111657
0.0109835
0.0107977
0.0106086
0.0104159
0.0102209
0.010021
0.00982276
0.00961238
0.00942016
0.00918235
0.00903014
0.0134863
0.0142448
0.0140818
0.0140951
0.014033
0.0139253
0.0138041
0.0136713
0.0135319
0.0133889
0.0132433
0.0130957
0.0129462
0.0127948
0.0126413
0.0124855
0.0123271
0.012166
0.0120019
0.0118346
0.0116639
0.0114899
0.0113124
0.0111314
0.010947
0.0107592
0.0105683
0.0103739
0.0101775
0.00997644
0.00977745
0.00956632
0.00937435
0.00913556
0.00898579
0.0133558
0.0142419
0.0140853
0.0141106
0.0140482
0.0139364
0.0138119
0.0136759
0.0135338
0.0133884
0.0132406
0.013091
0.0129395
0.0127862
0.0126307
0.012473
0.0123126
0.0121495
0.0119834
0.0118141
0.0116414
0.0114654
0.0112859
0.0111031
0.0109169
0.0107274
0.0105351
0.0103394
0.010142
0.00994013
0.00974062
0.00952902
0.00933732
0.00909772
0.0089502
0.0131932
0.0142513
0.0140924
0.0141311
0.0140669
0.01395
0.0138214
0.013682
0.013537
0.0133892
0.0132393
0.0130878
0.0129346
0.0127796
0.0126225
0.0124631
0.0123012
0.0121364
0.0119685
0.0117976
0.0116232
0.0114456
0.0112646
0.0110802
0.0108927
0.0107019
0.0105084
0.0103118
0.0101137
0.00991127
0.00971151
0.00949989
0.00930867
0.00906934
0.00892428
0.0130118
0.0142808
0.0141039
0.0141536
0.0140849
0.0139622
0.0138298
0.0136872
0.0135397
0.0133899
0.0132384
0.0130853
0.0129307
0.0127744
0.012616
0.0124553
0.012292
0.0121259
0.0119567
0.0117844
0.0116088
0.0114299
0.0112477
0.0110622
0.0108735
0.0106818
0.0104875
0.0102902
0.0100915
0.00988879
0.00968881
0.00947734
0.00928589
0.0090469
0.00890137
0.0128077
0.0143304
0.0141219
0.0141832
0.0141073
0.0139774
0.0138404
0.0136942
0.0135441
0.0133923
0.0132392
0.0130848
0.012929
0.0127715
0.012612
0.0124502
0.0122859
0.0121187
0.0119485
0.0117752
0.0115986
0.0114187
0.0112355
0.0110491
0.0108597
0.0106672
0.0104723
0.0102746
0.0100756
0.0098728
0.00967288
0.00946219
0.00927108
0.00903523
0.00888987
0.0125676
0.0144027
0.0141392
0.014209
0.0141247
0.0139889
0.0138483
0.0136995
0.0135475
0.0133943
0.01324
0.0130846
0.0129279
0.0127695
0.0126093
0.0124467
0.0122816
0.0121136
0.0119428
0.0117686
0.0115914
0.0114107
0.0112269
0.0110398
0.0108499
0.0106569
0.0104616
0.0102635
0.0100644
0.00986158
0.00966155
0.00945159
0.00925879
0.00902487
0.00886917
0.0123207
0.0144922
0.0141674
0.0142457
0.0141496
0.0140061
0.0138608
0.0137086
0.0135543
0.0133994
0.0132438
0.0130873
0.0129297
0.0127706
0.0126096
0.0124464
0.0122807
0.0121121
0.0119407
0.011766
0.0115882
0.011407
0.0112229
0.0110353
0.0108451
0.0106517
0.0104562
0.0102579
0.0100588
0.00985618
0.00965656
0.00944797
0.00925646
0.00902972
0.00887595
0.0120515
0.014599
0.0141915
0.0142754
0.014168
0.0140187
0.0138699
0.0137154
0.0135595
0.0134034
0.0132469
0.0130897
0.0129316
0.0127719
0.0126105
0.0124468
0.0122807
0.0121117
0.01194
0.0117649
0.0115869
0.0114054
0.011221
0.0110331
0.0108427
0.0106491
0.0104536
0.0102552
0.0100562
0.00985362
0.00965397
0.00944639
0.00925179
0.0090283
0.00884246
0.0118239
0.0147131
0.0142367
0.0143169
0.0141945
0.014037
0.0138832
0.0137252
0.0135671
0.0134095
0.0132519
0.0130938
0.012935
0.0127749
0.0126131
0.0124491
0.0122828
0.0121136
0.0119417
0.0117665
0.0115883
0.0114068
0.0112223
0.0110344
0.010844
0.0106504
0.010455
0.0102565
0.0100577
0.00985527
0.00965624
0.00944954
0.00926005
0.00904392
0.00890491
0.014218
0.0146575
0.0142749
0.0141748
0.014063
0.0139482
0.0138394
0.0137303
0.0136216
0.0135138
0.0134071
0.0133017
0.0131977
0.0130951
0.0129938
0.0128936
0.0127943
0.0126954
0.0125967
0.0124976
0.0123976
0.0122961
0.0121926
0.0120863
0.0119766
0.0118628
0.0117443
0.0116201
0.0114902
0.0113531
0.0112105
0.0110582
0.010906
0.0107355
0.0105946
0.014193
0.0146261
0.0142552
0.0141593
0.0140508
0.0139377
0.013829
0.0137189
0.0136084
0.0134981
0.0133882
0.0132791
0.0131707
0.0130633
0.0129566
0.0128505
0.0127448
0.0126391
0.012533
0.0124261
0.0123179
0.0122078
0.0120954
0.0119799
0.011861
0.0117378
0.01161
0.0114765
0.0113377
0.0111913
0.0110402
0.0108766
0.0107156
0.0105207
0.0103694
0.0141648
0.0145936
0.0142337
0.0141426
0.0140371
0.0139252
0.013816
0.0137043
0.0135911
0.0134774
0.0133635
0.0132497
0.0131361
0.0130229
0.0129099
0.0127969
0.0126836
0.0125698
0.0124551
0.0123389
0.0122209
0.0121005
0.0119773
0.0118507
0.0117202
0.011585
0.0114452
0.0112996
0.0111488
0.0109906
0.0108288
0.0106544
0.0104868
0.0102838
0.010136
0.0141289
0.0145582
0.0142119
0.0141273
0.0140258
0.0139158
0.0138067
0.0136938
0.0135785
0.013462
0.0133447
0.0132269
0.013109
0.0129909
0.0128725
0.0127537
0.0126343
0.0125138
0.012392
0.0122684
0.0121426
0.0120142
0.0118827
0.0117475
0.0116085
0.0114648
0.0113165
0.0111626
0.0110038
0.0108376
0.0106684
0.0104859
0.0103117
0.0100981
0.00994455
0.0140957
0.0145207
0.0141903
0.0141128
0.0140154
0.0139071
0.0137976
0.013683
0.0135653
0.0134455
0.0133244
0.0132023
0.0130797
0.0129564
0.0128324
0.0127076
0.0125817
0.0124543
0.0123252
0.0121939
0.0120601
0.0119233
0.0117832
0.0116393
0.0114914
0.0113388
0.0111816
0.0110189
0.0108517
0.0106774
0.0105009
0.0103113
0.010132
0.009913
0.00975912
0.0140497
0.0144804
0.0141687
0.0140997
0.0140073
0.0139009
0.0137912
0.0136752
0.013555
0.0134322
0.0133076
0.0131818
0.0130548
0.0129269
0.012798
0.0126678
0.0125362
0.0124028
0.0122673
0.0121294
0.0119888
0.011845
0.0116977
0.0115466
0.0113914
0.0112317
0.0110676
0.0108982
0.0107246
0.0105442
0.0103623
0.0101673
0.00998368
0.00975933
0.00960302
0.0140008
0.0144383
0.0141477
0.0140884
0.0140014
0.0138967
0.0137864
0.0136686
0.0135457
0.0134198
0.0132916
0.0131617
0.0130305
0.012898
0.0127641
0.0126287
0.0124915
0.0123523
0.0122107
0.0120665
0.0119193
0.0117687
0.0116147
0.0114567
0.0112947
0.0111282
0.0109575
0.0107818
0.0106023
0.0104163
0.0102294
0.0100299
0.00984309
0.00961522
0.00945862
0.0139419
0.0143953
0.0141287
0.0140802
0.0139987
0.0138953
0.0137842
0.0136644
0.0135389
0.0134098
0.0132781
0.0131446
0.0130094
0.0128727
0.0127343
0.0125942
0.0124521
0.0123077
0.0121607
0.0120109
0.0118579
0.0117016
0.0115417
0.0113779
0.0112102
0.0110381
0.0108621
0.0106814
0.0104972
0.0103069
0.0101163
0.00991323
0.00972404
0.00949319
0.00933636
0.0138717
0.0143525
0.0141113
0.0140751
0.0139992
0.0138968
0.0137845
0.0136625
0.0135342
0.013402
0.0132671
0.0131301
0.0129913
0.0128508
0.0127085
0.0125642
0.0124177
0.0122687
0.0121171
0.0119624
0.0118046
0.0116433
0.0114784
0.0113097
0.0111371
0.0109604
0.0107799
0.010595
0.010407
0.0102132
0.0100197
0.0098139
0.00962314
0.00939004
0.00923372
0.0138011
0.0143178
0.0140997
0.0140746
0.0140031
0.0139006
0.0137868
0.0136624
0.0135314
0.0133965
0.0132587
0.0131187
0.0129768
0.0128331
0.0126875
0.0125398
0.0123897
0.012237
0.0120815
0.011923
0.0117611
0.0115959
0.011427
0.0112544
0.011078
0.0108978
0.0107139
0.0105258
0.0103349
0.0101386
0.00994303
0.00973531
0.00954362
0.0093087
0.00915324
0.0137089
0.014283
0.0140889
0.0140768
0.0140099
0.0139068
0.013791
0.0136641
0.0135304
0.0133926
0.013252
0.0131093
0.0129646
0.012818
0.0126693
0.0125185
0.0123652
0.0122093
0.0120505
0.0118885
0.0117232
0.0115545
0.0113822
0.0112063
0.0110267
0.0108434
0.0106566
0.0104659
0.0102728
0.0100744
0.00987727
0.00966802
0.00947588
0.00923946
0.00908548
0.0136147
0.0142598
0.0140844
0.0140842
0.01402
0.0139149
0.0137966
0.0136669
0.0135304
0.01339
0.0132469
0.0131016
0.0129544
0.0128052
0.012654
0.0125005
0.0123445
0.0121858
0.0120241
0.0118593
0.0116911
0.0115195
0.0113444
0.0111657
0.0109835
0.0107977
0.0106086
0.0104159
0.0102209
0.010021
0.00982277
0.00961241
0.00942017
0.0091824
0.00903029
0.0134903
0.0142408
0.0140816
0.0140951
0.014033
0.0139253
0.013804
0.0136712
0.0135319
0.0133889
0.0132433
0.0130957
0.0129462
0.0127948
0.0126413
0.0124855
0.0123271
0.012166
0.0120018
0.0118346
0.0116639
0.0114899
0.0113124
0.0111314
0.010947
0.0107592
0.0105683
0.0103739
0.0101775
0.00997646
0.00977746
0.00956635
0.00937436
0.00913562
0.00898596
0.0133596
0.0142382
0.0140851
0.0141105
0.0140482
0.0139364
0.0138118
0.0136758
0.0135337
0.0133883
0.0132405
0.0130909
0.0129395
0.0127861
0.0126307
0.012473
0.0123126
0.0121495
0.0119833
0.011814
0.0116414
0.0114654
0.0112859
0.0111031
0.0109169
0.0107275
0.0105351
0.0103394
0.0101421
0.00994015
0.00974064
0.00952906
0.00933733
0.00909778
0.00895038
0.0131969
0.0142478
0.0140923
0.014131
0.0140668
0.0139499
0.0138213
0.0136819
0.0135369
0.0133891
0.0132393
0.0130878
0.0129346
0.0127796
0.0126225
0.0124631
0.0123011
0.0121363
0.0119685
0.0117975
0.0116232
0.0114456
0.0112646
0.0110802
0.0108927
0.0107019
0.0105085
0.0103119
0.0101137
0.0099113
0.00971153
0.00949994
0.0093087
0.00906942
0.00892449
0.0130152
0.0142775
0.0141037
0.0141534
0.0140848
0.0139621
0.0138297
0.0136871
0.0135396
0.0133898
0.0132383
0.0130853
0.0129307
0.0127743
0.012616
0.0124553
0.012292
0.0121259
0.0119567
0.0117844
0.0116088
0.0114299
0.0112477
0.0110622
0.0108735
0.0106818
0.0104875
0.0102902
0.0100916
0.00988883
0.00968885
0.0094774
0.00928594
0.009047
0.00890159
0.0128109
0.0143275
0.0141218
0.014183
0.0141072
0.0139773
0.0138402
0.0136941
0.013544
0.0133923
0.0132392
0.0130848
0.012929
0.0127715
0.012612
0.0124502
0.0122859
0.0121187
0.0119486
0.0117752
0.0115986
0.0114187
0.0112356
0.0110492
0.0108597
0.0106673
0.0104724
0.0102746
0.0100757
0.00987287
0.00967295
0.00946228
0.00927114
0.00903534
0.00889012
0.0125706
0.0144001
0.0141391
0.0142089
0.0141246
0.0139888
0.0138482
0.0136994
0.0135475
0.0133943
0.01324
0.0130846
0.0129279
0.0127696
0.0126093
0.0124467
0.0122817
0.0121137
0.0119428
0.0117687
0.0115914
0.0114108
0.011227
0.0110399
0.0108499
0.0106569
0.0104617
0.0102636
0.0100644
0.00986165
0.00966163
0.00945167
0.00925886
0.00902497
0.00886937
0.0123231
0.0144907
0.0141675
0.0142456
0.0141497
0.0140061
0.0138608
0.0137086
0.0135544
0.0133995
0.0132439
0.0130874
0.0129298
0.0127707
0.0126097
0.0124464
0.0122808
0.0121122
0.0119407
0.011766
0.0115883
0.0114071
0.0112229
0.0110353
0.0108451
0.0106517
0.0104563
0.010258
0.0100589
0.00985623
0.0096566
0.00944802
0.0092565
0.00902978
0.00887609
0.0120534
0.0145996
0.0141919
0.0142756
0.0141682
0.0140188
0.01387
0.0137154
0.0135595
0.0134034
0.0132469
0.0130897
0.0129316
0.0127719
0.0126104
0.0124467
0.0122807
0.0121117
0.0119399
0.0117649
0.0115868
0.0114053
0.0112209
0.0110331
0.0108427
0.0106491
0.0104536
0.0102551
0.0100561
0.00985357
0.00965391
0.00944632
0.00925172
0.0090282
0.00884196
0.0118225
0.0147144
0.0142373
0.014317
0.0141945
0.0140369
0.0138831
0.0137252
0.0135671
0.0134094
0.0132518
0.0130938
0.012935
0.0127748
0.0126131
0.0124491
0.0122828
0.0121136
0.0119417
0.0117665
0.0115883
0.0114068
0.0112223