/*--------------------------------*- C++ -*----------------------------------*\
  =========                 |
  \\      /  F ield         | OpenFOAM: The Open Source CFD Toolbox
   \\    /   O peration     | Website:  https://openfoam.org
    \\  /    A nd           | Version:  6
     \\/     M anipulation  |
\*---------------------------------------------------------------------------*/
FoamFile
{
    version     2.0;
    format      ascii;
    class       volVectorField;
    location    "43";
    object      wallShearStress;
}
// * * * * * * * * * * * * * * * * * * * * * * * * * * * * * * * * * * * * * //

dimensions      [0 2 -2 0 0 0 0];

internalField   uniform (0 0 0);

boundaryField
{
    inlet
    {
        type            calculated;
        value           uniform (0 0 0);
    }
    outlet
    {
        type            calculated;
        value           uniform (0 0 0);
    }
    roughCylinder
    {
        type            calculated;
        value           nonuniform List<vector> 
3840
(
(-0.000271032 -0.000397235 -0.000163037)
(-0.000327431 -0.000510659 -2.23029e-05)
(-0.000376614 -0.0006323 4.16683e-05)
(-0.000451775 -0.000735882 0.000123698)
(-0.000539902 -0.000809988 0.000206239)
(-0.000631293 -0.000850369 0.000278425)
(-0.000716256 -0.000861102 0.00033516)
(-0.000790049 -0.00085355 0.000374999)
(-0.00085314 -0.00084713 0.000402272)
(-0.000901738 -0.000845731 0.000416575)
(-0.000940431 -0.000853391 0.000419915)
(-0.000972592 -0.000868542 0.000414456)
(-0.0010013 -0.000889578 0.000402743)
(-0.00102946 -0.000915009 0.000386847)
(-0.00105912 -0.000943885 0.000368194)
(-0.00109139 -0.00097571 0.000347444)
(-0.00112662 -0.00101016 0.000324674)
(-0.00116462 -0.00104689 0.000299587)
(-0.00120486 -0.00108538 0.000271567)
(-0.00124658 -0.00112485 0.000239817)
(-0.00128845 -0.00116393 0.000202818)
(-0.00132885 -0.00120086 0.000158466)
(-0.0013634 -0.00123217 0.000103141)
(-0.00138513 -0.00125197 3.58816e-05)
(-0.000290623 -0.000384906 -0.000155639)
(-0.000350428 -0.000495215 -2.62026e-05)
(-0.0004022 -0.000616422 3.31417e-05)
(-0.00047969 -0.000721232 0.000111677)
(-0.000569748 -0.000797937 0.00019226)
(-0.000663111 -0.000841279 0.000263383)
(-0.000751092 -0.000856117 0.000320092)
(-0.00082982 -0.000854703 0.00036197)
(-0.00089785 -0.000851476 0.000391782)
(-0.000950423 -0.00084885 0.000407595)
(-0.000991086 -0.000855171 0.000411584)
(-0.00102519 -0.000869672 0.000406438)
(-0.00105578 -0.000890497 0.000394956)
(-0.00108585 -0.000915941 0.000379281)
(-0.00111751 -0.000944941 0.000360916)
(-0.00115187 -0.00097689 0.000340542)
(-0.00118928 -0.00101143 0.000318246)
(-0.00122954 -0.00104821 0.000293734)
(-0.00127207 -0.00108668 0.000266373)
(-0.00131607 -0.00112607 0.000235365)
(-0.00136011 -0.00116501 0.000199171)
(-0.00140254 -0.00120178 0.000155711)
(-0.00143876 -0.00123289 0.000101417)
(-0.00146149 -0.00125252 3.52912e-05)
(-0.000310225 -0.000367092 -0.000142649)
(-0.000372746 -0.000474083 -3.06802e-05)
(-0.000426926 -0.000593759 2.38188e-05)
(-0.000506265 -0.000699098 9.8459e-05)
(-0.000598147 -0.000778249 0.00017679)
(-0.00069385 -0.000825298 0.000246974)
(-0.000785551 -0.000845389 0.000304324)
(-0.000869189 -0.00084992 0.000348323)
(-0.000941768 -0.000849608 0.000380019)
(-0.000999027 -0.000846986 0.000397506)
(-0.00104179 -0.000851628 0.00040213)
(-0.0010779 -0.000865267 0.000397318)
(-0.00111049 -0.000885667 0.000386137)
(-0.00114258 -0.000910927 0.000370764)
(-0.00117629 -0.000939828 0.00035276)
(-0.0012128 -0.000971677 0.000332842)
(-0.00125243 -0.00100608 0.000311103)
(-0.00129496 -0.00104265 0.000287247)
(-0.00133977 -0.00108084 0.000260624)
(-0.00138602 -0.00111989 0.000230442)
(-0.0014322 -0.00115842 0.000195136)
(-0.00147663 -0.00119476 0.00015266)
(-0.00151447 -0.00122545 9.95062e-05)
(-0.00153815 -0.00124476 3.46378e-05)
(-0.000327843 -0.000345129 -0.000126031)
(-0.000392243 -0.000448107 -3.53245e-05)
(-0.00044827 -0.000565272 1.40762e-05)
(-0.000528857 -0.000670578 8.44723e-05)
(-0.000622464 -0.000752136 0.00016024)
(-0.000720843 -0.000803492 0.000229463)
(-0.000816581 -0.000829458 0.000287661)
(-0.000905054 -0.000839697 0.000333703)
(-0.000982306 -0.000842455 0.000367143)
(-0.00104465 -0.000841157 0.000386489)
(-0.00109016 -0.0008436 0.00039176)
(-0.00112843 -0.000856177 0.000387398)
(-0.00116314 -0.000875962 0.000376595)
(-0.00119732 -0.000900864 0.000361611)
(-0.00123316 -0.000929509 0.000344054)
(-0.00127182 -0.000961095 0.000324665)
(-0.00131364 -0.000995171 0.00030355)
(-0.00135837 -0.00103133 0.000280413)
(-0.00140537 -0.00106903 0.000254586)
(-0.00145376 -0.0011075 0.000225281)
(-0.00150195 -0.00114539 0.000190912)
(-0.00154826 -0.0011811 0.000149467)
(-0.0015876 -0.00121119 9.75122e-05)
(-0.00161213 -0.00123008 3.39578e-05)
(-0.000342134 -0.000319115 -0.000107339)
(-0.000407918 -0.000417649 -3.97827e-05)
(-0.000465136 -0.000531379 4.25038e-06)
(-0.000546373 -0.000636052 7.00246e-05)
(-0.000641642 -0.00071994 0.000142835)
(-0.000742988 -0.000775975 0.000210928)
(-0.000842934 -0.000807965 0.000269893)
(-0.000936163 -0.000823564 0.000317802)
(-0.00101816 -0.000829417 0.000353008)
(-0.00108513 -0.000829628 0.00037393)
(-0.00113515 -0.000830544 0.000380346)
(-0.00117577 -0.000841862 0.000376692)
(-0.00121278 -0.000860759 0.000366369)
(-0.00124914 -0.000885113 0.000351884)
(-0.00128709 -0.000913287 0.000334857)
(-0.00132788 -0.000944397 0.000316076)
(-0.00137182 -0.000977934 0.00029566)
(-0.00141867 -0.00101347 0.000273307)
(-0.00146773 -0.00105043 0.00024833)
(-0.00151811 -0.00108809 0.000219952)
(-0.00156813 -0.00112511 0.000186556)
(-0.00161615 -0.00115996 0.000146178)
(-0.00165684 -0.00118926 9.54654e-05)
(-0.0016821 -0.00120758 3.32622e-05)
(-0.000353624 -0.000290998 -8.8048e-05)
(-0.000419684 -0.000384113 -4.39182e-05)
(-0.000477253 -0.000493554 -5.42226e-06)
(-0.000558504 -0.000596978 5.53499e-05)
(-0.000655233 -0.000682954 0.000124771)
(-0.000759605 -0.000743647 0.000191451)
(-0.0008638 -0.000781401 0.00025093)
(-0.000961817 -0.000801948 0.000300471)
(-0.00104866 -0.000810779 0.000337434)
(-0.00112045 -0.00081255 0.000359833)
(-0.00117616 -0.000813487 0.000367958)
(-0.00121951 -0.000822515 0.0003651)
(-0.00125898 -0.000840295 0.000355426)
(-0.00129761 -0.000863773 0.00034156)
(-0.00133774 -0.000891284 0.000325182)
(-0.00138064 -0.000921716 0.000307104)
(-0.00142663 -0.000954488 0.000287461)
(-0.00147546 -0.000989154 0.000265956)
(-0.00152642 -0.00102514 0.000241883)
(-0.0015786 -0.00106176 0.000214476)
(-0.00163023 -0.00109767 0.000182087)
(-0.00167978 -0.00113144 0.000142807)
(-0.00172163 -0.00115977 9.33756e-05)
(-0.00174749 -0.00117743 3.25551e-05)
(-0.000360139 -0.000260276 -6.8633e-05)
(-0.00042621 -0.000347786 -4.74783e-05)
(-0.000483363 -0.000452141 -1.47582e-05)
(-0.000563912 -0.000553675 4.05414e-05)
(-0.000661795 -0.00064144 0.000106039)
(-0.000769244 -0.000706727 0.000170913)
(-0.000877857 -0.000750033 0.000230577)
(-0.000980805 -0.000775195 0.000281478)
(-0.00107272 -0.000786951 0.000320163)
(-0.00114968 -0.00079037 0.000344198)
(-0.00121093 -0.000792015 0.000354054)
(-0.0012589 -0.000799096 0.000352496)
(-0.00130107 -0.000815152 0.00034371)
(-0.0013422 -0.000837572 0.000330638)
(-0.00138452 -0.00086411 0.000315019)
(-0.00142948 -0.000893627 0.000297744)
(-0.00147744 -0.000925431 0.000278965)
(-0.00152811 -0.000959028 0.00025838)
(-0.0015808 -0.000993853 0.000235266)
(-0.00163458 -0.00102922 0.000208879)
(-0.00168759 -0.00106381 0.000177527)
(-0.00173846 -0.00109631 0.00013937)
(-0.00178127 -0.0011235 9.12544e-05)
(-0.00180756 -0.0011404 3.18402e-05)
(-0.000363475 -0.000229388 -5.01469e-05)
(-0.000427895 -0.000310272 -5.05626e-05)
(-0.000483521 -0.000408742 -2.35657e-05)
(-0.000562447 -0.000507524 2.58916e-05)
(-0.00066088 -0.000596436 8.68684e-05)
(-0.000771068 -0.000665822 0.000149364)
(-0.000883945 -0.000714191 0.000208713)
(-0.000992018 -0.000743716 0.000260666)
(-0.00108934 -0.000758373 0.000301019)
(-0.00117189 -0.000763555 0.000326895)
(-0.00123864 -0.000765961 0.000338504)
(-0.00129227 -0.000772285 0.000338681)
(-0.00133815 -0.000786204 0.000331135)
(-0.00138187 -0.000806792 0.000319022)
(-0.00142653 -0.00083219 0.000304349)
(-0.00147356 -0.000860593 0.000288002)
(-0.00152337 -0.000891218 0.000270179)
(-0.00157572 -0.000923537 0.000250588)
(-0.00162989 -0.000956976 0.000228488)
(-0.00168499 -0.000990897 0.000203165)
(-0.00173908 -0.0010241 0.000172882)
(-0.00179102 -0.00105522 0.000135873)
(-0.00183455 -0.00108119 8.91075e-05)
(-0.00186109 -0.00109733 3.11219e-05)
(-0.000359641 -0.000196699 -3.25961e-05)
(-0.00042276 -0.000271059 -5.26523e-05)
(-0.000476071 -0.000362946 -3.16526e-05)
(-0.000552397 -0.000458208 1.15076e-05)
(-0.000650669 -0.000547576 6.73058e-05)
(-0.000763404 -0.000620718 0.000126748)
(-0.000880754 -0.000674012 0.000185233)
(-0.000994165 -0.000707726 0.000237844)
(-0.00109725 -0.000725294 0.000279743)
(-0.00118573 -0.000732279 0.000307601)
(-0.00125851 -0.000735645 0.000321274)
(-0.0013177 -0.000741703 0.000323348)
(-0.00136844 -0.000754164 0.000317463)
(-0.00141592 -0.000773092 0.000306779)
(-0.00146289 -0.000796755 0.000293209)
(-0.00151191 -0.000823721 0.000277913)
(-0.00156346 -0.000853007 0.000261158)
(-0.00161728 -0.000883961 0.000242647)
(-0.00167269 -0.000915998 0.000221626)
(-0.00172881 -0.000948431 0.000197411)
(-0.00178345 -0.000980031 0.00016819)
(-0.00183605 -0.0010096 0.000132332)
(-0.00187995 -0.0010342 8.69425e-05)
(-0.00190633 -0.00104944 3.03991e-05)
(-0.000353254 -0.000165509 -1.69064e-05)
(-0.000412184 -0.000232483 -5.45255e-05)
(-0.00046189 -0.000317064 -3.86193e-05)
(-0.00053442 -0.000407555 -2.0625e-06)
(-0.000631455 -0.000496297 4.77839e-05)
(-0.000745926 -0.000572323 0.000103304)
(-0.000867215 -0.000629883 0.000160129)
(-0.000986167 -0.000667684 0.000212924)
(-0.0010955 -0.000688256 0.000256216)
(-0.00119051 -0.000697184 0.000286196)
(-0.00126945 -0.000701374 0.000302151)
(-0.00133444 -0.000707274 0.000306403)
(-0.00139012 -0.000718677 0.000302446)
(-0.00144134 -0.000736057 0.000293401)
(-0.00149126 -0.000758002 0.00028125)
(-0.00154244 -0.000783384 0.000267239)
(-0.0015955 -0.000811085 0.000251683)
(-0.00165037 -0.00084042 0.000234331)
(-0.00170643 -0.000870765 0.000214429)
(-0.00176294 -0.000901447 0.000191351)
(-0.00181771 -0.000931186 0.000163231)
(-0.00187062 -0.000959021 0.000128582)
(-0.00191451 -0.000982099 8.46518e-05)
(-0.00194053 -0.000996343 2.9637e-05)
(-0.00033671 -0.000134678 -2.99402e-06)
(-0.000394239 -0.000192481 -5.37914e-05)
(-0.000439034 -0.000269782 -4.47559e-05)
(-0.000506415 -0.000354733 -1.48939e-05)
(-0.000600872 -0.000441787 2.84671e-05)
(-0.000716546 -0.000520136 7.91187e-05)
(-0.000842136 -0.000582088 0.000133465)
(-0.000966845 -0.000624003 0.000185847)
(-0.00108278 -0.000647657 0.00023027)
(-0.00118461 -0.000658454 0.000262361)
(-0.00127056 -0.000663651 0.00028094)
(-0.00134177 -0.000669417 0.000287713)
(-0.00140255 -0.000679754 0.000285973)
(-0.00145777 -0.000695612 0.000278835)
(-0.00151058 -0.000715762 0.000268318)
(-0.00156374 -0.000739336 0.00025577)
(-0.00161818 -0.000765229 0.000241572)
(-0.00167383 -0.000792692 0.000225498)
(-0.00173027 -0.000821115 0.000206803)
(-0.00178682 -0.00084982 0.000184939)
(-0.00184137 -0.000877561 0.000157984)
(-0.0018942 -0.000903505 0.000124606)
(-0.0019378 -0.000924979 8.22306e-05)
(-0.00196315 -0.000938123 2.88335e-05)
(-0.00031524 -0.000106627 5.25314e-06)
(-0.000372556 -0.000157215 -5.0278e-05)
(-0.000410575 -0.00022384 -4.89701e-05)
(-0.000470643 -0.000302331 -2.62416e-05)
(-0.000560782 -0.000386346 9.96792e-06)
(-0.000676134 -0.000465767 5.47171e-05)
(-0.00080461 -0.00053108 0.000105431)
(-0.000935054 -0.00057711 0.000156645)
(-0.0010581 -0.000604091 0.000201863)
(-0.00116771 -0.000617092 0.000236133)
(-0.00126074 -0.000623 0.000257446)
(-0.00133855 -0.000628527 0.000267069)
(-0.00140493 -0.0006378 0.000267928)
(-0.00146423 -0.000651943 0.000262976)
(-0.00152011 -0.000670224 0.000254374)
(-0.00157537 -0.000691868 0.000243519)
(-0.00163101 -0.000715753 0.000230844)
(-0.00168718 -0.000741159 0.000216173)
(-0.00174357 -0.000767458 0.000198774)
(-0.00179971 -0.000793994 0.000178195)
(-0.00185344 -0.000819545 0.000152449)
(-0.00190587 -0.000843508 0.000120407)
(-0.00194867 -0.000863235 7.96773e-05)
(-0.0019731 -0.000875249 2.79906e-05)
(-0.000284152 -7.80213e-05 1.24792e-05)
(-0.000343079 -0.000124711 -4.84214e-05)
(-0.00037355 -0.000180136 -5.07179e-05)
(-0.000424194 -0.000249991 -3.50002e-05)
(-0.000507728 -0.000328747 -6.94171e-06)
(-0.000621474 -0.000408051 3.05874e-05)
(-0.000753519 -0.000477122 7.64574e-05)
(-0.000889855 -0.000527468 0.000125529)
(-0.00102036 -0.000558066 0.000171013)
(-0.00113768 -0.000573156 0.000207226)
(-0.00123901 -0.000580108 0.000231572)
(-0.00132407 -0.000585342 0.000244401)
(-0.00139626 -0.000593324 0.000248198)
(-0.00146016 -0.000605713 0.000245833)
(-0.00151913 -0.000621904 0.00023942)
(-0.00157629 -0.000641372 0.000230464)
(-0.00163294 -0.000663072 0.000219496)
(-0.00168929 -0.000686264 0.000206365)
(-0.00174529 -0.000710315 0.000190358)
(-0.0018006 -0.000734586 0.000171149)
(-0.00185318 -0.000757929 0.000146672)
(-0.00190465 -0.000779781 0.000116008)
(-0.00194642 -0.000797782 7.70183e-05)
(-0.00196954 -0.000808612 2.71169e-05)
(-0.000247981 -5.17446e-05 1.85146e-05)
(-0.000307698 -9.55864e-05 -4.75098e-05)
(-0.000331635 -0.000141092 -5.08581e-05)
(-0.000371873 -0.000201144 -4.11513e-05)
(-0.000446798 -0.000272984 -2.14803e-05)
(-0.00055659 -0.00035024 7.75985e-06)
(-0.000688896 -0.000420928 4.72015e-05)
(-0.000830503 -0.000475454 9.28967e-05)
(-0.000968579 -0.000509996 0.000137899)
(-0.00109505 -0.000527981 0.000175958)
(-0.00120445 -0.000535707 0.000203281)
(-0.00129707 -0.000540483 0.000219583)
(-0.00137578 -0.000547129 0.000226753)
(-0.00144431 -0.000557462 0.000227308)
(-0.00150667 -0.000571461 0.000223438)
(-0.0015659 -0.000588668 0.000216666)
(-0.0016234 -0.000608047 0.000207605)
(-0.00167957 -0.000628898 0.000196147)
(-0.00173467 -0.000650588 0.000181612)
(-0.00178857 -0.000672499 0.000163835)
(-0.00183921 -0.000693508 0.000140641)
(-0.00188947 -0.000713275 0.000111415)
(-0.00192952 -0.000729441 7.42447e-05)
(-0.00195106 -0.000739147 2.6212e-05)
(-0.000204294 -2.89108e-05 2.25115e-05)
(-0.000263003 -6.85979e-05 -4.54987e-05)
(-0.00028139 -0.000105129 -4.92911e-05)
(-0.000309814 -0.00015391 -4.41105e-05)
(-0.000372334 -0.000215945 -3.24672e-05)
(-0.000475289 -0.000288863 -1.26139e-05)
(-0.000609493 -0.000362083 1.87339e-05)
(-0.000756231 -0.00042109 5.945e-05)
(-0.000902411 -0.000460358 0.000102987)
(-0.00103708 -0.000481116 0.000142199)
(-0.00115606 -0.000490402 0.000172618)
(-0.00125713 -0.000494924 0.000192687)
(-0.00134242 -0.000499987 0.000203539)
(-0.00141626 -0.000508242 0.00020746)
(-0.00148197 -0.000519828 0.000206447)
(-0.00154299 -0.000534534 0.000202093)
(-0.00160111 -0.000551473 0.000195149)
(-0.00165672 -0.000569926 0.000185505)
(-0.00171051 -0.000589237 0.000172534)
(-0.00176254 -0.000608812 0.000156265)
(-0.00181096 -0.000627626 0.000134404)
(-0.0018593 -0.000645217 0.000106634)
(-0.0018975 -0.000659701 7.13852e-05)
(-0.00191697 -0.000668297 2.52845e-05)
(-0.000157683 -1.14467e-05 2.41542e-05)
(-0.000214449 -4.61395e-05 -4.27183e-05)
(-0.000229889 -7.55035e-05 -4.70406e-05)
(-0.000248219 -0.000113849 -4.45514e-05)
(-0.000297579 -0.000165063 -3.94474e-05)
(-0.0003906 -0.000231239 -2.93032e-05)
(-0.000518165 -0.000301958 -7.6856e-06)
(-0.000668097 -0.000364915 2.63644e-05)
(-0.000820992 -0.000408946 6.69705e-05)
(-0.00096595 -0.000434135 0.000106805)
(-0.00109363 -0.000444932 0.000139869)
(-0.001203 -0.000449229 0.000163725)
(-0.00129576 -0.00045293 0.000178637)
(-0.00137475 -0.000458863 0.000186231)
(-0.00144413 -0.000467981 0.000188446)
(-0.00150717 -0.000480195 0.000186823)
(-0.0015657 -0.000494632 0.000182212)
(-0.00162031 -0.000510677 0.000174519)
(-0.00167222 -0.00052761 0.000163174)
(-0.00172168 -0.000544859 0.000148461)
(-0.00176686 -0.000561416 0.000127918)
(-0.00181315 -0.000577008 0.000101663)
(-0.00184858 -0.00058973 6.84115e-05)
(-0.00186568 -0.00059734 2.43281e-05)
(-0.000104952 1.58193e-06 2.33545e-05)
(-0.000156617 -2.62584e-05 -3.76563e-05)
(-0.000170041 -4.8544e-05 -4.29704e-05)
(-0.000177521 -7.55638e-05 -4.14804e-05)
(-0.000210776 -0.000113346 -4.05506e-05)
(-0.000286211 -0.000168199 -3.91256e-05)
(-0.000414039 -0.000239669 -2.90396e-05)
(-0.000565273 -0.000305759 -4.58711e-06)
(-0.0007259 -0.000356208 3.12372e-05)
(-0.000878143 -0.000385524 7.01422e-05)
(-0.00101621 -0.000399412 0.000105432)
(-0.00113493 -0.000404318 0.000133046)
(-0.00123475 -0.000406649 0.000152101)
(-0.00131963 -0.000410492 0.000163748)
(-0.00139252 -0.000417043 0.00016948)
(-0.00145714 -0.000426614 0.000170808)
(-0.00151578 -0.000438531 0.000168747)
(-0.00156889 -0.000452211 0.000163138)
(-0.00161847 -0.000466871 0.000153495)
(-0.0016649 -0.000481959 0.000140413)
(-0.00170667 -0.00049655 0.000121226)
(-0.00174999 -0.000510078 9.64865e-05)
(-0.00178276 -0.000521347 6.53536e-05)
(-0.00179695 -0.00052806 2.33513e-05)
(-5.64832e-05 7.73153e-06 2.05651e-05)
(-0.000101827 -1.28395e-05 -3.10381e-05)
(-0.000118597 -2.93524e-05 -3.70257e-05)
(-0.00012687 -4.84863e-05 -3.87088e-05)
(-0.000142461 -7.57854e-05 -3.90134e-05)
(-0.000203207 -0.000116665 -4.18571e-05)
(-0.000302007 -0.000174649 -4.47673e-05)
(-0.00045238 -0.000245015 -3.07993e-05)
(-0.000615792 -0.000300527 -2.41204e-06)
(-0.000778815 -0.000337116 3.40141e-05)
(-0.000925012 -0.000354344 7.02044e-05)
(-0.00105187 -0.000360304 0.000100998)
(-0.00115971 -0.000362073 0.000124258)
(-0.00124991 -0.000363865 0.000140065)
(-0.00132654 -0.000368045 0.00014961)
(-0.00139294 -0.000375144 0.000154165)
(-0.00145144 -0.000384613 0.000154862)
(-0.00150252 -0.00039606 0.000151456)
(-0.00154909 -0.00040855 0.000143549)
(-0.00159164 -0.000421573 0.000132124)
(-0.00162874 -0.00043421 0.000114245)
(-0.0016692 -0.000445965 9.10906e-05)
(-0.001698 -0.000455701 6.2153e-05)
(-0.00170894 -0.000461688 2.2336e-05)
(-1.23219e-05 8.32664e-06 1.46178e-05)
(-4.0297e-05 -2.66069e-06 -2.11904e-05)
(-5.27573e-05 -1.37765e-05 -3.37527e-05)
(-4.11096e-05 -2.51366e-05 -2.34076e-05)
(-5.30427e-05 -3.38713e-05 -1.76433e-05)
(-8.9693e-05 -5.54027e-05 -2.53899e-05)
(-0.000201223 -0.000113762 -4.6485e-05)
(-0.000330187 -0.000177075 -5.01306e-05)
(-0.000497229 -0.000243638 -3.16176e-05)
(-0.00066277 -0.000285539 -3.45179e-07)
(-0.000818996 -0.000308857 3.53035e-05)
(-0.000955346 -0.000317719 6.84406e-05)
(-0.00106982 -0.000319394 9.54222e-05)
(-0.001166 -0.000319892 0.000115476)
(-0.00124583 -0.000321895 0.000128947)
(-0.00131332 -0.000326609 0.000136851)
(-0.00137122 -0.000333757 0.000140479)
(-0.00141965 -0.000343169 0.000139376)
(-0.00146275 -0.000353706 0.000133242)
(-0.00150108 -0.000364956 0.000123546)
(-0.00153357 -0.000376028 0.00010701)
(-0.00157005 -0.000385968 8.54288e-05)
(-0.0015955 -0.000394658 5.88501e-05)
(-0.00160269 -0.000400044 2.12941e-05)
(8.58929e-06 1.08602e-05 1.25497e-05)
(-2.41257e-06 -2.78142e-07 -1.74632e-05)
(-1.71491e-05 -1.14268e-05 -2.87344e-05)
(-2.3718e-05 -2.03766e-05 -3.17709e-05)
(-2.58875e-05 -2.82802e-05 -2.62395e-05)
(-3.39779e-05 -3.34147e-05 -1.90493e-05)
(-7.32536e-05 -4.8729e-05 -2.21636e-05)
(-0.000235143 -0.00012023 -5.01873e-05)
(-0.000365264 -0.000177449 -5.12318e-05)
(-0.000541661 -0.000233982 -2.98297e-05)
(-0.00070266 -0.000263448 2.36626e-06)
(-0.000844848 -0.000275906 3.63045e-05)
(-0.000966869 -0.000279141 6.63505e-05)
(-0.00106762 -0.000278855 9.02796e-05)
(-0.00115069 -0.000279346 0.000107715)
(-0.00121928 -0.000282137 0.000119066)
(-0.00127628 -0.000287237 0.000125768)
(-0.00132139 -0.0002949 0.000127027)
(-0.00136031 -0.000303691 0.000122639)
(-0.00139338 -0.00031331 0.000114664)
(-0.00141971 -0.000322807 9.93788e-05)
(-0.00145267 -0.000331282 7.94673e-05)
(-0.00147282 -0.000338774 5.53251e-05)
(-0.00147592 -0.000343691 2.0183e-05)
(2.94301e-05 1.07519e-05 2.18528e-05)
(3.00445e-05 4.34176e-06 -7.22258e-06)
(1.79686e-05 3.381e-06 -1.05518e-05)
(-3.26004e-06 -6.02861e-07 -2.59377e-05)
(-9.33088e-06 -1.22219e-05 -3.20117e-05)
(-1.91655e-05 -2.06084e-05 -2.60153e-05)
(-4.61291e-05 -3.15028e-05 -4.40865e-05)
(-8.44295e-05 -8.73243e-05 -4.17432e-05)
(-0.000261971 -0.00012819 -3.38619e-05)
(-0.000405556 -0.00017409 -5.24667e-05)
(-0.000572877 -0.000216072 -2.59791e-05)
(-0.000723782 -0.000234903 6.30732e-06)
(-0.000850382 -0.00024056 3.7814e-05)
(-0.000956254 -0.000240988 6.50675e-05)
(-0.00104125 -0.000240604 8.61637e-05)
(-0.00110989 -0.000241938 0.000100811)
(-0.00116528 -0.000245307 0.00011062)
(-0.00120631 -0.000251585 0.000114248)
(-0.00124062 -0.000258928 0.000111563)
(-0.00126839 -0.000267275 0.000105377)
(-0.00128934 -0.000275678 9.14011e-05)
(-0.00131742 -0.000282578 7.31389e-05)
(-0.00133384 -0.000289545 5.16589e-05)
(-0.00133257 -0.000294095 1.90284e-05)
(4.67217e-05 1.42151e-05 3.34012e-05)
(5.48746e-05 7.81201e-06 -9.68705e-06)
(5.19863e-05 -1.7944e-06 -1.12349e-05)
(3.92946e-05 -1.21208e-05 -1.64835e-06)
(1.14224e-05 4.04402e-06 -7.31701e-06)
(4.25123e-06 -3.9658e-06 -2.73086e-05)
(-2.72667e-05 -2.19085e-05 -3.76016e-05)
(-5.20272e-05 -4.51857e-05 -5.02702e-05)
(-9.9396e-05 -8.05337e-05 -4.28041e-05)
(-0.000281084 -0.000126529 -4.80956e-05)
(-0.00044241 -0.000166277 -4.76343e-05)
(-0.000592761 -0.000193497 -2.03191e-05)
(-0.000724919 -0.000203864 1.11437e-05)
(-0.000832884 -0.000205778 4.05285e-05)
(-0.000919579 -0.000205798 6.48015e-05)
(-0.000987923 -0.000206497 8.24481e-05)
(-0.00104139 -0.000208626 9.5326e-05)
(-0.00107749 -0.000213944 0.000101247)
(-0.00110655 -0.000220123 0.000100121)
(-0.00112779 -0.000227239 9.56477e-05)
(-0.00114098 -0.000234249 8.28052e-05)
(-0.0011654 -0.000239922 6.63649e-05)
(-0.00117541 -0.000246093 4.76181e-05)
(-0.00116932 -0.000250185 1.77354e-05)
(5.83912e-05 1.70174e-05 3.89633e-05)
(7.36435e-05 1.12043e-05 -1.08044e-05)
(7.72878e-05 3.3831e-06 -1.8082e-05)
(7.26725e-05 -7.81007e-06 -1.95981e-05)
(5.59471e-05 -2.18912e-05 -2.02067e-05)
(4.59135e-05 -2.538e-05 -1.94813e-05)
(2.94259e-05 -2.82148e-05 -9.5856e-06)
(-3.45556e-05 3.76895e-06 -2.99493e-05)
(-5.83163e-05 -4.30259e-05 -5.7909e-05)
(-0.000144059 -6.68301e-05 -4.01784e-05)
(-0.000303532 -0.000114844 -5.84335e-05)
(-0.000457821 -0.000151656 -4.06427e-05)
(-0.000589797 -0.000167093 -1.23279e-05)
(-0.000700898 -0.00017272 1.77061e-05)
(-0.000786652 -0.000174027 4.41105e-05)
(-0.000852981 -0.000174912 6.40597e-05)
(-0.000903474 -0.000176214 7.97391e-05)
(-0.000933761 -0.000181002 8.77654e-05)
(-0.000957338 -0.000186361 8.80084e-05)
(-0.000972723 -0.000192582 8.53193e-05)
(-0.000981099 -0.000198875 7.37883e-05)
(-0.00100006 -0.000202988 5.91151e-05)
(-0.00100608 -0.000209142 4.33726e-05)
(-0.000995899 -0.000212839 1.63731e-05)
(6.74634e-05 1.62362e-05 4.05632e-05)
(8.79328e-05 1.08435e-05 -1.10226e-05)
(9.61985e-05 3.45218e-06 -2.01879e-05)
(9.72183e-05 -8.31714e-06 -2.45186e-05)
(9.12384e-05 -1.98621e-05 -2.54987e-05)
(8.00309e-05 -2.85303e-05 -2.34716e-05)
(6.10135e-05 -3.02337e-05 -1.75276e-05)
(2.10271e-05 -3.54522e-05 -8.08419e-06)
(-3.2592e-05 6.3214e-06 -2.58757e-05)
(-3.60408e-05 -1.62054e-05 -2.42815e-05)
(-0.000182773 -7.03931e-05 -4.99566e-05)
(-0.000321748 -0.000107579 -5.22177e-05)
(-0.000455873 -0.000131466 -3.11382e-05)
(-0.000562817 -0.000140371 -2.39024e-06)
(-0.000647236 -0.000144777 2.49811e-05)
(-0.000711093 -0.000146932 4.62772e-05)
(-0.000758402 -0.000147935 6.4385e-05)
(-0.000782031 -0.000152602 7.42071e-05)
(-0.000799609 -0.000157464 7.54632e-05)
(-0.000807591 -0.000162428 7.43428e-05)
(-0.000806202 -0.000166886 6.37613e-05)
(-0.000821975 -0.0001695 5.11997e-05)
(-0.000822108 -0.000175793 3.85277e-05)
(-0.000806598 -0.000178407 1.47422e-05)
(7.28023e-05 1.45725e-05 4.01795e-05)
(9.62203e-05 9.02751e-06 -1.08523e-05)
(0.000107656 2.49865e-06 -2.07058e-05)
(0.000112081 -8.90693e-06 -2.62203e-05)
(0.000109959 -2.11624e-05 -2.80357e-05)
(0.000101773 -3.11835e-05 -2.63527e-05)
(8.6611e-05 -3.75459e-05 -2.18781e-05)
(6.08037e-05 -3.31883e-05 -1.25207e-05)
(5.10119e-06 -2.38284e-05 -1.83409e-05)
(-2.68803e-05 -1.23732e-05 -2.83513e-05)
(-6.0809e-05 -2.49304e-05 -2.47863e-05)
(-0.000196843 -6.68136e-05 -5.15595e-05)
(-0.000316271 -9.40948e-05 -4.30958e-05)
(-0.000426333 -0.000109186 -1.79685e-05)
(-0.000503926 -0.000116331 8.08721e-06)
(-0.00056192 -0.000120361 2.92581e-05)
(-0.00060452 -0.000121019 4.90447e-05)
(-0.000620327 -0.000125552 6.01276e-05)
(-0.000632593 -0.00013074 6.20045e-05)
(-0.000635426 -0.000134518 6.26254e-05)
(-0.000633363 -0.000138458 5.35537e-05)
(-0.000644838 -0.000139465 4.28485e-05)
(-0.000638537 -0.000145946 3.33855e-05)
(-0.000621417 -0.000147686 1.30421e-05)
(7.1787e-05 1.1799e-05 3.82802e-05)
(9.7342e-05 6.88828e-06 -9.43249e-06)
(0.000109787 1.55771e-06 -1.98319e-05)
(0.000116842 -8.81101e-06 -2.63002e-05)
(0.00011788 -2.09997e-05 -2.9034e-05)
(0.000113142 -3.22011e-05 -2.80486e-05)
(0.000102464 -4.00854e-05 -2.35376e-05)
(8.4071e-05 -4.27656e-05 -1.67538e-05)
(4.84784e-05 -3.20191e-05 -7.67286e-06)
(-9.01818e-06 -1.2333e-05 -2.80308e-05)
(-2.01551e-05 -1.25202e-05 -1.86521e-05)
(-7.8733e-05 -2.99234e-05 -3.00827e-05)
(-0.000202938 -5.56975e-05 -4.61042e-05)
(-0.000288783 -7.54072e-05 -2.9623e-05)
(-0.000363791 -8.8072e-05 -5.01249e-06)
(-0.000418244 -9.54494e-05 1.41099e-05)
(-0.000456785 -9.63311e-05 3.47901e-05)
(-0.000465153 -0.000101029 4.6492e-05)
(-0.000470393 -0.000105951 4.82287e-05)
(-0.00046552 -0.000107741 5.00061e-05)
(-0.000449796 -0.000109752 4.15296e-05)
(-0.000454886 -0.000107914 3.36592e-05)
(-0.000452892 -0.000116124 2.75333e-05)
(-0.000429718 -0.00011575 1.08505e-05)
(6.52374e-05 8.22979e-06 3.44688e-05)
(9.18014e-05 4.29302e-06 -6.9456e-06)
(0.000104944 -1.34033e-08 -1.70203e-05)
(0.000113096 -8.69103e-06 -2.39586e-05)
(0.000117245 -2.00707e-05 -2.78214e-05)
(0.000116163 -3.17233e-05 -2.81136e-05)
(0.000109843 -4.1073e-05 -2.48855e-05)
(9.68713e-05 -4.60015e-05 -1.88769e-05)
(7.39365e-05 -4.22673e-05 -1.02612e-05)
(2.80936e-05 -2.85419e-05 -1.12592e-05)
(-1.25141e-05 -8.24017e-06 -2.94523e-05)
(-2.1745e-05 -8.64554e-06 -1.88382e-05)
(-8.63097e-05 -2.57538e-05 -3.14909e-05)
(-0.000188275 -3.70458e-05 -3.21791e-05)
(-0.000234131 -5.46791e-05 -1.63789e-05)
(-0.000273709 -6.88623e-05 6.1707e-07)
(-0.000302436 -6.67326e-05 2.10126e-05)
(-0.000299491 -7.02544e-05 3.25156e-05)
(-0.000307933 -7.98601e-05 3.35584e-05)
(-0.0003004 -7.56382e-05 3.74057e-05)
(-0.000293664 -7.57326e-05 3.20975e-05)
(-0.000307898 -6.3925e-05 2.48663e-05)
(-0.000282399 -8.51682e-05 2.05826e-05)
(-0.000264079 -8.1618e-05 8.80016e-06)
(5.61356e-05 4.80147e-06 2.982e-05)
(8.22847e-05 1.37171e-06 -4.61177e-06)
(9.54675e-05 -2.24223e-06 -1.34035e-05)
(0.000104246 -9.49364e-06 -1.98337e-05)
(0.000110022 -1.90656e-05 -2.41811e-05)
(0.00011264 -3.00231e-05 -2.58962e-05)
(0.000110816 -3.99581e-05 -2.45765e-05)
(0.000103469 -4.66825e-05 -2.06885e-05)
(8.81121e-05 -4.72337e-05 -1.47154e-05)
(5.80931e-05 -3.86348e-05 -1.18091e-05)
(2.18616e-05 -2.40768e-05 -2.1748e-05)
(-1.09562e-05 -1.19789e-05 -3.36887e-05)
(-2.90573e-05 -1.23117e-05 -2.54723e-05)
(-7.97956e-05 -2.53531e-05 -2.26742e-05)
(-0.000150828 -2.45818e-05 -1.41739e-05)
(-0.000164406 -4.21873e-05 -6.98825e-06)
(-0.000207044 -3.03578e-05 1.26607e-05)
(-0.000201726 -2.84646e-05 2.07263e-05)
(-0.000175777 -5.09302e-05 1.89845e-05)
(-0.000183965 -4.22721e-05 2.47526e-05)
(-0.000158712 -4.44095e-05 1.87118e-05)
(-0.000173965 -4.33983e-05 1.43492e-05)
(-0.000145432 -5.05874e-05 1.55382e-05)
(-0.000127477 -4.51065e-05 6.15447e-06)
(4.68194e-05 2.54681e-06 2.56769e-05)
(7.12336e-05 -1.00625e-06 -3.27289e-06)
(8.36465e-05 -4.60202e-06 -1.03705e-05)
(9.23892e-05 -1.08851e-05 -1.55495e-05)
(9.89573e-05 -1.89659e-05 -1.94325e-05)
(0.000103966 -2.82795e-05 -2.17247e-05)
(0.00010631 -3.76965e-05 -2.19561e-05)
(0.000104443 -4.52477e-05 -2.02588e-05)
(9.63052e-05 -4.89821e-05 -1.67326e-05)
(7.76773e-05 -4.64973e-05 -1.42661e-05)
(5.01695e-05 -3.60784e-05 -1.75868e-05)
(2.13479e-05 -2.22652e-05 -2.2354e-05)
(-2.36856e-05 -9.52137e-06 -4.09053e-05)
(-3.97551e-05 -1.96849e-05 -3.72139e-05)
(-6.92585e-05 -6.59004e-05 -2.11955e-05)
(-4.43388e-05 -1.56647e-05 -5.80862e-06)
(-9.07105e-05 -3.88658e-05 -6.59361e-06)
(-8.02075e-05 -3.79066e-05 8.95838e-06)
(-6.17201e-05 -1.90313e-05 5.43741e-06)
(-7.1544e-05 -5.02362e-05 7.15362e-06)
(-4.68196e-05 -2.54984e-05 4.0201e-06)
(-7.39881e-05 -5.11569e-05 9.70049e-06)
(-6.64981e-05 -3.85237e-05 1.559e-05)
(-5.61754e-05 -4.11029e-05 5.81282e-06)
(3.76998e-05 1.22365e-06 2.17444e-05)
(5.9753e-05 -2.73238e-06 -2.76589e-06)
(7.09917e-05 -6.72945e-06 -8.27707e-06)
(7.931e-05 -1.26195e-05 -1.20442e-05)
(8.61808e-05 -1.97182e-05 -1.48964e-05)
(9.23711e-05 -2.74949e-05 -1.69111e-05)
(9.7652e-05 -3.55625e-05 -1.78604e-05)
(0.000100084 -4.26835e-05 -1.76598e-05)
(9.80351e-05 -4.78629e-05 -1.63984e-05)
(8.82091e-05 -4.94035e-05 -1.47908e-05)
(6.9567e-05 -4.5557e-05 -1.56979e-05)
(4.52509e-05 -3.24254e-05 -1.50373e-05)
(9.4627e-06 -1.88422e-05 -2.14595e-05)
(-3.40869e-05 -1.3857e-06 -4.66161e-05)
(-2.98132e-05 -2.69676e-05 -4.07393e-05)
(-2.41188e-05 -1.92356e-05 -1.97483e-05)
(-4.1944e-05 -3.48209e-05 -1.85323e-05)
(-2.60899e-05 -3.43943e-05 2.93301e-06)
(-1.68971e-05 -2.21776e-05 3.06002e-06)
(-2.49371e-05 -4.08495e-05 5.68507e-06)
(-1.10794e-05 -2.80397e-05 4.87583e-06)
(-2.22541e-05 -3.44728e-05 1.17073e-05)
(-6.64598e-06 -1.73875e-05 5.33824e-06)
(-5.59137e-06 -2.19861e-05 4.13416e-06)
(3.02968e-05 3.04681e-07 1.82846e-05)
(4.96591e-05 -4.24535e-06 -2.80652e-06)
(5.95158e-05 -8.84452e-06 -6.98222e-06)
(6.71648e-05 -1.47184e-05 -9.46414e-06)
(7.39991e-05 -2.12746e-05 -1.11904e-05)
(8.07293e-05 -2.80046e-05 -1.25279e-05)
(8.72818e-05 -3.45555e-05 -1.35146e-05)
(9.23953e-05 -4.06167e-05 -1.40801e-05)
(9.45059e-05 -4.56162e-05 -1.42104e-05)
(9.14686e-05 -4.91357e-05 -1.41981e-05)
(8.06656e-05 -4.91258e-05 -1.4714e-05)
(6.21621e-05 -4.25178e-05 -1.57178e-05)
(3.01405e-05 -2.77373e-05 -1.63019e-05)
(-8.71099e-08 -1.58379e-05 -2.13719e-05)
(-1.27115e-05 3.49293e-05 -4.1872e-05)
(-2.50261e-06 -9.64385e-06 -2.79849e-05)
(-2.07407e-05 1.55404e-05 -1.54808e-05)