/*--------------------------------*- C++ -*----------------------------------*\
  =========                 |
  \\      /  F ield         | OpenFOAM: The Open Source CFD Toolbox
   \\    /   O peration     | Website:  https://openfoam.org
    \\  /    A nd           | Version:  6
     \\/     M anipulation  |
\*---------------------------------------------------------------------------*/
FoamFile
{
    version     2.0;
    format      ascii;
    class       volVectorField;
    location    "0";
    object      wallShearStress;
}
// * * * * * * * * * * * * * * * * * * * * * * * * * * * * * * * * * * * * * //

dimensions      [0 2 -2 0 0 0 0];

internalField   uniform (0 0 0);

boundaryField
{
    inlet
    {
        type            calculated;
        value           uniform (0 0 0);
    }
    outlet
    {
        type            calculated;
        value           uniform (0 0 0);
    }
    roughCylinder
    {
        type            calculated;
        value           nonuniform List<vector> 
5120
(
(-9.06918e-05 1.30261e-05 0.000226648)
(-0.000108417 1.55598e-05 3.47605e-05)
(-0.000124684 1.78966e-05 2.54671e-05)
(-0.000136138 1.95411e-05 1.71007e-05)
(-0.000145657 2.09076e-05 1.29667e-05)
(-0.000154001 2.21054e-05 1.02798e-05)
(-0.000161554 2.31897e-05 8.37833e-06)
(-0.000168541 2.41927e-05 6.96159e-06)
(-0.00017511 2.51353e-05 5.86748e-06)
(-0.000181359 2.60326e-05 5.00012e-06)
(-0.000187364 2.68945e-05 4.29867e-06)
(-0.000193177 2.7729e-05 3.72189e-06)
(-0.000198841 2.8542e-05 3.24161e-06)
(-0.000204391 2.93385e-05 2.83724e-06)
(-0.00020985 3.01222e-05 2.4933e-06)
(-0.000215241 3.08959e-05 2.1987e-06)
(-0.000220582 3.16627e-05 1.94452e-06)
(-0.000225887 3.2424e-05 1.72348e-06)
(-0.000231166 3.31818e-05 1.53028e-06)
(-0.000236427 3.3937e-05 1.36041e-06)
(-0.000241674 3.469e-05 1.20998e-06)
(-0.000246909 3.54414e-05 1.07596e-06)
(-0.000252127 3.61905e-05 9.55293e-07)
(-0.000257317 3.69354e-05 8.45531e-07)
(-0.000262458 3.76734e-05 7.44278e-07)
(-0.000267513 3.83991e-05 6.48921e-07)
(-0.000272425 3.9104e-05 5.56615e-07)
(-0.000277096 3.97745e-05 4.64313e-07)
(-0.00028138 4.03893e-05 3.69114e-07)
(-0.000285065 4.09185e-05 2.68869e-07)
(-0.000287868 4.1321e-05 1.6056e-07)
(-0.00028937 4.15374e-05 5.1912e-08)
(-9.09966e-05 1.31374e-05 0.000217231)
(-0.000108762 1.56907e-05 3.32999e-05)
(-0.000125084 1.80474e-05 2.44107e-05)
(-0.000136576 1.9706e-05 1.63904e-05)
(-0.000146126 2.10839e-05 1.24278e-05)
(-0.000154497 2.22918e-05 9.85223e-06)
(-0.000162074 2.33852e-05 8.02984e-06)
(-0.000169084 2.43966e-05 6.67173e-06)
(-0.000175673 2.53471e-05 5.62339e-06)
(-0.000181943 2.62519e-05 4.79241e-06)
(-0.000187967 2.71212e-05 4.11987e-06)
(-0.000193799 2.79626e-05 3.56708e-06)
(-0.000199482 2.87827e-05 3.10678e-06)
(-0.000205049 2.95859e-05 2.71923e-06)
(-0.000210526 3.03762e-05 2.38959e-06)
(-0.000215934 3.11566e-05 2.10725e-06)
(-0.000221293 3.19297e-05 1.86354e-06)
(-0.000226614 3.26973e-05 1.65179e-06)
(-0.00023191 3.34616e-05 1.46673e-06)
(-0.000237188 3.4223e-05 1.30383e-06)
(-0.000242452 3.49827e-05 1.15965e-06)
(-0.000247704 3.57405e-05 1.03114e-06)
(-0.000252938 3.64956e-05 9.15552e-07)
(-0.000258146 3.72469e-05 8.10415e-07)
(-0.000263303 3.7991e-05 7.13321e-07)
(-0.000268375 3.87228e-05 6.21893e-07)
(-0.000273301 3.94335e-05 5.33426e-07)
(-0.000277987 4.01096e-05 4.45e-07)
(-0.000282286 4.073e-05 3.53762e-07)
(-0.000285983 4.12632e-05 2.5771e-07)
(-0.000288795 4.16694e-05 1.53947e-07)
(-0.000290303 4.18878e-05 4.97951e-08)
(-9.1268e-05 1.31663e-05 0.000207478)
(-0.000109071 1.57172e-05 3.17911e-05)
(-0.000125441 1.80794e-05 2.33164e-05)
(-0.000136967 1.97412e-05 1.56539e-05)
(-0.000146544 2.11216e-05 1.18689e-05)
(-0.000154939 2.23318e-05 9.4098e-06)
(-0.000162538 2.34271e-05 7.66931e-06)
(-0.000169568 2.44404e-05 6.37189e-06)
(-0.000176176 2.53929e-05 5.37041e-06)
(-0.000182464 2.6299e-05 4.577e-06)
(-0.000188505 2.71698e-05 3.93474e-06)
(-0.000194354 2.80128e-05 3.40674e-06)
(-0.000200053 2.88345e-05 2.96733e-06)
(-0.000205636 2.96389e-05 2.59702e-06)
(-0.000211129 3.04306e-05 2.2822e-06)
(-0.000216553 3.12126e-05 2.01255e-06)
(-0.000221926 3.1987e-05 1.77978e-06)
(-0.000227263 3.27562e-05 1.57755e-06)
(-0.000232574 3.35217e-05 1.40073e-06)
(-0.000237867 3.42845e-05 1.24522e-06)
(-0.000243146 3.50454e-05 1.10761e-06)
(-0.000248413 3.58046e-05 9.84802e-07)
(-0.000253663 3.65612e-05 8.74354e-07)
(-0.000258884 3.73136e-05 7.73943e-07)
(-0.000264056 3.80591e-05 6.81263e-07)
(-0.000269143 3.8792e-05 5.93944e-07)
(-0.000274083 3.95041e-05 5.09453e-07)
(-0.000278783 4.01815e-05 4.2503e-07)
(-0.000283094 4.08031e-05 3.37867e-07)
(-0.000286801 4.13374e-05 2.46126e-07)
(-0.000289622 4.17444e-05 1.47092e-07)
(-0.000291136 4.19634e-05 4.75976e-08)
(-9.15224e-05 1.31088e-05 0.000197412)
(-0.000109338 1.5636e-05 3.02198e-05)
(-0.000125755 1.79882e-05 2.21889e-05)
(-0.000137312 1.96419e-05 1.48944e-05)
(-0.000146913 2.10159e-05 1.12928e-05)
(-0.00015533 2.22201e-05 8.95251e-06)
(-0.000162948 2.33097e-05 7.29623e-06)
(-0.000169995 2.4318e-05 6.06248e-06)
(-0.000176621 2.52658e-05 5.10967e-06)
(-0.000182924 2.61677e-05 4.35434e-06)
(-0.00018898 2.70339e-05 3.74348e-06)
(-0.000194844 2.78729e-05 3.24136e-06)
(-0.000200558 2.86903e-05 2.82296e-06)
(-0.000206154 2.94906e-05 2.47065e-06)
(-0.000211661 3.02784e-05 2.1714e-06)
(-0.000217099 3.10564e-05 1.91475e-06)
(-0.000222486 3.18269e-05 1.69318e-06)
(-0.000227836 3.25923e-05 1.50088e-06)
(-0.00023316 3.33539e-05 1.33273e-06)
(-0.000238467 3.4113e-05 1.18471e-06)
(-0.000243759 3.48701e-05 1.05371e-06)
(-0.000249039 3.56252e-05 9.3694e-07)
(-0.000254302 3.63781e-05 8.3186e-07)
(-0.000259537 3.71269e-05 7.36329e-07)
(-0.000264722 3.78685e-05 6.48115e-07)
(-0.000269821 3.85979e-05 5.65041e-07)
(-0.000274774 3.93064e-05 4.84694e-07)
(-0.000279485 3.99804e-05 4.04374e-07)
(-0.000283807 4.05984e-05 3.21471e-07)
(-0.000287524 4.11306e-05 2.3421e-07)
(-0.000290353 4.15355e-05 1.40003e-07)
(-0.000291872 4.17539e-05 4.53228e-08)
(-9.17513e-05 1.29565e-05 0.000187044)
(-0.000109571 1.54461e-05 2.86028e-05)
(-0.000126031 1.77711e-05 2.10262e-05)
(-0.000137613 1.9405e-05 1.41114e-05)
(-0.000147236 2.07624e-05 1.06989e-05)
(-0.000155672 2.1952e-05 8.48137e-06)
(-0.000163306 2.30288e-05 6.91254e-06)
(-0.00017037 2.40249e-05 5.74346e-06)
(-0.000177009 2.49611e-05 4.84074e-06)
(-0.000183327 2.58521e-05 4.12541e-06)
(-0.000189397 2.67082e-05 3.54648e-06)
(-0.000195273 2.75369e-05 3.07078e-06)
(-0.000201 2.83442e-05 2.6744e-06)
(-0.000206608 2.91353e-05 2.34063e-06)
(-0.000212127 2.99136e-05 2.05701e-06)
(-0.000217577 3.06819e-05 1.81397e-06)
(-0.000222976 3.14435e-05 1.60417e-06)
(-0.000228338 3.21996e-05 1.42189e-06)
(-0.000233674 3.29521e-05 1.26252e-06)
(-0.000238992 3.37017e-05 1.12236e-06)
(-0.000244296 3.44498e-05 9.98263e-07)
(-0.000249587 3.51957e-05 8.87575e-07)
(-0.000254862 3.59395e-05 7.88082e-07)
(-0.000260108 3.66793e-05 6.97538e-07)
(-0.000265304 3.74118e-05 6.14003e-07)
(-0.000270415 3.81325e-05 5.35341e-07)
(-0.000275379 3.88325e-05 4.59187e-07)
(-0.0002801 3.94984e-05 3.83068e-07)
(-0.000284431 4.01089e-05 3.04551e-07)
(-0.000288157 4.06347e-05 2.21908e-07)
(-0.000290992 4.10349e-05 1.32708e-07)
(-0.000292516 4.12512e-05 4.30104e-08)
(-9.19573e-05 1.27108e-05 0.000176386)
(-0.00010977 1.51435e-05 2.69409e-05)
(-0.000126268 1.74248e-05 1.98318e-05)
(-0.000137873 1.90273e-05 1.3307e-05)
(-0.000147516 2.03582e-05 1.00884e-05)
(-0.000155967 2.15248e-05 7.99744e-06)
(-0.000163617 2.25808e-05 6.51791e-06)
(-0.000170694 2.35572e-05 5.41551e-06)
(-0.000177346 2.44757e-05 4.56439e-06)
(-0.000183675 2.53491e-05 3.88985e-06)
(-0.000189757 2.61884e-05 3.34418e-06)
(-0.000195645 2.7001e-05 2.89531e-06)
(-0.000201382 2.77927e-05 2.52169e-06)
(-0.000207002 2.85685e-05 2.20712e-06)
(-0.000212531 2.93316e-05 1.93957e-06)
(-0.000217991 3.00852e-05 1.7104e-06)
(-0.0002234 3.08317e-05 1.51258e-06)
(-0.000228772 3.1573e-05 1.34071e-06)
(-0.000234119 3.23108e-05 1.19044e-06)
(-0.000239446 3.30461e-05 1.05822e-06)
(-0.000244761 3.37793e-05 9.41208e-07)
(-0.000250062 3.45109e-05 8.369e-07)
(-0.000255346 3.52402e-05 7.43088e-07)
(-0.000260602 3.59654e-05 6.57713e-07)
(-0.000265808 3.66839e-05 5.78914e-07)
(-0.000270928 3.73903e-05 5.04743e-07)
(-0.000275901 3.80767e-05 4.32971e-07)
(-0.000280632 3.87294e-05 3.61198e-07)
(-0.000284971 3.93284e-05 2.87185e-07)
(-0.000288705 3.98441e-05 2.09299e-07)
(-0.000291547 4.02369e-05 1.25222e-07)
(-0.000293076 4.04492e-05 4.06063e-08)
(-9.21406e-05 1.23704e-05 0.000165455)
(-0.000109938 1.47281e-05 2.52388e-05)
(-0.00012647 1.69483e-05 1.86065e-05)
(-0.000138096 1.85072e-05 1.24815e-05)
(-0.000147754 1.9802e-05 9.46233e-06)
(-0.00015622 2.09368e-05 7.50116e-06)
(-0.000163882 2.19637e-05 6.11318e-06)
(-0.00017097 2.29139e-05 5.07946e-06)
(-0.000177634 2.3807e-05 4.28119e-06)
(-0.000183974 2.46569e-05 3.64813e-06)
(-0.000190065 2.5473e-05 3.13635e-06)
(-0.000195962 2.62634e-05 2.71567e-06)
(-0.000201709 2.70338e-05 2.36525e-06)
(-0.000207338 2.7788e-05 2.07007e-06)
(-0.000212876 2.85303e-05 1.81913e-06)
(-0.000218345 2.92633e-05 1.60419e-06)
(-0.000223763 2.99894e-05 1.41858e-06)
(-0.000229144 3.07105e-05 1.25738e-06)
(-0.000234499 3.1428e-05 1.11652e-06)
(-0.000239835 3.21432e-05 9.92506e-07)
(-0.000245158 3.28565e-05 8.82765e-07)
(-0.000250467 3.35682e-05 7.84933e-07)
(-0.00025576 3.42776e-05 6.96907e-07)
(-0.000261025 3.49829e-05 6.16833e-07)
(-0.000266239 3.56816e-05 5.42967e-07)
(-0.000271367 3.63688e-05 4.73402e-07)
(-0.000276348 3.70363e-05 4.06062e-07)
(-0.000281086 3.76712e-05 3.38768e-07)
(-0.000285433 3.8254e-05 2.69396e-07)
(-0.000289173 3.87555e-05 1.96341e-07)
(-0.00029202 3.91376e-05 1.17529e-07)
(-0.000293554 3.93451e-05 3.81493e-08)
(-9.23053e-05 1.19361e-05 0.000154269)
(-0.000110078 1.4199e-05 2.3498e-05)
(-0.000126641 1.63415e-05 1.73517e-05)
(-0.000138283 1.78448e-05 1.16373e-05)
(-0.000147956 1.90936e-05 8.82193e-06)
(-0.000156433 2.01877e-05 6.99296e-06)
(-0.000164106 2.1178e-05 5.69926e-06)
(-0.000171204 2.20943e-05 4.73536e-06)
(-0.000177877 2.29554e-05 3.99112e-06)
(-0.000184226 2.37748e-05 3.40116e-06)
(-0.000190325 2.45621e-05 2.92387e-06)
(-0.000196231 2.53242e-05 2.53168e-06)
(-0.000201985 2.60666e-05 2.20489e-06)
(-0.000207621 2.6794e-05 1.92971e-06)
(-0.000213167 2.75097e-05 1.69589e-06)
(-0.000218644 2.82165e-05 1.49551e-06)
(-0.000224069 2.89167e-05 1.32255e-06)
(-0.000229457 2.9612e-05 1.1722e-06)
(-0.000234819 3.0304e-05 1.04081e-06)
(-0.000240163 3.09934e-05 9.25265e-07)
(-0.000245493 3.16812e-05 8.22959e-07)
(-0.00025081 3.23674e-05 7.31755e-07)
(-0.00025611 3.30513e-05 6.49693e-07)
(-0.000261381 3.37315e-05 5.75011e-07)
(-0.000266602 3.44051e-05 5.06149e-07)
(-0.000271737 3.50676e-05 4.41304e-07)
(-0.000276725 3.57111e-05 3.7855e-07)
(-0.00028147 3.63236e-05 3.15842e-07)
(-0.000285823 3.68854e-05 2.51146e-07)
(-0.000289568 3.73691e-05 1.83074e-07)
(-0.00029242 3.77379e-05 1.0969e-07)
(-0.00029396 3.79387e-05 3.56548e-08)
(-9.24541e-05 1.14079e-05 0.000142844)
(-0.00011019 1.35576e-05 2.17219e-05)
(-0.000126781 1.56057e-05 1.60704e-05)
(-0.000138439 1.70418e-05 1.07746e-05)
(-0.000148123 1.82343e-05 8.16751e-06)
(-0.00015661 1.92793e-05 6.47422e-06)
(-0.000164292 2.02252e-05 5.27653e-06)
(-0.000171399 2.11001e-05 4.38412e-06)
(-0.000178079 2.19227e-05 3.69494e-06)
(-0.000184435 2.27051e-05 3.14873e-06)
(-0.000190542 2.34569e-05 2.70702e-06)
(-0.000196454 2.41848e-05 2.34367e-06)
(-0.000202214 2.48939e-05 2.04124e-06)
(-0.000207858 2.55888e-05 1.78661e-06)
(-0.00021341 2.62721e-05 1.57003e-06)
(-0.000218893 2.69471e-05 1.38452e-06)
(-0.000224324 2.76158e-05 1.22433e-06)
(-0.000229718 2.82798e-05 1.0852e-06)
(-0.000235086 2.89407e-05 9.63571e-07)
(-0.000240435 2.9599e-05 8.56541e-07)
(-0.000245772 3.02559e-05 7.61883e-07)
(-0.000251095 3.0911e-05 6.77409e-07)
(-0.0002564 3.1564e-05 6.01437e-07)
(-0.000261678 3.22135e-05 5.32337e-07)
(-0.000266905 3.2857e-05 4.68558e-07)
(-0.000272045 3.34896e-05 4.08526e-07)
(-0.000277038 3.41043e-05 3.50456e-07)
(-0.000281788 3.46889e-05 2.92403e-07)
(-0.000286146 3.52257e-05 2.32543e-07)
(-0.000289897 3.56881e-05 1.69554e-07)
(-0.000292754 3.60405e-05 1.0165e-07)
(-0.000294299 3.62331e-05 3.30782e-08)
(-9.25886e-05 1.07876e-05 0.000131197)
(-0.000110279 1.28064e-05 1.99142e-05)
(-0.000126896 1.47437e-05 1.47639e-05)
(-0.000138566 1.61007e-05 9.89547e-06)
(-0.00014826 1.72275e-05 7.50069e-06)
(-0.000156755 1.82151e-05 5.94547e-06)
(-0.000164445 1.91088e-05 4.84539e-06)
(-0.000171558 1.99354e-05 4.0259e-06)
(-0.000178244 2.07124e-05 3.39319e-06)
(-0.000184607 2.14519e-05 2.89147e-06)
(-0.000190719 2.2162e-05 2.4857e-06)
(-0.000196636 2.28498e-05 2.15228e-06)
(-0.000202403 2.35199e-05 1.87456e-06)
(-0.000208051 2.41763e-05 1.64054e-06)
(-0.000213608 2.48219e-05 1.44165e-06)
(-0.000219096 2.54597e-05 1.27139e-06)
(-0.000224533 2.60913e-05 1.12435e-06)
(-0.000229932 2.67189e-05 9.96536e-07)
(-0.000235305 2.7343e-05 8.84782e-07)
(-0.000240659 2.79652e-05 7.86555e-07)
(-0.000246 2.85857e-05 6.99591e-07)
(-0.000251327 2.92046e-05 6.2202e-07)
(-0.000256638 2.98215e-05 5.52263e-07)
(-0.00026192 3.04351e-05 4.88809e-07)
(-0.000267151 3.1043e-05 4.30274e-07)
(-0.000272296 3.16407e-05 3.75147e-07)
(-0.000277294 3.22215e-05 3.21802e-07)
(-0.000282048 3.27739e-05 2.68528e-07)
(-0.000286411 3.32813e-05 2.13596e-07)
(-0.000290166 3.37182e-05 1.55745e-07)
(-0.000293027 3.40515e-05 9.34756e-08)
(-0.000294579 3.42347e-05 3.04774e-08)
(-9.27116e-05 1.00785e-05 0.000119346)
(-0.000110345 1.19492e-05 1.80787e-05)
(-0.000126987 1.37595e-05 1.34341e-05)
(-0.000138667 1.50265e-05 9.00055e-06)
(-0.000148369 1.60783e-05 6.8222e-06)
(-0.000156871 1.70001e-05 5.40771e-06)
(-0.000164567 1.78343e-05 4.40698e-06)
(-0.000171686 1.86057e-05 3.66147e-06)
(-0.000178377 1.93309e-05 3.08603e-06)
(-0.000184744 2.00209e-05 2.62973e-06)
(-0.000190861 2.0684e-05 2.2608e-06)
(-0.000196784 2.13259e-05 1.95747e-06)
(-0.000202554 2.19512e-05 1.70477e-06)
(-0.000208206 2.25636e-05 1.49211e-06)
(-0.000213768 2.31665e-05 1.31123e-06)
(-0.00021926 2.37617e-05 1.15624e-06)
(-0.0002247 2.43511e-05 1.02251e-06)
(-0.000230104 2.49365e-05 9.06328e-07)
(-0.00023548 2.55192e-05 8.0469e-07)
(-0.000240838 2.60998e-05 7.15314e-07)
(-0.000246183 2.66788e-05 6.36222e-07)
(-0.000251514 2.72564e-05 5.65681e-07)
(-0.000256828 2.78322e-05 5.02239e-07)
(-0.000262114 2.84048e-05 4.44562e-07)
(-0.000267349 2.89722e-05 3.91303e-07)
(-0.000272497 2.95299e-05 3.41166e-07)
(-0.000277499 3.00718e-05 2.92692e-07)
(-0.000282257 3.05876e-05 2.4424e-07)
(-0.000286624 3.10612e-05 1.94291e-07)
(-0.000290383 3.14693e-05 1.41716e-07)
(-0.000293248 3.17812e-05 8.51462e-08)
(-0.000294806 3.1953e-05 2.78114e-08)
(-9.2826e-05 9.28364e-06 0.000107308)
(-0.000110393 1.09914e-05 1.62183e-05)
(-0.000127057 1.26591e-05 1.2083e-05)
(-0.000138747 1.38255e-05 8.09233e-06)
(-0.000148455 1.47933e-05 6.13308e-06)
(-0.000156963 1.56415e-05 4.86133e-06)
(-0.000164664 1.64089e-05 3.96154e-06)
(-0.000171786 1.71189e-05 3.29138e-06)
(-0.000178482 1.77861e-05 2.77411e-06)
(-0.000184853 1.8421e-05 2.36404e-06)
(-0.000190974 1.90311e-05 2.0323e-06)
(-0.000196899 1.96215e-05 1.75961e-06)
(-0.000202673 2.0197e-05 1.53247e-06)
(-0.000208329 2.07605e-05 1.34122e-06)
(-0.000213893 2.1315e-05 1.1787e-06)
(-0.000219389 2.18626e-05 1.03937e-06)
(-0.000224832 2.24051e-05 9.19106e-07)
(-0.000230238 2.29436e-05 8.14669e-07)
(-0.000235618 2.34796e-05 7.23356e-07)
(-0.000240979 2.40139e-05 6.43013e-07)
(-0.000246327 2.45466e-05 5.71883e-07)
(-0.000251661 2.5078e-05 5.08473e-07)
(-0.000256978 2.56077e-05 4.5145e-07)
(-0.000262266 2.61345e-05 3.99603e-07)
(-0.000267505 2.66562e-05 3.51753e-07)
(-0.000272656 2.71695e-05 3.06666e-07)
(-0.00027766 2.7668e-05 2.63091e-07)
(-0.000282421 2.81426e-05 2.19584e-07)
(-0.000286791 2.85788e-05 1.7471e-07)
(-0.000290554 2.89547e-05 1.27478e-07)
(-0.000293423 2.92422e-05 7.66927e-08)
(-0.000294988 2.94018e-05 2.50943e-08)
(-9.29316e-05 8.40679e-06 9.50995e-05)
(-0.000110425 9.93955e-06 1.43391e-05)
(-0.00012711 1.145e-05 1.07118e-05)
(-0.000138808 1.2505e-05 7.17083e-06)
(-0.000148521 1.33808e-05 5.43439e-06)
(-0.000157034 1.4148e-05 4.3074e-06)
(-0.000164737 1.48423e-05 3.51014e-06)
(-0.000171864 1.54846e-05 2.91636e-06)
(-0.000178563 1.60881e-05 2.45791e-06)
(-0.000184936 1.66624e-05 2.09458e-06)
(-0.00019106 1.72141e-05 1.80065e-06)
(-0.000196988 1.77483e-05 1.55904e-06)
(-0.000202765 1.82688e-05 1.35779e-06)
(-0.000208423 1.87785e-05 1.18834e-06)
(-0.00021399 1.92802e-05 1.04435e-06)
(-0.000219488 1.97753e-05 9.20902e-07)
(-0.000224934 2.0266e-05 8.14343e-07)
(-0.000230342 2.07531e-05 7.21769e-07)
(-0.000235724 2.12379e-05 6.40865e-07)
(-0.000241088 2.1721e-05 5.69688e-07)
(-0.000246437 2.22028e-05 5.06666e-07)
(-0.000251774 2.26834e-05 4.5049e-07)
(-0.000257092 2.31625e-05 3.99967e-07)
(-0.000262383 2.36389e-05 3.54015e-07)
(-0.000267623 2.41107e-05 3.11619e-07)
(-0.000272776 2.45749e-05 2.71712e-07)
(-0.000277783 2.50261e-05 2.33119e-07)
(-0.000282546 2.54557e-05 1.94598e-07)
(-0.00028692 2.58504e-05 1.54858e-07)
(-0.000290686 2.61911e-05 1.13025e-07)
(-0.00029356 2.64516e-05 6.81038e-08)
(-0.000295133 2.65977e-05 2.23449e-08)
(-9.30244e-05 7.47572e-06 8.27387e-05)
(-0.000110445 8.79476e-06 1.24455e-05)
(-0.000127149 1.01389e-05 9.32232e-06)
(-0.000138852 1.10745e-05 6.23839e-06)
(-0.00014857 1.18506e-05 4.72742e-06)
(-0.000157086 1.25303e-05 3.74676e-06)
(-0.000164793 1.31455e-05 3.05329e-06)
(-0.000171922 1.37143e-05 2.53668e-06)
(-0.000178623 1.42491e-05 2.13791e-06)
(-0.000184999 1.47577e-05 1.82188e-06)
(-0.000191125 1.52464e-05 1.56623e-06)
(-0.000197055 1.57195e-05 1.35607e-06)
(-0.000202834 1.61805e-05 1.18102e-06)
(-0.000208494 1.6632e-05 1.03363e-06)
(-0.000214063 1.70761e-05 9.08334e-07)
(-0.000219562 1.75146e-05 8.00959e-07)
(-0.00022501 1.7949e-05 7.08283e-07)
(-0.000230419 1.83806e-05 6.27761e-07)
(-0.000235803 1.88097e-05 5.57398e-07)
(-0.000241168 1.92375e-05 4.95489e-07)
(-0.000246519 1.96642e-05 4.40678e-07)
(-0.000251857 2.00897e-05 3.91816e-07)
(-0.000257178 2.05138e-05 3.47876e-07)
(-0.000262469 2.09358e-05 3.07906e-07)
(-0.000267711 2.13538e-05 2.71035e-07)
(-0.000272865 2.17648e-05 2.36338e-07)
(-0.000277874 2.21647e-05 2.02798e-07)
(-0.00028264 2.25454e-05 1.693e-07)
(-0.000287016 2.28954e-05 1.34772e-07)
(-0.000290787 2.31979e-05 9.84072e-08)
(-0.000293665 2.34295e-05 5.93875e-08)
(-0.000295247 2.35609e-05 1.95405e-08)
(-9.31884e-05 6.5039e-06 7.0266e-05)
(-0.000110432 7.56474e-06 1.05117e-05)
(-0.00012717 8.7359e-06 7.92302e-06)
(-0.000138881 9.54451e-06 5.29667e-06)
(-0.000148603 1.02143e-05 4.01311e-06)
(-0.000157123 1.08007e-05 3.18056e-06)
(-0.000164832 1.13313e-05 2.5918e-06)
(-0.000171964 1.18219e-05 2.15329e-06)
(-0.000178667 1.2283e-05 1.81471e-06)
(-0.000185044 1.27216e-05 1.54638e-06)
(-0.000191172 1.31429e-05 1.32938e-06)
(-0.000197104 1.35507e-05 1.151e-06)
(-0.000202884 1.39481e-05 1.00243e-06)
(-0.000208545 1.43372e-05 8.77274e-07)
(-0.000214115 1.472e-05 7.70927e-07)
(-0.000219615 1.50981e-05 6.79799e-07)
(-0.000225064 1.54724e-05 6.01172e-07)
(-0.000230476 1.58443e-05 5.32805e-07)
(-0.000235859 1.62141e-05 4.73048e-07)
(-0.000241225 1.65829e-05 4.20537e-07)
(-0.000246577 1.69503e-05 3.73993e-07)
(-0.000251916 1.7317e-05 3.32506e-07)
(-0.000257236 1.76823e-05 2.95233e-07)
(-0.000262529 1.80461e-05 2.61331e-07)
(-0.000267772 1.84063e-05 2.30035e-07)
(-0.000272927 1.8761e-05 2.00613e-07)
(-0.000277938 1.91058e-05 1.72167e-07)
(-0.000282707 1.94345e-05 1.43751e-07)
(-0.000287086 1.97369e-05 1.14465e-07)
(-0.000290861 1.99985e-05 8.36241e-08)
(-0.000293744 2.01995e-05 5.05771e-08)
(-0.000295337 2.03148e-05 1.67017e-08)
(-9.34293e-05 5.47855e-06 5.76897e-05)
(-0.000110388 6.26552e-06 8.55596e-06)
(-0.000127175 7.25386e-06 6.51204e-06)
(-0.000138896 7.92829e-06 4.34723e-06)
(-0.000148624 8.48598e-06 3.29289e-06)
(-0.000157146 8.97396e-06 2.60941e-06)
(-0.000164858 9.415e-06 2.12632e-06)
(-0.000171992 9.82299e-06 1.76642e-06)
(-0.000178696 1.02061e-05 1.48867e-06)
(-0.000185076 1.05707e-05 1.26856e-06)
(-0.000191204 1.09208e-05 1.09048e-06)
(-0.000197137 1.12597e-05 9.44161e-07)
(-0.000202918 1.15898e-05 8.22242e-07)
(-0.00020858 1.19132e-05 7.19579e-07)
(-0.000214151 1.22312e-05 6.32387e-07)
(-0.000219652 1.25451e-05 5.57604e-07)
(-0.000225101 1.28561e-05 4.93052e-07)
(-0.000230512 1.31647e-05 4.37001e-07)
(-0.000235897 1.34721e-05 3.88017e-07)
(-0.000241263 1.37781e-05 3.44903e-07)
(-0.000246615 1.40833e-05 3.06728e-07)
(-0.000251954 1.4388e-05 2.72721e-07)
(-0.000257275 1.46916e-05 2.4215e-07)
(-0.000262568 1.49936e-05 2.14356e-07)
(-0.000267811 1.52933e-05 1.8871e-07)
(-0.000272968 1.55882e-05 1.64585e-07)
(-0.00027798 1.58752e-05 1.41266e-07)
(-0.000282752 1.61491e-05 1.17987e-07)
(-0.000287135 1.64015e-05 9.39864e-08)
(-0.000290915 1.66199e-05 6.8704e-08)
(-0.000293805 1.6788e-05 4.16408e-08)
(-0.00029541 1.68859e-05 1.37958e-08)
(-9.376e-05 4.41665e-06 4.50185e-05)
(-0.000110311 4.90584e-06 6.59486e-06)
(-0.000127167 5.70499e-06 5.08966e-06)
(-0.000138901 6.23943e-06 3.39056e-06)
(-0.000148633 6.67986e-06 2.56743e-06)
(-0.000157159 7.06503e-06 2.03424e-06)
(-0.000164873 7.41265e-06 1.65743e-06)
(-0.000172009 7.7341e-06 1.37691e-06)
(-0.000178715 8.03606e-06 1.1603e-06)
(-0.000185095 8.3232e-06 9.8869e-07)
(-0.000191224 8.59888e-06 8.49904e-07)
(-0.000197158 8.86577e-06 7.35824e-07)
(-0.000202939 9.12547e-06 6.40836e-07)
(-0.000208602 9.38002e-06 5.60831e-07)
(-0.000214173 9.63026e-06 4.92786e-07)
(-0.000219674 9.87718e-06 4.34508e-07)
(-0.000225123 1.01218e-05 3.84229e-07)
(-0.000230534 1.03648e-05 3.4055e-07)
(-0.000235919 1.06064e-05 3.0236e-07)
(-0.000241284 1.08472e-05 2.68762e-07)
(-0.000246636 1.10874e-05 2.3903e-07)
(-0.000251975 1.13274e-05 2.12529e-07)
(-0.000257296 1.15665e-05 1.88705e-07)
(-0.000262589 1.18048e-05 1.67066e-07)
(-0.000267833 1.20412e-05 1.47098e-07)
(-0.000272992 1.2274e-05 1.28309e-07)
(-0.000278007 1.25009e-05 1.10161e-07)
(-0.000282782 1.27175e-05 9.20373e-08)
(-0.00028717 1.29174e-05 7.33412e-08)
(-0.000290956 1.30905e-05 5.36371e-08)
(-0.000293852 1.32239e-05 3.25868e-08)
(-0.00029547 1.33034e-05 1.08399e-08)
(-9.4224e-05 3.32503e-06 3.22634e-05)
(-0.000110193 3.49928e-06 4.64316e-06)
(-0.000127143 4.10288e-06 3.65523e-06)
(-0.000138893 4.49249e-06 2.42804e-06)
(-0.000148633 4.81212e-06 1.83771e-06)
(-0.000157163 5.09055e-06 1.45574e-06)
(-0.000164879 5.34192e-06 1.18592e-06)
(-0.000172016 5.57383e-06 9.85121e-07)
(-0.000178723 5.79165e-06 8.30151e-07)
(-0.000185104 5.99874e-06 7.07337e-07)
(-0.000191234 6.19733e-06 6.08012e-07)
(-0.000197168 6.38958e-06 5.26373e-07)
(-0.000202949 6.57671e-06 4.58371e-07)
(-0.000208611 6.75965e-06 4.01141e-07)
(-0.000214182 6.93979e-06 3.52492e-07)
(-0.000219683 7.11766e-06 3.10788e-07)
(-0.000225131 7.29365e-06 2.74823e-07)
(-0.000230542 7.46862e-06 2.43569e-07)
(-0.000235925 7.64251e-06 2.16251e-07)
(-0.000241291 7.81616e-06 1.92236e-07)
(-0.000246641 7.98966e-06 1.70979e-07)
(-0.00025198 8.16278e-06 1.52042e-07)
(-0.000257302 8.33583e-06 1.35015e-07)
(-0.000262596 8.50851e-06 1.19549e-07)
(-0.000267843 8.67962e-06 1.05274e-07)
(-0.000273004 8.84864e-06 9.18469e-08)
(-0.000278023 9.01335e-06 7.88692e-08)
(-0.000282802 9.17048e-06 6.59114e-08)
(-0.000287196 9.3156e-06 5.25419e-08)
(-0.000290988 9.44154e-06 3.84451e-08)
(-0.00029389 9.53863e-06 2.34118e-08)
(-0.000295522 9.59765e-06 7.81804e-09)
(-9.48339e-05 2.15016e-06 1.94238e-05)
(-0.000110034 2.07504e-06 2.7297e-06)
(-0.000127104 2.46644e-06 2.20625e-06)
(-0.000138874 2.70607e-06 1.4602e-06)
(-0.000148623 2.90087e-06 1.10452e-06)
(-0.000157157 3.06992e-06 8.74698e-07)
(-0.000164876 3.22219e-06 7.12476e-07)
(-0.000172015 3.36243e-06 5.91765e-07)
(-0.000178723 3.49391e-06 4.98629e-07)
(-0.000185105 3.61867e-06 4.24818e-07)
(-0.000191234 3.73849e-06 3.65143e-07)
(-0.000197168 3.85416e-06 3.16113e-07)
(-0.000202948 3.96699e-06 2.75259e-07)
(-0.000208609 4.07715e-06 2.40876e-07)
(-0.000214179 4.18569e-06 2.11662e-07)
(-0.000219679 4.29269e-06 1.86619e-07)
(-0.000225126 4.39899e-06 1.65023e-07)
(-0.000230536 4.5044e-06 1.46264e-07)
(-0.000235918 4.60994e-06 1.29869e-07)
(-0.000241284 4.71497e-06 1.15466e-07)
(-0.000246636 4.8204e-06 1.02707e-07)
(-0.000251975 4.92558e-06 9.13365e-08)
(-0.000257299 5.03095e-06 8.11293e-08)
(-0.000262596 5.13597e-06 7.18418e-08)
(-0.000267845 5.24021e-06 6.32723e-08)
(-0.000273011 5.34299e-06 5.52152e-08)
(-0.000278034 5.44313e-06 4.74197e-08)
(-0.000282818 5.53893e-06 3.96352e-08)
(-0.000287218 5.62735e-06 3.16055e-08)
(-0.000291016 5.70402e-06 2.31337e-08)
(-0.000293924 5.76308e-06 1.41135e-08)
(-0.000295566 5.80018e-06 4.72889e-09)
(-9.53981e-05 7.65177e-07 6.49216e-06)
(-0.000109886 6.81732e-07 8.92168e-07)
(-0.000127065 8.21174e-07 7.39054e-07)
(-0.000138852 9.02772e-07 4.87554e-07)
(-0.000148609 9.68444e-07 3.68587e-07)
(-0.000157147 1.02532e-06 2.91822e-07)
(-0.000164869 1.07636e-06 2.37656e-07)
(-0.000172008 1.12325e-06 1.97365e-07)
(-0.000178716 1.16716e-06 1.66286e-07)
(-0.000185098 1.20876e-06 1.4167e-07)
(-0.000191227 1.24888e-06 1.21763e-07)
(-0.000197159 1.28739e-06 1.05406e-07)
(-0.000202939 1.32506e-06 9.17829e-08)
(-0.000208599 1.36178e-06 8.03172e-08)
(-0.000214169 1.39807e-06 7.05764e-08)
(-0.000219667 1.43373e-06 6.2229e-08)
(-0.000225114 1.46938e-06 5.50316e-08)
(-0.000230524 1.50463e-06 4.87814e-08)
(-0.000235908 1.5402e-06 4.33195e-08)
(-0.000241274 1.57549e-06 3.85159e-08)
(-0.000246627 1.61086e-06 3.42669e-08)
(-0.000251969 1.64648e-06 3.04786e-08)
(-0.000257296 1.682e-06 2.70741e-08)
(-0.000262596 1.71735e-06 2.39781e-08)
(-0.000267848 1.75256e-06 2.11203e-08)
(-0.000273017 1.78704e-06 1.8432e-08)
(-0.000278043 1.8206e-06 1.58343e-08)
(-0.000282831 1.85293e-06 1.32395e-08)
(-0.000287234 1.88273e-06 1.05593e-08)
(-0.000291036 1.90844e-06 7.73096e-09)
(-0.000293947 1.92832e-06 4.72433e-09)
(-0.000295598 1.94127e-06 1.58772e-09)
(-9.53981e-05 -7.65161e-07 -6.49212e-06)
(-0.000109886 -6.81714e-07 -8.92164e-07)
(-0.000127065 -8.21154e-07 -7.39052e-07)
(-0.000138852 -9.02751e-07 -4.87553e-07)
(-0.000148609 -9.68422e-07 -3.68588e-07)
(-0.000157147 -1.0253e-06 -2.91824e-07)
(-0.000164869 -1.07633e-06 -2.37659e-07)
(-0.000172008 -1.12323e-06 -1.97368e-07)
(-0.000178716 -1.16714e-06 -1.6629e-07)
(-0.000185098 -1.20874e-06 -1.41674e-07)
(-0.000191227 -1.24886e-06 -1.21768e-07)
(-0.000197159 -1.28736e-06 -1.05411e-07)
(-0.000202939 -1.32503e-06 -9.17886e-08)
(-0.000208599 -1.36175e-06 -8.03229e-08)
(-0.000214169 -1.39804e-06 -7.0582e-08)
(-0.000219667 -1.4337e-06 -6.22341e-08)
(-0.000225114 -1.46936e-06 -5.50358e-08)
(-0.000230524 -1.5046e-06 -4.87842e-08)
(-0.000235908 -1.54017e-06 -4.33205e-08)
(-0.000241274 -1.57546e-06 -3.85145e-08)
(-0.000246627 -1.61083e-06 -3.42626e-08)
(-0.000251969 -1.64646e-06 -3.04709e-08)
(-0.000257296 -1.68198e-06 -2.70625e-08)
(-0.000262596 -1.71733e-06 -2.39622e-08)
(-0.000267848 -1.75254e-06 -2.11001e-08)
(-0.000273017 -1.78703e-06 -1.84077e-08)
(-0.000278043 -1.82058e-06 -1.58066e-08)
(-0.000282831 -1.85291e-06 -1.32101e-08)
(-0.000287234 -1.88272e-06 -1.05308e-08)
(-0.000291036 -1.90843e-06 -7.70595e-09)
(-0.000293947 -1.9283e-06 -4.70691e-09)
(-0.000295598 -1.94125e-06 -1.58009e-09)
(-9.48339e-05 -2.15015e-06 -1.94238e-05)
(-0.000110034 -2.07502e-06 -2.7297e-06)
(-0.000127104 -2.46642e-06 -2.20625e-06)
(-0.000138874 -2.70605e-06 -1.4602e-06)
(-0.000148623 -2.90085e-06 -1.10452e-06)
(-0.000157157 -3.0699e-06 -8.74699e-07)
(-0.000164876 -3.22217e-06 -7.12479e-07)
(-0.000172015 -3.3624e-06 -5.91768e-07)
(-0.000178723 -3.49389e-06 -4.98632e-07)
(-0.000185105 -3.61865e-06 -4.24822e-07)
(-0.000191234 -3.73847e-06 -3.65148e-07)
(-0.000197168 -3.85413e-06 -3.16118e-07)
(-0.000202948 -3.96696e-06 -2.75264e-07)
(-0.000208609 -4.07713e-06 -2.40882e-07)
(-0.000214179 -4.18566e-06 -2.11668e-07)
(-0.000219679 -4.29266e-06 -1.86625e-07)
(-0.000225126 -4.39897e-06 -1.65028e-07)
(-0.000230536 -4.50438e-06 -1.46267e-07)
(-0.000235918 -4.60991e-06 -1.2987e-07)
(-0.000241284 -4.71494e-06 -1.15465e-07)
(-0.000246636 -4.82038e-06 -1.02703e-07)
(-0.000251975 -4.92556e-06 -9.13288e-08)
(-0.000257299 -5.03093e-06 -8.11177e-08)
(-0.000262596 -5.13595e-06 -7.1826e-08)
(-0.000267845 -5.24019e-06 -6.32521e-08)
(-0.000273011 -5.34297e-06 -5.51909e-08)
(-0.000278034 -5.44311e-06 -4.7392e-08)
(-0.000282818 -5.53891e-06 -3.96059e-08)
(-0.000287218 -5.62734e-06 -3.15772e-08)
(-0.000291016 -5.704e-06 -2.31088e-08)
(-0.000293924 -5.76307e-06 -1.40962e-08)
(-0.000295566 -5.80017e-06 -4.7211e-09)
(-9.4224e-05 -3.32502e-06 -3.22633e-05)
(-0.000110193 -3.49926e-06 -4.64315e-06)
(-0.000127143 -4.10286e-06 -3.65523e-06)
(-0.000138893 -4.49247e-06 -2.42804e-06)
(-0.000148633 -4.8121e-06 -1.83771e-06)
(-0.000157163 -5.09053e-06 -1.45575e-06)
(-0.000164879 -5.34189e-06 -1.18593e-06)
(-0.000172016 -5.57381e-06 -9.85124e-07)
(-0.000178723 -5.79163e-06 -8.30154e-07)
(-0.000185104 -5.99871e-06 -7.07342e-07)
(-0.000191234 -6.1973e-06 -6.08017e-07)
(-0.000197168 -6.38956e-06 -5.26378e-07)
(-0.000202949 -6.57668e-06 -4.58377e-07)
(-0.000208611 -6.75963e-06 -4.01147e-07)
(-0.000214182 -6.93976e-06 -3.52498e-07)
(-0.000219683 -7.11763e-06 -3.10793e-07)
(-0.000225131 -7.29363e-06 -2.74827e-07)
(-0.000230542 -7.46859e-06 -2.43572e-07)
(-0.000235925 -7.64248e-06 -2.16252e-07)
(-0.000241291 -7.81614e-06 -1.92234e-07)
(-0.000246641 -7.98964e-06 -1.70974e-07)
(-0.00025198 -8.16276e-06 -1.52034e-07)
(-0.000257302 -8.33581e-06 -1.35004e-07)
(-0.000262596 -8.50849e-06 -1.19533e-07)
(-0.000267843 -8.6796e-06 -1.05254e-07)
(-0.000273004 -8.84863e-06 -9.18227e-08)
(-0.000278023 -9.01333e-06 -7.88416e-08)
(-0.000282802 -9.17046e-06 -6.58822e-08)
(-0.000287196 -9.31558e-06 -5.25137e-08)
(-0.000290988 -9.44153e-06 -3.84203e-08)
(-0.00029389 -9.53861e-06 -2.33945e-08)
(-0.000295522 -9.59763e-06 -7.81007e-09)
(-9.376e-05 -4.41663e-06 -4.50184e-05)
(-0.000110311 -4.90582e-06 -6.59485e-06)
(-0.000127167 -5.70497e-06 -5.08966e-06)
(-0.000138901 -6.23941e-06 -3.39056e-06)
(-0.000148633 -6.67984e-06 -2.56743e-06)
(-0.000157159 -7.06501e-06 -2.03424e-06)
(-0.000164873 -7.41263e-06 -1.65743e-06)