/*--------------------------------*- C++ -*----------------------------------*\
  =========                 |
  \\      /  F ield         | OpenFOAM: The Open Source CFD Toolbox
   \\    /   O peration     | Website:  https://openfoam.org
    \\  /    A nd           | Version:  6
     \\/     M anipulation  |
\*---------------------------------------------------------------------------*/
FoamFile
{
    version     2.0;
    format      ascii;
    class       volScalarField;
    location    "50";
    object      yPlus;
}
// * * * * * * * * * * * * * * * * * * * * * * * * * * * * * * * * * * * * * //

dimensions      [0 0 0 0 0 0 0];

internalField   uniform 0;

boundaryField
{
    inlet
    {
        type            calculated;
        value           uniform 0;
    }
    outlet
    {
        type            calculated;
        value           uniform 0;
    }
    roughCylinder
    {
        type            calculated;
        value           nonuniform List<scalar> 
5120
(
42.6387
50.4039
56.5744
62.5852
67.7281
71.8734
75.1822
77.8488
80.0283
81.8566
83.4525
84.8827
86.185
87.3914
88.5317
89.6357
90.733
91.8505
93.0103
94.2284
95.5132
96.8664
98.2845
99.7604
101.284
102.842
104.417
105.987
107.512
108.923
110.08
110.754
41.9528
49.4349
55.4096
61.2846
66.3567
70.4672
73.7571
76.4151
78.5949
80.4307
82.0347
83.4678
84.7611
85.9528
87.075
88.1579
89.2318
90.3247
91.4591
92.6504
93.9069
95.2305
96.6176
98.0609
99.5501
101.073
102.611
104.144
105.632
107.008
108.136
108.792
41.1823
48.4191
54.211
59.9528
64.957
69.0396
72.3204
74.9809
77.1721
79.0235
80.6393
82.0756
83.3625
84.5428
85.6483
86.7113
87.7637
88.8333
89.9422
91.107
92.3359
93.6303
94.9868
96.3979
97.8533
99.3407
100.843
102.339
103.79
105.132
106.232
106.87
40.3992
47.4011
53.0087
58.6117
63.5448
67.5997
70.8734
73.541
75.7514
77.6272
79.2614
80.7061
81.9942
83.1651
84.2573
85.3034
86.3357
87.3829
88.4691
89.6091
90.8112
92.0775
93.4041
94.7835
96.2056
97.6579
99.1242
100.584
101.998
103.307
104.377
104.997
39.5556
46.336
51.7583
57.2205
62.0872
66.1273
69.4122
72.105
74.3478
76.254
77.909
79.3641
80.6556
81.8218
82.9032
83.9341
84.9486
85.9765
87.0399
88.1557
89.3327
90.5719
91.8697
93.2188
94.6086
96.0274
97.4589
98.8828
100.262
101.537
102.579
103.181
38.712
45.2717
50.5026
55.8173
60.616
64.6436
67.9412
70.6591
72.9353
74.8764
76.5588
78.0322
79.3354
80.5049
81.5811
82.6015
83.6013
84.6107
85.6551
86.7497
87.9027
89.1161
90.3862
91.7054
93.0636
94.4489
95.845
97.2332
98.5771
99.8189
100.834
101.419
37.8055
44.1491
49.1799
54.3386
59.0705
63.1002
66.4346
69.2036
71.5325
73.517
75.2306
76.725
78.0406
79.2176
80.2924
81.3051
82.2928
83.2883
84.3137
85.3873
86.5181
87.707
88.9504
90.2412
91.5692
92.9223
94.2856
95.6397
96.949
98.1587
99.1475
99.7138
36.8927
43.019
47.8423
52.8372
57.5011
61.5377
64.9108
67.7248
70.0998
72.1303
73.883
75.408
76.7491
77.9426
79.028
80.0399
81.0213
82.004
83.0158
84.0724
85.1824
86.3482
87.5663
88.829
90.1266
91.4475
92.7765
94.0951
95.3707
96.5487
97.5106
98.0592
35.8966
41.804
46.4023
51.2131
55.7996
59.8536
63.2956
66.1966
68.655
70.7501
72.5509
74.1132
75.4788
76.6915
77.7861
78.8045
79.7822
80.7592
81.7573
82.797
83.8882
85.0324
86.2259
87.462
88.7307
90.0208
91.318
92.6042
93.8456
94.9925
95.9285
96.4592
34.8704
40.5562
44.9246
49.5424
54.0502
58.1301
61.6463
64.6225
67.1467
69.3073
71.1674
72.7769
74.187
75.4322
76.5534
77.5834
78.5692
79.5435
80.5352
81.5638
82.6384
83.7624
84.9327
86.1418
87.3808
88.6386
89.9012
91.1507
92.3589
93.4745
94.3846
94.8962
33.699
39.1648
43.2793
47.6665
52.0638
56.1653
59.7903
62.9128
65.5808
67.8485
69.7858
71.4592
72.911
74.1909
75.3325
76.3823
77.3744
78.3531
79.3389
80.3562
81.4164
82.5216
83.6689
84.8525
86.0628
87.2897
88.5208
89.7391
90.9124
91.997
92.8812
93.3744
32.4337
37.6941
41.5531
45.7026
49.9893
54.1289
57.8788
61.129
63.8968
66.2677
68.3029
70.0498
71.5736
72.9082
74.0992
75.1761
76.1916
77.1769
78.1659
79.1795
80.2278
81.316
82.4423
83.5995
84.7803
85.9743
87.1688
88.3484
89.4877
90.542
91.4003
91.8732
30.938
35.9904
39.5506
43.3883
47.4844
51.6162
55.5141
59.0127
62.0548
64.6236
66.7913
68.6508
70.2447
71.6374
72.8629
73.9769
75.0104
76.013
77.0043
78.0122
79.0511
80.1239
81.229
82.3622
83.5141
84.6771
85.8406
86.9906
88.0947
89.1158
89.9489
90.4023
29.2407
34.1142
37.3884
40.9152
44.8246
48.9782
53.082
56.8041
59.9962
62.7438
65.0918
67.0741
68.788
70.2702
71.5802
72.7434
73.8218
74.8431
75.8495
76.8637
77.8967
78.9564
80.0429
81.1497
82.2716
83.4002
84.5239
85.6308
86.6978
87.691
88.4968
88.9282
27.1109
31.8149
34.745
37.8281
41.3835
45.4334
49.6371
53.7545
57.5349
60.6895
63.2883
65.4866
67.326
68.9082
70.2733
71.4979
72.6088
73.6661
74.6861
75.7011
76.7307
77.7791
78.8459
79.9297
81.0224
82.1186
83.2113
84.2903
85.3221
86.2774
87.0577
87.4669
24.471
29.0872
31.7238
34.378
37.5055
41.316
46.0555
50.6961
54.644
58.1473
61.1253
63.5542
65.6155
67.352
68.8631
70.1721
71.3614
72.4527
73.5036
74.5394
75.5709
76.6106
77.6615
78.7181
79.7785
80.8372
81.8843
82.9121
83.9012
84.8315
85.582
85.9656
20.7977
25.4824
27.7996
29.8892
32.6565
36.9214
40.5805
45.2828
50.7402
55.1462
58.6528
61.5521
63.86
65.7889
67.3939
68.8047
70.0457
71.2027
72.2838
73.3276
74.3633
75.3965
76.4287
77.4626
78.4924
79.5156
80.531
81.5333
82.4866
83.3694
84.095
84.4534
15.5642
20.5877
22.8789
24.4904
25.4969
24.1794
32.7118
40.4717
45.5522
50.9491
55.4207
58.8203
61.614
63.8371
65.7146
67.2762
68.6571
69.8691
71.0028
72.0898
73.1382
74.1682
75.1871
76.1916
77.1834
78.1629
79.1227
80.0599
80.9588
81.8226
82.5124
82.8382
4.89192
9.87804
10.8167
11.4972
12.5741
4.5618
15.9291
26.5037
38.9449
45.5984
51.2704
55.8704
59.1843
61.8405
63.9045
65.652
67.1143
68.4461
69.6398
70.7429
71.8057
72.835
73.8357
74.8156
75.7742
76.7127
77.6389
78.5533
79.4164
80.2165
80.8809
81.1778
8.68523
11.1883
11.7685
12.4438
13.9993
14.257
11.9839
8.90805
17.9594
36.6193
45.2393
51.0711
55.7415
59.0149
61.6552
63.701
65.4391
66.8615
68.1399
69.3259
70.4181
71.452
72.4413
73.3868
74.2958
75.1771
76.0291
76.8544
77.6403
78.4309
79.05
79.2993
10.7957
15.5173
16.3204
15.3128
15.3477
17.8317
12.452
8.77647
12.1301
17.4804
35.4053
45.7918
51.457
56.0183
59.0963
61.5421
63.4118
65.0727
66.4764
67.6901
68.8135
69.855
70.8256
71.7411
72.6104
73.4418
74.2578
75.0623
75.8159
76.5131
77.1045
77.3207
19.5977
23.8921
25.6858
26.3157
25.5185
23.5213
19.9174
12.5724
14.2641
5.11038
19.4857
33.3727
45.6184
51.0308
55.5567
58.6556
61.1614
62.9813
64.526
65.9026
67.0864
68.1466
69.1059
69.9759
70.7722
71.5158
72.2166
72.8898
73.5138
74.2211
74.7513
74.8846
21.7967
26.7173
29.3803
31.315
32.4357
32.6119
31.744
29.3122
23.871
22.1767
25.883
20.6292
30.5713
45.1374
51.1055
55.3587
58.0376
60.399
62.2333
63.6613
64.9096
65.993
66.9319
67.7591
68.4981
69.1751
69.8472
70.4894
71.1017
71.6604
72.1497
72.2511
22.6885
27.7036
30.587
32.8833
34.5634
35.616
35.9964
35.5123
33.5758
28.6992
27.8667
22.3549
27.5917
33.8227
44.776
50.0833
54.5842
57.2426
59.3321
61.1064
62.4825
63.6123
64.5359
65.2875
65.9029
66.4182
66.8552
67.3016
67.6444
68.2503
68.6603
68.5784
22.086
27.2515
30.3094
32.8564
34.8615
36.3238
37.2552
37.6595
37.4542
36.178
32.3666
23.4237
27.2781
15.5703
33.5571
44.9888
48.852
52.8373
55.6535
57.5171
59.0308
60.2264
61.1179
61.7948
62.3009
62.7074
63.2099
63.5203
63.9458
64.3471
64.6188
64.5778
20.6261
25.9257
29.076
31.7559
33.9437
35.6434
36.8806
37.6954
38.1161
38.0638
37.0067
33.5857
31.6184
12.8631
16.7341
29.3601
42.5287
47.2418
50.6148
53.3493
55.1362
56.4357
57.2776
57.802
58.035
58.1013
57.8756
58.006
57.7349
58.0835
58.448
57.7242
18.6948
24.0873
27.2636
29.9917
32.2685
34.1121
35.5528
36.6495
37.4789
38.0887
38.3735
37.8076
34.6169
27.8148
23.7762
23.686
28.943
38.0137
43.9928
46.3291
48.5074
49.9474
50.7758
51.0118
51.0707
50.8748
51.4104
50.5888
50.7507
52.0566
51.0499
51.5077
16.5309
21.9053
25.0068
27.6797
29.948
31.8515
33.4349
34.7567
35.9029
36.9564
37.9304
38.6239
38.1899
35.2384
29.8095
29.831
32.1857
30.9752
31.6921
39.4432
41.6684
43.9028
43.8139
44.243
43.1817
41.6503
39.7433
39.4872
38.2253
35.4462
39.4972
33.6729
14.3421
19.5667
22.494
25.0154
27.186
29.0674
30.7194
32.2087
33.6152
35.0232
36.4648
37.8439
38.8098
38.4381
34.5247
25.2041
34.3679
13.2982
25.2251
15.8036
25.0662
25.5383
29.0788
24.5339
21.5996
31.9631
20.2137
31.5129
7.07543
29.5077
42.4875
26.5592
12.4062
17.3618
20.0407
22.3398
24.3462
26.1393
27.7902
29.3685
30.9469
32.598
34.3708
36.2204
37.946
39.0778
38.4164
33.6025
29.9457
20.078
29.9142
19.4228
31.569
21.6966
35.5464
16.4058
28.8725
39.9698
29.6517
41.7281
25.8575
33.4683
37.2651
35.4559
10.8982
15.5106
17.9225
19.9792
21.7965
23.4672
25.0674
26.662
28.3092
30.0616
31.9674
34.0335
36.1639
38.0489
39.075
38.3512
34.591
29.2634
31.9657
25.4071
27.5019
27.152
29.3081
28.9677
31.2549
39.4479
33.8384
41.6358
31.8191
32.2743
28.6272
30.6928
9.76519
14.1389
16.3218
18.172
19.8282
21.3881
22.9226
24.4834
26.111
27.8419
29.7169
31.7722
34.0033
36.2708
38.19
39.1885
38.5464
37.411
33.239
30.6427
26.1561
26.2124
27.6994
30.4429
33.6244
35.0345
37.1657
38.4879
38.2495
38.2418
41.4127
39.4118
9.14938
13.3314
15.3506
17.0647
18.6222
20.1135
21.5934
23.0943
24.6398
26.2563
27.9815
29.8651
31.9508
34.2245
36.5196
38.4419
39.4198
39.8523
38.3107
37.8102
37.0041
35.1016
36.8004
38.3
40.6822
41.2365
42.1128
42.6569
41.6599
41.9346
44.1917
42.7127
8.95057
13.0414
14.9866
16.6501
18.1805
19.6529
21.102
22.5419
23.9836
25.4486
26.9726
28.6054
30.4058
32.4224
34.6415
36.8915
38.7688
40.0861
40.1065
40.3021
40.254
39.442
40.161
40.8214
42.1097
42.3098
42.7388
42.8424
41.9367
42.2155
43.9442
43.2304
9.10159
13.1783
15.1242
16.8085
18.369
19.8626
21.3052
22.6986
24.0486
25.3737
26.7057
28.0877
29.5743
31.2286
33.1042
35.1864
37.2935
39.1449
40.1428
40.8972
41.1775
40.8097
40.9596
41.3421
41.9389
41.9661
42.2172
41.9893
41.2109
41.3869
42.6572
42.3135
9.5056
13.6205
15.6174
17.3713
19.0008
20.5443
22.0043
23.3756
24.6621
25.8816
27.0628
28.2412
29.46
30.7732
32.2443
33.9224
35.7819
37.6684
39.1575
40.3466
40.9511
40.92
40.8307
40.9111
40.9487
40.7634
40.805
40.4409
39.7161
39.9021
40.8313
40.6301
10.1129
14.2969
16.3698
18.2144
19.9281
21.533
23.023
24.3912
25.6431
26.7974
27.8799
28.9187
29.9449
30.9971
32.1262
33.3885
34.8206
36.3872
37.8688
39.1794
39.9966
40.2084
40.0654
39.9181
39.5814
39.2008
39.0684
38.6701
38.0475
38.3429
39.0299
38.9221
10.8736
15.1562
17.318
19.2594
21.0574
22.7225
24.2449
25.6201
26.8579
27.9792
29.0083
29.967
30.8753
31.7565
32.6442
33.5822
34.6165
35.7646
36.9489
38.0798
38.8922
39.215
39.0972
38.8215
38.2824
37.7624
37.495
37.1237
36.6801
37.1061
37.6683
37.669
11.6965
16.1496
18.4086
20.4455
22.3222
24.0421
25.5959
26.9839
28.2215
29.3328
30.3411
31.2637
32.1123
32.8984
33.64
34.3643
35.1068
35.897
36.7227
37.5359
38.169
38.4563
38.3449
37.9987
37.3712
36.7686
36.4097
36.0929
35.8572
36.3905
36.9257
37.0484
12.6726
17.2457
19.5987
21.7262
23.6752
25.4447
27.0285
28.4332
29.6804
30.7973
31.8062
32.7215
33.549
34.2924
34.9594
35.5628
36.1235
36.6643
37.1949
37.6972
38.0838
38.2338
38.0692
37.6607
36.996
36.3485
35.9347
35.6816
35.6372
36.2455
36.808
37.0517
13.78
14.2399
14.7495
15.1609
15.5499
15.8572
16.1213
16.3227
16.4809
16.5886
16.6574
16.6854
16.6775
16.6357
16.5641
16.4649
16.341
16.1974
16.0441
15.9054
15.8507
15.9317
16.0496
16.1624
16.2563
16.3258
16.3681
16.382
16.3638
16.3109
16.2196
16.0922
15.918
15.7036
15.4316
15.1196
14.7331
14.3335
13.8416
13.4169
18.5094
18.9863
19.5168
19.9481
20.3577
20.6897
20.9797
21.2092
21.3963
21.5347
21.634
21.6932
21.7152
21.701
21.6528
21.5722
21.4606
21.3215
21.1638
21.0113
20.9382
21.0136
21.1267
21.2282
21.3046
21.3515
21.3675
21.3523
21.3033
21.2197
21.0993
20.9439
20.7439
20.5053
20.2115
19.88
19.4771
19.061
18.5507
18.1107
20.975
21.4779
22.0393
22.4974
22.9372
23.302
23.6289
23.8982
24.1279
24.3114
24.457
24.5639
24.6339
24.6659
24.6606
24.6185
24.54
24.4271
24.2873
24.1429
24.0649
24.1227
24.2095
24.2777
24.3147
24.3176
24.2863
24.2214
24.1219
23.9889
23.8218
23.6217
23.3805
23.1042
22.7761
22.4151
21.9846
21.5437
21.0039
20.5389
23.1949
23.7168
24.3016
24.7801
25.2458
25.6397
26.0002
26.3066
26.5768
26.804
26.9945
27.1475
27.2641
27.3421
27.3802
27.3776
27.3339
27.2504
27.1341
27.0068
26.9322
26.9644
27.0184
27.0494
27.0448
27.0024
26.9228
26.8078
26.6581
26.4765
26.2634
26.0195
25.7385
25.4268
25.0677
24.6809
24.2276
23.7688
23.2076
22.7243
25.2
25.7257
26.3188
26.8048
27.2836
27.6939
28.0758
28.4078
28.7066
28.967
29.1936
29.3842
29.539
29.6547
29.7291
29.7602
29.7466
29.6895
29.5957
29.487
29.4182
29.4265
29.4499
29.448
29.4078
29.3269
29.2067
29.0502
28.8593
28.6381
28.3877
28.11
27.8006
27.4653
27.0875
26.6875
26.2248
25.7621
25.1955
24.7101
26.9884
27.5023
28.0907
28.5728
29.0536
29.4706
29.8645
30.2152
30.5378
30.8255
31.0826
31.3053
31.4927
31.6407
31.7464
31.8065
31.8192
31.785
31.7108
31.6181
31.5533
31.5434
31.5416
31.5117
31.4411
31.3275
31.1729
30.9809
30.7552
30.5005
30.2187
29.9133
29.5811
29.229
28.8419
28.4389
27.9784
27.5245
26.9674
26.4969
28.5637
29.056
29.6333
30.1068
30.5862
31.0079
31.4139
31.7825
32.1274
32.4409
32.7259
32.9777
33.1945
33.3716
33.5051
33.5907
33.6261
33.6114
33.5532
33.4718
33.409
33.3865
33.3651
33.3123
33.2158
33.0738
32.889
32.6658
32.409
32.1239
31.8136
31.4827
31.1292
30.7611
30.3645
29.9604
29.5067
29.0675
28.5277
28.0841
29.9475
30.4157
30.9823
31.4491
31.9298
32.3608
32.7805
33.1678
33.5342
33.8722
34.1828
34.4613
34.7046
34.9074
35.065
35.1728
35.2274
35.2285
35.1822
35.1083
35.0461
35.0149
34.9792
34.9081
34.79
34.6237
34.4126
34.162
33.8774
33.5648
33.2283
32.8734
32.4991
32.114
31.7062
31.2969
30.8466
30.4204
29.8984
29.4858
31.1735
31.6201
32.1801
32.645
33.1312
33.573
34.0071
34.4123
34.7989
35.1588
35.4924
35.7943
36.0604
36.2853
36.4635
36.5896
36.6598
36.673
36.6352
36.5654
36.5029
36.4663
36.4203
36.3351
36.1996
36.0132
35.78
35.5059
35.1971
34.8605
34.5007
34.1238
33.7304
33.3286
32.9086
32.4916
32.0401
31.6212
31.1129
30.7295
32.274
32.7021
33.2585
33.7252
34.2176
34.6705
35.1177
35.5392
35.9432
36.322
36.6751
36.9966
37.282
37.5251
37.7199
37.8607
37.9429
37.9653
37.9331
37.8654
37.8018
37.7617
37.7088
37.613
37.4638
37.2613
37.01
36.7165
36.3876
36.0306
35.6511
35.2553
34.845
34.4281
33.9969
33.5716
33.1173
32.7013
32.2022
31.8446
33.2694
33.6804
34.2351
34.7034
35.2017
35.664
36.1226
36.5577
36.9764
37.3712
37.7402
38.0777
38.3785
38.6362
38.8441
38.9963
39.0877
39.117
39.0888
39.0222
38.9575
38.9147
38.8566
38.7525
38.5928
38.3777
38.1121
37.803
37.4578
37.0843
36.6884
36.2771
35.8525
35.423
34.9819
34.5491
34.0921
33.6781
33.1857
32.8519
34.1695
34.5622
35.114
35.5832
36.086
36.5565
37.0245
37.4709
37.9019
38.3093
38.6914
39.0418
39.3548
39.6238
39.8421
40.0031
40.1019
40.1365
40.1121
40.0472
39.9819
39.936
39.8725
39.7616
39.5933
39.3681
39.0912
38.7699
38.4118
38.025
37.6158
37.1918
36.7554
36.3154
35.866
35.4272
34.9682
34.5566
34.0716
33.7624
34.9747
35.3467
35.8939
36.3628
36.8692
37.3464
37.8225
38.2786
38.7197
39.1378
39.5304
39.891
40.2138
40.4918
40.7181
40.8861
40.991
41.0311
41.0113
40.9498
40.8848
40.8341
40.7642
40.6462
40.4702
40.2368
39.9509
39.6199
39.2515
38.854
38.4344
37.9997
37.5537
37.1047
36.6484
36.2044
35.7441
35.3359
34.8601
34.5781
35.6827
36.0302
36.5703
37.0383
37.5475
38.0308
38.5144
38.9791
39.4292
39.8565
40.258
40.627
40.9576
41.2427
41.4755
41.6494
41.76
41.8057
41.792
41.7362
41.6722
41.6149
41.5365
41.4107
41.2275
40.9868
40.6934
40.3546
39.9781
39.572
39.1434
38.6999
38.2455
37.7885
37.326
36.8773
36.4167
36.0126
35.5492
35.2988
36.291
36.6075
37.1381
37.6043
38.1161
38.6056
39.0965
39.5698
40.0282
40.4639
40.8732
41.2496
41.5868
41.878
42.1163
42.2956
42.4118
42.4638
42.4572
42.4084
42.3455
42.2809
42.1926
42.058
41.8674
41.62
41.3203
40.975
40.5915
40.1782
39.742
39.2904
38.8282
38.3636
37.895
37.442
36.9815
36.5835
36.1366
35.9257
36.7979
37.073
37.5906
38.0538
38.5683
39.0643
39.5631
40.0453
40.5124
40.9564
41.3732
41.7564
42.0998
42.3963
42.6396
42.824
42.9457
43.0043
43.0054
42.9636
42.9019
42.8297
42.7312
42.5874
42.3893
42.1357
41.8302
41.479
41.0896
40.6695
40.2263
39.7672
39.2971
38.8251
38.3503
37.8929
37.4338
37.0444
36.6205
36.4619
37.2074
37.4222
37.9173
38.3772
38.8942
39.3978
39.9052
40.397
40.8733
41.3261
41.7507
42.1408
42.4901
42.7919
43.0402
43.2296
43.3569
43.422
43.4304
43.3948
43.3337
43.2549
43.1467
42.9939
42.7884
42.5285
42.2176
41.8611
41.4659
41.0398
40.5895
40.1229
39.6449
39.1649
38.684
38.223
37.7672
37.391
37.0005
36.9151
37.5265
37.6529
38.1096
38.5613
39.0805
39.5926
40.1097
40.6122
41.0988
41.561
41.9942
42.3916
42.7473
43.0546
43.3079
43.5024
43.6351
43.7064
43.7214
43.6909
43.6302
43.5455
43.4287
43.2675
43.055
42.7892
42.4729
42.1112
41.7105
41.2782
40.8209
40.3464
39.8604
39.3724
38.8857
38.4219
37.9734
37.6158
37.277
37.296
37.7632
37.7634
38.1581
38.5917
39.1115
39.6322
40.1604
40.6747
41.1727
41.6457
42.0882
42.4938
42.8564
43.1699
43.4287
43.6284
43.7666
43.8436
43.8643
43.8379
43.7772
43.6876
43.5634
43.3948
43.1756
42.9042
42.5828
42.2159
41.8095
41.3708
40.9063
40.4237
39.9296
39.4339
38.9426
38.4788
38.0423
37.7153
37.454
37.6143
37.92
37.7535
38.0556
38.4543
38.9676
39.4992
40.0391
40.567
41.0777
41.5625
42.0156
42.4304
42.801
43.1213
43.3862
43.5916
43.7352
43.8176
43.8431
43.8199
43.759
43.6655
43.5351
43.36
43.1349
42.8581
42.5315
42.1594
41.7474
41.3021
40.8304
40.34
39.8382
39.336
38.8422
38.3826
37.9657
37.6865
37.5314
37.8664
37.9698
37.6161
37.8011
38.1463
38.6414
39.1787
39.7329
40.2751
40.7996
41.2971
41.7617
42.1866
42.5658
42.8938
43.1654
43.3767
43.5257
43.6131
43.6428
43.6222
43.561
43.4641
43.3288
43.1483
42.918
42.6364
42.3052
41.9281
41.5106
41.0593
40.5809
40.0836
39.5758
39.0694
38.5768
38.1256
37.7404
37.5272
37.4968
38.015
37.8834
37.3389
37.3937
37.6714
38.1377
38.6733
39.2389
39.7961
40.3345
40.8448
41.3209
41.756
42.1443
42.48
42.7584
42.9755
43.1297
43.2215
43.2546
43.2358
43.1743
43.0748
42.9357
42.7512
42.517
42.2317
41.8966
41.5154
41.0935
40.6372
40.1539
39.6518
39.1405
38.6334
38.1457
37.7096
37.3645
37.2246
37.315
37.9895
37.5934
36.9
36.8415
37.0495
37.4798
38.0055
38.5771
39.1485
39.699
40.2208
40.7068
41.1509
41.5469
41.8894
42.1736
42.3957
42.5541
42.649
42.6843
42.6663
42.6041
42.5028
42.3614
42.1747
41.9384
41.6511
41.3139
40.9307
40.5066
40.048
39.5626
39.0593
38.5483
38.0449
37.5656
37.1505
36.8468
36.7719
36.953
37.7299
37.1105
36.3108
36.1692
36.3198
36.7166
37.2286
37.7991
38.3778
38.9385
39.4686
39.9618
40.4119
40.8129
41.1597
41.4472
41.672
41.832
41.928
41.9632
41.9446
41.8809
41.7781
41.6361
41.4494
41.2136
40.9269
40.5906
40.2082
39.7849
39.3273
38.8432
38.3422
37.8353
37.3386
36.8698
36.475
36.2056
36.1789
36.4179
37.2581
36.4626
35.6226
35.4472
35.5654
35.9385
36.4352
36.999
37.5777
38.1423
38.6746
39.1691
39.6199
40.0212
40.3675
40.654
40.8772
41.0353
41.1285
41.1604
41.138
41.0712
40.9672
40.8264
40.6427
40.4108
40.1286
39.7967
39.4189
39.0004
38.5478
38.0692
37.5742
37.0741
36.5849
36.1262
35.7462
35.4942
35.4855
35.7348
36.5821
35.8072
34.9698
34.7938
34.9008
35.2608
35.7446
36.2985
36.8704
37.4304
37.9576
38.4469
38.8919
39.2872
39.6272
39.9073
40.1238
40.2746
40.3601
40.3838
40.3534
40.2806
40.1748
40.0373
39.86
39.6358
39.3617
39.0381
38.6687
38.2586
37.8146
37.3447
36.8584
36.3677
35.8882
35.4403
35.0715
34.829
34.8271
35.0749
35.9224
35.3349
34.5334
34.3792
34.4878
34.8399
35.3097
35.8475
36.403
36.9472
37.4601
37.9355
38.3671
38.749
39.0759
39.3432
39.5469
39.685
39.7573
39.7674
39.7237
39.6407
39.5323
39.4009
39.2343
39.0224
38.7609
38.4502
38.0935
37.6962
37.2653
36.8088
36.3363
35.8601
35.3965
34.9649
34.6105
34.3788
34.3845
34.6337
35.4876
35.1853
34.4235
34.2937
34.4091
34.7567
35.2134
35.733
36.2669
36.7883
37.2804
37.736
38.1484
38.5119
38.8209
39.0707
39.2576
39.3791
39.4348
39.4275
39.366
39.2683
39.1566
39.0352
38.8844
38.6896
38.4451
38.1513
37.8123
37.4332
37.0209
36.5838
36.1317
35.6764
35.2352
34.8275
34.4915
34.2675
34.2671
34.4885
35.2965
35.386
34.6744
34.5784
34.7056
35.0501
35.4919
35.9897
36.4967
36.9887
37.4539
37.8841
38.2726
38.6132
38.9008
39.1304
39.2983
39.4018
39.44
39.4151
39.335
39.2203
39.1058
38.9995
38.869
38.6943
38.4701
38.1972
37.88
37.5241
37.1362
36.7245
36.2985
35.8701
35.4557
35.0747
34.7615
34.5439
34.5256
34.6913
35.4027
35.7486
35.1306
35.0993
35.2595
35.6135
36.0466
36.524
37.0039
37.4682
37.9061
38.3102
38.6735
38.9904
39.2557
39.4646
39.6135
39.6997
39.722
39.6816
39.5857
39.4553
39.3371
39.2454
39.1327
38.9758
38.7698
38.5167
38.2208
37.8879
37.5248
37.1395
36.7415
36.3426
35.9594
35.6108
35.3325
35.1496
35.161
35.3393
36.0493
36.3612
35.7896
35.7817
35.9434
36.2856
36.6968
37.1462
37.5951
38.0317
38.444
38.8246
39.1662
39.4632
39.7103
39.903
40.0375
40.1113
40.123
40.0736
39.9696
39.832
39.7147
39.6356
39.537
39.3949
39.2051
38.9696
38.6929
38.3804
38.0389
37.6755
37.2994
36.9216
36.5579
36.2255
35.9592
35.7818
35.7912
35.9574
36.6455
36.9365
36.4202
36.4282
36.5735
36.8882
37.2646
37.6788
38.0958
38.5044
38.8922
39.251
39.5733
39.8532
40.0851
40.2646
40.3878
40.452
40.4557
40.4001
40.2913
40.1509
40.0352
39.9623
39.8714
39.7379
39.5581
39.3341
39.0701
38.7716
38.4448
38.0969
37.7364
37.3737
37.0231
36.7006
36.4383
36.2546
36.2437
36.3671
36.989
42.7386
50.5132
56.6901
62.7034
67.8458
71.9892
75.2957
77.9599
80.1369
81.9633
83.5591
84.989
86.2916
87.4987
88.64
89.7451
90.8438
91.9629
93.1245
94.3448
95.6321
96.9881
98.4095
99.8891
101.417
102.979
104.56
106.136
107.666
109.082
110.243
110.92
42.0685
49.5578
55.5379
61.4145
66.4851
70.593
73.88
76.5351
78.7118
80.5451
82.148
83.5801
84.873
86.0647
87.187
88.2706
89.3457
90.4401
91.5767
92.7702
94.0292
95.3556
96.7461
98.1933
99.6869
101.215
102.759
104.297
105.791
107.173
108.304
108.964
41.2962
48.5437
54.3431
60.0876
65.0905
69.17
72.4473
75.1041
77.2917
79.1409
80.7559
82.1913
83.4776
84.658
85.7643
86.8283
87.8819
88.9529
90.0635
91.2303
92.4618
93.7593
95.1192
96.5344
97.9944
99.4868
100.995
102.497
103.955
105.302
106.405
107.046
40.5372
47.547
53.1606
58.7647
63.6949
67.7453
71.0147
73.6782
75.8847
77.7571
79.3888
80.8312
82.1175
83.2876
84.3788
85.4249
86.4577
87.5061
88.5943
89.7366
90.9413
92.2104
93.5407
94.9243
96.3514
97.8091
99.2818
100.748
102.169
103.482
104.557
105.179
39.6879
46.4814
51.9131
57.3787
62.2434
66.2786
69.5581
72.2456
74.4835
76.3861
78.0388
79.4922
80.7823
81.9473
83.0289
84.0601
85.0757
86.1049
87.1694
88.2871
89.4666
90.7091
92.0106
93.364
94.7591
96.1835
97.621
99.0516
100.438
101.718
102.765
103.37
38.8811
45.4499
50.6883
56.0042
60.7981
64.8183
68.1085
70.8202
73.0912
75.0274
76.7054
78.1748
79.4742
80.6408
81.7143
82.7336
83.7329
84.7427
85.789
86.8859
88.0413
89.2577
90.5316
91.8553
93.2189
94.61
96.0138
97.409
98.7607
100.007
101.026
101.614
37.9634
44.3239
49.367
54.5307
59.2597
63.2822
66.6084
69.3693
71.6906
73.6689
75.378
76.8688
78.1819
79.3562
80.4299
81.442
82.4302
83.4267
84.4528
85.5276
86.6608
87.8532
89.1006
90.3962
91.7295
93.0889
94.4588
95.8202
97.1385
98.3536
99.346
99.9168
37.1064
43.2447
48.0785
53.0755
57.7321
61.7562
65.1166
67.9201
70.2869
72.3099
74.0557
75.5746
76.909
78.0971
79.1766
80.1856
81.165
82.1465
83.1595
84.2186
85.331
86.4997
87.7219
88.9894
90.2929
91.6206
92.9574
94.2845
95.5688
96.7508
97.7172
98.2696
36.0927
42.0219
46.6373
51.4561
56.0395
60.0829
63.5118
66.3995
68.8454
70.9299
72.7225
74.2778
75.6393
76.8473
77.9394
78.9554
79.9325
80.91
81.9081
82.9481
84.0416
85.1894
86.387
87.6285
88.903
90.1999
91.5045
92.7986
94.0507
95.2033
96.1427
96.6789
35.151
40.8538
45.2381
49.8609
54.359
58.4187
61.912
64.8688
67.3785
69.5273
71.3762
72.9769
74.3759
75.6122
76.7236
77.7483
78.7298
79.6998
80.6917
81.7226
82.7995
83.9263
85.101
86.3153
87.561
88.8265
90.0982
91.3585
92.5764
93.6957
94.6097
95.1258
33.9571
39.4494
43.5871
47.9882
52.3841
56.4713
60.0756
63.1755
65.821
68.0695
69.9924
71.652
73.0967
74.3691
75.507
76.5524
77.5423
78.5205
79.5057
80.5222
81.5841
82.693
83.8446
85.0345
86.2511
87.4853
88.724
89.9518
91.1382
92.229
93.1164
93.6163
32.8261
38.1077
41.9919
46.1537
50.4299
54.5376
58.245
61.4568
64.1967
66.5468
68.5627
70.2972
71.8032
73.1237
74.2992
75.3671
76.3749
77.3525
78.3399
79.3554
80.4059
81.4969
82.6281
83.7908
84.9792
86.182
87.3873
88.5801
89.7314
90.7879
91.6502
92.1272
31.298
36.3781
39.9699
43.8325
47.9343
52.0501
55.9206
59.3811
62.3804
64.911
67.0521
68.8837
70.4648
71.8452
73.0654
74.1724
75.2015
76.2026
77.1923
78.198
79.2377
80.3143
81.4239
82.5645
83.7235
84.8948
86.0664
87.2266
88.3469
89.3757
90.2098
90.6726
29.8334
34.7329
38.0515
41.6116
45.5208
49.6311
53.6431
57.2784
60.4101
63.1165
65.4269
67.3919
69.0769
70.5365
71.8221
72.9704
74.0357
75.0449
76.0469
77.0622
78.097
79.1597
80.2519
81.3645
82.4958
83.6343
84.7717
85.8945
86.9774
87.9696
88.7788
89.2133
27.6438
32.3603
35.3206
38.4376
42.0028
46.0223
50.2465
54.3308
58.03
61.1006
63.6446
65.7808
67.5951
69.1565
70.513
71.7266
72.8309
73.8853
74.9021
75.9131
76.9426
77.9946
79.0662
80.1593
81.2596
82.3656
83.4666
84.5569
85.6086
86.5736
87.3526
87.7751
25.5046
30.1514
32.88
35.6479
38.9005
42.8237
47.1862
51.5027
55.2812
58.6885
61.5812
63.9863
65.9952
67.6936
69.1657
70.4503
71.6171
72.69
73.7328
74.7679
75.801
76.8438
77.9018
78.9645
80.0374
81.1069
82.172
83.2196
84.2303
85.154
85.9077
86.2932
21.6075
26.1816
28.4555
30.4873
32.9606
36.4246
41.0274
46.236
51.6081
55.8217
59.2061
61.9499
64.207
66.0967
67.6851
69.0771
70.3102
71.4622
72.5373
73.5749
74.6092
75.6462
76.6836
77.7295
78.7672
79.8024
80.826
81.8408
82.8195
83.715
84.434
84.8124
17.8003
22.9115
25.3097
27.1912
29.3054
32.5912
37.12
42.4642
46.8434
51.8968
56.1085
59.4762
62.148
64.2974
66.109
67.6312
68.9714
70.1547
71.2757
72.3593
73.4087
74.4422
75.4706
76.4815
77.4916
78.4822
79.4667
80.4293
81.3591
82.2075
82.899
83.2243
5.11546
12.6262
14.7624
14.9828
13.827
14.6938
20.7875
28.9995
40.323
46.7577
52.272
56.4475
59.6808
62.2537
64.2763
65.984
67.4394
68.7636
69.9449
71.0393
72.0989
73.133
74.1391
75.1356
76.1018
77.0546
77.9886
78.9169
79.8151
80.6308
81.2809
81.6084
5.33813
6.37391
6.17174
8.94949
11.2902
6.30396
18.0988
6.7275
23.2016
39.141
46.5216
52.3265
56.5715
59.6869
62.2027
64.1839
65.8401
67.2141
68.4751
69.6532
70.7459
71.7841
72.7874
73.7392
74.6775
75.5696
76.4573
77.3177
78.1491
78.91
79.5278
79.7721
9.84991
14.3137
15.1288
14.11
15.1363
15.5885
12.3507
15.1414
23.2559
20.6289
38.3202
46.589
52.3997
56.6789
59.6293
61.9631
63.836
65.4844
66.8584
68.0579
69.1759
70.2246
71.2013
72.1409
73.0171
73.8635
74.6861
75.5069
76.3136
77.0294
77.5927
77.8595
18.0236
22.2401
23.7782
24.0419
22.8338
20.7477
17.2788
11.6127
13.0149
13.9249
20.1069
37.6954
46.6906
52.1445
56.3802
59.3861
61.7006
63.4295
64.9563
66.3185
67.502
68.5669
69.5499
70.425
71.2733
72.0266
72.7857
73.5106
74.2052
74.8578
75.3816
75.499
21.3136
26.1465
28.6714
30.3837
31.1387
30.6856
28.8363
25.1432
19.8049
22.1408
24.712
22.7187
37.0837
46.8335
52.1132
55.9004
58.6531
60.9976
62.7474
64.1448
65.3847
66.4821
67.4295
68.2934
69.0377
69.7236
70.3923
71.0648
71.7693
72.344
72.7801
72.9725
22.4074
27.3852
30.2063
32.4175
33.9823
34.8709
34.9939
34.0645
31.2338
25.1301
27.2186
19.5585
21.7225
36.2777
45.7656
51.4074
55.3652
57.8166
59.9176
61.6752
63.0499
64.1849
65.1527
65.9096
66.6314
67.1537
67.714
68.2298
68.6891
69.194
69.5956
69.4619
22.2355
27.3559
30.3671
32.8469
34.7589
36.0949
36.8545
37.0095
36.3766
34.1907
28.465
27.432
2.91717
22.4415
35.8264
44.9037
49.7538
53.9017
56.4305
58.2149
59.7168
60.9433
61.8632
62.5977
63.0949
63.4862
63.9049
64.3602
64.9718
65.3431
65.5286
65.6307
21.0201
26.2863
29.4159
32.0653
34.2076
35.8442
36.9968
37.6955
37.9435
37.5998
35.9704
31.2963
28.0439
30.1737
27.0947
34.7258
43.8732
47.8648
51.4636
54.1961
56.0021
57.3033
58.2358
58.7861
59.3088
59.3376
59.5386
59.6179
59.561
59.7541
60.1189
59.2883
19.2049
24.5893
27.7701
30.4954
32.7564
34.5684
35.9626
36.9969
37.7437
38.2384
38.334
37.3411
33.2197
29.2154
19.0786
12.949
30.9821
41.1606
45.1306
47.5339
49.5791
51.1724
52.1377
52.5636
52.3506
52.2281
51.9504
52.31
52.8178
53.4904
53.0828
52.5336
17.0072
22.4178
25.5575
28.2609
30.5452
32.4481
34.0144
35.3035
36.4
37.3837
38.2568
38.7875
38.1383
34.0466
28.8149
13.7077
26.9671
23.7771
33.5443
40.6972
43.4747
45.1467
45.6588
46.4237
46.1791
45.0744
44.3117
43.1715
41.8531
39.8442
39.5186
38.5281
14.7154
20.0059
22.9929
25.5666
27.7762
29.6822
31.3454
32.8321
34.2198
35.5874
36.9626
38.2364
39.0157
38.3039
33.5395
31.4508
19.0216
27.813
23.9885
19.5959
24.7466
29.171
30.7389
29.8938
25.8928
24.7001
20.3995
22.7258
20.9736
29.4047
40.3959
17.8818
12.6177
17.648
20.3936
22.7554
24.8154
26.6528
28.3389
29.9423
31.5318
33.1736
34.9098
36.6878
38.2879
39.1988
38.4835
34.4298
25.5517
27.813
12.6134
20.9562
14.7561
14.5626
17.1423
27.2379
25.1911
30.6213
15.0067
28.9411
20.6434
33.4791
42.8913
25.8625
10.9792
15.6472
18.1174
20.2345
22.1098
23.8356
25.4857
27.1218
28.7976
30.5624
32.461
34.4951
36.554
38.3258
39.2817
38.3854
35.8808
28.5413
24.1996
25.7186
20.0099
22.5688
21.1139
34.0776
24.6109
36.4547
30.7752
36.5656
33.2448
35.5067
37.9361
32.8797
9.75347
14.1617
16.3913
18.2955
20.0084
21.6254
23.2128
24.8166
26.4736
28.2199
30.0968
32.1405
34.3392
36.5382
38.3774
39.2579
39.4272
37.0618
33.8827
29.2081
27.4374
26.4364
25.7151
33.4342
28.9111
28.5947
34.8879
33.6805
36.2644
36.4393
37.3935
38.4001
9.09702
13.2947
15.3502
17.1126
18.7237
20.2675
21.7924
23.3258
24.8895
26.5117
28.2319
30.1002
32.1597
34.3922
36.6316
38.4858
39.8129
39.8987
39.1715
37.6918
36.7972
35.3598
34.7573
33.1845
38.1225
38.0111
40.9766
40.5246
41.6478
42.217
43.3161
41.4284
8.90232
13.0003
14.9768
16.6859
18.2655
19.781
21.2603
22.7155
24.1594
25.6156
27.1213
28.7258
30.487
32.4516
34.6068
36.7861
38.7675
40.0344
40.5217
40.4313
40.1836
39.9209
39.446
39.0181
41.126
41.294
41.9913
42.0204
42.5289
43.324
44.0409
41.6111
9.09553
13.1809
15.1574
16.885
18.4879
20.0118
21.4678
22.8588
24.1947
25.4978
26.8008
28.1456
29.5834
31.1738
32.9676
34.9561
37.0415
38.8942
40.2036
40.8839
41.0604
41.1618
40.7621
40.9758
41.8283
41.9386
41.8799
41.915