/*--------------------------------*- C++ -*----------------------------------*\
  =========                 |
  \\      /  F ield         | OpenFOAM: The Open Source CFD Toolbox
   \\    /   O peration     | Website:  https://openfoam.org
    \\  /    A nd           | Version:  6
     \\/     M anipulation  |
\*---------------------------------------------------------------------------*/
FoamFile
{
    version     2.0;
    format      ascii;
    class       volScalarField;
    location    "0.2";
    object      omega;
}
// * * * * * * * * * * * * * * * * * * * * * * * * * * * * * * * * * * * * * //

dimensions      [0 0 -1 0 0 0 0];

internalField   nonuniform List<scalar> 
63264
(
843.917
843.917
843.917
843.917
843.917
843.917
843.917
843.917
843.917
843.917
843.917
843.917
843.917
843.917
843.917
843.917
843.917
843.917
843.917
843.917
843.917
843.917
843.917
843.917
843.917
843.917
843.917
843.917
843.917
843.917
843.917
843.917
843.917
843.917
843.917
843.917
843.917
843.917
843.917
843.917
843.917
843.917
843.917
843.917
843.917
843.917
843.917
843.917
843.917
843.917
843.917
843.917
843.917
843.917
843.917
843.917
843.917
843.917
843.917
843.917
843.917
843.917
843.917
843.917
843.917
843.917
843.917
843.917
843.917
843.917
843.917
843.917
843.917
843.917
843.917
843.917
843.917
843.917
843.917
843.917
843.917
843.917
843.917
843.917
843.917
843.917
843.917
843.917
843.917
843.917
843.917
843.917
843.917
843.917
843.917
843.917
843.917
843.917
843.917
843.917
843.917
843.917
843.917
843.917
843.917
843.917
843.917
843.917
843.917
843.917
843.917
843.917
843.917
843.917
843.917
843.917
843.917
843.917
843.917
843.917
843.917
843.917
843.917
843.917
843.917
843.917
843.917
843.917
843.917
843.917
843.917
843.917
843.917
843.917
843.917
843.917
843.917
843.917
843.917
843.917
843.917
843.917
843.917
843.917
843.917
843.917
843.917
843.917
843.917
843.917
843.917
843.917
843.917
843.917
843.917
843.917
843.917
843.917
843.917
843.917
843.917
843.917
843.917
843.917
843.917
843.917
843.917
843.917
843.917
843.917
843.917
843.917
843.917
843.917
843.917
843.917
843.917
843.917
843.917
843.917
843.917
843.917
843.917
843.917
843.917
843.917
843.917
843.917
843.917
843.917
843.917
843.917
843.917
843.917
843.917
843.917
843.917
843.917
843.917
843.917
843.917
843.917
843.917
843.917
843.917
843.917
843.917
843.917
843.917
843.917
843.917
843.917
843.917
843.917
843.917
843.917
843.917
843.917
843.917
843.917
843.917
843.917
843.917
843.917
843.917
843.917
843.917
843.917
843.917
843.917
843.917
843.917
843.917
843.917
843.917
843.917
843.917
843.917
843.917
843.917
843.917
843.917
843.917
843.917
843.917
843.917
843.917
843.917
843.917
843.917
843.917
843.917
843.917
843.917
843.917
843.917
843.917
843.917
843.917
843.917
843.917
843.917
843.917
843.917
843.917
843.917
843.917
843.917
843.917
843.917
843.917
843.917
843.917
843.917
843.917
843.917
843.917
843.917
843.917
843.917
843.917
843.917
843.917
843.917
843.917
843.917
843.917
843.917
843.917
843.917
843.917
843.917
843.917
843.917
843.917
843.917
843.917
843.917
843.917
843.917
843.917
843.917
843.917
843.917
843.917
843.917
843.917
843.917
843.917
843.917
843.917
843.917
843.917
843.917
843.917
843.917
843.917
843.917
843.917
843.917
843.917
843.917
843.917
843.917
843.917
843.917
843.917
843.917
843.917
843.917
843.917
843.917
843.917
843.917
843.917
843.917
843.917
843.917
843.917
843.917
843.917
843.917
843.917
843.917
843.917
843.917
843.917
843.917
843.917
843.917
843.917
843.917
843.917
843.917
843.917
843.917
843.917
843.917
843.917
843.917
843.917
843.917
843.917
843.917
843.917
843.917
843.917
843.917
843.917
843.917
843.917
843.917
843.917
843.917
843.917
843.917
843.917
843.917
843.917
843.917
843.917
843.917
843.917
843.917
843.917
843.917
843.917
843.917
843.917
843.917
843.917
843.917
843.917
843.917
843.917
843.917
843.917
843.917
843.917
843.917
843.917
843.917
843.917
843.917
843.917
843.917
843.917
843.917
843.917
843.917
843.917
843.917
843.917
843.917
843.917
843.917
843.917
843.917
843.917
843.917
843.917
843.917
843.917
843.917
843.917
843.917
843.917
843.917
843.917
843.917
843.917
843.917
843.917
843.917
843.917
843.917
843.917
843.917
843.917
843.917
843.917
843.917
843.917
843.917
843.917
843.917
843.917
843.917
843.917
843.917
843.917
843.917
843.917
843.917
843.917
843.917
843.917
843.917
843.917
843.917
843.917
843.917
843.917
843.917
843.917
843.917
843.917
843.917
843.917
843.917
843.917
843.917
843.917
843.917
843.917
843.917
843.917
843.917
843.917
843.917
843.917
843.917
843.917
843.917
843.917
843.917
843.917
843.917
843.917
843.917
843.917
843.917
843.917
843.917
843.917
843.917
843.917
843.917
843.917
843.917
843.917
843.917
843.917
843.917
843.917
843.917
843.917
843.917
843.917
843.917
843.917
843.917
843.917
843.917
843.917
843.917
843.917
843.917
843.917
843.917
843.917
843.917
843.917
843.917
843.917
843.917
843.917
843.917
843.917
843.917
843.917
843.917
843.917
843.917
843.917
843.917
843.917
843.917
843.917
843.917
843.917
843.917
843.917
843.917
843.917
843.917
843.917
843.917
843.917
843.917
843.917
843.917
843.917
843.917
843.917
843.917
843.917
843.917
843.917
843.917
843.917
843.917
843.917
843.917
843.917
843.917
843.917
843.917
843.917
843.917
843.917
843.917
843.917
843.917
843.917
843.917
843.917
843.917
843.917
843.917
843.917
843.917
843.917
843.917
843.917
843.917
843.917
843.917
843.917
843.917
843.917
843.917
843.917
843.917
843.917
843.917
843.917
843.917
843.917
843.917
843.917
843.917
843.917
843.917
843.917
843.917
843.917
843.917
843.917
843.917
843.917
843.917
843.917
843.917
843.917
843.917
843.917
843.917
843.917
843.917
843.917
843.917
843.917
843.917
843.917
843.917
843.917
843.917
843.917
843.917
843.917
843.917
843.917
843.917
843.917
843.917
843.917
843.917
843.917
843.917
843.917
843.917
843.917
843.917
843.917
843.917
843.917
843.917
843.917
843.917
843.917
843.917
843.917
843.917
843.917
843.917
843.917
843.917
843.917
843.917
843.917
843.917
843.917
843.917
843.917
843.917
843.917
843.917
843.917
843.917
843.917
843.917
843.917
843.917
843.917
843.917
843.917
843.917
843.917
843.917
843.917
843.917
843.917
843.917
843.917
843.917
843.917
843.917
843.917
843.917
843.917
843.917
843.917
843.917
843.917
843.917
843.917
843.917
843.917
843.917
272.849
259.619
261.284
261.607
261.39
261.23
261.1
260.949
260.721
260.269
259.028
258.924
259.921
260.614
260.869
260.982
261.068
261.144
261.215
261.284
261.353
261.424
261.497
261.572
261.65
261.733
261.819
261.911
262.018
262.174
262.27
262.295
262.305
262.295
262.634
272.783
259.961
261.906
262.276
262.05
261.883
261.749
261.597
261.391
261.052
260.392
260.173
260.644
261.111
261.368
261.513
261.617
261.701
261.775
261.842
261.907
261.97
262.035
262.1
262.168
262.238
262.311
262.39
262.487
262.643
262.736
262.756
262.742
262.753
262.831
273.176
260.043
261.927
262.32
262.096
261.924
261.782
261.613
261.361
260.86
259.406
258.631
259.845
260.928
261.326
261.478
261.581
261.662
261.731
261.791
261.849
261.905
261.96
262.017
262.075
262.136
262.198
262.267
262.357
262.517
262.615
262.63
262.613
262.618
262.682
273.53
260.164
261.967
262.343
262.125
261.956
261.812
261.641
261.387
260.895
259.553
258.479
259.642
260.859
261.322
261.479
261.573
261.646
261.706
261.759
261.808
261.856
261.903
261.95
261.999
262.05
262.103
262.157
262.218
262.293
262.409
262.482
262.472
262.466
262.512
273.844
260.178
261.976
262.381
262.168
261.999
261.857
261.697
261.479
261.124
260.428
259.863
260.347
261.003
261.341
261.486
261.569
261.631
261.681
261.726
261.767
261.806
261.845
261.884
261.924
261.965
262.008
262.052
262.102
262.169
262.292
262.361
262.347
262.298
262.473
273.451
260.127
262.117
262.552
262.332
262.158
262.014
261.852
261.641
261.317
260.726
260.169
260.498
261.048
261.369
261.528
261.625
261.695
261.748
261.791
261.828
261.861
261.892
261.922
261.951
261.981
262.012
262.043
262.079
262.135
262.246
262.315
262.283
262.257
262.226
273.686
260.164
262.118
262.579
262.363
262.185
262.034
261.855
261.604
261.161
260.14
258.646
259.406
260.696
261.274
261.476
261.584
261.659
261.712
261.753
261.785
261.813
261.837
261.859
261.88
261.901
261.922
261.943
261.965
261.991
262.027
262.104
262.126
262.102
262.083
273.891
260.233
262.137
262.588
262.377
262.202
262.049
261.866
261.607
261.156
260.144
258.401
259.112
260.553
261.224
261.45
261.56
261.632
261.681
261.716
261.743
261.763
261.78
261.795
261.807
261.819
261.83
261.841
261.851
261.865
261.891
261.967
261.981
261.945
261.894
274.07
260.23
262.13
262.604
262.398
262.225
262.075
261.902
261.669
261.303
260.63
259.755
259.993
260.747
261.235
261.449
261.553
261.615
261.656
261.683
261.702
261.716
261.725
261.732
261.736
261.738
261.738
261.739
261.737
261.738
261.753
261.825
261.835
261.781
261.752
273.537
259.914
261.936
262.431
262.224
262.051
261.907
261.75
261.564
261.332
261.036
260.758
260.754
260.933
261.114
261.237
261.316
261.367
261.399
261.419
261.43
261.435
261.435
261.431
261.423
261.413
261.401
261.387
261.37
261.355
261.355
261.411
261.408
261.348
261.255
273.658
259.933
261.935
262.444
262.238
262.06
261.906
261.727
261.49
261.124
260.453
259.493
259.596
260.361
260.897
261.134
261.248
261.314
261.354
261.377
261.387
261.389
261.385
261.375
261.362
261.344
261.324
261.3
261.275
261.247
261.218
261.201
261.202
261.182
261.101
273.77
259.977
261.944
262.447
262.242
262.063
261.904
261.713
261.45
261.023
260.155
258.463
258.645
259.966
260.766
261.065
261.196
261.272
261.316
261.338
261.346
261.344
261.336
261.321
261.301
261.276
261.248
261.216
261.181
261.142
261.101
261.073
261.07
261.038
260.932
273.857
259.996
261.95
262.453
262.249
262.071
261.912
261.721
261.461
261.047
260.265
258.949
258.949
259.963
260.714
261.035
261.175
261.25
261.291
261.31
261.314
261.308
261.294
261.274
261.248
261.216
261.18
261.14
261.096
261.047
260.996
260.958
260.951
260.91
260.79
273.937
260.001
261.954
262.463
262.261
262.085
261.931
261.751
261.519
261.182
260.643
259.935
259.847
260.349
260.82
261.069
261.188
261.25
261.281
261.293
261.291
261.279
261.259
261.233
261.2
261.162
261.118
261.07
261.017
260.958
260.896
260.846
260.835
260.782
260.664
273.51
259.712
261.72
262.238
262.035
261.861
261.713
261.551
261.362
261.136
260.87
260.619
260.544
260.639
260.776
260.882
260.948
260.985
261.001
261.001
260.989
260.967
260.938
260.901
260.858
260.808
260.753
260.692
260.625
260.551
260.475
260.407
260.378
260.314
260.159
273.551
259.712
261.716
262.24
262.037
261.856
261.698
261.513
261.274
260.931
260.379
259.642
259.492
259.986
260.48
260.741
260.863
260.926
260.956
260.963
260.954
260.934
260.904
260.865
260.819
260.766
260.707
260.64
260.568
260.488
260.405
260.329
260.297
260.222
260.063
273.586
259.724
261.718
262.24
262.035
261.852
261.687
261.488
261.219
260.806
260.056
258.832
258.606
259.491
260.288
260.651
260.806
260.885
260.923
260.935
260.928
260.907
260.876
260.835
260.787
260.731
260.667
260.597
260.52
260.434
260.345
260.263
260.228
260.146
259.975
273.614
259.733
261.72
262.241
262.037
261.853
261.687
261.485
261.211
260.788
260.014
258.702
258.439
259.384
260.238
260.623
260.785
260.868
260.908
260.92
260.912
260.89
260.858
260.815
260.764
260.705
260.639
260.564
260.484
260.394
260.3
260.213
260.174
260.088
259.91
273.633
259.741
261.726
262.245
262.041
261.859
261.697
261.504
261.249
260.874
260.258
259.392
259.163
259.733
260.339
260.661
260.808
260.88
260.913
260.92
260.909
260.885
260.849
260.805
260.751
260.69
260.621
260.545
260.46
260.369
260.269
260.163
260.057
259.972
259.843
273.649
259.748
261.732
262.25
262.048
261.871
261.717
261.542
261.327
261.046
260.664
260.229
260.092
260.313
260.593
260.774
260.869
260.918
260.936
260.934
260.918
260.889
260.851
260.804
260.749
260.686
260.615
260.537
260.451
260.358
260.255
260.148
260.04
259.954
259.823
131.109
125.796
126.416
126.669
126.61
126.547
126.5
126.451
126.382
126.214
125.938
126.014
126.285
126.429
126.468
126.484
126.501
126.519
126.538
126.558
126.578
126.599
126.621
126.644
126.669
126.694
126.722
126.75
126.781
126.841
126.863
126.852
126.87
126.816
127.007
131.555
126.617
127.377
127.645
127.577
127.506
127.452
127.393
127.316
127.178
126.993
126.977
127.121
127.249
127.324
127.37
127.404
127.432
127.455
127.477
127.498
127.519
127.539
127.561
127.583
127.605
127.63
127.654
127.686
127.747
127.771
127.762
127.764
127.759
127.787
131.785
126.656
127.384
127.67
127.608
127.537
127.482
127.42
127.337
127.125
126.763
126.734
127.054
127.286
127.358
127.388
127.414
127.437
127.456
127.473
127.49
127.507
127.523
127.54
127.558
127.577
127.597
127.616
127.643
127.707
127.73
127.718
127.712
127.702
127.761
131.97
126.733
127.41
127.683
127.624
127.556
127.503
127.444
127.364
127.178
126.817
126.732
127.051
127.314
127.393
127.413
127.429
127.444
127.458
127.471
127.483
127.496
127.509
127.522
127.537
127.552
127.567
127.585
127.602
127.623
127.67
127.683
127.672
127.655
127.707
132.147
126.76
127.416
127.706
127.653
127.586
127.536
127.484
127.419
127.309
127.133
127.076
127.231
127.372
127.425
127.44
127.448
127.457
127.466
127.474
127.484
127.493
127.503
127.514
127.525
127.537
127.549
127.564
127.577
127.596
127.648
127.658
127.652
127.594
127.725
132.439
127.395
128.166
128.466
128.402
128.327
128.267
128.204
128.124
127.999
127.812
127.731
127.838
127.972
128.049
128.09
128.116
128.135
128.149
128.16
128.17
128.178
128.186
128.193
128.201
128.209
128.217
128.227
128.234
128.251
128.298
128.311
128.289
128.276
128.25
132.59
127.417
128.167
128.484
128.427
128.352
128.292
128.227
128.139
127.981
127.632
127.491
127.711
127.982
128.081
128.109
128.127
128.142
128.153
128.161
128.166
128.171
128.175
128.179
128.183
128.186
128.19
128.194
128.2
128.204
128.213
128.242
128.243
128.214
128.228
132.703
127.467
128.183
128.493
128.438
128.366
128.308
128.244
128.157
128.012
127.643
127.462
127.684
127.99
128.104
128.128
128.138
128.147
128.153
128.156
128.158
128.159
128.159
128.16
128.159
128.159
128.159
128.159
128.161
128.16
128.165
128.196
128.194
128.163
128.154
132.807
127.485
128.183
128.505
128.456
128.386
128.331
128.273
128.201
128.088
127.887
127.762
127.872
128.041
128.124
128.147
128.153
128.156
128.156
128.155
128.154
128.152
128.149
128.146
128.143
128.14
128.136
128.132
128.13
128.124
128.127
128.157
128.155
128.118
128.09
132.985
127.926
128.708
129.038
128.981
128.904
128.842
128.778
128.705
128.615
128.509
128.437
128.444
128.494
128.544
128.577
128.597
128.607
128.612
128.613
128.61
128.606
128.601
128.593
128.585
128.577
128.567
128.557
128.548
128.535
128.531
128.555
128.545
128.506
128.469
133.071
127.94
128.71
129.05
128.998
128.92
128.857
128.789
128.702
128.573
128.34
128.206
128.286
128.454
128.552
128.587
128.602
128.609
128.611
128.61
128.605
128.598
128.589
128.579
128.568
128.555
128.542
128.528
128.513
128.499
128.481
128.47
128.474
128.451
128.423
133.145
127.967
128.718
129.055
129.004
128.928
128.865
128.796
128.702
128.572
128.208
128.035
128.159
128.433
128.568
128.598
128.606
128.609
128.608
128.604
128.596
128.586
128.575
128.562
128.547
128.532
128.515
128.498
128.479
128.461
128.439
128.423
128.426
128.401
128.361
133.195
127.989
128.726
129.061
129.012
128.937
128.877
128.81
128.722
128.593
128.311
128.128
128.217
128.44
128.571
128.608
128.614
128.613
128.609
128.601
128.59
128.577
128.563
128.547
128.53
128.511
128.491
128.471
128.448
128.427
128.4
128.381
128.383
128.355
128.31
133.243
128.005
128.732
129.07
129.023
128.951
128.893
128.832
128.758
128.655
128.493
128.369
128.402
128.519
128.6
128.626
128.628
128.623
128.614
128.602
128.588
128.573
128.555
128.537
128.517
128.496
128.473
128.449
128.424
128.399
128.368
128.345
128.348
128.316
128.265
133.323
128.243
129.016
129.359
129.308
129.231
129.17
129.107
129.038
128.958
128.872
128.808
128.794
128.813
128.837
128.853
128.858
128.856
128.848
128.836
128.821
128.803
128.784
128.761
128.737
128.711
128.683
128.654
128.622
128.59
128.553
128.521
128.517
128.481
128.412
133.354
128.246
129.016
129.365
129.315
129.237
129.173
129.104
129.02
128.906
128.725
128.602
128.627
128.735
128.819
128.849
128.855
128.852
128.843
128.831
128.815
128.796
128.775
128.751
128.725
128.697
128.667
128.636
128.601
128.567
128.527
128.492
128.487
128.446
128.381
133.377
128.255
129.019
129.367
129.316
129.238
129.174
129.102
129.009
128.881
128.604
128.441
128.501
128.684
128.814
128.851
128.854
128.849
128.84
128.826
128.809
128.79
128.767
128.742
128.714
128.685
128.653
128.619
128.583
128.547
128.504
128.467
128.461
128.419
128.349
133.397
128.262
129.021
129.369
129.319
129.242
129.177
129.106
129.012
128.885
128.592
128.42
128.483
128.678
128.817
128.855
128.856
128.85
128.839
128.825
128.806
128.785
128.762
128.736
128.707
128.676
128.643
128.608
128.57
128.532
128.487
128.448
128.442
128.398
128.325
133.408
128.27
129.026
129.372
129.323
129.247
129.184
129.116
129.031
128.914
128.715
128.57
128.597
128.724
128.826
128.86
128.863
128.855
128.843
128.827
128.807
128.785
128.76
128.732
128.703
128.671
128.637
128.6
128.562
128.521
128.479
128.432
128.388
128.358
128.311
133.419
128.278
129.03
129.375
129.327
129.252
129.193
129.131
129.061
128.974
128.863
128.778
128.774
128.822
128.863
128.877
128.874
128.864
128.85
128.831
128.81
128.787
128.761
128.733
128.702
128.67
128.635
128.598
128.559
128.517
128.475
128.426
128.382
128.352
128.304
78.1426
76.5245
76.8056
76.9285
76.9218
76.9076
76.9013
76.8961
76.8959
76.8364
76.9201
77.0771
77.0988
77.03
76.9692
76.9377
76.9221
76.9132
76.9072
76.903
76.8999
76.8973
76.8952
76.8934
76.892
76.8898
76.8908
76.8836
76.8932
76.8956
76.8781
76.8526
76.8712
76.8208
76.9237
78.5106
77.1424
77.502
77.6308
77.6187
77.6006
77.5902
77.5798
77.5685
77.5276
77.545
77.6216
77.647
77.6287
77.61
77.6005
77.5961
77.5934
77.5913
77.5898
77.5884
77.5872
77.5861
77.5851
77.5845
77.5827
77.5848
77.5765
77.5894
77.5946
77.5763
77.5521
77.5553
77.5508
77.5413
78.648
77.1638
77.5042
77.6442
77.637
77.6199
77.6106
77.6002
77.595
77.5121
77.5383
77.7636
77.8269
77.7496
77.6715
77.6346
77.62
77.6126
77.6075
77.6036
77.6003
77.5975
77.595
77.5926
77.5905
77.5875
77.5889
77.5781
77.5914
77.598
77.5769
77.549
77.5495
77.5285
77.5842
78.7595
77.2015
77.5165
77.6488
77.6424
77.6272
77.6196
77.612
77.6081
77.5482
77.542
77.777
77.8678
77.797
77.7082
77.6594
77.6371
77.625
77.6168
77.6107
77.6059
77.602
77.5985
77.5953
77.5924
77.5898
77.5864
77.5864
77.5775
77.5851
77.589
77.5674
77.5542
77.5303
77.5752
78.8842
77.2223
77.5207
77.6615
77.6588
77.6446
77.6381
77.6339
77.6317
77.6144
77.6288
77.7546
77.8168
77.7797
77.7205
77.6796
77.6561
77.642
77.6324
77.6253
77.6198
77.6153
77.6115
77.6081
77.605
77.6024
77.5989
77.5997
77.5896
77.5993
77.6068
77.5805
77.5739
77.5212
77.6097
79.1488
77.7196
78.0874
78.2324
78.2241
78.2057
78.1945
78.1839
78.1723
78.1446
78.1278
78.2226
78.277
78.2581
78.2234
78.2012
78.1893
78.182
78.1764
78.1718
78.1678
78.1642
78.1608
78.1577
78.1546
78.152
78.1482
78.1492
78.1376
78.1492
78.1574
78.135
78.1129
78.1049
78.0779
79.2438
77.735
78.0886
78.2434
78.2394
78.2219
78.2119
78.2023
78.1906
78.1596
78.0727
78.3179
78.4491
78.3967
78.3008
78.2423
78.2158
78.202
78.1929
78.186
78.1801
78.175
78.1704
78.1661
78.1619
78.1579
78.1542
78.1495
78.1486
78.138
78.1445
78.1443
78.131
78.0933
78.1202
79.3165
77.7611
78.097
78.2468
78.2434
78.2275
78.219
78.2112
78.2003
78.1828
78.0693
78.328
78.4862
78.4425
78.3373
78.2671
78.2324
78.2137
78.2013
78.1919
78.1845
78.1781
78.1723
78.1671
78.1622
78.1575
78.1532
78.1476
78.1469
78.1347
78.1423
78.1446
78.1286
78.096
78.0986
79.3971
77.776
78.0984
78.2537
78.2538
78.239
78.2319
78.2263
78.2211
78.2087
78.1838
78.3075
78.4097
78.3963
78.3322
78.2785
78.2457
78.2255
78.2116
78.2013
78.1928
78.1857
78.1795
78.1739
78.1687
78.1637
78.1592
78.1533
78.1527
78.1394
78.1488
78.1527
78.135
78.1086
78.0769
79.587
78.1436
78.5185
78.678
78.6736
78.655
78.6436
78.6334
78.6225
78.6101
78.6006
78.6255
78.6524
78.6546
78.6437
78.6315
78.6212
78.6124
78.6049
78.598
78.5914
78.5853
78.5794
78.5736
78.5678
78.5622
78.557
78.55
78.549
78.5336
78.5429
78.5479
78.5287
78.4969
78.4867
79.6437
78.1545
78.5213
78.6868
78.6852
78.6673
78.6565
78.6464
78.6342
78.6155
78.5624
78.6874
78.8043
78.799
78.7357
78.682
78.6508
78.6324
78.6198
78.6097
78.6011
78.5933
78.5862
78.5793
78.5725
78.5659
78.5593
78.5531
78.5456
78.5424
78.5295
78.5313
78.5349
78.5064
78.5005
79.6889
78.1676
78.5248
78.6888
78.6882
78.6712
78.6613
78.6525
78.6376
78.6351
78.4907
78.723
78.9157
78.9045
78.8008
78.7163
78.6698
78.6445
78.6279
78.6151
78.6048
78.5956
78.5873
78.5795
78.5721
78.5647
78.5576
78.551
78.5429
78.5396
78.5254
78.5282
78.5323
78.5052
78.493
79.7298
78.1795
78.5282
78.691
78.6912
78.6751
78.6663
78.6588
78.6481
78.6389
78.5576
78.7102
78.8793
78.8885
78.8063
78.7284
78.6803
78.6523
78.6336
78.6193
78.6077
78.5975
78.5884
78.58
78.5719
78.5641
78.5563
78.5493
78.5406
78.5373
78.5218
78.5255
78.5305
78.5037
78.4891
79.7733
78.19
78.5314
78.6958
78.6971
78.682
78.6743
78.6684
78.6625
78.655
78.636
78.711
78.8092
78.8237
78.7767
78.7227
78.6837
78.6576
78.6389
78.6242
78.6121
78.6014
78.5917
78.5828
78.5743
78.5662
78.5581
78.5508
78.5418
78.5387
78.5224
78.5267
78.533
78.5077
78.4845
79.8787
78.4024
78.7748
78.9423
78.9414
78.9237
78.9135
78.9051
78.8972
78.8904
78.8875
78.9074
78.9323
78.9361
78.9227
78.9046
78.8878
78.8731
78.8603
78.849
78.8385
78.8286
78.8192
78.8102
78.8013
78.7924
78.7834
78.7751
78.7649
78.761
78.7429
78.7464
78.7513
78.7281
78.6967
79.8993
78.4061
78.7761
78.9468
78.9471
78.9296
78.9195
78.9107
78.9008
78.8887
78.8589
78.9349
79.0433
79.0604
79.0116
78.9559
78.9165
78.8907
78.8722
78.8575
78.8449
78.8336
78.8232
78.8132
78.8036
78.7942
78.7848
78.776
78.7653
78.761
78.742
78.7456
78.7515
78.7242
78.7016
79.9141
78.4106
78.7778
78.9479
78.9483
78.9314
78.9215
78.9127
78.9007
78.8934
78.8121
78.9478
79.136
79.1599
79.0783
78.9918
78.9352
78.9014
78.8788
78.8618
78.8477
78.8354
78.8243
78.8138
78.8036
78.7937
78.7839
78.7748
78.7637
78.7594
78.7398
78.7437
78.75
78.7233
78.6979
79.9287
78.414
78.7787
78.9488
78.9496
78.9328
78.9232
78.9153
78.9033
78.8993
78.8069
78.9501
79.1539
79.182
79.0957
79.003
78.9424
78.9062
78.8822
78.8641
78.8493
78.8364
78.8248
78.8139
78.8034
78.7933
78.7833
78.7739
78.7625
78.7581
78.7382
78.7421
78.7488
78.7225
78.6959
79.9408
78.418
78.7806
78.95
78.9509
78.9345
78.9254
78.9179
78.9094
78.9
78.8655
78.9489
79.0826
79.1107
79.0553
78.9871
78.9373
78.9048
78.882
78.8644
78.8497
78.8367
78.8249
78.8138
78.8032
78.7929
78.7829
78.7729
78.7634
78.7525
78.7466
78.7301
78.73
78.727
78.7126
79.953
78.4219
78.7821
78.9509
78.9519
78.9358
78.9273
78.9211
78.9156
78.9108
78.9065
78.9479
79.0079
79.0215
78.993
78.9544
78.9221
78.8975
78.8783
78.8625
78.8486
78.8362
78.8247
78.8137
78.8031
78.7928
78.7827
78.7727
78.7631
78.7521
78.7463
78.7296
78.7297
78.7271
78.7125
52.3255
51.9426
52.1037
52.1579
52.1606
52.1607
52.1649
52.1706
52.1868
52.1624
52.3057
52.4499
52.4183
52.3189
52.2465
52.2082
52.1869
52.1728
52.1618
52.1527
52.1446
52.137
52.1298
52.1226
52.1156
52.1075
52.103
52.0882
52.0932
52.0817
52.0584
52.036
52.0489
52.0196
52.0671
52.6021
52.405
52.6201
52.6778
52.6776
52.6756
52.6776
52.6803
52.6871
52.6757
52.7346
52.8174
52.8133
52.7665
52.7291
52.7074
52.694
52.6842
52.676
52.6688
52.6623
52.6559
52.6497
52.6435
52.6376
52.6302
52.6273
52.6115
52.6199
52.6106
52.5849
52.5645
52.5598
52.5756
52.5265
52.6976
52.4226
52.6237
52.6876
52.6907
52.6899
52.6931
52.6965
52.7116
52.6736
52.7782
53.0128
53.0138
52.8884
52.7901
52.7419
52.7187
52.7046
52.694
52.6853
52.6776
52.6704
52.6635
52.6567
52.6502
52.6422
52.6394
52.6218
52.6318
52.6232
52.5949
52.5693
52.5704
52.5521
52.596
52.7761
52.4442
52.6305
52.6896
52.6929
52.6932
52.6977
52.7033
52.7185
52.6994
52.7714
53.0261
53.0554
52.9311
52.8208
52.7621
52.7328
52.7153
52.7027
52.6927
52.6841
52.6765
52.6693
52.6624
52.6556
52.6492
52.6414
52.6378
52.6228
52.6277
52.6199
52.5945
52.5819
52.5647
52.5928
52.8733
52.4642
52.6362
52.6992
52.7047
52.7057
52.7107
52.7181
52.7311
52.7383
52.792
52.9335
52.9662
52.8996
52.8257
52.7776
52.7493
52.7312
52.7181
52.7079
52.6993
52.6917
52.6848
52.6783
52.6719
52.666
52.6587
52.6565
52.6408
52.6485
52.6431
52.6132
52.6064
52.5688
52.6241
53.0711
52.8346
53.0558
53.1219
53.1244
53.1233
53.126
53.1301
53.1373
53.1383
53.1638
53.2807
53.3148
53.2662
53.2111
53.176
53.1555
53.1418
53.1316
53.1233
53.1161
53.1096
53.1035
53.0977
53.0919
53.0867
53.0799
53.0789
53.0626
53.0725
53.0684
53.0429
53.0187
53.0259
52.9808
53.1382
52.8488
53.0592
53.1303
53.1355
53.1353
53.1392
53.1448
53.1538
53.1599
53.1486
53.4277
53.5185
53.4117
53.289
53.2177
53.1824
53.1625
53.149
53.1387
53.1303
53.1229
53.1162
53.1099
53.1039
53.0979
53.0923
53.0855
53.0831
53.0692
53.0745
53.0667
53.0511
53.0187
53.0413
53.1907
52.8642
53.064
53.132
53.1373
53.138
53.1429
53.1499
53.1591
53.1767
53.1429
53.4433
53.5612
53.457
53.3222
53.2395
53.1971
53.1732
53.1574
53.1457
53.1363
53.1283
53.1212
53.1147
53.1086
53.1027
53.0973
53.0904
53.0889
53.074
53.0815
53.076
53.0568
53.0333
53.0282
53.2557
52.8784
53.067
53.1375
53.1447
53.146
53.1515
53.1592
53.1709
53.1848
53.2048
53.3593
53.4425
53.3949
53.3096
53.2459
53.2076
53.1839
53.1677
53.1558
53.1461
53.1381
53.1312
53.1249
53.1191
53.1136
53.1087
53.1021
53.1018
53.0864
53.0961
53.0932
53.0692
53.0591
53.0158
53.4006
53.1527
53.3785
53.4519
53.4567
53.4562
53.4595
53.4644
53.4711
53.4804
53.4963
53.5399
53.5676
53.5584
53.534
53.5112
53.4937
53.4802
53.4696
53.4609
53.4533
53.4467
53.4406
53.435
53.4297
53.4246
53.4202
53.4138
53.4144
53.3986
53.4096
53.4084
53.3866
53.3651
53.3551
53.441
53.1629
53.3825
53.4589
53.4656
53.4658
53.4699
53.4761
53.4846
53.4971
53.4965
53.6563
53.7617
53.722
53.633
53.5653
53.5257
53.5022
53.4864
53.4746
53.4653
53.4574
53.4506
53.4444
53.4387
53.4334
53.4283
53.4238
53.4178
53.417
53.4048
53.4097
53.4102
53.385
53.3809
53.4719
53.1703
53.3845
53.46
53.4671
53.4679
53.4728
53.4805
53.4874
53.5188
53.4526
53.7301
53.9037
53.8384
53.7003
53.6003
53.5454
53.5149
53.4954
53.4815
53.4709
53.4621
53.4548
53.4483
53.4425
53.4371
53.432
53.4277
53.4218
53.4218
53.409
53.4157
53.4168
53.3932
53.3855
53.5051
53.178
53.3861
53.4608
53.4683
53.4697
53.4752
53.4835
53.4935
53.5162
53.4977
53.6961
53.8526
53.8177
53.7032
53.6099
53.5541
53.5218
53.501
53.4862
53.4749
53.4658
53.4582
53.4516
53.4457
53.4404
53.4353
53.4313
53.4254
53.4262
53.4128
53.4211
53.4232
53.4001
53.3912
53.542
53.1865
53.3887
53.4641
53.4721
53.4738
53.4797
53.4881
53.4998
53.5169
53.5354
53.6419
53.7377
53.7289
53.6617
53.5971
53.5529
53.5245
53.5051
53.4908
53.4798
53.4708
53.4633
53.4568
53.451
53.446
53.4412
53.4375
53.4319
53.4335
53.4198
53.4299
53.4325
53.413
53.3948
53.624
53.3468
53.5714
53.6491
53.6561
53.6565
53.6611
53.6677
53.6766
53.6892
53.7075
53.744
53.7745
53.7746
53.754
53.7295
53.7085
53.6917
53.6783
53.6675
53.6584
53.6507
53.644
53.6381
53.6329
53.6281
53.6236
53.6201
53.6147
53.617
53.603
53.614
53.6167
53.6
53.5762
53.6388
53.351
53.5736
53.653
53.6609
53.6618
53.6671
53.6747
53.6852
53.7012
53.7134
53.8221
53.9308
53.9267
53.8566
53.7882
53.7419
53.7126
53.6928
53.6783
53.6671
53.6581
53.6505
53.644
53.6383
53.6333
53.6287
53.6252
53.6196
53.6221
53.6078
53.6192
53.6237
53.6023
53.5891
53.649
53.3536
53.5747
53.6536
53.6617
53.6632
53.669
53.6775
53.6877
53.7129
53.6942
53.8727
54.0555
54.0444
53.931
53.8279
53.7633
53.7252
53.701
53.6841
53.6714
53.6614
53.6533
53.6465
53.6406
53.6354
53.6308
53.6274
53.6217
53.6246
53.61
53.6223
53.6273
53.6066
53.5915
53.6602
53.3558
53.575
53.6541
53.6623
53.6639
53.6699
53.6791
53.6893
53.7179
53.6914
53.8797
54.0777
54.0687
53.9488
53.8391
53.7704
53.7301
53.7045
53.6868
53.6736
53.6633
53.6549
53.6479
53.6419
53.6368
53.6322
53.6288
53.6232
53.6264
53.6117
53.6244
53.6298
53.6098
53.5939
53.671
53.358
53.5757
53.6544
53.6627
53.6643
53.6703
53.6792
53.691
53.7106
53.7221
53.8431
53.9774
53.9812
53.901
53.8187
53.7621
53.7265
53.703
53.6863
53.6735
53.6635
53.6553
53.6484
53.6425
53.6373
53.6329
53.629
53.6261
53.6217
53.6237
53.6138
53.6222
53.6236
53.6143
53.6821
53.3605
53.5762
53.6545
53.6626
53.6641
53.6699
53.6784
53.6898
53.7062
53.7284
53.792
53.8568
53.8615
53.8223
53.7768
53.741
53.7154
53.6967
53.6825
53.6713
53.6621
53.6545
53.6479
53.6423
53.6372
53.6329
53.6291
53.6263
53.622
53.6242
53.6142
53.623
53.6249
53.6156
37.508
37.4485
37.5421
37.566
37.5688
37.571
37.5757
37.5814
37.5965
37.5833
37.6965
37.8007
37.7716
37.6956
37.6403
37.61
37.5927
37.5811
37.5722
37.5646
37.5578
37.5515
37.5454
37.5394
37.5336
37.5268
37.5232
37.5107
37.5144
37.5043
37.4865
37.4715
37.4781
37.466
37.4802
37.7185
37.805
37.941
37.9685
37.9695
37.9705
37.9735
37.977
37.9848
37.9794
38.0272
38.0884
38.0816
38.0442
38.0148
37.9973
37.9861
37.9779
37.9711
37.965
37.9594
37.9539
37.9486
37.9433
37.9383
37.9319
37.9296
37.9162
37.9223
37.9138
37.8933
37.8817
37.8693
37.9019
37.8286
37.7917
37.8223
37.9465
37.977
37.9803
37.9822
37.9865
37.9907
38.0056
37.9833
38.0699
38.2436
38.2363
38.1394
38.0647
38.0268
38.0077
37.9959
37.9871
37.9798
37.9733
37.9673
37.9615
37.9557
37.9503
37.9433
37.9412
37.9263
37.9336
37.9255
37.9037
37.8854
37.886
37.8718
37.905
37.8533
37.8377
37.9511
37.9785
37.9817
37.9844
37.9897
37.9956
38.0103
38.0025
38.0656
38.2549
38.2685
38.1719
38.088
38.0422
38.0184
38.0039
37.9935
37.9853
37.9782
37.9718
37.9658
37.9601
37.9543
37.9489
37.9423
37.9395
37.9269
37.9305
37.923
37.9045
37.8943
37.8846
37.8996
37.9326
37.8581
37.9586
37.9873
37.9918
37.995
38.0005
38.0078
38.02
38.0293
38.0747
38.1819
38.2027
38.1503
38.0933
38.0555
38.0327
38.0178
38.0071
37.9987
37.9916
37.9853
37.9795
37.9741
37.9687
37.9638
37.9575
37.9559
37.9426
37.9484
37.9426
37.9205
37.9153
37.8904
37.9241
38.0807
38.141
38.2807
38.3128
38.3156
38.3176
38.3216
38.3266
38.3347
38.3397
38.3634
38.4534
38.4758
38.4362
38.3926
38.3645
38.3477
38.3364
38.3279
38.321
38.3151
38.3096
38.3045
38.2997
38.2948
38.2905
38.2846
38.284