/*--------------------------------*- C++ -*----------------------------------*\
  =========                 |
  \\      /  F ield         | OpenFOAM: The Open Source CFD Toolbox
   \\    /   O peration     | Website:  https://openfoam.org
    \\  /    A nd           | Version:  6
     \\/     M anipulation  |
\*---------------------------------------------------------------------------*/
FoamFile
{
    version     2.0;
    format      ascii;
    class       volVectorField;
    location    "0.2";
    object      U;
}
// * * * * * * * * * * * * * * * * * * * * * * * * * * * * * * * * * * * * * //

dimensions      [0 1 -1 0 0 0 0];

internalField   nonuniform List<vector> 
63264
(
(0.104046 -0.000784905 -0.00041778)
(0.110387 -0.00157419 -3.56452e-05)
(0.108436 -0.00146019 1.1128e-05)
(0.107522 -0.00124265 2.02997e-06)
(0.107365 -0.001074 -5.06278e-07)
(0.107318 -0.000940058 -2.89882e-07)
(0.107295 -0.000838357 -1.39388e-07)
(0.107322 -0.000766716 -1.14354e-07)
(0.107424 -0.00072558 -5.84803e-07)
(0.107753 -0.000710021 7.94142e-07)
(0.108309 -0.000695939 2.35772e-06)
(0.108151 -0.000697486 1.09009e-06)
(0.107583 -0.000728722 -3.92093e-07)
(0.107294 -0.000773105 -1.41718e-06)
(0.10723 -0.000833592 -1.58584e-06)
(0.107213 -0.00091158 -1.09663e-06)
(0.107198 -0.00100392 -7.22705e-07)
(0.10719 -0.00110879 -5.71005e-07)
(0.107194 -0.00122601 -5.16882e-07)
(0.107208 -0.00135579 -4.94337e-07)
(0.107231 -0.00149814 -4.8478e-07)
(0.107265 -0.00165288 -4.84337e-07)
(0.10731 -0.0018196 -4.88019e-07)
(0.107366 -0.00199786 -4.92494e-07)
(0.107436 -0.00218673 -4.97885e-07)
(0.10752 -0.00238586 -4.78057e-07)
(0.107616 -0.00259264 -5.95285e-07)
(0.107743 -0.00280907 1.66957e-08)
(0.107838 -0.0030326 -5.90215e-07)
(0.107989 -0.00326115 -1.57989e-06)
(0.108197 -0.00348739 -7.97551e-07)
(0.108494 -0.00373546 -3.59766e-07)
(0.108687 -0.00396437 1.47351e-06)
(0.109278 -0.00421963 7.8718e-07)
(0.10905 -0.00456309 1.08376e-05)
(0.106101 -0.000747749 -0.000424429)
(0.113766 -0.00151842 -3.58718e-05)
(0.111996 -0.00140318 1.14131e-05)
(0.111039 -0.00118788 1.97471e-06)
(0.110849 -0.00102959 -6.52377e-07)
(0.110773 -0.000905022 -3.85441e-07)
(0.110708 -0.000808078 -2.06857e-07)
(0.110673 -0.000737135 -1.93032e-07)
(0.110672 -0.000691712 -4.20104e-07)
(0.110746 -0.000664032 2.85746e-07)
(0.11091 -0.000653569 1.28631e-06)
(0.110818 -0.000675859 6.98085e-07)
(0.110533 -0.000711184 -1.09372e-07)
(0.110396 -0.000748882 -4.5478e-07)
(0.110393 -0.000806845 -5.2784e-07)
(0.110419 -0.000882417 -3.32763e-07)
(0.110436 -0.000970631 -1.65742e-07)
(0.110445 -0.00107165 -9.33782e-08)
(0.110452 -0.00118618 -6.36738e-08)
(0.110462 -0.00131446 -4.62458e-08)
(0.110476 -0.00145651 -3.35715e-08)
(0.110496 -0.00161231 -2.2808e-08)
(0.110524 -0.00178163 -1.0394e-08)
(0.110561 -0.0019642 1.72993e-09)
(0.110609 -0.00215954 1.06283e-08)
(0.11067 -0.00236721 5.13085e-08)
(0.110741 -0.0025863 -7.86267e-08)
(0.110844 -0.00281615 6.48344e-07)
(0.110903 -0.00305406 3.4925e-08)
(0.111012 -0.00330074 -1.20461e-06)
(0.111174 -0.00355992 -4.15763e-07)
(0.111432 -0.00381879 -2.35627e-07)
(0.111534 -0.00413539 9.28365e-07)
(0.111954 -0.00435329 -8.49485e-07)
(0.111648 -0.00497737 -1.79123e-06)
(0.10643 -0.00100465 -0.000429736)
(0.113924 -0.00152394 -3.87262e-05)
(0.112123 -0.00131404 1.08503e-05)
(0.111134 -0.00111934 2.12038e-06)
(0.110933 -0.000989036 -5.23346e-07)
(0.110858 -0.000881572 -3.17606e-07)
(0.110799 -0.00079408 -1.58142e-07)
(0.110782 -0.000727009 -1.11832e-07)
(0.110829 -0.000678198 -6.45165e-07)
(0.111084 -0.000651561 9.42773e-07)
(0.111854 -0.000657603 3.24955e-06)
(0.112025 -0.000699234 1.10507e-06)
(0.111063 -0.000748808 -1.12673e-06)
(0.110513 -0.000796666 -1.62357e-06)
(0.110432 -0.000856706 -2.10511e-06)
(0.110446 -0.000927851 -1.5424e-06)
(0.110438 -0.00101083 -9.55877e-07)
(0.110419 -0.00110845 -6.95484e-07)
(0.110401 -0.00122123 -5.91387e-07)
(0.110388 -0.0013487 -5.3171e-07)
(0.11038 -0.00149048 -4.90018e-07)
(0.110378 -0.0016464 -4.5741e-07)
(0.110383 -0.0018163 -4.26796e-07)
(0.110397 -0.0019999 -3.92523e-07)
(0.110421 -0.00219686 -3.56005e-07)
(0.110457 -0.00240663 -2.77719e-07)
(0.110502 -0.00262912 -4.03709e-07)
(0.11058 -0.00286179 4.97758e-07)
(0.110605 -0.0031047 -2.23879e-08)
(0.110685 -0.00335745 -1.4048e-06)
(0.110829 -0.00362007 -5.66316e-07)
(0.111062 -0.0038633 7.97244e-08)
(0.111215 -0.00415019 1.23569e-06)
(0.111502 -0.00432404 1.58673e-06)
(0.11157 -0.00470572 -1.81166e-06)
(0.106772 -0.000912276 -0.000436653)
(0.114032 -0.00140172 -3.71565e-05)
(0.112152 -0.00122511 1.23099e-05)
(0.111189 -0.0010529 2.3676e-06)
(0.111007 -0.000935479 -5.19625e-07)
(0.110935 -0.000837821 -2.83423e-07)
(0.110877 -0.000757625 -9.04938e-08)
(0.110867 -0.000696164 -2.72918e-08)
(0.110931 -0.000653362 -4.25916e-07)
(0.111209 -0.000632717 6.79746e-07)
(0.111954 -0.00063069 3.26945e-06)
(0.11233 -0.00064748 1.56894e-06)
(0.111337 -0.000690724 -9.04982e-07)
(0.110655 -0.000752235 -1.18252e-06)
(0.110492 -0.000817348 -1.75821e-06)
(0.110462 -0.000886652 -1.21302e-06)
(0.110423 -0.000966686 -5.7924e-07)
(0.110377 -0.00106089 -3.05832e-07)
(0.110336 -0.00116998 -2.13727e-07)
(0.1103 -0.00129401 -1.67971e-07)
(0.11027 -0.00143296 -1.3697e-07)
(0.110246 -0.0015868 -1.14501e-07)
(0.110229 -0.0017555 -9.26587e-08)
(0.110219 -0.00193902 -6.74859e-08)
(0.110218 -0.00213733 -4.13371e-08)
(0.110227 -0.00235005 -1.73811e-08)
(0.110247 -0.00257741 4.14863e-08)
(0.110279 -0.0028173 -6.26911e-08)
(0.110338 -0.00307262 6.46559e-07)
(0.110373 -0.0033392 5.02201e-08)
(0.110433 -0.00361843 -9.07171e-07)
(0.110599 -0.00389326 -3.80489e-07)
(0.110735 -0.00419221 6.01788e-07)
(0.111007 -0.00445658 7.49529e-07)
(0.111001 -0.00470117 -3.69535e-07)
(0.10713 -0.000549981 -0.000446651)
(0.11426 -0.00117555 -4.0255e-05)
(0.112295 -0.00113061 1.15867e-05)
(0.111293 -0.000997359 2.21058e-06)
(0.111098 -0.0008946 -6.03286e-07)
(0.111022 -0.000809566 -3.59744e-07)
(0.110963 -0.000741473 -1.38021e-07)
(0.110951 -0.000691431 -1.68695e-08)
(0.111008 -0.000660611 -5.49669e-09)
(0.111202 -0.000648066 7.14481e-07)
(0.111569 -0.000644018 2.22296e-06)
(0.111708 -0.000653819 1.47555e-06)
(0.111258 -0.000687316 -5.76892e-07)
(0.110838 -0.000734413 -1.55929e-06)
(0.110636 -0.000790115 -1.93034e-06)
(0.110533 -0.000859283 -1.58895e-06)
(0.110452 -0.000943549 -1.13981e-06)
(0.110379 -0.00104173 -8.79042e-07)
(0.110314 -0.00115321 -7.54707e-07)
(0.110258 -0.00127832 -6.9101e-07)
(0.110209 -0.00141754 -6.56812e-07)
(0.110167 -0.00157121 -6.40629e-07)
(0.110131 -0.00173965 -6.33432e-07)
(0.110103 -0.00192314 -6.2954e-07)
(0.110082 -0.00212183 -6.2436e-07)
(0.110071 -0.00233567 -6.22579e-07)
(0.11007 -0.00256485 -5.80615e-07)
(0.11008 -0.00280885 -7.41624e-07)
(0.110117 -0.00306854 6.08067e-08)
(0.110121 -0.00333931 -4.91316e-07)
(0.110151 -0.00362966 -1.60216e-06)
(0.110313 -0.00392438 -1.17203e-06)
(0.11043 -0.00425302 5.10401e-07)
(0.110826 -0.00454243 4.6712e-07)
(0.110715 -0.00490654 5.5653e-06)
(0.108895 -0.000432452 -0.000450411)
(0.117225 -0.00104812 -3.93323e-05)
(0.115424 -0.00104921 1.21573e-05)
(0.11439 -0.000941033 2.17634e-06)
(0.114171 -0.000851171 -8.34373e-07)
(0.114069 -0.00077546 -5.89606e-07)
(0.113972 -0.000714665 -3.84736e-07)
(0.113904 -0.000670144 -3.39093e-07)
(0.113876 -0.000642565 -4.29627e-07)
(0.113924 -0.000629868 -2.07029e-08)
(0.114117 -0.000628409 1.37372e-06)
(0.114238 -0.000647975 8.6296e-07)
(0.113838 -0.000674147 -6.50724e-07)
(0.113487 -0.00070222 -9.99387e-07)
(0.113349 -0.000754708 -1.15225e-06)
(0.113301 -0.000827707 -9.58849e-07)
(0.11326 -0.00091304 -7.12374e-07)
(0.11321 -0.0010099 -5.94492e-07)
(0.113156 -0.00111933 -5.62343e-07)
(0.1131 -0.00124209 -5.604e-07)
(0.113044 -0.00137885 -5.69975e-07)
(0.11299 -0.00153021 -5.82223e-07)
(0.112937 -0.0016967 -5.93868e-07)
(0.112888 -0.00187875 -6.05719e-07)
(0.112844 -0.00207672 -6.12132e-07)
(0.112805 -0.00229093 -6.19252e-07)
(0.112775 -0.00252157 -5.78277e-07)
(0.112751 -0.00276893 -7.6641e-07)
(0.112753 -0.00303305 9.07372e-08)
(0.112713 -0.00331139 -5.02228e-07)
(0.112684 -0.00361755 -1.81093e-06)
(0.112776 -0.0039265 -1.55624e-06)
(0.112809 -0.0042946 -4.12486e-07)
(0.113056 -0.00460644 -1.1075e-06)
(0.112853 -0.00517498 -1.83723e-06)
(0.109083 -0.000634263 -0.000454767)
(0.117313 -0.00107411 -4.189e-05)
(0.115517 -0.000980674 1.14941e-05)
(0.114463 -0.000869205 2.25681e-06)
(0.114239 -0.000793849 -6.72283e-07)
(0.114142 -0.000728646 -4.36923e-07)
(0.114053 -0.000673453 -2.16188e-07)
(0.114003 -0.000630553 -1.18838e-07)
(0.114018 -0.000600747 -1.67607e-07)
(0.114182 -0.000583998 3.02517e-07)
(0.114772 -0.000591345 4.37848e-06)
(0.115684 -0.000626088 2.38082e-06)
(0.114661 -0.000658705 -2.32223e-06)
(0.113701 -0.000693379 -1.97617e-06)
(0.113397 -0.000749463 -2.49941e-06)
(0.11333 -0.000819168 -2.08759e-06)
(0.113269 -0.000897325 -1.34958e-06)
(0.113193 -0.000986761 -9.44086e-07)
(0.113113 -0.00108972 -7.77478e-07)
(0.113034 -0.00120685 -6.95646e-07)
(0.112955 -0.00133851 -6.46828e-07)
(0.112876 -0.00148511 -6.16664e-07)
(0.1128 -0.00164712 -5.96341e-07)
(0.112725 -0.00182502 -5.78972e-07)
(0.112654 -0.00201929 -5.59226e-07)
(0.112587 -0.00223041 -5.36927e-07)
(0.112525 -0.00245869 -5.11007e-07)
(0.112473 -0.00270443 -4.56081e-07)
(0.112423 -0.00296753 -5.27999e-07)
(0.112406 -0.00324684 1.22788e-07)
(0.112343 -0.00355034 -2.69152e-07)
(0.112343 -0.00385227 -1.34316e-06)
(0.112352 -0.0041968 -3.60528e-07)
(0.112495 -0.00449227 2.40842e-07)
(0.112502 -0.00492006 -1.98796e-06)
(0.109296 -0.000561223 -0.000459663)
(0.117361 -0.000958055 -4.08281e-05)
(0.115526 -0.00089082 1.26258e-05)
(0.114498 -0.000800912 2.49142e-06)
(0.114292 -0.00073732 -6.81363e-07)
(0.114202 -0.000680959 -4.53673e-07)
(0.114118 -0.000633166 -2.22129e-07)
(0.114076 -0.000596697 -1.17818e-07)
(0.114109 -0.000573032 -9.31655e-08)
(0.114295 -0.000565377 3.86914e-08)
(0.11492 -0.000574055 4.61783e-06)
(0.116046 -0.000583355 2.73097e-06)
(0.114981 -0.000603761 -2.56202e-06)
(0.113865 -0.000653334 -1.96422e-06)
(0.113468 -0.000713162 -2.55357e-06)
(0.113358 -0.000778196 -2.16416e-06)
(0.113269 -0.000852636 -1.35442e-06)
(0.113168 -0.000938793 -9.11742e-07)
(0.113065 -0.00103764 -7.49041e-07)
(0.112964 -0.0011499 -6.84358e-07)
(0.112864 -0.00127625 -6.54287e-07)
(0.112764 -0.0014173 -6.41843e-07)
(0.112665 -0.00157364 -6.39133e-07)
(0.112567 -0.00174593 -6.38582e-07)
(0.11247 -0.00193478 -6.35855e-07)
(0.112375 -0.00214081 -6.30726e-07)
(0.112284 -0.00236472 -6.22739e-07)
(0.112198 -0.00260679 -5.80821e-07)
(0.112113 -0.00286846 -7.11614e-07)
(0.112057 -0.0031479 -1.1808e-09)
(0.111947 -0.00344901 -4.06678e-07)
(0.111889 -0.00376317 -1.71037e-06)
(0.111849 -0.00410703 -9.811e-07)
(0.111939 -0.00445538 -6.56933e-07)
(0.111853 -0.00480718 -2.01366e-06)
(0.109528 -0.000347633 -0.000466255)
(0.117488 -0.000812283 -4.28848e-05)
(0.115608 -0.000813845 1.21341e-05)
(0.114561 -0.000742163 2.40446e-06)
(0.114351 -0.000685515 -7.02389e-07)
(0.114262 -0.000636617 -4.60339e-07)
(0.11418 -0.000596375 -2.01523e-07)
(0.114139 -0.000567051 -4.70252e-08)
(0.114165 -0.000550297 9.36438e-08)
(0.114311 -0.000549048 5.83509e-07)
(0.114677 -0.000553375 2.52916e-06)
(0.115048 -0.00055 2.09788e-06)
(0.114589 -0.000568364 -6.65761e-07)
(0.113959 -0.000617222 -1.86915e-06)
(0.113604 -0.000669331 -2.3829e-06)
(0.113428 -0.000727059 -2.16461e-06)
(0.113296 -0.00079793 -1.63675e-06)
(0.113168 -0.000881907 -1.26594e-06)
(0.113044 -0.000977988 -1.08695e-06)
(0.112923 -0.00108648 -1.00488e-06)
(0.112804 -0.0012082 -9.67776e-07)
(0.112685 -0.00134393 -9.57829e-07)
(0.112566 -0.00149445 -9.64294e-07)
(0.112447 -0.00166058 -9.82445e-07)
(0.112329 -0.0018431 -1.00666e-06)
(0.112211 -0.00204278 -1.03262e-06)
(0.112095 -0.00226055 -1.06032e-06)
(0.111982 -0.0024969 -1.04861e-06)
(0.111868 -0.00275355 -1.24959e-06)
(0.111783 -0.0030291 -4.71781e-07)
(0.111633 -0.00332769 -8.56937e-07)
(0.111546 -0.00364087 -2.38867e-06)
(0.111465 -0.00399234 -1.3699e-06)
(0.111605 -0.00433632 -1.21886e-06)
(0.111386 -0.00474783 1.12291e-06)
(0.11105 -0.000269778 -0.000470679)
(0.119983 -0.000707439 -4.22274e-05)
(0.118198 -0.000736785 1.24504e-05)
(0.117112 -0.000683712 2.28485e-06)
(0.116878 -0.000636219 -9.74159e-07)
(0.116764 -0.000593962 -7.55694e-07)
(0.116642 -0.000559197 -5.42386e-07)
(0.116541 -0.000533949 -4.90143e-07)
(0.116465 -0.000519393 -4.76626e-07)
(0.116415 -0.000515435 -4.08528e-07)
(0.116385 -0.000518303 5.35614e-09)
(0.116329 -0.000529696 2.77394e-07)
(0.116152 -0.000552728 -1.21166e-07)
(0.115947 -0.000583959 -6.83197e-07)
(0.115785 -0.000625598 -9.77732e-07)
(0.115667 -0.000681339 -1.01984e-06)
(0.115565 -0.00075013 -9.75052e-07)
(0.11546 -0.000830412 -9.47887e-07)
(0.115347 -0.00092192 -9.54646e-07)
(0.115229 -0.00102518 -9.8316e-07)
(0.115105 -0.00114095 -1.02459e-06)
(0.114976 -0.00127009 -1.07312e-06)
(0.114841 -0.00141351 -1.12784e-06)
(0.114703 -0.00157211 -1.18596e-06)
(0.11456 -0.00174681 -1.24202e-06)
(0.114415 -0.0019385 -1.29667e-06)
(0.114266 -0.00214832 -1.35204e-06)
(0.114119 -0.00237673 -1.36598e-06)
(0.113963 -0.00262632 -1.60444e-06)
(0.113833 -0.00289446 -8.51284e-07)
(0.113632 -0.003189 -1.26683e-06)
(0.11347 -0.00350227 -2.94407e-06)
(0.113319 -0.00386513 -2.34282e-06)
(0.113312 -0.00420497 -2.52827e-06)
(0.113072 -0.00469956 -2.94654e-06)
(0.111143 -0.000421337 -0.000473785)
(0.120028 -0.000735596 -4.36507e-05)
(0.118255 -0.000684509 1.21897e-05)
(0.117162 -0.000617172 2.38616e-06)
(0.116928 -0.000574862 -8.50916e-07)
(0.116822 -0.000538538 -6.36371e-07)
(0.116712 -0.000507033 -4.00148e-07)
(0.116632 -0.000482025 -2.93655e-07)
(0.116606 -0.000464828 -1.92332e-07)
(0.116682 -0.000453369 1.71438e-07)
(0.117008 -0.000458739 2.87698e-06)
(0.117575 -0.000493058 2.19128e-06)
(0.117111 -0.000526771 -1.54493e-06)
(0.116328 -0.000550971 -2.35099e-06)
(0.115892 -0.000590928 -2.42248e-06)
(0.115707 -0.00064703 -2.18137e-06)
(0.115581 -0.000710906 -1.68048e-06)
(0.115453 -0.000782626 -1.32382e-06)
(0.115319 -0.000864754 -1.16272e-06)
(0.115179 -0.000958574 -1.10344e-06)
(0.115035 -0.0010648 -1.08861e-06)
(0.114885 -0.00118419 -1.09556e-06)
(0.114729 -0.00131751 -1.11739e-06)
(0.114567 -0.00146557 -1.14763e-06)
(0.1144 -0.00162933 -1.18198e-06)
(0.114227 -0.00180974 -1.21981e-06)
(0.11405 -0.00200791 -1.25314e-06)
(0.113869 -0.0022244 -1.29115e-06)
(0.113684 -0.00246152 -1.27908e-06)
(0.113497 -0.00271674 -1.46349e-06)
(0.113315 -0.00299806 -8.17929e-07)
(0.113109 -0.00329578 -1.34113e-06)
(0.112888 -0.00362886 -2.18028e-06)
(0.112767 -0.00394802 -1.88516e-06)
(0.112596 -0.00435539 -3.01423e-06)
(0.11125 -0.000367042 -0.000476638)
(0.120059 -0.000624014 -4.37138e-05)
(0.118276 -0.000597406 1.25293e-05)
(0.117193 -0.000550587 2.49351e-06)
(0.116968 -0.000516675 -8.22067e-07)
(0.116868 -0.000486026 -6.06321e-07)
(0.116767 -0.000459576 -3.56035e-07)
(0.116701 -0.000439265 -2.22955e-07)
(0.116707 -0.000426641 -4.43545e-10)
(0.116839 -0.000422583 -1.86942e-07)
(0.117365 -0.000431727 5.84755e-06)
(0.118803 -0.000451284 3.89181e-06)
(0.117986 -0.000470208 -3.79008e-06)
(0.116618 -0.000495604 -3.31183e-06)
(0.115961 -0.000535087 -3.18035e-06)
(0.115735 -0.000586144 -2.87621e-06)
(0.115593 -0.000644932 -2.0703e-06)
(0.115445 -0.000711616 -1.51577e-06)
(0.115291 -0.000787716 -1.28308e-06)
(0.115133 -0.000874357 -1.19946e-06)
(0.11497 -0.00097237 -1.17581e-06)
(0.114802 -0.00108252 -1.18343e-06)
(0.114626 -0.00120564 -1.21035e-06)
(0.114444 -0.00134263 -1.24882e-06)
(0.114254 -0.00149443 -1.29466e-06)
(0.114057 -0.00166208 -1.34374e-06)
(0.113853 -0.00184675 -1.39104e-06)
(0.113642 -0.00204926 -1.44803e-06)
(0.113424 -0.00227153 -1.45267e-06)
(0.113199 -0.00251324 -1.68014e-06)
(0.112979 -0.00277957 -1.02677e-06)
(0.11272 -0.00306319 -1.51038e-06)
(0.112448 -0.00338201 -2.58969e-06)
(0.112263 -0.00371123 -2.4186e-06)
(0.112047 -0.00410307 -3.43811e-06)
(0.111395 -0.000351473 -0.000480173)
(0.120122 -0.000587553 -4.40355e-05)
(0.118305 -0.000540841 1.26717e-05)
(0.117223 -0.000488525 2.53368e-06)
(0.117004 -0.000457578 -8.07931e-07)
(0.116909 -0.00043151 -5.87735e-07)
(0.116813 -0.000408823 -3.23108e-07)
(0.116753 -0.000391339 -1.6531e-07)
(0.116765 -0.000380139 5.86102e-08)
(0.116904 -0.000380285 2.86888e-07)
(0.117365 -0.000386739 4.08787e-06)
(0.118302 -0.000388029 3.37606e-06)
(0.117811 -0.000407377 -1.98022e-06)
(0.116713 -0.000451854 -3.05633e-06)
(0.116063 -0.000495348 -3.13154e-06)
(0.115787 -0.000537547 -2.89915e-06)
(0.115612 -0.000586843 -2.20787e-06)
(0.115442 -0.000645248 -1.66709e-06)
(0.115269 -0.000712818 -1.41077e-06)
(0.115093 -0.000790155 -1.31274e-06)
(0.114913 -0.000878019 -1.28602e-06)
(0.114727 -0.000977127 -1.29428e-06)
(0.114534 -0.00108825 -1.32476e-06)
(0.114332 -0.0012123 -1.37048e-06)
(0.114121 -0.00135023 -1.42708e-06)
(0.113901 -0.00150293 -1.48933e-06)
(0.113671 -0.00167157 -1.55071e-06)
(0.113432 -0.00185712 -1.62342e-06)
(0.113184 -0.00206123 -1.64411e-06)
(0.112924 -0.002284 -1.9095e-06)
(0.112669 -0.002529 -1.20713e-06)
(0.112362 -0.00279154 -1.65802e-06)
(0.112044 -0.00308059 -2.92006e-06)
(0.111799 -0.00338869 -2.78741e-06)
(0.111532 -0.00372551 -3.4225e-06)
(0.111545 -0.000196682 -0.000483778)
(0.120196 -0.000451122 -4.47368e-05)
(0.118344 -0.000457602 1.26872e-05)
(0.117255 -0.000426187 2.56649e-06)
(0.117037 -0.000401422 -7.99182e-07)
(0.116945 -0.000379742 -5.76719e-07)
(0.11685 -0.000361786 -3.02729e-07)
(0.116789 -0.000349036 -1.31636e-07)
(0.116788 -0.000342709 8.68865e-08)
(0.116881 -0.00034528 5.12367e-07)
(0.117138 -0.000350329 2.00083e-06)
(0.117465 -0.000347865 1.90921e-06)
(0.11722 -0.000358349 -5.7532e-07)
(0.116608 -0.000391957 -2.13103e-06)
(0.11613 -0.000428927 -2.5701e-06)
(0.115845 -0.000465763 -2.49612e-06)
(0.115638 -0.000509299 -2.09612e-06)
(0.115447 -0.000561849 -1.73465e-06)
(0.115258 -0.000622964 -1.5381e-06)
(0.115067 -0.000692584 -1.45708e-06)
(0.114872 -0.000771271 -1.43797e-06)
(0.114672 -0.000859796 -1.45629e-06)
(0.114463 -0.000958985 -1.49986e-06)
(0.114244 -0.00106969 -1.56019e-06)
(0.114016 -0.00119283 -1.633e-06)
(0.113776 -0.00132939 -1.71501e-06)
(0.113526 -0.0014805 -1.80059e-06)
(0.113263 -0.00164718 -1.89924e-06)
(0.112988 -0.00183105 -1.94512e-06)
(0.112699 -0.00203268 -2.26166e-06)
(0.112412 -0.00225543 -1.52298e-06)
(0.112069 -0.0024959 -2.00105e-06)
(0.111707 -0.00276358 -3.29514e-06)
(0.111443 -0.00305195 -3.35389e-06)
(0.111104 -0.00337632 -2.86755e-06)
(0.112535 -0.000135161 -0.000486803)
(0.121794 -0.000371457 -4.44967e-05)
(0.119986 -0.000390949 1.26873e-05)
(0.118864 -0.000366634 2.41452e-06)
(0.118628 -0.000345744 -1.00154e-06)
(0.118519 -0.000327708 -7.98711e-07)
(0.118397 -0.000312936 -5.66001e-07)
(0.118295 -0.000302268 -4.77259e-07)
(0.118221 -0.000296302 -3.94803e-07)
(0.118177 -0.000295773 -2.81854e-07)
(0.118153 -0.000298774 -1.36515e-08)
(0.118106 -0.000306638 1.25951e-07)
(0.117945 -0.000323321 -3.2314e-07)
(0.117699 -0.000344458 -1.02073e-06)
(0.117454 -0.000368449 -1.43856e-06)
(0.117246 -0.000399472 -1.53484e-06)
(0.117062 -0.000438406 -1.48814e-06)
(0.116884 -0.000484469 -1.44197e-06)
(0.116702 -0.000537487 -1.4363e-06)
(0.116514 -0.000597775 -1.46423e-06)
(0.116316 -0.00066591 -1.51742e-06)
(0.116109 -0.000742595 -1.59088e-06)
(0.11589 -0.000828568 -1.68208e-06)
(0.115659 -0.00092461 -1.78517e-06)
(0.115414 -0.00103155 -1.89654e-06)
(0.115156 -0.00115035 -2.01706e-06)
(0.114882 -0.00128209 -2.14288e-06)
(0.114594 -0.00142773 -2.28292e-06)
(0.11429 -0.00158877 -2.37116e-06)
(0.113967 -0.00176579 -2.729e-06)
(0.113643 -0.0019623 -2.0696e-06)
(0.113251 -0.0021745 -2.53489e-06)
(0.112842 -0.00241562 -3.95763e-06)
(0.1125 -0.00266949 -4.24038e-06)
(0.112098 -0.00298389 -4.21916e-06)
(0.112558 -0.000182744 -0.000488212)
(0.12181 -0.000343778 -4.51431e-05)
(0.120015 -0.000328827 1.2573e-05)
(0.11889 -0.000301578 2.46258e-06)
(0.118656 -0.000284657 -9.40879e-07)
(0.118552 -0.000270222 -7.30892e-07)
(0.118441 -0.000257679 -4.73404e-07)
(0.11836 -0.000247636 -3.2797e-07)
(0.118333 -0.000240507 -1.30583e-07)
(0.118398 -0.000235791 3.13739e-07)
(0.118653 -0.000238444 2.24597e-06)
(0.119088 -0.000258997 2.0946e-06)
(0.118874 -0.000282652 -1.10088e-06)
(0.118162 -0.000293505 -2.70399e-06)
(0.117606 -0.000307707 -2.78735e-06)
(0.117293 -0.000335038 -2.59675e-06)
(0.117082 -0.00036939 -2.1883e-06)
(0.116888 -0.000407536 -1.83556e-06)
(0.116691 -0.000450592 -1.65734e-06)
(0.116489 -0.000499754 -1.60081e-06)
(0.11628 -0.000555672 -1.60769e-06)
(0.11606 -0.000618892 -1.65144e-06)
(0.115828 -0.000689996 -1.71924e-06)
(0.115583 -0.000769682 -1.80614e-06)
(0.115323 -0.000858687 -1.90748e-06)
(0.115048 -0.000957774 -2.01996e-06)
(0.114756 -0.00106784 -2.13971e-06)
(0.114447 -0.00118981 -2.2739e-06)
(0.114121 -0.00132494 -2.35628e-06)
(0.113771 -0.0014738 -2.71519e-06)
(0.113421 -0.00163912 -2.01975e-06)
(0.112993 -0.00181765 -2.43493e-06)
(0.112555 -0.00201923 -3.95413e-06)
(0.112163 -0.00223076 -4.04855e-06)
(0.111764 -0.00248307 -4.10439e-06)
(0.112587 -0.000151139 -0.00048941)
(0.121818 -0.000265708 -4.51088e-05)
(0.120023 -0.000256446 1.27698e-05)
(0.118904 -0.000237678 2.52652e-06)
(0.118675 -0.000225026 -9.22775e-07)
(0.118576 -0.000214003 -7.08847e-07)
(0.118473 -0.000204474 -4.3487e-07)
(0.118405 -0.000196983 -2.59324e-07)
(0.118409 -0.000192223 3.77926e-08)
(0.118541 -0.000189487 3.49484e-07)
(0.11899 -0.000192609 4.74121e-06)
(0.12007 -0.000207967 4.22168e-06)
(0.119798 -0.000222672 -2.53406e-06)
(0.118562 -0.000228983 -4.39745e-06)
(0.11771 -0.000241076 -3.78233e-06)
(0.117323 -0.000263775 -3.36866e-06)
(0.117096 -0.000291202 -2.66002e-06)
(0.11689 -0.000321268 -2.06948e-06)
(0.116682 -0.000355165 -1.78481e-06)
(0.116469 -0.000393847 -1.68751e-06)
(0.11625 -0.000437807 -1.67689e-06)
(0.11602 -0.000487537 -1.71356e-06)
(0.115778 -0.000543557 -1.78184e-06)
(0.115522 -0.000606392 -1.87146e-06)
(0.11525 -0.000676652 -1.97857e-06)
(0.114961 -0.000754993 -2.10026e-06)
(0.114655 -0.000842129 -2.22746e-06)
(0.114329 -0.000938848 -2.37177e-06)
(0.113984 -0.00104619 -2.46902e-06)
(0.113613 -0.00116478 -2.85034e-06)
(0.11324 -0.00129672 -2.14858e-06)
(0.112782 -0.00144031 -2.56339e-06)
(0.112313 -0.00160245 -4.17922e-06)
(0.111883 -0.00177638 -4.33335e-06)
(0.111452 -0.00197853 -4.2572e-06)
(0.112629 -0.000131655 -0.000490551)
(0.121842 -0.000210385 -4.54001e-05)
(0.120039 -0.000193148 1.27128e-05)
(0.118918 -0.000175128 2.52236e-06)
(0.11869 -0.000165211 -9.1023e-07)
(0.118594 -0.000157341 -6.89874e-07)
(0.118494 -0.00015043 -4.0829e-07)
(0.118431 -0.000145015 -2.17865e-07)
(0.118444 -0.000141671 1.18169e-07)
(0.118588 -0.000142133 3.52042e-07)
(0.119062 -0.000145785 5.21127e-06)
(0.120266 -0.000146687 4.69427e-06)
(0.120004 -0.000150855 -2.73428e-06)
(0.118672 -0.000165567 -4.69842e-06)
(0.117757 -0.000182612 -3.99615e-06)
(0.117347 -0.000198315 -3.59112e-06)
(0.117109 -0.000215617 -2.84019e-06)
(0.116894 -0.000236112 -2.19653e-06)
(0.116677 -0.00025996 -1.8812e-06)
(0.116456 -0.000287367 -1.76714e-06)
(0.116229 -0.00031868 -1.74651e-06)
(0.115991 -0.00035424 -1.77975e-06)
(0.115741 -0.000394398 -1.84907e-06)
(0.115477 -0.000439531 -1.9401e-06)
(0.115196 -0.000490105 -2.04796e-06)
(0.114897 -0.000546617 -2.17203e-06)
(0.114579 -0.000609572 -2.30834e-06)
(0.114241 -0.000679617 -2.46113e-06)
(0.113882 -0.000757291 -2.56371e-06)
(0.113494 -0.000843633 -2.95811e-06)
(0.113104 -0.000938521 -2.26158e-06)
(0.112624 -0.00104305 -2.66077e-06)
(0.112133 -0.00116432 -4.31924e-06)
(0.111675 -0.00129138 -4.48167e-06)
(0.11122 -0.00143382 -4.26393e-06)
(0.112687 -9.03247e-05 -0.000491596)
(0.12187 -0.000135299 -4.54301e-05)
(0.120049 -0.000122203 1.2797e-05)
(0.118927 -0.000111337 2.54758e-06)
(0.1187 -0.000105632 -9.02994e-07)
(0.118604 -0.000100981 -6.85237e-07)
(0.118504 -9.68343e-05 -4.05656e-07)
(0.118437 -9.37545e-05 -2.22808e-07)
(0.118435 -9.22309e-05 4.52931e-08)
(0.118543 -9.46228e-05 5.45088e-07)
(0.118875 -9.6798e-05 2.83055e-06)
(0.119454 -8.82249e-05 2.77363e-06)
(0.119286 -8.51e-05 -1.11479e-06)
(0.11844 -0.000101392 -3.20145e-06)
(0.117751 -0.000118401 -3.29635e-06)
(0.117368 -0.00012732 -3.08301e-06)
(0.117118 -0.000135409 -2.57443e-06)
(0.116896 -0.000146629 -2.10788e-06)
(0.116674 -0.000160591 -1.85887e-06)
(0.116449 -0.000176862 -1.76766e-06)
(0.116216 -0.000195562 -1.75938e-06)
(0.115974 -0.000216832 -1.79938e-06)
(0.115718 -0.000240879 -1.87215e-06)
(0.115448 -0.000267991 -1.96861e-06)
(0.115161 -0.000298444 -2.0834e-06)
(0.114855 -0.000332526 -2.21293e-06)
(0.114529 -0.000370519 -2.35359e-06)
(0.114182 -0.000412861 -2.5041e-06)
(0.113812 -0.000459825 -2.66954e-06)
(0.113419 -0.000512266 -2.80592e-06)
(0.112997 -0.000569487 -3.13257e-06)
(0.112562 -0.00063352 -2.73952e-06)
(0.112058 -0.000708978 -3.19377e-06)
(0.111538 -0.000786892 -4.43694e-06)
(0.111032 -0.000872698 -4.44434e-06)
(0.112743 -3.81174e-05 -0.000492504)
(0.121894 -5.85366e-05 -4.55147e-05)
(0.120056 -5.29784e-05 1.28156e-05)
(0.118931 -4.84714e-05 2.54807e-06)
(0.118704 -4.6412e-05 -9.04488e-07)
(0.118608 -4.4752e-05 -6.89775e-07)
(0.118503 -4.314e-05 -4.20813e-07)
(0.118425 -4.18007e-05 -2.65203e-07)
(0.118392 -4.11045e-05 -6.76436e-08)
(0.118423 -4.16655e-05 2.66278e-07)
(0.118539 -4.15497e-05 1.03329e-06)
(0.118675 -3.70458e-05 1.01102e-06)
(0.118518 -3.47074e-05 -5.04718e-07)
(0.11809 -4.07628e-05 -1.84416e-06)
(0.117676 -4.7758e-05 -2.32642e-06)
(0.117367 -5.08412e-05 -2.33414e-06)
(0.117123 -5.28435e-05 -2.10926e-06)
(0.116897 -5.59207e-05 -1.88756e-06)
(0.116674 -6.0132e-05 -1.76541e-06)
(0.116447 -6.52125e-05 -1.72648e-06)
(0.116212 -7.11069e-05 -1.74328e-06)
(0.115967 -7.79008e-05 -1.79756e-06)
(0.115709 -8.56839e-05 -1.87817e-06)
(0.115435 -9.45287e-05 -1.98069e-06)
(0.115144 -0.000104476 -2.10036e-06)
(0.114835 -0.000115639 -2.23339e-06)
(0.114505 -0.000128186 -2.37802e-06)
(0.114154 -0.000142218 -2.53257e-06)
(0.113779 -0.00015783 -2.70135e-06)
(0.113381 -0.000175156 -2.83685e-06)
(0.112952 -0.000194475 -3.17957e-06)
(0.11251 -0.000215786 -2.77835e-06)
(0.111997 -0.000239805 -3.21005e-06)
(0.111466 -0.000265466 -4.46767e-06)
(0.110951 -0.000295275 -4.43912e-06)
(0.185628 -0.000822985 -0.000531062)
(0.187504 -0.00209203 -6.36638e-05)
(0.1865 -0.00211451 2.51536e-05)
(0.18576 -0.00181244 8.92495e-06)
(0.185527 -0.00155923 8.40406e-08)
(0.185431 -0.00136486 -7.96563e-07)
(0.185364 -0.00121528 -1.07929e-06)
(0.185333 -0.00110628 -2.18365e-06)
(0.185337 -0.00103833 -5.70915e-06)
(0.185436 -0.00100734 -1.33199e-05)
(0.18538 -0.000987479 -7.008e-06)
(0.185234 -0.00098601 1.2113e-05)
(0.185183 -0.00101799 1.53457e-05)
(0.18521 -0.0010708 6.4856e-06)
(0.185245 -0.0011466 1.40099e-06)
(0.185264 -0.00124649 7.15289e-07)
(0.185275 -0.00136637 9.6602e-07)
(0.185292 -0.00150346 1.04658e-06)
(0.185317 -0.00165729 1.01789e-06)
(0.185351 -0.0018281 9.8744e-07)
(0.185394 -0.00201593 9.69404e-07)
(0.185446 -0.0022205 9.52678e-07)
(0.185509 -0.00244128 9.33869e-07)
(0.185584 -0.00267765 9.10016e-07)
(0.185671 -0.00292848 8.76338e-07)
(0.185773 -0.00319315 8.67009e-07)
(0.185889 -0.00346881 6.80589e-07)
(0.186027 -0.00375644 1.20376e-06)
(0.186168 -0.00405507 1.90147e-06)
(0.186344 -0.00436 2.54803e-07)
(0.186548 -0.00466231 -2.49129e-06)
(0.186825 -0.00498812 -3.02343e-06)
(0.187012 -0.00530136 -2.88125e-06)
(0.187537 -0.0056252 6.0709e-07)
(0.187472 -0.00607132 2.3683e-05)
(0.186869 -0.000778479 -0.000544097)
(0.189705 -0.00198815 -6.38565e-05)
(0.189063 -0.00200328 2.68344e-05)
(0.188349 -0.00171222 9.32196e-06)
(0.188094 -0.0014769 9.28602e-08)
(0.187976 -0.00129772 -6.66551e-07)
(0.187881 -0.00115696 -7.79632e-07)
(0.187805 -0.00105092 -1.56399e-06)
(0.187743 -0.000979869 -3.51596e-06)
(0.187697 -0.000935137 -6.96199e-06)
(0.187574 -0.000913745 -4.0489e-06)
(0.187424 -0.000933475 5.79604e-06)
(0.187386 -0.000975909 8.94108e-06)
(0.187436 -0.00102365 5.10116e-06)
(0.18751 -0.00109361 2.37619e-06)
(0.187571 -0.00118778 1.72893e-06)
(0.187615 -0.00130082 1.68458e-06)
(0.187647 -0.00143142 1.65472e-06)
(0.187676 -0.00158007 1.61976e-06)
(0.187706 -0.00174709 1.60253e-06)
(0.187738 -0.00193256 1.59712e-06)
(0.187776 -0.00213639 1.59817e-06)
(0.187821 -0.00235829 1.60497e-06)
(0.187874 -0.00259788 1.6073e-06)
(0.187937 -0.00285453 1.58136e-06)
(0.188013 -0.00312762 1.59438e-06)
(0.188099 -0.00341609 1.36113e-06)
(0.188207 -0.00371875 1.97666e-06)
(0.188308 -0.00403406 3.18587e-06)
(0.18845 -0.00435907 1.61928e-06)
(0.188605 -0.00469826 -2.00247e-06)
(0.188826 -0.00503829 -2.72274e-06)
(0.188923 -0.00544497 -4.5897e-06)
(0.189239 -0.00574345 1.59098e-07)
(0.189128 -0.00644937 -8.89382e-06)
(0.187296 -0.00105654 -0.000546652)
(0.189896 -0.00204959 -6.92325e-05)
(0.189189 -0.00190145 2.46726e-05)
(0.188446 -0.00161018 9.23241e-06)
(0.188177 -0.00141266 1.00275e-07)
(0.188056 -0.00126021 -8.52956e-07)
(0.187959 -0.00113436 -1.13637e-06)
(0.187885 -0.00103525 -2.3032e-06)
(0.187836 -0.000961122 -6.01008e-06)
(0.187864 -0.00091583 -1.74825e-05)
(0.187757 -0.000912716 -1.71333e-05)
(0.187476 -0.000959476 1.12149e-05)
(0.187377 -0.0010256 2.56279e-05)
(0.187419 -0.00108964 1.25685e-05)
(0.18751 -0.00116427 2.43441e-06)
(0.187571 -0.00125327 4.91314e-07)
(0.187595 -0.00135875 8.48458e-07)
(0.187605 -0.00148391 1.03047e-06)
(0.187611 -0.00162954 1.00975e-06)
(0.18762 -0.00179504 9.72511e-07)
(0.187632 -0.00197979 9.48287e-07)
(0.187649 -0.00218346 9.26192e-07)
(0.187672 -0.00240579 8.98685e-07)
(0.187702 -0.00264639 8.66154e-07)
(0.187742 -0.00290479 8.18764e-07)
(0.187793 -0.00318026 8.26089e-07)
(0.187854 -0.00347262 5.17304e-07)
(0.187936 -0.00377891 1.22749e-06)
(0.188009 -0.0041002 2.83749e-06)
(0.188127 -0.00443254 1.38137e-06)
(0.188269 -0.00477783 -2.67605e-06)
(0.188466 -0.00510514 -3.60614e-06)
(0.18861 -0.00548106 -4.85802e-06)
(0.188821 -0.00574445 -6.10332e-07)
(0.188967 -0.00619659 -7.79087e-06)
(0.187744 -0.000957637 -0.000558333)
(0.190013 -0.00188234 -6.75484e-05)
(0.189209 -0.0017684 2.78462e-05)
(0.188491 -0.0015114 9.97059e-06)
(0.188243 -0.00133412 3.38846e-08)
(0.188124 -0.00119625 -9.23643e-07)
(0.188023 -0.00108142 -1.17661e-06)
(0.187948 -0.000990722 -2.3962e-06)
(0.187901 -0.000924715 -6.09424e-06)