/*--------------------------------*- C++ -*----------------------------------*\
  =========                 |
  \\      /  F ield         | OpenFOAM: The Open Source CFD Toolbox
   \\    /   O peration     | Website:  https://openfoam.org
    \\  /    A nd           | Version:  6
     \\/     M anipulation  |
\*---------------------------------------------------------------------------*/
FoamFile
{
    version     2.0;
    format      ascii;
    class       volVectorField;
    location    "19";
    object      wallShearStress;
}
// * * * * * * * * * * * * * * * * * * * * * * * * * * * * * * * * * * * * * //

dimensions      [0 2 -2 0 0 0 0];

internalField   uniform (0 0 0);

boundaryField
{
    inlet
    {
        type            calculated;
        value           uniform (0 0 0);
    }
    outlet
    {
        type            calculated;
        value           uniform (0 0 0);
    }
    roughCylinder
    {
        type            calculated;
        value           nonuniform List<vector> 
5120
(
(-0.000241097 -0.00034209 -0.000172)
(-0.000295459 -0.000444219 -3.95272e-05)
(-0.000328596 -0.000535033 1.47567e-06)
(-0.000373568 -0.000621559 5.51054e-05)
(-0.000429242 -0.000696041 0.000116358)
(-0.000492143 -0.00075415 0.000177412)
(-0.000558696 -0.000793428 0.000233989)
(-0.000624308 -0.000814521 0.000283434)
(-0.000685115 -0.000820129 0.000323798)
(-0.000739492 -0.000815626 0.000354701)
(-0.000787935 -0.000809511 0.000378026)
(-0.000830282 -0.000805824 0.000395099)
(-0.000864305 -0.000805284 0.000404996)
(-0.000893044 -0.000809808 0.00040869)
(-0.000917686 -0.00081875 0.000407253)
(-0.000939551 -0.000831395 0.000401686)
(-0.00095997 -0.000847011 0.00039299)
(-0.000980094 -0.000864991 0.000381997)
(-0.00100079 -0.000884902 0.000369323)
(-0.00102264 -0.000906467 0.000355349)
(-0.00104596 -0.000929525 0.000340252)
(-0.00107084 -0.000953956 0.000324048)
(-0.00109722 -0.000979631 0.000306638)
(-0.00112495 -0.00100639 0.000287842)
(-0.00115378 -0.00103399 0.000267407)
(-0.00118337 -0.00106212 0.000244995)
(-0.00121332 -0.00109033 0.000220142)
(-0.00124304 -0.00111799 0.000192182)
(-0.00127172 -0.00114421 0.000160081)
(-0.00129782 -0.00116759 0.000122393)
(-0.00131882 -0.00118647 7.71839e-05)
(-0.00133062 -0.00119757 2.60772e-05)
(-0.000258857 -0.000330884 -0.000162417)
(-0.000316304 -0.000430359 -4.20033e-05)
(-0.00035193 -0.000519967 -4.20166e-06)
(-0.000398921 -0.000606305 4.61678e-05)
(-0.000456206 -0.000681834 0.000104953)
(-0.000520582 -0.00074169 0.000164351)
(-0.000588462 -0.000783039 0.000219862)
(-0.000655526 -0.00080647 0.000268736)
(-0.000718566 -0.000815142 0.000309195)
(-0.000776391 -0.000814922 0.00034129)
(-0.000828821 -0.000812425 0.000366528)
(-0.000874679 -0.000810044 0.00038539)
(-0.000911066 -0.000808042 0.000396175)
(-0.000941261 -0.00081154 0.000400379)
(-0.000967359 -0.000819823 0.000399227)
(-0.000990595 -0.000832134 0.00039387)
(-0.00101237 -0.000847632 0.000385336)
(-0.00103386 -0.000865624 0.000374507)
(-0.00105596 -0.000885612 0.000362027)
(-0.00107926 -0.000907276 0.000348288)
(-0.00110408 -0.000930429 0.000333478)
(-0.0011305 -0.000954934 0.000317614)
(-0.00115848 -0.000980659 0.000300601)
(-0.00118782 -0.00100743 0.000282249)
(-0.00121827 -0.00103502 0.000262302)
(-0.00124949 -0.0010631 0.000240413)
(-0.00128102 -0.00109123 0.000216121)
(-0.00131228 -0.00111878 0.000188757)
(-0.00134239 -0.00114488 0.000157304)
(-0.00136975 -0.00116811 0.000120314)
(-0.00139177 -0.00118689 7.58839e-05)
(-0.00140414 -0.0011979 2.56385e-05)
(-0.000276537 -0.000314809 -0.000146052)
(-0.000336738 -0.00041135 -4.4987e-05)
(-0.000374638 -0.000499016 -1.05268e-05)
(-0.000423256 -0.000584509 3.63843e-05)
(-0.000481861 -0.000660574 9.24136e-05)
(-0.000547564 -0.00072196 0.000149917)
(-0.000616849 -0.000765576 0.0002043)
(-0.000685739 -0.000792024 0.000252789)
(-0.000751529 -0.000804648 0.000293789)
(-0.000812992 -0.000808874 0.00032736)
(-0.000869153 -0.000809612 0.000354288)
(-0.000918081 -0.000808509 0.000374359)
(-0.000957724 -0.000806102 0.000386256)
(-0.000989482 -0.000808311 0.000390966)
(-0.00101709 -0.000815765 0.000390104)
(-0.0010418 -0.000827581 0.000384996)
(-0.00106501 -0.000842809 0.000376681)
(-0.00108794 -0.000860659 0.000366074)
(-0.00111149 -0.000880566 0.000353839)
(-0.00113629 -0.000902178 0.000340392)
(-0.00116264 -0.000925266 0.000325929)
(-0.00119064 -0.000949682 0.000310467)
(-0.00122022 -0.000975283 0.000293906)
(-0.00125119 -0.00100189 0.000276057)
(-0.00128326 -0.00102927 0.000256654)
(-0.00131607 -0.00105711 0.000235349)
(-0.00134917 -0.00108496 0.000211676)
(-0.00138194 -0.00111222 0.000184967)
(-0.00141346 -0.00113801 0.000154228)
(-0.00144206 -0.00116093 0.00011801)
(-0.00146506 -0.00117946 7.44435e-05)
(-0.00147796 -0.00119029 2.51537e-05)
(-0.000292124 -0.000294808 -0.000125427)
(-0.000354676 -0.000387916 -4.80372e-05)
(-0.000394425 -0.000472929 -1.70959e-05)
(-0.000444111 -0.000556959 2.61658e-05)
(-0.000503622 -0.000633095 7.91637e-05)
(-0.000570465 -0.000695861 0.000134514)
(-0.000641266 -0.000741973 0.000187628)
(-0.000712334 -0.000771973 0.000235758)
(-0.000781156 -0.00078904 0.000277438)
(-0.000846213 -0.000797681 0.000312506)
(-0.000905927 -0.000801454 0.000341)
(-0.00095813 -0.000801854 0.000362183)
(-0.00100146 -0.000800203 0.000375366)
(-0.00103535 -0.000800745 0.00038064)
(-0.00106458 -0.000807274 0.00038016)
(-0.00109087 -0.000818444 0.00037536)
(-0.00111561 -0.000833261 0.000367329)
(-0.00114004 -0.000850847 0.000357005)
(-0.00116511 -0.000870572 0.000345079)
(-0.00119142 -0.000892013 0.000331985)
(-0.00121932 -0.000914913 0.000317917)
(-0.00124888 -0.000939112 0.000302907)
(-0.00128002 -0.000964445 0.000286848)
(-0.00131256 -0.000990739 0.000269545)
(-0.00134618 -0.00101776 0.000250728)
(-0.00138051 -0.00104519 0.000230042)
(-0.00141508 -0.00107261 0.000207021)
(-0.00144927 -0.0010994 0.000181)
(-0.00148211 -0.00112474 0.000151011)
(-0.00151183 -0.00114723 0.0001156)
(-0.00153577 -0.0011654 7.29392e-05)
(-0.00154915 -0.00117599 2.46493e-05)
(-0.000304883 -0.000271488 -0.000102674)
(-0.000369374 -0.000360626 -5.08349e-05)
(-0.000410481 -0.000442358 -2.35869e-05)
(-0.000460671 -0.000524333 1.58492e-05)
(-0.0005207 -0.000600078 6.55346e-05)
(-0.000588548 -0.000664077 0.000118425)
(-0.000661008 -0.000712866 0.000170064)
(-0.000734534 -0.000746711 0.000217771)
(-0.000806519 -0.000768254 0.000260083)
(-0.000875039 -0.00078101 0.000296493)
(-0.000938151 -0.000787595 0.000326423)
(-0.000993727 -0.000789583 0.000348777)
(-0.00104044 -0.000788901 0.000363029)
(-0.00107786 -0.000788675 0.000369296)
(-0.00110893 -0.000793896 0.000369372)
(-0.00113695 -0.000804182 0.000364972)
(-0.00116332 -0.000818429 0.000357315)
(-0.00118933 -0.000835604 0.000347356)
(-0.00121592 -0.000854986 0.000335807)
(-0.00124375 -0.000876106 0.00032312)
(-0.00127316 -0.000898674 0.000309511)
(-0.00130423 -0.000922497 0.000295004)
(-0.00133688 -0.000947408 0.000279495)
(-0.0013709 -0.000973228 0.000262783)
(-0.00140598 -0.000999718 0.000244591)
(-0.00144172 -0.00102658 0.00022456)
(-0.00147766 -0.00105338 0.000202221)
(-0.00151313 -0.00107956 0.000176915)
(-0.00154717 -0.00110428 0.0001477)
(-0.00157792 -0.00112617 0.00011312)
(-0.00160269 -0.00114388 7.13928e-05)
(-0.00161648 -0.00115417 2.41333e-05)
(-0.000314456 -0.000245906 -7.9322e-05)
(-0.00038039 -0.000330539 -5.32128e-05)
(-0.000422306 -0.000408429 -2.97823e-05)
(-0.000472409 -0.000487777 5.64818e-06)
(-0.000532511 -0.000562654 5.17123e-05)
(-0.000601162 -0.000627665 0.00010179)
(-0.0006753 -0.000679141 0.000151682)
(-0.000751396 -0.000716846 0.000198805)
(-0.000826613 -0.000742672 0.000241603)
(-0.000898605 -0.000759193 0.000279164)
(-0.000965163 -0.000768411 0.000310409)
(-0.00102425 -0.000772021 0.000333983)
(-0.00107455 -0.000772368 0.000349274)
(-0.00111602 -0.000772401 0.00035676)
(-0.00114976 -0.000775898 0.000357617)
(-0.00117965 -0.000785188 0.000353798)
(-0.00120779 -0.000798573 0.000346608)
(-0.00123544 -0.00081511 0.000337104)
(-0.00126362 -0.000833996 0.000326022)
(-0.00129299 -0.00085465 0.000313825)
(-0.00132389 -0.000876729 0.000300736)
(-0.00135642 -0.000900019 0.00028679)
(-0.0013905 -0.000924341 0.000271882)
(-0.0014259 -0.000949517 0.000255804)
(-0.0014623 -0.000975304 0.000238275)
(-0.00149932 -0.00100141 0.000218928)
(-0.00153646 -0.00102743 0.000197296)
(-0.00157307 -0.00105282 0.000172723)
(-0.00160817 -0.00107677 0.000144309)
(-0.00163981 -0.00109793 0.00011058)
(-0.00166531 -0.00111506 6.9812e-05)
(-0.00167945 -0.00112499 2.36081e-05)
(-0.000320013 -0.000218647 -5.6381e-05)
(-0.000386871 -0.000298318 -5.50472e-05)
(-0.000429022 -0.00037184 -3.5504e-05)
(-0.000478414 -0.000447994 -4.26485e-06)
(-0.000538073 -0.000521498 3.78319e-05)
(-0.000607242 -0.000587225 8.46956e-05)
(-0.000683015 -0.000641297 0.000132497)
(-0.000761755 -0.000682788 0.000178785)
(-0.000840265 -0.000712665 0.000221842)
(-0.000915787 -0.000732632 0.000260332)
(-0.000985936 -0.00074433 0.000292758)
(-0.00104871 -0.000749614 0.000317582)
(-0.00110283 -0.000751033 0.00033406)
(-0.00114828 -0.000751693 0.000342711)
(-0.0011862 -0.000754593 0.000344826)
(-0.00121827 -0.000761904 0.000341725)
(-0.00124835 -0.000774298 0.000335168)
(-0.00127782 -0.000790035 0.000326241)
(-0.00130762 -0.000808196 0.000315718)
(-0.00133851 -0.000828185 0.000304085)
(-0.00137088 -0.000849618 0.000291592)
(-0.00140482 -0.00087223 0.000278272)
(-0.00144024 -0.000895823 0.000264021)
(-0.00147691 -0.00092021 0.000248627)
(-0.00151451 -0.000945154 0.0002318)
(-0.00155265 -0.000970375 0.000213171)
(-0.00159084 -0.000995482 0.000192269)
(-0.00162845 -0.00101995 0.000168452)
(-0.00166444 -0.00104298 0.000140853)
(-0.00169683 -0.00106329 0.000107994)
(-0.00172295 -0.00107973 6.82049e-05)
(-0.00173733 -0.00108925 2.30773e-05)
(-0.000321284 -0.000190529 -3.4716e-05)
(-0.00038843 -0.000264805 -5.62859e-05)
(-0.000430214 -0.000333501 -4.06259e-05)
(-0.000478228 -0.000405907 -1.37159e-05)
(-0.00053682 -0.000477459 2.40877e-05)
(-0.000606066 -0.000543454 6.73064e-05)
(-0.000683221 -0.000599794 0.000112591)
(-0.000764454 -0.000644764 0.00015766)
(-0.00084622 -0.000678382 0.000200646)
(-0.000925427 -0.000701593 0.000239812)
(-0.000999421 -0.000715731 0.000273293)
(-0.00106613 -0.000722728 0.000299379)
(-0.00112435 -0.000725339 0.000317219)
(-0.00117391 -0.00072666 0.000327182)
(-0.00121584 -0.000729551 0.000330537)
(-0.00125184 -0.000735731 0.000328655)
(-0.00128411 -0.000746301 0.000322904)
(-0.0013155 -0.00076069 0.000314676)
(-0.00134705 -0.000777983 0.000304857)
(-0.00137955 -0.000797177 0.0002939)
(-0.00141336 -0.000817802 0.000282086)
(-0.00144862 -0.000839581 0.000269462)
(-0.00148526 -0.000862293 0.000255926)
(-0.00152305 -0.000885739 0.000241264)
(-0.00156166 -0.00090969 0.000225178)
(-0.00160073 -0.000933868 0.000207295)
(-0.00163976 -0.000957909 0.000187145)
(-0.00167811 -0.000981378 0.000164098)
(-0.00171484 -0.00100343 0.000137337)
(-0.00174779 -0.00102281 0.000105362)
(-0.00177441 -0.0010385 6.65748e-05)
(-0.00178893 -0.00104763 2.25436e-05)
(-0.000317346 -0.000161838 -1.48769e-05)
(-0.000384213 -0.000230426 -5.68095e-05)
(-0.000425022 -0.000293864 -4.49937e-05)
(-0.000470942 -0.000361958 -2.25045e-05)
(-0.000527733 -0.00043089 1.06897e-05)
(-0.000596459 -0.000496553 4.9783e-05)
(-0.000674651 -0.000554748 9.20415e-05)
(-0.00075828 -0.000602918 0.000135426)
(-0.000843347 -0.00064006 0.000177925)
(-0.00092632 -0.000666333 0.00021744)
(-0.00100437 -0.000682844 0.000251803)
(-0.00107536 -0.000691641 0.000279148)
(-0.00113793 -0.000695497 0.000298475)
(-0.00119187 -0.000697543 0.000309971)
(-0.00123791 -0.000700495 0.000314721)
(-0.00127778 -0.000706168 0.000314143)
(-0.00131357 -0.000715491 0.000309587)
(-0.00134775 -0.000728618 0.000302452)
(-0.00138108 -0.000744524 0.000293466)
(-0.00141513 -0.000762577 0.000283281)
(-0.00145035 -0.000782214 0.000272244)
(-0.00148687 -0.000803037 0.000260401)
(-0.0015246 -0.000824796 0.00024765)
(-0.00156335 -0.000847265 0.000233779)
(-0.00160279 -0.000870211 0.000218479)
(-0.00164258 -0.000893356 0.000201374)
(-0.00168222 -0.000916342 0.000181996)
(-0.00172102 -0.000938685 0.000159716)
(-0.00175814 -0.000959625 0.000133791)
(-0.00179143 -0.00097798 0.000102706)
(-0.00181836 -0.000992845 6.49322e-05)
(-0.00183275 -0.0010015 2.2009e-05)
(-0.000308474 -0.000133688 2.5378e-06)
(-0.00037411 -0.000195879 -5.68216e-05)
(-0.000413341 -0.000254026 -4.85205e-05)
(-0.000456513 -0.000317241 -3.04302e-05)
(-0.000510666 -0.000382835 -2.07245e-06)
(-0.000578102 -0.000447421 3.24444e-05)
(-0.000656756 -0.000506842 7.109e-05)
(-0.000742384 -0.00055771 0.000112187)
(-0.00083059 -0.000598044 0.000153667)
(-0.000917553 -0.000627345 0.00019317)
(-0.00100004 -0.000646328 0.000228239)
(-0.00107559 -0.000656909 0.000256785)
(-0.00114286 -0.000662046 0.000277679)
(-0.00120138 -0.000664802 0.000290886)
(-0.00125182 -0.000667881 0.000297289)
(-0.00129557 -0.00067307 0.00029818)
(-0.00133484 -0.000681518 0.000294998)
(-0.0013718 -0.00069349 0.000289083)
(-0.00140752 -0.000708083 0.000281188)
(-0.00144347 -0.000724948 0.000272007)
(-0.00148012 -0.000743434 0.000261891)
(-0.00151774 -0.000763128 0.000250923)
(-0.0015563 -0.000783746 0.000239023)
(-0.00159564 -0.000805049 0.000225983)
(-0.00163545 -0.000826794 0.000211494)
(-0.00167546 -0.000848713 0.000195182)
(-0.0017152 -0.000870446 0.000176578)
(-0.00175411 -0.000891465 0.000155081)
(-0.00179139 -0.000911176 0.000130041)
(-0.00182475 -0.00092841 9.9891e-05)
(-0.00185181 -0.000942379 6.31922e-05)
(-0.00186595 -0.000950451 2.14454e-05)
(-0.00029193 -0.000105657 1.71205e-05)
(-0.000358223 -0.000162068 -5.60128e-05)
(-0.000394502 -0.000214411 -5.11728e-05)
(-0.000434061 -0.000272168 -3.72613e-05)
(-0.000484607 -0.000333616 -1.38684e-05)
(-0.000549744 -0.000396187 1.56205e-05)
(-0.000628096 -0.000456053 4.99821e-05)
(-0.000715398 -0.000509198 8.8075e-05)
(-0.000806764 -0.000552599 0.000127912)
(-0.000897691 -0.000584807 0.000166898)
(-0.000984697 -0.000606216 0.000202356)
(-0.00106531 -0.000618772 0.000232048)
(-0.00113768 -0.000625228 0.000254568)
(-0.00120124 -0.000628733 0.000269663)
(-0.00125632 -0.000631909 0.000277946)
(-0.00130438 -0.000636725 0.000280613)
(-0.00134731 -0.000644342 0.000279027)
(-0.00138725 -0.00065519 0.000274519)
(-0.00142532 -0.000668487 0.000267878)
(-0.00146304 -0.000684039 0.000259842)
(-0.00150107 -0.000701231 0.000250786)
(-0.00153969 -0.000719637 0.000240813)
(-0.00157893 -0.000738938 0.000229858)
(-0.00161865 -0.000758892 0.000217726)
(-0.00165861 -0.000779259 0.000204108)
(-0.00169857 -0.000799778 0.000188637)
(-0.00173815 -0.000820094 0.000170842)
(-0.001777 -0.000839727 0.000150177)
(-0.00181413 -0.000858085 0.000126069)
(-0.0018473 -0.000874128 9.6907e-05)
(-0.00187429 -0.000887129 6.13473e-05)
(-0.00188805 -0.000894572 2.08508e-05)
(-0.000268818 -7.88117e-05 2.88331e-05)
(-0.00033621 -0.000130013 -5.43775e-05)
(-0.000369232 -0.000176182 -5.28497e-05)
(-0.00040421 -0.000228076 -4.27912e-05)
(-0.000450051 -0.000284548 -2.42983e-05)
(-0.000511718 -0.000344053 -1.67676e-07)
(-0.000588796 -0.000403427 2.9234e-05)
(-0.000677014 -0.00045814 6.34829e-05)
(-0.000771041 -0.000504188 0.000100879)
(-0.000866202 -0.000539456 0.000138806)
(-0.000958372 -0.000563648 0.000174367)
(-0.00104422 -0.000578175 0.000205015)
(-0.00112204 -0.000585962 0.000229166)
(-0.00119084 -0.000590069 0.00024624)
(-0.00125098 -0.000593311 0.000256634)
(-0.00130344 -0.000597601 0.000261295)
(-0.00135023 -0.000604331 0.000261556)
(-0.00139322 -0.000613934 0.000258664)
(-0.0014338 -0.000625894 0.000253493)
(-0.00147346 -0.000640074 0.000246792)
(-0.00151283 -0.000655851 0.000238941)
(-0.00155232 -0.000672812 0.000230082)
(-0.00159204 -0.000690657 0.000220172)
(-0.00163191 -0.000709121 0.00020903)
(-0.0016717 -0.000727968 0.000196344)
(-0.00171128 -0.000746944 0.000181761)
(-0.00175034 -0.000765719 0.000164808)
(-0.00178868 -0.000783802 0.000144998)
(-0.00182539 -0.000800745 0.000121877)
(-0.00185807 -0.000815516 9.37513e-05)
(-0.00188476 -0.000827491 5.93967e-05)
(-0.00189799 -0.000834273 2.0226e-05)
(-0.000238875 -5.40366e-05 3.74887e-05)
(-0.000306615 -9.97128e-05 -5.17496e-05)
(-0.00033658 -0.000139753 -5.33054e-05)
(-0.0003664 -0.000185462 -4.66965e-05)
(-0.000406442 -0.000236123 -3.28914e-05)
(-0.000463196 -0.000291316 -1.43136e-05)
(-0.000537532 -0.000348911 9.43922e-06)
(-0.00062586 -0.000404464 3.88971e-05)
(-0.000722515 -0.000453091 7.29419e-05)
(-0.000821503 -0.000491242 0.000108994)
(-0.00091835 -0.00051805 0.000144041)
(-0.00101006 -0.00053495 0.000175434)
(-0.00109385 -0.000544272 0.000201182)
(-0.00116864 -0.000549173 0.000220403)
(-0.00123417 -0.000552383 0.000233099)
(-0.00129167 -0.000556201 0.000240078)
(-0.00134266 -0.000561968 0.000242474)
(-0.00138908 -0.000570295 0.000241495)
(-0.00143224 -0.000580787 0.000238013)
(-0.0014737 -0.000593395 0.000232809)
(-0.00151435 -0.000607612 0.000226325)
(-0.0015546 -0.000623013 0.00021872)
(-0.00159461 -0.000639282 0.000209967)
(-0.00163436 -0.000656154 0.000199905)
(-0.00167369 -0.00067339 0.00018822)
(-0.00171258 -0.000690747 0.000174575)
(-0.00175077 -0.000707911 0.000158497)
(-0.00178843 -0.000724454 0.000139586)
(-0.00182438 -0.000739909 0.000117494)
(-0.00185629 -0.000753389 9.04475e-05)
(-0.00188248 -0.000764309 5.73572e-05)
(-0.001895 -0.000770411 1.9578e-05)
(-0.000203663 -3.25105e-05 4.2953e-05)
(-0.000270302 -7.21183e-05 -4.81822e-05)
(-0.000297644 -0.00010631 -5.25623e-05)
(-0.000322112 -0.000145708 -4.8876e-05)
(-0.000355287 -0.000189793 -3.92636e-05)
(-0.000405522 -0.000239391 -2.61046e-05)
(-0.000475727 -0.000293961 -8.50095e-06)
(-0.000562728 -0.000349225 1.51682e-05)
(-0.000660528 -0.000399553 4.47271e-05)
(-0.000763619 -0.000440923 7.80561e-05)
(-0.000866424 -0.000471243 0.000112095)
(-0.000963921 -0.00049058 0.000143791)
(-0.00105391 -0.000501554 0.000170963)
(-0.0011346 -0.000507095 0.000192279)
(-0.001206 -0.000510298 0.000207474)
(-0.00126849 -0.000513362 0.000216953)
(-0.00132388 -0.000517999 0.000221748)
(-0.00137374 -0.00052483 0.000222924)
(-0.0014197 -0.000533758 0.000221399)
(-0.00146326 -0.000544769 0.000217949)
(-0.00150518 -0.000557319 0.000213016)
(-0.00154603 -0.000571046 0.000206809)
(-0.00158609 -0.00058564 0.000199322)
(-0.00162542 -0.000600834 0.000190423)
(-0.00166389 -0.000616389 0.000179796)
(-0.00170165 -0.000632065 0.000167127)
(-0.00173854 -0.000647565 0.000151941)
(-0.00177499 -0.000662453 0.000133932)
(-0.00180984 -0.000676411 0.000112916)
(-0.0018406 -0.000688572 8.69873e-05)
(-0.00186605 -0.000698411 5.52233e-05)
(-0.00187769 -0.000703844 1.89064e-05)
(-0.000163181 -1.48938e-05 4.49758e-05)
(-0.000226669 -4.77483e-05 -4.33924e-05)
(-0.000251769 -7.62211e-05 -5.0314e-05)
(-0.000271257 -0.000109323 -4.90262e-05)
(-0.000297281 -0.000146438 -4.28945e-05)
(-0.000339634 -0.000189303 -3.47533e-05)
(-0.000402752 -0.000238624 -2.35444e-05)
(-0.000486626 -0.000292208 -6.54772e-06)
(-0.000585769 -0.000344257 1.7301e-05)
(-0.000691629 -0.000388312 4.66178e-05)
(-0.000798269 -0.000421415 7.85258e-05)
(-0.000902213 -0.000443926 0.000109983)
(-0.000998914 -0.00045707 0.000138276)
(-0.00108668 -0.000463884 0.000161739)
(-0.00116426 -0.00046716 0.000179527)
(-0.00123267 -0.000469702 0.00019183)
(-0.00129289 -0.000473165 0.000199323)
(-0.00134674 -0.000478504 0.000202995)
(-0.00139558 -0.00048572 0.000203678)
(-0.00144096 -0.000494891 0.000202163)
(-0.00148403 -0.000505652 0.000198968)
(-0.00152536 -0.000517631 0.000194316)
(-0.00156526 -0.000530506 0.00018822)
(-0.00160386 -0.000543992 0.000180577)
(-0.00164114 -0.000557867 0.000171073)
(-0.00167741 -0.000571874 0.000159423)
(-0.0017126 -0.000585735 0.000145143)
(-0.00174772 -0.000599065 0.000128069)
(-0.00178113 -0.000611541 0.000108171)
(-0.00181043 -0.000622415 8.33949e-05)
(-0.00183494 -0.000631203 5.30116e-05)
(-0.00184548 -0.000635992 1.82179e-05)
(-0.000119672 -1.47252e-06 4.3964e-05)
(-0.000177756 -2.72096e-05 -3.75504e-05)
(-0.000201356 -5.01357e-05 -4.67506e-05)
(-0.000216656 -7.70804e-05 -4.75011e-05)
(-0.000234441 -0.000106675 -4.41026e-05)
(-0.000265311 -0.000141179 -3.94216e-05)
(-0.000322213 -0.000184818 -3.38497e-05)
(-0.000401136 -0.000234867 -2.46826e-05)
(-0.000496981 -0.00028617 -7.98236e-06)
(-0.000605754 -0.000333476 1.60715e-05)
(-0.000719177 -0.000371392 4.48864e-05)
(-0.000828844 -0.000397201 7.51827e-05)
(-0.000932249 -0.000412894 0.000104091)
(-0.00102617 -0.00042083 0.000129317)
(-0.00111033 -0.000424448 0.000149718)
(-0.00118417 -0.000426241 0.000164876)
(-0.00124931 -0.000428457 0.000175279)
(-0.00130693 -0.000432083 0.000181649)
(-0.00135882 -0.000437517 0.000184815)
(-0.00140649 -0.000444905 0.000185533)
(-0.00145075 -0.000453837 0.000184284)
(-0.00149236 -0.000464013 0.000181344)
(-0.00153176 -0.000475123 0.000176746)
(-0.00156928 -0.000486902 0.000170444)
(-0.00160487 -0.000499104 0.00016211)
(-0.00163913 -0.000511466 0.0001515)
(-0.00167214 -0.000523724 0.000138122)
(-0.00170527 -0.000535443 0.000121966)
(-0.00173681 -0.000546462 0.000103229)
(-0.00176422 -0.000556088 7.96415e-05)
(-0.00178749 -0.000563834 5.07023e-05)
(-0.00179675 -0.000568045 1.75072e-05)
(-7.49565e-05 6.63027e-06 3.98848e-05)
(-0.000125104 -1.16176e-05 -2.98772e-05)
(-0.000146485 -2.86862e-05 -4.07309e-05)
(-0.000158615 -4.9621e-05 -4.19581e-05)
(-0.000173243 -7.15109e-05 -3.74842e-05)
(-0.000204548 -9.72737e-05 -3.88822e-05)
(-0.000238888 -0.000130519 -4.30688e-05)
(-0.000304821 -0.000176218 -3.8626e-05)
(-0.000400422 -0.000228297 -2.90856e-05)
(-0.000508154 -0.000276787 -1.21953e-05)
(-0.000621796 -0.000317042 1.18926e-05)
(-0.000738037 -0.000347496 3.99056e-05)
(-0.000848262 -0.000366631 6.85083e-05)
(-0.000950207 -0.000377146 9.51831e-05)
(-0.001041 -0.000381567 0.000117971)
(-0.00112155 -0.000383325 0.00013615)
(-0.00119204 -0.000384515 0.000149647)
(-0.00125421 -0.000386666 0.000159023)
(-0.00130923 -0.000390292 0.000164908)
(-0.00135862 -0.000395682 0.00016801)
(-0.00140382 -0.000402715 0.00016889)
(-0.00144551 -0.000411078 0.00016782)
(-0.00148421 -0.000420479 0.00016485)
(-0.00152028 -0.000430598 0.000159978)
(-0.00155381 -0.00044122 0.000152873)
(-0.0015857 -0.000452058 0.00014334)
(-0.00161606 -0.000462825 0.000130854)
(-0.00164717 -0.000473107 0.000115641)
(-0.00167659 -0.000482797 9.81206e-05)
(-0.00170181 -0.000491277 7.57524e-05)
(-0.00172364 -0.000498044 4.83143e-05)
(-0.00173136 -0.000501732 1.67817e-05)
(-3.5168e-05 1.10373e-05 3.32143e-05)
(-7.23369e-05 -8.05561e-07 -2.22392e-05)
(-9.37465e-05 -1.25684e-05 -3.17025e-05)
(-0.000106986 -2.71336e-05 -3.87979e-05)
(-0.000112134 -4.40354e-05 -4.84278e-05)
(-0.000111115 -7.335e-05 -3.71802e-05)
(-0.000156929 -9.31189e-05 -2.51541e-05)
(-0.000221358 -0.000122485 -3.92847e-05)
(-0.000290112 -0.000164078 -4.33176e-05)
(-0.00039789 -0.000216897 -3.45218e-05)
(-0.000519398 -0.000263613 -1.76316e-05)
(-0.000638704 -0.00029804 6.07087e-06)
(-0.000755365 -0.000321488 3.33521e-05)
(-0.000862649 -0.000334323 6.0537e-05)
(-0.000960267 -0.000340283 8.53364e-05)
(-0.00104605 -0.000341938 0.00010619)
(-0.00112159 -0.000342291 0.000122754)
(-0.00118753 -0.000342901 0.000135165)
(-0.00124565 -0.000344799 0.000143953)
(-0.00129746 -0.000348453 0.000149732)
(-0.00134364 -0.000353672 0.000152943)
(-0.00138519 -0.000360272 0.000153892)
(-0.0014227 -0.000367993 0.000152636)
(-0.00145691 -0.000376539 0.000149266)
(-0.00148779 -0.000385676 0.00014342)
(-0.00151665 -0.000395069 0.00013496)
(-0.00154384 -0.000404474 0.00012334)
(-0.00157221 -0.000413307 0.000109036)
(-0.00159887 -0.000421713 9.27736e-05)
(-0.00162141 -0.000429125 7.16644e-05)
(-0.00164153 -0.000434972 4.58061e-05)
(-0.00164754 -0.000438245 1.60291e-05)
(-1.39738e-05 9.78142e-06 2.29459e-05)
(-2.37166e-05 9.64041e-07 -1.11093e-05)
(-3.08703e-05 -1.69233e-06 -1.84331e-05)
(-3.83047e-05 -9.73499e-06 -2.75404e-05)
(-4.68956e-05 -2.42948e-05 -3.64493e-05)
(-3.41615e-05 -3.26363e-05 -2.2893e-05)
(-5.78449e-05 -4.28121e-05 -1.95913e-05)
(-0.000111101 -8.19559e-05 -2.68339e-05)
(-0.000203883 -0.000111053 -3.04331e-05)
(-0.000285897 -0.00014939 -5.04028e-05)
(-0.000393974 -0.000201554 -4.16402e-05)
(-0.000521295 -0.000243648 -2.36816e-05)
(-0.000643535 -0.000272141 -1.28656e-07)
(-0.00075934 -0.000290137 2.63538e-05)
(-0.000862921 -0.000298517 5.2187e-05)
(-0.000955776 -0.00030163 7.5404e-05)
(-0.00103676 -0.000301884 9.48559e-05)
(-0.0011075 -0.000301658 0.000110403)
(-0.00116876 -0.000302097 0.0001222)
(-0.00122187 -0.000303919 0.000130688)
(-0.00126856 -0.000307384 0.000136346)
(-0.00130961 -0.000312327 0.00013944)
(-0.00134577 -0.000318546 0.000140008)
(-0.0013777 -0.000325661 0.00013821)
(-0.00140556 -0.000333502 0.00013367)
(-0.00143111 -0.000341668 0.000126309)
(-0.00145462 -0.000349864 0.000115517)
(-0.00148036 -0.000357478 0.000102144)
(-0.0015043 -0.000364842 8.72269e-05)
(-0.00152391 -0.000371342 6.74115e-05)
(-0.0015421 -0.000376348 4.31999e-05)
(-0.00154611 -0.000379297 1.52577e-05)
(1.03538e-05 8.51364e-06 2.18008e-05)
(3.01903e-06 4.50912e-06 -8.17494e-06)
(-3.60986e-06 8.93631e-07 -1.65665e-05)
(-8.95867e-06 -5.14459e-06 -2.05269e-05)
(-1.96358e-05 -1.52443e-05 -2.0189e-05)
(-2.61316e-05 -6.80776e-06 -2.1607e-05)
(-2.90569e-05 -2.06167e-05 -2.86721e-05)
(-5.23322e-05 -5.15736e-05 -3.03716e-05)
(-6.51868e-05 -5.18763e-05 -1.65903e-05)
(-0.00022138 -0.000106997 -3.48183e-05)
(-0.00028967 -0.000139648 -5.478e-05)
(-0.000404062 -0.000187566 -4.96357e-05)
(-0.000530805 -0.000224736 -3.00774e-05)
(-0.000648252 -0.000246564 -5.48258e-06)
(-0.000758056 -0.00025879 2.0406e-05)
(-0.000854525 -0.000263274 4.49258e-05)
(-0.000939835 -0.00026398 6.67077e-05)
(-0.00101357 -0.000263088 8.50218e-05)
(-0.00107747 -0.000262443 9.97586e-05)
(-0.00113286 -0.000263053 0.000111135)
(-0.00118011 -0.000265082 0.000119364)
(-0.00122041 -0.00026859 0.000124696)
(-0.00125449 -0.000273421 0.000127113)
(-0.00128368 -0.000279281 0.000126921)
(-0.00130782 -0.000285965 0.000123682)
(-0.00132924 -0.000293015 0.00011738)
(-0.00134863 -0.000300172 0.000107361)
(-0.00137097 -0.000306567 9.48723e-05)
(-0.00139122 -0.000312905 8.13442e-05)
(-0.00140735 -0.000318567 6.28742e-05)
(-0.00142346 -0.000322809 4.04221e-05)
(-0.00142534 -0.000325567 1.44439e-05)
(2.05519e-05 8.21905e-06 2.35389e-05)
(2.45155e-05 6.63133e-06 -4.36687e-06)
(2.07206e-05 4.54105e-06 -7.50665e-06)
(1.27798e-05 1.22721e-06 -8.90059e-06)
(2.54509e-06 2.64128e-07 -9.09413e-06)
(-1.04544e-05 -4.64547e-07 -1.66285e-05)
(-1.53307e-05 -9.30249e-06 -2.28243e-05)
(-2.33033e-05 -1.08327e-05 -2.89511e-05)
(-2.75528e-05 -1.18404e-05 -5.26584e-05)
(-4.01616e-05 -0.000130566 -5.92264e-05)
(-0.000153814 -9.92663e-05 1.1929e-05)
(-0.000280453 -0.000124161 -5.9825e-05)
(-0.000398094 -0.000170046 -5.18951e-05)
(-0.000523322 -0.000200249 -3.19034e-05)
(-0.000635923 -0.000216486 -8.57178e-06)
(-0.000739183 -0.000225075 1.58472e-05)
(-0.00082924 -0.000227624 3.89824e-05)
(-0.000907576 -0.000227488 5.96886e-05)
(-0.000974066 -0.00022647 7.71447e-05)
(-0.00102973 -0.000225972 9.11723e-05)
(-0.00107659 -0.00022682 0.000101909)
(-0.00111554 -0.000229145 0.000109487)
(-0.00114744 -0.000232931 0.000113794)
(-0.00117349 -0.000237759 0.000115219)
(-0.00119362 -0.00024352 0.000113299)
(-0.00121092 -0.000249748 0.000108075)
(-0.00122563 -0.000255968 9.87523e-05)
(-0.00124499 -0.000261399 8.71855e-05)
(-0.00126213 -0.000267067 7.51895e-05)
(-0.00127477 -0.000272077 5.81159e-05)
(-0.0012885 -0.000275546 3.75078e-05)
(-0.00128798 -0.000278222 1.36e-05)
(3.44951e-05 1.39135e-05 3.96948e-05)
(4.45203e-05 1.11735e-05 -8.15444e-06)
(4.61109e-05 5.77061e-06 -1.28604e-05)
(4.33341e-05 -2.45611e-06 -1.42848e-05)
(3.68026e-05 -1.00018e-05 -1.32485e-05)
(2.62342e-05 -1.43342e-05 -1.06625e-05)
(1.56645e-05 -1.04242e-05 -6.66153e-06)
(-2.44183e-06 -1.91354e-06 -2.13494e-05)
(-4.28571e-05 -2.48398e-05 -4.28737e-05)
(-8.00262e-07 -1.84279e-05 -3.31616e-05)
(-4.98591e-05 -3.7438e-05 -3.1366e-05)
(-0.000153708 -7.92461e-05 -4.83368e-05)
(-0.000284298 -0.000117742 -5.61728e-05)
(-0.000398636 -0.000151571 -5.08387e-05)
(-0.000515766 -0.000176338 -3.26383e-05)
(-0.000618448 -0.000188249 -1.02687e-05)
(-0.000710784 -0.000193381 1.29312e-05)
(-0.000789897 -0.000194199 3.50533e-05)
(-0.0008576 -0.000193482 5.46953e-05)
(-0.000914994 -0.000192994 7.12665e-05)
(-0.000961629 -0.000193283 8.44312e-05)
(-0.000998934 -0.000194861 9.42066e-05)
(-0.00102763 -0.000197767 0.000100285)
(-0.00105003 -0.000201813 0.000103273)
(-0.00106544 -0.000206761 0.000102606)
(-0.00107744 -0.000212194 9.83401e-05)
(-0.00108745 -0.000217574 8.96526e-05)
(-0.00110298 -0.000222002 7.89526e-05)
(-0.00111556 -0.000226938 6.85281e-05)
(-0.00112397 -0.000231221 5.29214e-05)
(-0.00113557 -0.000233956 3.4334e-05)
(-0.00113256 -0.000236683 1.26813e-05)
(4.47967e-05 1.47047e-05 4.41108e-05)
(6.10301e-05 1.22022e-05 -8.03523e-06)
(6.71363e-05 7.91342e-06 -1.52772e-05)
(6.89024e-05 -1.80075e-07 -1.88107e-05)
(6.67846e-05 -9.41648e-06 -1.95102e-05)
(6.07967e-05 -1.85321e-05 -1.78528e-05)
(5.03622e-05 -2.59338e-05 -1.38032e-05)
(3.31637e-05 -2.85245e-05 -8.3774e-06)
(2.10153e-05 -3.33164e-05 3.0962e-05)
(-4.65746e-05 6.74376e-05 2.77874e-06)
(-2.10824e-05 -5.53368e-06 -3.90736e-05)
(-3.9112e-05 -2.07372e-05 -1.86188e-05)
(-0.000146174 -6.26195e-05 -4.57499e-05)
(-0.000269082 -0.000102032 -5.75123e-05)
(-0.000376148 -0.00012781 -4.86209e-05)
(-0.000485915 -0.000149454 -3.12114e-05)
(-0.000581303 -0.000158827 -1.00982e-05)
(-0.000664418 -0.000162892 1.22883e-05)
(-0.000733322 -0.000163583 3.33042e-05)
(-0.000788769 -0.000163263 5.17023e-05)
(-0.000833418 -0.000163369 6.68753e-05)
(-0.000868144 -0.000164592 7.86025e-05)
(-0.000893743 -0.000167067 8.6338e-05)
(-0.000912192 -0.000170619 9.07722e-05)
(-0.000922807 -0.00017488 9.13198e-05)
(-0.000930448 -0.000179921 8.80513e-05)
(-0.000934946 -0.000184225 7.98611e-05)
(-0.000947799 -0.000188038 7.01297e-05)
(-0.00095726 -0.000192704 6.14976e-05)
(-0.000962243 -0.00019647 4.74458e-05)
(-0.000971041 -0.000198187 3.09682e-05)
(-0.000965428 -0.000200996 1.1712e-05)
(5.18377e-05 1.38584e-05 4.53027e-05)
(7.2701e-05 1.1449e-05 -7.03007e-06)
(8.23689e-05 7.58646e-06 -1.52399e-05)