/*--------------------------------*- C++ -*----------------------------------*\
  =========                 |
  \\      /  F ield         | OpenFOAM: The Open Source CFD Toolbox
   \\    /   O peration     | Website:  https://openfoam.org
    \\  /    A nd           | Version:  6
     \\/     M anipulation  |
\*---------------------------------------------------------------------------*/
FoamFile
{
    version     2.0;
    format      ascii;
    class       volScalarField;
    location    "19";
    object      yPlus;
}
// * * * * * * * * * * * * * * * * * * * * * * * * * * * * * * * * * * * * * //

dimensions      [0 0 0 0 0 0 0];

internalField   uniform 0;

boundaryField
{
    inlet
    {
        type            calculated;
        value           uniform 0;
    }
    outlet
    {
        type            calculated;
        value           uniform 0;
    }
    roughCylinder
    {
        type            calculated;
        value           nonuniform List<scalar> 
5120
(
42.6012
50.3627
56.5282
62.5348
67.6752
71.8191
75.1271
77.7937
79.9733
81.8018
83.3978
84.8281
86.1306
87.3374
88.4782
89.5827
90.6806
91.7987
92.9591
94.178
95.4636
96.8179
98.2375
99.7151
101.241
102.802
104.381
105.955
107.485
108.9
110.061
110.739
41.905
49.3857
55.3568
61.2291
66.3
70.4106
73.7012
76.3602
78.5407
80.3767
81.9807
83.4139
84.7072
85.899
87.0213
88.1045
89.179
90.2726
91.4078
92.5998
93.8573
95.182
96.5706
98.0158
99.5072
101.033
102.576
104.113
105.607
106.986
108.119
108.78
41.1452
48.3786
54.1658
59.9036
64.905
68.9857
72.2653
74.925
77.1157
78.967
80.5829
82.0197
83.3071
84.488
85.5941
86.6579
87.711
88.7812
89.8909
91.0564
92.2864
93.5821
94.9401
96.3532
97.8114
99.3017
100.808
102.309
103.766
105.112
106.216
106.858
40.3519
47.3521
52.9558
58.5555
63.487
67.5419
70.8168
73.4857
75.6972
77.5733
79.2074
80.6521
81.9404
83.1115
84.2036
85.25
86.2826
87.3306
88.4176
89.5585
90.7617
92.0292
93.3574
94.739
96.1637
97.6194
99.0904
100.554
101.976
103.287
104.363
104.987
39.5181
46.2957
51.714
57.1724
62.0362
66.0742
69.3571
72.0481
74.2895
76.1949
77.8501
79.3061
80.5984
81.7656
82.8481
83.88
84.8956
85.9242
86.9882
88.105
89.2831
90.5237
91.8233
93.1745
94.5676
95.9897
97.4259
98.8548
100.241
101.519
102.567
103.174
38.6669
45.2241
50.4503
55.7608
60.557
64.5842
67.8829
70.6028
72.8809
74.8231
76.5058
77.9788
79.2819
80.4514
81.5273
82.5476
83.5475
84.5576
85.603
86.6987
87.8528
89.0675
90.3395
91.661
93.0223
94.4111
95.8128
97.2055
98.5577
99.8023
100.824
101.413
37.7664
44.1085
49.1359
54.2913
59.0206
63.0482
66.38
69.1456
71.4714
73.4537
75.1671
76.6629
77.9802
79.1587
80.2353
81.2497
82.2389
83.2353
84.2615
85.3358
86.4677
87.6583
88.9037
90.1969
91.528
92.8848
94.2536
95.6135
96.9306
98.144
99.1381
99.7104
36.8512
42.9744
47.7921
52.781
57.4406
61.4754
64.8496
67.6667
70.0456
72.0791
73.833
75.3569
76.6969
77.8895
78.974
79.9852
80.9664
81.9495
82.9624
84.0205
85.1317
86.299
87.5189
88.7843
90.0851
91.4098
92.7447
94.0691
95.3546
96.5349
97.5034
98.0587
35.856
41.7631
46.3593
51.168
55.753
59.8051
63.2435
66.1386
68.5907
70.6806
72.4794
74.0438
75.4126
76.6282
77.7254
78.7464
79.7265
80.705
81.7039
82.7441
83.8367
84.9826
86.1784
87.4172
88.6893
89.9836
91.2865
92.5797
93.8304
94.9802
95.9226
96.4608
34.8336
40.516
44.8774
49.4864
53.9861
58.0612
61.5782
64.5603
67.0925
69.2607
71.1249
72.7323
74.1389
75.3809
76.4999
77.528
78.5125
79.4869
80.4796
81.5103
82.5862
83.7117
84.884
86.0962
87.3388
88.6012
89.8707
91.1272
92.3464
93.4638
94.3813
94.9012
33.6592
39.1265
43.241
47.6291
52.0281
56.1298
59.7495
62.861
65.5155
67.7704
69.6999
71.3763
72.8339
74.1198
75.2657
76.3198
77.3159
78.2968
79.2838
80.301
81.3626
82.4699
83.6199
84.8063
86.0206
87.2522
88.489
89.7161
90.9013
91.9886
92.8803
93.3827
32.4033
37.6602
41.5102
45.6453
49.9153
54.0427
57.7918
61.0529
63.8382
66.2278
68.2759
70.0195
71.5357
72.8619
74.0479
75.1202
76.1324
77.117
78.1067
79.1233
80.1733
81.2631
82.3915
83.5522
84.7368
85.9361
87.1389
88.3276
89.4808
90.5356
91.4016
91.8857
30.9046
35.9606
39.5248
43.3711
47.4791
51.6186
55.5106
58.9883
62.0006
64.5374
66.6807
68.5429
70.1467
71.5525
72.7858
73.9076
74.9476
75.9537
76.9466
77.9536
78.9939
80.0692
81.1777
82.3139
83.4706
84.639
85.8088
86.9689
88.0883
89.112
89.9536
90.4185
29.2237
34.0945
37.3582
40.8608
44.734
48.8565
52.9487
56.6848
59.9136
62.7075
65.095
67.0733
68.773
70.2357
71.5348
72.6881
73.7594
74.7786
75.7851
76.8036
77.8389
78.9004
79.9888
81.0999
82.2262
83.3605
84.4947
85.6138
86.6999
87.6897
88.5044
88.9507
27.0931
31.799
34.7339
37.8363
41.4261
45.497
49.7162
53.8188
57.5361
60.6077
63.1324
65.3316
67.1874
68.7975
70.1774
71.4171
72.5397
73.6022
74.625
75.6381
76.6687
77.7197
78.7914
79.8787
80.9767
82.0795
83.1787
84.2699
85.3226
86.2799
87.0699
87.4946
24.482
29.1065
31.751
34.3877
37.4684
41.2755
45.9108
50.4636
54.4711
58.0964
61.1922
63.613
65.6491
67.3429
68.8322
70.1201
71.2948
72.3818
73.4317
74.4736
75.5085
76.5506
77.6027
78.6647
79.73
80.795
81.8556
82.9015
83.9155
84.8361
85.5977
86.0024
20.792
25.4526
27.7206
29.793
32.5641
36.5594
40.4889
45.5809
50.9402
55.108
58.39
61.3021
63.6392
65.6281
67.2612
68.703
69.9669
71.1322
72.2181
73.2585
74.2945
75.3303
76.3698
77.4077
78.4435
79.4752
80.4966
81.5144
82.4968
83.3821
84.1172
84.4969
15.4287
20.5576
23.0558
24.7128
25.5368
25.8614
33.6251
39.9936
45.0959
50.8649
55.688
59.0096
61.7496
63.8794
65.7183
67.2347
68.584
69.7883
70.9196
72.0155
73.0695
74.1028
75.1214
76.1328
77.1305
78.1166
79.094
80.0597
80.9928
81.8351
82.5401
82.8963
5.86172
10.805
11.8205
12.3389
14.3625
12.1681
16.7376
27.302
39.5573
45.555
50.5654
55.3886
58.785
61.5807
63.6916
65.5066
67.0198
68.3666
69.5679
70.6655
71.7269
72.7585
73.7701
74.7556
75.7205
76.6706
77.5998
78.5361
79.4419
80.2443
80.9178
81.2432
9.10817
5.49446
6.11355
4.176
16.1558
12.3997
10.9748
21.5717
18.7774
36.7928
46.4208
51.5872
56.1031
59.1626
61.746
63.6902
65.3541
66.7622
68.0378
69.2378
70.3401
71.3784
72.3649
73.3198
74.2358
75.1234
76.0003
76.8724
77.7074
78.454
79.0961
79.3914
11.6578
15.7289
16.4932
15.8208
13.5107
11.7909
12.9116
15.7211
12.9979
22.1599
33.1215
44.7393
50.6582
55.5514
58.6814
61.2893
63.2898
64.9822
66.3973
67.6012
68.7186
69.7616
70.7489
71.6735
72.5489
73.3983
74.206
75.0479
75.8652
76.5656
77.1645
77.4186
19.6911
24.0859
25.8979
26.4961
25.7298
23.4197
19.6353
16.232
22.4197
25.1242
22.7399
34.494
46.1322
51.3945
55.9039
58.7391
61.0477
62.839
64.3857
65.7895
66.9936
68.0589
69.0114
69.8949
70.6998
71.4446
72.1899
72.9418
73.6443
74.2577
74.8294
75.0371
21.668
26.5886
29.2336
31.1371
32.2044
32.2865
31.0808
27.9783
22.6386
22.7014
11.9628
12.1111
32.2157
44.6052
50.1134
54.7852
57.8588
60.3053
62.153
63.5555
64.7868
65.8674
66.8341
67.6787
68.4223
69.1375
69.7554
70.4869
71.1906
71.7579
72.2532
72.3994
22.437
27.4507
30.3152
32.5835
34.2256
35.2309
35.5567
35.0018
32.922
28.2913
23.7973
24.3534
9.83194
33.8651
45.5892
50.4288
54.4048
56.9795
59.0928
60.9435
62.3647
63.5008
64.4074
65.1819
65.8072
66.2918
66.8529
67.4172
67.9208
68.2995
68.8077
68.8586
21.809
26.963
29.9961
32.511
34.4768
35.8952
36.7851
37.1664
36.9776
35.7619
32.2626
21.182
17.1021
10.9982
31.543
43.1226
48.3453
52.7939
55.6326
57.3872
58.8588
60.018
60.9746
61.6844
62.2028
62.7223
62.9758
63.6181
64.1009
64.5164
64.8399
64.7734
20.3675
25.6517
28.7784
31.4305
33.5874
35.2549
36.464
37.2646
37.7031
37.7298
36.8441
33.9722
29.4553
21.1979
33.0167
31.9528
42.7547
46.6085
50.0137
53.0688
54.9725
56.29
57.0807
57.6495
57.8834
57.741
58.0541
58.1436
58.4162
58.1796
58.7763
58.4486
18.4542
23.8327
26.9894
29.696
31.9505
33.772
35.1942
36.2796
37.1107
37.7452
38.0858
37.5642
34.1809
23.5838
28.1901
11.2594
24.9902
38.9615
44.6438
46.2707
48.3103
49.4777
50.579
50.8158
51.0594
51.134
50.9506
51.8419
50.9948
51.5865
52.1041
50.946
16.2849
21.6447
24.7289
27.3842
29.6355
31.5236
33.0944
34.4074
35.5473
36.5921
37.5467
38.2198
37.7359
35.0736
29.3436
22.2117
16.506
21.0572
29.2872
38.4165
41.787
43.4015
43.8251
43.8822
43.0388
40.8731
39.0386
38.276
39.9162
37.4096
36.5241
39.4059
14.0966
19.2994
22.2071
24.7103
26.8659
28.7366
30.3829
31.8703
33.2755
34.6748
36.0866
37.4017
38.2572
37.9833
33.5016
32.4229
24.1365
15.4954
22.83
19.5194
23.092
25.1108
26.3306
23.0899
24.0859
18.5959
39.5889
27.5484
9.69693
15.7863
37.5882
43.7986
12.171
17.0977
19.7543
22.0339
24.0258
25.8106
27.4594
29.0402
30.6204
32.2653
34.0122
35.8043
37.4158
38.4193
37.6464
34.3719
27.129
21.9106
29.5635
18.1246
25.5774
16.9294
30.1898
17.4106
29.4223
22.1404
41.2668
33.2781
14.9768
23.9668
37.4601
36.4031
10.6865
15.2694
17.6595
19.6986
21.5045
23.1707
24.772
26.371
28.0215
29.7712
31.6624
33.6968
35.7728
37.6085
38.6188
38.2497
36.0836
30.06
30.2089
22.3463
29.4925
24.7323
33.3726
24.0242
36.563
30.484
40.2787
36.5126
32.6066
29.5577
28.7953
30.5211
9.59239
13.9369
16.1021
17.9404
19.5914
21.1514
22.6889
24.2521
25.8787
27.6039
29.4679
31.5074
33.7185
35.9763
37.9266
39.1183
39.2786
37.5638
33.1461
30.6349
27.1268
27.5211
26.387
30.2864
31.6756
37.0035
35.334
36.5532
38.5681
39.5805
39.1404
42.1373
9.01584
13.1755
15.1842
16.8943
18.4533
19.9485
21.4308
22.9297
24.4678
26.0727
27.7836
29.6527
31.7269
34.003
36.3353
38.3926
39.7506
39.9144
38.7306
37.8324
36.2924
35.8908
36.7261
39.0967
39.2677
42.2972
40.969
41.3333
42.2819
42.9037
43.2296
44.5024
8.85594
12.9322
14.874
16.5402
18.0763
19.5529
21.001
22.4333
23.8619
25.3102
26.8158
28.43
30.2141
32.2234
34.4551
36.7669
38.8076
40.0715
40.3934
40.2685
39.7965
39.4333
40.3528
41.3457
41.5696
42.9077
41.8705
42.0482
42.4553
43.0435
43.3995
44.1201
9.04032
13.1097
15.0574
16.7483
18.3154
19.8106
21.2476
22.6287
23.9616
25.267
26.5782
27.9394
29.4054
31.0413
32.9048
34.9939
37.1488
38.9925
40.2105
40.7515
40.8335
40.6824
41.3213
41.7409
41.8494
42.3856
41.4415
41.3803
41.6716
42.0215
42.2133
42.7033
9.47299
13.5854
15.5865
17.3474
18.9813
20.5225
21.9724
23.3275
24.5943
25.793
26.9533
28.1112
29.3092
30.6006
32.048
33.7041
35.5509
37.4114
39.0076
40.0732
40.6263
40.7797
41.1531
41.2032
41.027
41.0318
40.1577
39.8971
40.1337
40.2391
40.3407
40.7509
10.1023
14.2866
16.364
18.214
19.9286
21.5269
23.003
24.3522
25.5833
26.717
27.78
28.8006
29.8085
30.8407
31.946
33.1795
34.5777
36.1014
37.6055
38.8388
39.6683
40.0495
40.2782
40.0989
39.671
39.3448
38.55
38.1677
38.3324
38.3455
38.4498
38.8571
10.8773
15.1611
17.3267
19.2712
21.0668
22.7218
24.2276
25.5825
26.7992
27.9011
28.9126
29.8558
30.7492
31.6146
32.4835
33.3973
34.3992
35.5053
36.6704
37.7487
38.5834
39.0337
39.1695
38.8705
38.2983
37.7848
37.0805
36.6711
36.7781
36.8479
37.0245
37.4605
11.7077
16.1608
18.4223
20.4601
22.3318
24.0395
25.5754
26.9429
28.1604
29.2537
30.2465
31.156
31.9927
32.767
33.4955
34.2032
34.9226
35.6813
36.4794
37.2546
37.8973
38.2595
38.293
37.9278
37.2948
36.6907
36.0651
35.6886
35.7816
35.9875
36.2638
36.7396
12.6806
17.2543
19.6093
21.7364
23.679
25.4356
27.0014
28.3864
29.6149
30.7155
31.711
32.6151
33.4328
34.1676
34.8258
35.4192
35.966
36.487
36.9947
37.4698
37.8528
38.0342
37.9354
37.508
36.8475
36.2025
35.6361
35.3192
35.4368
35.792
36.1687
36.6833
13.5105
13.9419
14.429
14.8211
15.1957
15.4921
15.7487
15.9459
16.1019
16.21
16.281
16.3128
16.3099
16.2743
16.2099
16.1189
16.0042
15.8713
15.7315
15.6147
15.6083
15.717
15.849
15.9731
16.0783
16.1595
16.2143
16.2405
16.2345
16.1941
16.1156
16.001
15.8394
15.6377
15.3784
15.08
14.706
14.3178
13.8366
13.4176
18.2172
18.6644
19.171
19.5814
19.9745
20.2934
20.5738
20.7968
20.9797
21.1163
21.2161
21.2776
21.3033
21.2943
21.2528
21.1802
21.0782
20.9507
20.8085
20.6824
20.6693
20.7806
20.9111
21.0268
21.1171
21.1781
21.2087
21.2077
21.1728
21.1032
20.9968
20.8548
20.6677
20.442
20.1607
19.8421
19.4513
19.0463
18.5465
18.1125
20.6588
21.1309
21.6673
22.1031
22.525
22.8752
23.191
23.4523
23.6766
23.8571
24.0021
24.1106
24.1838
24.2209
24.2224
24.1888
24.1207
24.0206
23.8981
23.7823
23.7665
23.8631
23.9703
24.0556
24.1094
24.1293
24.1153
24.067
23.984
23.8672
23.7158
23.5305
23.3032
23.0405
22.7253
22.3772
21.9589
21.5293
21.0005
20.5419
22.8536
23.344
23.9027
24.3579
24.8044
25.1823
25.5304
25.8279
26.0918
26.3154
26.5046
26.6589
26.7788
26.8619
26.9073
26.914
26.8817
26.8126
26.7156
26.6195
26.603
26.6757
26.7537
26.805
26.8202
26.7977
26.7379
26.6421
26.5114
26.3483
26.1526
25.9247
25.6586
25.3612
25.0152
24.6412
24.2
23.7525
23.2024
22.726
24.8373
25.3307
25.8967
26.3584
26.8169
27.2102
27.5786
27.9008
28.193
28.4494
28.6746
28.8663
29.0243
29.1454
29.2274
29.2682
29.2671
29.2256
29.1531
29.0775
29.0611
29.1102
29.1607
29.1818
29.1638
29.1051
29.0071
28.872
28.7022
28.5013
28.2696
28.0092
27.7157
27.3948
27.0301
26.6424
26.1912
25.7391
25.1833
24.7047
26.6098
27.0905
27.6505
28.1071
28.5667
28.966
29.3456
29.6858
30.0013
30.2849
30.5402
30.7637
30.9542
31.1078
31.2212
31.2914
31.3169
31.2993
31.2477
31.1886
31.1722
31.2028
31.2301
31.2252
31.1787
31.0891
30.9584
30.7898
30.5868
30.3536
30.0916
29.8045
29.4887
29.1511
28.7767
28.3852
27.9352
27.4906
26.9431
26.4786
28.1746
28.6323
29.1796
29.6262
30.0831
30.4867
30.878
31.2356
31.5727
31.8816
32.1644
32.4169
32.6367
32.819
32.9601
33.056
33.1045
33.1068
33.0717
33.0241
33.0075
33.0252
33.0341
33.0076
32.9366
32.82
32.6605
32.4622
32.2293
31.9668
31.6772
31.3652
31.0284
30.6747
30.2905
29.897
29.4521
29.0204
28.4882
28.049
29.5519
29.9837
30.5185
30.9571
31.4145
31.8264
32.2306
32.6064
32.9645
33.2972
33.6054
33.8841
34.13
34.338
34.5032
34.6211
34.6888
34.7071
34.6842
34.644
34.627
34.6359
34.6312
34.5874
34.4959
34.3561
34.1715
33.9466
33.6869
33.3979
33.0829
32.7473
32.39
32.0193
31.6232
31.2235
30.7807
30.36
29.8433
29.4328
30.7736
31.1818
31.7082
32.1439
32.6058
33.0276
33.4455
33.8386
34.2162
34.5703
34.9011
35.2028
35.4713
35.7012
35.8867
36.0228
36.1061
36.1365
36.1221
36.0861
36.0685
36.0721
36.0576
36.0004
35.8923
35.7332
35.5274
35.28
34.9969
34.6846
34.3468
33.9899
33.6135
33.226
32.8175
32.4093
31.9641
31.5489
31.0436
30.6599
31.8714
32.2588
32.7806
33.2166
33.6837
34.1156
34.546
34.9545
35.3491
35.7218
36.0716
36.3926
36.6801
36.9279
37.1299
37.2805
37.3758
37.4153
37.4065
37.3725
37.3542
37.3546
37.3335
37.2662
37.145
36.9705
36.7472
36.4811
36.1786
35.8465
35.4895
35.114
34.721
34.3186
33.8984
33.4814
33.0326
32.6189
32.1209
31.7608
32.8663
33.2341
33.7524
34.1888
34.6606
35.1011
35.5422
35.9637
36.3726
36.7605
37.126
37.4627
37.7654
38.0274
38.2424
38.4044
38.5088
38.5549
38.55
38.5171
38.4981
38.4963
38.4702
38.3952
38.2639
38.0773
37.8402
37.5591
37.2409
36.8926
36.5198
36.1289
35.7219
35.3068
34.8768
34.4519
33.9997
33.5873
33.0945
32.7563
33.7681
34.1146
34.628
35.0639
35.5392
35.9868
36.4366
36.869
37.2894
37.6898
38.0679
38.4172
38.7318
39.0052
39.2302
39.4008
39.5125
39.5641
39.5628
39.5316
39.5121
39.5075
39.4766
39.3951
39.2556
39.0594
38.8114
38.5185
38.1878
37.8265
37.441
37.0376
36.6191
36.1935
35.7552
35.324
34.8693
34.4586
33.9722
33.6572
34.5772
34.8998
35.4064
35.8405
36.3181
36.7716
37.2287
37.6701
38.1002
38.5108
38.899
39.2583
39.5824
39.8645
40.0975
40.2751
40.393
40.4501
40.4535
40.4258
40.4057
40.3965
40.3598
40.2717
40.1251
39.921
39.6644
39.3621
39.0214
38.6498
38.2539
37.8403
37.4122
36.9778
36.5326
36.0962
35.6399
35.2322
34.7542
34.4651
35.2923
35.5868
36.0835
36.5148
36.9938
37.4524
37.9161
38.3656
38.8041
39.2234
39.6201
39.9875
40.3192
40.6082
40.8476
41.0314
41.155
41.2182
41.228
41.2058
41.1853
41.1692
41.1248
41.0296
40.8762
40.6653
40.4015
40.0917
39.743
39.3631
38.9585
38.5361
38.0997
37.6576
37.2062
36.7653
36.3084
35.9047
35.4379
35.1791
35.9128
36.1721
36.6552
37.0821
37.5619
38.0256
38.4958
38.9528
39.3992
39.8265
40.2307
40.6049
40.9431
41.2379
41.4829
41.672
41.8016
41.8714
41.889
41.8735
41.8526
41.8286
41.7748
41.6717
41.5114
41.2943
41.0244
40.7082
40.3528
39.9657
39.5535
39.1234
38.6794
38.2299
37.7726
37.3273
36.8706
36.4724
36.0211
35.7999
36.4396
36.652
37.1162
37.5367
38.0167
38.4853
38.9622
39.4274
39.8817
40.3166
40.7278
41.1086
41.4524
41.7526
42.0025
42.1969
42.3323
42.4092
42.4351
42.4263
42.4048
42.3727
42.3093
42.1977
42.0305
41.8074
41.5318
41.2099
40.8486
40.455
40.0357
39.5981
39.1465
38.6895
38.2263
37.7768
37.3213
36.9314
36.5018
36.3306
36.8765
37.0232
37.4598
37.8706
38.3495
38.8234
39.3075
39.7811
40.2437
40.6867
41.1052
41.4922
41.8417
42.1469
42.4016
42.6011
42.7424
42.8263
42.8599
42.857
42.8349
42.7954
42.7227
42.6028
42.4287
42.1996
41.9187
41.5915
41.2244
40.8246
40.3984
39.9532
39.4938
39.0291
38.5598
38.1067
37.6541
37.2764
36.8781
36.7766
37.2303
37.2818
37.6747
38.0728
38.5487
39.0278
39.5194
40.0024
40.4742
40.9258
41.3518
41.7456
42.1008
42.4112
42.6708
42.8753
43.0222
43.1127
43.1531
43.155
43.1323
43.0864
43.0053
42.8775
42.6966
42.4619
42.1757
41.8431
41.4704
41.0641
40.6308
40.1777
39.7101
39.2374
38.7623
38.3063
37.86
37.4997
37.1493
37.1469
37.509
37.4283
37.7536
38.1287
38.6
39.0837
39.5834
40.0764
40.5581
41.0191
41.4536
41.8547
42.2162
42.532
42.7967
43.0063
43.1586
43.255
43.3011
43.3067
43.2833
43.2321
43.1437
43.0087
42.8215
42.581
42.2895
41.9515
41.5727
41.1597
40.7189
40.2575
39.7815
39.3009
38.8207
38.3637
37.9279
37.5959
37.3181
37.4509
37.7107
37.4623
37.6918
38.0283
38.4886
38.9766
39.4841
39.9875
40.4797
40.9509
41.3945
41.8036
42.172
42.4938
42.7639
42.9786
43.1361
43.2377
43.2885
43.2969
43.2727
43.2171
43.1226
42.9811
42.788
42.5419
42.2449
41.9012
41.5162
41.0961
40.6475
40.1776
39.6934
39.2056
38.7218
38.2673
37.8488
37.5613
37.3842
37.6855
37.8057
37.3724
37.4854
37.767
38.2065
38.696
39.2105
39.7239
40.2266
40.7081
41.1611
41.5786
41.9543
42.2824
42.5581
42.7778
42.9401
43.0462
43.1008
43.1113
43.0863
43.027
42.9273
42.7805
42.5819
42.3304
42.0281
41.6786
41.2871
40.86
40.4036
39.9258
39.4343
38.9405
38.4558
38.007
37.6169
37.3921
37.3372
37.8242
37.7368
37.1334
37.1271
37.344
37.7535
38.2387
38.7606
39.283
39.7955
40.2866
40.7485
41.174
41.5565
41.8907
42.1717
42.396
42.5624
42.672
42.7293
42.7411
42.7152
42.6532
42.5495
42.3982
42.1951
41.939
41.6318
41.2771
40.88
40.4465
39.9836
39.4991
39.0019
38.5047
38.0209
37.5836
37.2307
37.0777
37.1465
37.8034
37.4485
36.7216
36.6193
36.7757
37.1526
37.6271
38.1514
38.6814
39.2014
39.6999
40.1686
40.6003
40.9883
41.3272
41.612
41.8397
42.0087
42.1204
42.179
42.1912
42.1643
42.1003
41.9941
41.84
41.6338
41.3746
41.064
40.7056
40.3044
39.8666
39.3993
38.9108
38.4107
37.9131
37.4325
37.0108
36.6955
36.6077
36.7764
37.5603
36.926
36.1374
35.9801
36.094
36.4439
36.9059
37.4281
37.9626
38.4862
38.9884
39.4604
39.895
40.2854
40.626
40.9121
41.1406
41.3098
41.4211
41.4788
41.4898
41.4618
41.3968
41.29
41.1354
40.9287
40.669
40.3575
39.9981
39.5959
39.1569
38.6885
38.1995
37.6997
37.2031
36.7287
36.3239
36.0391
35.9964
36.2216
37.0689
36.2322
35.4445
35.2778
35.3731
35.7067
36.1568
36.6727
37.2049
37.727
38.2278
38.6981
39.1307
39.519
39.8572
40.1405
40.3659
40.5316
40.639
40.6928
40.7004
40.6707
40.6059
40.5011
40.349
40.1453
39.8884
39.5798
39.2232
38.8237
38.3876
37.9223
37.4363
36.9404
36.4479
35.9814
35.5896
35.3221
35.2994
35.5388
36.3972
35.5866
34.799
34.6332
34.7212
35.0454
35.4851
35.9917
36.5165
37.0328
37.5271
37.9907
38.4164
38.7974
39.1281
39.4038
39.6212
39.7786
39.8776
39.923
39.9241
39.8915
39.8287
39.7291
39.5839
39.3873
39.1376
38.8361
38.4866
38.0943
37.6654
37.2074
36.7291
36.2412
35.7572
35.3007
34.9202
34.6633
34.6489
34.8876
35.7444
35.0434
34.3015
34.1663
34.2663
34.591
35.0235
35.5196
36.0321
36.5355
37.0172
37.4682
37.8811
38.2493
38.5673
38.8303
39.0348
39.1792
39.2648
39.2972
39.2876
39.2508
39.1922
39.1021
38.9683
38.7832
38.545
38.2551
37.9172
37.5365
37.1196
36.6739
36.2081
35.7333
35.2636
34.821
34.4524
34.2017
34.1852
34.4043
35.2279
34.8044
34.1338
34.0427
34.1601
34.4852
34.906
35.3843
35.8759
36.3582
36.8192
37.2503
37.6436
37.9931
38.2927
38.5378
38.7249
38.8519
38.9197
38.934
38.9087
38.8657
38.8147
38.7397
38.6222
38.4533
38.231
37.9573
37.6358
37.2721
36.8727
36.4446
35.9969
35.5405
35.0901
34.6638
34.3056
34.0548
34.0236
34.2085
34.9754
35.0728
34.4186
34.3318
34.4392
34.7465
35.1426
35.592
36.0531
36.5087
36.9449
37.3527
37.7242
38.0526
38.3324
38.5586
38.7276
38.837
38.8872
38.8828
38.8394
38.7889
38.7494
38.6925
38.593
38.4414
38.2365
37.9805
37.6777
37.3333
36.9535
36.5458
36.1189
35.6836
35.2554
34.8512
34.5093
34.2656
34.2292
34.3946
35.1306
35.6121
34.9809
34.9059
35.0083
35.3
35.6719
36.0926
36.5235
36.9506
37.3598
37.7419
38.0889
38.3944
38.6528
38.8593
39.0103
39.1031
39.1373
39.1172
39.0579
39.0011
38.9756
38.9375
38.8563
38.7235
38.5386
38.3043
38.025
37.7061
37.3534
36.9744
36.5775
36.1733
35.7766
35.4043
35.0899
34.8594
34.8172
34.9429
35.6063
36.0925
35.5512
35.5271
35.6484
35.9391
36.2952
36.6927
37.0995
37.5021
37.8872
38.2462
38.5711
38.8561
39.0953
39.2845
39.4198
39.4986
39.5206
39.4888
39.4184
39.3558
39.3382
39.3109
39.2407
39.1197
38.9479
38.7281
38.4643
38.1617
37.8261
37.4642
37.0843
36.6958
36.3134
35.9526
35.6456
35.4136
35.3565
35.4513
36.0628
36.6333
36.0659
36.0249
36.1283
36.4017
36.7397
37.1198
37.5112
37.8996
38.2718
38.6185
38.9321
39.2063
39.4358
39.616
39.7434
39.8154
39.8315
39.7951
39.7212
39.6583
39.6458
39.6245
39.5613
39.4483
39.2858
39.0766
38.8248
38.5353
38.214
37.8674
37.5039
37.133
36.7691
36.4276
36.1413
35.9287
35.888
35.9881
36.6004
42.6233
50.3894
56.5577
62.5653
67.7052
71.8478
75.1544
77.8196
79.9979
81.8255
83.4212
84.8512
86.1535
87.36
88.5005
89.6049
90.7029
91.8211
92.9818
94.201
95.4869
96.8415
98.2614
99.7394
101.265
102.827
104.406
105.98
107.51
108.927
110.087
110.768
41.9324
49.417
55.3905
61.2632
66.3333
70.4426
73.732
76.3896
78.5684
80.403
82.0059
83.4382
84.7308
85.9224
87.0447
88.1281
89.2026
90.2962
91.4316
92.6239
93.8816
95.2066
96.5956
98.0411
99.533
101.059
102.602
104.139
105.632
107.014
108.146
108.809
41.1756
48.4134
54.2035
59.942
64.9422
69.0208
72.2981
74.9557
77.1446
78.9948
80.6101
82.0464
83.3334
84.5138
85.6194
86.6827
87.7357
88.8061
89.9159
91.0818
92.3119
93.6079
94.9663
96.3797
97.8379
99.3288
100.836
102.336
103.794
105.141
106.244
106.889
40.3852
47.3902
52.9966
58.5969
63.5273
67.5805
70.8539
73.5214
75.731
77.6054
79.2381
80.6812
81.9679
83.1381
84.2302
85.2767
86.3092
87.3571
88.4442
89.5852
90.7886
92.0565
93.3851
94.7671
96.1923
97.6481
99.1195
100.583
102.004
103.318
104.393
105.02
39.5588
46.3416
51.7632
57.2223
62.0844
66.1191
69.3985
72.0863
74.3251
76.2287
77.8826
79.3377
80.6297
81.7962
82.8775
83.9083
84.9234
85.9522
87.0163
88.1333
89.3116
90.5524
91.8523
93.2039
94.5968
96.0195
97.4562
98.8846
100.271
101.551
102.598
103.208
38.7098
45.2726
50.5022
55.8135
60.608
64.6327
67.9292
70.6471
72.923
74.863
76.5438
78.0148
79.315
80.4823
81.5576
82.5784
83.5782
84.5876
85.633
86.7287
87.883
89.098
90.3702
91.6923
93.0541
94.4429
95.8446
97.2377
98.5886
99.8367
100.856
101.449
37.8198
44.1684
49.2005
54.3573
59.0843
63.1072
66.4339
69.195
71.5172
73.4967
75.2074
76.7009
78.0178
79.196
80.2707
81.2826
82.2707
83.2671
84.2931
85.3676
86.4998
87.6905
88.9362
90.2297
91.5609
92.9186
94.2874
95.6463
96.9643
98.1799
99.1728
99.7492
36.9111
43.0407
47.8628
52.853
57.5101
61.5408
64.9108
67.724
70.0989
72.1284
73.8798
75.4025
76.7383
77.9263
79.0092
80.0212
81.0023
81.9842
82.9967
84.0545
85.1657
86.3333
87.5536
88.8194
90.121
91.4461
92.781
94.1052
95.3885
96.5732
97.5396
98.0989
35.9244
41.8404
46.4432
51.2544
55.8366
59.8822
63.3136
66.2029
68.6509
70.738
72.5327
74.0911
75.4583
76.6748
77.77
78.7866
79.7635
80.7418
81.7402
82.7805
83.8732
85.0192
86.2153
87.4543
88.7264
90.0212
91.3247
92.6165
93.868
95.0212
95.9615
96.5042
34.9221
40.6126
44.9812
49.5935
54.0909
58.1598
61.6682
64.6409
67.1634
69.3222
71.1807
72.7894
74.1921
75.4258
76.541
77.5707
78.556
79.5279
80.5199
81.5496
82.6253
83.7511
84.9237
86.1364
87.38
88.6427
89.9118
91.1686
92.3847
93.508
94.4221
94.9477
33.7483
39.226
43.3484
47.7393
52.1336
56.2255
59.8356
62.9409
65.5932
67.8489
69.7763
71.439
72.8905
74.1792
75.3244
76.3711
77.3605
78.3405
79.3267
80.3439
81.4055
82.5126
83.6629
84.8496
86.0635
87.2957
88.5335
89.7578
90.9441
92.036
92.924
93.4328
32.541
37.8087
41.6725
45.8188
50.0922
54.2131
57.9455
61.1841
63.9446
66.3092
68.3397
70.0888
71.6048
72.9181
74.0955
75.1704
76.1859
77.1674
78.1555
79.1703
80.2195
81.3096
82.4383
83.5997
84.7856
85.9853
87.1877
88.3753
89.5245
90.586
91.4494
91.9399
31.026
36.0907
39.6609
43.5052
47.5999
51.7201
55.5997
59.074
62.0918
64.6424
66.7964
68.6339
70.2201
71.6294
72.8655
73.9761
75.0032
76.0067
76.9983
78.0054
79.0455
80.1205
81.2289
82.3654
83.5214
84.6903
85.8617
87.0166
88.138
89.1687
90.0034
90.4782
29.4435
34.3299
37.6229
41.1619
45.0669
49.1982
53.2565
56.9387
60.1058
62.8337
65.165
67.153
68.8625
70.3076
71.5891
72.7459
73.8257
74.842
75.8458
76.8611
77.8947
78.9563
80.0452
81.1571
82.2852
83.4204
84.5538
85.6703
86.7505
87.7491
88.5611
89.0143
27.2712
31.9778
34.9078
37.9851
41.5181
45.5251
49.7486
53.869
57.6162
60.7382
63.3182
65.4746
67.2886
68.8998
70.2896
71.5129
72.612
73.6682
74.6883
75.7016
76.7321
77.7828
78.8538
79.9413
81.0381
82.1414
83.2432
84.3262
85.3799
86.3484
87.1277
87.5668
24.8558
29.4964
32.1983
34.9456
38.2032
42.1749
46.6562
51.0382
54.8838
58.3349
61.2631
63.6986
65.7648
67.4366
68.8917
70.1839
71.3768
72.4629
73.5092
74.5455
75.5774
76.6189
77.6723
78.7353
79.8035
80.8697
81.9292
82.9688
83.9759
84.9075
85.6669
86.0789
21.0547
25.6896
27.9257
29.8656
32.2225
35.5861
40.0524
45.4567
50.9483
55.2626
58.7304
61.5468
63.7899
65.7704
67.4278
68.8448
70.0658
71.2167
72.2969
73.3379
74.374
75.4097
76.4473
77.4856
78.5189
79.5516
80.5775
81.582
82.5634
83.4668
84.1856
84.5869
16.1435
21.2629
23.7521
25.7154
27.7975
31.2771
36.3779
41.4541
46.036
51.3423
55.6912
59.0893
61.9047
64.0071
65.7749
67.2977
68.6851
69.8939
71.0213
72.1078
73.1564
74.1879
75.2096
76.2221
77.225
78.213
79.1891
80.1405
81.0668
81.9236
82.6264
82.9905
6.54931
11.6351
12.7298
13.2859
12.8065
12.3057
16.1826
28.0275
39.8117
45.9169
51.4381
55.8627
59.0352
61.793
63.963
65.7341
67.1635
68.479
69.6677
70.7664
71.8289
72.8615
73.8692
74.8551
75.8154
76.767
77.7051
78.62
79.52
80.3513
81.0007
81.3608
7.96148
11.6018
13.9418
10.6532
11.915
18.3771
19.2136
13.0838
17.0722
37.1958
45.7721
51.6193
56.3195
59.3544
61.7744
63.7312
65.4783
66.9026
68.1761
69.3601
70.4524
71.4873
72.4804
73.4363
74.3622
75.254
76.1288
76.9696
77.8007
78.5687
79.2082
79.5103
11.2001
15.3077
15.4674
14.9257
12.2319
15.4113
17.4487
17.4914
15.9544
19.7252
36.5886
45.769
51.231
55.9288
59.1965
61.7022
63.5179
65.1417
66.5262
67.7316
68.8534
69.9
70.8805
71.8053
72.6722
73.5222
74.3508
75.158
75.9594
76.7046
77.2693
77.5817
19.1001
23.4816
25.1949
25.7851
24.8306
22.2471
20.2525
22.093
20.3273
8.32372
12.2474
34.6481
46.1424
51.6905
55.8075
58.6963
61.2041
63.0343
64.5855
65.9606
67.1444
68.2037
69.1697
70.0544
70.8775
71.6379
72.374
73.0552
73.7655
74.4195
74.9817
75.1928
21.3942
26.2909
28.8941
30.7345
31.6903
31.5373
29.9017
26.7586
21.5358
19.7762
20.5834
20.8597
35.9006
45.583
51.3183
55.6514
58.2623
60.5517
62.3244
63.7287
64.9742
66.0653
67.0212
67.8633
68.593
69.2967
69.9743
70.6502
71.3188
71.9391
72.3991
72.6516
22.1824
27.1838
30.0214
32.2525
33.8396
34.7522
34.9034
34.0318
31.655
26.2061
28.7808
10.2287
10.0817
35.4871
45.1494
50.1746
54.6343
57.2812
59.4112
61.202
62.5797
63.7039
64.6406
65.4184
66.0778
66.6291
67.1373
67.5317
68.0746
68.5777
69.0226
69.0698
21.6866
26.8344
29.851
32.339
34.2617
35.609
36.3782
36.5512
36.0048
34.1862
29.9471
22.0728
9.70734
6.82457
33.9945
44.8706
49.0923
53.1852
55.8451
57.6266
59.1298
60.3375
61.2661
61.9728
62.4543
62.9105
63.3526
63.9266
64.3913
64.7051
65.1061
65.2466
20.3499
25.6291
28.7476
31.3864
33.522
35.1562
36.3121
37.0278
37.3376
37.1666
35.9244
32.4915
25.63
15.8676
14.635
31.8826
43.5012
47.2206
50.6413
53.4833
55.3145
56.5761
57.4674
58.0366
58.3779
58.4957
58.5259
58.1499
58.4582
58.8977
58.9835
58.6931
18.5013
23.877
27.0313
29.7323
31.9749
33.775
35.1632
36.1968
36.9531
37.4924
37.724
37.0895
33.1597
30.234
19.3209
15.8948
26.4557
39.3673
44.168
46.5665
48.5566
50.1326
50.9516
51.4371
51.2288
51.3505
51.2738
52.8693
53.0213
51.2517
52.7683
52.0481
16.3625
21.7284
24.8198
27.4816
29.7352
31.6195
33.1779
34.4687
35.5735
36.5682
37.4574
38.0268
37.3562
33.5436
29.4735
20.1398
18.912
22.739
33.1859
39.4826
42.2309
43.8907
44.3823
44.4521
44.2759
42.7855
41.6318
37.3159
37.988
40.3051
38.7931
37.7566
14.1777
19.3971
22.3221
24.8426
27.0122
28.8922
30.5417
32.0253
33.4188
34.7978
36.1828
37.4655
38.267
37.6748
33.9728
23.7595
26.6625
19.4811
9.72983
16.3618
22.6072
24.8785
26.5474
25.9305
22.6311
23.1059
18.2656
28.4629
27.8731
5.3635
23.619
12.5301
12.2212
17.1711
19.8519
22.1567
24.1716
25.976
27.6402
29.2307
30.8135
32.4527
34.1847
35.9517
37.5345
38.4851
38.0171
34.3076
26.5345
25.3229
12.7429
17.6472
28.1232
23.1167
7.01794
30.2658
13.5372
30.349
17.5564
31.4739
35.4388
13.9766
32.5155
23.9481
10.6986
15.3009
17.7153
19.7815
21.6139
23.305
24.9283
26.5444
28.2052
29.9574
31.8424
33.8586
35.8995
37.6753
38.6966
38.339
34.7973
29.5561
25.6463
27.0876
16.9569
25.4756
16.7596
27.9078
29.8383
34.6008
32.0885
27.6521
37.2384
33.5128
38.554
28.1843
9.5713
13.928
16.1141
17.9774
19.6542
21.2395
22.7996
24.3807
26.0187
27.7472
29.605
31.6257
33.7995
35.9913
37.8654
38.9519
38.6106
37.1788
34.1832
30.3217
27.9523
24.862
26.4024
27.8548
30.7494
33.8108
36.5783
36.375
34.5404
38.6066
35.8351
39.5541
8.97668
13.1411
15.1663
16.8984
18.4809
19.9985
21.4999
23.0128
24.5588
26.1645
27.8672
29.715
31.7492
33.9571
36.1893
38.1155
39.2708
39.6653
39.1115
37.7171
37.6054
36.7839
37.9864
38.8098
38.3578
40.4183
42.0223
41.9932
39.9854
42.1644
40.8156
42.8332
8.81345
12.8906
14.846
16.532
18.0888
19.5835
21.0449
22.4851
23.9162
25.3616
26.8574
28.4517
30.2004
32.1503
34.2934
36.4933
38.4407
39.8683
40.4692
40.3471
40.5571
40.515
41.0842
41.6136
40.5813
41.6654
42.5558
42.8115
41.3672
42.354
42.1976
43.1978
9.00876
13.0792
15.0393
16.7478
18.3318
19.8395
21.283
22.6652
23.9954
25.295
26.5965
27.9414
29.3803
30.9725
32.7705
34.7777
36.8749
38.8279
40.2261
40.9165
41.3718
41.5587
41.8283
42.0564
41.0558
41.5339