/*--------------------------------*- C++ -*----------------------------------*\
  =========                 |
  \\      /  F ield         | OpenFOAM: The Open Source CFD Toolbox
   \\    /   O peration     | Website:  https://openfoam.org
    \\  /    A nd           | Version:  6
     \\/     M anipulation  |
\*---------------------------------------------------------------------------*/
FoamFile
{
    version     2.0;
    format      ascii;
    class       volScalarField;
    location    "10";
    object      p;
}
// * * * * * * * * * * * * * * * * * * * * * * * * * * * * * * * * * * * * * //

dimensions      [0 2 -2 0 0 0 0];

internalField   nonuniform List<scalar> 
380496
(
0.0141079
0.0145818
0.014182
0.0140813
0.01397
0.0138556
0.0137473
0.0136386
0.0135305
0.0134233
0.0133173
0.0132126
0.0131094
0.0130076
0.0129071
0.0128079
0.0127095
0.0126117
0.012514
0.012416
0.0123172
0.012217
0.0121148
0.0120099
0.0119016
0.0117893
0.0116724
0.0115498
0.0114216
0.0112863
0.0111455
0.010995
0.0108449
0.0106762
0.0105374
0.0140836
0.0145503
0.0141626
0.0140662
0.0139581
0.0138454
0.0137372
0.0136277
0.0135178
0.0134081
0.0132989
0.0131905
0.013083
0.0129765
0.0128707
0.0127656
0.012661
0.0125563
0.0124514
0.0123457
0.0122388
0.01213
0.012019
0.011905
0.0117876
0.0116659
0.0115398
0.0114081
0.0112711
0.0111265
0.0109773
0.0108157
0.0106567
0.010464
0.0103151
0.014056
0.0145178
0.0141413
0.0140498
0.0139447
0.0138333
0.0137247
0.0136135
0.013501
0.013388
0.0132748
0.0131618
0.0130492
0.0129369
0.0128249
0.012713
0.0126009
0.0124883
0.0123748
0.01226
0.0121434
0.0120245
0.0119028
0.0117777
0.0116489
0.0115155
0.0113775
0.0112337
0.0110849
0.0109286
0.0107689
0.0105966
0.0104313
0.0102304
0.010085
0.0140205
0.0144825
0.0141198
0.0140348
0.0139338
0.0138243
0.0137157
0.0136034
0.0134888
0.013373
0.0132565
0.0131396
0.0130226
0.0129055
0.0127883
0.0126706
0.0125524
0.0124332
0.0123128
0.0121906
0.0120663
0.0119394
0.0118095
0.0116761
0.0115388
0.0113969
0.0112506
0.0110985
0.0109418
0.0107777
0.0106107
0.0104304
0.0102585
0.0100472
0.0098962
0.0139882
0.0144448
0.0140986
0.0140206
0.0139237
0.0138159
0.013707
0.0135931
0.013476
0.013357
0.0132368
0.0131157
0.012994
0.0128718
0.012749
0.0126254
0.0125008
0.0123748
0.0122471
0.0121173
0.0119851
0.01185
0.0117116
0.0115695
0.0114234
0.0112727
0.0111176
0.010957
0.0107919
0.0106198
0.0104456
0.0102583
0.0100814
0.00986474
0.00971345
0.0139426
0.0144045
0.0140771
0.0140077
0.0139159
0.0138101
0.0137009
0.0135856
0.0134661
0.0133442
0.0132205
0.0130956
0.0129697
0.0128429
0.0127152
0.0125863
0.0124561
0.0123241
0.0121902
0.0120539
0.0119149
0.0117729
0.0116274
0.0114782
0.011325
0.0111673
0.0110053
0.010838
0.0106667
0.0104885
0.0103089
0.0101163
0.00993523
0.00971328
0.00955962
0.0138944
0.0143622
0.0140563
0.0139967
0.0139102
0.0138061
0.0136965
0.0135793
0.0134573
0.0133322
0.0132049
0.0130761
0.0129459
0.0128146
0.012682
0.012548
0.0124122
0.0122745
0.0121345
0.011992
0.0118465
0.0116978
0.0115456
0.0113896
0.0112297
0.0110653
0.0108968
0.0107233
0.0105462
0.0103625
0.0101781
0.009981
0.00979673
0.00957134
0.00941741
0.0138361
0.014319
0.0140375
0.0139888
0.0139077
0.013805
0.0136946
0.0135754
0.0134507
0.0133225
0.0131919
0.0130594
0.0129253
0.0127899
0.0126528
0.0125141
0.0123735
0.0122307
0.0120853
0.0119373
0.0117862
0.0116317
0.0114738
0.011312
0.0111464
0.0109766
0.0108028
0.0106244
0.0104426
0.0102547
0.0100666
0.00986608
0.00967951
0.00945119
0.00929706
0.0137664
0.0142759
0.0140203
0.0139838
0.0139085
0.0138067
0.0136951
0.0135738
0.0134463
0.0133151
0.0131812
0.0130453
0.0129077
0.0127685
0.0126275
0.0124847
0.0123397
0.0121924
0.0120424
0.0118896
0.0117336
0.0115743
0.0114115
0.0112448
0.0110745
0.0109
0.0107219
0.0105393
0.0103538
0.0101624
0.00997149
0.00976828
0.00958018
0.00934967
0.00919607
0.0136966
0.0142409
0.0140088
0.0139836
0.0139126
0.0138107
0.0136976
0.0135739
0.0134438
0.0133098
0.0131731
0.0130342
0.0128936
0.0127512
0.012607
0.0124607
0.0123122
0.0121612
0.0120075
0.0118508
0.0116909
0.0115277
0.0113609
0.0111904
0.0110163
0.0108383
0.0106568
0.0104712
0.0102828
0.010089
0.00989605
0.00969094
0.00950195
0.00926965
0.00911693
0.0136048
0.0142058
0.0139981
0.0139859
0.0139196
0.0138171
0.013702
0.0135759
0.013443
0.0133062
0.0131667
0.0130251
0.0128816
0.0127364
0.0125892
0.0124399
0.0122882
0.012134
0.011977
0.0118169
0.0116536
0.011487
0.0113168
0.0111431
0.0109658
0.0107848
0.0106005
0.0104123
0.0102216
0.0100258
0.00983134
0.00962474
0.00943533
0.00920156
0.00905033
0.0135114
0.0141821
0.0139938
0.0139935
0.0139298
0.0138254
0.0137078
0.0135788
0.0134432
0.0133038
0.0131617
0.0130177
0.0128717
0.0127239
0.0125742
0.0124223
0.0122679
0.012111
0.0119511
0.0117882
0.011622
0.0114525
0.0112796
0.0111031
0.0109232
0.0107398
0.0105532
0.010363
0.0101706
0.0099733
0.00977774
0.00957004
0.00938057
0.00914548
0.00899613
0.0133873
0.0141627
0.013991
0.0140044
0.013943
0.0138359
0.0137154
0.0135834
0.0134449
0.0133029
0.0131584
0.013012
0.0128637
0.0127137
0.0125617
0.0124075
0.0122508
0.0120915
0.0119292
0.0117639
0.0115953
0.0114234
0.0112481
0.0110694
0.0108873
0.0107019
0.0105135
0.0103217
0.0101279
0.00992947
0.00973318
0.00952477
0.00933556
0.00909953
0.00895262
0.0132576
0.0141594
0.0139946
0.0140201
0.0139583
0.0138472
0.0137233
0.0135881
0.0134469
0.0133025
0.0131558
0.0130074
0.0128572
0.0127053
0.0125514
0.0123952
0.0122366
0.0120753
0.011911
0.0117437
0.0115731
0.0113992
0.011222
0.0110415
0.0108577
0.0106707
0.0104808
0.0102878
0.010093
0.00989376
0.00969698
0.00948812
0.0092992
0.00906237
0.00891771
0.0130953
0.0141684
0.0140018
0.0140406
0.0139771
0.0138608
0.013733
0.0135943
0.0134502
0.0133034
0.0131547
0.0130044
0.0128525
0.0126989
0.0125434
0.0123856
0.0122253
0.0120623
0.0118964
0.0117274
0.0115552
0.0113798
0.011201
0.011019
0.0108338
0.0106456
0.0104546
0.0102606
0.0100651
0.00986539
0.00966836
0.00945951
0.00927108
0.00903456
0.00889233
0.0129145
0.0141972
0.0140135
0.0140633
0.0139952
0.0138732
0.0137415
0.0135996
0.013453
0.0133042
0.0131538
0.013002
0.0128487
0.0126938
0.0125369
0.0123778
0.0122163
0.012052
0.0118848
0.0117145
0.011541
0.0113643
0.0111843
0.0110012
0.010815
0.0106257
0.010434
0.0102393
0.0100433
0.00984328
0.00964605
0.00943737
0.00924871
0.00901255
0.00886982
0.0127112
0.0142462
0.0140317
0.0140931
0.0140177
0.0138885
0.0137521
0.0136067
0.0134575
0.0133067
0.0131547
0.0130015
0.012847
0.0126909
0.012533
0.0123728
0.0122102
0.0120449
0.0118767
0.0117053
0.0115309
0.0113532
0.0111723
0.0109883
0.0108013
0.0106114
0.0104191
0.0102239
0.0100276
0.00982756
0.0096304
0.00942252
0.00923419
0.00900121
0.00885858
0.0124714
0.014318
0.0140491
0.014119
0.0140352
0.0138999
0.01376
0.0136119
0.0134608
0.0133085
0.0131553
0.0130012
0.0128458
0.0126889
0.0125302
0.0123693
0.0122059
0.0120398
0.0118709
0.0116988
0.0115237
0.0113453
0.0111638
0.0109791
0.0107916
0.0106012
0.0104085
0.010213
0.0100166
0.00981654
0.00961928
0.00941215
0.00922213
0.00899111
0.00883811
0.0122274
0.0144059
0.0140774
0.0141556
0.0140599
0.0139168
0.0137721
0.0136207
0.0134673
0.0133134
0.013159
0.0130038
0.0128476
0.0126899
0.0125305
0.0123689
0.012205
0.0120383
0.0118689
0.0116963
0.0115207
0.0113417
0.0111599
0.0109747
0.010787
0.0105961
0.0104033
0.0102076
0.0100113
0.00981135
0.00961449
0.00940875
0.00922001
0.00899622
0.00884507
0.0119614
0.0145091
0.0141006
0.0141844
0.0140776
0.013929
0.0137811
0.0136275
0.0134726
0.0133176
0.0131623
0.0130064
0.0128496
0.0126914
0.0125316
0.0123696
0.0122053
0.0120382
0.0118684
0.0116955
0.0115196
0.0113403
0.0111583
0.0109729
0.0107849
0.0105939
0.010401
0.0102052
0.0100089
0.00980911
0.00961223
0.00940751
0.00921567
0.00899522
0.00881202
0.0117106
0.014617
0.0141467
0.0142284
0.0141067
0.0139497
0.0137963
0.013639
0.0134816
0.0133249
0.0131683
0.0130114
0.0128539
0.0126952
0.0125349
0.0123726
0.012208
0.0120407
0.0118708
0.0116976
0.0115217
0.0113423
0.0111602
0.0109747
0.0107868
0.0105957
0.0104029
0.0102071
0.010011
0.00981136
0.00961515
0.00941128
0.00922466
0.00901149
0.00887574
0.014111
0.0145747
0.014182
0.0140817
0.0139701
0.0138557
0.0137473
0.0136386
0.0135305
0.0134233
0.0133173
0.0132126
0.0131094
0.0130076
0.0129071
0.0128079
0.0127095
0.0126117
0.012514
0.012416
0.0123172
0.012217
0.0121148
0.0120099
0.0119017
0.0117893
0.0116724
0.0115499
0.0114217
0.0112863
0.0111455
0.0109951
0.010845
0.0106763
0.0105375
0.0140865
0.0145433
0.0141626
0.0140666
0.0139582
0.0138455
0.0137372
0.0136277
0.0135178
0.0134081
0.0132989
0.0131905
0.013083
0.0129765
0.0128707
0.0127657
0.012661
0.0125563
0.0124514
0.0123457
0.0122388
0.01213
0.012019
0.011905
0.0117877
0.011666
0.0115399
0.0114081
0.0112711
0.0111266
0.0109774
0.0108158
0.0106569
0.0104641
0.0103152
0.0140588
0.014511
0.0141414
0.0140502
0.0139448
0.0138334
0.0137247
0.0136135
0.013501
0.013388
0.0132748
0.0131618
0.0130492
0.0129369
0.0128249
0.012713
0.0126009
0.0124883
0.0123748
0.01226
0.0121434
0.0120245
0.0119028
0.0117777
0.0116489
0.0115155
0.0113775
0.0112337
0.0110849
0.0109287
0.010769
0.0105967
0.0104314
0.0102305
0.0100851
0.0140233
0.0144757
0.0141199
0.0140351
0.0139339
0.0138244
0.0137157
0.0136034
0.0134888
0.013373
0.0132565
0.0131396
0.0130226
0.0129056
0.0127883
0.0126707
0.0125524
0.0124332
0.0123128
0.0121906
0.0120664
0.0119394
0.0118096
0.0116761
0.0115389
0.011397
0.0112506
0.0110986
0.0109419
0.0107778
0.0106108
0.0104305
0.0102586
0.0100473
0.0098963
0.0139907
0.0144382
0.0140986
0.0140209
0.0139238
0.013816
0.013707
0.0135931
0.013476
0.013357
0.0132368
0.0131157
0.012994
0.0128718
0.012749
0.0126254
0.0125008
0.0123748
0.0122471
0.0121173
0.0119851
0.01185
0.0117117
0.0115695
0.0114235
0.0112728
0.0111177
0.010957
0.010792
0.0106199
0.0104457
0.0102584
0.0100815
0.00986486
0.00971354
0.0139451
0.0143981
0.0140772
0.0140081
0.013916
0.0138101
0.0137009
0.0135856
0.0134661
0.0133442
0.0132205
0.0130956
0.0129697
0.012843
0.0127152
0.0125863
0.0124561
0.0123242
0.0121902
0.0120539
0.011915
0.0117729
0.0116275
0.0114782
0.011325
0.0111673
0.0110054
0.0108381
0.0106668
0.0104886
0.010309
0.0101165
0.00993535
0.00971342
0.00955971
0.0138967
0.0143559
0.0140564
0.013997
0.0139103
0.0138061
0.0136965
0.0135793
0.0134573
0.0133322
0.0132049
0.0130761
0.0129459
0.0128146
0.012682
0.012548
0.0124122
0.0122745
0.0121346
0.011992
0.0118465
0.0116978
0.0115457
0.0113896
0.0112297
0.0110654
0.0108969
0.0107234
0.0105462
0.0103626
0.0101782
0.00998111
0.00979685
0.00957147
0.00941749
0.0138383
0.0143129
0.0140376
0.0139891
0.0139078
0.013805
0.0136946
0.0135754
0.0134507
0.0133225
0.0131919
0.0130594
0.0129253
0.0127899
0.0126529
0.0125142
0.0123735
0.0122307
0.0120854
0.0119373
0.0117862
0.0116318
0.0114738
0.0113121
0.0111465
0.0109767
0.0108029
0.0106245
0.0104427
0.0102548
0.0100667
0.0098662
0.00967964
0.00945133
0.00929716
0.0137685
0.01427
0.0140203
0.0139841
0.0139086
0.0138067
0.0136951
0.0135738
0.0134463
0.0133151
0.0131812
0.0130453
0.0129077
0.0127685
0.0126275
0.0124847
0.0123397
0.0121924
0.0120425
0.0118896
0.0117337
0.0115744
0.0114115
0.0112449
0.0110745
0.0109001
0.010722
0.0105394
0.0103539
0.0101625
0.00997159
0.0097684
0.0095803
0.00934981
0.00919616
0.0136984
0.0142352
0.0140089
0.0139838
0.0139127
0.0138107
0.0136976
0.0135739
0.0134438
0.0133098
0.0131731
0.0130342
0.0128936
0.0127512
0.012607
0.0124607
0.0123122
0.0121613
0.0120075
0.0118508
0.011691
0.0115277
0.0113609
0.0111905
0.0110164
0.0108384
0.0106569
0.0104712
0.0102829
0.0100891
0.00989616
0.00969106
0.00950208
0.0092698
0.00911701
0.0136066
0.0142003
0.0139982
0.0139862
0.0139196
0.0138171
0.013702
0.0135758
0.013443
0.0133062
0.0131667
0.0130251
0.0128816
0.0127364
0.0125892
0.0124399
0.0122882
0.012134
0.011977
0.011817
0.0116537
0.011487
0.0113169
0.0111431
0.0109659
0.0107849
0.0106006
0.0104123
0.0102217
0.0100259
0.00983145
0.00962486
0.00943545
0.00920171
0.0090504
0.0135129
0.0141769
0.0139938
0.0139937
0.0139298
0.0138253
0.0137078
0.0135788
0.0134432
0.0133038
0.0131617
0.0130176
0.0128717
0.012724
0.0125742
0.0124223
0.0122679
0.012111
0.0119511
0.0117882
0.011622
0.0114526
0.0112796
0.0111032
0.0109233
0.0107399
0.0105533
0.0103631
0.0101707
0.0099734
0.00977785
0.00957017
0.00938069
0.00914563
0.0089962
0.0133889
0.0141577
0.0139911
0.0140046
0.013943
0.0138359
0.0137153
0.0135833
0.0134448
0.0133028
0.0131583
0.0130119
0.0128637
0.0127137
0.0125617
0.0124075
0.0122508
0.0120915
0.0119292
0.0117639
0.0115953
0.0114234
0.0112481
0.0110694
0.0108874
0.010702
0.0105136
0.0103218
0.010128
0.00992958
0.00973329
0.00952489
0.00933569
0.00909969
0.00895268
0.0132588
0.0141547
0.0139946
0.0140202
0.0139583
0.0138471
0.0137233
0.0135881
0.0134469
0.0133025
0.0131558
0.0130074
0.0128572
0.0127053
0.0125514
0.0123952
0.0122366
0.0120753
0.011911
0.0117437
0.0115731
0.0113993
0.011222
0.0110415
0.0108577
0.0106708
0.0104809
0.0102879
0.0100931
0.00989388
0.00969709
0.00948825
0.00929933
0.00906254
0.00891777
0.0130964
0.014164
0.0140018
0.0140408
0.0139771
0.0138608
0.0137329
0.0135943
0.0134502
0.0133034
0.0131547
0.0130044
0.0128525
0.0126989
0.0125434
0.0123856
0.0122253
0.0120624
0.0118964
0.0117275
0.0115553
0.0113798
0.0112011
0.0110191
0.0108339
0.0106457
0.0104547
0.0102607
0.0100653
0.00986552
0.00966849
0.00945965
0.00927122
0.00903474
0.00889241
0.0129154
0.0141932
0.0140134
0.0140634
0.0139952
0.0138731
0.0137414
0.0135996
0.013453
0.0133042
0.0131538
0.013002
0.0128487
0.0126938
0.0125369
0.0123779
0.0122163
0.012052
0.0118848
0.0117146
0.0115411
0.0113644
0.0111844
0.0110013
0.0108151
0.0106258
0.0104341
0.0102394
0.0100434
0.00984342
0.0096462
0.00943753
0.00924887
0.00901275
0.0088699
0.0127118
0.0142425
0.0140315
0.0140931
0.0140176
0.0138884
0.013752
0.0136066
0.0134574
0.0133067
0.0131547
0.0130015
0.012847
0.0126909
0.012533
0.0123729
0.0122103
0.012045
0.0118768
0.0117054
0.011531
0.0113533
0.0111725
0.0109884
0.0108015
0.0106115
0.0104192
0.0102241
0.0100278
0.00982773
0.00963058
0.00942271
0.00923438
0.00900144
0.00885871
0.0124721
0.0143146
0.0140489
0.014119
0.0140351
0.0138999
0.0137599
0.0136119
0.0134608
0.0133086
0.0131554
0.0130012
0.0128459
0.012689
0.0125303
0.0123694
0.0122061
0.0120399
0.011871
0.011699
0.0115238
0.0113454
0.011164
0.0109793
0.0107918
0.0106013
0.0104087
0.0102132
0.0100168
0.00981673
0.00961948
0.00941235
0.00922233
0.00899134
0.00883824
0.0122263
0.0144034
0.0140771
0.0141556
0.0140599
0.0139169
0.0137722
0.0136208
0.0134675
0.0133136
0.0131592
0.0130039
0.0128477
0.0126901
0.0125307
0.0123691
0.0122052
0.0120385
0.011869
0.0116964
0.0115208
0.0113419
0.01116
0.0109749
0.0107871
0.0105963
0.0104035
0.0102078
0.0100114
0.00981152
0.00961467
0.00940893
0.00922021
0.00899643
0.00884527
0.0119587
0.0145082
0.0141007
0.0141848
0.014078
0.0139293
0.0137813
0.0136276
0.0134727
0.0133177
0.0131624
0.0130065
0.0128497
0.0126915
0.0125316
0.0123696
0.0122053
0.0120382
0.0118685
0.0116955
0.0115196
0.0113404
0.0111583
0.0109729
0.010785
0.0105939
0.0104011
0.0102052
0.0100089
0.00980916
0.00961229
0.00940755
0.00921574
0.00899523
0.00881207
0.0117249
0.0146203
0.0141462
0.0142273
0.0141055
0.0139485
0.0137953
0.0136381
0.0134809
0.0133242
0.0131677
0.0130109
0.0128534
0.0126947
0.0125345
0.0123722
0.0122076
0.0120403
0.0118704
0.0116973
0.0115213
0.0113419
0.0111598
0.0109744
0.0107864
0.0105954
0.0104026
0.0102068
0.0100106
0.00981098
0.00961475
0.00941087
0.00922424
0.00901105
0.0088751
0.0141194
0.0145693
0.0141819
0.0140818
0.0139702
0.0138557
0.0137473
0.0136386
0.0135305
0.0134233
0.0133173
0.0132126
0.0131094
0.0130076
0.0129071
0.0128079
0.0127095
0.0126117
0.012514
0.012416
0.0123172
0.012217
0.0121148
0.0120099
0.0119017
0.0117893
0.0116724
0.0115499
0.0114217
0.0112863
0.0111455
0.0109951
0.010845
0.0106763
0.0105376
0.0140948
0.014538
0.0141625
0.0140666
0.0139583
0.0138455
0.0137372
0.0136277
0.0135178
0.0134081
0.0132989
0.0131905
0.013083
0.0129765
0.0128708
0.0127657
0.012661
0.0125564
0.0124514
0.0123457
0.0122388
0.0121301
0.0120191
0.0119051
0.0117877
0.011666
0.0115399
0.0114082
0.0112712
0.0111267
0.0109775
0.0108159
0.0106569
0.0104641
0.0103153
0.0140669
0.0145058
0.0141413
0.0140502
0.0139449
0.0138334
0.0137247
0.0136135
0.013501
0.013388
0.0132748
0.0131618
0.0130492
0.0129369
0.0128249
0.012713
0.0126009
0.0124883
0.0123748
0.01226
0.0121434
0.0120245
0.0119028
0.0117777
0.0116489
0.0115155
0.0113775
0.0112337
0.011085
0.0109287
0.010769
0.0105967
0.0104314
0.0102305
0.0100852
0.0140314
0.0144706
0.0141198
0.0140352
0.013934
0.0138244
0.0137158
0.0136034
0.0134888
0.013373
0.0132565
0.0131396
0.0130227
0.0129056
0.0127883
0.0126707
0.0125524
0.0124333
0.0123128
0.0121906
0.0120664
0.0119395
0.0118096
0.0116761
0.0115389
0.011397
0.0112507
0.0110987
0.010942
0.0107778
0.0106109
0.0104306
0.0102587
0.0100473
0.0098964
0.0139985
0.0144332
0.0140985
0.014021
0.0139239
0.013816
0.013707
0.0135931
0.013476
0.013357
0.0132367
0.0131157
0.012994
0.0128718
0.012749
0.0126254
0.0125008
0.0123748
0.0122471
0.0121173
0.0119852
0.01185
0.0117117
0.0115695
0.0114235
0.0112728
0.0111177
0.0109571
0.010792
0.0106199
0.0104457
0.0102585
0.0100816
0.00986489
0.00971362
0.0139528
0.0143932
0.0140771
0.0140082
0.013916
0.0138101
0.0137009
0.0135856
0.0134661
0.0133442
0.0132205
0.0130956
0.0129697
0.012843
0.0127152
0.0125864
0.0124561
0.0123242
0.0121902
0.0120539
0.011915
0.0117729
0.0116275
0.0114783
0.0113251
0.0111674
0.0110054
0.0108381
0.0106668
0.0104887
0.0103091
0.0101165
0.00993542
0.00971347
0.00955982
0.0139043
0.0143511
0.0140563
0.0139971
0.0139104
0.0138062
0.0136965
0.0135793
0.0134573
0.0133322
0.0132049
0.0130761
0.0129459
0.0128146
0.012682
0.012548
0.0124122
0.0122745
0.0121346
0.011992
0.0118465
0.0116978
0.0115457
0.0113897
0.0112297
0.0110654
0.0108969
0.0107235
0.0105463
0.0103627
0.0101782
0.00998115
0.0097969
0.00957152
0.00941759
0.0138456
0.0143082
0.0140375
0.0139892
0.0139079
0.0138051
0.0136946
0.0135754
0.0134507
0.0133225
0.0131919
0.0130594
0.0129253
0.0127899
0.0126529
0.0125142
0.0123735
0.0122307
0.0120854
0.0119373
0.0117862
0.0116318
0.0114739
0.0113121
0.0111465
0.0109767
0.010803
0.0106245
0.0104427
0.0102549
0.0100668
0.00986625
0.0096797
0.00945139
0.00929726
0.0137757
0.0142655
0.0140203
0.0139842
0.0139086
0.0138067
0.0136951
0.0135738
0.0134463
0.0133151
0.0131812
0.0130453
0.0129077
0.0127685
0.0126275
0.0124847
0.0123397
0.0121924
0.0120425
0.0118897
0.0117337
0.0115744
0.0114115
0.0112449
0.0110746
0.0109001
0.010722
0.0105394
0.0103539
0.0101626
0.00997164
0.00976845
0.00958037
0.00934986
0.00919626
0.0137054
0.0142308
0.0140088
0.0139839
0.0139127
0.0138107
0.0136976
0.0135739
0.0134438
0.0133098
0.013173
0.0130342
0.0128936
0.0127512
0.012607
0.0124607
0.0123122
0.0121613
0.0120075
0.0118509
0.011691
0.0115277
0.011361
0.0111905
0.0110164
0.0108384
0.0106569
0.0104713
0.010283
0.0100892
0.00989621
0.00969111
0.00950214
0.00926985
0.00911712
0.0136134
0.0141961
0.0139981
0.0139862
0.0139197
0.0138171
0.013702
0.0135758
0.013443
0.0133062
0.0131667
0.0130251
0.0128816
0.0127364
0.0125892
0.0124399
0.0122882
0.012134
0.011977
0.011817
0.0116537
0.011487
0.0113169
0.0111432
0.0109659
0.0107849
0.0106006
0.0104124
0.0102218
0.010026
0.0098315
0.00962491
0.00943551
0.00920176
0.00905051
0.0135195
0.0141728
0.0139937
0.0139937
0.0139299
0.0138253
0.0137077
0.0135788
0.0134432
0.0133038
0.0131617
0.0130176
0.0128717
0.0127239
0.0125742
0.0124223
0.0122679
0.012111
0.0119511
0.0117882
0.0116221
0.0114526
0.0112796
0.0111032
0.0109233
0.0107399
0.0105533
0.0103631
0.0101708
0.00997345
0.0097779
0.00957022
0.00938075
0.00914569
0.00899631
0.0133953
0.0141537
0.013991
0.0140047
0.013943
0.0138358
0.0137153
0.0135833
0.0134448
0.0133028
0.0131583
0.0130119
0.0128637
0.0127137
0.0125617
0.0124075
0.0122508
0.0120915
0.0119292
0.0117639
0.0115953
0.0114234
0.0112481
0.0110695
0.0108874
0.010702
0.0105136
0.0103218
0.0101281
0.00992963
0.00973334
0.00952495
0.00933575
0.00909975
0.0089528
0.0132648
0.014151
0.0139946
0.0140203
0.0139583
0.0138471
0.0137232
0.013588
0.0134468
0.0133024
0.0131558
0.0130073
0.0128572
0.0127053
0.0125513
0.0123952
0.0122366
0.0120753
0.011911
0.0117437
0.0115731
0.0113993
0.0112221
0.0110416
0.0108578
0.0106708
0.010481
0.0102879
0.0100932
0.00989393
0.00969715
0.00948831
0.0092994
0.00906261
0.00891789
0.0131023
0.0141605
0.0140018
0.0140408
0.013977
0.0138607
0.0137329
0.0135942
0.0134501
0.0133033
0.0131546
0.0130043
0.0128525
0.0126989
0.0125433
0.0123856
0.0122253
0.0120623
0.0118964
0.0117275
0.0115553
0.0113798
0.0112011
0.0110191
0.0108339
0.0106457
0.0104548
0.0102608
0.0100653
0.00986559
0.00966857
0.00945973
0.00927131
0.00903483
0.00889255
0.0129209
0.0141899
0.0140133
0.0140633
0.0139951
0.013873
0.0137413
0.0135995
0.0134529
0.0133041
0.0131537
0.0130019
0.0128487
0.0126938
0.0125369
0.0123779
0.0122163
0.012052
0.0118849
0.0117146
0.0115411
0.0113644
0.0111845
0.0110013
0.0108151
0.0106259
0.0104342
0.0102395
0.0100435
0.00984351
0.00964629
0.00943763
0.00924897
0.00901286
0.00887005
0.0127169
0.0142396
0.0140314
0.014093
0.0140175
0.0138883
0.0137519
0.0136065
0.0134574
0.0133066
0.0131546
0.0130015
0.012847
0.012691
0.012533
0.0123729
0.0122103
0.012045
0.0118768
0.0117055
0.0115311
0.0113534
0.0111725
0.0109885
0.0108015
0.0106116
0.0104193
0.0102242
0.0100279
0.00982785
0.0096307
0.00942283
0.00923452
0.00900159
0.00885891
0.0124769
0.014312
0.0140487
0.0141189
0.014035
0.0138998
0.0137599
0.0136119
0.0134608
0.0133086
0.0131555
0.0130013
0.012846
0.0126891
0.0125304
0.0123695
0.0122061
0.0120401
0.0118711
0.0116991
0.0115239
0.0113455
0.0111641
0.0109794
0.0107919
0.0106014
0.0104088
0.0102133
0.0100169
0.00981687
0.00961962
0.00941248
0.00922248
0.00899148
0.0088384
0.01223
0.0144015
0.0140769
0.0141555
0.0140599
0.013917
0.0137724
0.013621
0.0134676
0.0133138
0.0131593
0.0130041
0.0128479
0.0126902
0.0125308
0.0123692
0.0122053
0.0120386
0.0118691
0.0116965
0.0115209
0.011342
0.0111601
0.010975
0.0107872
0.0105964
0.0104036
0.0102079
0.0100115
0.00981163
0.00961479
0.00940904
0.00922034
0.00899655
0.00884548
0.0119607
0.0145083
0.0141011
0.0141853
0.0140784
0.0139296
0.0137815
0.0136278
0.0134729
0.0133178
0.0131625
0.0130065
0.0128497
0.0126915
0.0125317
0.0123696
0.0122053
0.0120382
0.0118685
0.0116955
0.0115196
0.0113404
0.0111583
0.0109729
0.010785
0.0105939
0.010401
0.0102052
0.0100089
0.00980915
0.00961228
0.00940753
0.00921574
0.00899516
0.00881194
0.0117331
0.0146224
0.0141462
0.0142268
0.0141049
0.0139479
0.0137948
0.0136377
0.0134805
0.0133239
0.0131674
0.0130106
0.0128532
0.0126945
0.0125343
0.012372
0.0122074
0.0120401
0.0118702
0.0116971
0.0115211
0.0113418
0.0111597
0.0109742
0.0107863
0.0105952
0.0104024
0.0102066
0.0100105
0.0098108
0.00961455
0.00941069
0.00922404
0.00901087
0.00887482
0.0141245
0.0145641
0.0141816
0.0140817
0.0139702
0.0138557
0.0137473
0.0136386
0.0135305
0.0134233
0.0133173
0.0132126
0.0131094
0.0130076
0.0129071
0.0128079
0.0127095
0.0126117
0.012514
0.012416
0.0123172
0.012217
0.0121148
0.0120099
0.0119016
0.0117893
0.0116724
0.0115498
0.0114217
0.0112863
0.0111455
0.0109951
0.010845
0.0106763
0.0105377
0.0140998
0.0145329
0.0141622
0.0140665
0.0139583
0.0138455
0.0137373
0.0136277
0.0135178
0.0134081
0.0132989
0.0131905
0.013083
0.0129765
0.0128708
0.0127657
0.012661
0.0125564
0.0124514
0.0123457
0.0122388
0.0121301
0.0120191
0.0119051
0.0117877
0.0116661
0.01154
0.0114082
0.0112712
0.0111267
0.0109775
0.0108159
0.010657
0.0104642
0.0103153
0.0140718
0.0145007
0.014141
0.0140501
0.0139449
0.0138334
0.0137247
0.0136135
0.013501
0.013388
0.0132748
0.0131618
0.0130492
0.0129369
0.0128249
0.012713
0.0126009
0.0124883
0.0123748
0.01226
0.0121434
0.0120245
0.0119028
0.0117777
0.0116489
0.0115155
0.0113775
0.0112337
0.0110849
0.0109287
0.010769
0.0105967
0.0104314
0.0102306
0.0100852
0.0140363
0.0144656
0.0141195
0.0140351
0.013934
0.0138244
0.0137158
0.0136034
0.0134888
0.013373
0.0132565
0.0131396
0.0130226
0.0129056
0.0127883
0.0126707
0.0125524
0.0124333
0.0123128
0.0121906
0.0120664
0.0119395
0.0118096
0.0116762
0.0115389
0.0113971
0.0112507
0.0110987
0.010942
0.0107779
0.0106109
0.0104306
0.0102587
0.0100474
0.00989649
0.0140033
0.0144283
0.0140982
0.0140209
0.0139239
0.013816
0.013707
0.0135931
0.013476
0.013357
0.0132367
0.0131157
0.012994
0.0128718
0.012749
0.0126254
0.0125008
0.0123748
0.0122471
0.0121173
0.0119851
0.01185
0.0117117
0.0115695
0.0114235
0.0112728
0.0111177
0.0109571
0.010792
0.0106199
0.0104457
0.0102585
0.0100816
0.00986491
0.0097137
0.0139575
0.0143883
0.0140768
0.0140081
0.0139161
0.0138101
0.013701
0.0135856
0.0134661
0.0133442
0.0132205
0.0130956
0.0129697
0.012843
0.0127152
0.0125863
0.0124561
0.0123242
0.0121902
0.012054
0.011915
0.0117729
0.0116275
0.0114783
0.0113251
0.0111674
0.0110054
0.0108382
0.0106668
0.0104887
0.0103091
0.0101165
0.00993543
0.00971352
0.00955992
0.0139089
0.0143464
0.014056
0.013997
0.0139104
0.0138062
0.0136965
0.0135793
0.0134573
0.0133322
0.0132049
0.0130761
0.0129459
0.0128146
0.012682
0.012548
0.0124122
0.0122745
0.0121346
0.011992
0.0118465
0.0116978
0.0115457
0.0113897
0.0112297
0.0110654
0.0108969
0.0107235
0.0105463
0.0103627
0.0101782
0.00998117
0.00979691
0.00957155
0.0094177
0.0138501
0.0143036
0.0140372
0.0139891
0.0139079
0.0138051
0.0136946
0.0135754
0.0134507
0.0133225
0.0131919
0.0130594
0.0129253
0.0127899
0.0126528
0.0125141
0.0123735
0.0122307
0.0120854
0.0119373
0.0117862
0.0116318
0.0114739
0.0113121
0.0111465
0.0109767
0.010803
0.0106245
0.0104427
0.0102549
0.0100668
0.00986628
0.00967971
0.00945143
0.00929739
0.0137801
0.014261
0.01402
0.0139841
0.0139086
0.0138067
0.0136951
0.0135738
0.0134463
0.0133151
0.0131812
0.0130453
0.0129077
0.0127685
0.0126275
0.0124847
0.0123397
0.0121924
0.0120425
0.0118897
0.0117337
0.0115744
0.0114115
0.0112449
0.0110746
0.0109001
0.010722
0.0105395
0.0103539
0.0101626
0.00997165
0.00976848
0.00958037
0.0093499
0.00919639
0.0137097
0.0142264
0.0140086
0.0139838
0.0139128
0.0138108
0.0136975
0.0135739
0.0134438
0.0133098
0.013173
0.0130342
0.0128935
0.0127512
0.0126069
0.0124607
0.0123122
0.0121613
0.0120075
0.0118508
0.011691
0.0115277
0.0113609
0.0111905
0.0110164
0.0108384
0.0106569
0.0104713
0.010283
0.0100892
0.00989622
0.00969114
0.00950215
0.0092699
0.00911726
0.0136177
0.0141918
0.0139979
0.0139862
0.0139197
0.0138171
0.013702
0.0135758
0.0134429
0.0133062
0.0131666
0.0130251
0.0128816
0.0127364
0.0125892
0.0124399
0.0122882
0.012134
0.011977
0.0118169
0.0116537
0.011487
0.0113169
0.0111432
0.0109659
0.0107849
0.0106006
0.0104124
0.0102218
0.010026
0.00983151
0.00962494
0.00943552
0.00920181
0.00905066
0.0135236
0.0141687
0.0139935
0.0139937
0.0139299
0.0138253
0.0137077
0.0135787
0.0134431
0.0133037
0.0131617
0.0130176
0.0128716
0.0127239
0.0125741
0.0124222
0.0122679
0.0121109
0.0119511
0.0117882
0.011622
0.0114526
0.0112796
0.0111032
0.0109233
0.0107399
0.0105533
0.0103631
0.0101708
0.00997347
0.0097779
0.00957025
0.00938076
0.00914574
0.00899646
0.0133992
0.0141498
0.0139908
0.0140046
0.013943
0.0138358
0.0137153
0.0135833
0.0134448
0.0133028
0.0131583
0.0130119
0.0128637
0.0127137
0.0125617
0.0124075
0.0122508
0.0120915
0.0119292
0.0117639
0.0115953
0.0114234
0.0112481
0.0110695
0.0108874
0.010702
0.0105136
0.0103218
0.0101281
0.00992965
0.00973335
0.00952498
0.00933576
0.0090998
0.00895296
0.0132686
0.0141472
0.0139944
0.0140202
0.0139583
0.013847
0.0137231
0.013588
0.0134468
0.0133024
0.0131557
0.0130073
0.0128571
0.0127052
0.0125513
0.0123952
0.0122365
0.0120752
0.011911
0.0117437
0.0115731
0.0113993
0.0112221
0.0110416
0.0108578
0.0106708
0.010481
0.0102879
0.0100932
0.00989395
0.00969716
0.00948835
0.00929941
0.00906267
0.00891808
0.0131059
0.0141569
0.0140016
0.0140407
0.013977
0.0138606
0.0137328
0.0135941
0.01345
0.0133032
0.0131545
0.0130043
0.0128524
0.0126988
0.0125433
0.0123855
0.0122253
0.0120623
0.0118964
0.0117275
0.0115553
0.0113798
0.0112011
0.0110191
0.0108339
0.0106457
0.0104548
0.0102608
0.0100653
0.00986562
0.00966859
0.00945978
0.00927133
0.0090349
0.00889275
0.0129244
0.0141867
0.0140132
0.0140632
0.013995
0.0138729
0.0137412
0.0135994
0.0134528
0.013304
0.0131537
0.0130019
0.0128486
0.0126937
0.0125369
0.0123778
0.0122163
0.012052
0.0118848
0.0117146
0.0115411
0.0113644
0.0111845
0.0110013
0.0108151
0.0106259
0.0104342
0.0102395
0.0100436
0.00984355
0.00964633
0.00943769
0.00924901
0.00901295
0.00887028
0.0127201
0.0142367
0.0140312
0.0140928
0.0140174
0.0138881
0.0137518
0.0136064
0.0134573
0.0133066
0.0131546
0.0130014
0.012847
0.012691
0.012533
0.0123729
0.0122103
0.012045
0.0118768
0.0117055
0.0115311
0.0113534
0.0111726
0.0109885
0.0108016
0.0106117
0.0104194
0.0102242
0.010028
0.00982791
0.00963077
0.00942291
0.00923458
0.0090017
0.00885915
0.0124798
0.0143094
0.0140486
0.0141187
0.0140349
0.0138997
0.0137598
0.0136118
0.0134608
0.0133086
0.0131555
0.0130014
0.012846
0.0126891
0.0125304
0.0123695
0.0122062
0.0120401
0.0118712
0.0116991
0.011524
0.0113456
0.0111641
0.0109794
0.010792
0.0106015
0.0104088
0.0102134
0.010017
0.00981694
0.0096197
0.00941257
0.00922255
0.00899158
0.0088386
0.0122324
0.0144
0.014077
0.0141555
0.01406
0.013917
0.0137724
0.0136211
0.0134677
0.0133138
0.0131594
0.0130042
0.0128479
0.0126903
0.0125309
0.0123693
0.0122054
0.0120386
0.0118692
0.0116966
0.011521
0.011342
0.0111602
0.010975
0.0107873
0.0105964
0.0104036
0.0102079
0.0100116
0.00981167
0.00961483
0.00940908
0.00922038
0.00899661
0.00884561
0.0119626
0.0145088
0.0141014
0.0141855
0.0140786
0.0139297
0.0137816
0.0136278
0.0134729
0.0133178
0.0131625
0.0130065
0.0128497
0.0126915
0.0125316
0.0123696
0.0122053
0.0120382
0.0118684
0.0116954
0.0115196
0.0113403
0.0111583
0.0109728
0.0107849
0.0105939
0.010401
0.0102052
0.0100089
0.00980909
0.00961221
0.00940746
0.00921567
0.00899506
0.00881142
0.0117317
0.0146237
0.0141469
0.0142268
0.0141049
0.0139479
0.0137947
0.0136376
0.0134804
0.0133238
0.0131674
0.0130106
0.0128532
0.0126945
0.0125343
0.0123719
0.0122074
0.0120401
0.0118702
0.0116971
0.0115211
0.0113418
0.0111597
0.0109742
0.0107863
0.0105952
0.0104024