/*--------------------------------*- C++ -*----------------------------------*\
  =========                 |
  \\      /  F ield         | OpenFOAM: The Open Source CFD Toolbox
   \\    /   O peration     | Website:  https://openfoam.org
    \\  /    A nd           | Version:  6
     \\/     M anipulation  |
\*---------------------------------------------------------------------------*/
FoamFile
{
    version     2.0;
    format      ascii;
    class       volVectorField;
    location    "32";
    object      wallShearStress;
}
// * * * * * * * * * * * * * * * * * * * * * * * * * * * * * * * * * * * * * //

dimensions      [0 2 -2 0 0 0 0];

internalField   uniform (0 0 0);

boundaryField
{
    inlet
    {
        type            calculated;
        value           uniform (0 0 0);
    }
    outlet
    {
        type            calculated;
        value           uniform (0 0 0);
    }
    roughCylinder
    {
        type            calculated;
        value           nonuniform List<vector> 
5120
(
(-0.000240879 -0.000341952 -0.000172092)
(-0.000295249 -0.000444034 -3.93838e-05)
(-0.000328403 -0.000534778 1.66224e-06)
(-0.000373392 -0.000621195 5.53026e-05)
(-0.000429064 -0.000695546 0.000116529)
(-0.000491938 -0.000753524 0.000177545)
(-0.000558451 -0.000792683 0.000234077)
(-0.000624007 -0.000813677 0.000283475)
(-0.000684752 -0.000819205 0.000323794)
(-0.000739071 -0.000814652 0.000354655)
(-0.000787474 -0.000808534 0.000377955)
(-0.000829752 -0.000804837 0.00039499)
(-0.000863736 -0.000804321 0.000404862)
(-0.00089245 -0.000808864 0.000408529)
(-0.000917072 -0.000817816 0.000407067)
(-0.000938924 -0.000830476 0.000401479)
(-0.000959344 -0.000846112 0.00039277)
(-0.000979468 -0.000864105 0.000381763)
(-0.00100018 -0.000884033 0.000369081)
(-0.00102205 -0.000905614 0.000355099)
(-0.00104539 -0.000928696 0.000339998)
(-0.0010703 -0.000953149 0.000323787)
(-0.00109672 -0.000978859 0.000306375)
(-0.0011245 -0.00100566 0.000287579)
(-0.00115337 -0.0010333 0.000267147)
(-0.00118303 -0.00106148 0.000244747)
(-0.00121304 -0.00108974 0.000219911)
(-0.00124283 -0.00111745 0.000191977)
(-0.00127155 -0.00114372 0.000159886)
(-0.00129776 -0.00116718 0.000122222)
(-0.00131881 -0.00118612 7.7059e-05)
(-0.00133071 -0.0011973 2.60145e-05)
(-0.000258686 -0.000330802 -0.00016251)
(-0.000316156 -0.000430244 -4.18681e-05)
(-0.000351801 -0.000519796 -4.0185e-06)
(-0.00039882 -0.000606037 4.63736e-05)
(-0.000456106 -0.000681442 0.000105141)
(-0.000520462 -0.000741166 0.000164503)
(-0.000588297 -0.000782394 0.000219972)
(-0.000655304 -0.000805719 0.000268804)
(-0.000718288 -0.000814308 0.000309219)
(-0.00077606 -0.000814041 0.000341273)
(-0.000828435 -0.000811526 0.000366484)
(-0.000874226 -0.000809112 0.000385312)
(-0.000910533 -0.000807107 0.000396051)
(-0.00094069 -0.000810627 0.000400217)
(-0.000966763 -0.000818928 0.000399038)
(-0.000989987 -0.00083126 0.000393658)
(-0.00101175 -0.000846775 0.000385108)
(-0.00103325 -0.000864779 0.000374265)
(-0.00105535 -0.000884785 0.000361774)
(-0.00107868 -0.00090647 0.000348028)
(-0.00110352 -0.000929644 0.000333209)
(-0.00112998 -0.000954176 0.000317339)
(-0.001158 -0.000979939 0.000300321)
(-0.00118739 -0.00100675 0.000281969)
(-0.00121791 -0.00103439 0.000262024)
(-0.00124919 -0.00106252 0.000240148)
(-0.00128079 -0.0010907 0.000215874)
(-0.00131212 -0.00111831 0.000188539)
(-0.00134228 -0.00114445 0.000157095)
(-0.00136976 -0.00116778 0.000120129)
(-0.00139184 -0.0011866 7.57483e-05)
(-0.00140432 -0.00119769 2.55691e-05)
(-0.000276406 -0.000314764 -0.000146148)
(-0.000336636 -0.000411285 -4.48565e-05)
(-0.000374561 -0.000498897 -1.03441e-05)
(-0.000423207 -0.000584298 3.6592e-05)
(-0.000481813 -0.000660238 9.2607e-05)
(-0.000547495 -0.000721495 0.000150081)
(-0.000616738 -0.000764988 0.000204428)
(-0.000685577 -0.000791332 0.000252871)
(-0.00075131 -0.000803884 0.00029383)
(-0.000812721 -0.00080806 0.000327369)
(-0.000868824 -0.000808766 0.000354266)
(-0.000917687 -0.000807622 0.000374299)
(-0.000957228 -0.000805183 0.000386137)
(-0.000988941 -0.000807435 0.000390811)
(-0.00101653 -0.000814913 0.000389917)
(-0.00104121 -0.000826751 0.000384784)
(-0.00106442 -0.000841996 0.00037645)
(-0.00108735 -0.000859865 0.000365826)
(-0.00111091 -0.000879792 0.000353578)
(-0.00113573 -0.00090142 0.000340119)
(-0.00116211 -0.000924532 0.000325644)
(-0.00119015 -0.000948977 0.000310176)
(-0.00121978 -0.000974612 0.00029361)
(-0.0012508 -0.00100126 0.000275759)
(-0.00128294 -0.0010287 0.000256358)
(-0.00131583 -0.00105659 0.000235066)
(-0.00134901 -0.0010845 0.000211413)
(-0.00138185 -0.00111181 0.000184737)
(-0.00141343 -0.00113765 0.000154005)
(-0.00144214 -0.00116066 0.00011781)
(-0.00146522 -0.00117924 7.42954e-05)
(-0.00147826 -0.00119017 2.50769e-05)
(-0.000292077 -0.000294847 -0.000125546)
(-0.000354673 -0.000387944 -4.7914e-05)
(-0.000394455 -0.000472922 -1.69204e-05)
(-0.000444173 -0.000556875 2.63783e-05)
(-0.000503698 -0.000632897 7.93794e-05)
(-0.000570524 -0.000695537 0.000134707)
(-0.000641283 -0.000741523 0.000187789)
(-0.0007123 -0.000771416 0.000235882)
(-0.00078106 -0.000788396 0.000277525)
(-0.000846066 -0.000796978 0.00031256)
(-0.000905713 -0.0008007 0.000341013)
(-0.000957832 -0.000801044 0.000362153)
(-0.00100107 -0.000799343 0.000375281)
(-0.00103486 -0.000799903 0.000380498)
(-0.00106405 -0.000806459 0.000379978)
(-0.00109032 -0.000817659 0.000375152)
(-0.00111505 -0.000832494 0.000367093)
(-0.00113948 -0.000850101 0.00035675)
(-0.00116456 -0.000869846 0.000344812)
(-0.0011909 -0.000891308 0.0003317)
(-0.00121882 -0.000914233 0.000317621)
(-0.00124842 -0.000938455 0.0003026)
(-0.00127963 -0.00096383 0.000286533)
(-0.00131222 -0.000990168 0.000269227)
(-0.00134592 -0.00101724 0.000250412)
(-0.00138034 -0.00104473 0.000229741)
(-0.00141501 -0.0010722 0.000206743)
(-0.00144926 -0.00109906 0.00018076)
(-0.00148216 -0.00112444 0.000150774)
(-0.00151203 -0.00114701 0.000115385)
(-0.00153604 -0.00116525 7.27767e-05)
(-0.00154958 -0.00117594 2.45639e-05)
(-0.000304881 -0.000271555 -0.000102799)
(-0.000369427 -0.000360695 -5.07156e-05)
(-0.000410574 -0.000442396 -2.34105e-05)
(-0.0004608 -0.000524298 1.60625e-05)
(-0.000520842 -0.000599932 6.57579e-05)
(-0.000588676 -0.000663807 0.00011863)
(-0.000661098 -0.00071248 0.000170241)
(-0.000734582 -0.000746227 0.00021792)
(-0.000806517 -0.00076769 0.000260199)
(-0.000874981 -0.000780382 0.000296575)
(-0.000938018 -0.000786901 0.000326465)
(-0.000993516 -0.000788827 0.000348769)
(-0.00104013 -0.000788092 0.000362962)
(-0.00107743 -0.000787848 0.000369165)
(-0.00110846 -0.000793122 0.000369202)
(-0.00113645 -0.000803433 0.000364764)
(-0.00116281 -0.000817708 0.000357081)
(-0.00118881 -0.000834908 0.000347096)
(-0.00121542 -0.000854307 0.000335529)
(-0.00124327 -0.000875451 0.000322823)
(-0.00127272 -0.000898047 0.000309201)
(-0.00130384 -0.000921898 0.000294682)
(-0.00133654 -0.000946849 0.000279161)
(-0.00137064 -0.000972714 0.000262445)
(-0.0014058 -0.000999259 0.000244254)
(-0.00144165 -0.00102618 0.000224238)
(-0.00147768 -0.00105305 0.000201928)
(-0.00151323 -0.00107927 0.000176663)
(-0.00154734 -0.00110404 0.000147448)
(-0.00157824 -0.00112603 0.000112889)
(-0.00160309 -0.00114379 7.12157e-05)
(-0.00161707 -0.00115418 2.40382e-05)
(-0.000314586 -0.000246068 -7.94745e-05)
(-0.000380589 -0.000330719 -5.31121e-05)
(-0.000422557 -0.000408599 -2.96127e-05)
(-0.000472713 -0.000487895 5.86733e-06)
(-0.00053284 -0.000562679 5.19531e-05)
(-0.000601484 -0.000627576 0.00010203)
(-0.000675583 -0.000678925 0.000151906)
(-0.000751623 -0.000716514 0.000199003)
(-0.000826774 -0.000742241 0.00024177)
(-0.000898693 -0.000758672 0.000279298)
(-0.000965181 -0.00076781 0.000310497)
(-0.00102418 -0.000771353 0.000334012)
(-0.00107438 -0.000771637 0.000349244)
(-0.00111573 -0.000771616 0.000356657)
(-0.00114936 -0.000775143 0.000357457)
(-0.00117923 -0.00078448 0.000353599)
(-0.00120734 -0.000797892 0.000346375)
(-0.00123498 -0.000814456 0.000336842)
(-0.00126318 -0.000833366 0.000325735)
(-0.00129257 -0.000854044 0.000313518)
(-0.00132351 -0.000876152 0.000300411)
(-0.0013561 -0.000899473 0.00028645)
(-0.00139024 -0.000923836 0.000271529)
(-0.00142572 -0.000949056 0.000255444)
(-0.00146223 -0.000974904 0.000237915)
(-0.00149935 -0.00100107 0.000218585)
(-0.00153661 -0.00102716 0.000196986)
(-0.0015733 -0.00105259 0.000172462)
(-0.00160846 -0.00107658 0.00014404)
(-0.00164028 -0.00109784 0.000110331)
(-0.00166589 -0.00111502 6.96184e-05)
(-0.00168022 -0.00112507 2.35022e-05)
(-0.000320204 -0.000218833 -5.65387e-05)
(-0.000387143 -0.000298528 -5.49491e-05)
(-0.00042935 -0.000372043 -3.53375e-05)
(-0.000478797 -0.000448148 -4.04806e-06)
(-0.000538482 -0.000521562 3.8079e-05)
(-0.000607644 -0.000587175 8.49498e-05)
(-0.00068339 -0.000641131 0.000132742)
(-0.000762094 -0.000682525 0.000179011)
(-0.000840561 -0.000712323 0.00022205)
(-0.00091603 -0.000732205 0.00026051)
(-0.000986096 -0.000743816 0.000292887)
(-0.00104877 -0.000749006 0.000317649)
(-0.00110279 -0.000750359 0.000334055)
(-0.00114813 -0.000750973 0.000342639)
(-0.00118594 -0.000753865 0.000344691)
(-0.00121794 -0.000761201 0.000341533)
(-0.00124799 -0.000773655 0.000334939)
(-0.00127745 -0.00078942 0.000325978)
(-0.00130726 -0.00080761 0.000315425)
(-0.00133818 -0.000827625 0.000303767)
(-0.00137059 -0.000849082 0.000291252)
(-0.00140459 -0.000871726 0.000277913)
(-0.00144007 -0.000895361 0.000263645)
(-0.00147684 -0.000919798 0.000248242)
(-0.00151455 -0.0009448 0.000231414)
(-0.00155282 -0.000970084 0.000212803)
(-0.00159115 -0.000995256 0.000191943)
(-0.00162883 -0.00101976 0.000168179)
(-0.0016649 -0.00104284 0.000140569)
(-0.00169748 -0.00106326 0.000107726)
(-0.00172372 -0.00107975 6.79926e-05)
(-0.00173834 -0.00108939 2.29591e-05)
(-0.000321653 -0.000190804 -3.48886e-05)
(-0.000388905 -0.00026512 -5.62105e-05)
(-0.000430763 -0.000333841 -4.04766e-05)
(-0.000478853 -0.000406228 -1.34992e-05)
(-0.000537495 -0.000477718 2.43525e-05)
(-0.000606755 -0.000543613 6.75947e-05)
(-0.000683877 -0.000599837 0.000112884)
(-0.000765045 -0.000644678 0.000157946)
(-0.00084672 -0.000678165 0.000200907)
(-0.00092582 -0.00070125 0.000240034)
(-0.000999722 -0.000715283 0.000273463)
(-0.00106635 -0.000722208 0.000299491)
(-0.00112448 -0.000724742 0.000317261)
(-0.00117393 -0.000726004 0.000327142)
(-0.00121575 -0.00072887 0.000330428)
(-0.00125169 -0.00073506 0.000328491)
(-0.00128386 -0.00074566 0.000322682)
(-0.00131523 -0.000760109 0.000314414)
(-0.00134678 -0.000777434 0.000304557)
(-0.00137931 -0.00079665 0.000293571)
(-0.00141317 -0.00081731 0.000281731)
(-0.0014485 -0.000839125 0.000269084)
(-0.00148522 -0.000861879 0.000255529)
(-0.00152312 -0.000885373 0.000240854)
(-0.00156187 -0.000909385 0.000224766)
(-0.00160108 -0.000933629 0.000206902)
(-0.00164026 -0.000957732 0.000186803)
(-0.00167871 -0.000981202 0.000163818)
(-0.00171547 -0.00100329 0.000137034)
(-0.00174866 -0.00102277 0.000105073)
(-0.00177542 -0.00103852 6.63403e-05)
(-0.00179021 -0.00104777 2.24106e-05)
(-0.000317804 -0.000162127 -1.50441e-05)
(-0.00038479 -0.000230761 -5.6742e-05)
(-0.000425669 -0.00029422 -4.48498e-05)
(-0.000471656 -0.000362289 -2.22893e-05)
(-0.000528491 -0.00043115 1.09555e-05)
(-0.000597219 -0.000496714 5.00775e-05)
(-0.000675388 -0.000554798 9.23507e-05)
(-0.000758988 -0.000602871 0.000135739)
(-0.000844031 -0.000639932 0.000178234)
(-0.000926975 -0.000666125 0.00021773)
(-0.00100495 -0.000682544 0.000252048)
(-0.00107581 -0.000691216 0.000279321)
(-0.00113826 -0.00069498 0.00029856)
(-0.00119208 -0.000696965 0.000309974)
(-0.00123804 -0.000699896 0.000314653)
(-0.00127782 -0.000705556 0.000314009)
(-0.00131351 -0.000714874 0.000309392)
(-0.00134761 -0.000728023 0.00030219)
(-0.00138095 -0.000743967 0.000293159)
(-0.00141504 -0.000762054 0.000282938)
(-0.0014503 -0.000781721 0.00027187)
(-0.00148689 -0.000802582 0.000259999)
(-0.00152472 -0.000824378 0.000247226)
(-0.00156359 -0.000846894 0.000233337)
(-0.00160318 -0.000869897 0.000218032)
(-0.00164313 -0.000893106 0.00020095)
(-0.00168296 -0.000916158 0.000181635)
(-0.0017219 -0.000938528 0.000159434)
(-0.00175909 -0.000959514 0.000133477)
(-0.00179265 -0.000977968 0.000102398)
(-0.00181972 -0.00099289 6.46768e-05)
(-0.00183445 -0.00100166 2.18605e-05)
(-0.000309154 -0.000134042 2.37909e-06)
(-0.000374941 -0.000196306 -5.67784e-05)
(-0.000414274 -0.000254503 -4.83994e-05)
(-0.000457557 -0.000317738 -3.02308e-05)
(-0.000511802 -0.000383316 -1.80465e-06)
(-0.000579276 -0.000447837 3.27679e-05)
(-0.000657915 -0.000507155 7.14528e-05)
(-0.000743466 -0.000557881 0.000112564)
(-0.000831537 -0.00059805 0.000154031)
(-0.00091833 -0.00062717 0.000193495)
(-0.00100067 -0.000646004 0.000228502)
(-0.00107616 -0.000656515 0.000256989)
(-0.00114335 -0.000661586 0.000277808)
(-0.00120179 -0.00066429 0.000290932)
(-0.00125212 -0.000667325 0.000297249)
(-0.0012958 -0.000672504 0.000298072)
(-0.001335 -0.000680946 0.000294822)
(-0.00137189 -0.000692915 0.000288835)
(-0.00140761 -0.000707541 0.000280888)
(-0.0014436 -0.000724442 0.000271666)
(-0.00148031 -0.000742958 0.000261513)
(-0.001518 -0.000762688 0.000250512)
(-0.00155668 -0.000783344 0.000238584)
(-0.00159615 -0.000804693 0.000225521)
(-0.00163616 -0.0008265 0.000211025)
(-0.00167636 -0.000848483 0.000194737)
(-0.00171631 -0.000870287 0.000176214)
(-0.00175535 -0.000891379 0.000154811)
(-0.00179265 -0.000911106 0.000129716)
(-0.00182632 -0.000928442 9.9565e-05)
(-0.00185355 -0.000942472 6.29144e-05)
(-0.00186809 -0.000950665 2.12793e-05)
(-0.000292756 -0.000106019 1.69804e-05)
(-0.000359166 -0.000162488 -5.59773e-05)
(-0.000395542 -0.000214873 -5.10567e-05)
(-0.000435183 -0.000272634 -3.707e-05)
(-0.000485779 -0.00033404 -1.36053e-05)
(-0.000550927 -0.000396526 1.5943e-05)
(-0.000629252 -0.000456285 5.03463e-05)
(-0.000716532 -0.000509334 8.84673e-05)
(-0.000807904 -0.000552665 0.000128321)
(-0.000898873 -0.00058483 0.000167313)
(-0.000985882 -0.000606172 0.000202745)
(-0.00106633 -0.000618579 0.000232356)
(-0.00113853 -0.000624905 0.00025478)
(-0.00120196 -0.000628323 0.000269774)
(-0.00125695 -0.000631461 0.00027797)
(-0.00130489 -0.000636239 0.000280547)
(-0.00134771 -0.000643821 0.000278876)
(-0.00138759 -0.000654655 0.000274291)
(-0.00142568 -0.000667992 0.000267596)
(-0.00146343 -0.000683573 0.00025951)
(-0.00150153 -0.000700802 0.00025041)
(-0.00154023 -0.000719239 0.000240396)
(-0.00157959 -0.000738582 0.000229407)
(-0.00161947 -0.000758583 0.000217245)
(-0.00165964 -0.000779012 0.000203616)
(-0.00169984 -0.000799589 0.000188171)
(-0.00173968 -0.000819984 0.000170481)
(-0.00177856 -0.000839674 0.000149919)
(-0.00181574 -0.000858076 0.000125734)
(-0.00184929 -0.000874221 9.65625e-05)
(-0.00187644 -0.000887273 6.10436e-05)
(-0.0018907 -0.000894846 2.06643e-05)
(-0.000269917 -7.92136e-05 2.87261e-05)
(-0.000337449 -0.000130483 -5.43843e-05)
(-0.000370608 -0.000176741 -5.27708e-05)
(-0.000405743 -0.0002287 -4.26355e-05)
(-0.000451728 -0.000285215 -2.40545e-05)
(-0.000513497 -0.000344714 1.66359e-07)
(-0.000590594 -0.00040402 2.96437e-05)
(-0.000678741 -0.000458597 6.3945e-05)
(-0.000772588 -0.000504443 0.000101353)
(-0.00086746 -0.000539451 0.000139238)
(-0.000959347 -0.000563415 0.000174721)
(-0.00104515 -0.000577874 0.00020531)
(-0.00112294 -0.000585616 0.000229392)
(-0.00119171 -0.000589687 0.000246385)
(-0.00125175 -0.000592872 0.000256683)
(-0.00130415 -0.000597148 0.000261257)
(-0.00135091 -0.000603868 0.000261437)
(-0.00139384 -0.000613456 0.000258462)
(-0.00143442 -0.000625446 0.000253225)
(-0.00147412 -0.000639657 0.000246468)
(-0.00151356 -0.00065546 0.000238564)
(-0.00155315 -0.000672465 0.000229658)
(-0.00159302 -0.000690348 0.000219709)
(-0.00163306 -0.000708863 0.00020853)
(-0.00167311 -0.00072777 0.000195828)
(-0.00171298 -0.000746813 0.000181272)
(-0.00175234 -0.000765658 0.000164453)
(-0.00179069 -0.000783826 0.000144766)
(-0.00182738 -0.000800784 0.000121532)
(-0.00186048 -0.000815655 9.33852e-05)
(-0.00188739 -0.000827696 5.90648e-05)
(-0.0019012 -0.000834594 2.00162e-05)
(-0.0002401 -5.44018e-05 3.74069e-05)
(-0.000308002 -0.000100148 -5.17673e-05)
(-0.000338055 -0.000140254 -5.3231e-05)
(-0.000367964 -0.000185988 -4.65429e-05)
(-0.000408063 -0.000236632 -3.2655e-05)
(-0.000464822 -0.000291761 -1.39933e-05)
(-0.000539123 -0.000349261 9.83763e-06)
(-0.000627412 -0.000404711 3.93533e-05)
(-0.000724092 -0.000453284 7.34346e-05)
(-0.00082326 -0.000491464 0.000109517)
(-0.000920314 -0.000518304 0.000144573)
(-0.00101185 -0.000535032 0.000175892)
(-0.00109542 -0.000544185 0.000201536)
(-0.00117002 -0.000548961 0.000220642)
(-0.00123545 -0.000552113 0.00023324)
(-0.0012928 -0.000555861 0.000240108)
(-0.00134365 -0.000561566 0.000242393)
(-0.00139001 -0.000569871 0.000241321)
(-0.00143319 -0.000580395 0.000237768)
(-0.00147469 -0.000593029 0.000232499)
(-0.00151542 -0.000607276 0.000225953)
(-0.00155578 -0.000622718 0.000218292)
(-0.00159595 -0.000639025 0.000209492)
(-0.0016359 -0.000655943 0.000199383)
(-0.00167552 -0.000673238 0.000187674)
(-0.00171474 -0.000690655 0.000174057)
(-0.0017533 -0.000707896 0.000158152)
(-0.00179084 -0.0007245 0.000139379)
(-0.0018268 -0.000739996 0.000117139)
(-0.00185921 -0.000753575 9.00601e-05)
(-0.00188561 -0.000764548 5.6992e-05)
(-0.00189883 -0.000770767 1.93408e-05)
(-0.000205155 -3.28906e-05 4.2928e-05)
(-0.00027203 -7.25998e-05 -4.82504e-05)
(-0.000299503 -0.000106901 -5.25416e-05)
(-0.000324157 -0.000146405 -4.87846e-05)
(-0.00035755 -0.000190603 -3.90863e-05)
(-0.000407995 -0.000240294 -2.58201e-05)
(-0.000478279 -0.000294842 -8.09354e-06)
(-0.000565259 -0.000350018 1.56827e-05)
(-0.000662865 -0.000400128 4.52897e-05)
(-0.000765482 -0.000441126 7.85817e-05)
(-0.000867682 -0.000471037 0.00011252)
(-0.000965155 -0.000490304 0.000144159)
(-0.00105521 -0.000501266 0.000171269)
(-0.00113595 -0.000506802 0.000192514)
(-0.00120728 -0.000509951 0.00020761)
(-0.00126977 -0.000513 0.000216997)
(-0.00132519 -0.00051764 0.000221701)
(-0.00137503 -0.000524464 0.000222784)
(-0.00142099 -0.000533412 0.000221175)
(-0.0014646 -0.000544441 0.000217649)
(-0.0015066 -0.000557021 0.000212646)
(-0.00154758 -0.000570785 0.000206372)
(-0.00158783 -0.000585424 0.000198834)
(-0.00162738 -0.000600665 0.000189878)
(-0.00166621 -0.000616278 0.000179219)
(-0.00170438 -0.000632015 0.000166577)
(-0.0017417 -0.000647581 0.000151611)
(-0.00177795 -0.000662554 0.000133769)
(-0.00181274 -0.000676519 0.000112551)
(-0.00184405 -0.00068877 8.65758e-05)
(-0.00186976 -0.000698673 5.48208e-05)
(-0.00188223 -0.000704206 1.86369e-05)
(-0.000164701 -1.50399e-05 4.50232e-05)
(-0.000228476 -4.8015e-05 -4.34908e-05)
(-0.000253641 -7.65653e-05 -5.03141e-05)
(-0.000273173 -0.000109698 -4.89535e-05)
(-0.000299181 -0.00014679 -4.2743e-05)
(-0.000341381 -0.000189499 -3.44371e-05)
(-0.000404647 -0.000238854 -2.30568e-05)
(-0.000488451 -0.000292354 -5.99473e-06)
(-0.000587546 -0.000344381 1.78727e-05)
(-0.000693809 -0.000388603 4.71975e-05)
(-0.000801194 -0.000421989 7.91316e-05)
(-0.000905007 -0.00044433 0.00011054)
(-0.00100144 -0.000457268 0.000138759)
(-0.00108891 -0.00046389 0.000162111)
(-0.00116639 -0.000467076 0.000179796)
(-0.00123461 -0.000469505 0.000191968)
(-0.00129463 -0.000472873 0.000199326)
(-0.00134841 -0.000478178 0.000202885)
(-0.00139727 -0.000485413 0.000203479)
(-0.00144271 -0.000494604 0.00020188)
(-0.00148589 -0.000505395 0.000198607)
(-0.00152735 -0.000517408 0.000193877)
(-0.00156745 -0.000530317 0.000187719)
(-0.00160629 -0.000543852 0.000180006)
(-0.00164397 -0.000557768 0.000170455)
(-0.00168071 -0.000571822 0.00015883)
(-0.00171645 -0.000585745 0.000144836)
(-0.00175116 -0.000599144 0.000127954)
(-0.00178452 -0.000611643 0.000107794)
(-0.00181451 -0.000622615 8.29589e-05)
(-0.00183926 -0.000631452 5.25657e-05)
(-0.0018508 -0.000636322 1.79103e-05)
(-0.000121628 -2.08308e-06 4.39285e-05)
(-0.000180092 -2.79432e-05 -3.76306e-05)
(-0.000203834 -5.09819e-05 -4.67014e-05)
(-0.000219419 -7.8087e-05 -4.7373e-05)
(-0.000238031 -0.000108009 -4.37881e-05)
(-0.000271054 -0.000143084 -3.93556e-05)
(-0.00032669 -0.000186429 -3.3889e-05)
(-0.000404717 -0.000236549 -2.4247e-05)
(-0.000500253 -0.000287296 -7.46389e-06)
(-0.000608322 -0.000333925 1.65048e-05)
(-0.000720522 -0.000371065 4.52491e-05)
(-0.000830264 -0.000396852 7.55544e-05)
(-0.000933828 -0.000412574 0.000104444)
(-0.00102795 -0.000420559 0.000129626)
(-0.00111209 -0.000424128 0.000149926)
(-0.00118606 -0.000425932 0.000164995)
(-0.00125134 -0.000428163 0.000175307)
(-0.00130903 -0.000431793 0.000181576)
(-0.00136095 -0.000437236 0.000184642)
(-0.00140867 -0.000444637 0.000185263)
(-0.00145303 -0.000453583 0.000183927)
(-0.00149478 -0.000463788 0.000180894)
(-0.00153445 -0.00047494 0.000176235)
(-0.00157221 -0.000486759 0.000169845)
(-0.00160832 -0.000499005 0.000161447)
(-0.00164317 -0.000511403 0.000150861)
(-0.00167681 -0.000523702 0.000137848)
(-0.00170938 -0.000535524 0.000121927)
(-0.00174077 -0.000546549 0.000102844)
(-0.00176896 -0.000556243 7.91797e-05)
(-0.0017925 -0.000564052 5.02079e-05)
(-0.00180296 -0.000568305 1.71544e-05)
(-7.60613e-05 7.56201e-06 4.06485e-05)
(-0.000126469 -1.08037e-05 -3.01614e-05)
(-0.000147698 -2.80358e-05 -4.10006e-05)
(-0.000159731 -4.8983e-05 -4.2957e-05)
(-0.000172079 -7.13328e-05 -4.11211e-05)
(-0.000194427 -9.71143e-05 -3.95779e-05)
(-0.000235575 -0.000130088 -3.85167e-05)
(-0.000303009 -0.000173965 -3.57382e-05)
(-0.000400833 -0.000227538 -2.78934e-05)
(-0.00051028 -0.000276549 -1.17439e-05)
(-0.000626137 -0.000317843 1.22529e-05)
(-0.000742141 -0.00034818 4.03777e-05)
(-0.000852026 -0.000367148 6.90701e-05)
(-0.000953541 -0.000377404 9.56735e-05)
(-0.00104425 -0.000381708 0.00011836)
(-0.00112452 -0.000383282 0.000136391)
(-0.00119472 -0.000384316 0.000149736)
(-0.00125677 -0.0003864 0.000158984)
(-0.00131181 -0.000390016 0.000164761)
(-0.00136129 -0.000395423 0.000167761)
(-0.00140664 -0.000402468 0.000168548)
(-0.00144849 -0.000410862 0.000167373)
(-0.00148744 -0.000420279 0.000164328)
(-0.00152377 -0.00043044 0.000159351)
(-0.00155788 -0.000441087 0.000152153)
(-0.00159045 -0.000451928 0.000142633)
(-0.00162163 -0.000462725 0.000130624)
(-0.00165187 -0.000473124 0.000115691)
(-0.0016811 -0.000482806 9.77211e-05)
(-0.00170725 -0.000491348 7.52637e-05)
(-0.00172937 -0.000498199 4.77639e-05)
(-0.00173854 -0.000501873 1.63751e-05)
(-3.86419e-05 9.85799e-06 3.36609e-05)
(-7.78767e-05 -1.94768e-06 -2.07602e-05)
(-9.99365e-05 -1.38188e-05 -3.10905e-05)
(-0.000110586 -2.904e-05 -3.74302e-05)
(-0.000117521 -4.58682e-05 -3.61594e-05)
(-0.000134589 -6.47353e-05 -3.34369e-05)
(-0.00017483 -8.86734e-05 -3.29482e-05)
(-0.000249434 -0.000124027 -4.16224e-05)
(-0.000297715 -0.000163158 -4.86955e-05)
(-0.000400606 -0.000216958 -3.65373e-05)
(-0.000520079 -0.000262527 -1.79833e-05)
(-0.000640284 -0.000297442 6.53422e-06)
(-0.000757027 -0.000320983 3.38707e-05)
(-0.000864637 -0.000333967 6.09522e-05)
(-0.000962248 -0.000339879 8.55904e-05)
(-0.00104843 -0.000341604 0.000106348)
(-0.00112441 -0.000342021 0.000122837)
(-0.00119055 -0.000342637 0.000135153)
(-0.00124877 -0.000344528 0.000143839)
(-0.00130062 -0.000348172 0.000149497)
(-0.00134695 -0.000353387 0.000152607)
(-0.00138862 -0.000360008 0.000153431)
(-0.00142653 -0.00036776 0.000152108)
(-0.00146098 -0.000376342 0.00014861)
(-0.00149258 -0.000385497 0.000142636)
(-0.00152233 -0.000394871 0.000134183)
(-0.00155046 -0.000404261 0.000123174)
(-0.00157762 -0.000413269 0.000109207)
(-0.00160408 -0.000421654 9.2367e-05)
(-0.00162769 -0.000429091 7.11532e-05)
(-0.00164803 -0.000435051 4.51922e-05)
(-0.00165579 -0.000438226 1.55583e-05)
(-1.74375e-05 1.03344e-05 2.23489e-05)
(-2.5088e-05 -5.01963e-08 -1.80998e-05)
(-2.80395e-05 -7.71024e-06 -1.9524e-05)
(-3.48229e-05 -1.26773e-05 -1.84058e-05)
(-4.00303e-05 -1.67601e-05 -2.10639e-05)
(-4.30126e-05 -2.26229e-05 -2.41919e-05)
(-5.22712e-05 -3.28185e-05 -4.01772e-05)
(-8.30542e-05 -0.000111827 -3.97918e-05)
(-0.000209698 -0.000130613 5.7538e-07)
(-0.00029067 -0.000148732 -4.62825e-05)
(-0.000404596 -0.000203077 -4.2935e-05)
(-0.00052805 -0.000244825 -2.34544e-05)
(-0.000648707 -0.000273118 6.82492e-07)
(-0.000763824 -0.000290667 2.69433e-05)
(-0.000867616 -0.000299007 5.26149e-05)
(-0.000960082 -0.000301813 7.56792e-05)
(-0.00104054 -0.000301784 9.49954e-05)
(-0.00111109 -0.000301422 0.000110422)
(-0.00117237 -0.000301806 0.000122111)
(-0.00122559 -0.000303621 0.000130473)
(-0.0012725 -0.000307075 0.000136034)
(-0.00131374 -0.000312057 0.00013899)
(-0.0013502 -0.000318261 0.000139476)
(-0.00138239 -0.000325417 0.000137531)
(-0.00141104 -0.000333248 0.000132804)
(-0.00143761 -0.000341328 0.000125427)
(-0.00146236 -0.000349494 0.000115433)
(-0.00148648 -0.000357365 0.000102467)
(-0.00151006 -0.000364638 8.67993e-05)
(-0.00153091 -0.000371128 6.6874e-05)
(-0.00154939 -0.000376354 4.2516e-05)
(-0.00155551 -0.00037908 1.47097e-05)
(5.70926e-06 9.62721e-06 2.02912e-05)
(1.08367e-06 3.87748e-06 -9.31577e-06)
(-1.31304e-06 1.8808e-06 -1.48125e-05)
(-8.41668e-06 -2.77796e-06 -1.86344e-05)
(-1.59222e-05 -9.46288e-06 -2.5345e-05)
(-2.50834e-05 -2.04577e-05 -3.00293e-05)
(-4.23709e-05 -3.80606e-05 -3.71627e-05)
(-3.47092e-05 -4.78498e-05 -4.03787e-05)
(-6.43296e-05 -8.73642e-05 -1.71805e-05)
(-0.000184645 -9.85288e-05 -1.62643e-05)
(-0.000289142 -0.000137303 -5.35236e-05)
(-0.00040425 -0.000185624 -4.50065e-05)
(-0.000531186 -0.000223845 -2.7856e-05)
(-0.000649648 -0.000245902 -4.84201e-06)
(-0.000759496 -0.000258113 2.05732e-05)
(-0.000856996 -0.000262832 4.50138e-05)
(-0.000943358 -0.000263718 6.67954e-05)
(-0.00101756 -0.00026284 8.50506e-05)
(-0.00108166 -0.000262156 9.97067e-05)
(-0.00113711 -0.000262727 0.000110935)
(-0.00118459 -0.00026471 0.000119064)
(-0.00122493 -0.000268232 0.00012423)
(-0.0012596 -0.000273087 0.000126585)
(-0.00128896 -0.000278978 0.000126226)
(-0.00131408 -0.000285656 0.000122725)
(-0.0013369 -0.000292573 0.000116391)
(-0.00135767 -0.000299648 0.000107391)
(-0.00137771 -0.000306383 9.53773e-05)
(-0.00139774 -0.00031257 8.0905e-05)
(-0.00141539 -0.000318191 6.23308e-05)
(-0.00143149 -0.000322774 3.96597e-05)
(-0.00143592 -0.000325127 1.38036e-05)
(2.15145e-05 6.11454e-06 2.49363e-05)
(2.0196e-05 9.56586e-06 7.47755e-06)
(1.0421e-05 1.58104e-05 -7.38475e-06)
(9.044e-06 4.71523e-06 -1.93109e-05)
(3.99817e-06 -3.05911e-06 -1.46526e-05)
(-3.08391e-06 -5.711e-06 -1.29053e-05)
(-1.18613e-05 -9.73664e-06 -8.90828e-06)
(-5.19351e-05 1.48182e-06 -2.5625e-05)
(-4.05685e-05 -2.67898e-05 -4.64005e-05)
(-5.61535e-05 -4.3263e-05 -2.29696e-05)
(-0.000183107 -8.73064e-05 -4.08602e-05)
(-0.000313329 -0.000132196 -5.30607e-05)
(-0.000402374 -0.000169276 -5.08948e-05)
(-0.000527861 -0.00020055 -3.22023e-05)
(-0.000642595 -0.000217692 -8.74552e-06)
(-0.000745423 -0.000225749 1.585e-05)
(-0.000834314 -0.000227729 3.90774e-05)
(-0.000912223 -0.000227333 5.97362e-05)
(-0.000978717 -0.000226172 7.71189e-05)
(-0.00103447 -0.000225627 9.09822e-05)
(-0.00108175 -0.000226423 0.000101643)
(-0.00112084 -0.000228803 0.000109048)
(-0.00115318 -0.000232557 0.000113272)
(-0.00117935 -0.000237416 0.000114524)
(-0.00120054 -0.00024317 0.000112227)
(-0.00121938 -0.000249112 0.000106916)
(-0.00123596 -0.0002553 9.89233e-05)
(-0.00125252 -0.00026123 8.79288e-05)
(-0.00126919 -0.000266539 7.47165e-05)
(-0.0012834 -0.000271375 5.75577e-05)
(-0.00129727 -0.000275585 3.66634e-05)
(-0.00129983 -0.000277598 1.28488e-05)
(3.21001e-05 1.23422e-05 3.58918e-05)
(3.96526e-05 9.53628e-06 -7.06275e-06)
(3.91722e-05 3.34464e-06 -1.26079e-05)
(3.98902e-05 -3.69113e-06 -1.55823e-05)
(3.50663e-05 -1.14333e-05 -1.42646e-05)
(2.44862e-05 -1.54489e-05 -9.35417e-06)
(7.83929e-06 -1.12773e-05 -4.62673e-06)
(-1.24462e-05 -5.76234e-06 -3.75108e-06)
(-2.42247e-05 1.01306e-05 -2.89474e-05)
(-2.07072e-05 -1.68566e-05 -3.78628e-05)
(-4.87099e-05 -3.77828e-05 -3.93172e-05)
(-0.000136295 -0.000131293 -5.25049e-05)
(-0.000281597 -0.000130266 -2.85189e-05)
(-0.000398973 -0.000149417 -5.20831e-05)
(-0.000515599 -0.000175697 -3.36405e-05)
(-0.00062011 -0.000187656 -1.03866e-05)
(-0.00071471 -0.000193171 1.30534e-05)
(-0.000794691 -0.000194044 3.51103e-05)
(-0.000862838 -0.000193256 5.47146e-05)
(-0.000920253 -0.000192666 7.10859e-05)
(-0.000967295 -0.000192852 8.41859e-05)
(-0.00100443 -0.000194432 9.37513e-05)
(-0.00103402 -0.000197421 9.97798e-05)
(-0.00105641 -0.000201456 0.0001026)
(-0.001073 -0.000206449 0.000101407)
(-0.00108737 -0.000211509 9.70343e-05)
(-0.0010992 -0.000216905 9.00118e-05)
(-0.00111077 -0.000221888 7.99399e-05)
(-0.00112323 -0.000226192 6.80235e-05)
(-0.0011339 -0.000230245 5.24051e-05)
(-0.00114481 -0.000234261 3.34009e-05)
(-0.0011455 -0.000235933 1.17974e-05)
(4.30592e-05 1.46176e-05 4.35433e-05)
(5.89116e-05 1.23334e-05 -7.8432e-06)
(6.48197e-05 8.44417e-06 -1.55405e-05)
(6.67497e-05 7.91844e-07 -1.95083e-05)
(6.48222e-05 -8.1371e-06 -2.06283e-05)
(5.85824e-05 -1.62256e-05 -1.95064e-05)
(4.67942e-05 -2.20065e-05 -1.73992e-05)
(3.01322e-05 -2.29901e-05 -1.5577e-05)
(8.11924e-06 -1.94179e-05 -2.00947e-05)
(-1.40481e-05 -1.48531e-05 -3.60437e-05)
(-4.92228e-05 -4.27226e-05 -4.86113e-05)
(-5.81797e-05 -5.60568e-05 -3.63473e-05)
(-0.000131026 -6.837e-05 -3.21978e-05)
(-0.000271604 -0.000100817 -5.86417e-05)
(-0.000388068 -0.000132914 -4.97992e-05)
(-0.000496426 -0.000151276 -3.17888e-05)
(-0.000587999 -0.000159431 -1.01394e-05)
(-0.000669834 -0.000162969 1.23351e-05)
(-0.000738798 -0.000163395 3.33487e-05)
(-0.000794223 -0.000162913 5.15068e-05)
(-0.000839724 -0.000162993 6.66715e-05)
(-0.000874396 -0.000164239 7.82061e-05)
(-0.00090065 -0.000166864 8.58474e-05)
(-0.000918961 -0.000170298 9.0158e-05)
(-0.000930784 -0.000174725 8.99687e-05)
(-0.000940735 -0.000179021 8.64698e-05)
(-0.000948014 -0.000183788 8.04532e-05)
(-0.000956306 -0.000188236 7.1452e-05)
(-0.000965598 -0.000191757 6.09474e-05)
(-0.000972379 -0.000194917 4.69479e-05)
(-0.000980676 -0.000199095 2.9954e-05)
(-0.000979693 -0.000200461 1.06761e-05)
(5.1193e-05 1.41183e-05 4.58276e-05)
(7.19723e-05 1.19553e-05 -6.89508e-06)
(8.17221e-05 8.39256e-06 -1.57251e-05)