/*--------------------------------*- C++ -*----------------------------------*\
  =========                 |
  \\      /  F ield         | OpenFOAM: The Open Source CFD Toolbox
   \\    /   O peration     | Website:  https://openfoam.org
    \\  /    A nd           | Version:  6
     \\/     M anipulation  |
\*---------------------------------------------------------------------------*/
FoamFile
{
    version     2.0;
    format      ascii;
    class       volVectorField;
    location    "37";
    object      wallShearStress;
}
// * * * * * * * * * * * * * * * * * * * * * * * * * * * * * * * * * * * * * //

dimensions      [0 2 -2 0 0 0 0];

internalField   uniform (0 0 0);

boundaryField
{
    inlet
    {
        type            calculated;
        value           uniform (0 0 0);
    }
    outlet
    {
        type            calculated;
        value           uniform (0 0 0);
    }
    roughCylinder
    {
        type            calculated;
        value           nonuniform List<vector> 
5120
(
(-0.000101696 -0.000116273 -5.54274e-05)
(-0.000196474 -0.000306628 -7.80482e-05)
(-0.000277771 -0.000464979 -9.33512e-06)
(-0.00032755 -0.00054354 4.56885e-05)
(-0.000385074 -0.000604893 9.49569e-05)
(-0.000433031 -0.000631736 0.000134884)
(-0.000474864 -0.000639967 0.000165113)
(-0.000506101 -0.000631646 0.000184788)
(-0.000532765 -0.000620012 0.000197633)
(-0.000555991 -0.000611859 0.000207772)
(-0.000576087 -0.000605793 0.000216618)
(-0.000587141 -0.000597242 0.000221124)
(-0.00059366 -0.000589668 0.000222303)
(-0.000599465 -0.000585629 0.00022158)
(-0.000606939 -0.000586352 0.000219627)
(-0.000614852 -0.000590024 0.000215985)
(-0.000619586 -0.000592726 0.000209566)
(-0.000621734 -0.000594536 0.000200892)
(-0.000620096 -0.00059392 0.000189991)
(-0.00062044 -0.000595729 0.000178886)
(-0.000622514 -0.00059953 0.000167602)
(-0.000627422 -0.000605676 0.000156076)
(-0.000627371 -0.000607566 0.000142772)
(-0.000630781 -0.000613515 0.000130136)
(-0.000616048 -0.000601845 0.000113874)
(-0.000638093 -0.000624468 0.000103785)
(-0.000626367 -0.00061514 8.78854e-05)
(-0.000628871 -0.000619096 7.36949e-05)
(-0.000622893 -0.000614757 5.81778e-05)
(-0.000619121 -0.000612411 4.24295e-05)
(-0.000614969 -0.000609376 2.6078e-05)
(-0.000612555 -0.000607644 8.83846e-06)
(-0.000110996 -0.000112829 -5.06217e-05)
(-0.00021814 -0.000306857 -8.58825e-05)
(-0.000298942 -0.000457929 -1.8085e-05)
(-0.000351747 -0.000540719 3.69464e-05)
(-0.000412005 -0.000605429 8.67996e-05)
(-0.000462735 -0.000636119 0.000127971)
(-0.000506486 -0.000646392 0.000158939)
(-0.000539257 -0.000639811 0.00017881)
(-0.000568182 -0.000631244 0.000192527)
(-0.00059379 -0.000625285 0.000204132)
(-0.00061589 -0.000620068 0.000214375)
(-0.000629522 -0.000611688 0.000220213)
(-0.00063842 -0.000605118 0.000222537)
(-0.000645626 -0.000601324 0.000222384)
(-0.000653543 -0.000601623 0.000220528)
(-0.000661483 -0.000604696 0.00021677)
(-0.000666699 -0.000607563 0.000210433)
(-0.000668098 -0.000608695 0.000201538)
(-0.000666062 -0.000607882 0.000190638)
(-0.000667723 -0.000610889 0.000179951)
(-0.00067195 -0.000616482 0.000169147)
(-0.000677016 -0.000622671 0.000157514)
(-0.000675449 -0.000623363 0.000143862)
(-0.000680709 -0.000630945 0.000131546)
(-0.000665792 -0.000619864 0.00011537)
(-0.00068723 -0.000640866 0.000104832)
(-0.000675053 -0.000631827 8.88926e-05)
(-0.000677316 -0.00063555 7.45562e-05)
(-0.000671525 -0.000631723 5.89529e-05)
(-0.000668298 -0.000630166 4.30664e-05)
(-0.000665001 -0.000628203 2.65294e-05)
(-0.000663003 -0.000627023 9.00174e-06)
(-0.000142258 -0.000126449 -5.0058e-05)
(-0.000232851 -0.000292047 -9.06155e-05)
(-0.000320963 -0.000445949 -2.74848e-05)
(-0.000376776 -0.000532639 2.7061e-05)
(-0.000439185 -0.000599957 7.73305e-05)
(-0.000492154 -0.000633884 0.000119527)
(-0.000538317 -0.000647243 0.00015135)
(-0.000574341 -0.00064492 0.00017229)
(-0.000606682 -0.000640775 0.000187663)
(-0.000634605 -0.000636864 0.000200799)
(-0.00065813 -0.000632102 0.000211985)
(-0.000672784 -0.000622839 0.000218552)
(-0.000682008 -0.000614811 0.00022126)
(-0.000690403 -0.00061091 0.000221532)
(-0.000699425 -0.000611274 0.00022)
(-0.000708138 -0.000614355 0.000216408)
(-0.000713186 -0.00061676 0.000210004)
(-0.00071352 -0.000616997 0.000200913)
(-0.000711202 -0.000616105 0.000190145)
(-0.00071441 -0.00062033 0.000179962)
(-0.000720345 -0.000627118 0.000169538)
(-0.000725557 -0.000633339 0.000157905)
(-0.00072358 -0.000633967 0.000144283)
(-0.000731953 -0.00064411 0.000132562)
(-0.00071962 -0.000636036 0.00011696)
(-0.000740864 -0.000655854 0.000106055)
(-0.00073074 -0.000649381 9.03655e-05)
(-0.00073323 -0.000653347 7.58678e-05)
(-0.000727764 -0.000650167 6.00988e-05)
(-0.000724899 -0.000649211 4.39638e-05)
(-0.0007211 -0.000647047 2.70885e-05)
(-0.000718881 -0.000645819 9.19313e-06)
(-0.000131153 -0.000100772 -3.19142e-05)
(-0.000253358 -0.000281799 -9.76584e-05)
(-0.000340865 -0.000427873 -3.69723e-05)
(-0.000399473 -0.00051791 1.62687e-05)
(-0.00046453 -0.000588663 6.67604e-05)
(-0.000520799 -0.000627269 0.000109968)
(-0.000569904 -0.000644605 0.000142695)
(-0.000608636 -0.000646291 0.00016481)
(-0.000643705 -0.000645914 0.000181916)
(-0.000674168 -0.000644344 0.000196741)
(-0.000699911 -0.000640812 0.000209049)
(-0.000718417 -0.000633791 0.00021718)
(-0.000730869 -0.000626263 0.000221078)
(-0.000740796 -0.000622339 0.000221907)
(-0.000749864 -0.000621611 0.000220317)
(-0.000757972 -0.000623442 0.000216471)
(-0.000762983 -0.000625477 0.00021006)
(-0.000763041 -0.000625539 0.000201028)
(-0.000761289 -0.00062525 0.000190597)
(-0.000766754 -0.000631109 0.000180981)
(-0.000773623 -0.00063834 0.00017067)
(-0.000779251 -0.000644839 0.000159066)
(-0.000776661 -0.00064532 0.000145409)
(-0.000786574 -0.00065646 0.000133912)
(-0.000775681 -0.000650146 0.000118612)
(-0.0007942 -0.000666775 0.000107027)
(-0.00078435 -0.000661184 9.13822e-05)
(-0.000785982 -0.000664495 7.67005e-05)
(-0.000780648 -0.000661777 6.08466e-05)
(-0.00077829 -0.000661529 4.45791e-05)
(-0.000775235 -0.000660276 2.75209e-05)
(-0.00077344 -0.000659575 9.34984e-06)
(-0.000205245 -0.000134454 -2.82739e-05)
(-0.000264731 -0.000259654 -0.00010089)
(-0.000358492 -0.000404566 -4.64428e-05)
(-0.000419638 -0.000497493 4.88759e-06)
(-0.00048687 -0.000571138 5.51712e-05)
(-0.000546049 -0.000613968 9.89487e-05)
(-0.000598865 -0.000636416 0.000132591)
(-0.000642153 -0.000644284 0.000156528)
(-0.000681062 -0.000648674 0.000175843)
(-0.00071405 -0.000649359 0.000192427)
(-0.000741855 -0.000646845 0.000205855)
(-0.00076115 -0.000639475 0.000214482)
(-0.00077594 -0.00063201 0.00021932)
(-0.000787283 -0.00062724 0.000220703)
(-0.000797668 -0.000626416 0.000219459)
(-0.000806375 -0.000627914 0.000215774)
(-0.0008109 -0.00062922 0.000209316)
(-0.000810469 -0.00062892 0.000200369)
(-0.000809313 -0.000629162 0.000190322)
(-0.000816418 -0.00063595 0.000181131)
(-0.000822955 -0.000642621 0.000170732)
(-0.000828676 -0.000649142 0.000159213)
(-0.000826728 -0.000650516 0.000145869)
(-0.000838822 -0.000663036 0.000134757)
(-0.000831868 -0.000660284 0.00012014)
(-0.000848642 -0.000674844 0.000108092)
(-0.000841988 -0.000672444 9.2797e-05)
(-0.000843752 -0.000676049 7.79795e-05)
(-0.000839176 -0.000674338 6.19994e-05)
(-0.000837402 -0.000674868 4.54985e-05)
(-0.000833976 -0.000673604 2.81035e-05)
(-0.000831989 -0.000672916 9.55067e-06)
(-0.000150361 -8.28165e-05 -5.70806e-06)
(-0.000279553 -0.000239746 -0.000104753)
(-0.000373275 -0.000376681 -5.55251e-05)
(-0.000436807 -0.000471939 -6.87345e-06)
(-0.000506714 -0.000549088 4.27388e-05)
(-0.000569801 -0.000597254 8.69593e-05)
(-0.000626446 -0.000624981 0.000121501)
(-0.000673124 -0.000637751 0.000147119)
(-0.000715289 -0.000646097 0.000168547)
(-0.000751333 -0.000649436 0.00018701)
(-0.00078176 -0.000648428 0.000201753)
(-0.000805939 -0.000644061 0.000212007)
(-0.000824535 -0.000638235 0.00021812)
(-0.000838301 -0.00063297 0.00022029)
(-0.000848399 -0.000630323 0.000219049)
(-0.000856131 -0.000630189 0.000215154)
(-0.000860413 -0.000630862 0.000208774)
(-0.000860624 -0.000630982 0.000200229)
(-0.000861227 -0.000632489 0.000190803)
(-0.000870603 -0.000640528 0.0001821)
(-0.000876605 -0.000646611 0.000171573)
(-0.000882747 -0.00065343 0.000160193)
(-0.000881742 -0.000655888 0.000147161)
(-0.000894639 -0.000668647 0.000136137)
(-0.000890405 -0.000668242 0.000121923)
(-0.000902837 -0.000679083 0.000109127)
(-0.000896802 -0.000677696 9.38865e-05)
(-0.000897246 -0.000680532 7.8868e-05)
(-0.00089267 -0.000679203 6.2786e-05)
(-0.000891257 -0.000680308 4.61398e-05)
(-0.000888371 -0.000679783 2.85461e-05)
(-0.000886771 -0.000679576 9.7111e-06)
(-0.000172916 -7.87147e-05 9.39466e-06)
(-0.000290677 -0.00021601 -0.000106934)
(-0.00038452 -0.000345085 -6.36669e-05)
(-0.000449445 -0.000440971 -1.8705e-05)
(-0.00052126 -0.000520809 2.93556e-05)
(-0.000587796 -0.000573892 7.34956e-05)
(-0.000649162 -0.000607868 0.000108948)
(-0.000701517 -0.000627537 0.000136722)
(-0.000748094 -0.000640504 0.0001605)
(-0.000787163 -0.000646215 0.000180798)
(-0.000820608 -0.000646933 0.00019699)
(-0.00084575 -0.000642339 0.000207911)
(-0.000866924 -0.000637278 0.000214888)
(-0.000883579 -0.000632426 0.000217982)
(-0.000895945 -0.000629398 0.000217504)
(-0.00090454 -0.000628655 0.000213987)
(-0.000908643 -0.000628723 0.000207798)
(-0.000909172 -0.000628879 0.000199627)
(-0.000911165 -0.00063116 0.000190748)
(-0.000921336 -0.000639258 0.000182255)
(-0.000925425 -0.000643942 0.000171461)
(-0.000931121 -0.000650465 0.00016019)
(-0.000931819 -0.000654401 0.000147682)
(-0.000945777 -0.000667522 0.00013686)
(-0.000945814 -0.000670332 0.000123286)
(-0.00095574 -0.000679219 0.000110088)
(-0.000953397 -0.000681042 9.52232e-05)
(-0.00095409 -0.000684601 8.01276e-05)
(-0.000950558 -0.000684621 6.39518e-05)
(-0.000949849 -0.000686723 4.70869e-05)
(-0.000946669 -0.000686451 2.91558e-05)
(-0.000944893 -0.000686388 9.92352e-06)
(-0.000231487 -8.53125e-05 3.2164e-05)
(-0.000302344 -0.000191888 -0.000108276)
(-0.000392054 -0.000310926 -7.11209e-05)
(-0.000458405 -0.00040667 -3.03688e-05)
(-0.000532508 -0.000489566 1.53648e-05)
(-0.000603193 -0.000548226 5.91885e-05)
(-0.000668666 -0.000587696 9.54399e-05)
(-0.00072472 -0.000612133 0.000124947)
(-0.000775371 -0.000629067 0.000150866)
(-0.000818717 -0.000637963 0.000173162)
(-0.000855518 -0.000640577 0.000190881)
(-0.000886493 -0.000639402 0.000203736)
(-0.000911512 -0.000635916 0.000211962)
(-0.000930533 -0.000631403 0.000215838)
(-0.000943512 -0.000627142 0.000215749)
(-0.000951717 -0.000624573 0.000212456)
(-0.000955932 -0.000623717 0.000206619)
(-0.000958154 -0.000624532 0.000199153)
(-0.000962579 -0.000628078 0.000191028)
(-0.000974381 -0.000636756 0.000182911)
(-0.000977435 -0.00064087 0.000172067)
(-0.000983295 -0.000647628 0.000161031)
(-0.000986034 -0.000653297 0.000149052)
(-0.00100015 -0.000666392 0.000138253)
(-0.00100323 -0.000671562 0.000125077)
(-0.00100831 -0.00067748 0.000111247)
(-0.00100622 -0.000680147 9.64012e-05)
(-0.00100509 -0.000683113 8.11001e-05)
(-0.001001 -0.000683381 6.47847e-05)
(-0.00100019 -0.000685932 4.77531e-05)
(-0.0009971 -0.000686263 2.96063e-05)
(-0.000995489 -0.000686618 1.00863e-05)
(-0.000266784 -7.68763e-05 5.79247e-05)
(-0.000313197 -0.00016703 -0.000107808)
(-0.000395281 -0.000274589 -7.75209e-05)
(-0.000460772 -0.000367406 -4.13735e-05)
(-0.000535533 -0.000451847 8.3991e-07)
(-0.000609556 -0.000515378 4.35883e-05)
(-0.000680281 -0.000561248 8.05197e-05)
(-0.000742999 -0.000592606 0.000112017)
(-0.000798857 -0.000614 0.000140088)
(-0.000845979 -0.000625381 0.000164171)
(-0.000886909 -0.000630289 0.000183577)
(-0.000919331 -0.000629258 0.000197426)
(-0.000947312 -0.000626807 0.000206801)
(-0.000969456 -0.000623352 0.000211743)
(-0.000985714 -0.000620184 0.000212742)
(-0.000996283 -0.000617969 0.000210362)
(-0.00100185 -0.000616939 0.000205274)
(-0.00100531 -0.00061778 0.000198527)
(-0.00101138 -0.000621741 0.000191022)
(-0.00102286 -0.000629748 0.000182978)
(-0.00102353 -0.000632746 0.000171992)
(-0.00102805 -0.000638993 0.000161097)
(-0.0010324 -0.000645921 0.000149652)
(-0.00104619 -0.000658736 0.000138892)
(-0.00105234 -0.000666153 0.000126172)
(-0.00105484 -0.00067105 0.0001121)
(-0.00105588 -0.000676382 9.75738e-05)
(-0.0010551 -0.000680221 8.22379e-05)
(-0.00105199 -0.000681687 6.5846e-05)
(-0.00105168 -0.000685026 4.86182e-05)
(-0.00104823 -0.000685623 3.01676e-05)
(-0.00104638 -0.000686082 1.02835e-05)
(-0.000306714 -6.52364e-05 8.91928e-05)
(-0.00032495 -0.000142925 -0.00010582)
(-0.00039455 -0.000237009 -8.25487e-05)
(-0.000458665 -0.000326144 -5.14063e-05)
(-0.000534231 -0.000412116 -1.36914e-05)
(-0.000611877 -0.000480734 2.74265e-05)
(-0.000686565 -0.000531745 6.47519e-05)
(-0.000753073 -0.000567265 9.76116e-05)
(-0.00081391 -0.000592558 0.000127477)
(-0.000866816 -0.000607627 0.000153513)
(-0.000912269 -0.000614876 0.000174624)
(-0.000951248 -0.000617346 0.000190588)
(-0.000983255 -0.000616528 0.000201463)
(-0.00100756 -0.000613543 0.00020742)
(-0.00102418 -0.000609815 0.000209026)
(-0.00103492 -0.000606974 0.000207238)
(-0.00104169 -0.00060601 0.000203003)
(-0.00104798 -0.000607817 0.000197353)
(-0.00105654 -0.00061255 0.000190687)
(-0.00106895 -0.000620725 0.000183056)
(-0.00106896 -0.00062389 0.000172323)
(-0.00107327 -0.000630408 0.000161766)
(-0.00107946 -0.00063841 0.000150812)
(-0.00109264 -0.000650685 0.000140004)
(-0.00110088 -0.000659446 0.000127549)
(-0.00109891 -0.000662376 0.000113043)
(-0.00109919 -0.000667694 9.8456e-05)
(-0.00109647 -0.000670977 8.2959e-05)
(-0.00109228 -0.000672299 6.64501e-05)
(-0.00109151 -0.000675753 4.91057e-05)
(-0.00108786 -0.000676732 3.05022e-05)
(-0.00108598 -0.000677442 1.04064e-05)
(-0.00033765 -4.73512e-05 0.00012238)
(-0.000339749 -0.000120478 -0.000103271)
(-0.000390872 -0.000199292 -8.57026e-05)
(-0.000448975 -0.000281567 -5.95508e-05)
(-0.000522448 -0.000366387 -2.75824e-05)
(-0.000602119 -0.000438788 1.06805e-05)
(-0.000682022 -0.000495866 4.78551e-05)
(-0.000755994 -0.000538006 8.20913e-05)
(-0.00082282 -0.000567512 0.000113597)
(-0.000880361 -0.000585065 0.000141189)
(-0.000930801 -0.000594678 0.000163996)
(-0.000972096 -0.000597681 0.000181224)
(-0.00100759 -0.000598166 0.000193561)
(-0.00103574 -0.000596808 0.000201027)
(-0.00105641 -0.000594892 0.000204169)
(-0.0010703 -0.000593356 0.000203734)
(-0.00107926 -0.000593106 0.000200638)
(-0.00108706 -0.00059512 0.000195882)
(-0.00109708 -0.000600026 0.00018992)
(-0.00110825 -0.000607234 0.000182429)
(-0.00110606 -0.000609777 0.000171815)
(-0.00110815 -0.000615408 0.000161396)
(-0.00111509 -0.000623606 0.000150856)
(-0.00112691 -0.000634908 0.000140019)
(-0.00113648 -0.000644383 0.000127851)
(-0.00113291 -0.000647266 0.00011337)
(-0.00113547 -0.00065426 9.90848e-05)
(-0.00113339 -0.000658569 8.36744e-05)
(-0.00113009 -0.000660954 6.7176e-05)
(-0.00112963 -0.000664996 4.97254e-05)
(-0.00112564 -0.000666312 3.09201e-05)
(-0.0011235 -0.000667129 1.05567e-05)
(-0.000369223 -2.57711e-05 0.000159734)
(-0.000349869 -9.71007e-05 -9.82812e-05)
(-0.000383767 -0.000162082 -8.63731e-05)
(-0.000434645 -0.000236834 -6.53399e-05)
(-0.000505494 -0.000319585 -4.02075e-05)
(-0.000586642 -0.000395372 -5.84082e-06)
(-0.000669553 -0.0004569 3.0435e-05)
(-0.000747192 -0.000502756 6.51901e-05)
(-0.000820016 -0.000536204 9.78957e-05)
(-0.000884767 -0.000557599 0.000127137)
(-0.000941252 -0.000569837 0.000151661)
(-0.000989724 -0.000576054 0.000171003)
(-0.00102959 -0.000578136 0.000185052)
(-0.00105996 -0.000577376 0.000193869)
(-0.00108123 -0.000575373 0.000198064)
(-0.00109567 -0.000573804 0.000198663)
(-0.00110631 -0.000574031 0.000196753)
(-0.00111716 -0.000577053 0.00019327)
(-0.00112891 -0.000582305 0.000188158)
(-0.00114043 -0.000589566 0.000181206)
(-0.00113855 -0.00059296 0.000171212)
(-0.00114083 -0.000599073 0.000161342)
(-0.00114872 -0.000607466 0.00015124)
(-0.00115937 -0.000617943 0.000140393)
(-0.00116971 -0.000627715 0.000128424)
(-0.00116289 -0.000629793 0.000113811)
(-0.00116359 -0.000636059 9.94728e-05)
(-0.00115922 -0.000639743 8.39857e-05)
(-0.00115398 -0.000641589 6.74185e-05)
(-0.00115243 -0.000645409 4.99343e-05)
(-0.0011478 -0.00064694 3.10798e-05)
(-0.00114532 -0.00064785 1.06194e-05)
(-0.000406795 -8.41161e-07 0.000203912)
(-0.000370927 -7.67342e-05 -9.55027e-05)
(-0.000375646 -0.000127349 -8.4889e-05)
(-0.000413234 -0.000191594 -6.78015e-05)
(-0.000477067 -0.000268621 -5.02522e-05)
(-0.000556972 -0.000345617 -2.13679e-05)
(-0.000643911 -0.000412206 1.2743e-05)
(-0.000729236 -0.000464483 4.74866e-05)
(-0.000808445 -0.00050201 8.09937e-05)
(-0.000878825 -0.000525913 0.000111414)
(-0.000940879 -0.000540028 0.000137416)
(-0.000992765 -0.000546824 0.000158121)
(-0.00103696 -0.000550308 0.000173861)
(-0.00107219 -0.000551549 0.000184618)
(-0.00109849 -0.000551799 0.000190839)
(-0.00111711 -0.000552087 0.000193295)
(-0.00113069 -0.000553405 0.00019292)
(-0.00114283 -0.00055649 0.000190493)
(-0.00115534 -0.000561624 0.000186156)
(-0.00116507 -0.000567989 0.000179509)
(-0.00116143 -0.000571241 0.000169928)
(-0.00116096 -0.000576404 0.000160296)
(-0.00116779 -0.000583935 0.000150473)
(-0.00117587 -0.000592966 0.000139573)
(-0.00118525 -0.000602069 0.000127748)
(-0.00117784 -0.000604854 0.000113437)
(-0.0011794 -0.000611865 9.94093e-05)
(-0.00117561 -0.000616512 8.41373e-05)
(-0.00117099 -0.000619299 6.76916e-05)
(-0.00116932 -0.000623478 5.02159e-05)
(-0.00116426 -0.000625408 3.12967e-05)
(-0.00116142 -0.000626432 1.07033e-05)
(-0.000435006 2.69758e-05 0.000245926)
(-0.000389625 -5.53844e-05 -9.11067e-05)
(-0.000366825 -9.57449e-05 -8.14235e-05)
(-0.000388497 -0.000148874 -6.69816e-05)
(-0.00044383 -0.000218682 -5.72063e-05)
(-0.00052058 -0.000295349 -3.50721e-05)
(-0.000607713 -0.000364577 -4.40943e-06)
(-0.000695477 -0.000420071 2.90209e-05)
(-0.00078162 -0.00046218 6.25675e-05)
(-0.000860396 -0.000490263 9.40359e-05)
(-0.000930432 -0.000507295 0.000121681)
(-0.000990264 -0.000516512 0.000144424)
(-0.00103927 -0.000520998 0.000161922)
(-0.00107687 -0.000522657 0.000174248)
(-0.00110403 -0.000523024 0.000181956)
(-0.00112349 -0.000523494 0.000185893)
(-0.00113898 -0.000525363 0.000187038)
(-0.00115386 -0.000529212 0.000186058)
(-0.00116711 -0.000534302 0.000182649)
(-0.00117667 -0.000540727 0.000176747)
(-0.00117404 -0.0005452 0.000168121)
(-0.00117437 -0.000551252 0.000159309)
(-0.00118075 -0.000558338 0.000149873)
(-0.00118702 -0.000566454 0.000139015)
(-0.00119563 -0.000574983 0.000127339)
(-0.00118602 -0.000577711 0.000113172)
(-0.00118443 -0.000583511 9.91297e-05)
(-0.00117765 -0.000587328 8.386e-05)
(-0.00116997 -0.000589278 6.74142e-05)
(-0.00116632 -0.000592976 5.00189e-05)
(-0.00116001 -0.000594991 3.12018e-05)
(-0.0011564 -0.000595978 1.06784e-05)
(-0.000464528 5.5809e-05 0.000288515)
(-0.000415593 -3.42834e-05 -8.78183e-05)
(-0.000358194 -6.79981e-05 -7.63525e-05)
(-0.000359113 -0.000109194 -6.23873e-05)
(-0.000400359 -0.000168266 -5.94095e-05)
(-0.00046976 -0.000241068 -4.53304e-05)
(-0.000557527 -0.000312822 -2.00293e-05)
(-0.000651768 -0.000374094 1.08222e-05)
(-0.000743353 -0.00042019 4.34592e-05)
(-0.000828502 -0.000451512 7.52036e-05)
(-0.000904527 -0.000470474 0.000103933)
(-0.000969354 -0.000480345 0.000128165)
(-0.00102397 -0.000485866 0.000147544)
(-0.00106755 -0.000489125 0.00016214)
(-0.00110068 -0.000491353 0.000172225)
(-0.00112498 -0.000493664 0.000178369)
(-0.00114342 -0.000496492 0.000181353)
(-0.00115897 -0.000500148 0.000181614)
(-0.00117221 -0.000504945 0.000179131)
(-0.00117969 -0.000510689 0.00017379)
(-0.00117535 -0.000515186 0.000165821)
(-0.00117214 -0.000520248 0.000157324)
(-0.00117533 -0.000525912 0.000148012)
(-0.00117778 -0.000532622 0.000137073)
(-0.00118321 -0.000539784 0.00012546)
(-0.00117334 -0.000543363 0.000111816)
(-0.00117094 -0.000549396 9.81252e-05)
(-0.00116418 -0.000554 8.32017e-05)
(-0.00115669 -0.000556923 6.70292e-05)
(-0.00115234 -0.000560879 4.98065e-05)
(-0.00114535 -0.000563322 3.11208e-05)
(-0.00114118 -0.000564445 1.06621e-05)
(-0.000473818 8.05542e-05 0.000314248)
(-0.000437993 -1.20463e-05 -8.33343e-05)
(-0.000351733 -4.44301e-05 -7.05319e-05)
(-0.000329074 -7.49126e-05 -5.49223e-05)
(-0.000354669 -0.000122384 -5.71187e-05)
(-0.000413828 -0.000188834 -5.1573e-05)
(-0.000495722 -0.000259219 -3.29602e-05)
(-0.000588697 -0.000321958 -6.35225e-06)
(-0.000687221 -0.000373233 2.4047e-05)
(-0.000780947 -0.000409449 5.53117e-05)
(-0.000866786 -0.000432702 8.50073e-05)
(-0.000940366 -0.00044532 0.00011107)
(-0.00100036 -0.000451417 0.000132398)
(-0.0010466 -0.000454373 0.000148873)
(-0.00108073 -0.000455901 0.000160755)
(-0.00110589 -0.00045773 0.000168606)
(-0.00112611 -0.000460642 0.000173297)
(-0.0011435 -0.000464624 0.000175071)
(-0.00115635 -0.000469229 0.000173619)
(-0.00116305 -0.000475127 0.000169246)
(-0.00115958 -0.00048076 0.000162466)
(-0.00115747 -0.000487029 0.000155011)
(-0.00115884 -0.000492498 0.000146062)
(-0.00115898 -0.000498836 0.000135235)
(-0.00116232 -0.000505468 0.00012382)
(-0.00115053 -0.000509063 0.000110548)
(-0.00114379 -0.000513953 9.69352e-05)
(-0.00113298 -0.000517473 8.21049e-05)
(-0.00112114 -0.000519337 6.60301e-05)
(-0.00111371 -0.000522443 4.90359e-05)
(-0.00110467 -0.000524615 3.06592e-05)
(-0.00109921 -0.000525524 1.05097e-05)
(-0.000471656 9.9155e-05 0.000324397)
(-0.000453901 1.03153e-05 -7.77507e-05)
(-0.00034648 -2.45515e-05 -6.4048e-05)
(-0.000298002 -4.64335e-05 -4.50236e-05)
(-0.000302824 -8.07028e-05 -4.95066e-05)
(-0.00034631 -0.000136687 -5.18363e-05)
(-0.000422016 -0.000204334 -4.16598e-05)
(-0.000517576 -0.000270477 -2.12641e-05)
(-0.000618041 -0.000324578 5.50088e-06)
(-0.000717921 -0.000364843 3.51385e-05)
(-0.00080916 -0.000390718 6.46887e-05)
(-0.000889044 -0.000405578 9.18664e-05)
(-0.000956269 -0.0004136 0.000115262)
(-0.0010097 -0.000418056 0.000134251)
(-0.00105055 -0.000421284 0.00014879)
(-0.00108067 -0.000424183 0.000159129)
(-0.001103 -0.000427184 0.000165708)
(-0.00112018 -0.000430645 0.000168775)
(-0.00113218 -0.000435005 0.000168391)
(-0.00113656 -0.000440494 0.000164863)
(-0.00113084 -0.000445869 0.000158908)
(-0.00112385 -0.000450874 0.000151744)
(-0.00112 -0.000455228 0.000142801)
(-0.00111508 -0.000460255 0.00013182)
(-0.00111346 -0.000465278 0.000120428)
(-0.00110066 -0.000469109 0.000107819)
(-0.00109148 -0.000473842 9.46359e-05)
(-0.00107983 -0.000477737 8.02842e-05)
(-0.00106769 -0.00048058 6.46805e-05)
(-0.00105889 -0.000483722 4.808e-05)
(-0.00104878 -0.00048609 3.01135e-05)
(-0.00104248 -0.000487045 1.03339e-05)
(-0.000453688 0.000109113 0.000313296)
(-0.00045721 3.05683e-05 -7.06634e-05)
(-0.00034309 -8.10572e-06 -5.72404e-05)
(-0.000268208 -2.43859e-05 -3.38918e-05)
(-0.000253017 -4.6856e-05 -3.82959e-05)
(-0.000279814 -9.10524e-05 -4.68698e-05)
(-0.000339763 -0.000150503 -4.48759e-05)
(-0.000425882 -0.000213467 -3.20199e-05)
(-0.000531442 -0.000272137 -1.0948e-05)
(-0.000638082 -0.000317199 1.5695e-05)
(-0.000740176 -0.000348865 4.46532e-05)
(-0.000828386 -0.00036741 7.27593e-05)
(-0.000900643 -0.000377022 9.7844e-05)
(-0.000956662 -0.000381625 0.000118771)
(-0.000998111 -0.000384074 0.000135156)
(-0.00102884 -0.000386257 0.000147282)
(-0.0010526 -0.000389177 0.000155595)
(-0.00107039 -0.000392645 0.000160122)
(-0.00108087 -0.000396633 0.00016081)
(-0.0010836 -0.000401943 0.000158359)
(-0.00107791 -0.000407758 0.000153666)
(-0.00107171 -0.000413822 0.000147648)
(-0.001065 -0.000418568 0.000139045)
(-0.00105737 -0.000423536 0.000128147)
(-0.00105269 -0.000427935 0.00011698)
(-0.00103735 -0.000431319 0.000104915)
(-0.0010229 -0.000434906 9.19445e-05)
(-0.0010059 -0.00043723 7.7776e-05)
(-0.00098804 -0.000438498 6.24258e-05)
(-0.000975123 -0.000440283 4.63089e-05)
(-0.000962073 -0.000441749 2.89985e-05)
(-0.000954028 -0.000442224 9.95323e-06)
(-0.000431036 0.00011259 0.000288982)
(-0.000448527 4.66096e-05 -6.29414e-05)
(-0.000337342 5.15805e-06 -4.97099e-05)
(-0.000240525 -8.45175e-06 -2.23506e-05)
(-0.000202764 -2.07389e-05 -2.43756e-05)
(-0.000207229 -5.0728e-05 -3.56147e-05)
(-0.000252917 -0.00010016 -4.14963e-05)
(-0.000333819 -0.000161007 -3.8101e-05)
(-0.00043282 -0.000218509 -2.39487e-05)
(-0.000543707 -0.000267457 -1.67981e-06)
(-0.000648795 -0.000301758 2.53133e-05)
(-0.000743866 -0.000324173 5.34902e-05)
(-0.000823832 -0.000337471 8.00202e-05)
(-0.000887066 -0.000345039 0.000103125)
(-0.000935248 -0.000349864 0.000121984)
(-0.000970025 -0.000353186 0.000136282)
(-0.000994335 -0.000355939 0.000146141)
(-0.00101075 -0.000358843 0.000151795)
(-0.00101947 -0.000362477 0.000153509)
(-0.00101952 -0.000367213 0.000151988)
(-0.00101053 -0.0003722 0.000148106)
(-0.000997483 -0.000376526 0.000142218)
(-0.000983603 -0.000380161 0.000133397)
(-0.000970059 -0.000383706 0.000122184)
(-0.000959385 -0.000386183 0.000111038)
(-0.000941293 -0.000388606 9.9723e-05)
(-0.000923265 -0.000391497 8.7346e-05)
(-0.000904766 -0.000393571 7.38775e-05)
(-0.000886737 -0.000395349 5.93464e-05)
(-0.00087221 -0.000396683 4.40111e-05)
(-0.000858029 -0.00039782 2.75947e-05)
(-0.000849039 -0.000398052 9.47966e-06)
(-0.000404284 0.000110154 0.000253584)
(-0.000431706 5.76382e-05 -5.53653e-05)
(-0.000329504 1.521e-05 -4.1961e-05)
(-0.000212483 2.07643e-06 -1.12164e-05)
(-0.000155213 -3.03e-06 -1.02445e-05)
(-0.000145186 -2.12823e-05 -2.20074e-05)
(-0.000165943 -5.58498e-05 -3.17321e-05)
(-0.000224147 -0.000104748 -3.60392e-05)
(-0.000323743 -0.000163611 -3.15284e-05)
(-0.000435779 -0.000215154 -1.53123e-05)
(-0.000551271 -0.000256098 9.06159e-06)
(-0.000651628 -0.000282296 3.67791e-05)
(-0.000734092 -0.000297948 6.38871e-05)
(-0.000797747 -0.000306805 8.7893e-05)
(-0.00084438 -0.000311886 0.000107596)
(-0.000878616 -0.000315572 0.000122883)
(-0.000903405 -0.000318852 0.000133859)
(-0.000919071 -0.000321881 0.000140474)
(-0.00092522 -0.000325029 0.000142958)
(-0.000922612 -0.000329054 0.000142332)
(-0.00091229 -0.000333636 0.000139587)
(-0.000899478 -0.000338674 0.000134891)
(-0.000882745 -0.000342729 0.000126379)
(-0.000866869 -0.000346023 0.000115179)
(-0.00085338 -0.00034759 0.000104388)
(-0.000832232 -0.000348615 9.38161e-05)
(-0.000809157 -0.000349927 8.18955e-05)
(-0.000784673 -0.000349528 6.87902e-05)
(-0.000759709 -0.000348377 5.47741e-05)
(-0.000740555 -0.000347518 4.03927e-05)
(-0.000722803 -0.00034677 2.52484e-05)
(-0.000711876 -0.000346034 8.66422e-06)
(-0.000373082 0.000103132 0.000210104)
(-0.000408278 6.31877e-05 -4.8696e-05)
(-0.000317617 2.19797e-05 -3.38038e-05)
(-0.000187429 8.38795e-06 -1.40259e-06)
(-0.000110298 6.8427e-06 1.67944e-06)
(-7.89316e-05 -1.10122e-06 -6.65894e-06)
(-8.745e-05 -2.10909e-05 -1.76985e-05)
(-0.000133459 -6.02177e-05 -3.01317e-05)
(-0.000210024 -0.000108656 -3.28554e-05)
(-0.000321022 -0.000161851 -2.32974e-05)
(-0.000432754 -0.000203689 -2.43787e-06)
(-0.000538689 -0.000235162 2.38725e-05)
(-0.000626724 -0.000255755 5.07073e-05)
(-0.000695518 -0.000268881 7.506e-05)
(-0.000747188 -0.000277557 9.55086e-05)
(-0.000782788 -0.000282971 0.00011133)
(-0.000805774 -0.000286506 0.000122554)
(-0.000818678 -0.000289297 0.000129429)
(-0.000822312 -0.000292086 0.000132407)
(-0.000816868 -0.000295252 0.000132461)
(-0.000802449 -0.000298349 0.000130327)
(-0.000780813 -0.000300666 0.000125366)
(-0.000755583 -0.000302628 0.000116215)
(-0.000733553 -0.000303658 0.000104454)
(-0.000714059 -0.000302433 9.37634e-05)
(-0.000688337 -0.000300803 8.39923e-05)
(-0.00066151 -0.000300328 7.29304e-05)
(-0.000635858 -0.000298841 6.09562e-05)
(-0.000612581 -0.000297881 4.84661e-05)
(-0.000592838 -0.000296175 3.56138e-05)
(-0.000574923 -0.00029467 2.22356e-05)
(-0.00056363 -0.000293427 7.62785e-06)
(-0.000340505 9.42011e-05 0.000165561)
(-0.00038096 6.47818e-05 -4.35565e-05)
(-0.000301556 2.60452e-05 -2.62338e-05)
(-0.000158487 1.16185e-05 6.15686e-06)
(-6.66248e-05 9.37336e-06 7.65717e-06)
(-4.02301e-05 7.20358e-06 2.7884e-06)
(-2.59191e-05 -9.57401e-08 -3.48726e-06)
(-2.75891e-05 -1.12816e-05 -9.98366e-06)
(-0.000106499 -5.70625e-05 -2.73882e-05)
(-0.000205341 -0.000107265 -2.33814e-05)
(-0.000322738 -0.000155748 -6.0172e-06)
(-0.000423861 -0.000189388 1.81511e-05)
(-0.000507624 -0.000212389 4.28509e-05)
(-0.000571254 -0.000227093 6.47981e-05)
(-0.000617148 -0.000236421 8.28851e-05)
(-0.000650686 -0.000243125 9.71923e-05)
(-0.000673005 -0.000247842 0.000107623)
(-0.00068407 -0.000250933 0.000114062)
(-0.000684474 -0.000253005 0.000116862)
(-0.000675422 -0.00025469 0.000117115)
(-0.000658267 -0.000256373 0.0001156)
(-0.000636727 -0.000258839 0.000111649)
(-0.00061048 -0.000260918 0.000102841)
(-0.000587985 -0.000261339 9.12094e-05)
(-0.000568244 -0.000259016 8.13582e-05)
(-0.000540845 -0.000255412 7.2682e-05)
(-0.000511291 -0.000252931 6.24955e-05)
(-0.000480971 -0.000248094 5.12871e-05)
(-0.000450459 -0.000242249 3.97852e-05)
(-0.000426574 -0.000237181 2.87281e-05)
(-0.000405419 -0.000232622 1.76747e-05)
(-0.000392555 -0.00022976 6.01995e-06)
(-0.00030303 8.43211e-05 0.000122897)
(-0.000352122 6.45674e-05 -3.99272e-05)
(-0.000283424 2.91876e-05 -2.10395e-05)
(-0.000132573 1.35634e-05 1.01474e-05)
(-5.75129e-05 1.34968e-05 1.29499e-05)
(-2.26289e-05 1.3795e-05 8.35158e-06)
(-1.48906e-06 1.06462e-05 1.82671e-06)
(-6.60973e-07 3.14035e-06 -5.35993e-06)
(-2.25798e-05 -1.09783e-05 -9.51719e-06)
(-0.000107786 -5.65246e-05 -1.31121e-05)
(-0.000200005 -0.000100279 1.80718e-06)
(-0.000298857 -0.000140096 2.24389e-05)
(-0.000379974 -0.000168128 4.25688e-05)
(-0.000444144 -0.000187807 6.02155e-05)
(-0.000491948 -0.000201248 7.47863e-05)
(-0.000522756 -0.000209171 8.58538e-05)
(-0.000540817 -0.000213745 9.3756e-05)
(-0.000548306 -0.000216343 9.86149e-05)
(-0.000546321 -0.000217716 0.00010074)
(-0.000535457 -0.000218258 0.000101009)
(-0.000515143 -0.000218092 9.961e-05)
(-0.000484249 -0.000216496 9.45471e-05)
(-0.000449203 -0.000214413 8.44021e-05)
(-0.000421553 -0.000211189 7.21863e-05)
(-0.00039704 -0.000204663 6.27322e-05)
(-0.000364673 -0.000196367 5.47826e-05)
(-0.000332654 -0.000190529 4.57716e-05)
(-0.000303239 -0.000183703 3.65195e-05)
(-0.000278954 -0.000178435 2.79014e-05)
(-0.000258241 -0.00017289 1.97539e-05)