/*--------------------------------*- C++ -*----------------------------------*\
  =========                 |
  \\      /  F ield         | OpenFOAM: The Open Source CFD Toolbox
   \\    /   O peration     | Website:  https://openfoam.org
    \\  /    A nd           | Version:  6
     \\/     M anipulation  |
\*---------------------------------------------------------------------------*/
FoamFile
{
    version     2.0;
    format      ascii;
    class       volScalarField;
    location    "37";
    object      yPlus;
}
// * * * * * * * * * * * * * * * * * * * * * * * * * * * * * * * * * * * * * //

dimensions      [0 0 0 0 0 0 0];

internalField   uniform 0;

boundaryField
{
    inlet
    {
        type            calculated;
        value           uniform 0;
    }
    outlet
    {
        type            calculated;
        value           uniform 0;
    }
    roughCylinder
    {
        type            calculated;
        value           nonuniform List<scalar> 
5120
(
9.72783
25.5854
37.2264
40.9171
43.8751
45.0471
45.8008
45.9943
46.2595
46.483
46.7146
46.5225
46.1393
45.8769
45.899
46.0547
45.9908
45.739
45.186
44.8255
44.6287
44.6573
44.2769
44.2195
42.6573
44.1458
42.8655
42.7829
42.053
41.5463
41.0644
40.7899
6.392
26.1193
36.9133
40.7517
43.7485
45.0365
45.8125
45.9773
46.2023
46.4163
46.6462
46.5728
46.3693
46.1931
46.2089
46.32
46.2679
45.9412
45.3628
45.1052
45.0625
45.0733
44.572
44.6394
43.1423
44.465
43.2152
43.1037
42.4195
41.9758
41.5817
41.3517
14.1325
25.4775
36.6319
40.6423
43.6321
44.9693
45.7926
46.0503
46.3321
46.5304
46.7143
46.57
46.3538
46.2386
46.3009
46.4305
46.3373
45.9211
45.3322
45.1828
45.2421
45.2389
44.7184
44.99
43.7543
44.9599
43.9181
43.8144
43.1797
42.7787
42.3657
42.1307
7.8558
25.6767
36.2289
40.43
43.5113
44.9993
45.8786
46.1361
46.4064
46.6104
46.8035
46.8178
46.7496
46.7049
46.7188
46.7558
46.6307
46.1898
45.6493
45.6422
45.7339
45.7358
45.1843
45.5275
44.4422
45.3734
44.3975
44.2313
43.6308
43.2803
42.936
42.7404
18.4509
24.8855
35.7671
40.189
43.3384
44.9213
45.9024
46.3063
46.6544
46.8548
47.0277
46.9494
46.8947
46.8959
46.9546
46.9902
46.8044
46.3262
45.8311
45.9099
45.949
45.9383
45.447
45.9001
45.1129
45.867
45.1384
44.9815
44.4516
44.1521
43.7991
43.6005
8.95376
24.637
35.2256
39.9144
43.2182
44.9773
46.0382
46.4618
46.8295
47.06
47.2437
47.3557
47.4161
47.4523
47.4316
47.355
47.1259
46.6843
46.3023
46.4968
46.4761
46.4757
46.058
46.5272
45.9328
46.3731
45.7132
45.4815
44.9741
44.7118
44.4088
44.2438
12.8071
24.164
34.5891
39.5059
42.9364
44.8375
46.0555
46.6773
47.1352
47.3687
47.5702
47.5755
47.6572
47.7317
47.763
47.6949
47.4267
46.9953
46.6924
46.904
46.7509
46.7127
46.4129
46.9192
46.5966
46.8664
46.4525
46.2491
45.8259
45.6203
45.3177
45.1532
17.4593
23.8358
33.8912
39.1209
42.7721
44.8808
46.1873
46.8291
47.3342
47.6407
47.8631
48.0715
48.2356
48.3106
48.2437
48.0697
47.7766
47.4319
47.26
47.5371
47.3158
47.2815
47.1112
47.6074
47.4692
47.4583
47.088
46.8158
46.4009
46.2204
45.9531
45.8161
20.1008
23.4655
33.0798
38.5023
42.3158
44.6115
46.1282
47.0214
47.6333
47.9478
48.2175
48.3219
48.5014
48.6216
48.6304
48.4958
48.2093
47.9012
47.8053
48.0371
47.6834
47.5811
47.5303
48.0185
48.0818
47.958
47.8047
47.5909
47.2684
47.1475
46.8907
46.7587
23.5717
23.243
32.181
37.8941
41.9947
44.5495
46.1749
47.0874
47.7761
48.2153
48.5338
48.8348
49.0719
49.1637
49.0705
48.8523
48.5708
48.3791
48.3925
48.6563
48.2852
48.196
48.2717
48.7437
48.9496
48.626
48.4785
48.2079
47.8734
47.765
47.5322
47.4202
26.7452
23.4167
31.2324
36.9847
41.2621
44.0597
45.9652
47.19
48.007
48.4641
48.8359
49.0495
49.3022
49.4598
49.473
49.3384
49.1144
48.9645
49.0311
49.2181
48.7556
48.5824
48.7284
49.1601
49.4743
49.1206
49.1449
48.963
48.7272
48.6789
48.4689
48.3674
30.6443
23.4244
30.1333
36.0389
40.6307
43.754
45.8139
47.0766
48.0215
48.6515
49.1188
49.5163
49.8109
49.9228
49.8394
49.6415
49.4459
49.4212
49.5604
49.7681
49.3568
49.2352
49.4697
49.8854
50.289
49.8329
49.8254
49.5937
49.3223
49.273
49.0796
48.9901
35.9422
24.6387
29.0873
34.7571
39.473
42.9059
45.3554
47.0242
48.1174
48.7867
49.2923
49.628
49.9568
50.168
50.2269
50.1581
50.0543
50.0603
50.2269
50.355
49.898
49.6901
49.9242
50.272
50.6929
50.2877
50.4039
50.2838
50.1212
50.1319
49.9756
49.9034
41.0831
26.0379
28.1257
33.4222
38.3632
42.1732
44.8409
46.5913
47.921
48.818
49.4867
49.9966
50.3553
50.5136
50.4854
50.3658
50.3034
50.4243
50.6288
50.7797
50.431
50.3353
50.6178
50.9536
51.4161
50.9943
51.0469
50.8729
50.6475
50.6407
50.4943
50.426
47.1145
28.5255
27.3668
31.78
36.615
40.7317
43.9526
46.2762
47.7777
48.7688
49.4587
49.9404
50.3686
50.6674
50.824
50.8734
50.912
51.0454
51.2589
51.3462
50.9824
50.7942
51.0065
51.2518
51.6547
51.3361
51.4708
51.4219
51.3246
51.3867
51.2966
51.2545
51.1908
31.3164
27.0434
30.1269
34.8762
39.3281
42.8055
45.2696
47.2254
48.5379
49.5169
50.1839
50.6284
50.8616
50.914
50.9137
51.0024
51.2287
51.4548
51.5714
51.3483
51.3344
51.581
51.8439
52.2725
51.9932
52.0557
51.9422
51.7537
51.7756
51.6833
51.6366
53.9341
34.1846
27.101
28.3218
32.4125
36.9214
41.1323
44.4677
46.6139
48.1524
49.1613
49.8961
50.489
50.9188
51.2101
51.3925
51.5513
51.7703
52.0033
52.0893
51.8656
51.736
51.8688
52.0249
52.3428
52.1724
52.2871
52.3057
52.2771
52.3785
52.3611
52.348
54.3832
36.4603
27.6273
26.552
29.8987
34.5458
38.857
42.3391
45.4065
47.4266
48.9676
49.9359
50.5516
50.9098
51.0865
51.2228
51.4483
51.7395
51.9701
52.0858
52.0085
52.1042
52.2957
52.5054
52.8373
52.7231
52.7626
52.6829
52.519
52.5501
52.5064
52.4796
53.8332
37.9385
28.1975
24.8706
26.6623
30.4729
35.6958
40.6097
43.7838
46.3567
47.9689
49.2216
50.1611
50.8272
51.3179
51.6427
51.8993
52.1662
52.4021
52.5113
52.4216
52.3403
52.3728
52.4613
52.6303
52.5679
52.6422
52.707
52.7653
52.894
52.9515
52.9686
52.2488
38.6919
28.769
22.9255
22.8285
26.5628
31.0474
35.7862
41.1912
44.5764
47.2624
48.8065
49.7963
50.4107
50.7709
51.0844
51.4379
51.7663
51.9861
52.1063
52.1427
52.3514
52.5248
52.7316
52.9279
52.9029
52.9195
52.8163
52.604
52.5896
52.5475
52.5191
49.6276
38.5853
29.0218
21.1395
17.9707
18.1659
24.1482
32.2793
36.99
41.9625
44.8394
47.2412
48.8775
50.015
50.8507
51.3564
51.6977
51.9844
52.2115
52.342
52.3361
52.2331
52.1511
52.169
52.0786
51.9066
51.8979
51.9319
52.0955
52.2256
52.34
52.3831
46.6589
37.8021
28.808
18.4646
9.76039
12.6577
13.4987
11.7368
30.3071
37.4373
43.0988
45.7686
47.5362
48.6117
49.2693
49.8756
50.4016
50.7667
50.9512
51.003
51.0214
51.2826
51.5285
51.7841
51.7908
51.6297
51.6268
51.3525
50.8594
50.6038
50.3885
50.2686
43.322
36.656
28.3217
15.7917
10.703
7.74805
4.71483
6.74149
12.9454
30.7732
36.9134
42.3731
45.4339
47.5267
48.9738
49.6982
50.1173
50.4073
50.594
50.6786
50.6439
50.3115
49.9907
49.8075
49.1098
48.1881
47.8589
47.5651
47.8616
47.9436
48.0282
48.0407
39.1676
35.1144
27.6145
13.0363
12.9287
12.2926
8.56524
6.355
9.0256
17.5751
34.2376
38.3417
41.6195
43.3728
44.4787
45.7097
46.5904
47.0252
47.054
46.7264
46.3065
46.4153
46.93
47.1915
46.8488
46.0591
45.9518
44.9336
42.7068
40.6686
38.6129
37.5171
34.4336
33.3821
27.3506
12.0683
10.4144
3.79165
5.85433
13.2151
12.8292
14.469
15.3145
29.4788
35.5108
40.225
43.3917
44.315
44.7341
44.945
44.9481
44.766
44.4948
43.024
40.813
39.3027
35.3524
28.2137
22.1531
11.6983
9.87855
9.43572
16.538
18.3225
25.9011
31.0211
26.1731
11.6981
5.84905
6.76982
7.78285
11.1648
13.9783
13.2546
14.2985
16.5341
15.6333
15.9873
16.9068
25.6379
29.7981
30.9414
29.7947
26.2179
19.1599
11.376
15.6769
20.9925
20.431
15.7069
19.2681
17.3663
12.4794
12.9429
18.5866
18.9645
11.7812
26.9184
27.1684
15.0324
8.92716
12.5019
13.1947
13.1144
12.417
10.1968
13.5397
15.9107
14.7191
15.0444
15.6416
11.1957
18.2678
18.3497
14.0819
5.1057
17.8377
11.8055
3.56988
6.45878
17.8622
12.0419
15.8068
8.16464
7.39748
5.19311
11.5737
13.2971
10.5736
18.2082
24.4014
20.0305
13.297
14.895
20.6222
24.2356
26.3887
28.165
28.2693
22.0343
3.49661
8.89222
9.60702
14.4264
13.7204
17.6414
13.7857
4.02604
10.0023
10.0474
5.28006
11.9046
15.0722
18.9126
22.6899
25.1226
26.643
28.143
28.0375
27.8893
5.98556
12.217
18.2573
19.0575
15.6159
14.2463
19.3119
25.286
29.2157
31.5345
31.5457
26.9752
24.1939
23.7241
23.304
21.9104
20.4284
19.3803
18.8338
19.492
21.7643
24.9328
28.7015
29.6785
30.5048
30.5442
30.3953
30.2719
29.873
29.1957
28.9037
28.788
8.50517
14.744
16.9091
18.4477
17.4683
15.636
17.4546
22.7251
27.8406
31.672
31.603
26.6002
24.2841
26.0489
26.8419
27.3154
28.1023
28.7874
29.2347
29.7258
30.2213
30.6039
30.7614
31.3791
32.3552
32.438
32.4445
32.2072
31.5438
30.7499
29.6581
28.9152
8.40107
14.8435
17.5733
19.7088
20.2031
19.1831
18.9662
21.6178
25.6861
28.65
26.2063
22.6992
25.3309
27.7764
28.213
28.6646
29.6879
30.6243
31.3045
31.8299
32.3785
32.8146
33.2466
33.4442
33.9216
33.118
32.1259
30.9948
29.5132
27.7916
25.7702
24.3819
6.11573
12.3363
15.7138
18.8622
20.6424
20.7197
20.1168
20.6042
22.0079
21.7074
18.9166
20.5877
23.2478
23.3775
22.7707
24.2766
27.1704
29.4904
30.8433
31.534
31.8005
31.6431
31.3458
31.1908
31.4043
30.529
29.3635
28.1103
26.7579
25.0234
23.0965
22.0292
4.28554
11.183
12.7704
15.8957
18.3899
19.3239
18.8939
18.1249
17.6624
17.5238
19.0893
21.4202
21.8411
19.9398
16.9961
16.9085
20.4748
24.1257
26.5334
27.8648
28.5143
28.7392
28.8093
28.9023
29.1638
28.7962
27.9261
26.8066
25.6654
24.1098
22.4078
21.6104
3.51018
10.4235
11.5387
13.1405
15.6127
17.2859
17.9115
18.1819
18.7403
20.1199
21.921
22.8463
22.2588
20.0047
17.6614
18.0682
20.3261
22.8596
24.9152
26.3226
27.2125
27.6846
27.8799
27.9732
28.0329
27.5715
26.4229
24.9879
23.583
22.0953
20.9846
20.5376
3.12292
9.78379
11.3905
12.3847
14.6089
16.7329
18.3783
19.6375
20.81
22.0013
22.843
22.7821
21.3774
18.449
16.0853
17.0902
19.8747
22.4374
24.2946
25.505
26.2269
26.5154
26.4645
26.3566
26.1568
25.4682
24.4722
23.2689
22.1302
21.0422
20.2832
20.045
3.08638
9.32669
11.207
12.3502
14.5533
16.8186
18.6881
20.1426
21.2797
22.0601
22.2523
21.5281
19.4685
16.4628
15.4484
17.2791
19.6651
21.7803
23.3988
24.5347
25.2627
25.7078
25.9518
25.9946
25.7918
25.2077
24.234
23.0376
21.9286
21.0731
20.6334
20.5718
2.94968
8.81719
10.8563
12.0683
14.0809
16.2551
18.096
19.5704
20.6129
21.1509
21.0061
19.921
17.5595
15.2888
16.0501
18.42
20.6912
22.5911
24.1024
25.2472
26.0884
26.6534
26.9363
26.9324
26.6024
25.8973
24.8793
23.688
22.6192
21.8869
21.5775
21.5925
2.78649
8.45802
10.4087
11.7747
13.483
15.3381
17.0741
18.4903
19.4525
19.8427
19.4766
18.0899
15.8949
15.6065
17.7965
20.2812
22.4314
24.2234
25.6837
26.8443
27.7361
28.3658
28.6916
28.6582
28.2267
27.4098
26.2807
25.0167
23.9271
23.2666
23.0579
23.1347
2.5323
8.09915
9.94438
11.5221
13.0792
14.6751
16.1778
17.4126
18.1938
18.3424
17.6586
16.1797
15.5864
17.5194
20.1064
22.4419
24.5072
26.2983
27.8097
29.06
30.0585
30.7718
31.13
31.063
30.5312
29.5825
28.3249
26.9694
25.8501
25.2361
25.0957
25.2205
2.46219
8.181
10.0703
11.6334
13.0855
14.474
15.664
16.536
16.9302
16.7034
15.8734
15.6724
17.6708
20.2916
22.6863
24.9035
26.9464
28.7778
30.3868
31.7685
32.8991
33.7194
34.1324
34.0494
33.4328
32.3522
30.9553
29.4994
28.3429
27.7575
27.6633
27.8243
4.339
3.55553
3.1217
3.08671
3.31471
3.63228
3.93817
4.2904
4.6445
5.08539
5.48321
5.60488
4.28459
2.62774
1.06332
0.462381
1.03498
2.64368
6.30135
8.67747
11.6452
11.4389
11.652
12.0801
11.6424
11.1639
11.1119
10.3698
8.67022
7.04959
5.75031
4.743
3.94425
3.62233
3.41599
2.83317
2.34418
2.17856
2.31007
2.38071
13.3018
12.0975
11.4828
11.5684
11.4615
11.5542
11.6071
11.6584
11.7127
11.4809
11.5786
11.4152
9.05577
4.60941
1.23897
3.18205
1.39005
4.43629
9.65418
11.8043
13.4956
14.7535
15.6064
16.1084
16.3246
16.2768
16.0828
15.6491
15.0186
14.2292
13.3871
12.5049
11.7059
11.5228
11.51
10.2279
8.74921
7.92674
8.02386
8.13644
17.5409
16.7158
15.7508
15.0835
14.701
14.5628
14.4266
14.0422
13.4479
12.1087
10.6357
8.00521
4.8156
2.54673
4.32221
10.1374
12.5257
14.4507
16.0069
17.2631
18.2251
18.9039
19.3256
19.5225
19.5249
19.3498
19.0214
18.54
17.9267
17.1773
16.3209
15.3888
14.3067
13.3345
12.2312
11.4309
10.2004
9.58227
9.89788
10.108
20.5002
19.5719
18.394
17.471
16.7731
16.349
15.9882
14.7507
13.9969
9.91913
7.70659
4.55825
10.1493
12.7772
15.2175
17.0429
18.5705
19.8142
20.8025
21.5573
22.1157
22.4727
22.6496
22.6591
22.5142
22.2255
21.8022
21.2484
20.5727
19.7736
18.855
17.8326
16.6359
15.4625
13.9308
12.2561
11.2029
10.7851
11.3139
11.5792
22.6305
21.4224
20.0878
19.0052
18.0821
17.4145
16.6431
14.2351
12.0466
5.28218
8.69934
12.8912
15.9516
18.2799
19.9907
21.3019
22.3774
23.2802
24.0012
24.5521
24.9445
25.162
25.2258
25.1451
24.9301
24.589
24.1271
23.5483
22.8528
22.0425
21.1024
20.0504
18.8053
17.4874
15.982
13.8383
12.1172
11.6726
12.1227
12.6722
24.0162
22.5444
21.0946
19.8756
18.7429
17.761
15.8047
12.1645
6.47711
11.3164
15.2734
18.2213
20.3107
21.9026
23.1878
24.2456
25.1465
25.8996
26.4885
26.9223
27.2086
27.332
27.317
27.1737
26.9118
26.5383
26.057
25.4701
24.7755
23.9715
23.0429
21.9835
20.7616
19.3412
17.8796
15.8181
13.4746
12.3232
12.847
13.7211
24.7479
23.0911
21.5397
20.1147
18.8396
16.8756
12.5406
8.77574
12.6037
16.7936
19.6192
21.6555
23.2791
24.6064
25.6982
26.6095
27.3836
28.0358
28.5366
28.8918
29.1031
29.1591
29.0871
28.8987
28.604
28.2101
27.7201
27.1347
26.4519
25.6638
24.76
23.7133
22.5188
21.0996
19.5663
17.7792
15.2691
13.2296
13.4156
14.5556
24.9001
23.0999
21.4226
19.6888
18.0203
13.5062
8.84655
12.8788
17.4278
20.3818
22.5951
24.3488
25.7354
26.8483
27.7682
28.5555
29.2301
29.8246
30.2781
30.5862
30.745
30.7539
30.6401
30.4177
30.0988
29.6918
29.2005
28.625
27.9619
27.2012
26.328
25.317
24.1443
22.7806
21.1921
19.5304
17.2944
14.5936
13.9035
15.0817
24.4501
22.5087
20.634
18.4569
14.4831
10.7435
13.4514
17.8273
20.9281
23.2923
25.1508
26.6087
27.7551
28.6931
29.4968
30.1989
30.8149
31.3342
31.7834
32.0781
32.2114
32.1867
32.0404
31.7923
31.4559
31.0417
30.5555
29.9973
29.3619
28.6377
27.8047
26.8393
25.7058
24.391
22.8411
21.1481
19.262
16.5076
14.5753
15.2524
23.2816
21.1661
18.8686
14.9139
11.4252
13.4944
17.9949
21.2819
23.7655
25.7077
27.2694
28.4734
29.4336
30.2526
30.9815
31.6318
32.1977
32.6774
33.061
33.3901
33.5249
33.4869
33.3205
33.057
32.712
32.2993
31.8266
31.2945
30.6959
30.0163
29.2334
28.3189
27.2413
25.9712
24.498
22.7957
21.0228
18.7395
15.9395
15.221
21.1998
18.6963
15.2245
11.6848
13.9582
18.2358
21.5463
24.0949
26.1033
27.7419
29.0518
30.0506
30.8777
31.6169
32.2927
32.8986
33.4255
33.8642
34.2076
34.5252
34.6959
34.6663
34.4981
34.2303
33.892
33.4954
33.0497
32.5554
32.0037
31.3769
30.6501
29.7928
28.7744
27.5633
26.1517
24.5239
22.7204
20.8006
18.2407
15.8184
18.0681
15.1741
13.0832
15.0013
18.6444
21.8189
24.3671
26.4077
28.0858
29.496
30.5907
31.4366
32.1681
32.8436
33.4686
34.0288
34.5173
34.9138
35.2628
35.5085
35.749
35.7496
35.5965
35.345
35.032
34.6698
34.2678
33.8251
33.3298
32.7617
32.0934
31.2947
30.334
29.1865
27.8351
26.2847
24.5276
22.6463
20.5758
18.0409
15.529
14.7054
16.3536
19.2924
22.2032
24.6636
26.697
28.3859
29.8165
31.0492
31.9811
32.7121
33.3638
33.9762
34.5462
35.0591
35.509
35.8829
36.2268
36.4817
36.7686
36.7987
36.6746
36.4604
36.1933
35.8868
35.5454
35.1646
34.73
34.2196
33.6056
32.8592
31.9508
30.8595
29.5689
28.083
26.4001
24.573
22.6153
20.5863
16.7477
17.9085
20.2526
22.7533
25.0627
27.0377
28.7157
30.1417
31.3876
32.4899
33.3086
33.9502
34.5293
35.0791
35.5953
36.0669
36.4907
36.862
37.2161
37.5331
37.8425
37.9115
37.838
37.6834
37.4806
37.2423
36.9671
36.6473
36.267
35.8039
35.2313
34.5232
33.6535
32.6054
31.364
29.9337
28.3131
26.5701
24.6709
22.8589
19.8452
21.3807
23.5347
25.5928
27.4884
29.127
30.5429
31.7744
32.8898
33.9053
34.6581
35.2346
35.7545
36.2531
36.7299
37.1787
37.5988
37.9923
38.3783
38.7891
39.1199
39.2396
39.2297
39.1429
39.0074
38.8327
38.6136
38.3402
37.9958
37.5599
37.008
36.318
35.4671
34.4433
33.2314
31.8397
30.2646
28.5912
26.7628
25.0569
22.9286
24.4116
26.3079
28.0414
29.6493
31.0451
32.272
33.3743
34.4084
35.3765
36.113
36.6578
37.1438
37.6157
38.079
38.5317
38.9746
39.4119
39.8532
40.3538
40.7263
40.9074
40.9621
40.9356
40.8518
40.7182
40.5308
40.2774
39.9425
39.508
38.953
38.258
37.4037
36.3814
35.1744
33.7974
32.2446
30.6114
28.8288
27.2047
25.669
27.0327
28.7231
30.2308
31.6375
32.8647
33.9744
35.0103
36.0105
36.9636
37.7403
38.2943
38.7776
39.2514
39.7293
40.2115
40.6989
41.1921
41.6993
42.2601
42.7051
42.9544
43.0648
43.079
43.0197
42.8959
42.7067
42.4437
42.0914
41.634
41.0532
40.3322
39.4534
38.4092
37.1821
35.7931
34.2332
32.6043
30.8268
29.2391
28.0518
29.3144
30.8621
32.2205
33.495
34.6252
35.6866
36.7123
37.7234
38.7029
39.5609
40.1655
40.6735
41.1709
41.6822
42.2097
42.7513
43.3018
43.8678
44.448
45.0067
45.3226
45.4735
45.507
45.4453
45.3017
45.0802
44.7784
44.3858
43.8861
43.2617
42.4979
41.5771
40.4905
39.2226
37.7969
36.2004
34.5389
32.7242
31.1211
30.0909
31.2868
32.7496
34.0206
35.2274
36.3271
37.3977
38.458
39.5186
40.56
41.5258
42.2214
42.7713
43.3001
43.8507
44.4267
45.0203
45.6211
46.2244
46.8112
47.4686
47.865
48.0566
48.0935
48.0097
47.8258
47.5509
47.1886
46.7352
46.1789
45.4992
44.6807
43.7049
42.5624
41.2388
39.757
38.0998
36.3762
34.4901
32.8272
31.7747
32.9392
34.367
35.6062
36.8045
37.9272
39.0476
40.174
41.311
42.4369
43.5073
44.348
44.9509
45.5062
46.0888
46.7058
47.3427
47.9807
48.6065
49.21
49.7938
50.378
50.6344
50.6772
50.563
50.3254
49.9846
49.5505
49.0244
48.3991
47.657
46.7769
45.7381
44.5333
43.1449
41.5953
39.863
38.0601
36.0822
34.3337
33.0599
34.2251
35.6618
36.9198
38.1565
39.338
40.532
41.7412
42.9675
44.1877
45.3602
46.376
47.0567
47.6309
48.2287
48.8713
49.5375
50.2009
50.8424
51.4439
52.0134
52.5878
52.982
53.0579
52.9207
52.6308
52.2221
51.7131
51.1104
50.412
49.6027
48.6574
47.554
46.2832
44.8255
43.203
41.3914
39.5051
37.4322
35.5933
33.8688
35.0605
36.5445
37.8642
39.1736
40.4347
41.712
43.0077
44.3226
45.6337
46.9015
48.0626
48.9109
49.5159
50.108
50.7507
51.4263
52.1024
52.7537
53.3587
53.9248
54.4418
54.9539
55.0473
54.8863
54.5496
54.0808
53.5046
52.8323
52.0647
51.1884
50.1782
49.0094
47.6712
46.1426
44.4469
42.5575
40.5924
38.4354
36.5198
34.0947
35.3245
36.8804
38.2959
39.7051
41.0601
42.4229
43.8004
45.1949
46.5855
47.9341
49.1849
50.2741
50.9987
51.5906
52.2021
52.8556
53.5237
54.1771
54.7889
55.3604
55.8774
56.3871
56.4639
56.2727
55.896
55.38
54.7516
54.0234
53.1975
52.2604
51.1861
49.9504
48.543
46.9433
45.1757
43.2144
41.1813
38.9601
36.9954
33.6172
34.8752
36.5067
38.0412
39.5787
41.0494
42.5042
43.9595
45.4244
46.8824
48.3001
49.6231
50.7941
51.8156
52.5333
53.1347
53.7386
54.3656
54.9972
55.6077
56.1795
56.7786
57.1137
57.1313
56.9102
56.5092
55.9673
55.3085
54.5439
53.6741
52.6851
51.5491
50.2458
48.7687
47.0996
45.2645
43.2416
41.1566
38.898
36.9189
32.3545
33.6005
35.2815
36.9358
38.625
40.2508
41.8283
43.3738
44.9096
46.4311
47.9133
49.3092
50.5556
51.6216
52.5633
53.3861
54.0344
54.634
55.2287
55.8136
56.431
56.8225
57.0013
56.963
56.7294
56.3291
55.7874
55.1217
54.3402
53.4398
52.4035
51.2106
49.8433
48.2987
46.564
44.6685
42.5971
40.4788
38.2113
36.2515
30.3986
31.5524
33.216
34.9515
36.7778
38.5832
40.3329
42.0129
43.6436
45.2377
46.7871
48.2602
49.6061
50.7658
51.7438
52.595
53.3572
54.0459
54.6602
55.1914
55.6322
55.9688
56.1305
56.1
55.8855
55.5051
54.9769
54.3142
53.5219
52.5938
51.5084
50.2565
48.8269
47.2188
45.4247
43.4781
41.3726
39.2402
36.9901
35.0767
28.1649
29.1243
30.6677
32.4067
34.3063
36.252
38.1782
40.0323
41.801
43.4942
45.1202
46.6682
48.1084
49.3959
50.4842
51.3946
52.1728
52.8532
53.4529
53.9772
54.4242
54.7594
54.9209
54.8952
54.6899
54.3191
53.7962
53.1299
52.3196
51.3546
50.2222
48.9153
47.4271
45.7613
43.9159
41.9274
39.7985
37.6615
35.4393
33.5752
26.3508
27.0614
28.3945
30.0428
31.9259
33.9231
35.9499
37.9374
39.8407
41.6439
43.3515
44.9673
46.4805
47.8638
49.0795
50.1004
50.9525
51.6735
52.2932
52.828
53.2801
53.5893
53.7273
53.6872
53.4751
53.1005
52.5722
51.8945
51.0629
50.0631
48.8893
47.538
46.004
44.2929
42.4076
40.3864
38.2389
36.0941
33.8887
32.0464
25.3824
25.9297
27.0783
28.6037
30.4099
32.3765
34.4091
36.4327
38.3922
40.2544
42.0107
43.6647
45.2153
46.6476
47.9362
49.0555
49.9958
50.7833
51.4484
52.0117
52.4568
52.7445
52.8603
52.8035
52.5802
52.1971
51.6599
50.97
50.1208
49.0988
47.8989
46.5189
44.9558
43.2154
41.304
39.2589
37.0951
34.9344
32.725
30.868
25.1423
25.6584
26.7251
28.1688
29.8982
31.8012
33.7854
35.7757
37.7163
39.5696
41.3201
42.9689
44.517
45.9558
47.2671
48.4304
49.4308
50.2733
50.9803
51.5669
52.0082
52.2855
52.3923
52.3301
52.1039
51.7196
51.1813
50.4898
49.6381
48.6125
47.4082
46.0233
44.4552
42.7105
40.7959
38.7475
36.5812
34.4118
32.1917
30.303
25.2766
25.8347
26.8924
28.2989
29.9716
31.8103
33.7292
35.6583
37.5439
39.3496
41.0597
42.6743
44.1952
45.6164
46.9226
48.0946
49.1204
49.9938
50.7275
51.3265
51.7717
52.0515
52.1627
52.1072
51.8895
51.5144
50.9857
50.3042
49.4636
48.4506
47.2597
45.8884
44.3348
42.6057
40.7079
38.6758
36.5242
34.363
32.1428
30.2347
25.4141
26.0044
27.0557
28.4318
30.0574
31.8412
33.7038
35.5795
37.4176
39.1826
40.859
42.4468
43.9479
45.3571
46.6608
47.8402
48.8812
49.7767
50.5308
51.1453
51.6055
51.9017
52.0312
51.995
51.7968
51.4407
50.9304
50.2669
49.4456
48.4547
47.2865
45.9378
44.4079
42.7036
40.8307
38.8227
36.6922
34.546
32.3314
30.4153
14.6784
21.7092
34.8111
38.8661
42.1503
43.6899
44.8185
45.3075
45.7272
45.9136
45.9047
45.6826
45.4777
45.3439
45.0992
44.7076
44.6222
44.543
43.5435
42.7616
42.1279
41.5577
42.6081
43.9774
41.3838
41.0936
41.1434
40.9106
40.3005
39.722
39.2483
39.0627
17.1058
21.176
34.2695
38.5066
41.8266
43.4311
44.5729
45.097
45.5532
45.6845
45.6963
45.4789
45.309
45.2644
45.063
44.688
44.6096
44.5478
43.5712
42.9945
42.3046
41.9664
42.9995
44.2584
41.8351
41.6426
41.5852
41.3292
40.7178
40.1378
39.6656
39.4782
11.6187
20.3963
33.7008
38.1625
41.5255
43.1883
44.3891
44.9505
45.397
45.6162
45.6657
45.4816
45.4367
45.4387
45.2529
44.8953
44.7918
44.723
43.7969
43.3945
42.5991
42.3888
43.3126
44.4196
42.1479
42.0674
42.0443
41.8765
41.3693
40.8853
40.4822
40.3212
16.3847
19.8165
33.0641
37.783
41.2063
42.9963
44.2203
44.7878
45.3336
45.5563
45.6081
45.4994
45.4731
45.5088
45.3616
45.0272
44.896
44.7859
43.9309
43.703
42.8773
42.9183
43.7957
44.7809
42.655
42.7097
42.535
42.3444
41.8304
41.3644
40.965
40.8009
8.55334
18.6285
32.2035
37.2709
40.8604
42.7304
44.0162
44.7368
45.2869
45.5403
45.6984
45.6465
45.7481
45.8332
45.706
45.3922
45.2091
45.0455
44.2689
44.1628
43.2645
43.4005
44.1812
45.0026
43.0494
43.2581
43.0922
42.9912
42.5653
42.1962
41.8463
41.7015
9.89003
17.9326
31.3326
36.8019
40.4879
42.5657
43.9912
44.6777
45.2787
45.6386
45.7931
45.8297
45.935
45.9968
45.8843
45.5939
45.387
45.1763
44.4988
44.5217
43.6558
43.9944
44.7452
45.4137
43.6152
43.9552
43.6171
43.4906
43.0581
42.7243
42.3823
42.2358
8.007
16.6293
30.0981
35.9585
40.0215
42.2833
43.7087
44.6111
45.3421
45.6543
45.9205
46.0298
46.2278
46.3592
46.2915
46.0318
45.7811
45.5205
44.9339
45.0147
44.126
44.4942
45.1838
45.6832
44.0969
44.5732
44.245
44.2021
43.8427
43.5974
43.288
43.1585
10.0295
14.9689
28.7643
35.2568
39.4611
41.9675
43.7309
44.6653
45.3048
45.8005
46.1101
46.2904
46.5004
46.5786
46.4956
46.2457
45.9902
45.7171
45.2451
45.4051
44.6163
45.1239
45.7898
46.1393
44.7247
45.2773
44.7969
44.7212
44.3614
44.1612
43.8656
43.7375
12.3751
14.0288
26.997
33.8082
38.6776
41.61
43.3157
44.4101
45.3853
45.827
46.1996
46.4646
46.7277
46.89
46.887
46.6981
46.4337
46.1459
45.7638
45.9198
45.1483
45.6326
46.2474
46.4638
45.2832
45.9127
45.4729
45.4674
45.1674
45.037
44.7631
44.6529
12.5954
11.6621
24.9532
32.6463
37.6717
40.8357
43.1351
44.5023
45.2431
45.8874
46.3899
46.7096
47.0194
47.1393
47.0955
46.8918
46.6432
46.3923
46.1292
46.3287
45.7084
46.2816
46.8452
46.9605
45.942
46.5737
46.0277
45.9795
45.6896
45.605
45.3501
45.2447
13.1627
10.9068
22.335
30.0963
36.2064
40.2234
42.4772
43.864
45.1998
45.8734
46.3741
46.7943
47.1246
47.3287
47.4043
47.3094
47.1044
46.88
46.6895
46.8395
46.2528
46.7724
47.2669
47.3167
46.5169
47.1657
46.704
46.7113
46.4707
46.434
46.1978
46.1124
14.8332
3.7171
19.0616
28.0397
34.2259
38.4152
41.677
43.8136
44.8091
45.6958
46.4527
46.9248
47.3541
47.5675
47.5967
47.4647
47.283
47.1294
47.0519
47.2357
46.8268
47.4
47.8051
47.82
47.1436
47.7367
47.2153
47.1713
46.9501
46.9506
46.7362
46.6593
15.7518
11.0565
15.7519
23.7244
31.3884
37.197
40.4343
42.4067
44.4501
45.5401
46.2482
46.8675
47.293
47.5658
47.7492
47.7879
47.714
47.6236
47.5916
47.6983
47.3135
47.8124
48.13
48.1395
47.6377
48.2103
47.8149
47.8142
47.6373
47.6652
47.4743
47.4184
15.4147
5.25576
9.19527
19.6807
27.2527
32.7963
38.1666
41.8916
43.4236
44.8505
46.0629
46.7754
47.3823
47.7491
47.8891
47.8624
47.8015
47.7893
47.8595
48.0178
47.8154
48.3439
48.5532
48.5743
48.1446
48.6439
48.2183
48.1663
48.0141
48.0717
47.9033
47.8613
12.9525
10.6585
10.3686
9.69242
20.7883
30.4541
35.1556
38.4436
42.346
44.296
45.4619
46.479
47.1143
47.5086
47.8352
48.0379
48.132
48.1982
48.2849
48.3566
48.1558
48.6
48.7439
48.7914
48.4903
48.9607
48.6967
48.6841
48.5786
48.6476
48.5118
48.4879
11.407
7.54927
10.4816
7.71862
5.68062
12.1088
28.2172
36.7839
39.4079
42.4257
44.6999
45.9303
46.9213
47.5746
47.8936
48.0179
48.099
48.2292
48.4075
48.5647
48.545
49.0093
49.0532
49.1238
48.8525
49.2275
48.9272
48.8519
48.7626
48.8421
48.7302
48.7239
10.1095
3.31529
4.00962
10.2699
10.3922
11.6334
11.93
22.6554
36.433
40.62
43.0923
45.111
46.2404
46.9404
47.5246
47.9639
48.2682
48.4929
48.6598
48.7153
48.6472
48.9801
48.9904
49.0592
48.8824
49.2397
49.1439
49.1373
49.1057
49.1876
49.1211
49.1268
7.34295
5.38158
6.85608
10.9632
5.77552
11.0459
11.7232
8.94629
21.2406
35.389
41.0134
43.5271
45.4402
46.6738
47.3303
47.6837
47.9372
48.2044
48.465
48.6467
48.7845
49.1583
49.112
49.1849
48.9938
49.2241
49.0122
48.8858
48.8155
48.8591
48.7978
48.8126
8.79039
8.47783
6.33113
7.53625
7.44183
11.7866
11.9237
4.9361
12.0746
27.4038
36.3827
41.5138
43.7802
45.1534
46.2722
47.1138
47.7325
48.1435
48.3658
48.4237
48.3897
48.5103
48.4315
48.3642
48.1929
48.4234
48.5024
48.5153
48.5367
48.5896
48.5984
48.6231
10.0998
5.76117
9.06769
1.70733
6.44541
2.49133
10.62
6.09714
13.2447
11.7073
31.6491
37.2135
41.559
44.1078
45.3645
46.0983
46.5623
46.9557
47.3098
47.5432
47.8015
48.0526
47.994
47.9055
47.6576
47.6753
47.2886
46.9993
46.7864
46.6394
46.5619
46.5328
7.87995
5.33087
2.95805
10.4868
17.0328
16.6305
11.3525
6.7716
9.12754
7.75061
15.6724
32.4792
37.1883
39.9803
42.476
44.1635
45.3759
46.0916
46.3196
46.3268
46.1065
45.6931
45.4247
44.7143
44.2078
44.1891
44.4781
44.4786
44.4791
44.3785
44.4377
44.4249
1.03938
7.97708
10.3454
8.37994
11.2848
17.814
23.5788
18.6811
13.4866
6.93169
14.5566
14.2002
28.9435
37.0323
39.4293
40.8873
41.5943
42.0343
42.5645
42.9276
43.1561
43.2224
43.1259
42.4745
41.7911
41.1627
38.7461
37.3341
35.404
33.8083
32.4492
31.4374
4.523
12.017
13.1118
13.3363
14.1545
17.3247
18.96
19.8377
17.3456
12.4101
9.57004
14.7786
10.5641
3.20737
27.0068
33.3774
37.081
39.0992
39.0732
38.1741
36.5396
33.0666
30.1355
23.0119
15.065
6.71232
13.2972
6.64109
17.5601
19.9498
2.85146
13.0828
9.08219
18.0417
20.9157
22.6267
23.6987
24.4116
24.6495
23.5248
20.1892
5.19745
9.84308
12.0785
14.8185
13.3514
16.3325
14.2664
16.7866
19.7058
8.52042
13.7519
17.609
19.5349
18.8207
14.2029
13.1048
5.47736
17.3554
17.1714
18.6453
6.92086
16.162
5.4737
9.74607
19.7471
23.6975
26.4555
28.0822
28.6718
28.2253
26.5658
23.2622
19.3487
13.1254
11.5095
11.0047
16.5533
16.3037
11.9158
16.2841
15.618
2.15916
16.349
11.8092
10.1259
11.2612
14.5443
13.2515
11.2565
12.2649
15.8122
18.13
18.9335
19.6147
20.0966
9.00532
19.1435
23.2713
26.2534
28.1231
28.8569
28.4156
26.8584
24.6547
23.0295
23.5431
24.1769
24.2439
24.156
22.1268
17.7439
11.5094
15.9559
10.2284
8.24671
11.0877
16.4175
22.6127
25.2139
27.0558
28.7283
29.4543
29.5368
29.1526
28.5336
27.9334
27.5583
8.25258
18.2377
22.3401
25.2962
27.1664
27.9322
27.5672
26.1847
24.2461
22.6587
22.3468
23.3822
24.8472
26.4166
28.0109
29.1027
29.3387
28.1365
27.9868
28.81
29.9436
31.2303
31.2596
31.7516
31.8381
31.8098
31.4831
30.7687
30.1714
29.2771
28.4649
27.9
7.61454
17.2822
21.2579
24.1216
25.9518
26.7307
26.3964
24.8973
22.1857
18.8457
17.2543
18.5904
21.6305
25.4221
28.4471
30.0168
30.6138
31.1191
31.5778
31.9485
32.4181
32.7806
33.2595
33.7642
33.782
33.5692
32.8387
31.7398
30.2868
28.4441
26.576
25.3229
7.04779
16.3943
20.2496
23.0306
24.8236
25.602
25.2665
23.6808
20.8277
17.3147
15.3367
13.4991
12.507
17.4281
24.0328
28.8552
31.2781
32.518
33.2181
33.6963
34.0098
34.0802
33.5374
33.1092
32.4323
31.699
30.5226
28.8651
26.9127
24.537
22.3527
20.9252
6.71261
15.8478
19.6163
22.3313
24.0997
24.9217
24.7667
23.7026
22.1626
21.1514
20.9649
20.7611
19.8818
18.9926
20.3494
23.7661
26.8433
29.1234
30.5772
31.3943
31.7374
31.515
31.2129
30.9441
30.5553
30.0596
29.1818
27.9304
26.4267
24.5262
22.9996
22.1942
6.45477
15.4117
19.082
21.7086
23.4305
24.2869
24.3137
23.6525
22.606
21.3741
19.7625
17.831
16.8953
19.1293
22.9339
25.5772
27.179
28.4038
29.3575
30.0449
30.4716
30.6154
30.4898
30.0277
29.4074
28.6745
27.641
26.2545
24.6271
23.1289
21.9221
21.0686
5.97952
14.7611
18.3085
20.8277
22.5332
23.4849
23.7396
23.4078
22.6568
21.6626
20.6515
19.6228
18.0334
16.5802
18.3649
22.1003
25.0542
26.9715
28.0735
28.6274
28.7435
28.3815
27.8383
27.4192
27.0145
26.4997
25.7165
24.625
23.3721
22.1759
21.2068
20.5974
5.40975
13.969
17.4438
19.9592
21.794
23.0014
23.6293
23.7539
23.4879
22.9329
22.027
20.5853
19.0524
18.954
20.1246
21.4526
23.0248
24.4381
25.4885
26.1678
26.5238
26.627
26.584
26.4667
26.2372
25.8559
25.2259
24.3328
23.2804
22.305
21.5452
21.0236
5.0534
13.3375
16.8253
19.4689
21.5237
23.0168
23.9689
24.4114
24.3728
23.8157
22.6302
20.7578
18.2169
16.4144
17.8427
20.3578
22.2606
23.6847
24.7288
25.4445
25.88
26.0604
26.0526
25.9334
25.7171
25.3693
24.8277
24.0899
23.2351
22.4289
21.7664
21.306
4.94456
12.9926
16.515
19.2962
21.5162
23.1822
24.3013
24.8861
24.9326
24.3727
23.1345
21.234
18.9897
17.5295
17.7855
19.3422
21.1363
22.658
23.834
24.6992
25.2878
25.6249
25.7459
25.6828
25.4524
25.0888
24.5796
23.9421
23.217
22.5506