/*--------------------------------*- C++ -*----------------------------------*\
  =========                 |
  \\      /  F ield         | OpenFOAM: The Open Source CFD Toolbox
   \\    /   O peration     | Website:  https://openfoam.org
    \\  /    A nd           | Version:  6
     \\/     M anipulation  |
\*---------------------------------------------------------------------------*/
FoamFile
{
    version     2.0;
    format      ascii;
    class       volVectorField;
    location    "46";
    object      wallShearStress;
}
// * * * * * * * * * * * * * * * * * * * * * * * * * * * * * * * * * * * * * //

dimensions      [0 2 -2 0 0 0 0];

internalField   uniform (0 0 0);

boundaryField
{
    inlet
    {
        type            calculated;
        value           uniform (0 0 0);
    }
    outlet
    {
        type            calculated;
        value           uniform (0 0 0);
    }
    roughCylinder
    {
        type            calculated;
        value           nonuniform List<vector> 
5120
(
(-0.000250067 -0.000356261 -0.000183571)
(-0.000306527 -0.000460471 -4.20666e-05)
(-0.000339989 -0.000554151 -7.6066e-07)
(-0.000385608 -0.00064408 5.39153e-05)
(-0.000442503 -0.000722159 0.000117075)
(-0.000507129 -0.000783932 0.000180561)
(-0.000576033 -0.000826564 0.000239865)
(-0.000644563 -0.000850481 0.000292214)
(-0.000708648 -0.000858143 0.000335514)
(-0.000766193 -0.000854577 0.000369042)
(-0.000817435 -0.000848016 0.000394263)
(-0.000862681 -0.000844152 0.00041308)
(-0.000898938 -0.000843009 0.000424231)
(-0.0009295 -0.000847351 0.00042884)
(-0.000955669 -0.000856381 0.000427937)
(-0.000978784 -0.000869393 0.000422581)
(-0.00100027 -0.000885615 0.000413821)
(-0.00102135 -0.00090439 0.00040256)
(-0.00104298 -0.00092524 0.000389464)
(-0.0010658 -0.00094787 0.000374954)
(-0.00109018 -0.000972104 0.000359239)
(-0.00111621 -0.000997808 0.000342337)
(-0.00114387 -0.00102486 0.000324153)
(-0.00117299 -0.00105309 0.000304494)
(-0.00120331 -0.00108225 0.000283086)
(-0.00123449 -0.00111202 0.000259579)
(-0.00126609 -0.00114192 0.000233467)
(-0.00129755 -0.00117131 0.000204072)
(-0.00132795 -0.0011992 0.000170205)
(-0.00135587 -0.00122426 0.000130415)
(-0.00137824 -0.00124439 8.24014e-05)
(-0.00139122 -0.00125653 2.78065e-05)
(-0.000268553 -0.000344596 -0.000173404)
(-0.000328119 -0.000446047 -4.45324e-05)
(-0.000364155 -0.000538412 -6.52233e-06)
(-0.000411883 -0.000628052 4.47486e-05)
(-0.000470454 -0.000707144 0.000105281)
(-0.000536626 -0.000770708 0.000166976)
(-0.000606922 -0.000815517 0.000225126)
(-0.000676937 -0.00084186 0.00027685)
(-0.000743202 -0.000852574 0.000320155)
(-0.000804151 -0.000853269 0.00035473)
(-0.000859573 -0.00085079 0.000381944)
(-0.000908353 -0.000848507 0.00040261)
(-0.000947469 -0.000846099 0.000414856)
(-0.000979576 -0.000849338 0.00042005)
(-0.00100728 -0.000857652 0.000419465)
(-0.00103183 -0.000870306 0.000414337)
(-0.00105473 -0.0008864 0.000405754)
(-0.00107723 -0.000905184 0.000394665)
(-0.00110032 -0.000926123 0.000381768)
(-0.00112466 -0.000948865 0.000367506)
(-0.00115059 -0.000973204 0.000352085)
(-0.00117825 -0.000999002 0.000335541)
(-0.00120757 -0.00102611 0.00031777)
(-0.00123838 -0.00105436 0.000298574)
(-0.0012704 -0.00108351 0.000277675)
(-0.00130328 -0.00111324 0.000254721)
(-0.00133655 -0.00114305 0.000229198)
(-0.00136962 -0.00117233 0.000200435)
(-0.00140154 -0.0012001 0.000167246)
(-0.0014308 -0.001225 0.000128204)
(-0.00145421 -0.001245 8.10103e-05)
(-0.00146784 -0.00125706 2.73205e-05)
(-0.000286863 -0.000327717 -0.000155976)
(-0.000349194 -0.000426181 -4.75166e-05)
(-0.000387615 -0.000516474 -1.29439e-05)
(-0.000437056 -0.000605157 3.47093e-05)
(-0.000497001 -0.000684731 9.23153e-05)
(-0.000564563 -0.000749847 0.000151969)
(-0.000636322 -0.000796995 0.000208889)
(-0.000708184 -0.000826415 0.000260137)
(-0.00077717 -0.000841121 0.000303882)
(-0.000841815 -0.000846409 0.000339883)
(-0.000901136 -0.000847567 0.00036889)
(-0.000953186 -0.000846797 0.000390838)
(-0.000995876 -0.000844447 0.000404392)
(-0.00102966 -0.000846138 0.000410113)
(-0.00105893 -0.000853565 0.00040984)
(-0.00108502 -0.000865681 0.000404984)
(-0.00110941 -0.000881476 0.000396636)
(-0.00113342 -0.000900115 0.000385779)
(-0.00115803 -0.000920977 0.000373139)
(-0.00118392 -0.000943665 0.000359177)
(-0.00121146 -0.000967947 0.00034412)
(-0.00124076 -0.00099365 0.000327992)
(-0.00127175 -0.00102063 0.000310692)
(-0.00130426 -0.00104872 0.000292022)
(-0.00133798 -0.00107766 0.000271695)
(-0.00137254 -0.00110712 0.000249353)
(-0.00140746 -0.00113665 0.000224482)
(-0.00144211 -0.00116561 0.000196413)
(-0.0014755 -0.00119305 0.000163971)
(-0.00150607 -0.00121763 0.000125755)
(-0.0015305 -0.00123735 7.94689e-05)
(-0.00154475 -0.00124924 2.67831e-05)
(-0.000303141 -0.000306955 -0.000134089)
(-0.000367818 -0.000401913 -5.05774e-05)
(-0.000408185 -0.000489406 -1.96105e-05)
(-0.000458753 -0.000576482 2.42447e-05)
(-0.000519632 -0.00065604 7.86471e-05)
(-0.000588363 -0.000722509 0.000135997)
(-0.00066165 -0.000772161 0.000191523)
(-0.000735674 -0.000805147 0.000242305)
(-0.00080769 -0.000824346 0.000286625)
(-0.00087602 -0.000834274 0.000324099)
(-0.000939056 -0.000838815 0.000354767)
(-0.000994557 -0.000839757 0.00037793)
(-0.00104091 -0.000838319 0.000392777)
(-0.0010773 -0.000838458 0.000399187)
(-0.00110826 -0.000844905 0.00039936)
(-0.00113602 -0.000856311 0.000394829)
(-0.00116202 -0.000871675 0.000386781)
(-0.00118759 -0.000890035 0.000376219)
(-0.00121378 -0.000910706 0.000363906)
(-0.00124126 -0.000933226 0.000350311)
(-0.0012704 -0.000957312 0.000335664)
(-0.00130133 -0.000982794 0.000320006)
(-0.00133397 -0.00100951 0.00030323)
(-0.00136811 -0.00103726 0.000285131)
(-0.00140346 -0.00106583 0.000265417)
(-0.00143962 -0.00109487 0.000243728)
(-0.00147608 -0.00112394 0.000219544)
(-0.00151222 -0.00115242 0.000192206)
(-0.00154699 -0.00117937 0.000160547)
(-0.00157877 -0.00120348 0.000123195)
(-0.00160413 -0.0012228 7.78586e-05)
(-0.00161896 -0.00123446 2.62214e-05)
(-0.000316309 -0.000282594 -0.000109866)
(-0.000382937 -0.000373507 -5.33525e-05)
(-0.000424754 -0.000457544 -2.61842e-05)
(-0.000475862 -0.000542395 1.36885e-05)
(-0.000537257 -0.000621434 6.45944e-05)
(-0.000606985 -0.000689072 0.000119305)
(-0.000681929 -0.000741398 0.000173209)
(-0.00075843 -0.00077828 0.000223436)
(-0.000833679 -0.000802113 0.000268297)
(-0.000905613 -0.000816434 0.000307116)
(-0.000972207 -0.000824097 0.000339296)
(-0.00103122 -0.000826824 0.000363714)
(-0.00108111 -0.000826493 0.000379668)
(-0.0011214 -0.00082625 0.000387239)
(-0.00115431 -0.00083115 0.000387986)
(-0.00118388 -0.000841648 0.000383879)
(-0.00121159 -0.000856387 0.000376227)
(-0.00123882 -0.000874317 0.00036605)
(-0.0012666 -0.000894635 0.000354128)
(-0.00129567 -0.000916825 0.000340963)
(-0.0013264 -0.000940574 0.000326793)
(-0.00135891 -0.000965671 0.00031166)
(-0.00139312 -0.000991944 0.00029546)
(-0.00142882 -0.00101921 0.000277978)
(-0.0014657 -0.00104722 0.00025892)
(-0.00150334 -0.00107566 0.00023792)
(-0.00154123 -0.0011041 0.000214456)
(-0.00157871 -0.00113191 0.000187873)
(-0.00161473 -0.00115821 0.000157023)
(-0.0016476 -0.00118169 0.000120564)
(-0.00167379 -0.00120049 7.6205e-05)
(-0.00168913 -0.00121185 2.56436e-05)
(-0.000326321 -0.000256019 -8.50695e-05)
(-0.00039439 -0.000342354 -5.57164e-05)
(-0.000437092 -0.000422377 -3.24487e-05)
(-0.000488133 -0.000504419 3.27851e-06)
(-0.000549565 -0.00058244 5.03928e-05)
(-0.000620063 -0.000650975 0.000102121)
(-0.000696654 -0.000705933 0.000154102)
(-0.000775706 -0.000746697 0.000203588)
(-0.00085422 -0.00077494 0.00024883)
(-0.000929723 -0.000793259 0.000288785)
(-0.000999904 -0.000803805 0.000322335)
(-0.00106256 -0.000808336 0.000348039)
(-0.0011162 -0.000809179 0.000365112)
(-0.00116059 -0.000809385 0.000373936)
(-0.0011966 -0.00081269 0.000375577)
(-0.00122817 -0.000822015 0.000372089)
(-0.00125775 -0.000835867 0.000364939)
(-0.00128671 -0.000853122 0.000355247)
(-0.00131616 -0.000872918 0.000343817)
(-0.00134683 -0.000894625 0.000331159)
(-0.00137912 -0.000917869 0.000317533)
(-0.00141316 -0.000942417 0.000302987)
(-0.00144886 -0.000968079 0.000287413)
(-0.00148601 -0.000994668 0.000270596)
(-0.00152427 -0.00102194 0.000252232)
(-0.00156324 -0.0010496 0.000231954)
(-0.00160239 -0.00107721 0.000209236)
(-0.00164106 -0.0011042 0.000183434)
(-0.00167819 -0.00112967 0.000153414)
(-0.00171201 -0.00115239 0.000117873)
(-0.0017389 -0.00117054 7.45134e-05)
(-0.0017547 -0.00118153 2.5052e-05)
(-0.000332045 -0.000227606 -6.06731e-05)
(-0.000401025 -0.000308886 -5.74934e-05)
(-0.000444017 -0.000384338 -3.82027e-05)
(-0.000494328 -0.000462966 -6.80697e-06)
(-0.000555238 -0.000539402 3.61566e-05)
(-0.000626168 -0.000608495 8.44624e-05)
(-0.000704343 -0.000665985 0.000134157)
(-0.000786056 -0.000710596 0.000182637)
(-0.000867975 -0.000743098 0.00022804)
(-0.000947174 -0.000765135 0.000268911)
(-0.0010211 -0.000778403 0.000303676)
(-0.00108759 -0.000784768 0.000330682)
(-0.00114519 -0.000786817 0.000349012)
(-0.0011937 -0.000787752 0.000359056)
(-0.0012341 -0.000790634 0.000362025)
(-0.0012682 -0.000798023 0.000359353)
(-0.00129982 -0.000810723 0.000352873)
(-0.00133069 -0.000827139 0.000343795)
(-0.00136184 -0.000846177 0.000332952)
(-0.00139411 -0.000867198 0.000320888)
(-0.00142794 -0.000889765 0.000307886)
(-0.00146344 -0.000913602 0.000293993)
(-0.00150055 -0.000938511 0.000279106)
(-0.00153903 -0.00096428 0.000263006)
(-0.00157855 -0.000990675 0.00024538)
(-0.0016187 -0.0010174 0.000225858)
(-0.00165895 -0.00104404 0.000203915)
(-0.00169862 -0.00107004 0.00017891)
(-0.00173668 -0.00109455 0.000149738)
(-0.00177129 -0.00111635 0.000115136)
(-0.00179878 -0.00113377 7.2794e-05)
(-0.00181493 -0.00114432 2.44491e-05)
(-0.000333427 -0.000198385 -3.76519e-05)
(-0.000402693 -0.000274189 -5.86712e-05)
(-0.000445364 -0.000344628 -4.33386e-05)
(-0.000494272 -0.000419294 -1.63869e-05)
(-0.000554027 -0.000493571 2.21172e-05)
(-0.000624942 -0.000562752 6.65768e-05)
(-0.000704431 -0.000622428 0.00011354)
(-0.000788613 -0.000670541 0.000160613)
(-0.00087379 -0.000706888 0.000205809)
(-0.000956721 -0.000732336 0.000247295)
(-0.00103461 -0.000748227 0.000283119)
(-0.00110521 -0.000756485 0.00031143)
(-0.0011671 -0.00075987 0.000331193)
(-0.00121988 -0.000761548 0.000342609)
(-0.00126448 -0.000764526 0.00034689)
(-0.00130272 -0.000770885 0.000345515)
(-0.00133687 -0.000781785 0.000339938)
(-0.00136977 -0.000796722 0.000331601)
(-0.00140275 -0.000814833 0.000321502)
(-0.0014367 -0.00083501 0.000310147)
(-0.00147204 -0.000856747 0.000297856)
(-0.00150894 -0.00087972 0.000284693)
(-0.00154732 -0.000903699 0.000270554)
(-0.00158697 -0.000928482 0.00025522)
(-0.00162754 -0.000953829 0.000238369)
(-0.00166867 -0.000979464 0.000219636)
(-0.00170977 -0.00100503 0.000198492)
(-0.00175022 -0.00102999 0.000174307)
(-0.00178902 -0.00105346 0.000146001)
(-0.00182425 -0.00107428 0.000112359)
(-0.00185212 -0.00109087 7.10491e-05)
(-0.00186857 -0.00110102 2.38367e-05)
(-0.000329368 -0.000168547 -1.65512e-05)
(-0.000398311 -0.000238537 -5.91088e-05)
(-0.000440018 -0.000303515 -4.76717e-05)
(-0.000486766 -0.000373614 -2.52527e-05)
(-0.00054456 -0.000444996 8.47129e-06)
(-0.000614777 -0.000513593 4.85795e-05)
(-0.000695164 -0.000574981 9.22643e-05)
(-0.000781702 -0.00062632 0.000137436)
(-0.000870286 -0.000666386 0.00018201)
(-0.000957193 -0.000695173 0.000223798)
(-0.00103932 -0.00071366 0.000260501)
(-0.00111435 -0.000723848 0.000290086)
(-0.00118072 -0.000728564 0.000311368)
(-0.00123807 -0.000731066 0.000324387)
(-0.00128705 -0.000734235 0.000330166)
(-0.00132936 -0.000740146 0.000330179)
(-0.00136719 -0.000749826 0.000325866)
(-0.00140313 -0.000763485 0.000318701)
(-0.00143803 -0.000780144 0.000309492)
(-0.00147362 -0.000799134 0.000298954)
(-0.00151044 -0.000819826 0.000287477)
(-0.00154864 -0.0008418 0.00027513)
(-0.00158818 -0.000864785 0.000261815)
(-0.00162883 -0.000888548 0.00024731)
(-0.00167029 -0.000912853 0.000231285)
(-0.00171215 -0.0009374 0.000213373)
(-0.0017538 -0.000961822 0.000193043)
(-0.00179463 -0.00098557 0.000169667)
(-0.00183382 -0.00100787 0.000142224)
(-0.00186939 -0.00102758 0.000109552)
(-0.00189747 -0.0010433 6.92859e-05)
(-0.00191396 -0.00105293 2.32144e-05)
(-0.000320127 -0.000139243 1.99134e-06)
(-0.000387945 -0.000202775 -5.90164e-05)
(-0.000428049 -0.000262259 -5.11451e-05)
(-0.000471986 -0.000327253 -3.3209e-05)
(-0.00052701 -0.000395046 -4.46741e-06)
(-0.000595774 -0.00046233 3.08516e-05)
(-0.00067651 -0.000524812 7.06761e-05)
(-0.000764988 -0.000578848 0.000113329)
(-0.000856648 -0.000622153 0.000156698)
(-0.000947469 -0.000654032 0.000198334)
(-0.0010341 -0.000675115 0.000235678)
(-0.00111389 -0.000687272 0.000266473)
(-0.00118523 -0.000693444 0.000289383)
(-0.00124741 -0.000696765 0.000304191)
(-0.00130097 -0.000700128 0.000311704)
(-0.0013474 -0.000705617 0.000313287)
(-0.00138895 -0.000714465 0.000310441)
(-0.00142786 -0.00072699 0.00030458)
(-0.00146529 -0.000742293 0.000296531)
(-0.00150288 -0.00076003 0.00028705)
(-0.00154121 -0.000779523 0.000276543)
(-0.00158057 -0.00080032 0.000265117)
(-0.00162096 -0.000822106 0.000252691)
(-0.00166222 -0.000844638 0.000239057)
(-0.00170404 -0.000867675 0.00022388)
(-0.00174613 -0.000890934 0.000206805)
(-0.00178786 -0.000913977 0.000187297)
(-0.00182877 -0.000936342 0.00016476)
(-0.00186809 -0.000957321 0.000138225)
(-0.00190377 -0.000975861 0.000106583)
(-0.00193173 -0.000990575 6.74136e-05)
(-0.00194821 -0.000999608 2.25523e-05)
(-0.000303027 -0.000110081 1.7573e-05)
(-0.000371574 -0.000167785 -5.8076e-05)
(-0.000408696 -0.000221239 -5.37037e-05)
(-0.000448892 -0.000280521 -4.00146e-05)
(-0.000500079 -0.000343855 -1.63679e-05)
(-0.000566251 -0.000408776 1.3709e-05)
(-0.000646394 -0.000471437 4.89705e-05)
(-0.000736369 -0.000527654 8.83374e-05)
(-0.000831242 -0.000574168 0.000129853)
(-0.000926312 -0.000609259 0.000170868)
(-0.00101774 -0.00063303 0.00020855)
(-0.00110273 -0.000647287 0.000240461)
(-0.00117926 -0.000654829 0.000264997)
(-0.00124667 -0.000658971 0.000281751)
(-0.00130519 -0.000662554 0.000291259)
(-0.00135618 -0.000667724 0.000294723)
(-0.00140156 -0.000675736 0.000293565)
(-0.00144359 -0.000687102 0.000289193)
(-0.00148353 -0.000701073 0.000282471)
(-0.001523 -0.000717449 0.000274203)
(-0.00156278 -0.000735592 0.000264812)
(-0.00160318 -0.000755032 0.000254428)
(-0.00164429 -0.00077545 0.000242998)
(-0.00168595 -0.000796574 0.000230318)
(-0.00172793 -0.000818159 0.000216057)
(-0.00176995 -0.000839928 0.00019986)
(-0.00181154 -0.000861477 0.00018123)
(-0.00185224 -0.00088234 0.000159572)
(-0.00189137 -0.000901884 0.000133991)
(-0.00192679 -0.000919134 0.000103438)
(-0.00195454 -0.000932838 6.54303e-05)
(-0.00197084 -0.000941192 2.18478e-05)
(-0.000279143 -8.21405e-05 3.01333e-05)
(-0.00034878 -0.000134572 -5.62972e-05)
(-0.000382674 -0.000181672 -5.52568e-05)
(-0.000418212 -0.000234868 -4.54698e-05)
(-0.000464529 -0.000292972 -2.68241e-05)
(-0.000527018 -0.000354546 -2.28541e-06)
(-0.000605707 -0.000416513 2.77619e-05)
(-0.000696496 -0.000474231 6.30106e-05)
(-0.000793872 -0.000523354 0.000101822)
(-0.000892888 -0.000561427 0.000141534)
(-0.000989375 -0.000588028 0.000179157)
(-0.00107983 -0.000604455 0.000211977)
(-0.0011622 -0.000613563 0.000238188)
(-0.00123519 -0.000618466 0.000257002)
(-0.00129896 -0.000622153 0.000268706)
(-0.00135459 -0.000626829 0.000274276)
(-0.00140412 -0.000633987 0.000275089)
(-0.00144945 -0.000644105 0.000272445)
(-0.00149204 -0.000656695 0.000267279)
(-0.00153355 -0.000671636 0.000260419)
(-0.00157474 -0.000688299 0.000252297)
(-0.00161608 -0.000706239 0.000243087)
(-0.00165766 -0.000725109 0.00023275)
(-0.00169945 -0.000744663 0.000221107)
(-0.00174122 -0.000764637 0.00020782)
(-0.00178286 -0.000784792 0.000192561)
(-0.00182385 -0.000804665 0.000174839)
(-0.00186391 -0.000823903 0.000154095)
(-0.0019026 -0.000841945 0.00012952)
(-0.00193754 -0.000857874 0.000100122)
(-0.0019646 -0.000870422 6.33278e-05)
(-0.00198071 -0.000878101 2.10999e-05)
(-0.000248304 -5.63731e-05 3.94502e-05)
(-0.000318204 -0.000103202 -5.35043e-05)
(-0.000349044 -0.000143997 -5.55525e-05)
(-0.000379334 -0.000190773 -4.92457e-05)
(-0.000419592 -0.000242757 -3.53683e-05)
(-0.00047675 -0.000299602 -1.65338e-05)
(-0.000552193 -0.000359352 7.60786e-06)
(-0.000642643 -0.000417602 3.77316e-05)
(-0.000742576 -0.000469334 7.28833e-05)
(-0.000845866 -0.000510671 0.000110527)
(-0.000947449 -0.000540233 0.000147515)
(-0.00104388 -0.000559167 0.000180983)
(-0.00113225 -0.000569851 0.000208737)
(-0.00121137 -0.000575604 0.000229724)
(-0.00128092 -0.000579391 0.000243853)
(-0.00134191 -0.000583638 0.00025187)
(-0.00139583 -0.000589799 0.00025493)
(-0.00144473 -0.000598584 0.000254303)
(-0.00149006 -0.000609654 0.000250929)
(-0.00153349 -0.000622968 0.000245656)
(-0.00157602 -0.000637996 0.000238971)
(-0.00161814 -0.000654292 0.000231073)
(-0.00166006 -0.000671527 0.000221959)
(-0.00170172 -0.000689407 0.00021145)
(-0.00174303 -0.000707705 0.000199215)
(-0.00178388 -0.000726126 0.000184934)
(-0.00182405 -0.000744321 0.00016818)
(-0.00186319 -0.000761902 0.000148384)
(-0.00190102 -0.00077834 0.000124846)
(-0.00193502 -0.000792861 9.66548e-05)
(-0.00196138 -0.000804335 6.11306e-05)
(-0.00197703 -0.000811247 2.03138e-05)
(-0.000212008 -3.39689e-05 4.5397e-05)
(-0.000280665 -7.46317e-05 -4.97542e-05)
(-0.000308861 -0.000109424 -5.46332e-05)
(-0.00033376 -0.000149709 -5.1273e-05)
(-0.00036702 -0.000194915 -4.16345e-05)
(-0.000417438 -0.000245881 -2.83035e-05)
(-0.000488531 -0.000302312 -1.05e-05)
(-0.000577571 -0.000360136 1.35415e-05)
(-0.000678334 -0.000413381 4.38593e-05)
(-0.000784957 -0.000457586 7.84097e-05)
(-0.000892064 -0.00049055 0.000114099)
(-0.000994561 -0.000512185 0.00014774)
(-0.00108966 -0.000524855 0.000176913)
(-0.00117517 -0.000531485 0.000200063)
(-0.00125078 -0.000535297 0.000216761)
(-0.00131702 -0.00053881 0.000227399)
(-0.00137568 -0.000543862 0.00023301)
(-0.00142832 -0.000551146 0.000234686)
(-0.00147662 -0.000560597 0.000233387)
(-0.00152225 -0.000572236 0.000229964)
(-0.00156614 -0.000585526 0.000224915)
(-0.00160891 -0.000600076 0.000218486)
(-0.00165084 -0.000615536 0.000210696)
(-0.00169202 -0.000631648 0.000201409)
(-0.00173236 -0.000648148 0.000190274)
(-0.00177208 -0.000664815 0.000177021)
(-0.0018108 -0.000681203 0.000161248)
(-0.00184847 -0.000697054 0.000142411)
(-0.00188523 -0.000711919 0.00011996)
(-0.00191806 -0.000725073 9.30414e-05)
(-0.00194309 -0.000735339 5.88236e-05)
(-0.00195836 -0.000741551 1.94868e-05)
(-0.000170222 -1.55064e-05 4.76518e-05)
(-0.000235548 -4.9322e-05 -4.47468e-05)
(-0.000261471 -7.82203e-05 -5.2169e-05)
(-0.000281394 -0.000112027 -5.12248e-05)
(-0.00030738 -0.000150032 -4.51137e-05)
(-0.000349441 -0.000193789 -3.68452e-05)
(-0.000412797 -0.000244482 -2.55736e-05)
(-0.000497676 -0.000299949 -8.49199e-06)
(-0.000599476 -0.000354776 1.57584e-05)
(-0.000709776 -0.000402252 4.59805e-05)
(-0.000821463 -0.000438506 7.92948e-05)
(-0.000930302 -0.000463381 0.000112478)
(-0.00103192 -0.000478212 0.000142633)
(-0.00112449 -0.00048614 0.000167891)
(-0.00120676 -0.000490204 0.00018729)
(-0.00127927 -0.000493239 0.000200885)
(-0.00134297 -0.000497079 0.000209332)
(-0.00139973 -0.000502781 0.000213632)
(-0.00145107 -0.000510453 0.000214675)
(-0.00149866 -0.000520187 0.000213301)
(-0.00154374 -0.000531603 0.000210078)
(-0.00158698 -0.000544306 0.000205274)
(-0.00162879 -0.00055798 0.000198957)
(-0.0016692 -0.0005723 0.000190991)
(-0.00170833 -0.000587047 0.000181036)
(-0.0017464 -0.000601927 0.000168837)
(-0.00178351 -0.000616614 0.000154098)
(-0.00181948 -0.000630827 0.000136244)
(-0.00185462 -0.000644055 0.000114892)
(-0.00188573 -0.000655815 8.92945e-05)
(-0.00190948 -0.000665036 5.64325e-05)
(-0.00192403 -0.000670475 1.86224e-05)
(-0.000125599 -1.96388e-06 4.66495e-05)
(-0.000185316 -2.85799e-05 -3.86527e-05)
(-0.000209591 -5.17928e-05 -4.83663e-05)
(-0.000225171 -7.93218e-05 -4.94931e-05)
(-0.000242985 -0.00010977 -4.60715e-05)
(-0.000274706 -0.000145253 -4.14587e-05)
(-0.000330565 -0.000189479 -3.59247e-05)
(-0.000410552 -0.000241223 -2.66667e-05)
(-0.000508382 -0.000294607 -9.98908e-06)
(-0.000619469 -0.000344182 1.45079e-05)
(-0.00073673 -0.000384786 4.43138e-05)
(-0.000851881 -0.000413445 7.60887e-05)
(-0.000961109 -0.000431405 0.000106751)
(-0.00106063 -0.000440879 0.000133782)
(-0.0011496 -0.000445336 0.000155815)
(-0.00122786 -0.000447686 0.000172385)
(-0.00129686 -0.000450306 0.00018391)
(-0.00135778 -0.000454306 0.000191093)
(-0.00141236 -0.000460135 0.000194769)
(-0.00146232 -0.000468001 0.000195749)
(-0.00150865 -0.000477503 0.000194571)
(-0.00155223 -0.000488329 0.000191564)
(-0.00159346 -0.000500126 0.000186818)
(-0.00163268 -0.000512645 0.00018026)
(-0.00166996 -0.000525603 0.000171517)
(-0.00170599 -0.000538763 0.000160405)
(-0.0017407 -0.000551688 0.000146693)
(-0.00177423 -0.000564239 0.000129809)
(-0.00180765 -0.000575949 0.00010961)
(-0.00183676 -0.000586436 8.54044e-05)
(-0.00185849 -0.000594516 5.39246e-05)
(-0.00187244 -0.000599292 1.77133e-05)
(-7.84122e-05 8.12256e-06 4.26614e-05)
(-0.000129678 -1.09611e-05 -3.08297e-05)
(-0.000151339 -2.82023e-05 -4.22461e-05)
(-0.000163612 -4.96086e-05 -4.43489e-05)
(-0.0001764 -7.27106e-05 -4.19555e-05)
(-0.000200313 -9.93227e-05 -4.11113e-05)
(-0.000240748 -0.000133696 -4.19865e-05)
(-0.000308141 -0.000179171 -3.92991e-05)
(-0.000406232 -0.000233138 -3.0605e-05)
(-0.000519156 -0.000285031 -1.40646e-05)
(-0.000638091 -0.000328855 1.04246e-05)
(-0.000758781 -0.000361849 3.9536e-05)
(-0.000873809 -0.000382957 6.96274e-05)
(-0.000980817 -0.000394917 9.79447e-05)
(-0.00107704 -0.000400466 0.000122419)
(-0.00116232 -0.000402855 0.000142111)
(-0.00123684 -0.000404416 0.000156873)
(-0.00130234 -0.000406847 0.000167211)
(-0.0013602 -0.000410799 0.000173767)
(-0.00141201 -0.000416595 0.000177267)
(-0.00145932 -0.000424109 0.000178317)
(-0.00150293 -0.000433018 0.000177257)
(-0.00154351 -0.000443028 0.000174238)
(-0.00158117 -0.000453814 0.000169185)
(-0.00161635 -0.000465134 0.000161729)
(-0.00164979 -0.000476643 0.000151711)
(-0.00168202 -0.000488022 0.000139079)
(-0.00171292 -0.000499113 0.000123177)
(-0.001744 -0.000509278 0.000104135)
(-0.00177056 -0.000518555 8.13808e-05)
(-0.00179033 -0.000525708 5.13256e-05)
(-0.00180336 -0.000529778 1.67629e-05)
(-4.07872e-05 9.9938e-06 3.55629e-05)
(-8.00276e-05 -2.60874e-06 -2.09191e-05)
(-0.000102456 -1.41118e-05 -3.04783e-05)
(-0.00011456 -2.79258e-05 -3.64873e-05)
(-0.00012119 -4.39136e-05 -3.83727e-05)
(-0.000130298 -6.26485e-05 -3.82871e-05)
(-0.000163421 -8.74808e-05 -3.94166e-05)
(-0.000221644 -0.000121834 -4.5745e-05)
(-0.000294278 -0.000166837 -4.7383e-05)
(-0.000401039 -0.000220171 -3.71356e-05)
(-0.000525151 -0.000269539 -1.95124e-05)
(-0.000650891 -0.000307705 4.79973e-06)
(-0.000774635 -0.000334394 3.30453e-05)
(-0.000888631 -0.000349568 6.16492e-05)
(-0.000991618 -0.000356787 8.80173e-05)
(-0.00108254 -0.000359264 0.000110466)
(-0.00116264 -0.000360124 0.000128473)
(-0.00123239 -0.000361077 0.000142054)
(-0.00129352 -0.000363253 0.000151685)
(-0.00134777 -0.000367236 0.000157993)
(-0.0013961 -0.000372856 0.000161476)
(-0.00143961 -0.000379929 0.000162523)
(-0.00147892 -0.00038815 0.000161312)
(-0.00151453 -0.000397277 0.000157843)
(-0.00154684 -0.000407006 0.000151681)
(-0.00157722 -0.00041702 0.000142761)
(-0.00160601 -0.000426828 0.000131181)
(-0.00163349 -0.000436517 0.00011623)
(-0.00166217 -0.000445302 9.84017e-05)
(-0.00168573 -0.000453518 7.71809e-05)
(-0.00170283 -0.000459714 4.85818e-05)
(-0.001715 -0.000463188 1.57559e-05)
(-1.7109e-05 1.11456e-05 2.48006e-05)
(-2.53779e-05 1.05118e-06 -1.63363e-05)
(-2.89738e-05 -5.43721e-06 -2.13847e-05)
(-3.49981e-05 -1.25067e-05 -2.47222e-05)
(-3.70019e-05 -2.20915e-05 -2.43916e-05)
(-5.72199e-05 -3.9196e-05 -2.75872e-05)
(-5.22183e-05 -3.39591e-05 -1.91023e-05)
(-0.000114257 -7.1717e-05 -2.85859e-05)
(-0.000207888 -0.000110129 -3.94947e-05)
(-0.000295579 -0.000153444 -5.26108e-05)
(-0.000406195 -0.000204304 -4.45363e-05)
(-0.000534801 -0.000252215 -2.6469e-05)
(-0.000660182 -0.000282957 -1.99039e-06)
(-0.000780733 -0.000302828 2.58308e-05)
(-0.000890563 -0.000313062 5.32574e-05)
(-0.000988765 -0.000317124 7.81016e-05)
(-0.00107416 -0.000317849 9.91121e-05)
(-0.00114854 -0.000317887 0.000115975)
(-0.0012129 -0.000318571 0.000128783)
(-0.00126853 -0.000320671 0.000137934)
(-0.00131739 -0.000324474 0.000143963)
(-0.00136034 -0.000329792 0.00014722)
(-0.00139828 -0.000336426 0.000147951)
(-0.00143144 -0.000344055 0.000146147)
(-0.00146062 -0.000352445 0.000141335)
(-0.00148742 -0.00036112 0.000133496)
(-0.00151293 -0.000369655 0.000123028)
(-0.0015367 -0.000378181 0.000109019)
(-0.00156251 -0.000385608 9.24196e-05)
(-0.00158272 -0.000392974 7.28225e-05)
(-0.0015971 -0.000398378 4.57173e-05)
(-0.00160828 -0.000401303 1.46982e-05)
(8.02274e-06 1.0534e-05 1.80676e-05)
(2.01558e-06 1.69464e-06 -1.06813e-05)
(-2.32888e-06 4.84415e-07 -1.53695e-05)
(-8.43627e-06 -3.46413e-06 -1.94028e-05)
(-1.27127e-05 -8.40978e-06 -2.17141e-05)
(-2.13247e-05 -1.45617e-05 -2.32362e-05)
(-2.9278e-05 -2.07443e-05 -2.75538e-05)
(-3.36687e-05 -3.38662e-05 -2.49222e-05)
(-6.29473e-05 -5.59856e-05 -1.94927e-05)
(-0.000173916 -9.68143e-05 -3.10359e-05)
(-0.00033445 -0.000151328 -5.2863e-05)
(-0.000402257 -0.000187454 -4.98244e-05)
(-0.000537772 -0.00022983 -3.19745e-05)
(-0.00066412 -0.000256025 -7.27341e-06)
(-0.00077935 -0.000270387 1.98191e-05)
(-0.000881634 -0.00027626 4.59633e-05)
(-0.000972244 -0.000277827 6.94742e-05)
(-0.00105027 -0.000277416 8.93009e-05)
(-0.00111736 -0.000277035 0.000105207)
(-0.00117523 -0.000277891 0.000117361)
(-0.00122458 -0.000280193 0.00012603)
(-0.00126678 -0.000284003 0.000131588)
(-0.00130265 -0.000289171 0.000134295)
(-0.00133277 -0.000295469 0.000134198)
(-0.00135793 -0.000302644 0.000130704)
(-0.00138059 -0.000310154 0.000123897)
(-0.00140162 -0.000317361 0.000114485)
(-0.00142116 -0.0003249 0.000101393)
(-0.00144392 -0.000331054 8.60737e-05)
(-0.00145998 -0.000337686 6.8201e-05)
(-0.0014712 -0.000342317 4.26473e-05)
(-0.00148122 -0.000344748 1.35629e-05)
(2.49987e-05 6.02819e-06 2.64359e-05)
(2.56122e-05 9.09324e-06 6.99215e-06)
(1.60992e-05 1.57103e-05 -2.76206e-06)
(9.31621e-06 1.16929e-05 -1.17364e-05)
(-7.14479e-07 9.99356e-06 -2.02869e-05)
(-2.71644e-06 9.42171e-08 -2.84913e-05)
(-1.11451e-05 -1.03078e-05 -3.14217e-05)
(-1.83152e-05 -2.17512e-05 -3.40138e-05)
(-1.98244e-05 -2.50951e-05 -2.37617e-05)
(-5.92834e-05 -2.58475e-05 -5.47254e-05)
(-0.000123974 -0.000188597 -7.8685e-05)
(-0.000292354 -0.000153571 8.80035e-06)
(-0.0004082 -0.000166506 -5.45628e-05)
(-0.00053477 -0.00020714 -3.54557e-05)
(-0.000654235 -0.00022645 -1.03914e-05)
(-0.000763329 -0.000236394 1.5482e-05)
(-0.000857748 -0.000239716 4.0444e-05)
(-0.000939592 -0.000239987 6.27544e-05)
(-0.00100918 -0.000239264 8.15023e-05)
(-0.00106721 -0.000239001 9.63921e-05)
(-0.00111624 -0.000240142 0.000107624)
(-0.00115705 -0.000242692 0.000115452)
(-0.00119061 -0.000246704 0.000120177)
(-0.00121736 -0.00025193 0.000121831)
(-0.00123832 -0.000258198 0.000119673)
(-0.00125652 -0.000264765 0.000113844)
(-0.00127386 -0.000270993 0.000105588)
(-0.00128841 -0.000277664 9.3352e-05)
(-0.00130831 -0.000282651 7.93768e-05)
(-0.00132028 -0.000288876 6.3366e-05)
(-0.00132821 -0.00029278 3.94046e-05)
(-0.00133724 -0.000294828 1.23656e-05)
(3.48814e-05 1.26108e-05 3.67169e-05)
(4.35138e-05 9.14284e-06 -7.2419e-06)
(4.40129e-05 3.13196e-06 -1.18007e-05)
(4.23562e-05 -3.78764e-06 -1.3982e-05)
(3.59903e-05 -1.15592e-05 -1.48625e-05)
(3.05228e-05 -1.54027e-05 -1.31387e-05)
(1.90883e-05 -1.48194e-05 -5.5166e-06)
(5.09616e-07 -3.91552e-06 -3.18521e-06)
(-2.33013e-05 1.08987e-05 -3.30024e-05)
(-7.76602e-05 -3.68924e-05 -5.85483e-05)
(-5.28387e-05 -4.7933e-05 -4.04574e-05)
(-0.000119669 -7.2035e-05 -3.31394e-05)
(-0.000285045 -0.00011489 -5.86905e-05)
(-0.000400894 -0.000151261 -5.30835e-05)
(-0.000524729 -0.000182036 -3.54117e-05)
(-0.000634515 -0.00019629 -1.18658e-05)
(-0.00073294 -0.000203037 1.32767e-05)
(-0.000816667 -0.000204803 3.70693e-05)
(-0.000887571 -0.000204573 5.80635e-05)
(-0.000947228 -0.000204359 7.5543e-05)
(-0.000995653 -0.000204927 8.91657e-05)
(-0.00103476 -0.00020663 9.91691e-05)
(-0.00106539 -0.00020978 0.000105846)
(-0.00108797 -0.000214106 0.000109198)
(-0.0011038 -0.000219625 0.000108277)
(-0.00111685 -0.000225347 0.000103282)
(-0.00112859 -0.000230251 9.60591e-05)
(-0.00113872 -0.000236407 8.47285e-05)
(-0.001155 -0.000240057 7.21208e-05)
(-0.00116189 -0.000245957 5.81046e-05)
(-0.00116623 -0.000248979 3.58438e-05)
(-0.00117409 -0.000250691 1.10625e-05)
(4.57256e-05 1.41655e-05 4.34855e-05)
(6.24132e-05 1.12243e-05 -8.07773e-06)
(6.87194e-05 7.41428e-06 -1.54048e-05)
(7.05766e-05 -1.54028e-07 -1.92886e-05)
(6.83645e-05 -9.11502e-06 -2.03448e-05)
(6.27275e-05 -1.73634e-05 -1.88357e-05)
(5.22868e-05 -2.38751e-05 -1.48845e-05)
(3.36944e-05 -2.73367e-05 -8.19199e-06)
(9.10311e-06 -1.7758e-05 -1.08369e-05)
(3.01866e-06 -2.71661e-05 2.82134e-06)
(-7.19923e-05 5.55108e-05 -1.32734e-05)
(-3.47091e-05 -1.80598e-05 -4.15753e-05)
(-0.000145241 -7.08304e-05 -3.66886e-05)
(-0.000304494 -0.000101095 -5.2582e-05)
(-0.000388856 -0.000133011 -5.47439e-05)
(-0.000501986 -0.000156518 -3.45201e-05)
(-0.000600771 -0.000166917 -1.0702e-05)
(-0.000686247 -0.000171697 1.34427e-05)
(-0.000757694 -0.000172954 3.58084e-05)
(-0.000815076 -0.000172906 5.51002e-05)
(-0.000861675 -0.000173562 7.06694e-05)
(-0.000898356 -0.000174805 8.25408e-05)
(-0.000925476 -0.000177438 9.10099e-05)
(-0.000943928 -0.000181181 9.60208e-05)
(-0.000954576 -0.000186251 9.62797e-05)
(-0.000962785 -0.000191348 9.20339e-05)
(-0.000971751 -0.000195451 8.60886e-05)
(-0.000975251 -0.000200724 7.54746e-05)
(-0.000989746 -0.000203374 6.44065e-05)
(-0.000991658 -0.000209233 5.25459e-05)
(-0.000993238 -0.000211401 3.20674e-05)
(-0.000999591 -0.000212604 9.68622e-06)
(5.39242e-05 1.32282e-05 4.52386e-05)
(7.54662e-05 1.03021e-05 -7.08199e-06)
(8.54741e-05 6.57427e-06 -1.54884e-05)
(9.10267e-05 -8.98033e-07 -2.06851e-05)