/*--------------------------------*- C++ -*----------------------------------*\
  =========                 |
  \\      /  F ield         | OpenFOAM: The Open Source CFD Toolbox
   \\    /   O peration     | Website:  https://openfoam.org
    \\  /    A nd           | Version:  6
     \\/     M anipulation  |
\*---------------------------------------------------------------------------*/
FoamFile
{
    version     2.0;
    format      ascii;
    class       volScalarField;
    location    "37";
    object      yPlus;
}
// * * * * * * * * * * * * * * * * * * * * * * * * * * * * * * * * * * * * * //

dimensions      [0 0 0 0 0 0 0];

internalField   uniform 0;

boundaryField
{
    inlet
    {
        type            calculated;
        value           uniform 0;
    }
    outlet
    {
        type            calculated;
        value           uniform 0;
    }
    roughCylinder
    {
        type            calculated;
        value           nonuniform List<scalar> 
3840
(
81.8986
50.5479
53.6937
62.0051
68.4258
73.5382
77.6532
81.1152
84.173
86.9542
89.5835
92.104
94.615
97.2143
99.9568
102.864
105.949
109.194
112.563
115.992
119.374
122.536
125.165
126.77
84.1558
50.6084
52.2658
60.3353
66.6929
71.7896
75.8858
79.3321
82.3643
85.1194
87.6569
90.098
92.5289
95.0278
97.6644
100.478
103.457
106.591
109.844
113.156
116.423
119.479
122.02
123.57
82.3027
49.8547
50.8484
58.6523
64.9496
69.9995
74.1134
77.583
80.6163
83.2859
85.7796
88.1416
90.4742
92.8878
95.4372
98.1372
101.008
104.029
107.17
110.366
113.52
116.471
118.925
120.42
83.6336
49.5918
49.3583
56.9091
63.159
68.2447
72.3761
75.8455
78.8428
81.5237
83.9335
86.2217
88.4899
90.8094
93.2531
95.8699
98.6417
101.559
104.587
107.671
110.713
113.561
115.929
117.371
79.9282
48.9249
47.944
55.1518
61.3874
66.4358
70.6063
74.121
77.1609
79.7599
82.1467
84.3771
86.5514
88.7978
91.1719
93.6785
96.3477
99.1588
102.082
105.058
107.994
110.742
113.029
114.418
70.4695
47.8737
46.3721
53.3107
59.5031
64.6478
68.8748
72.4118
75.3976
78.0587
80.3859
82.5536
84.6889
86.8535
89.1238
91.5648
94.1475
96.8659
99.684
102.554
105.387
108.039
110.245
111.583
59.6735
47.5255
44.9373
51.4155
57.6646
62.7747
67.0525
70.6483
73.7505
76.3275
78.6649
80.8096
82.8588
84.9661
87.1918
89.5255
92.0122
94.6295
97.3538
100.124
102.858
105.418
107.548
108.838
73.7907
46.3984
43.2481
49.4051
55.5857
60.8716
65.2601
68.9283
71.9414
74.6398
76.9497
79.0501
81.098
83.1421
85.2632
87.5529
89.9683
92.5069
95.1329
97.8059
100.443
102.914
104.969
106.21
59.3066
45.8817
41.6749
47.2001
53.566
58.8336
63.2966
67.0281
70.2807
72.8951
75.2407
77.3656
79.3398
81.3468
83.4587
85.6429
87.9674
90.4097
92.951
95.5331
98.079
100.465
102.45
103.644
65.5989
44.8399
39.8406
44.8731
51.0831
56.6584
61.3228
65.241
68.3434
71.1585
73.5197
75.6083
77.6276
79.5967
81.599
83.7674
86.0394
88.4188
90.8682
93.3587
95.8144
98.1156
100.03
101.178
66.8569
44.7194
37.9354
41.992
48.6444
54.2526
59.0701
63.0438
66.594
69.3331
71.759
73.9341
75.8816
77.8321
79.873
81.9337
84.1165
86.3999
88.7745
91.1796
93.5492
95.7706
97.6187
98.7213
56.6182
43.324
35.9311
39.0374
45.2804
51.499
56.6886
61.0966
64.3966
67.4552
69.9654
72.1083
74.1633
76.1069
78.0195
80.0992
82.2532
84.4931
86.7798
89.0981
91.3806
93.5207
95.2998
96.357
54.1452
42.3829
33.531
34.7126
41.9507
48.2716
53.8583
58.3131
62.4426
65.4469
68.0613
70.3862
72.3675
74.3106
76.3315
78.295
80.3563
82.4958
84.7172
86.9564
89.1568
91.2204
92.9369
93.9486
57.7728
41.2787
30.7155
30.1227
36.2103
44.2053
50.5729
56.027
59.7406
63.283
66.0993
68.3879
70.5688
72.5535
74.4083
76.4398
78.506
80.6297
82.766
84.9207
87.0368
89.0201
90.6682
91.6351
51.0721
39.8903
27.6496
21.2234
30.7392
38.7758
46.4432
52.0223
57.3903
60.9191
63.9079
66.5392
68.6381
70.6353
72.7071
74.6036
76.5647
78.574
80.6569
82.7384
84.7746
86.6843
88.2713
89.1929
32.7979
33.5436
23.583
16.3754
11.1953
30.4056
40.6859
48.9747
53.6252
58.2099
61.6251
64.2025
66.6426
68.7665
70.5982
72.636
74.6537
76.6906
78.6866
80.684
82.6361
84.4643
85.9821
86.8581
14.8967
12.8375
8.22456
16.4086
4.36095
17.91
33.028
41.9187
50.5254
55.138
58.8916
62.1102
64.4567
66.5872
68.8165
70.6799
72.5629
74.452
76.4123
78.3413
80.2141
81.9691
83.4275
84.2562
9.80885
11.5945
14.4803
16.415
17.6099
7.6379
23.7704
36.4728
43.9901
51.3398
55.992
59.1368
62.0643
64.4878
66.3319
68.4585
70.4833
72.4736
74.3363
76.178
77.9634
79.6332
81.0182
81.799
9.45789
4.02867
10.0898
11.2807
19.532
19.2871
19.6438
11.2839
39.3155
46.5741
52.1888
56.5936
59.4212
61.8085
64.3803
66.2477
68.075
69.8497
71.7038
73.4817
75.1849
76.7796
78.1054
78.834
2.54342
11.5075
5.00838
14.8737
14.8079
22.5939
11.0204
11.9329
20.5059
40.4073
47.9455
52.3338
56.261
59.2853
61.1714
63.5355
65.6581
67.6646
69.4012
71.0822
72.691
74.1917
75.4357
76.1133
11.5922
20.541
23.0462
17.8773
24.8065
19.2033
24.7913
22.3713
23.1845
28.4819
41.4423
48.8866
52.6896
55.6168
58.9335
60.8455
62.6483
64.3015
66.0664
67.6907
69.2088
70.6301
71.8155
72.4298
11.8386
21.8446
26.6518
29.2077
25.0275
21.5112
21.5199
18.6341
14.9094
14.1897
33.9081
41.4757
48.0334
52.3139
54.2313
57.1751
59.5661
61.7359
63.3658
64.8723
66.2859
67.5984
68.6865
69.2478
11.9657
22.1796
27.9252
31.0563
31.9438
25.6442
8.47002
7.32855
25.731
14.4332
5.96328
35.6384
41.7913
46.3649
51.5877
53.5862
55.4486
56.8978
58.6013
60.0746
61.3781
62.606
63.6438
64.1179
11.7649
20.4106
26.8128
31.3929
33.2867
32.982
24.5757
5.46697
21.602
18.2304
22.575
9.70948
34.2981
41.4
43.1144
47.7346
50.8513
53.6807
55.256
56.5625
57.7556
58.8547
59.765
60.1884
11.2576
18.5842
25.0351
29.7371
32.8088
33.4767
32.7465
22.1457
30.201
27.506
24.069
22.4972
25.9925
28.2232
40.2587
42.3203
44.3333
45.1903
47.0157
48.3793
49.4253
50.4234
51.3354
51.6251
8.62935
16.7602
23.0915
27.7928
30.9611
32.798
32.2717
31.8334
21.1145
19.3798
18.9351
3.144
22.8146
25.2518
13.1523
29.0699
35.9643
41.243
42.6649
43.8019
44.6634
45.6434
46.3489
46.5731
7.4053
15.3363
20.9664
25.1909
28.3678
30.3256
31.3666
30.3285
31.3113
20.0077
15.5665
18.1322
25.3758
5.01438
24.5009
8.84813
11.7639
12.5592
20.2772
20.6177
23.0193
22.5428
23.8289
23.3101
5.09628
13.4659
17.9997
21.5398
24.4417
26.7126
27.9382
29.3044
29.0581
31.6182
21.1842
12.6124
21.548
25.1853
25.4944
19.7737
27.2185
7.55757
28.3137
22.1453
30.1002
10.2144
11.3028
24.7124
4.95371
12.2272
14.735
16.873
19.1692
21.4316
23.6557
25.4145
28.2883
29.0884
32.127
22.5367
29.6893
27.2118
14.574
11.9082
20.6982
28.0033
8.01842
29.4292
11.3187
23.4916
24.789
31.5632
3.90257
11.9447
12.5024
13.0663
14.1758
16.2701
18.8381
22.0076
24.5926
28.3493
29.7668
32.531
23.9799
22.003
28.7886
23.832
11.4123
17.3693
24.9653
5.83093
31.5636
31.4151
17.6037
31.6488
3.30782
11.5091
11.6802
11.889
12.3564
14.0917
16.72
19.2596
22.5265
25.0844
28.8495
30.5893
32.6534
26.1856
15.244
30.4949
27.9978
22.8725
28.225
27.5099
27.3885
33.0518
23.4156
20.0801
2.97571
11.3565
11.6012
11.7356
12.3712
14.6017
17.0148
19.2892
21.1324
23.8183
26.0189
29.4665
31.3194
32.4702
29.9857
19.385
25.0731
15.0498
23.5997
29.1128
9.80525
26.888
31.2634
31.063
1.98198
9.45999
11.5494
11.7126
12.6517
15.4424
18.0158
19.9588
21.7916
23.0979
25.1003
26.975
29.9909
31.853
32.3195
32.1897
27.879
22.7889
16.8929
14.972
13.6942
12.6669
12.4501
12.8667
2.39168
10.1083
11.439
11.5019
14.1888
17.1704
19.4634
21.29
22.6395
23.9837
24.8231
26.2131
27.844
30.2264
32.2096
32.0071
31.2596
30.8799
30.5304
30.2664
29.8942
29.4854
29.4204
29.6105
3.31059
11.4056
11.6885
13.2807
16.3651
19.0159
21.104
22.7368
24.1218
25.0395
25.8684
26.282
27.15
28.558
30.2826
31.6883
31.5099
30.4487
28.7748
27.1073
25.6826
24.8068
24.6509
24.8113
3.48104
11.3081
12.9275
15.9164
18.7093
21.0156
22.885
24.4349
25.6478
26.6398
27.1468
27.4758
27.5299
27.9321
29.055
30.0003
30.2734
29.8946
28.9214
27.6568
26.4262
25.7252
25.7419
26.0334
3.94849
12.021
15.5971
18.415
20.825
22.902
24.6696
26.1612
27.4204
28.3019
28.8794
28.981
28.8527
28.616
28.6149
29.1148
29.3106
28.8011
27.3955
25.4697
23.6215
22.6308
22.7043
23.1752
5.81217
14.9103
18.1022
20.5874
22.7947
24.7509
26.4641
27.9649
29.2084
30.1735
30.7028
30.8627
30.5829
30.0495
29.5301
29.1211
28.8004
28.2114
27.0506
25.4422
23.8913
23.1406
23.416
24.0403
7.94847
16.9607
20.0669
22.4264
24.5526
26.4807
28.2161
29.7595
31.0829
32.0689
32.6944
32.8615
32.613
31.9785
31.0894
30.2012
29.3315
28.3276
26.8992
25.0663
23.3115
22.4795
22.8386
23.5837
10.3457
18.8184
21.7571
24.0732
26.2052
28.1586
29.9493
31.5698
32.9519
34.0327
34.7108
34.9806
34.7797
34.1341
33.1384
31.8995
30.5704
29.1656
27.5689
25.7835
24.2019
23.5503
24.0331
24.845
11.5432
13.1086
15.0961
16.4055
17.3491
17.7109
17.6868
17.2687
16.6573
15.8806
15.0847
14.271
13.5235
12.8406
12.2641
11.81
11.5633
11.4394
11.0955
10.8993
10.8992
11.0944
11.5256
11.5169
11.8033
12.2637
12.8409
13.5244
14.2721
15.0869
15.8834
16.6615
17.2744
17.6944
17.721
17.3613
16.4211
15.1096
13.1425
11.4145
20.0495
20.8503
21.44
21.7299
21.9165
21.9235
21.8977
21.7837
21.6745
21.5321
21.4108
21.2818
21.1705
21.0633
20.9726
20.8928
20.8279
20.7777
20.7446
20.7265
20.7267
20.745
20.7785
20.8288
20.8939
20.974
21.0649
21.1724
21.2838
21.4132
21.5345
21.6774
21.7866
21.9011
21.9272
21.9209
21.7353
21.4461
20.859
20.0537
22.8528
23.3792
23.785
24.0153
24.2006
24.2814
24.3481
24.3542
24.353
24.3181
24.2831
24.2374
24.1957
24.1534
24.1165
24.0847
24.0582
24.0385
24.0242
24.0158
24.016
24.0248
24.0394
24.0594
24.0863
24.1184
24.1557
24.1982
24.2402
24.2861
24.3213
24.3565
24.3577
24.3521
24.2852
24.2052
24.0194
23.7906
23.384
22.8604
25.1586
25.631
26.0563
26.3255
26.5664
26.7144
26.8491
26.9361
27.017
27.0706
27.12
27.1572
27.1929
27.2237
27.2519
27.2775
27.2985
27.3153
27.3258
27.3297
27.3299
27.3265
27.3165
27.3001
27.2795
27.2543
27.2265
27.1961
27.1607
27.1238
27.0746
27.0212
26.9404
26.8537
26.7188
26.5713
26.33
26.0619
25.6356
25.1654
27.3102
27.7554
28.2083
28.5052
28.8047
29.0187
29.2332
29.4002
29.5678
29.7084
29.8462
29.9693
30.0877
30.196
30.2951
30.3828
30.4562
30.5131
30.5511
30.568
30.5682
30.5519
30.5147
30.4582
30.3854
30.2983
30.1995
30.0916
29.9735
29.8506
29.713
29.5726
29.4052
29.2383
29.0237
28.8099
28.5101
28.2136
27.7602
27.3158
29.3081
29.7412
30.2416
30.5805
30.9508
31.231
31.5255
31.7708
32.0213
32.2444
32.4655
32.6694
32.8653
33.0458
33.2108
33.3557
33.477
33.5706
33.6328
33.6611
33.6614
33.6339
33.5724
33.4795
33.3588
33.2144
33.0499
32.87
32.6744
32.4706
32.25
32.0268
31.7765
31.5312
31.2366
30.9564
30.5859
30.2468
29.7462
29.313
31.1678
31.6012
32.1602
32.5365
32.9709
33.3084
33.671
33.9831
34.3032
34.5958
34.8856
35.1565
35.4158
35.655
35.8731
36.0639
36.2229
36.3449
36.4256
36.462
36.4624
36.4269
36.3469
36.2258
36.0674
35.8773
35.6598
35.4211
35.1622
34.8917
34.6022
34.3096
33.9896
33.6773
33.3147
32.9769
32.5423
32.1657
31.6065
31.1725
32.8583
33.2939
33.9003
34.3072
34.7909
35.1748
35.5894
35.9544
36.328
36.6744
37.0165
37.338
37.6445
37.9272
38.1838
38.4075
38.5933
38.7352
38.8286
38.8702
38.8707
38.8299
38.7374
38.5963
38.4115
38.1885
37.9325
37.6504
37.3442
37.0231
36.6812
36.3349
35.9614
35.5964
35.1816
34.7976
34.3135
33.9061
33.2993
32.8631
34.3146
34.7394
35.39
35.8166
36.3403
36.7587
37.2137
37.6186
38.0326
38.4189
38.7993
39.1571
39.497
39.8097
40.0925
40.338
40.5411
40.6957
40.7972
40.8422
40.8426
40.7986
40.6981
40.5444
40.3423
40.0974
39.8154
39.5033
39.1638
38.8064
38.4264
38.04
37.6262
37.2212
36.766
36.3475
35.8234
35.3963
34.7453
34.3197
35.4457
35.8759
36.5587
37.009
37.5641
38.0141
38.5016
38.94
39.3856
39.8034
40.2125
40.5973
40.9608
41.2943
41.5943
41.854
42.0678
42.23
42.3363
42.3832
42.3837
42.3378
42.2326
42.0712
41.8584
41.5996
41.3003
40.9674
40.6043
40.22
39.8112
39.3937
38.948
38.5095
38.022
37.5716
37.0163
36.5654
35.8822
35.4511
36.2109
36.6416
37.3723
37.8461
38.4386
38.9197
39.4406
39.91
40.3855
40.8307
41.2646
41.6713
42.0537
42.403
42.7157
42.9851
43.2062
43.3735
43.4829
43.5311
43.5316
43.4843
43.3761
43.2097
42.9897
42.7211
42.4092
42.0606
41.6787
41.2724
40.839
40.3938
39.9185
39.4491
38.9281
38.4466
37.8539
37.3795
36.6485
36.2169
36.5519
37.0205
37.8004
38.3161
38.9502
39.4708
40.0281
40.5318
41.0379
41.511
41.9688
42.3963
42.7957
43.1588
43.4822
43.7597
43.9865
44.1578
44.2697
44.3194
44.3199
44.2713
44.1605
43.9902
43.7644
43.4878
43.1653
42.8028
42.404
41.9771
41.5196
41.0468
40.5408
40.037
39.4796
38.9588
38.3245
37.8082
37.028
36.5585
36.4488
36.9753
37.8251
38.3971
39.0839
39.6529
40.2529
40.7958
41.3356
41.8386
42.3215
42.7701
43.1865
43.5631
43.8969
44.1821
44.4144
44.5895
44.704
44.7552
44.7558
44.7056
44.5923
44.4182
44.1869
43.9027
43.5699
43.194
42.7782
42.3301
41.8477
41.3449
40.8054
40.2624
39.6624
39.0931
38.406
37.8335
36.9834
36.456
35.8725
36.4655
37.4046
38.051
38.8027
39.4296
40.0795
40.667
41.2446
41.7806
42.2907
42.7621
43.1968
43.5879
43.9327
44.2262
44.4646
44.644
44.7615
44.8146
44.8152
44.7631
44.6469
44.4686
44.2313
43.9389
43.595
43.2046
42.7707
42.2998
41.7901
41.2545
40.6771
40.0896
39.4398
38.8126
38.0607
37.4138
36.4742
35.8803
34.8384
35.4811
36.4842
37.2232
38.0478
38.7438
39.4484
40.0867
40.7061
41.2788
41.8193
42.3163
42.7716
43.1794
43.537
43.8405
44.0863
44.2712
44.3924
44.448
44.4485
44.3942
44.2742
44.0907
43.8459
43.5436
43.1869
42.78
42.3254
41.8291
41.2891
40.7167
40.0976
39.4593
38.7547
38.0585
37.2336
36.494
35.49
34.8465
33.4571
34.0498
35.0688
35.8681
36.7625
37.5338
38.2958
38.988
39.6516
40.2643
40.838
41.3636
41.8426
42.2698
42.6432
42.9591
43.2144
43.4064
43.5325
43.5911
43.5918
43.5345
43.4098
43.2191
42.965
42.6503
42.278
41.8517
41.3735
40.8486
40.2754
39.663
38.9996
38.3075
37.5453
36.7739
35.879
35.0787
34.0587
33.4631
31.846
32.2817
33.2289
34.0222
34.9445
35.7708
36.5875
37.3282
38.0339
38.6849
39.292
39.8471
40.3513
40.8002
41.1915
41.5219
41.7888
41.9894
42.1217
42.184
42.1848
42.124
41.9932
41.794
41.5284
41.1994
40.8092
40.3613
39.8581
39.3036
38.6971
38.0463
37.341
36.6001
35.7832
34.9562
34.0331
33.2381
32.2889
31.8498
30.1014
30.3075
31.0994
31.807
32.6928
33.5228
34.3646
35.1389
35.8736
36.5535
37.1871
37.7673
38.294
38.7629
39.1716
39.5167
39.7955
40.0054
40.1443
40.2106
40.2114
40.1468
40.0096
39.8014
39.5241
39.1804
38.773
38.3052
37.7795
37.2001
36.5671
35.8875
35.1529
34.3783
33.5359
32.7046
31.8168
31.1064
30.3102
30.0988
28.2159
28.2276
28.8367
29.4146
30.2114
30.9922
31.814
32.5892
33.3296
34.019
34.6641
35.2574
35.7974
36.2794
36.7003
37.0564
37.3444
37.5618
37.706
37.7756
37.7766
37.7089
37.5665
37.351
37.0646
36.7102
36.2908
35.8099
35.2709
34.6784
34.0339
33.3446
32.604
31.828
31.0047
30.2218
29.4217
28.8392
28.2241
28.2037
26.2242
26.1643
26.63
27.1023
27.8008
28.5116
29.2836
30.0294
30.7541
31.4336
32.0736
32.6655
33.2063
33.6909
34.1152
34.4749
34.7667
34.9872
35.1341
35.2056
35.2067
35.1372
34.9925
34.7739
34.4841
34.1261
33.7034
33.2201
32.6801
32.0891
31.4494
30.7698
30.0448
29.2976
28.5241
27.8104
27.1088
26.6309
26.161
26.2107
24.5094
24.5104
24.8921
25.3308
25.9565
26.6157
27.3327
28.0368
28.7256
29.3792
29.9987
30.5746
31.103
31.5777
31.9943
32.3483
32.6357
32.8535
32.9987
33.0697
33.0709
33.0022
32.8592
32.6437
32.3582
32.0061
31.5911
31.1179
30.5906
30.0154
29.3963
28.7427
28.0534
27.3482
26.6295
25.9678
25.3387
24.896
24.5081
24.5015
23.8123
23.8987
24.2448
24.681
25.2522
25.8657
26.5192
27.1663
27.8031
28.415
28.9974
29.5413
30.0414
30.4915
30.8873
31.2237
31.4972
31.7044
31.8428
31.9105
31.9116
31.8463
31.7103
31.5052
31.2337
30.899
30.5051
30.0563
29.5574
29.0142
28.4322
27.8202
27.1829
26.5346
25.8794
25.2636
24.6894
24.2493
23.8986
23.8065
24.3359
24.4448
24.7747
25.185
25.7044
26.2584
26.8426
27.4274
28.0078
28.569
29.1046
29.606
30.0675
30.4837
30.8496
31.1611
31.4144
31.6064
31.7343
31.7967
31.7977
31.7375
31.6116
31.4215
31.1701
30.8601
30.4956
30.0806
29.6198
29.1188
28.5833
28.0218
27.4405
26.8543
26.2676
25.7109
25.1877
24.7733
24.4387
24.3231
25.1986
25.2954
25.6176
25.9968
26.482
26.9916
27.5354
28.0805
28.6237
29.1492
29.6513
30.1217
30.5551
30.9461
31.2901
31.583
31.8212
32.0016
32.1218
32.18
32.1811
32.1249
32.0067
31.8282
31.5916
31.3003
30.9576
30.5678
30.1352
29.6654
29.1633
28.6376
28.0935
27.5472
27.0011
26.4888
25.9993
25.6163
25.2879
25.1854
83.3291
50.5815
53.7016
62.0131
68.4335
73.5452
77.6574
81.1188
84.1781
86.9587
89.5875
92.108
94.6197
97.2189
99.9613
102.869
105.954
109.198
112.568
115.997
119.379
122.54
125.17
126.774
83.5764
50.1336
52.25
60.3321
66.6916
71.7902
75.8902
79.3383
82.369
85.1247
87.6629
90.1038
92.5334
95.0326
97.669
100.482
103.462
106.596
109.849
113.161
116.428
119.483
122.025
123.574
83.3945
49.8555
50.8398
58.6601
64.958
70.0086
74.1192
77.5863
80.6213
83.2905
85.7831
88.145
90.4793
92.8926
95.442
98.142
101.013
104.034
107.175
110.372
113.525
116.476
118.93
120.425
82.4239
49.3536
49.3543
56.9027
63.1562
68.2429
72.3783
75.8521
78.8479
81.5291
83.9402
86.2288
88.4942
90.8143
93.2579
95.8746
98.6464
101.565
104.592
107.676
110.718
113.566
115.934
117.375
81.7264
49.0341
47.9161
55.1611
61.3973
66.4478
70.6155
74.1247
77.1656
79.7647
82.1497
84.3795
86.5572
88.8025
91.1767
93.6833
96.3528
99.1629
102.087
105.062
107.999
110.747
113.033
114.423
79.5073
48.4807
46.407
53.303
59.4995
64.6434
68.8727
72.4172
75.4033
78.0639
80.3932
82.5621
84.6926
86.8587
89.1288
91.5697
94.1521
96.8713
99.6888
102.559
105.392
108.043
110.249
111.588
78.5708
48.0194
44.9151
51.4279
57.6765
62.7894
67.0675
70.6545
73.7545
76.3325
78.6676
80.8104
82.8656
84.9707
87.1967
89.5302
92.017
94.634
97.3586
100.129
102.863
105.423
107.553
108.842
75.2502
47.1502
43.3008
49.3903
55.5782
60.8646
65.2512
68.9293
71.9476
74.6446
76.9571
79.06
81.1006
83.1475
85.2682
87.5581
89.9735
92.5128
95.1377
97.8109
100.448
102.918
104.973
106.215
63.7935
46.299
41.7712
47.2264
53.5867
58.8522
63.3196
67.0407
70.2843
72.9004
75.2436
77.3651
79.3483
81.3514
83.4637
85.6476
87.9718
90.4133
92.9563
95.5382
98.0844
100.47
102.454
103.649
60.3732
44.6656
39.8155
44.8493
51.0647
56.6476
61.305
65.2337
68.3493
71.1628
73.5265
75.6193
77.628
79.6023
81.604
83.7727
86.0453
88.4253
90.873
93.3638
95.819
98.1204
100.034
101.182
60.4329
44.8568
38.0305
42.0424
48.6887
54.279
59.1045
63.0661
66.5978
69.3386
71.7623
73.9327
75.8927
77.8366
79.878
81.9383
84.1205
86.4029
88.7798
91.1848
93.5546
95.7759
97.6231
98.726
54.9837
43.5599
35.9587
38.9939
45.2279
51.4777
56.655
61.0764
64.4009
67.4585
69.9711
72.1199
74.1606
76.1124
78.0245
80.1047
82.2595
84.5009
86.7847
89.1032
91.3857
93.526
95.3043
96.3613
62.1039
42.9958
33.6535
34.7736
42.0528
48.318
53.9146
58.3496
62.4469
65.4526
68.0651
70.3836
72.3817
74.3154
76.3366
78.2994
80.36
82.4975
84.7227
86.9616
89.1623
91.2253
92.9409
93.9535
53.1405
41.3752
30.916
30.2201
36.0689
44.1341
50.4949
55.9858
59.7423
63.2844
66.1034
68.4009
70.5635
72.5587
74.4132
76.4458
78.5126
80.6393
82.7709
84.9264
87.0419
89.026
90.6723
91.6396
51.0508
40.1156
27.8404
21.0293
31.0054
38.9139
46.5964
52.0833
57.3941
60.9253
63.9129
66.5335
68.6529
70.6402
72.7125
74.6074
76.5683
78.574
80.6628
82.7436
84.7807
86.6894
88.275
89.1974
32.7174
33.7454
23.9221
11.4958
9.74547
30.5513
40.3594
48.8914
53.6251
58.2081
61.6259
64.2207
66.64
68.7718
70.6028
72.643
74.6606
76.7024
78.6917
80.6903
82.6412
84.4709
85.9863
86.8627
4.73615
13.6698
6.39154
7.60133
7.24626
7.23142
33.764
42.0344
50.5201
55.1445
58.8997
62.0939
64.4634
66.5914
68.8225
70.6832
72.567
74.4504
76.4187
78.3468
80.2211
81.9745
83.4312
84.2605
10.6265
7.7551
8.22338
16.8274
17.6888
18.2354
23.7768
36.2833
44.0011
51.3382
55.9922
59.1784
62.0768
64.495
66.3362
68.4655
70.4901
72.4886
74.342
76.1853
77.9689
79.6414
81.0222
81.8038
3.97942
6.41477
6.14195
10.5986
9.3492
8.53623
6.62656
12.9255
39.3351
46.574
52.1788
56.5232
59.4067
61.8104
64.3872
66.2534
68.0796
69.844
71.7109
73.4875
75.1937
76.7853
78.109
78.8385
4.18291
11.5911
11.2253
19.6969
20.9871
21.8202
20.6895
21.0643
19.7991
40.3466
48.0245
52.5123
56.2977
59.2962
61.1761
63.5382
65.6684
67.6895
69.4082
71.0916
72.6969
74.2027
75.4397
76.1186
11.6902
20.6127
22.8041
18.8197
18.3352
18.9771
24.1824
22.6374
14.477
29.1482
41.2298
48.5036
52.6729
55.6186
58.9401
60.8603
62.6434
64.2791
66.0747
67.6969
69.2213
70.6363
71.8194
72.4349
11.5388
21.9047
26.748
29.2294
24.6398
27.849
14.014
19.7241
13.8354
4.74491
34.4772
42.3708
47.9879
52.3204
54.2413
57.1691
59.6036
61.7973
63.3748
64.8867
66.2918
67.6147
68.6909
69.2543
11.5609
22.2767
28.0646
31.2186
32.075
27.0438
11.0259
7.60481
20.3233
22.562
25.7308
33.9227
42.1602
46.39
51.585
53.6048
55.3976
56.8135
58.6134
60.0788
61.3995
62.6151
63.6487
64.1243
11.4034
20.4923
26.9088
31.4965
33.4333
33.0036
24.7069
29.878
16.7221
6.695
12.4759
15.3429
33.0351
41.4257
43.1625
47.7623
50.9499
53.8499
55.267
56.5934
57.7596
58.8793
59.7674
60.1967
11.0959
18.6722
25.1387
29.8535
32.9171
33.6248
32.8037
22.6502
21.6576
15.5446
18.9389
23.466
10.2963
27.3703
40.1716
42.248
44.3082
44.9521
47.0407
48.3638
49.4742
50.4485
51.3656
51.646
8.89731
16.8415
23.1693
27.8789
31.0637
32.8874
32.4079
31.9191
19.6391
29.8909
9.43978
23.7869
4.99748
21.3184
13.9446
29.1368
35.6455
41.5486
42.7424
43.9155
44.6533
45.6855
46.213
46.4798
7.28688
15.361
21.0252
25.2694
28.4543
30.4266
31.4405
30.3851
31.5051
21.1577
18.7863
8.40563
24.3497
25.7402
24.732
15.171
14.6427
12.2697
18.7588
20.7924
23.2739
22.7094
25.3109
25.1333
5.32861
13.5174
18.0511
21.6042
24.5219
26.796
28.0373
29.411
29.091
31.6284
21.0955
7.3512
11.0333
20.6567
5.10264
8.90408
18.6568
19.4749
21.3297
8.60179
29.9605
10.7536
31.3048
31.4509
4.81071
12.1925
14.7637
16.9274
19.2409
21.5178
23.737
25.4829
28.39
29.1767
32.1992
22.4896
11.775
20.6214
26.2785
27.2136
21.5699
5.86491
28.7871
21.9475
11.0755
25.0081
12.06
9.16348
3.96343
11.6642
12.521
13.097
14.2236
16.3312
18.9099
22.0891
24.6461
28.4018
29.8099
32.583
23.5938
21.2568
28.1597
19.1139
12.0038
17.5563
29.2565
25.6749
30.2557
20.5997
1.21982
26.7396
3.32282
11.2742
11.68
11.8965
12.3741
14.1202
16.751
19.2915
22.5857
25.1476
28.9054
30.6246
32.7001
26.2657
14.7447
27.7327
30.1167
30.0998
13.1892
23.8351
33.0141
19.2252
19.1468
28.4309
3.04071
11.6015
11.6341
11.7545
12.397
14.6241
17.0332
19.3135
21.1515
23.8468
26.0539
29.5041
31.3333
32.5433
30.0831
18.927
20.9939
10.3613
13.4162
25.6962
29.9386
10.5567
10.6789
29.6658
2.01393
9.51878
11.4599
11.7273
12.6695
15.4562
18.0268
19.9661
21.8081
23.1196
25.1278
27.0002
30.0262
31.8909
32.3589
32.3416
27.7563
23.111
17.4162
14.5928
13.8187
12.3131
12.0994
12.9096
2.39432
10.1123
11.4803
11.5375
14.2041
17.1783
19.4695
21.2984
22.6445
23.9897
24.8322
26.2311
27.8596
30.2759
32.2499
32.0226
31.3943
30.9641
30.5877
30.2748
29.967
29.6767
29.6035
29.8231
3.3126
11.4232
11.6105
13.2801
16.3665
19.0173
21.1062
22.7381
24.1262
25.0452
25.8752
26.2879
27.1658
28.5792
30.312
31.7599
31.5023
30.4948
28.8891
27.2057
25.7541
24.8887
24.7416
24.8705
3.49417
11.7831
12.9411
15.9157
18.708
21.0148
22.8849
24.4362
25.6479
26.6396
27.147
27.4785
27.532
27.947
29.0763
30.0289
30.302
29.9547
28.9928
27.7041
26.5
25.8139
25.8206
26.1343
3.94345
12.0004
15.5864
18.4071
20.8202
22.899
24.6678
26.1594
27.4196
28.3014
28.8789
28.9795
28.8536
28.6183
28.6224
29.1437
29.3231
28.8373
27.4618
25.5294
23.679
22.6875
22.7542
23.2264
5.8041
14.9017
18.0966
20.5832
22.7907
24.7476
26.4614
27.9628
29.2058
30.1704
30.6994
30.8595
30.579
30.0482
29.5328
29.1276
28.8131
28.2458
27.0995
25.4771
23.9317
23.1825
23.4579
24.0851
7.93684
16.9493
20.0567
22.4185
24.5469
26.4763
28.2125
29.7559
31.0795
32.0654
32.6904
32.8566
32.6082
31.9735
31.0855
30.2046
29.3363
28.3459
26.9344
25.0997
23.3373
22.5004
22.8663
23.6123
10.3485
18.8118
21.7522
24.0687
26.2006
28.1542
29.9453
31.5658
32.9475
34.0277
34.7054
34.9747
34.7731
34.1275
33.1328
31.8954
30.5707
29.177
27.5916
25.8019
24.2202
23.5658
24.0524
24.8671
81.2138
76.0454
58.1702
68.7959
72.1718
68.5599
66.2418
55.3934
63.706
12.3148
39.0228
27.7489
18.658
16.3984
16.5733
14.9217
13.8367
14.1255
13.5224
13.4098
13.4096
13.5168
14.2005
13.2394
17.1013
10.4657
23.5121
20.197
43.5773
19.871
52.8961
62.4707
72.043
59.89
58.2174
61.0898
73.2797
69.8113
58.8718
80.8342
49.9479
47.7382
46.3658
44.9527
43.1294
41.1178
40.1879
37.8525
36.9473
34.4876
34.3922
33.1359
33.2318
32.1206
31.6961
31.2384
30.9268
30.5709
30.3981
30.273
30.2729
30.3987
30.5608
30.9764
31.0866
31.9586
31.9532
33.0785
33.2207
34.2066
35.0455
37.1056
38.5232
40.0191
40.8386
43.6169
44.1002
47.0233
47.6262
50.4484
54.2448
52.6885
52.2185
50.7475
50.1955
48.8658
48.2681
47.1287
46.5296
45.5701
44.8801
44.0847
43.4706
42.9078
42.4245
41.9753
41.6338
41.3793
41.1875
41.0857
41.0856
41.1869
41.3815
41.6219
42.0033
42.3911
42.91
43.4964
44.0644
44.9174
45.5276
46.4871
47.0841
48.2656
48.8503
50.1883
50.7455
52.228
52.6663
54.2532
62.6723
61.1765
60.6562
59.2196
58.568
57.2493
56.5387
55.3779
54.6698
53.7065
53.0271
52.2292
51.6369
51.0231
50.5319
50.1009
49.7579
49.4878
49.3065
49.2037
49.2037
49.3063
49.4866
49.7604
50.0937
50.5379
51.0212
51.6285
52.2307
53.0227
53.6956
54.6677
55.3812
56.5381
57.2465
58.5683
59.2151
60.6507
61.1655
62.6704
69.0793
67.5366
66.9351
65.4764
64.7548
63.4386
62.6619
61.519
60.7406
59.7836
59.0491
58.2686
57.6281
57.0238
56.5164
56.0751
55.7241
55.4551
55.2682
55.167
55.1669
55.2678
55.455
55.7221
56.0768
56.5136
57.0211
57.6277
58.2667
59.0472
59.7791
60.7358
61.5147
62.6581
63.4334
64.7519
65.4702
66.9314
67.5283
69.078
74.1748
72.5914
71.9145
70.4447
69.6498
68.3431
67.4982
66.371
65.5392
64.5906
63.8242
63.0435
62.3878
61.7735
61.2572
60.8128
60.4556
60.1812
59.9941
59.8923
59.8922
59.9938
60.1805
60.4554
60.8111
61.2563
61.7723
62.3859
63.0413
63.8217
64.587
65.5356
66.3684
67.4945
68.3398
69.6458
70.4402
71.9101
72.5853
74.172
78.2442
76.6415
75.8887
74.4253
73.5662
72.2759
71.3812
70.2657
69.4003
68.4537
67.6686
66.8862
66.2188
65.6024
65.0792
64.6305
64.2699
63.9939
63.8044
63.7026
63.7025
63.804
63.9934
64.2689
64.6298
65.0779
65.6007
66.2171
66.8843
67.6663
68.4508
69.3973
70.2624
71.3776
72.2723
73.5617
74.4216
75.8834
76.6378
78.239
81.6668
80.0543
79.2435
77.7861
76.882
75.5983
74.6725
73.5583
72.6724
71.7226
70.9237
70.1371
69.4601
68.8383
68.3088
67.8559
67.4905
67.2106
67.0188
66.915
66.9148
67.0185
67.2099
67.4898
67.8548
68.3075
68.8369
69.4584
70.1351
70.9214
71.72
72.6695
73.555
74.6692
75.5945
76.8782
77.782
79.2388
80.0503
81.6613
84.7099
83.0688
82.227
80.7576
79.8291
78.5383
77.593
76.4726
75.5707
74.6147
73.8029
73.0097
72.3228
71.6945
71.1573
70.6984
70.3274
70.0428
69.8467
69.7397
69.7396
69.8464
70.0423
70.3266
70.6973
71.1561
71.693
72.321
73.0077
73.8006
74.6122
75.5679
76.4695
77.5897
78.5346
79.8254
80.7533
82.2229
83.0639
84.7055
87.5272
85.8297
84.9811
83.4844
82.5408
81.2355
80.2729
79.1423
78.2241
77.2588
76.4332
75.6308
74.9329
74.296
73.7501
73.2838
72.906
72.6156
72.4146
72.3032
72.303
72.4142
72.6149
72.9052
73.2828
73.7488
74.2945
74.9311
75.6289
76.4309
77.2563
78.2213
79.1393
80.2696
81.2321
82.5369
83.4805
84.9766
85.8255
87.5222
90.1734
88.437
87.5712
86.0517
85.0885
83.7671
82.7855
81.641
80.7059
79.7277
78.8875
78.0735
77.3632
76.7161
76.1604
75.6856
75.3002
75.0032
74.7965
74.6801
74.6799
74.7961
75.0026
75.2994
75.6846
76.1591
76.7146
77.3615
78.0715
78.8853
79.7253
80.7032
81.638
82.7822
83.7636
85.0847
86.0479
87.5668
88.4329
90.1681
92.7422
90.9417
90.0808
88.5195
87.5494
86.2
85.2054
84.0406
83.0903
82.0962
81.2413
80.414
79.691
79.0328
78.4666
77.983
77.5896
77.2858
77.0732
76.9514
76.9513
77.0728
77.2852
77.5888
77.982
78.4654
79.0313
79.6893
80.4121
81.2391
82.0938
83.0876
84.0377
85.2022
86.1966
87.5457
88.5158
90.0765
90.9376
92.7372
95.3095
93.4424
92.5872
90.9843
90.0049
88.6287
87.6178
86.4338
85.4658
84.4561
83.585
82.7443
82.0076
81.3381
80.7612
80.2684
79.867
79.5563
79.3378
79.2108
79.2106
79.3374
79.5557
79.8662
80.2674
80.76
81.3366
82.0059
82.7424
83.5828
84.4538
85.4632
86.431
87.6147
88.6254
90.0012
90.9806
92.5832
93.4381
95.305
97.9574
96.0291
95.1742
93.5316
92.5392
91.1361
90.107
88.9022
87.9156
86.8886
86.0005
85.145
84.3942
83.7123
83.1243
82.6219
82.2122
81.8945
81.6701
81.5379
81.5377
81.6697
81.8939
82.2114
82.6209
83.123
83.7109
84.3925
85.1432
85.9984
86.8862
87.913
88.8995
90.1039
91.1328
92.5358
93.5278
95.1703
96.0248
97.953
100.751
98.757
97.9019
96.2156
95.2095
93.7755
92.7269
91.4987
90.4918
89.4456
88.5388
87.6671
86.9004
86.2053
85.6051
85.0924
84.6738
84.3489
84.1184
83.9811
83.981
84.118
84.3482
84.673
85.0913
85.6038
86.2039
86.8987
87.6649
88.5366
89.4429
90.4891
91.496
92.7242
93.7727
95.2058
96.2118
97.8981
98.7526
100.746
103.722
101.65
100.799
99.0621
98.0414
96.573
95.5028
94.248
93.2187
92.1503
91.2233
90.3331
89.5498
88.8395
88.2259
87.7021
87.274
86.9414
86.7046
86.5623
86.5623
86.7042
86.9409
87.2732
87.7013
88.2251
88.8382
89.5481
90.3314
91.2211
92.1482
93.2161
94.2453
95.5001
96.5698
98.0382
99.0584
100.795
101.646
103.718
106.866
104.718
103.864
102.077
101.036
99.5324
98.4365
97.1539
96.0988
95.0071
94.0571
93.1472
92.3446
91.6185
90.9903
90.4542
90.0159
89.6749
89.4317
89.2842
89.2842
89.4313
89.6741
90.0151
90.453
90.9891
91.6168
92.3429
93.1451
94.0551
95.0046
96.0963
97.1513
98.4335
99.5294
101.033
102.073
103.86
104.714
106.862
110.172
107.945
107.085
105.244
104.182
102.64
101.516
100.204
99.121
98.0037
97.0294
96.0978
95.2752
94.5314
93.8878
93.3383
92.8893
92.5397
92.2899
92.1372
92.1372
92.2895
92.5389
92.8881
93.3375
93.8866
94.5299
95.2736
96.0962
97.0274
98.0017
99.1185
100.201
101.514
102.637
104.178
105.241
107.081
107.941
110.168
113.601
111.295
110.425
108.533
107.445
105.865
104.711
103.367
102.255
101.111
100.11
99.1561
98.3122
97.55
96.8898
96.3267
95.8662
95.5073
95.2508
95.0934
95.0934
95.2505
95.5069
95.8651
96.3259
96.8886
97.5484
98.3103
99.1546
100.108
101.109
102.252
103.365
104.708
105.863
107.441
108.53
110.422
111.29
113.597
117.092
114.705
113.826
111.881
110.766
109.148
107.961
106.587
105.443
104.273
103.245
102.268
101.401
100.62
99.9431
99.3661
98.8936
98.5256
98.2624
98.0999
98.0999
98.262
98.5252
98.8928
99.365
99.942
100.619
101.4
102.266
103.243
104.27
105.441
106.584
107.959
109.145
110.762
111.878