/*--------------------------------*- C++ -*----------------------------------*\
  =========                 |
  \\      /  F ield         | OpenFOAM: The Open Source CFD Toolbox
   \\    /   O peration     | Website:  https://openfoam.org
    \\  /    A nd           | Version:  6
     \\/     M anipulation  |
\*---------------------------------------------------------------------------*/
FoamFile
{
    version     2.0;
    format      ascii;
    class       volVectorField;
    location    "25";
    object      wallShearStress;
}
// * * * * * * * * * * * * * * * * * * * * * * * * * * * * * * * * * * * * * //

dimensions      [0 2 -2 0 0 0 0];

internalField   uniform (0 0 0);

boundaryField
{
    inlet
    {
        type            calculated;
        value           uniform (0 0 0);
    }
    outlet
    {
        type            calculated;
        value           uniform (0 0 0);
    }
    roughCylinder
    {
        type            calculated;
        value           nonuniform List<vector> 
3840
(
(-0.000271561 -0.00039666 -0.000162788)
(-0.000326745 -0.000510616 -2.32935e-05)
(-0.000376085 -0.00063203 4.18539e-05)
(-0.000451344 -0.000735566 0.00012377)
(-0.000539488 -0.000809638 0.00020617)
(-0.000630859 -0.000850029 0.000278324)
(-0.000715806 -0.000860789 0.000335059)
(-0.000789593 -0.000853271 0.000374918)
(-0.000852683 -0.000846846 0.000402205)
(-0.000901292 -0.000845446 0.000416534)
(-0.000939995 -0.000853091 0.000419906)
(-0.000972154 -0.000868226 0.000414473)
(-0.00100086 -0.000889244 0.000402787)
(-0.00102901 -0.000914651 0.000386915)
(-0.00105864 -0.000943505 0.000368289)
(-0.00109088 -0.00097529 0.000347564)
(-0.00112605 -0.00100969 0.000324819)
(-0.00116397 -0.00104636 0.000299753)
(-0.00120412 -0.00108477 0.000271756)
(-0.0012457 -0.00112412 0.000240002)
(-0.00128744 -0.00116309 0.000202988)
(-0.00132768 -0.0011999 0.00015858)
(-0.00136219 -0.00123118 0.000103153)
(-0.001384 -0.00125105 3.58668e-05)
(-0.000290698 -0.000384515 -0.000155457)
(-0.000349907 -0.000494934 -2.66229e-05)
(-0.000401721 -0.000616042 3.31591e-05)
(-0.000479217 -0.000720835 0.000111638)
(-0.000569255 -0.000797532 0.000192163)
(-0.000662597 -0.000840902 0.000263267)
(-0.000750566 -0.000855777 0.000319978)
(-0.000829291 -0.000854397 0.000361874)
(-0.000897323 -0.000851178 0.000391703)
(-0.000949932 -0.000848561 0.000407553)
(-0.000990606 -0.000854868 0.000411572)
(-0.00102471 -0.00086935 0.000406455)
(-0.0010553 -0.000890161 0.000395004)
(-0.00108536 -0.000915581 0.000379355)
(-0.00111699 -0.000944552 0.000361018)
(-0.00115131 -0.000976463 0.000340675)
(-0.00118866 -0.00101096 0.000318408)
(-0.00122883 -0.00104767 0.000293919)
(-0.00127125 -0.00108605 0.000266583)
(-0.00131509 -0.00112532 0.000235571)
(-0.00135898 -0.00116415 0.00019936)
(-0.00140124 -0.00120079 0.000155837)
(-0.00143742 -0.00123186 0.000101426)
(-0.00146025 -0.00125157 3.52716e-05)
(-0.000310087 -0.000366836 -0.00014258)
(-0.000372346 -0.000473817 -3.08407e-05)
(-0.000426506 -0.000593412 2.3792e-05)
(-0.000505793 -0.000698712 9.8389e-05)
(-0.000597622 -0.000777846 0.00017668)
(-0.000693287 -0.000824914 0.000246849)
(-0.000784966 -0.000845035 0.0003042)
(-0.000868591 -0.000849597 0.000348211)
(-0.000941176 -0.000849299 0.000379927)
(-0.000998478 -0.000846709 0.000397456)
(-0.00104126 -0.000851327 0.000402113)
(-0.00107738 -0.000864946 0.000397335)
(-0.00110996 -0.000885325 0.000386184)
(-0.00114205 -0.000910566 0.000370844)
(-0.00117573 -0.000939434 0.000352874)
(-0.00121219 -0.000971247 0.000332987)
(-0.00125175 -0.00100559 0.000311282)
(-0.00129418 -0.0010421 0.000287452)
(-0.00133886 -0.0010802 0.000260859)
(-0.00138494 -0.00111912 0.000230672)
(-0.00143095 -0.00115753 0.000195348)
(-0.00147518 -0.00119373 0.000152798)
(-0.00151298 -0.00122439 9.95113e-05)
(-0.00153678 -0.00124378 3.46128e-05)
(-0.000327508 -0.000344822 -0.000125988)
(-0.000391789 -0.000447767 -3.53689e-05)
(-0.000447776 -0.000564849 1.40469e-05)
(-0.000528297 -0.000670104 8.43867e-05)
(-0.000621848 -0.000751654 0.000160103)
(-0.00072019 -0.000803053 0.000229306)
(-0.000815902 -0.000829067 0.000287508)
(-0.000904365 -0.000839339 0.000333568)
(-0.000981639 -0.000842133 0.000367033)
(-0.00104402 -0.000840876 0.000386422)
(-0.00108958 -0.000843302 0.000391734)
(-0.00112785 -0.000855855 0.000387412)
(-0.00116258 -0.000875623 0.000376644)
(-0.00119675 -0.000900503 0.000361696)
(-0.00123255 -0.000929118 0.000344174)
(-0.00127116 -0.000960665 0.000324823)
(-0.0013129 -0.000994684 0.000303749)
(-0.00135753 -0.00103077 0.000280641)
(-0.00140438 -0.00106837 0.000254847)
(-0.00145257 -0.00110671 0.000225537)
(-0.00150055 -0.00114447 0.000191146)
(-0.00154664 -0.00118003 0.000149617)
(-0.00158595 -0.0012101 9.75117e-05)
(-0.00161063 -0.00122907 3.39263e-05)
(-0.00034186 -0.000318952 -0.000107354)
(-0.000407517 -0.000417386 -3.97877e-05)
(-0.000464673 -0.000531026 4.2291e-06)
(-0.000545828 -0.000635639 6.99345e-05)
(-0.000641012 -0.0007195 0.000142693)
(-0.000742288 -0.000775547 0.000210759)
(-0.000842185 -0.000807564 0.000269719)
(-0.000935404 -0.000823205 0.000317643)
(-0.00101741 -0.000829096 0.00035288)
(-0.00108441 -0.000829335 0.000373839)
(-0.0011345 -0.000830259 0.000380311)
(-0.00117515 -0.000841554 0.000376701)
(-0.00121216 -0.00086042 0.000366418)
(-0.00124852 -0.000884751 0.000351974)
(-0.00128644 -0.000912898 0.000334989)
(-0.00132717 -0.00094397 0.000316252)
(-0.00137103 -0.000977447 0.00029588)
(-0.00141775 -0.0010129 0.000273559)
(-0.00146664 -0.00104976 0.00024862)
(-0.0015168 -0.00108729 0.000220237)
(-0.00156659 -0.00112418 0.000186819)
(-0.00161436 -0.00115887 0.000146344)
(-0.00165501 -0.00118814 9.54582e-05)
(-0.00168045 -0.00120657 3.32229e-05)
(-0.00035311 -0.000290656 -8.80022e-05)
(-0.000419073 -0.000383678 -4.39098e-05)
(-0.000476575 -0.000493038 -5.45519e-06)
(-0.000557751 -0.000596405 5.52382e-05)
(-0.000654412 -0.000682384 0.000124593)
(-0.000758754 -0.00074314 0.000191244)
(-0.000862934 -0.000780963 0.000250723)
(-0.000960939 -0.000801558 0.000300277)
(-0.00104779 -0.00081044 0.000337273)
(-0.00111964 -0.00081226 0.00035972)
(-0.00117544 -0.000813227 0.000367911)
(-0.00121882 -0.000822214 0.0003651)
(-0.00125831 -0.000839973 0.000355473)
(-0.00129693 -0.000863427 0.000341652)
(-0.00133704 -0.000890902 0.000325324)
(-0.00137987 -0.000921292 0.000307297)
(-0.00142576 -0.000954002 0.000287704)
(-0.00147446 -0.000988587 0.000266237)
(-0.00152522 -0.00102447 0.000242206)
(-0.00157714 -0.00106094 0.000214793)
(-0.0016285 -0.00109671 0.000182379)
(-0.00167777 -0.00113033 0.000142988)
(-0.0017196 -0.00115864 9.3359e-05)
(-0.00174567 -0.00117641 3.25063e-05)
(-0.000359766 -0.000260069 -6.8611e-05)
(-0.00042569 -0.00034746 -4.74955e-05)
(-0.000482752 -0.000451757 -1.48103e-05)
(-0.000563217 -0.000553248 4.0429e-05)
(-0.000661009 -0.000640993 0.000105869)
(-0.00076835 -0.000706268 0.0001707)
(-0.000876883 -0.000749588 0.000230345)
(-0.00097982 -0.000774809 0.000281262)
(-0.00107176 -0.000786617 0.000319983)
(-0.00114877 -0.000790084 0.000344063)
(-0.00121009 -0.00079177 0.000353983)
(-0.00125814 -0.000798831 0.000352486)
(-0.00130033 -0.000814838 0.000343747)
(-0.00134146 -0.000837233 0.000330735)
(-0.00138376 -0.000863741 0.000315174)
(-0.00142865 -0.000893211 0.000297957)
(-0.00147649 -0.000924952 0.000279232)
(-0.00152702 -0.000958473 0.000258692)
(-0.00157948 -0.000993187 0.000235626)
(-0.00163297 -0.00102841 0.000209234)
(-0.0016857 -0.00106287 0.000177855)
(-0.00173622 -0.00109521 0.000139568)
(-0.00177901 -0.00112237 9.12262e-05)
(-0.00180557 -0.00113939 3.17804e-05)
(-0.000362714 -0.000228945 -5.00706e-05)
(-0.000427014 -0.000309724 -5.05587e-05)
(-0.000482531 -0.000408101 -2.36181e-05)
(-0.000561357 -0.000506822 2.57536e-05)
(-0.000659726 -0.00059575 8.66535e-05)
(-0.000769922 -0.000665235 0.000149111)
(-0.000882826 -0.000713717 0.000208456)
(-0.000990888 -0.000743303 0.000260414)
(-0.00108822 -0.00075802 0.000300797)
(-0.00117083 -0.000763266 0.000326728)
(-0.00123768 -0.00076572 0.000338407)
(-0.00129138 -0.000772032 0.000338641)
(-0.00133735 -0.000785936 0.000331165)
(-0.0013811 -0.000806484 0.00031912)
(-0.00142571 -0.000831839 0.000304516)
(-0.00147267 -0.000860194 0.000288237)
(-0.00152236 -0.000890753 0.000270474)
(-0.00157453 -0.000922989 0.000250933)
(-0.00162844 -0.000956322 0.00022889)
(-0.0016832 -0.000990119 0.000203561)
(-0.00173694 -0.00102319 0.000173247)
(-0.00178849 -0.00105415 0.00013609)
(-0.00183204 -0.0010801 8.90655e-05)
(-0.0018589 -0.00109636 3.10487e-05)
(-0.000359081 -0.000196418 -3.25503e-05)
(-0.000422052 -0.000270681 -5.26741e-05)
(-0.000475273 -0.00036253 -3.17226e-05)
(-0.000551529 -0.000457781 1.13823e-05)
(-0.000649705 -0.00054714 6.71215e-05)
(-0.000762267 -0.000620237 0.000126505)
(-0.000879463 -0.000673506 0.000184948)
(-0.000992858 -0.000707293 0.000237559)
(-0.001096 -0.000724958 0.000279493)
(-0.00118454 -0.000732009 0.000307405)
(-0.0012574 -0.000735409 0.000321141)
(-0.00131671 -0.000741478 0.000323285)
(-0.00136751 -0.000753913 0.00031747)
(-0.00141505 -0.000772811 0.00030687)
(-0.00146201 -0.00079644 0.000293389)
(-0.00151095 -0.000823358 0.000278173)
(-0.00156235 -0.000852582 0.000261485)
(-0.00161598 -0.000883459 0.000243033)
(-0.0016711 -0.000915382 0.000222077)
(-0.00172679 -0.00094769 0.000197849)
(-0.00178104 -0.000979155 0.000168596)
(-0.00183316 -0.00100855 0.000132564)
(-0.00187707 -0.00103315 8.68788e-05)
(-0.00190389 -0.00104851 3.03095e-05)
(-0.000352213 -0.000165017 -1.68251e-05)
(-0.00041098 -0.000231866 -5.45008e-05)
(-0.000460526 -0.000316315 -3.86501e-05)
(-0.000532882 -0.000406689 -2.18721e-06)
(-0.000629805 -0.000495415 4.75618e-05)
(-0.000744351 -0.000571605 0.000103027)
(-0.000865764 -0.000629368 0.000159838)
(-0.000984709 -0.000667263 0.000212622)
(-0.00109401 -0.00068789 0.00025592)
(-0.0011891 -0.000696893 0.000285944)
(-0.00126819 -0.00070115 0.000301971)
(-0.00133328 -0.000707045 0.000306293)
(-0.0013891 -0.000718453 0.000302431)
(-0.0014404 -0.000735819 0.000293488)
(-0.00149029 -0.000757714 0.000281437)
(-0.00154138 -0.000783047 0.000267521)
(-0.00159426 -0.000810687 0.000252039)
(-0.00164891 -0.000839942 0.000234754)
(-0.00170463 -0.000870183 0.000214924)
(-0.00176064 -0.000900708 0.000191828)
(-0.00181493 -0.000930306 0.000163675)
(-0.0018673 -0.000957979 0.000128827)
(-0.00191125 -0.000981058 8.45614e-05)
(-0.00193779 -0.00099542 2.95268e-05)
(-0.000335906 -0.00013435 -2.91908e-06)
(-0.000393337 -0.000192066 -5.37778e-05)
(-0.000438085 -0.000269356 -4.48062e-05)
(-0.000505465 -0.000354357 -1.49902e-05)
(-0.000599856 -0.000441447 2.83232e-05)
(-0.000715195 -0.000519667 7.89016e-05)
(-0.000840422 -0.000581501 0.000133163)
(-0.000965061 -0.000623499 0.00018551)
(-0.00108109 -0.000647298 0.000229941)
(-0.00118303 -0.000658196 0.000262063)
(-0.00126908 -0.000663426 0.000280691)
(-0.00134049 -0.000669224 0.000287558)
(-0.0014014 -0.000679548 0.00028592)
(-0.0014567 -0.000695378 0.0002789)
(-0.00150951 -0.000715494 0.000268509)
(-0.00156258 -0.000739019 0.000256077)
(-0.0016168 -0.00076485 0.000241957)
(-0.00167223 -0.000792247 0.000225959)
(-0.00172825 -0.000820558 0.000207346)
(-0.00178427 -0.000849111 0.000185463)
(-0.00183826 -0.000876713 0.000158476)
(-0.00189045 -0.000902501 0.000124867)
(-0.00193412 -0.00092396 8.21083e-05)
(-0.00196015 -0.000937247 2.87008e-05)
(-0.000314016 -0.000106145 5.34245e-06)
(-0.000371123 -0.000156637 -5.01938e-05)
(-0.000408856 -0.000223022 -4.88977e-05)
(-0.000468522 -0.000301239 -2.62429e-05)
(-0.000558335 -0.000385086 9.85465e-06)
(-0.000673889 -0.000464779 5.45155e-05)
(-0.000802679 -0.000530473 0.000105181)
(-0.000933102 -0.000576652 0.000156327)
(-0.00105607 -0.000603704 0.000201484)
(-0.00116577 -0.000616798 0.000235747)
(-0.00125907 -0.000622811 0.000257125)
(-0.00133706 -0.000628334 0.000266833)
(-0.00140366 -0.000637617 0.000267827)
(-0.00146311 -0.000651758 0.000263029)
(-0.00151898 -0.000669981 0.000254573)
(-0.0015741 -0.000691572 0.000243854)
(-0.00162948 -0.000715398 0.00023126)
(-0.00168539 -0.000740732 0.000216675)
(-0.0017413 -0.000766922 0.000199367)
(-0.0017968 -0.000793283 0.000178763)
(-0.0018499 -0.000818709 0.00015299)
(-0.00190154 -0.000842499 0.000120679)
(-0.00194453 -0.000862252 7.95167e-05)
(-0.00196973 -0.000874378 2.78303e-05)
(-0.000283205 -7.76644e-05 1.26557e-05)
(-0.000342008 -0.000124301 -4.83397e-05)
(-0.000372612 -0.000179761 -5.06423e-05)
(-0.000423546 -0.000249827 -3.49431e-05)
(-0.000507257 -0.000328803 -6.89682e-06)
(-0.000620169 -0.00040774 3.05685e-05)
(-0.000751261 -0.000476438 7.62875e-05)
(-0.000887361 -0.000526871 0.000125214)
(-0.00101799 -0.000557695 0.0001706)
(-0.00113552 -0.000572941 0.000206773)
(-0.00123699 -0.000579915 0.000231129)
(-0.00132243 -0.000585205 0.000244078)
(-0.00139487 -0.000593173 0.000248036)
(-0.0014589 -0.000605524 0.000245848)
(-0.0015179 -0.000621673 0.000239623)
(-0.00157491 -0.000641093 0.000230831)
(-0.00163126 -0.00066274 0.000219947)
(-0.00168733 -0.000685863 0.000206911)
(-0.00174277 -0.000709809 0.00019101)
(-0.00179741 -0.00073393 0.000171776)
(-0.00184921 -0.000757141 0.000147271)
(-0.00189982 -0.000778849 0.0001163)
(-0.00194174 -0.000796832 7.6811e-05)
(-0.00196589 -0.000807813 2.69258e-05)
(-0.00024706 -5.13283e-05 1.87853e-05)
(-0.000306357 -9.50856e-05 -4.73308e-05)
(-0.000329814 -0.000140298 -5.05584e-05)
(-0.000369012 -0.000199732 -4.077e-05)
(-0.000442704 -0.000270855 -2.10797e-05)
(-0.000553125 -0.000348676 8.05555e-06)
(-0.00068617 -0.000420104 4.72828e-05)
(-0.000827661 -0.000474868 9.26852e-05)
(-0.000965595 -0.000509557 0.000137425)
(-0.00109223 -0.000527682 0.000175341)
(-0.0012022 -0.000535595 0.000202709)
(-0.00129518 -0.000540364 0.000219127)
(-0.00137426 -0.000547005 0.000226508)
(-0.00144303 -0.000557319 0.0002273)
(-0.0015054 -0.000571266 0.000223652)
(-0.00156442 -0.000588416 0.000217074)
(-0.00162153 -0.000607738 0.000208091)
(-0.00167741 -0.000628527 0.000196738)
(-0.00173183 -0.000650111 0.000182324)
(-0.0017849 -0.000671844 0.000164509)
(-0.00183469 -0.000692755 0.000141302)
(-0.00188384 -0.000712355 0.000111714)
(-0.00192428 -0.000728567 7.39831e-05)
(-0.00194696 -0.000738367 2.59831e-05)
(-0.00020381 -2.86942e-05 2.28849e-05)
(-0.000262023 -6.82751e-05 -4.51908e-05)
(-0.000280843 -0.000105002 -4.87629e-05)
(-0.000310605 -0.000154448 -4.33917e-05)
(-0.000374836 -0.000217423 -3.17745e-05)
(-0.000474941 -0.000289104 -1.20487e-05)
(-0.00060638 -0.000361285 1.90646e-05)
(-0.000752482 -0.000420353 5.93387e-05)
(-0.000898818 -0.000459948 0.000102445)
(-0.001034 -0.000480996 0.000141445)
(-0.00115329 -0.00049029 0.000171819)
(-0.00125504 -0.000494872 0.000192069)
(-0.00134082 -0.000499917 0.000203197)
(-0.00141486 -0.000508108 0.000207402)
(-0.00148061 -0.000519643 0.000206666)
(-0.0015414 -0.000534299 0.00020255)
(-0.00159905 -0.000551197 0.000195672)
(-0.00165436 -0.000569592 0.000186145)
(-0.00170738 -0.000588821 0.000173318)
(-0.00175859 -0.000608261 0.000157012)
(-0.00180592 -0.000626964 0.000135141)
(-0.0018531 -0.00064446 0.000106958)
(-0.00189158 -0.000658919 7.10565e-05)
(-0.00191258 -0.00066762 2.50141e-05)
(-0.000158553 -1.1181e-05 2.49129e-05)
(-0.000214653 -4.58885e-05 -4.25383e-05)
(-0.000229005 -7.50822e-05 -4.65426e-05)
(-0.000244351 -0.00011221 -4.37972e-05)
(-0.000288142 -0.000161508 -3.75632e-05)
(-0.000384288 -0.000229167 -2.6615e-05)
(-0.000513886 -0.000300912 -6.1153e-06)
(-0.000663397 -0.000364067 2.65614e-05)
(-0.00081624 -0.000408401 6.63338e-05)
(-0.000961649 -0.00043381 0.000105719)
(-0.00109059 -0.000444961 0.000138818)
(-0.00120069 -0.000449247 0.000162893)
(-0.00129403 -0.00045289 0.000178167)
(-0.00137337 -0.000458782 0.000186133)
(-0.00144278 -0.000467837 0.000188684)
(-0.00150551 -0.000479989 0.000187347)
(-0.00156342 -0.000494399 0.000182776)
(-0.00161773 -0.00051038 0.000175205)
(-0.00166868 -0.000527231 0.00016403)
(-0.0017171 -0.000544315 0.000149257)
(-0.00176112 -0.000560832 0.00012873)
(-0.00180584 -0.000576296 0.000101987)
(-0.00184196 -0.000589081 6.80056e-05)
(-0.00186078 -0.00059671 2.40062e-05)
(-0.00010627 1.42543e-06 2.35346e-05)
(-0.000156964 -2.64893e-05 -3.69443e-05)
(-0.000171274 -4.95879e-05 -4.09096e-05)
(-0.000183399 -7.81307e-05 -3.74816e-05)
(-0.000222792 -0.000116495 -3.62868e-05)
(-0.000288131 -0.000168089 -3.75578e-05)
(-0.00040823 -0.000238189 -2.81979e-05)
(-0.000558555 -0.000304687 -4.47082e-06)
(-0.000719932 -0.00035567 3.02164e-05)
(-0.000873707 -0.000385566 6.8714e-05)
(-0.00101244 -0.000399421 0.00010397)
(-0.00113237 -0.000404388 0.000131935)
(-0.00123304 -0.000406679 0.000151495)
(-0.00131822 -0.000410435 0.000163598)
(-0.00139115 -0.000416917 0.000169735)
(-0.00145536 -0.000426428 0.000171411)
(-0.00151324 -0.000438345 0.00016935)
(-0.00156612 -0.000451972 0.000163874)
(-0.00161462 -0.00046658 0.000154441)
(-0.00166005 -0.000481564 0.000141293)
(-0.00170034 -0.000496107 0.000122137)
(-0.00174208 -0.000509642 9.68436e-05)
(-0.00177529 -0.000520846 6.48526e-05)
(-0.00179174 -0.000527561 2.29731e-05)
(-6.29469e-05 7.39576e-06 1.96388e-05)
(-0.000107775 -1.50652e-05 -3.28209e-05)
(-0.000118448 -3.25388e-05 -3.80606e-05)
(-0.000117889 -4.92258e-05 -3.11739e-05)
(-0.000128131 -7.35899e-05 -2.70623e-05)
(-0.000196245 -0.000118184 -3.26591e-05)
(-0.000294879 -0.000174294 -3.9656e-05)
(-0.000443462 -0.000244003 -3.01669e-05)
(-0.000607845 -0.000299772 -3.74803e-06)
(-0.000772164 -0.000336576 3.19188e-05)
(-0.00092097 -0.000354516 6.83191e-05)
(-0.00104928 -0.000360461 9.95694e-05)
(-0.00115796 -0.000362117 0.000123486)
(-0.00124853 -0.000363838 0.000139867)
(-0.00132519 -0.000367939 0.000149893)
(-0.00139114 -0.000374999 0.00015488)
(-0.00144864 -0.000384501 0.000155507)
(-0.0014995 -0.00039586 0.000152231)
(-0.00154473 -0.00040831 0.000144575)
(-0.00158603 -0.000421198 0.000133049)
(-0.00162153 -0.000433853 0.000115248)
(-0.00165979 -0.00044562 9.14369e-05)
(-0.00168973 -0.000455406 6.15446e-05)
(-0.0017032 -0.000461257 2.18903e-05)
(-1.46982e-05 5.82416e-06 1.30421e-05)
(-4.209e-05 -4.31693e-06 -1.98752e-05)
(-6.37862e-05 -1.29144e-05 -3.19086e-05)
(-7.22343e-05 -2.23645e-05 -4.4085e-05)
(-4.00922e-05 -2.71217e-05 -2.73923e-05)
(-5.45303e-05 -4.44059e-05 -1.88629e-05)
(-0.000190123 -0.000112684 -3.90077e-05)
(-0.000316023 -0.000174423 -4.93736e-05)
(-0.000487296 -0.000242451 -3.39073e-05)
(-0.00065709 -0.000285512 -3.0052e-06)
(-0.000814296 -0.000308938 3.286e-05)
(-0.000952578 -0.000317846 6.66274e-05)
(-0.00106832 -0.000319499 9.45088e-05)
(-0.00116482 -0.000319917 0.000115253)
(-0.00124465 -0.000321828 0.000129279)
(-0.0013114 -0.00032647 0.000137693)
(-0.00136805 -0.000333718 0.000141158)
(-0.0014165 -0.000343032 0.000140189)
(-0.00145815 -0.000353592 0.000134381)
(-0.00149521 -0.000364741 0.000124557)
(-0.00152574 -0.000375821 0.000108139)
(-0.00156001 -0.000386009 8.58174e-05)
(-0.00158614 -0.000394517 5.81074e-05)
(-0.00159663 -0.000399731 2.0775e-05)
(1.4955e-05 7.63588e-06 7.92601e-06)
(7.22842e-06 -1.47631e-06 -9.65098e-06)
(-3.58257e-06 -3.60877e-07 -1.72659e-05)
(-1.8722e-05 -4.45314e-06 -2.95109e-05)
(-2.79319e-05 -7.93748e-06 -3.25596e-05)
(-3.40738e-05 -1.33001e-05 -3.448e-05)
(-4.20199e-05 -4.24016e-05 -2.52273e-05)
(-0.000209251 -0.000117447 -3.84267e-05)
(-0.000355093 -0.000176277 -5.54306e-05)
(-0.000532104 -0.000233185 -3.3202e-05)
(-0.000697341 -0.000263514 -4.50183e-07)
(-0.000842336 -0.000275956 3.40954e-05)
(-0.000965474 -0.000279193 6.52963e-05)
(-0.00106638 -0.000278838 9.00205e-05)
(-0.00114947 -0.000279241 0.00010808)
(-0.00121745 -0.000282037 0.000120096)
(-0.00127281 -0.000287321 0.000126487)
(-0.00131797 -0.000294795 0.000127847)
(-0.00135497 -0.00030358 0.000123851)
(-0.0013867 -0.000313092 0.000115705)
(-0.00141097 -0.000322621 0.000100624)
(-0.0014408 -0.000331456 7.9836e-05)
(-0.00146273 -0.000338853 5.44419e-05)
(-0.00146944 -0.000343428 1.95813e-05)
(3.5032e-05 1.07233e-05 2.28538e-05)
(3.30043e-05 7.58295e-06 -5.15389e-06)
(2.23352e-05 5.31549e-06 -8.6762e-06)
(2.68343e-06 7.1106e-06 -9.81276e-06)
(-3.54246e-05 1.43502e-05 -3.84176e-05)
(-4.89021e-05 -1.31252e-05 -5.68536e-05)
(-5.15305e-05 -3.87094e-05 -6.53991e-05)
(-6.93973e-05 -7.67379e-05 -4.33686e-05)
(-0.000231637 -0.000125641 -4.04102e-05)
(-0.000393056 -0.000168326 -5.30803e-05)
(-0.000567286 -0.000215677 -2.89299e-05)
(-0.000721661 -0.000234614 3.58968e-06)
(-0.000849617 -0.000240645 3.67173e-05)
(-0.000955674 -0.000241113 6.48626e-05)
(-0.00104064 -0.000240603 8.66246e-05)
(-0.00110791 -0.000241806 0.000102045)
(-0.00116123 -0.000245485 0.000111346)
(-0.00120289 -0.000251558 0.000115067)
(-0.00123542 -0.000258983 0.000112926)
(-0.0012615 -0.000267146 0.000106476)
(-0.00127987 -0.000275432 9.27855e-05)
(-0.00130491 -0.000283194 7.35576e-05)
(-0.0013224 -0.000289634 5.05906e-05)
(-0.00132577 -0.000293827 1.8339e-05)
(4.64576e-05 1.51983e-05 3.35979e-05)
(5.29398e-05 8.94396e-06 -7.62152e-06)
(5.04713e-05 1.6629e-06 -9.38335e-06)
(3.72692e-05 -4.54958e-06 -7.22534e-06)
(1.14501e-05 -6.70967e-06 -1.63449e-05)
(2.18171e-06 -1.28349e-05 -2.03268e-05)
(-4.08063e-05 -5.13015e-06 -4.28526e-05)
(-4.37408e-05 -4.23226e-05 -5.31051e-05)
(-0.000103102 -5.86079e-05 -3.10099e-05)
(-0.000307263 -0.00010777 -5.61349e-05)
(-0.000437021 -0.000163645 -5.57065e-05)
(-0.000590639 -0.000192708 -2.38003e-05)
(-0.000724379 -0.000203802 1.01217e-05)
(-0.000831824 -0.000205728 4.03278e-05)
(-0.000918603 -0.000205665 6.52788e-05)
(-0.000986266 -0.000206397 8.39856e-05)
(-0.00103708 -0.000209042 9.60792e-05)
(-0.00107382 -0.000213946 0.000101988)
(-0.00110008 -0.000219991 0.000101505)
(-0.00112025 -0.000227014 9.67394e-05)
(-0.00113112 -0.00023373 8.43504e-05)
(-0.00115096 -0.000240712 6.67585e-05)
(-0.0011636 -0.00024623 4.63811e-05)
(-0.00116253 -0.000249814 1.69617e-05)
(5.52403e-05 1.60352e-05 3.53699e-05)
(6.85409e-05 9.4976e-06 -1.05797e-05)
(7.13508e-05 2.89166e-06 -1.60949e-05)
(6.63866e-05 -7.19086e-06 -1.85229e-05)
(5.26024e-05 -1.87314e-05 -2.07092e-05)
(4.01833e-05 -2.28122e-05 -1.83583e-05)
(1.23049e-05 -2.48757e-05 -8.91973e-06)
(-3.05308e-05 1.35863e-05 -2.61631e-05)
(-6.70267e-05 -1.0346e-05 -7.44835e-05)
(-0.000132084 -0.000108295 -6.25953e-05)
(-0.000300744 -0.000126853 -4.01457e-05)
(-0.000458368 -0.000148103 -4.3589e-05)
(-0.00059053 -0.000167195 -1.33784e-05)
(-0.000701296 -0.000173064 1.76384e-05)
(-0.000787077 -0.000174189 4.46996e-05)
(-0.000851117 -0.000174699 6.59052e-05)
(-0.000898112 -0.000176758 8.04274e-05)
(-0.000930412 -0.000181196 8.8416e-05)
(-0.000952164 -0.000186475 8.96234e-05)
(-0.000965127 -0.00019227 8.63874e-05)
(-0.000970373 -0.000197608 7.54589e-05)
(-0.000984987 -0.000204222 5.95616e-05)
(-0.00099287 -0.000208815 4.19002e-05)
(-0.000988615 -0.000211908 1.55097e-05)
(6.40085e-05 1.42145e-05 3.52554e-05)
(8.3015e-05 7.59368e-06 -1.14088e-05)
(9.03807e-05 7.85901e-07 -1.92858e-05)
(9.07293e-05 -9.73735e-06 -2.39386e-05)
(8.45921e-05 -2.06231e-05 -2.63914e-05)
(7.35817e-05 -2.83928e-05 -2.62099e-05)
(5.37078e-05 -2.82454e-05 -2.11679e-05)
(1.40299e-05 -2.25615e-05 -3.21822e-05)
(-3.98051e-05 -2.63494e-05 -5.66017e-05)
(-6.7946e-05 -6.80307e-05 -4.96151e-05)
(-0.000161824 -7.42874e-05 -3.00433e-05)
(-0.000320165 -0.000100206 -5.39863e-05)
(-0.000456563 -0.000131104 -3.13415e-05)
(-0.000561687 -0.000140541 -2.32646e-06)
(-0.000646526 -0.000144783 2.55144e-05)
(-0.000709944 -0.000146721 4.85804e-05)
(-0.00075305 -0.000149024 6.50649e-05)
(-0.000778395 -0.000152977 7.45876e-05)
(-0.000791833 -0.000156926 7.69525e-05)
(-0.000799747 -0.000161875 7.53272e-05)
(-0.000795987 -0.00016402 6.56519e-05)
(-0.000805524 -0.000171163 5.16166e-05)
(-0.000808952 -0.000174565 3.68752e-05)
(-0.000800313 -0.00017656 1.38301e-05)
(6.99966e-05 1.21671e-05 3.53416e-05)
(9.33737e-05 5.75555e-06 -1.10286e-05)
(0.000104282 -7.62485e-07 -2.04234e-05)
(0.0001081 -1.17585e-05 -2.61188e-05)
(0.000105723 -2.36087e-05 -2.85144e-05)
(9.79433e-05 -3.37113e-05 -2.7481e-05)
(8.38363e-05 -4.1704e-05 -2.33778e-05)
(5.92988e-05 -3.63152e-05 -1.02086e-05)
(3.78286e-07 -2.30954e-05 -1.80865e-05)
(-4.44859e-05 8.50935e-06 -3.43616e-05)
(-7.03226e-05 -2.57853e-05 -3.58513e-05)
(-0.000221289 -6.17911e-05 -4.90027e-05)
(-0.000320801 -9.36993e-05 -4.24867e-05)
(-0.000427535 -0.000110055 -1.79202e-05)
(-0.000505922 -0.000117167 8.60424e-06)
(-0.000560469 -0.000119823 3.19689e-05)
(-0.00059735 -0.000122544 4.9506e-05)
(-0.000617915 -0.000126968 6.0283e-05)
(-0.000629028 -0.000130571 6.3935e-05)
(-0.00062816 -0.000133757 6.34655e-05)
(-0.000624241 -0.000134024 5.5575e-05)
(-0.000627274 -0.000141652 4.32755e-05)
(-0.000626081 -0.00014399 3.15103e-05)
(-0.000613312 -0.00014247 1.20391e-05)
(7.03199e-05 9.69883e-06 3.45793e-05)
(9.62291e-05 4.3023e-06 -9.39008e-06)
(0.000108829 -1.164e-06 -1.97555e-05)
(0.000115572 -1.16044e-05 -2.64633e-05)
(0.000116324 -2.39338e-05 -2.95059e-05)
(0.000111538 -3.56609e-05 -2.87089e-05)
(0.00010074 -4.54215e-05 -2.38222e-05)
(8.26408e-05 -4.85989e-05 -1.26957e-05)
(4.22205e-05 -4.23354e-05 9.84661e-06)
(-4.59749e-05 3.2632e-05 -2.00543e-05)
(-4.09257e-05 -7.73273e-06 -6.54622e-05)
(-9.21105e-05 -6.9143e-05 -4.38376e-05)
(-0.000200024 -6.4242e-05 -3.13699e-05)
(-0.000288233 -7.72893e-05 -2.80566e-05)
(-0.000363886 -8.96248e-05 -4.80954e-06)
(-0.000418006 -9.4892e-05 1.74537e-05)
(-0.00045 -9.85663e-05 3.50862e-05)
(-0.00046129 -0.000102724 4.58932e-05)
(-0.000461026 -0.000104944 4.9747e-05)
(-0.000458419 -0.000106827 5.05634e-05)
(-0.00043371 -9.9103e-05 4.39163e-05)
(-0.000439998 -0.000111112 3.39891e-05)
(-0.000433103 -0.000108961 2.5491e-05)
(-0.000421966 -9.46543e-05 9.9982e-06)
(6.5065e-05 6.73991e-06 3.21919e-05)
(9.21084e-05 2.45512e-06 -6.9083e-06)
(0.000105471 -1.9338e-06 -1.70522e-05)
(0.000113687 -1.08044e-05 -2.41818e-05)
(0.000117712 -2.24353e-05 -2.82388e-05)
(0.000116647 -3.46067e-05 -2.87024e-05)
(0.000110182 -4.51848e-05 -2.53737e-05)
(9.65765e-05 -5.15131e-05 -1.80522e-05)
(6.95662e-05 -4.73704e-05 -7.47347e-06)
(8.32878e-06 -3.85846e-05 -1.41568e-05)
(-2.98972e-05 -1.14741e-05 -4.53792e-05)
(-5.04485e-05 -3.66291e-05 -4.60109e-05)
(-9.20183e-05 -2.7854e-05 -2.52843e-05)
(-0.000179557 -4.44828e-05 -3.26004e-05)
(-0.000236916 -6.25501e-05 -1.56007e-05)
(-0.000272655 -6.6009e-05 4.5718e-06)
(-0.00029655 -7.28513e-05 2.08033e-05)
(-0.000304298 -7.62815e-05 3.15153e-05)
(-0.000307116 -7.76321e-05 3.62781e-05)
(-0.000295584 -7.63789e-05 3.90612e-05)
(-0.000307264 -4.5577e-05 3.51659e-05)
(-0.000286929 -7.51348e-05 2.46707e-05)
(-0.000295709 -6.67357e-05 1.91268e-05)
(-0.000345683 -5.01551e-05 7.23345e-06)
(5.66075e-05 3.85463e-06 2.86065e-05)
(8.32653e-05 1.38418e-07 -4.60481e-06)
(9.66761e-05 -3.58575e-06 -1.34158e-05)
(0.000105605 -1.09447e-05 -1.99283e-05)
(0.000111498 -2.07317e-05 -2.43815e-05)
(0.000114254 -3.20432e-05 -2.62106e-05)
(0.000112631 -4.28224e-05 -2.49199e-05)
(0.000105205 -5.07701e-05 -2.06402e-05)
(8.80178e-05 -5.35164e-05 -1.46518e-05)
(5.46699e-05 -4.83654e-05 -1.14449e-05)
(2.26914e-05 -3.70832e-05 -7.07345e-06)
(-3.06416e-05 2.41811e-05 -2.98491e-05)
(-2.56835e-05 -7.84174e-06 -1.97334e-05)
(-7.59239e-05 -1.96146e-05 -2.26523e-05)
(-0.000125178 -3.45358e-05 -1.8617e-05)
(-0.000176212 -3.7567e-05 -3.92867e-06)
(-0.000179753 -4.39024e-05 9.8513e-06)
(-0.00018636 -4.86044e-05 1.8588e-05)
(-0.000174849 -4.76232e-05 2.2421e-05)
(-0.000168566 -4.23923e-05 2.26009e-05)
(-0.000177405 -4.32829e-05 1.91946e-05)
(-0.000144224 -4.62263e-05 1.32209e-05)
(-0.000138038 -6.30585e-05 4.39575e-06)
(-0.000151058 -0.000169702 3.85628e-06)
(4.75763e-05 1.92622e-06 2.5161e-05)
(7.24685e-05 -1.8227e-06 -3.24031e-06)
(8.50789e-05 -5.50141e-06 -1.03601e-05)
(9.39559e-05 -1.1865e-05 -1.55546e-05)
(0.000100655 -2.0055e-05 -1.94512e-05)
(0.000105838 -2.95694e-05 -2.17746e-05)
(0.000108512 -3.94367e-05 -2.20203e-05)
(0.00010689 -4.77331e-05 -2.01869e-05)
(9.83099e-05 -5.27961e-05 -1.6659e-05)
(7.85434e-05 -5.37319e-05 -1.37607e-05)
(4.9824e-05 -3.98241e-05 -9.92087e-06)
(-4.28961e-06 -2.27865e-05 -2.19169e-05)
(-1.29828e-05 -1.17912e-05 -2.43067e-05)
(-4.37689e-05 -2.38769e-05 -3.37845e-05)
(-2.92651e-05 -1.02338e-05 -1.14303e-05)
(-6.04778e-05 -3.08462e-05 -8.38752e-06)
(-7.27044e-05 -2.01652e-05 2.49103e-06)
(-6.26973e-05 -3.00301e-05 2.85999e-06)
(-6.0127e-05 -2.65315e-05 6.95024e-06)
(-6.33376e-05 -3.22434e-05 4.96257e-07)
(-8.44211e-05 -6.35656e-05 1.30295e-05)
(-5.0631e-05 -3.7243e-05 1.42992e-05)
(-5.64378e-05 -5.42955e-05 4.25231e-07)
(-5.24492e-05 -5.89442e-05 7.8722e-06)
(3.85333e-05 8.63544e-07 2.16971e-05)
(6.10033e-05 -3.23755e-06 -2.76057e-06)
(7.2395e-05 -7.30012e-06 -8.2919e-06)
(8.08113e-05 -1.32542e-05 -1.20423e-05)
(8.77855e-05 -2.04267e-05 -1.48546e-05)
(9.41309e-05 -2.8314e-05 -1.68315e-05)
(9.97116e-05 -3.65761e-05 -1.77442e-05)
(0.000102495 -4.41014e-05 -1.74525e-05)
(0.00010053 -4.98653e-05 -1.61092e-05)
(9.03749e-05 -5.27326e-05 -1.4278e-05)
(7.06832e-05 -4.80638e-05 -1.25023e-05)
(3.39104e-05 -3.32442e-05 -1.82799e-05)
(1.24497e-05 -2.14151e-05 -2.28366e-05)
(-1.39077e-05 -6.02774e-06 -3.40287e-05)
(-1.30337e-05 -7.5268e-06 -1.74486e-05)
(-3.40811e-05 -3.00829e-05 -1.89338e-05)
(-1.56165e-05 -1.27778e-05 -3.25305e-06)
(-3.53634e-05 -3.71399e-05 -5.21335e-07)
(-1.92212e-05 -1.96346e-05 1.17431e-06)
(-2.01662e-05 -2.7259e-05 -2.38739e-06)
(-2.65651e-05 -2.25373e-05 1.69336e-05)
(-1.35523e-05 -2.44901e-05 1.62229e-05)
(-1.79695e-05 -8.16694e-06 1.04847e-05)
(-4.73424e-05 6.25171e-05 8.00476e-06)
(3.10742e-05 9.15236e-08 1.84705e-05)
(5.07938e-05 -4.55309e-06 -2.79814e-06)
(6.07624e-05 -9.19128e-06 -7.00261e-06)
(6.84709e-05 -1.51108e-05 -9.46658e-06)
(7.537e-05 -2.17237e-05 -1.11414e-05)
(8.22102e-05 -2.85265e-05 -1.24058e-05)
(8.89547e-05 -3.51505e-05 -1.33273e-05)
(9.44398e-05 -4.1429e-05 -1.38251e-05)
(9.67884e-05 -4.6655e-05 -1.38775e-05)
(9.37079e-05 -5.05905e-05 -1.3808e-05)
(8.24853e-05 -5.01434e-05 -1.3468e-05)
(5.84467e-05 -4.32173e-05 -1.79996e-05)
(3.7254e-05 -2.92289e-05 -2.19845e-05)
(5.58791e-06 -1.33521e-05 -3.02492e-05)
(-1.6418e-06 -1.25104e-05 -3.40032e-05)
(-9.46166e-06 -1.90894e-07 -2.35642e-05)
(-7.14011e-06 -7.22766e-06 -1.77618e-05)
(1.58627e-06 -6.72176e-06 -8.41559e-06)