/*--------------------------------*- C++ -*----------------------------------*\
  =========                 |
  \\      /  F ield         | OpenFOAM: The Open Source CFD Toolbox
   \\    /   O peration     | Website:  https://openfoam.org
    \\  /    A nd           | Version:  6
     \\/     M anipulation  |
\*---------------------------------------------------------------------------*/
FoamFile
{
    version     2.0;
    format      ascii;
    class       volVectorField;
    location    "14";
    object      wallShearStress;
}
// * * * * * * * * * * * * * * * * * * * * * * * * * * * * * * * * * * * * * //

dimensions      [0 2 -2 0 0 0 0];

internalField   uniform (0 0 0);

boundaryField
{
    inlet
    {
        type            calculated;
        value           uniform (0 0 0);
    }
    outlet
    {
        type            calculated;
        value           uniform (0 0 0);
    }
    roughCylinder
    {
        type            calculated;
        value           nonuniform List<vector> 
3840
(
(-8.52437e-05 -0.000109988 -4.93845e-05)
(-0.000168323 -0.000290997 -4.11858e-05)
(-0.000250456 -0.000440931 2.80856e-05)
(-0.0003071 -0.000506279 8.37472e-05)
(-0.00037126 -0.000552661 0.000132804)
(-0.000416918 -0.000557416 0.000165834)
(-0.000456765 -0.000552877 0.000188896)
(-0.000481745 -0.000537123 0.000201431)
(-0.000503089 -0.000527896 0.000210999)
(-0.000514889 -0.000518553 0.000214884)
(-0.000529305 -0.000519431 0.000216898)
(-0.000538759 -0.000520993 0.000213932)
(-0.000542911 -0.000521326 0.000206066)
(-0.000548123 -0.000525064 0.000196)
(-0.000551388 -0.000529022 0.000183195)
(-0.000555196 -0.000534008 0.00016874)
(-0.000570037 -0.000549539 0.000155554)
(-0.000565408 -0.000548332 0.000136133)
(-0.000551434 -0.000537968 0.000114631)
(-0.000558345 -0.00054657 9.67723e-05)
(-0.000554892 -0.000545869 7.64926e-05)
(-0.000547995 -0.000541243 5.55179e-05)
(-0.000546374 -0.000541062 3.42524e-05)
(-0.000543132 -0.000538936 1.15848e-05)
(-0.000104801 -0.000119985 -5.22265e-05)
(-0.00017762 -0.000277873 -4.59986e-05)
(-0.000266611 -0.000433316 1.97276e-05)
(-0.00032625 -0.000503584 7.55736e-05)
(-0.000393166 -0.000553581 0.000124991)
(-0.000440546 -0.000560977 0.000158558)
(-0.000483441 -0.000560271 0.00018258)
(-0.000510648 -0.000547066 0.000196538)
(-0.000536058 -0.000540727 0.000208458)
(-0.000550392 -0.000530908 0.000213679)
(-0.00056713 -0.000532255 0.000216703)
(-0.000577006 -0.000533112 0.000213919)
(-0.000581689 -0.000533485 0.000206366)
(-0.000586477 -0.000536525 0.000196245)
(-0.00059113 -0.000541427 0.000183953)
(-0.000596803 -0.000547856 0.000170032)
(-0.00061021 -0.000561511 0.000156284)
(-0.000604788 -0.00055997 0.000136881)
(-0.000591215 -0.000550709 0.000115667)
(-0.000597854 -0.000558916 9.76432e-05)
(-0.000595964 -0.000559971 7.75028e-05)
(-0.000589675 -0.000556377 5.64206e-05)
(-0.000588978 -0.000557214 3.4907e-05)
(-0.000586107 -0.000555666 1.18223e-05)
(-0.000100828 -0.000100902 -4.08935e-05)
(-0.000191276 -0.000267987 -5.19644e-05)
(-0.000281602 -0.000419427 1.0394e-05)
(-0.000344391 -0.000494792 6.59959e-05)
(-0.000413752 -0.000548128 0.000115558)
(-0.000465248 -0.000561564 0.000150568)
(-0.000511062 -0.000564647 0.000175821)
(-0.000542706 -0.000556567 0.0001922)
(-0.000569266 -0.000550355 0.000205097)
(-0.000585137 -0.000539555 0.000211245)
(-0.000601721 -0.00053844 0.000214337)
(-0.000613389 -0.000539601 0.000212275)
(-0.000619952 -0.000541051 0.000205563)
(-0.000624405 -0.000543455 0.000195535)
(-0.000630732 -0.000549407 0.000183893)
(-0.000639198 -0.000557901 0.000170795)
(-0.000652452 -0.000570978 0.000156963)
(-0.000648116 -0.000570811 0.000138023)
(-0.000635082 -0.000562797 0.00011706)
(-0.000641461 -0.000570694 9.88443e-05)
(-0.000641385 -0.0005736 7.87896e-05)
(-0.000635123 -0.000570513 5.74713e-05)
(-0.00063338 -0.00057055 3.55413e-05)
(-0.000630182 -0.000568954 1.2039e-05)
(-0.000126876 -0.000109807 -3.93983e-05)
(-0.000194165 -0.000242562 -5.51244e-05)
(-0.000294421 -0.000400861 5.44212e-07)
(-0.000359965 -0.000480724 5.52988e-05)
(-0.000432461 -0.000538494 0.000104999)
(-0.000486288 -0.00055598 0.000140859)
(-0.000536398 -0.000564765 0.000167953)
(-0.000570317 -0.000559723 0.000186066)
(-0.00060114 -0.000556903 0.000200963)
(-0.000620785 -0.000547944 0.00020887)
(-0.000641236 -0.000547068 0.000213328)
(-0.000653849 -0.000547513 0.000211725)
(-0.000661129 -0.000548642 0.000205391)
(-0.000665489 -0.000550553 0.000195555)
(-0.000673051 -0.000557039 0.000184386)
(-0.00068246 -0.000565858 0.000171566)
(-0.000693792 -0.00057698 0.000157329)
(-0.000689348 -0.000577087 0.000138638)
(-0.000676641 -0.000570171 0.000117956)
(-0.000682355 -0.000577541 9.96064e-05)
(-0.00068473 -0.000582711 7.97864e-05)
(-0.000679171 -0.000580749 5.83697e-05)
(-0.000678359 -0.00058182 3.61974e-05)
(-0.000675631 -0.000580898 1.22782e-05)
(-0.000154577 -0.000114385 -3.38068e-05)
(-0.000206561 -0.000228926 -6.0822e-05)
(-0.000302896 -0.000375921 -9.54657e-06)
(-0.000371396 -0.00046059 4.35987e-05)
(-0.000446201 -0.000521916 9.29088e-05)
(-0.00050566 -0.000547388 0.000130336)
(-0.000559243 -0.000560941 0.000159062)
(-0.000598671 -0.000562044 0.00017997)
(-0.000631734 -0.000560635 0.000196262)
(-0.00065313 -0.000552096 0.000205202)
(-0.00067462 -0.00054946 0.000210188)
(-0.000689121 -0.000548955 0.000209383)
(-0.000698812 -0.000551061 0.000204061)
(-0.00070358 -0.00055278 0.000194683)
(-0.000712646 -0.000559884 0.000184144)
(-0.000723595 -0.000569481 0.000171858)
(-0.000735045 -0.000580501 0.000157827)
(-0.000732703 -0.00058265 0.00013981)
(-0.000720242 -0.000576804 0.000119322)
(-0.000725294 -0.000583789 0.000100802)
(-0.000730152 -0.000591029 8.11122e-05)
(-0.000724519 -0.000589551 5.94441e-05)
(-0.00072254 -0.000589941 3.68574e-05)
(-0.000719452 -0.000589103 1.25048e-05)
(-0.000122126 -7.6167e-05 -1.60164e-05)
(-0.000197264 -0.00019267 -5.99582e-05)
(-0.000307519 -0.0003469 -1.93915e-05)
(-0.00037847 -0.000435481 3.1182e-05)
(-0.00045719 -0.000502381 8.00211e-05)
(-0.000519411 -0.000532492 0.000118155)
(-0.000578316 -0.000552603 0.000148903)
(-0.000620329 -0.000556866 0.000171633)
(-0.000658075 -0.000559207 0.000190086)
(-0.000684 -0.000553615 0.00020099)
(-0.000710842 -0.000553431 0.000207901)
(-0.000728149 -0.000552413 0.000208177)
(-0.000738546 -0.000553133 0.000203362)
(-0.000743907 -0.000554506 0.000194502)
(-0.000753975 -0.000561724 0.000184464)
(-0.000764337 -0.000570456 0.000172236)
(-0.000774211 -0.000580127 0.000158124)
(-0.000772182 -0.00058283 0.000140464)
(-0.000759765 -0.000578222 0.000120246)
(-0.000763821 -0.000584978 0.000101643)
(-0.000771375 -0.000594525 8.21805e-05)
(-0.000766409 -0.000594382 6.04029e-05)
(-0.00076531 -0.000595975 3.75625e-05)
(-0.000762615 -0.000595878 1.27608e-05)
(-0.000127466 -6.59032e-05 -6.25824e-06)
(-0.000207724 -0.00017736 -6.46038e-05)
(-0.000306482 -0.000313066 -2.86107e-05)
(-0.000379739 -0.000405235 1.81666e-05)
(-0.00046032 -0.000475659 6.56293e-05)
(-0.000529636 -0.000514825 0.000105066)
(-0.000592566 -0.000539791 0.000137373)
(-0.000641434 -0.000550617 0.000162929)
(-0.000682755 -0.00055544 0.000183229)
(-0.000711403 -0.000551291 0.000195675)
(-0.000738598 -0.000549916 0.000203154)
(-0.000758439 -0.000549019 0.000204604)
(-0.000772412 -0.000550398 0.000201239)
(-0.000779433 -0.000551826 0.000193368)
(-0.000790729 -0.000559082 0.000184011)
(-0.000801396 -0.000567755 0.000172215)
(-0.000812252 -0.000578218 0.000158675)
(-0.000812627 -0.000583177 0.000141763)
(-0.000799823 -0.00057963 0.000121689)
(-0.000802591 -0.000586185 0.000102921)
(-0.000812104 -0.000597339 8.35063e-05)
(-0.00080651 -0.000597633 6.14511e-05)
(-0.000803891 -0.000598665 3.82067e-05)
(-0.000800592 -0.000598483 1.29769e-05)
(-0.000131722 -5.51751e-05 3.55073e-06)
(-0.000181951 -0.000134495 -5.7827e-05)
(-0.000299704 -0.000276136 -3.65477e-05)
(-0.000374289 -0.000370225 5.01299e-06)
(-0.000459573 -0.000447298 5.06304e-05)
(-0.000531933 -0.000491257 9.03534e-05)
(-0.000601346 -0.000522969 0.000124492)
(-0.000653494 -0.000536721 0.000151743)
(-0.00070024 -0.000545413 0.000174248)
(-0.000734334 -0.000544841 0.000189035)
(-0.000767929 -0.000546924 0.000198917)
(-0.000790956 -0.000546834 0.000201856)
(-0.000806218 -0.000547709 0.000199475)
(-0.000814809 -0.00054917 0.000192646)
(-0.000826874 -0.000556103 0.000183953)
(-0.000835853 -0.00056346 0.00017227)
(-0.000845298 -0.000573077 0.0001589)
(-0.000845356 -0.00057831 0.000142294)
(-0.000832135 -0.000575736 0.00012245)
(-0.000833567 -0.000582037 0.000103627)
(-0.000844715 -0.000594179 8.43158e-05)
(-0.000839478 -0.0005955 6.21863e-05)
(-0.000837513 -0.000597532 3.87596e-05)
(-0.000834658 -0.000598037 1.31778e-05)
(-0.000133693 -4.42418e-05 1.29762e-05)
(-0.000191353 -0.000119916 -6.11147e-05)
(-0.000286406 -0.000236631 -4.30835e-05)
(-0.00036198 -0.000331457 -7.87673e-06)
(-0.000447543 -0.000411134 3.44785e-05)
(-0.000527976 -0.000464604 7.45846e-05)
(-0.000602027 -0.000500962 0.000109897)
(-0.000662965 -0.000521534 0.000139815)
(-0.000714872 -0.000533249 0.000164371)
(-0.000752991 -0.000534872 0.000181176)
(-0.000786869 -0.000536119 0.000192065)
(-0.000811929 -0.000536376 0.000196442)
(-0.000830418 -0.000538392 0.000195758)
(-0.000841465 -0.000540712 0.000190375)
(-0.00085434 -0.000547573 0.000182569)
(-0.000863032 -0.000554713 0.000171499)
(-0.000873861 -0.000565231 0.000158928)
(-0.000875713 -0.000571985 0.000143)
(-0.000862095 -0.000570434 0.000123384)
(-0.000862397 -0.000576683 0.000104519)
(-0.000874354 -0.000589012 8.51846e-05)
(-0.000868236 -0.000590458 6.28793e-05)
(-0.000864584 -0.000591848 3.91833e-05)
(-0.000860893 -0.000592131 1.33147e-05)
(-0.00013727 -3.4025e-05 2.24622e-05)
(-0.000146523 -7.60699e-05 -4.62014e-05)
(-0.000266552 -0.000195784 -4.74514e-05)
(-0.00034024 -0.000287702 -1.96481e-05)
(-0.000430303 -0.000373989 1.82856e-05)
(-0.000513664 -0.000432293 5.7431e-05)
(-0.000595638 -0.000475846 9.39797e-05)
(-0.000660687 -0.000498862 0.000125319)
(-0.000718934 -0.000513924 0.000151955)
(-0.00076322 -0.000518998 0.000171221)
(-0.000804752 -0.000524434 0.000185067)
(-0.000834035 -0.00052651 0.000191622)
(-0.00085375 -0.000528485 0.000192331)
(-0.000866165 -0.000531074 0.000188259)
(-0.000879074 -0.000537558 0.000181285)
(-0.000885708 -0.000543536 0.000170574)
(-0.000894962 -0.000552989 0.000158319)
(-0.000895635 -0.000559261 0.000142681)
(-0.000881445 -0.000558668 0.000123429)
(-0.000880616 -0.000564876 0.000104675)
(-0.000892486 -0.000576627 8.53796e-05)
(-0.000886612 -0.000578908 6.31632e-05)
(-0.000883442 -0.000581148 3.94577e-05)
(-0.000880105 -0.000582039 1.34191e-05)
(-0.000137972 -2.33523e-05 3.15e-05)
(-0.000162185 -6.78746e-05 -4.93093e-05)
(-0.000240401 -0.000154585 -4.89214e-05)
(-0.00031246 -0.000242987 -2.97048e-05)
(-0.000399138 -0.000329025 2.2688e-06)
(-0.0004903 -0.000396434 3.95286e-05)
(-0.000576879 -0.000444534 7.61303e-05)
(-0.000653037 -0.000475025 0.000109744)
(-0.000718409 -0.000493031 0.000138554)
(-0.000768169 -0.000500172 0.000160106)
(-0.00080998 -0.000504774 0.000175349)
(-0.000840999 -0.000507278 0.000183747)
(-0.000863991 -0.000510732 0.000186571)
(-0.000878989 -0.000514511 0.000184303)
(-0.000892064 -0.000520954 0.000178428)
(-0.000898318 -0.000526998 0.000168616)
(-0.000908818 -0.000537079 0.000157314)
(-0.0009105 -0.000544201 0.000142402)
(-0.000895842 -0.000544711 0.000123554)
(-0.000894024 -0.000551003 0.000104922)
(-0.000904658 -0.000561417 8.55518e-05)
(-0.000897433 -0.000563495 6.3328e-05)
(-0.000892112 -0.000564916 3.95478e-05)
(-0.000887645 -0.000565482 1.34376e-05)
(-0.000134467 -1.22321e-05 3.95847e-05)
(-0.000130244 -4.26032e-05 -3.75442e-05)
(-0.000210201 -0.000115675 -4.71898e-05)
(-0.000272725 -0.000193728 -3.61942e-05)
(-0.000361943 -0.000283615 -1.23477e-05)
(-0.00045424 -0.000354801 2.12269e-05)
(-0.000549845 -0.000411129 5.73553e-05)
(-0.000630503 -0.000444272 9.16203e-05)
(-0.000703439 -0.000465381 0.000122458)
(-0.000760315 -0.000474746 0.000146597)
(-0.000811079 -0.000483302 0.000165094)
(-0.000847351 -0.000488217 0.000176276)
(-0.000871627 -0.000492065 0.000181029)
(-0.000887409 -0.000496123 0.000180359)
(-0.000899893 -0.000502339 0.000175589)
(-0.000903927 -0.000507586 0.00016644)
(-0.000911879 -0.000516073 0.000155503)
(-0.000911064 -0.000522006 0.000140893)
(-0.000895401 -0.000523397 0.000122555)
(-0.000892425 -0.0005296 0.000104192)
(-0.000900889 -0.000538158 8.48487e-05)
(-0.000893639 -0.000540873 6.29436e-05)
(-0.000888477 -0.00054305 3.94052e-05)
(-0.000884104 -0.00054417 1.33948e-05)
(-0.000124074 -1.68692e-06 4.47771e-05)
(-0.000128921 -3.18501e-05 -3.46314e-05)
(-0.000172567 -7.85042e-05 -4.06566e-05)
(-0.000231137 -0.000148141 -3.90708e-05)
(-0.000309452 -0.000230844 -2.41678e-05)
(-0.000407495 -0.000309547 3.59277e-06)
(-0.000505996 -0.000369844 3.73332e-05)
(-0.000599396 -0.000412006 7.23781e-05)
(-0.000681252 -0.00043733 0.000105195)
(-0.000745847 -0.000448885 0.000132161)
(-0.000797099 -0.000455519 0.000152438)
(-0.000834728 -0.000459787 0.000165705)
(-0.000862204 -0.000464938 0.000172871)
(-0.000880065 -0.00047025 0.000174289)
(-0.000892143 -0.000476663 0.00017092)
(-0.000895629 -0.0004823 0.000162944)
(-0.000903968 -0.000491042 0.00015302)
(-0.000903284 -0.000497493 0.000139245)
(-0.000886793 -0.000500046 0.000121489)
(-0.000882474 -0.000506295 0.000103383)
(-0.000887541 -0.000512952 8.40053e-05)
(-0.000878219 -0.000515118 6.23323e-05)
(-0.000870108 -0.000516223 3.89922e-05)
(-0.0008643 -0.000516964 1.32351e-05)
(-0.000119502 7.5205e-06 5.11583e-05)
(-0.000144964 -2.57287e-05 -3.55886e-05)
(-0.000137548 -4.93522e-05 -3.1949e-05)
(-0.000175996 -9.96549e-05 -3.52038e-05)
(-0.000253658 -0.000180158 -3.22309e-05)
(-0.000346787 -0.000258413 -1.22072e-05)
(-0.00045426 -0.00032754 1.77107e-05)
(-0.000551295 -0.000372778 5.15372e-05)
(-0.000641041 -0.000402548 8.54869e-05)
(-0.000713141 -0.000417083 0.000115014)
(-0.000774998 -0.000427676 0.000139056)
(-0.000819193 -0.000433955 0.000155657)
(-0.000847905 -0.000438796 0.000165078)
(-0.000865571 -0.000443824 0.000168232)
(-0.000876307 -0.000450142 0.000166198)
(-0.000877065 -0.000455332 0.000159087)
(-0.000881292 -0.00046237 0.000149524)
(-0.000876476 -0.000467166 0.000136079)
(-0.000858125 -0.000470108 0.000118933)
(-0.000851909 -0.000475943 0.000101216)
(-0.000853091 -0.000480833 8.20363e-05)
(-0.000843362 -0.0004833 6.10012e-05)
(-0.000835015 -0.000485002 3.82518e-05)
(-0.000828991 -0.000486089 1.29793e-05)
(-0.000112548 1.53864e-05 5.55346e-05)
(-0.000121677 -1.44411e-05 -2.68985e-05)
(-8.8933e-05 -2.39427e-05 -1.85361e-05)
(-0.00012902 -6.1973e-05 -2.79162e-05)
(-0.00018173 -0.000122808 -3.32676e-05)
(-0.0002765 -0.000204574 -2.45609e-05)
(-0.000382819 -0.000275553 -1.03405e-06)
(-0.000493217 -0.000331349 3.07899e-05)
(-0.000592229 -0.000367091 6.54455e-05)
(-0.000672881 -0.000386082 9.75361e-05)
(-0.000734868 -0.000395458 0.000123633)
(-0.000779685 -0.000400705 0.000142502)
(-0.000811497 -0.000406413 0.000154556)
(-0.000830599 -0.000412145 0.000159885)
(-0.000840215 -0.000418566 0.000159391)
(-0.000839916 -0.000424188 0.000153583)
(-0.000843164 -0.00043138 0.000145047)
(-0.000837662 -0.000436672 0.000132584)
(-0.000818042 -0.000440222 0.000116157)
(-0.000809497 -0.00044527 9.87782e-05)
(-0.000805593 -0.000448177 7.9728e-05)
(-0.000792891 -0.000449473 5.9228e-05)
(-0.000780614 -0.000449694 3.70676e-05)
(-0.000772764 -0.000450066 1.2542e-05)
(-0.000104893 2.11473e-05 5.69603e-05)
(-0.000116507 -8.68319e-06 -2.30566e-05)
(-8.37568e-05 -1.65401e-05 -1.32173e-05)
(-5.83017e-05 -2.18393e-05 -1.15192e-05)
(-0.000118108 -7.55333e-05 -2.91659e-05)
(-0.000194564 -0.000145676 -3.13606e-05)
(-0.000307029 -0.000224116 -1.71575e-05)
(-0.000418486 -0.00028259 1.07663e-05)
(-0.000524628 -0.000324221 4.49556e-05)
(-0.000611029 -0.000347491 7.85452e-05)
(-0.000683603 -0.000362909 0.000107997)
(-0.000735343 -0.000371476 0.00013019)
(-0.00076774 -0.000377145 0.000144461)
(-0.000785428 -0.000382381 0.000151488)
(-0.000792805 -0.000388446 0.000152378)
(-0.000789047 -0.000393269 0.000147432)
(-0.000786452 -0.000398286 0.000139097)
(-0.00077477 -0.000401295 0.000126855)
(-0.000752156 -0.000403848 0.000111077)
(-0.000740236 -0.000407168 9.41846e-05)
(-0.000731547 -0.000408352 7.56635e-05)
(-0.000718061 -0.000409325 5.62704e-05)
(-0.000705393 -0.000409825 3.5291e-05)
(-0.000697385 -0.000410244 1.19214e-05)
(-9.44033e-05 2.32422e-05 5.24019e-05)
(-0.000111081 -5.33218e-06 -1.96642e-05)
(-7.18873e-05 -1.05046e-05 -6.14247e-06)
(-4.54514e-05 -1.14167e-05 -4.82032e-06)
(-4.56081e-05 -2.76361e-05 -1.43678e-05)
(-0.000111417 -8.74564e-05 -3.09378e-05)
(-0.000213433 -0.00016168 -2.82829e-05)
(-0.000336981 -0.000231773 -6.27323e-06)
(-0.000450105 -0.000280318 2.6724e-05)
(-0.0005438 -0.00030997 6.14276e-05)
(-0.000613415 -0.000325459 9.16387e-05)
(-0.00066289 -0.000334094 0.000114947)
(-0.000696902 -0.000341302 0.000131207)
(-0.000715023 -0.000347482 0.000140134)
(-0.000720272 -0.000353346 0.000142409)
(-0.000714722 -0.000358005 0.000138648)
(-0.000710034 -0.000362705 0.000131227)
(-0.00069734 -0.000365818 0.000120095)
(-0.000673658 -0.0003678 0.000105247)
(-0.000658447 -0.000369198 8.88772e-05)
(-0.000644507 -0.000368305 7.0885e-05)
(-0.000627596 -0.000367131 5.25162e-05)
(-0.000610369 -0.000365196 3.27769e-05)
(-0.000600179 -0.000364232 1.1004e-05)
(-8.52765e-05 2.21026e-05 4.38288e-05)
(-0.000105335 -3.74852e-06 -1.67493e-05)
(-6.28674e-05 -6.6661e-06 4.67586e-07)
(-2.5556e-05 -2.20026e-06 3.73463e-06)
(-1.11116e-05 -7.51107e-06 -4.74001e-06)
(-2.51443e-05 -2.43116e-05 -1.48701e-05)
(-0.000126821 -0.000102663 -3.30959e-05)
(-0.000243755 -0.000173112 -1.78175e-05)
(-0.000360037 -0.000228632 1.2387e-05)
(-0.000454306 -0.00026304 4.57914e-05)
(-0.000532248 -0.000286603 7.67564e-05)
(-0.000586868 -0.000300235 0.000101445)
(-0.000619725 -0.000308315 0.000118661)
(-0.000634541 -0.000314027 0.000128469)
(-0.000636558 -0.000319256 0.000131731)
(-0.000626927 -0.000322534 0.000128553)
(-0.000615247 -0.000324316 0.000121005)
(-0.000594587 -0.000323458 0.000109753)
(-0.000566545 -0.00032226 9.55178e-05)
(-0.000546408 -0.000320235 7.98647e-05)
(-0.00052861 -0.000317463 6.31096e-05)
(-0.000511048 -0.000315101 4.66421e-05)
(-0.000494279 -0.000313078 2.91328e-05)
(-0.000484585 -0.000311998 9.73548e-06)
(-7.23303e-05 1.88837e-05 3.19264e-05)
(-9.985e-05 -2.18154e-06 -1.46034e-05)
(-5.56194e-05 -1.64637e-06 5.64737e-06)
(-1.29492e-05 6.84172e-06 9.18105e-06)
(1.32442e-05 9.89697e-06 -1.07445e-06)
(5.10343e-06 -1.22941e-06 -1.17326e-05)
(-3.17616e-05 -2.75562e-05 -1.70565e-05)
(-0.000156765 -0.000115331 -2.00594e-05)
(-0.00026972 -0.000176838 5.74942e-06)
(-0.000365382 -0.000218608 3.58909e-05)
(-0.000433712 -0.00024197 6.31917e-05)
(-0.000481752 -0.000255885 8.53815e-05)
(-0.000513261 -0.000265631 0.000102111)
(-0.000527359 -0.000272452 0.0001125)
(-0.000526037 -0.000276858 0.000116285)
(-0.000513766 -0.000279113 0.000113754)
(-0.000500081 -0.000280101 0.000106956)
(-0.000479734 -0.00027896 9.70336e-05)
(-0.000452052 -0.000276493 8.41884e-05)
(-0.000429383 -0.000271874 6.96164e-05)
(-0.000408317 -0.000266882 5.41897e-05)
(-0.000388147 -0.000261576 3.95847e-05)
(-0.000367031 -0.000255823 2.43634e-05)
(-0.000355079 -0.000252415 8.00824e-06)
(-6.43232e-05 1.81034e-05 2.50923e-05)
(-9.38114e-05 1.17618e-07 -1.33014e-05)
(-5.19874e-05 3.35309e-06 5.70952e-06)
(-2.02653e-06 9.58153e-06 4.01867e-06)
(1.78558e-05 1.21091e-05 2.88583e-06)
(1.23227e-05 1.14411e-05 1.60953e-06)
(-1.1821e-05 -8.0466e-06 -8.09866e-06)
(-7.1783e-05 -5.37947e-05 -6.82776e-06)
(-0.000171486 -0.00011902 9.17066e-06)
(-0.000255387 -0.000163154 3.10094e-05)
(-0.000328389 -0.000195975 5.30434e-05)
(-0.000378906 -0.000215578 7.19549e-05)
(-0.000407823 -0.000226459 8.66066e-05)
(-0.000416802 -0.000232035 9.58279e-05)
(-0.000411876 -0.000235218 9.95228e-05)
(-0.000395578 -0.000235361 9.68809e-05)
(-0.000375062 -0.000232171 8.93781e-05)
(-0.000346201 -0.000224618 7.87037e-05)
(-0.000313572 -0.000216357 6.63949e-05)
(-0.00028589 -0.00020621 5.30901e-05)
(-0.000263903 -0.000198995 4.01958e-05)
(-0.000244571 -0.000191841 2.88294e-05)
(-0.000226495 -0.000186127 1.75812e-05)
(-0.000217319 -0.000183258 5.68489e-06)
(-5.58288e-05 1.64749e-05 1.9922e-05)
(-8.62347e-05 2.0351e-06 -1.11947e-05)
(-4.45793e-05 2.17729e-06 5.64849e-06)
(7.47958e-06 7.23197e-06 8.36719e-06)
(1.57049e-05 9.26996e-06 1.50776e-05)
(1.70172e-05 9.89722e-06 2.14975e-05)
(3.92955e-06 2.08277e-07 1.8506e-05)
(-1.79577e-05 -1.66881e-05 1.13643e-05)
(-8.58567e-05 -7.00135e-05 2.30069e-05)
(-0.000157812 -0.000116269 3.41111e-05)
(-0.000210776 -0.000143522 4.41899e-05)
(-0.000250066 -0.00016102 5.45922e-05)
(-0.00027493 -0.000172119 6.45686e-05)
(-0.000283452 -0.000178438 7.20534e-05)
(-0.000274881 -0.000179434 7.45681e-05)
(-0.000255901 -0.000177048 7.15094e-05)
(-0.000236295 -0.000172765 6.48185e-05)
(-0.000212216 -0.000165354 5.61668e-05)
(-0.000184534 -0.000156506 4.63596e-05)
(-0.000159941 -0.000144868 3.56839e-05)
(-0.000139023 -0.000135732 2.5428e-05)
(-0.000120391 -0.000125423 1.725e-05)
(-0.000100701 -0.000114502 9.63558e-06)
(-8.87152e-05 -0.000106999 2.76746e-06)
(-4.80946e-05 1.47703e-05 1.50917e-05)
(-7.93565e-05 4.24236e-06 -9.44059e-06)
(-4.1797e-05 4.5247e-06 7.01335e-06)
(-3.62955e-06 1.25495e-05 1.55119e-05)
(1.14654e-05 1.37636e-05 2.12722e-05)
(2.22251e-05 1.14716e-05 2.74795e-05)
(2.4252e-05 3.75437e-06 3.20222e-05)
(1.60463e-05 -8.23069e-06 3.5438e-05)
(-7.40163e-06 -2.37004e-05 2.78945e-05)
(-4.14615e-05 -5.03862e-05 2.86893e-05)
(-9.73195e-05 -9.05222e-05 3.55842e-05)
(-0.000139497 -0.000113903 3.96726e-05)
(-0.000162412 -0.000125146 4.41504e-05)
(-0.000165453 -0.000128024 4.75939e-05)
(-0.000155047 -0.000126918 4.85851e-05)
(-0.000134606 -0.000121694 4.45988e-05)
(-0.000110524 -0.000110785 3.64614e-05)
(-8.20848e-05 -9.31873e-05 2.65354e-05)
(-5.24465e-05 -7.30305e-05 1.68253e-05)
(-2.80608e-05 -4.87264e-05 8.13007e-06)
(-1.45719e-05 -3.54676e-05 3.13913e-06)
(-5.07964e-06 -2.065e-05 7.14344e-07)
(6.20281e-07 -2.62422e-05 -5.67862e-07)
(3.96859e-06 -1.74386e-05 -4.03359e-07)
(-3.37771e-05 1.45985e-05 1.24061e-05)
(-7.08282e-05 7.94805e-06 -1.18576e-05)
(-5.06654e-05 1.14553e-05 7.66474e-07)
(-2.80751e-05 2.70498e-05 1.29065e-05)
(-6.34685e-06 3.64315e-05 1.3789e-05)
(1.7026e-05 2.73511e-05 1.46058e-05)
(3.5164e-05 1.97171e-05 2.40442e-05)
(3.29565e-05 7.65803e-06 2.58848e-05)
(2.82473e-05 -6.40559e-07 2.73116e-05)
(1.51372e-05 -1.0992e-05 2.11989e-05)
(-1.22434e-06 -2.49567e-05 1.6521e-05)
(-1.45466e-05 -2.725e-05 9.19747e-06)
(-3.28136e-05 -4.38045e-05 1.08502e-05)
(-4.00371e-05 -5.13332e-05 1.19454e-05)
(-3.02265e-05 -4.51071e-05 9.97964e-06)
(-1.36627e-05 -3.1055e-05 4.61517e-06)
(-4.15518e-06 -2.38481e-05 3.74712e-07)
(3.5052e-06 -1.32202e-05 -3.12289e-06)
(9.86424e-06 -6.01191e-06 -5.88074e-06)
(1.61919e-05 -7.41177e-07 -8.44888e-06)
(2.25756e-05 5.60842e-06 -9.51537e-06)
(1.78844e-05 7.62942e-06 -5.42841e-06)
(2.0957e-05 1.22948e-05 -3.81255e-06)
(2.7008e-05 1.79908e-05 -1.61168e-06)
(-9.4345e-06 1.4581e-05 1.70832e-05)
(-5.00328e-05 1.22393e-05 -1.4141e-05)
(-5.35366e-05 1.43204e-05 -9.27621e-06)
(-4.74764e-05 2.94605e-05 -2.02423e-06)
(-2.36153e-05 4.67155e-05 -4.05614e-06)
(6.19546e-06 5.14492e-05 -9.78346e-06)
(3.08229e-05 3.90156e-05 -6.40525e-06)
(3.24186e-05 1.74336e-05 5.8094e-06)
(3.61155e-05 1.35533e-05 1.72781e-05)
(4.44912e-05 1.28815e-05 2.19613e-05)
(3.71935e-05 6.74801e-06 1.42548e-05)
(2.5089e-05 -1.03352e-06 3.47516e-06)
(1.22082e-05 -4.99209e-06 -3.90962e-06)
(9.76028e-06 -4.9415e-06 -7.94067e-06)
(1.23591e-05 -1.80801e-06 -1.08996e-05)
(1.66924e-05 3.03397e-06 -1.32853e-05)
(2.02509e-05 7.78817e-06 -1.46929e-05)
(2.66829e-05 1.45386e-05 -1.67295e-05)
(2.50363e-05 1.65371e-05 -1.2162e-05)
(2.31609e-05 1.61792e-05 -8.78653e-06)
(2.23103e-05 1.5852e-05 -6.33208e-06)
(3.4501e-05 2.39206e-05 -6.35236e-06)
(2.62329e-05 1.73038e-05 -2.90759e-06)
(2.34706e-05 1.4879e-05 -9.03878e-07)
(4.64037e-06 1.75593e-05 2.90767e-05)
(-2.63679e-05 1.89975e-05 -1.24406e-05)
(-4.22998e-05 1.65081e-05 -1.42671e-05)
(-5.09298e-05 2.76469e-05 -1.34561e-05)
(-3.57739e-05 4.29811e-05 -1.78077e-05)
(-5.12884e-06 4.77575e-05 -2.44667e-05)
(2.40522e-05 3.85708e-05 -2.55491e-05)
(4.0253e-05 2.18359e-05 -1.21103e-05)
(4.63648e-05 1.42767e-05 6.90712e-06)
(4.89035e-05 1.43553e-05 1.26218e-05)
(4.09193e-05 1.33937e-05 8.28371e-06)
(3.36072e-05 1.19242e-05 2.29927e-06)
(2.71613e-05 1.12156e-05 -3.5904e-06)
(2.37888e-05 1.18815e-05 -8.81072e-06)
(3.06349e-05 1.74755e-05 -1.56661e-05)
(3.26345e-05 1.94569e-05 -1.66621e-05)
(3.06527e-05 1.77498e-05 -1.39014e-05)
(2.3758e-05 1.244e-05 -9.35764e-06)
(2.43111e-05 1.04431e-05 -8.0495e-06)
(3.22214e-05 1.10471e-05 -9.2856e-06)
(3.81856e-05 1.14587e-05 -9.02066e-06)
(4.29217e-05 9.6825e-06 -6.90332e-06)
(4.6311e-05 8.32208e-06 -4.74803e-06)
(4.98212e-05 6.8594e-06 -1.8669e-06)
(1.58953e-06 2.12581e-05 3.63785e-05)
(-1.62379e-05 2.8292e-05 -8.46184e-06)
(-3.56504e-05 2.45376e-05 -1.59127e-05)
(-4.66332e-05 2.88076e-05 -1.81724e-05)
(-4.03246e-05 3.71317e-05 -2.33438e-05)
(-1.8129e-05 3.94242e-05 -3.03925e-05)
(7.80513e-06 2.86941e-05 -3.15726e-05)
(3.02964e-05 1.06991e-05 -1.78903e-05)
(4.87533e-05 3.34409e-06 9.14342e-07)
(6.76972e-05 5.7069e-06 9.31085e-06)
(7.73273e-05 1.12248e-05 7.15244e-06)
(6.79034e-05 1.29666e-05 -8.47225e-07)
(5.23361e-05 1.25931e-05 -7.56532e-06)
(4.00144e-05 1.12466e-05 -1.15825e-05)
(3.55981e-05 9.91096e-06 -1.36367e-05)
(3.81058e-05 8.91768e-06 -1.54685e-05)
(4.22417e-05 6.55024e-06 -1.64339e-05)
(4.74618e-05 3.27419e-06 -1.69977e-05)
(5.29025e-05 -1.2498e-06 -1.61614e-05)
(5.50961e-05 -4.37929e-06 -1.48154e-05)
(5.51413e-05 -6.72606e-06 -1.2316e-05)
(5.74982e-05 -9.19439e-06 -8.74572e-06)
(5.83516e-05 -1.06977e-05 -5.73066e-06)
(5.96485e-05 -1.18233e-05 -2.06652e-06)
(-2.64757e-06 1.90167e-05 3.15202e-05)
(-1.5453e-05 3.13368e-05 -4.31604e-06)
(-2.99883e-05 3.0442e-05 -1.37808e-05)
(-4.06588e-05 3.03104e-05 -1.83435e-05)
(-3.99858e-05 3.18701e-05 -2.34279e-05)
(-2.62257e-05 2.92901e-05 -2.91158e-05)
(-4.4456e-06 1.73924e-05 -2.84734e-05)
(1.90187e-05 2.97848e-06 -1.66919e-05)
(4.01713e-05 -4.30165e-06 -2.38489e-06)
(6.11938e-05 -3.71163e-06 4.35229e-06)
(7.72308e-05 1.14027e-06 1.99155e-06)
(7.94461e-05 3.06928e-06 -6.17407e-06)
(7.03805e-05 1.31243e-06 -1.33961e-05)
(6.09043e-05 -1.49859e-06 -1.80244e-05)
(5.58375e-05 -4.61233e-06 -2.01007e-05)
(5.47169e-05 -7.17926e-06 -2.05842e-05)
(5.60217e-05 -9.75053e-06 -2.01155e-05)
(5.78144e-05 -1.17694e-05 -1.90729e-05)
(6.04058e-05 -1.39006e-05 -1.72768e-05)
(6.08031e-05 -1.48163e-05 -1.58399e-05)
(6.05042e-05 -1.72702e-05 -1.31517e-05)
(6.22771e-05 -1.79923e-05 -9.41725e-06)
(6.20228e-05 -1.82034e-05 -6.15362e-06)
(6.28029e-05 -1.85084e-05 -2.17385e-06)
(-5.10685e-06 1.44543e-05 2.18858e-05)
(-1.7571e-05 2.78311e-05 -2.56605e-06)
(-2.77794e-05 2.98517e-05 -1.19843e-05)
(-3.60224e-05 2.87276e-05 -1.747e-05)
(-3.79679e-05 2.67348e-05 -2.27012e-05)
(-3.05947e-05 2.14221e-05 -2.7362e-05)
(-1.51723e-05 1.09963e-05 -2.6789e-05)
(3.4894e-06 -9.80468e-07 -1.89958e-05)
(1.59285e-05 -7.24965e-06 -6.29357e-06)
(2.82288e-05 -6.09154e-06 -1.6782e-07)
(5.29458e-05 -2.89672e-06 -6.60699e-07)
(6.81454e-05 -8.88509e-07 -7.93348e-06)
(6.88701e-05 -4.86689e-06 -1.53934e-05)
(6.40679e-05 -9.96588e-06 -1.95987e-05)
(5.96453e-05 -1.35439e-05 -2.0999e-05)
(5.72839e-05 -1.50573e-05 -2.09798e-05)
(5.66698e-05 -1.52715e-05 -2.00979e-05)
(5.55782e-05 -1.45069e-05 -1.84987e-05)
(5.53385e-05 -1.38013e-05 -1.64022e-05)
(5.22208e-05 -1.3036e-05 -1.42726e-05)
(5.25418e-05 -1.50319e-05 -1.17108e-05)
(5.3022e-05 -1.48407e-05 -8.39057e-06)
(5.19721e-05 -1.50545e-05 -5.41503e-06)
(5.24856e-05 -1.52888e-05 -1.88139e-06)
(-4.80526e-06 8.84203e-06 1.20799e-05)
(-1.6567e-05 1.92835e-05 -1.71099e-06)
(-2.56902e-05 2.38509e-05 -1.12848e-05)
(-3.20696e-05 2.36914e-05 -1.82911e-05)
(-3.4277e-05 2.05015e-05 -2.46123e-05)
(-3.01898e-05 1.37376e-05 -3.04701e-05)
(-1.99479e-05 1.78595e-06 -3.28134e-05)
(-5.52059e-06 -1.21125e-05 -2.64604e-05)
(8.77601e-06 -1.75045e-05 -1.18448e-05)
(2.16768e-05 -1.47315e-05 -3.89463e-06)
(3.06061e-05 -9.28696e-06 -1.9379e-06)
(3.36911e-05 -5.12493e-06 -4.08584e-06)
(4.31587e-05 -5.56435e-06 -9.6058e-06)
(4.97199e-05 -9.12884e-06 -1.55566e-05)
(4.93637e-05 -1.19389e-05 -1.79571e-05)
(4.61046e-05 -1.26562e-05 -1.7625e-05)
(4.26609e-05 -1.19695e-05 -1.59989e-05)
(3.93632e-05 -1.11228e-05 -1.39442e-05)
(3.83217e-05 -1.07772e-05 -1.21611e-05)
(3.89363e-05 -1.14803e-05 -1.12592e-05)
(4.21249e-05 -1.31497e-05 -9.7431e-06)
(4.46249e-05 -1.3524e-05 -7.4853e-06)
(4.61655e-05 -1.41576e-05 -5.07905e-06)
(4.73519e-05 -1.44971e-05 -1.78274e-06)
(-2.1981e-06 1.98607e-06 1.842e-06)
(-1.14922e-05 7.72356e-06 -1.09186e-06)
(-2.0943e-05 1.34262e-05 -8.76213e-06)
(-2.7115e-05 1.50955e-05 -1.71913e-05)
(-2.89658e-05 1.23136e-05 -2.47303e-05)
(-2.53946e-05 4.82302e-06 -3.06159e-05)
(-1.53805e-05 -7.18744e-06 -3.18424e-05)
(-9.10556e-07 -1.83728e-05 -2.31581e-05)
(1.25977e-05 -1.85135e-05 -1.04388e-05)
(2.45293e-05 -1.6508e-05 -6.60507e-06)
(3.81325e-05 -1.67336e-05 -6.3033e-06)
(4.25033e-05 -1.48406e-05 -7.0279e-06)
(4.03676e-05 -1.18734e-05 -9.06972e-06)
(3.81275e-05 -1.1173e-05 -1.17186e-05)
(3.71447e-05 -1.18099e-05 -1.36783e-05)
(3.61925e-05 -1.24009e-05 -1.42823e-05)
(3.62611e-05 -1.27242e-05 -1.40823e-05)
(3.76208e-05 -1.31588e-05 -1.36184e-05)
(3.95252e-05 -1.33507e-05 -1.27498e-05)
(3.97907e-05 -1.35109e-05 -1.16279e-05)
(4.11417e-05 -1.41329e-05 -9.70422e-06)
(4.18894e-05 -1.3829e-05 -7.32336e-06)
(4.21524e-05 -1.39062e-05 -4.86944e-06)
(4.27203e-05 -1.4057e-05 -1.6908e-06)
(3.67853e-07 -3.56434e-06 -7.04693e-06)
(-4.15638e-06 -2.75587e-06 -1.43091e-06)
(-1.17998e-05 5.80824e-07 -4.03272e-06)
(-1.87569e-05 3.26151e-06 -1.112e-05)
(-2.15472e-05 1.99347e-06 -1.86426e-05)
(-1.8704e-05 -3.82575e-06 -2.37716e-05)
(-1.01677e-05 -1.25688e-05 -2.32966e-05)
(2.76346e-06 -1.55835e-05 -1.32038e-05)
(1.5829e-05 -1.69358e-05 -1.03037e-05)
(2.37774e-05 -1.53887e-05 -8.29489e-06)
(2.78859e-05 -1.34229e-05 -5.84125e-06)
(2.99479e-05 -1.15089e-05 -5.57465e-06)