/*--------------------------------*- C++ -*----------------------------------*\
  =========                 |
  \\      /  F ield         | OpenFOAM: The Open Source CFD Toolbox
   \\    /   O peration     | Website:  https://openfoam.org
    \\  /    A nd           | Version:  6
     \\/     M anipulation  |
\*---------------------------------------------------------------------------*/
FoamFile
{
    version     2.0;
    format      ascii;
    class       volScalarField;
    location    "38";
    object      yPlus;
}
// * * * * * * * * * * * * * * * * * * * * * * * * * * * * * * * * * * * * * //

dimensions      [0 0 0 0 0 0 0];

internalField   uniform 0;

boundaryField
{
    inlet
    {
        type            calculated;
        value           uniform 0;
    }
    outlet
    {
        type            calculated;
        value           uniform 0;
    }
    roughCylinder
    {
        type            calculated;
        value           nonuniform List<scalar> 
5120
(
16.2241
21.251
35.0743
39.1158
42.4117
43.8322
44.7505
44.9452
45.0578
44.9881
45.0053
45.1415
45.1996
44.9097
44.6139
44.3914
43.9338
42.6203
42.1674
41.8451
42.1389
41.6868
41.8517
42.4284
43.1532
41.0996
42.0609
40.7383
40.0826
39.9049
39.3849
38.9898
7.548
20.7864
34.5272
38.791
42.1334
43.6188
44.5883
44.8583
45.0254
44.9775
45.0861
45.1886
45.1627
44.8585
44.5905
44.4101
43.9472
42.7671
42.4111
42.1574
42.4011
42.0816
42.1325
42.7909
43.6542
41.6476
42.6034
41.3241
40.6231
40.4527
39.9195
39.5228
9.00768
20.5364
34.1267
38.6141
41.9698
43.5368
44.5514
44.836
45.056
45.1589
45.2906
45.3341
45.2291
44.8888
44.6417
44.5076
44.0812
43.0734
42.8161
42.661
42.852
42.6025
42.4379
43.0619
43.9886
41.9872
42.9655
41.7937
41.1527
41.0838
40.6307
40.2897
9.98343
19.8946
33.4113
38.1921
41.647
43.3173
44.3719
44.7786
45.1623
45.2797
45.4378
45.4545
45.2663
44.9448
44.736
44.6249
44.2244
43.3337
43.1187
43.0659
43.25
43.1214
42.8721
43.5596
44.5611
42.6288
43.558
42.4243
41.7408
41.662
41.1968
40.8571
15.0083
19.3055
32.7711
37.8808
41.4077
43.1782
44.3532
44.8697
45.2561
45.505
45.7242
45.6729
45.4845
45.1579
44.9617
44.8811
44.5309
43.7698
43.6021
43.6512
43.8123
43.7011
43.2715
43.918
44.9296
43.0675
44.0028
43.0014
42.3997
42.3996
42.013
41.729
10.5034
18.2267
31.7438
37.244
40.9596
42.9505
44.2053
44.7912
45.3834
45.6932
45.8692
45.8346
45.5953
45.2988
45.1531
45.1048
44.7919
44.107
43.9726
44.1335
44.319
44.2825
43.8243
44.529
45.5299
43.7677
44.6089
43.6449
43.0113
42.9851
42.591
42.3124
16.1507
17.5464
30.7074
36.6205
40.5671
42.6871
44.0761
44.9074
45.5151
45.8537
46.1385
46.0745
45.8974
45.6501
45.5244
45.4948
45.2252
44.631
44.5308
44.7672
44.9379
44.8702
44.2734
44.9516
45.913
44.2769
45.1144
44.2977
43.7629
43.7953
43.4752
43.2485
8.90871
15.5119
29.1816
35.6153
39.8395
42.3353
43.9698
44.8148
45.5465
46.0391
46.2688
46.2569
46.0666
45.8364
45.7612
45.7774
45.5519
45.0197
44.9611
45.2928
45.495
45.48
44.9078
45.6397
46.5149
44.9996
45.7148
44.9332
44.3785
44.3763
44.0563
43.8395
11.8723
14.4288
27.4816
34.3655
39.0932
41.8478
43.5722
44.7539
45.6567
46.1001
46.4543
46.4673
46.3757
46.2484
46.2203
46.2506
46.0578
45.6006
45.5686
45.9369
46.1158
46.0551
45.3872
46.1032
46.9024
45.5514
46.2641
45.6332
45.1873
45.2262
44.9716
44.8002
11.9113
12.1133
25.1154
32.7375
37.8185
41.0945
43.3645
44.6489
45.5214
46.1964
46.5516
46.6431
46.5807
46.4529
46.4527
46.5298
46.3938
46.0087
46.0251
46.4625
46.67
46.6674
46.0754
46.8227
47.4762
46.2545
46.8305
46.2289
45.7758
45.7796
45.5331
45.3755
13.2022
8.90193
22.5561
30.3382
36.3281
40.1762
42.5174
44.1476
45.4718
46.1232
46.5964
46.764
46.8142
46.8348
46.9293
47.0286
46.915
46.5964
46.6274
47.0608
47.2373
47.1908
46.5523
47.2759
47.8383
46.8013
47.3843
46.9281
46.5887
46.6179
46.4278
46.3077
14.9726
12.2213
18.3952
27.661
34.0048
38.4875
41.8432
43.9146
45.079
46.0246
46.6112
46.885
47.011
47.0276
47.1143
47.2447
47.2024
46.97
47.0533
47.5297
47.7362
47.7598
47.2459
47.9641
48.3453
47.435
47.8751
47.4371
47.1018
47.1009
46.9243
46.8206
15.7671
10.0123
15.7743
23.2405
30.9794
36.7058
40.175
42.5788
44.6531
45.7277
46.4431
46.8532
47.0873
47.2737
47.514
47.7027
47.6795
47.5057
47.5913
48.026
48.1988
48.1746
47.6592
48.3271
48.6294
47.905
48.3649
48.0618
47.8404
47.8522
47.7257
47.6525
15.2038
6.19072
2.65894
18.2299
26.4648
32.6536
38.2245
41.8749
43.6816
45.2073
46.2601
46.8449
47.2225
47.4164
47.5986
47.7799
47.8403
47.7668
47.9119
48.37
48.5783
48.6325
48.2747
48.8967
49.0197
48.4035
48.7306
48.431
48.2267
48.2206
48.1096
48.0541
13.2029
2.80213
10.4333
9.45498
19.0524
29.1962
34.5054
38.5594
42.4618
44.4512
45.6952
46.5509
47.075
47.4493
47.8394
48.1361
48.2134
48.1806
48.3226
48.7195
48.8856
48.883
48.5543
49.1127
49.1976
48.7546
49.1154
48.9441
48.8491
48.8485
48.7858
48.7549
11.014
9.08789
10.6269
5.11779
7.47905
11.413
28.0854
36.4755
39.7266
42.8469
44.9905
46.1992
47.0147
47.505
47.8201
48.0554
48.2143
48.3004
48.514
48.9223
49.1301
49.2171
49.055
49.5299
49.4475
49.0824
49.3012
49.1059
49.0342
49.0153
48.967
48.9522
9.06769
5.71286
10.1117
3.35118
10.6607
11.2079
6.75804
23.2419
36.3918
40.8901
43.4991
45.3429
46.443
47.1591
47.782
48.2394
48.4513
48.5623
48.7676
49.0857
49.2191
49.2259
49.0757
49.4419
49.3846
49.1688
49.4427
49.3851
49.4237
49.4138
49.4156
49.4204
8.78541
9.71247
10.0249
6.14261
11.2886
3.9206
2.91072
14.779
22.0726
35.7679
41.4407
44.1157
45.8401
46.8959
47.4977
47.8588
48.1472
48.4153
48.7006
49.0198
49.2108
49.33
49.3416
49.5809
49.3873
49.1972
49.2799
49.1314
49.1522
49.0871
49.0852
49.0933
3.02716
6.64508
10.187
11.2209
8.19294
7.18163
7.07357
4.7854
12.2314
28.5047
37.1906
41.9646
44.3251
45.7477
46.8368
47.627
48.0927
48.3854
48.6586
48.8592
48.8904
48.852
48.7494
48.7682
48.6352
48.5186
48.6947
48.7244
48.8912
48.8512
48.9076
48.9333
6.29631
3.37403
5.08632
6.83963
9.36598
8.3707
9.97265
6.89625
5.52237
11.0419
32.3315
38.4623
42.4001
44.645
45.819
46.459
46.9699
47.4929
47.8598
48.0423
48.1731
48.3034
48.3557
48.2058
47.9639
47.7832
47.5381
47.246
47.2102
46.9673
46.9405
46.9099
7.96007
6.59501
5.24725
4.52168
16.0745
16.2473
9.8307
7.86152
7.36834
14.812
22.1241
33.5983
38.3732
41.3398
43.5764
45.1676
46.1861
46.7205
47.0469
47.0504
46.7597
46.4158
45.9623
45.1784
44.8852
44.5151
44.5516
44.6004
44.824
44.6664
44.7028
44.6967
10.0801
9.03322
5.68982
10.8307
14.6431
22.3909
25.3362
18.891
7.59918
9.04803
15.2185
16.58
31.9938
37.9658
40.3506
41.5466
42.3923
43.4029
43.837
43.6765
43.6169
43.6978
43.4797
42.5427
42.0698
41.4034
39.3766
37.6471
36.15
34.1765
33.0433
32.135
6.48878
7.989
10.9484
11.8045
13.38
17.0993
19.3751
22.1579
19.9133
13.4343
14.3024
14.3615
13.7718
19.06
30.5534
36.2721
39.6275
40.4746
40.6699
40.1339
38.3008
35.5117
31.714
25.3917
20.2122
10.284
11.1109
5.65189
20.6941
10.7213
16.8334
7.91758
7.68707
16.4531
18.9925
20.6074
21.8997
23.0247
24.039
23.2764
20.8242
12.5595
12.8932
14.8282
8.58304
9.40237
6.79962
5.05428
4.61936
15.6517
16.2638
9.49318
19.7899
6.02289
16.0403
18.6872
17.7211
7.96615
8.79015
10.3005
12.3812
3.78681
4.17559
11.2877
9.81166
19.6838
23.6141
26.3473
27.9777
28.6893
28.4831
27.1819
23.9433
19.2234
11.92
10.372
9.05755
5.78056
15.7478
15.2802
10.1115
4.62577
4.63449
12.4169
6.91589
13.8692
8.24053
9.8802
12.1967
16.3611
14.051
15.9955
18.3572
19.7572
20.5602
20.8613
9.25709
19.3761
23.557
26.638
28.6137
29.4428
29.0697
27.5028
25.153
23.1802
23.3577
23.5861
23.4547
22.3491
19.7914
16.0044
11.5812
11.1642
18.4619
15.7414
15.6444
15.6349
19.8247
24.1313
27.2795
28.5054
29.7189
30.0702
29.7307
29.1826
28.6442
28.2028
8.38922
18.3546
22.4893
25.5181
27.4671
28.2853
27.9102
26.4285
24.3308
22.7659
22.8269
24.1862
25.3981
26.3867
27.7005
28.7654
28.8079
27.8176
28.2835
27.9124
28.7422
30.6687
31.5751
32.0298
31.9405
32.15
31.9377
31.2925
30.7151
29.9884
29.1687
28.6029
7.67191
17.3162
21.2902
24.1705
26.0125
26.7723
26.3639
24.7429
21.9382
18.6543
17.7698
19.5062
21.9255
24.7411
27.1059
28.8065
29.5867
30.1163
30.2171
30.9522
31.842
32.333
33.1207
33.8165
33.9467
33.9996
33.3712
32.4116
31.1508
29.469
27.7519
26.5721
7.06899
16.3806
20.2044
22.9551
24.7014
25.3924
24.8913
23.0006
19.5389
14.855
12.2303
11.7617
12.1098
16.7211
23.0828
27.9715
30.5519
31.6374
32.3595
32.8951
33.3976
33.8478
34.0512
33.7086
32.8497
32.2611
31.2643
29.8086
28.044
26.0742
24.0041
22.6133
6.74621
15.8642
19.5929
22.2547
23.9437
24.6394
24.2814
22.9078
21.0213
20.0982
20.7094
21.2092
20.8001
19.3166
19.0333
22.5131
26.232
28.774
30.2374
31.0325
31.4351
31.5824
31.6223
31.4526
31.0598
30.7442
30.0686
29.0406
27.6882
26.1033
24.6492
23.7912
6.5263
15.4949
19.1278
21.6977
23.3391
24.0872
23.9881
23.2466
22.3297
21.6221
20.7199
19.6407
19.1209
20.7415
23.767
25.6727
27.0434
28.3668
29.4473
30.1988
30.6553
30.9283
31.1126
30.85
30.2273
29.6512
28.7605
27.5789
26.1531
24.7262
23.5509
22.7304
6.18255
14.9167
18.431
20.9244
22.5775
23.4697
23.6847
23.3803
22.7634
21.9696
21.1964
20.3028
18.9068
17.2677
18.7927
23.2066
26.4306
28.2289
29.1486
29.5052
29.5056
29.2803
28.9013
28.3747
27.8961
27.554
26.9657
26.0724
24.9365
23.7673
22.778
22.1059
5.59315
14.2321
17.712
20.2218
22.043
23.2458
23.8933
24.0827
23.9539
23.6509
23.136
22.3036
21.2991
20.9139
21.2764
22.3477
24.2294
25.8682
26.8913
27.3783
27.5073
27.4738
27.4006
27.2726
27.1129
26.9395
26.5293
25.8385
24.9196
23.9534
23.1663
22.5944
5.21419
13.7099
17.2536
19.9203
22.0002
23.5324
24.5507
25.1076
25.2621
24.9985
24.1766
22.6448
20.47
18.607
19.6565
22.1714
24.0222
25.3319
26.1932
26.6439
26.8136
26.8322
26.7869
26.6652
26.5075
26.3805
26.0762
25.5347
24.7983
23.9923
23.3048
22.7957
5.10209
13.4314
17.054
19.8939
22.1803
23.9306
25.1628
25.9043
26.1648
25.8693
24.8991
23.3068
21.3544
19.5328
18.9
20.5673
22.7392
24.2625
25.1891
25.6909
25.9209
26.0222
26.0683
26.0435
25.9586
25.8661
25.6364
25.2205
24.6312
23.9579
23.4005
22.9883
5.08186
13.259
16.9416
19.9143
22.3433
24.2421
25.6356
26.5481
26.9504
26.7045
25.6899
23.9779
21.7184
19.7162
19.4655
20.5237
21.9066
23.1676
24.0921
24.7089
25.1264
25.429
25.6342
25.6905
25.5895
25.4308
25.1781
24.8224
24.361
23.8269
23.3969
23.0761
4.95214
12.9728
16.6438
19.687
22.2609
24.3646
26.0122
27.1764
27.7183
27.4186
26.2286
24.3126
21.8895
19.502
18.68
19.7553
21.094
22.193
23.1047
23.8755
24.5421
25.1021
25.4936
25.6316
25.4915
25.1846
24.803
24.4242
24.0436
23.6393
23.3476
23.1334
4.92655
13.0392
16.6235
19.663
22.401
24.7677
26.6804
27.9775
28.4134
27.8472
26.4091
24.2975
21.6872
19.2439
18.244
18.9341
20.0868
21.1567
22.2132
23.3064
24.375
25.2962
25.9287
26.1511
25.9198
25.3628
24.7117
24.1876
23.8229
23.5244
23.37
23.2663
4.93118
13.5283
17.2375
20.3771
23.2938
25.7877
27.6562
28.67
28.6793
27.7678
26.1369
23.9061
21.2235
18.7241
17.7392
18.3009
19.2355
20.3474
21.7689
23.3795
24.939
26.228
27.0728
27.3424
26.9809
26.1005
25.0365
24.2027
23.7543
23.5294
23.5132
23.5255
4.71975
13.8767
17.9955
21.3488
24.3138
26.61
28.0482
28.5409
28.1738
27.1038
25.4043
23.1134
20.3337
17.744
16.7929
17.3411
18.3755
19.9718
22.0958
24.3478
26.3791
27.9722
28.9766
29.2708
28.7831
27.582
26.0332
24.7296
24.0579
23.8543
23.9753
24.1046
2.9923
2.71503
2.52737
2.44472
2.40813
2.42482
2.66758
3.33174
4.07105
4.96553
6.4922
8.26719
10.2342
11.4017
11.8837
11.4239
11.8037
11.4069
11.7482
9.81467
6.10029
2.06666
1.6816
1.25989
1.63551
1.66623
4.05395
5.98504
6.2279
5.76043
5.27254
4.90933
4.82007
4.22426
3.52874
3.03733
2.89256
3.39149
4.44785
4.65777
8.3798
8.02785
7.80989
7.85351
8.12195
8.56569
9.50969
11.0707
11.7929
12.4404
13.9908
15.0151
15.8982
16.4682
16.7612
16.7613
16.4209
15.6316
14.3094
12.383
10.0939
6.05806
6.44269
1.01113
3.73831
3.80552
5.58598
9.91411
10.6828
11.3842
11.7503
12.1135
12.7458
12.2737
11.7706
11.52
11.6846
12.4726
14.0661
14.0449
10.3625
9.86518
9.46566
9.25235
9.17205
9.21197
10.2173
12.0837
13.9149
15.5606
16.9361
18.0658
19.0227
19.7812
20.3346
20.6709
20.7599
20.5725
20.0568
19.1589
17.835
16.1258
13.9003
11.7061
8.15431
7.7452
6.15406
6.83437
6.22949
9.55134
12.5177
13.8482
15.2391
15.4451
15.4775
15.7264
16.2906
17.3646
18.8627
18.6411
11.8726
11.2866
10.6858
10.183
9.7807
9.82064
11.5868
14.037
16.4447
18.1278
19.5785
20.8713
21.9649
22.8825
23.6024
24.1246
24.4333
24.5153
24.3511
23.9215
23.1944
22.2282
21.07
19.6143
17.7482
15.0918
11.8026
7.13476
5.3009
2.9404
9.87878
13.3981
15.8685
17.1761
17.5345
18.1531
19.0419
20.2701
21.9507
22.0442
13.3395
12.3284
11.5317
10.8905
10.3399
10.8549
13.2789
16.4939
18.6776
20.3621
21.9255
23.2765
24.4453
25.4303
26.2281
26.8371
27.2504
27.4581
27.4468
27.2005
26.6811
25.9593
25.0932
24.1091
22.9638
21.6042
19.8914
17.635
14.2953
11.518
7.88135
7.73049
14.6901
17.8042
18.7405
19.5997
20.7129
22.0814
23.9821
24.6263
14.7708
13.3448
12.0926
11.4088
11.0023
12.2635
15.6866
18.6591
20.5716
22.3658
23.9404
25.3201
26.5223
27.5415
28.3851
29.0506
29.5358
29.8328
29.9306
29.8139
29.441
28.8564
28.0726
27.1811
26.1384
24.9531
23.5976
21.9975
20.0057
17.0942
12.7771
6.57235
8.43275
16.617
19.203
20.29
21.6159
23.1265
25.178
26.361
16.0324
14.193
12.5378
11.6203
11.8022
14.3719
18.1022
20.4225
22.3686
24.1578
25.7145
27.1024
28.3095
29.3463
30.215
30.918
31.4528
31.8127
31.9858
31.9555
31.6785
31.2012
30.4991
29.681
28.7254
27.6406
26.409
24.9847
23.3195
21.334
18.7238
14.7308
9.24504
10.3301
18.4878
20.3362
21.8554
23.5663
25.6986
27.2594
16.9742
14.7282
12.6844
11.7393
13.2708
17.0989
20.0265
22.1121
24.0712
25.7831
27.3175
28.6823
29.8823
30.9221
31.8056
32.5348
33.1073
33.5148
33.7432
33.7739
33.5545
33.1264
32.4921
31.7284
30.842
29.8455
28.7343
27.4698
25.9724
24.147
21.9066
19.0754
14.8406
10.3135
13.6088
19.4374
21.5461
23.421
25.6358
27.4206
17.4301
14.7875
12.5306
12.5672
15.9885
19.436
21.7461
23.8097
25.6567
27.2938
28.7737
30.1001
31.28
32.3144
33.2064
33.9554
34.5574
35.005
35.2772
35.3421
35.144
34.7127
34.162
33.4423
32.6019
31.6485
30.6035
29.4568
28.141
26.5397
24.5509
22.061
18.714
13.3904
8.00801
15.5271
20.7261
22.6605
24.9879
26.9407
17.2308
14.3077
12.7021
14.9726
18.7601
21.364
23.4981
25.4509
27.1599
28.7036
30.1036
31.3761
32.5228
33.544
34.4387
35.2019
35.8256
36.3029
36.597
36.6664
36.4351
36.0595
35.5546
34.8873
34.0819
33.1614
32.1551
31.0779
29.8923
28.4836
26.7153
24.532
21.7308
17.8499
11.8642
9.27392
17.7025
21.369
23.7317
25.8303
16.239
13.6654
14.4624
18.1111
21.0229
23.2374
25.2602
27.0324
28.6041
30.024
31.3238
32.521
33.6179
34.612
35.4972
36.2645
36.9044
37.3923
37.6872
37.7269
37.4647
37.166
36.7006
36.0775
35.3141
34.4294
33.4563
32.4238
31.324
30.0663
28.4903
26.5172
24.0635
20.8237
16.2442
10.1184
11.7112
18.7314
21.8536
24.0837
14.8456
14.6856
17.7414
20.7634
23.0837
25.1542
26.9881
28.5866
30.0031
31.2794
32.4554
33.5514
34.5738
35.5185
36.3737
37.1239
37.7589
38.2368
38.4972
38.4414
38.3111
37.9992
37.5874
37.0063
36.2926
35.4563
34.5291
33.5436
32.509
31.3602
29.9428
28.1342
25.9109
23.0735
19.2366
13.8601
9.1021
14.0185
19.0122
21.6987
15.4938
17.8392
20.7
23.0606
25.166
27.0604
28.7071
30.1388
31.3921
32.5136
33.5434
34.5082
35.4197
36.277
37.0673
37.7709
38.3744
38.8316
39.0688
38.9615
38.8558
38.5646
38.1848
37.6546
36.9999
36.2295
35.3708
34.4543
33.4922
32.4332
31.1325
29.4563
27.4092
24.8369
21.4602
16.8579
11.2467
10.8465
15.2599
18.7789
18.5174
20.9176
23.2253
25.3069
27.2445
28.962
30.4517
31.7305
32.8346
33.8044
34.6799
35.4917
36.2583
36.9849
37.6632
38.2745
38.8017
39.2024
39.4068
39.3022
39.1512
38.8712
38.5171
38.0397
37.4551
36.7694
36.0047
35.1852
34.3163
33.3438
32.1283
30.5593
28.6677
26.3121
23.2685
19.2129
14.0756
11.3207
12.9545
16.2996
21.579
23.5637
25.6109
27.5239
29.3098
30.8922
32.2617
33.4255
34.4152
35.263
36.004
36.6677
37.2774
37.8455
38.3721
38.8459
39.2527
39.5604
39.7159
39.6369
39.3662
39.0836
38.7311
38.3
37.7867
37.1957
36.5407
35.835
35.0697
34.1774
33.0136
31.5488
29.8119
27.6687
24.9397
21.3862
16.8971
13.0809
13.305
15.6826
24.2288
25.9944
27.909
29.7002
31.3854
32.883
34.1852
35.288
36.2183
36.9994
37.6584
38.2201
38.7074
39.1359
39.5131
39.8374
40.1035
40.2925
40.3682
40.2676
39.8742
39.5473
39.1612
38.7476
38.2821
37.7678
37.207
36.5989
35.9155
35.0716
33.9328
32.581
31.0007
29.0755
26.6706
23.6391
19.9039
16.2921
15.0284
16.4189
26.6028
28.267
30.1176
31.8478
33.491
34.9603
36.2522
37.354
38.2859
39.0647
39.7104
40.2425
40.6795
41.0357
41.3204
41.5375
41.6872
41.7572
41.7198
41.5253
41.1055
40.6564
40.2111
39.765
39.2982
38.8082
38.2878
37.7224
37.0658
36.2151
35.0968
33.8389
32.3975
30.6756
28.5752
26.024
22.9949
19.886
17.8196
17.9779
28.7537
30.3918
32.2422
33.9725
35.6299
37.1233
38.4539
39.6049
40.5881
41.4164
42.1068
42.6736
43.1314
43.4915
43.7618
43.9474
44.0457
44.0449
43.9223
43.643
43.1552
42.5951
42.0678
41.5511
41.0339
40.5107
39.969
39.3835
38.6913
37.7702
36.6579
35.4448
34.0953
32.531
30.6744
28.4948
25.9929
23.3996
21.1782
20.4307
30.7031
32.3741
34.2766
36.0563
37.7722
39.3287
40.7307
41.9591
43.0236
43.931
44.6977
45.3358
45.8577
46.2744
46.5921
46.809
46.9172
46.9024
46.7392
46.3879
45.785
45.1718
44.5663
43.9717
43.3845
42.8012
42.2072
41.5644
40.7879
39.7637
38.6074
37.3766
36.0549
34.5837
32.8917
30.9609
28.7957
26.5685
24.4401
23.2758
32.4548
34.1963
36.1834
38.0424
39.8424
41.4829
42.9714
44.2869
45.4395
46.4348
47.2869
48.0078
48.6135
49.1136
49.5084
49.7899
49.9418
49.9381
49.7399
49.2956
48.6165
47.9803
47.3251
46.6684
46.0197
45.3817
44.7398
44.0368
43.1515
42.0067
40.7645
39.4678
38.1168
36.6742
35.0726
33.2892
31.3198
29.3126
27.2955
25.9783
33.9765
35.8013
37.8834
39.8311
41.7217
43.45
45.0257
46.4261
47.6624
48.739
49.6716
50.4756
51.1682
51.7546
52.2294
52.5774
52.772
52.7718
52.5158
51.8958
51.2906
50.6412
49.9603
49.2644
48.574
47.902
47.2321
46.4793
45.4618
44.2055
42.8641
41.4803
40.0668
38.6039
37.0332
35.3247
33.4602
31.5757
29.6364
28.2688
35.1965
37.0965
39.2656
41.2948
43.2692
45.0784
46.7335
48.2103
49.5203
50.668
51.6695
52.546
53.3123
53.9701
54.5096
54.9084
55.1272
55.0983
54.7008
54.1251
53.5302
52.8833
52.1916
51.4785
50.772
50.0921
49.4111
48.5959
47.4288
46.0762
44.6437
43.1763
41.6928
40.1849
38.6033
36.917
35.0987
33.2763
31.384
30.0059
36.0265
37.9811
40.2182
42.3151
44.3616
46.2417
47.9664
49.5094
50.8826
52.0896
53.1469
54.078
54.8967
55.6024
56.1832
56.6125
56.8456
56.8046
56.3387
55.7924
55.1978
54.5501
53.8597
53.1542
52.4643
51.802
51.0972
50.1265
48.8345
47.4057
45.902
44.3675
42.8226
41.2621
39.6419
37.9353
36.1176
34.3144
32.4469
31.0765
36.4008
38.3866
40.6699
42.8198
44.9266
46.8685
48.655
50.2573
51.6857
52.9427
54.0439
55.0115
55.8598
56.5886
57.1855
57.6249
57.8647
57.8369
57.4302
56.85
56.2512
55.6078
54.9387
54.2713
53.6228
52.9552
52.1085
50.9238
49.5678
48.0822
46.5252
44.9386
43.3394
41.7176
40.0295
38.2598
36.4002
34.5791
32.7195
31.3707
36.2904
38.2901
40.6042
42.7985
44.9573
46.9559
48.7994
50.4567
51.9353
53.2359
54.3725
55.3625
56.2215
56.9509
57.5399
57.9674
58.2034
58.2102
57.9467
57.3613
56.7632
56.1415
55.5133
54.8845
54.2126
53.3609
52.2806
51.0435
49.6263
48.0857
46.4776
44.8368
43.1697
41.4536
39.6499
37.768
35.8268
33.9569
32.1014
30.8014
35.6735
37.6836
40.0238
42.2625
44.473
46.5293
48.4302
50.1427
51.6708
53.0141
54.1837
55.1895
56.0493
56.7664
57.3322
57.73
57.9393
57.9416
57.7355
57.3658
56.8631
56.2365
55.577
54.816
53.9472
52.9779
51.8591
50.5376
49.041
47.4316
45.7555
44.0316
42.2464
40.3704
38.3936
36.3585
34.3103
32.3828
30.5654
29.3848
34.644
36.6612
39.0215
41.3013
43.5612
45.6749
47.6344
49.4047
50.9862
52.377
53.5834
54.6114
55.478
56.1879
56.7345
57.104
57.2792
57.2468
57.0119
56.6196
56.121
55.5257
54.8404
54.0648
53.184
52.1574
50.9305
49.4942
47.9035
46.2066
44.4297
42.568
40.5972
38.5111
36.3404
34.1493
32.0093
30.069
28.3872
27.4523
33.3927
35.4248
37.8056
40.125
42.4301
44.5966
46.6096
48.4334
50.065
51.5005
52.7432
53.7975
54.6765
55.3868
55.925
56.28
56.4384
56.3911
56.1446
55.7359
55.2302
54.6342
53.9441
53.1444
52.2022
51.07
49.716
48.1756
46.4936
44.698
42.792
40.7592
38.5932
36.3213
33.9974
31.7015
29.5396
27.6853
26.2668
25.6829
32.3117
34.3635
36.7588
39.104
41.436
43.6345
45.6809
47.539
49.2036
50.6695
51.9386
53.0143
53.9067
54.6238
55.1644
55.5204
55.6813
55.641
55.4047
55.0013
54.495
53.8936
53.1838
52.3396
51.322
50.0918
48.6521
47.0442
45.2994
43.4293
41.4256
39.2788
37.004
34.6444
32.2647
29.9608
27.8651
26.1666
25.0193
24.7066
31.7307
33.7992
36.1961
38.5437
40.8753
43.0763
45.127
46.9924
48.6659
50.1418
51.4209
52.5058
53.4066
54.131
54.6784
55.0418
55.2131
55.1871
54.9681
54.5794
54.0766
53.4702
52.742
51.8621
50.7937
49.5112
48.0393
46.413
44.6559
42.7722
40.7513
38.5904
36.3126
33.9649
31.6163
29.3673
27.3541
25.7573
24.7212
24.4612
31.6032
33.6762
36.0613
38.3909
40.7009
42.8815
44.9139
46.7645
48.4263
49.8932
51.1656
52.245
53.1426
53.8653
54.4119
54.7759
54.95
54.9299
54.7196
54.3401
53.8403
53.2311
52.4921
51.5927
50.5006
49.2042
47.7355
46.1267
44.3978
42.5512
40.5759
38.47
36.2569
33.9831
31.7152
29.5483
27.6077
26.0537
25.0134
24.6818
31.7042
33.7765
36.1479
38.4557
40.7394
42.8924
44.8982
46.7242
48.3635
49.8101
51.0638
52.1262
53.0088
53.7174
54.2494
54.5985
54.7581
54.725
54.5043
54.1178
53.6122
52.9935
52.2394
51.3192
50.2046
48.8966
47.4302
45.8361
44.1324
42.3204
40.39
38.3392
36.1918
33.9924
31.8048
29.7178
27.8454
26.3309
25.2873
24.8968
9.45734
25.606
36.8326
40.5418
43.6415
44.9891
45.9226
46.1791
46.3515
46.3391
46.4385
46.4087
46.2433
45.9708
45.6813
45.605
44.9981
45.0294
43.9329
43.8275
43.589
43.1366
43.6311
44.9455
43.7641
43.3237
43.3665
42.0096
41.8099
41.4565
40.9605
40.6654
8.03239
25.6317
36.5611
40.4019
43.5084
44.9363
45.8799
46.1235
46.3159
46.3845
46.5216
46.5237
46.4379
46.1655
45.9082
45.8344
45.2824
45.3772
44.3092
44.2974
44.0562
43.7704
44.2758
45.2573
44.1332
43.6156
43.692
42.3877
42.1495
41.8545
41.4365
41.2066
14.5077
25.4384
36.324
40.3217
43.4154
44.8671
45.8282
46.1577
46.4483
46.5718
46.7094
46.577
46.3565
46.1386
46.0378
46.0188
45.4866
45.5702
44.4756
44.513
44.2197
44.089
44.7172
45.5968
44.564
44.1738
44.3407
43.2042
42.9419
42.6737
42.2642
42.0244
13.6583
25.3523
36.0368
40.2099
43.342
44.887
45.8695
46.1997
46.5169
46.7144
46.8826
46.8515
46.7117
46.496
46.3672
46.3271
45.8891
45.9573
44.9362
45.0457
44.8044
44.8478
45.4667
46.104
45.0481
44.6149
44.7735
43.7021
43.3798
43.1578
42.8025
42.6167
12.1771
25.2559
35.6822
40.0531
43.2249
44.8249
45.8597
46.3124
46.7321
46.9673
47.1462
46.9969
46.7952
46.6506
46.6739
46.6922
46.2933
46.2718
45.2753
45.3935
45.1142
45.2592
45.8902
46.4939
45.4736
45.1771
45.4419
44.548
44.2331
44.0544
43.7145
43.5262
9.88778
24.8661
35.2862
39.8883
43.1437
44.8531
45.9295
46.4039
46.8618
47.1725
47.3848
47.4031
47.275
47.1275
47.0789
47.0656
46.746
46.6714
45.7967
45.9774
45.7874
46.0907
46.6646
47.1241
46.0416
45.7231
45.983
45.1382
44.7595
44.6064
44.3004
44.1531
11.4413
24.5113
34.737
39.5383
42.8964
44.7257
45.9239
46.5643
47.1198
47.4544
47.6995
47.6048
47.4819
47.4227
47.5255
47.5681
47.2722
47.0826
46.2856
46.4603
46.224
46.576
47.0515
47.5218
46.4499
46.2477
46.6565
45.97
45.6368
45.5361
45.2569
45.1133
10.5924
23.8018
34.1252
39.2221
42.7445
44.729
45.9899
46.6686
47.2835
47.7084
47.9889
48.094
48.0302
47.9559
47.9473
47.9421
47.687
47.4667
46.8291
47.0563
46.9192
47.4194
47.8065
48.2186
47.0805
46.874
47.2962
46.6267
46.2351
46.136
45.8755
45.7596
18.3469
23.6576
33.3419
38.636
42.3214
44.4989
45.9616
46.8532
47.5569
47.9907
48.3123
48.3153
48.3014
48.3296
48.4713
48.507
48.2607
47.957
47.4287
47.6411
47.4463
47.949
48.1738
48.6161
47.4836
47.367
47.9614
47.4238
47.1134
47.0736
46.8535
46.7469
22.8296
23.6063
32.5391
38.0704
42.0014
44.4123
45.9729
46.9164
47.7102
48.2575
48.6307
48.83
48.8522
48.8418
48.8436
48.8222
48.5969
48.317
47.9555
48.2043
48.1148
48.7531
48.9019
49.3483
48.1761
48.08
48.6798
48.1306
47.766
47.7008
47.4865
47.3949
27.9544
23.4847
31.5282
37.2177
41.374
44.0429
45.8763
47.0736
47.9461
48.4985
48.9005
49.0246
49.1293
49.2327
49.3849
49.3974
49.1866
48.8808
48.6245
48.8518
48.7103
49.3006
49.2804
49.7442
48.5892
48.5581
49.3021
48.8652
48.6096
48.6128
48.4521
48.3753
33.4953
24.4016
30.5847
36.3096
40.7316
43.7203
45.7176
47.0036
48.0232
48.7136
49.2109
49.5075
49.6185
49.6616
49.6632
49.6288
49.4452
49.2112
49.097
49.3468
49.3163
50.0172
49.9729
50.4731
49.3322
49.3466
50.0544
49.5919
49.2819
49.2306
49.0651
48.9923
38.16
25.2982
29.5342
35.174
39.8245
43.1319
45.4728
47.0533
48.1363
48.856
49.3563
49.6217
49.8538
50.0311
50.1929
50.1941
50.0402
49.8282
49.7908
50.0194
49.9526
50.5538
50.3704
50.8453
49.7442
49.7981
50.5838
50.2257
50.0436
50.075
49.975
49.924
42.7226
26.8626
28.6674
33.8749
38.6588
42.3447
44.9476
46.7082
48.0598
48.9422
49.6082
50.0158
50.2211
50.3252
50.3468
50.337
50.2317
50.109
50.1716
50.4153
50.4544
51.135
50.9984
51.5187
50.5014
50.6187
51.313
50.9275
50.6872
50.6305
50.5155
50.4582
47.4917
28.7731
27.8961
32.4833
37.3821
41.3845
44.4122
46.5248
47.9204
48.9114
49.5576
49.9915
50.3685
50.6413
50.8455
50.8718
50.8082
50.7334
50.8443
51.0743
51.09
51.6303
51.3879
51.8166
50.857
50.9805
51.6766
51.3919
51.2913
51.3426
51.304
51.2799
51.9973
31.411
27.5391
30.8491
35.473
39.7876
43.2049
45.6758
47.578
48.7702
49.6982
50.2503
50.5627
50.7412
50.8207
50.8965
50.9059
50.9134
51.0821
51.3191
51.4149
52.0054
51.8762
52.3672
51.553
51.7603
52.3451
52.0425
51.883
51.8104
51.7455
51.7032
55.4994
34.2431
27.5404
29.371
33.8199
38.3002
42.1409
45.025
46.9364
48.4235
49.347
50.0434
50.6072
51.009
51.29
51.3679
51.4089
51.4665
51.6752
51.9235
52.0153
52.4608
52.2434
52.5696
51.8098
51.9811
52.5067
52.2958
52.281
52.3547
52.376
52.3816
57.0852
36.9249
28.0539
27.6045
30.92
35.3269
39.6757
43.2402
46.1176
47.8513
49.2575
50.0748
50.5646
50.8704
51.0579
51.2645
51.4022
51.5305
51.7634
52.0012
52.1278
52.592
52.5332
52.9452
52.391
52.6716
53.0643
52.8488
52.7687
52.6685
52.641
52.6064
57.138
38.888
28.8117
26.3126
29.0851
33.3624
37.7611
41.6509
44.4208
46.8828
48.3527
49.5507
50.4499
51.0629
51.4741
51.64
51.8029
51.9792
52.2518
52.5111
52.6489
52.9731
52.8099
52.9461
52.4201
52.596
52.8816
52.7349
52.7965
52.9051
52.9803
53.023
55.7802
40.0117
29.5668
24.5378
24.634
27.4628
32.6285
37.9179
42.6846
45.3998
47.7569
49.076
49.9275
50.488
50.8814
51.2914
51.5796
51.8139
52.0744
52.2873
52.3962
52.6925
52.7017
52.9976
52.7449
53.0881
53.232
53.1084
53.09
52.918
52.8751
52.8141
53.7307
40.3363
30.1805
23.3522
22.6513
25.954
29.4311
34.2104
38.3766
43.1148
45.72
47.9437
49.4749
50.4889
51.1457
51.4445
51.7399
52.0197
52.3342
52.5822
52.7354
52.9142
52.7684
52.5781
52.252
52.3165
52.2648
52.1069
52.1783
52.3239
52.434
52.5226
50.9131
39.883
30.2562
21.245
15.6458
5.69627
13.0169
24.0389
34.6529
39.3546
43.9843
46.3034
47.8701
48.9345
49.7338
50.4919
50.9897
51.3311
51.5774
51.6971
51.6988
51.7134
51.6555
51.7699
51.8324
52.1959
52.0214
51.9645
51.9314
51.5598
51.3303
51.1324
47.7811
39.0278
30.1827
19.4483
5.43471
7.22492
12.4681
7.9595
18.0725
33.7736
39.3298
43.961
46.7595
48.4773
49.5112
49.9905
50.4322
50.8059
51.1402
51.3269
51.4456
51.4146
51.1541
50.3066
49.9706
49.5347
48.8698
48.3745
48.1305
48.2458
48.4005
48.5191
43.848
37.6775
29.5658
17.0202
13.1664
11.7018
12.0168
7.21453
11.5054
23.1043
34.9656
39.3915
42.2667
44.389
46.036
47.4666
48.3267
48.8089
48.9207
48.7401
48.3919
47.736
47.102
46.768
47.2086
47.461
46.7795
46.662
46.2992
45.0857
43.2841
42.4297
39.3795
36.1951
29.5495
16.5186
5.24395
6.83236
13.0741
7.72422
13.7661
9.53013
25.641
34.5776
40.1077
42.8476
44.3715
44.9962
45.5502
45.9389
46.2652
46.2722
46.2307
45.7889
45.1239
42.1771
40.0052
36.1267
32.3745
26.6742
18.8741
12.8069
19.4347
11.9608
31.9448
34.0334
28.624
15.9215
4.11605
13.2482
9.90236
14.2106
8.67008
1.64228
15.037
5.84198
11.8684
24.1193
31.2626
35.9406
38.4104
39.4382
38.4905
36.5239
33.9414
29.2329
21.3549
8.70818
5.0805
9.08703
20.2664
19.9634
2.95949
17.1226
10.1881
18.7566
18.3259
30.4891
28.983
16.9341
6.67616
10.716
6.25979
12.3246
7.84786
15.39
15.2613
1.35328
14.9601
9.66573
17.579
7.6708
9.35476
4.0051
8.97643
9.94527
16.1321
14.4106
19.0978
18.1413
12.5653
18.1676
6.62928
16.9897
19.9562
20.2591
13.0135
19.5374
4.94936
22.8792
27.5189
22.0669
12.3614
13.9039
18.5897
21.2982
23.2144
25.1205
24.5431
15.9724
12.3646
13.4557
6.74572
3.13394
10.5629
9.64092
11.1171
16.7493
17.836
19.0187
17.0303
16.6715
10.8727
11.9149
17.8846
21.2796
23.7063
25.3682
25.6062
26.4049
6.18381
14.7143
21.5582
22.0911
17.0318
14.7681
19.4989
24.8669
28.2641
30.4271
30.7014
26.7197
20.4315
17.6419
15.7484
12.0011
7.55608
5.56484
8.44175
12.0965
15.3435
18.2017
21.6833
25.6926
28.8534
29.9094
29.7004
29.6683
29.6097
29.3293
29.1017
28.7904
9.07024
14.8055
17.6306
19.8064
18.365
15.9739
17.826
23.1314
27.9515
31.5568
31.5963
26.5155
23.3838
24.7754
25.9034
26.557
27.041
27.3809
27.8049
28.272
28.8734
29.7367
30.5513
31.154
31.3168
32.0979
32.045
32.0209
31.76
31.3006
30.7399
30.2994
8.64346
15.4117
17.8581
19.7841
19.9801
18.6054
18.5151
21.6477
25.9422
29.1039
26.9511
23.1241
24.6965
26.9264
27.585
27.9228
28.5306
29.1969
29.8347
30.5029
31.3101
32.2521
33.1697
33.6778
33.5218
33.7595
32.9764
32.0877
31.0075
29.7152
28.3689
27.3733
7.57739
13.9658
17.0123
19.6076
20.7966
20.3924
19.7004
20.5855
22.4253
22.4005
19.7223
21.2988
24.4751
25.9368
26.749
28.0639
29.6288
30.8176
31.5658
32.0272
32.5095
33.0535
33.3188
32.8698
31.9964
31.7202
30.7946
29.6406
28.271
26.7788
25.2721
24.278
5.18363
11.3852
14.3878
17.5154
19.5068
19.8651
19.0822
18.3474
18.0621
18.0947
19.8067
22.2847
23.0847
22.4631
21.9797
23.4216
26.049
28.1024
29.2748
29.8708
30.2825
30.6196
30.7205
30.2984
29.6779
29.4527
28.8385
27.9771
26.8754
25.6495
24.4344
23.7066
3.94376
11.2491
12.3547
14.9727
17.3431
18.5793
18.7751
18.8471
19.4868
20.9706
22.8388
23.7914
23.4454
21.9662
20.1168
20.0668
22.2858
24.6924
26.3362
27.328
28.0129
28.5582
28.9647
28.939
28.5843
28.2965
27.6484
26.6635
25.3225
23.9356
22.7312
22.1462
3.49784
10.9789
11.8318
13.8719
16.3048
18.342
19.8299
21.0332
22.2613
23.5434
24.4762
24.5808
23.6024
21.5548
19.1604
18.9333
21.0489
23.4105
25.1115
26.1935
26.9156
27.4181
27.728
27.5378
26.9455
26.4496
25.6005
24.551
23.434
22.4016
21.6115
21.2798