/*--------------------------------*- C++ -*----------------------------------*\
  =========                 |
  \\      /  F ield         | OpenFOAM: The Open Source CFD Toolbox
   \\    /   O peration     | Website:  https://openfoam.org
    \\  /    A nd           | Version:  6
     \\/     M anipulation  |
\*---------------------------------------------------------------------------*/
FoamFile
{
    version     2.0;
    format      ascii;
    class       volScalarField;
    location    "0.8";
    object      k;
}
// * * * * * * * * * * * * * * * * * * * * * * * * * * * * * * * * * * * * * //

dimensions      [0 2 -2 0 0 0 0];

internalField   nonuniform List<scalar> 
63400
(
0.000352293
0.000343453
0.000336077
0.000332475
0.000337713
0.000339531
0.000345583
0.000345335
0.00033235
0.000327834
0.000323863
0.000317723
0.000315128
0.000314427
0.000311674
0.000321401
0.000286211
0.000288918
0.000291321
0.000294248
0.000294429
0.000297683
0.000294284
0.000302297
0.000268435
0.000263856
0.000261885
0.000261095
0.000260445
0.00026561
0.000264684
0.00027628
0.0002441
0.000246112
0.000245686
0.000247501
0.000245111
0.000248153
0.00024389
0.000250794
0.000210738
0.000214982
0.000216693
0.000220617
0.000221301
0.000225461
0.000224019
0.000231557
0.000201223
0.000200973
0.000201229
0.000201826
0.000200419
0.000202581
0.000200306
0.000207124
0.00017481
0.000173895
0.000173705
0.000175394
0.000176252
0.00018055
0.000180868
0.000188402
0.000157237
0.00015718
0.000155318
0.000155226
0.000154968
0.000158836
0.000159027
0.000166161
0.000132121
0.000133813
0.000135613
0.000138812
0.000140945
0.000145423
0.000145819
0.000150819
0.000117007
0.000117025
0.000118003
0.00012069
0.000122583
0.000126223
0.000126824
0.000132289
0.000104054
0.000107516
0.000109816
0.000112029
0.000112449
0.000114321
0.000113338
0.000117349
8.94908e-05
9.19843e-05
9.39458e-05
9.56133e-05
9.54961e-05
9.66362e-05
9.56126e-05
9.97944e-05
8.44784e-05
8.48313e-05
8.499e-05
8.55017e-05
8.48224e-05
8.54168e-05
8.40155e-05
8.67786e-05
6.84754e-05
6.88079e-05
6.90686e-05
6.94581e-05
6.8808e-05
6.89944e-05
6.79867e-05
7.10565e-05
6.03047e-05
6.04778e-05
6.07688e-05
6.10617e-05
6.02796e-05
6.01901e-05
5.86215e-05
6.0696e-05
4.53972e-05
4.61836e-05
4.62059e-05
4.66077e-05
4.63711e-05
4.66026e-05
4.52796e-05
4.61211e-05
3.82925e-05
3.88253e-05
3.94451e-05
3.9946e-05
3.95339e-05
3.92116e-05
3.78538e-05
3.81967e-05
2.32902e-05
2.36454e-05
2.45022e-05
2.54338e-05
2.56178e-05
2.55268e-05
2.4643e-05
2.49699e-05
1.04269e-05
9.56682e-06
9.42366e-06
1.06113e-05
1.26942e-05
1.497e-05
1.66648e-05
1.78237e-05
4.55381e-05
4.55658e-05
4.4824e-05
4.47948e-05
4.58701e-05
4.81206e-05
4.92435e-05
5.13195e-05
0.00107352
0.00106996
0.00106804
0.0010613
0.00106193
0.00105893
0.00106044
0.00106288
0.00105693
0.00105507
0.00105549
0.00105361
0.001052
0.00105299
0.0010493
0.0010525
0.00103217
0.00103337
0.00103411
0.00103716
0.00103714
0.00104008
0.00103801
0.00104344
0.00102374
0.00102336
0.00102238
0.00102258
0.001019
0.0010216
0.00101755
0.00102503
0.000998692
0.00100203
0.00100171
0.0010059
0.00100438
0.00100917
0.00100677
0.00101271
0.000969686
0.00097468
0.000976562
0.000982547
0.000983915
0.000989113
0.000986938
0.000993898
0.000961248
0.000962234
0.000963934
0.00096927
0.000968854
0.000972183
0.000967529
0.000972594
0.000938693
0.000939446
0.000937198
0.000938102
0.000935842
0.000939601
0.000938407
0.000948453
0.00091113
0.000915278
0.000913663
0.000912436
0.000906716
0.000910432
0.00090963
0.000921701
0.000869961
0.000870216
0.000869606
0.000873647
0.000875351
0.000884746
0.000889057
0.000902676
0.000839086
0.000836569
0.000834452
0.000839453
0.000843664
0.000853537
0.000855434
0.000866954
0.000789687
0.000800617
0.000809186
0.000819334
0.000823375
0.000830959
0.000829223
0.000837841
0.000755039
0.000764637
0.000773859
0.000784288
0.000786559
0.000790977
0.00078464
0.000792101
0.000742464
0.000745215
0.000747043
0.000752035
0.000751427
0.000754919
0.000748911
0.000755845
0.000690478
0.000692046
0.000693536
0.000697937
0.000696693
0.000697198
0.000687695
0.000693818
0.000647041
0.000648137
0.000650393
0.000655309
0.000654059
0.000655223
0.000644714
0.000650104
0.000569708
0.000575196
0.000576744
0.000581182
0.000580896
0.000584775
0.000576869
0.000579609
0.000513954
0.000517137
0.000523108
0.000531073
0.000531953
0.000531943
0.000521522
0.000520861
0.000388817
0.000391421
0.000400387
0.000412782
0.000418092
0.000419184
0.00040988
0.000411475
0.000225714
0.000211939
0.000205395
0.000219647
0.000248084
0.000279881
0.000304375
0.000321956
0.000143729
0.000142598
0.000140329
0.000139702
0.000140851
0.000143753
0.000143927
0.000146062
0.00114143
0.00113859
0.00114015
0.00113215
0.00113453
0.00113094
0.00113328
0.00113708
0.00112255
0.00112179
0.00112437
0.00112341
0.00112188
0.0011244
0.0011204
0.00112451
0.00109471
0.00109708
0.00109847
0.00110332
0.00110429
0.00110954
0.00110757
0.00111473
0.00108534
0.00108716
0.00108697
0.00108957
0.00108534
0.00108965
0.00108453
0.00109313
0.00105877
0.00106457
0.00106435
0.00107116
0.00106957
0.00107623
0.00107369
0.00108089
0.00102964
0.00103582
0.00103727
0.00104456
0.00104629
0.00105437
0.0010525
0.0010614
0.00102125
0.00102375
0.00102538
0.00103338
0.00103352
0.0010398
0.0010352
0.00104064
0.00100053
0.00100398
0.00100196
0.00100501
0.00100232
0.00100715
0.00100462
0.00101516
0.000974146
0.000981179
0.000981465
0.000983066
0.000975715
0.000979186
0.000975634
0.000987317
0.000938112
0.000939624
0.000937978
0.000941959
0.000941203
0.000950983
0.000954616
0.000970793
0.000910659
0.000909416
0.00090519
0.000909302
0.000911227
0.000922243
0.000923802
0.000937091
0.000855901
0.000866228
0.000874392
0.000887312
0.000892503
0.000903515
0.000902532
0.000912492
0.00082704
0.000835745
0.000845008
0.000859454
0.000863711
0.000871711
0.000864553
0.000870588
0.00081586
0.000820497
0.000822814
0.000830944
0.00083159
0.00083841
0.000832199
0.000838991
0.000778037
0.000780054
0.000781198
0.000787794
0.000787641
0.000791534
0.000780489
0.000783162
0.000732656
0.00073442
0.000736051
0.000743624
0.000744476
0.000750652
0.000740502
0.000743426
0.000672921
0.000677917
0.000679297
0.000685747
0.000686873
0.000694563
0.00068848
0.00069237
0.000611546
0.000613276
0.000617344
0.000628066
0.000634562
0.000641844
0.000635018
0.000634035
0.000523485
0.00052306
0.00052744
0.000539807
0.000549842
0.000557583
0.000551816
0.000552685
0.000400085
0.000388795
0.000370468
0.000368783
0.000384636
0.000410613
0.000433643
0.000454569
0.000198832
0.000197276
0.000194128
0.000192846
0.000193635
0.00019679
0.000196588
0.000198854
0.00114901
0.00114676
0.00115223
0.00114415
0.00114778
0.00114428
0.00114698
0.00115233
0.0011291
0.00112951
0.00113432
0.00113508
0.00113384
0.00113767
0.00113442
0.00113903
0.00110054
0.00110407
0.00110606
0.00111225
0.00111434
0.00112148
0.00112045
0.0011288
0.00109041
0.00109459
0.00109512
0.00110009
0.001096
0.00110139
0.00109625
0.00110521
0.00106337
0.00107142
0.00107166
0.00108042
0.00107952
0.00108728
0.00108545
0.00109331
0.0010351
0.00104191
0.0010437
0.00105164
0.00105347
0.00106349
0.00106275
0.00107284
0.00102607
0.00102988
0.00103129
0.00104128
0.00104218
0.00105043
0.00104713
0.00105313
0.0010052
0.00101134
0.00100956
0.00101439
0.00101237
0.00101821
0.00101551
0.00102604
0.000979431
0.000988377
0.000990124
0.000994726
0.000987451
0.00099093
0.000986164
0.000996528
0.000946012
0.000949084
0.000947662
0.000952501
0.000950291
0.000959582
0.000962679
0.0009797
0.000919245
0.000920416
0.000915461
0.0009193
0.000919612
0.000930784
0.000932491
0.000946761
0.000862482
0.000872035
0.000878971
0.000893189
0.000899176
0.000912378
0.00091285
0.000923909
0.000834804
0.000842691
0.000850491
0.000867129
0.000873311
0.000884392
0.000878546
0.000883847
0.000821268
0.000827539
0.000829925
0.000840112
0.000841903
0.000851079
0.000845803
0.00085236
0.000790627
0.000793568
0.00079397
0.000801731
0.000802278
0.000808873
0.000799079
0.000800534
0.000742501
0.000745389
0.000745943
0.000754394
0.000755991
0.000765242
0.000757409
0.000759236
0.000692601
0.000696828
0.000697665
0.000704635
0.00070589
0.000715432
0.000711591
0.000716652
0.000627185
0.00062845
0.000630139
0.000639644
0.000647433
0.000658994
0.000657119
0.000657567
0.000575437
0.000573912
0.000574014
0.000581697
0.000589695
0.000598789
0.000595877
0.000596246
0.0004904
0.000482007
0.000458345
0.000446741
0.000451191
0.000469213
0.000485887
0.00050507
0.00025111
0.000249489
0.00024574
0.000243734
0.000243836
0.00024714
0.000246784
0.000249351
0.0011368
0.00113476
0.00114367
0.0011365
0.0011412
0.00113835
0.00114126
0.00114817
0.00111674
0.00111799
0.00112468
0.00112741
0.00112667
0.00113141
0.00112929
0.00113461
0.00108832
0.00109278
0.00109538
0.00110249
0.00110563
0.00111435
0.00111451
0.00112385
0.00107752
0.00108358
0.00108476
0.00109173
0.00108844
0.00109465
0.0010899
0.00109907
0.00105087
0.00106054
0.00106144
0.00107154
0.00107166
0.0010801
0.00107909
0.00108746
0.00102433
0.00103104
0.00103342
0.00104181
0.0010435
0.00105458
0.00105512
0.0010661
0.00101451
0.00101915
0.00102021
0.00103142
0.00103318
0.00104265
0.00104093
0.00104776
0.000992902
0.00100123
0.000999899
0.00100589
0.001005
0.00101178
0.00100937
0.0010197
0.000968051
0.00097823
0.00098095
0.000988149
0.000982056
0.000985685
0.000980491
0.000989375
0.000937275
0.000941691
0.000940839
0.000946808
0.000943969
0.000952151
0.000954471
0.000971244
0.000910595
0.000914523
0.000909761
0.00091347
0.000912668
0.000923204
0.000924911
0.000939548
0.000855675
0.000864145
0.000869335
0.000883436
0.000889719
0.000903992
0.000905989
0.000917891
0.000828374
0.000835521
0.000841132
0.000858019
0.000865644
0.000879044
0.000875535
0.000880719
0.000811605
0.00081906
0.000821344
0.000832519
0.0008354
0.000846173
0.000842513
0.000848716
0.000787055
0.000791189
0.000790932
0.000798884
0.000799977
0.000808382
0.000800963
0.000802161
0.000738397
0.000742449
0.000742088
0.000750163
0.000751963
0.000762656
0.000757907
0.000759187
0.000698887
0.000702342
0.000702364
0.000708993
0.000709928
0.000719486
0.000717948
0.000723879
0.000635481
0.000636482
0.000636001
0.000642601
0.000649197
0.000661977
0.000664724
0.000667369
0.000627475
0.000625675
0.000622876
0.000624667
0.000626652
0.00063208
0.000629465
0.00062838
0.000568976
0.000563213
0.000537733
0.000520329
0.000515423
0.000526244
0.000536033
0.000551945
0.000301986
0.000300509
0.000296517
0.00029393
0.000293119
0.000296379
0.000295982
0.00029888
0.00111865
0.00111639
0.00112776
0.00112201
0.00112755
0.0011256
0.00112853
0.00113682
0.00109905
0.00110069
0.00110862
0.00111326
0.00111315
0.00111839
0.0011173
0.00112343
0.00107148
0.0010764
0.00107949
0.00108706
0.00109093
0.00110083
0.00110212
0.00111227
0.00106024
0.00106745
0.00106903
0.00107744
0.00107523
0.00108212
0.00107781
0.00108708
0.00103455
0.00104503
0.0010465
0.00105734
0.00105854
0.00106745
0.00106706
0.00107579
0.00101026
0.00101626
0.00101907
0.00102782
0.00102923
0.00104064
0.00104217
0.0010538
0.000999695
0.00100462
0.00100519
0.00101689
0.00101942
0.00102957
0.00102915
0.0010369
0.000977284
0.000986997
0.000986243
0.000992746
0.000992942
0.00100058
0.000998572
0.00100867
0.000953399
0.000964241
0.000967441
0.000976469
0.000972051
0.000976062
0.000970827
0.000978452
0.000925283
0.0009307
0.000930356
0.000937408
0.000934608
0.000941547
0.000942772
0.000958608
0.000898319
0.000904735
0.000900804
0.000904517
0.000903021
0.000912561
0.000913881
0.000928459
0.000847852
0.000855191
0.000858518
0.000871473
0.000877463
0.000891909
0.000895048
0.000907657
0.000820566
0.000827118
0.000830534
0.000846204
0.000854454
0.000869322
0.000868335
0.000874173
0.000800605
0.000808679
0.000810806
0.000822095
0.000825772
0.000837525
0.000835682
0.00084179
0.000781324
0.000786521
0.000785989
0.000793487
0.000794804
0.000804117
0.000799289
0.000801041
0.000734526
0.000739435
0.000738579
0.000745544
0.000747098
0.000757833
0.000755997
0.000757379
0.000705571
0.00070849
0.000707628
0.000713243
0.000713788
0.000722051
0.000722122
0.000728465
0.000651054
0.000651773
0.000649561
0.000652801
0.000656698
0.000668086
0.000673685
0.000678538
0.000686595
0.000684756
0.000680662
0.000677803
0.000672523
0.000671027
0.000665459
0.000661462
0.000637319
0.000632971
0.00060723
0.000587723
0.000576748
0.00058295
0.000587307
0.000600212
0.000352016
0.000350652
0.000346736
0.000343961
0.000342279
0.000345345
0.000344981
0.000348174
0.00109985
0.00109709
0.00110978
0.00110547
0.00111166
0.00111057
0.00111339
0.00112274
0.00108103
0.00108267
0.00109107
0.00109729
0.0010979
0.0011033
0.00110289
0.00110976
0.0010547
0.00105961
0.00106295
0.00107065
0.0010748
0.00108543
0.00108767
0.00109842
0.00104323
0.0010509
0.00105255
0.00106174
0.00106052
0.00106807
0.00106414
0.00107336
0.00101875
0.00102928
0.0010311
0.00104216
0.00104422
0.00105354
0.00105354
0.00106242
0.000996742
0.00100173
0.0010046
0.00101364
0.0010147
0.00102594
0.00102804
0.00104006
0.000985512
0.000990388
0.000990306
0.0010019
0.00100492
0.0010154
0.00101585
0.0010244
0.000962443
0.000972715
0.00097254
0.000979096
0.000980031
0.000988466
0.000986841
0.000996707
0.000939403
0.000950431
0.000953722
0.000963737
0.000960976
0.000965635
0.000960584
0.000967269
0.000913713
0.000919841
0.000919812
0.000927721
0.000925413
0.000931338
0.000931297
0.000945713
0.000886378
0.000894624
0.000891851
0.00089576
0.000893912
0.000902424
0.000902992
0.000917083
0.000841809
0.000848165
0.000849785
0.00086101
0.000866148
0.000880065
0.000883767
0.000896846
0.000814443
0.000820508
0.000822115
0.000835739
0.000843712
0.000859152
0.000860331
0.000867356
0.000791918
0.000800049
0.000801993
0.000812797
0.000816855
0.000829032
0.0008289
0.00083524
0.000777351
0.000783145
0.000782715
0.000789488
0.000790717
0.000800095
0.000797569
0.000800354
0.000734832
0.000740084
0.000739103
0.000744659
0.000745688
0.000755389
0.000755782
0.000757722
0.00071627
0.000718823
0.000717207
0.000721263
0.000721441
0.000727749
0.00072858
0.000734677
0.000676763
0.000677092
0.000673558
0.00067371
0.000674312
0.000682692
0.000689023
0.00069533
0.000748496
0.000746476
0.00074211
0.000736938
0.000725551
0.000716505
0.000705677
0.00069746
0.000691497
0.000687392
0.000661356
0.000642317
0.000628709
0.000633693
0.000635201
0.000646459
0.000401251
0.00039976
0.000396004
0.00039353
0.000391336
0.000394222
0.000394008
0.000397457
0.00108178
0.00107841
0.00109145
0.00108828
0.00109494
0.0010946
0.00109722
0.00110728
0.0010638
0.00106523
0.00107345
0.00108075
0.0010821
0.00108743
0.0010873
0.00109474
0.00103881
0.00104337
0.00104673
0.00105435
0.0010584
0.00106931
0.00107222
0.00108342
0.00102718
0.00103484
0.00103627
0.00104566
0.00104517
0.00105333
0.00104976
0.00105881
0.00100397
0.00101405
0.00101596
0.00102683
0.0010294
0.00103909
0.00103933
0.00104816
0.000983911
0.000987912
0.000990437
0.000999681
0.00100041
0.00101119
0.00101347
0.00102564
0.0009721
0.000976807
0.000976002
0.000987079
0.000990256
0.00100083
0.00100175
0.00101085
0.00094867
0.000958829
0.000959136
0.000965497
0.000966745
0.000975843
0.000974608
0.000984253
0.000926331
0.000937162
0.000940291
0.000950568
0.00094913
0.000954606
0.000949942
0.000956005
0.00090273
0.000909352
0.000909454
0.000917905
0.000916329
0.000921624
0.000920378
0.000933076
0.0008753
0.000884551
0.000882964
0.000887244
0.000885341
0.000892972
0.000892621
0.000905765
0.000837239
0.000842832
0.00084304
0.000852311
0.000856195
0.00086903
0.00087272
0.000885835
0.000809984
0.000815612
0.000815926
0.00082721
0.000834174
0.000849299
0.000852016
0.000860292
0.000785967
0.00079367
0.000795399
0.000805347
0.000809394
0.000821443
0.000822733
0.000829457
0.000776005
0.000781782
0.000781645
0.000787647
0.000788617
0.000797319
0.000796585
0.000800446
0.000740176
0.000745213
0.000744306
0.000748386
0.000748808
0.000756732
0.00075849
0.000761071
0.000731767
0.000733925
0.00073181
0.000733939
0.000733668
0.000737813
0.000738771
0.000743927
0.000711233
0.0007111
0.000706576
0.00070429
0.000701637
0.000706395
0.000711762
0.000718399
0.000806608
0.000804238
0.00079987
0.000794763
0.000779885
0.000765055
0.000748427
0.000735462
0.000727351
0.000723002
0.000695475
0.000678278
0.000665281
0.000672852
0.000674867
0.000686611
0.000449482
0.00044763
0.000443789
0.000441896
0.000439708
0.000442632
0.000442784
0.000446495
0.00106373
0.00105985
0.00107253
0.0010701
0.00107709
0.00107735
0.00107976
0.00109022
0.0010465
0.00104774
0.00105531
0.00106315
0.00106522
0.00107041
0.00107021
0.001078
0.0010228
0.00102686
0.00103006
0.00103751
0.00104124
0.00105204
0.00105531
0.00106683
0.00101101
0.0010184
0.00101948
0.00102867
0.00102856
0.00103721
0.00103403
0.00104286
0.000989069
0.000998411
0.00100024
0.00101065
0.00101335
0.00102331
0.00102373
0.0010324
0.000970474
0.000973717
0.000975639
0.000984981
0.000985451
0.000995618
0.000997807
0.00100991
0.000958174
0.000962763
0.000961266
0.000971594
0.000974644
0.000985092
0.000986232
0.00099558
0.00093485
0.00094443
0.000945073
0.00095115
0.000952342
0.000961877
0.000961053
0.000970472
0.000913187
0.000923504
0.000926338
0.000936344
0.000935763
0.000942045
0.000937962
0.00094369
0.00089146
0.000898383
0.000898498
0.000907128
0.000906331
0.000911348
0.000909149
0.000920012
0.000864592
0.000874026
0.000873408
0.000878111
0.000876401
0.000883341
0.000882133
0.000893916
0.000833188
0.000838198
0.000837325
0.00084462
0.00084705
0.000858368
0.000861587
0.000874146
0.000806522
0.00081171
0.000811219
0.000820198
0.000825709
0.000839701
0.000843272
0.000852401
0.00078244
0.000789319
0.000790801
0.000799657
0.000803412
0.000814777
0.000817123
0.000824096
0.00077744
0.000782597
0.000782745
0.000787969
0.000788685
0.0007961
0.000796611
0.000801199
0.00075056
0.000754889
0.000754104
0.000756707
0.000756588
0.000762316
0.00076462
0.00076755
0.00075193
0.0007535
0.000751162
0.000751264
0.000750333
0.000752315
0.000753054
0.00075675
0.000751228
0.000750681
0.000745463
0.000741581
0.000736126
0.00073741
0.000740848
0.000746803
0.000854628
0.00085205
0.000847365
0.000844089
0.000828786
0.000811541
0.000790445
0.000773393
0.000741722
0.000738183
0.000707363
0.000691803
0.000681903
0.000695846
0.000702241
0.000717248
0.000496398
0.000494256
0.000489925
0.000488451
0.000486614
0.000489831
0.000490647
0.000494684
0.00104417
0.00103998
0.00105192
0.0010499
0.00105707
0.00105784
0.00106007
0.0010707
0.00102764
0.0010288
0.0010355
0.00104337
0.00104609
0.00105118
0.0010507
0.00105862
0.00100515
0.00100869
0.00101161
0.00101888
0.00102222
0.0010326
0.00103594
0.00104767
0.000993171
0.00100018
0.0010009
0.00100965
0.00100965
0.00101862
0.00101589
0.0010245
0.000972573
0.000981042
0.000982678
0.000992484
0.000994985
0.00100505
0.00100563
0.0010141
0.000954992
0.000957792
0.000958984
0.000968291
0.00096863
0.00097811
0.000980021
0.000991868
0.00094231
0.000946895
0.000944833
0.000954296
0.000957039
0.000967172
0.000968356
0.000977705
0.000919737
0.00092846
0.000929276
0.000935064
0.000935957
0.000945616
0.000945206
0.000954351
0.000898943
0.000908468
0.000910949
0.000920322
0.000920152
0.000927036
0.000923668
0.000929276
0.000879151
0.000886153
0.00088624
0.00089466
0.00089453
0.00089948
0.000896663
0.000905708
0.000853838
0.00086274
0.000862734
0.000867724
0.000866364
0.000872733
0.000870892
0.000881019
0.000829075
0.000833575
0.000831928
0.000837295
0.000838239
0.000847693
0.000850142
0.000861503
0.000803725
0.000808403
0.000807503
0.000814351
0.000818258
0.000830409
0.000834237
0.0008435
0.000781241
0.000786976
0.000788184
0.000795775
0.000799094
0.000809241
0.000812275
0.000819112
0.000781838
0.000785884
0.00078618
0.00079055
0.000791145
0.000796829
0.000798094
0.00080281
0.000765693
0.000768949
0.000768259
0.000769397
0.000768864
0.000772273
0.000774483
0.000777244
0.000776045
0.000776785
0.000774451
0.000772733
0.000770915
0.000770814
0.000771177
0.000773201
0.000792678
0.000791921
0.000786298
0.000781748
0.000774195
0.000772661
0.000773913
0.000778624
0.000887817
0.000885714
0.000880206
0.000879552
0.000866364
0.000850572
0.000827722
0.000808476
0.000733915
0.000734583
0.0006996
0.00068349
0.000677024
0.000699906
0.00071438
0.000735765
0.000541732
0.000539776
0.000534767
0.000533179
0.000531594
0.000535107
0.000536809
0.000541228
0.0010216
0.0010174
0.00102842
0.00102656
0.0010338
0.00103501
0.00103714
0.00104776
0.0010058
0.00100703
0.00101284
0.00102031
0.00102355
0.00102865
0.00102782
0.00103568
0.000984537
0.000987676
0.000990209
0.000997282
0.00100026
0.00101006
0.00101316
0.00102495
0.000972381
0.000978952
0.000979375
0.000987609
0.000987556
0.000996639
0.000994387
0.00100281
0.000953311
0.000960856
0.000962224
0.000971384
0.000973462
0.000983383
0.000984092
0.000992352
0.000936463
0.00093912
0.000939571
0.000948666
0.000949011
0.00095779
0.0009593
0.000970713
0.000923543
0.000928211
0.000925772
0.00093431
0.000936657
0.000946297
0.000947426
0.000956559
0.000902519
0.000910233
0.000911057
0.000916563
0.000917058
0.000926476
0.000926445
0.000935201
0.000883046
0.000891524
0.000893612
0.000902109
0.000902005
0.000909137
0.000906525
0.0009121
0.000865584
0.000872367
0.000872442
0.000880282
0.000880587
0.000885488
0.000882382
0.000889679
0.000843061
0.000850867
0.000851084
0.000856044
0.000855066
0.000860839
0.000858639
0.000866928
0.00082491
0.000828852
0.000826696
0.000830179
0.000829719
0.000837019
0.00083855
0.000848121
0.000801779
0.000805815
0.000804784
0.00080969
0.000812073
0.000821814
0.000825443
0.000833992
0.000782603
0.000786944
0.000787862
0.000794044
0.000796903
0.000805358
0.000808756
0.00081493
0.000789399
0.000792001
0.000792273
0.000795632
0.000796289
0.000799997
0.000801621
0.000805793
0.000784893
0.000786865
0.000786238
0.000785971
0.000785139
0.000786363
0.000788075
0.000790121
0.000802697
0.00080245
0.00080025
0.000797211
0.000794384
0.000792357
0.000792261
0.000792732
0.000831362
0.000830733
0.000824999
0.000820695
0.000811855
0.000808417
0.000807741
0.00081122
0.000904168
0.000903654
0.000897119
0.000898948
0.000889093
0.00087786
0.000856381
0.000837648
0.000707694
0.000717217
0.0006805
0.000660854
0.000654697
0.00068578
0.000710316
0.000740696
0.000585459
0.000584256
0.000578863
0.000576626
0.000574805
0.000578168
0.000580695
0.000585421
0.00099499
0.000991029
0.00100109
0.00099928
0.00100643
0.00100803
0.00101015
0.00102064
0.000980056
0.000981441
0.000986437
0.000993218
0.000996781
0.00100199
0.00100086
0.0010085
0.000960117
0.000963007
0.000965099
0.000971903
0.000974603
0.000983724
0.000986359
0.000997959
0.000947864
0.000953954
0.000954155
0.00096184
0.000961688
0.000970662
0.000968911
0.000977162
0.000930601
0.000937226
0.000938254
0.000946739
0.000948279
0.000957794
0.000958551
0.000966547
0.000914433
0.000917179
0.000916972
0.00092562
0.000926068
0.00093416
0.000935203
0.000945962
0.000901493
0.000906238
0.000903646
0.000911213
0.000913127
0.000922094
0.000923101
0.000931823
0.000882909
0.000889538
0.000890204
0.000895385
0.000895504
0.000904308
0.000904585
0.000912761
0.000865475
0.000872677
0.000874316
0.000881738
0.00088148
0.000888422
0.000886513
0.000891981
0.000851059
0.000857226
0.000857319
0.000864253
0.000864709
0.000869379
0.000866263
0.000871862
0.000832664
0.00083896
0.000839063
0.000843561
0.000842879
0.000847853
0.00084553
0.000851849
0.000821086
0.000824335
0.000821892
0.000823534
0.000821828
0.000826722
0.000827296
0.000834595
0.000801157
0.000804378
0.000803377
0.000806488
0.000807591
0.000814514
0.000817637
0.000824653
0.000786806
0.00078958
0.000790199
0.000794856
0.000797323
0.000803725
0.000807225
0.000812192
0.000800019
0.000801031
0.000801133
0.00080331
0.000804182
0.000805894
0.000807589
0.000810628
0.000806842
0.000807487
0.000806908
0.00080541
0.000804355
0.000803732
0.000804766
0.000805705
0.000829704
0.000828484
0.00082645
0.000822789
0.000819013
0.000815337
0.000814702
0.000814002
0.000863578
0.000863453
0.000857881
0.000854636
0.000845285
0.000840869
0.000838761
0.000841489
0.000905089
0.000907155
0.000899953
0.000903682
0.000896895
0.000891555
0.000873789
0.000858258
0.000672174
0.000692712
0.000659963
0.000636182
0.000625179
0.000659314
0.000692364
0.000732484
0.000627846
0.000627581
0.000622407
0.000619362
0.000616805
0.000619262
0.000622193
0.000626909
0.000963743
0.000960228
0.000969333
0.000967537
0.000974482
0.00097637
0.000978546
0.000988799
0.00094991
0.000951459
0.000955771
0.000961652
0.000965286
0.000970645
0.000969338
0.000976646
0.000931466
0.000934274
0.000935918
0.000942324
0.000944785
0.000953207
0.000955211
0.000966289
0.000919303
0.000924858
0.000924885
0.000931982
0.000931752
0.000940399
0.000939133
0.000947195
0.00090418
0.000909926
0.000910538
0.000918284
0.000919257
0.000928095
0.000928798
0.000936415
0.000888881
0.000891845
0.000891147
0.000899072
0.000899631
0.000907031
0.000907608
0.000917443
0.000876271
0.000880956
0.000878437
0.000884993
0.000886452
0.000894544
0.00089537
0.000903463
0.000861038
0.00086653
0.000866889
0.00087161
0.000871446
0.000879284
0.000879767
0.000887109
0.000846584
0.000852321
0.000853435
0.000859569
0.000859045
0.000865333
0.000864006
0.000869134
0.000836178
0.00084126
0.000841352
0.000847113
0.000847454
0.000851546
0.000848619
0.000852528
0.000823191
0.000827693
0.000827437
0.000831015
0.000830469
0.000834291
0.000831996
0.000836211
0.000818045
0.000820427
0.000817881
0.000817748
0.00081503
0.00081732
0.000816968
0.000821641
0.000802235
0.00080448
0.000803578
0.000804991
0.000805142
0.000809038
0.00081148
0.000816293
0.000793762
0.000794914
0.000795226
0.00079829
0.000800483
0.000804644
0.000808041
0.000811357
0.000812953
0.00081242
0.000812273
0.000813157
0.000814328
0.000814249
0.000815832
0.000817354
0.000829449
0.000828903
0.000828373
0.000825959
0.000824735
0.000822748
0.000823105
0.000822796
0.000854285
0.000852307
0.000850377
0.00084686
0.000842386
0.000837479
0.000836205
0.000834863
0.000886697
0.000887382
0.000882144
0.000880589
0.000871382
0.000866721
0.000863622
0.000866276
0.000894783
0.000899743
0.000892512
0.000897672
0.000892847
0.000892831
0.000879523
0.000868915
0.0006383
0.000667375
0.000643588
0.000618706
0.0005998
0.000629902
0.000666373
0.000714117
0.000669217
0.000669569
0.000665088
0.000661458
0.000658026
0.000658907
0.000661629
0.000665795
0.000927622
0.000924667
0.00093285
0.00093107
0.000937686
0.00093972
0.000941997
0.000951872
0.00091519
0.000916814
0.000920556
0.000925425
0.000928857
0.00093428
0.00093295
0.000939873
0.000898457
0.000901303
0.000902549
0.000908398
0.000910596
0.000918292
0.000919606
0.000929773
0.000886689
0.000891643
0.000891517
0.000897937
0.00089767
0.000905765
0.000904931
0.000912714
0.000874071
0.000878991
0.000879128
0.000886004
0.000886426
0.000894326
0.000894858
0.000901918
0.000860062
0.000863239
0.000862276
0.000869211
0.00086979
0.000876416
0.000876587
0.000885197
0.000848303
0.000852664
0.0008504
0.000855916
0.000856911
0.000863883
0.000864467
0.000871648
0.000837291
0.000841577
0.000841505
0.000845536
0.000845196
0.000851749
0.000852328
0.000858516
0.000826904
0.000831026
0.000831544
0.000836144
0.000835306
0.00084049
0.000839589
0.00084401
0.000821569
0.000825095
0.000825087
0.000829445
0.000829479
0.000832548
0.000829921
0.000832109
0.000815017
0.000817563
0.000816805
0.000819053
0.000818476
0.00082072
0.000818514
0.000820489
0.00081593
0.000817294
0.000814793
0.000813007
0.000809585
0.000809186
0.00080799
0.000809827
0.000804908
0.000806073
0.000805288
0.000805088
0.000804643
0.000805535
0.000807234
0.000809415
0.00080267
0.000802293
0.000802303
0.000803779
0.000805826
0.000807775
0.000810925
0.000812329
0.000826603
0.000824757
0.000824358
0.000823973
0.000825429
0.000823962
0.00082535
0.000825246
0.000849948
0.000848514
0.000848037
0.000845139
0.000843792
0.000841016
0.000840814
0.000839387
0.000873447
0.000871101
0.000869136
0.000866446
0.000861655
0.00085605
0.000854025
0.000852563
0.000899403
0.000901079
0.000896179
0.000896665
0.000888121
0.000883667
0.000879769
0.000882882
0.000878279
0.000885761
0.000878929
0.000885287
0.000881385
0.00088505
0.000875438
0.000869999
0.000612863
0.000645641
0.000632115
0.000610179
0.000584296
0.000605543
0.000639454
0.000690533
0.000709682
0.000710125
0.00070645
0.000702547
0.000698484
0.00069752
0.000699524
0.00070255
0.000886583
0.000884207
0.000891484
0.000889745
0.000895928
0.000897931
0.000900293
0.000909579
0.000875904
0.000877437
0.000880668
0.000884483
0.000887458
0.000892737
0.000891496
0.000897992
0.00086116
0.000864053
0.000864988
0.000870124
0.000871979
0.000878863
0.000879522
0.000888387
0.000850205
0.000854467
0.000854195
0.000859794
0.000859512
0.000866812
0.000866324
0.000873631
0.000840479
0.000844592
0.000844241
0.00085005
0.000849949
0.000856659
0.000856901
0.000863164
0.000828374
0.000831607
0.000830623
0.000836349
0.000836796
0.000842447
0.000842296
0.000849383
0.000818174
0.000821846
0.000819944
0.000824393
0.000824943
0.000830507
0.000830789
0.000836694
0.000812146
0.00081511
0.000814528
0.00081757
0.000817132
0.00082211
0.000822679
0.000827338
0.000806922
0.000809313
0.000809192
0.000812008
0.000810841
0.000814508
0.000813875
0.000817134
0.000807588
0.000809189
0.000808913
0.000811653
0.000811286
0.000812885
0.00081058
0.000810989
0.000808038
0.000808595
0.00080729
0.000807911
0.000807186
0.000807468
0.000805338
0.000804983
0.000814313
0.000814574
0.000812233
0.000808984
0.00080523
0.000802232
0.000800323
0.000799293
0.000808289
0.000808374
0.000807709
0.00080603
0.000805316
0.000803484
0.000804477
0.000803908
0.000811816
0.000810161
0.000809907
0.000809907
0.000811904
0.000811904
0.000814728
0.000814205
0.00083854
0.000835763
0.000835176
0.000833706
0.000835354
0.000833027
0.000834222
0.000832672
0.000865209
0.000863309
0.000862891
0.000859981
0.000858558
0.000855581
0.000855
0.000852803
0.000884471
0.000882254
0.00088008
0.000878668
0.000873983
0.000868256
0.000865381
0.000864167
0.000901574
0.000904322
0.00089959
0.000902115
0.00089462
0.000890592
0.000885823
0.000889526
0.000859499
0.000868868
0.000862498
0.000869847
0.000866339
0.000872008
0.000864649
0.000863385
0.000596979
0.000629289
0.000624467
0.000608021