/*--------------------------------*- C++ -*----------------------------------*\
  =========                 |
  \\      /  F ield         | OpenFOAM: The Open Source CFD Toolbox
   \\    /   O peration     | Website:  https://openfoam.org
    \\  /    A nd           | Version:  6
     \\/     M anipulation  |
\*---------------------------------------------------------------------------*/
FoamFile
{
    version     2.0;
    format      ascii;
    class       volScalarField;
    location    "0.8";
    object      nut;
}
// * * * * * * * * * * * * * * * * * * * * * * * * * * * * * * * * * * * * * //

dimensions      [0 2 -1 0 0 0 0];

internalField   nonuniform List<scalar> 
63400
(
4.17449e-07
4.06975e-07
3.98234e-07
3.93966e-07
4.00173e-07
4.02327e-07
4.09499e-07
4.09205e-07
3.93818e-07
3.88467e-07
3.83762e-07
3.76486e-07
3.73411e-07
3.7258e-07
3.69318e-07
3.80844e-07
3.39146e-07
3.42353e-07
3.45201e-07
3.48669e-07
3.48884e-07
3.52739e-07
3.48712e-07
3.58207e-07
3.18083e-07
3.12656e-07
3.10321e-07
3.09384e-07
3.08614e-07
3.14735e-07
3.13638e-07
3.27379e-07
2.89247e-07
2.91631e-07
2.91126e-07
2.93277e-07
2.90444e-07
2.94049e-07
2.88997e-07
2.97179e-07
2.49715e-07
2.54743e-07
2.5677e-07
2.6142e-07
2.6223e-07
2.6716e-07
2.65452e-07
2.74384e-07
2.38439e-07
2.38143e-07
2.38446e-07
2.39154e-07
2.37486e-07
2.40049e-07
2.37352e-07
2.45431e-07
2.07141e-07
2.06057e-07
2.05832e-07
2.07833e-07
2.0885e-07
2.13943e-07
2.1432e-07
2.23247e-07
1.86318e-07
1.8625e-07
1.84044e-07
1.83935e-07
1.83629e-07
1.88213e-07
1.88439e-07
1.96893e-07
1.56557e-07
1.58562e-07
1.60695e-07
1.64485e-07
1.67013e-07
1.72319e-07
1.72788e-07
1.78713e-07
1.38648e-07
1.38669e-07
1.39827e-07
1.43011e-07
1.45255e-07
1.49568e-07
1.5028e-07
1.56756e-07
1.23299e-07
1.27402e-07
1.30126e-07
1.32749e-07
1.33247e-07
1.35465e-07
1.343e-07
1.39052e-07
1.06042e-07
1.08997e-07
1.11321e-07
1.13297e-07
1.13158e-07
1.14509e-07
1.13296e-07
1.18251e-07
1.00103e-07
1.00521e-07
1.00709e-07
1.01315e-07
1.0051e-07
1.01215e-07
9.95542e-08
1.02828e-07
8.114e-08
8.1534e-08
8.18429e-08
8.23045e-08
8.15341e-08
8.1755e-08
8.05609e-08
8.41985e-08
7.1458e-08
7.16632e-08
7.2008e-08
7.23551e-08
7.14284e-08
7.13223e-08
6.94636e-08
7.19217e-08
5.37934e-08
5.47253e-08
5.47517e-08
5.52278e-08
5.49474e-08
5.52218e-08
5.36541e-08
5.46512e-08
4.53747e-08
4.6006e-08
4.67405e-08
4.7334e-08
4.68457e-08
4.64638e-08
4.48549e-08
4.52612e-08
2.75977e-08
2.80186e-08
2.90339e-08
3.01378e-08
3.03558e-08
3.0248e-08
2.92007e-08
2.95881e-08
1.23554e-08
1.13362e-08
1.11666e-08
1.25739e-08
1.5042e-08
1.77387e-08
1.97469e-08
2.11202e-08
1.06934e-07
1.07017e-07
1.053e-07
1.05249e-07
1.07783e-07
1.13069e-07
1.15718e-07
1.20599e-07
4.02143e-06
4.01022e-06
4.00523e-06
3.98256e-06
3.98886e-06
3.98009e-06
3.98791e-06
3.99972e-06
3.96468e-06
3.9597e-06
3.96352e-06
3.95842e-06
3.95449e-06
3.95991e-06
3.94583e-06
3.9618e-06
3.87898e-06
3.88543e-06
3.88991e-06
3.90288e-06
3.90351e-06
3.91629e-06
3.9084e-06
3.93253e-06
3.85375e-06
3.85235e-06
3.84924e-06
3.85108e-06
3.83887e-06
3.85169e-06
3.83687e-06
3.86956e-06
3.76927e-06
3.78321e-06
3.78227e-06
3.79939e-06
3.79373e-06
3.81308e-06
3.80212e-06
3.82732e-06
3.67121e-06
3.69201e-06
3.69795e-06
3.71979e-06
3.72381e-06
3.74412e-06
3.73493e-06
3.76537e-06
3.64708e-06
3.65202e-06
3.65855e-06
3.6772e-06
3.67335e-06
3.68686e-06
3.66895e-06
3.69318e-06
3.56957e-06
3.57134e-06
3.56403e-06
3.57018e-06
3.56322e-06
3.5802e-06
3.57517e-06
3.61686e-06
3.47947e-06
3.49393e-06
3.48711e-06
3.48483e-06
3.46645e-06
3.48442e-06
3.47927e-06
3.52676e-06
3.33843e-06
3.34226e-06
3.34247e-06
3.35985e-06
3.36658e-06
3.40266e-06
3.414e-06
3.46503e-06
3.23776e-06
3.23068e-06
3.22609e-06
3.24668e-06
3.2602e-06
3.2955e-06
3.29774e-06
3.34368e-06
3.07865e-06
3.11777e-06
3.14666e-06
3.18213e-06
3.19343e-06
3.22083e-06
3.21058e-06
3.24757e-06
2.96058e-06
2.99395e-06
3.02491e-06
3.0606e-06
3.06509e-06
3.08201e-06
3.05674e-06
3.09288e-06
2.91821e-06
2.92847e-06
2.93447e-06
2.95246e-06
2.94792e-06
2.96229e-06
2.93811e-06
2.97159e-06
2.73606e-06
2.74225e-06
2.74834e-06
2.76442e-06
2.75732e-06
2.76107e-06
2.72616e-06
2.75997e-06
2.58956e-06
2.59386e-06
2.60258e-06
2.6204e-06
2.61319e-06
2.61968e-06
2.5801e-06
2.61106e-06
2.31678e-06
2.33873e-06
2.34177e-06
2.35858e-06
2.35766e-06
2.37434e-06
2.34136e-06
2.36013e-06
2.12132e-06
2.13437e-06
2.15545e-06
2.18354e-06
2.18535e-06
2.18841e-06
2.14895e-06
2.15531e-06
1.67243e-06
1.6812e-06
1.7149e-06
1.7612e-06
1.77955e-06
1.78573e-06
1.7499e-06
1.76442e-06
1.06483e-06
9.96744e-07
9.6726e-07
1.0317e-06
1.15216e-06
1.27849e-06
1.36967e-06
1.43401e-06
1.03989e-05
1.05473e-05
1.06617e-05
1.08469e-05
1.11152e-05
1.14733e-05
1.17394e-05
1.21013e-05
8.75777e-06
8.74228e-06
8.76246e-06
8.71091e-06
8.73883e-06
8.7204e-06
8.74475e-06
8.78144e-06
8.64069e-06
8.64121e-06
8.66729e-06
8.6671e-06
8.66157e-06
8.68666e-06
8.65843e-06
8.6982e-06
8.46385e-06
8.48651e-06
8.50143e-06
8.54225e-06
8.55228e-06
8.59656e-06
8.58236e-06
8.64418e-06
8.42035e-06
8.43475e-06
8.43403e-06
8.45709e-06
8.42843e-06
8.46807e-06
8.43241e-06
8.50687e-06
8.25656e-06
8.304e-06
8.30311e-06
8.35673e-06
8.34524e-06
8.39786e-06
8.37512e-06
8.43451e-06
8.07672e-06
8.12813e-06
8.13724e-06
8.1886e-06
8.19736e-06
8.25937e-06
8.24287e-06
8.31785e-06
8.04152e-06
8.06319e-06
8.07487e-06
8.13093e-06
8.12426e-06
8.17201e-06
8.1368e-06
8.18985e-06
7.91016e-06
7.93376e-06
7.91992e-06
7.95028e-06
7.9345e-06
7.97811e-06
7.95768e-06
8.04554e-06
7.75693e-06
7.80406e-06
7.80206e-06
7.81977e-06
7.77301e-06
7.81156e-06
7.78156e-06
7.87303e-06
7.52935e-06
7.54782e-06
7.54265e-06
7.57951e-06
7.57416e-06
7.6498e-06
7.66339e-06
7.78076e-06
7.37001e-06
7.36633e-06
7.34324e-06
7.38113e-06
7.39029e-06
7.46936e-06
7.46712e-06
7.56995e-06
7.04722e-06
7.11901e-06
7.16844e-06
7.25686e-06
7.28291e-06
7.36099e-06
7.33985e-06
7.42235e-06
6.867e-06
6.92434e-06
6.97948e-06
7.07705e-06
7.096e-06
7.15737e-06
7.09797e-06
7.16161e-06
6.80282e-06
6.83747e-06
6.84983e-06
6.90816e-06
6.90383e-06
6.95677e-06
6.90071e-06
6.96787e-06
6.56018e-06
6.57548e-06
6.58232e-06
6.63057e-06
6.62046e-06
6.65603e-06
6.5739e-06
6.62372e-06
6.28267e-06
6.29635e-06
6.30594e-06
6.36021e-06
6.35446e-06
6.40484e-06
6.32408e-06
6.3741e-06
5.90777e-06
5.94666e-06
5.94662e-06
5.99052e-06
5.99167e-06
6.05593e-06
6.0017e-06
6.05832e-06
5.51694e-06
5.53139e-06
5.55227e-06
5.61923e-06
5.65427e-06
5.71723e-06
5.66724e-06
5.6887e-06
5.06555e-06
5.05047e-06
5.064e-06
5.13661e-06
5.19343e-06
5.25536e-06
5.21254e-06
5.24803e-06
4.47676e-06
4.3359e-06
4.11859e-06
4.07129e-06
4.17875e-06
4.35579e-06
4.49363e-06
4.6232e-06
1.22325e-05
1.24071e-05
1.25415e-05
1.2746e-05
1.30343e-05
1.34252e-05
1.37207e-05
1.41202e-05
1.46508e-05
1.46274e-05
1.47062e-05
1.46235e-05
1.46814e-05
1.46541e-05
1.46983e-05
1.47752e-05
1.44651e-05
1.44761e-05
1.45424e-05
1.4563e-05
1.45565e-05
1.4612e-05
1.45788e-05
1.46452e-05
1.41879e-05
1.42342e-05
1.42628e-05
1.43429e-05
1.43724e-05
1.44653e-05
1.4454e-05
1.45614e-05
1.41238e-05
1.41723e-05
1.41764e-05
1.42411e-05
1.41962e-05
1.42692e-05
1.42125e-05
1.433e-05
1.38702e-05
1.39695e-05
1.39716e-05
1.4078e-05
1.40669e-05
1.41614e-05
1.4135e-05
1.4233e-05
1.36074e-05
1.36925e-05
1.37124e-05
1.38017e-05
1.38136e-05
1.39323e-05
1.39188e-05
1.40442e-05
1.3557e-05
1.36034e-05
1.36159e-05
1.37292e-05
1.37258e-05
1.382e-05
1.37777e-05
1.38626e-05
1.33565e-05
1.34266e-05
1.34029e-05
1.34695e-05
1.34502e-05
1.35287e-05
1.34916e-05
1.36246e-05
1.31332e-05
1.32279e-05
1.32363e-05
1.32968e-05
1.32197e-05
1.32801e-05
1.3222e-05
1.33494e-05
1.28184e-05
1.28614e-05
1.28512e-05
1.29196e-05
1.28908e-05
1.30035e-05
1.30185e-05
1.32104e-05
1.25811e-05
1.26008e-05
1.25498e-05
1.26072e-05
1.26037e-05
1.27342e-05
1.27346e-05
1.2903e-05
1.20674e-05
1.21718e-05
1.22299e-05
1.23834e-05
1.2431e-05
1.25796e-05
1.25587e-05
1.26912e-05
1.18039e-05
1.18881e-05
1.19517e-05
1.21295e-05
1.21794e-05
1.23157e-05
1.22376e-05
1.23179e-05
1.1692e-05
1.17671e-05
1.17822e-05
1.1898e-05
1.19013e-05
1.20121e-05
1.19271e-05
1.2015e-05
1.14095e-05
1.14476e-05
1.14436e-05
1.15322e-05
1.15212e-05
1.16114e-05
1.14935e-05
1.15465e-05
1.0967e-05
1.1004e-05
1.10011e-05
1.10964e-05
1.10891e-05
1.12013e-05
1.10927e-05
1.11418e-05
1.0545e-05
1.05943e-05
1.05841e-05
1.0656e-05
1.06416e-05
1.07567e-05
1.07009e-05
1.08039e-05
9.93448e-06
9.95031e-06
9.95155e-06
1.00325e-05
1.00818e-05
1.02173e-05
1.01983e-05
1.02449e-05
9.92619e-06
9.88812e-06
9.83708e-06
9.85708e-06
9.88072e-06
9.96523e-06
9.92715e-06
9.96783e-06
9.89208e-06
9.75704e-06
9.26966e-06
8.94591e-06
8.86734e-06
8.98085e-06
9.06851e-06
9.20563e-06
1.37479e-05
1.39535e-05
1.41117e-05
1.43311e-05
1.46283e-05
1.50457e-05
1.53732e-05
1.58116e-05
2.1649e-05
2.16057e-05
2.17662e-05
2.16603e-05
2.1753e-05
2.17207e-05
2.1782e-05
2.19118e-05
2.1392e-05
2.14102e-05
2.15263e-05
2.15844e-05
2.15786e-05
2.16665e-05
2.16394e-05
2.17375e-05
2.10094e-05
2.10796e-05
2.11222e-05
2.12446e-05
2.13e-05
2.14543e-05
2.14575e-05
2.16141e-05
2.09169e-05
2.10089e-05
2.10181e-05
2.11393e-05
2.10873e-05
2.1197e-05
2.112e-05
2.12763e-05
2.0571e-05
2.07284e-05
2.07352e-05
2.09023e-05
2.09012e-05
2.10406e-05
2.10176e-05
2.11575e-05
2.02347e-05
2.03409e-05
2.03766e-05
2.05124e-05
2.05249e-05
2.07033e-05
2.07041e-05
2.08824e-05
2.01589e-05
2.02286e-05
2.0232e-05
2.04119e-05
2.04242e-05
2.05711e-05
2.05336e-05
2.06535e-05
1.98729e-05
2.00081e-05
1.99767e-05
2.0081e-05
2.00661e-05
2.01845e-05
2.01311e-05
2.0299e-05
1.9573e-05
1.97267e-05
1.97483e-05
1.98693e-05
1.97713e-05
1.98493e-05
1.97626e-05
1.99142e-05
1.91899e-05
1.9264e-05
1.92453e-05
1.93542e-05
1.92973e-05
1.94313e-05
1.94392e-05
1.97018e-05
1.88507e-05
1.89185e-05
1.88383e-05
1.89102e-05
1.88861e-05
1.90623e-05
1.90713e-05
1.93128e-05
1.81596e-05
1.82883e-05
1.83359e-05
1.85467e-05
1.86173e-05
1.88448e-05
1.88412e-05
1.90278e-05
1.77953e-05
1.79095e-05
1.79629e-05
1.82141e-05
1.83056e-05
1.85379e-05
1.84759e-05
1.85732e-05
1.76077e-05
1.77334e-05
1.7748e-05
1.79248e-05
1.79461e-05
1.81285e-05
1.80354e-05
1.81289e-05
1.73322e-05
1.74132e-05
1.73939e-05
1.75157e-05
1.75052e-05
1.76617e-05
1.75381e-05
1.75849e-05
1.67271e-05
1.68015e-05
1.67805e-05
1.69048e-05
1.68942e-05
1.70692e-05
1.6965e-05
1.69895e-05
1.63803e-05
1.64345e-05
1.64031e-05
1.65026e-05
1.64609e-05
1.65931e-05
1.65562e-05
1.67072e-05
1.56272e-05
1.56403e-05
1.56109e-05
1.56783e-05
1.57095e-05
1.58818e-05
1.59254e-05
1.60103e-05
1.65718e-05
1.65264e-05
1.6414e-05
1.63239e-05
1.62125e-05
1.6209e-05
1.6139e-05
1.61383e-05
1.70716e-05
1.70521e-05
1.63431e-05
1.57092e-05
1.53462e-05
1.53375e-05
1.53117e-05
1.54104e-05
1.50775e-05
1.53146e-05
1.55022e-05
1.57395e-05
1.60405e-05
1.64774e-05
1.68361e-05
1.73106e-05
2.98625e-05
2.97847e-05
3.00338e-05
2.99156e-05
3.0046e-05
3.00131e-05
3.00851e-05
3.02754e-05
2.95334e-05
2.95508e-05
2.97151e-05
2.98248e-05
2.98242e-05
2.99393e-05
2.9923e-05
3.00607e-05
2.90448e-05
2.91322e-05
2.91858e-05
2.9347e-05
2.9427e-05
2.96491e-05
2.96777e-05
2.98877e-05
2.89103e-05
2.90464e-05
2.90566e-05
2.92396e-05
2.91926e-05
2.93452e-05
2.92486e-05
2.94376e-05
2.84737e-05
2.86836e-05
2.86938e-05
2.8921e-05
2.89389e-05
2.91258e-05
2.9108e-05
2.92916e-05
2.80747e-05
2.81828e-05
2.82291e-05
2.84189e-05
2.84316e-05
2.86657e-05
2.86863e-05
2.89219e-05
2.79558e-05
2.80436e-05
2.80234e-05
2.82657e-05
2.83054e-05
2.85112e-05
2.84879e-05
2.86497e-05
2.75673e-05
2.77746e-05
2.7743e-05
2.78807e-05
2.78749e-05
2.80394e-05
2.79715e-05
2.81635e-05
2.71773e-05
2.73956e-05
2.74319e-05
2.76226e-05
2.75207e-05
2.76158e-05
2.74989e-05
2.76634e-05
2.67479e-05
2.68619e-05
2.68303e-05
2.69834e-05
2.69018e-05
2.70413e-05
2.70233e-05
2.73402e-05
2.62772e-05
2.64152e-05
2.63175e-05
2.63993e-05
2.63471e-05
2.65556e-05
2.65679e-05
2.68898e-05
2.54541e-05
2.55955e-05
2.56135e-05
2.58587e-05
2.59438e-05
2.62469e-05
2.6273e-05
2.65237e-05
2.49706e-05
2.51123e-05
2.51457e-05
2.54477e-05
2.5577e-05
2.59105e-05
2.59004e-05
2.60389e-05
2.46772e-05
2.48531e-05
2.48679e-05
2.5098e-05
2.51436e-05
2.54032e-05
2.53309e-05
2.54319e-05
2.44631e-05
2.4598e-05
2.45758e-05
2.47165e-05
2.47006e-05
2.49193e-05
2.48259e-05
2.48773e-05
2.3733e-05
2.38491e-05
2.38184e-05
2.39506e-05
2.39319e-05
2.41535e-05
2.40905e-05
2.40863e-05
2.35877e-05
2.36481e-05
2.35839e-05
2.37029e-05
2.36425e-05
2.37402e-05
2.37217e-05
2.39125e-05
2.28669e-05
2.28701e-05
2.28031e-05
2.28432e-05
2.28325e-05
2.29819e-05
2.30794e-05
2.32159e-05
2.49374e-05
2.48945e-05
2.47617e-05
2.45938e-05
2.4305e-05
2.41089e-05
2.39189e-05
2.38122e-05
2.50733e-05
2.51815e-05
2.43356e-05
2.35446e-05
2.30024e-05
2.30046e-05
2.29256e-05
2.30457e-05
1.628e-05
1.65439e-05
1.67644e-05
1.7028e-05
1.73353e-05
1.77876e-05
1.81765e-05
1.86833e-05
3.94231e-05
3.93015e-05
3.96323e-05
3.95098e-05
3.96818e-05
3.96533e-05
3.97309e-05
3.99856e-05
3.90196e-05
3.90304e-05
3.9233e-05
3.94021e-05
3.94154e-05
3.95514e-05
3.95416e-05
3.97277e-05
3.84235e-05
3.85212e-05
3.85814e-05
3.87771e-05
3.88738e-05
3.91632e-05
3.92244e-05
3.9496e-05
3.82277e-05
3.84052e-05
3.84098e-05
3.86514e-05
3.86178e-05
3.88248e-05
3.87128e-05
3.89314e-05
3.77023e-05
3.79554e-05
3.79651e-05
3.82463e-05
3.8287e-05
3.85278e-05
3.85133e-05
3.87403e-05
3.72449e-05
3.73425e-05
3.73852e-05
3.76326e-05
3.76473e-05
3.79327e-05
3.79719e-05
3.82708e-05
3.7059e-05
3.7164e-05
3.71071e-05
3.73967e-05
3.74669e-05
3.77393e-05
3.77367e-05
3.79521e-05
3.65559e-05
3.68306e-05
3.68084e-05
3.69761e-05
3.69791e-05
3.71977e-05
3.71216e-05
3.73327e-05
3.60581e-05
3.63382e-05
3.63897e-05
3.66513e-05
3.65642e-05
3.66857e-05
3.65396e-05
3.67086e-05
3.55977e-05
3.57648e-05
3.57203e-05
3.59166e-05
3.58188e-05
3.59565e-05
3.58924e-05
3.62336e-05
3.49714e-05
3.51923e-05
3.50995e-05
3.51948e-05
3.51101e-05
3.53357e-05
3.53344e-05
3.57316e-05
3.40906e-05
3.42316e-05
3.42048e-05
3.44547e-05
3.45349e-05
3.48987e-05
3.49559e-05
3.52779e-05
3.34787e-05
3.36337e-05
3.36457e-05
3.39723e-05
3.41226e-05
3.45426e-05
3.46059e-05
3.48197e-05
3.30528e-05
3.32663e-05
3.3285e-05
3.35551e-05
3.36251e-05
3.39567e-05
3.39312e-05
3.40559e-05
3.29653e-05
3.31447e-05
3.31429e-05
3.32926e-05
3.32614e-05
3.3519e-05
3.34847e-05
3.35651e-05
3.21898e-05
3.23361e-05
3.23136e-05
3.24333e-05
3.24008e-05
3.26375e-05
3.26431e-05
3.26271e-05
3.23377e-05
3.24081e-05
3.23081e-05
3.24241e-05
3.23665e-05
3.23905e-05
3.23725e-05
3.25777e-05
3.18614e-05
3.18535e-05
3.17401e-05
3.17584e-05
3.16999e-05
3.17878e-05
3.18976e-05
3.20883e-05
3.46801e-05
3.46424e-05
3.45193e-05
3.43827e-05
3.39742e-05
3.35875e-05
3.31943e-05
3.29309e-05
3.28998e-05
3.30428e-05
3.20604e-05
3.13297e-05
3.08543e-05
3.11918e-05
3.12682e-05
3.16237e-05
1.73826e-05
1.76655e-05
1.79165e-05
1.82146e-05
1.85375e-05
1.90056e-05
1.94254e-05
1.99615e-05
5.04425e-05
5.02774e-05
5.06792e-05
5.05542e-05
5.07739e-05
5.07556e-05
5.08387e-05
5.11609e-05
4.99603e-05
4.99665e-05
5.01951e-05
5.04243e-05
5.04634e-05
5.06193e-05
5.0606e-05
5.0848e-05
4.92538e-05
4.9361e-05
4.94247e-05
4.96542e-05
4.97579e-05
5.01088e-05
5.02028e-05
5.05482e-05
4.89744e-05
4.91933e-05
4.91876e-05
4.94799e-05
4.9461e-05
4.97357e-05
4.96181e-05
4.98707e-05
4.83636e-05
4.86526e-05
4.86585e-05
4.89861e-05
4.90463e-05
4.93502e-05
4.93386e-05
4.96071e-05
4.78439e-05
4.79336e-05
4.79568e-05
4.82598e-05
4.82785e-05
4.86133e-05
4.86662e-05
4.90324e-05
4.75647e-05
4.76947e-05
4.75953e-05
4.79133e-05
4.80051e-05
4.83494e-05
4.83717e-05
4.86549e-05
4.69485e-05
4.72783e-05
4.72729e-05
4.74713e-05
4.74794e-05
4.77579e-05
4.7684e-05
4.79189e-05
4.63296e-05
4.66604e-05
4.67247e-05
4.70511e-05
4.6994e-05
4.71591e-05
4.69926e-05
4.71644e-05
4.58469e-05
4.60803e-05
4.60306e-05
4.62666e-05
4.61621e-05
4.63001e-05
4.61787e-05
4.65064e-05
4.50598e-05
4.53615e-05
4.5299e-05
4.54219e-05
4.53079e-05
4.55372e-05
4.55019e-05
4.59486e-05
4.42201e-05
4.43481e-05
4.42666e-05
4.44901e-05
4.45389e-05
4.49366e-05
4.50154e-05
4.5402e-05
4.34907e-05
4.36347e-05
4.3625e-05
4.39517e-05
4.41005e-05
4.45732e-05
4.47114e-05
4.50221e-05
4.29192e-05
4.31463e-05
4.31735e-05
4.34678e-05
4.35586e-05
4.3944e-05
4.39817e-05
4.41483e-05
4.30336e-05
4.32261e-05
4.32652e-05
4.34223e-05
4.33717e-05
4.36279e-05
4.36661e-05
4.37963e-05
4.23308e-05
4.24845e-05
4.24873e-05
4.25806e-05
4.25329e-05
4.27463e-05
4.28256e-05
4.2825e-05
4.27859e-05
4.28623e-05
4.27416e-05
4.28248e-05
4.27816e-05
4.27221e-05
4.26882e-05
4.28725e-05
4.26757e-05
4.26759e-05
4.25069e-05
4.2533e-05
4.24287e-05
4.24703e-05
4.25501e-05
4.27952e-05
4.52867e-05
4.52713e-05
4.51499e-05
4.51762e-05
4.47689e-05
4.43365e-05
4.37253e-05
4.33123e-05
3.97533e-05
3.98353e-05
3.85839e-05
3.80433e-05
3.78771e-05
3.89588e-05
3.95095e-05
4.04549e-05
1.83986e-05
1.86944e-05
1.89671e-05
1.93018e-05
1.96505e-05
2.01391e-05
2.05926e-05
2.11565e-05
6.30161e-05
6.28169e-05
6.32825e-05
6.31534e-05
6.34274e-05
6.34254e-05
6.35192e-05
6.39138e-05
6.24522e-05
6.24627e-05
6.27086e-05
6.29918e-05
6.30685e-05
6.32511e-05
6.32242e-05
6.35271e-05
6.16331e-05
6.17566e-05
6.18232e-05
6.209e-05
6.21943e-05
6.25986e-05
6.27176e-05
6.31478e-05
6.12492e-05
6.15126e-05
6.14968e-05
6.18328e-05
6.18239e-05
6.21756e-05
6.20649e-05
6.23644e-05
6.056e-05
6.08821e-05
6.08826e-05
6.12506e-05
6.13207e-05
6.16948e-05
6.16894e-05
6.19998e-05
5.99702e-05
6.00683e-05
6.00617e-05
6.04142e-05
6.04371e-05
6.08207e-05
6.08819e-05
6.13144e-05
5.95742e-05
5.97421e-05
5.96054e-05
5.99366e-05
6.00317e-05
6.04456e-05
6.04933e-05
6.08562e-05
5.88656e-05
5.92358e-05
5.92492e-05
5.94818e-05
5.94905e-05
5.98291e-05
5.97671e-05
6.00375e-05
5.81264e-05
5.84915e-05
5.85622e-05
5.89392e-05
5.89197e-05
5.91461e-05
5.8976e-05
5.91589e-05
5.76327e-05
5.79376e-05
5.78971e-05
5.81673e-05
5.80638e-05
5.82081e-05
5.80324e-05
5.83127e-05
5.67101e-05
5.70734e-05
5.70594e-05
5.72282e-05
5.70976e-05
5.73205e-05
5.72369e-05
5.76885e-05
5.60234e-05
5.61273e-05
5.59876e-05
5.61561e-05
5.61465e-05
5.65396e-05
5.66229e-05
5.7048e-05
5.52096e-05
5.53169e-05
5.5282e-05
5.55846e-05
5.57116e-05
5.61891e-05
5.63859e-05
5.67865e-05
5.45078e-05
5.47166e-05
5.47552e-05
5.50575e-05
5.51649e-05
5.55748e-05
5.56795e-05
5.58968e-05
5.48919e-05
5.50557e-05
5.51412e-05
5.5307e-05
5.52477e-05
5.54562e-05
5.55607e-05
5.57441e-05
5.43938e-05
5.4533e-05
5.45692e-05
5.46302e-05
5.45735e-05
5.47363e-05
5.48669e-05
5.49046e-05
5.50387e-05
5.51037e-05
5.49942e-05
5.50333e-05
5.49855e-05
5.48628e-05
5.48135e-05
5.49586e-05
5.5172e-05
5.52283e-05
5.50001e-05
5.50965e-05
5.49417e-05
5.50119e-05
5.50523e-05
5.538e-05
5.61472e-05
5.6211e-05
5.60493e-05
5.63488e-05
5.60611e-05
5.58318e-05
5.50861e-05
5.46273e-05
4.50844e-05
4.51728e-05
4.34427e-05
4.30222e-05
4.32527e-05
4.54139e-05
4.67831e-05
4.87436e-05
1.93349e-05
1.96445e-05
1.99289e-05
2.02928e-05
2.06719e-05
2.11854e-05
2.16764e-05
2.22679e-05
7.72394e-05
7.70193e-05
7.75467e-05
7.74121e-05
7.7747e-05
7.77672e-05
7.78791e-05
7.83528e-05
7.65953e-05
7.66212e-05
7.68809e-05
7.72077e-05
7.73299e-05
7.75516e-05
7.75053e-05
7.78725e-05
7.56648e-05
7.58159e-05
7.58872e-05
7.61975e-05
7.63005e-05
7.67507e-05
7.68812e-05
7.74006e-05
7.51597e-05
7.54713e-05
7.54505e-05
7.58263e-05
7.58206e-05
7.62525e-05
7.61592e-05
7.65223e-05
7.44067e-05
7.47605e-05
7.47556e-05
7.51604e-05
7.52276e-05
7.56727e-05
7.5678e-05
7.60343e-05
7.37393e-05
7.38696e-05
7.38315e-05
7.42252e-05
7.42504e-05
7.46809e-05
7.47463e-05
7.52388e-05
7.32114e-05
7.34288e-05
7.32688e-05
7.36062e-05
7.36838e-05
7.41552e-05
7.42239e-05
7.46694e-05
7.24518e-05
7.2847e-05
7.28756e-05
7.31453e-05
7.31513e-05
7.35432e-05
7.34982e-05
7.38145e-05
7.16142e-05
7.19954e-05
7.20635e-05
7.24686e-05
7.24847e-05
7.27824e-05
7.26277e-05
7.28375e-05
7.11355e-05
7.15013e-05
7.14862e-05
7.17838e-05
7.16863e-05
7.18403e-05
7.1625e-05
7.18369e-05
7.01416e-05
7.05315e-05
7.05693e-05
7.07949e-05
7.06678e-05
7.08747e-05
7.07412e-05
7.11444e-05
6.97111e-05
6.97825e-05
6.95894e-05
6.96805e-05
6.95917e-05
6.99337e-05
7.00009e-05
7.04214e-05
6.88598e-05
6.89137e-05
6.88492e-05
6.91019e-05
6.91941e-05
6.96224e-05
6.98515e-05
7.03025e-05
6.80828e-05
6.82406e-05
6.82905e-05
6.85856e-05
6.87082e-05
6.91076e-05
6.92717e-05
6.9534e-05
6.876e-05
6.8862e-05
6.89808e-05
6.91512e-05
6.91101e-05
6.92376e-05
6.9386e-05
6.96052e-05
6.85552e-05
6.8676e-05
6.87431e-05
6.87768e-05
6.87199e-05
6.884e-05
6.89796e-05
6.90666e-05
6.90878e-05
6.91163e-05
6.90521e-05
6.90861e-05
6.89818e-05
6.88364e-05
6.87897e-05
6.89306e-05
6.89779e-05
6.9167e-05
6.88851e-05
6.91552e-05
6.89314e-05
6.91446e-05
6.91823e-05
6.96882e-05
6.66122e-05
6.68647e-05
6.66116e-05
6.72522e-05
6.71457e-05
6.73919e-05
6.66774e-05
6.63878e-05
4.85862e-05
4.90254e-05
4.67104e-05
4.61374e-05
4.65871e-05
4.99257e-05
5.2363e-05
5.57227e-05
2.01974e-05
2.05289e-05
2.08211e-05
2.12011e-05
2.16056e-05
2.21419e-05
2.2672e-05
2.32904e-05
9.32135e-05
9.29853e-05
9.35753e-05
9.34357e-05
9.38378e-05
9.38848e-05
9.40226e-05
9.45811e-05
9.24975e-05
9.25472e-05
9.28212e-05
9.31787e-05
9.33483e-05
9.36226e-05
9.35561e-05
9.39901e-05
9.14626e-05
9.16533e-05
9.17314e-05
9.20909e-05
9.21945e-05
9.26852e-05
9.28113e-05
9.34144e-05
9.08264e-05
9.11861e-05
9.11678e-05
9.15829e-05
9.15752e-05
9.20838e-05
9.20141e-05
9.24548e-05
9.00337e-05
9.04171e-05
9.04061e-05
9.08453e-05
9.08965e-05
9.1405e-05
9.14227e-05
9.18306e-05
8.92869e-05
8.94725e-05
8.941e-05
8.98358e-05
8.98596e-05
9.03305e-05
9.0397e-05
9.09386e-05
8.8625e-05
8.88962e-05
8.87317e-05
8.9076e-05
8.91197e-05
8.96269e-05
8.97078e-05
9.02262e-05
8.78748e-05
8.82793e-05
8.83146e-05
8.86193e-05
8.86217e-05
8.90532e-05
8.90253e-05
8.93878e-05
8.69877e-05
8.7367e-05
8.74244e-05
8.7828e-05
8.7868e-05
8.82327e-05
8.81086e-05
8.83594e-05
8.65738e-05
8.69713e-05
8.69937e-05
8.7309e-05
8.72204e-05
8.73805e-05
8.71457e-05
8.7283e-05
8.56149e-05
8.59861e-05
8.60623e-05
8.63373e-05
8.62331e-05
8.64111e-05
8.62392e-05
8.65432e-05
8.5504e-05
8.5539e-05
8.53074e-05
8.53095e-05
8.51349e-05
8.53778e-05
8.54092e-05
8.57726e-05
8.46572e-05
8.46572e-05
8.45652e-05
8.4744e-05
8.47981e-05
8.51286e-05
8.53636e-05
8.58023e-05
8.38936e-05
8.39776e-05
8.40366e-05
8.4315e-05
8.4457e-05
8.48157e-05
8.50227e-05
8.53138e-05
8.47934e-05
8.48302e-05
8.49591e-05
8.51208e-05
8.51305e-05
8.51797e-05
8.53426e-05
8.55697e-05
8.48412e-05
8.49738e-05
8.50637e-05
8.50924e-05
8.50359e-05
8.51759e-05
8.52819e-05
8.54243e-05
8.47346e-05
8.47154e-05
8.47095e-05
8.4848e-05
8.4621e-05
8.45039e-05
8.44808e-05
8.47309e-05
8.35043e-05
8.39235e-05
8.35994e-05
8.41854e-05
8.38681e-05
8.43423e-05
8.44437e-05
8.53148e-05
7.6075e-05
7.66648e-05
7.62922e-05
7.73023e-05
7.73561e-05
7.82851e-05
7.77935e-05
7.79756e-05
5.02517e-05
5.15409e-05
4.88581e-05
4.78333e-05
4.80604e-05
5.23202e-05
5.58514e-05
6.0828e-05
2.0995e-05
2.13566e-05
2.16622e-05
2.20479e-05
2.24662e-05
2.30146e-05
2.35791e-05
2.42208e-05
0.000111039
0.000110814
0.000111465
0.000111323
0.000111798
0.000111875
0.000112046
0.00011269
0.000110269
0.000110345
0.000110635
0.000111008
0.000111221
0.000111558
0.000111474
0.000111977
0.000109145
0.000109385
0.000109472
0.000109882
0.000109989
0.000110516
0.000110622
0.000111293
0.000108377
0.000108779
0.00010877
0.000109224
0.000109213
0.000109789
0.000109745
0.000110269
0.000107582
0.000107989
0.000107969
0.000108438
0.000108463
0.000109018
0.000109045
0.000109506
0.000106764
0.000107021
0.000106948
0.000107395
0.000107413
0.000107911
0.000107975
0.000108549
0.000105985
0.000106303
0.000106153
0.000106508
0.000106511
0.000107025
0.000107106
0.000107674
0.000105321
0.000105717
0.000105747
0.000106076
0.000106076
0.000106526
0.000106513
0.000106906
0.000104466
0.000104824
0.000104866
0.000105235
0.000105281
0.00010569
0.000105604
0.000105896
0.000104191
0.000104574
0.000104636
0.000104955
0.000104877
0.000105031
0.000104797
0.000104863
0.000103406
0.000103713
0.000103802
0.000104094
0.000104024
0.000104151
0.000103961
0.000104127
0.000103601
0.000103602
0.000103358
0.000103275
0.00010303
0.000103137
0.000103118
0.000103375
0.000102766
0.00010273
0.000102627
0.00010272
0.000102745
0.000102949
0.000103174
0.000103535
0.000102102
0.000102114
0.00010218
0.000102445
0.000102618
0.000102929
0.000103159
0.000103464
0.000103008
0.000103021
0.000103142
0.000103281
0.000103363
0.000103392
0.000103545
0.000103767
0.000103045
0.000103262
0.000103371
0.000103446
0.00010337
0.000103651
0.000103704
0.000103927
0.00010154
0.000101505
0.000101532
0.000101948
0.00010155
0.000101519
0.000101522
0.000102072
9.80143e-05
9.87702e-05
9.84126e-05
9.94807e-05
9.90567e-05
9.98805e-05
0.0001001
0.000101601
8.40793e-05
8.51499e-05
8.46716e-05
8.60619e-05
8.61844e-05
8.78731e-05
8.77461e-05
8.87254e-05
5.04741e-05
5.29048e-05
5.03878e-05
4.88661e-05
4.83625e-05
5.29577e-05
5.73015e-05
6.38443e-05
2.17403e-05
2.21322e-05
2.24615e-05
2.28506e-05
2.32729e-05
2.38183e-05
2.44061e-05
2.50627e-05
0.000130809
0.000130594
0.000131302
0.00013116
0.00013171
0.000131817
0.000132029
0.000132753
0.000130015
0.000130114
0.000130419
0.000130791
0.000131037
0.000131439
0.000131344
0.000131913
0.000128831
0.000129123
0.00012922
0.000129676
0.000129789
0.000130344
0.000130418
0.000131128
0.000127943
0.000128374
0.000128377
0.000128867
0.000128854
0.000129481
0.000129463
0.000130064
0.000127197
0.000127618
0.000127586
0.000128072
0.000128063
0.000128642
0.000128667
0.000129176
0.000126335
0.000126666
0.000126601
0.000127055
0.000127062
0.000127567
0.000127622
0.000128205
0.000125478
0.000125823
0.000125704
0.000126072
0.000126038
0.000126524
0.000126594
0.000127173
0.000124992
0.000125356
0.000125369
0.000125701
0.000125698
0.000126138
0.000126136
0.00012653
0.000124284
0.000124596
0.000124624
0.000124928
0.000124962
0.000125373
0.000125323
0.000125635
0.000124237
0.000124549
0.000124639
0.000124939
0.000124876
0.000125006
0.000124787
0.00012479
0.000123763
0.000123973
0.000124048
0.000124308
0.000124265
0.000124311
0.000124121
0.000124131
0.000124134
0.000124113
0.000123893
0.000123752
0.000123477
0.000123438
0.000123368
0.000123487
0.000123245
0.000123203
0.000123124
0.000123147
0.000123165
0.000123257
0.000123475
0.000123722
0.000122692
0.000122669
0.000122748
0.000123027
0.000123246
0.000123549
0.000123787
0.000124118
0.000123203
0.000123279
0.0001234
0.000123524
0.000123668
0.000123796
0.000123935
0.000124188
0.000122675
0.000123089
0.000123227
0.000123443
0.000123301
0.000123889
0.000123908
0.000124286
0.000118821
0.000118869
0.000118864
0.000119763
0.00011919
0.000119317
0.000119311
0.000120396
0.000111725
0.000112924
0.000112528
0.00011424
0.000113729
0.000114947
0.000115283
0.000117699
9.03985e-05
9.20389e-05
9.14999e-05
9.32835e-05
9.33627e-05
9.5744e-05
9.60092e-05
9.80441e-05
4.99229e-05
5.33601e-05
5.15321e-05
4.9808e-05
4.83071e-05
5.25575e-05
5.71793e-05
6.49454e-05
2.24446e-05
2.28586e-05
2.3218e-05
2.36148e-05
2.40392e-05
2.45698e-05
2.51677e-05
2.58274e-05
0.000152603
0.000152405
0.000153156
0.000153018
0.00015364
0.000153773
0.000154032
0.000154816
0.000151835
0.000151944
0.000152258
0.00015261
0.000152873
0.00015333
0.00015323
0.000153859
0.000150635
0.000150976
0.000151082
0.000151568
0.000151686
0.000152257
0.000152289
0.000153002
0.000149661
0.000150099
0.000150115
0.000150627
0.000150618
0.00015127
0.000151276
0.00015193
0.000149032
0.000149451
0.000149403
0.000149883
0.000149838
0.000150407
0.000150419
0.000150953
0.000148174
0.000148565
0.000148528
0.000148973
0.000148963
0.000149439
0.00014948
0.000150035
0.000147312
0.00014765
0.000147573
0.000147947
0.000147892
0.000148312
0.000148359
0.0001489
0.000147097
0.0001474
0.000147385
0.000147689
0.000147679
0.000148073
0.00014808
0.000148431
0.000146678
0.000146915
0.000146933
0.000147147
0.000147158
0.000147513
0.00014749
0.000147776
0.000146925
0.00014712
0.000147212
0.000147466
0.000147423
0.000147508
0.000147315
0.00014726
0.000146839
0.000146951
0.000146999
0.00014717
0.000147135
0.000147064
0.000146888
0.000146749
0.000147103
0.000147086
0.000146935
0.00014679
0.000146548
0.000146405
0.000146302
0.000146293
0.000145972
0.000145963
0.000145957
0.000145971
0.000146019
0.000146073
0.000146314
0.000146478
0.000145378
0.000145397
0.000145509
0.000145866
0.000146147
0.000146548
0.000146797
0.000147219
0.000144891
0.000145153
0.000145315
0.000145481
0.000145644
0.000146042
0.000146189
0.000146588
0.000142963
0.000143712
0.000143907
0.000144403
0.000144136
0.000145204
0.000145246
0.000145929
0.000135711
0.000136011
0.000135886
0.000137455
0.000136764
0.000137137
0.000137047
0.000138891
0.000123914
0.000125655
0.000125199
0.000127673
0.000127141
0.000128766
0.000129132
0.000132686
9.50305e-05
9.7256e-05
9.67038e-05
9.88956e-05
9.88564e-05
0.000101765
0.000102322
0.000105524
4.91787e-05
5.32105e-05
5.23116e-05
5.08033e-05
4.83922e-05
5.18236e-05
5.61413e-05
6.45896e-05
2.31135e-05
2.35395e-05
2.39281e-05
2.43376e-05
2.47688e-05
2.52813e-05
2.58796e-05
2.65307e-05
0.00017649
0.000176311
0.000177079
0.000176948
0.00017763
0.000177779
0.000178086
0.000178894
0.000175818
0.000175914
0.000176227
0.000176534
0.000176793
0.00017728
0.000177183
0.000177851
0.000174672
0.000175041
0.000175156
0.000175646
0.000175763
0.000176324
0.000176312
0.000176976
0.000173671
0.000174088
0.000174111
0.000174619
0.000174619
0.000175255
0.000175282
0.000175945
0.000173245
0.000173634
0.000173571
0.000174011
0.000173929
0.000174446
0.000174431
0.000174952
0.000172463
0.000172876
0.000172884
0.000173298
0.000173267
0.00017367
0.000173685
0.000174164
0.000171695
0.000171982
0.000171952
0.000172312
0.000172259
0.000172576
0.000172598
0.000173038
0.000171835
0.000172039
0.000171993
0.000172227
0.000172207
0.000172509
0.000172523
0.000172782
0.000171841
0.000171968
0.000171981
0.000172096
0.000172089
0.00017233
0.000172315
0.000172511
0.000172369
0.00017243
0.000172497
0.000172675
0.000172657
0.000172689
0.000172525
0.00017242
0.000172596
0.000172656
0.000172691
0.000172744
0.000172682
0.00017248
0.000172314
0.000172068
0.000172286
0.00017232
0.00017229
0.00017223
0.000172096
0.000171957
0.000171865
0.000171807
0.000170562
0.000170628
0.000170746
0.000170873
0.000170995
0.000171164
0.000171485
0.000171698
0.000169539
0.000169707
0.000169887
0.000170435
0.000170787
0.000171465