/*--------------------------------*- C++ -*----------------------------------*\
  =========                 |
  \\      /  F ield         | OpenFOAM: The Open Source CFD Toolbox
   \\    /   O peration     | Website:  https://openfoam.org
    \\  /    A nd           | Version:  6
     \\/     M anipulation  |
\*---------------------------------------------------------------------------*/
FoamFile
{
    version     2.0;
    format      ascii;
    class       volScalarField;
    location    "0.8";
    object      omega;
}
// * * * * * * * * * * * * * * * * * * * * * * * * * * * * * * * * * * * * * //

dimensions      [0 0 -1 0 0 0 0];

internalField   nonuniform List<scalar> 
63400
(
843.917
843.917
843.917
843.917
843.917
843.917
843.917
843.917
843.917
843.917
843.917
843.917
843.917
843.917
843.917
843.917
843.917
843.917
843.917
843.917
843.917
843.917
843.917
843.917
843.917
843.917
843.917
843.917
843.917
843.917
843.917
843.917
843.917
843.917
843.917
843.917
843.917
843.917
843.917
843.917
843.917
843.917
843.917
843.917
843.917
843.917
843.917
843.917
843.917
843.917
843.917
843.917
843.917
843.917
843.917
843.917
843.917
843.917
843.917
843.917
843.917
843.917
843.917
843.917
843.917
843.917
843.917
843.917
843.917
843.917
843.917
843.917
843.917
843.917
843.917
843.917
843.917
843.917
843.917
843.917
843.917
843.917
843.917
843.917
843.917
843.917
843.917
843.917
843.917
843.917
843.917
843.917
843.917
843.917
843.917
843.917
843.917
843.917
843.917
843.917
843.917
843.917
843.917
843.917
843.917
843.917
843.917
843.917
843.917
843.917
843.917
843.917
843.917
843.917
843.917
843.917
843.917
843.917
843.917
843.917
843.917
843.917
843.917
843.917
843.917
843.917
843.917
843.917
843.917
843.917
843.917
843.917
843.917
843.917
843.917
843.917
843.917
843.917
843.917
843.917
843.917
843.917
843.917
843.917
843.917
843.917
843.917
843.917
843.917
843.917
843.917
843.917
843.917
843.917
843.917
843.917
843.917
843.917
843.917
843.917
425.852
425.783
425.68
425.607
425.577
425.586
425.546
425.537
266.949
266.808
266.661
266.487
266.223
266.055
265.913
265.738
266.587
266.452
266.301
266.169
266.027
265.912
265.926
265.663
266.094
265.96
265.843
265.741
265.693
265.579
265.583
265.335
265.646
265.645
265.607
265.53
265.443
265.235
265.202
264.895
264.956
264.862
264.843
264.754
264.746
264.659
264.792
264.6
264.133
263.997
264.082
264.14
264.223
264.178
264.245
263.957
263.567
263.48
263.474
263.589
263.752
263.689
263.707
263.349
262.971
263.051
262.96
262.761
262.64
262.444
262.479
262.231
261.859
261.963
262.012
261.831
261.569
261.286
261.443
261.345
260.59
260.367
260.169
260.026
260.012
260.016
260.415
260.51
259.157
258.945
258.657
258.557
258.777
259.001
259.4
259.281
256.505
256.792
257.157
257.48
257.834
257.995
258.279
257.991
255.03
255.394
255.829
256.253
256.619
256.643
256.692
256.105
254.424
254.473
254.575
254.715
254.901
254.843
254.896
254.357
252.363
252.364
252.348
252.471
252.67
252.51
252.258
251.386
249.865
249.873
249.903
250.08
250.291
250.115
249.879
248.981
245.905
245.944
246.286
246.412
246.387
246.29
246.382
245.584
242.28
242.291
242.691
243.216
243.418
243.073
242.686
241.664
232.487
232.823
233.476
234.376
234.942
234.742
234.231
233.207
211.971
212.631
212.348
212.899
215.321
218.916
222.225
224.514
13.8216
13.5199
13.162
12.8794
12.672
12.5293
12.2602
12.07
130.333
130.24
130.117
129.969
129.827
129.689
129.595
129.487
129.914
129.819
129.725
129.618
129.524
129.44
129.4
129.281
129.339
129.273
129.21
129.161
129.122
129.068
129.052
128.957
128.895
128.89
128.879
128.835
128.771
128.678
128.615
128.5
128.234
128.2
128.187
128.179
128.165
128.155
128.2
128.151
127.482
127.437
127.472
127.562
127.637
127.657
127.686
127.605
126.998
126.965
126.984
127.092
127.215
127.239
127.224
127.064
126.487
126.545
126.512
126.412
126.325
126.239
126.245
126.177
125.584
125.727
125.796
125.715
125.526
125.351
125.378
125.405
124.594
124.489
124.357
124.277
124.265
124.315
124.568
124.768
123.563
123.456
123.269
123.193
123.301
123.47
123.716
123.791
121.452
121.678
121.978
122.272
122.548
122.744
122.963
122.938
120.437
120.697
121.07
121.442
121.718
121.792
121.803
121.563
119.93
120
120.122
120.285
120.453
120.517
120.596
120.409
118.6
118.631
118.681
118.812
118.971
118.92
118.725
118.236
116.615
116.642
116.723
116.918
117.158
117.201
117.092
116.632
113.904
114
114.233
114.472
114.638
114.691
114.714
114.284
110.849
110.872
111.188
111.771
112.227
112.265
112.051
111.455
103.342
103.567
104.155
105.09
105.873
106.098
105.863
105.313
89.3695
89.6687
89.9501
90.5814
92.0459
94.2684
96.5018
98.3236
16.2545
15.9003
15.4788
15.13
14.8558
14.6583
14.3278
14.0829
78.426
78.3982
78.3501
78.2404
78.1794
78.0857
78.0352
77.9906
78.0571
78.0255
78.0007
77.9425
77.8928
77.8584
77.8127
77.7746
77.5691
77.5643
77.548
77.5472
77.5336
77.529
77.5182
77.5198
77.2034
77.2349
77.2495
77.2474
77.2037
77.1865
77.1326
77.1254
76.6659
76.6968
76.7032
76.7453
76.7418
76.7778
76.7918
76.8148
76.0691
76.0939
76.1131
76.1967
76.2635
76.3325
76.3534
76.3906
75.6855
75.7079
75.7421
75.8445
75.9286
76.0078
76.0022
75.9688
75.2587
75.3239
75.3237
75.3104
75.2678
75.2629
75.2698
75.3079
74.5768
74.7191
74.8039
74.8095
74.6955
74.6177
74.5852
74.6494
73.8013
73.7931
73.7414
73.7253
73.7188
73.7944
73.9472
74.1611
73.0653
73.0444
72.9461
72.9187
72.9638
73.0933
73.2251
73.3752
71.4722
71.6441
71.8706
72.128
72.3334
72.5281
72.6865
72.7993
70.723
70.8853
71.1606
71.4894
71.7038
71.8103
71.791
71.7532
70.2417
70.3265
70.439
70.6093
70.7404
70.8517
70.9142
70.9413
69.2957
69.3216
69.3815
69.521
69.6348
69.6621
69.5246
69.3311
67.7031
67.7382
67.8062
67.9857
68.1743
68.3175
68.2802
68.1428
65.6804
65.7736
65.9161
66.1258
66.3334
66.5101
66.4984
66.3328
63.1321
63.1589
63.3207
63.7574
64.2182
64.4977
64.4343
64.1851
57.9716
58.0406
58.3521
59.0131
59.6814
60.0878
60.0249
59.817
49.575
49.401
49.4457
49.938
50.8824
52.2459
53.5796
54.8654
18.2653
17.88
17.4139
17.0074
16.6688
16.4259
16.0529
15.7701
52.5108
52.5214
52.5432
52.4693
52.4616
52.4088
52.3945
52.3996
52.2039
52.2177
52.247
52.2326
52.2125
52.2195
52.1869
52.1957
51.8015
51.8406
51.8593
51.8951
51.9078
51.9406
51.9402
51.9961
51.5141
51.5772
51.6106
51.6448
51.6161
51.6416
51.605
51.6572
51.085
51.1638
51.1902
51.264
51.2727
51.3343
51.342
51.3982
50.6223
50.6881
50.716
50.7893
50.8408
50.9378
50.9619
51.0528
50.3257
50.3813
50.4258
50.5306
50.5862
50.6852
50.6939
50.7303
49.9627
50.0412
50.0532
50.0914
50.0844
50.1265
50.1401
50.234
49.4585
49.5891
49.6726
49.7324
49.6707
49.6585
49.6134
49.682
48.8422
48.8834
48.8866
48.92
48.9172
49.0008
49.1004
49.2973
48.3057
48.3402
48.2931
48.3056
48.3248
48.4308
48.4976
48.6489
47.1198
47.2512
47.4115
47.6332
47.7898
47.9703
48.0855
48.2394
46.5501
46.6524
46.8261
47.1075
47.2886
47.4188
47.388
47.4187
46.0939
46.1875
46.2782
46.445
46.5504
46.6764
46.7143
46.8155
45.4099
45.4362
45.4719
45.6097
45.6994
45.7703
45.6699
45.6165
44.1437
44.1894
44.2233
44.3757
44.5101
44.6801
44.6749
44.6857
42.6662
42.7358
42.8189
42.9624
43.1281
43.3606
43.3642
43.3274
40.6651
40.6949
40.7409
40.9868
41.3252
41.6814
41.74
41.6837
37.8641
37.8592
37.9479
38.2671
38.6525
38.9956
39.0028
38.9372
33.3289
33.029
32.9028
33.1225
33.5864
34.3109
35.0081
35.8163
20.0289
19.6224
19.1274
18.6746
18.2737
17.987
17.5802
17.2658
37.4599
37.482
37.5498
37.5059
37.5276
37.5037
37.5112
37.5494
37.2137
37.2473
37.3081
37.3265
37.3237
37.3553
37.3393
37.3719
36.8904
36.9489
36.9867
37.0417
37.0724
37.1285
37.1365
37.215
36.6735
36.7499
36.7914
36.8487
36.8321
36.8754
36.8498
36.9282
36.3337
36.4328
36.4713
36.5598
36.5785
36.6497
36.6588
36.727
35.9847
36.0597
36.1002
36.1669
36.2003
36.3026
36.3301
36.4361
35.7598
35.8237
35.8698
35.9763
36.0149
36.1109
36.1259
36.1926
35.4509
35.5359
35.5493
35.6069
35.6214
35.6849
35.6997
35.8147
35.0807
35.1969
35.267
35.3504
35.3207
35.3444
35.3042
35.3699
34.5927
34.6476
34.6756
34.7402
34.7415
34.8189
34.8874
35.0622
34.1863
34.2505
34.2283
34.2629
34.274
34.3642
34.3979
34.5283
33.309
33.4118
33.5182
33.7013
33.8216
33.9815
34.0672
34.2206
32.8613
32.9368
33.0289
33.2527
33.4071
33.5509
33.5259
33.5718
32.4431
32.5383
32.6046
32.7554
32.8423
32.9692
32.9906
33.0998
31.939
31.975
31.9822
32.1036
32.1775
32.2688
32.1958
32.1996
30.9495
31.0048
31.0088
31.1283
31.2176
31.3757
31.3815
31.4444
29.9127
29.9597
30.0048
30.0909
30.1909
30.4146
30.4414
30.4637
28.4714
28.499
28.4856
28.5775
28.7616
29.07
29.1899
29.2273
27.5328
27.5063
27.4885
27.5599
27.6702
27.8332
27.8215
27.7783
25.4183
25.1364
24.9523
24.9621
25.0734
25.3405
25.6179
26.0444
21.6226
21.1953
20.6828
20.1997
19.7446
19.415
18.9795
18.6356
27.8985
27.9146
28.002
27.9798
28.0142
28.0071
28.0233
28.0787
27.7048
27.739
27.8101
27.8486
27.8546
27.8952
27.8918
27.9341
27.4494
27.5073
27.5508
27.6103
27.6484
27.7155
27.7294
27.8109
27.2898
27.3634
27.403
27.4695
27.4621
27.51
27.488
27.5705
27.0209
27.1182
27.1592
27.2487
27.2736
27.3449
27.3552
27.4241
26.7619
26.8256
26.8715
26.935
26.9527
27.0463
27.0736
27.1763
26.5931
26.6491
26.6878
26.7912
26.8214
26.9056
26.9194
26.9919
26.3279
26.4105
26.4217
26.4792
26.5023
26.5733
26.584
26.6979
26.0525
26.1551
26.2085
26.2947
26.2819
26.3218
26.2889
26.3499
25.6677
25.7192
25.7504
25.8298
25.836
25.9018
25.9469
26.1005
25.3458
25.421
25.4093
25.4515
25.4602
25.5386
25.5556
25.6659
24.6933
24.7772
24.844
24.9896
25.0804
25.2177
25.2823
25.4223
24.3272
24.3954
24.4345
24.6006
24.7259
24.8723
24.8608
24.9099
23.9592
24.0498
24.0947
24.2228
24.293
24.4144
24.4288
24.5256
23.5809
23.6281
23.6164
23.7136
23.7728
23.8699
23.8189
23.8448
22.8281
22.8873
22.8729
22.9597
23.0145
23.1448
23.1528
23.2237
22.1497
22.1804
22.199
22.2447
22.2898
22.468
22.5062
22.5515
21.2409
21.2565
21.221
21.2136
21.2717
21.4765
21.6011
21.6692
21.5829
21.5481
21.4984
21.4334
21.356
21.3325
21.259
21.1795
21.0183
20.8031
20.6284
20.5019
20.3767
20.316
20.3146
20.4422
23.0835
22.6294
22.1027
21.6051
21.1105
20.7424
20.2831
19.9112
21.4459
21.4493
21.5364
21.527
21.565
21.566
21.5824
21.6431
21.2928
21.319
21.3855
21.4332
21.4433
21.4826
21.4856
21.5296
21.0911
21.1376
21.1783
21.2338
21.271
21.3398
21.3578
21.4333
20.9738
21.0361
21.0677
21.1331
21.1313
21.1786
21.1567
21.2311
20.7587
20.8426
20.8795
20.9617
20.9884
21.0554
21.0652
21.1291
20.565
20.61
20.6527
20.7146
20.7216
20.8007
20.825
20.9176
20.4374
20.4804
20.5063
20.6014
20.6281
20.6999
20.7095
20.7758
20.2066
20.2805
20.2894
20.3386
20.3614
20.4331
20.4389
20.54
19.9944
20.0847
20.124
20.2029
20.1968
20.2422
20.2147
20.2696
19.6901
19.7341
19.7576
19.8395
19.8503
19.9054
19.9308
20.0634
19.4253
19.5
19.4919
19.5334
19.5406
19.6097
19.6172
19.7126
18.9335
19.0049
19.0446
19.1573
19.2235
19.339
19.3871
19.5109
18.6243
18.6918
18.7032
18.8209
18.9153
19.054
19.0559
19.1082
18.3127
18.3949
18.4233
18.5274
18.5817
18.693
18.7063
18.788
18.0325
18.0859
18.0664
18.1392
18.1828
18.2754
18.2427
18.2766
17.4855
17.5408
17.5183
17.5757
17.6054
17.7028
17.7111
17.7717
17.103
17.1229
17.1217
17.1382
17.1491
17.2701
17.3062
17.3521
16.666
16.6628
16.6226
16.5587
16.5368
16.6327
16.7276
16.7869
17.8112
17.7649
17.7159
17.5925
17.4202
17.2557
17.1166
16.9805
18.2966
18.1498
18.025
17.8291
17.5642
17.2709
17.0811
16.9722
24.4302
23.9447
23.3978
22.894
22.3764
21.9787
21.502
21.1044
16.8804
16.872
16.9483
16.9445
16.9814
16.9861
16.999
17.0577
16.7569
16.7739
16.8288
16.8776
16.8899
16.9232
16.9272
16.9691
16.595
16.6275
16.6614
16.7098
16.7417
16.8061
16.8264
16.8942
16.5065
16.5559
16.5778
16.6362
16.6369
16.682
16.6605
16.7221
16.332
16.3991
16.429
16.5002
16.5253
16.5866
16.5949
16.6516
16.1826
16.2102
16.244
16.3038
16.3054
16.3697
16.3892
16.4709
16.0837
16.1153
16.1272
16.2104
16.2355
16.2972
16.3032
16.3596
15.8811
15.9436
15.9508
15.9906
16.0083
16.0771
16.08
16.1644
15.7104
15.7887
15.818
15.8866
15.882
15.9274
15.9041
15.9518
15.468
15.5061
15.5189
15.5952
15.6092
15.6567
15.6662
15.7772
15.2458
15.3141
15.307
15.344
15.3492
15.4106
15.412
15.4956
14.8721
14.9339
14.9555
15.0406
15.0864
15.1817
15.2162
15.323
14.6084
14.6738
14.6742
14.7559
14.8211
14.9442
14.9554
15.0106
14.3547
14.4256
14.4425
14.524
14.5638
14.6609
14.6755
14.7432
14.1631
14.2146
14.1953
14.2472
14.2754
14.3555
14.3377
14.3728
13.7986
13.8428
13.8192
13.8514
13.8637
13.9271
13.9359
13.9797
13.6618
13.6742
13.6589
13.6511
13.646
13.7127
13.7385
13.7695
13.6161
13.5923
13.5538
13.4597
13.3983
13.4046
13.4572
13.4851
15.2212
15.1581
15.1182
14.9797
14.7836
14.5355
14.3493
14.1576
16.4519
16.3413
16.2827
16.0802
15.7656
15.3223
15.0106
14.7147
25.6736
25.16
24.5836
24.0702
23.5399
23.1212
22.6351
22.2152
13.5186
13.5029
13.565
13.5624
13.5963
13.6027
13.6118
13.6651
13.4164
13.4271
13.4689
13.5137
13.5276
13.5546
13.5565
13.5943
13.2842
13.3045
13.3305
13.3716
13.3972
13.454
13.4745
13.5357
13.2141
13.2524
13.2656
13.3153
13.3163
13.3586
13.339
13.3883
13.0711
13.1225
13.1452
13.2049
13.2263
13.2815
13.2883
13.3374
12.9509
12.966
12.9888
13.0453
13.0454
13.0972
13.1113
13.1829
12.8711
12.8954
12.8954
12.9649
12.9885
13.0425
13.0464
13.0938
12.6945
12.7453
12.7515
12.7837
12.7948
12.858
12.8603
12.9291
12.5526
12.6184
12.6409
12.6996
12.6944
12.7371
12.7179
12.7582
12.3588
12.3935
12.3973
12.4633
12.4784
12.5205
12.5189
12.6078
12.1731
12.232
12.2253
12.2569
12.2597
12.3137
12.3109
12.3835
11.893
11.9453
11.9548
12.0162
12.0451
12.1214
12.1447
12.2335
11.6719
11.7307
11.7286
11.7848
11.8255
11.9273
11.943
11.9981
11.4749
11.5324
11.5416
11.6027
11.6303
11.7099
11.7259
11.78
11.3705
11.4124
11.3971
11.4322
11.4476
11.5086
11.5022
11.5338
11.169
11.1968
11.1758
11.1869
11.1884
11.2184
11.2277
11.2535
11.2327
11.2388
11.2155
11.1851
11.1756
11.1978
11.2107
11.2171
11.4918
11.4494
11.4146
11.3043
11.2314
11.1746
11.1866
11.173
13.3281
13.2464
13.214
13.0784
12.9027
12.6213
12.4138
12.1781
15.1054
14.9837
14.9774
14.8142
14.5324
14.019
13.6428
13.204
26.8219
26.2935
25.6839
25.1486
24.6045
24.1672
23.6772
23.2383
10.9598
10.9415
10.9903
10.9868
11.0168
11.0243
11.0307
11.0778
10.8738
10.8812
10.9117
10.9501
10.9649
10.9872
10.9862
11.019
10.7644
10.7762
10.7947
10.8293
10.8495
10.8977
10.9164
10.9721
10.7059
10.7358
10.7426
10.7838
10.7841
10.8232
10.8069
10.8465
10.5884
10.6269
10.6434
10.6927
10.7096
10.7585
10.7642
10.8063
10.4882
10.4962
10.5086
10.56
10.561
10.6032
10.6121
10.6744
10.4208
10.4415
10.4334
10.4889
10.5101
10.5582
10.5612
10.6018
10.2705
10.3108
10.316
10.3427
10.348
10.4036
10.4065
10.4623
10.1514
10.2044
10.2215
10.2713
10.2655
10.3039
10.2887
10.3226
9.99822
10.0305
10.0288
10.0824
10.0961
10.1337
10.1254
10.193
9.84713
9.89541
9.88917
9.91511
9.91575
9.96213
9.95648
10.0173
9.64762
9.68976
9.69079
9.73139
9.74594
9.80371
9.81803
9.88803
9.47089
9.51856
9.51673
9.55454
9.57655
9.6538
9.66973
9.71993
9.32852
9.37088
9.37522
9.4176
9.43561
9.49539
9.51225
9.55214
9.30967
9.33631
9.32534
9.3471
9.35374
9.39187
9.39298
9.4168
9.25133
9.2601
9.24294
9.23668
9.23303
9.23223
9.24081
9.24937
9.47306
9.47231
9.44699
9.39575
9.38755
9.37658
9.378
9.35587
9.95592
9.8987
9.86848
9.74866
9.68014
9.58496
9.56544
9.50855
11.8852
11.7871
11.759
11.629
11.4935
11.2136
11.0084
10.7424
14.083
13.9155
13.9281
13.8158
13.6224
13.1074
12.718
12.1769
27.8856
27.3572
26.7222
26.1533
25.5854
25.1217
24.6275
24.1702
8.9607
8.94321
8.98115
8.9764
9.00229
9.0104
9.01546
9.057
8.88786
8.89426
8.91615
8.94723
8.96214
8.9818
8.9784
9.00629
8.79668
8.80385
8.81598
8.84497
8.86088
8.9012
8.91648
8.96699
8.74599
8.76967
8.77225
8.80611
8.80565
8.84119
8.82875
8.86164
8.6502
8.6789
8.69
8.73071
8.74292
8.78562
8.79046
8.82639
8.56498
8.57007
8.574
8.61884
8.62156
8.65673
8.66127
8.71457
8.5059
8.52508
8.51271
8.55534
8.57309
8.61573
8.61858
8.65413
8.38302
8.41435
8.41824
8.44094
8.44213
8.48909
8.49275
8.53796
8.28479
8.3252
8.33746
8.37873
8.37263
8.40592
8.3947
8.42315
8.16822
8.19731
8.19335
8.23454
8.24497
8.27733
8.26612
8.31427
8.05239
8.08928
8.08333
8.1038
8.10274
8.14059
8.13317
8.18085
7.92545
7.95675
7.95188
7.97415
7.97657
8.01578
8.02277
8.07349
7.7959
7.83003
7.82813
7.85137
7.86018
7.91179
7.92482
7.96495
7.70608
7.73237
7.73339
7.75886
7.76984
7.80855
7.82509
7.84997
7.76655
7.77542
7.76725
7.77787
7.78017
7.79457
7.79939
7.81197
7.83002
7.81981
7.80598
7.78578
7.78135
7.7542
7.76021
7.75262
8.17123
8.16201
8.13983
8.07065
8.06513
8.03135
8.02487
7.97478
8.81074
8.74204
8.71718
8.59098
8.53334
8.41875
8.37919
8.28226
10.7647
10.6536
10.6287
10.5004
10.4067
10.1459
9.95816
9.67319
13.3172
13.0936
13.0977
13.0189
12.9269
12.4498
12.0828
11.473
28.8793
28.356
27.7099
27.1049
26.5031
25.9994
25.4933
25.0136
7.36757
7.35276
7.38247
7.37675
7.3987
7.40699
7.41159
7.44843
7.30613
7.31249
7.32849
7.35257
7.36651
7.38475
7.38017
7.40372
7.23013
7.23552
7.24284
7.26678
7.27939
7.31299
7.32425
7.36903
7.18524
7.20442
7.20443
7.2321
7.23105
7.26282
7.25404
7.28254
7.10852
7.13007
7.13667
7.17008
7.17816
7.21456
7.2186
7.24913
7.03592
7.04089
7.03901
7.07622
7.08023
7.11026
7.11167
7.15607
6.98344
7.00155
6.98815
7.01972
7.03319
7.07015
7.07279
7.10418
6.88875
6.91256
6.9147
6.93397
6.93288
6.9708
6.97475
7.01104
6.81171
6.84066
6.84807
6.88051
6.87446
6.90209
6.89425
6.9179
6.73052
6.75443
6.75033
6.78021
6.78635
6.81204
6.80054
6.83169
6.65136
6.6764
6.67028
6.68515
6.68302
6.71133
6.70308
6.7365
6.58999
6.61032
6.6015
6.60796
6.60066
6.62128
6.62218
6.65368
6.50925
6.52968
6.52655
6.53685
6.53711
6.56382
6.57202
6.59778
6.46956
6.48017
6.47851
6.48876
6.49501
6.51273
6.52766
6.53697
6.59851
6.59011
6.58247
6.58301
6.58477
6.57734
6.58272
6.58156
6.76133
6.73416
6.72233
6.69101
6.68877
6.64102
6.64288
6.62019
7.18969
7.17011
7.15422
7.07114
7.06757
7.01895
7.00861
6.93434
7.93643
7.85825
7.83933
7.70826
7.66193
7.54016
7.49133
7.36011
9.89822
9.77568
9.75425
9.62304
9.5632
9.32519
9.16082
8.86249
12.7857
12.507
12.4891
12.4218
12.4164
11.985
11.6541
10.9956
29.8164
29.2917
28.6454
28.0103
27.373
26.8177
26.2888
25.7786
6.07866
6.06716
6.09085
6.08471
6.10315
6.11107
6.11561
6.14843
6.02754
6.03391
6.04602
6.06399
6.07602
6.09325
6.08854
6.10867
5.96445
5.96986
5.9739
5.99333
6.00315
6.03118
6.03855
6.07689
5.92466
5.94035
5.9389
5.96132
5.9599
5.98775
5.98199
6.00748
5.86498
5.88148
5.88429
5.91129
5.9159
5.94604
5.9491
5.97481
5.8044
5.8105
5.80548
5.8347
5.83898
5.86469
5.86426
5.89995
5.75855
5.7749
5.76259
5.78529
5.79418
5.82477
5.82684
5.8539
5.69209
5.70948
5.70955
5.72513
5.72318
5.75222
5.75586
5.78394
5.63754
5.65652
5.65936
5.68239
5.67627
5.69771
5.69253
5.71142
5.59175
5.60829
5.60474
5.62465
5.62653
5.64407
5.63366
5.65059
5.5504
5.56349
5.55652
5.56533
5.56277
5.58068
5.57237
5.59111
5.54668
5.55658
5.54526
5.53859
5.52438
5.52704
5.52276
5.53567
5.51411
5.52243
5.51728
5.51538
5.51055
5.51459
5.51715
5.52585
5.52125
5.51793
5.51376
5.51041
5.51381
5.512
5.52413
5.51782
5.70501
5.68199
5.67292
5.66378
5.66743
5.64195
5.64578
5.62968
5.94524
5.90428
5.89295
5.85264
5.85415
5.79195
5.7889
5.75202
6.43606
6.40464
6.39609
6.30347
6.30032
6.24228
6.23162
6.13838
7.25828
7.17105
7.15802
7.02312
6.9853
6.86257
6.81293
6.65391
9.24208
9.10752
9.08888
8.95174
8.91581
8.697
8.55568
8.24459
12.462
12.1337
12.0836
12.0106
12.0742
11.6847
11.3901
10.6911
30.7042
30.1674
29.5239
28.8668
28.2001
27.5903
27.0299
26.4806
5.02342
5.01505
5.03437
5.02828
5.04377
5.05083
5.05539
5.08445
4.98189
4.98787
4.99735
5.01025
5.01976
5.03574
5.03149
5.04914
4.93016
4.93629
4.93839
4.95384
4.96111
4.98437
4.98845
5.01983
4.8955
4.90825
4.90604
4.92384
4.92221
4.94599
4.94247
4.96537
4.85138
4.86421
4.86395
4.88503
4.88676
4.91074
4.91254
4.9337
4.8032
4.81042
4.80451
4.82608
4.82953
4.85084
4.84957
4.87691
4.76527
4.77867
4.76844
4.7843
4.78897
4.81241
4.81343
4.83531
4.72632
4.73793
4.73582
4.74704
4.74505
4.76561
4.76852
4.78835
4.69576
4.70618
4.70512
4.71834
4.71174
4.72643
4.72317
4.7367
4.68523
4.69285
4.68944
4.70047
4.69883
4.70722
4.69835
4.70358
4.68168
4.68327
4.67478
4.67693
4.6744
4.68151
4.67367
4.67828
4.72653
4.7271
4.71434
4.69711
4.67897
4.66529
4.65668
4.65228
4.73898
4.73765
4.73046
4.71714
4.70958
4.69423
4.69123
4.68212
4.78837
4.77388
4.76732
4.75199
4.75388
4.7351
4.74362
4.72224
5.0129
4.97899
4.96735
4.94871
4.95521
4.91622
4.91748
4.88652
5.31092
5.25967
5.24759
5.19972
5.20531
5.13424
5.12649
5.07639
5.84732
5.80333
5.80144
5.70311
5.69892
5.63463
5.62614
5.51927
6.72789
6.63094
6.62295
6.48501
6.45192
6.32992
6.28525
6.10463
8.76
8.61268
8.59498
8.44959
8.42914
8.2242
8.10384
7.77832
12.3009
11.9352
11.8443
11.749
11.8673
11.5194
11.2627
10.5282
31.5459
30.9883
30.3451
29.6714
28.9845
28.3248
27.73
27.1355
4.15116
4.14536
4.16136
4.15566
4.16875
4.17459
4.17911
4.20428
4.11879
4.12383
4.13131
4.1401
4.14685
4.16101
4.15734
4.17308
4.07759
4.08426
4.08534
4.09734
4.10224
4.12107
4.12263
4.14691
4.04852
4.05852
4.05595
4.06954
4.06776
4.08727
4.08524
4.10528
4.01898
4.02881
4.02623
4.04161
4.04094
4.05889
4.05919
4.07574
3.98408
3.99149
3.98625
4.00097
4.00278
4.01907
4.01749
4.03696
3.95599
3.9652
3.95717
3.96777
3.96912
3.98482
3.98438
3.99998
3.94317
3.94922
3.94504
3.95118
3.94942
3.96194
3.96395
3.97517
3.93761
3.94055
3.93647
3.94002
3.93253
3.93991
3.93789
3.94515
3.96096
3.95916
3.95503
3.95789
3.95371
3.95271
3.94522
3.94079
3.99343
3.98461
3.97415
3.96915
3.96692
3.96348
3.95633
3.94828
4.07736
4.07005
4.05656
4.03107
4.01165
3.98418
3.97216
3.95243
4.12957
4.12116
4.11252
4.08905
4.08024
4.04935
4.04148
4.01557
4.21538
4.19291
4.1843
4.15866
4.15977
4.12727
4.13188
4.09668
4.4684
4.4274
4.41288
4.38506
4.39419
4.34602
4.3446
4.29988
4.80822
4.74989
4.73621
4.68163
4.6907
4.61515
4.60361
4.5414
5.38041
5.32381
5.32693
5.22558
5.21929
5.15017
5.14533
5.02938
6.31258
6.20476
6.20035
6.05985
6.02802
5.9056
5.86927
5.6724
8.4193
8.25922
8.24065
8.08506
8.07349
7.87737
7.77672
7.43565
12.2546
11.8683
11.734
11.6004
11.7586
11.454
11.2428
10.4821
32.3444
31.7611
31.1141
30.426
29.7266
29.0252
28.3981
27.7565
3.42487
3.42091
3.43412
3.42898
3.44008
3.44445
3.44886
3.46973
3.40143
3.40504
3.41071
3.41612
3.42015
3.43184
3.42858
3.4425
3.37055
3.37704
3.37758
3.38651
3.38924
3.40368
3.40341
3.42075
3.34789
3.35506
3.3523
3.36191
3.35997
3.37491
3.37375
3.39023
3.33226
3.33917
3.335
3.34485
3.34215
3.35418
3.35286
3.36446
3.31155
3.31773
3.31394
3.32279
3.32265
3.33314
3.33133
3.34335
3.29523
3.29936
3.29306
3.29939
3.29858
3.30637
3.30426
3.31259
3.30646
3.30699
3.30099
3.30161
3.30003
3.30492
3.30607
3.30836
3.32586
3.3221
3.31585
3.31048
3.30188
3.30162
3.30031
3.30037
3.37999
3.36932
3.36368
3.35889
3.35309
3.34317
3.3367
3.32409
3.4448
3.42722
3.41465
3.4024
3.40052
3.38748
3.38101
3.36234
3.55879
3.5452
3.53146
3.49961
3.48081
3.44263
3.42818
3.39569
3.64417
3.63096
3.62172
3.58984
3.58063
3.53816
3.5264
3.48604
3.75996
3.73243
3.72238
3.68816
3.68875
3.64588
3.6468
3.59963
4.03218
3.98724
3.9702
3.93376
3.9446
3.89075
3.88715
3.83043
4.40232
4.33936
4.32371
4.26272
4.27416
4.19702
4.18292
4.10982
5.00646
4.9376
4.94379
4.84084
4.83177
4.758
4.75747
4.63582
5.99015
5.87015
5.86755
5.72455
5.6914
5.56586
5.53935
5.33057
8.193
8.02058
8.00004
7.83284
7.82513
7.633
7.55183
7.19579
12.2862
11.8965
11.7231
11.5393
11.7201
11.4573
11.3005
10.5279
33.1023
32.4919
31.8372
31.135
30.4281
29.6937
29.0388
28.3521
2.81751
2.81466
2.82518
2.82063
2.82992
2.83263
2.83683
2.85293
2.80291
2.80472
2.80852
2.81102
2.81259
2.82121
2.81809
2.82975
2.78255
2.78788
2.78796
2.79401
2.79485
2.80473
2.80319
2.8139
2.76728
2.7714
2.76845
2.77417
2.77207
2.78213
2.78134
2.79338
2.76498
2.76865
2.76355
2.76809
2.76373
2.76991
2.76706
2.77325
2.75897
2.76244
2.76015
2.7641
2.76216
2.76632
2.76406
2.76896
2.75578
2.75439
2.74913
2.75169
2.74982
2.75002
2.7463
2.7468
2.78824
2.78334
2.77585
2.77091
2.76937
2.76712
2.76755
2.76097
2.83105
2.82128
2.81349
2.80045
2.79079
2.78302
2.78202
2.77437
2.91126
2.89306
2.8855
2.87366
2.8669
2.84915
2.84332
2.82366
3.00322
2.97882
2.96429
2.9452
2.94351
2.92242
2.91647
2.88946
3.1394
3.12109
3.10741
3.07077
3.05359
3.00783
2.99184
2.94951
3.25103
3.23474
3.22573
3.18743
3.17826
3.12781
3.1132
3.06142
3.39053
3.36018
3.34947
3.30835
3.30839
3.25815
3.25595
3.199
3.67626
3.62952
3.61063
3.56629
3.57771
3.52055
3.51557
3.44883
4.07001
4.00389
3.98624
3.91869
3.93123
3.85392
3.8385
3.75559
4.7071
4.62622
4.63377
4.52945
4.51725
4.43813
4.44201
4.31685
5.74613
5.61261
5.60998
5.46409
5.428
5.29598
5.27947
5.06201
8.06083
7.87647
7.85347
7.67393
7.66647
7.47367
7.4119
7.0429
12.3708
11.9914
11.7885
11.5486
11.7348
11.5071
11.4106
10.6415
33.8208
33.184
32.5189
31.8022
31.0903
30.3302
29.6528
28.9253
2.30971
2.30733
2.31497
2.31088
2.31831
2.31922
2.32308
2.3339
2.3039
2.30365
2.30542
2.3053
2.30477
2.30981
2.30666
2.31527
2.2943
2.29751
2.29694
2.30012
2.29942
2.30455
2.30212
2.30657
2.28731
2.28814
2.28493
2.28679
2.28455
2.28948
2.2887
2.29551
2.29749
2.29754
2.292
2.2916
2.28601
2.2865
2.28235
2.28276
2.3059
2.30555
2.30434
2.30418
2.30094
2.29871
2.29574
2.29383
2.31614
2.30937
2.30448
2.30349
2.30142
2.29482
2.28973
2.2825
2.36631
2.35633
2.3477
2.33762
2.33601
2.32734
2.32725
2.31245
2.42935
2.41438
2.40548
2.38634
2.37587
2.36126
2.36032
2.34512
2.52998
2.50598
2.49647
2.4785
2.47119
2.44707
2.4416
2.41591
2.64311
2.61384
2.59768
2.57259
2.57081
2.54359
2.538
2.50483
2.79514
2.77349
2.7601
2.71994
2.70457
2.65399
2.63713
2.5878
2.92673
2.90854
2.90041
2.85757
2.84857
2.79309
2.77654
2.7164
3.08474
3.05287
3.04224
2.99573
2.99506
2.93973
2.93516
2.87064
3.38179
3.33427
3.31427
3.2627
3.2737
3.21448
3.20895
3.13402
3.79691
3.72811
3.70861
3.63396
3.64644
3.56915
3.5534
3.46145
4.47167
4.37859
4.38615
4.27985
4.26437
4.17862
4.18663
4.05911
5.57161
5.42322
5.41878
5.26923
5.22936
5.08754
5.08025
4.85632
8.00729
7.81135
7.78562
7.59366
7.58413
7.38641
7.34346
6.96429
12.4912
12.1312
11.9102
11.6142
11.7912
11.5882
11.5523
10.8
34.4973
33.8362
33.1592
32.4274
31.7112
30.9312
30.2361
29.4734
1.88816
1.88572
1.89016
1.88634
1.89168
1.89067
1.89399
1.8992
1.89092
1.88851
1.8881
1.88555
1.88331
1.88447
1.88121
1.88592
1.89199
1.89239
1.89091
1.89114
1.88925
1.88956
1.88653
1.88513
1.89378
1.89117
1.88762
1.88573
1.88338
1.88316
1.88217
1.88328
1.91506
1.91128
1.9056
1.90085
1.8945
1.88965
1.88458
1.87911
1.93655
1.9319
1.93119
1.92756
1.92363
1.91554
1.91173
1.90352
1.95923
1.94771
1.94269
1.93837
1.93662
1.92441
1.91836
1.90415
2.02299
2.00864
1.9992
1.98482
1.98311
1.96908
1.96864
1.9469
2.10181
2.08265
2.07295
2.04935
2.03842
2.01813
2.01712
1.99526
2.21699
2.18896
2.17776
2.15489
2.14722
2.11837
2.11311
2.08247
2.34537
2.31294
2.29551
2.26555
2.26339
2.23198
2.22666
2.18928
2.50866
2.48474
2.47178
2.42909
2.41522
2.36188
2.34459
2.29066
2.65522
2.63582
2.62901
2.58313
2.57428
2.51585
2.49802
2.4321
2.82812
2.79519
2.7852
2.73445
2.73294
2.67396
2.66772
2.59749
3.13737
3.08918
3.06864
3.01024
3.02016
2.95917
2.95385
2.87211
3.57522
3.5034
3.4823
3.39963
3.41109
3.33321
3.31787
3.21713
4.29453
4.18868
4.1952
4.08581
4.06711
3.97314
3.98478
3.85522
5.46031
5.29606
5.28815
5.13399
5.09018
4.93568
4.93628
4.70735
8.01783
7.8111
7.78244
7.57856
7.5658
7.35984
7.33439
6.94823
12.6326
12.2967
12.0687
11.7218
11.8793
11.6897
11.7098
10.9833
35.1248
34.4419
33.7525
33.0056
32.2847
31.4888
30.78
29.9878
1.54451
1.54167
1.54266
1.53889
1.54186
1.53891
1.54146
1.54097
1.55527
1.5508
1.54815
1.54335
1.53981
1.53702
1.53372
1.53389
1.56625
1.56359
1.56102
1.55829
1.5556
1.55127
1.54787
1.54112
1.57656
1.57065
1.56671
1.56136
1.55897
1.55393
1.55263
1.5481
1.60696
1.59951
1.59387
1.5855
1.5789
1.56938
1.56376
1.55283
1.63915
1.63043
1.6297
1.62323
1.61915
1.60627
1.60171
1.58804
1.67203
1.65677
1.65137
1.64415
1.64296
1.6266
1.61998
1.60014
1.74504
1.72734
1.7174
1.6998
1.69806
1.68003
1.6794
1.65248
1.83457
1.81239
1.80215
1.77567
1.76457
1.74011
1.73899
1.71197
1.95899
1.92844
1.91597
1.88956
1.88168
1.84967
1.84455
1.81016
2.09751
2.06317
2.04479
2.01112
2.00835
1.97447
1.96943
1.92946
2.26914
2.24368
2.23122
2.18672
2.17376
2.11898
2.10141
2.04466
2.42736
2.40702
2.40178
2.35391
2.34508
2.2849
2.26616
2.19628
2.6132
2.57897
2.56999
2.51567
2.51329
2.45128
2.44389
2.36926
2.93768
2.88821
2.86753
2.80238
2.81087
2.74772
2.7432
2.65551
3.40159
3.3259
3.30347
3.21169
3.22143
3.14191
3.1275
3.0178
4.17208
4.05289
4.05753
3.94379
3.92208
3.81847
3.83299
3.70117
5.40529
5.22502
5.21218
5.05256
5.0051
4.83601
4.84272
4.60981
8.0757
7.85969
7.82793
7.61319
7.5968
7.3805
7.37026
6.98025
12.7805
12.4694
12.2433
11.8538
11.9867
11.8002
11.8675
11.1709
35.6913
34.9891
34.2874
33.5262
32.7999
31.9912
31.2717
30.4557
1.27505
1.27164
1.2692
1.26535
1.26582
1.26107
1.26267
1.25683
1.29272
1.28648
1.28172
1.27499
1.27048
1.26407
1.26083
1.25634
1.31206
1.30655
1.3029
1.29744
1.29432
1.28589
1.28234
1.27097
1.32972
1.32095
1.31667
1.3084
1.30609
1.29695
1.2954
1.28587
1.36676
1.35624
1.35073
1.33962
1.33319
1.31998
1.3142
1.2987
1.40657
1.39457
1.39357
1.38494
1.38113
1.36482
1.35977
1.34188
1.44664
1.42882
1.42302
1.41357
1.41298
1.39399
1.38719
1.36339
1.52478
1.50489
1.49475
1.47509
1.47343
1.45288
1.45221
1.42204
1.6202
1.59613
1.58562
1.55764
1.5466
1.5195
1.51829
1.48787
1.74961
1.71769
1.70437
1.67579
1.6678
1.63401
1.62901
1.59209
1.89437
1.85892
1.8398
1.80349
1.8
1.76499
1.76032
1.719
2.07287
2.04631
2.03434
1.98851
1.97587
1.92027
1.90238
1.84389
2.24089
2.21965
2.21612
2.16684
2.15793
2.0965
2.07698
2.00414
2.43889
2.40279
2.39495
2.3374
2.33422
2.26928
2.26108
2.18276
2.78217
2.73059
2.70999
2.63803
2.64507
2.5791
2.57578
2.48263
3.275
3.19464
3.17123
3.06957
3.0771
2.99493
2.98186
2.86309
4.09959
3.96728
3.96955
3.85051
3.8262
3.71226
3.7289
3.59442
5.39557
5.2007
5.18216
5.01676
4.96632
4.78241
4.79343
4.55747
8.15947
7.93688
7.90244
7.6785
7.65886
7.43203
7.43445
7.04365
12.9178
12.63
12.412
11.9906
12.0985
11.9085
12.0129
11.3463
36.1777
35.4585
34.7455
33.9713
33.2389
32.4194
31.6916
30.8573
1.0821
1.07814
1.07277
1.06881
1.06705
1.06087
1.06156
1.05133
1.105
1.09745
1.09099
1.08281
1.07769
1.0684
1.06531
1.0568
1.13038
1.12266
1.11816