/*--------------------------------*- C++ -*----------------------------------*\
  =========                 |
  \\      /  F ield         | OpenFOAM: The Open Source CFD Toolbox
   \\    /   O peration     | Website:  https://openfoam.org
    \\  /    A nd           | Version:  6
     \\/     M anipulation  |
\*---------------------------------------------------------------------------*/
FoamFile
{
    version     2.0;
    format      ascii;
    class       volScalarField;
    location    "0.8";
    object      p;
}
// * * * * * * * * * * * * * * * * * * * * * * * * * * * * * * * * * * * * * //

dimensions      [0 2 -2 0 0 0 0];

internalField   nonuniform List<scalar> 
63400
(
0.00152486
0.00154384
0.00157326
0.00160957
0.00165501
0.00170421
0.00175811
0.00182481
0.00161825
0.00162338
0.00163762
0.00166015
0.00168717
0.00172302
0.00174736
0.00181325
0.00172045
0.00171276
0.00171358
0.00172367
0.00173639
0.00176357
0.00177
0.00183433
0.00181357
0.00179391
0.0017815
0.00177962
0.00177872
0.00179685
0.00178779
0.00185059
0.00190352
0.00187562
0.00185409
0.0018426
0.00183041
0.00183856
0.00181528
0.00187037
0.00197681
0.00194033
0.00191033
0.0018911
0.00187074
0.00187236
0.00184031
0.00188898
0.00205877
0.00201516
0.00197668
0.00194887
0.00191891
0.00191251
0.00187019
0.00191493
0.00211499
0.00206687
0.0020247
0.00199361
0.00195956
0.00194956
0.00190036
0.00194325
0.00217688
0.0021225
0.00207415
0.00203715
0.0019969
0.00198171
0.00192465
0.00196497
0.00221545
0.00215905
0.0021084
0.00206921
0.00202643
0.00200949
0.00194916
0.00198786
0.00225858
0.0021973
0.00214153
0.00209716
0.0020487
0.00202767
0.0019628
0.0020013
0.0022885
0.00222484
0.00216643
0.00212027
0.00207075
0.00205037
0.0019845
0.00202637
0.0023154
0.0022473
0.00218472
0.00213524
0.0020829
0.00206148
0.00199396
0.00203829
0.00233844
0.00226908
0.00220423
0.00215232
0.0020983
0.00207676
0.00200941
0.0020558
0.00235262
0.00228047
0.00221343
0.00215999
0.00210523
0.00208354
0.00201723
0.00206628
0.00236753
0.00229317
0.0022228
0.00216599
0.00210966
0.00208759
0.00202454
0.00207241
0.0023745
0.00229759
0.00222365
0.00216507
0.00211189
0.0020922
0.00203259
0.0020835
0.00238326
0.00230513
0.0022276
0.00216301
0.00210577
0.00208373
0.00203061
0.00207187
0.00238586
0.00230247
0.00221909
0.00215299
0.00210096
0.00208515
0.0020418
0.00208581
0.00239026
0.00231493
0.00223472
0.00216253
0.0021013
0.00207595
0.00203476
0.00205749
0.00238546
0.00230569
0.00222302
0.00215103
0.00209167
0.00206689
0.00203012
0.00204201
0.00152449
0.00154352
0.00157295
0.00160938
0.00165484
0.00170409
0.00175796
0.0018247
0.00161799
0.00162311
0.00163737
0.00165993
0.00168698
0.00172282
0.00174723
0.00181309
0.00172032
0.00171264
0.00171346
0.00172353
0.00173625
0.00176341
0.0017699
0.00183418
0.00181338
0.00179372
0.00178134
0.00177945
0.0017786
0.00179671
0.00178774
0.00185049
0.00190342
0.0018755
0.00185398
0.00184249
0.00183031
0.00183843
0.00181519
0.00187023
0.00197676
0.00194028
0.00191028
0.00189103
0.00187066
0.00187224
0.00184024
0.00188887
0.00205868
0.00201507
0.00197661
0.00194876
0.0019188
0.00191237
0.00187011
0.00191482
0.00211487
0.00206672
0.00202457
0.00199348
0.00195947
0.00194948
0.00190036
0.0019432
0.0021768
0.00212239
0.00207402
0.00203702
0.00199683
0.00198166
0.00192466
0.00196491
0.00221534
0.00215895
0.00210835
0.00206919
0.00202644
0.0020095
0.00194919
0.00198777
0.00225848
0.00219723
0.00214152
0.00209717
0.00204872
0.00202764
0.00196278
0.0020012
0.00228857
0.0022249
0.00216646
0.00212026
0.00207073
0.0020503
0.00198448
0.00202629
0.00231545
0.00224735
0.00218474
0.00213519
0.00208282
0.00206135
0.0019939
0.00203821
0.00233838
0.00226901
0.00220416
0.00215223
0.00209821
0.00207666
0.00200938
0.00205573
0.00235252
0.00228039
0.00221335
0.00215989
0.00210513
0.00208341
0.00201718
0.00206624
0.00236745
0.0022931
0.00222272
0.00216589
0.00210955
0.00208746
0.00202451
0.00207237
0.00237444
0.00229753
0.00222357
0.002165
0.00211182
0.00209211
0.00203254
0.00208337
0.00238321
0.00230511
0.00222757
0.00216291
0.00210564
0.00208357
0.00203051
0.00207173
0.00238579
0.00230247
0.00221909
0.00215293
0.00210086
0.002085
0.00204171
0.00208567
0.00239025
0.00231506
0.00223501
0.00216282
0.00210151
0.00207612
0.00203492
0.00205758
0.00238567
0.00230586
0.00222313
0.00215121
0.002092
0.00206744
0.00203065
0.00204269
0.00152443
0.00154346
0.00157284
0.00160931
0.00165477
0.00170404
0.00175795
0.00182484
0.00161788
0.00162302
0.00163729
0.00165985
0.00168692
0.00172274
0.00174716
0.001813
0.00172029
0.00171261
0.00171345
0.00172351
0.00173621
0.00176336
0.0017699
0.00183418
0.00181336
0.00179365
0.00178128
0.00177935
0.00177852
0.00179663
0.00178771
0.00185049
0.00190337
0.00187545
0.00185396
0.00184246
0.00183029
0.0018384
0.00181518
0.00187019
0.00197672
0.00194027
0.00191028
0.00189103
0.00187065
0.00187218
0.00184022
0.00188884
0.00205867
0.00201506
0.00197664
0.00194874
0.00191875
0.00191226
0.00187003
0.00191475
0.0021148
0.00206658
0.00202445
0.00199335
0.00195936
0.0019494
0.00190037
0.00194326
0.00217677
0.00212232
0.00207389
0.00203685
0.00199673
0.0019816
0.0019247
0.00196498
0.00221519
0.00215881
0.00210826
0.00206914
0.00202647
0.00200956
0.00194931
0.00198781
0.00225835
0.00219712
0.00214149
0.0020972
0.00204878
0.00202764
0.0019628
0.00200117
0.00228867
0.00222501
0.00216658
0.00212032
0.00207075
0.00205025
0.00198447
0.00202625
0.00231556
0.00224747
0.00218484
0.00213518
0.00208274
0.00206117
0.00199379
0.00203816
0.00233835
0.00226896
0.00220412
0.00215213
0.0020981
0.0020765
0.00200933
0.0020557
0.0023524
0.00228027
0.00221326
0.00215976
0.00210498
0.00208319
0.00201708
0.00206623
0.00236735
0.00229299
0.00222265
0.00216575
0.0021094
0.00208724
0.00202442
0.00207234
0.00237434
0.00229744
0.00222347
0.00216489
0.00211174
0.00209196
0.00203246
0.00208319
0.00238313
0.00230507
0.00222758
0.00216284
0.00210549
0.00208331
0.00203031
0.00207148
0.00238566
0.00230242
0.00221914
0.00215294
0.00210078
0.0020848
0.00204156
0.00208547
0.00239015
0.00231509
0.00223548
0.00216343
0.00210195
0.00207638
0.00203513
0.00205765
0.00238612
0.00230627
0.00222354
0.00215178
0.00209289
0.00206863
0.00203196
0.00204381
0.00152432
0.0015434
0.0015727
0.00160922
0.00165469
0.00170399
0.00175793
0.00182511
0.00161772
0.00162287
0.00163714
0.00165969
0.0016868
0.00172261
0.00174704
0.00181294
0.00172026
0.00171258
0.00171344
0.00172349
0.00173618
0.00176328
0.00176987
0.00183425
0.00181333
0.00179357
0.00178122
0.00177924
0.00177843
0.00179652
0.00178769
0.00185061
0.00190336
0.00187541
0.00185394
0.00184242
0.00183025
0.00183834
0.00181516
0.00187025
0.00197671
0.00194029
0.00191029
0.00189103
0.00187066
0.00187213
0.00184022
0.00188893
0.00205866
0.00201506
0.00197669
0.00194873
0.00191872
0.00191216
0.00186996
0.00191477
0.00211476
0.00206643
0.00202434
0.00199323
0.00195927
0.00194931
0.0019004
0.00194346
0.00217675
0.00212225
0.00207379
0.00203669
0.00199663
0.00198153
0.00192475
0.00196519
0.00221507
0.00215869
0.00210818
0.00206907
0.00202651
0.00200963
0.00194948
0.00198801
0.00225827
0.00219701
0.00214148
0.00209722
0.00204887
0.00202768
0.00196289
0.00200131
0.00228878
0.00222515
0.00216676
0.00212043
0.00207084
0.00205023
0.0019845
0.00202634
0.0023157
0.00224763
0.00218503
0.00213524
0.00208273
0.00206099
0.00199369
0.00203825
0.00233839
0.00226895
0.00220412
0.00215205
0.00209801
0.00207632
0.00200927
0.00205578
0.00235232
0.00228015
0.00221317
0.00215962
0.00210485
0.00208296
0.00201697
0.00206636
0.00236729
0.00229288
0.00222258
0.00216561
0.00210928
0.00208702
0.00202433
0.00207243
0.00237426
0.00229733
0.00222335
0.00216476
0.00211167
0.00209184
0.00203245
0.00208324
0.00238307
0.00230501
0.00222754
0.00216277
0.00210542
0.00208315
0.00203021
0.00207139
0.00238554
0.00230228
0.00221902
0.00215282
0.00210073
0.00208472
0.00204158
0.00208553
0.00239005
0.00231492
0.00223565
0.00216378
0.00210213
0.00207629
0.002035
0.00205751
0.00238642
0.00230655
0.00222381
0.00215203
0.00209323
0.00206905
0.00203261
0.00204407
0.00152432
0.00154346
0.00157269
0.00160922
0.00165468
0.00170402
0.00175798
0.00182561
0.00161758
0.00162276
0.00163703
0.00165954
0.0016867
0.00172251
0.00174695
0.00181296
0.00172024
0.00171259
0.00171347
0.00172352
0.0017362
0.00176325
0.00176988
0.00183445
0.00181334
0.00179355
0.00178123
0.00177918
0.00177838
0.00179643
0.0017877
0.00185086
0.00190336
0.00187541
0.00185397
0.00184242
0.00183025
0.00183831
0.00181519
0.00187044
0.00197668
0.00194035
0.00191034
0.00189105
0.00187073
0.00187213
0.00184028
0.00188917
0.00205865
0.00201507
0.00197679
0.00194877
0.00191874
0.0019121
0.00186994
0.0019149
0.00211477
0.00206633
0.00202427
0.00199314
0.00195921
0.00194922
0.00190045
0.00194381
0.00217677
0.00212222
0.00207374
0.00203654
0.00199651
0.00198143
0.00192481
0.00196558
0.00221498
0.00215857
0.0021081
0.00206898
0.00202652
0.00200969
0.00194971
0.00198841
0.00225823
0.00219689
0.00214143
0.00209724
0.002049
0.00202778
0.00196307
0.00200164
0.00228887
0.00222527
0.00216695
0.00212059
0.00207099
0.00205026
0.00198457
0.00202652
0.00231587
0.00224782
0.00218527
0.00213539
0.00208282
0.00206088
0.00199359
0.00203842
0.00233848
0.00226898
0.00220417
0.00215202
0.00209795
0.00207611
0.00200916
0.00205593
0.00235231
0.00228006
0.00221308
0.00215948
0.00210475
0.00208274
0.00201684
0.00206657
0.00236727
0.00229278
0.00222251
0.00216548
0.00210915
0.00208677
0.00202419
0.00207258
0.00237422
0.00229722
0.00222324
0.00216459
0.00211152
0.00209167
0.00203249
0.00208347
0.00238305
0.00230495
0.00222748
0.00216262
0.00210528
0.00208296
0.00203014
0.00207143
0.0023855
0.00230216
0.00221879
0.00215246
0.00210041
0.00208448
0.00204158
0.00208572
0.00239002
0.00231459
0.00223542
0.00216374
0.00210204
0.00207594
0.0020346
0.00205719
0.0023866
0.00230677
0.00222414
0.00215235
0.00209346
0.00206903
0.00203265
0.00204343
0.00152441
0.00154366
0.00157283
0.00160935
0.00165476
0.00170412
0.00175811
0.00182636
0.00161744
0.00162266
0.00163694
0.0016594
0.00168659
0.00172245
0.0017469
0.00181308
0.00172022
0.00171261
0.00171352
0.00172359
0.00173629
0.00176327
0.00176992
0.00183479
0.00181337
0.00179357
0.00178131
0.00177919
0.00177838
0.00179636
0.00178774
0.00185125
0.00190336
0.00187542
0.00185403
0.00184246
0.00183028
0.00183829
0.00181527
0.0018708
0.00197663
0.00194041
0.00191045
0.00189112
0.00187084
0.00187219
0.00184041
0.00188954
0.00205862
0.00201508
0.00197692
0.00194888
0.00191884
0.00191209
0.00186997
0.00191515
0.00211482
0.0020663
0.00202423
0.00199309
0.00195918
0.00194911
0.00190049
0.0019443
0.00217682
0.00212222
0.00207373
0.00203643
0.0019964
0.00198131
0.00192488
0.00196614
0.00221493
0.00215845
0.00210801
0.00206885
0.00202648
0.00200971
0.00194997
0.00198902
0.00225825
0.00219679
0.00214136
0.00209723
0.00204916
0.00202794
0.00196337
0.00200219
0.00228889
0.00222534
0.00216712
0.00212077
0.00207121
0.00205034
0.00198472
0.00202683
0.00231605
0.00224802
0.00218554
0.00213562
0.00208304
0.00206088
0.00199358
0.00203869
0.00233861
0.00226907
0.00220427
0.00215204
0.00209796
0.00207592
0.00200904
0.00205613
0.00235241
0.00228004
0.00221302
0.00215936
0.0021047
0.00208255
0.00201673
0.00206687
0.00236732
0.00229272
0.00222245
0.00216534
0.00210904
0.0020865
0.002024
0.00207276
0.00237427
0.00229716
0.00222317
0.00216442
0.0021113
0.00209143
0.00203256
0.00208389
0.00238308
0.0023049
0.0022274
0.00216242
0.00210503
0.00208267
0.00203004
0.00207158
0.00238557
0.00230215
0.0022186
0.00215197
0.0020998
0.0020839
0.00204138
0.00208586
0.00239008
0.0023141
0.00223469
0.00216318
0.00210165
0.00207538
0.00203395
0.00205662
0.00238667
0.00230692
0.00222455
0.00215286
0.00209382
0.00206883
0.00203226
0.0020418
0.00152461
0.00154397
0.00157313
0.00160962
0.00165496
0.00170432
0.00175833
0.00182739
0.00161729
0.00162255
0.00163688
0.00165928
0.00168647
0.0017224
0.00174688
0.00181333
0.00172019
0.00171264
0.00171359
0.00172369
0.00173643
0.00176334
0.00177001
0.00183526
0.00181341
0.00179362
0.00178143
0.00177928
0.00177845
0.00179633
0.0017878
0.00185178
0.00190333
0.00187544
0.00185411
0.00184253
0.00183034
0.00183829
0.00181539
0.00187133
0.00197657
0.00194047
0.0019106
0.00189123
0.00187099
0.00187228
0.00184059
0.00189008
0.00205857
0.00201506
0.00197705
0.00194905
0.00191902
0.00191212
0.00187006
0.00191554
0.00211489
0.00206632
0.00202423
0.00199307
0.0019592
0.00194901
0.00190053
0.00194493
0.00217689
0.00212225
0.00207377
0.00203637
0.0019963
0.00198117
0.00192497
0.00196688
0.00221494
0.00215835
0.00210792
0.00206869
0.00202639
0.00200964
0.00195023
0.00198985
0.00225832
0.00219672
0.00214127
0.00209718
0.00204932
0.00202813
0.00196378
0.00200302
0.00228886
0.00222535
0.00216723
0.00212092
0.00207147
0.00205047
0.00198496
0.00202731
0.00231621
0.00224825
0.00218584
0.00213591
0.00208338
0.00206102
0.00199371
0.00203913
0.00233877
0.0022692
0.00220442
0.00215211
0.00209803
0.00207577
0.00200894
0.00205641
0.0023526
0.00228013
0.00221302
0.00215927
0.0021047
0.00208242
0.00201667
0.00206728
0.00236744
0.00229272
0.00222242
0.00216522
0.00210893
0.00208622
0.00202378
0.00207297
0.00237446
0.00229719
0.00222318
0.0021643
0.00211102
0.00209107
0.00203259
0.00208444
0.00238316
0.00230487
0.00222738
0.00216225
0.0021047
0.0020822
0.00202981
0.00207178
0.00238577
0.00230232
0.00221864
0.0021516
0.00209904
0.00208291
0.00204077
0.00208565
0.00239014
0.00231352
0.00223369
0.00216229
0.00210112
0.00207476
0.0020332
0.00205582
0.00238663
0.00230696
0.00222497
0.00215351
0.00209432
0.00206849
0.00203145
0.00203901
0.00152493
0.00154439
0.00157358
0.00161005
0.0016553
0.00170464
0.00175863
0.0018287
0.00161714
0.00162242
0.00163681
0.00165916
0.00168635
0.00172236
0.00174688
0.00181375
0.00172015
0.00171266
0.00171366
0.00172378
0.00173659
0.00176345
0.00177013
0.00183589
0.00181345
0.00179369
0.0017816
0.00177944
0.0017786
0.00179634
0.0017879
0.00185246
0.00190327
0.00187543
0.00185418
0.00184262
0.00183045
0.0018383
0.00181555
0.00187203
0.00197652
0.00194051
0.00191077
0.00189138
0.0018712
0.0018724
0.00184084
0.00189078
0.0020585
0.002015
0.00197716
0.00194924
0.00191928
0.00191222
0.00187023
0.00191608
0.002115
0.0020664
0.00202429
0.00199309
0.00195927
0.00194893
0.00190059
0.00194571
0.00217695
0.00212231
0.00207384
0.00203635
0.00199626
0.00198101
0.00192505
0.00196783
0.00221503
0.00215828
0.00210782
0.00206852
0.00202625
0.00200949
0.00195044
0.00199088
0.00225843
0.00219669
0.00214118
0.0020971
0.00204947
0.00202834
0.0019643
0.00200415
0.00228877
0.00222529
0.00216728
0.00212102
0.00207173
0.00205063
0.00198528
0.00202798
0.00231635
0.00224849
0.00218616
0.00213623
0.00208382
0.00206127
0.00199402
0.00203981
0.00233892
0.00226937
0.00220461
0.00215223
0.00209818
0.00207566
0.00200889
0.00205682
0.00235288
0.00228036
0.00221315
0.00215924
0.00210475
0.00208234
0.00201669
0.00206785
0.00236761
0.00229281
0.00222247
0.00216515
0.00210885
0.00208592
0.00202354
0.00207324
0.00237479
0.00229735
0.00222332
0.00216429
0.00211075
0.00209056
0.00203252
0.00208501
0.0023833
0.00230487
0.00222744
0.00216221
0.0021044
0.00208153
0.00202933
0.0020719
0.00238609
0.00230264
0.00221907
0.00215167
0.00209846
0.00208163
0.00203964
0.00208474
0.00239014
0.0023128
0.00223272
0.00216155
0.00210082
0.00207431
0.00203252
0.00205481
0.00238643
0.00230685
0.00222538
0.00215427
0.00209494
0.00206799
0.00203018
0.00203489
0.00152538
0.00154492
0.00157419
0.00161066
0.00165579
0.00170509
0.00175903
0.0018303
0.001617
0.00162227
0.00163672
0.00165905
0.00168622
0.00172231
0.00174688
0.00181436
0.00172012
0.00171266
0.00171373
0.00172386
0.00173675
0.00176359
0.00177028
0.00183667
0.0018135
0.00179377
0.00178179
0.00177964
0.00177885
0.00179644
0.00178805
0.0018533
0.00190319
0.00187539
0.00185424
0.00184271
0.0018306
0.00183834
0.00181574
0.00187293
0.0019765
0.00194054
0.00191096
0.00189157
0.00187146
0.00187256
0.00184114
0.00189169
0.00205842
0.0020149
0.00197723
0.00194942
0.0019196
0.00191238
0.00187049
0.00191681
0.00211514
0.00206654
0.00202441
0.00199314
0.0019594
0.00194888
0.00190067
0.00194664
0.00217699
0.00212238
0.00207395
0.00203638
0.00199628
0.00198087
0.00192517
0.00196898
0.00221521
0.00215828
0.00210775
0.00206833
0.0020261
0.00200926
0.00195059
0.0019921
0.00225855
0.00219671
0.00214112
0.002097
0.00204963
0.00202854
0.00196488
0.00200559
0.00228864
0.00222517
0.00216725
0.00212104
0.00207197
0.00205077
0.00198566
0.00202889
0.00231645
0.00224873
0.00218651
0.00213657
0.00208433
0.00206162
0.00199451
0.0020408
0.00233906
0.00226955
0.00220486
0.0021524
0.0020984
0.00207559
0.00200891
0.0020574
0.00235324
0.00228075
0.00221344
0.00215931
0.00210488
0.00208229
0.0020168
0.0020686
0.00236784
0.002293
0.00222262
0.00216516
0.00210881
0.00208557
0.00202328
0.00207357
0.00237525
0.00229769
0.00222363
0.00216444
0.00211056
0.00208991
0.00203226
0.00208542
0.00238352
0.0023049
0.00222764
0.00216244
0.00210431
0.00208076
0.00202855
0.00207176
0.00238655
0.00230308
0.00221991
0.00215242
0.00209847
0.00208031
0.00203803
0.00208285
0.00239006
0.00231185
0.00223199
0.00216146
0.00210125
0.00207427
0.00203203
0.00205354
0.00238608
0.00230658
0.00222577
0.00215513
0.00209567
0.0020673
0.00202842
0.00202933
0.00152597
0.00154557
0.00157494
0.00161145
0.00165646
0.00170569
0.00175952
0.00183219
0.00161688
0.00162208
0.00163661
0.00165895
0.0016861
0.00172227
0.00174687
0.00181518
0.00172011
0.00171266
0.00171379
0.00172393
0.0017369
0.00176373
0.00177045
0.00183763
0.00181357
0.00179386
0.00178199
0.00177989
0.00177918
0.00179662
0.00178827
0.00185431
0.0019031
0.00187532
0.00185427
0.00184278
0.00183078
0.00183841
0.00181596
0.00187401
0.00197657
0.00194058
0.00191118
0.00189181
0.00187178
0.00187276
0.00184148
0.00189281
0.00205833
0.00201476
0.00197726
0.00194958
0.00191998
0.0019126
0.00187083
0.00191777
0.00211534
0.00206674
0.0020246
0.00199324
0.0019596
0.00194889
0.0019008
0.00194777
0.00217702
0.00212245
0.00207408
0.00203645
0.00199639
0.0019808
0.00192533
0.00197036
0.00221549
0.00215836
0.00210773
0.00206816
0.00202596
0.00200898
0.00195066
0.00199349
0.00225868
0.00219678
0.00214113
0.00209693
0.00204981
0.00202874
0.0019655
0.00200735
0.00228853
0.00222502
0.00216716
0.00212096
0.00207215
0.00205087
0.00198607
0.00203003
0.00231655
0.00224897
0.00218688
0.00213693
0.0020849
0.00206203
0.00199515
0.00204211
0.00233918
0.00226975
0.00220515
0.00215261
0.00209868
0.00207555
0.00200899
0.00205821
0.00235369
0.00228127
0.00221393
0.00215954
0.0021051
0.00208225
0.00201697
0.00206953
0.00236813
0.00229328
0.00222293
0.00216531
0.00210887
0.0020852
0.00202298
0.00207395
0.00237583
0.00229822
0.00222418
0.0021648
0.00211052
0.00208919
0.00203178
0.00208544
0.00238383
0.00230498
0.002228
0.00216302
0.00210464
0.00208008
0.00202749
0.00207116
0.00238716
0.00230364
0.00222109
0.00215389
0.00209931
0.0020793
0.00203611
0.00207979
0.00239011
0.00231062
0.00223142
0.00216223
0.00210278
0.00207495
0.00203182
0.00205192
0.00238558
0.00230612
0.00222616
0.00215614
0.00209651
0.00206639
0.00202611
0.00202226
0.00152671
0.00154637
0.00157586
0.00161244
0.0016573
0.00170645
0.00176011
0.00183434
0.00161679
0.00162189
0.00163646
0.00165884
0.00168599
0.00172225
0.00174685
0.00181624
0.00172016
0.00171268
0.00171386
0.00172398
0.00173702
0.00176386
0.0017706
0.00183878
0.00181367
0.00179397
0.00178223
0.00178016
0.00177958
0.00179689
0.00178855
0.00185552
0.00190302
0.00187522
0.00185427
0.00184282
0.00183099
0.00183852
0.00181621
0.0018753
0.00197674
0.00194068
0.00191143
0.00189208
0.00187217
0.00187301
0.00184185
0.00189417
0.00205824
0.00201461
0.00197726
0.0019497
0.00192038
0.00191287
0.00187125
0.00191898
0.00211562
0.00206699
0.00202485
0.00199338
0.00195987
0.00194895
0.00190099
0.00194911
0.00217702
0.00212251
0.00207421
0.00203655
0.0019966
0.00198081
0.00192557
0.00197202
0.00221585
0.00215855
0.00210778
0.00206802
0.00202587
0.00200869
0.00195067
0.00199507
0.00225879
0.00219689
0.00214121
0.0020969
0.00205004
0.00202895
0.00196613
0.00200938
0.00228848
0.00222487
0.00216704
0.00212081
0.00207228
0.00205089
0.00198645
0.00203139
0.00231668
0.00224922
0.00218729
0.00213731
0.00208551
0.00206247
0.00199589
0.00204374
0.00233929
0.00226995
0.00220548
0.00215287
0.00209904
0.00207554
0.00200912
0.00205924
0.00235422
0.00228191
0.00221462
0.00215997
0.00210545
0.00208222
0.00201715
0.00207056
0.00236847
0.00229366
0.00222342
0.00216565
0.00210908
0.00208482
0.00202263
0.0020743
0.00237649
0.00229895
0.00222502
0.00216541
0.00211069
0.00208844
0.00203105
0.00208485
0.00238425
0.00230516
0.00222854
0.00216401
0.00210555
0.00207969
0.00202632
0.00206993
0.00238794
0.00230441
0.00222256
0.00215593
0.00210101
0.0020788
0.0020341
0.0020755
0.00239055
0.0023094
0.00223088
0.0021636
0.00210538
0.00207643
0.00203193
0.00204981
0.00238497
0.00230549
0.0022266
0.00215737
0.00209753
0.00206523
0.0020232
0.00201369
0.00152759
0.00154732
0.00157694
0.00161361
0.00165834
0.00170739
0.00176082
0.00183672
0.00161675
0.00162172
0.0016363
0.00165873
0.00168592
0.00172227
0.00174679
0.00181754
0.00172028
0.00171273
0.00171393
0.00172404
0.00173712
0.00176397
0.0017707
0.00184011
0.00181382
0.00179413
0.0017825
0.00178048
0.00178005
0.00179727
0.0017889
0.00185695
0.00190296
0.00187511
0.00185425
0.00184284
0.00183121
0.00183868
0.00181649
0.00187679
0.00197705
0.00194086
0.00191173
0.00189241
0.00187264
0.00187332
0.00184225
0.00189579
0.00205815
0.00201445
0.00197723
0.00194978
0.00192078
0.00191319
0.00187171
0.00192047
0.002116
0.00206733
0.00202519
0.00199358
0.0019602
0.00194909
0.00190123
0.0019507
0.00217702
0.00212255
0.00207435
0.00203666
0.00199691
0.00198094
0.0019259
0.00197398
0.00221631
0.00215885
0.00210793
0.00206794
0.00202584
0.00200844
0.00195064
0.00199686
0.00225889
0.00219701
0.00214136
0.00209695
0.00205034
0.00202921
0.00196675
0.00201167
0.00228852
0.00222479
0.00216694
0.00212061
0.00207234
0.00205084
0.00198675
0.00203294
0.00231687
0.00224951
0.00218773
0.00213772
0.00208614
0.00206291
0.00199667
0.00204561
0.00233941
0.00227015
0.00220585
0.00215318
0.00209946
0.00207553
0.00200926
0.00206043
0.00235483
0.00228265
0.00221549
0.0021606
0.00210596
0.00208219
0.00201729
0.00207155
0.00236888
0.00229413
0.0022241
0.00216624
0.00210953
0.00208447
0.0020222
0.00207449
0.00237721
0.00229984
0.00222618
0.00216634
0.00211113
0.00208772
0.00203014
0.00208348
0.0023848
0.00230552
0.00222933
0.0021654
0.00210709
0.00207977
0.00202522
0.00206795
0.00238882
0.00230549
0.00222436
0.00215835
0.00210332
0.00207879
0.00203217
0.00207008
0.00239142
0.00230873
0.00223052
0.00216514
0.00210848
0.0020784
0.00203222
0.00204704
0.00238438
0.00230472
0.0022271
0.00215889
0.00209883
0.00206389
0.00201967
0.00200369
0.00152861
0.00154843
0.00157818
0.00161498
0.00165958
0.0017085
0.00176162
0.00183928
0.00161677
0.00162159
0.00163613
0.00165863
0.00168588
0.00172236
0.00174672
0.0018191
0.00172048
0.00171282
0.00171403
0.0017241
0.00173722
0.00176408
0.00177073
0.00184163
0.00181403
0.00179435
0.00178283
0.00178085
0.00178059
0.00179775
0.0017893
0.00185861
0.00190293
0.00187499
0.00185422
0.00184283
0.00183144
0.00183889
0.00181677
0.00187851
0.00197752
0.00194118
0.00191212
0.0018928
0.00187318
0.00187372
0.00184266
0.00189767
0.00205807
0.0020143
0.0019772
0.00194983
0.00192118
0.00191355
0.00187219
0.00192225
0.00211651
0.00206775
0.00202563
0.00199385
0.00196061
0.00194932
0.00190151
0.00195252
0.00217702
0.00212258
0.00207449
0.00203679
0.00199729
0.0019812
0.00192632
0.00197626
0.00221686
0.00215927
0.00210822
0.00206796
0.00202591
0.00200827
0.00195059
0.00199888
0.00225898
0.00219715
0.00214157
0.00209707
0.00205071
0.00202952
0.00196735
0.00201418
0.00228871
0.00222481
0.00216692
0.00212043
0.00207238
0.00205072
0.00198694
0.00203463
0.00231715
0.00224985
0.00218823
0.00213816
0.00208681
0.00206332
0.0019974
0.00204758
0.00233955
0.00227038
0.00220627
0.00215355
0.00209994
0.00207551
0.00200937
0.00206166
0.00235549
0.00228347
0.00221651
0.00216144
0.00210667
0.00208217
0.00201732
0.00207227
0.00236934
0.0022947
0.00222499
0.00216709
0.00211024
0.0020842
0.00202171
0.00207431
0.00237796
0.00230086
0.00222767
0.00216761
0.00211185
0.00208704
0.00202906
0.00208121
0.00238545
0.00230614
0.00223043
0.00216713
0.00210913
0.00208028
0.00202433
0.00206517
0.00238967
0.00230696
0.00222657
0.002161
0.00210589
0.00207901
0.00203029
0.00206367
0.00239237
0.00230896
0.00223079
0.00216666
0.00211135
0.00208008
0.00203223
0.00204338
0.00238393
0.00230393
0.00222768
0.00216071
0.00210048
0.00206247
0.00201557
0.00199245
0.00152975
0.00154968
0.00157958
0.00161653
0.00166099
0.00170977
0.00176252
0.00184197
0.00161686
0.00162153
0.00163601
0.00165856
0.00168589
0.00172253
0.00174662
0.00182092
0.00172078
0.00171298
0.00171417
0.00172419
0.00173731
0.00176419
0.00177066
0.00184332
0.00181433
0.00179465
0.00178324
0.00178129
0.0017812
0.00179834
0.00178973
0.00186051
0.00190297
0.0018749
0.0018542
0.00184281
0.00183166
0.00183915
0.00181704
0.00188047
0.00197814
0.00194164
0.00191261
0.00189328
0.00187381
0.00187422
0.00184308
0.00189984
0.002058
0.00201418
0.0019772
0.00194987
0.00192157
0.00191395
0.00187267
0.00192433
0.00211715
0.00206829
0.00202616
0.00199421
0.00196111
0.00194965
0.00190182
0.00195457
0.00217704
0.00212263
0.00207465
0.00203694
0.00199773
0.00198158
0.0019268
0.00197884
0.00221751
0.00215981
0.00210864
0.0020681
0.0020261
0.00200822
0.00195054
0.00200114
0.00225907
0.00219731
0.00214184
0.00209726
0.00205116
0.00202989
0.00196794
0.00201686
0.00228904
0.002225
0.00216705
0.00212034
0.00207244
0.00205055
0.00198702
0.00203636
0.00231752
0.00225029
0.0021888
0.00213865
0.0020875
0.00206369
0.00199804
0.00204947
0.00233976
0.00227065
0.00220674
0.00215397
0.00210049
0.00207547
0.0020094
0.00206269
0.00235617
0.00228434
0.00221762
0.00216242
0.00210755
0.00208214
0.00201723
0.00207246
0.00236986
0.00229535
0.00222607
0.00216821
0.00211122
0.00208401
0.00202117
0.00207352
0.00237874
0.00230198
0.00222946
0.00216924
0.00211285
0.00208637
0.00202786
0.00207799
0.00238616
0.00230708
0.00223193
0.00216914
0.00211145
0.00208101
0.00202362
0.00206156
0.00239039
0.00230876
0.00222924
0.00216382
0.00210841
0.0020791
0.00202829
0.00205646
0.00239306
0.00230995
0.00223199
0.00216832
0.00211359
0.00208078
0.00203128
0.0020385
0.00238372
0.0023033
0.00222836
0.00216272
0.00210241
0.00206105
0.00201102
0.00198023
0.00153098
0.00155105
0.00158109
0.0016182
0.00166255
0.00171118
0.00176349
0.00184474
0.00161705
0.00162158
0.00163597
0.00165855
0.00168596
0.0017228
0.00174653
0.001823
0.00172118
0.00171324
0.00171436
0.00172431
0.00173742
0.00176432
0.00177047
0.00184518
0.00181472
0.00179504
0.00178373
0.00178181
0.00178186
0.00179902
0.00179015
0.00186266
0.00190307
0.00187486
0.0018542
0.00184281
0.00183189
0.00183946
0.00181727
0.00188266
0.00197891
0.00194228
0.00191324
0.00189384
0.00187451
0.00187484
0.00184348
0.00190228
0.00205795
0.00201411
0.00197723
0.00194994
0.00192196
0.00191439
0.0018731
0.00192671
0.00211793
0.00206894
0.0020268
0.00199468
0.00196169
0.00195009
0.00190214
0.0019568
0.00217709
0.00212271
0.00207485
0.00203711
0.00199821
0.00198206
0.00192731
0.00198163
0.00221825
0.00216045
0.00210919
0.00206838
0.00202642
0.00200831
0.00195053
0.0020036
0.00225919
0.0021975
0.00214216
0.00209751
0.00205166
0.00203032
0.00196849
0.00201961
0.00228951
0.00222536
0.00216737
0.0021204
0.00207258
0.00205039
0.00198699
0.00203802
0.00231794
0.00225081
0.00218947
0.0021392
0.00208821
0.00206399
0.00199854
0.00205107
0.00234004
0.002271
0.00220728
0.00215445
0.0021011
0.00207539
0.00200933
0.00206327
0.00235687
0.00228524
0.00221882
0.00216351
0.00210855
0.00208208
0.00201698
0.00207189
0.00237046
0.00229612
0.00222732
0.00216954
0.00211243
0.00208385
0.00202056
0.00207189
0.00237957
0.00230318
0.00223146
0.00217119
0.00211407
0.00208562
0.00202647
0.00207383
0.00238688
0.00230832
0.00223384
0.00217138
0.00211378
0.00208161
0.00202286
0.0020571
0.00239093
0.00231073
0.00223229
0.00216675
0.00211067
0.00207873
0.00202587
0.00204857
0.00239342
0.00231136
0.00223406
0.00217031
0.0021152
0.00208017
0.00202887
0.00203213
0.0023838
0.00230296
0.00222916
0.00216478
0.00210443
0.0020596
0.00200609
0.00196734
0.00153228
0.00155251
0.00158269
0.00161996
0.00166419
0.00171266
0.0017645
0.00184757
0.00161735
0.00162177
0.00163605
0.00165864
0.00168612
0.00172318
0.00174644
0.00182532
0.00172169
0.0017136
0.00171462
0.00172448
0.00173755
0.0017645
0.00177017
0.00184721
0.00181522
0.00179554
0.00178432
0.00178242
0.00178259
0.00179981
0.00179053
0.00186506
0.00190326
0.0018749
0.00185425
0.00184284
0.00183212
0.00183983
0.00181743
0.00188507
0.00197982
0.00194309
0.00191401
0.00189452
0.00187529
0.00187557
0.00184387
0.00190499
0.00205794
0.00201409
0.00197733
0.00195005
0.00192236
0.00191489
0.00187348
0.00192935
0.00211883
0.00206971
0.00202755
0.00199526
0.00196235
0.00195064
0.00190245
0.00195917
0.00217719
0.00212283
0.00207509
0.00203733
0.00199872
0.00198261
0.00192781
0.00198454
0.00221908
0.00216119
0.00210986
0.00206878
0.00202686
0.00200854
0.00195056
0.00200615
0.00225936
0.00219775
0.00214255
0.00209782
0.00205219
0.00203077
0.001969
0.00202231
0.00229007
0.0022259
0.0021679
0.00212067
0.00207287
0.00205026
0.0019869
0.00203947
0.00231839
0.00225141
0.00219022
0.0021398
0.00208895
0.0020642
0.00199889
0.00205213
0.0023404
0.00227147
0.00220791
0.00215498
0.00210174
0.00207523
0.00200916
0.00206309
0.00235756
0.00228617
0.00222004
0.00216462
0.00210958
0.00208191
0.00201658
0.00207032
0.00237114
0.00229699
0.00222869
0.00217103
0.00211376
0.00208362
0.00201982
0.00206926
0.00238043
0.00230443
0.00223356
0.00217333
0.00211542
0.00208466
0.00202479
0.00206881
0.00238762
0.00230976
0.00223606
0.00217374
0.0021159
0.00208172
0.00202171
0.00205181
0.00239129
0.00231271
0.00223557
0.00216971
0.0021125
0.0020777
0.00202276
0.00204017
0.00239356
0.00231287
0.00223666
0.00217261
0.00211635
0.00207842
0.00202489
0.00202431
0.00238415
0.00230299
0.00223007
0.00216672
0.00210628
0.00205801
0.00200086
0.00195418
0.00153361