/*--------------------------------*- C++ -*----------------------------------*\
  =========                 |
  \\      /  F ield         | OpenFOAM: The Open Source CFD Toolbox
   \\    /   O peration     | Website:  https://openfoam.org
    \\  /    A nd           | Version:  6
     \\/     M anipulation  |
\*---------------------------------------------------------------------------*/
FoamFile
{
    version     2.0;
    format      ascii;
    class       volScalarField;
    location    "39";
    object      yPlus;
}
// * * * * * * * * * * * * * * * * * * * * * * * * * * * * * * * * * * * * * //

dimensions      [0 0 0 0 0 0 0];

internalField   uniform 0;

boundaryField
{
    inlet
    {
        type            calculated;
        value           uniform 0;
    }
    outlet
    {
        type            calculated;
        value           uniform 0;
    }
    roughCylinder
    {
        type            calculated;
        value           nonuniform List<scalar> 
5120
(
16.2704
25.0777
36.8163
40.5409
43.7828
45.1941
46.2337
46.6378
47.0823
47.3945
47.7311
47.7339
47.4021
47.0466
46.7847
46.5753
46.239
45.9598
45.7446
45.4275
44.3879
42.8109
42.5971
43.8704
44.3032
43.2358
43.0938
42.6447
42.242
41.3677
41.0323
40.6714
2.84588
24.9848
36.4951
40.3169
43.5414
45.063
46.17
46.6249
47.0956
47.4372
47.7717
47.8101
47.6236
47.3093
47.0606
46.8408
46.5561
46.2962
46.0975
45.7295
44.6735
43.2521
42.9644
44.1946
44.7429
43.5355
43.4017
42.9489
42.5925
41.8023
41.5038
41.2178
12.4099
24.7558
36.1064
40.1048
43.3704
44.9768
46.136
46.6876
47.2284
47.5962
47.9012
47.8545
47.5861
47.3183
47.1455
47.045
46.7474
46.484
46.2454
45.8105
44.7419
43.4759
43.1563
44.483
45.2898
44.0556
44.0623
43.665
43.3878
42.6514
42.3185
42.0199
4.88492
24.9056
35.8089
39.9751
43.2603
44.98
46.1957
46.7758
47.3245
47.6861
47.9666
48.0039
47.8677
47.6336
47.4416
47.3088
47.0663
46.8232
46.5962
46.1846
45.1655
44.1228
43.678
45.0513
45.798
44.5264
44.5065
44.0692
43.8208
43.1445
42.8321
42.5959
17.5837
24.4521
35.3708
39.7735
43.1358
44.9554
46.2336
46.9125
47.4981
47.8578
48.1138
48.0547
47.8824
47.7069
47.6064
47.5845
47.3528
47.1086
46.8217
46.4138
45.4151
44.5133
43.9521
45.4542
46.2531
45.0807
45.1772
44.8156
44.6625
44.0581
43.7355
43.4968
10.046
24.7055
35.0721
39.6786
43.0925
44.9962
46.3004
46.9865
47.5889
47.9504
48.1917
48.2674
48.1922
48.0337
47.8866
47.8125
47.6417
47.4188
47.1522
46.8665
45.9429
45.2825
44.6224
46.2081
46.8105
45.7173
45.7487
45.3171
45.1746
44.605
44.2927
44.0994
10.1509
23.9
34.4905
39.3538
42.8684
44.9039
46.3109
47.1199
47.7444
48.104
48.3501
48.3186
48.252
48.1674
48.1306
48.1572
48.0108
47.7873
47.4641
47.2522
46.3564
45.7902
45.0096
46.6738
47.1945
46.2787
46.3953
46.0593
46.0247
45.5376
45.2432
45.0562
15.3244
24.2761
34.0714
39.1567
42.7895
44.91
46.324
47.1335
47.8085
48.204
48.4616
48.6003
48.594
48.506
48.3996
48.3614
48.263
48.0546
47.7782
47.7439
46.9207
46.5859
45.7995
47.5152
47.8175
47.039
47.0743
46.6483
46.6046
46.1333
45.8395
45.6805
15.7735
23.45
33.3028
38.6184
42.3766
44.6833
46.2706
47.2446
47.9393
48.3462
48.6279
48.6685
48.7101
48.7226
48.7427
48.7871
48.7042
48.4973
48.1935
48.2539
47.4652
47.1731
46.3126
48.0062
48.1768
47.5857
47.6815
47.3701
47.4403
47.0581
46.8107
46.667
22.6992
23.9609
32.672
38.1692
42.1279
44.5734
46.1855
47.1792
47.9798
48.4606
48.7994
49.0179
49.0899
49.0681
49.0055
48.9818
48.9238
48.7293
48.5084
48.7338
48.0151
47.9286
47.174
48.8624
48.8763
48.4242
48.4487
48.0418
48.0774
47.6996
47.4393
47.3077
25.3832
23.5214
31.703
37.3527
41.4827
44.185
46.0552
47.2583
48.0767
48.5945
48.9502
49.1034
49.2583
49.3686
49.4404
49.4789
49.4208
49.2422
49.0368
49.3258
48.6625
48.5728
47.7936
49.3614
49.243
48.9349
48.9989
48.7181
48.8643
48.58
48.3929
48.285
31.0396
24.1924
30.8572
36.5414
40.9067
43.8268
45.7882
47.0722
48.0806
48.7018
49.1796
49.4912
49.65
49.6924
49.6726
49.6544
49.6125
49.4583
49.361
49.7515
49.1626
49.2376
48.6466
50.1675
49.9906
49.7951
49.8147
49.4484
49.5307
49.2459
49.0271
48.9187
36.2021
24.7499
29.7626
35.411
39.9706
43.2325
45.5421
47.079
48.0983
48.799
49.2631
49.5632
49.8407
50.048
50.1689
50.191
50.1411
50.0261
49.978
50.3794
49.8752
49.9128
49.3182
50.6542
50.3586
50.2403
50.2787
50.0402
50.2225
50.0348
49.9136
49.8369
42.9273
26.7585
28.9692
34.2117
38.8965
42.4376
44.947
46.6849
48.0182
48.8413
49.5069
49.9239
50.1791
50.2916
50.3209
50.3247
50.3058
50.2345
50.29
50.7185
50.2877
50.4414
50.0683
51.3448
51.0944
51.06
51.0898
50.7879
50.8813
50.6872
50.5114
50.4238
48.4107
28.9327
28.2092
32.8045
37.5975
41.5187
44.4703
46.5007
47.8462
48.8292
49.4449
49.9226
50.3376
50.6501
50.8323
50.8531
50.8309
50.8173
50.9337
51.3355
51.0138
51.1127
50.7292
51.7895
51.4207
51.3904
51.4147
51.2291
51.4054
51.3097
51.2544
51.2067
53.3624
31.8601
27.9286
31.3185
35.8836
40.0201
43.3008
45.7376
47.5845
48.7139
49.6363
50.1745
50.5293
50.725
50.8289
50.9031
50.9458
50.9914
51.1777
51.5497
51.2793
51.4439
51.2686
52.276
52.0515
52.101
52.1654
51.9504
52.0357
51.9254
51.7929
51.7248
57.0857
34.8043
27.9663
29.8091
34.1655
38.5931
42.3512
45.1011
46.9902
48.4443
49.3222
50.0512
50.631
51.0607
51.3156
51.3604
51.3994
51.505
51.7491
52.0988
51.9501
52.0734
51.879
52.6898
52.3194
52.3014
52.3297
52.201
52.3485
52.3307
52.3379
52.3193
59.431
37.725
28.5069
28.2451
31.7381
36.0212
40.1663
43.6594
46.3367
47.982
49.3262
50.0753
50.5837
50.9066
51.1244
51.3197
51.4682
51.6401
51.908
52.192
52.0501
52.1896
52.1594
52.9223
52.7822
52.8544
52.9719
52.8544
52.9125
52.8662
52.7698
52.7178
60.1184
40.0971
29.4249
26.9139
29.5941
33.9255
38.3568
42.0269
44.8574
47.1572
48.5457
49.7308
50.5941
51.187
51.5432
51.667
51.8023
52.021
52.3442
52.6245
52.6185
52.7487
52.6994
53.266
52.9007
52.8227
52.8534
52.7748
52.8707
52.8962
52.9614
52.9689
59.1836
41.5651
30.3828
25.4649
26.3806
29.5519
34.2882
39.3137
43.3426
45.93
48.0494
49.211
50.0369
50.6154
51.0474
51.4457
51.7542
52.0426
52.3149
52.5007
52.4325
52.5231
52.5758
53.0641
53.0234
53.095
53.2811
53.2666
53.2863
53.2749
53.1826
53.1299
57.3232
42.1648
31.2316
24.3417
23.4954
26.6036
30.7835
35.2642
39.908
43.9214
46.3836
48.4541
49.8429
50.7266
51.2742
51.5282
51.7831
52.0892
52.4513
52.6699
52.771
52.9186
52.9821
53.2744
52.8315
52.5834
52.5378
52.4414
52.4136
52.388
52.479
52.4925
54.8476
41.9962
31.5972
22.8047
19.416
18.1266
21.9819
29.9197
36.2424
40.9057
44.6567
46.6794
48.1578
49.2803
50.1309
50.8825
51.4397
51.8558
52.0397
52.0965
51.9982
51.9772
51.9955
52.062
52.0115
52.0825
52.318
52.3888
52.3463
52.2982
52.1422
52.0456
51.6068
41.2509
31.7219
21.3042
12.3894
4.29829
11.2114
11.7428
26.9659
35.9406
41.2427
45.1911
47.5545
48.8901
49.7376
50.1771
50.5735
50.9114
51.3097
51.4712
51.6272
51.7996
51.9382
51.8463
51.0781
50.3469
49.9144
49.5345
49.1014
48.7059
48.6566
48.5825
47.7666
39.9419
31.2314
19.4351
6.31117
11.7113
11.9695
12.5711
10.0994
28.288
36.0841
40.2367
43.1234
45.4424
47.1095
48.5091
49.4648
50.1036
50.0253
49.8012
49.454
49.063
48.7157
47.8069
47.2694
47.4606
47.6324
47.6792
47.4547
47.2003
46.712
46.3773
43.4828
38.4787
31.0517
18.2861
6.97685
3.94054
5.47668
12.3522
13.5831
14.0001
30.9831
38.0107
41.7945
43.5849
44.7869
45.3729
45.9239
46.0616
46.5609
46.66
46.8272
46.9853
47.085
46.318
44.5096
41.2206
38.1029
35.1496
30.9508
25.5044
21.0249
17.4564
37.0194
36.5483
30.4953
18.2003
4.88835
11.0925
9.71711
13.4107
7.72578
13.5018
16.0886
11.8807
23.4929
31.6707
36.8462
40.6035
42.5717
44.0326
43.0814
41.6559
39.5524
36.636
33.2668
25.8516
13.5074
15.1224
16.7938
21.1086
20.7063
14.1912
8.78148
3.13538
24.2721
33.2643
30.3653
18.2265
8.83913
10.2496
10.3676
14.3071
1.7809
14.4675
5.35927
14.5693
9.98303
12.0518
18.6137
10.672
16.8257
14.07
14.7672
12.5968
14.8729
14.8847
6.27356
13.7877
12.016
7.05985
18.6056
10.6118
16.0313
20.2468
13.5069
20.0534
11.4348
26.9508
29.771
22.4959
11.9335
13.4215
16.7946
17.5871
19.4119
21.1723
20.3628
10.6914
16.5049
10.9306
15.468
11.0137
9.63517
11.0288
17.1343
1.26164
12.2881
5.09742
10.4263
15.9529
6.50959
17.9951
10.0008
15.4053
19.3034
21.9597
23.048
24.4495
7.56424
18.3885
24.9886
23.9236
17.2915
14.6969
19.3473
23.8823
26.7675
28.856
29.6323
26.6281
19.5274
13.1051
9.24411
15.2852
18.671
13.924
17.2344
10.6533
1.07687
11.9623
16.9145
20.2728
23.6644
27.1986
28.7471
28.8927
28.9293
28.8598
28.9298
28.8856
9.25304
15.5204
19.637
21.5997
19.1502
15.9337
17.9831
23.3123
27.8396
31.1242
31.7055
27.4494
23.5491
23.9722
24.8294
24.4292
23.9057
23.3272
23.8997
25.2051
27.5054
28.4991
29.372
30.1975
30.9075
30.9337
31.3845
31.4756
31.4438
31.3034
31.1832
31.0242
9.66397
16.0049
18.3297
20.246
20.0129
17.9046
17.761
21.4428
26.0814
29.6328
28.6573
24.9487
24.7355
26.1965
26.8316
27.2871
28.0184
28.5556
29.0078
29.5365
30.2693
31.2617
32.2614
33.0912
33.5868
33.4447
33.3024
32.6754
31.8707
30.9744
30.2368
29.6799
9.09864
15.288
17.8414
19.9794
20.6792
19.6495
18.7065
20.1927
22.9859
24.1
22.1654
22.3909
24.8319
26.5294
27.6671
28.9358
30.0848
30.8759
31.4128
31.9238
32.5466
33.0722
33.5523
33.7825
33.4435
32.5035
31.8891
30.9145
29.7259
28.4508
27.363
26.6377
6.61994
12.6864
15.7615
18.5146
19.9972
19.8072
18.719
18.358
18.8155
19.2907
20.5324
22.7088
23.7874
23.9522
24.6566
26.529
28.5928
29.9405
30.6406
31.0419
31.3819
31.592
31.7352
31.6716
31.1088
30.1659
29.6015
28.8323
27.8859
26.8903
26.0286
25.5186
4.46139
11.4054
13.4338
16.1937
18.3017
19.0769
18.8441
18.7544
19.5178
21.099
22.9554
23.9994
23.8755
23.1697
22.6201
23.3423
25.2409
26.9371
27.9422
28.5049
28.9057
29.2131
29.4836
29.6323
29.4425
28.865
28.3602
27.6496
26.7042
25.6545
24.6974
24.1888
3.53737
11.2633
12.3687
14.6283
17.0279
18.8149
20.0198
21.1495
22.3891
23.7409
24.7643
25.0164
24.4773
23.3965
22.2236
22.0584
23.2676
24.8173
26.0366
26.8976
27.5125
27.9285
28.2104
28.3115
28.062
27.2394
26.483
25.6134
24.63
23.7415
23.0954
22.8184
3.54841
11.2425
12.4688
14.5138
16.9942
19.2909
21.1898
22.7005
23.9311
24.8356
25.2473
25.0026
24.0247
22.4431
20.7117
19.9719
21.0306
22.7609
24.2256
25.2862
26.0345
26.4856
26.7461
26.7702
26.4738
25.9142
25.2792
24.5287
23.7494
23.1342
22.7758
22.6899
3.70737
11.0808
12.7633
14.8751
17.3342
19.6478
21.5809
23.1192
24.2328
24.8871
24.9887
24.409
23.0735
21.0478
18.7489
17.5483
18.5947
20.7238
22.6411
24.0814
25.1428
25.9246
26.4353
26.6436
26.5163
26.059
25.4014
24.6441
23.9764
23.5919
23.4789
23.5348
3.75345
10.7557
12.8231
15.0129
17.3233
19.4905
21.3491
22.8413
23.8826
24.4182
24.3533
23.5743
22.0158
19.6797
17.0558
16.1735
18.0984
20.7836
23.0078
24.7333
26.0605
27.025
27.6205
27.8399
27.7073
27.2537
26.5521
25.7705
25.1561
24.9226
24.9783
25.1277
3.86207
10.3162
12.572
14.7367
16.8449
18.8349
20.6285
22.0775
23.0784
23.5455
23.377
22.4671
20.729
18.1609
15.9423
16.7431
19.7232
22.558
24.8373
26.678
28.1283
29.1753
29.7858
29.9649
29.7678
29.2524
28.4913
27.687
27.1156
27.0052
27.1972
27.4218
3.87913
10.0032
12.282
14.3186
16.2638
18.1354
19.8121
21.1542
22.0426
22.3749
22.0483
20.9507
18.9877
16.5777
16.2794
19.1487
22.4609
25.2104
27.5095
29.4353
30.9755
32.0785
32.6885
32.8129
32.5366
31.949
31.1353
30.3201
29.7944
29.7831
30.0736
30.3515
5.38088
5.38164
4.4091
3.61924
3.6747
4.34391
5.09211
5.55984
6.25673
6.4081
6.70371
7.18605
8.00479
7.99661
5.85371
3.0968
1.73026
1.05512
1.05452
2.18694
0.292014
2.85391
6.4957
8.67019
9.77963
9.82647
8.90811
7.43016
5.98278
4.73989
3.54458
2.62413
2.32123
2.43413
2.6339
2.80262
2.91595
3.05366
3.29754
3.56834
15.5707
15.808
14.6115
13.4593
13.1341
13.4032
13.9113
13.8231
14.2228
13.4609
12.439
11.668
9.90935
10.0826
4.53722
1.41584
2.79515
5.74465
5.11634
2.85528
8.16611
7.06859
10.9785
12.4109
13.358
13.6811
13.6544
13.0654
12.2249
11.6982
10.524
8.66019
7.912
8.19422
8.38404
8.24652
8.15636
8.34118
8.79441
9.27676
20.4238
20.8195
19.7573
18.5669
17.8385
17.3803
17.3224
16.4973
16.3606
14.4051
12.1929
9.84928
7.78238
6.515
5.45786
7.86955
4.16482
8.52043
11.621
14.2446
16.427
17.7342
18.4524
18.756
18.7393
18.4287
17.91
17.1216
16.0646
14.5451
12.7963
10.4833
8.22883
8.27409
9.14679
9.48364
9.68538
10.1057
10.7957
11.4322
24.0782
24.1628
22.8657
21.5014
20.4504
19.5749
19.0674
17.3675
16.1716
12.6126
6.17272
0.61523
1.95338
7.9296
12.35
15.176
18.0733
19.9225
21.2237
22.146
22.7756
23.1222
23.2142
23.0718
22.7216
22.1762
21.4557
20.5294
19.415
17.9925
15.9917
13.1423
10.0851
8.65163
9.48499
10.196
10.6847
11.2994
12.131
13.1184
26.9716
26.4413
24.7999
23.2347
21.9611
20.7477
19.4805
16.3613
13.1335
5.34086
6.51538
12.3035
16.5707
19.4733
21.4017
22.9219
24.0288
24.9468
25.6747
26.2256
26.5867
26.6683
26.5429
26.2274
25.735
25.0761
24.2515
23.257
22.0765
20.629
18.9217
16.2642
12.586
9.78151
9.78321
10.6572
11.3611
12.2449
13.4918
14.7867
28.9984
27.8018
25.8707
24.1137
22.606
20.8239
17.7627
12.6727
8.54064
12.9498
17.78
20.5987
22.58
24.1127
25.4077
26.5296
27.4948
28.3305
28.9681
29.3868
29.5636
29.4953
29.2455
28.8258
28.2475
27.5165
26.6333
25.5905
24.3694
22.9311
21.1942
19.0779
15.5499
11.7555
10.3176
10.9724
11.8254
13.201
14.8014
16.4149
30.0755
28.3769
26.2253
24.2273
22.3933
18.8986
12.7355
11.3265
16.1792
19.9819
22.354
24.222
25.8204
27.2174
28.4346
29.4883
30.3777
31.144
31.6623
31.944
32.02
31.8659
31.5404
31.056
30.4241
29.6507
28.7358
27.6723
26.4417
25.0108
23.3092
21.284
18.5934
14.2519
11.3917
11.2316
12.2763
14.0262
15.9513
17.8859
30.2368
28.2372
25.8541
23.5768
20.4964
13.3392
11.3707
17.347
20.9682
23.3628
25.3614
27.1
28.5956
29.8726
30.9709
31.9229
32.7422
33.437
33.886
34.1195
34.1421
33.935
33.5594
33.0322
32.3667
31.5702
30.6437
29.5811
28.3639
26.9609
25.3153
23.3495
21.0019
17.5614
13.0604
11.5447
12.4967
14.5851
16.8228
19.0511
29.5727
27.3491
24.6909
21.5521
14.4191
12.4494
17.8768
21.4316
23.9783
26.1028
27.9295
29.5029
30.8424
31.9976
33.0169
33.9205
34.7013
35.3655
35.809
36.0263
36.0154
35.7754
35.3678
34.8132
34.1284
33.3235
32.4019
31.358
30.1751
28.8208
27.2478
25.3763
23.1565
20.3987
16.2691
12.4588
12.5043
14.7484
17.2925
19.7908
28.1191
25.6127
22.3247
15.3299
12.4591
17.7152
21.5018
24.2309
26.4571
28.3532
30.0188
31.443
32.6569
33.7328
34.7118
35.5924
36.3543
36.9614
37.4541
37.6942
37.6808
37.4263
36.9997
36.4307
35.7391
34.9388
34.0361
33.0276
31.8966
30.6117
29.1256
27.3738
25.2729
22.8081
19.5417
15.1086
12.8296
14.4566
17.2337
19.9913
25.7941
22.5732
16.5265
12.2364
17.1807
21.1081
24.0456
26.4168
28.4218
30.1735
31.7168
33.011
34.1374
35.173
36.1366
37.007
37.7481
38.3465
38.7647
39.0978
39.1293
38.8908
38.4654
37.896
37.2126
36.4319
35.5638
34.6067
33.5447
32.3464
30.9638
29.3386
27.3948
25.0821
22.3505
18.613
14.5296
13.9921
16.5417
19.537
22.265
17.3117
12.0284
15.9417
20.0704
23.2854
25.9043
28.096
29.9814
31.6437
33.0836
34.2844
35.3621
36.3773
37.3281
38.1823
38.9079
39.4769
39.8968
40.17
40.3256
40.1478
39.7545
39.2083
38.5541
37.8131
36.9988
36.1112
35.1348
34.0374
32.7722
31.2801
29.5005
27.3605
24.8619
21.8757
17.9272
14.6784
15.4049
18.3276
17.665
12.5453
13.6824
17.9842
21.6278
24.7001
27.2415
29.3752
31.204
32.8162
34.1835
35.33
36.3716
37.3573
38.2786
39.1042
39.803
40.3617
40.768
41.034
41.258
41.1829
40.86
40.3708
39.7726
39.0999
38.3637
37.5655
36.69
35.7046
34.5632
33.2097
31.5844
29.6333
27.3177
24.6789
21.5324
17.7123
15.3327
16.5886
14.3155
11.6528
14.3118
18.3798
22.3137
25.5586
28.1818
30.334
32.1486
33.7376
35.0799
36.1924
37.189
38.1228
38.9934
39.7762
40.4463
40.9917
41.4064
41.7247
41.9271
42.0242
41.8172
41.423
40.9166
40.3404
39.7074
39.0166
38.2521
37.3819
36.3617
35.1401
33.6603
31.8766
29.7615
27.3172
24.5996
21.462
17.9683
16.0318
14.4226
11.8984
13.0819
17.6886
22.4278
26.0665
28.8627
31.0796
32.905
34.484
35.8466
36.9467
37.8945
38.7613
39.5665
40.2989
40.9418
41.4869
41.9335
42.3099
42.6024
42.8271
42.7424
42.472
42.0899
41.6356
41.1226
40.5458
39.8894
39.1239
38.2094
37.099
35.7438
34.1041
32.1574
29.9071
27.3877
24.6791
21.6789
18.6741
16.5562
13.2458
11.6078
16.6702
22.4525
26.5261
29.503
31.7931
33.6365
35.2085
36.6072
37.7419
38.6679
39.4804
40.2273
40.9181
41.5478
42.1128
42.6167
43.0748
43.4986
43.8212
43.8632
43.7289
43.4787
43.1455
42.7418
42.2619
41.6901
41.0009
40.1598
39.1267
37.8618
36.3318
34.5143
32.4155
30.0627
27.5401
24.8844
22.2601
18.1612
14.6046
11.8444
16.9878
23.1529
27.3617
30.4034
32.7266
34.5814
36.1486
37.552
38.7843
39.7506
40.5562
41.281
41.9592
42.6004
43.2069
43.7835
44.3321
44.8854
45.2911
45.4416
45.4187
45.2709
45.024
44.6881
44.2617
43.7301
43.0725
42.2601
41.2611
40.0426
38.5765
36.8422
34.8449
32.6069
30.2124
27.6949
25.3296
18.4092
15.0144
14.476
19.73
25.031
28.8926
31.815
34.1013
35.9536
37.5301
38.9525
40.2657
41.3349
42.1879
42.9314
43.6285
44.3041
44.9652
45.6128
46.2406
46.874
47.3737
47.6069
47.6511
47.55
47.3288
47.0006
46.5681
46.0235
45.348
44.5184
43.5086
42.2902
40.8397
39.1384
37.1918
35.0139
32.6911
30.2422
27.9763
18.5721
17.022
19.1425
23.5546
27.7034
31.0431
33.7427
35.9457
37.7863
39.3919
40.8666
42.2444
43.4441
44.3625
45.1373
45.8644
46.5832
47.2991
48.0036
48.6817
49.3325
49.9466
50.2453
50.3174
50.2123
49.9621
49.5867
49.0961
48.4898
47.756
46.8714
45.8129
44.5553
43.079
41.3661
39.4236
37.2583
34.9578
32.5253
30.2953
20.4136
20.8205
23.6058
27.138
30.5125
33.431
35.9226
38.0413
39.8748
41.5276
43.0793
44.544
45.8522
46.8264
47.618
48.3676
49.1266
49.8885
50.6302
51.326
51.972
52.5873
53.0178
53.1188
52.9872
52.6781
52.225
51.6471
50.9513
50.1323
49.1707
48.041
46.7194
45.1892
43.4329
41.46
39.2723
36.9602
34.5105
32.2798
23.1306
24.358
27.0636
30.0547
32.9872
35.6299
37.9755
40.0347
41.8757
43.5852
45.2191
46.7726
48.1808
49.2054
49.9996
50.7594
51.5464
52.339
53.0988
53.795
54.4212
54.9717
55.5176
55.6701
55.5222
55.1547
54.6212
53.9525
53.1631
52.2535
51.2081
49.9992
48.6038
47.0064
45.1911
43.1696
40.9413
38.6012
36.1225
33.8803
25.4765
26.9243
29.4551
32.1343
34.8162
37.2966
39.5578
41.5904
43.4517
45.2145
46.9173
48.5454
50.0432
51.1752
51.9767
52.7254
53.5114
54.3107
55.0751
55.7688
56.3796
56.9086
57.3976
57.659
57.5082
57.0937
56.4937
55.7494
54.8807
53.8917
52.7685
51.4834
50.0143
48.3477
46.4695
44.3955
42.1243
39.7573
37.2574
35.016
26.9829
28.4279
30.7973
33.2856
35.8236
38.219
40.4473
42.4844
44.3736
46.1762
47.9256
49.6055
51.1687
52.503
53.3827
54.1025
54.8399
55.6081
56.3605
57.0534
57.6663
58.1938
58.6969
58.9377
58.7599
58.3091
57.6644
56.8693
55.9446
54.8946
53.706
52.3517
50.8124
49.0791
47.1402
45.0171
42.7105
40.3285
37.8279
35.6139
27.5497
28.8917
31.1161
33.4843
35.9478
38.3187
40.5628
42.641
44.574
46.4117
48.1918
49.9047
51.509
52.9474
54.1177
54.8983
55.5766
56.27
56.9745
57.6509
58.2715
58.8137
59.3771
59.485
59.2623
58.7912
58.1283
57.3092
56.352
55.259
54.0154
52.5996
50.9959
49.2002
47.2061
45.0404
42.7088
40.3267
37.8476
35.6855
27.2493
28.4069
30.477
32.7652
35.2054
37.6057
39.9155
42.0837
44.1018
45.9986
47.8178
49.5656
51.2093
52.6935
53.9763
55.0664
55.8443
56.5017
57.1391
57.7687
58.3716
58.9781
59.3541
59.3964
59.1615
58.6978
58.0431
57.2238
56.254
55.1331
53.8441
52.3755
50.7158
48.865
46.8217
44.6189
42.2682
39.8915
37.4434
35.3387
26.3426
27.2006
29.0529
31.2582
33.6997
36.1687
38.5869
40.8918
43.052
45.0633
46.9591
48.7659
50.4697
52.0227
53.3647
54.495
55.4726
56.3369
57.0292
57.6532
58.2346
58.6511
58.8954
58.9127
58.6964
58.2624
57.6328
56.827
55.8553
54.7157
53.3924
51.88
50.1724
48.2726
46.1839
43.9437
41.5702
39.1888
36.7598
34.6927
25.2511
25.6931
27.2183
29.2874
31.7169
34.2644
36.8107
39.2749
41.6113
43.7898
45.8147
47.7152
49.5016
51.1442
52.5901
53.7962
54.8014
55.6629
56.4122
57.0553
57.5879
57.9986
58.2646
58.3172
58.1391
57.7379
57.1311
56.3352
55.3594
54.2007
52.847
51.2954
49.5434
47.5965
45.4611
43.1765
40.7668
38.3573
35.9186
33.85
24.3998
24.4287
25.5713
27.4464
29.8264
32.4295
35.0885
37.6967
40.1937
42.5379
44.71
46.7231
48.5982
50.3272
51.8715
53.1809
54.2538
55.1442
55.9
56.5441
57.0827
57.5112
57.804
57.8864
57.7354
57.3552
56.7603
55.9661
54.981
53.8024
52.4202
50.8332
49.041
47.0502
44.8695
42.5379
40.0831
37.6282
35.1531
33.0456
23.9734
23.7736
24.6576
26.3781
28.7021
31.327
34.0517
36.7488
39.3448
41.7927
44.0641
46.159
48.098
49.8853
51.4939
52.8796
54.015
54.9415
55.7111
56.3581
56.8984
57.334
57.641
57.7417
57.6087
57.2423
56.6554
55.8627
54.8732
53.6857
52.2895
50.6843
48.8699
46.853
44.6422
42.2752
39.7804
37.2763
34.7489
32.5746
23.8912
23.7113
24.5761
26.2773
28.5891
31.2157
33.9522
36.6671
39.2834
41.7523
44.0441
46.1568
48.1115
49.916
51.5485
52.9674
54.1349
55.0803
55.8556
56.5005
57.0369
57.4712
57.7855
57.8993
57.7799
57.425
56.846
56.058
55.0718
53.8879
52.4965
50.8958
49.0848
47.07
44.8595
42.4878
39.9806
37.4507
34.8824
32.6435
24.0858
24.0523
25.0188
26.7594
29.0612
31.6525
34.3444
37.0132
39.585
42.0121
44.2663
46.3487
48.2824
50.0751
51.7049
53.1304
54.3085
55.2586
56.0322
56.6719
57.2024
57.634
57.9531
58.0827
57.9817
57.6435
57.0788
56.3028
55.3279
54.1573
52.7835
51.2018
49.411
47.4177
45.2289
42.8767
40.3829
37.8558
35.2737
32.999
24.2706
24.3286
25.3294
27.048
29.2908
31.8097
34.43
37.0345
39.5516
41.9343
44.1544
46.2123
48.1306
49.9177
51.5526
52.9943
54.1945
55.1608
55.9431
56.5865
57.1198
57.5567
57.8874
58.0429
57.9711
57.6606
57.1206
56.3665
55.4116
54.2616
52.9116
51.3543
49.5895
47.6239
45.4641
43.1405
40.6722
38.1639
35.5886
33.3063
16.4692
22.3565
35.232
39.2214
42.4386
43.9141
44.9596
45.3403
45.5732
45.4924
45.3806
45.3726
45.5299
45.725
45.7439
45.3577
44.2136
43.5636
42.9731
42.6937
42.5189
42.6559
42.0132
41.4832
42.0933
42.4813
41.4172
40.826
40.6671
39.6678
39.4077
39.0047
8.55938
21.866
34.7572
38.9613
42.2104
43.7561
44.8305
45.2317
45.4813
45.4541
45.4632
45.5211
45.7524
45.9435
45.8917
45.39
44.2368
43.5952
43.1246
42.8441
42.6875
42.8919
42.131
42.0171
42.7701
42.789
41.9972
41.4415
41.3399
40.3628
40.1196
39.7179
15.713
21.6172
34.265
38.6759
41.9667
43.601
44.7127
45.1388
45.4516
45.5313
45.5923
45.7048
45.9246
46.0933
45.9757
45.4121
44.3242
43.7281
43.363
43.1659
43.053
43.2849
42.4626
42.6376
43.4107
42.9936
42.3881
41.8331
41.7757
40.8658
40.6858
40.312
12.0576
20.7053
33.5795
38.2926
41.6864
43.4273
44.5947
45.123
45.533
45.6447
45.8001
45.9232
46.1421
46.2722
46.0923
45.5029
44.5076
43.9447
43.5951
43.4826
43.3609
43.5628
42.735
43.2301
44.1092
43.4532
43.0496
42.5274
42.4923
41.6044
41.4285
41.0568
15.3096
20.1203
32.8589
37.8968
41.4101
43.281
44.5565
45.1589
45.6015
45.8566
46.04
46.1504
46.3386
46.4065
46.1907
45.6282
44.7666
44.27
43.947
43.9768
43.8741
44.0391
43.212
43.8388
44.6869
43.763
43.4988
43.0153
43.0237
42.2249
42.109
41.775
11.5458
18.7586
31.8793
37.3067
41.0236
43.0973
44.4518
45.1624
45.787
46.047
46.241
46.3598
46.5159
46.5586
46.3311
45.8067
45.0653
44.612
44.2684
44.4108
44.3018
44.4195
43.6451
44.4547
45.3721
44.3589
44.2076
43.7509
43.7501
42.9762
42.8526
42.5231
13.8677
17.4837
30.7473
36.6656
40.6567
42.8923
44.4038
45.2962
45.8883
46.2351
46.4954
46.5813
46.7292
46.7328
46.5083
46.0526
45.4492
45.0702
44.7443
45.01
44.9184
44.9841
44.2247
45.0242
45.876
44.7601
44.7027
44.315
44.3568
43.6877
43.6188
43.3349
8.47685
15.6321
29.3389
35.7252
39.9955
42.5826
44.2772
45.1999
45.9945
46.4238
46.6384
46.7579
46.8755
46.8783
46.6937
46.3086
45.8124
45.479
45.1588
45.5037
45.4267
45.4545
44.7677
45.6546
46.5435
45.4537
45.4298
45.06
45.0697
44.4296
44.3425
44.0666
11.7884
14.429
27.58
34.5427
39.3438
42.1776
44.007
45.26
46.092
46.5109
46.847
46.9592
47.1097
47.1262
46.9748
46.6678
46.2843
46.025
45.7485
46.1511
46.096
46.0652
45.3897
46.1906
46.9856
45.9244
45.9624
45.6813
45.7318
45.2045
45.1649
44.9376
11.8582
12.0264
25.4022
32.9986
38.1193
41.4733
43.7543
45.0223
45.9638
46.6067
46.9219
47.102
47.2439
47.271
47.182
46.9536
46.6615
46.4534
46.2257
46.6585
46.6364
46.5761
45.9864
46.8356
47.6258
46.6583
46.6688
46.3952
46.3987
45.9038
45.8377
45.6217
13.3969
10.3294
22.8438
30.7655
36.8129
40.6398
43.0094
44.7272
45.9748
46.5744
47.0384
47.2522
47.4687
47.571
47.5421
47.385
47.1753
47.032
46.8651
47.2916
47.2888
47.1628
46.5878
47.3287
47.9999
47.1488
47.2062
47.032
47.075
46.695
46.6683
46.4986
15.1524
7.73223
19.1829
28.2123
34.5086
39.0547
42.3657
44.3057
45.5104
46.4607
47.0037
47.3351
47.5775
47.6871
47.7131
47.6328
47.5057
47.4232
47.3338
47.759
47.7971
47.6525
47.1869
47.9631
48.5881
47.8512
47.841
47.6633
47.6481
47.3013
47.2441
47.0874
16.1696
13.4808
15.7555
23.9506
31.8412
37.3489
40.733
43.2277
45.2193
46.2353
46.9596
47.3697
47.7111
47.9497
48.0745
48.0651
48.0013
47.9716
47.9358
48.3136
48.3611
48.15
47.7091
48.3689
48.8623
48.2824
48.321
48.2451
48.2697
48.0347
48.008
47.8919
16.0799
7.54053
7.40792
19.9089
27.2363
33.6148
39.0255
42.3507
44.1622
45.7002
46.6956
47.3229
47.7529
47.9829
48.1222
48.1809
48.2016
48.2471
48.3009
48.67
48.757
48.5526
48.2491
48.923
49.3565
48.863
48.8226
48.7376
48.6993
48.4973
48.4466
48.3452
14.5298
8.57263
2.83071
8.03473
21.1064
30.0426
35.1892
39.4337
43.1243
45.0166
46.2923
47.1067
47.691
48.1073
48.4121
48.5468
48.6103
48.6904
48.7752
49.0851
49.1647
48.9046
48.6278
49.199
49.5154
49.185
49.2108
49.2229
49.2299
49.1302
49.1019
49.0344
11.3257
2.229
9.81185
10.8631
9.45812
15.7315
29.923
37.0849
40.3666
43.4548
45.4795
46.728
47.5515
48.0247
48.2957
48.4839
48.6429
48.8164
48.9959
49.304
49.4178
49.2098
49.0888
49.6385
49.8953
49.5896
49.5325
49.5131
49.4438
49.3787
49.3322
49.2791
10.312
2.01764
9.79928
10.2633
10.6518
11.2994
4.10862
25.6008
37.2865
41.5525
44.1931
45.9225
47.056
47.8214
48.3919
48.7182
48.9161
49.1106
49.2871
49.5255
49.604
49.3506
49.2549
49.6703
49.8143
49.6569
49.6969
49.7695
49.7629
49.7849
49.7602
49.7375
10.8742
6.82564
10.3638
4.46953
11.0831
2.44339
10.9968
15.4258
23.866
36.6538
42.0003
44.7485
46.4192
47.4069
47.9603
48.3268
48.6594
48.9601
49.2205
49.4647
49.5697
49.4505
49.5046
49.8656
49.9613
49.7312
49.6862
49.672
49.5533
49.5748
49.5135
49.4921
9.08997
9.93305
9.81766
11.214
7.61528
7.14644
12.1876
6.50123
7.04254
29.521
38.2098
42.5831
44.9825
46.4737
47.5335
48.2174
48.6286
48.9401
49.1623
49.3271
49.3431
49.1519
49.1637
49.3163
49.2366
49.0823
49.1452
49.2285
49.2
49.3173
49.3006
49.3131
11.2555
7.67178
1.79372
7.26161
11.5931
9.50282
5.05212
12.6524
12.5481
11.7504
32.9378
39.5158
43.1647
45.1993
46.3246
47.0082
47.6096
48.05
48.3345
48.4941
48.5169
48.5775
48.7345
48.828
48.6875
48.3236
48.2492
48.0361
47.7476
47.6959
47.5399
47.5028
0.54647
8.81538
4.01213
10.7541
13.8259
15.1778
13.4824
10.5292
12.9866
15.4692
25.8908
34.5502
39.3587
42.4599
44.5625
45.9999
46.7781
47.2204
47.4122
47.4562
47.2206
47.0126
46.8502
46.4797
45.8156
45.2836
45.2026
45.2298
45.1475
45.2508
45.2073
45.1981
12.0761
1.30872
3.34813
8.51944
20.0855
24.6978
22.1182
10.1784
14.9659
9.40147
8.40651
24.3549
34.2945
38.6617
40.988
42.2545
43.3513
43.9646
44.1438
44.0568
43.8542
44.1451
44.1954
43.808
43.011
41.9088
41.2638
39.3872
37.6506
36.1027
34.8399
34.1698
9.27235
6.31541
9.31438
10.5529
14.6174
20.2116
24.997
27.4665
19.6896
9.094
14.204
15.9443
16.1932
25.7787
33.533
38.1017
40.1457
40.722
40.6313
40.2684
38.478
36.9278
34.3586
30.9288
24.9706
17.3601
6.51765
9.87157
12.6571
18.5023
5.69393
20.7141
5.50311
13.7249
15.9263
17.3946
19.2277
21.4359
23.3347
23.0682
22.9451
15.4111
12.7016
9.95634
8.36299
10.6955
17.805
14.7806
15.1366
18.5906
17.1929
11.1248
13.6065
11.4841
7.37067
15.4658
18.9628
17.4189
7.05424
17.575
11.9141
12.1881
18.4132
16.2934
9.44828
18.9471
22.6475
25.172
26.796
27.7645
28.033
27.288
24.0258
19.3483
9.46412
9.38697
13.7569
11.279
16.0748
12.1305
15.5017
15.9703
2.11309
11.5789
11.6701
13.4969
11.3971
16.2432
13.9648
9.34656
12.6785
14.8138
16.8869
19.0753
20.697
20.9226
9.7765
19.9906
24.211
27.3059
29.2762
30.1323
29.8533
28.3855
25.8613
22.9579
22.5123
21.7418
21.7095
20.9335
18.905
15.9614
8.07386
10.4506
2.90769
11.858
5.2724
13.1477
18.0968
22.2363
25.0585
28.095
29.3147
29.7352
30.1897
29.8775
29.4599
29.1258
8.91216
19.0225
23.2351
26.35
28.3691
29.2215
28.8297
27.2703
25.0816
23.5681
23.5715
25.246
26.6211
27.6785
28.5091
28.7661
29.3669
27.9395
28.0824
27.5835
29.5776
30.4196
31.1937
31.6886
32.1658
31.9828
32.1167
31.6758
30.8275
30.5572
29.9008
29.4786
8.05819
17.8758
21.9227
24.8698
26.7528
27.5078
27.0459
25.398
22.881
20.3814
20.25
22.3306
24.4675
26.2016
27.8296
29.6263
30.1011
30.6694
30.7037
31.0819
31.1812
31.7553
32.3195
33.1293
33.7496
33.6849
33.5031
32.705
31.8512
30.6871
29.4473
28.4818
7.37845
16.8535
20.7252
23.5092
25.2627
25.9203
25.3332
23.299
19.5088
13.9881
10.8409
13.836
17.2803
21.0981
25.1127
28.7534
31.1098
31.993
32.4294
32.6658
33.0445
33.4459
33.7451
33.8823
33.666
32.5647
31.7054
30.5244
28.9898
27.5567
25.9701
24.8155
7.02414
16.3116
20.0904
22.786
24.4806
25.1335
24.6437
22.9618
20.4698
18.6907
19.6051
20.9543
20.9801
19.7758
20.0595
23.2615
26.735
29.1002
30.3639
31.0191
31.3291
31.5365
31.6677
31.7916
31.5958
30.9671
30.4469
29.6208
28.6456
27.5917
26.5402
25.6972
6.88044
16.0911
19.8173
22.4612
24.1461
24.8929
24.7318
23.8826
22.9855
22.9071
23.1986
23.0855
23.054
23.8011
25.1717
26.474
27.7961
28.9898
29.9312
30.5717
30.9915
31.2885
31.5462
31.6137
31.2562
30.3933
29.6461
28.7205
27.5964
26.4597
25.4762
24.7632
6.64775
15.7269
19.387
21.9911
23.7111
24.6249
24.8297
24.5334
24.0284
23.4201
22.594
21.5837
20.1109
18.7679
20.1693
24.3238
27.7074
29.5313
30.3453
30.6587
30.6267
30.3979
30.0526
29.6332
29.0774
28.4048
27.896
27.2078
26.3611
25.4489
24.6488
23.9963
6.23155
15.2027
18.8322
21.4573
23.3221
24.5229
25.1487
25.3239
25.1988
24.9172
24.6136
24.1419
23.3727
22.24
21.5051
22.5841
25.036
27.0297
28.2129
28.7386
28.8552
28.7526
28.579
28.3685
28.1202
27.7976
27.5358
27.0714
26.4211
25.6808
25.0211
24.4755
5.78439
14.7262
18.4138
21.1621
23.2743
24.8214
25.8626
26.4744
26.7455
26.7212
26.2615
25.1092
23.164
21.206
21.2638
23.3216
25.3131
26.7612
27.6675
28.1428
28.2659
28.179
28.0057
27.8047
27.5762
27.3316
27.1671
26.8327
26.3273
25.7021
25.1193
24.629
5.59682
14.4328
18.2143
21.1463
23.5015
25.3253
26.6554
27.5348
27.9906
27.9655
27.2946
25.8466
23.7114
21.0514
19.2608
20.9495
23.8091
25.6987
26.7328
27.2183
27.3559
27.2964
27.1593
26.9914
26.8207
26.6843
26.6391
26.4467
26.0708
25.5471
25.0452
24.6315
5.62156