/*--------------------------------*- C++ -*----------------------------------*\
  =========                 |
  \\      /  F ield         | OpenFOAM: The Open Source CFD Toolbox
   \\    /   O peration     | Website:  https://openfoam.org
    \\  /    A nd           | Version:  6
     \\/     M anipulation  |
\*---------------------------------------------------------------------------*/
FoamFile
{
    version     2.0;
    format      ascii;
    class       volVectorField;
    location    "33";
    object      wallShearStress;
}
// * * * * * * * * * * * * * * * * * * * * * * * * * * * * * * * * * * * * * //

dimensions      [0 2 -2 0 0 0 0];

internalField   uniform (0 0 0);

boundaryField
{
    inlet
    {
        type            calculated;
        value           uniform (0 0 0);
    }
    outlet
    {
        type            calculated;
        value           uniform (0 0 0);
    }
    roughCylinder
    {
        type            calculated;
        value           nonuniform List<vector> 
5120
(
(-0.000250508 -0.000356744 -0.000183694)
(-0.000307043 -0.000461051 -4.20881e-05)
(-0.000340548 -0.000554794 -7.60404e-07)
(-0.000386213 -0.00064478 5.39414e-05)
(-0.000443158 -0.000722904 0.000117126)
(-0.000507828 -0.000784709 0.000180632)
(-0.000576773 -0.000827357 0.000239949)
(-0.000645332 -0.000851272 0.000292302)
(-0.000709434 -0.000858922 0.000335598)
(-0.000766992 -0.000855343 0.000369111)
(-0.000818238 -0.000848792 0.000394323)
(-0.000863486 -0.000844934 0.000413135)
(-0.000899745 -0.000843806 0.000424285)
(-0.000930311 -0.000848154 0.000428885)
(-0.000956483 -0.0008572 0.000427979)
(-0.000979604 -0.000870227 0.000422623)
(-0.00100109 -0.000886462 0.000413864)
(-0.00102218 -0.000905245 0.000402602)
(-0.00104382 -0.000926108 0.000389502)
(-0.00106666 -0.000948751 0.00037499)
(-0.00109104 -0.000972993 0.000359267)
(-0.0011171 -0.000998717 0.000342357)
(-0.00114477 -0.00102578 0.000324158)
(-0.0011739 -0.00105403 0.000304478)
(-0.00120425 -0.00108322 0.000283054)
(-0.00123547 -0.00111302 0.000259516)
(-0.00126716 -0.00114298 0.000233405)
(-0.00129866 -0.0011724 0.00020396)
(-0.00132924 -0.00120045 0.000170149)
(-0.00135712 -0.00122546 0.000130325)
(-0.00137981 -0.00124586 8.24143e-05)
(-0.00139241 -0.00125769 2.79808e-05)
(-0.000269026 -0.00034508 -0.000173542)
(-0.000328664 -0.000446624 -4.45534e-05)
(-0.000364751 -0.000539051 -6.51494e-06)
(-0.00041253 -0.000628744 4.47785e-05)
(-0.000471149 -0.000707878 0.000105336)
(-0.000537368 -0.000771471 0.000167053)
(-0.000607708 -0.000816294 0.000225219)
(-0.000677758 -0.000842637 0.000276946)
(-0.000744043 -0.000853342 0.000320245)
(-0.000805008 -0.000854033 0.000354811)
(-0.000860435 -0.000851553 0.000382017)
(-0.000909221 -0.000849276 0.000402672)
(-0.000948328 -0.00084688 0.000414914)
(-0.000980444 -0.000850131 0.000420103)
(-0.00100815 -0.000858462 0.000419514)
(-0.00103271 -0.000871129 0.000414383)
(-0.0010556 -0.000887233 0.000405802)
(-0.00107812 -0.000906029 0.000394709)
(-0.00110122 -0.000926981 0.000381809)
(-0.00112557 -0.000949733 0.000367543)
(-0.00115151 -0.000974086 0.000352114)
(-0.00117918 -0.000999894 0.000335559)
(-0.00120851 -0.00102702 0.000317774)
(-0.00123934 -0.00105529 0.000298555)
(-0.0012714 -0.00108447 0.000277638)
(-0.00130432 -0.00111423 0.000254647)
(-0.00133768 -0.00114411 0.000229126)
(-0.00137081 -0.00117342 0.000200305)
(-0.00140294 -0.00120135 0.000167181)
(-0.00143214 -0.00122621 0.000128096)
(-0.00145594 -0.0012465 8.10252e-05)
(-0.00146911 -0.00125821 2.75238e-05)
(-0.00028738 -0.000328209 -0.000156124)
(-0.000349792 -0.000426766 -4.75401e-05)
(-0.000388266 -0.000517129 -1.29369e-05)
(-0.000437765 -0.000605868 3.47469e-05)
(-0.000497764 -0.000685486 9.23799e-05)
(-0.000565378 -0.000750628 0.000152061)
(-0.000637183 -0.000797787 0.000208997)
(-0.000709076 -0.0008272 0.000260253)
(-0.000778087 -0.000841888 0.000303993)
(-0.000842746 -0.000847171 0.000339981)
(-0.000902077 -0.000848328 0.000368981)
(-0.000954131 -0.000847563 0.000390921)
(-0.000996807 -0.000845212 0.000404462)
(-0.00103059 -0.000846917 0.000410174)
(-0.00105985 -0.00085436 0.000409898)
(-0.00108595 -0.000866484 0.000405038)
(-0.00111035 -0.000882295 0.000396684)
(-0.00113436 -0.000900945 0.000385825)
(-0.00115898 -0.000921817 0.00037318)
(-0.00118488 -0.000944515 0.000359215)
(-0.00121243 -0.000968809 0.000344147)
(-0.00124174 -0.000994524 0.000328009)
(-0.00127275 -0.00102152 0.000310693)
(-0.00130528 -0.00104963 0.000291997)
(-0.00133903 -0.0010786 0.00027165)
(-0.00137365 -0.0011081 0.000249266)
(-0.00140866 -0.0011377 0.000224397)
(-0.00144337 -0.0011667 0.00019626)
(-0.00147701 -0.00119431 0.000163893)
(-0.00150751 -0.00121883 0.000125625)
(-0.0015324 -0.00123887 7.94871e-05)
(-0.00154609 -0.00125038 2.70201e-05)
(-0.000303701 -0.000307447 -0.000134237)
(-0.000368465 -0.000402494 -5.0599e-05)
(-0.000408887 -0.000490054 -1.96042e-05)
(-0.000459507 -0.000577182 2.42865e-05)
(-0.000520442 -0.000656773 7.87213e-05)
(-0.000589224 -0.000723265 0.000136098)
(-0.000662561 -0.000772922 0.000191642)
(-0.000736625 -0.000805905 0.000242428)
(-0.000808672 -0.000825097 0.000286747)
(-0.000877021 -0.000835019 0.000324213)
(-0.000940066 -0.000839558 0.000354873)
(-0.000995563 -0.000840497 0.000378023)
(-0.00104191 -0.000839062 0.000392861)
(-0.00107829 -0.000839213 0.000399259)
(-0.00110925 -0.000845676 0.000399425)
(-0.00113701 -0.000857098 0.000394886)
(-0.00116301 -0.000872473 0.000386835)
(-0.00118859 -0.000890844 0.000376271)
(-0.00121478 -0.000911527 0.000363952)
(-0.00124228 -0.00093406 0.00035035)
(-0.00127143 -0.000958159 0.000335696)
(-0.00130237 -0.000983648 0.000320024)
(-0.00133502 -0.00101037 0.00030323)
(-0.00136919 -0.00103815 0.000285102)
(-0.00140458 -0.00106674 0.000265365)
(-0.00144079 -0.00109582 0.000243628)
(-0.00147736 -0.00112497 0.000219445)
(-0.00151356 -0.00115349 0.000192029)
(-0.00154862 -0.00118063 0.000160455)
(-0.00158032 -0.00120468 0.000123042)
(-0.00160623 -0.00122434 7.7881e-05)
(-0.00162039 -0.00123557 2.64979e-05)
(-0.000316918 -0.00028308 -0.000110007)
(-0.000383643 -0.000374089 -5.33768e-05)
(-0.000425523 -0.000458199 -2.6174e-05)
(-0.000476696 -0.000543106 1.37342e-05)
(-0.000538153 -0.000622188 6.46786e-05)
(-0.000607946 -0.000689849 0.000119425)
(-0.000682944 -0.000742184 0.000173347)
(-0.000759484 -0.00077906 0.000223584)
(-0.000834766 -0.00080288 0.000268448)
(-0.00090672 -0.000817188 0.000307258)
(-0.000973321 -0.000824846 0.00033943)
(-0.00103234 -0.000827562 0.000363835)
(-0.00108221 -0.000827232 0.000379771)
(-0.00112247 -0.000826985 0.000387325)
(-0.00115537 -0.0008319 0.000388061)
(-0.00118494 -0.000842412 0.000383945)
(-0.00121265 -0.000857169 0.000376287)
(-0.00123989 -0.000875111 0.000366107)
(-0.00126767 -0.00089544 0.000354179)
(-0.00129674 -0.000917635 0.000341006)
(-0.00132748 -0.000941397 0.000326825)
(-0.00136 -0.000966504 0.00031168)
(-0.00139423 -0.000992788 0.000295458)
(-0.00142995 -0.00102007 0.000277943)
(-0.00146687 -0.00104812 0.000258859)
(-0.00150457 -0.0010766 0.000237804)
(-0.00154258 -0.00110511 0.000214342)
(-0.00158013 -0.00113297 0.000187668)
(-0.00161649 -0.00115946 0.000156914)
(-0.00164926 -0.00118288 0.000120382)
(-0.0016761 -0.00120205 7.62325e-05)
(-0.00169064 -0.00121294 2.59668e-05)
(-0.000327005 -0.000256515 -8.5206e-05)
(-0.00039517 -0.000342941 -5.5745e-05)
(-0.000437937 -0.000423037 -3.24406e-05)
(-0.000489041 -0.000505132 3.33039e-06)
(-0.000550538 -0.000583183 5.04864e-05)
(-0.00062109 -0.000651736 0.000102245)
(-0.000697727 -0.000706688 0.000154253)
(-0.000776824 -0.000747439 0.000203751)
(-0.00085537 -0.00077567 0.000248994)
(-0.000930899 -0.000793978 0.000288944)
(-0.00100109 -0.000804515 0.000322482)
(-0.00106374 -0.000809034 0.00034817)
(-0.00111737 -0.000809878 0.000365227)
(-0.00116175 -0.000810086 0.000374036)
(-0.00119774 -0.000813412 0.000375665)
(-0.0012293 -0.000822754 0.000372169)
(-0.00125887 -0.000836622 0.000365006)
(-0.00128783 -0.000853886 0.000355306)
(-0.00131728 -0.000873694 0.000343868)
(-0.00134797 -0.000895416 0.000331206)
(-0.00138026 -0.000918665 0.00031757)
(-0.00141431 -0.000943222 0.000303007)
(-0.00145002 -0.000968898 0.000287411)
(-0.00148719 -0.000995508 0.000270557)
(-0.0015255 -0.00102281 0.000252162)
(-0.00156454 -0.00105051 0.000231821)
(-0.00160382 -0.00107819 0.000209105)
(-0.00164257 -0.00110522 0.000183196)
(-0.00168009 -0.00113091 0.000153287)
(-0.00171379 -0.00115355 0.000117656)
(-0.00174146 -0.00117211 7.4548e-05)
(-0.00175628 -0.00118259 2.54303e-05)
(-0.000332764 -0.000228077 -6.0795e-05)
(-0.00040186 -0.000309454 -5.75227e-05)
(-0.000444923 -0.000384982 -3.81966e-05)
(-0.000495309 -0.00046367 -6.75457e-06)
(-0.000556294 -0.00054015 3.62583e-05)
(-0.000627303 -0.000609269 8.46056e-05)
(-0.000705549 -0.000666771 0.00013433)
(-0.00078732 -0.000711381 0.000182832)
(-0.000869274 -0.000743864 0.000228244)
(-0.000948502 -0.000765882 0.000269111)
(-0.00102244 -0.000779137 0.000303866)
(-0.00108892 -0.000785487 0.000330856)
(-0.0011465 -0.000787524 0.000349163)
(-0.00119497 -0.000788441 0.000359181)
(-0.00123532 -0.000791316 0.000362127)
(-0.0012694 -0.000798723 0.000359439)
(-0.00130102 -0.000811449 0.00035295)
(-0.00133189 -0.000827882 0.000343866)
(-0.00136304 -0.00084693 0.000333014)
(-0.00139531 -0.000867954 0.000320938)
(-0.00142914 -0.000890535 0.000307925)
(-0.00146465 -0.000914383 0.000294017)
(-0.00150176 -0.000939294 0.000279105)
(-0.00154025 -0.000965078 0.00026296)
(-0.00157983 -0.000991507 0.000245298)
(-0.00162005 -0.00101827 0.000225705)
(-0.00166046 -0.001045 0.000203764)
(-0.00170022 -0.00107104 0.000178636)
(-0.00173872 -0.00109576 0.000149589)
(-0.00177321 -0.00111749 0.000114879)
(-0.0018016 -0.00113533 7.28375e-05)
(-0.00181658 -0.00114534 2.48924e-05)
(-0.000334273 -0.000198882 -3.77664e-05)
(-0.000403654 -0.000274782 -5.87136e-05)
(-0.000446398 -0.000345301 -4.33347e-05)
(-0.000495384 -0.000420029 -1.63307e-05)
(-0.000555212 -0.000494341 2.22245e-05)
(-0.000626187 -0.000563535 6.67259e-05)
(-0.00070572 -0.000623195 0.000113726)
(-0.000789937 -0.000671278 0.000160822)
(-0.000875148 -0.0007076 0.000206024)
(-0.000958101 -0.000733034 0.000247509)
(-0.00103599 -0.000748899 0.000283323)
(-0.00110658 -0.000757134 0.000311613)
(-0.00116845 -0.000760503 0.000331352)
(-0.00122123 -0.000762193 0.00034275)
(-0.00126584 -0.000765188 0.000347016)
(-0.00130404 -0.00077156 0.000345621)
(-0.00133815 -0.000782468 0.000340026)
(-0.00137103 -0.000797413 0.000331678)
(-0.00140401 -0.000815545 0.000321565)
(-0.00143797 -0.000835742 0.000310205)
(-0.00147331 -0.000857481 0.000297903)
(-0.0015102 -0.00088046 0.000284721)
(-0.00154859 -0.000904453 0.000270556)
(-0.00158826 -0.000929253 0.000255171)
(-0.00162889 -0.000954631 0.000238278)
(-0.00167009 -0.000980304 0.000219464)
(-0.00171136 -0.00100594 0.00019832)
(-0.00175192 -0.00103094 0.000173991)
(-0.00179124 -0.00105463 0.000145828)
(-0.00182631 -0.00107536 0.000112054)
(-0.00185528 -0.0010924 7.11051e-05)
(-0.00187029 -0.00110198 2.43574e-05)
(-0.000330217 -0.000168986 -1.66426e-05)
(-0.000399294 -0.000239083 -5.91502e-05)
(-0.000441084 -0.000304138 -4.76703e-05)
(-0.000487915 -0.000374302 -2.51996e-05)
(-0.0005458 -0.000445732 8.58217e-06)
(-0.00061611 -0.000514362 4.87425e-05)
(-0.000696597 -0.000575774 9.24734e-05)
(-0.000783226 -0.000627123 0.000137682)
(-0.000871861 -0.000667169 0.000182277)
(-0.000958786 -0.00069592 0.000224068)
(-0.00104094 -0.000714383 0.000260763)
(-0.00111596 -0.000724553 0.000290333)
(-0.00118231 -0.000729245 0.000311589)
(-0.00123959 -0.000731717 0.000324571)
(-0.00128849 -0.000734855 0.00033031)
(-0.00133076 -0.000740765 0.000330297)
(-0.00136857 -0.000750466 0.000325968)
(-0.00140451 -0.00076415 0.000318794)
(-0.00143939 -0.000780824 0.000309572)
(-0.00147496 -0.000799818 0.000299019)
(-0.00151178 -0.000820516 0.00028753)
(-0.00154997 -0.000842503 0.000275165)
(-0.0015895 -0.000865492 0.00026182)
(-0.00163015 -0.000889265 0.000247252)
(-0.00167167 -0.000913603 0.000231179)
(-0.00171362 -0.00093819 0.000213178)
(-0.00175547 -0.000962689 0.000192847)
(-0.00179644 -0.000986475 0.000169303)
(-0.00183624 -0.00100899 0.000142023)
(-0.00187165 -0.00102862 0.000109191)
(-0.00190105 -0.0010448 6.9359e-05)
(-0.00191576 -0.00105384 2.38274e-05)
(-0.000321182 -0.000139727 1.91414e-06)
(-0.000389117 -0.000203359 -5.90768e-05)
(-0.00042932 -0.000262938 -5.11606e-05)
(-0.000473346 -0.00032801 -3.31679e-05)
(-0.000528459 -0.000395856 -4.35996e-06)
(-0.000597293 -0.000463157 3.102e-05)
(-0.000678064 -0.000525611 7.08977e-05)
(-0.000766554 -0.000579589 0.000113582)
(-0.000858238 -0.000622853 0.000156969)
(-0.000949098 -0.000654704 0.000198616)
(-0.00103572 -0.000675743 0.000235948)
(-0.00111548 -0.000687858 0.000266719)
(-0.00118679 -0.000693997 0.000289597)
(-0.00124897 -0.000697332 0.000304384)
(-0.00130256 -0.000700727 0.000311882)
(-0.00134896 -0.000706228 0.000313441)
(-0.00139046 -0.00071507 0.000310565)
(-0.00142932 -0.000727601 0.000304683)
(-0.00146672 -0.000742907 0.000296615)
(-0.00150432 -0.000760671 0.000287127)
(-0.00154264 -0.000780171 0.00027661)
(-0.00158198 -0.000800972 0.000265162)
(-0.00162236 -0.000822773 0.000252705)
(-0.00166362 -0.000845324 0.000239)
(-0.00170551 -0.000868387 0.000223764)
(-0.00174769 -0.000891678 0.000206588)
(-0.00178965 -0.000914811 0.000187079)
(-0.0018307 -0.000937206 0.000164344)
(-0.00187075 -0.000958416 0.000137997)
(-0.0019062 -0.000976848 0.000106157)
(-0.00193582 -0.000992067 6.75114e-05)
(-0.00195006 -0.00100046 2.32734e-05)
(-0.000304053 -0.000110494 1.75153e-05)
(-0.000372721 -0.000168286 -5.81345e-05)
(-0.00040994 -0.000221833 -5.37167e-05)
(-0.000450231 -0.000281186 -3.99723e-05)
(-0.000501521 -0.000344578 -1.62667e-05)
(-0.000567806 -0.000409549 1.38756e-05)
(-0.00064809 -0.000472255 4.92052e-05)
(-0.000738211 -0.000528504 8.86312e-05)
(-0.000833164 -0.000575 0.000130183)
(-0.00092824 -0.000610033 0.000171212)
(-0.00101969 -0.000633761 0.000208898)
(-0.0011047 -0.000647991 0.000240797)
(-0.00118122 -0.000655511 0.00026531)
(-0.00124853 -0.000659597 0.000282017)
(-0.0013069 -0.000663113 0.000291467)
(-0.0013578 -0.00066826 0.00029489)
(-0.00140317 -0.000676291 0.000293707)
(-0.0014452 -0.000687688 0.000289321)
(-0.00148512 -0.000701669 0.000282583)
(-0.00152455 -0.000718043 0.000274297)
(-0.00156431 -0.000736196 0.000264895)
(-0.00160468 -0.000755648 0.000254493)
(-0.00164574 -0.000776061 0.000243023)
(-0.00168737 -0.00079719 0.000230254)
(-0.00172944 -0.000818811 0.000215923)
(-0.00177157 -0.00084062 0.00019962)
(-0.00181338 -0.000862248 0.000180982)
(-0.00185426 -0.000883149 0.000159098)
(-0.00189425 -0.000902922 0.00013373)
(-0.00192949 -0.000920089 0.000102937)
(-0.00195913 -0.00093428 6.55554e-05)
(-0.00197276 -0.000941987 2.26956e-05)
(-0.000280398 -8.25729e-05 3.01003e-05)
(-0.000350173 -0.000135108 -5.63914e-05)
(-0.000384163 -0.000182319 -5.53025e-05)
(-0.000419809 -0.000235608 -4.54578e-05)
(-0.000466231 -0.000293789 -2.6744e-05)
(-0.000528811 -0.000355405 -2.1253e-06)
(-0.000607535 -0.000417344 2.79936e-05)
(-0.000698298 -0.000474975 6.32913e-05)
(-0.000795684 -0.000524035 0.00010214)
(-0.000894786 -0.000562084 0.000141879)
(-0.000991266 -0.000588622 0.000179496)
(-0.00108165 -0.000604973 0.000212289)
(-0.00116395 -0.000614023 0.000238464)
(-0.00123696 -0.000618937 0.000257257)
(-0.00130082 -0.000622674 0.000268952)
(-0.00135645 -0.000627371 0.000274496)
(-0.00140591 -0.000634521 0.000275268)
(-0.00145114 -0.00064463 0.000272587)
(-0.00149368 -0.000657213 0.000267396)
(-0.00153521 -0.000672186 0.000260531)
(-0.00157638 -0.000688856 0.000252402)
(-0.00161765 -0.000706797 0.000243171)
(-0.0016592 -0.000725687 0.000232796)
(-0.00170095 -0.000745255 0.000221049)
(-0.00174282 -0.00076526 0.000207677)
(-0.00178455 -0.000785434 0.000192297)
(-0.00182581 -0.000805411 0.000174568)
(-0.00186609 -0.000824678 0.000153558)
(-0.00190577 -0.000842948 0.000129225)
(-0.00194042 -0.000858749 9.95291e-05)
(-0.00196989 -0.000871845 6.34911e-05)
(-0.00198264 -0.00087882 2.20953e-05)
(-0.000249508 -5.67334e-05 3.94253e-05)
(-0.000319579 -0.000103665 -5.35919e-05)
(-0.000350517 -0.00014456 -5.55941e-05)
(-0.000380919 -0.000191429 -4.92392e-05)
(-0.000421287 -0.000243493 -3.53015e-05)
(-0.000478556 -0.000300396 -1.63942e-05)
(-0.000554176 -0.000360219 7.82559e-06)
(-0.00064486 -0.000418552 3.80322e-05)
(-0.000744907 -0.000470268 7.32488e-05)
(-0.000848143 -0.000511486 0.00011092)
(-0.000949755 -0.00054098 0.000147928)
(-0.00104629 -0.000559898 0.000181408)
(-0.00113469 -0.000570553 0.000209153)
(-0.00121368 -0.00057622 0.000230093)
(-0.00128299 -0.0005799 0.000244149)
(-0.0013438 -0.000584088 0.000252104)
(-0.00139769 -0.000590261 0.000255127)
(-0.0014466 -0.000599078 0.000254477)
(-0.00149193 -0.000610164 0.000251083)
(-0.0015353 -0.000623475 0.000245793)
(-0.00157779 -0.000638509 0.000239104)
(-0.00161984 -0.000654817 0.000231193)
(-0.00166164 -0.000672044 0.000222027)
(-0.00170322 -0.000689932 0.000211387)
(-0.00174463 -0.000708253 0.000199049)
(-0.00178565 -0.000726721 0.000184648)
(-0.00182602 -0.000744981 0.000167872)
(-0.00186544 -0.000762602 0.000147771)
(-0.00190445 -0.000779288 0.000124509)
(-0.00193825 -0.000793711 9.59586e-05)
(-0.00196733 -0.000805666 6.13378e-05)
(-0.00197902 -0.000811933 2.14842e-05)
(-0.000213379 -3.42802e-05 4.54198e-05)
(-0.000282216 -7.50745e-05 -4.98862e-05)
(-0.000310465 -0.000109967 -5.47076e-05)
(-0.000335417 -0.000150345 -5.12878e-05)
(-0.000368788 -0.00019565 -4.15792e-05)
(-0.00041939 -0.00024673 -2.81789e-05)
(-0.000490551 -0.000303171 -1.0305e-05)
(-0.000579516 -0.000360889 1.3806e-05)
(-0.00068033 -0.000414073 4.41828e-05)
(-0.00078721 -0.000458316 7.87849e-05)
(-0.000894361 -0.000491204 0.000114492)
(-0.000996668 -0.000512663 0.00014811)
(-0.00109162 -0.000525215 0.00017725)
(-0.00117716 -0.000531845 0.000200388)
(-0.00125291 -0.00053572 0.000217086)
(-0.00131921 -0.000539271 0.000227699)
(-0.00137779 -0.000544316 0.000233257)
(-0.00143032 -0.000551579 0.000234881)
(-0.00147854 -0.000561013 0.000233547)
(-0.00152419 -0.000572681 0.000230123)
(-0.00156802 -0.000585982 0.000225079)
(-0.00161067 -0.000600532 0.000218638)
(-0.0016525 -0.000616012 0.000210803)
(-0.00169359 -0.000632146 0.000201357)
(-0.00173408 -0.000648671 0.000190096)
(-0.0017739 -0.000665343 0.000176708)
(-0.00181293 -0.000681848 0.000160916)
(-0.00185092 -0.000697722 0.000141723)
(-0.00188897 -0.000712805 0.000119577)
(-0.00192149 -0.000725806 9.22124e-05)
(-0.00194998 -0.000736601 5.90902e-05)
(-0.00196023 -0.000742143 2.08616e-05)
(-0.000171622 -1.57552e-05 4.77142e-05)
(-0.000237214 -4.97088e-05 -4.48827e-05)
(-0.000263286 -7.87364e-05 -5.22332e-05)
(-0.000283382 -0.000112668 -5.12491e-05)
(-0.000309445 -0.000150771 -4.51196e-05)
(-0.000351353 -0.000194571 -3.67935e-05)
(-0.000414875 -0.000245363 -2.54289e-05)
(-0.000500187 -0.00030101 -8.2881e-06)
(-0.000602137 -0.000355832 1.60256e-05)
(-0.0007122 -0.000403074 4.63109e-05)
(-0.000823906 -0.00043921 7.96838e-05)
(-0.00093311 -0.000464146 0.000112939)
(-0.00103494 -0.000478975 0.000143137)
(-0.00112736 -0.00048678 0.000168375)
(-0.00120928 -0.000490675 0.0001877)
(-0.00128152 -0.000493612 0.000201214)
(-0.00134512 -0.000497433 0.000209595)
(-0.0014019 -0.000503169 0.000213854)
(-0.00145327 -0.000510864 0.000214876)
(-0.00150079 -0.00052059 0.000213496)
(-0.0015458 -0.000532009 0.000210287)
(-0.00158892 -0.000544732 0.000205488)
(-0.00163048 -0.000558392 0.000199108)
(-0.00167072 -0.000572731 0.000190938)
(-0.00171002 -0.000587495 0.000180824)
(-0.00174837 -0.000602421 0.000168507)
(-0.00178557 -0.000617159 0.00015372)
(-0.00182196 -0.000631397 0.000135459)
(-0.00185869 -0.000644871 0.000114459)
(-0.00188964 -0.000656496 8.83188e-05)
(-0.00191727 -0.000666122 5.67676e-05)
(-0.00192596 -0.000671057 2.02412e-05)
(-0.000127062 -2.02333e-06 4.68986e-05)
(-0.000187031 -2.88006e-05 -3.88131e-05)
(-0.000211157 -5.20839e-05 -4.84135e-05)
(-0.000226496 -7.95886e-05 -4.93855e-05)
(-0.000244364 -0.000109949 -4.57128e-05)
(-0.000276962 -0.000145596 -4.11712e-05)
(-0.000332862 -0.000190196 -3.59487e-05)
(-0.00041242 -0.000241948 -2.66487e-05)
(-0.000510504 -0.000295447 -9.83356e-06)
(-0.000622343 -0.000345245 1.47505e-05)
(-0.000739921 -0.000385841 4.46484e-05)
(-0.00085458 -0.000414095 7.6467e-05)
(-0.000963379 -0.000431751 0.000107152)
(-0.00106286 -0.000441158 0.000134207)
(-0.00115203 -0.000445668 0.000156249)
(-0.00123037 -0.000448051 0.000172782)
(-0.00129933 -0.000450669 0.000184234)
(-0.00136013 -0.000454638 0.00019134)
(-0.00141462 -0.000460438 0.000194972)
(-0.0014646 -0.000468322 0.000195968)
(-0.00151086 -0.000477835 0.000194827)
(-0.00155421 -0.000488662 0.000191833)
(-0.00159523 -0.000500495 0.000187036)
(-0.00163423 -0.000513047 0.000180221)
(-0.00167175 -0.00052602 0.000171278)
(-0.0017079 -0.00053915 0.00016004)
(-0.00174294 -0.000552227 0.00014629)
(-0.00177694 -0.000564765 0.000128931)
(-0.00181201 -0.000576669 0.000109115)
(-0.00184088 -0.000586944 8.42373e-05)
(-0.00186754 -0.000595438 5.43524e-05)
(-0.00187408 -0.000599773 1.96157e-05)
(-7.99939e-05 7.99997e-06 4.30575e-05)
(-0.000131597 -1.12918e-05 -3.10373e-05)
(-0.00015368 -2.87117e-05 -4.19662e-05)
(-0.000166789 -5.04548e-05 -4.41213e-05)
(-0.000180107 -7.3483e-05 -4.24852e-05)
(-0.000212806 -0.000104162 -4.16e-05)
(-0.000242833 -0.00013462 -4.14384e-05)
(-0.000310892 -0.000180411 -3.91465e-05)
(-0.000408817 -0.000234234 -3.07758e-05)
(-0.000521253 -0.000285973 -1.40428e-05)
(-0.000639851 -0.000329266 1.06353e-05)
(-0.00076155 -0.000362544 3.99508e-05)
(-0.000877327 -0.000383817 7.02004e-05)
(-0.00098426 -0.000395624 9.85676e-05)
(-0.00107999 -0.000400914 0.00012298)
(-0.00116493 -0.000403159 0.000142562)
(-0.00123929 -0.000404669 0.000157208)
(-0.00130484 -0.000407109 0.00016747)
(-0.0013628 -0.000411077 0.000174002)
(-0.00141457 -0.000416866 0.000177525)
(-0.00146177 -0.000424383 0.00017864)
(-0.00150517 -0.000433323 0.000177628)
(-0.00154529 -0.000443339 0.000174538)
(-0.00158261 -0.000454167 0.000169152)
(-0.00161811 -0.000465477 0.000161438)
(-0.00165204 -0.000477033 0.00015135)
(-0.0016841 -0.000488452 0.000138622)
(-0.00171571 -0.000499533 0.000122186)
(-0.00174878 -0.000509942 0.000103581)
(-0.00177536 -0.000518997 8.00044e-05)
(-0.00180059 -0.000526328 5.18612e-05)
(-0.00180501 -0.000530292 1.90032e-05)
(-4.22997e-05 1.10719e-05 3.71049e-05)
(-8.25995e-05 -1.89924e-06 -2.17758e-05)
(-0.000106184 -1.41684e-05 -3.19e-05)
(-0.00011507 -2.78406e-05 -3.84851e-05)
(-0.000125263 -4.27947e-05 -5.90279e-05)
(-0.000117376 -8.80831e-05 -4.35873e-05)
(-0.000164329 -9.49419e-05 -1.56572e-05)
(-0.000220591 -0.000122537 -4.43644e-05)
(-0.000297417 -0.000168966 -4.71303e-05)
(-0.000404319 -0.000222147 -3.7444e-05)
(-0.000530928 -0.000272124 -1.95315e-05)
(-0.000655451 -0.000309186 4.98477e-06)
(-0.000777646 -0.00033505 3.35606e-05)
(-0.000891258 -0.000349943 6.23005e-05)
(-0.000994432 -0.000357133 8.86535e-05)
(-0.00108537 -0.000359568 0.000110989)
(-0.00116543 -0.000360395 0.000128855)
(-0.00123513 -0.000361301 0.000142321)
(-0.00129622 -0.000363427 0.000151907)
(-0.00135053 -0.000367408 0.000158275)
(-0.00139876 -0.000373038 0.000161869)
(-0.00144189 -0.000380131 0.000162992)
(-0.00148075 -0.000388418 0.00016173)
(-0.00151592 -0.000397624 0.000157826)
(-0.00154865 -0.000407311 0.00015133)
(-0.00157916 -0.000417223 0.000142349)
(-0.00160826 -0.000427264 0.000130699)
(-0.00163641 -0.000436847 0.000115122)
(-0.00166716 -0.000445853 9.77678e-05)
(-0.00169071 -0.00045371 7.55282e-05)
(-0.00171477 -0.000460045 4.92597e-05)
(-0.00171616 -0.000463641 1.83859e-05)
(-1.70284e-05 1.09059e-05 2.46345e-05)
(-2.65518e-05 1.67013e-06 -1.99441e-05)
(-2.927e-05 -8.33687e-06 -2.15769e-05)
(-3.64781e-05 -1.33312e-05 -2.72956e-05)
(-4.87295e-05 -3.97185e-05 -3.50905e-05)
(-5.43724e-05 -4.70109e-05 -1.72221e-05)
(-5.96661e-05 -4.15891e-05 -1.60596e-05)
(-0.000113357 -6.9084e-05 -3.00003e-05)
(-0.000199233 -0.000111012 -4.46814e-05)
(-0.000298701 -0.000158084 -5.18161e-05)
(-0.000404673 -0.000207167 -4.54912e-05)
(-0.000535876 -0.000253009 -2.55858e-05)
(-0.00066378 -0.000284128 -8.14133e-07)
(-0.000784373 -0.000303689 2.68298e-05)
(-0.000893544 -0.000313455 5.40432e-05)
(-0.00099149 -0.00031736 7.86756e-05)
(-0.00107683 -0.000318019 9.94746e-05)
(-0.00115135 -0.00031803 0.000116204)
(-0.00121598 -0.000318708 0.000129004)
(-0.00127167 -0.000320786 0.000138254)
(-0.00132037 -0.000324575 0.00014445)
(-0.00136294 -0.000329961 0.000147852)
(-0.00140008 -0.000336645 0.000148519)
(-0.00143259 -0.000344399 0.000146137)
(-0.00146244 -0.000352698 0.000140896)
(-0.00149011 -0.000361388 0.000133134)
(-0.00151488 -0.000369991 0.000122485)
(-0.00153989 -0.000378439 0.000107797)
(-0.00156795 -0.000386147 9.17174e-05)
(-0.00158866 -0.000393085 7.08741e-05)
(-0.00161059 -0.000398256 4.65587e-05)
(-0.00160923 -0.000401832 1.7787e-05)
(6.52704e-06 1.02344e-05 1.71519e-05)
(-4.10429e-06 9.69659e-07 -1.61352e-05)
(-6.21131e-06 -4.78473e-06 -1.53719e-05)
(-1.15922e-05 -5.97362e-06 -2.00072e-05)
(-1.22332e-05 -1.42622e-05 -1.25369e-05)
(-2.98127e-05 -5.55728e-06 -1.43298e-05)
(-3.52329e-05 -2.5812e-05 -3.93319e-05)
(-5.11546e-05 -4.36948e-05 -2.77748e-05)
(-7.31456e-05 -4.7061e-05 -2.51836e-05)
(-0.000169304 -9.96048e-05 -4.47315e-05)
(-0.000295777 -0.000148519 -5.10785e-05)
(-0.000411665 -0.000191715 -4.99885e-05)
(-0.000541683 -0.000231979 -3.11247e-05)
(-0.000666815 -0.000256884 -6.01491e-06)
(-0.000782653 -0.000270926 2.07441e-05)
(-0.000884819 -0.000276628 4.65816e-05)
(-0.00097531 -0.000278076 6.98159e-05)
(-0.00105342 -0.000277567 8.94756e-05)
(-0.0011206 -0.000277076 0.000105371)
(-0.00117861 -0.000277896 0.00011769)
(-0.00122788 -0.000280194 0.000126622)
(-0.00126944 -0.000284068 0.000132392)
(-0.00130442 -0.000289352 0.000135066)
(-0.00133368 -0.000295867 0.000134204)
(-0.00135972 -0.000302848 0.000130136)
(-0.00138255 -0.000310123 0.000123462)
(-0.00140372 -0.000317733 0.000113923)
(-0.00142422 -0.000324985 0.00010003)
(-0.00144946 -0.00033156 8.52826e-05)
(-0.00146601 -0.000337464 6.58588e-05)
(-0.00148693 -0.000341811 4.37049e-05)
(-0.00148157 -0.000345332 1.71737e-05)
(2.1909e-05 5.88939e-06 2.52805e-05)
(2.26155e-05 6.44835e-06 9.69969e-06)
(9.8247e-06 1.70584e-05 -3.53012e-06)
(6.53743e-06 8.78779e-06 -1.25413e-05)
(-7.60928e-06 1.06231e-05 -1.50096e-05)
(-1.26744e-05 -1.54057e-06 -2.69835e-05)
(-1.16125e-05 -1.32259e-05 -3.63913e-05)
(-2.07386e-05 -2.41644e-05 -3.59768e-05)
(-4.17283e-05 -3.87809e-05 -3.77117e-05)
(-6.02278e-05 -4.72204e-05 -2.85034e-05)
(-0.000146186 -8.5363e-05 -3.81559e-05)
(-0.000289235 -0.000132945 -5.49059e-05)
(-0.000408289 -0.000172135 -5.17306e-05)
(-0.00053698 -0.000206907 -3.37137e-05)
(-0.000656125 -0.000226299 -9.64331e-06)
(-0.000765431 -0.000236477 1.60159e-05)
(-0.000860257 -0.000239823 4.06498e-05)
(-0.000942599 -0.000240043 6.27794e-05)
(-0.00101282 -0.000239272 8.15966e-05)
(-0.00107111 -0.000238965 9.67393e-05)
(-0.00111994 -0.000240035 0.00010834)
(-0.00116008 -0.000242734 0.00011651)
(-0.00119233 -0.000246856 0.000121219)
(-0.00121776 -0.000252413 0.000121838)
(-0.00124016 -0.00025837 0.000118936)
(-0.0012598 -0.000264865 0.000113528)
(-0.00127537 -0.000271255 0.000104952)
(-0.00129207 -0.000277721 9.19063e-05)
(-0.00131399 -0.000283239 7.85054e-05)
(-0.00132758 -0.000288575 6.06151e-05)
(-0.00134557 -0.000291657 4.06978e-05)
(-0.0013369 -0.000295573 1.65739e-05)
(3.26482e-05 1.36788e-05 3.77453e-05)
(4.10044e-05 1.05688e-05 -7.6301e-06)
(3.94804e-05 3.7744e-06 -1.36812e-05)
(4.02669e-05 -1.67261e-06 -1.69593e-05)
(3.15428e-05 -1.05136e-05 -1.75987e-05)
(2.66306e-05 -1.28595e-05 -2.1415e-05)
(2.13685e-05 -1.57761e-05 -2.06002e-05)
(5.45216e-06 -1.34321e-05 -2.01986e-05)
(-8.97776e-06 -1.58853e-05 -2.15675e-05)
(-2.80721e-05 -2.21874e-05 -2.52468e-05)
(-5.45894e-05 -3.42627e-05 -3.20144e-05)
(-0.000156823 -8.85166e-05 -4.53323e-05)
(-0.000305973 -0.000122836 -5.00122e-05)
(-0.000406765 -0.00015087 -5.3052e-05)
(-0.000529728 -0.000182752 -3.50901e-05)
(-0.000638532 -0.000197006 -1.15613e-05)
(-0.000736304 -0.000203457 1.3287e-05)
(-0.00082026 -0.000204993 3.69048e-05)
(-0.00089145 -0.000204499 5.80202e-05)
(-0.000951377 -0.00020422 7.58607e-05)
(-0.000999896 -0.000204733 9.00334e-05)
(-0.00103788 -0.000206608 0.000100513)
(-0.00106691 -0.000209872 0.000107236)
(-0.00108784 -0.000214771 0.000109216)
(-0.00110549 -0.000219725 0.000107279)
(-0.00111898 -0.000225007 0.000102883)
(-0.00113042 -0.000230613 9.543e-05)
(-0.00114195 -0.000236198 8.31478e-05)
(-0.00116085 -0.000240894 7.11859e-05)
(-0.00116918 -0.00024526 5.48211e-05)
(-0.00118674 -0.000247566 3.74613e-05)
(-0.00117303 -0.000251728 1.59285e-05)
(4.55532e-05 1.53123e-05 4.57072e-05)
(6.22186e-05 1.25447e-05 -8.54011e-06)
(6.85647e-05 8.83061e-06 -1.68641e-05)
(7.07863e-05 1.2844e-06 -2.16957e-05)
(6.91034e-05 -7.79424e-06 -2.38626e-05)
(6.39412e-05 -1.68433e-05 -2.37736e-05)
(5.70832e-05 -2.27647e-05 -2.01462e-05)
(4.23801e-05 -2.48492e-05 -1.1214e-05)
(1.85975e-05 -1.26262e-05 -8.85157e-06)
(-4.72525e-06 -6.24888e-06 -2.23053e-05)
(-3.39216e-05 -1.2278e-05 -4.35123e-05)
(-6.83361e-05 -6.14086e-05 -5.78724e-05)
(-0.000136023 -0.000103404 -3.92202e-05)
(-0.000311857 -0.000109347 -3.68689e-05)
(-0.000386999 -0.000130115 -5.13788e-05)
(-0.000502528 -0.000156049 -3.35474e-05)
(-0.00060231 -0.00016693 -1.07484e-05)
(-0.000689116 -0.000171766 1.29856e-05)
(-0.000762118 -0.000172914 3.56097e-05)
(-0.00081995 -0.000172862 5.53943e-05)
(-0.000866391 -0.000173238 7.16817e-05)
(-0.000901804 -0.000174824 8.42621e-05)
(-0.000926936 -0.000177477 9.28675e-05)
(-0.000942733 -0.000182068 9.60143e-05)
(-0.000956459 -0.000186308 9.49603e-05)
(-0.000966773 -0.000191118 9.18401e-05)
(-0.000972326 -0.000195588 8.53404e-05)
(-0.000979236 -0.000200438 7.38811e-05)
(-0.000994553 -0.000204383 6.33689e-05)
(-0.00100035 -0.00020845 4.87274e-05)
(-0.00101455 -0.000209173 3.39941e-05)
(-0.000997428 -0.000214175 1.52778e-05)
(5.45165e-05 1.4663e-05 4.82386e-05)
(7.62197e-05 1.19683e-05 -7.38587e-06)
(8.64917e-05 8.41865e-06 -1.6547e-05)
(9.24013e-05 9.26111e-07 -2.23813e-05)