/*--------------------------------*- C++ -*----------------------------------*\
  =========                 |
  \\      /  F ield         | OpenFOAM: The Open Source CFD Toolbox
   \\    /   O peration     | Website:  https://openfoam.org
    \\  /    A nd           | Version:  6
     \\/     M anipulation  |
\*---------------------------------------------------------------------------*/
FoamFile
{
    version     2.0;
    format      ascii;
    class       volScalarField;
    location    "33";
    object      yPlus;
}
// * * * * * * * * * * * * * * * * * * * * * * * * * * * * * * * * * * * * * //

dimensions      [0 0 0 0 0 0 0];

internalField   uniform 0;

boundaryField
{
    inlet
    {
        type            calculated;
        value           uniform 0;
    }
    outlet
    {
        type            calculated;
        value           uniform 0;
    }
    roughCylinder
    {
        type            calculated;
        value           nonuniform List<scalar> 
5120
(
43.4996
51.3211
57.5506
63.6774
68.9662
73.2559
76.6929
79.4709
81.7452
83.6505
85.3063
86.789
88.1361
89.3815
90.5561
91.6905
92.8153
93.9587
95.1442
96.3892
97.7032
99.0886
100.542
102.057
103.623
105.228
106.854
108.479
110.064
111.536
112.753
113.471
42.7891
50.3255
56.3556
62.3419
67.5568
71.8109
75.2291
77.9984
80.2725
82.1843
83.8487
85.3352
86.674
87.9056
89.0624
90.1755
91.2768
92.3952
93.5552
94.7731
96.0584
97.4137
98.8356
100.318
101.849
103.417
105.006
106.593
108.141
109.577
110.763
111.462
41.9985
49.2874
55.1303
60.9771
66.119
70.3423
73.7502
76.5211
78.8058
80.7334
82.4114
83.9031
85.2381
86.4589
87.5991
88.6927
89.7722
90.8672
92.0013
93.1921
94.4494
95.7751
97.1661
98.6156
100.113
101.646
103.198
104.746
106.256
107.657
108.813
109.493
41.1923
48.2452
53.9005
59.6034
64.6703
68.8644
72.2647
75.0419
77.3452
79.2973
80.9951
82.4959
83.8326
85.0444
86.172
87.2486
88.3079
89.3803
90.4913
91.6573
92.8874
94.1845
95.5452
96.9622
98.4257
99.9229
101.439
102.95
104.423
105.788
106.914
107.575
40.3239
47.1549
52.6216
58.1775
63.1723
67.348
70.7576
73.5591
75.8947
77.8781
79.5988
81.1127
82.4552
83.6649
84.7822
85.844
86.8859
87.9388
89.0266
90.168
91.3725
92.6422
93.9739
95.36
96.7912
98.2544
99.7346
101.209
102.646
103.976
105.072
105.715
39.4631
46.0717
51.3429
56.7447
61.6659
65.8264
69.2477
72.0737
74.4424
76.4622
78.2126
79.7453
81.099
82.312
83.4246
84.4764
85.5033
86.5376
87.6067
88.7267
89.907
91.1505
92.4537
93.8099
95.2085
96.6374
98.0827
99.5219
100.922
102.218
103.286
103.91
38.5262
44.9201
49.9884
55.2276
60.0751
64.2333
67.6895
70.5662
72.9887
75.0533
76.836
78.3923
79.7628
80.9871
82.1006
83.1454
84.161
85.1819
86.2314
87.3297
88.4874
89.7062
90.983
92.3102
93.6783
95.0754
96.4862
97.8901
99.2562
100.518
101.557
102.164
37.6039
43.778
48.6341
53.701
58.4721
62.6324
66.1261
69.0482
71.5174
73.6303
75.4564
77.0444
78.4382
79.6761
80.7999
81.8454
82.8548
83.8626
84.899
85.9811
87.118
88.3133
89.5636
90.8626
92.1997
93.5637
94.9413
96.3104
97.6411
98.8693
99.8816
100.469
36.5713
42.529
47.158
52.0338
56.7194
60.8914
64.4516
67.4606
70.015
72.1941
74.0668
75.6942
77.1197
78.3851
79.5219
80.5744
81.5822
82.5859
83.6081
84.672
85.7899
86.9634
88.1901
89.462
90.7707
92.1047
93.4478
94.783
96.0807
97.2764
98.2596
98.8311
35.5439
41.2776
45.6716
50.3436
54.9377
59.1268
62.7588
65.8449
68.4679
70.717
72.6582
74.3367
75.8017
77.0914
78.2525
79.319
80.3346
81.3348
82.3516
83.4062
84.5076
85.6608
86.8625
88.1077
89.3855
90.6852
91.998
93.297
94.5601
95.7219
96.6796
97.2305
34.3278
39.8454
43.9843
48.4192
52.8942
57.0983
60.8359
64.0676
66.8359
69.1929
71.2042
72.9449
74.462
75.803
76.9931
78.0796
79.1047
80.1127
81.1238
82.1652
83.2518
84.3861
85.5669
86.7859
88.0364
89.3084
90.5837
91.8507
93.0799
94.2096
95.1375
95.6729
33.0734
38.3831
42.2622
46.4459
50.7898
55.0135
58.8674
62.229
65.104
67.5723
69.7016
71.5286
73.1131
74.4915
75.7229
76.8403
77.8878
78.9
79.9147
80.9558
82.0315
83.1491
84.306
85.4993
86.7184
87.9533
89.2004
90.4285
91.6252
92.7196
93.6231
94.1361
31.5219
36.6266
40.2067
44.075
48.2222
52.4324
56.4329
60.0412
63.1885
65.8562
68.1013
70.0303
71.6936
73.1581
74.4422
75.597
76.6673
77.7032
78.7224
79.7547
80.8203
81.9222
83.0616
84.2302
85.4235
86.6335
87.8396
89.0392
90.1985
91.2617
92.1332
92.6312
29.8589
34.7828
38.0767
41.6208
45.5514
49.7471
53.9166
57.7391
61.0535
63.9132
66.3754
68.4545
70.2438
71.7731
73.1232
74.3321
75.4465
76.4959
77.5286
78.5725
79.6342
80.7239
81.8405
82.9839
84.1441
85.3126
86.4933
87.6469
88.7775
89.8024
90.6498
91.124
27.645
32.3959
35.3382
38.4316
41.9965
46.0665
50.3809
54.6273
58.5109
61.7777
64.4636
66.7455
68.658
70.3233
71.7615
73.0333
74.1857
75.282
76.335
77.3753
78.432
79.5099
80.6127
81.7324
82.8679
84.0143
85.1492
86.2799
87.3673
88.3595
89.1723
89.6308
25.1028
29.7743
32.4514
35.143
38.3212
42.241
46.8305
51.4011
55.4823
59.1296
62.2586
64.7966
66.9597
68.758
70.3134
71.6756
72.908
74.0305
75.1078
76.177
77.2399
78.3111
79.3913
80.4857
81.5855
82.6845
83.7937
84.8674
85.9284
86.8782
87.6665
88.0993
21.2272
25.918
28.1927
30.1886
32.6536
36.231
40.4615
45.8639
51.4614
55.9899
59.6019
62.6526
65.0537
67.0814
68.7765
70.2451
71.5334
72.7358
73.8588
74.9291
75.9922
77.0552
78.1269
79.1977
80.2717
81.3488
82.4089
83.4669
84.4771
85.3936
86.1407
86.5554
16.2546
21.3696
23.8703
25.6684
27.0894
26.8782
35.4257
41.1318
46.1101
51.6744
56.3757
59.8455
62.7797
65.0964
67.0422
68.6708
70.1091
71.3609
72.5205
73.6478
74.733
75.7971
76.8438
77.8886
78.9234
79.9465
80.9742
81.9589
82.9412
83.8033
84.5257
84.9136
5.88092
11.1961
12.2613
12.5751
17.8528
20.9549
17.1191
25.964
38.58
45.697
51.6345
56.7107
60.1934
62.9959
65.1615
66.986
68.5006
69.8836
71.1338
72.2638
73.3531
74.4124
75.4584
76.4767
77.4803
78.4772
79.4543
80.4281
81.3555
82.1881
82.858
83.2212
6.47331
7.03792
4.81793
4.34802
17.06
14.9777
18.8348
6.4634
20.285
37.2893
46.093
51.5865
56.5501
59.9897
62.787
64.9253
66.7559
68.2419
69.5459
70.7859
71.926
72.9986
74.0134
75.0036
75.9635
76.8958
77.8251
78.707
79.5921
80.3424
80.9828
81.321
12.0407
16.4263
17.4779
16.9231
15.335
14.0511
11.8925
19.5735
20.6375
9.82399
33.5281
46.462
52.2614
57.05
60.196
62.7679
64.6873
66.3959
67.8809
69.118
70.2628
71.3337
72.3576
73.3147
74.2295
75.1257
76.0019
76.8687
77.7012
78.4333
79.0072
79.3071
19.7246
24.2545
26.2661
27.2307
26.9976
25.5947
23.447
16.2948
15.2538
20.2154
21.2214
30.5076
44.9537
51.292
56.3353
59.5448
62.2311
64.189
65.764
67.2247
68.4814
69.5849
70.5693
71.4906
72.3533
73.1624
73.9623
74.7146
75.4679
76.0688
76.5866
76.8666
21.9868
26.9602
29.6569
31.637
32.7826
32.9143
31.8036
29.3139
24.2356
24.6533
13.139
20.0034
34.6255
46.5391
51.9439
56.4898
59.218
61.5863
63.5398
64.9769
66.2287
67.3403
68.3402
69.2169
70.0044
70.7539
71.4954
72.213
72.9189
73.5111
73.9568
74.176
22.6302
27.7067
30.6157
32.955
34.687
35.7915
36.2105
35.7474
33.8658
29.8016
21.5253
17.9684
7.3349
32.7415
44.9312
50.1753
55.0707
58.1136
60.2688
62.1983
63.7111
64.8839
65.8381
66.6516
67.3623
67.9764
68.578
69.1378
69.6898
70.085
70.37
70.5809
22.0776
27.288
30.3537
32.9156
34.9367
36.413
37.3575
37.7814
37.6018
36.3276
32.9899
27.5861
8.98087
26.7487
32.4848
45.593
49.9107
53.9011
56.8874
58.7005
60.1532
61.3711
62.3196
63.0698
63.6462
64.1142
64.6806
65.165
65.6457
66.0195
66.3023
66.41
20.6567
25.9969
29.1515
31.8409
34.0397
35.7491
36.9945
37.82
38.2744
38.3374
37.6133
34.4909
26.6806
20.61
16.5233
29.7434
41.6787
47.2228
50.9008
53.9446
56.0897
57.3812
58.2931
58.8866
59.2925
59.5293
59.7251
59.9396
60.1566
60.2701
60.0156
60.0972
18.734
24.1594
27.3364
30.0702
32.3535
34.2018
35.6467
36.7513
37.6051
38.2849
38.7232
38.2919
35.3198
29.5125
18.3355
27.7732
26.8337
39.938
45.2784
47.564
49.2412
50.8078
51.4373
51.9489
52.2151
51.7238
52.5131
52.4246
52.2869
52.1988
53.2353
52.869
16.5351
21.9385
25.0408
27.7212
29.9988
31.9109
33.501
34.8297
35.9875
37.0706
38.1139
38.9153
38.5974
35.2115
27.6509
27.4306
9.37047
21.3994
31.8621
38.1199
42.4074
43.834
44.401
44.5987
43.7095
43.3025
41.7104
41.6823
41.6925
41.3927
40.0079
37.8373
14.3039
19.5508
22.4786
25.0083
27.1914
29.087
30.7535
32.2554
33.6732
35.0941
36.5561
37.9818
39.0254
38.7306
35.6527
31.0172
20.2178
27.2828
33.7148
24.6023
23.2948
26.0719
24.5813
22.8235
27.2471
11.0179
27.4488
19.5799
33.491
24.521
43.4554
39.9267
12.3351
17.3033
19.9815
22.2895
24.311
26.1234
27.7946
29.389
30.9728
32.6166
34.3646
36.1813
37.8763
39.0262
38.9216
35.9362
29.6101
24.0761
31.0265
29.7766
13.4576
26.3385
30.6409
21.6384
35.3875
32.7034
35.0458
31.8756
42.9361
26.2257
45.2934
37.7789
10.8178
15.4358
17.8472
19.9155
21.7526
23.4486
25.0747
26.6888
28.3403
30.0763
31.9382
33.9377
35.9962
37.8544
39.058
38.7968
36.598
30.0751
30.8462
29.0681
22.0942
32.3677
20.4669
27.439
36.2443
24.4751
38.4421
34.3167
41.0232
39.4385
32.7534
30.0678
9.70484
14.0805
16.2678
18.1359
19.8189
21.4095
22.9723
24.5511
26.1787
27.8859
29.7088
31.6847
33.8179
36.0031
37.9344
39.09
39.2274
37.1577
34.0324
30.3343
30.1714
29.0007
30.4975
30.9225
32.6118
39.2226
35.1343
36.8747
37.7131
37.9014
38.5183
41.2246
9.12236
13.3126
15.345
17.0864
18.6785
20.2046
21.712
23.2271
24.7684
26.3592
28.0341
29.8398
31.8207
33.979
36.1978
38.1474
39.43
39.5942
37.7643
37.7596
36.5606
35.7274
39.2692
40.066
39.5577
44.0065
41.3533
42.1692
43.069
37.7068
43.4904
44.6535
8.96828
13.0768
15.0444
16.7436
18.3135
19.8207
21.2934
22.7423
24.1776
25.6201
27.1029
28.6715
30.3801
32.279
34.3742
36.5474
38.5006
39.7779
39.768
40.3583
40.1195
39.6843
41.7161
42.3423
41.6127
44.1946
42.6351
42.7194
43.4373
39.4229
43.9112
44.5733
9.16784
13.2731
15.2484
16.973
18.5736
20.0982
21.5591
22.958
24.3019
25.6097
26.9118
28.2475
29.6657
31.2245
32.9793
34.9407
36.9968
38.8577
39.9724
40.9505
41.1136
40.8402
42.1057
42.5871
41.778
43.1972
42.3625
42.226
42.4562
39.8598
42.9151
43.2383
9.62536
13.7781
15.8076
17.6014
19.267
20.8361
22.3093
23.6832
24.9645
26.1723
27.3347
28.4844
29.6593
30.9073
32.287
33.8536
35.6149
37.4633
39.0467
40.359
40.9186
40.8821
41.654
41.8647
41.0351
41.5813
41.1611
40.9609
40.8316
39.2593
41.1511
41.2318
10.2842
14.513
16.619
18.5009
20.2457
21.8707
23.3698
24.739
25.9869
27.1343
28.2074
29.2324
30.2357
31.2505
32.3215
33.5033
34.8424
36.3361
37.8265
39.1693
39.962
40.1444
40.6248
40.59
39.741
39.7645
39.5009
39.3341
39.0372
38.1448
39.3297
39.2877
11.0893
15.421
17.615
19.5908
21.416
23.0978
24.6274
26.0036
27.2394
28.3585
29.3859
30.3422
31.2437
32.1095
32.9673
33.8573
34.824
35.8977
37.0349
38.1307
38.9057
39.1954
39.4688
39.2555
38.4469
38.1733
37.9265
37.8182
37.5342
37.1327
37.9475
37.9043
11.9487
16.4519
18.7422
20.8115
22.7135
24.4492
26.0106
27.4015
28.6406
29.7545
30.7675
31.6963
32.5499
33.3362
34.0694
34.7722
35.4751
36.209
36.9746
37.7242
38.2999
38.5417
38.6276
38.2925
37.5404
37.1082
36.823
36.7686
36.6036
36.5617
37.2299
37.2665
12.9468
17.5738
19.9586
22.1185
24.0933
25.88
27.4739
28.8849
30.1378
31.2622
32.2815
33.2096
34.05
34.8047
35.478
36.0794
36.6239
37.1307
37.6114
38.0503
38.3703
38.4599
38.3607
37.9271
37.2103
36.6899
36.3601
36.3432
36.3288
36.5493
37.1902
37.3382
13.6561
14.0779
14.5665
14.9598
15.3406
15.6443
15.909
16.1145
16.2797
16.3967
16.4765
16.5175
16.5237
16.4962
16.4393
16.3553
16.2464
16.1177
15.98
15.8635
15.8622
15.9782
16.1175
16.2494
16.3624
16.451
16.5126
16.5448
16.5436
16.5073
16.4317
16.3189
16.1576
15.9558
15.6941
15.3937
15.0144
14.6208
14.1304
13.7015
18.4002
18.8374
19.3452
19.7559
20.1542
20.4785
20.7654
20.9953
21.1861
21.3305
21.4383
21.5082
21.5431
21.5428
21.5097
21.4456
21.3514
21.2308
21.0941
20.9741
20.9769
21.1003
21.241
21.3667
21.4665
21.5364
21.575
21.5805
21.5508
21.4854
21.3816
21.2408
21.0532
20.8261
20.5412
20.2187
19.8209
19.4089
18.8982
18.4526
20.8542
21.3166
21.8541
22.2901
22.7164
23.0708
23.3918
23.6588
23.8899
24.0776
24.2303
24.347
24.4294
24.4759
24.487
24.4633
24.4048
24.3139
24.1998
24.0939
24.0985
24.2105
24.3309
24.4287
24.4943
24.525
24.5204
24.4798
24.4027
24.2905
24.1416
23.957
23.7284
23.4633
23.1432
22.7896
22.3629
21.9251
21.3842
20.9132
23.0684
23.5497
24.1095
24.5645
25.0145
25.3956
25.7482
26.0504
26.3204
26.5509
26.7482
26.9111
27.0409
27.1347
27.1912
27.2096
27.1892
27.1317
27.0462
26.9638
26.9692
27.0606
27.1546
27.2209
27.25
27.2399
27.1909
27.1038
26.9798
26.8214
26.6277
26.3998
26.1315
25.83
25.4772
25.0956
24.6439
24.186
23.6221
23.1319
25.0815
25.5665
26.1332
26.5936
27.0546
27.4501
27.8222
28.1484
28.4461
28.709
28.9423
29.1432
29.3119
29.4449
29.5396
29.5938
29.6064
29.5787
29.5204
29.4615
29.4675
29.5374
29.6062
29.6441
29.6417
29.5968
29.5106
29.385
29.2224
29.0261
28.7963
28.5352
28.2383
27.9117
27.5381
27.1405
26.6764
26.2115
25.6394
25.145
26.8925
27.3645
27.9238
28.3774
28.8376
29.2372
29.6194
29.9621
30.2821
30.5717
30.8351
31.0683
31.2702
31.4364
31.5638
31.649
31.69
31.6882
31.6532
31.6129
31.6193
31.6721
31.7191
31.7326
31.7028
31.6281
31.5101
31.3518
31.1562
30.9279
30.6675
30.3792
30.0591
29.7144
29.3296
28.926
28.4607
28.0006
27.4342
26.9516
28.5004
28.9477
29.4919
29.9329
30.3878
30.7889
31.1803
31.5392
31.8799
32.1944
32.4854
32.7479
32.9797
33.1759
33.3321
33.4442
33.5099
33.5297
33.5131
33.4862
33.4932
33.5338
33.5637
33.5566
33.5033
33.4025
33.2564
33.0689
32.8438
32.5863
32.2984
31.9847
31.6429
31.2811
30.8851
30.4778
30.0156
29.5658
29.0123
28.5525
29.9198
30.3384
30.8667
31.2965
31.7486
32.1557
32.5584
32.9343
33.2955
33.6339
33.9503
34.2396
34.4984
34.721
34.9026
35.038
35.1244
35.1618
35.1592
35.1412
35.1488
35.1815
35.1986
35.1751
35.1021
34.9789
34.8082
34.5947
34.3433
34.0592
33.7456
33.408
33.0452
32.6654
32.2568
31.8416
31.3797
30.9387
30.3984
29.9648
31.1794
31.5707
32.0872
32.5107
32.9651
33.3806
33.7957
34.1885
34.569
34.929
35.2684
35.5813
35.8636
36.1092
36.3122
36.4671
36.5701
36.6213
36.6286
36.6163
36.6244
36.6526
36.6608
36.6247
36.5359
36.3941
36.2027
35.967
35.6925
35.3851
35.0489
34.6895
34.3069
33.9098
33.4876
33.0626
32.5969
32.1594
31.6283
31.219
32.31
32.677
33.1859
33.6078
34.0656
34.4902
34.9171
35.325
35.7226
36.1013
36.4603
36.7932
37.0953
37.3598
37.5803
37.7509
37.8672
37.9286
37.9428
37.9339
37.9427
37.9686
37.9709
37.9256
37.8247
37.6681
37.4599
37.2059
36.9122
36.5851
36.2294
35.8513
35.4515
35.0387
34.6041
34.1691
33.6983
33.2605
32.7347
32.3464
33.333
33.6778
34.1812
34.602
35.0635
35.4959
35.9331
36.354
36.7659
37.1602
37.5353
37.8848
38.2028
38.4825
38.7171
38.8999
39.0263
39.0955
39.1148
39.1081
39.1174
39.1423
39.1409
39.0889
38.9786
38.8106
38.5894
38.3209
38.0117
37.6686
37.2971
36.9033
36.4891
36.0629
35.6174
35.1736
34.6981
34.26
33.7375
33.3689
34.2602
34.5817
35.0787
35.4978
35.9619
36.401
36.8466
37.2783
37.702
38.1092
38.4975
38.8601
39.1909
39.4827
39.7283
39.9209
40.0557
40.1314
40.1553
40.1513
40.1612
40.1848
40.1797
40.1223
40.0048
39.8281
39.5966
39.3167
38.9953
38.6394
38.255
37.8485
37.4225
36.9852
36.5307
36.0796
35.6004
35.1628
34.6446
34.297
35.0931
35.3884
35.8772
36.2937
36.7596
37.2041
37.6569
38.0977
38.5312
38.949
39.348
39.7213
40.0624
40.3639
40.6184
40.8191
40.961
41.0432
41.0728
41.0731
41.0837
41.1043
41.0949
41.0321
40.9085
40.7246
40.485
40.1963
39.8652
39.4991
39.1043
38.6875
38.2514
37.8049
37.3429
36.8857
36.4038
35.9676
35.456
35.1317
35.8305
36.0956
36.5734
36.9862
37.4529
37.9023
38.3616
38.8105
39.2526
39.6794
40.0873
40.4693
40.8187
41.128
41.3898
41.5975
41.7462
41.8354
41.8723
41.879
41.8904
41.9061
41.8907
41.8222
41.6929
41.5031
41.2571
40.9612
40.6225
40.2483
39.8448
39.4191
38.9746
38.5197
38.0509
37.5882
37.1046
36.6709
36.1681
35.871
36.4723
36.7002
37.163
37.5707
38.0377
38.4919
38.9575
39.4141
39.8642
40.2991
40.7149
41.1043
41.4607
41.7766
42.0447
42.2588
42.4143
42.5113
42.5571
42.5714
42.5836
42.5933
42.5706
42.4957
42.3608
42.1656
41.9143
41.6126
41.2675
40.8862
40.4752
40.0415
39.589
39.1262
38.6507
38.1828
37.6978
37.2678
36.7776
36.5141
37.0199
37.1988
37.6414
38.0418
38.5085
38.9675
39.4395
39.9041
40.362
40.8049
41.2279
41.6242
41.9868
42.3086
42.5826
42.8028
42.9654
43.0706
43.1259
43.1482
43.1613
43.1647
43.1342
43.0525
42.9119
42.7118
42.4556
42.1487
41.798
41.4102
40.9921
40.5506
40.0899
39.619
39.1366
38.6631
38.1775
37.7529
37.2801
37.0613
37.4775
37.5887
38.0024
38.3924
38.8574
39.3211
39.8002
40.273
40.7393
41.1901
41.6205
42.0233
42.392
42.7194
42.9989
43.2251
43.3946
43.5083
43.573
43.6027
43.6169
43.6146
43.5765
43.488
43.3418
43.1369
42.8759
42.5643
42.208
41.814
41.3886
40.9389
40.4697
39.9901
39.5
39.021
38.5355
38.1194
37.672
37.5158
37.8512
37.8666
38.236
38.6123
39.0735
39.542
40.0281
40.5099
40.985
41.4443
41.8823
42.2919
42.6665
42.9995
43.2845
43.5167
43.6931
43.8148
43.888
43.9244
43.9395
43.9327
43.8879
43.793
43.6413
43.4314
43.1659
42.8493
42.4873
42.0866
41.6536
41.1951
40.7166
40.2272
39.7292
39.2442
38.7608
38.3559
37.9491
37.8834
38.1456
38.032
38.3349
38.6883
39.1438
39.616
40.1093
40.6004
41.0849
41.5532
41.9992
42.416
42.797
43.1357
43.4264
43.6644
43.8475
43.9765
44.0573
44.0994
44.1154
44.105
44.0546
43.9539
43.7971
43.5824
43.312
42.99
42.6218
42.2138
41.7723
41.3042
40.8154
40.3157
39.8092
39.3188
38.8391
38.455
38.1116
38.1709
38.3549
38.0826
38.2939
38.6101
39.0544
39.5292
40.029
40.5293
41.0235
41.5011
41.9557
42.38
42.7677
43.1125
43.409
43.6529
43.8421
43.9779
44.0651
44.112
44.1291
44.116
44.061
43.9553
43.7934
43.5738
43.2982
42.9703
42.5954
42.1794
41.7286
41.2502
40.7506
40.2401
39.7253
39.2302
38.7601
38.4116
38.1577
38.3751
38.4443
38.0041
38.1072
38.3715
38.7956
39.2711
39.7757
40.2847
40.7879
41.2748
41.7378
42.1699
42.5644
42.9155
43.2177
43.4673
43.6624
43.804
43.8967
43.9475
43.9657
43.9507
43.8921
43.782
43.6155
43.3911
43.1101
42.776
42.3938
41.9693
41.509
41.0199
40.5095
39.9884
39.4665
38.9684
38.5164
38.2185
38.0733
38.4626
38.3562
37.7692
37.7658
37.9702
38.3657
38.8362
39.3461
39.8622
40.3736
40.8686
41.3396
41.7787
42.1798
42.5366
42.8442
43.0988
43.2989
43.4453
43.5424
43.5965
43.6158
43.5997
43.5384
43.425
43.2546
43.0258
42.7397
42.3998
42.0106
41.578
41.1084
40.6094
40.0887
39.558
39.0278
38.5325
38.1071
37.8683
37.8311
38.3726
38.0884
37.3751
37.2757
37.42
37.7826
38.2424
38.7542
39.2751
39.7923
40.2934
40.7704
41.2151
41.6211
41.9825
42.2942
42.5527
42.7563
42.9061
43.0061
43.0625
43.0831
43.0667
43.0044
42.8892
42.7164
42.4844
42.1946
41.8498
41.455
41.0159
40.5389
40.0319
39.5028
38.9642
38.4294
37.9417
37.5461
37.3657
37.4265
38.1032
37.6288
36.829
36.6608
36.7552
37.0866
37.5311
38.039
38.5626
39.0824
39.5866
40.0662
40.5137
40.922
41.2854
41.5988
41.8587
42.0636
42.2145
42.3156
42.3734
42.3952
42.3801
42.3188
42.2042
42.0314
41.7989
41.5077
41.1611
40.7637
40.3212
39.8403
39.3286
38.7948
38.2502
37.7153
37.2376
36.866
36.7255
36.8412
37.5868
37.019
36.1763
35.974
36.0378
36.347
36.7772
37.2782
37.7997
38.3174
38.8201
39.2982
39.7442
40.151
40.5127
40.8243
41.0822
41.285
41.4338
41.5333
41.5908
41.6144
41.6026
41.5454
41.4349
41.2659
41.0367
40.7482
40.4039
40.0083
39.5672
39.0874
38.5764
38.0435
37.4992
36.9684
36.5004
36.1432
36.0197
36.1444
36.889
36.359
35.5253
35.3246
35.3787
35.6759
36.0942
36.5853
37.0989
37.6096
38.1054
38.5769
39.0163
39.4166
39.7718
40.0768
40.3282
40.5244
40.6667
40.7608
40.816
40.8415
40.8357
40.7867
40.6846
40.5237
40.3022
40.0212
39.6839
39.295
38.8604
38.3872
37.8826
37.3568
36.8209
36.3014
35.8484
35.5094
35.407
35.5513
36.3233
35.7853
35.0085
34.8419
34.9073
35.2035
35.613
36.0916
36.5917
37.0894
37.5729
38.0321
38.4595
38.8481
39.1918
39.4855
39.7257
39.9106
40.0419
40.1262
40.1761
40.2047
40.2091
40.1733
40.0849
39.9372
39.7286
39.4603
39.1356
38.7594
38.3375
37.877
37.3858
36.8741
36.3543
35.8523
35.4173
35.0962
35.0112
35.171
35.9632
35.4352
34.7578
34.6523
34.7479
35.0524
35.4556
35.9191
36.3998
36.8785
37.3432
37.7841
38.1937
38.565
38.8919
39.1696
39.394
39.5633
39.6787
39.7481
39.7887
39.8211
39.8402
39.8221
39.7514
39.6212
39.4299
39.1793
38.8729
38.5158
38.1139
37.6744
37.2063
36.7201
36.2307
35.7601
35.3558
35.0621
35.0008
35.171
35.9668
35.7536
35.0684
34.9527
35.0279
35.3068
35.6789
36.1084
36.5562
37.007
37.4463
37.8641
38.2522
38.6034
38.9117
39.1719
39.3798
39.533
39.6323
39.6856
39.7155
39.7551
39.7939
39.7974
39.7476
39.6383
39.4686
39.2407
38.9583
38.6263
38.2509
37.8391
37.3997
36.9429
36.4841
36.0399
35.6527
35.3593
35.275
35.388
36.0866
36.4359
35.7436
35.6126
35.6565
35.8979
36.2265
36.613
37.0237
37.4414
37.8507
38.2411
38.6039
38.9321
39.2193
39.4603
39.651
39.7883
39.8724
39.9104
39.9292
39.976
40.0335
40.0561
40.0254
39.9359
39.7876
39.5829
39.3257
39.0205
38.6734
38.2911
37.882
37.4559
37.0275
36.6121
36.2451
35.9535
35.8475
35.8979
36.4898
37.0852
36.4229
36.3042
36.3405
36.562
36.8629
37.2224
37.6066
37.9984
38.383
38.7501
39.0909
39.3986
39.6671
39.8912
40.0669
40.191
40.2634
40.2909
40.3019
40.3533
40.4222
40.4565
40.4385
40.3633
40.231
40.044
39.8062
39.5218
39.1966
38.8371
38.4514
38.049
37.644
37.2514
36.9037
36.6238
36.5209
36.5623
37.142
37.608
36.9513
36.8328
36.8578
37.0634
37.3468
37.6893
38.0564
38.4317
38.8004
39.1524
39.4792
39.7738
40.0305
40.244
40.4103
40.5265
40.5924
40.6147
40.6229
40.677
40.7511
40.792
40.7815
40.7151
40.5929
40.4172
40.1913
39.9197
39.6073
39.2604
38.8863
38.4938
38.0957
37.7048
37.3512
37.0533
36.9151
36.9
37.3954
43.506
51.3254
57.5545
63.6815
68.9709
73.2614
76.6991
79.4779
81.7529
83.6586
85.3145
86.7972
88.1439
89.3888
90.563
91.6968
92.8208
93.9632
95.1476
96.3911
97.7033
99.0865
100.538
102.05
103.613
105.214
106.837
108.459
110.042
111.514
112.732
113.45
42.7905
50.3261
56.3562
62.3432
67.5595
71.8153
75.2353
78.006
80.2807
82.1925
83.8567
85.3433
86.682
87.9133
89.0696
90.182
91.2824
92.3998
93.5584
94.7749
96.0583
97.4114
98.8311
100.31
101.838
103.402
104.988
106.572
108.117
109.554
110.742
111.44
42.0056
49.2925
55.1348
60.9818
66.1244
70.3482
73.7562
76.5276
78.8129
80.7411
82.4196
83.9113
85.2459
86.4662
87.6061
88.6991
89.7778
90.8718
92.0046
93.1939
94.4492
95.7727
97.1612
98.607
100.101
101.63
103.178
104.724
106.231
107.632
108.79
109.47
41.1907
48.2428
53.898
59.6016
64.6704
68.8667
72.2696
75.0493
77.3536
79.3057
81.0031
82.5039
83.8408
85.0524
86.1794
87.2552
88.3136
89.3848
90.4945
91.6589
92.8871
94.1818
95.5396
96.9532
98.4131
99.9059
101.417
102.926
104.396
105.761
106.89
107.551
40.3299
47.1592
52.6257
58.1821
63.178
67.3542
70.7635
73.5647
75.9002
77.8846
79.6065
81.1206
82.4624
83.6716
84.7887
85.8502
86.8913
87.9433
89.03
90.1694
91.3719
92.6391
93.9678
95.3506
96.7774
98.2362
99.7122
101.184
102.618
103.948
105.048
105.691
39.4597
46.0665
51.3368
56.7388
61.6615
65.8248
69.2496
72.0793
74.4505
76.4705
78.2199
79.7523
81.1069
82.3204
83.4323
84.483
85.509
86.542
87.6094
88.7279
89.906
91.1469
92.447
93.7992
95.1939
96.6185
98.0583
99.4939
100.892
102.189
103.26
103.884
38.5271
44.9202
49.989
55.2297
60.0792
64.2389
67.6951
70.5706
72.9922
75.0579
76.8429
78.4003
79.7694
80.9923
82.1057
83.1507
84.1658
85.1858
86.2343
87.3307
88.4862
89.7022
90.9756
92.2987
93.6624
95.0544
96.4607
97.8615
99.2241
100.486
101.53
102.137
37.6003
43.771
48.6249
53.6907
58.4625
62.6251
66.1231
69.0504
71.524
73.6378
75.4616
77.0485
78.4441
79.6843
80.8078
81.8517
82.8602
83.8666
84.9012
85.9815
87.1161
88.3086
89.5554
90.8501
92.1826
93.5415
94.9129
96.2776
97.6063
98.8357
99.8525
100.441
36.5621
42.5199
47.1499
52.0282
56.7176
60.8932
64.4549
67.4625
70.0154
72.1958
74.0735
75.7039
77.1273
78.389
79.5249
80.5783
81.586
82.5887
83.6103
84.6722
85.7876
86.958
88.1809
89.4482
90.7511
92.0787
93.4174
94.7492
96.0427
97.2393
98.2299
98.8003
35.5403
41.2695
45.66
50.3291
54.9224
59.1131
62.7495
65.8427
68.4726
70.7235
72.6599
74.3344
75.8021
77.097
78.2596
79.3244
80.3388
81.3381
82.3528
83.4055
84.5044
85.6544
86.852
88.0922
89.3651
90.6597
91.963
93.2573
94.5185
95.682
96.6458
97.1982
34.303
39.8206
43.9605
48.3987
52.8794
57.09
60.8319
64.0632
66.829
69.1876
71.2083
72.9576
74.4734
75.8078
76.9946
78.0824
79.1073
80.1137
81.1245
82.1639
83.2477
84.3784
85.5548
86.7684
88.0119
89.2752
90.5463
91.8091
93.0334
94.1649
95.1039
95.6374
33.0689
38.373
42.247
46.426
50.7676
54.9923
58.8512
62.2223
65.1082
67.5814
69.7024
71.5186
73.1037
74.4904
75.7266
76.8426
77.8896
78.9019
79.9146
80.953
82.0259
83.1399
84.292
85.4795
86.6927
87.922
89.1565
90.3802
91.5737
92.6717
93.583
94.0986
31.4739
36.5783
40.1579
44.029
48.1827
52.4016
56.4101
60.0207
63.1654
65.8333
68.093
70.0409
71.7083
73.1659
74.4441
75.6002
76.6697
77.7025
78.7207
79.7513
80.8137
81.9114
83.0456
84.2074
85.3917
86.5897
87.7924
88.9858
90.1403
91.2063
92.0943
92.5897
29.8491
34.7667
38.0542
41.591
45.5179
49.7169
53.8938
57.7297
61.0594
63.9299
66.3844
68.4435
70.2267
71.7625
73.1198
74.3277
75.4429
76.4952
77.5269
78.5673
79.6254
80.7109
81.8219
82.9581
84.1114
85.2734
86.4374
87.5883
88.7121
89.7432
90.6014
91.0795
27.5613
32.3124
35.2521
38.3448
41.9115
45.9839
50.3114
54.5657
58.4561
61.7269
64.4241
66.7358
68.6644
70.3306
71.765
73.0393
74.1901
75.2801
76.3296
77.3688
78.4223
79.4951
80.5912
81.7026
82.8264
83.9568
85.0879
86.2088
87.2924
88.2883
89.1274
89.5812
25.069
29.7328
32.4023
35.0831
38.2635
42.2202
46.8135
51.4076
55.4904
59.1341
62.2821
64.7993
66.9473
68.7423
70.3001
71.6604
72.8955
74.0251
75.1048
76.1687
77.2263
78.2921
79.3664
80.4515
81.5424
82.632
83.7208
84.7954
85.8433
86.8041
87.6072
88.0443
21.0865
25.7915
28.0557
30.0422
32.4614
35.8731
40.2723
45.6611
51.3474
55.9716
59.5166
62.5887
65.0203
67.0696
68.7783
70.2554
71.5417
72.7336
73.8478
74.918
75.9785
77.0363
78.0978
79.1584
80.2176
81.2743
82.3285
83.3688
84.3803
85.2981
86.0858
86.495
16.1178
21.1431
23.6555
25.4229
27.2224
30.1645
35.6312
41.3963
46.1344
51.352
56.3646
59.8767
62.8004
65.0979
67.0209
68.6422
70.0854
71.3492
72.5176
73.6362
74.7125
75.7687
76.8107
77.842
78.864
79.8708
80.8746
81.867
82.8253
83.7075
84.4545
84.8444
7.31402
11.2359
11.2262
10.4307
8.34182
8.29758
12.9334
24.8674
38.8473
47.0462
51.564
56.5138
60.0424
62.9069
65.1468
66.9973
68.5126
69.8809
71.1126
72.2448
73.3337
74.3885
75.4184
76.4237
77.4092
78.3805
79.3491
80.2929
81.2275
82.0545
82.7835
83.1446
8.64697
12.0186
12.8693
13.2414
12.0033
10.1362
6.02637
3.79197
19.2908
29.7352
45.6085
51.6674
56.6977
60.0886
62.7752
64.891
66.7233
68.2246
69.5482
70.7722
71.8961
72.9562
73.9681
74.939
75.8778
76.7804
77.6794
78.5796
79.4258
80.2063
80.9023
81.2316
11.8399
16.5022
17.9452
17.7611
15.6289
15.8796
10.3555
14.4741
19.9481
24.372
30.7121
45.6825
51.6953
56.7187
60.124
62.7544
64.6951
66.3892
67.8377
69.0827
70.2326
71.3009
72.3018
73.2396
74.1318
74.9945
75.8653
76.6818
77.5258
78.2481
78.893
79.2029
20.0591
24.5789
26.5779
27.5785
27.3735
25.435
21.7292
16.6131
19.7085
25.6961
24.3507
33.1495
46.4201
51.8154
56.3888
59.5622
62.2142
64.1743
65.7849
67.2138
68.437
69.5235
70.5053
71.3988
72.2235
72.9762
73.7311
74.5195
75.2143
75.8336
76.4994
76.7452
22.2422
27.2405
29.9656
31.9754
33.1668
33.3678
32.2175
28.9238
23.2232
26.0207
17.5746
10.8452
30.5709
45.6848
51.7491
56.3507
59.1844
61.5647
63.4511
64.904
66.177
67.2874
68.2596
69.1001
69.8535
70.5638
71.3151
71.9435
72.6601
73.2647
73.7673
74.0291
22.908
28.0112
30.9512
33.3152
35.0555
36.1417
36.522
36.0356
34.1815
30.1113
25.3275
18.4441
17.1457
30.6589
45.0554
50.493
55.19
58.1336
60.3306
62.2025
63.6375
64.7929
65.7431
66.5161
67.1504
67.6401
68.1769
68.8035
69.2674
69.5808
70.272
70.3838
22.2638
27.4938
30.5817
33.1642
35.1989
36.674
37.5892
37.9421
37.6676
36.3403
32.9633
28.2816
27.4946
26.6156
32.0824
45.113
49.7668
53.838
56.7238
58.5358
60.0567
61.2692
62.1984
62.8685
63.3609
63.8638
64.4243
64.7435
65.2206
65.7196
65.9682
66.2255
20.7551
26.1157
29.2909
32.0009
34.2162
35.9334
37.1702
37.9565
38.3056
38.1038
36.6991
32.2669
34.0756
26.6476
26.8281
29.283
42.0968
47.4574
50.9762
53.9851
55.9372
57.2396
58.1542
58.6753
58.8775
58.7456
58.9818
59.2548
59.3202
58.9235
59.9272
59.6493
18.8214
24.2625
27.4572
30.2106
32.5134
34.3786
35.833
36.9296
37.7374
38.2913
38.4375
37.3215
33.6483
27.3738
28.4208
25.3598
30.0186
39.9723
45.5811
47.2232
49.0571
50.5941
51.2766
51.5788
51.4791
52.4239
51.849
51.8061
51.338
52.1983
52.8833
53.1117
16.6234
22.0419
25.1601
27.8579
30.1544
32.087
33.6982
35.0446
36.2069
37.2596
38.1995
38.7842
38.1559
35.0947
29.3881
26.5097
27.7207
20.6169
29.622
37.6956
42.228
43.201
44.4165
44.4018
42.4492
40.063
41.4558
39.5238
39.3731
38.0501
40.1986
36.5658
14.4104
19.6723
22.6139
25.158
27.3564
29.2695
30.9565
32.4821
33.9239
35.3623
36.8245
38.2049
39.1641
38.9275
35.1634
28.0383
17.7959
24.2419
27.7402
23.9904
21.5004
29.1204
24.5048
24.0395
18.4113
36.1126
21.289
20.5777
34.5199
22.1602
43.6846
34.3843
12.457
17.4447
20.1368
22.4573
24.491
26.3164
28.0037
29.6201
31.2345
32.9156
34.7107
36.5778
38.3224
39.5198
39.2632
35.6642
28.7902
27.8315
34.2419
16.6391
20.3445
35.4986
15.8015
14.1904
17.4792
38.1344
20.4895
29.2045
9.38671
29.0521
45.1451
37.8275
10.9459
15.5899
18.0158
20.0951
21.9411
23.6455
25.2824
26.9135
28.5932
30.371
32.2944
34.3734
36.5221
38.4672
39.6914
39.4001
37.0234
29.4247
32.9709
21.9063
26.2771
32.7817
22.3749
30.3983
20.8877
37.2215
34.239
37.5827
35.1584
41.011
37.4602
29.727
9.82765
14.232
16.4322
18.3086
19.997
21.5926
23.1631
24.7563
26.4098
28.159
30.0452
32.1081
34.35
36.6525
38.6852
39.9125
39.9863
37.6801
32.5814
31.341
28.7007
27.3648
29.2315
30.244
36.1829
29.3847
34.9394
38.8518
40.3011
34.7226
36.5564
38.8214
9.23139
13.4482
15.4897
17.2348
18.8282
20.3561
21.8697
23.3984
24.9642
26.5939
28.3259
30.2116
32.2996
34.5894
36.9434
39.0032
40.3283
40.3548
38.4375
38.7545
37.5984
37.2556
38.8009
38.6605
42.7256
38.4504
39.4544
42.6749
42.943
37.7861
42.4698
43.1571
9.05741
13.1877
15.1593
16.8573
18.4248
19.9322
21.4109
22.8735
24.3314
25.8069
27.3364
28.97
30.7682
32.7857
35.0231
37.3327
39.371
40.593
40.6074
41.0736
40.8083
40.8198
41.6456
41.6606
43.8682
41.7397
40.9037
42.8002
42.753
40.3339
43.3704
43.8374
9.23442
13.3552
15.33
17.0497
18.6459
20.1707
21.638
23.0499
24.4132
25.7477
27.0857
28.4702
29.9553
31.6053
33.4786
35.5735
37.7398
39.5904
40.6794
41.5258
41.6983
41.7057
42.2333
42.3887
43.5469
42.3075
41.1057
41.6856
41.826