/*--------------------------------*- C++ -*----------------------------------*\
  =========                 |
  \\      /  F ield         | OpenFOAM: The Open Source CFD Toolbox
   \\    /   O peration     | Website:  https://openfoam.org
    \\  /    A nd           | Version:  6
     \\/     M anipulation  |
\*---------------------------------------------------------------------------*/
FoamFile
{
    version     2.0;
    format      ascii;
    class       volScalarField;
    location    "33";
    object      yPlus;
}
// * * * * * * * * * * * * * * * * * * * * * * * * * * * * * * * * * * * * * //

dimensions      [0 0 0 0 0 0 0];

internalField   uniform 0;

boundaryField
{
    inlet
    {
        type            calculated;
        value           uniform 0;
    }
    outlet
    {
        type            calculated;
        value           uniform 0;
    }
    roughCylinder
    {
        type            calculated;
        value           nonuniform List<scalar> 
5120
(
43.493
51.314
57.5431
63.6699
68.9591
73.2494
76.6869
79.4654
81.74
83.6454
85.3012
86.7839
88.1306
89.3755
90.5496
91.6832
92.8071
93.9495
95.1337
96.3771
97.6893
99.0725
100.524
102.036
103.599
105.2
106.824
108.446
110.03
111.501
112.72
113.433
42.7867
50.3217
56.3506
62.3361
67.5509
71.8053
75.2241
77.9941
80.2687
82.1804
83.8445
85.3306
86.6689
87.9
89.0561
90.1684
91.2687
92.3861
93.5447
94.7611
96.0444
97.3974
98.8169
100.296
101.824
103.389
104.975
106.559
108.106
109.541
110.73
111.424
41.993
49.2812
55.1237
60.9705
66.1129
70.3366
73.7449
76.5161
78.8011
80.7288
82.4069
83.8984
85.233
86.4533
87.593
88.6859
89.7644
90.8583
91.991
93.18
94.4353
95.7588
97.1472
98.5931
100.087
101.616
103.166
104.711
106.221
107.62
108.779
109.454
41.1892
48.2409
53.8953
59.5976
64.6646
68.859
72.2601
75.0382
77.3419
79.2939
80.9912
82.4918
83.8281
85.0395
86.1663
87.2419
88.3002
89.3713
90.4809
91.6453
92.8733
94.1679
95.5257
96.9395
98.3996
99.8931
101.405
102.913
104.387
105.75
106.88
107.535
40.3199
47.1502
52.6164
58.1722
63.1674
67.3436
70.7534
73.555
75.8905
77.8742
79.5953
81.1089
82.4506
83.6594
84.7762
85.8375
86.8783
87.9302
89.0166
90.1558
91.3582
92.6254
93.9539
95.3366
96.764
98.223
99.7001
101.171
102.609
103.937
105.038
105.674
39.4591
46.0669
51.3373
56.7386
61.6597
65.8207
69.2428
72.0697
74.4391
76.4585
78.2081
79.7405
81.0946
82.3079
83.4198
84.4701
85.4958
86.5286
87.596
88.7146
89.8925
91.1332
92.4335
93.7857
95.1806
96.6054
98.0463
99.4821
100.884
102.177
103.25
103.867
38.5237
44.9169
49.9848
55.2239
60.0718
64.2306
67.6871
70.5635
72.9857
75.051
76.8348
78.3909
79.7594
80.9815
82.094
83.1387
84.1536
85.1733
86.2215
87.3174
88.4727
89.6887
90.9618
92.2848
93.6493
95.0415
96.4492
97.8493
99.216
100.476
101.521
102.12
37.5998
43.7732
48.6282
53.6942
58.465
62.6255
66.1201
69.0434
71.5136
73.6258
75.4495
77.037
78.4324
79.6728
80.7964
81.8397
82.8475
83.8535
84.8878
85.9685
87.1028
88.295
89.5422
90.8371
92.1695
93.5291
94.9011
96.266
97.5999
98.8257
99.8442
100.423
36.5703
42.5277
47.1565
52.0324
56.7188
60.8916
64.4521
67.4603
70.0138
72.1938
74.0698
75.6979
77.1198
78.3797
79.514
80.5671
81.5747
82.5773
83.5985
84.6594
85.7746
86.945
88.1672
89.4345
90.7385
92.0663
93.4065
94.7376
96.0363
97.2301
98.2224
98.7831
35.5399
41.2726
45.665
50.335
54.9278
59.1167
62.7498
65.8383
68.4639
70.7126
72.6484
74.3237
75.7916
77.0876
78.2507
79.3143
80.3271
81.3253
82.3395
83.3929
84.4915
85.6409
86.8393
88.0798
89.3526
90.6479
91.9522
93.2467
94.5138
95.6737
96.6393
97.1794
34.3302
39.848
43.9881
48.4248
52.9017
57.1068
60.8436
64.0723
66.8363
69.1921
71.21
72.9561
74.4694
75.7998
76.9837
78.0713
79.0972
80.104
81.1144
82.152
83.2355
84.3664
85.5414
86.7549
87.9998
89.2634
90.5359
91.7976
93.0301
94.1582
95.0985
95.6191
33.0686
38.3758
42.2504
46.4283
50.7678
54.9909
58.8485
62.2168
65.1001
67.5736
69.6948
71.5107
73.0955
74.4851
75.7229
76.8366
77.8798
78.8898
79.901
80.9411
82.0137
83.1266
84.2801
85.4677
86.6806
87.9111
89.1475
90.3705
91.5716
92.6651
93.5793
94.0775
31.5332
36.6409
40.2273
44.1051
48.2605
52.4714
56.4645
60.0609
63.194
65.8491
68.1
70.0444
71.7097
73.1594
74.4318
75.5877
76.6601
77.6946
78.7133
79.7409
80.8025
81.9008
83.0327
84.1943
85.3805
86.5798
87.7825
88.9748
90.1416
91.2026
92.0914
92.5701
29.8488
34.7652
38.0441
41.5655
45.4766
49.6722
53.8593
57.7053
61.0428
63.9257
66.3872
68.4437
70.2222
71.7632
73.1248
74.3292
75.4372
76.4846
77.5132
78.5561
79.6143
80.6981
81.8107
82.947
84.0998
85.2626
86.4297
87.579
88.7138
89.739
90.6022
91.0542
27.6811
32.4432
35.4126
38.5514
42.1581
46.223
50.4972
54.6968
58.5423
61.7686
64.4387
66.7437
68.6732
70.327
71.7493
73.0233
74.1798
75.2736
76.3258
77.3608
78.4127
79.4863
80.5793
81.69
82.8167
83.9508
85.079
86.199
87.2996
88.2913
89.1269
89.5599
25.0857
29.7356
32.3584
34.9482
38.0203
41.9564
46.6277
51.2924
55.4308
59.1332
62.307
64.8214
66.9547
68.7547
70.321
71.6743
72.8966
74.0177
75.091
76.1585
77.2171
78.2803
79.356
80.441
81.5311
82.6199
83.7152
84.7847
85.8513
86.802
87.6159
88.013
21.3257
26.0265
28.3832
30.5622
33.249
36.7418
40.8882
46.093
51.5882
56.0524
59.5423
62.5984
65.0347
67.0646
68.7506
70.2307
71.5289
72.7276
73.8484
74.9135
75.9713
77.0296
78.0872
79.1463
80.2104
81.2773
82.3201
83.3629
84.3944
85.312
86.0896
86.4695
16.5542
21.581
23.8719
25.3816
26.451
27.6403
34.8045
40.7462
45.9025
51.4739
56.4807
59.9657
62.8454
65.1459
67.0823
68.6812
70.0967
71.3474
72.5047
73.628
74.7063
75.7592
76.8011
77.8322
78.8524
79.8537
80.8717
81.8502
82.8455
83.7089
84.4754
84.8047
6.78885
11.4019
11.8934
11.2148
15.5855
20.4976
17.3208
27.1708
39.0978
46.5043
51.4847
56.4977
60.06
62.8757
65.0699
66.943
68.493
69.8738
71.1185
72.2454
73.3302
74.3847
75.4093
76.412
77.4068
78.402
79.3399
80.2957
81.2494
82.0878
82.796
83.1084
8.59069
13.1291
14.6943
13.9495
12.4389
15.0331
18.5685
20.4088
19.3501
34.7147
46.5952
52.0838
56.8249
60.2395
62.9511
64.9957
66.7532
68.2314
69.5376
70.768
71.8955
72.9504
73.9598
74.9289
75.8644
76.7547
77.6811
78.5496
79.4686
80.2187
80.9431
81.1793
11.2106
15.8538
17.244
17.2973
17.0144
14.4039
19.2922
19.012
21.116
18.5032
31.8782
45.4257
51.784
56.5814
59.8838
62.6017
64.6523
66.3775
67.8509
69.0914
70.2355
71.3029
72.294
73.2272
74.1389
75.0491
75.8521
76.6973
77.5586
78.3061
78.9283
79.1443
19.7325
24.1582
26.0218
26.8784
26.4806
24.8627
21.5225
17.1114
14.2756
15.9637
18.4529
32.7616
46.09
52.216
56.859
59.8374
62.2863
64.1949
65.7791
67.2188
68.449
69.5233
70.4984
71.385
72.2053
72.9446
73.7363
74.468
75.2979
75.8906
76.5782
76.6617
22.2722
27.2555
29.9736
31.9819
33.1911
33.4739
32.5289
29.6234
25.6153
18.7165
19.2323
25.4484
31.5135
45.143
51.0825
55.9131
59.0659
61.5363
63.4786
64.929
66.191
67.3016
68.2524
69.082
69.8827
70.673
71.3032
71.9688
72.7179
73.3407
73.866
73.9229
23.1095
28.2039
31.1456
33.512
35.2586
36.3581
36.7526
36.2414
34.1622
29.7965
26.0102
29.1593
31.166
33.5941
46.0089
51.2117
55.3781
58.188
60.3335
62.2298
63.6828
64.8057
65.7351
66.4859
67.1208
67.6291
68.1498
68.7242
69.4276
69.7873
70.4458
70.2024
22.5449
27.775
30.876
33.4749
35.5289
37.0284
37.9773
38.374
38.1404
36.7729
32.5304
28.5107
25.1478
34.1676
32.2791
43.5576
49.3089
53.7108
56.7777
58.6041
60.0931
61.3052
62.1957
62.8085
63.4464
64.0418
64.4933
64.7452
65.3678
65.7638
66.2531
65.9663
21.0448
26.409
29.5985
32.3255
34.5616
36.3052
37.58
38.4289
38.8926
38.9197
37.9991
34.5248
28.1241
28.3102
30.6637
32.7947
43.2083
47.7037
51.0069
54.0906
56.0824
57.3
58.1287
58.5873
58.8416
58.9186
58.6555
59.215
59.617
59.6448
60.3051
59.0747
19.0238
24.4812
27.6952
30.4693
32.7951
34.6873
36.1748
37.3168
38.1992
38.8925
39.3264
38.9598
36.0367
26.8988
27.6667
8.11797
25.0535
38.7563
45.238
47.4214
49.1371
50.5554
51.4059
51.2611
51.636
51.9335
52.9516
51.5588
52.2734
51.6559
53.2111
51.8009
16.7179
22.1564
25.2935
28.011
30.3276
32.2813
33.9141
35.2827
36.4745
37.5818
38.6406
39.4979
39.4816
36.9719
30.5804
19.0227
25.3881
25.3345
32.0489
38.6833
42.406
43.9401
44.4694
43.7282
43.1183
42.0328
38.2133
41.1153
38.6038
40.2434
40.7916
34.3459
14.4079
19.6836
22.6375
25.1949
27.4073
29.3341
31.0328
32.565
34.0067
35.4417
36.9095
38.3407
39.4484
39.4855
36.2686
30.7385
31.565
19.6317
15.7458
23.7075
23.4883
23.5758
25.8987
29.6312
17.892
30.6791
28.7938
44.6896
27.7192
4.75426
35.1807
15.7094
12.3968
17.385
20.0794
22.4041
24.443
26.2737
27.9637
29.5768
31.1777
32.8332
34.59
36.4151
38.1323
39.3323
39.121
36.1557
29.2055
29.1519
26.0502
30.9515
14.7008
20.0492
29.9171
39.6393
26.0979
41.973
32.6869
34.0028
35.7085
24.1164
42.6859
21.4948
10.8637
15.4983
17.92
19.9974
21.8432
23.5475
25.1818
26.8043
28.4647
30.2089
32.0794
34.0883
36.1618
38.0425
39.2139
38.944
35.5231
33.7769
28.458
32.4557
21.5667
23.6896
33.0983
32.8507
28.4002
34.4071
29.9975
32.6719
38.3654
31.8614
42.4183
34.0166
9.74706
14.1382
16.3327
18.2061
19.8931
21.4873
23.054
24.6383
26.2742
27.9935
29.8326
31.8286
33.9883
36.2084
38.1675
39.3489
39.1215
36.5917
32.5662
30.7649
29.0064
27.4092
27.2269
34.085
35.2525
35.8632
37.5339
40.0045
38.4241
37.1882
30.8728
43.0708
9.16175
13.3668
15.4042
17.1479
18.741
20.2679
21.7778
23.2981
24.8493
26.4557
28.1533
29.9909
32.0163
34.2345
36.5225
38.5341
39.7638
39.6723
38.7162
37.7243
37.24
37.9142
37.491
41.7775
41.4117
42.1514
42.9509
43.5497
43.1129
41.1827
34.6696
44.8049
9.00011
13.1215
15.0915
16.79
18.358
19.8643
21.3386
22.7929
24.2386
25.6973
27.2041
28.8075
30.566
32.5359
34.7246
37.0005
39.0085
40.224
40.6486
40.7627
40.6422
41.3579
41.3694
43.3933
42.5588
43.1727
43.6813
43.4411
43.3667
41.9933
39.4931
44.166
9.18776
13.3027
15.2772
16.998
18.5941
20.1161
21.5774
22.9804
24.3329
25.6549
26.9784
28.3452
29.8081
31.4308
33.274
35.3442
37.4988
39.3693
40.6439
41.3508
41.5922
42.2165
42.33
43.2263
42.3709
42.7414
42.9336
42.3066
42.3417
41.7549
40.9294
42.8438
9.62786
13.7866
15.8129
17.6006
19.2602
20.8253
22.2976
23.674
24.9614
26.1798
27.3582
28.5313
29.7402
31.0365
32.4834
34.137
35.9905
37.8826
39.5173
40.6873
41.3248
41.9086
42.0116
42.2328
41.4272
41.4303
41.2363
40.4661
40.5883
40.54
40.4637
41.0461
10.2657
14.4971
16.5979
18.4724
20.2105
21.8311
23.3286
24.699
25.9508
27.105
28.1883
29.2286
30.2543
31.3011
32.417
33.6576
35.0635
36.6055
38.1254
39.4079
40.2595
40.845
40.9345
40.8083
40.0412
39.7206
39.2568
38.4859
38.694
38.947
39.2492
39.3379
11.0487
15.3796
17.5671
19.5348
21.3534
23.0309
24.5588
25.9352
27.1732
28.2959
29.3286
30.2932
31.2075
32.0921
32.9768
33.9025
34.912
36.0242
37.1861
38.2694
39.0812
39.6036
39.6721
39.4012
38.6811
38.1374
37.5494
36.8813
37.1605
37.5607
38.0966
38.0987
11.8885
16.3868
18.6694
20.7304
22.626
24.3576
25.9172
27.3076
28.5472
29.6621
30.6768
31.6086
32.4679
33.2637
34.0111
34.7337
35.4618
36.2217
37.007
37.7636
38.3618
38.7278
38.7303
38.3913
37.711
37.0556
36.4492
35.923
36.247
36.7298
37.4185
37.5051
12.8676
17.4876
19.8639
22.0155
23.9838
25.7665
27.3582
28.7679
30.0197
31.143
32.1611
33.0886
33.9301
34.688
35.3675
35.9786
36.5368
37.0594
37.5546
38.0053
38.3423
38.5013
38.3872
37.9844
37.3208
36.6271
36.0506
35.6616
36.0082
36.5537
37.3375
37.5563
13.5625
13.9782
14.4591
14.8449
15.2189
15.516
15.7757
15.9772
16.1391
16.2533
16.3309
16.3702
16.3748
16.3463
16.2886
16.2043
16.0959
15.9688
15.8353
15.7288
15.7479
15.8715
16.0133
16.1457
16.2582
16.3457
16.4064
16.4375
16.4345
16.3967
16.3199
16.2058
16.0433
15.8404
15.5785
15.2781
14.9007
14.511
14.0269
13.6086
18.3014
18.7331
19.2335
19.6371
20.0287
20.3468
20.6289
20.8547
21.042
21.1835
21.2887
21.3565
21.3893
21.3872
21.3526
21.2872
21.1923
21.0723
20.9386
20.8274
20.8484
20.9783
21.1206
21.246
21.3448
21.4136
21.4511
21.4555
21.4243
21.3579
21.2533
21.1117
20.9236
20.6962
20.4118
20.0904
19.6953
19.2881
18.7846
18.3509
20.7503
21.2069
21.7371
22.166
22.5859
22.9344
23.2509
23.5139
23.7415
23.9263
24.0762
24.1904
24.2703
24.3146
24.3234
24.2976
24.2376
24.1462
24.0339
23.9354
23.9558
24.0731
24.1942
24.2911
24.3554
24.3848
24.3792
24.3374
24.2593
24.1468
23.9977
23.8131
23.5848
23.3205
23.0019
22.6503
22.2271
21.7945
21.2613
20.8024
22.9573
23.433
23.9859
24.4343
24.8786
25.2545
25.6029
25.9016
26.1684
26.3961
26.5905
26.7507
26.8776
26.9686
27.0221
27.0376
27.0148
26.9558
26.8711
26.7946
26.8124
26.908
27.0019
27.0668
27.0941
27.0826
27.0324
26.9442
26.8196
26.6615
26.4681
26.241
25.9739
25.6742
25.324
24.9454
24.4981
24.0462
23.4905
23.0123
24.961
25.4409
26.0014
26.4563
26.9125
27.3037
27.6723
27.9956
28.2906
28.551
28.7814
28.9794
29.1449
29.2744
29.3656
29.4162
29.4257
29.3958
29.3375
29.283
29.2981
29.3713
29.4394
29.4755
29.471
29.4243
29.3367
29.2103
29.0473
28.8517
28.6226
28.3633
28.0685
27.7446
27.3746
26.9811
26.5223
26.0643
25.501
25.0188
26.7615
27.2291
27.7834
28.2328
28.6894
29.086
29.4654
29.8062
30.124
30.4113
30.6719
30.902
31.1003
31.2628
31.386
31.467
31.5042
31.4994
31.4635
31.4265
31.4395
31.4945
31.5404
31.5516
31.5194
31.4426
31.3229
31.1636
30.968
30.7403
30.4814
30.1954
29.8782
29.5377
29.1571
28.7588
28.2999
27.8478
27.291
26.821
28.3591
28.8034
29.3437
29.782
30.2346
30.6343
31.0242
31.3816
31.7207
32.0331
32.3213
32.5804
32.8084
33.0001
33.1517
33.259
33.32
33.3363
33.318
33.2932
33.3049
33.3468
33.375
33.3651
33.3089
33.2056
33.0576
32.8688
32.6436
32.387
32.1006
31.7898
31.4516
31.0945
30.7041
30.3037
29.8491
29.4084
28.8656
28.419
29.7702
30.1871
30.7131
31.1416
31.5932
31.9998
32.4019
32.7769
33.1368
33.473
33.7866
34.0723
34.3269
34.5447
34.7209
34.8509
34.9318
34.965
34.9598
34.9429
34.9539
34.987
35.0017
34.9748
34.8983
34.772
34.5992
34.3843
34.1323
33.8489
33.5372
33.2026
32.8438
32.4693
32.067
31.6597
31.2069
30.7765
30.2481
29.829
31.0242
31.4154
31.931
32.3552
32.8098
33.2257
33.6408
34.033
34.4123
34.7701
35.1065
35.4156
35.6933
35.9335
36.1305
36.2792
36.3763
36.4222
36.4261
36.414
36.4245
36.4523
36.4573
36.4172
36.3242
36.1789
35.9847
35.7473
35.4721
35.1652
34.8306
34.4743
34.096
33.7044
33.2892
32.8729
32.417
31.9915
31.4737
31.0806
32.1524
32.5208
33.0303
33.4537
33.9127
34.3382
34.7654
35.173
35.5694
35.946
36.3018
36.6305
36.9274
37.186
37.4001
37.5638
37.6732
37.7285
37.7384
37.7287
37.7391
37.7639
37.7623
37.7121
37.6063
37.4456
37.2342
36.978
36.6832
36.3564
36.0022
35.6271
35.2317
34.8246
34.3973
33.9714
33.5111
33.0864
32.5752
32.2049
33.1768
33.5239
34.0289
34.4517
34.9148
35.3486
35.7864
36.2071
36.6177
37.0098
37.3816
37.7264
38.039
38.3122
38.5395
38.7147
38.8336
38.8957
38.9097
38.9013
38.9115
38.9345
38.9282
38.8706
38.7549
38.5821
38.357
38.0858
37.7751
37.4319
37.0617
36.6708
36.2608
35.8406
35.4026
34.9682
34.5039
34.0795
33.5728
33.224
34.1081
34.4327
34.9317
35.3534
35.8196
36.2602
36.7067
37.1382
37.5605
37.9654
38.3501
38.7078
39.0326
39.3174
39.5551
39.7394
39.8656
39.9333
39.951
39.9441
39.954
39.9747
39.9643
39.9006
39.7769
39.5947
39.3587
39.0755
38.7521
38.3958
38.0123
37.6085
37.1866
36.7553
36.3084
35.8671
35.3995
34.9763
34.4752
34.1492
34.9483
35.2474
35.7386
36.1578
36.6257
37.0719
37.5256
37.9662
38.3984
38.8136
39.2086
39.5766
39.9113
40.2051
40.4511
40.6427
40.7753
40.8486
40.8708
40.8671
40.8765
40.8934
40.8778
40.808
40.6774
40.4874
40.2426
39.9499
39.6164
39.2494
38.8551
38.4406
38.0086
37.568
37.1137
36.6664
36.1967
35.7756
35.2822
34.9817
35.6971
35.9657
36.4459
36.8612
37.33
37.7811
38.2411
38.6897
39.1302
39.5542
39.9579
40.3342
40.6767
40.9777
41.2304
41.4282
41.5668
41.6461
41.6746
41.6759
41.6845
41.6954
41.6731
41.5968
41.4598
41.2631
41.0112
40.7108
40.3691
39.9933
39.5901
39.1663
38.7256
38.2765
37.8154
37.3628
36.8917
36.474
35.9909
35.7202
36.3534
36.5846
37.0497
37.4596
37.9284
38.3839
38.85
39.3061
39.7545
40.1862
40.5975
40.9808
41.3298
41.6369
41.8951
42.0985
42.2432
42.3294
42.3656
42.3732
42.3807
42.3843
42.3537
42.2702
42.1269
41.9241
41.6661
41.3592
41.0104
40.6271
40.2159
39.7839
39.3349
38.8777
38.4099
37.9522
37.4804
37.0672
36.5984
36.3644
36.9204
37.1022
37.5456
37.9474
38.4153
38.8751
39.3474
39.8111
40.2671
40.7066
41.1247
41.5144
41.8692
42.1815
42.445
42.6538
42.8045
42.898
42.9427
42.9568
42.9634
42.9592
42.9197
42.8285
42.6786
42.4699
42.2063
41.8936
41.5386
41.1484
40.7297
40.2895
39.8323
39.3668
38.892
38.429
37.957
37.5504
37.1012
36.9154
37.4011
37.5145
37.9278
38.3178
38.7831
39.2471
39.7257
40.1974
40.6614
41.1085
41.5336
41.9296
42.2897
42.6071
42.8755
43.0895
43.2464
43.3475
43.4003
43.4203
43.4259
43.4144
43.3662
43.2672
43.1108
42.8965
42.6274
42.3092
41.9481
41.5512
41.1249
40.6763
40.2104
39.7361
39.2538
38.7854
38.3141
37.9172
37.4957
37.3764
37.8033
37.8203
38.1878
38.5611
39.0211
39.4884
39.9736
40.4537
40.9262
41.3815
41.8139
42.2163
42.582
42.9045
43.1776
43.3969
43.5598
43.6679
43.7282
43.7533
43.758
43.7403
43.6841
43.5776
43.4147
43.1948
42.9204
42.5966
42.2294
41.8255
41.3912
40.9337
40.4584
39.9745
39.4844
39.0102
38.5417
38.1571
37.7782
37.753
38.1329
38.019
38.3181
38.6655
39.1163
39.5858
40.0769
40.5659
41.0474
41.5114
41.9516
42.3608
42.7325
43.0603
43.3385
43.563
43.7316
43.8462
43.9128
43.9421
43.9461
43.9232
43.86
43.7467
43.5777
43.3521
43.0723
42.7427
42.369
41.9575
41.5148
41.0478
40.5623
40.0683
39.5699
39.0907
38.6261
38.2627
37.9485
38.0507
38.3842
38.1071
38.3117
38.6191
39.0559
39.5247
40.0212
40.5185
41.0093
41.4824
41.931
42.3476
42.7256
43.0591
43.3425
43.5722
43.7465
43.8668
43.9388
43.9713
43.9748
43.9477
43.8786
43.7592
43.5844
43.3533
43.0678
42.7321
42.3515
41.9322
41.4803
41.0033
40.5073
40.0029
39.4967
39.0129
38.5579
38.2298
38.0056
38.2665
38.5231
38.0694
38.1604
38.4121
38.8261
39.2936
39.7938
40.2991
40.7988
41.281
41.738
42.1622
42.547
42.8863
43.1751
43.4099
43.5891
43.7145
43.7909
43.8262
43.8293
43.7989
43.7251
43.6004
43.4203
43.1839
42.8929
42.5509
42.1632
41.7358
41.275
40.788
40.2821
39.7679
39.2554
38.7694
38.3326
38.055
37.9385
38.3703
38.507
37.8845
37.8578
38.045
38.4284
38.8894
39.3922
39.904
40.4112
40.9016
41.3662
41.7975
42.1885
42.5333
42.8271
43.0664
43.25
43.3794
43.4593
43.4967
43.4997
43.4671
43.3897
43.261
43.0766
42.8355
42.5394
42.1918
41.7977
41.3629
40.8939
40.3981
39.8832
39.3608
38.8415
38.3595
37.951
37.7346
37.7305
38.3244
38.2483
37.5087
37.3919
37.5223
37.875
38.326
38.8303
39.3456
39.8583
40.3542
40.8247
41.2611
41.6568
42.0058
42.3032
42.5458
42.7324
42.8644
42.9466
42.9854
42.9885
42.9547
42.8756
42.7444
42.5574
42.3132
42.0136
41.662
41.2632
40.823
40.3481
39.8461
39.3251
38.7973
38.276
37.8043
37.4275
37.2701
37.3593
38.075
37.7205
36.9321
36.7712
36.8666
37.1969
37.6379
38.1408
38.6591
39.1743
39.6729
40.1458
40.5844
40.982
41.3326
41.6312
41.8747
42.0619
42.1945
42.277
42.3163
42.32
42.2868
42.2081
42.0773
41.8903
41.646
41.3458
40.9933
40.5931
40.1513
39.6743
39.1699
38.6468
38.1161
37.5979
37.1398
36.7907
36.6767
36.8221
37.6046
36.9952
36.2126
36.0493
36.1352
36.4564
36.8912
37.3921
37.9111
38.4256
38.9234
39.3949
39.8319
40.2277
40.5761
40.8725
41.1137
41.2984
41.4285
41.5089
41.5476
41.5524
41.5219
41.4469
41.3201
41.137
40.8962
40.5995
40.2502
39.853
39.414
38.9396
38.4374
37.9167
37.3879
36.8755
36.4285
36.0952
36.0001
36.158
36.9473
36.2937
35.5225
35.3657
35.4493
35.7647
36.193
36.6885
37.2032
37.7129
38.2055
38.6715
39.1029
39.4927
39.835
40.1253
40.36
40.5383
40.6621
40.7374
40.7737
40.7805
40.756
40.6893
40.5714
40.3972
40.1654
39.8774
39.5367
39.148
38.7172
38.2509
37.7562
37.2425
36.7201
36.2143
35.774
35.4441
35.3464
35.4904
36.2592
35.7628
35.0062
34.8604
34.9464
35.2584
35.6791
36.1652
36.6699
37.1696
37.6524
38.1081
38.5291
38.9084
39.2403
39.52
39.7441
39.9115
40.0243
40.0899
40.1207
40.13
40.115
40.0611
39.9567
39.796
39.5774
39.3027
38.9753
38.6001
38.1827
37.73
37.2489
36.7489
36.2407
35.7484
35.3185
34.9922
34.8874
35.0053
35.7311
35.5284
34.8053
34.6806
34.7731
35.0808
35.4899
35.9596
36.4458
36.9284
37.3944
37.834
38.2389
38.6026
38.9191
39.1837
39.3927
39.5448
39.6421
39.6926
39.7142
39.7271
39.727
39.6916
39.6058
39.4632
39.2629
39.0068
38.6985
38.343
37.9459
37.5138
37.0541
36.5756
36.0901
35.6171
35.1994
34.8724
34.7478
34.8166
35.4579
35.7948
35.1128
35.0029
35.0837
35.3683
35.7452
36.1795
36.6307
37.0828
37.5207
37.9344
38.3152
38.6561
38.9512
39.1953
39.3848
39.5175
39.5948
39.6247
39.6297
39.6434
39.6583
39.6403
39.571
39.4447
39.2609
39.0221
38.7322
38.3961
38.0197
37.6098
37.1747
36.7237
36.2712
35.8319
35.4471
35.151
35.055
35.1462
35.8059
36.4366
35.7655
35.6565
35.7231
35.9847
36.3301
36.7298
37.149
37.5708
37.9801
38.3664
38.7212
39.0375
39.3095
39.5323
39.7017
39.8157
39.8746
39.8859
39.8754
39.892
39.9229
39.9212
39.868
39.7585
39.5928
39.3738
39.1053
38.7923
38.4404
38.0565
37.6485
37.226
36.8031
36.3948
36.0361
35.7571
35.6687
35.7514
36.3953
37.1023
36.4953
36.422
36.4958
36.7478
37.0715
37.4461
37.8383
38.2326
38.6143
38.9736
39.3024
39.5939
39.8425
40.0434
40.193
40.2888
40.3307
40.3257
40.2998
40.3115
40.3469
40.3513
40.3057
40.2053
40.0508
39.8451
39.592
39.2965
38.9644
38.6027
38.2197
37.8257
37.4357
37.0663
36.7521
36.5148
36.464
36.5675
37.2201
37.6524
37.0609
36.9968
37.069
37.3124
37.6224
37.9821
38.3584
38.7366
39.1023
39.4458
39.7594
40.0367
40.272
40.4609
40.5997
40.6861
40.7204
40.7095
40.6807
40.6949
40.7354
40.7464
40.7087
40.618
40.4748
40.2817
40.0426
39.762
39.4457
39.0996
38.732
38.3517
37.9727
37.6092
37.2929
37.0393
36.9542
36.9964
37.5611
43.4802
51.2992
57.5266
63.6523
68.9408
73.2308
76.6683
79.4469
81.7219
83.6275
85.2832
86.7658
88.1127
89.3576
90.5318
91.6658
92.7899
93.9326
95.1173
96.3613
97.6741
99.0581
100.51
102.023
103.587
105.19
106.814
108.437
110.019
111.493
112.707
113.424
42.7631
50.2985
56.3273
62.3131
67.5286
71.7836
75.2029
77.9734
80.2482
82.1603
83.8247
85.3114
86.6501
87.8814
89.0379
90.1505
91.2511
92.3688
93.5278
94.7447
96.0287
97.3826
98.8032
100.283
101.812
103.378
104.965
106.55
108.095
109.532
110.716
111.414
41.9777
49.2642
55.1052
60.951
66.0928
70.3164
73.7247
76.4962
78.7815
80.7094
82.3875
83.879
85.2137
86.4342
87.574
88.6671
89.746
90.8403
91.9735
93.1634
94.4194
95.7437
97.1331
98.5807
100.076
101.606
103.156
104.703
106.209
107.611
108.765
109.443
41.1636
48.215
53.8689
59.5711
64.6386
68.8338
72.2356
75.0144
77.3186
79.271
80.969
82.4704
83.8073
85.0191
86.1465
87.2226
88.2814
89.353
90.4631
91.6279
92.8568
94.1524
95.5114
96.9267
98.3875
99.882
101.396
102.905
104.375
105.741
106.864
107.524
40.3006
47.1294
52.5942
58.1494
63.1445
67.3209
70.7309
73.5328
75.8688
77.8528
79.5739
81.0875
82.4295
83.639
84.756
85.8173
86.8586
87.9109
88.998
90.1382
91.3415
92.6097
93.9394
95.3239
96.7525
98.213
99.6898
101.163
102.596
103.928
105.022
105.664
39.431
46.0378
51.307
56.7078
61.6292
65.791
69.2142
72.042
74.4122
76.4325
78.1832
79.7167
81.0715
82.285
83.3977
84.4492
85.4756
86.5092
87.5772
88.6961
89.8751
91.117
92.4186
93.7723
95.1683
96.5946
98.0374
99.4738
100.871
102.169
103.234
103.857
38.4992
44.8907
49.957
55.1954
60.0436
64.203
67.6603
70.5376
72.9606
75.0262
76.8099
78.3661
79.7356
80.9594
82.0725
83.1171
84.1322
85.1524
86.2013
87.2987
88.4551
89.6723
90.9469
92.272
93.6379
95.0316
96.4391
97.8415
99.2032
100.468
101.504
102.109
37.5667
43.7389
48.5925
53.658
58.4294
62.5913
66.0874
69.0117
71.4825
73.5959
75.422
77.0112
78.4071
79.6465
80.7709
81.8163
82.8256
83.8327
84.868
85.9488
87.0842
88.2779
89.5267
90.8231
92.1578
93.5184
94.8932
96.2587
97.5863
98.8181
99.8264
100.413
36.5392
42.4937
47.1199
51.9939
56.6797
60.8531
64.415
67.4255
69.9823
72.1644
74.0397
75.6677
77.0916
78.3554
79.4912
80.5438
81.5513
82.5542
83.5762
84.6393
85.7559
86.9277
88.1519
89.4215
90.7274
92.0571
93.397
94.7303
96.0228
97.223
98.2038
98.772
35.4983
41.2302
45.6219
50.293
54.8885
59.0811
62.7174
65.8069
68.4304
70.6774
72.6165
74.2955
75.7639
77.0571
78.2207
79.2872
80.3026
81.3026
82.3184
83.3716
84.4714
85.6228
86.8231
88.0654
89.3406
90.6378
91.9452
93.2412
94.4991
95.667
96.6195
97.1692
34.2886
39.8015
43.9353
48.3658
52.8382
57.0417
60.7799
64.0138
66.7884
69.1555
71.1756
72.92
74.4349
75.7726
76.9591
78.0461
79.071
80.078
81.089
82.1297
83.2152
84.3479
85.5254
86.742
87.9886
89.2546
90.5277
91.7921
93.0154
94.152
95.0776
95.608
33.0134
38.3223
42.1998
46.3846
50.7337
54.966
58.8305
62.2002
65.074
67.5326
69.6515
71.4744
73.0635
74.448
75.6863
76.804
77.8518
78.8644
79.8783
80.9177
81.9916
83.1071
84.263
85.453
86.6696
87.9023
89.1419
90.3671
91.5557
92.6601
93.5568
94.0685
31.4729
36.5707
40.1415
43.9991
48.1366
52.3395
56.3354
59.9433
63.1035
65.7963
68.0658
70.0085
71.6703
73.1302
74.4055
75.5606
76.6304
77.6647
78.6836
79.7154
80.78
81.8805
83.0158
84.1815
85.3698
86.5713
87.7769
88.9718
90.1253
91.1985
92.0681
92.5583
29.7698
34.6958
37.9902
41.5393
45.4826
49.6988
53.8914
57.735
61.0476
63.883
66.3188
68.3828
70.1772
71.7136
73.0777
74.2881
75.4038
76.4549
77.4875
78.5298
79.5894
80.6766
81.7926
82.9323
84.0901
85.2567
86.4271
87.579
88.6962
89.7366
90.5763
91.0472
27.5777
32.3196
35.2477
38.319
41.857
45.8999
50.2045
54.4456
58.3568
61.6779
64.4125
66.7249
68.6378
70.3012
71.7243
72.9954
74.1457
75.2389
76.2905
77.3305
78.3867
79.4635
80.5611
81.6775
82.8066
83.9409
85.0769
86.1994
87.2819
88.2888
89.1006
89.5472
24.9359
29.6169
32.2959
34.9963
38.208
42.2034
46.8131
51.4249
55.4972
59.0932
62.1846
64.7001
66.8745
68.6771
70.2525
71.6174
72.8544
73.9812
75.0604
76.1279
77.1881
78.256
79.3367
80.4266
81.5235
82.6198
83.7168
84.791
85.8297
86.8053
87.5831
88.0092
21.0805
25.7803
28.0523
30.025
32.3829
35.6769
40.123
45.5542
51.2291
55.8841
59.551
62.6363
65.0263
67.0595
68.7397
70.2091
71.4908
72.6867
73.8055
74.8762
75.9399
77.0031
78.0673
79.1342
80.2013
81.2622
82.3237
83.3674
84.3748
85.3099
86.0595
86.4562
15.729
20.8593
23.2809
24.8443
26.7197
30.2348
35.4372
40.8986
45.9155
51.4093
56.1864
59.6866
62.6803
65.0023
66.9618
68.5884
70.0372
71.2989
72.4655
73.5899
74.671
75.7304
76.7798
77.8186
78.8489
79.8655
80.8817
81.8687
82.8169
83.7234
84.4321
84.8051
5.37509
10.4231
11.2072
12.1279
10.4865
5.59245
11.4574
26.2859
39.0025
46.161
51.7341
56.7447
60.1396
62.9392
65.1135
66.9516
68.4556
69.8254
71.064
72.1977
73.2906
74.3523
75.3875
76.4014
77.399
78.3737
79.3522
80.3039
81.2279
82.0831
82.7611
83.0976
9.25329
5.99809
6.53661
15.0432
3.65426
6.78145
5.95314
3.98035
12.1578
34.0583
45.2659
51.2406
56.4416
59.9339
62.698
64.8129
66.6543
68.1588
69.4839
70.7172
71.8492
72.915
73.9353
74.9175
75.8694
76.7873
77.7074
78.5901
79.4279
80.2532
80.8816
81.1837
12.1511
16.5615
17.7721
17.6166
15.5269
14.9557
16.411
14.1359
7.72884
19.44
34.981
46.595
52.1788
56.8677
60.0952
62.7096
64.6317
66.3219
67.7749
69.0256
70.1827
71.2599
72.2702
73.2218
74.1331
74.9949
75.877
76.7138
77.5309
78.3
78.8847
79.1424
20.0404
24.5809
26.595
27.5688
27.3882
25.7736
23.4852
18.5021
14.4579
10.5915
7.49294
31.9723
45.1473
51.4073
56.2581
59.4192
62.0891
64.0666
65.6988
67.1452
68.3817
69.4772
70.4684
71.3791
72.2285
73.0074
73.8004
74.5401
75.2382
75.95
76.4806
76.6771
22.2489
27.2499
30.0003
32.0721
33.375
33.7647
32.9337
30.7566
26.1825
19.7911
23.6032
10.5224
33.3603
46.509
51.8045
56.3287
59.1098
61.4788
63.3532
64.8237
66.1142
67.2359
68.2252
69.094
69.8834
70.5712
71.3351
72.0265
72.6692
73.3547
73.8071
73.9391
22.866
27.9637
30.9106
33.2983
35.0894
36.2686
36.8005
36.5373
35.0403
31.1005
22.4175
19.4025
23.0635
29.2169
44.3537
50.0759
54.8905
57.9017
60.197
62.115
63.5703
64.7384
65.6957
66.4946
67.1878
67.7287
68.3298
68.8165
69.3338
69.8591
70.2443
70.2687
22.1671
27.4011
30.4956
33.0936
35.1564
36.6785
37.668
38.1249
37.9584
36.7344
33.1391
28.0357
29.0453
28.918
33.7043
45.5122
49.6909
53.7261
56.5138
58.3881
59.9675
61.1869
62.1528
62.8926
63.4879
63.8422
64.4455
65.0195
65.2486
65.8817
66.1681
66.0464
20.6564
26.0183
29.1933
31.9068
34.1334
35.8747
37.1563
38.0187
38.4879
38.4496
37.2341
32.758
26.5557
30.1724
19.0145
27.3464
41.0231
46.6928
50.7029
53.9044
55.8625
57.1724
58.065
58.6306
59.0236
59.0295
59.2932
59.1287
59.4504
59.6222
59.6716
59.4351
18.6901
24.1305
27.3217
30.0744
32.3827
34.2635
35.7464
36.8883
37.7625
38.4081
38.6629
37.6983
33.7812
28.4284
17.9633
19.68
28.6539
39.8701
44.7868
46.7229
48.9039
50.3405
51.1744
51.6869
52.0037
51.5055
51.8688
53.4625
51.761
52.4087
53.1962
52.5942
16.4714
21.8801
24.9887
27.6809
29.979
31.9229
33.5565
34.9352
36.1368
37.2295
38.201
38.8149
38.3464
34.8516
26.0926
29.082
27.571
16.2836
28.462
38.2756
42.2283
43.1753
43.983
44.0949
43.9458
42.2925
41.1098
38.0582
38.4004
39.3129
36.7596
35.936
14.2391
19.4846
22.4121
24.946
27.1413
29.0602
30.7624
32.3105
33.7763
35.2307
36.685
38.0195
38.8994
38.4877
35.3116
32.8178
17.0122
16.9295
25.177
18.7627
22.4859
26.5103
24.358
23.077
24.7258
20.4361
22.8248
32.2288
31.7789
14.7526
29.0712
36.3207
12.2806
17.245
19.9192
22.2254
24.2506
26.0745
27.7671
29.3935
31.0172
32.6986
34.4712
36.2782
37.9151
38.9518
38.7745
35.4001
29.1815
25.0444
31.7498
14.4084
15.8076
33.7281
30.8748
18.6196
24.0035
22.012
38.1619
36.857
45.3945
25.7845
34.3675
39.6311
10.7739
15.3906
17.7972
19.8606
21.6956
23.3936
25.0275
26.6567
28.3316
30.0964
31.989
34.0083
36.0613
37.8787
39.0133
38.4833
37.3019
31.0791
34.1478
19.499
27.4642
29.8533
20.1862
29.309
35.9154
36.3375
32.9386
25.6729
40.9992
36.7603
29.7732
29.7726
9.6746
14.0494
16.2316
18.0939
19.7719
21.3595
22.9224
24.5062
26.1455
27.8721
29.7219
31.728
33.8874
36.0858
38.0229
39.146
39.6492
37.803
33.9783
31.4504
30.5156
29.1318
29.8158
31.3023
31.4554
32.758
37.8811
36.3
39.5823
39.2385
38.9402
39.988
9.09835
13.2891
15.3169
17.052
18.6377
20.1584
21.663
23.1792
24.7273
26.3321
28.0287
29.8642
31.8826
34.0849
36.3551
38.3578
39.8579
40.086
39.0212
38.9294
36.5475
38.0288
39.0592
39.5365
38.1355
38.965
43.0771
42.6919
43.1537
42.9713
43.1398
44.1111
8.94337
13.0523
15.0151
16.7072
18.2697
19.7708
21.2404
22.6903
24.1314
25.5852
27.0858
28.6805
30.4256
32.3746
34.537
36.7915
38.8917
40.2453
40.7283
41.0333
40.0692
41.1266
41.6552
41.8114
41.1485
41.2793
43.4945
43.7444
43.1077
43.3285
43.5617
44.5966
9.13426
13.2386
15.2082
16.9247
18.5173
20.0361
21.4946
22.8951
24.2447
25.5627
26.8802
28.2383
29.6882
31.2917
33.1089
35.1504
37.318
39.2394
40.598
41.3954
41.2241
41.9239
42.2492
42.274
41.8837
41.7117
42.7563
43.0158
42.1043
42.5949
42.6953