/*--------------------------------*- C++ -*----------------------------------*\
  =========                 |
  \\      /  F ield         | OpenFOAM: The Open Source CFD Toolbox
   \\    /   O peration     | Website:  https://openfoam.org
    \\  /    A nd           | Version:  6
     \\/     M anipulation  |
\*---------------------------------------------------------------------------*/
FoamFile
{
    version     2.0;
    format      ascii;
    class       volScalarField;
    location    "17";
    object      omega;
}
// * * * * * * * * * * * * * * * * * * * * * * * * * * * * * * * * * * * * * //

dimensions      [0 0 -1 0 0 0 0];

internalField   nonuniform List<scalar> 
380496
(
843.917
843.917
843.917
843.917
843.917
843.917
843.917
843.917
843.917
843.917
843.917
843.917
843.917
843.917
843.917
843.917
843.917
843.917
843.917
843.917
843.917
843.917
843.917
843.917
843.917
843.917
843.917
843.917
843.917
843.917
843.917
843.917
843.917
843.917
843.917
843.917
843.917
843.917
843.917
843.917
843.917
843.917
843.917
843.917
843.917
843.917
843.917
843.917
843.917
843.917
843.917
843.917
843.917
843.917
843.917
843.917
843.917
843.917
843.917
843.917
843.917
843.917
843.917
843.917
843.917
843.917
843.917
843.917
843.917
843.917
843.917
843.917
843.917
843.917
843.917
843.917
843.917
843.917
843.917
843.917
843.917
843.917
843.917
843.917
843.917
843.917
843.917
843.917
843.917
843.917
843.917
843.917
843.917
843.917
843.917
843.917
843.917
843.917
843.917
843.917
843.917
843.917
843.917
843.917
843.917
843.917
843.917
843.917
843.917
843.917
843.917
843.917
843.917
843.917
843.917
843.917
843.917
843.917
843.917
843.917
843.917
843.917
843.917
843.917
843.917
843.917
843.917
843.917
843.917
843.917
843.917
843.917
843.917
843.917
843.917
843.917
843.917
843.917
843.917
843.917
843.917
843.917
843.917
843.917
843.917
843.917
843.917
843.917
843.917
843.917
843.917
843.917
843.917
843.917
843.917
843.917
843.917
843.917
843.917
843.917
843.917
843.917
843.917
843.917
843.917
843.917
843.917
843.917
843.917
843.917
843.917
843.917
843.917
843.917
843.917
843.917
843.917
843.917
843.917
843.917
843.917
843.917
843.917
843.917
843.917
843.917
843.917
843.917
843.917
843.917
843.917
843.917
843.917
843.917
843.917
843.917
843.917
843.917
843.917
843.917
843.917
843.917
843.917
843.917
843.917
843.917
843.917
843.917
843.917
843.917
843.917
843.917
843.917
843.917
843.917
843.917
843.917
843.917
843.917
843.917
843.917
843.917
843.917
843.917
843.917
843.917
843.917
843.917
843.917
843.917
843.917
843.917
843.917
843.917
843.917
843.917
843.917
843.917
843.917
843.917
843.917
843.917
843.917
843.917
843.917
843.917
843.917
843.917
843.917
843.917
843.917
843.917
843.917
843.917
843.917
843.917
843.917
843.917
843.917
843.917
843.917
843.917
843.917
843.917
843.917
843.917
843.917
843.917
843.917
843.917
843.917
843.917
843.917
843.917
843.917
843.917
843.917
843.917
843.917
843.917
843.917
843.917
843.917
843.917
843.917
843.917
843.917
843.917
843.917
843.917
843.917
843.917
843.917
843.917
843.917
843.917
843.917
843.917
843.917
843.917
843.917
843.917
843.917
843.917
843.917
843.917
843.917
843.917
843.917
843.917
843.917
843.917
843.917
843.917
843.917
843.917
843.917
843.917
843.917
843.917
843.917
843.917
843.917
843.917
843.917
843.917
843.917
843.917
843.917
843.917
843.917
843.917
843.917
843.917
843.917
843.917
843.917
843.917
843.917
843.917
843.917
843.917
843.917
843.917
843.917
843.917
843.917
843.917
843.917
843.917
843.917
843.917
843.917
843.917
843.917
843.917
843.917
843.917
843.917
843.917
843.917
843.917
843.917
843.917
843.917
843.917
843.917
843.917
843.917
843.917
843.917
843.917
843.917
843.917
843.917
843.917
843.917
843.917
843.917
843.917
843.917
843.917
843.917
843.917
843.917
843.917
843.917
843.917
843.917
843.917
843.917
843.917
843.917
843.917
843.917
843.917
843.917
843.917
843.917
843.917
843.917
843.917
843.917
843.917
843.917
843.917
843.917
843.917
843.917
843.917
843.917
843.917
843.917
843.917
843.917
843.917
843.917
843.917
843.917
843.917
843.917
843.917
843.917
843.917
843.917
843.917
843.917
843.917
843.917
843.917
843.917
843.917
843.917
843.917
843.917
843.917
843.917
843.917
843.917
843.917
843.917
843.917
843.917
843.917
843.917
843.917
843.917
843.917
843.917
843.917
843.917
843.917
843.917
843.917
843.917
843.917
843.917
843.917
843.917
843.917
843.917
843.917
843.917
843.917
843.917
843.917
843.917
843.917
843.917
843.917
843.917
843.917
843.917
843.917
843.917
843.917
843.917
843.917
843.917
843.917
843.917
843.917
843.917
843.917
843.917
843.917
843.917
843.917
843.917
843.917
843.917
843.917
843.917
843.917
843.917
843.917
843.917
843.917
843.917
843.917
843.917
843.917
843.917
843.917
843.917
843.917
843.917
843.917
843.917
843.917
843.917
843.917
843.917
843.917
843.917
843.917
843.917
843.917
843.917
843.917
843.917
843.917
843.917
843.917
843.917
843.917
843.917
843.917
843.917
843.917
843.917
843.917
843.917
843.917
843.917
843.917
843.917
843.917
843.917
843.917
843.917
843.917
843.917
843.917
843.917
843.917
843.917
843.917
843.917
843.917
843.917
843.917
843.917
843.917
843.917
843.917
843.917
843.917
843.917
843.917
843.917
843.917
843.917
843.917
843.917
843.917
843.917
843.917
843.917
843.917
843.917
843.917
843.917
843.917
843.917
843.917
843.917
843.917
843.917
843.917
843.917
843.917
843.917
843.917
843.917
843.917
843.917
843.917
843.917
843.917
843.917
843.917
843.917
843.917
843.917
843.917
843.917
843.917
843.917
843.917
843.917
843.917
843.917
843.917
843.917
843.917
843.917
843.917
843.917
843.917
843.917
843.917
843.917
843.917
843.917
843.917
843.917
843.917
843.917
843.917
843.917
843.917
843.917
843.917
843.917
843.917
843.917
843.917
843.917
843.917
843.917
843.917
843.917
843.917
843.917
843.917
843.917
843.917
843.917
843.917
843.917
843.917
843.917
843.917
843.917
843.917
843.917
843.917
843.917
843.917
843.917
843.917
843.917
843.917
843.917
843.917
843.917
843.917
843.917
843.917
843.917
843.917
843.917
843.917
843.917
843.917
843.917
843.917
843.917
843.917
843.917
843.917
843.917
843.917
843.917
843.917
843.917
843.917
843.917
843.917
843.917
843.917
843.917
843.917
843.917
843.917
843.917
843.917
843.917
843.917
843.917
843.917
843.917
843.917
843.917
843.917
843.917
843.917
843.917
843.917
423.923
423.923
423.923
423.923
423.923
424.288
424.268
424.281
424.272
424.295
424.32
424.34
424.363
424.382
424.405
424.425
424.45
424.471
424.498
424.521
424.551
424.576
424.608
424.636
424.672
424.701
424.742
424.772
424.818
424.846
424.9
424.92
424.988
424.989
425.071
275.638
262.144
263.673
264.573
264.559
264.418
264.334
264.29
264.266
264.255
264.248
264.251
264.252
264.261
264.266
264.28
264.289
264.307
264.319
264.342
264.359
264.387
264.41
264.444
264.474
264.516
264.554
264.605
264.651
264.713
264.765
264.839
264.894
264.989
265.022
275.379
261.96
263.393
264.253
264.226
264.084
263.997
263.955
263.93
263.923
263.918
263.925
263.928
263.943
263.952
263.972
263.985
264.011
264.028
264.059
264.082
264.12
264.148
264.195
264.23
264.286
264.328
264.394
264.444
264.519
264.576
264.662
264.713
264.831
264.79
274.938
261.625
263.023
263.851
263.812
263.668
263.58
263.542
263.52
263.52
263.519
263.534
263.543
263.566
263.583
263.612
263.634
263.669
263.697
263.739
263.774
263.824
263.867
263.926
263.977
264.046
264.106
264.186
264.254
264.346
264.419
264.526
264.589
264.739
264.709
274.255
261.102
262.54
263.341
263.28
263.131
263.045
263.012
262.997
263.004
263.012
263.034
263.054
263.085
263.111
263.15
263.182
263.227
263.266
263.32
263.365
263.429
263.481
263.557
263.617
263.705
263.772
263.873
263.949
264.062
264.143
264.27
264.341
264.511
264.482
273.787
260.732
262.024
262.77
262.702
262.553
262.469
262.438
262.427
262.438
262.451
262.48
262.505
262.543
262.577
262.623
262.664
262.718
262.768
262.832
262.889
262.964
263.031
263.117
263.193
263.293
263.378
263.492
263.584
263.713
263.809
263.956
264.038
264.238
264.207
272.915
260.038
261.328
262.034
261.947
261.796
261.717
261.695
261.693
261.715
261.739
261.779
261.814
261.864
261.906
261.966
262.016
262.085
262.143
262.223
262.289
262.381
262.457
262.562
262.649
262.766
262.864
262.993
263.101
263.244
263.357
263.517
263.615
263.834
263.807
272.061
259.34
260.531
261.181
261.08
260.93
260.857
260.842
260.85
260.881
260.914
260.962
261.007
261.066
261.12
261.189
261.25
261.329
261.4
261.491
261.572
261.675
261.767
261.884
261.986
262.118
262.231
262.376
262.498
262.659
262.785
262.966
263.073
263.318
263.289
271.026
258.479
259.567
260.157
260.044
259.896
259.832
259.828
259.847
259.889
259.933
259.992
260.047
260.117
260.18
260.26
260.332
260.423
260.505
260.609
260.702
260.819
260.924
261.055
261.171
261.318
261.445
261.606
261.741
261.918
262.058
262.256
262.373
262.642
262.61
269.807
257.456
258.457
258.985
258.857
258.716
258.666
258.677
258.712
258.768
258.825
258.897
258.964
259.045
259.121
259.212
259.296
259.399
259.493
259.609
259.715
259.846
259.963
260.109
260.239
260.4
260.54
260.716
260.866
261.058
261.21
261.425
261.552
261.843
261.808
268.657
256.454
257.277
257.74
257.61
257.478
257.442
257.466
257.513
257.579
257.647
257.727
257.804
257.893
257.978
258.079
258.173
258.286
258.391
258.518
258.636
258.778
258.908
259.066
259.208
259.382
259.535
259.725
259.886
260.092
260.255
260.485
260.621
260.931
260.893
267.087
255.101
255.846
256.251
256.111
255.995
255.985
256.033
256.102
256.187
256.273
256.369
256.46
256.563
256.661
256.774
256.881
257.006
257.124
257.263
257.393
257.548
257.691
257.862
258.017
258.205
258.37
258.574
258.747
258.967
259.142
259.386
259.531
259.86
259.818
265.666
253.803
254.279
254.616
254.485
254.389
254.4
254.465
254.549
254.645
254.742
254.847
254.949
255.06
255.169
255.291
255.409
255.544
255.673
255.824
255.966
256.133
256.288
256.473
256.64
256.841
257.019
257.237
257.422
257.656
257.842
258.101
258.254
258.602
258.554
263.602
251.962
252.321
252.61
252.487
252.426
252.479
252.58
252.695
252.817
252.936
253.059
253.179
253.306
253.429
253.565
253.697
253.846
253.989
254.153
254.309
254.489
254.658
254.856
255.038
255.253
255.444
255.676
255.874
256.122
256.32
256.594
256.756
257.123
257.068
261.657
250.111
250.128
250.362
250.265
250.245
250.335
250.462
250.599
250.738
250.874
251.01
251.143
251.282
251.419
251.566
251.711
251.871
252.028
252.204
252.374
252.567
252.75
252.962
253.156
253.386
253.591
253.836
254.048
254.311
254.52
254.809
254.98
255.367
255.304
258.961
247.586
247.37
247.584
247.529
247.576
247.73
247.906
248.083
248.253
248.415
248.572
248.725
248.879
249.033
249.194
249.354
249.527
249.698
249.887
250.071
250.277
250.474
250.699
250.908
251.151
251.37
251.63
251.855
252.133
252.355
252.66
252.841
253.25
253.176
255.939
244.637
244.052
244.272
244.29
244.421
244.641
244.868
245.083
245.283
245.469
245.645
245.815
245.982
246.149
246.319
246.491
246.673
246.856
247.054
247.25
247.467
247.678
247.914
248.138
248.395
248.629
248.904
249.144
249.438
249.675
249.997
250.191
250.621
250.542
252.317
240.988
239.927
240.186
240.311
240.557
240.862
241.145
241.394
241.616
241.812
241.995
242.167
242.336
242.503
242.675
242.851
243.037
243.227
243.433
243.641
243.869
244.096
244.347
244.591
244.864
245.12
245.415
245.678
245.993
246.253
246.596
246.815
247.269
247.204
246.448
235.384
234.178
234.679
234.989
235.387
235.784
236.121
236.391
236.625
236.818
237.001
237.168
237.342
237.512
237.697
237.885
238.092
238.304
238.536
238.774
239.032
239.293
239.578
239.858
240.167
240.461
240.791
241.093
241.442
241.742
242.116
242.377
242.85
242.835
238.155
227.579
225.862
226.733
227.334
227.911
228.379
228.738
229.006
229.248
229.451
229.666
229.864
230.088
230.302
230.548
230.787
231.058
231.324
231.62
231.913
232.234
232.552
232.896
233.236
233.601
233.956
234.338
234.702
235.1
235.462
235.88
236.211
236.712
236.831
218.095
211.367
210.037
211.657
212.786
213.68
214.36
214.896
215.336
215.74
216.089
216.437
216.749
217.08
217.383
217.718
218.03
218.385
218.72
219.101
219.461
219.866
220.253
220.683
221.098
221.546
221.982
222.443
222.893
223.359
223.813
224.275
224.71
225.111
225.363
9.50424
8.83564
9.16122
9.29921
9.3767
9.42566
9.47156
9.50697
9.53632
9.57147
9.61537
9.64908
9.69234
9.72543
9.7706
9.80544
9.85419
9.89195
9.94503
9.98606
10.0438
10.088
10.151
10.1978
10.267
10.3146
10.3917
10.4367
10.5248
10.5612
10.6661
10.6833
10.8143
10.7919
10.9537
133.591
127.215
127.094
127.665
127.852
127.834
127.782
127.738
127.708
127.688
127.675
127.669
127.666
127.667
127.67
127.675
127.683
127.692
127.704
127.717
127.732
127.75
127.771
127.793
127.819
127.847
127.882
127.917
127.96
128.003
128.058
128.111
128.177
128.247
128.327
133.311
126.951
126.79
127.334
127.509
127.487
127.433
127.389
127.358
127.339
127.328
127.324
127.323
127.327
127.333
127.343
127.354
127.368
127.384
127.402
127.422
127.445
127.472
127.499
127.533
127.566
127.608
127.648
127.699
127.746
127.809
127.864
127.932
128.013
128.045
132.938
126.595
126.417
126.943
127.109
127.085
127.029
126.985
126.956
126.941
126.933
126.933
126.936
126.945
126.957
126.972
126.989
127.009
127.031
127.056
127.085
127.115
127.15
127.186
127.228
127.271
127.322
127.372
127.434
127.491
127.565
127.63
127.712
127.801
127.855
132.435
126.122
125.96
126.48
126.635
126.605
126.547
126.506
126.479
126.468
126.465
126.47
126.48
126.494
126.511
126.533
126.556
126.583
126.612
126.644
126.679
126.717
126.76
126.803
126.854
126.905
126.964
127.022
127.092
127.156
127.238
127.311
127.395
127.497
127.543
132.014
125.739
125.522
126
126.14
126.104
126.044
126.002
125.977
125.967
125.966
125.975
125.987
126.006
126.027
126.053
126.081
126.113
126.147
126.185
126.227
126.271
126.32
126.372
126.429
126.488
126.555
126.62
126.699
126.771
126.86
126.941
127.034
127.143
127.199
131.387
125.155
124.944
125.405
125.53
125.487
125.426
125.386
125.366
125.362
125.367
125.382
125.4
125.426
125.453
125.485
125.52
125.559
125.6
125.645
125.693
125.745
125.802
125.861
125.926
125.992
126.066
126.14
126.225
126.306
126.4
126.49
126.585
126.705
126.759
130.745
124.568
124.324
124.747
124.852
124.801
124.739
124.701
124.684
124.685
124.695
124.715
124.739
124.769
124.802
124.841
124.881
124.926
124.973
125.025
125.08
125.139
125.202
125.268
125.34
125.414
125.496
125.577
125.669
125.757
125.859
125.956
126.056
126.184
126.241
129.997
123.88
123.603
123.985
124.068
124.01
123.947
123.913
123.9
123.907
123.923
123.949
123.979
124.015
124.054
124.098
124.144
124.196
124.249
124.307
124.369
124.435
124.505
124.578
124.657
124.738
124.827
124.915
125.014
125.109
125.216
125.321
125.424
125.561
125.616
129.152
123.104
122.799
123.139
123.199
123.132
123.07
123.041
123.036
123.051
123.074
123.108
123.145
123.189
123.234
123.285
123.337
123.395
123.455
123.52
123.588
123.661
123.737
123.818
123.904
123.992
124.087
124.182
124.288
124.389
124.503
124.614
124.721
124.867
124.922
128.333
122.355
121.978
122.26
122.296
122.222
122.163
122.139
122.141
122.161
122.191
122.23
122.273
122.322
122.373
122.429
122.487
122.55
122.615
122.686
122.76
122.838
122.921
123.008
123.1
123.194
123.295
123.397
123.508
123.616
123.734
123.852
123.962
124.116
124.169
127.304
121.401
120.996
121.234
121.245
121.165
121.112
121.098
121.111
121.143
121.184
121.232
121.284
121.341
121.399
121.463
121.527
121.598
121.67
121.747
121.828
121.913
122.002
122.095
122.194
122.295
122.403
122.511
122.628
122.742
122.866
122.991
123.104
123.267
123.317
126.312
120.489
119.958
120.117
120.1
120.017
119.971
119.966
119.988
120.028
120.076
120.131
120.189
120.252
120.316
120.386
120.456
120.532
120.61
120.694
120.78
120.872
120.967
121.067
121.172
121.28
121.394
121.508
121.632
121.752
121.881
122.013
122.129
122.301
122.349
125.004
119.264
118.671
118.778
118.737
118.654
118.621
118.634
118.674
118.729
118.792
118.859
118.928
119.001
119.074
119.152
119.23
119.314
119.4
119.491
119.584
119.684
119.786
119.893
120.005
120.12
120.241
120.362
120.492
120.62
120.755
120.893
121.014
121.195
121.239
123.705
118.045
117.265
117.276
117.207
117.129
117.114
117.143
117.198
117.266
117.34
117.418
117.496
117.576
117.658
117.743
117.829
117.92
118.012
118.11
118.211
118.317
118.427
118.541
118.66
118.782
118.91
119.038
119.175
119.309
119.451
119.596
119.721
119.912
119.951
122.019
116.445
115.512
115.453
115.364
115.301
115.313
115.371
115.45
115.539
115.631
115.723
115.814
115.906
115.997
116.091
116.186
116.285
116.385
116.491
116.599
116.712
116.829
116.951
117.077
117.206
117.342
117.478
117.621
117.763
117.912
118.065
118.194
118.397
118.431
120.107
114.604
113.423
113.275
113.175
113.137
113.184
113.274
113.38
113.491
113.601
113.707
113.811
113.912
114.013
114.114
114.216
114.321
114.428
114.54
114.655
114.775
114.898
115.027
115.16
115.297
115.44
115.584
115.735
115.885
116.041
116.203
116.338
116.553
116.582
117.825
112.372
110.841
110.583
110.476
110.478
110.574
110.704
110.84
110.973
111.097
111.214
111.324
111.431
111.536
111.641
111.747
111.856
111.968
112.084
112.204
112.33
112.461
112.598
112.739
112.885
113.037
113.192
113.353
113.514
113.682
113.855
114.003
114.233
114.269
114.184
108.832
107.096
106.874
106.837
106.924
107.089
107.27
107.438
107.594
107.729
107.854
107.968
108.079
108.186
108.296
108.407
108.525
108.646
108.774
108.907
109.049
109.195
109.349
109.508
109.673
109.844
110.018
110.199
110.38
110.567
110.758
110.929
111.172
111.224
108.727
103.939
101.682
101.432
101.489
101.683
101.915
102.133
102.312
102.478
102.619
102.763
102.894
103.035
103.171
103.319
103.464
103.622
103.78
103.949
104.119
104.3
104.484
104.676
104.871
105.072
105.278
105.488
105.703
105.917
106.138
106.36
106.569
106.84
106.96
94.0524
94.1823
91.37
90.7408
90.7687
91.0938
91.5101
91.9157
92.2899
92.6443
92.9656
93.2728
93.551
93.8224
94.0711
94.3205
94.5547
94.7958
95.0264
95.2634
95.4908
95.727
95.959
96.2011
96.4413
96.6899
96.9378
97.1911
97.4456
97.6993
97.9616
98.2008
98.4845
98.6444
98.9461
11.5219
10.7696
11.096
11.221
11.3001
11.3517
11.4004
11.4366
11.4738
11.5059
11.5484
11.5797
11.6228
11.6543
11.7002
11.734
11.784
11.821
11.8757
11.916
11.9756
12.0191
12.084
12.1299
12.2011
12.2472
12.3264
12.3691
12.4596
12.4925
12.6
12.6128
12.7462
12.7198
12.8834
79.3735
76.7492
76.2134
76.3798
76.5396
76.5868
76.5787
76.5549
76.5315
76.512
76.4978
76.4869
76.4805
76.4756
76.4746
76.4736
76.4767
76.4785
76.4847
76.4889
76.498
76.5046
76.5164
76.5257
76.5408
76.5526
76.5721
76.5862
76.6117
76.6283
76.6608
76.6822
76.7213
76.7514
76.8017
79.1304
76.5263
75.9807
76.1315
76.2815
76.3232
76.3122
76.2864
76.2623
76.2425
76.2291
76.2189
76.2141
76.2105
76.2117
76.2126
76.2183
76.2223
76.2318
76.2382
76.2514
76.2599
76.2772
76.2876
76.3096
76.3219
76.3493
76.3638
76.3974
76.4142
76.4547
76.4753
76.5186
76.5508
76.5875
78.843
76.2491
75.6996
75.841
75.9839
76.0211
76.0075
75.9805
75.9563
75.9371
75.925
75.9164
75.9139
75.9127
75.9167
75.9205
75.9295
75.9369
75.9501
75.9605
75.9776
75.9908
76.0122
76.028
76.0542
76.0725
76.1048
76.1247
76.1653
76.1856
76.2366
76.2577
76.3163
76.347
76.403
78.4941
75.9018
75.3598
75.5004
75.6382
75.6707
75.654
75.6257
75.6017
75.5838
75.5737
75.5678
75.5681
75.5702
75.5776
75.585
75.5977
75.6089
75.6264
75.6405
75.6627
75.6792
75.7068
75.7253
75.7589
75.7792
75.8197
75.8417
75.8897
75.9138
75.969
75.9978
76.0538
76.0972
76.1433
78.1501
75.5902
75.0361
75.1538
75.276
75.3
75.2786
75.2481
75.2231
75.2054
75.196
75.1915
75.1934
75.1975
75.207
75.217
75.2321
75.2465
75.2665
75.2844
75.3094
75.3303
75.3607
75.3843
75.4209
75.4465
75.4906
75.5175
75.5705
75.5979
75.6605
75.6899
75.7569
75.7974
75.8589
77.7112
75.162
74.6156
74.7272
74.8399
74.8565
74.8309
74.7989
74.7744
74.7583
74.7516
74.75
74.7554
74.7628
74.7764
74.7895
74.8092
74.8266
74.8517
74.8726
74.9029
74.927
74.9629
74.9899
75.0318
75.0616
75.1103
75.1424
75.1987
75.2326
75.2969
75.3337
75.401
75.4481
75.5106
77.2391
74.7181
74.1676
74.2598
74.3559
74.3621
74.331
74.297
74.2725
74.2579
74.2532
74.2543
74.2625
74.2731
74.2896
74.3063
74.3291
74.3503
74.3785
74.4035
74.4371
74.4655
74.505
74.5365
74.5824
74.6164
74.6696
74.7055
74.767
74.804
74.8739
74.9133
74.9862
75.0359
75.1032
76.6973
74.2067
73.6529
73.7238
73.8012
73.7957
73.7589
73.723
73.6991
73.6865
73.6845
73.6888
73.7003
73.7143
73.7343
73.7546
73.781
73.8058
73.8378
73.8665
73.9042
73.9364
73.9801
74.0155
74.0657
74.1038
74.1614
74.2013
74.2672
74.3081
74.3822
74.4254
74.5017
74.5548
74.6252
76.0999
73.6405
73.0851
73.1342
73.1911
73.1723
73.1295
73.0926
73.0702
73.0607
73.0624
73.0708
73.0863
73.1045
73.1285
73.1528
73.183
73.2117
73.2476
73.2802
73.3219
73.3581
73.4058
73.4452
73.4997
73.5417
73.6037
73.6475
73.7178
73.7623
73.8407
73.8874
73.9673
74.0241
74.0972
75.4988
73.0835
72.509
72.5232
72.5547
72.5223
72.4742
72.4367
72.416
72.4094
72.4144
72.4264
72.4454
72.4671
72.4944
72.5221
72.5556
72.5878
72.6271
72.6632
72.7083
72.7481
72.7995
72.8425
72.9009
72.9464
73.0124
73.0596
73.134
73.1818
73.264
73.3139
73.397
73.4571
73.5323
74.7877
72.4069
71.8275
71.8171
71.8252
71.7785
71.7255
71.6888
71.6717
71.6701
71.6805
71.6979
71.722
71.7487
71.7807
71.813
71.8508
71.8872
71.9306
71.9709
72.02
72.0638
72.1194
72.1664
72.2289
72.2784
72.3486
72.3995
72.4782
72.5295
72.6158
72.6692
72.7555
72.8196
72.8965
74.0535
71.7341
71.1101
71.0453
71.0185
70.9556
70.8985
70.8634
70.8503
70.8536
70.8688
70.891
70.9196
70.9507
70.9867
71.023
71.0646
71.105
71.1521
71.1962
71.2492
71.2969
71.3564
71.4073
71.4739
71.5272
71.6017
71.6564
71.7393
71.7942
71.8846
71.9416
72.0311
72.0993
72.1774
73.1494
70.8786
70.2307
70.1295
70.0732
69.9955
69.936
69.9051
69.8988
69.91
69.9329
69.9625
69.9977
70.0351
70.0768
70.1187
70.1654
70.2109
70.2627
70.3117
70.3693
70.4216
70.4857
70.541
70.6123
70.6699
70.7491
70.8078
70.8955
70.9542
71.0493
71.1102
71.2032
71.2763
71.3555
72.1923
69.9974
69.2694
69.0937
68.9939
68.8996
68.8397
68.8149
68.8168
68.8364
68.8673
68.9042
68.946
68.9896
69.0368
69.0841
69.1356
69.186
69.2424
69.296
69.3581
69.4149
69.4835
69.5432
69.6191
69.681
69.765
69.8278
69.9205
69.983
70.0831
70.1478
70.2447
70.323
70.4025
71.0025
68.881
68.0803
67.8421
67.7033
67.5955
67.539
67.5244
67.5384
67.5699
67.6114
67.6579
67.7079
67.7592
67.8129
67.8666
67.9236
67.9797
68.0411
68.0999
68.1666
68.2284
68.3018
68.3663
68.4472
68.5136
68.6029
68.6699
68.7682
68.8347
68.9405
69.0093
69.1111
69.1954
69.2767
69.6099
67.5791
66.6556
66.3306
66.147
66.0288
65.9802
65.9793
66.0079
66.0528
66.1059
66.1624
66.2209
66.2796
66.3395
66.3991
66.4611
66.5222
66.5879
66.6517
66.7227
66.7894
66.8672
66.9367
67.0223
67.0936
67.1882
67.26
67.3643
67.4353
67.5477
67.6208
67.7289
67.8186
67.9023
67.9186
65.9889
64.882
64.4394
64.1988
64.0705
64.034
64.0507
64.096
64.1548
64.219
64.2843
64.3495
64.4139
64.4786
64.5429
64.6088
64.6745
64.7439
64.8124
64.8875
64.9596
65.042
65.1176
65.2086
65.2867
65.3877
65.4664
65.5782
65.6559
65.7772
65.8565
65.9752
66.0725
66.1675
65.3965
63.5125
62.2588
61.7692
61.5195
61.409
61.3991
61.4407
61.506
61.5803
61.6561
61.7298
61.8017
61.8715
61.9413
62.0107
62.0824
62.1549
62.2315
62.309
62.3927
62.4758
62.5681
62.6562
62.7582
62.8498
62.9625
63.0552
63.1796
63.2707
63.4061
63.4968
63.6321
63.7371
63.8489
61.5623
60.0531
58.4392
57.7748
57.4766
57.38
57.4012
57.4698
57.5578
57.6508
57.7466
57.8407
57.9371
58.0317
58.1303
58.2277
58.3301
58.4316
58.5387
58.645
58.7575
58.8689
58.9874
59.1034
59.2289
59.3482
59.4816
59.6016
59.7447
59.8621
60.0158
60.1299
60.2887
60.4119
60.5663
52.9315
55.1642
53.2042
51.9869
51.3896
51.1882
51.2128
51.3256
51.4868
51.6574
51.8417
52.0156
52.1953
52.3584
52.5276
52.6788
52.8393
52.9824
53.1367
53.273
53.4208
53.5529
53.6977
53.8309
53.9755
54.1121
54.2578
54.397
54.546
54.6826
54.8434
54.959
55.1573
55.2023
55.4681
13.0788
12.358
12.7412
12.8832
12.967
13.0168
13.0622
13.0938
13.1305
13.1573
13.1965
13.2233
13.2648
13.2931
13.3385
13.3699
13.4203
13.4554
13.5111
13.5499
13.611
13.6532
13.72
13.7645
13.8379
13.8826
13.9641
14.0051
14.0982
14.1291
14.2392
14.25
14.3853
14.3592
14.5224
52.7832
51.7579
51.3203
51.2782
51.3466
51.3941
51.408
51.402
51.3893
51.3747
51.3627
51.3511
51.3438
51.3359
51.3329
51.3278
51.3282
51.3252
51.3282
51.3269
51.3317
51.3322
51.3385
51.3403
51.3486
51.3508
51.3623
51.3641
51.3796
51.3812
51.4005
51.4041
51.4258
51.4346
51.4593
52.5868
51.5748
51.1396
51.0913
51.1538
51.196
51.2072
51.1983
51.1849
51.1689
51.1573
51.1452
51.1391
51.1314
51.1299
51.1255
51.1279
51.1256
51.1312
51.1303
51.1389
51.1388
51.1505
51.1506
51.1658
51.1657
51.1847
51.1844
51.2074
51.207
51.2344
51.2339
51.2649
51.2639
51.3028
52.3671
51.3604
50.9262
50.8741
50.9322
50.9705
50.9789
50.9678
50.9534
50.9364
50.925
50.913
50.9078
50.9008
50.9007
50.8975
50.9015
50.9009
50.9083
50.9095
50.9199
50.9224
50.9359
50.9392
50.9563
50.9594
50.9813
50.983
51.0115
51.0102
51.0471
51.0428
51.0866
51.0824
51.1327
52.1144
51.1047
50.6739
50.6226
50.6789
50.714
50.7196
50.7063
50.6906
50.6735
50.6621
50.6512
50.6468
50.6416
50.643
50.6418
50.6479
50.6491
50.6594
50.662
50.6764
50.6796
50.6983
50.7014
50.7249
50.7273
50.7561
50.7577
50.7916
50.7931
50.831
50.8347
50.8732
50.8815
50.9218
51.844
50.8526
50.4247
50.3646
50.4107
50.4379
50.4382
50.4216
50.4038
50.3856
50.374
50.3632
50.3594
50.3551
50.3574
50.3576
50.3648
50.368
50.3792
50.3845
50.3996
50.4061
50.4255
50.4321
50.4567
50.4624
50.4932
50.4971
50.535
50.5366
50.5817
50.5822
50.6316
50.6341
50.6874
51.5236
50.5345
50.1128
50.0522
50.0935
50.1153
50.1109
50.0912
50.0719
50.053
50.042
50.0316
50.0298
50.0262
50.0314
50.0323
50.043
50.0468
50.062
50.0678
50.0873
50.0943
50.118
50.1259
50.1541
50.1623
50.1955
50.2034
50.2424
50.2492
50.2944
50.3004
50.3502
50.356
50.4129
51.1696
50.1936
49.7765
49.7091
49.7402
49.753
49.7423
49.7188
49.6974
49.6779
49.6668
49.6576
49.6566
49.6548
49.6612
49.6644
49.6763
49.6826
49.6992
49.7077
49.7287
49.7385
49.764
49.7745
49.8051
49.8155
49.8519
49.8612
49.9043
49.9119
49.9619
49.9683
50.0228
50.0297
50.0897
50.7657
49.8042
49.3929
49.318
49.3373
49.3398
49.3217
49.294
49.2704
49.2504
49.2398
49.2315
49.2321
49.232
49.2404
49.2454
49.2595
49.2678
49.2869
49.2973
49.3209
49.3327
49.3611
49.3737
49.4073
49.4197
49.4593
49.4707
49.5172
49.5267
49.5801
49.5882
49.6461
49.654
49.7181
50.3251
49.3784
48.9731
48.8904
48.8966
48.8874
48.8612
48.829
48.8034
48.7832
48.7734
48.7667
48.7691
48.7711
48.7816
48.7888
48.8052
48.8158
48.8371
48.8498
48.8759
48.8899
48.9209
48.9357
48.9721
48.9867
49.0293
49.0428
49.0924
49.1038
49.1606
49.1704
49.2316
49.241
49.3084
49.8716
48.9497
48.5449
48.4466
48.4346
48.4115
48.3768
48.3406
48.3134
48.2935
48.2847
48.2798
48.2839
48.2881
48.3006
48.31
48.3285
48.3412
48.3647
48.3795
48.4079
48.4241
48.4575
48.4744
48.5134
48.53
48.5755
48.5908
48.6435
48.6566
48.7166
48.7279
48.7922
48.8029
48.8731
49.3498
48.4479
48.0479
47.9395
47.9116
47.8746
47.8309
47.7902
47.7615
47.7422
47.7349
47.7322
47.7388
47.7456
47.7606
47.7727
47.7937
47.8089
47.8349
47.8523
47.8832
47.9018
47.9379
47.9571
47.999
48.0178
48.0663
48.0837
48.1396
48.1546
48.2177
48.2309
48.2982
48.3107
48.3836
48.7893
47.9266
47.5169
47.3802
47.3246
47.2688
47.2153
47.171
47.1419
47.1242
47.1192
47.1195
47.1288
47.1386
47.1563
47.1712
47.1948
47.2128
47.2413
47.2612
47.2947
47.3158
47.3546
47.3762
47.4209
47.442
47.4936
47.5131
47.5722
47.5892
47.6557
47.6708
47.741
47.7555
47.8308
48.1201
47.293
46.8805
46.7253
46.6467
46.5732
46.5096
46.4614
46.4318
46.4162
46.4138
46.4176
46.4302
46.4436
46.4646
46.4829
46.5096
46.5308
46.5623
46.5852
46.6217
46.6457
46.6876
46.7118
46.7598
46.7835
46.8385
46.8603
46.9231
46.9421
47.0123
47.0295
47.103
47.1199
47.1978
47.384
46.6132
46.1743
45.9756
45.8588
45.7621
45.6882
45.638
45.6101
45.5984
45.6003
45.6089
45.6256
45.6434
45.668
45.6902
45.7201
45.7447
45.7793
45.8053
45.8448
45.8716
45.9166
45.9435
45.9949
46.021
46.0796
46.1036
46.1704
46.1914
46.2657
46.2848
46.362
46.3812
46.4618
46.4841
45.7767
45.3134
45.0764
44.9236
44.8041
44.72
44.6679
44.642
44.6347
44.6411
44.6548
44.6757
44.6982
44.7263
44.7527
44.7857
44.8141
44.8516
44.8811
44.9235
44.9536
45.0018
45.0317
45.0866
45.1153
45.178
45.2043
45.2756
45.2986
45.3778
45.3988
45.4808
45.5026
45.5874
45.4148
44.7866
44.275
43.9805
43.7816
43.6367
43.5436
43.4914
43.4691
43.4672
43.4786
43.4977
43.5227
43.5499
43.5812
43.6116
43.6472
43.6794
43.7192
43.7525
43.7974
43.8312
43.8822
43.9157
43.974
44.0061
44.0729
44.1022
44.1784
44.2039
44.2887
44.3119
44.3997
44.4237
44.5138
44.1
43.5679
42.9759
42.5983
42.3372
42.1594
42.0547
42.0009
41.9816
41.9839
41.9997
42.0232
42.0519
42.0831
42.1175
42.1522
42.1905
42.2273
42.2699
42.3082
42.3558
42.3951
42.4491
42.4884
42.5503
42.5881
42.6593
42.6941
42.7758
42.806
42.8979
42.9249
43.0215
43.0492
43.1505
42.3715
41.8215
41.1163
40.6655
40.3556
40.1517
40.039
39.9835
39.9685
39.9748
39.9974
40.0259
40.0613
40.0978
40.1386
40.1791
40.2237
40.2675
40.3162
40.3628
40.4167
40.4656
40.5259
40.5758
40.644
40.6933
40.771
40.8171
40.9061
40.9469
41.0474
41.0829
41.1908
41.2236
41.3387
39.7933
39.442
38.4703
37.8254
37.4173
37.1809
37.0766
37.0385
37.051
37.0791
37.1296
37.1784
37.2413
37.2974
37.3649
37.4246
37.4946
37.557
37.6288
37.6938
37.7674
37.8347
37.9108
37.9799
38.0598
38.1291
38.2147
38.2818
38.3757
38.4376
38.5421
38.5968
38.7118
38.7611
38.8918
35.627
38.2627
37.0517
35.8411
35.0303
34.5622
34.3387
34.2392
34.2289
34.2503
34.3131
34.375
34.4633
34.5374
34.6337
34.7094
34.8065
34.8804
34.9754
35.0465
35.1374
35.2065
35.2934
35.3632
35.4471
35.5194
35.6017
35.6759
35.7596
35.8307
35.9248
35.9787
36.1028
36.1141
36.2852
14.3882
13.784
14.2555
14.4353
14.5281
14.5733
14.6111
14.6326
14.6629
14.6809
14.7142
14.734
14.7716
14.7945
14.8379
14.8649
14.9145
14.946
15.0017
15.0374
15.0991
15.1386
15.2065
15.2486
15.3234
15.3657
15.4489
15.4877
15.5824
15.6114
15.7229
15.733
15.8678
15.845
16.0039
37.6296
37.2292
36.9731
36.8768
36.8771
36.8994
36.9145
36.9169
36.9128
36.9037
36.8956
36.8853
36.879
36.8702
36.8668
36.8597
36.8588
36.8532
36.8542
36.85
36.8523
36.8493
36.8527
36.8502
36.8553
36.852
36.8598
36.8549