/*--------------------------------*- C++ -*----------------------------------*\
  =========                 |
  \\      /  F ield         | OpenFOAM: The Open Source CFD Toolbox
   \\    /   O peration     | Website:  https://openfoam.org
    \\  /    A nd           | Version:  6
     \\/     M anipulation  |
\*---------------------------------------------------------------------------*/
FoamFile
{
    version     2.0;
    format      ascii;
    class       volScalarField;
    location    "0.6";
    object      p;
}
// * * * * * * * * * * * * * * * * * * * * * * * * * * * * * * * * * * * * * //

dimensions      [0 2 -2 0 0 0 0];

internalField   nonuniform List<scalar> 
380496
(
0.0130333
0.0135377
0.0131595
0.0130831
0.0130001
0.0129159
0.0128318
0.0127385
0.0126378
0.0125325
0.0124257
0.0123192
0.0122127
0.0121061
0.0119994
0.0118934
0.0117886
0.0116848
0.0115817
0.0114791
0.0113764
0.0112732
0.011169
0.0110631
0.010955
0.0108442
0.0107301
0.010612
0.0104897
0.010362
0.0102301
0.0100902
0.00994923
0.00979155
0.00965076
0.0130028
0.0135059
0.0131446
0.0130752
0.0129974
0.0129161
0.0128328
0.0127387
0.0126362
0.0125283
0.0124184
0.0123082
0.0121983
0.0120883
0.0119783
0.0118686
0.0117594
0.0116508
0.0115425
0.0114342
0.0113257
0.0112164
0.011106
0.0109939
0.0108796
0.0107626
0.0106426
0.0105187
0.0103914
0.0102583
0.0101237
0.00997848
0.00984327
0.00967593
0.00958514
0.0129632
0.0134576
0.0131113
0.0130535
0.0129865
0.0129124
0.0128323
0.0127384
0.0126341
0.0125232
0.0124099
0.0122958
0.0121811
0.0120658
0.0119501
0.0118345
0.0117193
0.0116046
0.0114901
0.0113754
0.0112602
0.0111439
0.0110263
0.0109068
0.010785
0.0106603
0.0105326
0.0104011
0.0102665
0.0101262
0.00998478
0.00983189
0.00968795
0.0095072
0.00938222
0.01292
0.0134239
0.0130982
0.01305
0.0129885
0.0129166
0.0128361
0.0127404
0.0126332
0.0125188
0.0124016
0.0122839
0.0121658
0.0120473
0.0119282
0.011809
0.0116898
0.0115707
0.0114513
0.0113314
0.0112108
0.011089
0.0109659
0.0108408
0.0107135
0.0105836
0.0104508
0.0103145
0.0101751
0.0100306
0.00988462
0.00972774
0.00957747
0.00939571
0.00924977
0.0128679
0.0133651
0.0130594
0.0130265
0.0129794
0.0129169
0.0128404
0.0127447
0.0126353
0.012518
0.0123974
0.0122755
0.0121528
0.0120293
0.0119051
0.0117806
0.011656
0.0115314
0.0114066
0.0112815
0.0111557
0.0110287
0.0109001
0.0107695
0.0106367
0.0105014
0.0103634
0.0102222
0.0100788
0.00993082
0.009784
0.00962659
0.00948744
0.00930766
0.009221
0.0128141
0.0133269
0.0130508
0.0130325
0.012993
0.0129319
0.0128527
0.0127527
0.0126386
0.0125161
0.0123907
0.0122647
0.0121386
0.0120119
0.0118845
0.0117567
0.0116286
0.0115001
0.011371
0.0112411
0.0111102
0.0109781
0.0108444
0.0107089
0.0105714
0.0104316
0.0102893
0.010144
0.00999661
0.00984412
0.00969236
0.00952773
0.0093758
0.00918046
0.00905152
0.0127344
0.0132559
0.0130083
0.0130113
0.0129887
0.0129367
0.0128605
0.0127598
0.0126432
0.0125178
0.0123893
0.0122595
0.0121288
0.0119971
0.0118649
0.0117324
0.0115997
0.0114668
0.0113335
0.0111996
0.0110649
0.0109289
0.0107914
0.010652
0.0105106
0.0103671
0.0102214
0.0100732
0.00992373
0.00977011
0.00961998
0.00945868
0.00931948
0.00913712
0.00905311
0.012664
0.0132182
0.0130083
0.0130301
0.0130161
0.012963
0.0128811
0.0127735
0.01265
0.0125185
0.0123845
0.0122503
0.0121163
0.0119821
0.0118475
0.0117125
0.011577
0.0114408
0.0113037
0.0111656
0.0110264
0.010886
0.0107442
0.0106008
0.0104556
0.0103085
0.0101595
0.0100081
0.00985546
0.00969841
0.00954315
0.00937566
0.00922279
0.00902536
0.0088992
0.0125518
0.0131422
0.0129676
0.013017
0.0130215
0.0129752
0.0128937
0.0127834
0.0126565
0.012522
0.0123854
0.0122479
0.0121097
0.0119708
0.0118317
0.0116927
0.0115535
0.0114141
0.0112741
0.0111334
0.0109918
0.0108489
0.0107045
0.0105585
0.0104109
0.0102614
0.0101103
0.00995728
0.00980359
0.0096465
0.00949334
0.00932991
0.009189
0.00900511
0.00892181
0.0124631
0.0131157
0.0129777
0.013047
0.0130581
0.0130071
0.0129173
0.0127986
0.0126645
0.0125241
0.0123825
0.0122411
0.0121005
0.0119602
0.01182
0.0116795
0.0115385
0.0113967
0.0112539
0.0111101
0.0109652
0.0108191
0.0106718
0.010523
0.0103728
0.0102211
0.0100679
0.00991302
0.0097574
0.00959836
0.00944211
0.00927439
0.00912388
0.00892799
0.00880777
0.0123206
0.0130523
0.0129473
0.0130466
0.0130738
0.0130251
0.0129325
0.0128094
0.0126713
0.0125281
0.0123844
0.0122406
0.0120964
0.0119521
0.011808
0.0116643
0.0115207
0.0113768
0.0112323
0.011087
0.0109406
0.0107929
0.010644
0.0104936
0.0103418
0.0101886
0.0100342
0.00987826
0.00972212
0.00956321
0.00940861
0.00924395
0.00910277
0.00891788
0.00883494
0.0121964
0.0130418
0.0129666
0.0130883
0.0131191
0.0130612
0.0129576
0.0128248
0.0126794
0.0125308
0.0123825
0.0122353
0.0120894
0.0119443
0.0117997
0.0116552
0.0115103
0.0113646
0.0112179
0.0110701
0.0109212
0.0107712
0.0106201
0.0104678
0.0103143
0.0101595
0.0100038
0.00984671
0.00968942
0.00952942
0.00937277
0.00920548
0.00905646
0.00886253
0.00874553
0.0120089
0.0130065
0.0129515
0.0131037
0.0131451
0.0130837
0.012974
0.0128353
0.0126857
0.0125347
0.0123847
0.0122354
0.0120868
0.0119384
0.0117906
0.0116436
0.0114969
0.0113499
0.0112022
0.0110536
0.0109037
0.0107527
0.0106005
0.010447
0.0102924
0.0101367
0.00998017
0.0098225
0.00966496
0.00950512
0.0093497
0.00918476
0.00904305
0.00885808
0.00877422
0.0118296
0.0130255
0.0129799
0.0131565
0.0131966
0.0131211
0.0129981
0.0128491
0.0126929
0.0125375
0.0123837
0.0122316
0.0120816
0.0119329
0.011785
0.0116375
0.01149
0.0113417
0.0111923
0.0110418
0.0108902
0.0107375
0.0105838
0.010429
0.0102733
0.0101166
0.00995926
0.0098009
0.00964275
0.0094824
0.00932571
0.00915935
0.00901156
0.00882013
0.00870553
0.0115886
0.0130451
0.0129866
0.0131896
0.0132308
0.0131453
0.0130136
0.012858
0.0126979
0.0125407
0.0123853
0.0122316
0.01208
0.0119292
0.0117789
0.0116294
0.0114806
0.0113316
0.0111818
0.0110307
0.0108785
0.0107251
0.0105707
0.0104152
0.0102588
0.0101015
0.00994367
0.00978497
0.00962674
0.00946657
0.00931074
0.00914618
0.00900363
0.00881918
0.00873211
0.0113287
0.013111
0.0130227
0.0132502
0.0132836
0.0131801
0.013034
0.0128688
0.0127035
0.0125434
0.0123852
0.0122291
0.0120762
0.0119252
0.0117751
0.0116257
0.0114764
0.0113264
0.0111753
0.011023
0.0108696
0.0107151
0.0105597
0.0104034
0.0102463
0.0100884
0.00993015
0.0097711
0.00961262
0.00945226
0.00929581
0.00913081
0.00898419
0.00879584
0.00868351
0.0110335
0.0132171
0.0130587
0.0133015
0.0133229
0.0132032
0.0130467
0.0128751
0.0127071
0.0125459
0.0123858
0.0122286
0.0120754
0.0119235
0.0117718
0.0116209
0.0114708
0.0113205
0.0111692
0.0110165
0.0108627
0.0107077
0.0105519
0.0103951
0.0102376
0.0100794
0.00992091
0.00976171
0.0096033
0.00944309
0.00928723
0.00912368
0.00898004
0.00879737
0.00870326
0.0106671
0.0133463
0.0130985
0.0133626
0.0133698
0.0132307
0.0130612
0.0128821
0.012711
0.0125486
0.0123865
0.0122269
0.0120723
0.0119204
0.0117696
0.0116193
0.0114689
0.0113177
0.0111655
0.011012
0.0108575
0.0107018
0.0105455
0.0103882
0.0102304
0.0100719
0.00991314
0.00975382
0.00959547
0.00943504
0.00927921
0.0091158
0.00897094
0.00878738
0.00869282
0.0103387
0.0135589
0.0131716
0.0134284
0.0134083
0.0132485
0.013069
0.0128853
0.0127134
0.0125516
0.0123869
0.0122253
0.0120709
0.0119196
0.0117687
0.0116179
0.0114671
0.0113156
0.0111631
0.0110093
0.0108544
0.0106986
0.0105421
0.0103845
0.0102266
0.010068
0.0099091
0.00974987
0.00959175
0.00943133
0.00927588
0.00911363
0.00896866
0.00879363
0.00867986
0.00989767
0.0137336
0.0131944
0.0134588
0.013429
0.0132617
0.0130764
0.0128887
0.0127152
0.012552
0.0123863
0.0122242
0.0120699
0.0119191
0.0117686
0.0116179
0.0114667
0.0113148
0.0111617
0.0110075
0.0108525
0.0106964
0.0105397
0.0103819
0.0102239
0.0100652
0.00990615
0.00974705
0.0095889
0.00942844
0.0092725
0.0091111
0.00896275
0.00879045
0.0086451
0.00963899
0.0140353
0.0132947
0.0135186
0.0134517
0.013264
0.0130746
0.0128891
0.0127159
0.0125553
0.0123902
0.0122226
0.0120669
0.0119179
0.0117688
0.0116184
0.0114671
0.0113149
0.0111616
0.0110074
0.0108523
0.0106962
0.0105394
0.0103818
0.0102236
0.0100651
0.00990611
0.00974686
0.00958925
0.00942903
0.00927319
0.00911279
0.00897028
0.00880845
0.00871861
0.0130363
0.0135304
0.0131597
0.0130836
0.0130003
0.0129159
0.0128317
0.0127385
0.0126378
0.0125325
0.0124257
0.0123191
0.0122127
0.0121061
0.0119995
0.0118935
0.0117886
0.0116848
0.0115818
0.0114791
0.0113764
0.0112732
0.011169
0.0110631
0.0109551
0.0108443
0.0107301
0.010612
0.0104898
0.0103621
0.0102302
0.0100902
0.00994928
0.00979159
0.00965084
0.0130055
0.0134987
0.0131448
0.0130758
0.0129976
0.0129162
0.0128328
0.0127387
0.0126362
0.0125283
0.0124183
0.0123082
0.0121983
0.0120883
0.0119783
0.0118686
0.0117594
0.0116508
0.0115425
0.0114342
0.0113257
0.0112164
0.011106
0.0109939
0.0108796
0.0107627
0.0106426
0.0105187
0.0103914
0.0102583
0.0101237
0.00997857
0.00984331
0.00967601
0.00958515
0.0129658
0.0134505
0.0131113
0.013054
0.0129866
0.0129124
0.0128322
0.0127384
0.012634
0.0125232
0.0124099
0.0122958
0.0121811
0.0120658
0.0119501
0.0118345
0.0117193
0.0116046
0.0114901
0.0113754
0.0112602
0.011144
0.0110263
0.0109068
0.010785
0.0106604
0.0105327
0.0104012
0.0102665
0.0101262
0.0099848
0.00983194
0.00968797
0.00950726
0.0093822
0.0129227
0.013417
0.0130984
0.0130505
0.0129887
0.0129166
0.012836
0.0127403
0.0126332
0.0125188
0.0124016
0.0122838
0.0121658
0.0120473
0.0119283
0.011809
0.0116898
0.0115707
0.0114513
0.0113314
0.0112108
0.0110891
0.0109659
0.0108408
0.0107135
0.0105836
0.0104508
0.0103145
0.0101752
0.0100307
0.00988467
0.0097278
0.0095775
0.00939577
0.0092498
0.0128701
0.0133584
0.0130596
0.0130271
0.0129796
0.0129169
0.0128403
0.0127446
0.0126353
0.012518
0.0123974
0.0122755
0.0121528
0.0120293
0.0119051
0.0117806
0.011656
0.0115314
0.0114067
0.0112815
0.0111557
0.0110287
0.0109001
0.0107695
0.0106367
0.0105014
0.0103634
0.0102222
0.0100788
0.00993085
0.00978406
0.00962665
0.00948749
0.00930777
0.00922105
0.0128165
0.0133204
0.013051
0.013033
0.0129932
0.0129319
0.0128526
0.0127527
0.0126385
0.0125161
0.0123907
0.0122647
0.0121386
0.0120119
0.0118846
0.0117568
0.0116287
0.0115001
0.011371
0.0112411
0.0111102
0.0109781
0.0108444
0.010709
0.0105714
0.0104316
0.0102893
0.010144
0.00999663
0.00984417
0.00969238
0.00952778
0.00937581
0.00918045
0.00905147
0.0127364
0.0132494
0.0130085
0.0130118
0.0129889
0.0129367
0.0128605
0.0127598
0.0126431
0.0125178
0.0123893
0.0122595
0.0121287
0.0119971
0.0118649
0.0117324
0.0115997
0.0114668
0.0113335
0.0111996
0.0110649
0.0109289
0.0107914
0.010652
0.0105107
0.0103672
0.0102215
0.0100733
0.00992376
0.00977017
0.00962001
0.00945877
0.00931954
0.00913721
0.0090532
0.012666
0.013212
0.0130085
0.0130305
0.0130162
0.012963
0.0128811
0.0127735
0.01265
0.0125184
0.0123845
0.0122503
0.0121163
0.0119821
0.0118475
0.0117125
0.011577
0.0114408
0.0113037
0.0111656
0.0110265
0.0108861
0.0107443
0.0106008
0.0104556
0.0103086
0.0101596
0.0100082
0.00985549
0.00969845
0.00954318
0.0093757
0.00922281
0.00902536
0.0088991
0.0125536
0.0131361
0.0129678
0.0130174
0.0130216
0.0129752
0.0128937
0.0127834
0.0126565
0.012522
0.0123854
0.0122479
0.0121097
0.0119708
0.0118317
0.0116927
0.0115536
0.0114141
0.0112742
0.0111335
0.0109918
0.0108489
0.0107045
0.0105586
0.0104109
0.0102615
0.0101104
0.00995732
0.00980363
0.00964654
0.00949338
0.00932996
0.00918908
0.00900521
0.00892187
0.0124648
0.0131099
0.0129778
0.0130474
0.0130582
0.0130071
0.0129173
0.0127986
0.0126645
0.0125241
0.0123824
0.0122411
0.0121005
0.0119603
0.01182
0.0116795
0.0115385
0.0113967
0.0112539
0.0111101
0.0109652
0.0108191
0.0106718
0.010523
0.0103728
0.0102211
0.010068
0.00991305
0.00975743
0.0095984
0.00944214
0.00927443
0.00912388
0.00892799
0.00880767
0.0123222
0.0130466
0.0129474
0.013047
0.0130739
0.013025
0.0129325
0.0128093
0.0126713
0.0125281
0.0123844
0.0122406
0.0120965
0.0119521
0.011808
0.0116643
0.0115207
0.0113768
0.0112324
0.011087
0.0109406
0.010793
0.010644
0.0104936
0.0103418
0.0101886
0.0100342
0.0098783
0.00972216
0.00956326
0.00940865
0.00924401
0.00910283
0.00891797
0.00883501
0.0121977
0.0130366
0.0129668
0.0130887
0.0131192
0.0130612
0.0129576
0.0128247
0.0126794
0.0125308
0.0123825
0.0122353
0.0120894
0.0119444
0.0117997
0.0116552
0.0115103
0.0113646
0.0112179
0.0110701
0.0109213
0.0107713
0.0106202
0.0104678
0.0103143
0.0101596
0.0100038
0.00984674
0.00968946
0.00952946
0.00937279
0.00920552
0.00905647
0.00886254
0.00874542
0.0120102
0.0130014
0.0129516
0.013104
0.0131452
0.0130837
0.012974
0.0128352
0.0126857
0.0125347
0.0123847
0.0122354
0.0120868
0.0119384
0.0117906
0.0116436
0.0114969
0.0113499
0.0112023
0.0110536
0.0109038
0.0107527
0.0106005
0.010447
0.0102924
0.0101368
0.00998021
0.00982253
0.009665
0.00950517
0.00934974
0.00918482
0.00904311
0.00885817
0.00877428
0.0118307
0.0130209
0.0129801
0.0131568
0.0131967
0.0131211
0.0129981
0.0128491
0.0126929
0.0125375
0.0123837
0.0122316
0.0120816
0.0119329
0.011785
0.0116376
0.01149
0.0113417
0.0111923
0.0110418
0.0108902
0.0107375
0.0105838
0.010429
0.0102733
0.0101167
0.00995929
0.00980093
0.00964278
0.00948243
0.00932574
0.00915939
0.00901157
0.00882015
0.00870543
0.0115896
0.0130408
0.0129868
0.0131899
0.0132308
0.0131453
0.0130135
0.0128579
0.0126979
0.0125407
0.0123853
0.0122316
0.01208
0.0119292
0.0117789
0.0116294
0.0114806
0.0113316
0.0111818
0.0110308
0.0108786
0.0107252
0.0105707
0.0104152
0.0102588
0.0101015
0.0099437
0.009785
0.00962678
0.00946661
0.00931078
0.00914623
0.00900368
0.00881926
0.00873216
0.0113296
0.0131073
0.013023
0.0132505
0.0132836
0.01318
0.013034
0.0128688
0.0127035
0.0125434
0.0123852
0.0122291
0.0120762
0.0119252
0.0117751
0.0116257
0.0114764
0.0113264
0.0111753
0.011023
0.0108696
0.0107151
0.0105597
0.0104034
0.0102463
0.0100885
0.00993017
0.00977112
0.00961265
0.00945229
0.00929584
0.00913084
0.00898421
0.00879586
0.00868342
0.0110341
0.013214
0.013059
0.0133018
0.0133229
0.0132031
0.0130467
0.0128751
0.0127072
0.0125459
0.0123858
0.0122285
0.0120754
0.0119235
0.0117718
0.0116209
0.0114708
0.0113205
0.0111692
0.0110165
0.0108627
0.0107077
0.0105519
0.0103951
0.0102376
0.0100795
0.00992094
0.00976174
0.00960333
0.00944312
0.00928727
0.00912372
0.00898008
0.00879745
0.00870324
0.0106679
0.0133441
0.0130989
0.0133627
0.0133696
0.0132305
0.0130612
0.0128821
0.012711
0.0125486
0.0123865
0.0122268
0.0120723
0.0119205
0.0117697
0.0116193
0.0114689
0.0113178
0.0111655
0.011012
0.0108575
0.0107019
0.0105455
0.0103882
0.0102304
0.0100719
0.00991317
0.00975383
0.00959549
0.00943506
0.00927923
0.00911582
0.00897096
0.00878743
0.00869276
0.0103383
0.0135578
0.0131717
0.0134282
0.013408
0.0132483
0.013069
0.0128853
0.0127134
0.0125516
0.0123869
0.0122253
0.0120709
0.0119197
0.0117687
0.0116179
0.0114671
0.0113156
0.0111631
0.0110093
0.0108545
0.0106986
0.0105421
0.0103845
0.0102266
0.010068
0.00990912
0.00974988
0.00959176
0.00943134
0.00927589
0.00911366
0.0089687
0.00879367
0.00867991
0.00989693
0.0137342
0.013194
0.0134583
0.0134287
0.0132616
0.0130764
0.0128887
0.0127152
0.0125521
0.0123863
0.0122242
0.0120699
0.0119191
0.0117686
0.0116179
0.0114667
0.0113148
0.0111617
0.0110075
0.0108525
0.0106964
0.0105397
0.0103819
0.0102239
0.0100652
0.00990617
0.00974706
0.00958892
0.00942846
0.00927251
0.00911111
0.00896278
0.00879043
0.00864515
0.00966136
0.0140386
0.0132901
0.0135153
0.0134503
0.0132637
0.0130746
0.0128891
0.0127159
0.0125553
0.0123901
0.0122226
0.012067
0.011918
0.0117688
0.0116184
0.0114671
0.0113148
0.0111616
0.0110074
0.0108522
0.0106961
0.0105394
0.0103818
0.0102236
0.0100651
0.0099061
0.00974686
0.0095892
0.00942898
0.00927315
0.00911275
0.00897025
0.00880842
0.00871824
0.0130445
0.0135248
0.0131596
0.0130839
0.0130005
0.0129159
0.0128317
0.0127384
0.0126378
0.0125324
0.0124257
0.0123191
0.0122127
0.0121061
0.0119995
0.0118935
0.0117886
0.0116848
0.0115818
0.0114791
0.0113764
0.0112732
0.011169
0.0110631
0.0109551
0.0108443
0.0107301
0.010612
0.0104898
0.0103621
0.0102302
0.0100902
0.0099493
0.00979159
0.00965088
0.0130136
0.0134933
0.0131449
0.0130761
0.0129978
0.0129162
0.0128328
0.0127387
0.0126362
0.0125283
0.0124183
0.0123082
0.0121983
0.0120883
0.0119783
0.0118686
0.0117594
0.0116508
0.0115425
0.0114343
0.0113257
0.0112165
0.011106
0.0109939
0.0108796
0.0107627
0.0106426
0.0105187
0.0103915
0.0102584
0.0101238
0.00997862
0.00984335
0.00967603
0.00958528
0.0129738
0.0134451
0.0131113
0.0130542
0.0129868
0.0129125
0.0128322
0.0127383
0.012634
0.0125232
0.0124099
0.0122957
0.0121811
0.0120658
0.0119501
0.0118345
0.0117193
0.0116046
0.0114901
0.0113754
0.0112602
0.011144
0.0110263
0.0109068
0.010785
0.0106604
0.0105327
0.0104012
0.0102665
0.0101263
0.00998479
0.00983194
0.00968796
0.00950725
0.0093822
0.0129306
0.0134117
0.0130984
0.0130508
0.0129888
0.0129167
0.012836
0.0127403
0.0126332
0.0125188
0.0124016
0.0122838
0.0121658
0.0120474
0.0119283
0.011809
0.0116899
0.0115707
0.0114513
0.0113314
0.0112108
0.0110891
0.0109659
0.0108408
0.0107135
0.0105836
0.0104508
0.0103145
0.0101752
0.0100307
0.00988469
0.00972782
0.0095775
0.00939577
0.00924979
0.0128778
0.0133532
0.0130596
0.0130273
0.0129797
0.012917
0.0128403
0.0127446
0.0126353
0.012518
0.0123974
0.0122755
0.0121527
0.0120293
0.0119051
0.0117806
0.011656
0.0115314
0.0114067
0.0112816
0.0111557
0.0110287
0.0109001
0.0107696
0.0106368
0.0105014
0.0103634
0.0102223
0.0100788
0.00993086
0.00978408
0.00962667
0.00948751
0.00930781
0.00922121
0.0128241
0.0133154
0.0130511
0.0130332
0.0129933
0.0129319
0.0128526
0.0127527
0.0126385
0.0125161
0.0123907
0.0122647
0.0121385
0.0120119
0.0118846
0.0117568
0.0116287
0.0115002
0.011371
0.0112411
0.0111102
0.0109781
0.0108444
0.010709
0.0105714
0.0104316
0.0102893
0.010144
0.00999664
0.00984418
0.00969237
0.00952779
0.0093758
0.00918038
0.00905144
0.0127438
0.0132444
0.0130084
0.013012
0.012989
0.0129367
0.0128604
0.0127598
0.0126431
0.0125178
0.0123893
0.0122595
0.0121287
0.0119971
0.0118649
0.0117324
0.0115997
0.0114668
0.0113335
0.0111996
0.0110649
0.0109289
0.0107914
0.0106521
0.0105107
0.0103672
0.0102215
0.0100733
0.00992377
0.0097702
0.00962002
0.00945881
0.00931958
0.00913724
0.00905339
0.0126733
0.0132073
0.0130086
0.0130308
0.0130164
0.012963
0.0128811
0.0127734
0.01265
0.0125184
0.0123845
0.0122502
0.0121163
0.0119821
0.0118476
0.0117126
0.011577
0.0114408
0.0113037
0.0111656
0.0110265
0.0108861
0.0107443
0.0106008
0.0104557
0.0103086
0.0101596
0.0100082
0.00985549
0.00969846
0.00954318
0.00937569
0.00922279
0.0090253
0.00889903
0.0125606
0.0131313
0.0129677
0.0130176
0.0130217
0.0129752
0.0128936
0.0127834
0.0126565
0.012522
0.0123854
0.0122479
0.0121097
0.0119708
0.0118317
0.0116927
0.0115536
0.0114141
0.0112742
0.0111335
0.0109918
0.0108489
0.0107046
0.0105586
0.0104109
0.0102615
0.0101104
0.00995733
0.00980365
0.00964656
0.00949341
0.00932999
0.00918913
0.00900525
0.00892204
0.0124717
0.0131055
0.0129779
0.0130476
0.0130583
0.013007
0.0129173
0.0127986
0.0126645
0.0125241
0.0123824
0.0122411
0.0121005
0.0119603
0.01182
0.0116795
0.0115385
0.0113967
0.0112539
0.0111101
0.0109652
0.0108191
0.0106718
0.0105231
0.0103729
0.0102211
0.010068
0.00991306
0.00975743
0.00959841
0.00944213
0.00927443
0.00912387
0.00892793
0.00880762
0.0123288
0.0130421
0.0129474
0.0130471
0.0130739
0.013025
0.0129324
0.0128093
0.0126713
0.0125281
0.0123844
0.0122406
0.0120965
0.0119521
0.011808
0.0116643
0.0115207
0.0113768
0.0112324
0.011087
0.0109406
0.010793
0.010644
0.0104936
0.0103418
0.0101886
0.0100342
0.00987831
0.00972218
0.00956327
0.00940867
0.00924404
0.00910287
0.00891801
0.00883519
0.0122042
0.0130325
0.0129669
0.0130889
0.0131193
0.0130611
0.0129575
0.0128247
0.0126794
0.0125308
0.0123825
0.0122353
0.0120894
0.0119444
0.0117998
0.0116552
0.0115103
0.0113646
0.0112179
0.0110701
0.0109213
0.0107713
0.0106202
0.0104678
0.0103143
0.0101596
0.0100038
0.00984674
0.00968946
0.00952947
0.0093728
0.00920552
0.00905645
0.00886249
0.00874537
0.0120164
0.0129973
0.0129516
0.0131042
0.0131452
0.0130836
0.0129739
0.0128352
0.0126857
0.0125347
0.0123847
0.0122354
0.0120868
0.0119384
0.0117906
0.0116436
0.0114969
0.0113499
0.0112023
0.0110536
0.0109038
0.0107527
0.0106005
0.010447
0.0102925
0.0101368
0.00998022
0.00982254
0.00966501
0.00950518
0.00934976
0.00918484
0.00904315
0.00885821
0.00877445
0.0118367
0.0130174
0.0129803
0.013157
0.0131967
0.013121
0.012998
0.0128491
0.0126928
0.0125374
0.0123837
0.0122316
0.0120816
0.011933
0.0117851
0.0116376
0.01149
0.0113417
0.0111923
0.0110418
0.0108902
0.0107375
0.0105838
0.010429
0.0102733
0.0101167
0.0099593
0.00980094
0.00964279
0.00948244
0.00932574
0.00915939
0.00901157
0.00882011
0.00870538
0.0115953
0.0130374
0.0129869
0.01319
0.0132307
0.0131451
0.0130135
0.0128579
0.0126979
0.0125407
0.0123853
0.0122316
0.01208
0.0119292
0.0117789
0.0116295
0.0114806
0.0113316
0.0111818
0.0110308
0.0108786
0.0107252
0.0105707
0.0104152
0.0102588
0.0101015
0.00994372
0.00978502
0.00962679
0.00946662
0.0093108
0.00914625
0.00900371
0.0088193
0.0087323
0.0113351
0.0131045
0.0130233
0.0132506
0.0132836
0.0131799
0.0130339
0.0128688
0.0127035
0.0125434
0.0123852
0.0122291
0.0120762
0.0119252
0.0117752
0.0116257
0.0114764
0.0113264
0.0111753
0.011023
0.0108696
0.0107151
0.0105598
0.0104034
0.0102463
0.0100885
0.00993018
0.00977113
0.00961265
0.0094523
0.00929585
0.00913084
0.00898421
0.00879584
0.00868339
0.0110393
0.0132118
0.0130593
0.0133018
0.0133227
0.013203
0.0130466
0.0128751
0.0127071
0.0125459
0.0123858
0.0122285
0.0120754
0.0119235
0.0117718
0.011621
0.0114708
0.0113205
0.0111692
0.0110165
0.0108627
0.0107078
0.0105519
0.0103951
0.0102376
0.0100795
0.00992095
0.00976175
0.00960335
0.00944313
0.00928729
0.00912373
0.00898011
0.00879749
0.00870334
0.0106729
0.0133426
0.0130993
0.0133626
0.0133693
0.0132303
0.0130611
0.0128821
0.012711
0.0125486
0.0123864
0.0122268
0.0120722
0.0119205
0.0117697
0.0116193
0.0114689
0.0113178
0.0111655
0.011012
0.0108575
0.0107019
0.0105455
0.0103882
0.0102304
0.0100719
0.00991317
0.00975383
0.00959549
0.00943506
0.00927922
0.00911582
0.00897097
0.00878742
0.00869284
0.0103428
0.0135576
0.0131718
0.0134279
0.0134076
0.0132481
0.0130689
0.0128853
0.0127134
0.0125515
0.0123869
0.0122253
0.012071
0.0119197
0.0117688
0.0116179
0.0114671
0.0113156
0.0111631
0.0110093
0.0108545
0.0106986
0.0105421
0.0103846
0.0102266
0.0100681
0.00990913
0.00974987
0.00959176
0.00943134
0.00927588
0.00911366
0.0089687
0.00879369
0.00867997
0.00989985
0.0137358
0.0131936
0.0134575
0.0134282
0.0132614
0.0130764
0.0128887
0.0127152
0.0125521
0.0123863
0.0122242
0.0120698
0.0119191
0.0117686
0.0116179
0.0114667
0.0113148
0.0111617
0.0110075
0.0108525
0.0106964
0.0105397
0.0103819
0.0102239
0.0100652
0.00990618
0.00974705
0.00958891
0.00942845
0.0092725
0.0091111
0.00896278
0.00879039
0.00864502
0.0096733
0.0140415
0.0132884
0.0135139
0.0134498
0.0132635
0.0130746
0.0128891
0.012716
0.0125552
0.01239
0.0122226
0.012067
0.011918
0.0117688
0.0116184
0.0114671
0.0113148
0.0111616
0.0110074
0.0108522
0.0106961
0.0105394
0.0103818
0.0102236
0.0100651
0.0099061
0.00974687
0.00958919
0.00942896
0.00927314
0.00911273
0.00897023
0.00880846
0.00871815
0.0130496
0.0135193
0.0131593
0.0130839
0.0130006
0.012916
0.0128317
0.0127384
0.0126378
0.0125324
0.0124257
0.012319
0.0122127
0.0121062
0.0119995
0.0118935
0.0117886
0.0116848
0.0115818
0.0114791
0.0113764
0.0112732
0.011169
0.0110631
0.0109551
0.0108443
0.0107301
0.010612
0.0104898
0.0103621
0.0102302
0.0100902
0.00994929
0.00979157
0.00965092
0.0130185
0.0134879
0.0131446
0.0130762
0.012998
0.0129162
0.0128327
0.0127387
0.0126362
0.0125282
0.0124183
0.0123081
0.0121982
0.0120883
0.0119784
0.0118686
0.0117595
0.0116508
0.0115425
0.0114343
0.0113257
0.0112165
0.011106
0.0109939
0.0108796
0.0107627
0.0106426
0.0105187
0.0103915
0.0102584
0.0101237
0.00997868
0.00984336
0.00967607
0.00958555
0.0129786
0.0134397
0.0131109
0.0130542
0.0129869
0.0129125
0.0128322
0.0127383
0.012634
0.0125232
0.0124098
0.0122957
0.0121811
0.0120658
0.0119501
0.0118345
0.0117193
0.0116046
0.0114901
0.0113754
0.0112602
0.011144
0.0110263
0.0109068
0.010785
0.0106604
0.0105327
0.0104012
0.0102665
0.0101263
0.00998477
0.00983196
0.00968793
0.00950725
0.00938218
0.0129354
0.0134065
0.0130982
0.0130509
0.012989
0.0129167
0.012836
0.0127403
0.0126332
0.0125187
0.0124015
0.0122837
0.0121658
0.0120474
0.0119283
0.0118091
0.0116899
0.0115707
0.0114513
0.0113314
0.0112108
0.0110891
0.0109659
0.0108408
0.0107135
0.0105836
0.0104508
0.0103145
0.0101752
0.0100307
0.00988469
0.00972784
0.00957748
0.00939578
0.00924977
0.0128825
0.013348
0.0130593
0.0130274
0.0129799
0.012917
0.0128403
0.0127446
0.0126353
0.012518
0.0123974
0.0122754
0.0121527
0.0120293
0.0119051
0.0117807
0.0116561
0.0115314
0.0114067
0.0112816
0.0111557
0.0110287
0.0109001
0.0107696
0.0106368
0.0105014
0.0103634
0.0102223
0.0100788
0.00993086
0.00978408
0.00962669
0.0094875
0.00930788
0.00922144
0.0128288
0.0133104
0.0130509
0.0130333
0.0129934
0.0129319
0.0128526
0.0127526
0.0126385
0.012516
0.0123906
0.0122646
0.0121385
0.0120119
0.0118846
0.0117568
0.0116287
0.0115002
0.011371
0.0112411
0.0111102
0.0109781
0.0108444
0.010709
0.0105714
0.0104316
0.0102893
0.010144
0.00999663
0.0098442
0.00969235
0.00952782
0.00937578
0.00918035
0.00905147
0.0127483
0.0132393
0.0130082
0.0130121
0.0129891
0.0129367
0.0128604
0.0127598
0.0126431
0.0125178
0.0123893
0.0122595
0.0121287
0.0119971
0.0118649
0.0117325
0.0115998
0.0114668
0.0113335
0.0111996
0.0110649
0.0109289
0.0107914
0.0106521
0.0105107
0.0103672
0.0102215
0.0100733
0.00992376
0.00977022
0.00962
0.00945885
0.00931959
0.00913727
0.00905364
0.0126778
0.0132026
0.0130084
0.0130308
0.0130165
0.012963
0.0128811
0.0127734
0.01265
0.0125184
0.0123844
0.0122502
0.0121162
0.0119822
0.0118476
0.0117126
0.0115771
0.0114408
0.0113037
0.0111656
0.0110265
0.0108861
0.0107443
0.0106008
0.0104557
0.0103086
0.0101596
0.0100082
0.00985549
0.00969847
0.00954317
0.0093757
0.00922278
0.00902528
0.00889904
0.0125649
0.0131265
0.0129674
0.0130176
0.0130218
0.0129751
0.0128936
0.0127833
0.0126565
0.012522
0.0123853
0.0122479
0.0121097
0.0119708
0.0118317
0.0116927
0.0115536
0.0114141
0.0112742
0.0111335
0.0109918
0.0108489
0.0107046
0.0105586
0.0104109
0.0102615
0.0101104
0.00995734
0.00980365
0.00964657
0.00949341
0.00933001
0.00918915
0.00900529
0.00892226
0.012476
0.0131011
0.0129778
0.0130477
0.0130584
0.013007
0.0129172
0.0127985
0.0126645
0.012524
0.0123824
0.0122411
0.0121005
0.0119603
0.01182
0.0116796
0.0115385
0.0113967
0.0112539
0.0111101
0.0109652
0.0108191
0.0106718
0.0105231
0.0103729
0.0102211
0.010068
0.00991306
0.00975742
0.00959841
0.00944212
0.00927445
0.00912384
0.00892793
0.00880766
0.012333
0.0130375
0.0129471
0.0130471
0.013074
0.013025
0.0129324
0.0128093
0.0126713
0.0125281
0.0123844
0.0122406
0.0120965
0.0119521
0.011808
0.0116643
0.0115207
0.0113768
0.0112324
0.011087
0.0109406
0.010793
0.010644
0.0104936
0.0103418
0.0101886
0.0100342
0.00987832
0.00972218
0.00956329
0.00940867
0.00924406
0.00910287
0.00891805
0.00883542
0.0122083
0.0130284
0.0129668
0.0130889
0.0131193
0.0130611
0.0129575
0.0128247
0.0126794
0.0125308
0.0123825
0.0122353
0.0120894
0.0119444
0.0117998
0.0116553
0.0115104
0.0113646
0.0112179
0.0110701
0.0109213
0.0107713
0.0106202
0.0104678
0.0103143
0.0101596
0.0100038
0.00984674
0.00968946
0.00952947
0.00937279
0.00920554
0.00905643
0.0088625
0.00874542
0.0120203
0.0129931
0.0129514
0.0131041
0.0131452
0.0130835
0.0129739
0.0128352
0.0126856
0.0125347
0.0123847
0.0122354
0.0120868
0.0119384
0.0117906
0.0116436
0.0114969
0.0113499
0.0112023
0.0110536
0.0109038
0.0107527
0.0106005
0.010447
0.0102925
0.0101368
0.00998023
0.00982255
0.00966501
0.00950519
0.00934976
0.00918486
0.00904314
0.00885825
0.00877467
0.0118406
0.0130137
0.0129802
0.013157
0.0131967
0.0131209
0.012998
0.012849
0.0126928
0.0125374
0.0123836
0.0122316
0.0120816
0.011933
0.0117851
0.0116376
0.01149
0.0113417
0.0111923
0.0110418
0.0108902
0.0107375
0.0105838
0.010429
0.0102733
0.0101167
0.0099593
0.00980094
0.00964279
0.00948244
0.00932574
0.00915941
0.00901155
0.00882012
0.00870545
0.0115989
0.0130338
0.0129868
0.0131899
0.0132307
0.0131451
0.0130134
0.0128579
0.0126979
0.0125407
0.0123853
0.0122316
0.01208
0.0119292
0.0117789
0.0116295
0.0114806
0.0113316
0.0111818
0.0110308
0.0108786
0.0107252
0.0105707
0.0104152
0.0102588
0.0101015
0.00994372
0.00978502
0.00962679
0.00946663
0.0093108
0.00914627
0.00900371
0.00881933
0.0087325
0.0113386
0.0131015
0.0130234
0.0132506
0.0132836
0.0131798
0.0130339
0.0128688
0.0127035
0.0125434
0.0123851
0.012229
0.0120762
0.0119253
0.0117752
0.0116258
0.0114764
0.0113264
0.0111753
0.011023
0.0108696
0.0107151
0.0105598
0.0104034
0.0102463
0.0100885
0.00993018
0.00977112
0.00961265
0.0094523
0.00929584
0.00913085
0.0089842
0.00879585
0.00868344
0.0110427
0.0132092
0.0130594
0.0133017
0.0133227
0.0132029
0.0130466
0.0128751
0.0127071
0.0125459
0.0123858
0.0122285
0.0120754
0.0119235
0.0117719
0.011621
0.0114709
0.0113205
0.0111692
0.0110165
0.0108627
0.0107078
0.0105519
0.0103951
0.0102376
0.0100795
0.00992096
0.00976175
0.00960335
0.00944314
0.00928729
0.00912374
0.0089801
0.00879752
0.00870355
0.0106761
0.0133408
0.0130995
0.0133624
0.0133691
0.0132302
0.0130611
0.0128821
0.012711
0.0125486
0.0123864
0.0122267
0.0120722
0.0119205
0.0117698
0.0116194
0.0114689
0.0113178
0.0111655
0.011012
0.0108575
0.0107019
0.0105455
0.0103882
0.0102304
0.0100719
0.00991317
0.00975382
0.00959547
0.00943506
0.00927921
0.00911582
0.00897094
0.00878742
0.00869303
0.0103456
0.013557
0.0131719
0.0134274
0.0134074
0.0132479
0.0130688
0.0128853
0.0127134
0.0125515
0.0123869
0.0122253
0.012071
0.0119198
0.0117688
0.0116179
0.0114671
0.0113156
0.0111631
0.0110093
0.0108545
0.0106986
0.0105421
0.0103845
0.0102266
0.010068
0.00990913
0.00974984
0.00959174
0.00943135
0.00927588
0.00911367
0.00896867
0.00879369
0.00867997
0.00990089
0.013737
0.0131933
0.0134568
0.0134279
0.0132613
0.0130763
0.0128887
0.0127152
0.0125521
0.0123863
0.0122242
0.0120698
0.011919
0.0117686
0.0116179
0.0114667
0.0113147
0.0111617
0.0110075
0.0108525
0.0106964
0.0105397
0.0103819
0.0102239
0.0100652
0.00990618
0.00974703