/*--------------------------------*- C++ -*----------------------------------*\
  =========                 |
  \\      /  F ield         | OpenFOAM: The Open Source CFD Toolbox
   \\    /   O peration     | Website:  https://openfoam.org
    \\  /    A nd           | Version:  6
     \\/     M anipulation  |
\*---------------------------------------------------------------------------*/
FoamFile
{
    version     2.0;
    format      ascii;
    class       volScalarField;
    location    "0.6";
    object      yPlus;
}
// * * * * * * * * * * * * * * * * * * * * * * * * * * * * * * * * * * * * * //

dimensions      [0 0 0 0 0 0 0];

internalField   uniform 0;

boundaryField
{
    inlet
    {
        type            calculated;
        value           uniform 0;
    }
    outlet
    {
        type            calculated;
        value           uniform 0;
    }
    roughCylinder
    {
        type            calculated;
        value           nonuniform List<scalar> 
3840
(
45.2536
53.4998
60.4442
66.2724
70.6524
74.0852
76.9961
79.6274
82.0746
84.3888
86.6105
88.7813
90.9449
93.1379
95.3867
97.7071
100.108
102.59
105.151
107.78
110.457
113.117
115.553
117.208
44.6597
52.6456
59.4212
65.1624
69.5073
72.9058
75.799
78.4108
80.825
83.1001
85.2775
87.401
89.5156
91.6588
93.857
96.1255
98.4728
100.901
103.406
105.978
108.595
111.195
113.576
115.194
44.0212
51.7747
58.3921
64.0468
68.3589
71.7344
74.6165
77.2093
79.5908
81.827
83.9606
86.0371
88.1032
90.197
92.3449
94.5621
96.857
99.2314
101.681
104.195
106.754
109.296
111.623
113.204
43.3718
50.9131
57.3842
62.9582
67.2426
70.6033
73.4779
76.0521
78.402
80.5997
82.69
84.7204
86.7388
88.7843
90.8829
93.0498
95.2934
97.6152
100.011
102.47
104.971
107.456
109.73
111.275
42.722
50.0668
56.4012
61.9002
66.1616
69.5125
72.3816
74.9382
77.2592
79.4188
81.4665
83.4517
85.4237
87.422
89.4729
91.5912
93.785
96.0557
98.3988
100.804
103.25
105.679
107.902
109.413
42.0796
49.2417
55.4469
60.8765
65.119
68.4624
71.3264
73.8666
76.1615
78.284
80.2902
82.2313
84.1581
86.1109
88.1155
90.1867
92.3325
94.5539
96.8466
99.1995
101.593
103.968
106.142
107.619
41.452
48.4423
54.5242
59.889
64.115
67.453
70.3119
72.8372
75.1088
77.1957
79.1615
81.0596
82.9428
84.8514
86.8115
88.8375
90.937
93.1113
95.3546
97.6578
99.9992
102.322
104.45
105.895
40.8437
47.6716
53.6343
58.9376
63.1483
66.4839
69.3377
71.85
74.1006
76.1544
78.0813
79.9383
81.7792
83.6453
85.5626
87.545
89.6001
91.7288
93.9257
96.1806
98.4724
100.746
102.828
104.242
40.2586
46.9311
52.7768
58.021
62.2181
65.5541
68.4032
70.9046
73.1364
75.1603
77.0501
78.8673
80.6677
82.4931
84.3693
86.3102
88.3228
90.4079
92.5599
94.768
97.0128
99.2388
101.277
102.663
39.6992
46.2216
51.9504
57.1372
61.3231
64.6628
67.5079
70.0007
72.2159
74.214
76.0685
77.8479
79.6096
81.3961
83.2329
85.1337
87.1055
89.1488
91.2579
93.4226
95.6222
97.8028
99.8001
101.157
39.1671
45.5433
51.1536
56.2836
60.461
63.808
66.6513
69.1375
71.3386
73.3141
75.1359
76.8796
78.6043
80.3536
82.153
84.0159
85.949
87.9521
90.0202
92.1423
94.2985
96.4356
98.3937
99.7249
38.6654
44.8972
50.3852
55.4575
59.6301
62.9899
65.8321
68.3145
70.5042
72.4597
74.2529
75.9627
77.6526
79.3664
81.1298
82.9562
84.852
86.8171
88.8462
90.9279
93.0426
95.1389
97.0602
98.3659
38.1935
44.2827
49.6432
54.6557
58.8267
62.2036
65.05
67.531
69.7119
71.6503
73.4177
75.0965
76.7531
78.4331
80.1623
81.9539
83.8141
85.7419
87.7327
89.7752
91.8503
93.9069
95.7935
97.0765
37.7563
43.7016
48.927
53.8754
58.0485
61.45
64.3033
66.7859
68.9607
70.8845
72.6292
74.2795
75.9051
77.5528
79.2489
81.0065
82.832
84.7242
86.678
88.6832
90.7199
92.7391
94.5928
95.8545
37.351
43.1527
48.2348
53.1133
57.2913
60.7215
63.5902
66.0781
68.2496
70.1613
71.8857
73.5096
75.106
76.7225
78.386
80.1104
81.9019
83.7598
85.6784
87.6469
89.6468
91.6308
93.454
94.6962
36.9824
42.6371
47.5671
52.3663
56.5503
60.0148
62.9091
65.4055
67.5767
69.4789
71.1853
72.7849
74.3532
75.9395
77.5716
79.2638
81.0226
82.8475
84.7322
86.6662
88.6313
90.5807
92.3754
93.5993
36.6378
42.1495
46.9204
51.6304
55.8202
59.326
62.2554
64.7664
66.9404
68.8356
70.5264
72.1032
73.6443
75.2012
76.8025
78.4631
80.1899
81.9827
83.8349
85.7354
87.6669
89.5842
91.3521
92.5591
36.325
41.6968
46.2964
50.9027
55.0948
58.6496
61.6272
64.1569
66.3379
68.2287
69.9057
71.4614
72.9764
74.5046
76.076
77.7059
79.4016
81.1632
82.9841
84.8524
86.752
88.6387
90.3811
91.5727
36.039
41.2726
45.6907
50.1778
54.3671
57.9795
61.0146
63.5746
65.7663
67.6557
69.3211
70.8568
72.3462
73.8461
75.3875
76.9869
78.652
80.383
82.1734
84.0109
85.8795
87.7373
89.4557
90.6332
35.7845
40.8793
45.1049
49.4524
53.6284
57.3053
60.4091
63.012
65.2213
67.1122
68.7677
70.2848
71.7494
73.2209
74.7329
76.3023
77.9374
79.6386
81.3994
83.207
85.0461
86.8756
88.5717
89.7357
35.5495
40.5075
44.5324
48.7197
52.8689
56.6172
59.8046
62.467
64.6982
66.5944
68.2425
69.7417
71.1816
72.6246
74.1064
75.6452
77.2501
78.9216
80.6533
82.4315
84.2418
86.0444
87.7193
88.8712
35.3395
40.1599
43.9751
47.9764
52.0771
55.8995
59.1872
61.9235
64.1899
66.0962
67.7385
69.2207
70.636
72.05
73.5012
75.0095
76.5844
78.2267
79.9296
81.6791
83.4613
85.238
86.8925
88.0333
35.1362
39.8222
43.4236
47.214
51.2397
55.137
58.5453
61.3735
63.6894
65.6111
67.2503
68.7165
70.1067
71.4907
72.9096
74.3858
75.9299
77.5424
79.2165
80.9372
82.6916
84.4428
86.0781
87.2085
34.9407
39.493
42.876
46.4269
50.3404
54.3053
57.8558
60.7999
63.1841
65.1298
66.7688
68.2189
69.5832
70.9354
72.3212
73.7645
75.2769
76.8596
78.505
80.1968
81.9236
83.6498
85.2663
86.3873
34.7272
39.1505
42.3167
45.6032
49.3611
53.3801
57.0975
60.1884
62.6597
64.6414
66.2841
67.7192
69.0563
70.3753
71.7242
73.1319
74.6112
76.1626
77.7785
79.4408
81.1397
82.8409
84.439
85.5518
34.4868
38.7877
41.7372
44.7319
48.2792
52.3221
56.2324
59.5097
62.0954
64.1311
65.7825
67.2024
68.5104
69.7918
71.1026
72.4724
73.9164
75.4361
77.022
78.654
80.3248
82.0013
83.5818
84.6878
34.1859
38.374
41.114
43.7921
47.0653
51.0943
55.2198
58.7352
61.4722
63.5776
65.2472
66.6526
67.9283
69.1701
70.4362
71.7646
73.171
74.6565
76.2114
77.8113
79.4533
81.1051
82.6684
83.7683
33.8231
37.8955
40.4284
42.7701
45.698
49.6289
53.9971
57.8147
60.7529
62.9556
64.6539
66.0459
67.2869
68.4811
69.7002
70.9817
72.3471
73.7976
75.3199
76.8861
78.4988
80.1265
81.6742
82.7707
33.358
37.3227
39.6573
41.6472
44.1563
47.896
52.4767
56.69
59.9003
62.2324
63.97
65.3511
66.5504
67.6922
68.8537
70.0859
71.4071
72.8183
74.308
75.838
77.4214
79.0265
80.5601
81.6554
32.7986
36.6556
38.7908
40.4052
42.4095
45.8315
50.5895
55.2622
58.8443
61.3587
63.1536
64.5233
65.6762
66.7557
67.8549
69.0251
70.2978
71.672
73.1276
74.6185
76.1725
77.7571
79.2802
80.38
32.1038
35.8607
37.7965
39.0135
40.4236
43.3739
48.2409
53.4398
57.5092
60.2737
62.1466
63.5017
64.5958
65.5946
66.6163
67.7282
68.9491
70.2792
71.7034
73.1512
74.6786
76.2498
77.7692
78.8809
31.3128
34.9604
36.6753
37.4459
38.1414
40.4258
45.3014
51.1015
55.7583
58.8567
60.8416
62.1867
63.206
64.122
65.0543
66.0824
67.2513
68.5489
69.9454
71.3466
72.8512
74.4168
75.9406
77.0758
30.3925
33.9278
35.3946
35.6537
35.4826
36.863
41.6301
48.1187
53.5086
57.0169
59.1376
60.4479
61.3709
62.1377
62.9655
63.9316
65.049
66.3063
67.6879
69.0312
70.5249
72.1114
73.6636
74.847
29.4432
32.8354
33.9913
33.611
32.3243
32.4833
37.0582
44.3108
50.5082
54.4825
56.7376
58.0151
58.7933
59.4641
60.1704
61.0344
62.1212
63.3703
64.7569
66.037
67.5373
69.1721
70.7701
72.0272
28.411
31.6462
32.4297
31.2621
28.5302
27.0487
31.4562
39.5809
46.6682
51.1304
53.5177
54.6524
55.2624
55.6241
56.2238
57.0714
58.1725
59.4299
60.889
62.0921
63.6346
65.3628
67.0389
68.4173
27.4918
30.5308
30.8602
28.7028
24.0363
20.2593
24.7614
33.6394
41.1242
45.9218
48.3126
49.3453
49.643
50.0286
50.6088
51.39
52.6475
54.001
55.6479
56.7505
58.4112
60.3608
62.1754
63.763
26.4632
29.336
29.2067
25.9999
18.8402
9.03538
14.057
25.3368
34.18
38.7928
41.0583
41.2948
41.8272
41.1529
41.8956
42.9192
44.822
46.2693
48.4537
49.5215
51.4361
53.7076
55.6679
57.6291
25.7377
28.4578
27.8875
23.8467
18.911
22.1224
22.1161
18.7679
26.6048
18.8606
20.7266
25.9064
21.1341
25.3757
28.891
29.1125
32.7565
34.5717
38.5432
39.573
42.0321
44.9648
46.9804
49.7351
24.4007
27.041
26.1948
22.8726
24.0125
26.5656
25.5034
21.4952
22.5128
24.2879
11.6235
33.5663
21.8114
9.76998
33.8194
6.32391
23.9489
14.4018
25.5571
28.6335
31.0983
33.7076
34.4867
39.0604
24.0107
27.0276
26.792
23.7638
21.4642
26.3079
23.2
18.7589
14.9997
21.7047
19.0897
26.9972
29.3378
30.8017
32.4279
18.1228
36.8582
11.4672
20.5235
30.9758
30.6186
31.1944
23.5022
37.276
20.2076
14.9386
6.28613
10.9853
7.50816
19.3999
22.8122
23.9345
23.7613
22.785
20.1614
17.7341
16.4324
15.4217
14.7508
14.2658
13.9359
13.726
13.598
13.5228
13.5225
13.5961
13.7227
13.9312
14.2595
14.743
15.4123
16.4227
17.7221
20.1534
22.7883
23.7746
23.9686
22.9207
19.4361
7.92143
5.37535
1.71767
14.2072
19.8585
23.4914
18.778
9.62639
12.7799
12.481
24.5235
28.2919
30.1359
30.7396
30.3663
27.977
24.8957
22.8251
21.352
20.3354
19.6289
19.1489
18.8408
18.652
18.5478
18.5473
18.6487
18.8354
19.1413
19.6193
20.3245
21.3406
22.8145
24.8862
27.9763
30.3818
30.7731
30.2076
28.4229
24.8145
12.3421
9.41735
6.92597
18.1196
23.0252
23.4054
19.4595
9.67936
13.8279
14.1525
27.2556
31.7
33.8436
34.5714
34.6069
32.7757
29.4262
26.7539
24.8418
23.5146
22.6204
22.0304
21.6657
21.4549
21.3476
21.3468
21.4503
21.658
22.0198
22.6074
23.5005
24.8278
26.7418
29.4178
32.7802
34.6306
34.6092
33.9499
31.8042
27.9983
13.1525
10.25
8.12248
18.8722
22.6031
20.3159
17.4012
8.49102
15.2228
16.3447
29.0402
34.4907
36.674
37.2799
37.2972
36.1179
33.0045
29.9839
27.7154
26.1073
25.0431
24.3638
23.9625
23.7448
23.6405
23.6393
23.7387
23.9524
24.35
25.0268
26.0902
27.6995
29.9715
32.9993
36.1273
37.3282
37.3103
36.8367
34.4738
30.653
13.219
17.6527
5.26186
16.6572
17.9039
18.0775
13.0877
14.5621
18.8308
19.4168
30.0004
36.7674
38.7605
39.2425
38.9038
38.1102
35.5693
32.5228
30.0498
28.245
27.0586
26.3292
25.9215
25.7161
25.6225
25.6208
25.7084
25.9088
26.312
27.0388
28.2252
30.0326
32.5114
35.5679
38.1235
38.9376
39.2522
38.9714
36.6016
32.4376
15.4589
19.7033
20.5401
9.63034
5.74661
20.1609
19.5543
21.0108
18.1982
14.8959
33.2185
38.0259
40.2351
40.5097
39.7668
38.9943
37.0743
34.3187
31.8576
30.0078
28.798
28.0856
27.7154
27.5466
27.4737
27.4713
27.5374
27.7001
28.0652
28.7748
29.9854
31.8402
34.3084
37.0783
39.0072
39.783
40.5446
40.2586
38.3527
33.0651
19.4925
14.1622
15.4114
13.8061
12.9009
18.9239
21.0479
19.3895
23.8541
20.7374
35.3874
38.6617
40.9878
40.9869
40.0689
39.0865
37.5728
35.265
33.1002
31.4368
30.3655
29.7652
29.482
29.3713
29.3261
29.3235
29.3608
29.4645
29.7417
30.3389
31.4121
33.0807
35.2586
37.5721
39.1055
40.0461
41.0467
40.8884
38.9698
35.1224
20.5839
14.6198
16.8854
20.395
22.2607
21.3832
23.3296
18.4945
10.6953
25.4322
36.2991
38.8527
40.8591
40.8259
39.763
38.6967
37.3149
35.546
33.901
32.6689
31.9001
31.4944
31.327
31.2772
31.2569
31.254
31.2658
31.308
31.4683
31.8703
32.6387
33.8788
35.5318
37.3119
38.6958
39.7438
40.8173
40.8367
38.8433
36.4926
24.746
14.9899
16.2469
22.1432
21.351
27.2689
18.5078
18.783
17.9704
29.2501
36.7592
38.657
40.556
40.3241
39.4121
38.3676
37.1338
35.9171
34.842
34.087
33.6309
33.4048
33.3217
33.3015
33.2874
33.2844
33.2897
33.3018
33.377
33.5966
34.0526
34.8052
35.8955
37.1066
38.3465
39.3936
40.2529
40.5929
38.5014
37.0827
28.6276
21.564
15.3715
27.4444
22.4978
32.2315
27.2284
18.9137
28.4539
32.2565
38.2649
39.5203
41.2163
40.8102
40.1554
39.126
38.1402
37.2622
36.5616
36.0652
35.7586
35.5867
35.4978
35.4484
35.4106
35.4077
35.4363
35.4774
35.5572
35.7222
36.0211
36.5224
37.2086
38.1163
39.0601
40.1304
40.7754
41.0852
39.7699
37.6494
33.8864
26.544
23.579
31.7053
30.3875
31.4069
31.02
30.1885
34.3066
37.0295
41.1914
42.1566
43.36
42.9453
42.317
41.3804
40.4799
39.735
39.1037
38.6399
38.2982
38.0503
37.87
37.7403
37.6551
37.6522
37.7281
37.8493
38.0201
38.2587
38.5937
39.0496
39.6885
40.4086
41.3632
42.2002
43.0167
43.1392
42.459
40.7722
38.1115
34.2154
34.0689
36.3267
30.546
34.4187
35.3082
37.3538
38.3766
41.9644
44.2817
45.4268
46.1398
45.7881
45.2186
44.3341
43.5324
42.7924
42.1467
41.6182
41.1673
40.7979
40.4991
40.2776
40.1406
40.1378
40.2653
40.4782
40.7676
41.1265
41.5708
42.0878
42.7392
43.4638
44.2826
45.1584
45.7289
46.1358
45.3436
44.4698
42.0297
39.4896
39.4589
40.4037
37.1354
35.8158
39.9308
41.9366
41.8845
45.1435
47.0149
48.1447
48.7536
48.579
48.1085
47.3967
46.7003
46.0223
45.3911
44.8185
44.2928
43.8329
43.449
43.1611
42.9869
42.984
43.1488
43.4286
43.8036
44.2531
44.772
45.3323
45.9666
46.6297
47.3382
48.0384
48.5154
48.7056
48.081
47.0745
45.1945
42.7374
42.6361
44.6975
33.2594
31.3603
43.5444
44.6534
44.63
47.1688
49.1801
50.302
51.0866
51.1074
50.8427
50.3168
49.7636
49.1886
48.615
48.0574
47.5204
47.0326
46.617
46.3013
46.1104
46.1076
46.2893
46.5974
47.0048
47.4838
48.0126
48.5635
49.1293
49.7069
50.245
50.7927
51.0201
51.0521
50.2048
49.1767
47.2055
44.6944
45.6601
43.1003
38.9279
38.3196
45.6349
47.0508
47.3474
48.6522
51.0303
52.2053
53.2068
53.4711
53.3982
53.0494
52.6187
52.1434
51.6405
51.1278
50.6204
50.1473
49.7374
49.4211
49.2283
49.2254
49.4092
49.7181
50.1203
50.5855
51.0856
51.5914
52.09
52.5623
52.9947
53.3412
53.4336
53.1485
52.2489
50.9695
49.1277
47.3897
48.6381
46.5716
34.8454
38.4914
38.884
47.1651
48.4354
50.2062
52.4439
54.1174
55.1846
55.7676
55.8173
55.6132
55.2545
54.8408
54.3845
53.9074
53.4304
52.9795
52.5845
52.2758
52.0858
52.0827
52.2633
52.5646
52.9521
53.3951
53.8652
54.3351
54.7883
55.1977
55.5596
55.7668
55.7275
55.177
54.1428
52.6794
50.6645
50.1688
49.742
47.4685
39.5685
39.2129
44.9446
47.0895
50.8965
51.9803
54.4015
56.1558
57.3742
58.06
58.2121
58.0499
57.7176
57.3123
56.864
56.3959
55.9298
55.49
55.1036
54.7997
54.6121
54.6088
54.7867
55.0827
55.461
55.8926
56.3508
56.812
57.2554
57.6583
57.9929
58.1665
58.0376
57.4149
56.3246
54.8716
53.2191
52.8656
51.6798
45.2955
38.8592
39.056
47.9447
51.83
53.3572
54.896
56.4675
58.3362
59.547
60.2991
60.4963
60.3434
60.0085
59.5886
59.1293
58.6552
58.1894
57.7536
57.3718
57.071
56.8857
56.8825
57.0587
57.3517
57.7256
58.153
58.6107
59.0773
59.5305
59.9471
60.2831
60.4481
60.28
59.6066
58.538
57.0288
55.9412
55.1912
53.5247
49.4289
30.4711
40.2535
47.2187
52.2027
56.7759
57.9942
59.484
60.8197
61.8483
62.442
62.5889
62.4105
62.0697
61.648
61.1927
60.7279
60.2752
59.8545
59.4863
59.1958
59.0178
59.0162
59.1885
59.474
59.8368
60.2521
60.6997
61.1602
61.6121
62.032
62.3732
62.5577
62.427
61.8718
60.9232
59.7443
58.5204
57.5317
53.7016
47.0116
31.7919
24.4306
45.2838
56.5248
59.8493
61.294
62.2299
63.0773
63.8006
64.241
64.3341
64.1649
63.8589
63.4786
63.0649
62.6414
62.2281
61.8433
61.5051
61.2368
61.0731
61.0737
61.2361
61.5029
61.839
62.2216
62.6331
63.0553
63.4675
63.8451
64.145
64.3006
64.1779
63.6726
62.7957
61.5864
59.8702
57.2956
49.7664
43.6647
40.5894
40.7405
43.3011
48.5693
57.6681
60.9102
62.8442
64.0783
64.9278
65.4292
65.58
65.4938
65.2807
64.9934
64.6668
64.3238
63.9833
63.6616
63.3747
63.1437
63.0023
63.004
63.1465
63.3775
63.6637
63.9846
64.3248
64.6682
64.9961
65.2852
65.5003
65.5889
65.4405
64.9408
64.0864
62.8261
60.8248
57.5276
48.0438
42.8941
40.4793
41.282
40.8
47.8464
57.696
61.548
63.6979
64.9931
65.8257
66.2947
66.4485
66.4176
66.289
66.1012
65.8776
65.6353
65.3883
65.1488
64.9294
64.748
64.636
64.6383
64.7529
64.9349
65.154
65.3928
65.6392
65.8814
66.1051
66.2929
66.4207
66.4495
66.2919
65.8188
64.9817
63.6774
61.5066
57.6194
47.7919
39.9935
39.8747
35.632
35.7071
52.185
59.2875
62.661
64.573
65.7571
66.4995
66.8764
66.9919
66.9739
66.8871
66.7601
66.6083
66.4425
66.2707
66.0993
65.9362
65.7961
65.7079
65.7114
65.8044
65.9467
66.1107
66.2827
66.4553
66.6223
66.7753
66.9032
66.9895
67.0049
66.8841
66.5004
65.751
64.5559
62.6221
59.2035
52.0557
35.1486
34.9038
45.9424
40.6497
47.5298
57.651
61.9316
64.3265
65.7594
66.6073
67.0105
67.1431
67.1466
67.0849
66.9878
66.871
66.7431
66.6086
66.4696
66.3301
66.2015
66.1142
66.1192
66.2133
66.345
66.4865
66.6272
66.7635
66.8933
67.012
67.1103
67.1715
67.1652
67.0269
66.6167
65.7638
64.3282
61.9321
57.6607
47.6407
39.9495
45.0743
45.1515
53.4292
60.3969
66.2445
70.6364
74.0744
76.9885
79.6221
82.0712
84.3873
86.6104
88.7822
90.9459
93.1386
95.3865
97.7055
100.104
102.584
105.143
107.769
110.442
113.099
115.531
117.184
44.5399
52.5592
59.3559
65.1133
69.4691
72.8746
75.7719
78.386
80.8019
83.0781
85.2562
87.3799
89.4942
91.6366
93.8335
96.1004
98.4458
100.871
103.374
105.942
108.556
111.153
113.531
115.146
43.9007
51.689
58.3295
64.0012
68.3241
71.7066
74.5925
77.1875
79.5701
81.8068
83.9405
86.0167
88.0819
90.1746
92.3208
94.536
96.8287
99.2005
101.647
104.159
106.714
109.252
111.575
113.154
43.251
50.8274
57.3228
62.9147
67.2102
70.5777
73.456
76.032
78.3828
80.5806
82.6706
84.7002
86.7174
88.7613
90.8581
93.0229
95.264
97.5828
99.9752
102.431
104.929
107.41
109.681
111.223
42.6004
49.9809
56.3406
61.8584
66.1312
69.4887
72.3614
74.9196
77.241
79.4005
81.4476
83.4316
85.4021
87.3987
89.4474
91.5634
93.7547
96.0227
98.3625
100.765
103.207
105.632
107.852
109.36
41.9585
49.156
55.3872
60.8362
65.0903
68.4403
71.3076
73.8492
76.1443
78.2663
80.2715
82.2112
84.1362
86.087
88.0894
90.1582
92.3013
94.5198
96.8093
99.1591
101.548
103.919
106.09
107.565
41.3312
48.3569
54.4654
59.8501
64.0879
67.4324
70.2944
72.8208
75.0924
77.1785
79.143
81.0395
82.9206
84.827
86.7848
88.8082
90.905
93.0762
95.3168
97.616
99.9537
102.273
104.397
105.84
40.7249
47.5872
53.5767
58.9001
63.1228
66.4648
69.3214
71.8347
74.085
76.1378
78.063
79.9181
81.7569
83.6207
85.5354
87.5152
89.5674
91.693
93.8868
96.1384
98.4265
100.696
102.775
104.187
40.1413
46.8477
52.7202
57.9849
62.1941
65.5362
68.3881
70.8902
73.1215
75.1441
77.0321
78.8471
80.6452
82.4682
84.3417
86.2798
88.2896
90.3716
92.5205
94.7256
96.9664
99.1885
101.224
102.607
39.5858
46.1406
51.8954
57.1026
61.3005
64.6462
67.4939
69.9872
72.2017
74.1982
76.0507
77.8277
79.587
81.3708
83.2049
85.103
87.0719
89.1121
91.2183
93.3796
95.5752
97.7519
99.7463
101.101
39.057
45.4644
51.1002
56.2504
60.4398
63.7926
66.6383
69.1248
71.325
73.2987
75.1183
76.8594
78.5814
80.3281
82.1247
83.9848
85.915
87.915
89.9799
92.0987
94.2514
96.3851
98.3402
99.6686
38.561
44.8219
50.334
55.4259
59.6102
62.9758
65.8202
68.3027
70.4912
72.4448
74.2355
75.9427
77.6298
79.3408
81.1014
82.925
84.8177
86.7798
88.8056
90.8845
92.9957
95.0881
97.0065
98.3102
38.0944
44.2107
49.5942
54.6257
58.8083
62.1907
65.0392
67.52
69.6996
71.6357
73.4006
75.0765
76.7302
78.4074
80.1337
81.9225
83.7796
85.7045
87.6923
89.7319
91.8035
93.8567
95.7403
97.021
37.6648
43.6345
48.8812
53.8475
58.0317
61.4385
64.2936
66.776
68.9491
70.8705
72.6125
74.2598
75.8825
77.5272
79.2203
80.975
82.7975
84.6868
86.6381
88.64
90.6736
92.689
94.5405
95.7998
37.2664
43.0903
48.1919
53.0873
57.2761
60.7114
63.5817
66.0691
68.2387
70.1479
71.8693
73.49
75.0834
76.6969
78.3574
80.0789
81.8675
83.7225
85.6384
87.6041
89.6013
91.5814
93.4025
94.6422
36.9067
42.5808
47.528
52.3428
56.5368
60.0061
62.9018
65.3976
67.5667
69.4661
71.1695
72.7658
74.3309
75.9141
77.5433
79.2325
80.9884
82.8105
84.6927
86.6242
88.5862
90.5325
92.325
93.5468
36.5706
42.0992
46.8852
51.6093
55.8086
59.319
62.2495
64.7595
66.9313
68.8235
70.511
72.0843
73.6222
75.176
76.7743
78.432
80.1559
81.946
83.7959
85.6941
87.6229
89.5375
91.3027
92.5081
36.2674
41.6532
46.2656
50.8843
55.0852
58.6443
61.6227
64.1512
66.3298
68.2173
69.8909
71.4431
72.9547
74.4798
76.0481
77.6751
79.3681
81.1271
82.946
84.8127
86.7094
88.5934
90.3335
91.5234
35.9903
41.2354
45.6641
50.162
54.3595
57.9758
61.0114
63.57
65.759
67.6451
69.3068
70.8388
72.3249
73.8215
75.36
76.9564
78.6188
80.3475
82.1362
83.9723
85.8384
87.6934
89.4102
90.5855
35.7447
40.8487
45.0827
49.4395
53.6227
57.3032
60.4073
63.0087
65.2151
67.1024
68.7542
70.2676
71.7287
73.1971
74.7059
76.2724
77.9048
79.6039
81.3633
83.1701
85.0068
86.8338
88.5279
89.6901
35.5182
40.4829
44.5143
48.7092
52.865
56.6165
59.8042
62.4647
64.6929
66.5856
68.2297
69.725
71.1614
72.601
74.0799
75.6159
77.2182
78.8878
80.6184
82.3965
84.2048
86.0047
87.6778
88.8279
35.3153
40.1407
43.9608
47.9682
52.0748
55.9005
59.1884
61.9227
64.1859
66.0883
67.7265
69.205
70.6168
72.0276
73.4755
74.9808
76.5534
78.194
79.8964
81.6464
83.4268
85.2007
86.8534
87.9924
35.1189
39.8081
43.4126
47.2079
51.2389
55.1394
58.5479
61.3741
63.6867
65.6046
67.2398
68.7017
70.0881
71.4685
72.8848
74.3582
75.8997
77.5107
79.1849
80.9071
82.6598
84.408
86.0414
87.1698
34.9285
39.4829
42.8679
46.4226
50.341
54.3094
57.8602
60.8023
63.183
65.1245
66.759
68.2056
69.5664
70.9155
72.2975
73.7375
75.2478
76.8294
78.4754
80.1699
81.8951
83.618
85.2325
86.3519
34.72
39.1443
42.3113
45.6004
49.3629
53.3857
57.104
60.1928
62.6608
64.6386
66.2771
67.7074
69.0404
70.3552
71.702
73.1067
74.583
76.1337
77.7509
79.4173
81.1145
82.8121
84.4082
85.5191
34.4832
38.7843
41.734
44.7307
48.2823
52.3296
56.2412
59.5166
62.0986
64.1296
65.7763
67.1927
68.4973
69.776
71.0817
72.4475
73.8893
75.4086
76.9967
78.6348
80.3037
81.976
83.5544
84.6582
34.1859
38.3735
41.1129
43.7921
47.0695
51.1038
55.2316
58.7455
61.4789
63.5803
65.2456
66.6457
67.9163
69.1529
70.4177
71.7419
73.1446
74.6299
76.1881
77.7969
79.4364
81.083
82.644
83.7415
33.8255
37.8973
40.4292
42.7716
45.7036
49.6408
54.0124
57.8287
60.7629
62.9601
64.6532
66.0413
67.2795
68.4711
69.6825
70.9585
72.3209
73.772
75.2988
76.8776
78.487
80.1081
81.6531
82.7469
33.3632
37.3269
39.6602
41.65
44.1632
47.9106
52.4969
56.7095
59.9157
62.2436
63.976
65.3518
66.5434
67.6788
68.84
70.0645
71.3804
72.7922
74.288
75.8365
77.4149
79.011
80.5415
81.6338
32.8056
36.6617
38.7955
40.4098
42.4183
45.8492
50.6151
55.2883
58.8655
61.3723
63.1614
64.5242
65.6777
66.7522
67.8398
69.0016
70.2681
71.645
73.1084
74.626
76.1725
77.7449
79.2643
80.3607
32.1129
35.8689
37.8031
39.0197
40.4337
43.3954
48.2744
53.4754
57.5387
60.2985
62.1644
63.5167
64.5933
65.5877
66.6094
67.7028
68.9165
70.2479
71.6827
73.1709
74.6865
76.2397
77.7543
78.8623
31.3229
34.9703
36.6837
37.4539
38.1532
40.45
45.3412
51.1474
55.8001
58.8855
60.8624
62.1905
63.2252
64.1234
65.0407
66.0523
67.2047
68.5111
69.9211
71.3839
72.8697
74.4084
75.9262
77.0573
30.4027
33.9379
35.4032
35.661
35.4933
36.89
41.6824
48.1809
53.5629
57.0698
59.1805
60.497
61.3686
62.1464
62.9714
63.8873
64.9947
66.2543
67.6538
69.0951
70.5592
72.1025
73.6464
74.8254
29.4513
32.8439
33.9969
33.6108
32.3174
32.4828
37.092
44.3784
50.5866
54.5372
56.7845
58.0124
58.8602
59.4695
60.1618
60.9893
62.0195
63.2988
64.7053
66.1452
67.5974
69.1619
70.7485
72.0013
28.4116
31.6452
32.4183
31.2242
28.4377
26.9024
31.415
39.6653
46.7705
51.2642
53.6339
54.8143
55.2463
55.6949
56.2723
56.9808
58.0511
59.3152
60.8005
62.2523
63.7324
65.3475
67.0055
68.3805
27.4812
30.515
30.8143
28.5624
23.612
19.311
24.1768
33.596
41.3368
46.0607
48.4873
49.2749
49.9066
50.0991
50.6284
51.4026
52.35
53.832
55.4807
57.0154
58.5897
60.339
62.1228
63.7107
26.4344
29.2831
29.0585
25.5601
17.4142
1.45197
12.4766
25.7459
34.0758
39.4148
41.5356
42.5288
41.4985
42.0372
42.2403
43.2216
44.3634
45.9513
48.1132
49.7601
51.7466
53.6876
55.5745
57.5492
25.7278
28.4373
27.8051
23.3101
13.3581
9.80723
16.5873
21.5206
19.6037
21.7591
24.4768
21.226
26.1821
25.4017
28.4788
32.739
31.9684
34.195
37.7805
39.4943
42.775
45.0292
46.8262
49.6337
24.4997
27.1737
26.3016
21.3797
11.5667
12.6542
24.9938
28.5942
26.5907
16.36
12.9809
17.3221
15.6943
29.5406
16.4292
23.4619
20.2403
15.1419
23.2317
23.4313
32.451
34.2575
34.2093
38.9748
24.2482
27.3354
27.2221
23.9754
18.7741
19.3963
22.5856
26.5912
29.2396
23.8072
28.5191
32.9417
29.1796
33.5213
27.1353
36.1836
33.897
17.41
23.9706
35.6262
32.6601
33.0125
23.7407
38.027
45.0136
43.5165
42.6313
41.1579
40.2192
38.7984
37.8266
36.4683
35.4741
34.1853
33.1948
32.0289
31.0774
30.0707
29.2207
28.3827
27.6811
27.0638
26.6098
26.3432
26.3434
26.6125
27.07
27.6897
28.3954
29.2406
30.0808
31.1209
32.0712
33.2393
34.2359
35.5354
36.5391
37.9036
38.8834
40.3126
41.2592
42.7428
43.6347
45.1429
53.4671
52.069
51.1981
49.8615
48.9372
47.6771
46.7381
45.5651
44.6308
43.5415
42.6154
41.6316
40.7794
39.923
39.1718
38.4734
37.8724
37.3615
36.9808
36.7616
36.762
36.9818
37.3638
37.8759
38.479
39.1793
39.9358
40.7916
41.6539
42.6409
43.5752
44.6671
45.6098
46.7873
47.7343
49.0003
49.9316
51.2769
52.1513
53.5595
60.5129
59.1473
58.2614
56.9621
56.0281
54.8131
53.8715
52.755
51.8304
50.8062
49.899
48.9668
48.1329
47.3177
46.5885
45.9267
45.3597
44.8866
44.5389
44.3424
44.343
44.5397
44.8884
45.3625
45.9313
46.5947
47.329
48.1449
48.9851
49.9208
50.8356
51.862
52.7942
53.9131
54.8632
56.0811
57.0233
58.3277
59.2183
60.5923
66.3607
64.9663
64.0165
62.6948
61.7087
60.4811
59.4958
58.379
57.4321
56.4299
55.5385
54.6307
53.8063
53.011
52.2906
51.6453
51.1017
50.6565
50.3358
50.1581
50.1587
50.3367
50.6584
51.1046
51.6498
52.2973
53.0215
53.8194
54.6485
55.559
56.4564
57.4604
58.4142
59.5321
60.5258
61.7541
62.7495
64.0726
65.0296
66.4292
70.725
69.2803
68.2615
66.9032
65.8614
64.6136
63.5882
62.462
61.4885
60.4892
59.5981
58.7274
57.9315
57.1657
56.4603
55.8266
55.3022
54.8796
54.5791
54.4146
54.4151
54.5803
54.8816
55.3053
55.8313
56.4673
57.1757
57.944
58.7434
59.6161
60.5117
61.5122
62.4915
63.6182
64.6511
65.8988
66.9497
68.3079
69.3351
70.7829
74.1556
72.6772
71.609
70.2312
69.1468
67.8881
66.8291
65.6954
64.6978
63.6922
62.7868
61.9155
61.1279
60.3957
59.725
59.103
58.5933
58.1878
57.9016
57.7457
57.7462
57.903
58.19
58.5964
59.1076
59.7316
60.4048
61.1389
61.9293
62.8021
63.7111
64.7179
65.7204
66.8546
67.92
69.1785
70.2711
71.6484
72.7241
74.2054
77.0568
75.5516
74.4367
73.0431
71.9216
70.6526
69.5661
68.4231
67.4069
66.3936
65.4762
64.5988
63.8034
63.0699
62.4117
61.8089
61.3062
60.9112
60.6333
60.4823
60.4827
60.635
60.9135
61.3092
61.8131
62.4177
63.0779
63.8131
64.6108
65.4896
66.4102
67.4246
68.4453
69.5887
70.6811
71.9496
73.0787
74.4711
75.5932
77.1006
79.6799
78.1424
76.9901
75.575
74.4239
73.1365
72.0256
70.8671
69.8312
68.8052
67.8731
66.9859
66.1803
65.4388
64.7729
64.17
63.6713
63.279
63.0036
62.8539
62.8544
63.0057
63.2813
63.6741
64.1739
64.7783
65.446
66.1889
66.9968
67.8854
68.8204
69.8475
70.8874
72.0462
73.1626
74.4492
75.6074
77.0209
78.1804
79.7191
82.1293
80.5532
79.373
77.9308
76.7527
75.4432
74.3075
73.1301
72.0726
71.0296
70.079
69.1765
68.3552
67.5999
66.9208
66.3086
65.8068
65.413
65.1361
64.9855
64.9859
65.1386
65.4156
65.8097
66.3123
66.9258
67.6066
68.3633
69.1867
70.0906
71.0439
72.0878
73.1491
74.3266
75.4675
76.7759
77.9609
79.4009
80.5884
82.1646
84.4546
82.838
81.6332
80.1604
78.9556
77.6212
76.46
75.2606
74.1797
73.1166
72.1449
71.223
70.3813
69.6047
68.8998
68.2878
67.7763
67.3773
67.096
66.9426
66.943
67.0989
67.3801
67.7794
68.2916
68.9047
69.6112
70.3891
71.2328
72.1559
73.1302
74.1942
75.2787
76.478
77.6442
78.9772
80.1886
81.6586
82.8711
84.4864
86.692
85.0333
83.8055
82.2997
81.0686
79.7068
78.519
77.2951
76.1891
75.1031
74.1079
73.1642
72.3001
71.501
70.7711
70.1483
69.6276
69.2194
68.9315
68.7741
68.7745
68.9348
69.2226
69.631
70.1523
70.776
71.5074
72.3078
73.1738
74.1188
75.1164
76.2031
77.3125
78.5363
79.7288
81.0888
82.3265
83.8289
85.0647
86.7209
88.8809
87.1775
85.9286
84.3876
83.1306
81.7393
80.5245
79.2738
78.1412
77.0298
76.0086
75.0391
74.1475
73.3178
72.5821
71.9402
71.4077
70.9883
70.6919
70.5292
70.5297
70.6956
70.9919
71.4115
71.9446
72.5873
73.3243
74.1553
75.0488
76.0194
77.043
78.1551
79.2909
80.5412
81.7606
83.15
84.4135
85.9505
87.2078
88.9074
91.0623
89.3131
88.0432
86.466
85.1825
83.7606
82.5178
81.2393
80.0792
78.9414
77.8935
76.8978
75.9787
75.1207
74.3688
73.7108
73.1623
72.73
72.4234
72.2546
72.255
72.4275
72.7342
73.1667
73.7157
74.3745
75.1276
75.9869
76.9078
77.9046
78.9547
80.0931
81.2563
82.5344
83.7815
85.2015
86.4913
88.0642
89.3428
91.0871
93.2724
91.4761
90.1844
88.5697
87.2589
85.8049
84.533
83.2251
82.0359
80.8698
79.7929
78.7682
77.8177
76.946
76.17
75.4947
74.9282
74.4809
74.1626
73.9866
73.9871
74.167
74.4855
74.9332
75.5003
76.1765
76.9536
77.8264
78.7786
79.8045
80.8834
82.0502
83.2423
84.5497
85.8259
87.2777
88.5949
90.2049
91.5056
93.296
95.5373
93.6928
92.3783
90.7252
89.3859
87.8988
86.5969
85.2587
84.0398
82.8445
81.7384
80.6844
79.7029
78.8116
78.0126
77.3162
76.7301
76.2653
75.9335
75.7494
75.75
75.9384
76.2705
76.7356
77.3224
78.0196
78.8199
79.7123
80.6954
81.7505
82.8587
84.0544
85.2762
86.614
87.9201
89.405
90.7506
92.3988
93.7227
95.5606
97.8727
95.9789
94.6401
92.9473
91.5782
90.0569
88.7236
87.3537
86.1038
84.8783
83.7418
82.6575
81.6496
80.7337
79.9105
79.1907
78.5825
78.0982
77.7508
77.5572
77.5578
77.7559
78.1037
78.5887
79.1976
79.9184
80.7427
81.6597
82.6692
83.7546
84.8932
86.1192
87.3719
88.7414
90.0788
91.5979
92.9734
94.6611
96.0095
97.8961
100.288
98.3433
96.9789
95.2454
93.8453
92.2884
90.9228
89.5201
88.2381
86.9812
85.8131
84.6973
83.665
82.7212
81.8726
81.1269
80.4943
79.9875
79.6221
79.4174
79.4182
79.6275
79.9935
80.5009
81.1345
81.8812
82.731
83.676
84.7099
85.8267
86.9968
88.2544
89.539
90.9414
92.3111
93.8659
95.2723
97.0008
98.3751
100.312
102.784
100.788
99.3976
97.6222
96.19
94.5967
93.1979
91.7618
90.447
89.1578
87.9578
86.8104
85.7513
84.7787
83.9025
83.1289
82.4692
81.9372
81.5507
81.3331
81.3338
81.5564
81.9436
82.4765
83.1372
83.9119
84.7893
85.7632
86.8239
87.9725
89.1745
90.464
91.7817
93.2175
94.6206
96.2118
97.6504
99.4209
100.822
102.81
105.359
103.311
101.893
100.075
98.6105
96.98
95.5473
94.0766
92.729
91.4072
90.1752
88.9961
87.9087
86.9064
86.001
85.1978
84.5086
83.948
83.5371
83.3039
83.3046
83.543
83.9549
84.5164
85.2068
86.0113
86.9179
87.9216
89.0107
90.1907
91.425
92.7474
94.0977
95.5686
97.0051
98.6336
100.105
101.918
103.347
105.386
108.003
105.903
104.457
102.596
101.099
99.4309
97.9643
96.4593
95.0784
93.7241
92.46
91.2497
90.1328
89.1003
88.1651
87.3311
86.61
86.0181
85.5785
85.3262
85.3271
85.5844
86.0252
86.6187
87.3407
88.1759
89.1128
90.1466
91.2653
92.4768
93.7432
95.098
96.4821
97.9868
99.458
101.124
102.628
104.484
105.94
108.032