/*--------------------------------*- C++ -*----------------------------------*\
  =========                 |
  \\      /  F ield         | OpenFOAM: The Open Source CFD Toolbox
   \\    /   O peration     | Website:  https://openfoam.org
    \\  /    A nd           | Version:  6
     \\/     M anipulation  |
\*---------------------------------------------------------------------------*/
FoamFile
{
    version     2.0;
    format      ascii;
    class       volVectorField;
    location    "39";
    object      wallShearStress;
}
// * * * * * * * * * * * * * * * * * * * * * * * * * * * * * * * * * * * * * //

dimensions      [0 2 -2 0 0 0 0];

internalField   uniform (0 0 0);

boundaryField
{
    inlet
    {
        type            calculated;
        value           uniform (0 0 0);
    }
    outlet
    {
        type            calculated;
        value           uniform (0 0 0);
    }
    roughCylinder
    {
        type            calculated;
        value           nonuniform List<vector> 
3840
(
(-0.000381044 -0.000550903 -0.000232305)
(-0.000329572 -0.000501528 -1.74354e-05)
(-0.000364943 -0.000578603 4.09622e-05)
(-0.000451887 -0.000683707 0.000109893)
(-0.000544173 -0.000755006 0.000175806)
(-0.000635088 -0.000794597 0.000231489)
(-0.000717612 -0.000807978 0.000274002)
(-0.000789605 -0.000809012 0.000303801)
(-0.000851177 -0.000812044 0.000323481)
(-0.000899843 -0.000820569 0.000332787)
(-0.000940045 -0.000836613 0.000333623)
(-0.000974152 -0.00085869 0.000328557)
(-0.00100569 -0.000885129 0.000319806)
(-0.00103766 -0.000914763 0.000308843)
(-0.00107169 -0.000946922 0.000296278)
(-0.00110839 -0.000981332 0.000282216)
(-0.00114786 -0.00101791 0.00026655)
(-0.00118977 -0.0010563 0.000248977)
(-0.00123358 -0.00109597 0.000228918)
(-0.00127841 -0.00113601 0.000205365)
(-0.00132285 -0.00117505 0.000176483)
(-0.00136469 -0.00121106 0.000139681)
(-0.0013996 -0.00124101 9.09964e-05)
(-0.00142061 -0.00125951 3.13662e-05)
(-0.000412612 -0.000544238 -0.000231351)
(-0.000353595 -0.00049315 -2.17696e-05)
(-0.000383927 -0.000561942 3.30721e-05)
(-0.000472786 -0.000666992 9.88941e-05)
(-0.000567498 -0.000740533 0.000163084)
(-0.000661352 -0.000783391 0.000217934)
(-0.000747837 -0.000801285 0.000260629)
(-0.000825107 -0.000807304 0.000292055)
(-0.000891944 -0.000812178 0.000313774)
(-0.000943205 -0.000818698 0.000323797)
(-0.000985192 -0.000833469 0.000324918)
(-0.00102126 -0.000854824 0.000320074)
(-0.00105474 -0.000880855 0.000311507)
(-0.00108848 -0.000910083 0.000300714)
(-0.00112432 -0.000941857 0.000288404)
(-0.00116305 -0.000975989 0.000274744)
(-0.00120456 -0.00101217 0.000259566)
(-0.00124856 -0.00105013 0.000242576)
(-0.00129445 -0.00108928 0.000223178)
(-0.00134132 -0.00112877 0.000200365)
(-0.00138774 -0.00116725 0.000172311)
(-0.00143139 -0.00120271 0.000136456)
(-0.00146778 -0.00123221 8.8913e-05)
(-0.00148967 -0.00125041 3.06414e-05)
(-0.000431305 -0.000513438 -0.000215645)
(-0.000373391 -0.00047431 -2.67286e-05)
(-0.000401272 -0.000539303 2.4645e-05)
(-0.000491756 -0.000643719 8.70256e-05)
(-0.000588808 -0.000719371 0.000149322)
(-0.000685591 -0.000765683 0.000203446)
(-0.000776633 -0.000788805 0.000246792)
(-0.000859221 -0.000799863 0.000279803)
(-0.000930611 -0.000806902 0.000302922)
(-0.000985243 -0.000811625 0.000313643)
(-0.00102947 -0.000825205 0.000315324)
(-0.00106755 -0.000845534 0.000310734)
(-0.00110282 -0.00087075 0.000302373)
(-0.0011385 -0.000899435 0.000291864)
(-0.00117632 -0.00093072 0.000279919)
(-0.00121685 -0.000964161 0.000266674)
(-0.00126031 -0.000999674 0.000252039)
(-0.00130629 -0.00103689 0.000235683)
(-0.0013542 -0.00107527 0.000217012)
(-0.00140304 -0.00111393 0.000195001)
(-0.00145133 -0.00115157 0.000167836)
(-0.00149667 -0.00118625 0.000132996)
(-0.00153446 -0.0012151 8.66805e-05)
(-0.00155716 -0.00123287 2.98656e-05)
(-0.000463907 -0.000496603 -0.000203033)
(-0.000392661 -0.000453457 -3.19583e-05)
(-0.000414591 -0.000511167 1.58136e-05)
(-0.000505898 -0.000614188 7.43869e-05)
(-0.000605265 -0.000692069 0.000134581)
(-0.000705762 -0.000742949 0.000188111)
(-0.000801393 -0.000771466 0.000232188)
(-0.000888841 -0.000787033 0.000266592)
(-0.000964297 -0.000795904 0.000290674)
(-0.00102425 -0.000801083 0.000302773)
(-0.00107052 -0.000812585 0.000304948)
(-0.00111071 -0.000831641 0.000300701)
(-0.00114813 -0.000856053 0.000292724)
(-0.00118565 -0.0008839 0.000282543)
(-0.0012252 -0.000914335 0.000270983)
(-0.00126776 -0.000947112 0.000258282)
(-0.00131314 -0.000981801 0.000244255)
(-0.00136105 -0.00101812 0.000228597)
(-0.0014108 -0.00105549 0.000210686)
(-0.00146145 -0.00109309 0.00018951)
(-0.00151143 -0.00112967 0.000163264)
(-0.0015583 -0.00116335 0.000129465)
(-0.00159734 -0.00119137 8.44042e-05)
(-0.00162077 -0.00120861 2.9076e-05)
(-0.00045194 -0.000434471 -0.000168029)
(-0.000411432 -0.000428683 -3.78219e-05)
(-0.000423904 -0.000479212 6.77067e-06)
(-0.000514932 -0.000579585 6.13111e-05)
(-0.000616583 -0.000659731 0.000119122)
(-0.000720081 -0.00071447 0.000171664)
(-0.000820309 -0.000748403 0.000216336)
(-0.000912774 -0.000768516 0.000252097)
(-0.000993214 -0.000779948 0.000277381)
(-0.0010576 -0.000785705 0.000290651)
(-0.00110762 -0.00079531 0.00029371)
(-0.00115018 -0.000813014 0.00029005)
(-0.00118953 -0.000836055 0.000282475)
(-0.00122908 -0.000862965 0.000272776)
(-0.00127069 -0.000892605 0.000261768)
(-0.00131487 -0.000924258 0.000249607)
(-0.00136199 -0.000957853 0.000236238)
(-0.0014116 -0.000992979 0.000221311)
(-0.00146309 -0.00102914 0.000204215)
(-0.00151537 -0.00106547 0.000183912)
(-0.00156688 -0.00110076 0.000158614)
(-0.00161512 -0.00113325 0.00012588)
(-0.00165529 -0.00116028 8.20964e-05)
(-0.00167934 -0.00117688 2.82771e-05)
(-0.000583675 -0.000498869 -0.000185271)
(-0.00042273 -0.000399955 -4.24567e-05)
(-0.000427472 -0.000442293 -2.08221e-06)
(-0.000517385 -0.000540141 4.77688e-05)
(-0.000620763 -0.000622058 0.000102739)
(-0.000728388 -0.000681677 0.000154246)
(-0.000833266 -0.000720766 0.000199293)
(-0.000930385 -0.000744794 0.000236161)
(-0.00101487 -0.000757938 0.000262447)
(-0.00108503 -0.00076567 0.000277205)
(-0.00113997 -0.000774261 0.000281487)
(-0.00118504 -0.000789529 0.000278543)
(-0.00122698 -0.000811371 0.000271671)
(-0.00126851 -0.000836977 0.000262543)
(-0.0013117 -0.00086525 0.000252092)
(-0.00135791 -0.00089588 0.000240652)
(-0.00140679 -0.000928252 0.000228028)
(-0.00145812 -0.000962079 0.000213911)
(-0.00151112 -0.000996761 0.000197659)
(-0.00156484 -0.00103158 0.000178255)
(-0.00161767 -0.00106538 0.000153924)
(-0.00166709 -0.00109645 0.000122268)
(-0.00170822 -0.0011223 7.97752e-05)
(-0.0017328 -0.00113818 2.74749e-05)
(-0.00055455 -0.000422408 -0.000148068)
(-0.000431837 -0.000368997 -4.67288e-05)
(-0.000426262 -0.000403702 -1.09837e-05)
(-0.000513109 -0.000497454 3.39877e-05)
(-0.000618479 -0.000581392 8.57473e-05)
(-0.000728609 -0.000644238 0.000135557)
(-0.00083789 -0.000687994 0.000180602)
(-0.000940047 -0.00071593 0.000218441)
(-0.00103064 -0.00073217 0.000246264)
(-0.00110497 -0.000740555 0.00026214)
(-0.0011655 -0.000749405 0.000267906)
(-0.00121519 -0.000762967 0.000266222)
(-0.00125939 -0.00078235 0.000260116)
(-0.00130319 -0.000806441 0.000251771)
(-0.00134871 -0.000833589 0.000242138)
(-0.00139632 -0.00086263 0.000231402)
(-0.00144672 -0.000893487 0.000219576)
(-0.00149942 -0.000925682 0.000206299)
(-0.00155385 -0.000958764 0.000190955)
(-0.00160883 -0.000991901 0.000172492)
(-0.00166281 -0.00102403 0.000149157)
(-0.00171325 -0.00105353 0.000118603)
(-0.00175521 -0.00107807 7.7425e-05)
(-0.00178019 -0.00109314 2.66644e-05)
(-0.000496237 -0.000335339 -0.000108428)
(-0.000425951 -0.000327482 -5.00472e-05)
(-0.00041711 -0.000361625 -1.92877e-05)
(-0.000500372 -0.000451252 2.01272e-05)
(-0.000605893 -0.000535558 6.78598e-05)
(-0.000720191 -0.000603075 0.000115701)
(-0.000834302 -0.000651546 0.000160404)
(-0.000941709 -0.00068319 0.000198975)
(-0.00103628 -0.00070082 0.00022779)
(-0.00111746 -0.000711514 0.000245556)
(-0.00118314 -0.000720441 0.000252829)
(-0.00123751 -0.000732861 0.000252558)
(-0.00128613 -0.000750683 0.000247826)
(-0.00133247 -0.000772774 0.000240482)
(-0.00137945 -0.000797818 0.000231642)
(-0.0014292 -0.000825419 0.000221853)
(-0.00148125 -0.000854652 0.000210939)
(-0.00153546 -0.000885191 0.000198603)
(-0.00159101 -0.000916409 0.000184192)
(-0.00164702 -0.000947658 0.000166696)
(-0.00170191 -0.000977902 0.000144371)
(-0.00175314 -0.00100561 0.000114923)
(-0.00179573 -0.00102868 7.50676e-05)
(-0.001821 -0.00104289 2.58538e-05)
(-0.000519652 -0.000310326 -9.14294e-05)
(-0.000421019 -0.000290317 -5.31415e-05)
(-0.000401573 -0.000318811 -2.7292e-05)
(-0.000478783 -0.000402504 6.43447e-06)
(-0.000585719 -0.00048829 4.96227e-05)
(-0.000701294 -0.000557925 9.45256e-05)
(-0.000819485 -0.000610332 0.000138224)
(-0.000932062 -0.000645424 0.000177142)
(-0.0010346 -0.000666946 0.000207672)
(-0.00112031 -0.000678157 0.00022692)
(-0.001192 -0.000687563 0.000236115)
(-0.0012518 -0.000699441 0.00023763)
(-0.00130409 -0.000715584 0.00023432)
(-0.00135367 -0.000735869 0.000228276)
(-0.0014038 -0.000759465 0.000220691)
(-0.00145494 -0.000784981 0.000211874)
(-0.00150834 -0.000812295 0.000201954)
(-0.00156359 -0.000840821 0.000190602)
(-0.00162023 -0.000870129 0.000177215)
(-0.0016771 -0.000899401 0.000160741)
(-0.00173273 -0.000927692 0.00013947)
(-0.00178466 -0.000953585 0.000111171)
(-0.00182783 -0.000975149 7.26753e-05)
(-0.00185318 -0.000988427 2.50331e-05)
(-0.000455157 -0.000239886 -6.0297e-05)
(-0.000406996 -0.000249053 -5.6147e-05)
(-0.000378663 -0.000275445 -3.42242e-05)
(-0.000447812 -0.000351878 -6.74768e-06)
(-0.000551498 -0.000435397 3.08317e-05)
(-0.000671016 -0.000509277 7.224e-05)
(-0.000794202 -0.00056615 0.000114387)
(-0.000913279 -0.00060536 0.000153451)
(-0.0010195 -0.000627746 0.000184689)
(-0.00111363 -0.000641617 0.000206251)
(-0.00119143 -0.000651294 0.0002176)
(-0.00125622 -0.000662231 0.000221085)
(-0.00131336 -0.000677228 0.000219632)
(-0.00136626 -0.000695745 0.000215103)
(-0.00141798 -0.000717017 0.000208723)
(-0.00147164 -0.000740984 0.000201227)
(-0.00152671 -0.000766479 0.000192489)
(-0.00158329 -0.000793133 0.000182277)
(-0.00164059 -0.000820309 0.000169961)
(-0.00169796 -0.000847469 0.000154561)
(-0.00175397 -0.000873706 0.000134388)
(-0.00180625 -0.000897709 0.000107279)
(-0.00184966 -0.000917707 7.01937e-05)
(-0.00187493 -0.000929987 2.41831e-05)
(-0.000475484 -0.000217772 -5.05624e-05)
(-0.000379944 -0.000208908 -5.64509e-05)
(-0.000345607 -0.000230267 -3.95271e-05)
(-0.00040522 -0.000298871 -1.87e-05)
(-0.000509805 -0.000383225 1.24395e-05)
(-0.000628422 -0.000457524 4.90624e-05)
(-0.000755149 -0.000517771 8.86482e-05)
(-0.000879033 -0.000559993 0.000126997)
(-0.00099605 -0.000587551 0.000159895)
(-0.00109531 -0.000601786 0.000183169)
(-0.00117999 -0.000611849 0.000197018)
(-0.00125132 -0.000622395 0.000203022)
(-0.00131254 -0.000635618 0.000203563)
(-0.00136895 -0.000652289 0.000200821)
(-0.00142443 -0.000672165 0.00019616)
(-0.00147915 -0.000693714 0.000189931)
(-0.00153516 -0.000716967 0.000182425)
(-0.00159225 -0.000741305 0.000173387)
(-0.00165016 -0.000766339 0.00016226)
(-0.00170779 -0.000791303 0.000148013)
(-0.00176386 -0.000815399 0.000129006)
(-0.0018162 -0.000837459 0.000103156)
(-0.00185963 -0.000855847 6.75664e-05)
(-0.00188465 -0.000867071 2.32847e-05)
(-0.000434502 -0.00017128 -3.80618e-05)
(-0.000351784 -0.000174848 -5.61968e-05)
(-0.000307826 -0.000187797 -4.34357e-05)
(-0.000354418 -0.000246794 -2.89958e-05)
(-0.000449538 -0.000324208 -5.18877e-06)
(-0.000571929 -0.000402307 2.55722e-05)
(-0.000703532 -0.000466921 6.16073e-05)
(-0.000835973 -0.000514536 9.90154e-05)
(-0.000955592 -0.000542293 0.000131991)
(-0.00106528 -0.000559749 0.000157784)
(-0.00115755 -0.000570244 0.000174407)
(-0.00123455 -0.000579645 0.000183066)
(-0.00130165 -0.000591693 0.000186185)
(-0.001362 -0.000606477 0.000185546)
(-0.00141871 -0.000623593 0.000182466)
(-0.0014763 -0.000643452 0.000177933)
(-0.001534 -0.000664716 0.000171895)
(-0.00159221 -0.000686997 0.000164218)
(-0.00165023 -0.00070967 0.00015432)
(-0.00170772 -0.000732321 0.000141271)
(-0.00176349 -0.000754195 0.000123465)
(-0.00181552 -0.00077423 9.89051e-05)
(-0.00185864 -0.00079093 6.48568e-05)
(-0.00188325 -0.000801073 2.23598e-05)
(-0.000345607 -0.000117235 -2.03941e-05)
(-0.000311759 -0.000137863 -5.47802e-05)
(-0.00026195 -0.000146725 -4.56571e-05)
(-0.000289702 -0.000191897 -3.60008e-05)
(-0.000385544 -0.000269178 -2.09511e-05)
(-0.000502477 -0.000344616 2.55806e-06)
(-0.000636644 -0.000412328 3.36405e-05)
(-0.000772178 -0.00046239 6.8524e-05)
(-0.000906647 -0.000497686 0.000102537)
(-0.00102202 -0.000515692 0.000130028)
(-0.00112208 -0.000526552 0.000149586)
(-0.0012071 -0.000535647 0.000161508)
(-0.00127884 -0.000545658 0.000167321)
(-0.00134317 -0.000558346 0.000169071)
(-0.00140474 -0.000574091 0.000168268)
(-0.00146303 -0.000591176 0.000165332)
(-0.00152123 -0.000609873 0.000160778)
(-0.0015794 -0.000629587 0.000154471)
(-0.00163756 -0.000649963 0.00014593)
(-0.00169469 -0.000670286 0.000134161)
(-0.00174985 -0.00068991 0.000117621)
(-0.00180129 -0.000707912 9.44203e-05)
(-0.00184391 -0.000722923 6.20006e-05)
(-0.00186791 -0.000731968 2.13869e-05)
(-0.000273536 -7.87527e-05 -8.66333e-06)
(-0.000258362 -0.000102518 -5.15523e-05)
(-0.000210347 -0.000109106 -4.52944e-05)
(-0.000221846 -0.000141214 -3.96843e-05)
(-0.000296032 -0.00020317 -3.22285e-05)
(-0.000418159 -0.000283055 -1.81537e-05)
(-0.000555893 -0.000354863 6.03079e-06)
(-0.000703078 -0.000412946 3.77199e-05)
(-0.000837198 -0.000447671 7.05662e-05)
(-0.000965188 -0.000470242 0.000100238)
(-0.00107451 -0.000482191 0.000122915)
(-0.00116574 -0.000490034 0.000138066)
(-0.00124459 -0.000498869 0.000147169)
(-0.00131365 -0.000509549 0.000151662)
(-0.00137583 -0.000522019 0.000152847)
(-0.0014376 -0.00053734 0.000152031)
(-0.00149772 -0.000553982 0.000149265)
(-0.00155692 -0.000571554 0.000144553)
(-0.0016146 -0.000589449 0.000137398)
(-0.00167092 -0.000607374 0.00012694)
(-0.00172508 -0.000624728 0.000111686)
(-0.00177552 -0.000640651 8.98573e-05)
(-0.00181727 -0.000653938 5.90929e-05)
(-0.00184051 -0.000661897 2.03991e-05)
(-0.00019154 -4.64895e-05 4.06013e-08)
(-0.000197287 -7.13037e-05 -4.72723e-05)
(-0.000154883 -7.57643e-05 -4.24275e-05)
(-0.000134384 -8.38253e-05 -3.3394e-05)
(-0.000214327 -0.000145837 -3.84588e-05)
(-0.000321579 -0.000217826 -3.51118e-05)
(-0.000460659 -0.000293529 -1.94309e-05)
(-0.000606521 -0.000353003 6.65398e-06)
(-0.000761322 -0.000399754 3.83743e-05)
(-0.000894583 -0.000423716 6.89453e-05)
(-0.00101211 -0.000436694 9.44616e-05)
(-0.00111286 -0.000444819 0.000113291)
(-0.00119669 -0.00045156 0.000125632)
(-0.00127005 -0.000459961 0.000133047)
(-0.00133869 -0.000471239 0.000137085)
(-0.00140064 -0.000483467 0.000138198)
(-0.00146065 -0.000497282 0.000137162)
(-0.00151912 -0.000512118 0.000134012)
(-0.00157649 -0.000527693 0.00012838)
(-0.0016318 -0.000543298 0.00011932)
(-0.00168463 -0.000558421 0.000105417)
(-0.00173382 -0.000572336 8.50332e-05)
(-0.00177453 -0.000583951 5.6022e-05)
(-0.00179679 -0.000590844 1.93578e-05)
(-7.68537e-05 -1.53402e-05 7.82772e-06)
(-0.000116075 -3.78124e-05 -3.68099e-05)
(-9.75934e-05 -4.58802e-05 -3.70207e-05)
(-7.92395e-05 -4.94933e-05 -2.88071e-05)
(-9.69867e-05 -6.75426e-05 -2.78483e-05)
(-0.000213164 -0.000147477 -4.21039e-05)
(-0.00035066 -0.000225867 -3.91582e-05)
(-0.0005142 -0.000299484 -2.2104e-05)
(-0.000661314 -0.0003442 6.20287e-06)
(-0.000809649 -0.000375825 3.71678e-05)
(-0.000937632 -0.000391656 6.51177e-05)
(-0.00104444 -0.000399154 8.71348e-05)
(-0.00113644 -0.00040524 0.000103092)
(-0.00121538 -0.000411848 0.00011371)
(-0.00128332 -0.000419409 0.000120042)
(-0.00134959 -0.000429966 0.000123672)
(-0.00141196 -0.000441815 0.000124741)
(-0.00147159 -0.000454603 0.000123427)
(-0.00152782 -0.00046771 0.000119327)
(-0.0015816 -0.000480997 0.000111677)
(-0.00163268 -0.000493946 9.91265e-05)
(-0.00168016 -0.000505877 8.01803e-05)
(-0.00171941 -0.000515832 5.29291e-05)
(-0.00174056 -0.000521721 1.83116e-05)
(-7.4433e-06 3.92904e-07 8.74952e-06)
(-2.55719e-05 -7.34232e-06 -1.22788e-05)
(-3.23695e-05 -1.53152e-05 -2.07037e-05)
(-5.1623e-05 -3.57835e-05 -3.1825e-05)
(-4.98963e-05 -3.94968e-05 -2.3283e-05)
(-0.000101449 -7.44833e-05 -3.18548e-05)
(-0.000236746 -0.000154273 -4.86395e-05)
(-0.00038365 -0.000225757 -4.41773e-05)
(-0.000562059 -0.00029254 -2.29085e-05)
(-0.000712075 -0.00032674 6.35756e-06)
(-0.000847429 -0.000345575 3.55672e-05)
(-0.000964812 -0.000355157 6.05557e-05)
(-0.00106138 -0.000359822 7.96523e-05)
(-0.00114433 -0.000364405 9.33464e-05)
(-0.00122096 -0.000371415 0.000102942)
(-0.00128649 -0.000378748 0.00010874)
(-0.0013478 -0.000387663 0.00011173)
(-0.00140568 -0.000397667 0.000112125)
(-0.00146116 -0.000408615 0.000109703)
(-0.00151326 -0.000419763 0.000103551)
(-0.00156222 -0.000430676 9.24195e-05)
(-0.00160776 -0.000440774 7.49967e-05)
(-0.00164544 -0.000449206 4.96269e-05)
(-0.00166525 -0.000454145 1.71957e-05)
(6.59463e-06 6.34451e-06 1.53037e-05)
(4.58098e-06 6.81542e-07 -7.58843e-06)
(-4.23551e-06 -8.06901e-06 -2.09075e-05)
(-1.70066e-05 -2.32802e-05 -2.78774e-05)
(-3.46523e-05 -3.76612e-05 -3.01496e-05)
(-4.41893e-05 -3.67825e-05 -2.31458e-05)
(-0.000132649 -9.00688e-05 -4.47623e-05)
(-0.000280578 -0.000165862 -5.74161e-05)
(-0.000431048 -0.000225708 -4.53976e-05)
(-0.000601486 -0.000275297 -2.11697e-05)
(-0.000747272 -0.000300278 7.41869e-06)
(-0.00086871 -0.000310958 3.40099e-05)
(-0.000974043 -0.000316619 5.59936e-05)
(-0.00106327 -0.00032043 7.27645e-05)
(-0.00113653 -0.000323591 8.46285e-05)
(-0.00120742 -0.000329751 9.31784e-05)
(-0.0012718 -0.000337091 9.85171e-05)
(-0.00133123 -0.000345404 0.000100962)
(-0.00138478 -0.000354092 0.000100182)
(-0.00143453 -0.000363182 9.55127e-05)
(-0.00148096 -0.00037221 8.57788e-05)
(-0.00152405 -0.000380574 6.98444e-05)
(-0.00155966 -0.000387548 4.63366e-05)
(-0.00157802 -0.00039164 1.60865e-05)
(1.29493e-05 1.13462e-05 2.16798e-05)
(2.39483e-05 7.35927e-06 -7.78741e-06)
(2.17444e-05 -4.10479e-07 -1.47577e-05)
(1.26884e-05 -9.67531e-06 -1.59779e-05)
(-1.14917e-06 -2.43056e-05 -2.38614e-05)
(-2.8833e-05 -3.3529e-05 -2.95249e-05)
(-6.90001e-05 -5.26421e-05 -3.7807e-05)
(-8.16278e-05 -4.8986e-05 -2.58695e-05)
(-0.000322111 -0.000168353 -5.92021e-05)
(-0.000480158 -0.000220528 -4.31325e-05)
(-0.000631296 -0.000252604 -1.76043e-05)
(-0.000764498 -0.000269068 8.97006e-06)
(-0.000872337 -0.000275 3.26113e-05)
(-0.000963867 -0.000277795 5.17481e-05)
(-0.00104884 -0.000281945 6.6781e-05)
(-0.0011172 -0.000285124 7.74818e-05)
(-0.00117883 -0.000289692 8.47627e-05)
(-0.00123491 -0.000295386 8.895e-05)
(-0.00128724 -0.00030232 8.99507e-05)
(-0.00133457 -0.000309665 8.68406e-05)
(-0.00137803 -0.000317035 7.85693e-05)
(-0.00141848 -0.000323909 6.42322e-05)
(-0.00145198 -0.00032964 4.27508e-05)
(-0.00146864 -0.00033297 1.48761e-05)
(2.30754e-05 1.32341e-05 2.38442e-05)
(3.6612e-05 1.00877e-05 -8.74817e-06)
(3.70598e-05 2.61691e-06 -1.38923e-05)
(2.96266e-05 -6.24503e-06 -1.30886e-05)
(3.01392e-05 -2.01664e-05 -1.70843e-05)
(3.08119e-06 -2.44449e-05 -1.75447e-05)
(-2.06172e-05 -2.01831e-05 -1.77275e-05)
(-5.20619e-05 -3.28628e-05 -2.44257e-05)
(-0.000144018 -7.44433e-05 -3.99333e-05)
(-0.000353782 -0.000162763 -5.53673e-05)
(-0.000511636 -0.000205664 -3.77014e-05)
(-0.000642757 -0.000225413 -1.33565e-05)
(-0.000759665 -0.000235514 1.05612e-05)
(-0.000858265 -0.000239876 3.148e-05)
(-0.000934728 -0.000240496 4.81287e-05)
(-0.00100969 -0.000243735 6.13921e-05)
(-0.00107542 -0.000247662 7.10423e-05)
(-0.0011338 -0.000252416 7.73811e-05)
(-0.00118316 -0.000257542 8.00496e-05)
(-0.00122722 -0.000263308 7.84351e-05)
(-0.00126733 -0.000269261 7.1568e-05)
(-0.00130456 -0.000274815 5.87524e-05)
(-0.00133538 -0.000279413 3.92347e-05)
(-0.0013503 -0.000282118 1.36915e-05)
(3.31268e-05 1.42919e-05 2.53186e-05)
(7.37135e-05 1.63401e-05 -1.38531e-05)
(8.33707e-05 6.12324e-06 -2.38837e-05)
(6.08681e-05 -7.52832e-06 -1.95588e-05)
(4.89325e-05 -1.92755e-05 -1.52191e-05)
(3.48513e-05 -2.94725e-05 -8.97349e-06)
(2.12418e-07 -1.38812e-05 -5.29465e-06)
(-4.22938e-05 -2.87216e-05 -2.66397e-05)
(-0.00010771 -5.67278e-05 -4.35517e-05)
(-0.000205816 -9.5239e-05 -4.86798e-05)
(-0.000375164 -0.000153059 -4.86812e-05)
(-0.000521949 -0.000184786 -3.13273e-05)
(-0.000636733 -0.000197375 -9.12898e-06)
(-0.000733037 -0.000202281 1.21322e-05)
(-0.000825772 -0.000206862 3.08165e-05)
(-0.00089469 -0.000207836 4.57056e-05)
(-0.000954671 -0.000209548 5.69681e-05)
(-0.00100702 -0.000212133 6.48277e-05)
(-0.00105458 -0.000216205 6.92351e-05)
(-0.0010954 -0.000220845 6.9151e-05)
(-0.00113166 -0.000225685 6.37438e-05)
(-0.00116554 -0.000230239 5.25963e-05)
(-0.00119375 -0.000233993 3.5276e-05)
(-0.00120663 -0.00023616 1.23513e-05)
(3.90191e-05 1.4443e-05 2.68943e-05)
(9.19721e-05 1.90923e-05 -1.26091e-05)
(0.000111929 9.84384e-06 -2.71375e-05)
(0.000112176 -7.19755e-06 -3.17685e-05)
(8.1833e-05 -2.11953e-05 -2.36451e-05)
(3.31058e-05 -1.8068e-05 -8.00356e-06)
(3.19562e-05 -3.63335e-05 -2.38309e-06)
(-7.88555e-06 -2.37626e-05 -6.28254e-06)
(-4.07198e-05 -2.33922e-05 -2.10394e-05)
(-8.06462e-05 -3.82027e-05 -2.73191e-05)
(-0.000243418 -0.000101802 -4.8912e-05)
(-0.000379201 -0.000137802 -4.15062e-05)
(-0.000504528 -0.000159256 -2.4804e-05)
(-0.000610322 -0.000169662 -4.96411e-06)
(-0.000684659 -0.000170984 1.38332e-05)
(-0.000762186 -0.000174386 3.02511e-05)
(-0.000827585 -0.000177139 4.33871e-05)
(-0.000883772 -0.000180139 5.32409e-05)
(-0.000927137 -0.00018315 5.91654e-05)
(-0.000963646 -0.000186868 6.04697e-05)
(-0.000995745 -0.000190889 5.64045e-05)
(-0.00102568 -0.000194638 4.67792e-05)
(-0.00105062 -0.00019767 3.15111e-05)
(-0.0010616 -0.000199458 1.10781e-05)
(4.46068e-05 1.47492e-05 2.94787e-05)
(0.000102333 2.15445e-05 -1.04856e-05)
(0.00012875 1.5075e-05 -2.82413e-05)
(0.000133643 -1.20825e-06 -3.63411e-05)
(0.000121115 -2.08454e-05 -3.5601e-05)
(8.37557e-05 -3.28917e-05 -2.32152e-05)
(5.69653e-05 -4.21544e-05 -9.95947e-06)
(1.22385e-05 -1.89864e-05 1.43132e-06)
(-9.69486e-06 -1.25656e-05 -3.94766e-06)
(-5.25455e-05 -2.61846e-05 -2.29089e-05)
(-0.000131167 -5.53321e-05 -3.7949e-05)
(-0.000259582 -9.61822e-05 -4.54049e-05)
(-0.000373262 -0.00012168 -3.54657e-05)
(-0.000466362 -0.000133732 -1.84815e-05)
(-0.000566091 -0.000144205 -6.75796e-07)
(-0.000630503 -0.000146023 1.6112e-05)
(-0.000685616 -0.000147463 2.99643e-05)
(-0.000730658 -0.000148767 4.05929e-05)
(-0.0007712 -0.000151663 4.78816e-05)
(-0.000803653 -0.000155024 5.04943e-05)
(-0.000831047 -0.000158526 4.77987e-05)
(-0.00085702 -0.000161815 3.99098e-05)
(-0.000878941 -0.000164451 2.70453e-05)
(-0.00088762 -0.000165911 9.55168e-06)
(4.78813e-05 1.47914e-05 3.24143e-05)
(0.000101213 2.19102e-05 -7.41181e-06)
(0.000130079 1.90712e-05 -2.66032e-05)
(0.000142827 6.04653e-06 -3.77897e-05)
(0.000137035 -1.32925e-05 -4.00971e-05)
(0.000117219 -3.20791e-05 -3.41432e-05)
(7.20958e-05 -3.70859e-05 -1.75952e-05)
(4.90696e-05 -4.47368e-05 -4.69943e-06)
(1.25263e-05 -3.1313e-05 4.83418e-06)
(-2.77486e-05 -2.12989e-05 -1.20124e-05)
(-7.82495e-05 -3.54414e-05 -3.24827e-05)
(-7.52386e-05 -2.91664e-05 -1.99215e-05)
(-0.000231581 -7.9267e-05 -3.63648e-05)
(-0.000342497 -0.000103012 -2.80639e-05)
(-0.000402997 -0.000108352 -1.20181e-05)
(-0.000481817 -0.000116639 3.5861e-06)
(-0.000543792 -0.000121541 1.77914e-05)
(-0.000597083 -0.000125535 2.97938e-05)
(-0.000632456 -0.000128334 3.81401e-05)
(-0.000659472 -0.000131418 4.18166e-05)
(-0.000682126 -0.000134635 4.02862e-05)
(-0.000703555 -0.000137552 3.38552e-05)
(-0.000721723 -0.000139842 2.30716e-05)
(-0.000728592 -0.000141169 8.19512e-06)
(4.98099e-05 1.44668e-05 3.56203e-05)
(9.61918e-05 2.12851e-05 -4.30339e-06)
(0.000124732 2.08817e-05 -2.33808e-05)
(0.0001378 1.15801e-05 -3.51368e-05)
(0.00013974 -4.60371e-06 -4.05867e-05)
(0.000127422 -2.3136e-05 -3.81362e-05)
(0.000106508 -3.91931e-05 -2.968e-05)
(5.99936e-05 -3.70968e-05 -1.24452e-05)
(3.50984e-05 -3.71502e-05 -1.38161e-06)
(5.53701e-06 -2.73419e-05 -4.13512e-07)
(-1.86874e-05 -1.26366e-05 -1.12574e-05)
(-5.48896e-05 -2.53182e-05 -2.22674e-05)
(-8.83656e-05 -3.32862e-05 -2.16571e-05)
(-0.000186164 -5.9633e-05 -2.59726e-05)
(-0.000298551 -8.49073e-05 -2.07348e-05)
(-0.000349579 -9.06874e-05 -6.41827e-06)
(-0.000394002 -9.46669e-05 6.85417e-06)
(-0.000425723 -9.65823e-05 1.79653e-05)
(-0.00045647 -0.000100161 2.66013e-05)
(-0.000479115 -0.000103683 3.09742e-05)
(-0.000496151 -0.00010655 3.0548e-05)
(-0.000513535 -0.000109384 2.59446e-05)
(-0.000528532 -0.000111629 1.78479e-05)
(-0.00053286 -0.000112891 6.37746e-06)
(4.96497e-05 1.42245e-05 3.89078e-05)
(8.80746e-05 2.05519e-05 -1.90685e-06)
(0.000115338 2.17101e-05 -2.01407e-05)
(0.000128346 1.47792e-05 -3.13735e-05)
(0.000131633 2.17822e-06 -3.75005e-05)
(0.000127961 -1.42596e-05 -3.85132e-05)
(0.000113534 -3.02097e-05 -3.31189e-05)
(9.62007e-05 -4.30146e-05 -2.50105e-05)
(4.98189e-05 -3.43397e-05 -1.02666e-05)
(1.6395e-05 -1.94274e-05 -2.43721e-06)
(-1.31578e-06 -1.42815e-05 -6.02269e-06)
(-3.13085e-05 -1.89884e-05 -2.11811e-05)
(-6.33993e-05 -2.71884e-05 -2.52137e-05)
(-7.04181e-05 -2.59797e-05 -1.6432e-05)
(-8.97033e-05 -2.72019e-05 -1.14137e-05)
(-0.000196411 -5.56509e-05 -1.13003e-05)
(-0.000257699 -6.78839e-05 -1.38204e-06)
(-0.000306822 -7.62112e-05 9.47762e-06)
(-0.000331375 -8.00967e-05 1.83282e-05)
(-0.000345847 -8.32643e-05 2.30521e-05)
(-0.000360083 -8.62224e-05 2.34843e-05)
(-0.000372916 -8.91888e-05 2.00977e-05)
(-0.000383963 -9.12017e-05 1.39572e-05)
(-0.000384694 -9.18073e-05 5.02971e-06)
(4.80901e-05 1.51736e-05 4.29225e-05)
(7.87006e-05 2.07598e-05 -8.53765e-07)
(0.000101832 2.21302e-05 -1.73582e-05)
(0.000113167 1.66017e-05 -2.66908e-05)
(0.000117811 6.42086e-06 -3.24727e-05)
(0.00011733 -6.98854e-06 -3.47777e-05)
(0.00011347 -2.25349e-05 -3.33352e-05)
(0.000101564 -3.52429e-05 -2.77169e-05)
(8.96316e-05 -4.51484e-05 -2.27255e-05)
(4.58231e-05 -3.36652e-05 -1.1478e-05)
(2.60677e-05 -3.45363e-05 -1.16597e-05)
(-4.60378e-06 -1.18332e-05 -1.21052e-05)
(-2.01674e-05 -1.15978e-05 -1.55527e-05)
(-5.67888e-05 -2.54823e-05 -2.3948e-05)
(-9.82466e-05 -3.7425e-05 -2.31701e-05)
(-6.43002e-05 -2.13712e-05 -7.87077e-06)
(-7.2599e-05 -2.27703e-05 -3.27715e-06)
(-9.00182e-05 -2.59772e-05 1.03772e-06)
(-0.000123436 -3.44361e-05 6.11488e-06)
(-0.000146011 -4.02802e-05 9.94599e-06)
(-0.000144995 -4.09617e-05 9.99672e-06)
(-0.000152526 -4.4395e-05 8.90641e-06)
(-0.000161669 -4.68923e-05 6.55704e-06)
(-0.000170977 -4.76413e-05 2.57901e-06)
(4.42394e-05 1.72138e-05 4.66941e-05)
(6.47029e-05 2.05553e-05 -7.83558e-07)
(8.21014e-05 2.123e-05 -1.41991e-05)
(9.14036e-05 1.66357e-05 -2.07592e-05)
(9.67603e-05 8.63838e-06 -2.51872e-05)
(9.9867e-05 -2.39776e-06 -2.80997e-05)
(0.000101041 -1.59352e-05 -2.84896e-05)
(0.000102387 -2.97397e-05 -2.72526e-05)
(9.42467e-05 -3.83251e-05 -2.40847e-05)
(8.34708e-05 -4.50117e-05 -2.28867e-05)
(4.01791e-05 -3.18573e-05 -1.5189e-05)
(1.40839e-05 -2.3452e-05 -1.63577e-05)
(-8.47476e-06 -1.4698e-05 -2.27581e-05)
(-1.66073e-05 -1.00383e-05 -1.61433e-05)
(-2.86611e-05 -1.49089e-05 -1.46308e-05)
(-7.45247e-05 -3.34852e-05 -1.99425e-05)
(-6.7334e-05 -2.73199e-05 -8.61629e-06)
(-8.1105e-05 -3.13062e-05 -2.81127e-06)
(-5.48167e-05 -2.13275e-05 1.77753e-06)
(-0.000119286 -4.58377e-05 8.0214e-06)
(-5.77175e-05 -2.29176e-05 4.33985e-06)
(-0.000105271 -4.17014e-05 7.01887e-06)
(-0.00011012 -4.33318e-05 5.05052e-06)
(-0.000136221 -5.36644e-05 2.32092e-06)
(3.80893e-05 1.95838e-05 4.89268e-05)
(5.15406e-05 2.05672e-05 -1.32093e-06)
(6.04802e-05 1.89512e-05 -1.12353e-05)
(6.55227e-05 1.44059e-05 -1.46032e-05)
(7.04022e-05 8.20611e-06 -1.70608e-05)
(7.58748e-05 -6.78383e-07 -1.93663e-05)
(8.33751e-05 -1.23502e-05 -2.10828e-05)
(9.06819e-05 -2.42038e-05 -2.18518e-05)
(9.6727e-05 -3.45711e-05 -2.30583e-05)
(8.85031e-05 -3.93871e-05 -2.30489e-05)
(7.49246e-05 -4.30142e-05 -2.50859e-05)
(3.40156e-05 -2.83037e-05 -1.98509e-05)
(1.53763e-05 -2.48234e-05 -3.04161e-05)
(-5.54886e-06 -1.48621e-05 -3.03338e-05)
(-1.8082e-05 -1.60138e-05 -2.82009e-05)
(-2.75232e-05 -1.86438e-05 -2.06197e-05)
(-4.59348e-05 -2.65067e-05 -1.80715e-05)
(-2.72715e-05 -1.491e-05 -4.6897e-06)
(-4.93108e-05 -2.73164e-05 -1.18622e-06)
(-3.00595e-05 -1.76992e-05 1.62157e-06)
(-5.14122e-05 -3.12443e-05 4.48517e-06)
(-6.78132e-05 -3.94163e-05 5.63641e-06)
(-7.32447e-05 -4.29183e-05 3.89604e-06)
(-3.20292e-05 -2.00181e-05 6.1053e-07)
(3.0569e-05 2.15437e-05 4.8922e-05)
(4.01805e-05 2.07121e-05 -2.30986e-06)
(4.32605e-05 1.66154e-05 -9.75384e-06)
(4.40013e-05 1.12982e-05 -1.06597e-05)
(4.62966e-05 5.70842e-06 -1.10805e-05)
(5.28443e-05 -1.86197e-06 -1.2115e-05)
(6.36685e-05 -1.18241e-05 -1.33759e-05)
(7.74999e-05 -2.19171e-05 -1.54613e-05)
(8.65901e-05 -2.98871e-05 -1.79801e-05)
(9.1482e-05 -3.6875e-05 -2.15899e-05)
(8.1621e-05 -3.90932e-05 -2.45254e-05)
(6.58711e-05 -4.01522e-05 -3.0513e-05)
(3.17627e-05 -2.76464e-05 -2.86903e-05)
(1.11694e-05 -1.66529e-05 -2.75235e-05)
(7.80703e-07 -1.76314e-05 -3.97e-05)
(-7.66149e-06 -1.73e-05 -3.96507e-05)
(-6.85582e-06 -1.01546e-05 -1.49873e-05)
(-1.41015e-05 -1.62272e-05 -1.35409e-05)
(-2.13121e-05 -2.43106e-05 -1.01744e-05)
(-2.02863e-05 -2.7551e-05 -3.93793e-06)
(-1.75256e-05 -2.43232e-05 -3.32291e-07)
(-2.10819e-05 -3.0074e-05 9.09579e-07)
(-1.92167e-05 -2.72207e-05 7.26792e-07)
(-1.46232e-05 -2.17733e-05 2.78504e-07)
(2.2966e-05 2.25958e-05 4.62438e-05)
(3.04067e-05 2.04176e-05 -3.86027e-06)
(3.14702e-05 1.47324e-05 -9.8159e-06)
(3.15263e-05 8.90572e-06 -9.85067e-06)
(3.27519e-05 2.60771e-06 -9.14693e-06)
(3.94885e-05 -5.57231e-06 -8.78482e-06)
(5.1987e-05 -1.51212e-05 -8.73596e-06)
(6.54335e-05 -2.29619e-05 -9.89838e-06)
(7.8124e-05 -2.92716e-05 -1.31678e-05)
(8.33509e-05 -3.36204e-05 -1.71038e-05)
(8.48036e-05 -3.78132e-05 -2.25634e-05)
(7.48043e-05 -3.84408e-05 -2.88699e-05)
(6.05869e-05 -3.78742e-05 -3.843e-05)
(3.40035e-05 -2.81427e-05 -3.97307e-05)
(1.75423e-05 -2.16981e-05 -4.10309e-05)
(5.21607e-06 -1.12213e-05 -2.53425e-05)