/*--------------------------------*- C++ -*----------------------------------*\
  =========                 |
  \\      /  F ield         | OpenFOAM: The Open Source CFD Toolbox
   \\    /   O peration     | Website:  https://openfoam.org
    \\  /    A nd           | Version:  6
     \\/     M anipulation  |
\*---------------------------------------------------------------------------*/
FoamFile
{
    version     2.0;
    format      ascii;
    class       volScalarField;
    location    "39";
    object      yPlus;
}
// * * * * * * * * * * * * * * * * * * * * * * * * * * * * * * * * * * * * * //

dimensions      [0 0 0 0 0 0 0];

internalField   uniform 0;

boundaryField
{
    inlet
    {
        type            calculated;
        value           uniform 0;
    }
    outlet
    {
        type            calculated;
        value           uniform 0;
    }
    roughCylinder
    {
        type            calculated;
        value           nonuniform List<scalar> 
3840
(
64.74
50.1665
53.6884
62.0032
68.4268
73.5378
77.6536
81.1151
84.1729
86.9537
89.5827
92.1031
94.6142
97.2135
99.9558
102.863
105.948
109.193
112.563
115.992
119.373
122.535
125.164
126.769
65.0305
49.8909
52.2639
60.3312
66.6941
71.79
75.8867
79.3322
82.3642
85.1194
87.6567
90.0977
92.5281
95.0269
97.6634
100.477
103.456
106.591
109.843
113.155
116.422
119.478
122.019
123.569
62.9006
49.0109
50.8206
58.6522
64.9509
69.9993
74.1137
77.583
80.6163
83.2853
85.7786
88.1404
90.4734
92.8869
95.4363
98.1362
101.008
104.029
107.169
110.366
113.519
116.47
118.924
120.419
63.7509
48.5172
49.3356
56.9044
63.1597
68.2458
72.3773
75.8457
78.8427
81.5237
83.9336
86.2218
88.4888
90.8084
93.252
95.8689
98.6403
101.558
104.586
107.67
110.712
113.56
115.928
117.369
58.2688
48.3138
47.9241
55.157
61.3916
66.4365
70.607
74.1213
77.1609
79.7591
82.1452
84.3752
86.551
88.7966
91.171
93.6777
96.3473
99.1575
102.081
105.057
107.993
110.742
113.028
114.417
75.0459
47.8037
46.3714
53.3065
59.5026
64.649
68.8755
72.4112
75.3974
78.0587
80.3864
82.5546
84.6871
86.8526
89.1226
91.5635
94.1456
96.865
99.6827
102.553
105.385
108.037
110.243
111.582
68.5416
47.6597
44.9354
51.4283
57.6736
62.7765
67.054
70.6498
73.75
76.3262
78.6623
80.8056
82.859
84.9648
87.1908
89.5246
92.012
94.6282
97.3525
100.123
102.857
105.417
107.547
108.837
59.3169
46.2388
43.2769
49.3952
55.5768
60.8708
65.2586
68.9246
71.9409
74.6397
76.9512
79.0539
81.0953
83.1411
85.2619
87.5515
89.966
92.506
95.1316
97.8046
100.442
102.912
104.967
106.209
63.0343
45.8847
41.6563
47.2219
53.5881
58.8373
63.2987
67.0325
70.2799
72.8931
75.2364
77.3572
79.3405
81.3455
83.4576
85.642
87.9673
90.4084
92.9502
95.5318
98.0777
100.464
102.448
103.643
55.5776
45.1058
39.9705
44.8628
51.0521
56.6523
61.319
65.2325
68.3414
71.158
73.522
75.6173
77.6241
79.5954
81.5976
83.7659
86.0373
88.4177
90.8669
93.357
95.8127
98.114
100.028
101.177
62.3392
43.6608
37.8184
42.0214
48.698
54.2613
59.071
63.0496
66.5933
69.3305
71.7533
73.9185
75.8824
77.8308
79.8717
81.9324
84.1157
86.3984
88.7728
91.1784
93.5475
95.7694
97.6171
98.7197
62.4875
43.2957
35.8361
38.9958
45.1936
51.4796
56.6832
61.0876
64.3928
67.4537
69.9678
72.1256
74.1597
76.1053
78.0181
80.098
82.252
84.492
86.7784
89.0964
91.3789
93.5191
95.2982
96.3558
56.0954
42.5063
33.4426
34.7212
42.0625
48.289
53.8554
58.3104
62.4406
65.4439
68.0549
70.3588
72.3671
74.3092
76.3298
78.2931
80.3539
82.4942
84.7157
86.9546
89.1551
91.2191
92.9344
93.9466
54.067
40.9987
30.7197
30.1164
36.0614
44.1679
50.5646
56.0307
59.7373
63.2804
66.1007
68.4204
70.5673
72.5516
74.4069
76.4389
78.5063
80.6282
82.7642
84.9189
87.0351
89.0184
90.6658
91.6335
50.9334
39.911
27.6925
21.1198
30.5945
38.7666
46.4333
51.9874
57.382
60.9144
63.9017
66.4889
68.6317
70.6334
72.705
74.6009
76.5605
78.5727
80.6553
82.7366
84.7724
86.6826
88.2688
89.1904
32.1331
33.4399
23.468
16.0089
16.0417
30.5377
40.6748
49.0334
53.6271
58.2073
61.6233
64.2653
66.6512
68.7646
70.5965
72.6355
74.6554
76.688
78.6846
80.6818
82.6341
84.4629
85.9796
86.8564
7.04634
13.1597
8.23298
16.4661
6.17281
17.9924
33.0239
41.7404
50.5024
55.129
58.8856
62.0188
64.4319
66.5835
68.8142
70.6769
72.5571
74.4518
76.4103
78.3393
80.2111
81.9671
83.4242
84.2531
9.71022
11.7943
14.4822
16.4542
17.6579
7.60114
23.8264
36.8309
44.0049
51.3379
55.9949
59.2466
62.0969
64.4874
66.3294
68.4566
70.4863
72.4692
74.3341
76.1754
77.9614
79.6319
81.0148
81.7971
2.62525
9.31873
9.90423
11.846
19.1729
19.2874
19.5553
8.72221
39.2844
46.5583
52.1458
56.4472
59.3662
61.8012
64.3785
66.2474
68.0671
69.8502
71.701
73.4789
75.1806
76.7771
78.1011
78.8303
4.61134
11.7038
4.65103
10.859
21.2162
21.3441
11.9201
11.405
20.4193
40.3942
48.0356
52.4998
56.314
59.2868
61.167
63.5276
65.6645
67.6603
69.399
71.0793
72.689
74.1906
75.4311
76.1107
11.6813
20.4752
23.0531
17.8915
18.7699
24.0282
7.29293
21.7786
23.1837
28.4583
41.3065
48.6794
52.6495
55.6075
58.9328
60.8534
62.6329
64.2984
66.0618
67.6863
69.2028
70.6274
71.8098
72.4259
11.5596
21.8422
26.6397
29.2119
24.2645
5.49996
26.3319
24.3801
15.0455
14.0147
33.1236
41.6608
47.9341
52.309
54.2234
57.1567
59.5863
61.7375
63.3639
64.8703
66.2836
67.597
68.6801
69.243
11.6494
22.1636
27.9107
31.0341
31.9788
26.3385
26.4908
3.3597
10.8974
16.3291
23.5034
35.5243
42.3023
46.3658
51.5882
53.5981
55.4075
56.8868
58.5937
60.0648
61.3703
62.6055
63.6361
64.1153
11.3673
20.3799
26.7966
31.3873
33.2902
32.9922
24.5434
26.8302
24.4256
25.1681
23.2886
9.31227
32.3306
41.4168
43.1061
47.7344
50.9158
53.6777
55.2562
56.5645
57.7529
58.8476
59.7524
60.1763
11.5786
18.5898
25.0303
29.7297
32.8029
33.4738
32.7166
22.188
22.6714
27.1626
5.7101
14.4451
15.0843
27.5628
40.2366
42.2354
44.2171
45.2309
46.9873
48.3626
49.4001
50.4492
51.336
51.6357
8.64144
16.7653
23.0889
27.7875
30.9554
32.7924
32.2642
31.75
19.9386
6.59694
16.181
19.3033
18.2303
13.056
13.343
29.4534
36.1786
41.0595
42.7791
43.7273
44.7818
45.5786
46.2844
46.4428
7.45098
15.3356
20.9628
25.1863
28.3624
30.3213
31.3642
30.3332
31.3264
20.6623
29.8475
16.0435
7.37882
19.161
24.8806
7.08345
9.50927
13.4608
18.6584
22.2213
21.5056
22.4356
23.5435
25.0252
4.99032
13.4472
17.9877
21.5284
24.4311
26.702
27.9292
29.2958
29.0554
31.6166
21.8851
23.1344
23.2848
11.0068
3.84324
26.3382
18.637
20.1178
6.20235
29.1365
9.71973
23.8436
24.4142
31.5416
5.00155
12.2229
14.7375
16.8679
19.1608
21.4245
23.6479
25.4065
28.2775
29.073
32.0794
22.471
30.345
23.6935
21.788
20.1462
27.5587
7.18783
21.9849
10.4095
22.3219
30.757
32.4986
8.26092
3.85763
11.6405
12.4837
13.0609
14.1702
16.264
18.8337
22.0023
24.586
28.3394
29.7447
32.4544
24.059
18.3989
25.9144
28.6364
7.6676
18.5155
30.5294
31.1223
24.7742
30.3545
25.1017
19.421
3.29858
11.5162
11.675
11.8916
12.3581
14.0922
16.7181
19.2567
22.5215
25.0764
28.8346
30.5549
32.6322
25.982
22.523
9.45752
17.7909
13.2663
19.2951
27.0827
28.524
32.7193
11.5579
16.5722
2.97943
11.2182
11.6106
11.7426
12.3758
14.6012
17.0138
19.2879
21.1307
23.8141
26.0094
29.4478
31.3192
32.4434
29.6079
19.3793
6.39286
27.0295
27.6299
10.2919
20.4851
24.5815
18.7509
14.3665
1.98215
9.46108
11.5502
11.491
12.6549
15.4419
18.014
19.957
21.7897
23.0959
25.0961
26.9655
29.9882
31.879
32.2513
32.2434
28.707
22.934
17.2123
14.8854
12.4385
11.2371
11.1162
12.199
2.3925
10.1105
11.5375
11.5386
14.1903
17.1682
19.4615
21.2882
22.6379
23.9818
24.8212
26.2111
27.8401
30.2328
32.2241
31.9256
31.3189
30.8027
30.5165
30.2855
29.8465
29.5505
29.5572
29.7123
3.31035
11.4181
11.6136
13.2737
16.3611
19.0129
21.1014
22.7345
24.1197
25.0378
25.8664
26.2798
27.1536
28.554
30.2714
31.6907
31.467
30.4433
28.7639
27.1115
25.6859
24.8172
24.5893
24.7788
3.49308
11.7801
12.9317
15.9122
18.7062
21.0123
22.8818
24.432
25.6452
26.6374
27.1448
27.4743
27.5273
27.9367
29.0472
29.9883
30.2767
29.8871
28.9205
27.6517
26.396
25.7464
25.7572
26.0485
3.94685
12.0074
15.5947
18.4113
20.8206
22.8977
24.6656
26.1576
27.4171
28.299
28.8767
28.9785
28.8518
28.6131
28.6127
29.1134
29.3085
28.7997
27.3951
25.4697
23.6242
22.642
22.697
23.1734
5.80768
14.9042
18.0965
20.5823
22.7898
24.7461
26.4594
27.9604
29.2043
30.1697
30.6993
30.8597
30.5798
30.0478
29.5276
29.1182
28.7993
28.2128
27.0537
25.4443
23.8847
23.1527
23.4294
24.0488
7.9442
16.955
20.0614
22.421
24.547
26.475
28.2106
29.7543
31.078
32.0642
32.6901
32.8574
32.6097
31.975
31.0861
30.2001
29.3316
28.3288
26.9029
25.07
23.3171
22.4858
22.846
23.5886
10.3563
18.8135
21.7515
24.0672
26.199
28.1523
29.9432
31.5639
32.9463
34.0273
34.7057
34.9759
34.7751
34.1302
33.1352
31.8963
30.5694
29.1678
27.573
25.7881
24.2035
23.5562
24.0447
24.8505
11.6945
13.1167
15.1108
16.4238
17.3695
17.7328
17.7084
17.2895
16.6763
15.8977
15.0996
14.2837
13.5342
12.8495
12.2708
11.8093
11.5209
11.509
11.0989
10.9006
10.8989
11.0913
11.5332
11.6343
11.807
12.2579
12.8334
13.5151
14.261
15.0737
15.8683
16.6444
17.2554
17.6745
17.7
17.3414
16.4009
15.0957
13.1111
11.5481
20.0576
20.8571
21.4485
21.738
21.925
21.9315
21.9055
21.7909
21.6814
21.5383
21.4166
21.287
21.1753
21.0676
20.9764
20.896
20.8306
20.78
20.7462
20.7275
20.727
20.7447
20.7777
20.8275
20.892
20.9715
21.0619
21.1689
21.2798
21.4086
21.5294
21.6718
21.7804
21.8946
21.9198
21.9136
21.7268
21.4386
20.8493
20.051
22.8588
23.385
23.7921
24.0219
24.2079
24.2883
24.3553
24.361
24.3598
24.3245
24.2892
24.2431
24.2009
24.1581
24.1207
24.0883
24.0612
24.0409
24.026
24.0169
24.0164
24.0245
24.0385
24.0579
24.0842
24.1157
24.1524
24.1945
24.2359
24.2815
24.3162
24.3511
24.3519
24.3462
24.279
24.1988
24.0129
23.784
23.3776
22.8536
25.1647
25.6372
26.0635
26.3327
26.5741
26.7219
26.8568
26.9435
27.0242
27.0774
27.1265
27.1632
27.1984
27.2287
27.2564
27.2812
27.3017
27.3178
27.3277
27.3308
27.3303
27.3262
27.3156
27.2985
27.2773
27.2515
27.223
27.192
27.1561
27.1188
27.0691
27.0154
26.9343
26.8473
26.7122
26.5646
26.3233
26.0551
25.6291
25.1587
27.3166
27.7622
28.2158
28.5128
28.8126
29.0265
29.241
29.4078
29.5752
29.7153
29.8529
29.9756
30.0935
30.2012
30.2998
30.3868
30.4595
30.5158
30.5529
30.5692
30.5687
30.5515
30.5136
30.4564
30.3829
30.2951
30.1958
30.0873
29.9688
29.8454
29.7073
29.5666
29.3988
29.2316
29.0168
28.8029
28.5031
28.2066
27.7534
27.3091
29.3145
29.7482
30.249
30.5883
30.9587
31.2389
31.5334
31.7785
32.0289
32.2517
32.4722
32.6758
32.8712
33.051
33.2156
33.3599
33.4805
33.5734
33.6349
33.6624
33.6619
33.6336
33.5713
33.4777
33.3563
33.2112
33.0461
32.8655
32.6694
32.4652
32.244
32.0206
31.77
31.5243
31.2296
30.9492
30.5787
30.2397
29.7392
29.3063
31.1741
31.6082
32.1675
32.5441
32.9787
33.3164
33.6788
33.991
34.3108
34.6031
34.8926
35.1629
35.4218
35.6605
35.8779
36.068
36.2263
36.3477
36.4277
36.4632
36.4627
36.4265
36.3459
36.2239
36.0649
35.8741
35.656
35.4165
35.1572
34.8861
34.5961
34.3032
33.9829
33.6703
33.3076
32.9697
32.5351
32.1585
31.5996
31.1658
32.8643
33.3006
33.9074
34.3147
34.7986
35.1825
35.5972
35.9621
36.3355
36.6817
37.0234
37.3443
37.6505
37.9326
38.1886
38.4117
38.5967
38.738
38.8306
38.8715
38.8711
38.8295
38.7363
38.5945
38.4089
38.1852
37.9285
37.6459
37.3392
37.0176
36.6753
36.3286
35.9547
35.5895
35.1744
34.7904
34.3064
33.899
33.2924
32.8566
34.3203
34.7458
35.3968
35.8239
36.3478
36.7662
37.2213
37.6261
38.0399
38.426
38.806
39.1634
39.5028
39.815
40.0971
40.3421
40.5445
40.6984
40.7992
40.8434
40.8432
40.7983
40.697
40.5426
40.3397
40.0942
39.8116
39.4988
39.1589
38.8009
38.4204
38.0338
37.6196
37.2143
36.759
36.3403
35.8163
35.3893
34.7386
34.3133
35.4509
35.8818
36.5653
37.016
37.5713
38.0216
38.509
38.9472
39.3929
39.8103
40.219
40.6033
40.9665
41.2994
41.5989
41.8579
42.0711
42.2327
42.3382
42.3844
42.3842
42.3375
42.2315
42.0695
41.8559
41.5965
41.2966
40.9631
40.5994
40.2147
39.8054
39.3875
38.9415
38.5028
38.0152
37.5647
37.0094
36.5586
35.8757
35.4449
36.2156
36.6471
37.3785
37.8526
38.4455
38.9267
39.4477
39.9171
40.3923
40.8374
41.2709
41.6773
42.0592
42.408
42.7201
42.9889
43.2094
43.3761
43.4847
43.5324
43.5321
43.4841
43.3751
43.2082
42.9873
42.7181
42.4056
42.0564
41.6741
41.2672
40.8333
40.3878
39.9122
39.4424
38.9213
38.4399
37.8472
37.3731
36.6421
36.2111
36.5559
37.0255
37.806
38.3223
38.9567
39.4775
40.0349
40.5386
41.0445
41.5174
41.9749
42.402
42.801
43.1636
43.4865
43.7634
43.9896
44.1603
44.2716
44.3206
44.3204
44.271
44.1596
43.9886
43.7622
43.4849
43.1617
42.7988
42.3995
41.9719
41.5142
41.0408
40.5347
40.0306
39.4731
38.9522
38.318
37.8019
37.022
36.553
36.4519
36.9795
37.8302
38.4027
39.0899
39.6592
40.2593
40.8022
41.3419
41.8447
42.3273
42.7755
43.1916
43.5678
43.901
44.1856
44.4173
44.5919
44.7057
44.7564
44.7563
44.7054
44.5914
44.4167
44.1848
43.9
43.5665
43.19
42.7737
42.3251
41.8423
41.3392
40.7994
40.2562
39.6561
39.0867
38.3998
37.8276
36.9777
36.451
35.8746
36.4687
37.4089
38.056
38.8082
39.4355
40.0854
40.673
41.2506
41.7863
42.2962
42.7673
43.2017
43.5923
43.9366
44.2295
44.4674
44.6462
44.7631
44.8157
44.8156
44.7629
44.646
44.4671
44.2292
43.9362
43.5917
43.2009
42.7664
42.2951
41.785
41.249
40.6713
40.0836
39.4336
38.8065
38.0547
37.4081
36.4689
35.8756
34.8392
35.483
36.4873
37.2273
38.0526
38.7491
39.4539
40.0923
40.7117
41.2843
41.8245
42.3212
42.7762
43.1835
43.5408
43.8437
44.0889
44.2733
44.3939
44.4489
44.4489
44.3939
44.2734
44.0891
43.8439
43.541
43.1837
42.7763
42.3212
41.8244
41.284
40.7113
40.0919
39.4535
38.7489
38.0525
37.228
36.4887
35.4855
34.842
33.4555
34.0503
35.0704
35.871
36.7662
37.538
38.3006
38.993
39.6566
40.2692
40.8428
41.3683
41.8468
42.2737
42.6467
42.962
43.2169
43.4084
43.534
43.592
43.5921
43.5342
43.4088
43.2176
42.963
42.6477
42.2749
41.8481
41.3695
40.844
40.2705
39.6578
38.9941
38.302
37.5398
36.7685
35.874
35.0743
34.0547
33.4603
31.843
32.2796
33.2285
34.023
34.9465
35.7738
36.5913
37.3325
38.0382
38.6894
39.2963
39.8514
40.3553
40.8038
41.1947
41.5247
41.7911
41.9913
42.1231
42.1848
42.185
42.1236
41.9923
41.7925
41.5264
41.1968
40.8061
40.3579
39.8541
39.2992
38.6924
38.0414
37.3359
36.5951
35.7783
34.9519
34.0292
33.235
32.2863
31.8484
30.0951
30.3032
31.0962
31.8056
32.6928
33.5241
34.3669
35.1421
35.8772
36.5573
37.191
37.771
38.2975
38.7662
39.1745
39.5193
39.7976
40.007
40.1454
40.2113
40.2115
40.1464
40.0087
39.7999
39.5221
39.1779
38.7701
38.3019
37.7758
37.1961
36.5628
35.8831
35.1486
34.3742
33.5324
32.7016
31.8148
31.1052
30.3104
30.0993
28.2056
28.2189
28.8302
29.41
30.2086
30.9911
31.8142
32.5906
33.3319
34.0217
34.6671
35.2603
35.8004
36.2822
36.7028
37.0584
37.3461
37.5631
37.7069
37.7762
37.7766
37.7084
37.5656
37.3496
37.0628
36.7079
36.2881
35.8069
35.2676
34.6749
34.0302
33.3411
32.6009
31.8254
31.003
30.2207
29.4218
28.8403
28.2264
28.2068
26.2133
26.1543
26.6209
27.0949
27.795
28.5076
29.2811
30.0285
30.7544
31.4346
32.0751
32.6671
33.2082
33.6927
34.1168
34.4764
34.7678
34.988
35.1346
35.2059
35.2065
35.1366
34.9914
34.7725
34.4823
34.124
33.7009
33.2174
32.6772
32.0861
31.4465
30.7672
30.0427
29.2963
28.5236
27.8109
27.1104
26.6334
26.1645
26.2147
24.5028
24.5035
24.886
25.3254
25.9523
26.6126
27.3309
28.0361
28.7258
29.3801
30
30.5761
31.1046
31.5791
31.9957
32.3494
32.6367
32.8541
32.9991
33.0699
33.0707
33.0015
32.8582
32.6424
32.3567
32.0043
31.5891
31.1156
30.5882
30.0131
29.394
28.7408
28.0522
27.3478
26.6299
25.9693
25.3408
24.8992
24.5112
24.5063
23.8049
23.8926
24.2387
24.6763
25.2484
25.8631
26.5178
27.166
27.8034
28.4158
28.9985
29.5425
30.0425
30.4926
30.8881
31.2244
31.4978
31.7049
31.8429
31.9104
31.9111
31.8455
31.7091
31.5038
31.232
30.8971
30.5029
30.0538
29.5548
29.0115
28.4295
27.8177
27.1808
26.5332
25.8788
25.264
24.6906
24.2518
23.9015
23.811
24.3299
24.439
24.7701
25.1808
25.7017
26.2564
26.8418
27.427
28.0079
28.5693
29.105
29.6063
30.068
30.484
30.8499
31.1612
31.4144
31.6061
31.7339
31.7961
31.7969
31.7364
31.6103
31.4201
31.1684
30.8585
30.4937
30.0787
29.6179
29.1171
28.5818
28.0206
27.4397
26.8545
26.269
25.7139
25.1923
24.7795
24.4467
24.3315
25.189
25.2872
25.6109
25.9916
26.4783
26.9892
27.5339
28.0796
28.6233
29.149
29.6513
30.1217
30.5551
30.946
31.29
31.5828
31.8208
32.0011
32.1211
32.1792
32.18
32.1235
32.0051
31.8263
31.5898
31.2982
30.9553
30.5653
30.1326
29.6627
29.1607
28.635
28.0913
27.5453
27
26.4885
26.0004
25.6184
25.2913
25.1901
63.9934
49.981
53.7061
62.019
68.4407
73.5488
77.66
81.1199
84.1798
86.9599
89.5884
92.1089
94.6208
97.2198
99.9623
102.869
105.955
109.199
112.569
115.998
119.379
122.542
125.17
126.776
63.5838
49.319
52.2391
60.3353
66.6938
71.7911
75.8926
79.3409
82.3701
85.1259
87.664
90.105
92.5344
95.0336
97.6701
100.483
103.462
106.597
109.85
113.162
116.429
119.485
122.025
123.575
63.3724
49.1412
50.8456
58.6655
64.9653
70.0136
74.1218
77.5868
80.6231
83.2918
85.7843
88.146
90.4804
92.8936
95.4429
98.143
101.014
104.035
107.176
110.372
113.526
116.477
118.931
120.426
62.2249
48.3606
49.3367
56.9088
63.1589
68.2421
72.3802
75.855
78.849
81.5301
83.9413
86.2299
88.4954
90.8154
93.259
95.8761
98.6473
101.566
104.593
107.677
110.719
113.567
115.935
117.376
62.1417
48.1391
47.9164
55.1661
61.4031
66.4546
70.6184
74.1245
77.1673
79.766
82.151
84.3804
86.5581
88.8036
91.1778
93.6844
96.3542
99.1638
102.088
105.064
108
110.748
113.035
114.424
60.2811
47.2884
46.3725
53.3124
59.5042
64.6403
68.8736
72.4207
75.4044
78.065
80.3944
82.5636
84.6941
86.8598
89.1299
91.5708
94.153
96.8722
99.6897
102.561
105.393
108.045
110.25
111.589
61.1044
47.0408
44.8995
51.4302
57.6784
62.7983
67.0709
70.6533
73.7559
76.3338
78.6686
80.8108
82.8663
84.972
87.1978
89.5315
92.0188
94.6349
97.3599
100.131
102.865
105.424
107.554
108.844
55.7634
45.7401
43.2468
49.403
55.5861
60.8572
65.2495
68.9333
71.9489
74.646
76.959
79.0631
81.1026
83.1487
85.2694
87.559
89.9734
92.5141
95.1386
97.8122
100.449
102.92
104.974
106.216
62.5258
46.3272
41.7493
47.2204
53.5793
58.8639
63.3252
67.0387
70.2854
72.9016
75.244
77.3633
79.3484
81.3528
83.4649
85.6492
87.9749
90.4147
92.9576
95.5394
98.0856
100.471
102.455
103.65
57.8634
44.7076
39.8667
44.8672
51.082
56.6344
61.2988
65.2376
68.3511
71.1645
73.5295
75.6263
77.6314
79.6035
81.6055
83.7736
86.0439
88.4268
90.8743
93.3651
95.8202
98.1221
100.036
101.184
53.1051
43.9018
37.9638
42.0182
48.6535
54.2914
59.1115
63.064
66.5987
69.3401
71.7623
73.9261
75.8916
77.8383
79.8793
81.9401
84.1253
86.404
88.7811
91.1865
93.5558
95.7771
97.6247
98.7276
60.2973
43.4507
35.9198
39.032
45.2848
51.4583
56.6489
61.0817
64.404
67.4609
69.9756
72.1343
74.1664
76.114
78.0264
80.1056
82.2567
84.5027
86.7862
89.105
91.3869
93.5277
95.3055
96.3633
57.7219
42.2198
33.4763
34.6235
41.9087
48.3299
53.9138
58.3428
62.4474
65.4551
68.0655
70.3688
72.3787
74.3172
76.3378
78.3016
80.3662
82.4987
84.7243
86.9633
89.164
91.2274
92.9425
93.9551
53.553
40.8261
30.7628
30.4254
36.3298
44.1089
50.5047
56.0054
59.7498
63.2886
66.1091
68.4273
70.5727
72.5611
74.4157
76.4468
78.5095
80.6411
82.7725
84.9283
87.0436
89.0276
90.6736
91.6416
51.1526
40.027
27.7924
20.5214
30.4574
38.9257
46.5615
52.0535
57.3909
60.9286
63.915
66.5063
68.6475
70.6422
72.7135
74.6097
76.5741
78.5757
80.6647
82.7459
84.7828
86.6915
88.2775
89.1995
32.6033
33.6658
23.7299
12.7413
11.9218
30.486
40.4912
48.9573
53.6464
58.2174
61.6338
64.2648
66.6538
68.775
70.6066
72.645
74.6603
76.7041
78.6936
80.6926
82.6433
84.4732
85.9876
86.8648
12.5923
13.4331
12.2196
7.36421
7.99541
7.2012
33.1483
41.9196
50.5085
55.1482
58.9009
62.0471
64.4538
66.5938
68.8227
70.6843
72.568
74.453
76.421
78.3497
80.2237
81.9772
83.4344
84.2634
9.99513
2.14538
8.59622
16.877
17.7479
18.3823
6.82912
36.5388
44.0474
51.356
56.0129
59.2528
62.1007
64.4992
66.3418
68.4707
70.4973
72.4897
74.3443
76.1882
77.9716
79.6441
81.024
81.8064
10.486
6.91038
4.58844
11.5532
10.3184
8.63065
7.98844
14.3724
39.394
46.592
52.1741
56.4446
59.3813
61.8127
64.3859
66.2505
68.0739
69.8481
71.7138
73.4913
75.1968
76.7887
78.1127
78.8426
5.61558
11.4122
8.56008
10.4153
4.68581
21.2261
20.8487
21.1417
19.8135
40.3591
48.0083
52.6079
56.353
59.3033
61.1847
63.5491
65.6791
67.6899
69.4106
71.0955
72.7005
74.206
75.4425
76.1213
11.6821
20.6395
22.9645
18.1829
9.68331
23.7001
7.84551
21.9768
14.3579
29.2621
41.6173
48.5236
52.6056
55.6168
58.9357
60.8531
62.6449
64.2848
66.079
67.7022
69.2252
70.6412
71.8229
72.4418
11.653
21.9368
26.7756
29.2696
24.6221
14.6496
3.79985
24.4374
14.6717
4.7138
32.6247
41.9741
48.0852
52.3355
54.2552
57.1799
59.6
61.7973
63.3772
64.8917
66.2971
67.6182
68.6963
69.2559
11.657
22.3064
28.0782
31.2259
32.1004
25.9116
23.8657
3.30183
24.9841
23.0997
18.648
35.4143
42.1023
46.3885
51.5762
53.6145
55.3971
56.8203
58.62
60.0888
61.4046
62.6235
63.6506
64.1369
11.4447
20.5104
26.9269
31.5099
33.432
33.0999
24.4164
23.3425
16.904
19.9828
17.1181
8.62679
32.9921
41.3655
43.1719
47.7192
51.0711
53.8519
55.2693
56.5944
57.7706
58.8798
59.7804
60.1998
11.2734
18.6901
25.1607
29.8748
32.9341
33.6189
32.736
21.5372
5.44735
17.7533
24.931
14.5295
12.4725
28.3645
40.2212
42.3878
43.7784
44.9522
47.0549
48.4057
49.4625
50.4785
51.3441
51.6448
8.86152
16.8425
23.1791
27.8918
31.0757
32.8963
32.4143
31.9243
19.8606
22.9176
8.12162
12.0125
23.6576
25.267
13.1219
28.7512
37.4311
41.5298
42.6767
43.8561
44.8048
45.6389
46.3706
46.637
7.31758
15.3745
21.0433
25.29
28.474
30.4427
31.4509
30.3867
31.5535
20.2356
10.2074
9.586
10.2636
4.58073
24.6482
15.3815
2.41388
14.2331
20.4595
20.7867
21.8033
22.5498
23.8994
23.6837
5.31591
13.5088
18.0605
21.6232
24.5426
26.8136
28.0504
29.419
29.0695
31.6278
21.204
19.4988
11.1646
24.8503
25.0269
20.6888
25.8574
27.7468
28.2627
22.4042
9.34649
24.0329
11.2133
11.2875
4.79541
12.1724
14.7663
16.9459
19.2636
21.5382
23.751
25.4898
28.3936
29.1685
32.1824
22.0945
11.6257
26.8721
26.3114
10.8887
26.8134
20.4933
6.31845
29.5148
22.3087
30.953
24.4561
23.493
3.93968
11.6377
12.5118
13.1022
14.2332
16.34
18.9168
22.0933
24.6448
28.3953
29.7838
32.5184
23.6779
18.0801
12.6987
21.1564
10.0619
18.1361
16.7937
30.2379
24.9422
30.5821
8.30581
25.1823
3.32372
11.2675
11.6852
11.9014
12.3754
14.1186
16.7487
19.2883
22.5817
25.1374
28.8886
30.5848
32.6301
26.2894
24.3825
21.5551
5.0466
6.72062
23.2146
19.5183
11.9411
11.6627
18.6068
29.2117
3.0243
11.1578
11.6196
11.7623
12.3962
14.6203
17.0294
19.3097
21.1452
23.8385
26.0368
29.4748
31.3483
32.3977
29.9806
19.4513
2.75364
18.5613
14.6092
6.50029
1.18795
18.8853
22.7239
16.9435
2.00698
9.51503
11.4688
11.6774
12.6661
15.451
18.0229
19.9624
21.8044
23.1129
25.1171
26.9813
30.004
31.9459
32.2324
32.2517
28.906
22.9479
17.0359
14.9098
13.6214
11.708
11.0044
11.7534
2.39043
10.1124
11.4809
11.6461
14.2053
17.174
19.4663
21.2954
22.6406
23.9852
24.8252
26.2197
27.8516
30.2636
32.2845
31.998
31.3513
30.9004
30.6007
30.3499
30.0019
29.6293
29.6422
29.8503
3.31147
11.4192
11.5668
13.2626
16.3612
19.0146
21.1042
22.7363
24.124
25.0419
25.8705
26.2818
27.1588
28.5734
30.3067
31.7419
31.499
30.5373
28.8409
27.2388
25.7671
24.9276
24.708
24.8676
3.5199
11.4406
12.9314
15.9105
18.7054
21.0139
22.8846
24.4356
25.6467
26.6379
27.1443
27.4739
27.5284
27.9434
29.0657
30.0255
30.3075
29.955
28.9755
27.7267
26.5068
25.8072
25.8292
26.1223
3.94065
11.997
15.5835
18.406
20.8204
22.8999
24.6689
26.1603
27.42
28.3011
28.8777
28.9778
28.8499
28.6151
28.6205
29.1305
29.3292
28.844
27.4504
25.5378
23.6844
22.6897
22.7519
23.2157
5.80321
14.9016
18.0962
20.584
22.7928
24.7502
26.4642
27.9651
29.2076
30.1716
30.6999
30.8589
30.5784
30.0456
29.5279
29.1259
28.8079
28.2426
27.083
25.4765
23.9318
23.1791
23.4539
24.0758
7.93761
16.9521
20.0596
22.4218
24.5507
26.4803
28.2165
29.7597
31.0827
32.068
32.6925
32.858
32.6082
31.973
31.084
30.1987
29.3338
28.3402
26.9231
25.0926
23.3332
22.4945
22.8608
23.6008
10.3549
18.8162
21.756
24.0731
26.2057
28.1596
29.9506
31.5708
32.9521
34.0318
34.709
34.9774
34.775
34.128
33.1319
31.8937
30.5657
29.1708
27.5783
25.792
24.2143
23.5596
24.0467
24.8567
64.0733
63.6338
67.2897
74.6286
73.3895
66.6008
64.4618
51.9122
52.728
48.2002
49.5738
17.54
36.698
10.9032
18.812
13.1999
14.5644
13.9232
13.5582
13.4067
13.409
13.5225
14.1466
13.6921
15.1438
17.0732
13.9839
25.6571
27.6804
5.41489
46.4897
58.5765
61.258
58.0478
57.8681
63.9948
56.5583
74.0549
68.3981
65.3945
49.6123
47.614
46.5138
44.5865
43.1769
40.9333
39.8377
37.7043
36.8714
34.9933
34.632
32.967
32.782
32.2926
31.6115
31.3288
30.8705
30.5932
30.3939
30.2735
30.2731
30.3975
30.569
30.9353
31.2341
31.6209
32.3796
32.6482
33.4947
33.974
35.4712
37.0688
38.0069
40.0801
40.8629
43.5575
44.1369
46.6813
47.5649
49.9494
54.2481
52.7031
52.2179
50.7631
50.2017
48.88
48.2775
47.1166
46.4786
45.4869
44.8727
44.1429
43.4725
42.8953
42.4356
41.9661
41.645
41.3744
41.1893
41.0858
41.0858
41.1874
41.3797
41.6296
41.9782
42.4354
42.8674
43.5152
44.0711
44.9426
45.4727
46.4681
47.0791
48.2505
48.8658
50.1905
50.7566
52.2351
52.6793
54.2559
62.6756
61.1815
60.6587
59.2234
58.5738
57.257
56.5487
55.391
54.6789
53.6987
53.009
52.2305
51.6383
51.0187
50.5348
50.1033
49.7559
49.4898
49.3063
49.204
49.2038
49.3063
49.487
49.7588
50.098
50.5304
51.0265
51.6271
52.2408
53.0146
53.691
54.6666
55.3842
56.5429
57.2482
58.5677
59.2157
60.6527
61.1653
62.6684
69.0828
67.542
66.9383
65.48
64.7573
63.4409
62.6634
61.5205
60.74
59.7802
59.0476
58.2692
57.627
57.0251
56.5156
56.0757
55.7254
55.4547
55.2687
55.1672
55.1671
55.268
55.4549
55.7226
56.0754
56.5152
57.0209
57.6277
58.2673
59.0465
59.776
60.7344
61.5143
62.6584
63.4354
64.7539
65.4736
66.9348
67.5308
69.0799
74.177
72.5939
71.9169
70.4471
69.6526
68.3459
67.5011
66.3736
65.5405
64.5894
63.8228
63.0439
62.3879
61.773
61.2583
60.8129
60.4557
60.1818
59.9943
59.8925
59.8923
59.9939
60.1806
60.4554
60.8112
61.2563
61.7721
62.3858
63.042
63.8209
64.5858
65.5354
66.3692
67.4957
68.3407
69.6465
70.4409
71.9107
72.5855
74.172
78.2466
76.6437
75.8905
74.4269
73.5675
72.2771
71.3824
70.2668
69.4012
68.4539
67.6686
66.8863
66.2191
65.6028
65.0792
64.6311
64.2703
63.994
63.8048
63.7028
63.7026
63.8042
63.9935
64.2689
64.6299
65.0777
65.6009
66.2171
66.8841
67.6659
68.4504
69.3972
70.2626
71.3777
72.2726
73.5621
74.4221
75.8841
76.6381
78.2396
81.6689
80.0557
79.2452
77.7874
76.8835
75.5994
74.6737
73.5591
72.6731
71.723
70.924
70.1374
69.4604
68.8386
68.3092
67.856
67.4908
67.2109
67.019
66.9152
66.915
67.0186
67.21
67.4899
67.8547
68.3076
68.8367
69.4583
70.1349
70.9212
71.7197
72.6693
73.555
74.6692
75.5947
76.8783
77.7822
79.2389
80.0503
81.6614
84.7113
83.0701
82.2283
80.7586
79.8302
78.5391
77.5939
76.4733
75.5714
74.6152
73.8032
73.01
72.3231
71.6948
71.1576
70.6987
70.3277
70.043
69.847
69.7399
69.7397
69.8465
70.0423
70.3265
70.6974
71.156
71.6929
72.3209
73.0076
73.8004
74.612
75.5677
76.4693
77.5896
78.5345
79.8253
80.7532
82.2229
83.0638
84.7054
87.5285
85.8306
84.9824
83.4851
82.5419
81.2361
80.2737
79.1428
78.2247
77.2592
76.4336
75.6312
74.9332
74.2963
73.7504
73.2841
72.9062
72.6158
72.4147
72.3033
72.3031
72.4143
72.615
72.9052
73.2827
73.7488
74.2944
74.931
75.6287
76.4307
77.256
78.221
79.139
80.2694
81.2318
82.5367
83.4801
84.9765
85.825
87.5221
90.1747
88.4376
87.5724
86.0523
85.0894
83.7676
82.7862
81.6415
80.7064
79.7282
78.888
78.0739
77.3636
76.7165
76.1607
75.6859
75.3005
75.0034
74.7967
74.6802
74.68
74.7961
75.0026
75.2994
75.6845
76.159
76.7145
77.3613
78.0713
78.8851
79.725
80.7029
81.6377
82.7819
83.7633
85.0843
86.0474
87.5664
88.4323
90.1679
92.7434
90.9424
90.0818
88.5202
87.5502
86.2007
85.206
84.0412
83.0908
82.0967
81.2418
80.4144
79.6913
79.0331
78.467
77.9833
77.5899
77.286
77.0733
76.9516
76.9514
77.0728
77.2852
77.5888
77.9819
78.4653
79.0312
79.689
80.4119
81.2389
82.0935
83.0873
84.0373
85.2018
86.1962
87.5453
88.5151
90.0761
90.9369
92.7368
95.3103
93.4434
92.5879
90.9852
90.0055
88.6295
87.6184
86.4344
85.4664
84.4566
83.5855
82.7447
82.008
81.3384
80.7615
80.2687
79.8673
79.5565
79.338
79.2109
79.2107
79.3374
79.5557
79.8661
80.2673
80.7599
81.3364
82.0057
82.7422
83.5826
84.4534
85.4628
86.4305
87.6143
88.6249
90.0007
90.98
92.5826
93.4374
95.3043
97.9584
96.0299
95.1751
93.5323
92.54
91.1367
90.1076
88.9028
87.9162
86.8891
86.001
85.1454
84.3946
83.7127
83.1246
82.6221
82.2124
81.8947
81.6703
81.538
81.5378
81.6697
81.8939
82.2113
82.6208
83.1229
83.7107
84.3923
85.1429
85.9981
86.8859
87.9126
88.899
90.1034
91.1323
92.5351
93.5273
95.1695
96.0242
97.9521
100.752
98.758
97.9029
96.2166
95.21
93.7764
92.7278
91.4992
90.4923
89.446
88.5393
87.6675
86.9008
86.2056
85.6054
85.0926
84.674
84.349
84.1186
83.9812
83.981
84.118
84.3482
84.6729
85.0912
85.6036
86.2036
86.8987
87.6649
88.5362
89.4429
90.4887
91.4956
92.7237
93.7718
95.2053
96.2113
97.8976
98.7521
100.745
103.723
101.651
100.8
99.0626
98.0423
96.5739
95.5037
94.2488
93.2191
92.1508
91.2237
90.3336
89.5502
88.8399
88.2263
87.7026
87.2744
86.9414
86.705
86.5623
86.5623
86.7042
86.9405
87.2732
87.7009
88.2247
88.8382
89.5476
90.331
91.2207
92.1478
93.2156
94.2449
95.4992
96.5694
98.0373
99.0575
100.795
101.645
103.717
106.868
104.719
103.865
102.077
101.037
99.5333
98.4374
97.1543
96.0993
95.0075
94.0575
93.1476
92.345
91.6189
90.9907
90.4542
90.0159
89.6749
89.4317
89.2846
89.2842
89.4313
89.6741
90.0147
90.453
90.9891
91.6168
92.3429
93.1451
94.0546
95.0042
96.0959
97.1505
98.4331
99.5285
101.032
102.072
103.86
104.714
106.861
110.173
107.945
107.086
105.245
104.183
102.641
101.517
100.205
99.1214
98.0045
97.0298
96.0982
95.2756
94.5318
93.8878
93.3386
92.8893
92.5397
92.2899
92.1375
92.1372
92.2891
92.5389
92.8881
93.3371
93.8862
94.5299
95.2732
96.0958
97.0269
98.0013
99.1177
100.2
101.513
102.637
104.178
105.241
107.08
107.94
110.167
113.602
111.296
110.426
108.534
107.446
105.866
104.711
103.368
102.255
101.112
100.111
99.1565
98.3122
97.5504
96.8901
96.327
95.8662
95.5077
95.2508
95.0934
95.0934
95.2505
95.5066
95.8651
96.3255
96.8882
97.5481
98.3103
99.1542
100.108
101.109
102.251
103.364
104.707
105.862
107.441
108.529
110.421
111.29
113.596
117.092
114.706
113.826
111.882
110.767
109.149
107.962
106.587
105.444
104.273
103.245
102.268
101.401
100.621
99.9435
99.3661
98.8936
98.526
98.2624
98.1003
98.0999
98.2617
98.5249
98.8925
99.3646
99.9416
100.618
101.399
102.265
103.242
104.27
105.44
106.584
107.958
109.144
110.762
111.877
113.821
114.7
117.086
120.533