/*--------------------------------*- C++ -*----------------------------------*\
  =========                 |
  \\      /  F ield         | OpenFOAM: The Open Source CFD Toolbox
   \\    /   O peration     | Website:  https://openfoam.org
    \\  /    A nd           | Version:  6
     \\/     M anipulation  |
\*---------------------------------------------------------------------------*/
FoamFile
{
    version     2.0;
    format      ascii;
    class       volVectorField;
    location    "5";
    object      wallShearStress;
}
// * * * * * * * * * * * * * * * * * * * * * * * * * * * * * * * * * * * * * //

dimensions      [0 2 -2 0 0 0 0];

internalField   uniform (0 0 0);

boundaryField
{
    inlet
    {
        type            calculated;
        value           uniform (0 0 0);
    }
    outlet
    {
        type            calculated;
        value           uniform (0 0 0);
    }
    roughCylinder
    {
        type            calculated;
        value           nonuniform List<vector> 
5120
(
(-0.00026402 -0.000376058 -0.000194092)
(-0.00032323 -0.000483513 -4.16132e-05)
(-0.000358945 -0.000580253 1.81659e-06)
(-0.000407463 -0.00067241 5.88481e-05)
(-0.000467386 -0.000751666 0.000124055)
(-0.000534791 -0.000813494 0.000189042)
(-0.000605927 -0.000855127 0.000249177)
(-0.000675845 -0.00087718 0.000301626)
(-0.0007404 -0.00088251 0.000344331)
(-0.000797969 -0.000877021 0.000376935)
(-0.000849172 -0.000870133 0.000401683)
(-0.000893502 -0.000865617 0.000419734)
(-0.000928994 -0.000864763 0.000430276)
(-0.000958831 -0.000869175 0.000434253)
(-0.000984211 -0.00087828 0.000432825)
(-0.00100656 -0.000891285 0.000427063)
(-0.00102729 -0.000907408 0.00041803)
(-0.00104767 -0.000925987 0.000406613)
(-0.00106862 -0.00094655 0.000393467)
(-0.00109077 -0.000968796 0.000378981)
(-0.00111443 -0.000992555 0.00036333)
(-0.00113972 -0.0010177 0.000346499)
(-0.00116655 -0.0010441 0.000328358)
(-0.00119477 -0.00107159 0.000308687)
(-0.0012241 -0.00109994 0.000287174)
(-0.00125426 -0.00112883 0.000263482)
(-0.00128478 -0.00115781 0.00023703)
(-0.00131525 -0.00118634 0.000207324)
(-0.00134448 -0.00121322 0.00017292)
(-0.00137165 -0.00123762 0.000132793)
(-0.00139232 -0.00125636 8.42229e-05)
(-0.00140464 -0.00126795 2.83253e-05)
(-0.000284485 -0.000365062 -0.00018421)
(-0.000347055 -0.000469937 -4.42786e-05)
(-0.000385541 -0.000565557 -4.08321e-06)
(-0.000436369 -0.000657591 4.96798e-05)
(-0.000498154 -0.000737962 0.000112448)
(-0.000567259 -0.000801585 0.000175827)
(-0.000639901 -0.000845303 0.000234958)
(-0.000711452 -0.000869695 0.000286867)
(-0.00077848 -0.000878234 0.000329693)
(-0.000839786 -0.000877368 0.000363635)
(-0.000895159 -0.000874225 0.000390427)
(-0.000943222 -0.000870988 0.00041044)
(-0.000980738 -0.000868352 0.000421776)
(-0.00101196 -0.000871718 0.000426201)
(-0.00103873 -0.000880152 0.000425034)
(-0.00106239 -0.000892826 0.000419449)
(-0.00108444 -0.000908826 0.000410545)
(-0.00110614 -0.000927415 0.000399265)
(-0.00112846 -0.000948048 0.000386285)
(-0.00115202 -0.000970383 0.000372016)
(-0.00117714 -0.000994222 0.000356636)
(-0.00120394 -0.00101942 0.000340141)
(-0.00123232 -0.00104585 0.000322385)
(-0.00126211 -0.00107333 0.000303152)
(-0.00129303 -0.00110162 0.000282115)
(-0.00132475 -0.00113042 0.000258939)
(-0.00135684 -0.00115928 0.000233029)
(-0.00138882 -0.00118768 0.000203924)
(-0.00141945 -0.0012144 0.000170147)
(-0.00144794 -0.00123865 0.000130776)
(-0.00146941 -0.00125716 8.30086e-05)
(-0.00148228 -0.00126863 2.78833e-05)
(-0.000305295 -0.00034898 -0.000166856)
(-0.000370876 -0.000451002 -4.75094e-05)
(-0.000411928 -0.000544731 -1.06736e-05)
(-0.000464658 -0.000635955 3.96324e-05)
(-0.000528 -0.000716894 9.96907e-05)
(-0.000598641 -0.000782058 0.000161255)
(-0.000672884 -0.000828051 0.000219331)
(-0.000746479 -0.000855541 0.00027092)
(-0.000816538 -0.000868239 0.000314398)
(-0.000881776 -0.000872074 0.000349974)
(-0.000941042 -0.000872239 0.000378556)
(-0.000992183 -0.000870222 0.000399848)
(-0.00103276 -0.000866746 0.000412191)
(-0.00106539 -0.000868904 0.0004171)
(-0.00109359 -0.0008765 0.000416168)
(-0.00111864 -0.000888679 0.000410787)
(-0.00114207 -0.000904413 0.000402064)
(-0.00116515 -0.000922853 0.000390973)
(-0.00118888 -0.000943399 0.000378214)
(-0.00121388 -0.000965667 0.000364218)
(-0.00124049 -0.000989417 0.00034917)
(-0.00126881 -0.00101449 0.000333062)
(-0.00129874 -0.00104075 0.000315751)
(-0.00133007 -0.00106802 0.00029701)
(-0.00136255 -0.00109606 0.000276507)
(-0.00139583 -0.00112458 0.000253902)
(-0.00142943 -0.00115313 0.000228589)
(-0.00146291 -0.00118118 0.000200147)
(-0.0014949 -0.00120755 0.000167061)
(-0.00152467 -0.0012315 0.000128533)
(-0.00154687 -0.00124962 8.16615e-05)
(-0.00156026 -0.0012609 2.73931e-05)
(-0.00032408 -0.000328554 -0.000144603)
(-0.00039233 -0.000427272 -5.08276e-05)
(-0.000435564 -0.000518396 -1.75418e-05)
(-0.000489643 -0.000608209 2.91243e-05)
(-0.000554148 -0.000689271 8.62217e-05)
(-0.000626183 -0.000755865 0.00014572)
(-0.000702194 -0.000804438 0.000202619)
(-0.000778248 -0.000835643 0.000253968)
(-0.000851639 -0.000853 0.000298283)
(-0.00092072 -0.000861413 0.000335513)
(-0.00098367 -0.000864601 0.00036574)
(-0.00103807 -0.000863988 0.000388143)
(-0.00108243 -0.000861074 0.000401821)
(-0.00111674 -0.000861435 0.000407177)
(-0.00114644 -0.000868085 0.00040653)
(-0.00117297 -0.000879637 0.000401403)
(-0.00119784 -0.000894975 0.000392917)
(-0.00122236 -0.000913158 0.000382069)
(-0.00124753 -0.000933512 0.000369591)
(-0.00127399 -0.000955589 0.000355924)
(-0.00130208 -0.000979127 0.000341258)
(-0.00133189 -0.00100395 0.00032559)
(-0.00136331 -0.00102991 0.000308772)
(-0.00139614 -0.00105682 0.000290568)
(-0.00143009 -0.00108445 0.000270636)
(-0.00146481 -0.00111251 0.000248635)
(-0.00149983 -0.00114057 0.000223947)
(-0.0015347 -0.00116814 0.0001962)
(-0.00156795 -0.001194 0.000163833)
(-0.00159893 -0.0012175 0.000126197)
(-0.00162173 -0.00123512 8.02685e-05)
(-0.00163558 -0.00124614 2.68838e-05)
(-0.000340379 -0.00030471 -0.000119923)
(-0.000410893 -0.000399552 -5.39273e-05)
(-0.000455808 -0.000487432 -2.43513e-05)
(-0.000510662 -0.000575218 1.85145e-05)
(-0.000575927 -0.000655924 7.23745e-05)
(-0.000649212 -0.000723784 0.000129518)
(-0.000727124 -0.000775093 0.000185055)
(-0.000805905 -0.000810279 0.000236114)
(-0.00088274 -0.000832299 0.000281231)
(-0.000955507 -0.00084494 0.000319974)
(-0.00102199 -0.000850899 0.000351725)
(-0.00107982 -0.000851806 0.000375292)
(-0.00112767 -0.000849809 0.000390121)
(-0.001165 -0.000848781 0.000396278)
(-0.00119633 -0.000854368 0.000396122)
(-0.00122447 -0.000865081 0.00039132)
(-0.00125085 -0.00087987 0.000383149)
(-0.00127685 -0.000897651 0.000372621)
(-0.00130346 -0.000917663 0.00036049)
(-0.00133137 -0.000939411 0.000347211)
(-0.00136089 -0.000962592 0.000332984)
(-0.00139212 -0.000987007 0.000317809)
(-0.00142495 -0.00101249 0.000301527)
(-0.00145916 -0.00103887 0.000283901)
(-0.00149445 -0.00106592 0.000264576)
(-0.00153049 -0.00109336 0.000243207)
(-0.0015668 -0.00112077 0.000219168)
(-0.00160292 -0.00114767 0.000192137)
(-0.00163732 -0.00117286 0.00016051)
(-0.0016694 -0.00119577 0.000123807)
(-0.00169263 -0.00121277 7.88582e-05)
(-0.00170688 -0.00122346 2.63644e-05)
(-0.000353484 -0.000278163 -9.43417e-05)
(-0.000425848 -0.000368633 -5.66107e-05)
(-0.000471916 -0.000452705 -3.08873e-05)
(-0.000526971 -0.000537912 7.99212e-06)
(-0.000592579 -0.000617819 5.83123e-05)
(-0.000666961 -0.000686773 0.00011277)
(-0.000746881 -0.000740899 0.000166703)
(-0.000828564 -0.000780124 0.000217354)
(-0.000908911 -0.000806579 0.000263162)
(-0.000985323 -0.000823001 0.000303223)
(-0.00105536 -0.000831504 0.000336372)
(-0.00111677 -0.000833936 0.000361153)
(-0.0011682 -0.000832927 0.000377011)
(-0.00120968 -0.000831848 0.000384433)
(-0.00124288 -0.00083554 0.000384855)
(-0.00127274 -0.000845253 0.000380499)
(-0.00130075 -0.000859256 0.000372742)
(-0.00132827 -0.000876458 0.000362623)
(-0.00135636 -0.000895975 0.000350914)
(-0.00138569 -0.000917241 0.000338098)
(-0.0014166 -0.000939909 0.000324376)
(-0.00144918 -0.000963765 0.000309749)
(-0.00148331 -0.000988623 0.000294058)
(-0.00151879 -0.00101431 0.000277051)
(-0.00155528 -0.0010406 0.000258365)
(-0.00159247 -0.00106723 0.000237652)
(-0.0016299 -0.0010938 0.000214277)
(-0.00166712 -0.00111987 0.000187982)
(-0.00170251 -0.00114423 0.000157106)
(-0.00173557 -0.0011664 0.000121378)
(-0.00175906 -0.00118267 7.74415e-05)
(-0.00177357 -0.00119297 2.58376e-05)
(-0.000363099 -0.000249964 -6.90797e-05)
(-0.000436793 -0.000335575 -5.87957e-05)
(-0.000483432 -0.000415324 -3.69975e-05)
(-0.000538058 -0.00049741 -2.27238e-06)
(-0.0006035 -0.000576024 4.41872e-05)
(-0.000678689 -0.000645775 9.55784e-05)
(-0.000760521 -0.000702573 0.000147605)
(-0.000845095 -0.000745643 0.000197625)
(-0.00092895 -0.000776179 0.000243903)
(-0.00100908 -0.000796026 0.00028507)
(-0.00108282 -0.000806917 0.000319504)
(-0.00114799 -0.000810899 0.000345549)
(-0.00120329 -0.000810904 0.000362549)
(-0.00124874 -0.000810285 0.00037117)
(-0.00128539 -0.000812534 0.000372591)
(-0.00131717 -0.000820733 0.000368873)
(-0.00134695 -0.000833756 0.000361663)
(-0.00137609 -0.000850141 0.000352056)
(-0.00140568 -0.000868967 0.000340867)
(-0.00143642 -0.000889587 0.000328592)
(-0.00146866 -0.000911592 0.000315448)
(-0.00150249 -0.000934737 0.000301432)
(-0.0015378 -0.000958821 0.000286381)
(-0.00157437 -0.000983674 0.000270036)
(-0.0016119 -0.00100907 0.000252024)
(-0.00165007 -0.00103477 0.000231992)
(-0.00168844 -0.00106038 0.000209297)
(-0.00172659 -0.00108547 0.000183751)
(-0.00176282 -0.00110889 0.000153636)
(-0.00179676 -0.0011302 0.000118925)
(-0.00182028 -0.00114565 7.60322e-05)
(-0.00183498 -0.00115551 2.53081e-05)
(-0.000368272 -0.000220413 -4.48959e-05)
(-0.000442758 -0.000300753 -6.03842e-05)
(-0.000489373 -0.000375705 -4.25343e-05)
(-0.000542896 -0.000454114 -1.21303e-05)
(-0.000607557 -0.000530883 3.01224e-05)
(-0.000683147 -0.000601024 7.80231e-05)
(-0.000766719 -0.000660241 0.000127751)
(-0.000854163 -0.000706935 0.000176818)
(-0.000941587 -0.00074127 0.000223284)
(-0.00102557 -0.000764279 0.000265315)
(-0.00110324 -0.000777469 0.000300908)
(-0.00117244 -0.000783056 0.000328265)
(-0.00123184 -0.000784102 0.000346573)
(-0.00128136 -0.000784012 0.000356403)
(-0.00132224 -0.000785853 0.000359102)
(-0.00135686 -0.000792282 0.000356333)
(-0.00138857 -0.000803771 0.000349826)
(-0.00141944 -0.000819179 0.000340883)
(-0.0014506 -0.000837156 0.000330326)
(-0.00148275 -0.000856972 0.000318693)
(-0.00151626 -0.000878169 0.00030621)
(-0.00155124 -0.000900462 0.000292878)
(-0.00158759 -0.000923638 0.000278525)
(-0.00162509 -0.000947514 0.000262889)
(-0.00166343 -0.00097187 0.000245581)
(-0.00170232 -0.000996469 0.000226246)
(-0.00174141 -0.00102097 0.000204235)
(-0.00178028 -0.00104495 0.000179449)
(-0.00181714 -0.00106728 0.000150098)
(-0.00185179 -0.00108762 0.000116453)
(-0.00187507 -0.00110224 7.46389e-05)
(-0.00188981 -0.0011117 2.47777e-05)
(-0.000368978 -0.000190363 -2.24932e-05)
(-0.000443644 -0.000265098 -6.13671e-05)
(-0.000489621 -0.00033487 -4.74152e-05)
(-0.000541344 -0.000409108 -2.14205e-05)
(-0.000604521 -0.000483443 1.63357e-05)
(-0.000679947 -0.000553427 6.03194e-05)
(-0.000764869 -0.000614593 0.00010729)
(-0.000854921 -0.000664462 0.000154966)
(-0.000945803 -0.000702198 0.000201216)
(-0.00103374 -0.000728149 0.000243818)
(-0.00111561 -0.000743569 0.000280434)
(-0.00118909 -0.000750764 0.000309097)
(-0.00125286 -0.000752906 0.000328874)
(-0.00130669 -0.000753372 0.000340117)
(-0.00135173 -0.000755182 0.000344145)
(-0.00139025 -0.000760617 0.000342651)
(-0.00142479 -0.00077052 0.000337208)
(-0.00145751 -0.000784321 0.000329073)
(-0.00149027 -0.000801054 0.000319274)
(-0.00152382 -0.000819837 0.000308402)
(-0.00155852 -0.000840093 0.00029668)
(-0.0015945 -0.000861471 0.000284113)
(-0.00163168 -0.000883709 0.000270526)
(-0.00166986 -0.000906616 0.000255647)
(-0.00170878 -0.000929978 0.000239088)
(-0.00174816 -0.000953548 0.000220472)
(-0.00178772 -0.000976988 0.000199157)
(-0.00182706 -0.000999882 0.000175134)
(-0.00186437 -0.00102113 0.000146541)
(-0.00189962 -0.00104045 0.000114007)
(-0.00192221 -0.00105419 7.32919e-05)
(-0.0019367 -0.00106316 2.42533e-05)
(-0.00036422 -0.000160121 -2.33986e-06)
(-0.000438357 -0.000228798 -6.17074e-05)
(-0.000483063 -0.000293131 -5.14831e-05)
(-0.000532221 -0.000362621 -2.99434e-05)
(-0.00059303 -0.000433792 3.03132e-06)
(-0.000667498 -0.000502888 4.2614e-05)
(-0.00075327 -0.000565451 8.62646e-05)
(-0.000845771 -0.000618152 0.000132009)
(-0.000940212 -0.000659119 0.000177585)
(-0.00103232 -0.000687928 0.000220423)
(-0.0011187 -0.000705594 0.000257899)
(-0.00119688 -0.000714454 0.000287868)
(-0.00126531 -0.000717699 0.000309222)
(-0.00132372 -0.000718733 0.000322099)
(-0.00137307 -0.000720561 0.000327666)
(-0.00141549 -0.000725405 0.000327586)
(-0.00145335 -0.000734139 0.000323422)
(-0.00148877 -0.00074652 0.00031644)
(-0.0015236 -0.000761975 0.000307686)
(-0.00155864 -0.00077958 0.000297751)
(-0.00159441 -0.000798725 0.0002869)
(-0.00163111 -0.000818996 0.000275163)
(-0.00166873 -0.000840113 0.000262375)
(-0.00170711 -0.000861861 0.000248269)
(-0.00174602 -0.000884013 0.000232445)
(-0.00178523 -0.000906325 0.000214523)
(-0.00182467 -0.000928497 0.000193874)
(-0.00186398 -0.000950134 0.00017061)
(-0.00190131 -0.000970157 0.00014278)
(-0.00193688 -0.000988349 0.000111441)
(-0.00195832 -0.00100107 7.18962e-05)
(-0.00197234 -0.00100942 2.37011e-05)
(-0.000353653 -0.000130446 1.5083e-05)
(-0.000427538 -0.000192958 -6.14969e-05)
(-0.000470059 -0.000251734 -5.47548e-05)
(-0.000515945 -0.000316018 -3.75434e-05)
(-0.000573515 -0.000383379 -9.49539e-06)
(-0.000646156 -0.00045082 2.528e-05)
(-0.000732063 -0.000514057 6.50141e-05)
(-0.000826475 -0.000568987 0.000108169)
(-0.000924154 -0.000612754 0.000152471)
(-0.00102048 -0.000644273 0.000195116)
(-0.00111163 -0.000664177 0.000233219)
(-0.00119477 -0.000674671 0.000264421)
(-0.00126825 -0.000679014 0.000287427)
(-0.00133158 -0.000680611 0.000302142)
(-0.00138553 -0.000682454 0.000309508)
(-0.00143198 -0.00068674 0.000311063)
(-0.0014732 -0.000694456 0.00030837)
(-0.00151138 -0.000705622 0.000302741)
(-0.00154824 -0.000719774 0.000295204)
(-0.00158473 -0.000736082 0.000286362)
(-0.00162145 -0.000753925 0.000276509)
(-0.00165868 -0.000772889 0.0002657)
(-0.00169648 -0.000792656 0.000253784)
(-0.00173473 -0.000813004 0.000240495)
(-0.00177333 -0.000833735 0.00022545)
(-0.00181208 -0.000854606 0.000208247)
(-0.00185112 -0.000875335 0.000188283)
(-0.00189008 -0.000895529 0.0001658)
(-0.0019272 -0.00091419 0.000138759)
(-0.00196294 -0.000931179 0.000108727)
(-0.00198286 -0.000942844 7.04428e-05)
(-0.00199633 -0.000950559 2.31198e-05)
(-0.000335184 -0.000101206 2.94906e-05)
(-0.000410268 -0.000158154 -6.0454e-05)
(-0.000449486 -0.000210867 -5.70969e-05)
(-0.000491062 -0.000269399 -4.39513e-05)
(-0.000544181 -0.00033206 -2.09035e-05)
(-0.000613703 -0.000396761 8.62594e-06)
(-0.000698774 -0.000459772 4.37182e-05)
(-0.000794733 -0.000516504 8.34877e-05)
(-0.000895818 -0.000563064 0.000125839)
(-0.000996625 -0.00059739 0.000167791)
(-0.00109292 -0.000619663 0.000206235)
(-0.00118159 -0.000631961 0.000238602)
(-0.00126057 -0.000637412 0.000263319)
(-0.00132917 -0.000639493 0.000280023)
(-0.00138804 -0.00064128 0.00028943)
(-0.00143883 -0.000644979 0.000292907)
(-0.00148367 -0.000651686 0.000291947)
(-0.00152463 -0.000661561 0.000287868)
(-0.00156355 -0.000674324 0.000281726)
(-0.00160145 -0.000689199 0.000274139)
(-0.00163902 -0.000705608 0.000265429)
(-0.00167663 -0.000723119 0.00025567)
(-0.00171442 -0.000741427 0.000244729)
(-0.00175233 -0.000760277 0.000232343)
(-0.00179026 -0.000779456 0.000218127)
(-0.00182813 -0.000798732 0.000201659)
(-0.00186638 -0.000817881 0.00018239)
(-0.00190469 -0.000836538 0.000160713)
(-0.00194136 -0.000853742 0.000134486)
(-0.00197704 -0.000869429 0.000105876)
(-0.00199485 -0.000879969 6.89442e-05)
(-0.00200744 -0.000886959 2.25094e-05)
(-0.000310254 -7.36984e-05 4.08608e-05)
(-0.000386646 -0.000125392 -5.8654e-05)
(-0.000422572 -0.000171971 -5.85083e-05)
(-0.000459097 -0.00022457 -4.90637e-05)
(-0.000506818 -0.000281939 -3.0851e-05)
(-0.000572103 -0.000342998 -6.80265e-06)
(-0.000655236 -0.000404824 2.3016e-05)
(-0.000751696 -0.000462492 5.85336e-05)
(-0.000855294 -0.000511206 9.80604e-05)
(-0.000960359 -0.000548175 0.000138653)
(-0.00106198 -0.0005729 0.000177026)
(-0.00115636 -0.000586999 0.000210341)
(-0.00124126 -0.000593577 0.000236767)
(-0.00131564 -0.00059611 0.000255618)
(-0.00137984 -0.000597733 0.000267307)
(-0.00143528 -0.000600727 0.000272984)
(-0.00148394 -0.000606301 0.000274039)
(-0.00152795 -0.000614835 0.000271786)
(-0.00156903 -0.000626093 0.000267262)
(-0.00160831 -0.000639407 0.000261122)
(-0.00164659 -0.000654245 0.000253712)
(-0.00168433 -0.000670167 0.000245127)
(-0.00172172 -0.000686855 0.000235246)
(-0.00175881 -0.000704059 0.000223816)
(-0.00179567 -0.000721583 0.000210479)
(-0.00183226 -0.000739213 0.000194774)
(-0.00186941 -0.000756716 0.000176212)
(-0.00190668 -0.000773748 0.000155353)
(-0.00194261 -0.000789426 0.000129955)
(-0.00197808 -0.000803777 0.000102903)
(-0.00199334 -0.000813245 6.7425e-05)
(-0.00200499 -0.000819581 2.18799e-05)
(-0.000277976 -4.85923e-05 4.88638e-05)
(-0.000354665 -9.4634e-05 -5.58637e-05)
(-0.000387376 -0.000135117 -5.86547e-05)
(-0.000418152 -0.000181399 -5.24793e-05)
(-0.000458997 -0.000232512 -3.88445e-05)
(-0.000518113 -0.000288482 -2.04233e-05)
(-0.000597547 -0.000347719 3.41297e-06)
(-0.000693747 -0.00040566 3.36552e-05)
(-0.000800218 -0.000456711 6.93805e-05)
(-0.000909874 -0.000496613 0.000107821)
(-0.00101714 -0.000524054 0.00014558)
(-0.00111795 -0.000540325 0.000179607)
(-0.00120931 -0.000548187 0.000207691)
(-0.00128991 -0.000551146 0.000228792)
(-0.00135983 -0.000552474 0.000242985)
(-0.0014203 -0.000554616 0.000251158)
(-0.00147317 -0.000558959 0.000254556)
(-0.00152033 -0.00056597 0.00025441)
(-0.00156363 -0.000575577 0.000251767)
(-0.00160427 -0.000587211 0.000247297)
(-0.00164313 -0.000600365 0.000241372)
(-0.00168081 -0.00061462 0.000234106)
(-0.00171758 -0.000629651 0.000225399)
(-0.00175361 -0.000645204 0.000215012)
(-0.00178896 -0.000661043 0.000202602)
(-0.00182373 -0.000676964 0.000187652)
(-0.00185929 -0.000692757 0.000169781)
(-0.00189518 -0.00070816 0.000149748)
(-0.00193016 -0.000722281 0.000125184)
(-0.00196519 -0.000735232 9.98283e-05)
(-0.00197711 -0.00074364 6.58994e-05)
(-0.00198734 -0.000749245 2.12302e-05)
(-0.000240584 -2.72379e-05 5.3504e-05)
(-0.00031612 -6.71546e-05 -5.22601e-05)
(-0.00034625 -0.000101961 -5.77732e-05)
(-0.000371574 -0.000142158 -5.43731e-05)
(-0.000405163 -0.000186805 -4.47496e-05)
(-0.000457049 -0.000236924 -3.16801e-05)
(-0.000531331 -0.000292421 -1.41746e-05)
(-0.000625285 -0.000349254 9.87149e-06)
(-0.000732243 -0.000401272 4.06182e-05)
(-0.000845476 -0.00044368 7.58743e-05)
(-0.000958385 -0.000474019 0.000112287)
(-0.00106555 -0.000492561 0.000146537)
(-0.00116376 -0.000501884 0.000176105)
(-0.00125114 -0.000505381 0.000199516)
(-0.00132735 -0.000506406 0.000216429)
(-0.00139329 -0.000507579 0.000227399)
(-0.00145057 -0.000510488 0.000233454)
(-0.00150121 -0.000515859 0.00023576)
(-0.00154686 -0.000523684 0.000235295)
(-0.00158882 -0.000533509 0.000232741)
(-0.0016281 -0.000544883 0.000228488)
(-0.00166538 -0.000557394 0.000222675)
(-0.00170107 -0.000570691 0.000215229)
(-0.00173539 -0.000584517 0.000205925)
(-0.00176872 -0.000598668 0.000194479)
(-0.00180123 -0.000612939 0.000180288)
(-0.0018349 -0.000627089 0.000163102)
(-0.00186891 -0.000640829 0.000143878)
(-0.00190264 -0.000653374 0.000120142)
(-0.00193714 -0.000664932 9.66523e-05)
(-0.00194521 -0.000672481 6.43896e-05)
(-0.00195402 -0.00067751 2.05701e-05)
(-0.000196624 -9.84421e-06 5.42674e-05)
(-0.000268824 -4.30729e-05 -4.74261e-05)
(-0.000296512 -7.21507e-05 -5.53573e-05)
(-0.000316312 -0.000106028 -5.42244e-05)
(-0.000341447 -0.000143389 -4.78811e-05)
(-0.000383512 -0.000185925 -3.96036e-05)
(-0.000449523 -0.00023551 -2.85642e-05)
(-0.000539682 -0.000290022 -1.16884e-05)
(-0.000648244 -0.00034355 1.27337e-05)
(-0.000765609 -0.000389001 4.35137e-05)
(-0.000884228 -0.000422642 7.7592e-05)
(-0.000998603 -0.000444155 0.00011149)
(-0.00110417 -0.00045535 0.000142225)
(-0.00119869 -0.000459561 0.000167871)
(-0.00128151 -0.000460293 0.000187626)
(-0.00135325 -0.000460417 0.00020165)
(-0.00141539 -0.00046181 0.000210716)
(-0.00146958 -0.000465348 0.000215788)
(-0.0015176 -0.000471246 0.000217805)
(-0.00156084 -0.000479165 0.000217429)
(-0.00160037 -0.000488707 0.000215057)
(-0.00163701 -0.000499467 0.000210852)
(-0.00167136 -0.000511099 0.000204783)
(-0.00170377 -0.000523321 0.000196652)
(-0.00173458 -0.000535862 0.000186209)
(-0.00176414 -0.000548541 0.000172737)
(-0.00179528 -0.000561026 0.000156179)
(-0.00182716 -0.000573238 0.00013776)
(-0.00185951 -0.000584246 0.00011484)
(-0.00189327 -0.000594388 9.33949e-05)
(-0.00189636 -0.000601149 6.29011e-05)
(-0.00190312 -0.000605571 1.98923e-05)
(-0.000150236 2.26316e-06 5.16442e-05)
(-0.000217103 -2.40624e-05 -4.17321e-05)
(-0.000243394 -4.76994e-05 -5.19586e-05)
(-0.000259395 -7.58735e-05 -5.27923e-05)
(-0.000277453 -0.000106605 -4.88786e-05)
(-0.000310208 -0.000141765 -4.43338e-05)
(-0.000367041 -0.000184628 -3.91695e-05)
(-0.00044999 -0.000234656 -2.99557e-05)
(-0.000553442 -0.000286211 -1.30763e-05)
(-0.000671774 -0.000333416 1.19288e-05)
(-0.000795522 -0.000370482 4.24443e-05)
(-0.000916306 -0.000395135 7.50179e-05)
(-0.00102946 -0.000408723 0.000106378)
(-0.00113171 -0.000414137 0.000134055)
(-0.00122174 -0.000414879 0.000156702)
(-0.00129982 -0.000414074 0.00017401)
(-0.00136702 -0.00041388 0.000186371)
(-0.00142513 -0.000415564 0.000194575)
(-0.00147567 -0.00041947 0.000199402)
(-0.00152008 -0.000425429 0.00020147)
(-0.0015596 -0.000433112 0.000201179)
(-0.00159519 -0.000442122 0.000198713)
(-0.00162756 -0.000452085 0.000194089)
(-0.00165721 -0.0004627 0.000187145)
(-0.0016849 -0.000473733 0.000177731)
(-0.00171099 -0.000484988 0.000164949)
(-0.00173951 -0.000496014 0.000149005)
(-0.0017685 -0.000506702 0.000131333)
(-0.00179919 -0.000516174 0.000109205)
(-0.00183217 -0.000524954 9.00286e-05)
(-0.00182992 -0.000531299 6.14529e-05)
(-0.00183466 -0.000535312 1.92076e-05)
(-9.84772e-05 1.00295e-05 4.519e-05)
(-0.000156701 -9.09195e-06 -3.44778e-05)
(-0.000181322 -2.69266e-05 -4.65453e-05)
(-0.000193912 -4.90025e-05 -4.90445e-05)
(-0.000203911 -7.22238e-05 -4.66925e-05)
(-0.000223595 -9.79334e-05 -4.42695e-05)
(-0.000266245 -0.000131197 -4.35778e-05)
(-0.000338382 -0.000174906 -4.13634e-05)
(-0.000442736 -0.00022657 -3.31952e-05)
(-0.000563473 -0.000275792 -1.67166e-05)
(-0.000691678 -0.000316804 8.32704e-06)
(-0.000819966 -0.000345866 3.834e-05)
(-0.0009408 -0.000362596 6.94504e-05)
(-0.00105073 -0.000369726 9.86516e-05)
(-0.00114805 -0.000370829 0.000124003)
(-0.00123249 -0.00036926 0.000144638)
(-0.00130504 -0.000367614 0.000160541)
(-0.00136694 -0.000367385 0.000172142)
(-0.00141987 -0.000369265 0.000180065)
(-0.00146532 -0.000373267 0.000184838)
(-0.00150458 -0.00037913 0.00018683)
(-0.0015388 -0.000386495 0.000186246)
(-0.00156896 -0.000394961 0.000183176)
(-0.00159573 -0.000404216 0.000177505)
(-0.00161974 -0.000413931 0.000169146)
(-0.00164158 -0.000423912 0.000156972)
(-0.00166647 -0.000433455 0.000141527)
(-0.00169267 -0.0004429 0.000124601)
(-0.00172173 -0.000450934 0.000103244)
(-0.00175374 -0.000458355 8.657e-05)
(-0.00174448 -0.000464347 6.00252e-05)
(-0.00174651 -0.000467935 1.84997e-05)
(-5.24255e-05 1.20597e-05 3.71328e-05)
(-9.96843e-05 -1.00762e-07 -2.61867e-05)
(-0.000123668 -1.22756e-05 -3.97415e-05)
(-0.000135962 -2.89919e-05 -4.34223e-05)
(-0.000144145 -4.60868e-05 -4.13876e-05)
(-0.000160418 -6.48691e-05 -4.09062e-05)
(-0.00018996 -8.88963e-05 -4.27946e-05)
(-0.000250859 -0.0001228 -4.73876e-05)
(-0.000329639 -0.000165829 -5.04332e-05)
(-0.000444575 -0.000217235 -4.1499e-05)
(-0.00057529 -0.000261758 -2.29558e-05)
(-0.000708008 -0.000294972 2.8665e-06)
(-0.000836572 -0.000315968 3.24784e-05)
(-0.00095469 -0.000325928 6.2362e-05)
(-0.00105974 -0.000328228 8.99967e-05)
(-0.00115111 -0.000326518 0.000113887)
(-0.00122914 -0.000323712 0.000133438)
(-0.0012952 -0.000321837 0.000148706)
(-0.0013506 -0.000321843 0.000160006)
(-0.00139685 -0.000323982 0.000167711)
(-0.00143547 -0.000328129 0.000172153)
(-0.00146776 -0.000333953 0.000173542)
(-0.0014949 -0.000341001 0.000172044)
(-0.0015177 -0.00034894 0.000167616)
(-0.00153732 -0.000357509 0.000160321)
(-0.00155437 -0.000366473 0.000148688)
(-0.0015761 -0.000374894 0.000133741)
(-0.00159822 -0.000383052 0.000117444)
(-0.00162541 -0.000389638 9.68268e-05)
(-0.00165657 -0.000395821 8.29505e-05)
(-0.00164041 -0.000401976 5.86351e-05)
(-0.00163972 -0.00040532 1.7778e-05)
(-1.16446e-05 8.16239e-06 2.3216e-05)
(-3.74376e-05 3.1919e-06 -1.27906e-05)
(-5.71858e-05 -2.79106e-06 -2.55835e-05)
(-6.97561e-05 -1.26521e-05 -3.24541e-05)
(-7.22399e-05 -2.23845e-05 -3.57201e-05)
(-6.64103e-05 -3.32929e-05 -2.8367e-05)
(-8.86976e-05 -4.43046e-05 -3.00624e-05)
(-0.000129328 -7.40429e-05 -3.92167e-05)
(-0.000224098 -0.000112727 -4.71398e-05)
(-0.000318239 -0.000154124 -5.7248e-05)
(-0.000446614 -0.000203946 -4.80193e-05)
(-0.000586816 -0.000243641 -2.8834e-05)
(-0.000721131 -0.000269495 -2.70418e-06)
(-0.000846381 -0.000283164 2.65883e-05)
(-0.000958711 -0.000287495 5.56672e-05)
(-0.00105645 -0.00028622 8.23772e-05)
(-0.00113979 -0.000282761 0.000105484)
(-0.0012094 -0.000279485 0.000124466)
(-0.00126677 -0.000277824 0.000139281)
(-0.00131347 -0.000278317 0.000150082)
(-0.00135105 -0.000280951 0.000157102)
(-0.00138103 -0.000285466 0.000160544)
(-0.00140502 -0.000291377 0.000160687)
(-0.00142392 -0.000298342 0.000157579)
(-0.00143868 -0.000306031 0.000151364)
(-0.00145005 -0.000314167 0.00014013)
(-0.00146704 -0.000321323 0.000125486)
(-0.00148591 -0.000328656 0.000109861)
(-0.00151153 -0.00033389 8.99672e-05)
(-0.00154157 -0.000338867 7.91771e-05)
(-0.00151613 -0.000345049 5.71983e-05)
(-0.00151222 -0.000348133 1.70095e-05)
(4.06956e-06 1.02454e-05 2.21687e-05)
(-4.14761e-06 2.33617e-06 -9.44715e-06)
(-1.18335e-05 3.64475e-07 -1.62603e-05)
(-1.97446e-05 -4.49157e-06 -2.42237e-05)
(-2.571e-05 -1.26273e-05 -3.05704e-05)
(-2.63802e-05 -2.13116e-05 -2.85446e-05)
(-3.05851e-05 -2.67598e-05 -2.40801e-05)
(-5.5513e-05 -4.66067e-05 -3.4502e-05)
(-8.22854e-05 -6.58674e-05 -2.58029e-05)
(-0.000207123 -9.98224e-05 -3.64498e-05)
(-0.000319712 -0.000139574 -6.30031e-05)
(-0.00044921 -0.000187185 -5.43378e-05)
(-0.00059102 -0.000220707 -3.31927e-05)
(-0.000724081 -0.000239743 -6.95941e-06)
(-0.000843861 -0.000247611 2.21342e-05)
(-0.000948462 -0.000248061 5.09068e-05)
(-0.00103709 -0.00024481 7.72278e-05)
(-0.00111058 -0.000240881 9.98953e-05)
(-0.0011699 -0.000238083 0.000118302)
(-0.00121658 -0.000237285 0.000132263)
(-0.00125255 -0.000238693 0.000141899)
(-0.0012795 -0.000242134 0.000147373)
(-0.00129929 -0.000247032 0.000149067)
(-0.00131302 -0.000253052 0.000147173)
(-0.001322 -0.000260019 0.000142007)
(-0.00132732 -0.000267575 0.000131071)
(-0.00134105 -0.000273961 0.000116794)
(-0.0013546 -0.000280283 0.000101645)
(-0.00137852 -0.000284095 8.24669e-05)
(-0.0014078 -0.000288097 7.51217e-05)
(-0.00137433 -0.00029483 5.57351e-05)
(-0.00136702 -0.000297659 1.62008e-05)
(2.0745e-05 9.07483e-06 2.61105e-05)
(2.20276e-05 4.80486e-06 -6.93455e-06)
(1.75764e-05 2.60252e-06 -1.23292e-05)
(9.72078e-06 -1.2279e-06 -1.47702e-05)
(1.21348e-08 -5.99411e-06 -1.81167e-05)
(-1.07572e-05 -1.21119e-05 -2.39369e-05)
(-1.8193e-05 -1.61159e-05 -2.50716e-05)
(-2.96934e-05 -1.78002e-05 -2.79007e-05)
(-4.40683e-05 -3.47803e-05 -3.54713e-05)
(-6.5732e-05 -4.77638e-05 -2.63364e-05)
(-0.000190891 -8.89867e-05 -4.64662e-05)
(-0.000324533 -0.000129583 -6.44017e-05)
(-0.000457871 -0.000170387 -5.83746e-05)
(-0.000594496 -0.000196681 -3.65671e-05)
(-0.000720337 -0.000209014 -8.93803e-06)
(-0.000830183 -0.000212013 2.07356e-05)
(-0.000923179 -0.000209891 4.95743e-05)
(-0.000999093 -0.000205929 7.55074e-05)
(-0.00105913 -0.000202536 9.72809e-05)
(-0.00110511 -0.000200952 0.000114289)
(-0.0011389 -0.000201536 0.00012647)
(-0.00116238 -0.000204267 0.000133894)
(-0.00117812 -0.000208487 0.000137107)
(-0.00118714 -0.000213894 0.00013648)
(-0.0011904 -0.000220459 0.000132399)
(-0.00118878 -0.000227524 0.000121545)
(-0.00119683 -0.000232747 0.000107344)
(-0.00120698 -0.000238646 9.28056e-05)
(-0.00122987 -0.000241098 7.43763e-05)
(-0.00125793 -0.00024422 7.0772e-05)
(-0.00121319 -0.000250823 5.40209e-05)
(-0.00120254 -0.000253241 1.52905e-05)
(3.73967e-05 1.00016e-05 3.69275e-05)
(4.736e-05 6.6849e-06 -7.39771e-06)
(4.79505e-05 1.56198e-06 -1.09455e-05)
(4.35618e-05 -4.72047e-06 -1.14091e-05)
(3.42131e-05 -1.05744e-05 -7.09573e-06)
(1.92248e-05 -7.87147e-06 -5.61692e-06)
(5.83214e-06 -3.05433e-06 -1.61036e-05)
(-2.14783e-06 -8.97924e-06 -1.59106e-05)
(-2.32697e-05 -3.43171e-06 -3.05043e-05)
(-2.03467e-05 -1.92086e-05 -2.93249e-05)
(-5.33643e-05 -3.60042e-05 -2.47494e-05)
(-0.000176339 -7.75322e-05 -5.2023e-05)
(-0.000314437 -0.00011851 -6.74739e-05)
(-0.000453727 -0.000150889 -5.80209e-05)
(-0.000585649 -0.000169409 -3.53898e-05)
(-0.00070169 -0.000176844 -6.66284e-06)
(-0.000798682 -0.000177156 2.35659e-05)
(-0.000877224 -0.000174428 5.21471e-05)
(-0.000937957 -0.000171409 7.69322e-05)
(-0.000982442 -0.000169677 9.66792e-05)
(-0.00101327 -0.000169901 0.000111163)
(-0.00103243 -0.00017225 0.00012029)
(-0.00104287 -0.000175852 0.000124715)
(-0.00104577 -0.000180477 0.000125133)
(-0.00104185 -0.000186584 0.000121993)
(-0.00103331 -0.000193151 0.000111109)
(-0.00103883 -0.000197887 9.72165e-05)
(-0.00104279 -0.000202957 8.3041e-05)
(-0.00106465 -0.000203874 6.54369e-05)
(-0.00109212 -0.000206581 6.5915e-05)
(-0.00103952 -0.000213338 5.20957e-05)
(-0.00102537 -0.000215049 1.42846e-05)
(5.04422e-05 1.21953e-05 4.60471e-05)
(6.73912e-05 7.75477e-06 -8.80742e-06)
(7.34092e-05 3.05397e-06 -1.56182e-05)
(7.43023e-05 -4.93979e-06 -1.93442e-05)
(7.04311e-05 -1.33659e-05 -2.10021e-05)