/*--------------------------------*- C++ -*----------------------------------*\
  =========                 |
  \\      /  F ield         | OpenFOAM: The Open Source CFD Toolbox
   \\    /   O peration     | Website:  https://openfoam.org
    \\  /    A nd           | Version:  6
     \\/     M anipulation  |
\*---------------------------------------------------------------------------*/
FoamFile
{
    version     2.0;
    format      ascii;
    class       volScalarField;
    location    "5";
    object      yPlus;
}
// * * * * * * * * * * * * * * * * * * * * * * * * * * * * * * * * * * * * * //

dimensions      [0 0 0 0 0 0 0];

internalField   uniform 0;

boundaryField
{
    inlet
    {
        type            calculated;
        value           uniform 0;
    }
    outlet
    {
        type            calculated;
        value           uniform 0;
    }
    roughCylinder
    {
        type            calculated;
        value           nonuniform List<scalar> 
5120
(
44.4315
52.2865
58.561
64.7109
69.9999
74.2764
77.6943
80.4507
82.7037
84.5933
86.2426
87.7178
89.0593
90.299
91.4673
92.5942
93.7105
94.8441
96.0183
97.2495
98.5463
99.9103
101.338
102.822
104.352
105.915
107.497
109.078
110.615
112.053
113.211
113.908
43.747
51.3236
57.4028
63.4147
68.6305
72.8709
76.2693
79.0161
81.268
83.1636
84.8191
86.2955
87.6257
88.8488
89.9967
91.1006
92.1918
93.299
94.4456
95.6479
96.9144
98.2468
99.6412
101.09
102.584
104.11
105.654
107.196
108.694
110.097
111.221
111.899
43.019
50.347
56.2399
62.1116
67.2511
71.4555
74.8379
77.5823
79.8433
81.7541
83.4207
84.899
86.2203
87.4298
88.5594
89.6416
90.7091
91.7907
92.9101
94.0839
95.3204
96.6213
97.9828
99.3971
100.855
102.344
103.849
105.353
106.813
108.179
109.271
109.93
42.2416
49.3427
55.0543
60.786
65.852
70.0273
73.4033
76.1558
78.4356
80.3683
82.0497
83.5325
84.8509
86.0484
87.1613
88.2238
89.2687
90.3261
91.42
92.5664
93.774
95.0445
96.3738
97.7547
99.1764
100.628
102.096
103.562
104.983
106.315
107.373
108.012
41.4581
48.3384
53.8649
59.4512
64.4421
68.5919
71.9679
74.7362
77.0428
79.0035
80.7037
82.195
83.515
84.7037
85.8035
86.8485
87.8733
88.9083
89.9775
91.0977
92.2775
93.5181
94.8156
96.1626
97.5501
98.9663
100.397
101.825
103.209
104.507
105.532
106.152
40.635
47.3047
52.644
58.0816
62.9999
67.1343
70.5237
73.3203
75.6616
77.654
79.3767
80.8811
82.2067
83.3937
84.4832
85.5136
86.5201
87.5344
88.5813
89.6771
90.8304
92.0428
93.3102
94.6257
95.9785
97.3585
98.7523
100.144
101.491
102.755
103.746
104.347
39.8176
46.2764
51.4212
56.7022
61.5463
65.6696
69.0788
71.908
74.2876
76.3164
78.0661
79.5881
80.9252
82.1163
83.2001
84.2194
85.2112
86.2074
87.2332
88.3058
89.4337
90.6183
91.8557
93.1386
94.4584
95.8043
97.1621
98.518
99.8292
101.061
102.019
102.602
38.9515
45.2045
50.1473
55.2622
60.0298
64.1514
67.5971
70.4767
72.908
74.9802
76.7634
78.3102
79.6635
80.8637
81.9494
82.9625
83.9425
84.923
85.9307
86.9822
88.0866
89.2453
90.4548
91.708
92.994
94.3043
95.6261
96.9466
98.2219
99.4216
100.345
100.908
38.091
44.135
48.8663
53.8049
58.4926
62.6177
66.1073
69.0399
71.5231
73.6435
75.4657
77.042
78.419
79.6354
80.7288
81.7413
82.7145
83.6837
84.6751
85.7072
86.7888
87.9218
89.1022
90.3235
91.5771
92.8541
94.1413
95.4264
96.6672
97.8367
98.726
99.2711
37.1527
42.9889
47.4956
52.2377
56.8321
60.9638
64.5169
67.5321
70.0955
72.2808
74.1552
75.7743
77.1821
78.4198
79.5272
80.547
81.5196
82.4799
83.4591
84.4745
85.5356
86.6448
87.799
88.9913
90.2119
91.4524
92.7034
93.9537
95.1592
96.2977
97.1491
97.6718
36.2037
41.8297
46.1056
50.6396
55.1344
59.2795
62.9075
66.0075
68.6463
70.9021
72.8359
74.5002
75.9472
77.2164
78.3454
79.3765
80.3525
81.3121
82.2825
83.2833
84.3247
85.4094
86.5342
87.6933
88.8799
90.0865
91.3019
92.5156
93.6866
94.7967
95.6113
96.1173
35.1067
40.5293
44.5548
48.8454
53.2056
57.35
61.0725
64.3092
67.0855
69.4491
71.4662
73.202
74.7014
76.0088
77.1664
78.218
79.2056
80.1648
81.1296
82.1185
83.1427
84.2056
85.3055
86.4366
87.5897
88.7577
89.9348
91.114
92.2503
93.33
94.1015
94.5815
33.9697
39.1962
42.9679
47.0035
51.2206
55.3741
59.2102
62.5822
65.4735
67.9491
70.0652
71.8726
73.4343
74.7942
75.9922
77.0707
78.0728
79.0419
80.0056
80.9853
81.9929
83.0327
84.1029
85.1987
86.316
87.4489
88.5903
89.7315
90.8326
91.8856
92.617
93.0804
32.5801
37.6134
41.0964
44.8112
48.8052
52.9092
56.8635
60.465
63.6179
66.2918
68.5505
70.4796
72.1285
73.552
74.7983
75.9139
76.9438
77.9228
78.8888
79.8624
80.8564
81.8766
82.9229
83.9916
85.0735
86.1649
87.2646
88.3711
89.4381
90.4621
91.1411
91.5738
31.0998
35.9597
39.1671
42.5592
46.3271
50.4042
54.5149
58.3258
61.6466
64.5102
66.9489
69.0018
70.7569
72.2681
73.5831
74.7487
75.8087
76.8122
77.7874
78.7582
79.7394
80.7375
81.7526
82.7816
83.8248
84.8778
85.942
87.0062
88.0362
89.0362
89.6689
90.085
29.1185
33.8137
36.6925
39.6413
43.0021
46.8697
51.063
55.2584
59.138
62.4118
65.1218
67.4018
69.3082
70.9256
72.3198
73.5448
74.6535
75.6805
76.6678
77.6398
78.6116
79.5922
80.5841
81.5866
82.5907
83.597
84.6114
85.6423
86.6397
87.6113
88.1743
88.5529
26.9141
31.5211
34.141
36.6958
39.694
43.4506
47.8478
52.3356
56.3741
59.9927
63.069
65.5846
67.6944
69.4705
70.9831
72.2972
73.4613
74.5336
75.5447
76.5219
77.485
78.4434
79.4001
80.3551
81.3146
82.2768
83.2588
84.2363
85.194
86.1445
86.6549
87.0133
23.4221
28.0023
30.2813
32.2107
34.3871
37.4141
41.6181
46.7889
52.3155
56.8696
60.5345
63.5443
65.9424
67.9115
69.5626
70.9727
72.2145
73.3284
74.3643
75.3522
76.3103
77.2524
78.1865
79.1147
80.0285
80.9339
81.8484
82.7995
83.7257
84.6487
85.0566
85.3695
19.1843
24.23
26.5106
28.1015
29.8448
32.8104
37.262
42.7028
47.5583
52.9013
57.4401
60.9368
63.7968
66.0886
67.9602
69.532
70.8765
72.0705
73.1524
74.1559
75.1094
76.0276
76.9174
77.7844
78.6418
79.4931
80.3846
81.257
82.1405
83.0482
83.3963
83.678
7.37247
14.9176
17.5591
18.8538
18.423
16.5681
21.0828
28.4345
39.9238
47.0417
53.0636
57.9174
61.3732
64.0663
66.2122
67.9585
69.4312
70.6948
71.8182
72.8449
73.7984
74.7001
75.5667
76.4041
77.2064
77.9808
78.7698
79.6319
80.4862
81.3667
81.5471
81.7762
2.46251
6.73992
7.8775
6.14868
6.77888
10.9598
5.92595
19.2622
21.4688
38.8601
47.3646
53.1652
57.9733
61.4303
64.0475
66.1156
67.7875
69.197
70.4068
71.4646
72.417
73.2892
74.0934
74.8452
75.562
76.2637
77.0501
77.7859
78.5952
79.4734
79.5827
79.7517
8.15062
12.6425
13.1438
11.4357
10.6873
15.3527
16.7058
15.2742
19.9941
19.22
37.3178
48.0228
53.9093
58.3649
61.6014
64.027
65.9404
67.4752
68.7522
69.8524
70.8108
71.6616
72.4403
73.154
73.8068
74.3898
75.0079
75.7553
76.5432
77.3954
77.2059
77.311
19.1804
23.6245
25.376
25.953
25.1721
22.9056
19.8479
14.2041
16.8243
1.38133
16.2969
35.4292
47.1262
53.664
58.139
61.3325
63.6705
65.4887
66.9362
68.0943
69.0531
69.8611
70.5372
71.1156
71.6043
72.0699
72.7255
73.27
74.0166
74.8939
74.5972
74.5912
22.5538
27.5134
30.1666
32.0624
33.0975
33.1636
32.0295
29.094
22.6145
23.4321
13.5192
17.2435
37.7325
48.0936
54.1469
58.1245
60.9821
63.0603
64.6189
65.8543
66.8264
67.595
68.2416
68.7673
69.1886
69.4458
69.8029
70.3617
71.1224
71.9887
71.0982
70.9634
23.8769
28.9867
31.9518
34.3677
36.1915
37.3822
37.8619
37.4354
35.5263
30.5769
25.3966
17.7528
9.569
36.71
47.2084
53.5047
57.394
60.0613
61.9837
63.3213
64.2877
64.977
65.419
65.6771
65.7141
65.7249
66.2048
66.4379
67.207
68.1395
67.0283
66.778
24.036
29.249
32.374
35.0159
37.1375
38.7292
39.7896
40.3007
40.1608
38.8655
35.2065
28.0728
7.18756
17.2273
39.601
47.713
52.8612
56.1376
58.2096
59.6964
60.6741
61.2553
61.6793
61.9194
61.8897
61.4568
61.3495
61.5067
62.4276
63.4554
60.9408
60.1714
23.0886
28.448
31.6971
34.5055
36.8344
38.6731
40.0323
40.9396
41.425
41.4454
40.5553
36.8372
31.9886
10.3844
17.7246
38.702
46.507
51.0002
53.9563
55.5577
56.4877
56.8689
56.7537
56.2204
55.0469
53.9665
54.2401
53.736
55.2398
56.1722
53.0021
53.4743
21.6581
27.1384
30.4432
33.3198
35.7388
37.6906
39.1848
40.2632
41.007
41.5195
41.8106
41.3897
38.5176
27.6862
10.469
23.884
37.6674
43.8402
46.5283
48.604
49.2968
49.2483
49.4267
49.9236
48.5763
46.5074
45.0804
44.2153
46.2297
47.9156
40.9909
36.3695
19.9823
25.5035
28.7775
31.6293
34.0445
36.022
37.5638
38.7025
39.5255
40.1826
40.8396
41.409
40.8232
35.7331
29.6098
12.4402
25.6383
33.9622
39.9179
41.2246
42.2343
41.4073
39.2856
35.4192
27.6557
21.7786
23.6128
6.02
28.6182
25.9133
5.53873
33.7669
18.3671
23.8151
26.962
29.6913
32.0083
33.9203
35.4281
36.5504
37.3729
38.0561
38.8186
39.7521
40.2941
38.5838
31.8892
28.0727
32.4056
22.5888
15.5197
23.997
18.9373
6.33204
13.6837
30.3418
18.0868
19.433
31.1469
34.372
32.9034
8.70958
17.2215
39.5708
17.0296
22.3401
25.3155
27.874
30.0399
31.8269
33.2349
34.2731
35.0198
35.6458
36.4097
37.4893
38.5704
38.2384
33.5587
25.4732
31.0667
18.7604
24.1948
30.7799
10.3064
3.29609
23.5112
35.6807
25.6139
38.1865
29.7042
30.9761
39.5464
18.9309
38.9407
32.4003
16.0041
21.1731
23.9822
26.3694
28.3751
30.0198
31.3067
32.2424
32.8943
33.4331
34.1373
35.2598
36.6843
37.4701
35.5271
28.7434
22.4174
27.114
27.1384
36.5913
26.3596
24.3401
32.6747
38.0434
34.07
37.9497
41.4242
43.4708
34.5956
35.6533
42.589
42.138
15.1794
20.2329
22.9038
25.1451
27.0114
28.5306
29.712
30.5674
31.1601
31.656
32.3266
33.4498
35.0623
36.6678
37.1281
35.1612
30.8139
28.5532
28.3745
33.7081
32.6669
37.162
37.1868
36.5215
43.1794
42.2995
47.2326
48.2925
42.6435
45.6039
46.2392
46.5024
14.4764
19.4354
21.9929
24.1145
25.8674
27.2873
28.3921
29.2028
29.7864
30.3021
30.9971
32.1334
33.8106
35.7747
37.4129
38.0312
37.4456
36.6299
37.8398
38.2767
40.8962
43.3877
42.9375
42.6248
45.7819
45.0195
48.3483
49.2703
46.8497
49.3285
47.3745
47.6306
13.8101
18.6887
21.1531
23.1786
24.8433
26.1913
27.25
28.0519
28.6704
29.2547
30.0182
31.1892
32.8914
34.998
37.1114
38.7495
39.6815
40.273
41.4096
42.2495
43.5286
44.9702
44.8197
45.1509
46.6564
46.2847
48.3948
49.2269
48.9696
51.1757
47.5023
47.3501
13.1276
17.929
20.3123
22.258
23.855
25.1556
26.197
27.0229
27.7111
28.3941
29.244
30.4452
32.1246
34.2448
36.5482
38.6397
40.2209
41.3774
42.5584
43.542
44.4623
45.403
45.4492
45.8794
46.6451
46.5585
47.7779
48.4786
49.6562
51.5727
46.868
46.3668
12.4005
17.1194
19.4274
21.3061
22.8537
24.1307
25.1835
26.0641
26.8494
27.6475
28.5871
29.8075
31.4214
33.4426
35.7268
37.98
39.8906
41.3692
42.6146
43.6236
44.4185
45.1008
45.2487
45.6232
46.1162
46.2609
47.0105
47.5856
49.3069
50.7487
46.0915
45.4303
11.6494
16.2713
18.5075
20.3311
21.8483
23.1268
24.2201
25.1836
26.0851
27.0035
28.0281
29.2605
30.7936
32.6607
34.7874
36.9786
38.9746
40.612
41.9363
42.9833
43.7699
44.3901
44.6669
45.0744
45.5815
45.9635
46.5305
47.0063
48.6103
49.4018
45.7393
45.0242
10.9532
15.4421
17.6151
19.4022
20.914
22.2228
23.3853
24.4533
25.4777
26.5098
27.6091
28.8502
30.3088
32.0234
33.959
35.9908
37.9289
39.6114
41.0037
42.125
42.9998
43.7089
44.1979
44.7608
45.4244
46.0387
46.6035
47.0321
48.2273
48.4013
46.0996
45.3897
10.3081
14.7447
16.8857
18.667
20.2031
21.5691
22.8196
23.9964
25.1318
26.2575
27.4157
28.6644
30.0648
31.6544
33.4213
35.289
37.1274
38.805
40.2594
41.4883
42.5153
43.4045
44.1578
44.9517
45.8263
46.6572
47.3162
47.7587
48.5496
48.3046
47.2272
46.5528
9.71642
9.06292
9.05754
9.24132
9.69696
10.2467
10.8381
11.3891
11.8404
12.3499
12.7815
13.1744
13.5201
13.8248
14.085
14.3
14.4639
14.5668
14.5967
14.5556
14.5548
14.6026
14.5794
14.4823
14.3229
14.1121
13.856
13.5556
13.2146
12.8271
12.4024
11.9014
11.4614
10.9225
10.3436
9.80109
9.34243
9.14823
9.12959
9.7383
14.097
13.3272
13.2674
13.4394
13.9087
14.4791
15.0978
15.6944
16.2579
16.7904
17.2628
17.693
18.0775
18.4211
18.7214
18.9761
19.1771
19.3107
19.36
19.3251
19.3246
19.3669
19.325
19.1978
19.0017
18.7513
18.4554
18.1164
17.7372
17.3132
16.8484
16.3257
15.7736
15.1894
14.5841
14.0224
13.5514
13.3684
13.4014
14.1219
16.2124
15.3927
15.3272
15.5142
16.0136
16.616
17.2715
17.9108
18.5211
19.0882
19.6023
20.0734
20.5009
20.889
21.2357
21.5382
21.7858
21.9613
22.0452
22.0361
22.0366
22.0533
21.9772
21.808
21.5654
21.2673
20.9249
20.5416
20.1196
19.6551
19.149
18.5922
17.9936
17.3669
16.725
16.132
15.6316
15.4333
15.4706
16.239
17.9892
17.1542
17.1046
17.3192
17.8526
18.4878
19.1786
19.8556
20.5038
21.105
21.6568
22.1646
22.6305
23.0584
23.4479
23.7947
24.086
24.3018
24.4206
24.4415
24.4431
24.4298
24.3186
24.1091
23.8227
23.4801
23.0948
22.6717
22.2113
21.7104
21.1669
20.5763
19.9402
19.2758
18.5985
17.9733
17.4398
17.2144
17.2357
18.019
19.5461
18.7239
18.6987
18.9398
19.4984
20.1569
20.873
21.5767
22.2513
22.8781
23.4569
23.9905
24.4832
24.9407
25.3632
25.7451
26.0713
26.3197
26.4678
26.5138
26.5161
26.4776
26.3371
26.0948
25.7734
25.3954
24.9768
24.5238
24.0367
23.51
22.9399
22.3237
21.6612
20.9701
20.2671
19.6187
19.0609
18.8101
18.8081
19.5801
20.9572
20.1633
20.1572
20.412
20.981
21.6503
22.3801
23.1001
23.7918
24.4363
25.0329
25.5838
26.0948
26.5744
27.0222
27.431
27.784
28.0572
28.2272
28.2911
28.2937
28.2374
28.0747
27.8074
27.4591
27.054
26.6097
26.1342
25.6284
25.0847
24.4968
23.8629
23.1831
22.4753
21.7578
21.0981
20.5305
20.2671
20.2483
20.9959
22.2707
21.5062
21.5044
21.7568
22.3216
22.9917
23.7271
24.4573
25.1609
25.8184
26.4279
26.991
27.5167
28.0134
28.4808
28.9097
29.2817
29.572
29.7562
29.831
29.8337
29.7663
29.5889
29.3045
28.9369
28.5115
28.0474
27.5543
27.0336
26.4775
25.8766
25.2292
24.537
23.8184
23.0941
22.4328
21.8696
21.6093
21.5891
22.3132
23.517
22.7722
22.7586
22.9964
23.5473
24.2128
24.9502
25.6882
26.4016
27.0703
27.6901
28.2626
28.8001
29.3098
29.791
30.2329
30.6163
30.9158
31.1069
31.1863
31.1891
31.1165
30.9319
30.6379
30.2585
29.8198
29.3418
28.8354
28.3024
27.7366
27.1249
26.4658
25.7627
25.0354
24.3078
23.6498
23.1002
22.855
22.8498
23.5616
24.7175
23.9787
23.9425
24.1599
24.6927
25.3518
26.0899
26.8344
27.5564
28.2344
28.8622
29.4411
29.9866
30.5045
30.993
31.4407
31.8279
32.1287
32.3198
32.3987
32.401
32.3284
32.1433
31.8474
31.4641
31.0192
30.5335
30.0187
29.4773
28.9043
28.284
27.6146
26.9019
26.1668
25.437
24.7839
24.2518
24.0278
24.0481
24.7614
25.8936
25.1497
25.086
25.2815
25.7951
26.4469
27.1839
27.9326
28.6605
29.3445
29.9766
30.5586
31.1074
31.6276
32.1168
32.5631
32.9463
33.2412
33.4259
33.4998
33.5017
33.4332
33.2538
32.9631
32.5833
32.1397
31.6528
31.1352
30.5898
30.0128
29.3876
28.711
27.991
27.2502
26.5199
25.8724
25.3591
25.1579
25.2093
25.9344
27.0795
26.3185
26.2226
26.3951
26.888
27.5304
28.263
29.0119
29.7413
30.4268
31.0584
31.6392
32.1863
32.703
33.1865
33.624
33.9962
34.2789
34.4519
34.5175
34.5189
34.4576
34.289
34.01
33.6406
33.2052
32.7236
32.209
31.6648
31.0879
30.4618
29.7825
29.0593
28.3165
27.5889
26.9496
26.4567
26.2798
26.367
27.1155
28.3223
27.5245
27.3866
27.5311
27.9996
28.6283
29.3518
30.0955
30.8211
31.5026
32.1289
32.7041
33.2444
33.7521
34.2235
34.6464
35.0016
35.2666
35.4239
35.4787
35.4795
35.4279
35.2739
35.0117
34.6588
34.2375
33.7674
33.2612
32.723
32.1507
31.5284
30.8516
30.1305
29.3911
28.671
28.0443
27.5756
27.4281
27.5607
28.3514
29.6705
28.806
28.6087
28.7155
29.1533
29.7625
30.471
31.2036
31.9196
32.5917
33.2081
33.7735
34.3022
34.7958
35.2503
35.6532
35.9866
36.2303
36.3694
36.4122
36.4125
36.3716
36.2349
35.9931
35.661
35.259
34.8054
34.3126
33.7852
33.2216
32.6078
31.9385
31.2254
30.4953
29.7889
29.1806
28.7426
28.6342
28.8291
29.6901
31.1566
30.1915
29.9124
29.9688
30.368
30.951
31.6385
32.3543
33.0551
33.7129
34.3152
34.8669
35.3801
35.8559
36.2893
36.6685
36.9771
37.1972
37.3169
37.3477
37.3474
37.3174
37.1988
36.9796
36.6716
36.2926
35.8593
35.3837
34.8709
34.3201
33.719
33.0623
32.3627
31.648
30.9613
30.3784
29.9794
29.9223
30.2009
31.1644
32.7796
31.6877
31.3077
31.3026
31.6556
32.2067
32.868
33.5618
34.2432
34.8828
35.4673
36.0023
36.4971
36.9522
37.362
37.7155
37.9978
38.1938
38.2945
38.3148
38.3139
38.2933
38.1926
37.9966
37.714
37.36
36.9497
36.4941
35.9989
35.4636
34.8789
34.2392
33.5578
32.8637
32.2022
31.6511
31.2984
31.3035
31.6842
32.7749
34.493
33.2708
32.7852
32.715
33.0193
33.5351
34.1674
34.8364
35.4952
36.1136
36.6779
37.1942
37.6691
38.102
38.4872
38.8143
39.0706
39.2433
39.327
39.3388
39.3377
39.3244
39.2396
39.066
38.8085
38.4802
38.0938
37.6598
37.1838
36.6664
36.1009
35.4811
34.8212
34.1511
33.5181
33.0019
32.6986
32.7698
33.2573
34.4787
36.2093
34.8869
34.3149
34.1899
34.451
34.9341
35.5378
36.1814
36.8165
37.4124
37.9551
38.452
38.9064
39.3171
39.6781
39.98
40.2117
40.3635
40.4329
40.4391
40.4376
40.4291
40.3576
40.2039
39.9703
39.6665
39.3038
38.8914
38.4352
37.9366
37.3918
36.7938
36.1569
35.5117
34.907
34.4242
34.1649
34.2928
34.8691
36.1936
37.8293
36.4676
35.8546
35.7011
35.935
36.3934
36.973
37.5932
38.2051
38.778
39.2999
39.7781
40.2132
40.603
40.9415
41.2202
41.4303
41.5641
41.6224
41.626
41.6242
41.6176
41.5564
41.4197
41.2073
40.926
40.5852
40.1932
39.756
39.2756
38.7514
38.1758
37.5614
36.9395
36.3593
35.902
35.6721
35.8321
36.4551
37.8264
39.2893
37.9625
37.3676
37.2226
37.4523
37.899
38.4616
39.062
39.6523
40.2037
40.7082
41.1697
41.5876
41.9588
42.2774
42.5362
42.7277
42.8472
42.8977
42.9006
42.8986
42.8919
42.8378
42.7149
42.5202
42.2584
41.9371
41.5633
41.143
40.679
40.1721
39.6179
39.025
38.4231
37.8605
37.4166
37.1937
37.3514
37.966
39.3172
40.5909
39.361
38.8386
38.7387
38.9886
39.4379
39.9923
40.5782
41.1506
41.6832
42.1728
42.62
43.0233
43.3785
43.6804
43.9225
44.0991
44.2075
44.253
44.2566
44.2544
44.2465
44.1967
44.0842
43.9039
43.6584
43.3533
42.9952
42.5893
42.1395
41.6473
41.112
40.5372
39.95
39.3965
38.9514
38.7114
38.8295
39.3814
40.6511
41.7777
40.6862
40.2746
40.247
40.5363
41.001
41.5554
42.132
42.6897
43.2069
43.6844
44.12
44.511
44.8532
45.1411
45.3696
45.5345
45.6348
45.6772
45.682
45.6795
45.6697
45.6225
45.5176
45.3486
45.1161
44.8245
44.4793
44.0855
43.6474
43.1674
42.6478
42.0878
41.5101
40.9569
40.4968
40.2179
40.2646
40.7073
41.8434
42.9062
41.9733
41.6919
41.7512
42.0912
42.579
43.1382
43.7084
44.2543
44.7624
45.2313
45.658
46.0393
46.3707
46.6474
46.8651
47.0207
47.1147
47.1551
47.1611
47.1582
47.1467
47.1007
47.0014
46.841
46.619
46.3383
46.0034
45.6191
45.1898
44.7186
44.2084
43.6607
43.0895
42.5309
42.0465
41.7136
41.6678
41.9709
42.938
44.0015
43.2406
43.0989
43.2509
43.6471
44.1628
44.7315
45.2991
45.8366
46.3386
46.801
47.2209
47.5943
47.9169
48.1844
48.3931
48.5411
48.6302
48.6688
48.6753
48.6719
48.6588
48.6137
48.5187
48.365
48.1513
47.8793
47.5528
47.1761
46.7534
46.2886
45.7847
45.2454
44.6767
44.1077
43.5929
43.1979
43.0476
43.1897
43.9544
45.0508
44.4782
44.4852
44.7334
45.1883
45.7335
46.3132
46.8804
47.4161
47.9155
48.3748
48.79
49.1574
49.4729
49.7326
49.9339
50.0753
50.1597
50.1961
50.2022
50.198
50.1839
50.1396
50.0478
49.8996
49.6921
49.4268
49.1064
48.7349
48.3161
47.8541
47.3523
46.8147
46.2458
45.6652
45.1198
44.665
44.4169
44.4101
44.9884
46.1307
45.7055
45.8386
46.1719
46.6822
47.2584
47.8522
48.4236
48.9629
49.464
49.9233
50.3366
50.7005
51.011
51.2648
51.4598
51.5955
51.6752
51.7085
51.7129
51.7075
51.6928
51.6495
51.5603
51.4158
51.2128
50.9515
50.6343
50.2648
49.8464
49.3833
48.879
48.3376
47.7648
47.1716
46.5983
46.0929
45.7659
45.6383
46.0676
47.1638
46.8518
47.089
47.4995
48.0647
48.6759
49.2909
49.8763
50.4269
50.9364
51.4012
51.8175
52.1818
52.4907
52.7414
52.9322
53.0631
53.1382
53.1673
53.1686
53.1613
53.1465
53.1042
53.0168
52.8742
52.6727
52.4119
52.0938
51.7213
51.298
50.8274
50.3138
49.7609
49.1754
48.5629
47.9586
47.4046
47.0079
46.778
47.0821
48
47.8236
48.1731
48.6642
49.2875
49.9379
50.58
51.1879
51.7565
52.2805
52.7562
53.1802
53.5493
53.8604
54.111
54.2997
54.4271
54.4975
54.5212
54.5175
54.5077
54.4929
54.4517
54.3649
54.2216
54.0176
53.7523
53.4271
53.0446
52.6079
52.1205
51.5859
51.0082
50.3929
49.7454
49.0946
48.4783
48.0019
47.6714
47.8656
48.5751
48.5252
48.9849
49.5625
50.2535
50.9548
51.6362
52.277
52.873
53.4197
53.9139
54.3525
54.7325
55.0511
55.306
55.496
55.6217
55.6874
55.7041
55.6928
55.679
55.6646
55.6242
55.5363
55.389
55.1777
54.9015
54.5616
54.1602
53.7002
53.1846
52.6166
51.9994
51.338
50.6369
49.9211
49.2282
48.666
48.2471
48.3657
48.8321
48.9033
49.4709
50.1375
50.9011
51.6609
52.3898
53.0711
53.7017
54.2779
54.7972
55.2566
55.6534
55.9851
56.2491
56.4443
56.5711
56.6335
56.6428
56.6226
56.6055
56.5942
56.5563
56.4665
56.3123
56.0887
55.7951
55.4321
55.0019
54.5069
53.9495
53.3326
52.6589
51.9334
51.1611
50.3692
49.6093
49.0059
48.619
48.8717
48.7324
48.9356
49.6112
50.3641
51.199
52.0178
52.7969
53.521
54.1889
54.7977
55.3452
55.829
56.2461
56.5939
56.8699
57.0724
57.2013
57.2596
57.2577
57.2213
57.1943
57.1836
57.1452
57.0485
56.8803
56.6359
56.3144
55.9166
55.444
54.8982
54.281
53.5937
52.8371
52.0138
51.1258
50.2033
49.3109
48.5861
48.1386
48.4152
48.56
48.7834
49.4915
50.2827
51.1583
52.0178
52.8363
53.5976
54.3002
54.9413
55.5187
56.0296
56.4715
56.8412
57.1362
57.3545
57.4954
57.5615
57.563
57.5295
57.5219
57.5444
57.5353
57.4628
57.3157
57.0909
56.789
56.4117
55.9616
55.4414
54.8537
54.2009
53.4841
52.7057
51.8644
50.9784
50.0741
49.2527
48.5114
48.2535
48.5482
48.7086
49.3813
50.1524
51.023
51.8864
52.7149
53.49
54.2084
54.8658
55.4594
55.9858
56.4418
56.8242
57.1301
57.357
57.5039
57.5726
57.5722
57.5325
57.5247
57.5549
57.5504
57.4778
57.3266
57.0943
56.7815
56.3901
55.9226
55.3813
54.7684
54.0857
53.3335
52.5127
51.6201
50.6747
49.7036
48.8074
47.9856
47.6448
44.436
52.2901
58.5641
64.7136
70.0024
74.2785
77.6963
80.4526
82.7056
84.5953
86.2446
87.7199
89.0613
90.3009
91.4691
92.5959
93.712
94.8454
96.0193
97.2501
98.5464
99.9098
101.337
102.819
104.348
105.91
107.49
109.067
110.606
112.04
113.224
113.924
43.7474
51.3241
57.4034
63.4154
68.6316
72.8724
76.2712
79.0182
81.2702
83.1658
84.8212
86.2976
87.6278
88.851
89.9987
91.1025
92.1935
93.3004
94.4468
95.6487
96.9148
98.2466
99.6402
101.088
102.58
104.104
105.646
107.184
108.684
110.081
111.235
111.915
43.0245
50.3517
56.244
62.1151
67.2543
71.4582
74.8403
77.5845
79.8455
81.7563
83.423
84.9013
86.2225
87.4318
88.5614
89.6435
90.7107
91.7921
92.9112
94.0846
95.3206
96.6208
97.9814
99.3948
100.851
102.338
103.841
105.34
106.802
108.162
109.286
109.947
42.2412
49.3426
55.0543
60.7863
65.8527
70.0286
73.405
76.1579
78.4379
80.3704
82.0517
83.5344
84.8528
86.0505
87.1632
88.2256
89.2704
90.3275
91.421
92.5672
93.7744
95.0442
96.3724
97.7518
99.1723
100.622
102.086
103.547
104.97
106.295
107.388
108.031
41.4649
48.3441
53.8701
59.4556
64.4458
68.595
71.9705
74.7386
77.0451
79.0058
80.7063
82.1977
83.5176
84.7059
85.8055
86.8503
87.8749
88.9096
89.9785
91.0983
92.2774
93.5173
94.8142
96.1603
97.5455
98.9591
100.387
101.81
103.195
104.485
105.549
106.172
40.6343
47.3044
52.6439
58.0817
63.0006
67.1357
70.5258
73.3227
75.6639
77.6561
79.3787
80.8826
82.2082
83.3955
84.4852
85.5153
86.5217
87.5357
88.5823
89.6777
90.8306
92.0424
93.3088
94.6225
95.9739
97.3509
98.7408
100.126
101.475
102.729
103.764
104.369
39.8252
46.2833
51.4275
56.7076
61.5508
65.6731
69.0814
71.9102
74.29
76.3191
78.0692
79.5917
80.9288
82.119
83.2022
84.2213
85.2126
86.2087
87.2342
88.3062
89.4335
90.6173
91.8538
93.1359
94.4534
95.7958
97.1503
98.4995
99.8117
101.033
102.038
102.626
38.9519
45.2051
50.1478
55.2631
60.0313
64.1538
67.6006
70.4805
72.9112
74.9827
76.7653
78.3112
79.6641
80.8651
81.9513
82.9642
83.9441
84.9242
85.9314
86.9826
88.0865
89.2447
90.4532
91.7039
92.9886
94.2955
95.6127
96.9239
98.2012
99.387
100.366
100.934
38.0992
44.1429
48.8739
53.8115
58.4978
62.6213
66.1092
69.0411
71.5248
73.6461
75.469
77.0466
78.4241
79.6391
80.731
81.7432
82.716
83.6849
84.676
85.7074
86.7885
87.9205
89.0998
90.3199
91.5714
92.8449
94.127
95.4034
96.6449
97.7981
98.7481
99.2993
37.1559
42.9919
47.4985
52.2408
56.8358
60.9688
64.5235
67.5393
70.1017
72.2854
74.1582
75.7752
77.1813
78.4201
79.5289
80.5487
81.5211
82.4808
83.4594
84.4746
85.5353
86.6438
87.7972
88.9874
90.2062
91.4429
92.6875
93.9258
95.1313
96.2498
97.1737
97.7044
36.2131
41.8394
46.1152
50.6483
55.1412
59.2834
62.9082
66.0063
68.6457
70.9031
72.8382
74.5053
75.9545
77.2219
78.3481
79.3783
80.3539
81.3132
82.2834
83.2833
84.3241
85.4079
86.5313
87.6892
88.8729
90.0756
91.2839
92.4865
93.6571
94.7436
95.6374
96.1518
35.1148
40.5374
44.5624
48.8527
53.2135
57.3601
61.0855
64.3235
67.0979
69.4584
71.473
73.2043
74.6992
76.0072
77.1676
78.2197
79.207
80.1652
81.1292
82.1183
83.1419
84.204
85.3033
86.4325
87.5836
88.7465
89.9157
91.0787
92.2104
93.2618
94.1312
94.6228
33.9826
39.2099
42.9823
47.0175
51.2324
55.3807
59.2097
62.5772
65.4691
67.9473
70.0651
71.8771
73.4439
74.8027
75.996
77.0723
78.0737
79.0429
80.0065
80.9849
81.992
83.0311
84.0995
85.1936
86.3074
87.4369
88.5682
89.6941
90.7919
91.8109
92.6479
93.1249
32.5985
37.6314
41.1135
44.8268
48.8203
52.9275
56.889
60.4938
63.6422
66.3089
68.5632
70.4849
72.1254
73.5479
74.7982
75.9155
76.9451
77.9227
78.8874
79.8615
80.8549
81.8743
82.9202
83.9874
85.0676
86.1528
87.2416
88.3256
89.3811
90.3638
91.1778
91.6282
31.1193
35.9807
39.1905
42.5858
46.3545
50.4236
54.5158
58.3131
61.635
64.5059
66.9476
69.0066
70.7698
72.2806
73.5892
74.7506
75.8088
76.8125
77.7882
78.757
79.7379
80.7354
81.7487
82.7757
83.8142
84.8654
85.9134
86.9576
87.9799
88.9276
89.707
90.145
29.1672
33.8618
36.7388
39.6803
43.0307
46.8979
51.1114
55.3209
59.1896
62.4419
65.141
67.4095
69.3032
70.9185
72.317
73.5454
74.6551
75.6799
76.6651
77.6383
78.6094
79.5891
80.5807
81.5822
82.5855
83.5848
84.5853
85.5832
86.5574
87.4672
88.223
88.6268
26.9455
31.5487
34.1706
36.7403
39.765
43.5316
47.8804
52.3179
56.3484
59.9888
63.0719
65.5959
67.7148
69.4877
70.9928
72.3004
73.4595
74.5325
75.5452
76.5198
77.4826
78.4404
79.3955
80.3486
81.302
82.265
83.2193
84.173
85.1118
85.9823
86.7015
87.0978
23.5994
28.1838
30.4696
32.3802
34.4909
37.432
41.6748
46.8952
52.431
56.9251
60.5644
63.5481
65.931
67.9033
69.557
70.9696
72.2169
73.3279
74.3599
75.3495
76.3071
77.249
78.1825
79.1103
80.0252
80.924
81.8214
82.7204
83.604
84.4346
85.1239
85.4739
19.3518
24.2638
26.4843
28.1205
30.0138
33.247
37.703
43.0568
47.5888
52.921
57.4504
60.9824
63.8435
66.1079
67.9713
69.5395
70.871
72.0661
73.1517
74.1523
75.1057
76.0232
76.9116
77.7771
78.6267
79.4847
80.3268
81.1741
82.0182
82.7983
83.4527
83.8013
9.74622
14.9887
18.4631
19.2375
18.6934
16.7616
21.0081
26.777
39.7923
47.1139
53.1691
57.8777
61.3135
64.0624
66.2099
67.9472
69.4353
70.695
71.8116
72.8407
73.7942
74.697
75.5634
76.4017
77.2077
77.9786
78.7466
79.5233
80.2991
81.039
81.6501
81.9332
12.144
13.5419
11.9555
13.1547
11.9899
7.67103
8.00906
11.503
23.6212
39.158
47.2592
53.411
58.2071
61.4632
64.0501
66.1319
67.7745
69.186
70.4036
71.4588
72.4116
73.2825
74.0846
74.8362
75.5447
76.2671
76.9628
77.6744
78.4049
79.0732
79.6496
79.9413
8.13987
12.6809
12.5704
13.3101
14.4225
14.6954
14.7894
17.128
8.80888
18.1132
38.469
47.755
53.4327
58.3332
61.6165
63.9979
65.9494
67.4777
68.7425
69.8459
70.8053
71.6609
72.4409
73.1568
73.8151
74.4053
74.9928
75.6007
76.2361
76.8622
77.3768
77.5662
18.8619
23.1919
24.9366
25.1323
23.9759
22.1875
20.3937
20.3492
23.3026
24.1834
17.7475
37.3646
49.0734
53.8778
58.1303
61.3743
63.6389
65.4638
66.9286
68.0851
69.0456
69.8503
70.521
71.1065
71.5936
72.1133
72.5952
73.1074
73.6946
74.2207
74.6772
74.91
22.5669
27.5501
30.2303
32.1689
33.2295
33.2308
31.9381
29.1146
26.0917
22.3802
17.9561
20.3987
32.3469
47.7996
54.1835
58.0421
61.0112
63.0695
64.6036
65.8449
66.819
67.6049
68.2605
68.7737
69.2002
69.5009
69.7928
70.1297
70.5604
71.0155
71.4115
71.4264
24.0115
29.1304
32.1023
34.5166
36.3364
37.5366
38.0478
37.6684
35.8667
31.794
28.7458
27.9542
26.7464
36.2172
47.308
53.6746
57.303
60.004
61.9671
63.3071
64.2782
64.9561
65.3735
65.686
65.7513
65.8949
66.021
66.16
66.5663
66.9599
67.1227
67.4
24.1198
29.3433
32.4775
35.1256
37.2472
38.8269
39.8541
40.2893
39.9563
38.1855
32.9097
33.0619
32.6429
27.2826
40.2656
47.4881
53.0073
56.1668
58.1865
59.6837
60.6597
61.322
61.8219
61.8815
61.8755
61.626
61.3202
61.1526
61.2329
61.3155
61.6046
61.1311
23.1484
28.5129
31.7645
34.5708
36.8888
38.7026
40.0109
40.8137
41.0786
40.6047
38.5198
32.9499
36.231
14.3804
15.79
39.0946
46.0504
50.8462
53.9005
55.5462
56.4724
56.7883
56.5284
56.3602
55.3759
54.5745
54.0839
53.2999
53.4001
54.4434
53.2197
54.8803
21.711
27.1893
30.4922
33.3637
35.7708
37.6995
39.1521
40.1553
40.7586
41.0045
40.7795
39.3415
36.8128
26.6498
14.8841
20.4413
38.5686
43.8324
46.6229
48.4579
49.2462
49.7971
50.9433
49.1006
48.1793
46.7814
45.0193
44.0531
43.4318
42.0444
41.2297
39.0816
20.0434
25.5617
28.8342
31.6818
34.0876
36.0468
37.5577
38.6461
39.3846
39.9
40.3265
40.5626
39.6578
35.3724
26.7597
20.8332
21.4577
34.1123
39.0178
41.7918
42.0148
40.2501
36.8184
36.0363
30.3454
25.0965
21.7324
33.594
6.48898
31.3857
21.718
32.7673
18.4399
23.8867
27.0346
29.763
32.0754
33.977
35.4662
36.5587
37.3336
37.943
38.5996
39.3983
39.8274
38.0934
29.5315
24.7404
20.8162
13.614
24.9449
18.8101
16.7492
21.0357
32.5594
21.8956
30.0904
6.60109
34.2427
41.4493
28.3249
36.5755
35.622
38.2409
17.1075
22.4199
25.399
27.9605
30.1267
31.9104
33.3099
34.3328
35.0532
35.6399
36.3557
37.3885
38.4255
38.0159
32.826
21.8684
27.9956
22.5084
32.1068
19.9635
22.5794
16.6196
38.4972
18.2752
26.6255
28.5165
35.2682
40.0039
34.6235
40.498
35.9545
33.8088
16.0882
21.2607
24.0754
26.4678
28.4772
30.1233
31.408
32.336
32.9714
33.4838
34.159
35.2609
36.6702
37.417
35.3934
28.485
23.7849
22.4206
31.2936
24.6284
22.6834
23.2609
39.0736
34.9031
32.3232
37.7293
38.9935
39.0143
42.0567
34.0633
43.9593
40.0537
15.2698
20.3281
23.0055
25.2532
27.1246
28.647
29.8284
30.678
31.2551
31.7249
32.3662
33.4693
35.0717
36.6663
37.1241
35.1454
30.8012
29.0023
26.992
29.7878
33.3728
36.0269
35.1585
39.9026
42.3088
45.4179
45.8154
46.3647
47.0658
40.6025
48.5688
46.0875
14.5736
19.5389
22.1035
24.2319
25.9903
27.4135
28.5176
29.3207
29.8856
30.371
31.0319
32.1405
33.7936
35.7206
37.3107
37.9019
37.4756
37.4696
37.6882
39.3605
41.649
42.7895
41.8346
43.3341
45.205
47.3992
47.6972
48.2229
48.347
44.8572
49.207
47.8551
13.9138
18.8
21.2722
23.3045
24.9741
26.324
27.3796
28.17
28.765
29.3147
30.0417
31.1846
32.8666
34.9405
36.9894
38.5547
39.5577
40.5384
41.4037
42.551
43.9032
44.7186
44.4327
44.7703
46.1864
48.009
48.2445
48.6285
48.6022
46.4714