/*--------------------------------*- C++ -*----------------------------------*\
  =========                 |
  \\      /  F ield         | OpenFOAM: The Open Source CFD Toolbox
   \\    /   O peration     | Website:  https://openfoam.org
    \\  /    A nd           | Version:  6
     \\/     M anipulation  |
\*---------------------------------------------------------------------------*/
FoamFile
{
    version     2.0;
    format      ascii;
    class       volScalarField;
    location    "5";
    object      yPlus;
}
// * * * * * * * * * * * * * * * * * * * * * * * * * * * * * * * * * * * * * //

dimensions      [0 0 0 0 0 0 0];

internalField   uniform 0;

boundaryField
{
    inlet
    {
        type            calculated;
        value           uniform 0;
    }
    outlet
    {
        type            calculated;
        value           uniform 0;
    }
    roughCylinder
    {
        type            calculated;
        value           nonuniform List<scalar> 
5120
(
44.4376
52.2917
58.5658
64.7154
70.0043
74.2805
77.6984
80.4547
82.7077
84.5975
86.2468
87.7222
89.0636
90.3032
91.4714
92.5983
93.7143
94.8476
96.0215
97.2522
98.5483
99.9115
101.338
102.82
104.348
105.909
107.488
109.065
110.602
112.035
113.219
113.922
43.7477
51.3254
57.4055
63.4179
68.6342
72.875
76.2738
79.0209
81.2728
83.1683
84.8236
86.3
87.6302
88.8532
90.001
91.1048
92.1958
93.3028
94.449
95.6508
96.9166
98.2482
99.6417
101.089
102.58
104.104
105.644
107.181
108.68
110.076
111.229
111.915
43.0273
50.3543
56.2466
62.1178
67.257
71.4609
74.8428
77.5869
79.8478
81.7587
83.4254
84.9038
86.2251
87.4346
88.5641
89.6461
90.7132
91.7946
92.9137
94.0869
95.3228
96.6227
97.9828
99.3957
100.851
102.337
103.839
105.337
106.797
108.157
109.28
109.946
42.241
49.3435
55.0558
60.7883
65.8549
70.0309
73.4075
76.1608
78.441
80.3736
82.0548
83.5374
84.8556
86.0531
87.1659
88.2284
89.2732
90.3303
91.4237
92.5697
93.7767
95.0462
96.3743
97.7532
99.1727
100.621
102.085
103.544
104.966
106.289
107.382
108.03
41.4689
48.348
53.874
59.4597
64.4501
68.5993
71.9745
74.7419
77.0479
79.0085
80.709
82.2005
83.5205
84.7092
85.8088
86.8535
87.8779
88.9126
89.9814
91.1011
92.2801
93.5198
94.8161
96.1617
97.5464
98.9587
100.385
101.806
103.19
104.479
105.542
106.172
40.6335
47.3045
52.6446
58.0829
63.0019
67.1369
70.5275
73.3252
75.6674
77.6599
79.3823
80.8862
82.2118
83.3987
84.4883
85.5185
86.5251
87.5391
88.5855
89.6808
90.8334
92.0448
93.3112
94.6243
95.9748
97.3513
98.7395
100.123
101.47
102.723
103.757
104.369
39.8304
46.2883
51.433
56.7135
61.557
65.6796
69.0875
71.9152
74.2936
76.3221
78.0723
79.5947
80.9317
82.1226
83.2062
84.225
85.2162
86.2123
87.2376
88.3096
89.4368
90.6204
91.8566
93.1377
94.4548
95.7958
97.149
98.4956
99.8058
101.026
102.031
102.625
38.9501
45.2043
50.1475
55.263
60.031
64.1532
67.6003
70.4818
72.9146
74.9871
76.7695
78.3156
79.6687
80.8691
81.9549
82.968
83.9481
84.9281
85.9354
86.9865
88.0899
89.2477
90.4558
91.7066
92.9904
94.2964
95.6118
96.9213
98.1953
99.3799
100.357
100.935
38.1058
44.1493
48.8807
53.819
58.5063
62.6307
66.1187
69.0488
71.5297
73.6494
75.4727
77.0501
78.4273
79.643
80.7357
81.7477
82.7202
83.6891
84.6801
85.7115
86.7924
87.9244
89.1036
90.3226
91.5736
92.8453
94.1257
95.3996
96.6378
97.7906
98.7395
99.3001
37.1522
42.9892
47.4964
52.2389
56.8333
60.9654
64.5197
67.5375
70.1037
72.2899
74.1625
75.7799
77.1869
78.425
79.5331
80.553
81.526
82.4856
83.4643
84.4792
85.5396
86.6477
87.8004
88.9906
90.2088
91.4442
92.6875
93.9228
95.1246
96.2416
97.1622
97.7072
36.2207
41.8462
46.1224
50.6563
55.1507
59.2951
62.9217
66.0186
68.6535
70.9081
72.8436
74.51
75.958
77.2265
78.3538
79.384
80.3588
81.3182
82.2884
83.2883
84.329
85.4126
86.5362
87.6932
88.8764
90.0774
91.2835
92.4827
93.6487
94.7346
95.6276
96.1542
35.1072
40.5311
44.5574
48.8486
53.2094
57.3539
61.0771
64.3159
67.0958
69.4604
71.475
73.2079
74.7057
76.0131
77.1724
78.2248
79.2133
80.1715
81.1354
82.124
83.1474
84.2092
85.3076
86.4365
87.5866
88.7491
89.9165
91.0757
92.2029
93.2512
94.1165
94.6285
33.9901
39.2158
42.9872
47.0216
51.237
55.3887
59.2232
62.5928
65.4806
67.9555
70.0749
71.8856
73.4487
74.8085
76.0036
77.0798
78.0797
79.0489
80.0126
80.9913
81.9982
83.037
84.1057
85.1994
86.3132
87.4399
88.5686
89.6903
90.7815
91.7998
92.6365
93.1298
32.5793
37.6145
41.0996
44.8179
48.8163
52.9239
56.8805
60.4827
63.6361
66.307
68.5598
70.4839
72.1312
73.5543
74.8034
75.9213
76.9535
77.931
78.8956
79.8687
80.8619
81.8811
82.9263
83.9927
85.0717
86.1569
87.2442
88.3227
89.372
90.3498
91.1583
91.6375
31.1296
35.9884
39.1944
42.5811
46.3394
50.4056
54.5075
58.3149
61.6388
64.5123
66.9609
69.0218
70.7779
72.2889
73.6
74.7613
75.8164
76.82
77.7957
78.7655
79.746
80.743
81.7564
82.7835
83.824
84.8704
85.9155
86.9543
87.967
88.9148
89.6935
90.1531
29.1007
33.7957
36.6765
39.6363
43.0192
46.9125
51.1264
55.3315
59.1982
62.4449
65.1365
67.402
69.307
70.9248
72.322
73.5515
74.6658
75.6911
76.6761
77.6474
78.6183
79.5981
80.5896
81.59
82.59
83.5913
84.5899
85.5803
86.5448
87.446
88.1945
88.6428
26.9866
31.6011
34.2265
36.767
39.7163
43.4105
47.7586
52.2131
56.2807
59.9624
63.0719
65.6148
67.7267
69.5007
71.0098
72.317
73.4708
74.5425
75.5548
76.5309
77.4934
78.4505
79.4049
80.3583
81.3184
82.2728
83.2243
84.1706
85.0966
85.971
86.687
87.1115
23.2962
27.8454
30.0921
32.0296
34.3172
37.5067
41.8241
47.1043
52.5576
56.9716
60.5811
63.5397
65.9345
67.9079
69.56
70.9756
72.2298
73.3428
74.3748
75.3616
76.3186
77.2609
78.1959
79.1231
80.0295
80.9345
81.8297
82.7178
83.5855
84.3951
85.0802
85.5012
19.697
24.7502
27.0881
28.7029
30.2039
32.7447
37.026
42.1338
47.0757
52.7497
57.3857
60.9884
63.8537
66.1323
68.0021
69.5663
70.8901
72.081
73.1646
74.1671
75.1208
76.0368
76.923
77.7873
78.6545
79.497
80.3361
81.1741
81.9995
82.7987
83.441
83.8239
8.09837
14.0698
14.6072
15.3642
15.6084
15.8773
20.0491
28.356
40.6447
47.319
53.2311
57.8729
61.3282
64.0564
66.2039
67.953
69.4496
70.714
71.8319
72.8574
73.8089
74.7131
75.5836
76.4241
77.2113
77.9955
78.7615
79.5217
80.2703
80.9579
81.575
81.9803
9.05437
12.3031
13.4012
12.4887
9.756
3.03927
14.3447
20.5918
22.9933
38.7037
47.1459
53.3922
58.181
61.5251
64.1166
66.1763
67.8089
69.2104
70.4222
71.4787
72.4334
73.3018
74.0991
74.8441
75.5909
76.2879
76.9794
77.6799
78.3804
79.1032
79.6487
79.9776
8.67264
13.9501
15.7421
15.2929
13.2863
11.6511
8.4753
15.6212
14.3643
16.0471
36.4843
47.4537
53.4874
58.2646
61.5783
64.0075
65.9653
67.5019
68.7707
69.8701
70.8246
71.6828
72.4706
73.1969
73.8216
74.4338
75.0204
75.6034
76.1896
76.7014
77.2436
77.6555
19.0871
23.3761
24.973
25.6544
25.3514
24.1971
20.018
13.8979
20.8479
22.2909
25.9716
37.0058
48.7758
54.1119
58.2919
61.4435
63.7011
65.5065
66.9567
68.1128
69.079
69.8803
70.5434
71.1067
71.666
72.1517
72.6262
73.1276
73.6589
74.2931
74.6967
74.9558
22.6979
27.6476
30.3057
32.201
33.2126
33.2357
32.3392
29.6765
23.9297
21.2051
9.98046
8.10546
32.8195
47.3261
54.0525
58.081
61.0351
63.1042
64.6458
65.8819
66.8467
67.6349
68.2961
68.8471
69.2305
69.5572
69.8504
70.1506
70.4765
70.7249
71.1734
71.638
24.0973
29.2022
32.1799
34.621
36.4903
37.7542
38.3448
38.1059
36.5429
32.3202
24.8769
19.741
25.6365
38.0147
47.635
53.7434
57.4179
60.0749
62.0107
63.3475
64.3324
65.0112
65.4288
65.6666
65.8594
65.9795
66.0914
66.2299
66.523
67.015
67.1798
67.3542
24.3414
29.5575
32.6986
35.3562
37.4916
39.0963
40.1708
40.6864
40.5033
39.0937
34.5595
31.1591
30.8118
29.4317
39.6758
47.6755
53.0751
56.2587
58.259
59.7457
60.7075
61.3583
61.7915
62.0327
62.0034
61.7689
61.4585
61.2284
61.0134
60.8816
61.1748
61.834
23.3888
28.7559
32.0203
34.8409
37.1766
39.0159
40.3668
41.2477
41.66
41.4816
40.1115
35.5751
33.2036
34.0072
29.6873
39.5815
46.3201
50.8615
53.9696
55.6016
56.5744
56.9466
56.7668
56.3122
55.5194
54.8351
54.4162
53.4433
53.5731
53.5145
53.1806
53.4392
21.9207
27.4093
30.7264
33.6111
36.0319
37.9784
39.4582
40.5078
41.1939
41.5791
41.551
40.2745
35.6506
32.9486
29.1723
22.5194
39.3167
44.7695
46.6831
48.6366
49.3607
49.7153
49.7572
49.6266
48.7462
47.4546
45.4055
43.9321
42.3307
42.9887
42.3571
42.8269
20.1949
25.7241
29.0081
31.8669
34.2849
36.2599
37.7935
38.9152
39.7059
40.2985
40.8122
41.0308
39.6913
33.9478
25.5322
14.7271
20.9529
31.3613
39.7167
41.394
42.3208
41.4622
39.0929
36.4657
31.9013
26.7882
27.4657
18.7455
18.8185
11.6699
6.38147
32.5438
18.5531
24.0087
27.1653
29.9025
32.2247
34.139
35.6458
36.7636
37.5757
38.238
38.957
39.7983
40.1736
38.1215
30.7074
24.4813
23.0689
24.1521
16.9107
22.3346
17.4049
29.0749
21.8619
39.0862
14.767
20.9652
31.8259
38.4276
27.2564
20.4422
15.0339
47.0102
17.1793
22.501
25.4884
28.0578
30.2326
32.0264
33.4397
34.4822
35.2311
35.8566
36.6144
37.6809
38.7592
38.5429
34.4171
24.8017
32.2859
30.5464
21.1583
29.7622
23.4881
39.938
26.6689
36.8549
25.1035
32.1233
38.5867
34.3654
38.8754
30.3686
31.9782
43.5967
16.1221
21.3028
24.1244
26.5235
28.5396
30.1933
31.4876
32.4291
33.0836
33.6219
34.3228
35.4415
36.8793
37.7731
36.2517
30.0201
26.2194
31.9246
16.9389
29.7103
20.4953
35.7777
32.3169
29.5607
35.0796
35.5765
36.4887
41.8608
40.8542
38.9062
41.028
40.8606
15.2674
20.3313
23.0134
25.2659
27.1424
28.6703
29.8585
30.7171
31.307
31.7923
32.4449
33.5472
35.1457
36.77
37.2768
34.9762
29.0636
27.1127
27.8704
32.0052
32.0963
33.7723
37.8946
40.0809
42.8957
44.0487
44.3502
47.288
46.2458
44.4094
45.6724
45.2002
14.5417
19.5085
22.0748
24.2055
25.9667
27.3934
28.5019
29.311
29.8836
30.376
31.0356
32.128
33.7588
35.6847
37.2973
37.7636
36.6685
36.3155
37.6351
37.9708
40.8149
41.2182
43.8335
44.7275
45.8759
46.7312
47.0979
48.4778
47.8267
46.3812
47.1135
46.6797
13.8578
18.7413
21.2121
23.244
24.9143
26.2659
27.3244
28.1192
28.7194
29.2711
29.9878
31.1004
32.7364
34.7678
36.7922
38.3107
39.1182
39.9887
41.0715
41.7831
43.2815
43.8517
45.4593
45.9832
46.6741
47.6016
47.9659
48.6842
48.268
47.2135
47.6046
47.0776
13.1631
17.9668
20.3539
22.3034
23.9029
25.2037
26.2408
27.0548
27.7201
28.3669
29.1678
30.309
31.9201
33.9681
36.1988
38.2253
39.8015
41.1306
42.2551
43.1045
44.207
44.822
45.8609
46.1096
46.5228
47.4181
47.758
48.1605
47.8771
47.097
47.2543
46.7764
12.4251
17.1441
19.4539
21.3337
22.881
24.155
25.2002
26.0661
26.8275
27.5921
28.4895
29.6597
31.2168
33.178
35.4087
37.6379
39.5933
41.2034
42.448
43.3822
44.2615
44.8336
45.4818
45.5996
45.9017
46.7343
47.1119
47.4174
47.2517
46.6717
46.6494
46.1624
11.6621
16.2821
18.5179
20.3404
21.8549
23.1281
24.2119
25.1603
26.0408
26.9326
27.926
29.1232
30.6194
32.4511
34.5517
36.7436
38.7946
40.5366
41.8882
42.896
43.7049
44.2634
44.773
44.9661
45.333
46.1436
46.6198
46.9512
46.9165
46.4927
46.3363
45.7993
10.9517
15.4353
17.6058
19.39
20.8974
22.2
23.3534
24.4091
25.4184
26.433
27.5128
28.7332
30.1718
31.8706
33.8013
35.85
37.8399
39.5999
41.0233
42.1201
42.9794
43.6299
44.2095
44.6289
45.1827
46.0381
46.6555
47.0821
47.186
46.8948
46.6558
46.0617
10.2894
14.7177
16.8544
18.6316
20.1633
21.5241
22.7683
23.9378
25.065
26.1818
27.3306
28.57
29.9631
31.5503
33.3237
35.2131
37.093
38.8225
40.299
41.5063
42.4994
43.3312
44.1077
44.8165
45.6113
46.576
47.3552
47.9117
48.1544
47.9837
47.7095
47.0839
9.72875
9.07998
9.07238
9.25136
9.70272
10.2479
10.8356
11.3842
11.8344
12.3426
12.7737
13.1663
13.5118
13.8165
14.077
14.2927
14.4577
14.5622
14.5941
14.5558
14.5597
14.6102
14.5893
14.494
14.336
14.1262
13.8706
13.5702
13.2286
12.8397
12.4124
11.9073
11.462
10.9159
10.3276
9.77481
9.30876
9.10686
9.08617
9.7014
14.1096
13.3458
13.2843
13.4517
13.9167
14.4826
15.0976
15.6918
16.2535
16.7845
17.2562
17.6858
18.0698
18.4133
18.7137
18.9692
19.1713
19.3065
19.3581
19.3263
19.3306
19.3759
19.3365
19.2111
19.0165
18.7671
18.4716
18.1325
17.7525
17.3268
16.859
16.3317
15.7733
15.1813
14.5656
13.9923
13.512
13.3196
13.3494
14.076
16.2264
15.4131
15.346
15.5284
16.0234
16.6212
17.2729
17.9095
18.5179
19.0834
19.5966
20.0669
20.4939
20.8817
21.2286
21.5318
21.7806
21.9579
22.0441
22.0384
22.0437
22.0635
21.9899
21.8228
21.5816
21.2845
20.9425
20.559
20.136
19.6696
19.1604
18.5988
17.9937
17.3588
16.7062
16.101
15.5904
15.3818
15.415
16.189
18.0053
17.1766
17.1252
17.3351
17.8639
18.4943
19.1814
19.8556
20.5018
21.1013
21.652
22.159
22.6243
23.0519
23.4416
23.7892
24.0817
24.2993
24.4207
24.4451
24.4512
24.4411
24.3325
24.1251
23.8402
23.4985
23.1136
22.6902
22.2289
21.7259
21.1793
20.584
19.9412
19.2685
18.5804
17.9428
17.3982
17.1617
17.1779
17.9656
19.5641
18.7478
18.7206
18.957
19.5109
20.1647
20.8771
21.578
22.2505
22.8756
23.4531
23.9858
24.4779
24.9352
25.3579
25.7406
26.0681
26.3183
26.469
26.5186
26.5251
26.4899
26.3521
26.1119
25.7919
25.4148
24.9966
24.5432
24.0551
23.5265
22.9533
22.3324
21.6634
20.964
20.2504
19.5894
19.02
18.7574
18.7491
19.5238
20.9766
20.188
20.1798
20.4302
20.9945
21.6593
22.3857
23.103
23.7925
24.4352
25.0304
25.5802
26.0906
26.57
27.0181
27.4277
27.7818
28.057
28.2295
28.2971
28.3038
28.2505
28.0906
27.8254
27.4785
27.0741
26.6302
26.1543
25.6476
25.1019
24.5109
23.8724
23.1862
22.4704
21.7426
21.0706
20.491
20.2153
20.1891
20.9369
22.2904
21.531
21.5275
21.7759
22.3363
23.0022
23.7344
24.4619
25.1633
25.8189
26.4268
26.9887
27.5136
28.0104
28.478
28.9075
29.2807
29.5728
29.7598
29.838
29.8447
29.7803
29.6056
29.3231
28.9569
28.5322
28.0683
27.575
27.0532
26.4951
25.8912
25.2395
24.5411
23.8147
23.0806
22.4072
21.8319
21.559
21.5303
22.2519
23.5362
22.7966
22.7818
23.0164
23.5633
24.225
24.9593
25.6946
26.4058
27.0724
27.6906
28.2618
28.7985
29.3082
29.7895
30.2319
30.6166
30.9178
31.1116
31.1945
31.2009
31.1312
30.9491
30.6571
30.2789
29.841
29.3631
28.8563
28.3223
27.7546
27.14
26.4767
25.7679
25.033
24.2961
23.6265
23.0647
22.8067
22.792
23.4981
24.7348
24.0019
23.9657
24.1807
24.71
25.3658
26.1009
26.8428
27.5625
28.2383
28.8644
29.4421
29.9868
30.5043
30.9929
31.4412
31.8294
32.132
32.3255
32.4079
32.4137
32.3439
32.161
31.867
31.4849
31.0408
30.5551
30.0399
29.4974
28.9227
28.2996
27.6263
26.9082
26.166
25.4273
24.7632
24.2191
23.9819
23.9914
24.6956
25.9075
25.1711
25.1084
25.3027
25.8135
26.4625
27.1968
27.9429
28.6684
29.3503
29.9805
30.5611
31.1092
31.629
32.1183
32.565
32.9491
33.2457
33.4329
33.51
33.5153
33.4493
33.2721
32.9831
32.6045
32.1615
31.6746
31.1567
30.6102
30.0317
29.4038
28.7236
27.9986
27.2512
26.5125
25.8548
25.3297
25.115
25.1539
25.8662
27.0883
26.3368
26.2438
26.4164
26.9074
27.5475
28.2777
29.0241
29.7513
30.4344
31.064
31.6436
32.1898
32.7061
33.1894
33.6275
34.0005
34.2848
34.4601
34.5288
34.5333
34.4744
34.3077
34.0303
33.6619
33.2271
32.7455
32.2304
31.6853
31.1069
30.4785
29.7958
29.0682
28.3195
27.5843
26.9354
26.431
26.2404
26.3132
27.0449
28.3233
27.5382
27.4057
27.552
28.0199
28.6469
29.3683
30.1097
30.8329
31.5123
32.1367
32.7106
33.2498
33.7569
34.2283
34.6514
35.0074
35.2738
35.4334
35.4912
35.4949
35.4453
35.293
35.0322
34.6801
34.2593
33.7892
33.2826
32.7436
32.1698
31.5456
30.8657
30.1408
29.3962
28.6693
28.0338
27.5541
27.3929
27.5093
28.2791
29.661
28.8136
28.6247
28.7356
29.1742
29.7826
30.4893
31.2199
31.9336
32.6036
33.218
33.782
34.3096
34.8028
35.257
35.6601
35.9942
36.239
36.3801
36.4257
36.4285
36.3895
36.2541
36.0136
35.6823
35.2807
34.827
34.3337
33.8053
33.2405
32.6249
31.9531
31.2368
30.5022
29.7897
29.1738
28.7258
28.604
28.7815
29.6182
31.1344
30.1914
29.9245
29.9878
30.3895
30.9725
31.6589
32.3726
33.0714
33.7271
34.3274
34.8775
35.3897
35.8648
36.2978
36.6771
36.9863
37.2074
37.3288
37.3623
37.3643
37.3356
37.2183
37.0001
36.6926
36.3139
35.8804
35.4043
34.8906
34.3384
33.7357
33.0769
32.3744
31.6559
30.9642
30.375
29.9672
29.8981
30.1594
31.0969
32.7445
31.6796
31.3158
31.3203
31.6776
32.2298
32.8904
33.5826
34.2618
34.8992
35.4818
36.0153
36.509
36.9632
37.3725
37.7259
38.0087
38.2054
38.3077
38.3302
38.3314
38.3119
38.212
38.0167
37.7345
37.3806
36.9699
36.5138
36.0175
35.481
34.8946
34.2528
33.5689
32.8717
32.2061
31.6499
31.2906
31.2864
31.652
32.7181
34.4494
33.2567
32.79
32.7318
33.0418
33.5599
34.1921
34.8597
35.5164
36.1327
36.695
37.2097
37.6833
38.1152
38.4998
38.8267
39.083
39.2564
39.3413
39.355
39.3555
39.343
39.2588
39.0855
38.8283
38.4998
38.1128
37.6779
37.2007
36.6819
36.1145
35.4927
34.8304
34.1574
33.5213
33.0018
32.6944
32.7606
33.2386
34.4415
36.1669
34.8717
34.319
34.2069
34.4748
34.9607
35.5649
36.2073
36.8404
37.4341
37.9748
38.47
38.9231
39.3326
39.6928
39.9942
40.2259
40.378
40.4483
40.4561
40.4558
40.4477
40.3765
40.2229
39.9891
39.6849
39.3213
38.9077
38.45
37.9495
37.4025
36.8022
36.1625
35.5145
34.9071
34.4225
34.1627
34.2911
34.8671
36.185
37.8018
36.4593
35.8619
35.72
35.9607
36.4221
37.0024
37.6216
38.2316
38.8023
39.3222
39.7988
40.2324
40.6209
40.9583
41.2365
41.4461
41.5801
41.639
41.6437
41.6427
41.6362
41.5748
41.438
41.225
40.9428
40.6009
40.2073
39.7681
39.2853
38.7582
38.1794
37.5617
36.9363
36.3535
35.8952
35.6676
35.8344
36.468
37.8478
39.2836
37.9656
37.3804
37.2445
37.4801
37.9298
38.493
39.0924
39.6811
40.2305
40.7332
41.1929
41.6093
41.9791
42.2966
42.5544
42.7453
42.8646
42.9155
42.9192
42.9175
42.9107
42.8561
42.7326
42.537
42.2741
41.951
41.5751
41.1522
40.6851
40.1745
39.6158
39.0183
38.4117
37.8453
37.3998
37.1803
37.3472
37.979
39.3478
40.5957
39.3709
38.8552
38.7627
39.0179
39.4701
40.0253
40.6106
41.1816
41.7123
42.2003
42.6459
43.0475
43.4013
43.7019
43.9429
44.1186
44.2266
44.2721
44.2763
44.2741
44.2657
44.2152
44.1019
43.9203
43.6732
43.3661
43.0053
42.5961
42.1423
41.6454
41.1043
40.5231
39.9293
39.3697
38.9205
38.6811
38.806
39.3735
40.6596
41.7804
40.6952
40.2909
40.2708
40.5657
41.0336
41.5892
42.1655
42.7222
43.2381
43.7142
44.1481
44.5376
44.8782
45.1649
45.3922
45.5562
45.6558
45.698
45.7032
45.7006
45.6902
45.6421
45.5362
45.3657
45.1314
44.8375
44.4891
44.0914
43.6486
43.163
42.6364
42.068
41.4811
40.9186
40.4504
40.1666
40.2137
40.6656
41.8136
42.9004
41.9759
41.7043
41.7725
42.119
42.6105
43.1716
43.7421
44.2875
44.7948
45.2625
45.688
46.0678
46.3978
46.6733
46.8898
47.0445
47.138
47.1782
47.1846
47.1816
47.1695
47.1229
47.0225
46.8607
46.6368
46.3536
46.0156
45.6271
45.1927
44.7153
44.1973
43.6397
43.057
42.4858
41.9884
41.6441
41.5895
41.8908
42.8584
44.0101
43.2428
43.1064
43.2669
43.6703
44.1909
44.7624
45.3313
45.8692
46.3709
46.8327
47.2518
47.6241
47.9456
48.212
48.4198
48.5672
48.656
48.6946
48.7019
48.6988
48.6856
48.6402
48.5445
48.3898
48.1745
47.9004
47.571
47.1904
46.7627
46.2916
45.7797
45.2298
44.6484
44.0647
43.5338
43.1233
42.96
43.0993
43.8706
45.0701
44.4818
44.4896
44.7444
45.206
45.7564
46.3394
46.909
47.446
47.946
48.4052
48.8202
49.1871
49.502
49.7613
49.9621
50.1035
50.1882
50.2254
50.2329
50.2299
50.2165
50.1728
50.0813
49.933
49.725
49.4585
49.1362
48.7618
48.3391
47.8718
47.3629
46.816
46.2345
45.6383
45.0742
44.5986
44.3282
44.3018
44.861
46.1394
45.7061
45.8405
46.1796
46.6955
47.2762
47.8736
48.4475
48.9886
49.4908
49.9508
50.3646
50.7287
51.0395
51.2937
51.4892
51.6256
51.7066
51.7417
51.7488
51.746
51.7335
51.6922
51.605
51.4622
51.2602
50.9996
50.6824
50.3117
49.8914
49.4246
48.9149
48.3654
47.7808
47.171
46.5753
46.0412
45.6778
45.5102
45.8915
47.1579
46.8565
47.1015
47.5171
48.0853
48.6982
49.3145
49.9008
50.4521
50.9621
51.4274
51.8441
52.2091
52.5188
52.7705
52.9626
53.0954
53.1728
53.2052
53.2108
53.2082
53.1979
53.1601
53.077
52.9385
52.7408
52.4834
52.1682
51.7978
51.3756
50.9049
50.3894
49.8319
49.2382
48.6125
47.9879
47.4063
46.9742
46.7107
46.9863
47.9659
47.8091
48.1712
48.6708
49.2993
49.9528
50.5971
51.2064
51.7763
52.3014
52.7782
53.2035
53.5741
53.8869
54.1397
54.331
54.4615
54.5357
54.5644
54.5672
54.5651
54.5582
54.5247
54.4456
54.3101
54.1141
53.8567
53.5394
53.1647
52.7356
52.2551
51.7269
51.1543
50.542
49.8949
49.2389
48.6093
48.1103
47.7526
47.917
48.6628
48.6009
49.0489
49.6148
50.2959
50.9891
51.6645
52.3015
52.8954
53.4412
53.9355
54.3749
54.7564
55.0771
55.3349
55.5283
55.6584
55.7296
55.7536
55.752
55.7504
55.7486
55.7207
55.6453
55.511
55.3135
55.052
54.7277
54.3431
53.9008
53.4042
52.8562
52.2603
51.6212
50.9433
50.2471
49.5632
48.9944
48.5448
48.6051
49.0118
49.0483
49.585
50.2245
50.9672
51.7107
52.4279
53.102
53.7284
54.3026
54.8212
55.2812
55.6794
56.0132
56.2803
56.4793
56.6109
56.6796
56.6974
56.6891
56.6879
56.6936
56.6722
56.5996
56.4642
56.2616
55.9913
55.6547
55.2541
54.7926
54.2729
53.6983
53.0721
52.3986
51.6818
50.9388
50.1963
49.5565
49.0172
48.9761
48.9231
49.084
49.7265
50.4524
51.2668
52.0698
52.837
53.554
54.2178
54.8247
55.3718
55.8562
56.275
56.6253
56.9047
57.1117
57.2465
57.3129
57.3227
57.3046
57.3036
57.3186
57.3041
57.2325
57.0925
56.8804
56.5961
56.2413
55.8185
55.3307
54.7807
54.1717
53.5064
52.7886
52.0211
51.2197
50.4095
49.6922
49.0619
48.92
48.7292
48.9289
49.6211
50.3967
51.2597
52.1076
52.9159
53.6694
54.3661
55.0023
55.5756
56.0828
56.5211
56.8873
57.179
57.3942
57.5323
57.5964
57.5975
57.5671
57.5653
57.5902
57.5812
57.5084
57.3614
57.1375
56.8371
56.4624
56.016
55.5009
54.9201
54.2764
53.5723
52.8113
51.9955
51.1423
50.2784
49.508
48.8295
48.6521
48.4795
48.6899
49.3938
50.1837
51.0648
51.9332
52.763
53.5379
54.2554
54.9114
55.5031
56.027
56.4802
56.8592
57.1613
57.384
57.5265
57.5911
57.5878
57.5491
57.5473
57.5791
57.5722
57.4964
57.3419
57.1068
56.7919
56.3993
55.9315
55.3916
54.782
54.1051
53.3624
52.5562
51.6862
50.7718
49.8431
49.0048
48.2667
48.0374
44.4304
52.2851
58.5593
64.7089
69.9977
74.2737
77.6913
80.4473
82.7001
84.5897
86.2389
87.7142
89.0558
90.2955
91.4639
92.5908
93.7071
94.8406
96.0147
97.2458
98.5422
99.9058
101.333
102.815
104.344
105.905
107.485
109.062
110.6
112.033
113.215
113.917
43.7439
51.3203
57.3992
63.4109
68.6266
72.8671
76.2658
79.0129
81.2649
83.1606
84.8161
86.2924
87.6226
88.8457
89.9935
91.0974
92.1885
93.2956
94.4422
95.6444
96.9106
98.2426
99.6363
101.085
102.577
104.101
105.641
107.179
108.678
110.075
111.226
111.909
43.0181
50.3458
56.2383
62.1096
67.2489
71.4528
74.8347
77.5787
79.8395
81.7502
83.4168
84.8951
86.2166
87.4261
88.5559
89.6383
90.7057
91.7873
92.9067
94.0803
95.3165
96.6169
97.9775
99.391
100.847
102.334
103.836
105.335
106.796
108.156
109.276
109.94
42.2381
49.3391
55.0503
60.7818
65.8479
70.0235
73.3998
76.1526
78.4327
80.3653
82.0466
83.5294
84.8477
86.0453
87.1581
88.2205
89.2653
90.3227
91.4165
92.5629
93.7703
95.0403
96.369
97.7481
99.1686
100.618
102.082
103.542
104.964
106.289
107.378
108.023
41.4567
48.3366
53.8626
59.4484
64.4387
68.5881
71.9635
74.7315
77.038
78.9987
80.6992
82.1908
83.511
84.6997
85.7998
86.8449
87.8698
88.9049
89.974
91.0941
92.2735
93.5136
94.8105
96.157
97.5423
98.9555
100.383
101.805
103.189
104.478
105.538
106.165
40.6319
47.3013
52.6404
58.0779
62.9966
67.1313
70.5213
73.3182
75.6593
77.6514
79.3738
80.8779
82.2035
83.3906
84.4801
85.5102
86.5167
87.531
88.5778
89.6735
90.8267
92.0387
93.3056
94.6192
95.9703
97.3473
98.7373
100.121
101.469
102.723
103.753
104.362
39.8146
46.2731
51.4173
56.6974
61.5406
65.6631
69.0717
71.9007
74.2807
76.3102
78.0607
79.5833
80.9207
82.1118
83.1959
84.2156
85.2075
86.204
87.2298
88.3022
89.4298
90.6139
91.8505
93.1327
94.4503
95.7927
97.1464
98.4939
99.8053
101.026
102.026
102.618
38.9494
45.2021
50.1447
55.26
60.0282
64.1507
67.5972
70.4769
72.9075
74.9786
76.761
78.3073
79.6604
80.861
81.9465
82.9593
83.9392
84.9195
85.927
86.9785
88.0827
89.2412
90.4499
91.7012
92.9855
94.2924
95.6096
96.9205
98.1953
99.3811
100.352
100.926
38.0856
44.1293
48.8596
53.7969
58.4833
62.6071
66.0958
69.0284
71.5128
73.6348
75.4584
77.0358
78.4136
79.6297
80.7236
81.7371
82.7106
83.6802
84.6718
85.7037
86.7851
87.9174
89.097
90.3172
91.5687
92.8414
94.1236
95.3983
96.6382
97.7919
98.7346
99.2911
37.152
42.9877
47.4945
52.2373
56.8328
60.966
64.5204
67.5356
70.0973
72.2809
74.1541
75.7723
77.1794
78.418
79.5252
80.5441
81.5164
82.4763
83.4553
84.4706
85.5316
86.6406
87.7942
88.9846
90.2031
91.4403
92.6849
93.9224
95.1254
96.2436
97.1573
97.697
36.1958
41.8211
46.0955
50.6276
55.1202
59.263
62.8895
65.99
68.6317
70.8906
72.8258
74.4917
75.9404
77.2085
78.3381
79.3712
80.348
81.3084
82.2793
83.28
84.3213
85.4053
86.529
87.6871
88.872
90.0731
91.2818
92.4819
93.6496
94.7374
95.6223
96.1432
35.1054
40.528
44.5541
48.846
53.2087
57.3564
61.0818
64.3182
67.0903
69.4499
71.4662
73.2013
74.6988
76.0088
77.1667
78.2161
79.2029
80.1612
81.1256
82.1147
83.1384
84.2011
85.301
86.4301
87.5805
88.7443
89.9144
91.0757
92.205
93.2561
94.1112
94.6155
33.9611
39.1864
42.9558
46.988
51.2005
55.3481
59.1791
62.5517
65.4506
67.934
70.0525
71.8615
73.4269
74.7835
75.981
77.0632
78.0673
79.0378
80.0025
80.982
81.99
83.0294
84.0978
85.1924
86.3079
87.4347
88.5669
89.6903
90.7836
91.8047
92.6312
93.116
32.5737
37.6071
41.0908
44.8084
48.8086
52.9229
56.8891
60.4932
63.6353
66.2963
68.5507
70.4783
72.1231
73.5528
74.8024
75.9142
76.9419
77.9194
78.8844
79.8583
80.8518
81.8717
82.9189
83.9857
85.0645
86.1513
87.2421
88.3231
89.3766
90.3581
91.1513
91.6205
31.0969
35.9566
39.1624
42.5496
46.3064
50.3633
54.4485
58.2496
61.5882
64.4777
66.9306
68.9899
70.753
72.2568
73.5667
74.7377
75.8015
76.8074
77.7844
78.7549
79.7369
80.735
81.7476
82.7752
83.8168
84.8641
85.9138
86.9551
87.9711
88.9223
89.6878
90.1368
29.0922
33.7839
36.659
39.609
42.9831
46.8881
51.1376
55.3642
59.2218
62.4519
65.1302
67.3965
69.2926
70.9224
72.3273
73.5483
74.653
75.6776
76.6632
77.6358
78.607
79.5869
80.5808
81.5819
82.5828
83.5838
84.5878
85.5815
86.5528
87.4618
88.1859
88.6174
26.966
31.5824
34.2119
36.7687
39.7485
43.429
47.6984
52.1044
56.1672
59.8643
63.0176
65.5719
67.7023
69.4646
70.9632
72.2819
73.4518
74.5276
75.5416
76.5186
77.4827
78.4418
79.3954
80.3484
81.307
82.2644
83.2223
84.1724
85.1034
85.9781
86.6795
87.0929
23.2756
27.8092
30.0488
31.9542
34.1209
37.2869
41.7732
47.1535
52.6615
57.0916
60.601
63.5327
65.9042
67.8962
69.5704
70.9793
72.2161
73.3264
74.3593
75.348
76.3059
77.2475
78.1845
79.1127
80.0234
80.9238
81.8275
82.7207
83.5993
84.4293
85.0705
85.4618
19.9398
24.9787
27.2494
28.8288
30.6681
33.4054
37.361
42.163
46.838
52.3802
57.2517
60.9197
63.8295
66.0961
67.9408
69.5137
70.864
72.0629
73.1491
74.1526
75.1073
76.0267
76.9131
77.7759
78.6345
79.4844
80.3335
81.1759
82.0102
82.797
83.4264
83.8019
7.80941
13.4349
16.0111
17.3483
15.8902
14.5404
18.1872
28.5537
40.9231
47.941
53.3067
57.872
61.2832
64.0265
66.215
67.967
69.436
70.6939
71.8124
72.8404
73.7946
74.6967
75.5676
76.4087
77.207
77.9794
78.7585
79.528
80.2948
81.0329
81.5697
81.9188
7.77374
5.54334
5.62211
9.05516
8.51457
6.56968
6.03512
10.573
21.0867
37.1969
46.9248
53.2112
58.0779
61.4731
64.0419
66.0984
67.7709
69.1873
70.4035
71.4615
72.4159
73.2891
74.0894
74.8312
75.5557
76.2656
76.9747
77.6798
78.4006
79.0772
79.6146
79.9459
10.1934
15.6555
16.3947
15.2932
13.5503
11.3208
14.4894
15.5441
15.0803
18.9193
36.9757
47.6498
53.6459
58.2554
61.572
64.0324
65.9532
67.476
68.7442
69.847
70.8075
71.6619
72.4461
73.1721
73.8154
74.4084
75.015
75.6161
76.2293
76.8548
77.2523
77.5602
18.615
22.9255
24.623
25.0373
23.9031
21.0675
17.3963
19.7336
19.4189
25.5464
19.2968
35.8314
47.6284
53.8691
58.2389
61.3418
63.643
65.4738
66.9332
68.0922
69.0553
69.8629
70.5346
71.089
71.6072
72.1072
72.6128
73.1224
73.7212
74.2277
74.63
74.8954
22.264
27.2651
29.9203
31.7909
32.7613
32.6843
31.1917
27.7546
24.1314
18.3789
25.4927
20.0966
35.2558
47.653
53.8927
58.087
61.0222
63.0663
64.6044
65.8462
66.8241
67.6071
68.2568
68.812
69.1994
69.5111
69.8384
70.1727
70.5192
71.0108
71.1961
71.481
23.7274
28.8397
31.7937
34.19
35.9945
37.1854
37.7147
37.3928
35.6447
31.4996
27.7112
32.8913
34.8742
37.4107
48.1357
53.7001
57.3265
60.0241
61.9784
63.3231
64.298
64.982
65.4144
65.6175
65.7616
65.8826
66.0354
66.2171
66.7979
66.9159
67.1575
67.214
23.909
29.1241
32.2458
34.884
37.0042
38.6014
39.6835
40.2551
40.2445
39.1855
35.2232
30.4552
25.2991
14.2143
37.6037
47.3325
53.007
56.1576
58.1726
59.6791
60.6735
61.3248
61.7319
62.0264
61.8651
61.6804
61.4551
61.2603
60.9565
61.3526
61.1722
61.5273
22.9659
28.3272
31.5721
34.3763
36.7047
38.5512
39.9313
40.8782
41.425
41.5276
40.7023
36.9712
29.7272
14.087
24.6466
39.9466
46.1906
50.8457
53.9215
55.5757
56.5102
56.8696
56.6722
56.0484
55.4419
54.6095
54.184
53.4419
55.3025
53.7186
54.9934
52.9439
21.5561
27.0325
30.3293
33.1973
35.6094
37.5581
39.0548
40.143
40.9017
41.4199
41.6522
40.9612
36.7209
32.6368
12.7146
20.7564
38.3916
43.7958
46.3526
48.4537
49.3022
49.6773
49.8257
50.1611
48.2825
47.4486
45.3207
44.0795
41.8126
41.9588
40.6536
42.1934
19.9101
25.42
28.6815
31.5202
33.9236
35.8906
37.4247
38.5587
39.3786
40.0284
40.6529
41.0912
40.1757
35.7532
24.0721
23.3332
24.0057
33.5175
39.736
41.453
42.1087
41.5061
37.6158
34.0602
37.2175
26.0739
34.5314
12.2108
31.312
21.7111
42.0375
11.9188
18.3332
23.7678
26.9019
29.6175
31.9209
33.8194
35.3136
36.4234
37.234
37.9067
38.6615
39.5825
40.0836
38.2709
31.8955
27.9155
28.0613
18.2205
10.8155
20.885
16.9194
18.4584
19.558
34.2994
41.4325
32.3058
40.3592
19.6575
36.8475
23.7072
46.1945
4.00196
17.0238
22.3248
25.2913
27.8398
29.9948
31.7692
33.1628
34.1849
34.9126
35.5179
36.2653
37.3409
38.4352
38.17
33.8562
22.5773
25.9356
32.8282
17.1796
28.3092
22.5827
2.29003
22.0652
35.6881
36.7308
32.1642
40.3396
31.7441
37.219
37.1186
43.0816
33.3155
16.0123
21.177
23.9821
26.3644
28.364
30.0008
31.277
32.1983
32.8305
33.3447
34.0268
35.1447
36.5922
37.4348
35.7129
29.2402
24.4774
27.1965
6.21722
28.2909
19.4146
29.9612
26.8268
36.4392
30.6643
36.1554
35.0002
42.6669
37.1802
41.2953
36.3496
41.3579
15.1997
20.2516
22.9216
25.1618
27.0261
28.5416
29.7166
30.5602
31.1329
31.6
32.2392
33.3453
34.9737
36.6414
37.1938
35.0696
29.9165
28.3518
28.0077
28.8795
32.8321
34.1056
39.2024
38.7015
42.2153
44.1283
44.1473
47.8263
44.2732
46.2512
44.0603
45.3239
14.5064
19.4658
22.0245
24.1477
25.9016
27.3209
28.4215
29.2216
29.7841
30.266
30.9196
32.0186
33.674
35.6494
37.3543
38.0047
37.3009
37.4179
38.6438
38.9228
41.317
41.3447
44.7178
44.2792
45.814
46.908
47.0691
48.9214
47.0962
47.5664
47.0344
46.3624
13.852
18.7322
21.1994
23.228
24.8952
26.2437
27.2985
28.0887
28.6832
29.2293
29.9454
31.0686
32.7283
34.7954
36.8753
38.4799
39.4008
40.4017
41.6442
42.4079
43.726
43.9917
46.1313
46.1871
47.0026
47.894
47.9579
48.9888