/*--------------------------------*- C++ -*----------------------------------*\
  =========                 |
  \\      /  F ield         | OpenFOAM: The Open Source CFD Toolbox
   \\    /   O peration     | Website:  https://openfoam.org
    \\  /    A nd           | Version:  6
     \\/     M anipulation  |
\*---------------------------------------------------------------------------*/
FoamFile
{
    version     2.0;
    format      ascii;
    class       volVectorField;
    location    "38";
    object      wallShearStress;
}
// * * * * * * * * * * * * * * * * * * * * * * * * * * * * * * * * * * * * * //

dimensions      [0 2 -2 0 0 0 0];

internalField   uniform (0 0 0);

boundaryField
{
    inlet
    {
        type            calculated;
        value           uniform (0 0 0);
    }
    outlet
    {
        type            calculated;
        value           uniform (0 0 0);
    }
    roughCylinder
    {
        type            calculated;
        value           nonuniform List<vector> 
5120
(
(-0.000250663 -0.000356907 -0.000183724)
(-0.000307216 -0.000461244 -4.21097e-05)
(-0.000340733 -0.000555019 -7.75481e-07)
(-0.000386413 -0.000645036 5.39371e-05)
(-0.000443373 -0.000723192 0.00011714)
(-0.000508065 -0.000785023 0.000180668)
(-0.000577029 -0.000827688 0.000240002)
(-0.000645609 -0.000851617 0.000292371)
(-0.000709723 -0.000859268 0.000335677)
(-0.000767292 -0.000855688 0.0003692)
(-0.000818547 -0.000849132 0.00039442)
(-0.000863797 -0.000845271 0.000413239)
(-0.000900059 -0.000844137 0.000424397)
(-0.000930623 -0.000848481 0.000429005)
(-0.000956791 -0.000857518 0.000428105)
(-0.000979907 -0.000870541 0.000422755)
(-0.00100139 -0.000886767 0.000414002)
(-0.00102247 -0.000905543 0.000402746)
(-0.0010441 -0.000926399 0.000389652)
(-0.00106692 -0.000949027 0.00037515)
(-0.00109129 -0.000973261 0.000359435)
(-0.00111732 -0.000998957 0.000342536)
(-0.00114496 -0.001026 0.000324354)
(-0.00117406 -0.00105421 0.000304693)
(-0.00120436 -0.00108336 0.000283286)
(-0.0012355 -0.0011131 0.000259773)
(-0.00126708 -0.00114298 0.000233669)
(-0.00129847 -0.0011723 0.000204244)
(-0.00132885 -0.00120019 0.000170389)
(-0.0013566 -0.00122511 0.000130509)
(-0.00137911 -0.00124535 8.24278e-05)
(-0.00139198 -0.0012574 2.7876e-05)
(-0.000269193 -0.000345243 -0.000173573)
(-0.000328853 -0.00044682 -4.45784e-05)
(-0.000364951 -0.000539281 -6.53319e-06)
(-0.000412744 -0.000629007 4.47763e-05)
(-0.00047138 -0.000708171 0.000105354)
(-0.000537622 -0.000771789 0.000167091)
(-0.00060798 -0.000816628 0.000225276)
(-0.000678047 -0.000842976 0.00027702)
(-0.000744351 -0.000853681 0.000320328)
(-0.000805323 -0.000854367 0.0003549)
(-0.00086076 -0.000851888 0.000382117)
(-0.000909552 -0.000849608 0.000402783)
(-0.000948663 -0.000847207 0.00041503)
(-0.000980774 -0.000850457 0.000420228)
(-0.00100848 -0.000858781 0.000419647)
(-0.00103303 -0.00087144 0.000414523)
(-0.00105592 -0.000887538 0.000405947)
(-0.00107842 -0.000906324 0.000394861)
(-0.00110151 -0.000927266 0.000381968)
(-0.00112584 -0.00095001 0.00036771)
(-0.00115177 -0.000974348 0.000352293)
(-0.00117942 -0.00100013 0.000335752)
(-0.00120872 -0.00102724 0.00031798)
(-0.00123951 -0.00105548 0.000298784)
(-0.00127151 -0.00108461 0.000277887)
(-0.00130435 -0.0011143 0.000254925)
(-0.00133759 -0.00114409 0.000229414)
(-0.00137058 -0.0011733 0.000200619)
(-0.00140248 -0.00120106 0.000167447)
(-0.00143154 -0.00122582 0.000128301)
(-0.00145513 -0.00124594 8.1031e-05)
(-0.00146863 -0.00125789 2.73983e-05)
(-0.00028756 -0.000328369 -0.000156152)
(-0.000349992 -0.000426956 -4.75639e-05)
(-0.00038848 -0.000517351 -1.29531e-05)
(-0.000437992 -0.000606119 3.47459e-05)
(-0.000498009 -0.000685764 9.23964e-05)
(-0.000565644 -0.000750935 0.0001521)
(-0.000637473 -0.000798108 0.000209056)
(-0.000709389 -0.000827532 0.000260325)
(-0.000778417 -0.000842226 0.00030408)
(-0.000843092 -0.000847509 0.000340078)
(-0.000902432 -0.000848665 0.000369086)
(-0.00095449 -0.000847898 0.000391035)
(-0.000997171 -0.000845543 0.000404589)
(-0.00103095 -0.000847238 0.000410305)
(-0.0010602 -0.000854675 0.000410035)
(-0.00108629 -0.000866794 0.000405181)
(-0.00111068 -0.000882597 0.000396838)
(-0.00113469 -0.00090124 0.000385986)
(-0.00115929 -0.0009221 0.000373351)
(-0.00118518 -0.000944789 0.000359392)
(-0.00121271 -0.000969064 0.000344336)
(-0.00124199 -0.000994766 0.000328208)
(-0.00127298 -0.00102174 0.000310912)
(-0.00130546 -0.00104981 0.000292241)
(-0.00133915 -0.00107873 0.000271916)
(-0.00137368 -0.00110817 0.000249568)
(-0.00140856 -0.00113767 0.000224712)
(-0.00144311 -0.00116656 0.000196608)
(-0.00147649 -0.00119399 0.000164191)
(-0.00150682 -0.00121841 0.000125854)
(-0.00153147 -0.00123827 7.94823e-05)
(-0.00154557 -0.00125005 2.68692e-05)
(-0.000303898 -0.000307606 -0.000134261)
(-0.000368687 -0.000402687 -5.06239e-05)
(-0.000409124 -0.00049028 -1.9619e-05)
(-0.000459763 -0.00057744 2.4288e-05)
(-0.000520721 -0.000657063 7.87421e-05)
(-0.000589525 -0.000723578 0.000136139)
(-0.000662881 -0.00077325 0.000191704)
(-0.000736966 -0.000806239 0.000242507)
(-0.000809029 -0.000825434 0.000286838)
(-0.000877393 -0.000835358 0.000324318)
(-0.000940447 -0.00083989 0.000354986)
(-0.000995949 -0.000840826 0.000378145)
(-0.0010423 -0.000839383 0.000392989)
(-0.00107866 -0.000839532 0.000399396)
(-0.00110962 -0.000845988 0.000399573)
(-0.00113738 -0.000857406 0.000395039)
(-0.00116336 -0.000872772 0.000386993)
(-0.00118893 -0.000891136 0.000376437)
(-0.00121512 -0.000911811 0.000364125)
(-0.00124259 -0.00093433 0.000350534)
(-0.00127173 -0.000958414 0.000335891)
(-0.00130264 -0.000983887 0.000320234)
(-0.00133526 -0.00101059 0.000303461)
(-0.00136938 -0.00103833 0.000285361)
(-0.0014047 -0.00106688 0.00026565)
(-0.00144082 -0.00109589 0.000243954)
(-0.00147724 -0.00112493 0.00021979)
(-0.00151327 -0.00115334 0.000192413)
(-0.00154803 -0.00118028 0.000160788)
(-0.00157952 -0.00120421 0.000123298)
(-0.00160515 -0.0012237 7.78623e-05)
(-0.00161981 -0.00123523 2.63173e-05)
(-0.000317134 -0.000283234 -0.000110022)
(-0.00038388 -0.000374274 -5.34064e-05)
(-0.000425773 -0.000458416 -2.61892e-05)
(-0.000476965 -0.00054335 1.37362e-05)
(-0.000538441 -0.000622461 6.46983e-05)
(-0.000608257 -0.000690144 0.00011947)
(-0.000683279 -0.00074249 0.000173412)
(-0.000759842 -0.000779375 0.000223666)
(-0.000835142 -0.000803196 0.000268541)
(-0.000907107 -0.000817504 0.000307362)
(-0.000973722 -0.000825166 0.000339547)
(-0.00103275 -0.000827885 0.000363966)
(-0.00108262 -0.00082755 0.000379913)
(-0.00112288 -0.000827303 0.000387474)
(-0.00115578 -0.000832209 0.000388217)
(-0.00118532 -0.00084271 0.000384106)
(-0.00121303 -0.000857461 0.000376457)
(-0.00124025 -0.000875399 0.000366282)
(-0.00126802 -0.000895717 0.000354362)
(-0.00129707 -0.000917901 0.000341196)
(-0.00132779 -0.000941648 0.00032703)
(-0.00136029 -0.000966739 0.0003119)
(-0.00139449 -0.000993004 0.000295701)
(-0.00143016 -0.00102025 0.000278219)
(-0.001467 -0.00104825 0.000259165)
(-0.0015046 -0.00107666 0.000238158)
(-0.00154244 -0.00110507 0.000214718)
(-0.0015798 -0.00113281 0.000188094)
(-0.00161581 -0.00115909 0.000157289)
(-0.00164834 -0.00118238 0.000120669)
(-0.00167487 -0.00120136 7.61965e-05)
(-0.00169001 -0.00121259 2.57504e-05)
(-0.000327243 -0.00025667 -8.52155e-05)
(-0.000395438 -0.000343128 -5.57709e-05)
(-0.000438219 -0.000423256 -3.24558e-05)
(-0.000489345 -0.000505382 3.33284e-06)
(-0.000550864 -0.000583465 5.05106e-05)
(-0.000621445 -0.00065204 0.000102297)
(-0.000698113 -0.000707009 0.000154326)
(-0.000777232 -0.000747768 0.000203841)
(-0.000855806 -0.000776009 0.000249103)
(-0.000931355 -0.000794318 0.000289068)
(-0.00100155 -0.000804852 0.000322616)
(-0.0010642 -0.000809363 0.000348314)
(-0.00111781 -0.00081019 0.000365377)
(-0.00116217 -0.000810385 0.000374192)
(-0.00119817 -0.000813706 0.000375828)
(-0.00122972 -0.000823049 0.00037234)
(-0.00125927 -0.000836905 0.000365186)
(-0.00128821 -0.000854164 0.000355489)
(-0.00131765 -0.000873964 0.000344061)
(-0.00134831 -0.000895673 0.000331407)
(-0.00138059 -0.00091891 0.000317782)
(-0.00141461 -0.000943452 0.000303237)
(-0.0014503 -0.000969108 0.000287665)
(-0.00148742 -0.000995685 0.000270849)
(-0.00152564 -0.00102294 0.00025249)
(-0.00156457 -0.00105057 0.000232204)
(-0.00160367 -0.00107815 0.000209518)
(-0.00164219 -0.00110506 0.000183668)
(-0.00167932 -0.00113053 0.000153709)
(-0.00171273 -0.00115303 0.00011798)
(-0.00174004 -0.00117138 7.44892e-05)
(-0.0017556 -0.00118224 2.51713e-05)
(-0.000333023 -0.000228225 -6.07944e-05)
(-0.00040215 -0.000309633 -5.75488e-05)
(-0.000445228 -0.000385194 -3.82128e-05)
(-0.000495633 -0.00046391 -6.74979e-06)
(-0.000556641 -0.000540415 3.62851e-05)
(-0.000627672 -0.000609552 8.46562e-05)
(-0.000705942 -0.000667064 0.000134403)
(-0.000787736 -0.000711678 0.000182923)
(-0.000869702 -0.000744157 0.000228349)
(-0.000948933 -0.00076617 0.000269227)
(-0.00102287 -0.00077942 0.000303996)
(-0.00108937 -0.000785775 0.000331001)
(-0.00114697 -0.00078782 0.000349321)
(-0.00119545 -0.000788742 0.000359354)
(-0.00123579 -0.000791616 0.000362305)
(-0.00126984 -0.000799006 0.000359621)
(-0.00130144 -0.000811726 0.000353138)
(-0.00133229 -0.000828152 0.000344059)
(-0.00136343 -0.000847189 0.000333213)
(-0.00139568 -0.000868206 0.000321148)
(-0.0014295 -0.000890777 0.000308146)
(-0.00146498 -0.000914606 0.000294256)
(-0.00150206 -0.000939502 0.000279371)
(-0.00154051 -0.000965255 0.000263271)
(-0.00157999 -0.000991633 0.00024565)
(-0.0016201 -0.00101834 0.00022612)
(-0.00166028 -0.00104495 0.000204216)
(-0.0016998 -0.00107087 0.00017916)
(-0.00173785 -0.00109537 0.000150066)
(-0.00177197 -0.00111695 0.000115245)
(-0.00179997 -0.00113458 7.27504e-05)
(-0.00181585 -0.00114499 2.45826e-05)
(-0.00033456 -0.000199027 -3.77557e-05)
(-0.000403977 -0.000274961 -5.87411e-05)
(-0.000446743 -0.000345514 -4.33528e-05)
(-0.00049575 -0.000420276 -1.63281e-05)
(-0.000555606 -0.000494618 2.2256e-05)
(-0.000626617 -0.000563836 6.67873e-05)
(-0.000706189 -0.000623515 0.000113808)
(-0.00079044 -0.000671618 0.000160928)
(-0.000875688 -0.000707951 0.000206159)
(-0.000958674 -0.000733387 0.000247665)
(-0.00103658 -0.000749251 0.000283493)
(-0.00110715 -0.00075747 0.000311795)
(-0.00116899 -0.000760812 0.000331535)
(-0.00122173 -0.000762476 0.00034293)
(-0.0012663 -0.000765457 0.000347202)
(-0.00130451 -0.000771828 0.000345818)
(-0.0013386 -0.000782734 0.000340226)
(-0.00137146 -0.000797673 0.00033188)
(-0.00140442 -0.000815797 0.000321775)
(-0.00143836 -0.000835982 0.00031042)
(-0.00147368 -0.000857717 0.000298129)
(-0.00151056 -0.000880684 0.000284968)
(-0.00154892 -0.000904656 0.000270832)
(-0.00158854 -0.000929426 0.000255499)
(-0.00162907 -0.000954756 0.000238654)
(-0.00167013 -0.000980362 0.000219912)
(-0.00171117 -0.0010059 0.000198817)
(-0.00175144 -0.00103078 0.000174574)
(-0.00179025 -0.00105425 0.000146369)
(-0.00182487 -0.00107482 0.000112469)
(-0.00185338 -0.00109166 7.09805e-05)
(-0.00186952 -0.00110166 2.39867e-05)
(-0.000330534 -0.000169126 -1.66221e-05)
(-0.00039965 -0.000239256 -5.91769e-05)
(-0.00044146 -0.000304343 -4.76885e-05)
(-0.000488306 -0.000374533 -2.51942e-05)
(-0.000546212 -0.000445982 8.61254e-06)
(-0.000616543 -0.000514627 4.87977e-05)
(-0.000697052 -0.000576046 9.25533e-05)
(-0.000783692 -0.000627392 0.000137783)
(-0.000872337 -0.000667428 0.000182396)
(-0.000959258 -0.000696163 0.0002242)
(-0.00104141 -0.000714614 0.000260907)
(-0.00111645 -0.00072479 0.000290494)
(-0.00118282 -0.000729494 0.000311767)
(-0.00124013 -0.000731984 0.000324768)
(-0.00128904 -0.000735133 0.00033052)
(-0.00133126 -0.000741028 0.000330509)
(-0.00136904 -0.000750711 0.000326176)
(-0.00140495 -0.000764398 0.000319006)
(-0.00143981 -0.000781062 0.000309789)
(-0.00147537 -0.00080005 0.000299241)
(-0.00151217 -0.000820741 0.000287762)
(-0.00155035 -0.000842716 0.000275418)
(-0.00158985 -0.000865689 0.000262106)
(-0.00163047 -0.000889442 0.000247601)
(-0.00167187 -0.000913726 0.000231582)
(-0.00171369 -0.000938258 0.000213665)
(-0.00175526 -0.000962644 0.000193391)
(-0.00179588 -0.000986313 0.00016995)
(-0.00183508 -0.0010086 0.000142637)
(-0.00186993 -0.00102807 0.000109662)
(-0.00189881 -0.00104405 6.91863e-05)
(-0.00191492 -0.00105352 2.33828e-05)
(-0.000321542 -0.000139867 1.94309e-06)
(-0.000389515 -0.000203534 -5.91082e-05)
(-0.00042975 -0.000263152 -5.11812e-05)
(-0.000473809 -0.000328264 -3.31676e-05)
(-0.000528961 -0.000396149 -4.33013e-06)
(-0.000597844 -0.000463483 3.10858e-05)
(-0.000678665 -0.000525962 7.09967e-05)
(-0.000767205 -0.000579956 0.000113715)
(-0.000858938 -0.000623233 0.000157133)
(-0.000949844 -0.000655092 0.00019881)
(-0.00103649 -0.000676124 0.000236164)
(-0.00111621 -0.000688208 0.000266943)
(-0.00118748 -0.000694313 0.000289828)
(-0.00124959 -0.000697604 0.000304605)
(-0.0013031 -0.000700962 0.000312099)
(-0.00134948 -0.000706463 0.000313663)
(-0.00139097 -0.000715317 0.000310795)
(-0.0014298 -0.000727838 0.000304913)
(-0.00146717 -0.000743138 0.000296844)
(-0.00150474 -0.00076089 0.000287353)
(-0.00154305 -0.000780386 0.000276844)
(-0.00158238 -0.000801177 0.00026542)
(-0.00162274 -0.000822962 0.000252999)
(-0.00166397 -0.000845489 0.000239366)
(-0.00170573 -0.000868506 0.000224195)
(-0.00174775 -0.000891738 0.00020711)
(-0.00178941 -0.000914768 0.000187675)
(-0.00183008 -0.000937049 0.000165064)
(-0.00186942 -0.000958029 0.000138694)
(-0.00190417 -0.000976289 0.000106691)
(-0.00193316 -0.000991291 6.72763e-05)
(-0.00194919 -0.00100017 2.27417e-05)
(-0.000304436 -0.000110626 1.75412e-05)
(-0.000373135 -0.000168447 -5.81652e-05)
(-0.000410371 -0.000222023 -5.37384e-05)
(-0.000450669 -0.000281399 -3.99734e-05)
(-0.000501968 -0.000344805 -1.62388e-05)
(-0.000568267 -0.000409781 1.39316e-05)
(-0.000648567 -0.000472485 4.92897e-05)
(-0.000738707 -0.000528725 8.87413e-05)
(-0.000833664 -0.000575203 0.000130313)
(-0.000928734 -0.000610213 0.000171359)
(-0.00102018 -0.000633928 0.00020906)
(-0.00110524 -0.000648179 0.000240985)
(-0.00118178 -0.0006557 0.000265516)
(-0.00124912 -0.000659811 0.000282243)
(-0.00130754 -0.000663362 0.000291718)
(-0.00135839 -0.000668496 0.00029514)
(-0.00140368 -0.000676504 0.000293948)
(-0.00144567 -0.000687898 0.00028956)
(-0.00148556 -0.000701877 0.000282816)
(-0.00152499 -0.000718254 0.00027453)
(-0.00156474 -0.000736398 0.000265132)
(-0.00160512 -0.000755838 0.000254751)
(-0.00164617 -0.000776247 0.000243323)
(-0.00168778 -0.000797358 0.000230642)
(-0.0017297 -0.000818927 0.000216385)
(-0.00177167 -0.000840683 0.000200185)
(-0.00181314 -0.000862197 0.000181634)
(-0.00185355 -0.00088298 0.000159893)
(-0.00189274 -0.00090253 0.000134524)
(-0.00192709 -0.000919515 0.000103545)
(-0.00195605 -0.000933505 6.52455e-05)
(-0.00197184 -0.000941698 2.20603e-05)
(-0.000280854 -8.27256e-05 3.01221e-05)
(-0.000350687 -0.000135297 -5.6434e-05)
(-0.000384729 -0.000182563 -5.53417e-05)
(-0.000420432 -0.000235915 -4.5477e-05)
(-0.000466929 -0.000294161 -2.67299e-05)
(-0.000529586 -0.000355831 -2.07244e-06)
(-0.000608375 -0.000417802 2.80919e-05)
(-0.000699202 -0.000475451 6.34384e-05)
(-0.000796646 -0.00052451 0.000102331)
(-0.000895784 -0.000562548 0.00014211)
(-0.000992272 -0.000589054 0.00017976)
(-0.00108258 -0.000605332 0.000212563)
(-0.00116483 -0.00061434 0.000238748)
(-0.00123776 -0.000619204 0.00025754)
(-0.00130146 -0.000622879 0.000269219)
(-0.00135704 -0.000627569 0.000274762)
(-0.00140649 -0.000634732 0.00027554)
(-0.00145168 -0.000644837 0.000272849)
(-0.00149417 -0.000657419 0.000267644)
(-0.00153566 -0.000672377 0.000260765)
(-0.00157682 -0.000689043 0.000252634)
(-0.00161812 -0.000706982 0.000243429)
(-0.00165967 -0.000725852 0.000233098)
(-0.00170141 -0.000745399 0.000221454)
(-0.00174312 -0.000765361 0.000208169)
(-0.00178468 -0.000785485 0.0001929)
(-0.00182558 -0.00080536 0.000175281)
(-0.00186535 -0.000824523 0.000154443)
(-0.00190406 -0.000842559 0.000130134)
(-0.00193762 -0.000858183 0.000100224)
(-0.00196625 -0.000871058 6.30856e-05)
(-0.00198174 -0.000878561 2.13384e-05)
(-0.000249883 -5.6845e-05 3.94019e-05)
(-0.000319989 -0.000103811 -5.3631e-05)
(-0.000350905 -0.00014472 -5.56232e-05)
(-0.000381259 -0.000191586 -4.9247e-05)
(-0.000421582 -0.00024363 -3.52812e-05)
(-0.00047885 -0.00030052 -1.63469e-05)
(-0.000554519 -0.000360348 7.90111e-06)
(-0.000645264 -0.000418686 3.81364e-05)
(-0.000745357 -0.000470395 7.33801e-05)
(-0.000848645 -0.00051161 0.000111081)
(-0.000950304 -0.000541101 0.000148116)
(-0.00104695 -0.000560061 0.000181638)
(-0.00113536 -0.000570709 0.000209409)
(-0.00121435 -0.000576377 0.000230368)
(-0.0012837 -0.000580094 0.00024445)
(-0.00134448 -0.000584286 0.000252412)
(-0.00139824 -0.000590427 0.000255414)
(-0.00144709 -0.000599242 0.000254746)
(-0.00149236 -0.000610324 0.000251331)
(-0.00153575 -0.000623647 0.000246026)
(-0.00157826 -0.000638683 0.00023933)
(-0.00162034 -0.000654978 0.000231443)
(-0.00166218 -0.000672199 0.000222328)
(-0.00170378 -0.000690072 0.000211816)
(-0.00174499 -0.000708344 0.000199576)
(-0.00178583 -0.000726768 0.000185295)
(-0.00182578 -0.000744926 0.00016865)
(-0.00186458 -0.000762423 0.000148748)
(-0.00190253 -0.000778899 0.000125552)
(-0.00193492 -0.000793155 9.67551e-05)
(-0.00196312 -0.000804918 6.0816e-05)
(-0.00197809 -0.000811668 2.05814e-05)
(-0.000213924 -3.44945e-05 4.5327e-05)
(-0.000282887 -7.53435e-05 -4.99596e-05)
(-0.000311251 -0.000110321 -5.47971e-05)
(-0.000336374 -0.000150818 -5.13819e-05)
(-0.00036995 -0.00019627 -4.1662e-05)
(-0.000420697 -0.000247457 -2.82317e-05)
(-0.000491894 -0.000303929 -1.0295e-05)
(-0.000580857 -0.000361621 1.39009e-05)
(-0.000681681 -0.000414754 4.43577e-05)
(-0.000788524 -0.000458907 7.90221e-05)
(-0.000895616 -0.000491691 0.000114774)
(-0.000997768 -0.000513018 0.000148415)
(-0.00109265 -0.000525505 0.000177585)
(-0.00117815 -0.000532097 0.000200745)
(-0.00125373 -0.00053591 0.000217433)
(-0.00131989 -0.000539429 0.000228035)
(-0.00137844 -0.000544488 0.000233589)
(-0.00143089 -0.000551752 0.000235186)
(-0.00147906 -0.000561186 0.000233817)
(-0.00152465 -0.000572841 0.000230354)
(-0.0015685 -0.000586134 0.000225288)
(-0.00161124 -0.000600686 0.000218876)
(-0.00165311 -0.000616154 0.000211097)
(-0.00169423 -0.000632259 0.000201802)
(-0.00173451 -0.000648752 0.00019066)
(-0.00177416 -0.000665385 0.000177401)
(-0.00181273 -0.000681787 0.000161767)
(-0.00185008 -0.000697581 0.000142812)
(-0.00188684 -0.000712442 0.000120782)
(-0.00191761 -0.000725315 9.31326e-05)
(-0.00194501 -0.000735894 5.8421e-05)
(-0.00195942 -0.000741917 1.97863e-05)
(-0.000171735 -1.59354e-05 4.74181e-05)
(-0.000237369 -4.99348e-05 -4.49244e-05)
(-0.000263315 -7.89399e-05 -5.22949e-05)
(-0.000283148 -0.000112798 -5.131e-05)
(-0.000308922 -0.000150771 -4.5138e-05)
(-0.000350805 -0.00019445 -3.67376e-05)
(-0.000414604 -0.000245295 -2.53236e-05)
(-0.000500241 -0.000301039 -8.16946e-06)
(-0.0006024 -0.000355908 1.61562e-05)
(-0.000712701 -0.000403208 4.64729e-05)
(-0.00082466 -0.000439406 7.98996e-05)
(-0.0009341 -0.000464397 0.000113227)
(-0.00103593 -0.000479188 0.000143477)
(-0.00112822 -0.00048692 0.000168738)
(-0.00121009 -0.00049081 0.000188084)
(-0.00128227 -0.000493755 0.000201603)
(-0.00134571 -0.000497555 0.000209954)
(-0.00140238 -0.000503288 0.000214172)
(-0.00145367 -0.000510979 0.000215139)
(-0.00150123 -0.000520725 0.000213715)
(-0.00154631 -0.000532155 0.000210476)
(-0.00158953 -0.000544858 0.000205702)
(-0.00163119 -0.000558513 0.000199388)
(-0.00167153 -0.000572833 0.000191409)
(-0.00171053 -0.000587559 0.000181429)
(-0.00174865 -0.000602433 0.000169238)
(-0.00178541 -0.000617092 0.000154648)
(-0.00182095 -0.000631223 0.000136656)
(-0.00185629 -0.000644526 0.000115852)
(-0.001885 -0.000656082 8.93812e-05)
(-0.00191151 -0.00066552 5.59184e-05)
(-0.00192516 -0.000670802 1.89581e-05)
(-0.000127376 -2.26029e-06 4.61908e-05)
(-0.000187522 -2.91356e-05 -3.89397e-05)
(-0.000211941 -5.25352e-05 -4.85936e-05)
(-0.000227878 -8.03558e-05 -4.96459e-05)
(-0.000246622 -0.000111266 -4.61296e-05)
(-0.000279749 -0.000147367 -4.17074e-05)
(-0.000335417 -0.000191753 -3.63583e-05)
(-0.000414455 -0.00024328 -2.67899e-05)
(-0.000512348 -0.000296571 -9.77287e-06)
(-0.000624027 -0.000346125 1.48997e-05)
(-0.000741241 -0.000386357 4.48591e-05)
(-0.00085564 -0.000414368 7.67544e-05)
(-0.000964394 -0.000431945 0.000107521)
(-0.00106396 -0.000441353 0.000134648)
(-0.00115304 -0.00044584 0.000156717)
(-0.00123119 -0.000448182 0.000173235)
(-0.00130003 -0.000450799 0.000184657)
(-0.0013607 -0.000454775 0.000191705)
(-0.00141513 -0.000460588 0.000195265)
(-0.00146504 -0.000468452 0.000196176)
(-0.00151135 -0.000477953 0.000194978)
(-0.00155491 -0.000488774 0.000192017)
(-0.00159606 -0.000500594 0.000187294)
(-0.00163517 -0.00051311 0.000180711)
(-0.00167239 -0.00052607 0.000171933)
(-0.00170841 -0.000539189 0.000160826)
(-0.00174286 -0.000552154 0.000147301)
(-0.00177604 -0.000564658 0.000130268)
(-0.00180943 -0.000576389 0.00011074)
(-0.0018355 -0.000586696 8.54764e-05)
(-0.00186077 -0.000594968 5.32756e-05)
(-0.00187356 -0.000599553 1.80875e-05)
(-7.9789e-05 6.68638e-06 4.15715e-05)
(-0.000131816 -1.25573e-05 -3.07833e-05)
(-0.000154372 -2.98794e-05 -4.21753e-05)
(-0.000166632 -5.11365e-05 -4.48593e-05)
(-0.000178028 -7.40928e-05 -4.33635e-05)
(-0.000198874 -0.000100462 -4.18656e-05)
(-0.00023993 -0.000134734 -4.10686e-05)
(-0.00030988 -0.000180388 -3.86006e-05)
(-0.000408565 -0.000234498 -3.05703e-05)
(-0.000521335 -0.000286139 -1.39554e-05)
(-0.000641274 -0.000329927 1.08013e-05)
(-0.000763518 -0.000363235 4.02495e-05)
(-0.000879169 -0.000384321 7.06454e-05)
(-0.000985674 -0.000395899 9.90868e-05)
(-0.00108102 -0.000401049 0.000123515)
(-0.00116574 -0.000403259 0.000143086)
(-0.00123989 -0.000404752 0.000157681)
(-0.00130527 -0.000407201 0.00016786)
(-0.00136308 -0.000411164 0.000174279)
(-0.00141492 -0.000416973 0.000177704)
(-0.0014623 -0.000424497 0.000178745)
(-0.00150593 -0.000433404 0.000177762)
(-0.00154623 -0.000443405 0.000174759)
(-0.00158381 -0.000454204 0.000169671)
(-0.00161882 -0.000465498 0.000162144)
(-0.00165243 -0.000476985 0.000152154)
(-0.00168412 -0.000488371 0.00013972)
(-0.00171456 -0.000499373 0.000123646)
(-0.00174586 -0.000509678 0.000105473)
(-0.00176883 -0.000518904 8.14431e-05)
(-0.00179274 -0.00052608 5.05059e-05)
(-0.0018046 -0.000530009 1.718e-05)
(-4.03866e-05 1.06381e-05 3.4333e-05)
(-7.9178e-05 -2.75397e-06 -2.44097e-05)
(-9.96151e-05 -1.61371e-05 -3.36819e-05)
(-0.000111303 -3.20292e-05 -3.71172e-05)
(-0.000118553 -4.81531e-05 -3.65874e-05)
(-0.000133261 -6.61367e-05 -3.60042e-05)
(-0.000167509 -9.09774e-05 -3.90754e-05)
(-0.000226549 -0.000126003 -4.56016e-05)
(-0.000298924 -0.000170337 -4.73047e-05)
(-0.000407412 -0.000224005 -3.76158e-05)
(-0.000531512 -0.000272246 -1.99027e-05)
(-0.000655661 -0.000309109 5.20198e-06)
(-0.000778194 -0.000335029 3.40411e-05)
(-0.000892102 -0.000349992 6.28907e-05)
(-0.000995463 -0.000357264 8.93056e-05)
(-0.0010863 -0.000359703 0.000111629)
(-0.00116614 -0.000360517 0.000129424)
(-0.00123559 -0.000361417 0.00014277)
(-0.00129661 -0.000363571 0.000152213)
(-0.00135087 -0.00036753 0.000158423)
(-0.00139923 -0.000373132 0.000161899)
(-0.00144277 -0.000380195 0.000163066)
(-0.00148188 -0.000388456 0.000161904)
(-0.00151733 -0.000397595 0.00015837)
(-0.00154957 -0.000407333 0.000152109)
(-0.00158009 -0.000417259 0.000143223)
(-0.00160839 -0.000427158 0.000131884)
(-0.00163554 -0.000436767 0.000116749)
(-0.00166413 -0.000445682 9.99949e-05)
(-0.00168325 -0.000453951 7.7222e-05)
(-0.00170555 -0.000460052 4.75563e-05)
(-0.00171622 -0.000463331 1.62165e-05)
(-1.63902e-05 8.42196e-06 2.01674e-05)
(-2.72844e-05 -9.65739e-07 -1.41385e-05)
(-3.38853e-05 -6.69393e-06 -2.0291e-05)
(-3.66954e-05 -1.48749e-05 -2.11749e-05)
(-3.78561e-05 -1.98478e-05 -1.74305e-05)
(-4.10934e-05 -2.32109e-05 -1.5996e-05)
(-5.34605e-05 -3.00324e-05 -2.25966e-05)
(-0.000107117 -7.29779e-05 -3.55218e-05)
(-0.000203883 -0.000115268 -3.99426e-05)
(-0.000292883 -0.000158148 -5.365e-05)
(-0.000409256 -0.000210627 -4.50582e-05)
(-0.000541746 -0.000255219 -2.56447e-05)
(-0.000667729 -0.000285556 -4.29056e-07)
(-0.000787118 -0.000304542 2.75748e-05)
(-0.000895164 -0.000313844 5.48522e-05)
(-0.000992365 -0.000317515 7.94291e-05)
(-0.00107733 -0.000318116 0.000100126)
(-0.00115164 -0.000318141 0.000116702)
(-0.00121601 -0.000318806 0.000129284)
(-0.00127182 -0.000320896 0.00013834)
(-0.00132087 -0.000324682 0.00014439)
(-0.00136389 -0.000329986 0.000147835)
(-0.00140136 -0.000336625 0.00014862)
(-0.00143439 -0.000344318 0.000146724)
(-0.00146337 -0.000352677 0.000141741)
(-0.00149059 -0.000361254 0.000133979)
(-0.00151524 -0.000369884 0.000123764)
(-0.00153869 -0.000378247 0.000109552)
(-0.00156453 -0.000385977 9.43263e-05)
(-0.00157948 -0.000393587 7.28443e-05)
(-0.00159998 -0.000398648 4.44322e-05)
(-0.00160968 -0.000401396 1.5205e-05)
(6.3282e-06 9.35023e-06 2.08477e-05)
(-8.31099e-07 3.47158e-06 -1.05912e-05)
(-7.72794e-06 -1.4417e-06 -1.65333e-05)
(-1.21792e-05 -6.02035e-06 -1.92835e-05)
(-1.6981e-05 -1.03725e-05 -2.10508e-05)
(-2.7942e-05 -2.0115e-05 -3.16953e-05)
(-3.9305e-05 -3.33307e-05 -3.75168e-05)
(-3.58838e-05 -3.3908e-05 -2.52172e-05)
(-6.40307e-05 -5.79333e-05 -2.33406e-05)
(-0.000174406 -0.000101709 -3.53945e-05)
(-0.00028782 -0.000144608 -5.64727e-05)
(-0.000406987 -0.000193328 -4.90877e-05)
(-0.000540677 -0.00023224 -2.89745e-05)
(-0.000666619 -0.000256793 -4.76233e-06)
(-0.0007831 -0.000271088 2.17875e-05)
(-0.00088561 -0.000276876 4.75125e-05)
(-0.000975904 -0.000278288 7.06008e-05)
(-0.00105357 -0.000277731 9.0039e-05)
(-0.00112067 -0.000277273 0.000105665)
(-0.0011787 -0.000278049 0.000117709)
(-0.00122825 -0.000280286 0.000126425)
(-0.00127058 -0.00028408 0.000132268)
(-0.00130603 -0.000289307 0.000135084)
(-0.00133582 -0.000295687 0.000134832)
(-0.00136095 -0.000302857 0.000131095)
(-0.00138407 -0.00031016 0.000124393)
(-0.00140411 -0.000317566 0.000115268)
(-0.00142358 -0.000324844 0.000101972)
(-0.00144605 -0.000331455 8.83709e-05)
(-0.00145571 -0.000338499 6.81925e-05)
(-0.00147444 -0.000342596 4.10514e-05)
(-0.00148268 -0.000344746 1.4112e-05)
(2.04004e-05 9.25506e-06 2.74423e-05)
(2.39874e-05 7.70268e-06 -2.52591e-06)
(1.80027e-05 8.13761e-06 -5.03821e-06)
(7.46775e-06 8.23132e-06 -1.39999e-05)
(2.04913e-06 4.57617e-07 -2.36327e-05)
(-6.24999e-07 -7.61939e-06 -2.14294e-05)
(-4.76364e-06 -1.39561e-05 -2.08281e-05)
(-1.82399e-05 -2.02163e-05 -2.26502e-05)
(-2.69537e-05 -3.0012e-05 -2.39594e-05)
(-5.63893e-05 -4.35381e-05 -2.24868e-05)
(-0.000167206 -8.65507e-05 -4.43325e-05)
(-0.000295774 -0.000133346 -5.81538e-05)
(-0.000415189 -0.000176807 -5.23601e-05)
(-0.000541843 -0.000209695 -3.28153e-05)
(-0.000658812 -0.000227734 -8.42645e-06)
(-0.000766418 -0.000237074 1.71015e-05)
(-0.000860462 -0.000240119 4.15479e-05)
(-0.00094255 -0.000240307 6.34159e-05)
(-0.0010124 -0.000239489 8.18448e-05)
(-0.0010709 -0.00023914 9.66435e-05)
(-0.00112035 -0.000240176 0.000107988)
(-0.00116125 -0.00024269 0.000116229)
(-0.00119405 -0.000246727 0.000121103)
(-0.00122047 -0.000252147 0.000122539)
(-0.00124126 -0.000258354 0.00011999)
(-0.00126039 -0.000264625 0.000114353)
(-0.00127632 -0.000271141 0.000106389)
(-0.00129102 -0.000277318 9.39519e-05)
(-0.00131036 -0.000283097 8.21472e-05)
(-0.00131485 -0.000289918 6.33238e-05)
(-0.00133154 -0.000293047 3.7419e-05)
(-0.00133885 -0.000294748 1.29521e-05)
(3.49467e-05 1.45182e-05 4.12914e-05)
(4.53632e-05 1.17735e-05 -8.38886e-06)
(4.64161e-05 6.72061e-06 -1.45469e-05)
(4.32611e-05 -2.07737e-06 -1.80619e-05)
(3.96481e-05 -1.00953e-05 -1.84698e-05)
(3.31788e-05 -1.49335e-05 -1.61023e-05)
(2.17422e-05 -1.43006e-05 -1.37596e-05)
(7.31135e-06 -1.27663e-05 -5.9367e-06)
(-2.1858e-05 1.44213e-06 -1.76475e-05)
(-2.12187e-05 -1.26847e-05 -2.60967e-05)
(-4.16037e-05 -2.47214e-05 -2.20782e-05)
(-0.000153597 -7.50538e-05 -4.85965e-05)
(-0.000280858 -0.000120668 -5.95618e-05)
(-0.000402881 -0.00015596 -5.19244e-05)
(-0.000528063 -0.00018398 -3.34211e-05)
(-0.000638449 -0.000197782 -1.02435e-05)
(-0.000736558 -0.000204067 1.43133e-05)
(-0.00081977 -0.000205386 3.75902e-05)
(-0.000890818 -0.00020489 5.82271e-05)
(-0.000950989 -0.000204483 7.56286e-05)
(-0.00100001 -0.000204866 8.9453e-05)
(-0.0010394 -0.000206581 0.00010007)
(-0.00106924 -0.000209771 0.000106995)
(-0.00109106 -0.000214371 0.000110001)
(-0.00110698 -0.000219824 0.000108512)
(-0.00112112 -0.00022501 0.000103789)
(-0.00113108 -0.000230414 9.68615e-05)
(-0.00114184 -0.000235663 8.53646e-05)
(-0.00115717 -0.000240662 7.54864e-05)
(-0.0011551 -0.000247144 5.80205e-05)
(-0.00117007 -0.000249447 3.3405e-05)
(-0.00117598 -0.000250557 1.1675e-05)
(4.77417e-05 1.6532e-05 4.85339e-05)
(6.46326e-05 1.38617e-05 -8.64524e-06)
(7.10211e-05 9.92094e-06 -1.68629e-05)
(7.31071e-05 2.04322e-06 -2.13595e-05)
(7.15942e-05 -7.09341e-06 -2.29862e-05)
(6.62171e-05 -1.58485e-05 -2.22012e-05)
(5.66987e-05 -2.30407e-05 -1.96443e-05)
(4.32381e-05 -2.4367e-05 -1.34369e-05)
(1.51012e-05 -2.1274e-05 -9.31238e-06)
(-4.03511e-06 -6.75444e-06 -1.95439e-05)
(-3.30149e-05 -1.90599e-05 -4.28112e-05)
(-6.74579e-05 -4.77095e-05 -4.34112e-05)
(-0.000149212 -7.2095e-05 -4.07764e-05)
(-0.000298697 -0.000110318 -5.5748e-05)
(-0.000392129 -0.000137016 -5.05974e-05)
(-0.000503947 -0.000158021 -3.24902e-05)
(-0.000601979 -0.000168012 -9.6908e-06)
(-0.000688472 -0.000172489 1.37581e-05)
(-0.000760917 -0.000173478 3.57237e-05)
(-0.000819137 -0.000173186 5.49629e-05)
(-0.000866611 -0.000173473 7.08676e-05)
(-0.000903224 -0.000174715 8.35764e-05)
(-0.000929145 -0.00017725 9.23878e-05)
(-0.000946737 -0.000181549 9.69381e-05)
(-0.00095745 -0.000186456 9.6326e-05)
(-0.00096754 -0.000190734 9.25336e-05)
(-0.000973989 -0.000195589 8.68364e-05)
(-0.000978996 -0.000199369 7.61445e-05)
(-0.000991501 -0.000204125 6.84747e-05)
(-0.000983187 -0.000210209 5.24078e-05)
(-0.000996638 -0.000211958 2.90563e-05)
(-0.00100155 -0.000212492 1.03067e-05)
(5.53159e-05 1.5381e-05 4.96704e-05)
(7.68998e-05 1.26624e-05 -7.57309e-06)
(8.7067e-05 8.93567e-06 -1.63237e-05)
(9.27594e-05 1.31897e-06 -2.16714e-05)