/*--------------------------------*- C++ -*----------------------------------*\
  =========                 |
  \\      /  F ield         | OpenFOAM: The Open Source CFD Toolbox
   \\    /   O peration     | Website:  https://openfoam.org
    \\  /    A nd           | Version:  6
     \\/     M anipulation  |
\*---------------------------------------------------------------------------*/
FoamFile
{
    version     2.0;
    format      ascii;
    class       volScalarField;
    location    "38";
    object      yPlus;
}
// * * * * * * * * * * * * * * * * * * * * * * * * * * * * * * * * * * * * * //

dimensions      [0 0 0 0 0 0 0];

internalField   uniform 0;

boundaryField
{
    inlet
    {
        type            calculated;
        value           uniform 0;
    }
    outlet
    {
        type            calculated;
        value           uniform 0;
    }
    roughCylinder
    {
        type            calculated;
        value           nonuniform List<scalar> 
5120
(
43.5027
51.3234
57.5526
63.6796
68.9691
73.2597
76.6977
79.4766
81.7515
83.657
85.3127
86.7952
88.1418
89.3866
90.5604
91.6939
92.8175
93.9596
95.1435
96.3864
97.698
99.0804
100.531
102.042
103.603
105.201
106.822
108.44
110.019
111.487
112.7
113.417
42.7965
50.3315
56.3607
62.3466
67.5618
71.8163
75.2352
78.0052
80.2796
82.1915
83.8556
85.3418
86.6801
87.9112
89.0672
90.1793
91.2794
92.3964
93.5546
94.7705
96.0533
97.4055
98.8243
100.302
101.828
103.391
104.973
106.553
108.095
109.526
110.709
111.407
42.0029
49.291
55.1335
60.9804
66.123
70.3472
73.7557
76.5274
78.8127
80.7406
82.4188
83.9103
85.2449
86.4649
87.6043
88.6969
89.7753
90.8689
92.0011
93.1898
94.4445
95.7671
97.1545
98.5993
100.091
101.618
103.164
104.705
106.21
107.604
108.757
109.437
41.1997
48.2515
53.9063
59.609
64.6764
68.8711
72.2722
75.0504
77.3541
79.306
81.0033
82.5036
83.8397
85.0509
86.1778
87.2533
88.3112
89.382
90.4913
91.6551
92.8826
94.1765
95.5334
96.9461
98.4038
99.8949
101.403
102.908
104.375
105.733
106.856
107.517
40.3305
47.1607
52.6269
58.1828
63.1781
67.3545
70.7644
73.5661
75.9017
77.8855
79.6068
81.1208
82.4629
83.6719
84.7883
85.8489
86.8896
87.9412
89.0272
90.166
91.3679
92.6342
93.9618
95.3431
96.7686
98.2253
99.6983
101.166
102.596
103.92
105.014
105.656
39.4707
46.0786
51.3495
56.7512
61.6727
65.8339
69.2564
72.0837
74.4534
76.4732
78.2226
79.7542
81.1072
82.3196
83.4313
84.4821
85.5075
86.5398
87.6068
88.7248
89.9023
91.1424
92.4416
93.7927
95.1852
96.6077
98.045
99.476
100.871
102.159
103.224
103.849
38.5357
44.9288
49.9967
55.2359
60.0837
64.2423
67.6984
70.5745
72.9961
75.0606
76.8443
78.4014
79.7712
80.9947
82.1073
83.1507
84.1651
85.1848
86.2326
87.3281
88.4828
89.698
90.9704
92.2922
93.6547
95.0442
96.4475
97.8428
99.2019
100.457
101.494
102.101
37.6127
43.7864
48.6421
53.7086
58.4799
62.6409
66.1361
69.0602
71.5314
73.6447
75.4688
77.0546
78.448
79.6855
80.8077
81.852
82.86
83.8653
84.8992
85.9792
87.1131
88.3048
89.551
90.8445
92.1749
93.5318
94.8998
96.26
97.5851
98.8055
99.8139
100.404
36.5844
42.5418
47.1706
52.0462
56.7319
60.9037
64.463
67.4699
70.0219
72.2002
74.0755
75.7054
77.1293
78.3926
79.5289
80.5802
81.5864
82.589
83.6098
84.6707
85.7853
86.955
88.1766
89.4428
90.7448
92.0699
93.4048
94.7303
96.0203
97.2084
98.1906
98.7625
35.5556
41.289
45.6826
50.3539
54.948
59.1381
62.7723
65.862
68.489
70.7391
72.6751
74.3471
75.8122
77.1034
78.2622
79.3267
80.3406
81.338
82.3518
83.404
84.5023
85.6515
86.8488
88.0879
89.3584
90.6505
91.9509
93.2403
94.497
95.6504
96.6035
97.1594
34.3462
39.8638
44.0031
48.4379
52.9122
57.1147
60.8493
64.076
66.838
69.1922
71.2099
72.9602
74.4757
75.8106
76.9996
78.0861
79.1089
80.1155
81.1255
82.1637
83.2468
84.3769
85.5518
86.7644
88.0069
89.2682
90.5342
91.7891
93.0116
94.1321
95.0604
95.597
33.092
38.4011
42.2793
46.4621
50.8061
55.0319
58.8898
62.2577
65.1408
67.6133
69.7323
71.5405
73.1217
74.5063
75.7364
76.849
77.8948
78.9041
79.9149
80.9529
82.025
83.1382
84.2905
85.4768
86.6879
87.915
89.1462
90.3641
91.5519
92.6374
93.5359
94.0567
31.5475
36.6526
40.2341
44.103
48.2485
52.4537
56.447
60.0456
63.1803
65.8387
68.0933
70.0475
71.7155
73.1676
74.4468
75.6041
76.672
77.7057
78.7237
79.7529
80.8148
81.9122
83.0443
84.2057
85.3889
86.585
87.7812
88.9646
90.1194
91.1707
92.0447
92.5457
29.8915
34.8142
38.1062
41.6478
45.5794
49.7823
53.9594
57.7903
61.1163
63.9859
66.4355
68.4761
70.2496
71.7896
73.1432
74.3431
75.4539
76.5007
77.5291
78.5689
79.6261
80.7109
81.8228
82.9577
84.1091
85.2694
86.4293
87.5735
88.6912
89.7051
90.548
91.0329
27.6773
32.4293
35.3763
38.4745
42.0362
46.088
50.3904
54.6254
58.4931
61.7426
64.4342
66.7588
68.6905
70.3379
71.7625
73.0398
74.1921
75.2844
76.3349
77.3727
78.4261
79.4988
80.5923
81.704
82.8266
83.9554
85.0785
86.1862
87.2722
88.2501
89.0676
89.5332
25.1625
29.829
32.4973
35.1762
38.3596
42.3334
46.9226
51.4922
55.5777
59.2325
62.3523
64.8348
66.9649
68.7765
70.3445
71.6924
72.9154
74.0354
75.1094
76.1727
77.2293
78.2949
79.3707
80.4544
81.5436
82.6329
83.7157
84.7807
85.8247
86.7605
87.5453
87.9923
21.2346
25.9376
28.2421
30.2704
32.7032
36.0256
40.424
45.8565
51.4526
55.9774
59.582
62.6774
65.1019
67.1019
68.7692
70.2461
71.5411
72.7388
73.8557
74.9248
75.9862
77.0436
78.1023
79.1642
80.222
81.2783
82.3216
83.3466
84.3591
85.2549
86.0117
86.4416
16.4299
21.4214
23.6471
25.2265
26.9603
30.3813
35.8183
41.2711
46.2059
51.7272
56.4411
59.8671
62.7811
65.1265
67.0966
68.7045
70.1189
71.3651
72.5253
73.6433
74.7186
75.7764
76.82
77.8497
78.8704
79.8796
80.8726
81.8497
82.8144
83.656
84.38
84.7844
5.81719
10.932
12.1936
12.2181
11.2758
10.2781
13.5172
25.4253
38.7476
46.0326
51.8217
56.8609
60.2919
63.0115
65.1274
66.9625
68.5041
69.8869
71.1235
72.2554
73.347
74.4007
75.4273
76.4365
77.4199
78.3939
79.3472
80.2728
81.2039
82.0032
82.6901
83.0842
6.95261
8.17644
11.8255
13.4153
12.7348
17.4029
18.078
12.7422
18.2078
35.9857
45.6818
51.4531
56.5189
60.0733
62.9043
65.0133
66.7806
68.246
69.5582
70.7835
71.9067
72.9726
73.9865
74.9538
75.8917
76.8028
77.6794
78.5562
79.4289
80.147
80.8036
81.1598
12.3347
16.7864
17.954
18.0783
15.7789
11.7603
2.21136
12.02
15.324
18.9336
35.9381
46.9666
52.5065
57.0057
60.0742
62.6519
64.6607
66.3946
67.8538
69.0982
70.2552
71.3204
72.3145
73.2636
74.1526
75.0269
75.8753
76.6652
77.5043
78.1734
78.7802
79.1325
20.0493
24.5453
26.5082
27.4193
27.2542
25.714
22.615
14.1394
18.2292
12.146
12.5764
32.727
45.1794
51.6029
56.6117
59.8046
62.3194
64.1985
65.7909
67.2306
68.4556
69.5566
70.5436
71.4245
72.249
73.0241
73.7247
74.4833
75.2338
75.775
76.3473
76.6561
22.5111
27.4865
30.2012
32.2006
33.3887
33.6219
32.6332
30.0651
24.561
19.3093
23.2495
25.6469
33.9294
46.1583
51.5827
56.0584
59.064
61.5583
63.4777
64.9275
66.2158
67.3203
68.271
69.143
69.8914
70.6353
71.3585
71.9372
72.6734
73.1213
73.6436
73.9336
23.1801
28.2626
31.1898
33.536
35.2567
36.321
36.6559
36.0274
33.8182
28.9063
20.3341
18.2009
13.3608
31.7763
45.2449
50.984
55.4149
58.1489
60.3119
62.226
63.674
64.8623
65.8286
66.5597
67.1985
67.7507
68.1317
68.7341
69.2881
69.5405
69.9913
70.275
22.4918
27.7029
30.7794
33.3476
35.3675
36.8341
37.7585
38.142
37.8637
36.3623
32.2005
26.3466
16.2859
31.7039
32.7516
44.0071
49.2409
53.7525
56.7442
58.5723
60.1253
61.3366
62.2013
62.9377
63.4174
63.994
64.5701
64.8173
65.4236
65.3965
65.8375
66.0336
20.9591
26.301
29.4661
32.1655
34.3711
36.0834
37.3301
38.1613
38.6306
38.6913
37.8039
34.4325
26.2037
21.6192
27.2074
31.4101
42.9464
47.3219
50.8603
54.0245
56.0261
57.3997
58.3602
58.7553
59.0131
59.0888
58.7575
59.1002
59.2186
58.997
59.1376
59.544
18.987
24.4247
27.6202
30.3744
32.6783
34.5474
36.0134
37.1388
38.0091
38.6931
39.1186
38.6913
35.8139
26.2497
10.817
26.6023
26.4911
39.5539
44.8005
47.172
49.1433
50.7507
51.2938
51.6668
51.3137
52.1202
52.4243
53.0236
52.9291
52.0656
51.8712
52.2575
16.756
22.1837
25.3125
28.0204
30.3255
32.2656
33.8847
35.243
36.4301
37.5365
38.5872
39.4102
39.3349
36.2454
27.5094
13.1529
26.4
16.9292
31.1297
38.8823
42.3153
43.7204
44.9324
44.2305
43.7755
41.5408
40.7138
38.8236
37.9768
38.2285
35.5844
36.0088
14.4952
19.7738
22.7313
25.291
27.5035
29.4283
31.1242
32.6564
34.1034
35.5511
37.0423
38.5017
39.6305
39.6417
36.3352
29.5965
18.3464
13.3846
9.30229
17.6938
21.717
31.4887
27.4567
31.2455
8.555
29.789
20.3904
37.2604
30.8232
41.8287
23.3729
36.1363
12.4907
17.4941
20.2013
22.5375
24.5859
26.4243
28.1221
29.7462
31.3651
33.0479
34.8464
36.7276
38.5151
39.8057
39.7667
36.9571
29.2745
27.0996
14.8892
20.4565
19.2234
37.6503
20.4603
40.1574
22.2889
37.2789
27.1037
43.4506
31.3689
42.3405
25.3719
37.169
10.9407
15.5929
18.0293
20.1203
21.9781
23.6936
25.34
26.9789
28.6643
30.446
32.3735
34.4596
36.627
38.6287
39.9859
40.0751
37.7412
32.3822
23.5867
30.8847
21.4522
29.9112
27.5022
34.5244
24.181
38.082
36.1432
43.1738
37.4545
29.0937
33.5905
30.3126
9.79407
14.1996
16.4052
18.2883
19.9839
21.5866
23.1637
24.7627
26.4212
28.1745
30.064
32.1295
34.378
36.7049
38.8046
40.208
40.4159
38.7542
36.0114
31.0554
30.6195
26.4393
28.2854
31.9911
37.4455
35.0196
35.9274
35.061
37.4029
39.2038
42.5587
40.1542
9.18088
13.3932
15.4358
17.1837
18.7804
20.3118
21.8286
23.36
24.928
26.5593
28.2917
30.1758
32.2605
34.5505
36.9232
39.0595
40.4849
40.7992
40.3123
38.1528
37.546
37.1118
35.7343
40.884
43.47
41.9739
40.5992
41.1315
42.0046
43.6387
44.61
43.6547
8.99858
13.1214
15.0918
16.7904
18.3589
19.8672
21.3461
22.8084
24.2655
25.7396
27.2662
28.8945
30.6833
32.6878
34.9138
37.2361
39.3225
40.7304
41.337
40.8535
40.5339
40.711
39.9247
43.0375
44.2608
43.3655
41.9699
42.8181
42.8689
43.8864
44.0526
43.9655
9.17403
13.2869
15.2597
16.9788
18.5746
20.0983
21.5636
22.9727
24.333
25.6639
26.9972
28.3748
29.849
31.4817
33.331
35.4042
37.5674
39.5078
40.8748
41.3353
41.3518
41.5879
41.205
43.0825
43.6557
42.8992
41.8767
42.2951
42.3699
42.811
42.5612
43.125
9.60878
13.7643
15.7884
17.5749
19.235
20.8027
22.2794
23.6614
24.9546
26.1786
27.3618
28.539
29.7503
31.046
32.4867
34.1272
35.9635
37.8639
39.5352
40.5989
41.0316
41.3965
41.2816
42.1988
42.2511
41.4705
40.713
40.681
40.8761
40.9667
40.557
41.5041
10.2465
14.4743
16.5737
18.4482
20.1883
21.8127
23.3153
24.6912
25.9482
27.1067
28.193
29.2348
30.2602
31.3039
32.412
33.6394
35.0268
36.5571
38.0822
39.3122
40.0275
40.5087
40.4982
40.799
40.521
39.6952
39.0929
38.7998
39.0386
39.0185
38.692
39.7454
11.0335
15.3613
17.5484
19.5173
21.3389
23.021
24.5544
25.9364
27.1792
28.3057
29.3409
30.3067
31.2208
32.1032
32.9829
33.9004
34.8982
36.0002
37.1597
38.2197
38.9582
39.4378
39.4473
39.3921
38.9406
38.1273
37.6103
37.2289
37.4449
37.4637
37.366
38.3538
11.8793
16.3761
18.6592
20.7223
22.6216
24.3581
25.9231
27.3187
28.5628
29.6812
30.6983
31.6318
32.4917
33.287
34.0327
34.7523
35.4759
36.2326
37.0191
37.7706
38.3392
38.6892
38.6471
38.3917
37.8613
37.0899
36.6165
36.2482
36.4321
36.5664
36.7299
37.5955
12.8675
17.4865
19.8638
22.0179
23.99
25.7774
27.3741
28.7885
30.0444
31.171
32.1915
33.1209
33.964
34.7228
35.4028
36.0143
36.5731
37.0982
37.5994
38.0552
38.3849
38.5382
38.3898
38.0051
37.4274
36.697
36.2414
35.9285
36.0999
36.3718
36.7588
37.5119
13.5821
14.0038
14.49
14.8811
15.2591
15.5596
15.8218
16.0251
16.1882
16.3032
16.3812
16.4204
16.4248
16.3958
16.3375
16.2526
16.1433
16.0154
15.8809
15.7734
15.7912
15.9145
16.056
16.1879
16.2999
16.3869
16.4469
16.4774
16.4737
16.4353
16.3578
16.2428
16.0792
15.875
15.6112
15.3081
14.9272
14.5328
14.0428
13.6175
18.3191
18.7575
19.264
19.6735
20.0699
20.3922
20.6774
20.9056
21.0947
21.2375
21.3435
21.4116
21.4444
21.4422
21.4071
21.3411
21.2454
21.1244
20.9896
20.8769
20.8957
21.0248
21.1663
21.291
21.3891
21.457
21.4938
21.4974
21.4654
21.3982
21.2927
21.1502
20.9609
20.7321
20.4457
20.1214
19.7226
19.3103
18.8006
18.3592
20.7689
21.2328
21.7693
22.2046
22.6296
22.9827
23.3027
23.5686
23.7983
23.9846
24.1357
24.2504
24.3306
24.3747
24.3832
24.3568
24.2959
24.2035
24.0899
23.9896
24.0075
24.1235
24.2436
24.3396
24.4028
24.4312
24.4244
24.3817
24.3027
24.1892
24.0391
23.8535
23.624
23.3581
23.0375
22.683
22.2561
21.8185
21.2789
20.8121
22.9777
23.4609
24.0204
24.4755
24.9253
25.3061
25.6584
25.9602
26.2294
26.4589
26.6546
26.8155
26.9427
27.0336
27.0868
27.1017
27.078
27.018
26.9317
26.8531
26.8684
26.9623
27.0549
27.1185
27.1447
27.1318
27.0803
26.9909
26.8652
26.706
26.5115
26.2833
26.015
25.7138
25.3616
24.9802
24.5293
24.0725
23.5105
23.0246
24.9832
25.4707
26.0383
26.5001
26.9619
27.3583
27.7311
28.0577
28.3552
28.6175
28.8495
29.0482
29.2142
29.3437
29.4344
29.4845
29.4929
29.4618
29.4019
29.3453
29.3578
29.4292
29.4957
29.5303
29.5242
29.4761
29.387
29.2592
29.095
28.8982
28.668
28.4076
28.1116
27.7863
27.4144
27.0183
26.5562
26.0935
25.5243
25.0346
26.7849
27.2606
27.8221
28.2787
28.7412
29.1431
29.5269
29.8711
30.1917
30.481
30.7432
30.9741
31.173
31.3354
31.4582
31.5385
31.5747
31.5687
31.531
31.4918
31.5023
31.5553
31.5994
31.609
31.5749
31.4965
31.3752
31.2145
31.0176
30.7887
30.5287
30.2416
29.9233
29.5814
29.1992
28.7986
28.3367
27.8804
27.3181
26.8411
28.3831
28.8357
29.3838
29.8296
30.2885
30.6934
31.0878
31.449
31.7908
32.1053
32.395
32.6552
32.8836
33.0754
33.2266
33.3333
33.3932
33.4081
33.3881
33.361
33.3703
33.41
33.4363
33.4246
33.3665
33.2614
33.1117
32.9214
32.6949
32.4369
32.1495
31.8375
31.4984
31.1401
30.7483
30.3459
29.8888
29.4443
28.8966
28.4436
29.794
30.2199
30.7542
31.1905
31.6484
32.0606
32.4672
32.846
33.2088
33.5471
33.8624
34.149
34.4041
34.6219
34.7979
34.9271
35.0071
35.0387
35.0318
35.0126
35.0211
35.052
35.0648
35.0358
34.9575
34.8295
34.6548
34.4382
34.1849
33.9002
33.5874
33.2517
32.8919
32.5165
32.113
31.7041
31.2492
30.8155
30.2827
29.8577
31.0474
31.4483
31.9725
32.4047
32.8659
33.2876
33.7073
34.1033
34.4856
34.8456
35.1837
35.4938
35.772
36.0122
36.2089
36.357
36.453
36.4975
36.4996
36.4852
36.4932
36.5187
36.5217
36.4795
36.3846
36.2374
36.0415
35.8024
35.5258
35.2175
34.8819
34.5245
34.1455
33.753
33.3368
32.919
32.4614
32.0331
31.5113
31.1129
32.174
32.5531
33.0714
33.5032
33.9691
34.4006
34.8326
35.2442
35.6435
36.0224
36.3799
36.7097
37.0072
37.2659
37.4795
37.6425
37.751
37.8048
37.813
37.801
37.8087
37.8312
37.8276
37.7754
37.6676
37.505
37.2918
37.0339
36.7377
36.4095
36.0544
35.6783
35.2822
34.8744
34.4462
34.0192
33.5574
33.1303
32.6155
32.2402
33.1956
33.5544
34.0689
34.5007
34.9711
35.4111
35.8538
36.2785
36.6923
37.0867
37.4602
37.8061
38.1192
38.3926
38.6195
38.7941
38.9119
38.9727
38.9848
38.9741
38.9816
39.0022
38.9939
38.9343
38.8167
38.642
38.415
38.1422
37.8302
37.4858
37.1145
36.7227
36.3122
35.8914
35.4529
35.0176
34.552
34.1254
33.6155
33.2618
34.123
34.4604
34.9699
35.4011
35.8749
36.3221
36.7737
37.2095
37.6351
38.0424
38.4287
38.7876
39.113
39.3978
39.6352
39.8188
39.944
40.0105
40.0263
40.0172
40.0243
40.0427
40.0302
39.9643
39.8387
39.6546
39.4168
39.1321
38.8073
38.4499
38.0656
37.6611
37.2388
36.8071
36.3599
35.9179
35.4493
35.0241
34.52
34.1888
34.9573
35.271
35.7737
36.2033
36.6795
37.1327
37.5918
38.0369
38.4724
38.8901
39.2869
39.6561
39.9913
40.2853
40.531
40.7219
40.8535
40.9254
40.946
40.94
40.9466
40.9611
40.9433
40.8714
40.739
40.547
40.3006
40.0064
39.6716
39.3036
38.9087
38.4937
38.0615
37.6207
37.1663
36.7187
36.2483
35.8254
35.329
35.0232
35.697
35.9832
36.4766
36.9037
37.3816
37.8402
38.306
38.7593
39.2034
39.63
40.0356
40.413
40.7561
41.0573
41.3096
41.5067
41.6444
41.7223
41.7492
41.7482
41.754
41.7624
41.7379
41.6595
41.5206
41.322
41.0686
40.7668
40.4239
40.0473
39.6436
39.2196
38.779
38.3301
37.8694
37.4168
36.9453
36.5261
36.0401
35.7636
36.3412
36.5938
37.0745
37.4977
37.9768
38.4405
38.913
39.3742
39.8263
40.261
40.674
41.0587
41.4083
41.7155
41.9734
42.1761
42.3197
42.4045
42.4391
42.4443
42.4491
42.4502
42.4173
42.3318
42.1865
41.9819
41.7224
41.4142
41.0645
40.6807
40.2692
39.8373
39.3887
38.9322
38.4652
38.008
37.536
37.1216
36.6498
36.4096
36.8907
37.0991
37.5623
37.98
38.4595
38.9287
39.408
39.8772
40.3373
40.7797
41.2
41.591
41.9465
42.259
42.522
42.7301
42.8797
42.9718
43.0147
43.0264
43.0302
43.0235
42.9817
42.8883
42.7365
42.5262
42.2611
41.9474
41.5916
41.201
40.7825
40.3427
39.8864
39.4222
38.9486
38.4867
38.015
37.6076
37.1553
36.9627
37.3493
37.4962
37.9342
38.3432
38.8222
39.2966
39.7832
40.2609
40.7295
41.1799
41.6073
42.0047
42.3656
42.6831
42.9511
43.1643
43.32
43.4194
43.4703
43.4879
43.4907
43.4766
43.426
43.3248
43.1665
42.9505
42.6803
42.3611
41.9995
41.6026
41.1767
40.7292
40.2647
39.7922
39.3119
38.8453
38.3752
37.9781
37.5537
37.4269
37.7231
37.7821
38.1798
38.5772
39.0536
39.5333
40.0273
40.5143
40.9918
41.4507
41.8856
42.2896
42.6562
42.9789
43.2516
43.4699
43.6315
43.7378
43.7959
43.8184
43.8203
43.7999
43.7412
43.6325
43.4677
43.2462
42.9706
42.6461
42.2787
41.8751
41.4418
40.9859
40.5127
40.0314
39.5441
39.0729
38.6065
38.2229
37.8418
37.809
38.0222
37.9593
38.294
38.6696
39.1407
39.6247
40.1263
40.6228
41.11
41.5781
42.0212
42.4322
42.8048
43.1329
43.4106
43.634
43.8012
43.9137
43.978
44.0044
44.0054
43.9798
43.914
43.7984
43.6274
43.4003
43.1194
42.7892
42.4156
42.0049
41.5636
41.0987
40.6162
40.1256
39.6312
39.1564
38.6958
38.3354
38.0203
38.1151
38.2501
38.0296
38.2733
38.6112
39.0706
39.5566
40.065
40.5711
41.0683
41.5461
41.998
42.4167
42.7959
43.1297
43.4127
43.6412
43.8137
43.9317
44.0011
44.0307
44.031
44.0008
43.9291
43.8072
43.6304
43.3977
43.1112
42.7751
42.3948
41.9766
41.5267
41.0524
40.5601
40.0603
39.5592
39.0818
38.633
38.3101
38.0866
38.3401
38.3806
37.982
38.1123
38.3952
38.8329
39.319
39.8323
40.3474
40.8542
41.3417
41.8025
42.2291
42.6153
42.955
43.2433
43.4768
43.6542
43.7771
43.8505
43.8825
43.8822
43.8486
43.7717
43.6444
43.4621
43.224
42.9319
42.5897
42.2026
41.7765
41.318
40.8343
40.3328
39.8241
39.318
38.8397
38.4108
38.1397
38.0242
38.4462
38.3807
37.8009
37.8071
38.0225
38.4282
38.9077
39.4254
39.9478
40.4632
40.9596
41.4286
41.8627
42.2554
42.6008
42.8941
43.1321
43.3135
43.44
43.5167
43.5504
43.5495
43.5133
43.4325
43.3008
43.1139
42.8709
42.5737
42.2257
41.8322
41.3989
40.9326
40.4405
39.9305
39.4142
38.9024
38.429
38.0289
37.8191
37.8159
38.3984
38.1615
37.4462
37.3516
37.5042
37.876
38.3441
38.8625
39.3885
39.9095
40.4118
40.8869
41.3266
41.7241
42.0737
42.3705
42.6115
42.7956
42.9244
43.0027
43.0373
43.0362
42.9982
42.9152
42.7805
42.5904
42.344
42.0428
41.6905
41.2921
40.8535
40.3812
39.883
39.367
38.8458
38.3319
37.868
37.4979
37.3437
37.4282
38.1241
37.7
36.914
36.76
36.8676
37.2103
37.6639
38.1782
38.7065
39.2296
39.7345
40.2119
40.6538
41.053
41.4039
41.7017
41.9432
42.1274
42.2562
42.3342
42.3687
42.3673
42.3291
42.2457
42.1106
41.9198
41.6723
41.3699
41.016
40.6157
40.1747
39.6999
39.1987
38.68
38.1551
37.6434
37.1916
36.8473
36.7345
36.8761
37.6445
37.0959
36.2841
36.1055
36.1857
36.5068
36.945
37.451
37.9755
38.4951
38.9973
39.4721
39.9114
40.3081
40.6561
40.9509
41.1892
41.37
41.4953
41.5703
41.6031
41.6016
41.565
41.484
41.3515
41.1632
40.9181
40.6178
40.2659
39.8674
39.4282
38.9551
38.4557
37.9392
37.4165
36.9117
36.4738
36.1506
36.0658
36.2348
37.0348
36.4556
35.6548
35.478
35.5485
35.8571
36.2825
36.7779
37.2938
37.8055
38.3002
38.7676
39.1997
39.589
39.9297
40.2171
40.4478
40.6208
40.7385
40.8068
40.8357
40.8347
40.8024
40.728
40.6026
40.4215
40.1834
39.8901
39.5452
39.1536
38.7213
38.2551
37.7627
37.253
36.7375
36.241
35.8125
35.4968
35.414
35.5707
36.3427
36.0223
35.2306
35.056
35.1165
35.4107
35.8187
36.2966
36.7959
37.293
37.774
38.2283
38.6475
39.0243
39.3525
39.6275
39.8458
40.0063
40.1114
40.1684
40.1902
40.1899
40.1652
40.1014
39.9873
39.8173
39.5901
39.3076
38.9735
38.5929
38.1717
37.7168
37.2359
36.7387
36.2372
35.7562
35.3435
35.042
34.9709
35.1296
35.8993
35.8374
35.0655
34.9004
34.9606
35.2466
35.6412
36.1019
36.5823
37.062
37.5261
37.964
38.3668
38.7274
39.0397
39.2988
39.5013
39.6457
39.7343
39.7756
39.7872
39.7893
39.7776
39.7302
39.6325
39.4786
39.2675
39.0013
38.6841
38.3206
37.917
37.4802
37.0179
36.5396
36.0581
35.5943
35.1932
34.8932
34.8099
34.9354
35.6506
36.1441
35.375
35.2087
35.2519
35.5143
35.878
36.305
36.7527
37.2033
37.6404
38.0531
38.4322
38.7704
39.0615
39.3004
39.4834
39.6087
39.6777
39.699
39.6952
39.6987
39.7021
39.672
39.5908
39.453
39.2581
39.0088
38.7089
38.3636
37.9785
37.5606
37.1179
36.66
36.201
35.7568
35.3702
35.0786
34.9963
35.1162
35.8253
36.4759
35.8066
35.7056
35.779
36.0481
36.4004
36.8054
37.2285
37.6531
38.0639
38.4506
38.8044
39.1183
39.3865
39.6041
39.7674
39.8741
39.9251
39.9282
39.9095
39.9165
39.9362
39.9228
39.8583
39.7376
39.5613
39.332
39.0539
38.7318
38.3714
37.9791
37.5631
37.1326
36.7011
36.2828
35.9128
35.6219
35.5201
35.5886
36.2176
37.0426
36.4182
36.3465
36.4293
36.6927
37.0275
37.4121
37.8135
38.2156
38.6041
38.9686
39.3011
39.5947
39.844
40.0441
40.1914
40.2837
40.3214
40.3118
40.2823
40.2909
40.3205
40.3182
40.2655
40.1582
39.9972
39.7854
39.5265
39.2255
38.8879
38.5203
38.1303
37.7271
37.324
36.9349
36.5897
36.3097
36.199
36.2231
36.7626
37.6414
37.026
36.9402
36.9951
37.2263
37.5304
37.8883
38.2659
38.6467
39.0159
39.3631
39.68
39.9598
40.1969
40.3863
40.5246
40.6094
40.6412
40.6272
40.5952
40.6059
40.6403
40.6434
40.597
40.4971
40.3443
40.1414
39.8922
39.6013
39.2742
38.9174
38.5387
38.1474
37.7576
37.3843
37.0596
36.8051
36.7288
36.8034
37.4213
43.4833
51.3031
57.5314
63.6574
68.9459
73.2354
76.6725
79.4507
81.7255
83.6311
85.2868
86.7691
88.1155
89.3601
90.5339
91.6674
92.7911
93.9332
95.1172
96.3604
97.6723
99.0553
100.506
102.018
103.58
105.18
106.8
108.419
109.997
111.466
112.676
113.396
42.7653
50.302
56.3314
62.3177
67.5332
71.7884
75.2079
77.9783
80.2528
82.1644
83.8283
85.3146
86.653
87.8842
89.0402
90.1523
91.2524
92.3695
93.5279
94.7441
96.0272
97.3799
98.7992
100.277
101.805
103.368
104.952
106.533
108.072
109.505
110.684
111.386
41.9847
49.2717
55.1133
60.9592
66.1005
70.323
73.7301
76.5005
78.7854
80.7133
82.3917
83.883
85.2173
86.4371
87.5766
88.6692
89.7477
90.8414
91.9739
93.1629
94.4179
95.7411
97.1292
98.5749
100.068
101.595
103.142
104.685
106.187
107.583
108.732
109.415
41.1642
48.2177
53.8724
59.5751
64.643
68.8388
72.2416
75.0212
77.3255
79.2773
80.9743
82.4747
83.8113
85.0228
86.1496
87.2252
88.2832
89.3542
90.4636
91.6278
92.8558
94.1501
95.5077
96.921
98.38
99.8724
101.382
102.887
104.351
105.712
106.83
107.496
40.3136
47.1426
52.6082
58.1633
63.1575
67.3319
70.7394
73.5387
75.8732
77.857
79.5786
81.0925
82.434
83.6426
84.7592
85.8202
86.861
87.9127
88.9991
90.1383
91.3405
92.6076
93.9359
95.3183
96.7446
98.2026
99.6763
101.145
102.572
103.899
104.987
105.635
39.43
46.0391
51.3092
56.7104
61.6321
65.795
69.2203
72.0506
74.4221
76.4421
78.1912
79.7231
81.0771
82.2903
83.4022
84.4527
85.4783
86.511
87.5783
88.6967
89.8747
91.1152
92.4153
93.7672
95.161
96.5851
98.0232
99.4559
100.847
102.138
103.197
103.828
38.5196
44.9118
49.9798
55.219
60.0663
64.2229
67.6755
70.5476
72.9667
75.031
76.8153
78.3723
79.7412
80.9639
82.0767
83.121
84.1358
85.1554
86.2035
87.2996
88.4547
89.6709
90.944
92.2674
93.6307
95.0214
96.4255
97.8229
99.1779
100.436
101.466
102.08
37.5661
43.7399
48.5934
53.6581
58.4287
62.5914
66.0909
69.0204
71.4953
73.6094
75.4334
77.0202
78.4152
79.6546
80.7776
81.8213
82.8294
83.8355
84.8699
85.9503
87.085
88.277
89.5242
90.8187
92.1506
93.5091
94.8783
96.241
97.5608
98.7845
99.7864
100.383
36.5673
42.5246
47.1548
52.0324
56.7194
60.8902
64.445
67.4457
69.9936
72.1714
74.0471
75.6759
77.0988
78.3605
79.4964
80.5493
81.5565
82.559
83.5801
84.6414
85.7564
86.9273
88.1498
89.4176
90.7211
92.0474
93.3844
94.7115
95.9966
97.1875
98.1613
98.7416
35.5025
41.2342
45.623
50.2894
54.8801
59.0707
62.7109
65.8096
68.4428
70.6947
72.6319
74.3076
75.7753
77.0695
78.2307
79.2946
80.3083
81.3068
82.3214
83.3744
84.4737
85.6231
86.8217
88.0619
89.334
90.629
91.9297
93.2237
94.4722
95.6296
96.5751
97.1381
34.3247
39.8438
43.9869
48.4277
52.908
57.1127
60.8423
64.059
66.8147
69.1687
71.1861
72.9315
74.4451
75.7783
76.9654
78.0537
79.0787
80.0854
81.0954
82.1338
83.2172
84.3489
85.5247
86.7392
87.984
89.2463
90.5161
91.7726
92.9881
94.1123
95.0292
95.5774
33.0302
38.3355
42.2049
46.3762
50.7094
54.9308
58.7966
62.1813
65.0761
67.5509
69.6723
71.4916
73.0785
74.4665
75.7018
76.8151
77.8601
78.8707
79.883
80.9227
81.9961
83.1092
84.2631
85.451
86.6633
87.8945
89.1256
90.3505
91.5268
92.6179
93.506
94.0363
31.5176
36.626
40.215
44.0983
48.2619
52.4797
56.4673
60.0455
63.1671
65.826
68.082
70.0224
71.6851
73.1374
74.4128
75.5703
76.6416
77.6759
78.6938
79.7223
80.7842
81.8837
83.0171
84.1804
85.3671
86.5649
87.7666
88.9514
90.0964
91.1517
92.0111
92.5277
29.8155
34.7331
38.0108
41.5273
45.4258
49.6046
53.7934
57.6644
61.0189
63.8959
66.3469
68.4118
70.1977
71.7392
73.1009
74.3058
75.4162
76.4644
77.4947
78.5379
79.5969
80.6812
81.7949
82.9325
84.085
85.2501
86.4099
87.5641
88.6656
89.6872
90.516
91.0146
27.6374
32.3928
35.3502
38.4788
42.0977
46.2057
50.496
54.6692
58.4982
61.74
64.4389
66.7367
68.6572
70.3114
71.7325
73.0063
74.1614
75.2554
76.3064
77.3413
78.394
79.4696
80.5651
81.6787
82.806
83.9377
85.0688
86.1794
87.2503
88.2326
89.0313
89.5168
25.0593
29.7258
32.3832
35.0147
38.0796
41.9132
46.545
51.2483
55.4166
59.1092
62.2296
64.7553
66.9068
68.7123
70.2882
71.6475
72.8737
73.9958
75.0713
76.1405
77.2001
78.264
79.3419
80.4299
81.5206
82.6154
83.6983
84.7774
85.798
86.7442
87.5087
87.977
21.2267
25.9153
28.1881
30.2714
32.9742
36.7046
40.902
46.0442
51.5054
55.9632
59.5766
62.6335
65.0486
67.0739
68.7448
70.2166
71.5116
72.7104
73.8293
74.8927
75.9513
77.0134
78.0751
79.1389
80.203
81.2639
82.3197
83.3511
84.3388
85.2397
85.9727
86.427
16.2492
21.2836
23.8082
25.1898
26.0887
27.9679
34.4756
40.606
45.8674
51.6035
56.3476
59.8141
62.733
65.0503
67.0243
68.6464
70.0704
71.3224
72.4829
73.6095
74.6897
75.7428
76.7895
77.8261
78.8493
79.8646
80.8594
81.8553
82.7849
83.6431
84.3341
84.7746
7.26329
11.5246
12.3647
14.5366
15.6634
15.8726
16.4663
27.3552
39.1689
45.8773
51.5423
56.6499
60.1589
62.9613
65.0993
66.9394
68.4804
69.86
71.0998
72.223
73.3079
74.3692
75.4004
76.4119
77.4036
78.3846
79.358
80.299
81.1874
81.9911
82.6481
83.0717
8.31534
7.15274
6.30591
4.35369
16.2012
6.09476
18.0151
20.3806
17.6488
36.7591
46.6633
51.6811
56.5321
59.9933
62.8255
64.9411
66.7188
68.1995
69.5124
70.7472
71.8779
72.9327
73.952
74.931
75.8738
76.7916
77.6746
78.5751
79.3924
80.1392
80.7401
81.1586
12.4818
16.8284
18.069
18.0626
17.1163
12.8375
12.2121
4.39311
20.9168
16.6052
30.5072
45.9221
52.0872
56.8691
60.0094
62.6305
64.6556
66.3754
67.8331
69.0667
70.2102
71.287
72.2898
73.2417
74.1416
75.0254
75.9059
76.7324
77.4926
78.1669
78.7321
79.1275
19.8527
24.3306
26.2845
27.1866
26.9224
25.5272
22.8544
21.1537
16.5638
19.2246
24.3318
30.5736
45.2817
51.5887
56.5735
59.7436
62.2371
64.1448
65.7469
67.1917
68.4251
69.5007
70.4973
71.4025
72.2364
73.0194
73.7441
74.5317
75.1883
75.7755
76.2539
76.6617
22.1438
27.1404
29.8741
31.9123
33.1591
33.4705
32.5194
29.8384
24.6914
22.3337
28.5049
30.2485
32.7292
45.776
51.4363
56.0262
59.1111
61.5701
63.4594
64.8976
66.1629
67.2806
68.2554
69.1296
69.8936
70.645
71.4135
72.0736
72.652
73.1292
73.5713
73.951
22.8612
27.9622
30.9046
33.2811
35.0497
36.1821
36.6072
36.0954
34.0634
28.7596
27.9498
28.3414
33.7295
33.0312
45.3196
51.0851
55.3261
58.0882
60.2926
62.1917
63.6382
64.7634
65.746
66.539
67.1944
67.7597
68.233
68.8794
69.253
69.5622
69.8475
70.2838
22.2448
27.4851
30.5859
33.1884
35.2509
36.7608
37.7139
38.0916
37.7755
36.225
31.8875
25.9949
25.4671
33.8497
33.4494
43.9063
49.4429
53.8656
56.7308
58.5373
60.065
61.265
62.2031
62.9516
63.4601
64.0105
64.6281
65.0111
65.3133
65.4489
65.6781
66.0892
20.7894
26.157
29.3427
32.0689
34.3097
36.0634
37.3503
38.2055
38.6576
38.6332
37.6138
34.0208
25.5962
25.5265
27.961
33.1846
43.5406
47.5502
51.0191
54.0663
55.9868
57.1613
58.1584
58.7329
59.0118
59.1391
59.1603
59.6342
59.3616
59.1083
58.9095
59.6015
18.8449
24.2963
27.5014
30.2689
32.592
34.4861
35.9792
37.1261
38.0034
38.6672
39.0322
38.5252
35.1387
24.6929
15.6125
6.83706
25.3066
39.2924
45.104
47.0728
49.1567
50.5736
51.2722
51.7336
51.539
51.9249
52.1603
52.0188
52.3852
52.0962
51.3748
51.9575
16.6394
22.0643
25.1899
27.898
30.2098
32.1641
33.8047
35.1874
36.3945
37.5066
38.5398
39.308
39.1013
35.89
28.0676
18.9888
25.2651
26.488
31.1524
38.8067
42.581
43.0184
44.2351
44.2907
43.5261
41.8624
42.162
42.2764
38.9512
39.1046
34.5072
41.1032
14.4042
19.6717
22.6189
25.1704
27.3798
29.3086
31.0171
32.5693
34.0395
35.5061
37.0013
38.4364
39.4954
39.4179
36.0548
27.251
30.3473
31.8272
33.9735
28.8153
22.4736
27.5527
23.3435
23.457
14.3934
28.6977
17.2808
19.532
42.8416
42.7702
37.666
46.7071
12.4268
17.4176
20.1128
22.4374
24.4774
26.313
28.0151
29.6513
31.2878
32.9884
34.7975
36.6736
38.4289
39.645
39.4674
36.289
27.2408
33.4429
36.3558
37.1101
26.1069
33.438
25.2445
31.4081
15.5503
39.083
16.7914
14.6426
45.2015
41.4605
29.3773
38.1491
10.8904
15.5334
17.9599
20.0406
21.8898
23.6004
25.2468
26.8909
28.5861
30.3804
32.3188
34.4096
36.5673
38.529
39.7783
39.5545
35.8921
29.1034
28.8227
30.6869
30.0853
38.2854
26.9209
25.407
25.377
37.1407
30.5521
35.442
36.7268
32.7927
33.225
29.9203
9.7565
14.1539
16.352
18.2278
19.9173
21.5161
23.0914
24.691
26.3522
28.1106
30.007
32.0804
34.3328
36.6488
38.7018
39.9522
39.6791
36.8522
33.5656
31.0417
28.4453
38.1073
30.318
31.5849
36.5253
35.6163
36.8804
36.9718
38.802
37.1614
41.9475
41.4228
9.15173
13.3576
15.3955
17.1391
18.7326
20.2614
21.7758
23.3049
24.8711
26.502
28.2363
30.125
32.216
34.5081
36.8605
38.9096
40.1162
40.0358
39.3548
38.7737
36.8187
36.1851
39.127
40.0961
42.7695
41.8694
41.569
40.1573
43.3625
41.761
44.3035
44.3001
8.97545
13.0924
15.06
16.7562
18.3228
19.8288
21.3046
22.763
24.2159
25.686
27.2099
28.8374
30.6279
32.6343
34.8524
37.1274
39.0913
40.2826
40.8014
40.9393
40.2033
40.3786
41.8145
42.3439
43.6798
42.9227
42.3806
41.3958
43.8184
42.6094
44.3917
44.2069
9.15298
13.2602
15.2309
16.9487
18.5429
20.064
21.5253
22.9293
24.284
25.6093
26.9373
28.3102
29.7802
31.4086
33.2479
35.2876
37.3693
39.1605
40.4224
41.1481
41.1088
41.6417
42.3486
42.6316
43.2384
42.5984
42.0952
41.4168
42.9997
42.2182
43.3968