/*--------------------------------*- C++ -*----------------------------------*\
  =========                 |
  \\      /  F ield         | OpenFOAM: The Open Source CFD Toolbox
   \\    /   O peration     | Website:  https://openfoam.org
    \\  /    A nd           | Version:  6
     \\/     M anipulation  |
\*---------------------------------------------------------------------------*/
FoamFile
{
    version     2.0;
    format      ascii;
    class       volScalarField;
    location    "38";
    object      yPlus;
}
// * * * * * * * * * * * * * * * * * * * * * * * * * * * * * * * * * * * * * //

dimensions      [0 0 0 0 0 0 0];

internalField   uniform 0;

boundaryField
{
    inlet
    {
        type            calculated;
        value           uniform 0;
    }
    outlet
    {
        type            calculated;
        value           uniform 0;
    }
    roughCylinder
    {
        type            calculated;
        value           nonuniform List<scalar> 
5120
(
43.5186
51.3408
57.5713
63.6992
68.9889
73.2794
76.717
79.4953
81.7696
83.6747
85.3304
86.813
88.16
89.4053
90.5796
91.7137
92.838
93.9808
95.1656
96.4096
97.7223
99.1061
100.558
102.07
103.634
105.235
106.859
108.481
110.063
111.539
112.754
113.475
42.8171
50.3524
56.3822
62.3682
67.5829
71.8369
75.2551
78.0247
80.2989
82.2107
83.8749
85.3613
86.6996
87.9306
89.0868
90.1994
91.3001
92.4179
93.5771
94.794
96.0779
97.4316
98.8518
100.331
101.86
103.425
105.01
106.595
108.139
109.579
110.764
111.466
42.0202
49.3094
55.1533
61.0011
66.1439
70.3679
73.7761
76.5471
78.8317
80.759
82.4369
83.9283
85.2632
86.4839
87.624
88.7171
89.7962
90.8905
92.0237
93.2135
94.4695
95.7935
97.1826
98.629
100.123
101.653
103.201
104.748
106.254
107.659
108.814
109.497
41.2205
48.2729
53.9284
59.6311
64.698
68.8919
72.2923
75.0701
77.3737
79.3259
81.0236
82.524
83.8602
85.0714
86.1981
87.2741
88.3326
89.4043
90.5144
91.6792
92.9079
94.2032
95.5618
96.9764
98.4364
99.9302
101.442
102.951
104.421
105.79
106.915
107.579
40.3493
47.1805
52.648
58.2049
63.2006
67.3769
70.7865
73.5877
75.9225
77.9054
79.6259
81.1394
82.4815
83.691
84.8083
85.8697
86.9109
87.9632
89.0502
90.1904
91.3936
92.6614
93.9907
95.374
96.8019
98.2612
99.7373
101.21
102.642
103.978
105.073
105.72
39.4912
46.1
51.3718
56.7738
61.6948
65.8552
69.2765
72.103
74.4726
76.493
78.2431
79.7753
81.1287
82.3411
83.4525
84.5034
85.5296
86.5629
87.6308
88.7496
89.9283
91.1699
92.4709
93.8238
95.219
96.6446
98.084
99.5206
100.918
102.219
103.286
103.915
38.5565
44.9504
50.0197
55.2598
60.108
64.2667
67.723
70.5991
73.0203
75.0836
76.8658
78.4217
79.791
81.0144
82.1279
83.1722
84.1871
85.2073
86.256
87.3532
88.5094
89.7261
91.0001
92.3244
93.6887
95.0812
96.488
97.8888
99.2502
100.519
101.557
102.169
37.6327
43.8077
48.6648
53.7321
58.5033
62.6631
66.1564
69.0785
71.5486
73.6622
75.488
77.0754
78.4693
79.7073
80.8295
81.8738
82.8826
83.8893
84.9242
86.005
87.1401
88.3333
89.5814
90.8768
92.21
93.5699
94.9404
96.3069
97.6344
98.8693
99.8812
100.475
36.6071
42.5651
47.1953
52.072
56.7581
60.9303
64.4905
67.4991
70.0524
72.23
74.1021
75.7286
77.1518
78.4146
79.5511
80.6031
81.6096
82.6123
83.634
84.6965
85.8128
86.9841
88.2074
89.4761
90.7801
92.1086
93.4482
94.7787
96.0705
97.2756
98.2588
98.8356
35.5755
41.3104
45.7061
50.3791
54.9735
59.1621
62.7931
65.8781
68.5006
70.7494
72.6894
74.3666
75.8324
77.1238
78.2835
79.3484
80.3636
81.3629
82.3779
83.4312
84.5305
85.6812
86.8808
88.1217
89.3953
90.6909
91.9928
93.2902
94.5487
95.7206
96.6775
97.2354
34.3705
39.8886
44.0293
48.4653
52.9403
57.1438
60.8809
64.1122
66.8797
69.2356
71.2466
72.9871
74.5013
75.8368
77.0251
78.1116
79.1343
80.1406
81.1512
82.1907
83.2756
84.4077
85.584
86.7996
88.0442
89.3092
90.5816
91.8414
93.0636
94.2067
95.1354
95.6773
33.1119
38.4229
42.3041
46.49
50.8354
55.0592
58.9112
62.2695
65.1415
67.6082
69.7351
71.5582
73.1416
74.5235
75.7549
76.8693
77.9171
78.9292
79.942
80.982
82.0553
83.1697
84.3249
85.5129
86.7272
87.9573
89.1892
90.4179
91.6072
92.7159
93.6194
94.141
31.5736
36.6788
40.2612
44.1309
48.2775
52.4856
56.485
60.0939
63.2409
65.9057
68.1475
70.0773
71.7407
73.1985
74.4778
75.6339
76.7012
77.7339
78.7522
79.7815
80.845
81.945
83.0784
84.2431
85.4289
86.6293
87.8336
89.0214
90.1734
91.2555
92.1295
92.6357
29.9111
34.8364
38.1339
41.6826
45.6183
49.8175
53.9824
57.7939
61.0987
63.9557
66.4201
68.4945
70.2746
71.8043
73.1571
74.3604
75.4746
76.5255
77.5566
78.6005
79.6596
80.7448
81.8602
82.997
84.1516
85.315
86.4744
87.6316
88.7494
89.7954
90.6436
91.1285
27.7108
32.4607
35.4054
38.4997
42.0593
46.1195
50.4385
54.6963
58.5845
61.843
64.5095
66.7828
68.7035
70.3681
71.7983
73.0745
74.2258
75.3174
76.3684
77.4041
78.4579
79.5345
80.6291
81.7443
82.8703
84.0038
85.1361
86.2497
87.329
88.3491
89.1673
89.6353
25.1877
29.8588
32.5383
35.2378
38.442
42.4032
46.9613
51.4863
55.536
59.1748
62.32
64.8673
67.0089
68.7939
70.3537
71.706
72.9351
74.06
75.1369
76.207
77.2675
78.3315
79.412
80.4984
81.5904
82.683
83.765
84.8445
85.8856
86.8669
87.6569
88.1026
21.3
25.9846
28.2821
30.2922
32.6882
36.0633
40.5038
45.9882
51.5982
56.106
59.6619
62.6628
65.0724
67.1148
68.8024
70.2839
71.5782
72.777
73.8962
74.961
76.0201
77.0837
78.1435
79.2082
80.2709
81.3316
82.3837
83.4182
84.4207
85.375
86.1353
86.5604
16.7329
21.6899
23.8367
25.4566
27.2216
30.414
35.8643
41.2402
46.1788
51.7063
56.4387
59.9502
62.868
65.1557
67.1062
68.7145
70.1404
71.3924
72.5545
73.6809
74.7629
75.8157
76.8653
77.9005
78.9232
79.9367
80.9321
81.9217
82.8743
83.7884
84.5141
84.9153
6.11664
10.7939
11.9492
11.1013
11.0223
11.6463
14.327
26.6259
39.0386
46.0985
51.7972
56.7372
60.1472
62.9608
65.1294
66.9982
68.5429
69.93
71.1717
72.2996
73.3848
74.4477
75.4764
76.4859
77.4769
78.4529
79.41
80.3567
81.2722
82.1536
82.8505
83.2259
10.8733
11.5865
12.8918
12.9768
10.795
10.0653
17.2695
12.7361
19.9748
36.6519
46.1586
51.5053
56.6265
60.1171
62.9387
65.0207
66.8072
68.2832
69.5971
70.8267
71.9589
73.0134
74.0353
75.0142
75.9534
76.8709
77.7601
78.6373
79.483
80.3247
80.9765
81.3218
11.5809
16.2437
17.79
18.2752
15.484
10.1195
19.4301
3.44278
12.6404
18.3017
34.6422
47.4073
52.0905
56.733
59.9388
62.6774
64.7092
66.4453
67.9074
69.1548
70.3003
71.3793
72.3797
73.3235
74.2234
75.0918
75.9283
76.7729
77.5761
78.3737
78.9919
79.3074
19.2995
23.7487
25.6463
26.5218
26.3913
24.8694
21.873
21.6406
22.5838
19.8238
19.3063
25.3608
44.3578
51.5906
56.7936
59.8209
62.3522
64.26
65.8622
67.2875
68.5204
69.5948
70.592
71.4987
72.325
73.1123
73.851
74.5672
75.282
76.0345
76.6068
76.8676
22.0635
27.0306
29.727
31.7176
32.9181
33.1808
32.2049
29.6076
28.8327
23.4388
18.7832
17.3405
26.9765
44.5972
50.9296
56.1078
59.1821
61.6377
63.5294
65.0025
66.2727
67.3987
68.3713
69.2273
69.9908
70.7053
71.3697
72.0992
72.7204
73.4323
73.9214
74.1689
22.8534
27.9459
30.8747
33.2304
34.9681
36.0535
36.4071
35.7614
33.4083
29.0871
25.6624
27.3631
21.7716
33.088
46.4105
51.049
55.4556
58.2819
60.4814
62.3224
63.7661
64.8868
65.8631
66.656
67.3007
67.8792
68.3652
68.7915
69.3527
69.9549
70.4723
70.5643
22.367
27.5929
30.6837
33.2695
35.3055
36.7725
37.6528
37.8972
37.3199
35.2962
30.6678
33.8475
30.2859
19.6953
32.6617
45.1296
49.7979
53.9272
56.7823
58.6763
60.2011
61.4435
62.3757
63.09
63.5921
64.0727
64.4356
65.0805
65.3351
66.0033
66.1789
66.4329
20.9621
26.3281
29.5181
32.2454
34.4789
36.2118
37.4553
38.2261
38.5213
38.2419
36.8178
33.19
31.602
15.7925
2.41908
29.4561
43.3211
47.9286
51.3785
54.2528
56.194
57.3654
58.3234
58.8871
59.1661
59.3016
59.3241
58.9902
59.4934
59.6331
60.319
59.9644
19.0385
24.501
27.7208
30.5001
32.8282
34.7172
36.1901
37.2933
38.0878
38.6092
38.7593
37.9511
35.6478
28.0879
23.8115
19.6385
27.1365
39.0722
45.352
47.3533
49.2673
50.8843
51.6069
52.0254
51.7857
52.366
52.0963
52.8439
52.3894
53.1384
51.7853
53.6145
16.7962
22.2469
25.3959
28.1242
30.4494
32.4079
34.0404
35.3981
36.5554
37.5826
38.4803
39.05
38.6863
35.1605
33.1833
27.7829
28.0943
27.6296
31.34
38.7496
42.7178
43.6116
44.3681
44.6007
43.8486
41.8449
42.3438
38.3339
39.7866
37.4246
39.969
37.2469
14.5208
19.8162
22.7875
25.361
27.5876
29.5274
31.2385
32.7821
34.2287
35.6516
37.0746
38.3937
39.2644
38.6475
34.393
26.9039
32.6028
26.6159
31.7287
24.6264
23.5045
26.3639
25.8581
24.1129
17.4457
33.5691
44.7679
28.087
42.8836
24.8848
10.3446
36.9315
12.5062
17.5207
20.236
22.5803
24.638
26.4879
28.1998
29.8389
31.469
33.1509
34.9236
36.7319
38.3518
39.2541
38.285
34.4844
28.0977
23.2138
34.6781
16.5767
8.69007
29.3839
30.7285
17.6744
9.52477
34.5961
38.2761
25.8707
42.9048
29.0071
6.6089
41.2124
10.9505
15.6105
18.0516
20.1473
22.0114
23.7359
25.3943
27.047
28.7461
30.5372
32.4626
34.5227
36.6114
38.4139
39.352
38.9648
35.3031
30.1854
33.0508
21.874
22.5914
32.6374
20.0503
28.7222
25.1215
38.3062
24.6895
29.8891
33.9675
30.724
37.1129
28.4689
9.80471
14.2153
16.4238
18.3107
20.0118
21.6222
23.2088
24.8183
26.4874
28.2506
30.1473
32.2125
34.4399
36.6945
38.6232
39.7783
39.3974
37.9858
32.7948
31.177
27.9852
32.326
31.0856
31.478
36.1532
33.3664
39.3703
39.0347
38.7053
40.343
41.0768
37.0652
9.19749
13.4138
15.4593
17.2113
18.8137
20.3517
21.8752
23.4125
24.9859
26.6225
28.3608
30.2502
32.3357
34.6085
36.9176
38.9176
40.0302
40.2953
38.4463
38.3757
36.9632
36.3241
38.928
39.6523
42.7143
41.2121
44.3711
43.3938
43.1665
44.2356
43.0814
42.694
9.02421
13.1513
15.1254
16.8291
18.4036
19.9175
21.4004
22.8647
24.3224
25.7963
27.3233
28.9527
30.7434
32.746
34.9517
37.2062
39.1145
40.3592
40.4272
40.6716
40.1387
39.813
41.5522
42.0524
43.8037
43.2756
44.6118
43.7924
43.336
44.4489
42.7922
43.5521
9.21099
13.329
15.3067
17.0321
18.6342
20.1625
21.6297
23.0378
24.3949
25.7217
27.0506
28.4243
29.8953
31.5247
33.3644
35.4041
37.4704
39.2673
40.3548
41.0708
41.0352
40.9412
41.9476
42.3518
43.4419
43.1324
43.5379
42.9929
42.3304
43.3044
41.7297
42.8513
9.65866
13.82
15.8502
17.6439
19.3104
20.8821
22.3593
23.7386
25.0269
26.2444
27.4207
28.5907
29.7948
31.083
32.5134
34.1328
35.9173
37.7243
39.2432
40.3896
40.8469
41.029
41.5875
41.7717
42.2329
41.8129
41.7119
41.3225
40.5782
41.3159
40.1602
41.2454
10.3104
14.5446
16.6508
18.5331
20.2797
21.9076
23.4101
24.7827
26.0342
27.186
28.2647
29.2983
30.3149
31.3489
32.4456
33.6561
35.013
36.4895
37.9323
39.188
39.9371
40.3345
40.6482
40.621
40.6025
40.0154
39.6931
39.3801
38.6819
39.1872
38.5164
39.4933
11.1115
15.4462
17.6408
19.618
21.446
23.1313
24.6643
26.0431
27.2809
28.4014
29.4298
30.3879
31.2934
32.166
33.0342
33.937
34.9139
35.9843
37.1
38.1636
38.93
39.3794
39.5514
39.3743
39.0443
38.3596
37.9555
37.6878
37.1479
37.5046
37.2727
38.1294
11.9698
16.4752
18.7666
20.8382
22.7437
24.4834
26.0481
27.4412
28.6813
29.795
30.8065
31.7335
32.5861
33.3728
34.1081
34.8143
35.5219
36.2568
37.0174
37.7633
38.3477
38.6945
38.7354
38.4471
37.9459
37.2327
36.8055
36.5778
36.2391
36.5484
36.647
37.4094
12.9714
17.5993
19.9853
22.1479
24.1264
25.9171
27.5141
28.9269
30.18
31.3032
32.3197
33.244
34.0811
34.8329
35.5042
36.1042
36.6491
37.1574
37.6394
38.0847
38.4195
38.5758
38.467
38.078
37.4846
36.776
36.3456
36.1572
36.0119
36.3412
36.6691
37.3621
13.581
13.9952
14.4764
14.8632
15.2392
15.539
15.8018
16.0066
16.1721
16.2902
16.3722
16.4157
16.4246
16.4007
16.3479
16.2683
16.1646
16.0426
15.9155
15.8213
15.8637
15.9984
16.1472
16.285
16.4024
16.4943
16.5591
16.594
16.5945
16.5598
16.4855
16.3733
16.2116
16.0087
15.7451
15.4412
15.0582
14.6599
14.1646
13.7314
18.3215
18.7513
19.2519
19.6562
20.0496
20.3702
20.6553
20.8845
21.0755
21.221
21.3309
21.4035
21.4411
21.4442
21.4151
21.3553
21.2661
21.152
21.0258
20.9293
20.9774
21.12
21.2699
21.4011
21.5051
21.5783
21.62
21.6281
21.6001
21.5364
21.4339
21.2937
21.1058
20.8777
20.591
20.2654
19.8639
19.4474
18.9321
18.4826
20.7703
21.2251
21.7554
22.185
22.6068
22.9578
23.2775
23.5442
23.7759
23.9652
24.1203
24.2401
24.3257
24.3759
24.3911
24.3719
24.3186
24.2342
24.1305
24.0475
24.0953
24.226
24.3553
24.4587
24.5285
24.5628
24.5614
24.5234
24.4487
24.3388
24.1916
24.0081
23.7799
23.5143
23.1931
22.8369
22.407
21.9648
21.4195
20.9443
22.9771
23.4508
24.0039
24.4532
24.8993
25.2777
25.6295
25.9322
26.2036
26.4363
26.6364
26.8029
26.9365
27.0343
27.0952
27.1183
27.1031
27.0524
26.9776
26.9174
26.9602
27.07
27.1731
27.2451
27.2785
27.2721
27.2265
27.1424
27.0212
26.8658
26.6743
26.4482
26.181
25.88
25.5269
25.1435
24.6893
24.2277
23.6598
23.1655
24.9816
25.4593
26.0201
26.4757
26.9337
27.3274
27.6994
28.0269
28.3268
28.5929
28.8297
29.0347
29.2075
29.3448
29.444
29.5031
29.5211
29.5005
29.4532
29.4154
29.4526
29.5406
29.6187
29.6625
29.6642
29.6233
29.5405
29.4182
29.2589
29.0661
28.839
28.5808
28.2858
27.9606
27.5876
27.1892
26.7234
26.2556
25.6803
25.1821
26.784
27.2494
27.8037
28.2536
28.7119
29.111
29.4938
29.839
30.1621
30.4554
30.7229
30.9603
31.1667
31.3375
31.4694
31.5594
31.6059
31.6111
31.5869
31.5664
31.5999
31.6697
31.7261
31.7453
31.7198
31.6488
31.5342
31.3793
31.1873
30.9626
30.7057
30.4209
30.1035
29.7615
29.378
28.9748
28.5089
28.047
27.4781
26.9922
28.3846
28.8262
29.3662
29.8047
30.2588
30.6609
31.0545
31.4164
31.7609
32.0796
32.3748
32.6419
32.8781
33.0787
33.2393
33.3562
33.427
33.4537
33.4477
33.4393
33.4704
33.527
33.5658
33.5643
33.515
33.4176
33.2747
33.0905
32.869
32.6151
32.3309
32.0213
31.683
31.3246
30.931
30.5257
30.064
29.6134
29.0583
28.5958
29.7989
30.2127
30.738
31.1665
31.6193
32.0283
32.434
32.8135
33.1788
33.5214
33.8423
34.1361
34.3993
34.6262
34.8119
34.9517
35.0428
35.0867
35.0939
35.0934
35.1233
35.1711
35.1967
35.1781
35.1087
34.9886
34.8208
34.6105
34.3623
34.0818
33.7722
33.4386
33.0798
32.7039
32.2986
31.8863
31.4263
30.9858
30.4447
30.0093
31.0559
31.4435
31.9579
32.3817
32.8375
33.2557
33.6741
34.0708
34.4557
34.8201
35.1638
35.4811
35.7676
36.0171
36.2239
36.3827
36.4901
36.5469
36.5635
36.5678
36.5971
36.6396
36.6554
36.6237
36.538
36.3987
36.2099
35.977
35.7055
35.4017
35.0692
34.7139
34.3356
33.9426
33.5242
33.1027
32.6396
32.204
31.673
31.263
32.1862
32.5506
33.0586
33.4814
33.9414
34.3689
34.7995
35.2117
35.6135
35.9966
36.3598
36.697
37.0028
37.271
37.4949
37.6688
37.7888
37.8552
37.8778
37.8847
37.9139
37.9533
37.9626
37.921
37.8223
37.6678
37.4617
37.2102
36.9192
36.5954
36.2435
35.8694
35.4739
35.0654
34.6349
34.2038
33.7361
33.3009
32.7764
32.3884
33.212
33.5545
34.0577
34.4798
34.9438
35.3796
35.8207
36.2458
36.662
37.0607
37.4399
37.7931
38.1147
38.3975
38.6348
38.8204
38.9499
39.0233
39.0501
39.0585
39.0876
39.1252
39.1298
39.0807
38.9723
38.8058
38.5861
38.3195
38.0128
37.6727
37.3046
36.9149
36.505
36.0833
35.6422
35.2026
34.7305
34.2954
33.7747
33.4072
34.1435
34.4632
34.9603
35.3812
35.8481
36.2908
36.7405
37.1765
37.6044
38.0157
38.4079
38.7739
39.1079
39.4022
39.65
39.8447
39.9816
40.0608
40.0915
40.1016
40.1304
40.1659
40.1662
40.111
39.9947
39.8187
39.5882
39.3099
38.9905
38.6373
38.2563
37.8537
37.4319
36.9992
36.5492
36.1025
35.627
35.1928
34.6769
34.3309
34.9827
35.277
35.766
36.1844
36.6531
37.1014
37.5583
38.0034
38.441
38.8628
39.2653
39.6416
39.9853
40.2888
40.5448
40.7469
40.8903
40.9751
41.0107
41.024
41.0521
41.0835
41.0787
41.0176
40.8944
40.7108
40.4717
40.1839
39.8545
39.4909
39.0991
38.6861
38.2543
37.8124
37.3549
36.9023
36.4245
35.9919
35.483
35.1609
35.7291
35.9929
36.471
36.8857
37.3554
37.8086
38.2719
38.725
39.1711
39.6016
40.0128
40.3974
40.7487
41.0594
41.3221
41.5304
41.6799
41.7708
41.8129
41.8311
41.8579
41.8833
41.8718
41.8044
41.675
41.4849
41.2388
40.9435
40.606
40.2339
39.8333
39.4112
38.9707
38.5206
38.0565
37.5986
37.1193
36.6895
36.1898
35.8958
36.3822
36.6087
37.0717
37.4811
37.9509
38.4088
38.8783
39.339
39.7928
40.2311
40.6497
41.0412
41.3991
41.7157
41.9839
42.1978
42.3533
42.4514
42.5013
42.5255
42.5507
42.5686
42.5492
42.4747
42.3391
42.1431
41.8911
41.5895
41.2453
40.8657
40.4574
40.0272
39.5788
39.1207
38.65
38.1871
37.7067
37.281
36.7943
36.5349
36.9454
37.1223
37.5636
37.9653
38.4342
38.8966
39.3725
39.8408
40.3024
40.7482
41.1737
41.5715
41.935
42.2567
42.53
42.7492
42.9109
43.0163
43.0747
43.105
43.1285
43.1385
43.1105
43.0286
42.8867
42.6851
42.4276
42.1204
41.7701
41.384
40.9683
40.5303
40.0738
39.6078
39.1302
38.662
38.1811
37.761
37.2916
37.078
37.4219
37.5302
37.9411
38.3311
38.7977
39.2644
39.7468
40.2232
40.6928
41.1463
41.5786
41.9826
42.3513
42.6778
42.9558
43.1801
43.3479
43.4609
43.5273
43.5632
43.585
43.5877
43.5511
43.4617
43.3135
43.1064
42.8438
42.5313
42.1751
41.7824
41.3594
40.9133
40.4484
39.9738
39.4891
39.0155
38.5349
38.1231
37.6797
37.5304
37.821
37.832
38.1965
38.5697
39.0309
39.5012
39.9902
40.4752
40.9533
41.4149
41.8544
42.2645
42.6386
42.9699
43.2526
43.4819
43.6555
43.7754
43.849
43.8895
43.91
43.9062
43.8617
43.765
43.6107
43.3981
43.1304
42.8124
42.4503
42.0507
41.6202
41.1653
40.6915
40.2075
39.7153
39.2361
38.7581
38.358
37.9558
37.8983
38.1488
38.0279
38.3228
38.6698
39.1215
39.5939
40.0889
40.5827
41.0698
41.5402
41.9873
42.404
42.7838
43.1201
43.4074
43.6415
43.8207
43.9468
44.0264
44.0705
44.0898
44.0806
44.0291
43.9258
43.7653
43.5472
43.2741
42.9504
42.582
42.1751
41.7362
41.272
40.7884
40.2946
39.7943
39.3103
38.8356
38.4573
38.1197
38.1884
38.399
38.1148
38.3143
38.6203
39.0576
39.529
40.0291
40.5312
41.0275
41.5068
41.962
42.3857
42.7714
43.113
43.4051
43.644
43.8282
43.9596
44.0442
44.0912
44.1095
44.0957
44.0382
43.9287
43.7624
43.5387
43.2598
42.93
42.5546
42.1398
41.6918
41.2178
40.7238
40.2197
39.7116
39.2228
38.7587
38.4176
38.1714
38.4005
38.5291
38.0739
38.1619
38.4127
38.8269
39.2963
39.7996
40.3094
40.8141
41.3021
41.7654
42.1963
42.5882
42.935
43.2319
43.4752
43.6639
43.7996
43.888
43.9371
43.9546
43.9371
43.8746
43.7596
43.5878
43.3585
43.0737
42.7373
42.3546
41.9314
41.4743
40.9901
40.4859
39.9719
39.4568
38.9664
38.5224
38.2345
38.0995
38.5032
38.4974
37.8843
37.8601
38.0486
38.4327
38.8951
39.4001
39.9153
40.427
40.9225
41.3928
41.83
42.2273
42.5789
42.8798
43.1268
43.319
43.458
43.5491
43.5996
43.6164
43.5961
43.5295
43.4099
43.2332
42.9987
42.7082
42.3656
41.9757
41.5447
41.0785
40.5849
40.071
39.5481
39.0257
38.5395
38.1252
37.9014
37.8837
38.4552
38.2255
37.5061
37.399
37.5344
37.8889
38.3409
38.8462
39.3641
39.8801
40.3802
40.8552
41.2967
41.6977
42.0523
42.3557
42.6048
42.7988
42.9395
43.0317
43.0829
43.0991
43.077
43.0078
42.885
42.7048
42.4664
42.1714
41.8238
41.4282
40.9907
40.5175
40.0161
39.4942
38.9631
38.4372
37.9605
37.5777
37.4138
37.4933
38.1936
37.6992
36.9381
36.7928
36.8977
37.2317
37.6739
38.1768
38.6951
39.212
39.7132
40.1892
40.6314
41.0328
41.3874
41.6905
41.9391
42.1321
42.2718
42.3634
42.4142
42.4301
42.4078
42.3382
42.2145
42.033
41.7929
41.496
41.1459
40.7474
40.3064
39.8294
39.3236
38.7972
38.2603
37.7348
37.2693
36.9131
36.7936
36.935
37.7135
37.0012
36.251
36.1076
36.2043
36.5291
36.9633
37.4616
37.9777
38.4916
38.9898
39.4624
39.9011
40.2989
40.6495
40.9484
41.1925
41.3812
41.5167
41.6048
41.654
41.6705
41.65
41.5828
41.4617
41.2825
41.0444
40.7492
40.4007
40.0035
39.5636
39.0873
38.5817
38.0551
37.5183
36.9971
36.5416
36.2011
36.103
36.2663
37.073
36.2511
35.5538
35.4415
35.5509
35.8781
36.3096
36.8034
37.3146
37.8223
38.3135
38.7787
39.2094
39.5988
39.9409
40.231
40.4662
40.6457
40.7726
40.8536
40.8995
40.9174
40.9018
40.8412
40.7267
40.554
40.3222
40.0333
39.691
39.3
38.866
38.3956
37.8953
37.3735
36.8426
36.3289
35.882
35.548
35.4512
35.6028
36.3873
35.7913
35.1132
35.011
35.1182
35.4373
35.8568
36.3372
36.8346
37.3295
37.8082
38.2606
38.6786
39.0551
39.3841
39.661
39.8826
40.0485
40.1619
40.2316
40.2721
40.2931
40.2866
40.2369
40.1335
39.9717
39.7509
39.4731
39.1421
38.7628
38.341
37.883
37.396
36.8886
36.3732
35.8756
35.4446
35.1239
35.0366
35.1866
35.9653
35.5453
34.9149
34.8465
34.9711
35.2944
35.7083
36.1762
36.6573
37.1354
37.5967
38.0314
38.4312
38.7894
39.1001
39.3586
39.5618
39.709
39.8034
39.8558
39.8871
39.9126
39.9188
39.8835
39.7942
39.6464
39.4399
39.177
38.8616
38.4989
38.0944
37.6549
37.1876
36.7018
36.209
35.7325
35.3195
35.0101
34.9247
35.0615
35.8147
35.7374
35.1278
35.0689
35.1919
35.5046
35.9008
36.347
36.8062
37.263
37.7032
38.1169
38.4959
38.8334
39.124
39.3626
39.5462
39.6735
39.7475
39.7801
39.8003
39.8335
39.8556
39.8364
39.7627
39.6305
39.4406
39.1956
38.8996
38.5577
38.1755
37.7594
37.3168
36.8565
36.3908
35.9366
35.5359
35.2225
35.1092
35.1817
35.8262
36.3277
35.7435
35.6917
35.8007
36.0889
36.4519
36.8622
37.2878
37.7125
38.1221
38.5066
38.8577
39.1689
39.4343
39.6495
39.8109
39.9168
39.9694
39.9805
39.9854
40.0229
40.0563
40.0481
39.9854
39.8654
39.689
39.4592
39.1799
38.8563
38.4936
38.0979
37.6771
37.2392
36.7973
36.3635
35.9762
35.6663
35.5428
35.5908
36.197
37.1761
36.5594
36.4757
36.5422
36.7875
37.1069
37.4797
37.8713
38.2651
38.6461
39.004
39.3304
39.6185
39.8626
40.0582
40.2016
40.2911
40.3284
40.3249
40.3201
40.3609
40.4013
40.4005
40.3462
40.2361
40.0716
39.8555
39.592
39.2859
38.9423
38.5676
38.1691
37.7552
37.3383
36.9305
36.5642
36.2627
36.1312
36.1405
36.6709
37.5742
37.0061
36.9505
37.0265
37.2699
37.5805
37.9403
38.3167
38.6942
39.0583
39.3996
39.7097
39.9822
40.2118
40.3936
40.5246
40.6028
40.6297
40.6166
40.6036
40.6417
40.6822
40.6828
40.6313
40.5253
40.3661
40.1569
39.9015
39.6047
39.272
38.9099
38.5259
38.1293
37.7334
37.3522
37.0167
36.7493
36.6583
36.7123
37.3039
43.4827
51.3026
57.5312
63.6577
68.9467
73.2366
76.674
79.4524
81.7271
83.6326
85.2882
86.7705
88.1168
89.3613
90.535
91.6683
92.7918
93.9337
95.1176
96.3607
97.6725
99.0555
100.506
102.019
103.581
105.182
106.806
108.428
110.011
111.485
112.7
113.418
42.7654
50.3017
56.3315
62.3181
67.534
71.7894
75.2089
77.9795
80.2541
82.1657
83.8296
85.3157
86.654
87.8851
89.041
90.153
91.2529
92.3699
93.528
94.7439
96.0269
97.3797
98.7992
100.278
101.806
103.371
104.956
106.54
108.087
109.524
110.709
111.408
41.9824
49.2694
55.1113
60.9578
66.0998
70.3232
73.7309
76.5018
78.7867
80.7144
82.3926
83.884
85.2183
86.4381
87.5773
88.6697
89.7478
90.8413
91.9736
93.1625
94.4174
95.7405
97.1287
98.5744
100.069
101.598
103.146
104.692
106.2
107.602
108.757
109.438
41.1641
48.2171
53.8721
59.5754
64.6437
68.8396
72.2421
75.0215
77.3258
79.2779
80.9751
82.4753
83.8115
85.0229
86.1497
87.2253
88.2832
89.354
90.4631
91.627
92.8547
94.149
95.5066
96.9201
98.3796
99.8728
101.385
102.894
104.365
105.731
106.856
107.519
40.3088
47.1377
52.6034
58.159
63.1541
67.3297
70.7384
73.5391
75.874
77.8575
79.5786
81.0926
82.4346
83.6434
84.7596
85.82
86.8604
87.9118
88.9979
90.137
91.3391
92.606
93.9343
95.3169
96.7442
98.2035
99.679
101.152
102.586
103.918
105.014
105.657
39.4292
46.0379
51.3084
56.7103
61.6328
65.7959
69.2206
72.0502
74.4214
76.442
78.1919
79.7235
81.0765
82.2891
83.4011
84.452
85.4777
86.5102
87.5772
88.695
89.8726
91.1131
92.4131
93.7653
95.1591
96.5842
98.0255
99.4611
100.861
102.158
103.226
103.851
38.5116
44.9035
49.971
55.2104
60.0585
64.2167
67.6715
70.5457
72.9661
75.03
76.8131
78.3702
79.7407
80.9645
82.0768
83.1201
84.1342
85.1534
86.2013
87.2973
88.4524
89.668
90.9411
92.2646
93.6289
95.0214
96.4268
97.8285
99.192
100.457
101.496
102.103
37.5634
43.7369
48.591
53.6569
58.4289
62.5922
66.0913
69.0196
71.4941
73.6095
75.4355
77.0221
78.4146
79.6517
80.7746
81.8195
82.8281
83.8339
84.8679
85.9476
87.0815
88.2736
89.5205
90.8149
92.147
93.5065
94.8796
96.244
97.5748
98.8059
99.8172
100.406
36.5557
42.5119
47.141
52.0182
56.7057
60.8782
64.436
67.44
69.9896
72.1662
74.0393
75.6683
77.0948
78.3604
79.4966
80.5475
81.5534
82.5555
83.5764
84.6378
85.7528
86.923
88.1452
89.4129
90.7171
92.0452
93.3831
94.7162
96.0105
97.2105
98.1943
98.7654
35.4959
41.2274
45.6172
50.2855
54.8787
59.071
62.7111
65.8086
68.4421
70.6972
72.6389
74.3152
75.778
77.0656
78.225
79.2909
80.3059
81.3044
82.3185
83.3704
84.4686
85.6179
86.816
88.0558
89.3282
90.6238
91.9292
93.2232
94.4869
95.6537
96.6096
97.1626
34.3088
39.8259
43.9666
48.4054
52.885
57.0914
60.8252
64.047
66.8047
69.1557
71.1674
72.9117
74.4314
75.7744
76.9654
78.0512
79.0738
80.0796
81.0896
82.1283
83.2119
84.3426
85.5178
86.7321
87.9767
89.2407
90.5114
91.7751
93.002
94.1383
95.0674
95.6019
33.0166
38.3221
42.1931
46.368
50.706
54.9315
58.7984
62.181
65.0765
67.5574
69.6892
71.5118
73.0917
74.4661
75.6934
76.8082
77.8559
78.8671
79.8788
80.9168
81.9887
83.1015
84.2548
85.4417
86.655
87.8858
89.1222
90.3463
91.5423
92.6448
93.5457
94.062
31.496
36.6014
40.1856
44.063
48.222
52.4389
56.4316
60.0197
63.1467
65.803
68.0458
69.9814
71.6518
73.1213
74.4097
75.5673
76.6346
77.667
78.6847
79.7142
80.7763
81.8747
83.0069
84.1698
85.3552
86.5546
87.7576
88.9506
90.1106
91.1827
92.0562
92.5538
29.7895
34.7081
37.9885
41.5122
45.4217
49.6116
53.806
57.6724
61.0237
63.903
66.3767
68.452
70.2309
71.752
73.0941
74.2945
75.4088
76.4589
77.489
78.5294
79.5866
80.67
81.7829
82.9187
84.0726
85.2376
86.4013
87.5544
88.6819
89.7192
90.564
91.0407
27.6089
32.3605
35.3094
38.4251
42.0296
46.1271
50.4139
54.6041
58.4532
61.7131
64.3825
66.6648
68.5929
70.2699
71.7177
73.0012
74.1518
75.2425
76.2923
77.3296
78.3823
79.457
80.5505
81.663
82.7881
83.9209
85.0548
86.1713
87.2642
88.2704
89.0865
89.5447
25.0011
29.6703
32.3319
34.9694
38.0469
41.9067
46.5856
51.2977
55.4446
59.0914
62.264
64.8226
66.9696
68.7506
70.2911
71.6317
72.8615
73.9867
75.0635
76.1286
77.1861
78.2482
79.3248
80.4099
81.502
82.5963
83.6807
84.7609
85.8162
86.7848
87.5694
88.0047
21.2038
25.8944
28.1659
30.2734
33.0064
36.7014
40.7721
45.8444
51.376
55.9806
59.5208
62.5217
64.9386
66.9908
68.7068
70.2072
71.4978
72.6927
73.8088
74.8756
75.9342
76.9956
78.0543
79.1158
80.177
81.2388
82.2992
83.3298
84.352
85.2871
86.0431
86.4566
15.9466
21.0402
23.5579
24.8268
25.5228
27.5721
34.3364
40.9155
46.036
51.4236
56.314
59.9032
62.8409
65.1307
67.0446
68.6211
70.0502
71.3067
72.4706
73.5929
74.6712
75.721
76.765
77.7972
78.821
79.8354
80.8281
81.8292
82.8069
83.7005
84.4146
84.8042
7.04941
11.4884
12.5443
14.496
14.682
12.7561
16.6134
25.5972
38.6426
46.2198
51.6519
56.5293
59.9801
62.8085
65.0224
66.9299
68.4612
69.8356
71.0714
72.1979
73.282
74.3435
75.3706
76.3768
77.3664
78.3476
79.3241
80.2536
81.1984
82.0498
82.7425
83.1024
9.22175
5.14132
4.542
7.8015
10.7625
12.5549
8.02434
13.4107
18.6162
35.4332
45.8945
51.6444
56.7095
60.1494
62.8816
64.8847
66.6797
68.1712
69.491
70.7236
71.854
72.9031
73.9166
74.8888
75.8296
76.748
77.6282
78.5329
79.4233
80.2303
80.8526
81.1905
11.8254
16.1415
17.2047
17.0024
16.4489
13.8668
12.7639
13.4132
14.4173
19.6482
33.6839
46.3533
51.8648
56.6184
59.8367
62.6338
64.6333
66.3404
67.7934
69.0297
70.1695
71.2491
72.2469
73.1862
74.0887
74.9688
75.8371
76.6435
77.504
78.2413
78.8667
79.1606
20.1423
24.5867
26.4838
27.2468
26.7942
25.1756
22.2429
16.5714
21.1981
26.7306
21.0283
30.0942
45.3332
51.7646
56.7653
59.6044
62.1425
64.0886
65.7082
67.155
68.3939
69.4617
70.4439
71.3376
72.164
72.9562
73.6868
74.4533
75.229
75.9334
76.426
76.6925
22.2185
27.213
29.9447
31.978
33.2095
33.4957
32.5763
30.1007
24.9579
22.3436
16.5769
20.7976
33.6969
45.9517
50.8801
56.0361
59.0985
61.5198
63.3983
64.843
66.0962
67.2232
68.192
69.0358
69.8194
70.5554
71.2594
71.9041
72.6979
73.2305
73.7773
73.9961
22.9602
28.0531
30.9936
33.3704
35.1445
36.2925
36.7499
36.2913
34.2761
29.2908
25.919
22.8416
13.6215
32.0704
46.6712
50.7782
55.042
57.9507
60.2174
62.1259
63.5925
64.7179
65.6625
66.4278
67.065
67.6667
68.1709
68.693
69.2791
69.8529
70.1544
70.2925
22.336
27.569
30.6693
33.274
35.3424
36.8658
37.8472
38.2793
38.062
36.7175
32.7389
28.4505
14.8798
20.5559
29.0554
43.9443
49.5999
53.8276
56.6108
58.4567
59.9477
61.1763
62.1055
62.7805
63.3706
63.8785
64.2853
64.674
65.5577
65.5654
66.0281
66.1757
20.8517
26.217
29.4057
32.1379
34.3879
36.1561
37.4673
38.365
38.8965
39.0518
38.5159
36.2668
29.4536
27.1664
21.2475
28.7531
41.524
46.8835
50.8312
53.9188
55.8825
57.1553
58.0342
58.5126
58.751
58.9839
59.1507
59.0471
59.2392
59.6263
59.6925
59.4311
18.8736
24.3255
27.533
30.3041
32.6318
34.5321
36.0342
37.196
38.0979
38.8017
39.2321
38.8627
35.8606
32.5995
31.2373
31.1891
31.2693
40.2314
44.3725
46.8833
49.0191
50.3169
51.1182
51.5848
51.5782
51.8863
51.8665
51.3346
53.6301
51.5708
52.2429
52.1277
16.6334
22.0572
25.1818
27.8893
30.2
32.1526
33.79
35.1679
36.3686
37.469
38.4617
39.0653
38.2441
33.576
27.3366
32.9007
12.1503
19.1278
31.7234
39.147
41.4631
43.5602
44.2795
43.6234
43.0281
41.8227
42.6836
39.3034
40.1798
38.6322
41.485
37.1395
14.3952
19.6538
22.5944
25.1397
27.3428
29.2641
30.9623
32.5001
33.9519
35.3923
36.8354
38.1398
38.8266
37.6993
32.5383
28.2923
14.8278
26.8973
27.0945
14.991
27.5202
25.5776
23.8647
28.9575
20.599
26.787
45.5153
16.2147
26.5343
33.0484
44.9573
16.8122
12.432
17.4112
20.0978
22.4143
24.4459
26.2715
27.9605
29.5789
31.1914
32.8606
34.6179
36.3909
37.9202
38.6608
37.6943
33.8832
26.1363
26.842
6.66375
19.3219
34.5787
15.5077
20.9279
34.5539
17.8852
31.1079
44.8777
15.6767
38.7547
41.5256
38.0694
26.2132
10.913
15.547
17.967
20.0414
21.8836
23.5855
25.2205
26.8495
28.5246
30.2914
32.188
34.2066
36.2292
37.9397
38.8231
38.3242
36.2038
31.0837
25.2935
26.1811
32.3012
27.6059
24.7121
36.4027
30.1818
35.8046
37.9332
34.4646
40.1276
40.2938
28.56
32.1079
9.78964
14.1842
16.3795
18.2519
19.9371
21.5299
23.0974
24.6869
26.3349
28.0743
29.9419
31.9693
34.1462
36.3381
38.2083
39.304
39.4766
37.1184
34.6771
30.4555
26.9988
34.8136
29.8765
28.5521
34.2653
35.5709
36.7283
39.7431
33.7945
39.5298
40.1919
40.8012
9.19095
13.3987
15.4367
17.1792
18.7704
20.2959
21.8064
23.3308
24.8907
26.5114
28.2292
30.0915
32.1406
34.3696
36.6406
38.6167
39.9078
39.7527
39.2665
37.8145
36.2817
36.1647
38.0673
38.0763
40.4219
41.364
42.3212
43.3191
39.1306
44.1103
43.6614
43.5996
9.01571
13.1378
15.1072
16.8037
18.3695
19.8744
21.3495
22.8076
24.2597
25.7277
27.2464
28.8638
30.6368
32.616
34.7991
37.0453
39.0243
40.1238
40.6434
40.4439
39.8093
39.7292
41.0718
41.3292
42.0082
42.4625
42.9285
43.2167
41.5123
44.105
43.73
43.6649
9.19149
13.3053
15.2783
16.9967
18.5907
20.1122
21.5751
22.9822
24.3405
25.6693
26.9999
28.3736
29.8423
31.4672
33.3036
35.3486
37.4578
39.2302
40.4995
41.0749
40.9478
41.1373
41.8868
42.0426
42.149
41.9858
42.0265
42.1684
41.5361
42.7254
42.7627
42.7186