/*--------------------------------*- C++ -*----------------------------------*\
  =========                 |
  \\      /  F ield         | OpenFOAM: The Open Source CFD Toolbox
   \\    /   O peration     | Website:  https://openfoam.org
    \\  /    A nd           | Version:  6
     \\/     M anipulation  |
\*---------------------------------------------------------------------------*/
FoamFile
{
    version     2.0;
    format      ascii;
    class       volScalarField;
    location    "20";
    object      p;
}
// * * * * * * * * * * * * * * * * * * * * * * * * * * * * * * * * * * * * * //

dimensions      [0 2 -2 0 0 0 0];

internalField   nonuniform List<scalar> 
3240
(
-6.21367e-19
3.63405e-08
8.00611e-08
-9.09362e-11
3.61096e-08
8.02728e-08
-1.69064e-10
3.62133e-08
8.02231e-08
-2.81443e-10
3.61211e-08
8.03994e-08
-4.74909e-10
3.62458e-08
8.04443e-08
-6.93304e-10
3.63988e-08
8.04962e-08
-9.77158e-10
3.68145e-08
8.03206e-08
-1.2477e-09
3.73466e-08
8.00304e-08
-1.47796e-09
3.72809e-08
8.03205e-08
-1.70961e-09
3.72088e-08
8.06157e-08
-1.80481e-09
3.70652e-08
8.08513e-08
-1.93639e-09
3.68906e-08
8.11452e-08
-1.99909e-09
3.66663e-08
8.14233e-08
-1.98593e-09
3.63879e-08
8.16636e-08
-1.97844e-09
3.62718e-08
8.1744e-08
-1.96857e-09
3.62628e-08
8.17266e-08
-1.96857e-09
3.64e-08
8.16326e-08
-1.89852e-09
3.67434e-08
8.14219e-08
-1.60555e-09
3.70823e-08
8.14203e-08
-2.15249e-09
3.69257e-08
8.00243e-08
-1.78405e-09
3.7104e-08
8.02391e-08
-1.48109e-09
3.70587e-08
8.02031e-08
-1.23051e-09
3.6873e-08
8.01687e-08
-9.58258e-10
3.65988e-08
8.01782e-08
-6.72803e-10
3.63344e-08
8.0159e-08
-4.6268e-10
3.61761e-08
8.0114e-08
-2.89987e-10
3.59649e-08
8.0166e-08
-2.10319e-10
3.59956e-08
8.00606e-08
-1.63709e-10
3.57901e-08
8.02212e-08
-1.89208e-10
3.58336e-08
8.02036e-08
-3.47251e-12
3.6336e-08
8.00652e-08
-9.0948e-11
3.61079e-08
8.02744e-08
-1.68871e-10
3.62107e-08
8.02254e-08
-2.80759e-10
3.61183e-08
8.04014e-08
-4.73948e-10
3.6243e-08
8.04462e-08
-6.92107e-10
3.63959e-08
8.04978e-08
-9.75784e-10
3.68112e-08
8.03226e-08
-1.24622e-09
3.73421e-08
8.00334e-08
-1.47649e-09
3.72773e-08
8.03226e-08
-1.70812e-09
3.72053e-08
8.06177e-08
-1.80333e-09
3.70617e-08
8.08532e-08
-1.93486e-09
3.68872e-08
8.11471e-08
-1.99751e-09
3.66629e-08
8.14251e-08
-1.98435e-09
3.63846e-08
8.16653e-08
-1.97688e-09
3.62685e-08
8.17456e-08
-1.96701e-09
3.62595e-08
8.17283e-08
-1.96699e-09
3.63967e-08
8.16343e-08
-1.89696e-09
3.674e-08
8.14237e-08
-1.60471e-09
3.70786e-08
8.14212e-08
-2.15027e-09
3.69224e-08
8.00277e-08
-1.78255e-09
3.71005e-08
8.02412e-08
-1.47964e-09
3.70551e-08
8.02052e-08
-1.22907e-09
3.68695e-08
8.01708e-08
-9.56915e-10
3.65955e-08
8.01802e-08
-6.71632e-10
3.63313e-08
8.0161e-08
-4.6176e-10
3.61731e-08
8.01161e-08
-2.8933e-10
3.59621e-08
8.01681e-08
-2.10054e-10
3.59929e-08
8.0063e-08
-1.63719e-10
3.57885e-08
8.02229e-08
-1.88942e-10
3.58317e-08
8.02052e-08
-1.24272e-11
3.63277e-08
8.00739e-08
-9.11447e-11
3.61053e-08
8.02771e-08
-1.68501e-10
3.62059e-08
8.02295e-08
-2.79297e-10
3.61132e-08
8.0405e-08
-4.71878e-10
3.62376e-08
8.04494e-08
-6.89498e-10
3.63903e-08
8.05006e-08
-9.72748e-10
3.68045e-08
8.03263e-08
-1.24291e-09
3.73329e-08
8.00395e-08
-1.4732e-09
3.72699e-08
8.03267e-08
-1.70482e-09
3.71981e-08
8.06216e-08
-1.80006e-09
3.70546e-08
8.08571e-08
-1.93151e-09
3.688e-08
8.11509e-08
-1.99409e-09
3.66557e-08
8.14289e-08
-1.98092e-09
3.63776e-08
8.16689e-08
-1.97349e-09
3.62616e-08
8.17491e-08
-1.96363e-09
3.62526e-08
8.17318e-08
-1.96356e-09
3.63898e-08
8.16379e-08
-1.89359e-09
3.67327e-08
8.14275e-08
-1.60313e-09
3.70705e-08
8.14225e-08
-2.14513e-09
3.69158e-08
8.00351e-08
-1.77925e-09
3.70931e-08
8.02455e-08
-1.47639e-09
3.70478e-08
8.02094e-08
-1.22585e-09
3.68624e-08
8.01748e-08
-9.53954e-10
3.65889e-08
8.01839e-08
-6.69084e-10
3.63252e-08
8.01646e-08
-4.59786e-10
3.61673e-08
8.012e-08
-2.87929e-10
3.5957e-08
8.01718e-08
-2.09556e-10
3.59882e-08
8.00673e-08
-1.63894e-10
3.5786e-08
8.02255e-08
-1.89504e-10
3.58302e-08
8.02073e-08
-2.52367e-11
3.63154e-08
8.00869e-08
-9.164e-11
3.61019e-08
8.02806e-08
-1.6794e-10
3.61987e-08
8.02356e-08
-2.76777e-10
3.6105e-08
8.04104e-08
-4.68285e-10
3.62289e-08
8.04543e-08
-6.84997e-10
3.63815e-08
8.05047e-08
-9.67522e-10
3.67936e-08
8.0332e-08
-1.23723e-09
3.73169e-08
8.00499e-08
-1.46755e-09
3.72576e-08
8.03335e-08
-1.69916e-09
3.71862e-08
8.06279e-08
-1.79447e-09
3.70427e-08
8.08634e-08
-1.92579e-09
3.68679e-08
8.11573e-08
-1.98824e-09
3.66435e-08
8.14352e-08
-1.97508e-09
3.63658e-08
8.16748e-08
-1.96773e-09
3.625e-08
8.1755e-08
-1.95788e-09
3.62409e-08
8.17377e-08
-1.95772e-09
3.63782e-08
8.16438e-08
-1.88786e-09
3.67205e-08
8.14338e-08
-1.60116e-09
3.70565e-08
8.14236e-08
-2.13554e-09
3.69051e-08
8.00487e-08
-1.7736e-09
3.70809e-08
8.02524e-08
-1.47084e-09
3.70357e-08
8.0216e-08
-1.22034e-09
3.68507e-08
8.0181e-08
-9.48885e-10
3.65781e-08
8.01897e-08
-6.64722e-10
3.63152e-08
8.01703e-08
-4.56397e-10
3.61577e-08
8.01264e-08
-2.85537e-10
3.59487e-08
8.01776e-08
-2.08787e-10
3.5981e-08
8.00737e-08
-1.64291e-10
3.5783e-08
8.02289e-08
-1.90543e-10
3.58289e-08
8.02095e-08
-3.88939e-11
3.62991e-08
8.01038e-08
-9.2501e-11
3.60984e-08
8.02844e-08
-1.67236e-10
3.61902e-08
8.02426e-08
-2.73398e-10
3.60946e-08
8.04171e-08
-4.63408e-10
3.62176e-08
8.04605e-08
-6.7895e-10
3.63704e-08
8.05092e-08
-9.60504e-10
3.67796e-08
8.03391e-08
-1.22966e-09
3.72953e-08
8.00643e-08
-1.46004e-09
3.72417e-08
8.03419e-08
-1.69168e-09
3.7171e-08
8.06357e-08
-1.7871e-09
3.70274e-08
8.08713e-08
-1.9183e-09
3.68524e-08
8.11653e-08
-1.98062e-09
3.66276e-08
8.14433e-08
-1.96748e-09
3.63506e-08
8.16825e-08
-1.96025e-09
3.62349e-08
8.17626e-08
-1.95044e-09
3.62257e-08
8.17454e-08
-1.95014e-09
3.63631e-08
8.16514e-08
-1.88044e-09
3.67046e-08
8.14421e-08
-1.59994e-09
3.70376e-08
8.14232e-08
-2.12151e-09
3.68923e-08
8.00684e-08
-1.76612e-09
3.70651e-08
8.02613e-08
-1.46349e-09
3.70202e-08
8.02244e-08
-1.21303e-09
3.68358e-08
8.01887e-08
-9.42128e-10
3.65645e-08
8.01967e-08
-6.58915e-10
3.63023e-08
8.01776e-08
-4.51861e-10
3.61448e-08
8.0135e-08
-2.82368e-10
3.59382e-08
8.01849e-08
-2.07774e-10
3.59724e-08
8.00812e-08
-1.64883e-10
3.57802e-08
8.02323e-08
-1.91567e-10
3.58272e-08
8.02123e-08
-5.2924e-11
3.62795e-08
8.01238e-08
-9.38634e-11
3.60956e-08
8.02875e-08
-1.66378e-10
3.61817e-08
8.02491e-08
-2.69452e-10
3.60831e-08
8.04241e-08
-4.57543e-10
3.62045e-08
8.04674e-08
-6.71702e-10
3.63578e-08
8.05138e-08
-9.52059e-10
3.67634e-08
8.0347e-08
-1.2206e-09
3.72689e-08
8.00821e-08
-1.45107e-09
3.72233e-08
8.03516e-08
-1.68277e-09
3.71536e-08
8.06443e-08
-1.77837e-09
3.70098e-08
8.08801e-08
-1.90948e-09
3.68342e-08
8.11745e-08
-1.97167e-09
3.6609e-08
8.14529e-08
-1.95857e-09
3.63326e-08
8.16915e-08
-1.95149e-09
3.62172e-08
8.17716e-08
-1.94173e-09
3.62078e-08
8.17546e-08
-1.94124e-09
3.63455e-08
8.16603e-08
-1.87179e-09
3.6686e-08
8.14517e-08
-1.60001e-09
3.70146e-08
8.14205e-08
-2.1033e-09
3.68781e-08
8.00939e-08
-1.75721e-09
3.70469e-08
8.02716e-08
-1.45475e-09
3.70023e-08
8.02338e-08
-1.20436e-09
3.68187e-08
8.01973e-08
-9.34061e-10
3.65488e-08
8.02045e-08
-6.52029e-10
3.62872e-08
8.01862e-08
-4.4649e-10
3.61295e-08
8.01452e-08
-2.78726e-10
3.59266e-08
8.01929e-08
-2.06406e-10
3.59638e-08
8.00884e-08
-1.65613e-10
3.57785e-08
8.02347e-08
-1.92584e-10
3.58248e-08
8.02156e-08
-6.64325e-11
3.62581e-08
8.01456e-08
-9.57722e-11
3.6094e-08
8.02894e-08
-1.65251e-10
3.61743e-08
8.02539e-08
-2.65041e-10
3.60717e-08
8.04304e-08
-4.50944e-10
3.61905e-08
8.04744e-08
-6.63489e-10
3.63445e-08
8.05181e-08
-9.42466e-10
3.67456e-08
8.03554e-08
-1.21031e-09
3.72386e-08
8.01028e-08
-1.44083e-09
3.72029e-08
8.0362e-08
-1.67261e-09
3.71347e-08
8.06533e-08
-1.76846e-09
3.69906e-08
8.08893e-08
-1.89952e-09
3.68142e-08
8.11845e-08
-1.96158e-09
3.65883e-08
8.14633e-08
-1.9485e-09
3.63126e-08
8.17014e-08
-1.94161e-09
3.61973e-08
8.17816e-08
-1.93191e-09
3.61877e-08
8.17648e-08
-1.9312e-09
3.63259e-08
8.16701e-08
-1.86209e-09
3.66651e-08
8.14623e-08
-1.60144e-09
3.69882e-08
8.14154e-08
-2.08125e-09
3.68633e-08
8.01247e-08
-1.74706e-09
3.70269e-08
8.02828e-08
-1.44483e-09
3.69828e-08
8.02437e-08
-1.19456e-09
3.68002e-08
8.02063e-08
-9.2497e-10
3.65318e-08
8.02126e-08
-6.44308e-10
3.62706e-08
8.01956e-08
-4.40542e-10
3.61126e-08
8.01565e-08
-2.74713e-10
3.59148e-08
8.02006e-08
-2.047e-10
3.59563e-08
8.00941e-08
-1.66436e-10
3.57788e-08
8.02352e-08
-1.93674e-10
3.5822e-08
8.02194e-08
-7.9343e-11
3.62355e-08
8.01686e-08
-9.82562e-11
3.60937e-08
8.02899e-08
-1.63913e-10
3.61691e-08
8.0256e-08
-2.601e-10
3.60613e-08
8.0435e-08
-4.43709e-10
3.61766e-08
8.04804e-08
-6.5449e-10
3.63313e-08
8.05212e-08
-9.31972e-10
3.67272e-08
8.03636e-08
-1.19902e-09
3.72056e-08
8.01253e-08
-1.42947e-09
3.71815e-08
8.03723e-08
-1.66132e-09
3.71152e-08
8.06617e-08
-1.75746e-09
3.69706e-08
8.08982e-08
-1.88851e-09
3.67932e-08
8.11945e-08
-1.95043e-09
3.65663e-08
8.1474e-08
-1.93737e-09
3.62914e-08
8.17116e-08
-1.9307e-09
3.61761e-08
8.1792e-08
-1.92108e-09
3.61662e-08
8.17753e-08
-1.9201e-09
3.63052e-08
8.16802e-08
-1.85146e-09
3.6643e-08
8.1473e-08
-1.6041e-09
3.69594e-08
8.14073e-08
-2.05573e-09
3.68486e-08
8.01593e-08
-1.73575e-09
3.70059e-08
8.02941e-08
-1.43386e-09
3.69626e-08
8.02534e-08
-1.18387e-09
3.67811e-08
8.0215e-08
-9.15103e-10
3.65144e-08
8.02205e-08
-6.35935e-10
3.62533e-08
8.02049e-08
-4.3411e-10
3.60952e-08
8.0168e-08
-2.7026e-10
3.59038e-08
8.02071e-08
-2.02882e-10
3.5951e-08
8.00976e-08
-1.67526e-10
3.57813e-08
8.02337e-08
-1.94881e-10
3.5819e-08
8.02236e-08
-9.15478e-11
3.62124e-08
8.0192e-08
-1.01403e-10
3.60949e-08
8.0289e-08
-1.62632e-10
3.61671e-08
8.02545e-08
-2.54536e-10
3.60532e-08
8.04364e-08
-4.35804e-10
3.61642e-08
8.04841e-08
-6.44791e-10
3.63196e-08
8.0522e-08
-9.20666e-10
3.67096e-08
8.03701e-08
-1.18683e-09
3.71716e-08
8.01479e-08
-1.41711e-09
3.71604e-08
8.03813e-08
-1.64899e-09
3.70966e-08
8.06682e-08
-1.74547e-09
3.69513e-08
8.09054e-08
-1.87655e-09
3.67726e-08
8.1203e-08
-1.93831e-09
3.65443e-08
8.14836e-08
-1.92526e-09
3.62701e-08
8.17207e-08
-1.91886e-09
3.61547e-08
8.18015e-08
-1.90935e-09
3.61446e-08
8.17851e-08
-1.90802e-09
3.62845e-08
8.16892e-08
-1.83998e-09
3.6621e-08
8.14827e-08
-1.60777e-09
3.69299e-08
8.13954e-08
-2.0272e-09
3.68352e-08
8.0196e-08
-1.72338e-09
3.69856e-08
8.03042e-08
-1.42198e-09
3.69432e-08
8.02614e-08
-1.17241e-09
3.6763e-08
8.02221e-08
-9.04547e-10
3.6498e-08
8.02266e-08
-6.27e-10
3.6237e-08
8.0213e-08
-4.27154e-10
3.60787e-08
8.01781e-08
-2.65259e-10
3.5895e-08
8.02109e-08
-2.01085e-10
3.5949e-08
8.00977e-08
-1.69075e-10
3.57861e-08
8.02303e-08
-1.96229e-10
3.58159e-08
8.0228e-08
-1.03002e-10
3.61895e-08
8.02153e-08
-1.05185e-10
3.60974e-08
8.02867e-08
-1.61395e-10
3.61692e-08
8.02487e-08
-2.48487e-10
3.60489e-08
8.04333e-08
-4.27209e-10
3.61549e-08
8.0484e-08
-6.34425e-10
3.6311e-08
8.05189e-08
-9.08511e-10
3.66945e-08
8.03734e-08
-1.17372e-09
3.7139e-08
8.01684e-08
-1.40379e-09
3.71417e-08
8.03871e-08
-1.63573e-09
3.70808e-08
8.0671e-08
-1.73259e-09
3.69348e-08
8.09089e-08
-1.86374e-09
3.67542e-08
8.12084e-08
-1.92536e-09
3.65244e-08
8.14904e-08
-1.91231e-09
3.62507e-08
8.17271e-08
-1.90621e-09
3.6135e-08
8.18086e-08
-1.89683e-09
3.61246e-08
8.17925e-08
-1.8951e-09
3.62658e-08
8.16955e-08
-1.82781e-09
3.66008e-08
8.14894e-08
-1.61221e-09
3.69017e-08
8.13783e-08
-1.99612e-09
3.6825e-08
8.02322e-08
-1.71001e-09
3.69679e-08
8.03113e-08
-1.40923e-09
3.69265e-08
8.0266e-08
-1.16015e-09
3.67478e-08
8.02255e-08
-8.93327e-10
3.64845e-08
8.02294e-08
-6.1754e-10
3.62231e-08
8.02181e-08
-4.19644e-10
3.60647e-08
8.01852e-08
-2.59798e-10
3.58898e-08
8.02107e-08
-1.99234e-10
3.59512e-08
8.00936e-08
-1.71026e-10
3.57933e-08
8.0225e-08
-1.97734e-10
3.58127e-08
8.02326e-08
-1.13697e-10
3.61671e-08
8.0238e-08
-1.09415e-10
3.61008e-08
8.02834e-08
-1.60216e-10
3.61765e-08
8.02375e-08
-2.42312e-10
3.60503e-08
8.04243e-08
-4.18102e-10
3.61506e-08
8.04781e-08
-6.23518e-10
3.63075e-08
8.05102e-08
-8.95587e-10
3.66841e-08
8.03711e-08
-1.15978e-09
3.71105e-08
8.0184e-08
-1.38963e-09
3.71278e-08
8.03874e-08
-1.62165e-09
3.70704e-08
8.06677e-08
-1.71892e-09
3.69234e-08
8.09065e-08
-1.8502e-09
3.67408e-08
8.12082e-08
-1.91171e-09
3.65088e-08
8.14919e-08
-1.89868e-09
3.62355e-08
8.17287e-08
-1.89291e-09
3.61193e-08
8.1811e-08
-1.88368e-09
3.61085e-08
8.17953e-08
-1.88149e-09
3.62514e-08
8.16968e-08
-1.8151e-09
3.65851e-08
8.14909e-08
-1.61722e-09
3.68774e-08
8.13542e-08
-1.96297e-09
3.68203e-08
8.02651e-08
-1.69573e-09
3.69553e-08
8.0313e-08
-1.39571e-09
3.6915e-08
8.02646e-08
-1.14716e-09
3.67377e-08
8.02232e-08
-8.81579e-10
3.6476e-08
8.02266e-08
-6.07615e-10
3.62138e-08
8.02183e-08
-4.11668e-10
3.60553e-08
8.01874e-08
-2.54069e-10
3.58898e-08
8.02049e-08
-1.97299e-10
3.59586e-08
8.00841e-08
-1.72936e-10
3.58024e-08
8.02178e-08
-1.99405e-10
3.58097e-08
8.02373e-08
-1.23636e-10
3.61458e-08
8.02597e-08
-1.14249e-10
3.61042e-08
8.02802e-08
-1.59056e-10
3.61892e-08
8.02204e-08
-2.36201e-10
3.60588e-08
8.04079e-08
-4.08859e-10
3.61536e-08
8.04647e-08
-6.12371e-10
3.63112e-08
8.04938e-08
-8.82147e-10
3.6681e-08
8.03612e-08
-1.14526e-09
3.70892e-08
8.01919e-08
-1.37482e-09
3.71215e-08
8.03794e-08
-1.60691e-09
3.70682e-08
8.06555e-08
-1.70464e-09
3.69202e-08
8.08953e-08
-1.83609e-09
3.67352e-08
8.11995e-08
-1.89754e-09
3.65007e-08
8.14855e-08
-1.88456e-09
3.62276e-08
8.17225e-08
-1.87914e-09
3.61105e-08
8.18061e-08
-1.87007e-09
3.60993e-08
8.17907e-08
-1.86736e-09
3.62443e-08
8.16904e-08
-1.80207e-09
3.65768e-08
8.14842e-08
-1.62261e-09
3.68604e-08
8.13205e-08
-1.92828e-09
3.6824e-08
8.0291e-08
-1.68066e-09
3.69508e-08
8.03065e-08
-1.38163e-09
3.69116e-08
8.02547e-08
-1.13371e-09
3.67356e-08
8.02125e-08
-8.69452e-10
3.6475e-08
8.02161e-08
-5.97516e-10
3.62114e-08
8.02114e-08
-4.03518e-10
3.60527e-08
8.01825e-08
-2.4835e-10
3.58968e-08
8.01922e-08
-1.95169e-10
3.59717e-08
8.00688e-08
-1.74911e-10
3.58123e-08
8.02098e-08
-2.01211e-10
3.58068e-08
8.02418e-08
-1.32874e-10
3.61259e-08
8.02801e-08
-1.19968e-10
3.61069e-08
8.02781e-08
-1.59619e-10
3.62077e-08
8.01992e-08
-2.3083e-10
3.60762e-08
8.03832e-08
-3.99756e-10
3.61661e-08
8.04419e-08
-6.01316e-10
3.63246e-08
8.04678e-08
-8.68554e-10
3.66878e-08
8.03411e-08
-1.13052e-09
3.70786e-08
8.0189e-08
-1.35968e-09
3.7126e-08
8.03603e-08
-1.59176e-09
3.70776e-08
8.06313e-08
-1.69001e-09
3.69287e-08
8.0872e-08
-1.82168e-09
3.6741e-08
8.11791e-08
-1.88311e-09
3.65037e-08
8.14677e-08
-1.8702e-09
3.62303e-08
8.17054e-08
-1.86515e-09
3.6112e-08
8.17906e-08
-1.85624e-09
3.61005e-08
8.17756e-08
-1.85296e-09
3.6248e-08
8.1673e-08
-1.78898e-09
3.65795e-08
8.14661e-08
-1.62834e-09
3.68543e-08
8.12745e-08
-1.89261e-09
3.68394e-08
8.0306e-08
-1.66505e-09
3.69578e-08
8.02889e-08
-1.3673e-09
3.69195e-08
8.02333e-08
-1.12014e-09
3.67444e-08
8.01908e-08
-8.57217e-10
3.64843e-08
8.01952e-08
-5.8767e-10
3.62186e-08
8.01953e-08
-3.95557e-10
3.60593e-08
8.01687e-08
-2.43506e-10
3.59124e-08
8.01718e-08
-1.94497e-10
3.59908e-08
8.0049e-08
-1.77492e-10
3.58222e-08
8.02023e-08
-2.03166e-10
3.58042e-08
8.02463e-08
-1.41413e-10
3.61073e-08
8.0299e-08
-1.26012e-10
3.61079e-08
8.02777e-08
-1.63139e-10
3.62309e-08
8.01758e-08
-2.26515e-10
3.61045e-08
8.03485e-08
-3.91499e-10
3.619e-08
8.04083e-08
-5.90764e-10
3.63503e-08
8.04301e-08
-8.55309e-10
3.67074e-08
8.03085e-08
-1.11604e-09
3.70821e-08
8.01722e-08
-1.34463e-09
3.71448e-08
8.03271e-08
-1.57661e-09
3.71023e-08
8.0592e-08
-1.67536e-09
3.69527e-08
8.08332e-08
-1.80736e-09
3.67623e-08
8.11433e-08
-1.86878e-09
3.65218e-08
8.14348e-08
-1.85596e-09
3.62476e-08
8.16738e-08
-1.85132e-09
3.61278e-08
8.17611e-08
-1.84259e-09
3.61158e-08
8.17465e-08
-1.83868e-09
3.62664e-08
8.16411e-08
-1.77627e-09
3.65971e-08
8.14327e-08
-1.63447e-09
3.68632e-08
8.12132e-08
-1.85673e-09
3.68703e-08
8.03063e-08
-1.64925e-09
3.698e-08
8.02568e-08
-1.35319e-09
3.69421e-08
8.01974e-08
-1.10691e-09
3.67673e-08
8.01554e-08
-8.45416e-10
3.65067e-08
8.01618e-08
-5.78576e-10
3.62379e-08
8.01679e-08
-3.88243e-10
3.60772e-08
8.01443e-08
-2.39749e-10
3.59387e-08
8.01419e-08
-1.96592e-10
3.6015e-08
8.00268e-08
-1.80248e-10
3.58311e-08
8.01961e-08
-2.05214e-10
3.58018e-08
8.02506e-08
-1.49211e-10
3.60901e-08
8.03165e-08
-1.31364e-10
3.61066e-08
8.02788e-08
-1.674e-10
3.62561e-08
8.0151e-08
-2.20671e-10
3.61432e-08
8.03018e-08
-3.85288e-10
3.62277e-08
8.03628e-08
-5.81473e-10
3.63906e-08
8.0379e-08
-8.432e-10
3.67427e-08
8.02614e-08
-1.10253e-09
3.71031e-08
8.01388e-08
-1.33028e-09
3.71814e-08
8.02768e-08
-1.56207e-09
3.71458e-08
8.05343e-08
-1.6612e-09
3.69963e-08
8.07754e-08
-1.79365e-09
3.68031e-08
8.10885e-08
-1.8551e-09
3.65593e-08
8.13832e-08
-1.84237e-09
3.62839e-08
8.16238e-08
-1.83818e-09
3.6162e-08
8.17138e-08
-1.8297e-09
3.61497e-08
8.16996e-08
-1.82503e-09
3.63038e-08
8.15909e-08
-1.76451e-09
3.6634e-08
8.13804e-08
-1.64124e-09
3.68916e-08
8.11331e-08
-1.82155e-09
3.69206e-08
8.02877e-08
-1.63377e-09
3.70214e-08
8.02072e-08
-1.33991e-09
3.69829e-08
8.01442e-08
-1.09473e-09
3.68075e-08
8.0104e-08
-8.34866e-10
3.6545e-08
8.01137e-08
-5.71146e-10
3.62718e-08
8.01276e-08
-3.82535e-10
3.61088e-08
8.01078e-08
-2.34402e-10
3.59751e-08
8.01003e-08
-1.99595e-10
3.60415e-08
8.00033e-08
-1.82314e-10
3.58379e-08
8.01913e-08
-2.07263e-10
3.57995e-08
8.0255e-08
-1.56161e-10
3.60739e-08
8.03328e-08
-1.35448e-10
3.61019e-08
8.02818e-08
-1.71227e-10
3.62806e-08
8.01262e-08
-2.13649e-10
3.61908e-08
8.02446e-08
-3.81951e-10
3.62834e-08
8.03022e-08
-5.74767e-10
3.64481e-08
8.03133e-08
-8.33682e-10
3.67963e-08
8.01986e-08
-1.09134e-09
3.71449e-08
8.0087e-08
-1.31758e-09
3.72389e-08
8.02074e-08
-1.54908e-09
3.72119e-08
8.04558e-08
-1.64831e-09
3.70633e-08
8.06953e-08
-1.78129e-09
3.68679e-08
8.10112e-08
-1.84282e-09
3.66208e-08
8.1309e-08
-1.8302e-09
3.63438e-08
8.15517e-08
-1.82644e-09
3.62191e-08
8.16449e-08
-1.81832e-09
3.62066e-08
8.16312e-08
-1.81279e-09
3.63648e-08
8.15185e-08
-1.75454e-09
3.66946e-08
8.13054e-08
-1.64912e-09
3.69437e-08
8.10313e-08
-1.78824e-09
3.6994e-08
8.02465e-08
-1.6194e-09
3.70854e-08
8.01372e-08
-1.32832e-09
3.70448e-08
8.00716e-08
-1.08505e-09
3.68677e-08
8.0035e-08
-8.2688e-10
3.66018e-08
8.00499e-08
-5.66605e-10
3.63231e-08
8.00729e-08
-3.80209e-10
3.61585e-08
8.00566e-08
-2.27661e-10
3.60201e-08
8.00488e-08
-2.02497e-10
3.60676e-08
7.998e-08
-1.8307e-10
3.58413e-08
8.01885e-08
-2.09229e-10
3.57969e-08
8.02595e-08
-1.62239e-10
3.60583e-08
8.03482e-08
-1.38178e-10
3.60934e-08
8.02875e-08
-1.74644e-10
3.63025e-08
8.01035e-08
-2.13206e-10
3.62505e-08
8.01818e-08
-3.81217e-10
3.63609e-08
8.02222e-08
-5.72695e-10
3.65284e-08
8.02295e-08
-8.28896e-10
3.68714e-08
8.01189e-08
-1.08446e-09
3.72103e-08
8.00159e-08
-1.30782e-09
3.73195e-08
8.01178e-08
-1.53917e-09
3.73034e-08
8.03548e-08
-1.63794e-09
3.71569e-08
8.05912e-08
-1.77144e-09
3.69605e-08
8.09085e-08
-1.83306e-09
3.67106e-08
8.12089e-08
-1.82057e-09
3.64315e-08
8.14543e-08
-1.81701e-09
3.63038e-08
8.15509e-08
-1.80937e-09
3.6291e-08
8.15378e-08
-1.80301e-09
3.64537e-08
8.14207e-08
-1.74752e-09
3.67832e-08
8.12043e-08
-1.65891e-09
3.70239e-08
8.09053e-08
-1.75824e-09
3.70935e-08
8.01803e-08
-1.60752e-09
3.71752e-08
8.00453e-08
-1.31959e-09
3.71302e-08
7.99785e-08
-1.07958e-09
3.69507e-08
7.99477e-08
-8.23044e-10
3.66804e-08
7.99684e-08
-5.661e-10
3.63973e-08
7.99992e-08
-3.81207e-10
3.62302e-08
7.99867e-08
-2.27509e-10
3.6077e-08
7.9992e-08
-2.04943e-10
3.60913e-08
7.99587e-08
-1.82448e-10
3.58408e-08
8.01883e-08
-2.11228e-10
3.57937e-08
8.02646e-08
-1.67769e-10
3.60429e-08
8.03635e-08
-1.39694e-10
3.60806e-08
8.02962e-08
-1.77063e-10
3.63204e-08
8.00839e-08
-2.20912e-10
3.63204e-08
8.01168e-08
-3.7904e-10
3.6454e-08
8.0125e-08
-5.74267e-10
3.66372e-08
8.01209e-08
-8.27549e-10
3.69742e-08
8.00149e-08
-1.08042e-09
3.73032e-08
7.99201e-08
-1.30239e-09
3.74277e-08
8.00049e-08
-1.53382e-09
3.74232e-08
8.02302e-08
-1.63169e-09
3.72797e-08
8.0462e-08
-1.76595e-09
3.70842e-08
8.0779e-08
-1.82767e-09
3.68325e-08
8.10811e-08
-1.8149e-09
3.65507e-08
8.13294e-08
-1.81115e-09
3.64195e-08
8.14293e-08
-1.80401e-09
3.64066e-08
8.14168e-08
-1.79699e-09
3.6574e-08
8.12952e-08
-1.74525e-09
3.69036e-08
8.10751e-08
-1.67215e-09
3.71356e-08
8.07538e-08
-1.73315e-09
3.72216e-08
8.00874e-08
-1.59986e-09
3.7294e-08
7.99303e-08
-1.31513e-09
3.72434e-08
7.9862e-08
-1.07663e-09
3.70601e-08
7.98364e-08
-8.22821e-10
3.67871e-08
7.98625e-08
-5.68976e-10
3.65004e-08
7.99001e-08
-3.8063e-10
3.63177e-08
7.98995e-08
-2.35772e-10
3.61442e-08
7.99333e-08
-2.06244e-10
3.61112e-08
7.99401e-08
-1.81156e-10
3.58363e-08
8.01915e-08
-2.13212e-10
3.57893e-08
8.02709e-08
-1.72456e-10
3.60265e-08
8.03796e-08
-1.4066e-10
3.60645e-08
8.03079e-08
-1.77489e-10
3.63333e-08
8.00672e-08
-2.31008e-10
3.63944e-08
8.00499e-08
-3.82061e-10
3.6564e-08
8.00161e-08
-5.71845e-10
3.67676e-08
7.99867e-08
-8.2008e-10
3.71037e-08
7.98781e-08
-1.06931e-09
3.74264e-08
7.97869e-08
-1.30164e-09
3.75767e-08
7.98559e-08
-1.53067e-09
3.75754e-08
8.00753e-08
-1.63097e-09
3.74368e-08
8.03041e-08
-1.76659e-09
3.72427e-08
8.0621e-08
-1.82863e-09
3.69895e-08
8.09246e-08
-1.81479e-09
3.6704e-08
8.11759e-08
-1.8106e-09
3.65692e-08
8.1279e-08
-1.80394e-09
3.65564e-08
8.12671e-08
-1.79626e-09
3.67285e-08
8.11408e-08
-1.74958e-09
3.70585e-08
8.0917e-08
-1.69052e-09
3.72823e-08
8.05759e-08
-1.71463e-09
3.73835e-08
7.99633e-08
-1.59471e-09
3.74465e-08
7.97855e-08
-1.31544e-09
3.73976e-08
7.97093e-08
-1.06643e-09
3.71985e-08
7.9689e-08
-8.17455e-10
3.69205e-08
7.97248e-08
-5.68148e-10
3.66257e-08
7.97751e-08
-3.85192e-10
3.64224e-08
7.98001e-08
-2.46493e-10
3.62154e-08
7.98731e-08
-2.05525e-10
3.61262e-08
7.99244e-08
-1.79528e-10
3.5828e-08
8.01981e-08
-2.1468e-10
3.57823e-08
8.02793e-08
-1.74613e-10
3.60059e-08
8.03976e-08
-1.40944e-10
3.60457e-08
8.03219e-08
-1.75111e-10
3.63413e-08
8.00527e-08
-2.40895e-10
3.64706e-08
7.99806e-08
-3.97726e-10
3.6696e-08
7.98977e-08
-5.76541e-10
3.69246e-08
7.9833e-08
-8.18966e-10
3.7269e-08
7.97118e-08
-1.06426e-09
3.75932e-08
7.9616e-08
-1.30281e-09
3.77704e-08
7.96641e-08
-1.51785e-09
3.77639e-08
7.98744e-08
-1.6371e-09
3.76456e-08
8.01013e-08
-1.77032e-09
3.74424e-08
8.04247e-08
-1.83314e-09
3.7184e-08
8.0734e-08
-1.82186e-09
3.68988e-08
8.09881e-08
-1.81761e-09
3.67593e-08
8.10959e-08
-1.8113e-09
3.67466e-08
8.10843e-08
-1.8027e-09
3.69246e-08
8.09521e-08
-1.75765e-09
3.72502e-08
8.07246e-08
-1.71102e-09
3.747e-08
8.03633e-08
-1.70451e-09
3.75969e-08
7.97915e-08
-1.58006e-09
3.76362e-08
7.95957e-08
-1.31851e-09
3.75964e-08
7.95151e-08
-1.06237e-09
3.73791e-08
7.95055e-08
-8.18531e-10
3.70895e-08
7.9558e-08
-5.74933e-10
3.67784e-08
7.96303e-08
-4.025e-10
3.65498e-08
7.96908e-08
-2.57009e-10
3.62884e-08
7.9811e-08
-2.01965e-10
3.61365e-08
7.99107e-08
-1.7724e-10
3.58165e-08
8.02072e-08
-2.13932e-10
3.57701e-08
8.02908e-08
-1.73815e-10
3.598e-08
8.04184e-08
-1.39008e-10
3.60248e-08
8.03361e-08
-1.69414e-10
3.63463e-08
8.00381e-08
-2.51898e-10
3.65477e-08
7.99114e-08
-4.19892e-10
3.68392e-08
7.97747e-08
-6.00883e-10
3.71143e-08
7.96665e-08
-8.40912e-10
3.74742e-08
7.95286e-08
-1.08254e-09
3.78045e-08
7.94238e-08
-1.3137e-09
3.79991e-08
7.94471e-08
-1.51253e-09
3.79988e-08
7.96347e-08
-1.65166e-09
3.79089e-08
7.98525e-08
-1.76232e-09
3.76853e-08
8.01736e-08
-1.82582e-09
3.74234e-08
8.04868e-08
-1.83816e-09
3.71588e-08
8.07443e-08
-1.83435e-09
3.70103e-08
8.08617e-08
-1.82804e-09
3.69981e-08
8.08498e-08
-1.81839e-09
3.71864e-08
8.07067e-08
-1.7542e-09
3.74862e-08
8.04752e-08
-1.71823e-09
3.77017e-08
8.0098e-08
-1.70501e-09
3.78644e-08
7.95711e-08
-1.57221e-09
3.78718e-08
7.93682e-08
-1.33208e-09
3.78298e-08
7.92969e-08
-1.08238e-09
3.76028e-08
7.93031e-08
-8.42483e-10
3.72984e-08
7.93743e-08
-6.02588e-10
3.69645e-08
7.94729e-08
-4.26336e-10
3.6689e-08
7.95763e-08
-2.68446e-10
3.63635e-08
7.97476e-08
-1.95171e-10
3.61436e-08
7.98968e-08
-1.72798e-10
3.58024e-08
8.02169e-08
-2.10483e-10
3.57514e-08
8.0306e-08
-1.7067e-10
3.59487e-08
8.04424e-08
-1.35326e-10
3.60037e-08
8.03493e-08
-1.61736e-10
3.63528e-08
8.00203e-08
-2.66259e-10
3.66179e-08
7.98526e-08
-4.47806e-10
3.6977e-08
7.96628e-08
-6.38522e-10
3.73107e-08
7.95065e-08
-8.78137e-10
3.7689e-08
7.9351e-08
-1.11458e-09
3.80248e-08
7.92364e-08
-1.34134e-09
3.82373e-08
7.92373e-08
-1.53475e-09
3.82582e-08
7.9398e-08
-1.67616e-09
3.81878e-08
7.9598e-08
-1.76461e-09
3.79793e-08
7.98816e-08
-1.82741e-09
3.77227e-08
8.01885e-08
-1.86549e-09
3.7483e-08
8.04474e-08
-1.86233e-09
3.7326e-08
8.0574e-08
-1.85593e-09
3.73145e-08
8.05617e-08
-1.84495e-09
3.75124e-08
8.0408e-08
-1.76001e-09
3.7782e-08
8.01738e-08
-1.73267e-09
3.79867e-08
7.97916e-08
-1.71815e-09
3.81459e-08
7.93435e-08
-1.59094e-09
3.81324e-08
7.91436e-08
-1.36098e-09
3.80729e-08
7.90847e-08
-1.11634e-09
3.78341e-08
7.9107e-08
-8.8172e-10
3.75169e-08
7.91962e-08
-6.43262e-10
3.71581e-08
7.9321e-08
-4.55957e-10
3.68236e-08
7.94721e-08
-2.83325e-10
3.64408e-08
7.96857e-08
-1.86627e-10
3.61527e-08
7.98793e-08
-1.66778e-10
3.57875e-08
8.02258e-08
-2.04916e-10
3.57266e-08
8.03251e-08
-1.65176e-10
3.59121e-08
8.04698e-08
-1.3009e-10
3.59839e-08
8.03599e-08
-1.54594e-10
3.63663e-08
7.99961e-08
-2.85601e-10
3.66819e-08
7.9805e-08
-4.81961e-10
3.71059e-08
7.95662e-08
-6.8747e-10
3.7505e-08
7.936e-08
-9.27584e-10
3.79045e-08
7.9185e-08
-1.15905e-09
3.82434e-08
7.90631e-08
-1.38246e-09
3.84715e-08
7.90449e-08
-1.57098e-09
3.85148e-08
7.91782e-08
-1.71006e-09
3.84619e-08
7.93578e-08
-1.80151e-09
3.82971e-08
7.96004e-08
-1.86361e-09
3.80512e-08
7.98958e-08
-1.9046e-09
3.78175e-08
8.01518e-08
-1.90133e-09
3.76579e-08
8.02811e-08
-1.89581e-09
3.7647e-08
8.02695e-08
-1.88406e-09
3.7848e-08
8.0112e-08
-1.80078e-09
3.81066e-08
7.98776e-08
-1.77861e-09
3.82967e-08
7.9497e-08
-1.7434e-09
3.84214e-08
7.91283e-08
-1.62442e-09
3.8391e-08
7.8937e-08
-1.40169e-09
3.8312e-08
7.88887e-08
-1.16237e-09
3.80627e-08
7.89258e-08
-9.32327e-10
3.7736e-08
7.9029e-08
-6.93352e-10
3.73503e-08
7.918e-08
-4.91797e-10
3.69494e-08
7.9383e-08
-3.02954e-10
3.65133e-08
7.96333e-08
-1.7888e-10
3.61692e-08
7.98551e-08
-1.5947e-10
3.57732e-08
8.02329e-08
-1.97183e-10
3.56958e-08
8.03482e-08
-1.57124e-10
3.587e-08
8.05002e-08
-1.23652e-10
3.59673e-08
8.03664e-08
-1.51127e-10
3.63928e-08
7.9963e-08
-3.09858e-10
3.67538e-08
7.97546e-08
-5.22358e-10
3.72364e-08
7.94742e-08
-7.45284e-10
3.77056e-08
7.92161e-08
-9.88148e-10
3.81318e-08
7.90183e-08
-1.21553e-09
3.84728e-08
7.88909e-08
-1.4347e-09
3.87123e-08
7.88571e-08
-1.61751e-09
3.87755e-08
7.89644e-08
-1.75526e-09
3.87422e-08
7.91226e-08
-1.85537e-09
3.86032e-08
7.93479e-08
-1.91665e-09
3.83707e-08
7.96288e-08
-1.95633e-09
3.81411e-08
7.98799e-08
-1.95079e-09
3.7981e-08
8.00076e-08
-1.94679e-09
3.79708e-08
7.99972e-08
-1.93568e-09
3.81724e-08
7.98395e-08
-1.85787e-09
3.84219e-08
7.96059e-08
-1.83924e-09
3.85963e-08
7.92331e-08
-1.78194e-09
3.87024e-08
7.8915e-08
-1.66911e-09
3.86543e-08
7.87375e-08
-1.4534e-09
3.85575e-08
7.86979e-08
-1.22082e-09
3.83009e-08
7.87475e-08
-9.93041e-10
3.79668e-08
7.88602e-08
-7.51634e-10
3.75495e-08
7.90401e-08
-5.33731e-10
3.70772e-08
7.92978e-08
-3.27612e-10
3.65841e-08
7.95875e-08
-1.75078e-10
3.61983e-08
7.98224e-08
-1.51255e-10
3.57614e-08
8.02365e-08
-1.87033e-10
3.56589e-08
8.03749e-08
-1.46806e-10
3.58222e-08
8.05342e-08
-1.16498e-10
3.59549e-08
8.03683e-08
-1.52463e-10
3.64361e-08
7.99181e-08
-3.38163e-10
3.68416e-08
7.96924e-08
-5.69704e-10
3.73707e-08
7.93854e-08
-8.10268e-10
3.79081e-08
7.90776e-08
-1.0597e-09
3.83656e-08
7.8856e-08
-1.2833e-09
3.87075e-08
7.87246e-08
-1.49718e-09
3.89518e-08
7.86807e-08
-1.67419e-09
3.90308e-08
7.87661e-08
-1.81182e-09
3.90181e-08
7.89033e-08
-1.91946e-09
3.89016e-08
7.91133e-08
-1.98065e-09
3.8686e-08
7.93769e-08
-2.02137e-09
3.84645e-08
7.96214e-08
-2.01241e-09
3.83051e-08
7.97452e-08
-2.00941e-09
3.82957e-08
7.97356e-08
-2.00029e-09
3.84964e-08
7.95801e-08
-1.92516e-09
3.87326e-08
7.93482e-08
-1.90869e-09
3.88893e-08
7.89899e-08
-1.83282e-09
3.89782e-08
7.87136e-08
-1.72314e-09
3.89126e-08
7.85527e-08
-1.51602e-09
3.88016e-08
7.85199e-08
-1.29063e-09
3.85432e-08
7.85766e-08
-1.06533e-09
3.82041e-08
7.86966e-08
-8.17962e-10
3.77514e-08
7.89057e-08
-5.8253e-10
3.72096e-08
7.9215e-08
-3.5632e-10
3.66697e-08
7.9531e-08
-1.76362e-10
3.62437e-08
7.97784e-08
-1.42666e-10
3.57531e-08
8.02364e-08
-1.74743e-10
3.56158e-08
8.04057e-08
-1.33999e-10
3.5769e-08
8.05713e-08
-1.09041e-10
3.59455e-08
8.03674e-08
-1.57003e-10
3.64969e-08
7.98592e-08
-3.70021e-10
3.69508e-08
7.96127e-08
-6.24854e-10
3.75085e-08
7.93012e-08
-8.8152e-10
3.81028e-08
7.89533e-08
-1.13979e-09
3.85927e-08
7.8709e-08
-1.36018e-09
3.89332e-08
7.85764e-08
-1.56723e-09
3.9173e-08
7.85301e-08
-1.73897e-09
3.92609e-08
7.86012e-08
-1.87705e-09
3.92664e-08
7.87202e-08
-1.9906e-09
3.91752e-08
7.89106e-08
-2.05294e-09
3.89796e-08
7.91551e-08
-2.09559e-09
3.87702e-08
7.93897e-08
-2.08597e-09
3.8613e-08
7.95108e-08
-2.08341e-09
3.86047e-08
7.95015e-08
-2.0756e-09
3.88026e-08
7.93489e-08
-2.00138e-09
3.90214e-08
7.91208e-08
-1.98559e-09
3.91587e-08
7.87828e-08
-1.89364e-09
3.92259e-08
7.85449e-08
-1.7839e-09
3.91461e-08
7.83994e-08
-1.58651e-09
3.90274e-08
7.83687e-08
-1.36838e-09
3.87754e-08
7.84238e-08
-1.14783e-09
3.84345e-08
7.85501e-08
-8.90874e-10
3.7946e-08
7.87851e-08
-6.39037e-10
3.73461e-08
7.91357e-08
-3.88761e-10
3.67776e-08
7.9456e-08
-1.81e-10
3.63065e-08
7.97204e-08
-1.34642e-10
3.5747e-08
8.02346e-08
-1.60244e-10
3.55669e-08
8.04402e-08
-1.18949e-10
3.57127e-08
8.06094e-08
-1.02566e-10
3.59364e-08
8.03673e-08
-1.62991e-10
3.65734e-08
7.97862e-08
-4.0618e-10
3.70834e-08
7.95142e-08
-6.87206e-10
3.76492e-08
7.92212e-08
-9.56962e-10
3.82794e-08
7.88513e-08
-1.22369e-09
3.87976e-08
7.8588e-08
-1.43969e-09
3.91328e-08
7.84568e-08
-1.64015e-09
3.93569e-08
7.84197e-08
-1.80562e-09
3.9443e-08
7.8486e-08
-1.94363e-09
3.94605e-08
7.85926e-08
-2.06367e-09
3.9395e-08
7.87635e-08
-2.12775e-09
3.92207e-08
7.89883e-08
-2.17374e-09
3.90265e-08
7.92114e-08
-2.16636e-09
3.88734e-08
7.93309e-08
-2.16317e-09
3.88662e-08
7.93206e-08
-2.15539e-09
3.9059e-08
7.91715e-08
-2.08123e-09
3.92576e-08
7.89491e-08
-2.06408e-09
3.93754e-08
7.86344e-08
-1.95721e-09
3.94189e-08
7.8429e-08