/*--------------------------------*- C++ -*----------------------------------*\
  =========                 |
  \\      /  F ield         | OpenFOAM: The Open Source CFD Toolbox
   \\    /   O peration     | Website:  https://openfoam.org
    \\  /    A nd           | Version:  6
     \\/     M anipulation  |
\*---------------------------------------------------------------------------*/
FoamFile
{
    version     2.0;
    format      ascii;
    class       surfaceScalarField;
    location    "20";
    object      phi;
}
// * * * * * * * * * * * * * * * * * * * * * * * * * * * * * * * * * * * * * //

dimensions      [0 3 -1 0 0 0 0];

internalField   nonuniform List<scalar> 
8442
(
2.01727e-07
1.97276e-13
4.08567e-13
2.01728e-07
1.09661e-13
-1.07295e-12
-2.3176e-13
5.89199e-13
1.57604e-07
4.65315e-13
1.80028e-13
1.57607e-07
-5.60603e-13
-1.78067e-12
5.28804e-14
1.71823e-12
2.1614e-07
7.37129e-13
3.88375e-13
2.16144e-07
1.43874e-14
-4.0525e-12
-7.58213e-13
3.62842e-12
2.81963e-07
9.58376e-13
1.14068e-12
2.81968e-07
7.32886e-14
-5.13233e-12
-1.03832e-12
3.99161e-12
3.57208e-07
1.13807e-12
1.97701e-12
3.57214e-07
-1.1455e-13
-6.63088e-12
-1.03062e-12
4.65436e-12
4.44761e-07
1.16427e-12
2.80591e-12
4.4477e-07
-1.4458e-13
-8.55094e-12
-1.01006e-12
5.72832e-12
5.47598e-07
8.71197e-13
3.54747e-12
5.47609e-07
3.19647e-13
-1.09015e-11
-1.18679e-12
7.35963e-12
6.68896e-07
3.75408e-13
4.36251e-12
6.68909e-07
1.3464e-12
-1.35936e-11
-1.72358e-12
9.23689e-12
8.12027e-07
-1.09606e-13
5.27433e-12
8.12042e-07
2.09562e-12
-1.58688e-11
-1.98841e-12
1.05951e-11
9.80416e-07
-5.5015e-13
6.65896e-12
9.80434e-07
2.63008e-12
-1.87499e-11
-2.08918e-12
1.20978e-11
1.17735e-06
-7.02848e-13
8.27856e-12
1.17738e-06
2.70531e-12
-2.1966e-11
-2.011e-12
1.36868e-11
1.40583e-06
-6.93163e-13
1.04855e-11
1.40585e-06
2.37569e-12
-2.55772e-11
-1.69383e-12
1.50944e-11
1.66827e-06
-5.68452e-13
1.27625e-11
1.6683e-06
1.75586e-12
-2.9495e-11
-1.19578e-12
1.67296e-11
1.96668e-06
-3.23519e-13
1.49935e-11
1.96671e-06
9.27985e-13
-3.34402e-11
-6.1207e-13
1.84459e-11
2.30185e-06
-1.07274e-14
1.7331e-11
2.30189e-06
2.01181e-14
-3.79486e-11
-1.24116e-14
2.0613e-11
2.30185e-06
3.07828e-13
1.73769e-11
2.30189e-06
-8.95728e-13
-3.79846e-11
5.84904e-13
2.06076e-11
1.96667e-06
5.46166e-13
1.49991e-11
1.9667e-06
-1.73287e-12
-3.34533e-11
1.17358e-12
1.84643e-11
1.66826e-06
6.47822e-13
1.27664e-11
1.66829e-06
-2.33942e-12
-2.94718e-11
1.62911e-12
1.67548e-11
1.40582e-06
7.18491e-13
1.03936e-11
1.40584e-06
-2.69524e-12
-2.55549e-11
2.14551e-12
1.493e-11
1.17735e-06
4.88739e-13
8.37091e-12
1.17738e-06
-2.57599e-12
-2.19795e-11
1.98893e-12
1.38757e-11
9.8041e-07
7.58432e-14
6.67018e-12
9.80429e-07
-2.03798e-12
-1.87633e-11
1.9249e-12
1.20321e-11
8.12023e-07
-4.07385e-13
5.26197e-12
8.12038e-07
-1.2284e-12
-1.59273e-11
1.62049e-12
1.06434e-11
6.68886e-07
-8.91865e-13
4.35833e-12
6.68898e-07
-3.81186e-13
-1.34026e-11
1.26349e-12
9.03852e-12
5.4758e-07
-1.18281e-12
3.55815e-12
5.47591e-07
1.22643e-13
-1.09351e-11
1.05375e-12
7.37386e-12
4.4474e-07
-1.15251e-12
2.8114e-12
4.44749e-07
1.36427e-13
-8.5871e-12
1.00905e-12
5.77631e-12
3.57189e-07
-9.69355e-13
1.97277e-12
3.57195e-07
-2.33484e-14
-6.66314e-12
9.82239e-13
4.6938e-12
2.81947e-07
-7.41041e-13
1.12846e-12
2.81952e-07
1.70932e-16
-5.10539e-12
7.36129e-13
3.97121e-12
2.16124e-07
-5.06753e-13
4.05108e-13
2.16128e-07
5.61188e-13
-4.04299e-12
-5.68393e-14
3.63555e-12
1.57593e-07
-1.31683e-13
6.71348e-14
1.57595e-07
4.38267e-14
-1.92864e-12
8.70962e-14
1.85987e-12
2.01709e-07
4.67918e-13
2.0171e-07
-9.10872e-13
4.42193e-13
3.06203e-07
4.40128e-13
7.33968e-13
3.06204e-07
-2.62933e-13
-1.99377e-12
-1.71908e-13
1.17934e-12
5.10477e-07
1.32942e-12
5.28779e-13
5.10484e-07
-1.46064e-12
-7.30645e-12
-1.92073e-14
7.05097e-12
6.84432e-07
2.04582e-12
1.43779e-12
6.84441e-07
-4.71377e-14
-1.43098e-11
-2.05478e-12
1.2742e-11
8.73201e-07
2.54588e-12
4.06191e-12
8.73213e-07
4.65864e-13
-1.7662e-11
-3.05704e-12
1.35893e-11
1.0846e-06
3.01376e-12
6.63055e-12
1.08462e-06
-6.49376e-14
-2.13545e-11
-2.98027e-12
1.47106e-11
1.32674e-06
3.00061e-12
9.24319e-12
1.32676e-06
4.87437e-14
-2.69213e-11
-3.05723e-12
1.76379e-11
1.60738e-06
2.16648e-12
1.15229e-11
1.6074e-06
1.38119e-12
-3.35453e-11
-3.55466e-12
2.20271e-11
1.93454e-06
7.95625e-13
1.39337e-11
1.93457e-06
3.77874e-12
-4.08434e-11
-4.58214e-12
2.69162e-11
2.31668e-06
-5.42986e-13
1.63863e-11
2.31671e-06
5.79739e-12
-4.70763e-11
-5.2661e-12
3.06945e-11
2.76256e-06
-1.65413e-12
1.99976e-11
2.76259e-06
7.1323e-12
-5.45983e-11
-5.50481e-12
3.46225e-11
3.28109e-06
-2.05159e-12
2.41637e-11
3.28113e-06
7.2472e-12
-6.2909e-11
-5.22396e-12
3.87463e-11
3.88117e-06
-1.96038e-12
2.99235e-11
3.88122e-06
6.29201e-12
-7.22738e-11
-4.36474e-12
4.23579e-11
4.57138e-06
-1.56507e-12
3.59591e-11
4.57144e-06
4.59417e-12
-8.25533e-11
-3.05831e-12
4.65873e-11
5.36032e-06
-8.84557e-13
4.19044e-11
5.36038e-06
2.43189e-12
-9.30639e-11
-1.57401e-12
5.11562e-11
6.25527e-06
-2.71106e-14
4.82274e-11
6.25534e-06
5.04016e-14
-1.053e-10
-3.52706e-14
5.70529e-11
6.25526e-06
8.42284e-13
4.83528e-11
6.25533e-06
-2.34272e-12
-1.05404e-10
1.50143e-12
5.70381e-11
5.3603e-06
1.51436e-12
4.19146e-11
5.36036e-06
-4.52456e-12
-9.31006e-11
2.99618e-12
5.12111e-11
4.57136e-06
1.86597e-12
3.5971e-11
4.57142e-06
-6.2104e-12
-8.24771e-11
4.25351e-12
4.66324e-11
3.88115e-06
2.00757e-12
2.97254e-11
3.8812e-06
-7.1905e-12
-7.2234e-11
5.3254e-12
4.2044e-11
3.28109e-06
1.53426e-12
2.43598e-11
3.28113e-06
-7.03201e-12
-6.29101e-11
5.36723e-12
3.90903e-11
2.76255e-06
4.5851e-13
2.00456e-11
2.76258e-06
-5.69858e-12
-5.46318e-11
5.18313e-12
3.44514e-11
2.31667e-06
-8.78493e-13
1.63519e-11
2.3167e-06
-3.61099e-12
-4.72024e-11
4.45275e-12
3.08084e-11
1.93452e-06
-2.22516e-12
1.39176e-11
1.93455e-06
-1.3777e-12
-4.0464e-11
3.57703e-12
2.65298e-11
1.60734e-06
-3.05292e-12
1.15517e-11
1.60736e-06
-2.59498e-15
-3.36111e-11
3.03522e-12
2.20508e-11
1.32669e-06
-3.065e-12
9.27095e-12
1.32671e-06
1.19807e-13
-2.69511e-11
2.92803e-12
1.76776e-11
1.08456e-06
-2.60155e-12
6.62952e-12
1.08457e-06
-4.12306e-13
-2.1397e-11
2.99693e-12
1.47707e-11
8.73162e-07
-2.09992e-12
4.03674e-12
8.73174e-07
2.32109e-14
-1.75798e-11
2.06778e-12
1.35294e-11
6.84391e-07
-1.48817e-12
1.50616e-12
6.844e-07
1.33902e-12
-1.42152e-11
1.43858e-13
1.27031e-11
5.10444e-07
-4.57939e-13
2.59979e-13
5.1045e-07
3.44893e-13
-7.64448e-12
1.11461e-13
7.37916e-12
3.0618e-07
7.68116e-13
3.06182e-07
-1.73862e-12
9.68157e-13
3.88667e-07
6.93259e-13
9.38631e-13
3.88669e-07
-4.96316e-13
-2.86948e-12
-2.04661e-13
1.8581e-12
8.0958e-07
2.03338e-12
7.25159e-13
8.09588e-07
-1.93397e-12
-1.37262e-11
-2.76144e-13
1.34434e-11
1.06463e-06
2.97455e-12
2.81211e-12
1.06464e-06
-7.6147e-14
-2.67987e-11
-2.98302e-12
2.37645e-11
1.33724e-06
3.5912e-12
7.96292e-12
1.33726e-06
8.74882e-13
-3.29881e-11
-4.53452e-12
2.49982e-11
1.64233e-06
4.21986e-12
1.26978e-11
1.64235e-06
1.06144e-13
-3.87907e-11
-4.36825e-12
2.60534e-11
1.99148e-06
4.14082e-12
1.7661e-11
1.9915e-06
3.28809e-13
-4.88578e-11
-4.48782e-12
3.11326e-11
2.39557e-06
2.92465e-12
2.20224e-11
2.39559e-06
2.23613e-12
-6.07556e-11
-5.17129e-12
3.87301e-11
2.86583e-06
9.50624e-13
2.65454e-11
2.86586e-06
5.48012e-12
-7.36661e-11
-6.44041e-12
4.71264e-11
3.41416e-06
-9.73897e-13
3.08195e-11
3.41419e-06
8.3474e-12
-8.48694e-11
-7.39204e-12
5.40633e-11
4.0531e-06
-2.51385e-12
3.69274e-11
4.05314e-06
1.01552e-11
-9.79322e-11
-7.67976e-12
6.10465e-11
4.79564e-06
-3.06332e-12
4.39443e-11
4.79569e-06
1.02604e-11
-1.12343e-10
-7.23926e-12
6.84035e-11
5.65507e-06
-2.89078e-12
5.37619e-11
5.65513e-06
8.87272e-12
-1.28589e-10
-6.02889e-12
7.48392e-11
6.6447e-06
-2.28294e-12
6.42183e-11
6.64477e-06
6.45418e-12
-1.46509e-10
-4.21357e-12
8.22793e-11
7.77829e-06
-1.28543e-12
7.45693e-11
7.77837e-06
3.41819e-12
-1.64947e-10
-2.17108e-12
9.03708e-11
9.06854e-06
-3.87049e-14
8.56595e-11
9.06863e-06
6.89569e-14
-1.86508e-10
-4.83262e-14
1.00809e-10
9.06853e-06
1.22377e-12
8.58768e-11
9.06861e-06
-3.29196e-12
-1.867e-10
2.07377e-12
1.00786e-10
7.77827e-06
2.21376e-12
7.45794e-11
7.77834e-06
-6.34871e-12
-1.65019e-10
4.12654e-12
9.04791e-11
6.64468e-06
2.76214e-12
6.42463e-11
6.64475e-06
-8.78052e-12
-1.46341e-10
5.91335e-12
8.23171e-11
5.65505e-06
2.96556e-12
5.34689e-11
5.65511e-06
-1.01772e-11
-1.28549e-10
7.29381e-12
7.44278e-11
4.79563e-06
2.35618e-12
4.42323e-11
4.79568e-06
-1.00223e-11
-1.12329e-10
7.52861e-12
6.88564e-11
4.05309e-06
8.53959e-13
3.70192e-11
4.05313e-06
-8.18312e-12
-9.80276e-11
7.27007e-12
6.07954e-11
3.41415e-06
-1.06818e-12
3.07569e-11
3.41418e-06
-5.29516e-12
-8.50184e-11
6.31524e-12
5.42084e-11
2.8658e-06
-3.00765e-12
2.65076e-11
2.86583e-06
-2.18578e-12
-7.31254e-11
5.15763e-12
4.65888e-11
2.39552e-06
-4.2131e-12
2.20676e-11
2.39554e-06
-2.57473e-13
-6.08336e-11
4.44035e-12
3.87518e-11
1.99142e-06
-4.29558e-12
1.77225e-11
1.99144e-06
-3.39064e-14
-4.88734e-11
4.30376e-12
3.11439e-11
1.64228e-06
-3.67609e-12
1.27088e-11
1.64229e-06
-8.15204e-13
-3.88385e-11
4.46939e-12
2.61291e-11
1.33719e-06
-3.06037e-12
7.92893e-12
1.3372e-06
5.39723e-14
-3.28548e-11
2.99267e-12
2.49039e-11
1.06457e-06
-2.22947e-12
2.92852e-12
1.06458e-06
1.78717e-12
-2.65966e-11
4.33912e-13
2.36568e-11
8.09535e-07
-7.35166e-13
2.84214e-13
8.09543e-07
5.81264e-13
-1.42786e-11
1.51266e-13
1.39833e-11
3.88641e-07
9.22643e-13
3.88642e-07
-2.51611e-12
1.58849e-12
4.83219e-07
9.34634e-13
1.05285e-12
4.83221e-07
-6.21428e-13
-3.84039e-12
-3.0292e-13
2.7045e-12
1.05375e-06
2.62786e-12
7.41847e-13
1.05376e-06
-2.22414e-12
-2.00546e-11
-5.65924e-13
1.99276e-11
1.37822e-06
3.70039e-12
4.40422e-12
1.37823e-06
-4.89959e-14
-4.05372e-11
-3.74715e-12
3.58443e-11
1.72121e-06
4.38909e-12
1.27101e-11
1.72123e-06
1.23439e-12
-5.05046e-11
-5.70315e-12
3.77514e-11
2.10534e-06
5.1207e-12
2.00627e-11
2.10536e-06
3.14937e-13
-5.86319e-11
-5.48201e-12
3.84964e-11
2.54519e-06
4.98352e-12
2.79068e-11
2.54522e-06
5.96928e-13
-7.39677e-11
-5.5997e-12
4.59695e-11
3.05431e-06
3.46288e-12
3.48668e-11
3.05434e-06
2.93593e-12
-9.21764e-11
-6.40724e-12
5.72957e-11
3.64668e-06
1.00841e-12
4.20148e-11
3.64671e-06
6.88042e-12
-1.11832e-10
-7.89889e-12
6.98249e-11
4.33719e-06
-1.38418e-12
4.8421e-11
4.33723e-06
1.04113e-11
-1.29107e-10
-9.05078e-12
8.07132e-11
5.1416e-06
-3.26772e-12
5.73573e-11
5.14165e-06
1.25765e-11
-1.48813e-10
-9.35654e-12
9.15219e-11
6.07637e-06
-3.931e-12
6.76156e-11
6.07643e-06
1.26663e-11
-1.70597e-10
-8.78816e-12
1.02991e-10
7.15847e-06
-3.68644e-12
8.20863e-11
7.15854e-06
1.09356e-11
-1.95123e-10
-7.30677e-12
1.13054e-10
8.40503e-06
-2.89447e-12
9.76933e-11
8.40511e-06
7.9451e-12
-2.2222e-10
-5.10231e-12
1.24509e-10
9.8339e-06
-1.62531e-12
1.13202e-10
9.83399e-06
4.20833e-12
-2.50155e-10
-2.62951e-12
1.3694e-10
1.14619e-05
-4.88095e-14
1.29899e-10
1.1462e-05
8.34626e-14
-2.82828e-10
-5.71927e-14
1.52865e-10
1.14619e-05
1.54687e-12
1.3022e-10
1.1462e-05
-4.05351e-12
-2.83128e-10
2.51532e-12
1.5284e-10
9.83387e-06
2.80901e-12
1.13209e-10
9.83396e-06
-7.80988e-12
-2.50277e-10
4.99711e-12
1.37119e-10
8.405e-06
3.52882e-12
9.77422e-11
8.40507e-06
-1.08387e-11
-2.21918e-10
7.19364e-12
1.24511e-10
7.15844e-06
3.78794e-12
8.17067e-11
7.15851e-06
-1.25803e-11
-1.95082e-10
8.82926e-12
1.12571e-10
6.07637e-06
3.07778e-12
6.79866e-11
6.07642e-06
-1.24038e-11
-1.70596e-10
9.1814e-12
1.03551e-10
5.14158e-06
1.23474e-12
5.74987e-11
5.14163e-06
-1.01656e-11
-1.49022e-10
8.87058e-12
9.12258e-11
4.33717e-06
-1.15474e-12
4.83241e-11
4.33721e-06
-6.66047e-12
-1.29237e-10
7.7591e-12
8.08553e-11
3.64664e-06
-3.56426e-12
4.19448e-11
3.64668e-06
-2.88229e-12
-1.11097e-10
6.4033e-12
6.91103e-11
3.05425e-06
-5.07021e-12
3.49281e-11
3.05428e-06
-5.38377e-13
-9.22536e-11
5.57089e-12
5.73057e-11
2.54512e-06
-5.21374e-12
2.80104e-11
2.54515e-06
-2.31018e-13
-7.39949e-11
5.41111e-12
4.59735e-11
2.10527e-06
-4.49146e-12
2.00893e-11
2.10529e-06
-1.15035e-12
-5.87045e-11
5.61309e-12
3.86097e-11
1.72115e-06
-3.80021e-12
1.26651e-11
1.72117e-06
5.66098e-14
-5.03327e-11
3.72421e-12
3.76364e-11
1.37815e-06
-2.81797e-12
4.54149e-12
1.37816e-06
2.12101e-12
-4.02445e-11
6.85328e-13
3.56839e-11
1.05369e-06
-9.68388e-13
1.22639e-13
1.0537e-06
7.54975e-13
-2.08226e-11
2.0964e-13
2.0681e-11
4.83187e-07
9.94155e-13
4.83189e-07
-3.33765e-12
2.33474e-12
5.93221e-07
1.18465e-12
1.08727e-12
5.93223e-07
-7.21427e-13
-4.96665e-12
-4.25832e-13
3.75895e-12
1.28439e-06
3.20808e-12
5.87274e-13
1.2844e-06
-2.46271e-12
-2.59119e-11
-8.77537e-13
2.6109e-11
1.68014e-06
4.3817e-12
6.19258e-12
1.68016e-06
4.487e-15
-5.51565e-11
-4.48633e-12
4.86432e-11
2.09357e-06
5.12673e-12
1.82705e-11
2.09359e-06
1.58908e-12
-7.01792e-11
-6.803e-12
5.18527e-11
2.55622e-06
5.93466e-12
2.87471e-11
2.55625e-06
5.6778e-13
-8.10634e-11
-6.55176e-12
5.22056e-11
3.08602e-06
5.73723e-12
4.0002e-11
3.08605e-06
8.98747e-13
-1.02401e-10
-6.65381e-12
6.22756e-11
3.69924e-06
3.92926e-12
5.00761e-11
3.69927e-06
3.63188e-12
-1.27996e-10
-7.56646e-12
7.78932e-11
4.41265e-06
1.02351e-12
6.03307e-11
4.41269e-06
8.24719e-12
-1.55603e-10
-9.28134e-12
9.52849e-11
5.24414e-06
-1.8103e-12
6.91875e-11
5.24418e-06
1.23931e-11
-1.80108e-10
-1.06116e-11
1.10966e-10
6.21267e-06
-4.01923e-12
8.13041e-11
6.21273e-06
1.48892e-11
-2.07679e-10
-1.0927e-11
1.26469e-10
7.33813e-06
-4.78508e-12
9.52179e-11
7.3382e-06
1.49603e-11
-2.3826e-10
-1.02384e-11
1.43058e-10
8.64109e-06
-4.46966e-12
1.14967e-10
8.64117e-06
1.29044e-11
-2.72635e-10
-8.50267e-12
1.5769e-10
1.01424e-05
-3.49568e-12
1.36474e-10
1.01425e-05
9.37066e-12
-3.10627e-10
-5.93564e-12
1.74128e-10
1.18638e-05
-1.95838e-12
1.57911e-10
1.18639e-05
4.96347e-12
-3.49797e-10
-3.05951e-12
1.91867e-10
1.38262e-05
-5.87896e-14
1.81077e-10
1.38263e-05
9.72871e-14
-3.95546e-10
-6.53046e-14
2.14378e-10
1.38262e-05
1.86337e-12
1.81513e-10
1.38263e-05
-4.78187e-12
-3.95978e-10
2.92953e-12
2.14359e-10
1.18638e-05
3.39331e-12
1.57911e-10
1.18639e-05
-9.20786e-12
-3.49983e-10
5.81304e-12
1.92135e-10
1.01424e-05
4.28409e-12
1.36546e-10
1.01424e-05
-1.28026e-11
-3.10152e-10
8.39081e-12
1.74068e-10
8.64106e-06
4.60233e-12
1.14505e-10
8.64114e-06
-1.48763e-11
-2.7259e-10
1.02802e-11
1.57147e-10
7.33813e-06
3.79708e-12
9.56697e-11
7.33819e-06
-1.46751e-11
-2.38305e-10
1.07225e-11
1.43739e-10
6.21265e-06
1.63152e-12
8.15014e-11
6.21271e-06
-1.20646e-11
-2.08051e-10
1.03681e-11
1.26162e-10
5.24412e-06
-1.19788e-12
6.90494e-11
5.24417e-06
-7.98503e-12
-1.80182e-10
9.11854e-12
1.11074e-10
4.41261e-06
-4.04801e-12
6.02172e-11
4.41265e-06
-3.5902e-12
-1.54617e-10
7.58771e-12
9.43444e-11
3.69917e-06
-5.83752e-12
5.01544e-11
3.6992e-06
-8.64931e-13
-1.28063e-10
6.65779e-12
7.78828e-11
3.08593e-06
-6.04345e-12
4.01556e-11
3.08596e-06
-4.7356e-13
-1.02477e-10
6.47541e-12
6.2307e-11
2.55614e-06
-5.24294e-12
2.87896e-11
2.55616e-06
-1.47257e-12
-8.11904e-11
6.67888e-12
5.23903e-11
2.0935e-06
-4.48848e-12
1.82079e-11
2.09352e-06
4.499e-14
-6.99855e-11
4.41787e-12
5.17354e-11
1.68007e-06
-3.37471e-12
6.30973e-12
1.68008e-06
2.43545e-12
-5.48095e-11
9.24156e-13
4.84702e-11
1.28433e-06
-1.20037e-12
-2.1211e-13
1.28434e-06
9.17748e-13
-2.68782e-11
2.77607e-13
2.70613e-11
5.93184e-07
1.00342e-12
5.93186e-07
-4.24874e-12
3.23156e-12
7.21871e-07
1.45482e-12
1.04274e-12
7.21873e-07
-8.41983e-13
-6.26528e-12
-5.49603e-13
5.03889e-12
1.51981e-06
3.80618e-12
2.41015e-13
1.51982e-06
-2.70683e-12
-3.09825e-11
-1.20125e-12
3.1691e-11
1.99229e-06
5.07474e-12
8.15451e-12
1.99231e-06
6.34838e-14
-7.02742e-11
-5.24222e-12
6.18011e-11
2.48058e-06
5.86659e-12
2.45719e-11
2.4806e-06
1.95932e-12
-9.18768e-11
-7.92117e-12
6.72401e-11
3.02605e-06
6.73281e-12
3.87623e-11
3.02608e-06
8.76576e-13
-1.06233e-10
-7.66315e-12
6.73184e-11
3.65054e-06
6.46754e-12
5.39682e-11
3.65057e-06
1.26566e-12
-1.34402e-10
-7.75065e-12
8.02747e-11
4.37329e-06
4.36903e-12
6.76896e-11
4.37333e-06
4.39141e-12
-1.68472e-10
-8.76385e-12
1.00742e-10
5.21404e-06
1.00994e-12
8.1504e-11
5.21408e-06
9.67854e-12
-2.05315e-10
-1.07007e-11
1.23832e-10
6.19383e-06
-2.2696e-12
9.31409e-11
6.19388e-06
1.44374e-11
-2.38298e-10
-1.22023e-11
1.45224e-10
7.33503e-06
-4.80784e-12
1.08803e-10
7.3351e-06
1.72675e-11
-2.75077e-10
-1.25267e-11
1.664e-10
8.66113e-06
-5.67438e-12
1.26803e-10
8.6612e-06
1.73166e-11
-3.1603e-10
-1.17163e-11
1.89251e-10
1.01964e-05
-5.28613e-12
1.52479e-10
1.01965e-05
1.49276e-11
-3.62001e-10
-9.72062e-12
2.09549e-10
1.19657e-05
-4.12221e-12
1.80654e-10
1.19658e-05
1.08374e-11
-4.12807e-10
-6.7857e-12
2.32119e-10
1.39948e-05
-2.3047e-12
2.08817e-10
1.39949e-05
5.74029e-12
-4.65139e-10
-3.49891e-12
2.56296e-10
1.63084e-05
-6.91457e-14
2.39341e-10
1.63086e-05
1.11574e-13
-5.26132e-10
-7.38408e-14
2.86668e-10
1.63084e-05
2.19251e-12
2.39908e-10
1.63085e-05
-5.53132e-12
-5.26721e-10
3.35203e-12
2.86662e-10
1.39947e-05
4.00168e-12
2.08804e-10
1.39949e-05
-1.06474e-11
-4.65403e-10
6.64458e-12
2.56677e-10
1.19657e-05
5.07219e-12
1.80748e-10
1.19658e-05
-1.48193e-11
-4.1212e-10
9.60691e-12
2.31972e-10
1.01964e-05
5.45446e-12
1.51935e-10
1.01965e-05
-1.72336e-11
-3.61949e-10
1.17625e-11
2.08952e-10
8.66112e-06
4.55239e-12
1.27338e-10
8.6612e-06
-1.70128e-11
-3.16155e-10
1.2291e-11
1.90073e-10
7.33501e-06
2.06026e-12
1.09064e-10
7.33507e-06
-1.40303e-11
-2.7566e-10
1.18972e-11
1.66112e-10
6.19381e-06
-1.21317e-12
9.29541e-11
6.19386e-06
-9.37306e-12
-2.38284e-10
1.05125e-11
1.45273e-10
5.21399e-06
-4.50594e-12
8.13356e-11
5.21404e-06
-4.3631e-12
-2.0402e-10
8.81081e-12
1.22614e-10
4.37321e-06
-6.58245e-12
6.77871e-11
4.37325e-06
-1.25607e-12
-1.68523e-10
7.78668e-12
1.00704e-10
3.65044e-06
-6.85817e-12
5.41789e-11
3.65047e-06
-7.72166e-13
-1.34565e-10
7.5807e-12
8.03695e-11
3.02596e-06
-5.99711e-12
3.88193e-11
3.02598e-06
-1.80989e-12
-1.06446e-10
7.7622e-12
6.76111e-11
2.48049e-06
-5.18802e-12
2.44832e-11
2.48051e-06
2.87342e-14
-9.16788e-11
5.12734e-12
6.71405e-11
1.99221e-06
-3.94808e-12
8.27725e-12
1.99222e-06
2.76046e-12
-6.99126e-11
1.16896e-12
6.15925e-11
1.51974e-06
-1.45311e-12
-6.99388e-13
1.51975e-06
1.09899e-12
-3.21228e-11
3.47788e-13
3.27808e-11
7.21827e-07
9.51066e-13
7.21829e-07
-5.26796e-12
4.29679e-12
8.72534e-07
1.7555e-12
9.11062e-13
8.72537e-07
-1.01789e-12
-7.7183e-12
-6.55108e-13
6.54109e-12
1.76982e-06
4.44362e-12
-2.98158e-13
1.76983e-06
-2.99095e-12
-3.5035e-11
-1.52937e-12
3.64418e-11
2.32623e-06
5.81058e-12
1.03064e-11
2.32624e-06
1.13942e-13
-8.54384e-11
-6.03397e-12
7.48462e-11
2.8964e-06
6.64044e-12
3.15681e-11
2.89642e-06
2.35404e-12
-1.15373e-10
-9.0999e-12
8.37361e-11
3.53184e-06
7.5471e-12
5.00678e-11
3.53187e-06
1.25287e-12
-1.34169e-10
-8.86068e-12
8.39048e-11
4.25894e-06
7.20184e-12
6.98069e-11
4.25898e-06
1.71785e-12
-1.70166e-10
-8.93903e-12
1.00159e-10
5.1003e-06
4.7992e-12
8.77063e-11
5.10035e-06
5.25034e-12
-2.13845e-10
-1.0053e-11
1.26082e-10
6.07891e-06
9.69885e-13
1.05543e-10
6.07896e-06
1.12267e-11
-2.6125e-10
-1.22117e-11
1.55739e-10
7.21924e-06
-2.77499e-12
1.20307e-10
7.2193e-06
1.66178e-11
-3.04051e-10
-1.38838e-11
1.83838e-10
8.54736e-06
-5.65713e-12
1.39891e-10
8.54744e-06
1.97976e-11
-3.51503e-10
-1.42184e-11
2.11776e-10
1.00906e-05
-6.62635e-12
1.62418e-10
1.00907e-05
1.98201e-11
-4.04551e-10
-1.32799e-11
2.42165e-10
1.18775e-05
-6.16163e-12
1.94692e-10
1.18776e-05
1.70782e-11
-4.64042e-10
-1.10082e-11
2.69382e-10
1.39368e-05
-4.79407e-12
2.30327e-10
1.39369e-05
1.23979e-11
-5.29778e-10
-7.68573e-12
2.99408e-10
1.62987e-05
-2.67531e-12
2.66058e-10
1.62989e-05
6.56679e-12
-5.974e-10
-3.9652e-12
3.31307e-10
1.89924e-05
-8.01873e-14
3.04859e-10
1.89926e-05
1.26865e-13
-6.76014e-10
-8.32816e-14
3.70995e-10
1.89924e-05
2.54486e-12
3.05579e-10
1.89925e-05
-6.32875e-12
-6.76787e-10
3.7994e-12
3.71006e-10
1.62987e-05
4.65378e-12
2.66014e-10
1.62988e-05
-1.218e-11
-5.97756e-10
7.52418e-12
3.31838e-10
1.39367e-05
5.91805e-12
2.30441e-10
1.39368e-05
-1.69612e-11
-5.2884e-10
1.08891e-11
2.99152e-10
1.18774e-05
6.36979e-12
1.94065e-10
1.18775e-05
-1.97361e-11
-4.63981e-10
1.33306e-11
2.68735e-10
1.00906e-05
5.36677e-12
1.63045e-10
1.00907e-05
-1.95029e-11
-4.04785e-10
1.39505e-11
2.43145e-10
8.54733e-06
2.53345e-12
1.40223e-10
8.5474e-06
-1.61367e-11
-3.5234e-10
1.35198e-11
2.11529e-10
7.21921e-06
-1.20352e-12
1.20064e-10
7.21927e-06
-1.08782e-11
-3.03923e-10
1.19973e-11
1.83803e-10
6.07885e-06
-4.95604e-12
1.0531e-10
6.0789e-06
-5.23284e-12
-2.59592e-10
1.01221e-11
1.54193e-10
5.10021e-06
-7.33339e-12
8.78275e-11
5.10025e-06
-1.72866e-12
-2.13873e-10
9.00254e-12
1.26007e-10
4.25883e-06
-7.69092e-12
7.00818e-11
4.25886e-06
-1.13795e-12
-1.70451e-10
8.77101e-12
1.00351e-10
3.53173e-06
-6.78712e-12
5.01363e-11
3.53176e-06
-2.17352e-12
-1.34499e-10
8.90759e-12
8.43429e-11
2.8963e-06
-5.93168e-12
3.14419e-11
2.89632e-06
1.82755e-14
-1.15187e-10
5.87512e-12
8.36756e-11
2.32613e-06
-4.56443e-12
1.04351e-11
2.32614e-06
3.12003e-12
-8.50981e-11
1.4221e-12
7.46042e-11
1.76973e-06
-1.74163e-12
-1.32376e-12
1.76974e-06
1.32396e-12
-3.63194e-11
4.09913e-13
3.75872e-11
8.72482e-07
8.24587e-13
8.72485e-07
-6.38833e-12
5.53589e-12
1.04886e-06
2.09825e-12
6.73984e-13
1.04886e-06
-1.2835e-12
-9.26818e-12
-7.22616e-13
8.2359e-12
2.04132e-06
5.13823e-12
-1.04235e-12
2.04132e-06
-3.34788e-12
-3.79214e-11
-1.84937e-12
4.02236e-11
2.68988e-06
6.61177e-12
1.26154e-11
2.68989e-06
1.38763e-13
-1.00135e-10
-6.86834e-12
8.72923e-11
3.35097e-06
7.46967e-12
3.92337e-11
3.35099e-06
2.77581e-12
-1.40351e-10
-1.03642e-11
1.01049e-10
4.08567e-06
8.39551e-12
6.26342e-11
4.0857e-06
1.70899e-12
-1.64773e-10
-1.01755e-11
1.01894e-10
4.92571e-06
7.95334e-12
8.74912e-11
4.92575e-06
2.27558e-12
-2.09702e-10
-1.02533e-11
1.21963e-10
5.89749e-06
5.2263e-12
1.10074e-10
5.89754e-06
6.23793e-12
-2.64192e-10
-1.14703e-11
1.54043e-10
7.02763e-06
9.01451e-13
1.32398e-10
7.02768e-06
1.29297e-11
-3.23533e-10
-1.38507e-11
1.91181e-10
8.3444e-06
-3.33729e-12
1.50687e-10
8.34446e-06
1.89836e-11
-3.77578e-10
-1.56952e-11
2.27014e-10
9.87793e-06
-6.58422e-12
1.74594e-10
9.87801e-06
2.25361e-11
-4.37267e-10
-1.60422e-11
2.62878e-10
1.16599e-05
-7.66006e-12
2.02094e-10
1.166e-05
2.25265e-11
-5.04256e-10
-1.49662e-11
3.02203e-10
1.37231e-05
-7.11442e-12
2.4166e-10
1.37232e-05
1.94041e-11
-5.79356e-10
-1.23956e-11
3.37735e-10
1.6101e-05
-5.52534e-12
2.85583e-10
1.61012e-05
1.40872e-11
-6.62308e-10
-8.65708e-12
3.76671e-10
1.88287e-05
-3.07786e-12
3.29775e-10
1.88289e-05
7.46155e-12
-7.47544e-10
-4.46976e-12
4.17726e-10
2.19398e-05
-9.21348e-14
3.77794e-10
2.194e-05
1.43531e-13
-8.46345e-10
-9.39681e-14
4.68347e-10
2.19398e-05
2.92778e-12
3.78695e-10
2.194e-05
-7.19202e-12
-8.47334e-10
4.28238e-12
4.68375e-10
1.88287e-05
5.36342e-12
3.29678e-10
1.88288e-05
-1.38401e-11
-7.48007e-10
8.47256e-12
4.18448e-10
1.6101e-05
6.83937e-12
2.85713e-10
1.61011e-05
-1.9276e-11
-6.6108e-10
1.2267e-11
3.76285e-10
1.3723e-05
7.36626e-12
2.40947e-10
1.37232e-05
-2.24387e-11
-5.79288e-10
1.50197e-11
3.37043e-10
1.16599e-05
6.2571e-12
2.02827e-10
1.166e-05
-2.22025e-11
-5.04627e-10
1.57415e-11
3.03357e-10
9.87789e-06
3.06174e-12
1.75008e-10
9.87798e-06
-1.84337e-11
-4.38393e-10
1.52755e-11
2.62691e-10
8.34437e-06
-1.16752e-12
1.50379e-10
8.34443e-06
-1.2539e-11
-3.77311e-10
1.36101e-11
2.26876e-10
7.02756e-06
-5.40564e-12
1.3209e-10
7.02761e-06
-6.22639e-12
-3.21461e-10
1.15557e-11
1.89262e-10
5.89738e-06
-8.10439e-12
1.10225e-10
5.89743e-06
-2.30091e-12
-2.64196e-10
1.03374e-11
1.53922e-10
4.92557e-06
-8.56049e-12
8.78387e-11
4.92561e-06
-1.583e-12
-2.10139e-10
1.00771e-11
1.22281e-10
4.08554e-06
-7.63517e-12
6.27086e-11
4.08557e-06
-2.56742e-12
-1.65249e-10
1.01413e-11
1.02515e-10
3.35085e-06
-6.74317e-12
3.90574e-11
3.35087e-06
2.83954e-14
-1.40192e-10
6.67016e-12
1.01048e-10
2.68976e-06
-5.24381e-12
1.26967e-11
2.68977e-06
3.54139e-12
-9.98458e-11
1.67644e-12
8.70716e-11
2.04122e-06
-2.07994e-12
-2.13113e-12
2.04122e-06
1.62112e-12
-3.9314e-11
4.49566e-13
4.13725e-11
1.0488e-06
5.98988e-13
1.0488e-06
-7.56911e-12
6.93302e-12
1.25481e-06
2.49744e-12
2.99552e-13
1.25482e-06
-1.67797e-12
-1.08064e-11
-7.295e-13
1.00586e-11
2.34022e-06
5.90878e-12
-2.03059e-12
2.34022e-06
-3.81668e-12
-3.95672e-11
-2.14252e-12
4.2998e-11
3.08987e-06
7.49959e-12
1.49596e-11
3.08988e-06
1.12649e-13
-1.13826e-10
-7.74239e-12
9.87187e-11
3.85264e-06
8.37264e-12
4.75663e-11
3.85267e-06
3.22117e-12
-1.66352e-10
-1.17297e-11
1.18724e-10
4.69786e-06
9.29048e-12
7.64547e-11
4.69789e-06
2.25741e-12
-1.97808e-10
-1.16333e-11
1.21059e-10
5.66331e-06
8.7288e-12
1.06996e-10
5.66335e-06
2.9605e-12
-2.52825e-10
-1.17227e-11
1.45529e-10
6.77977e-06
5.6519e-12
1.34756e-10
6.77982e-06
7.38232e-12
-3.19361e-10
-1.30461e-11
1.84509e-10
8.07791e-06
8.00704e-13
1.62021e-10
8.07797e-06
1.48202e-11
-3.92047e-10
-1.5647e-11
2.30087e-10
9.59027e-06
-3.96667e-12
1.84257e-10
9.59034e-06
2.15751e-11
-4.58808e-10
-1.76668e-11
2.74705e-10
1.13515e-05
-7.60355e-12
2.12902e-10
1.13516e-05
2.55283e-11
-5.32365e-10
-1.80291e-11
3.19714e-10
1.33979e-05
-8.79107e-12
2.45829e-10
1.3398e-05
2.54797e-11
-6.15231e-10
-1.68037e-11
3.69453e-10
1.57675e-05
-8.15973e-12
2.93401e-10
1.57676e-05
2.19434e-11
-7.0816e-10
-1.39061e-11
4.14804e-10
1.84985e-05
-6.32779e-12
3.46479e-10
1.84987e-05
1.59335e-11
-8.1074e-10
-9.71651e-12
4.64195e-10
2.16315e-05
-3.51864e-12
4.00071e-10
2.16316e-05
8.43951e-12
-9.16086e-10
-5.02172e-12
5.15962e-10
2.52051e-05
-1.05174e-13
4.58259e-10
2.52053e-05
1.61879e-13
-1.03778e-09
-1.06203e-13
5.79264e-10
2.52051e-05
3.34727e-12
4.5937e-10
2.52053e-05
-8.1355e-12
-1.03902e-09
4.80943e-12
5.79312e-10
2.16314e-05
6.1421e-12
3.99898e-10
2.16316e-05
-1.56554e-11
-9.16669e-10
9.50585e-12
5.16918e-10
1.84984e-05
7.85105e-12
3.46619e-10
1.84986e-05
-2.18011e-11
-8.09181e-10
1.37632e-11
4.6366e-10
1.57674e-05
8.45871e-12
2.926e-10
1.57675e-05
-2.53848e-11
-7.08088e-10
1.68568e-11
4.14072e-10
1.33979e-05
7.23781e-12
2.46684e-10
1.3398e-05
-2.5157e-11
-6.15762e-10
1.76953e-11
3.7079e-10
1.13514e-05
3.65528e-12
2.1341e-10
1.13515e-05
-2.09628e-11
-5.3381e-10
1.71954e-11
3.19594e-10
9.59023e-06
-1.10153e-12
1.8388e-10
9.5903e-06
-1.43891e-11
-4.58381e-10
1.53805e-11
2.74443e-10
8.07783e-06
-5.85705e-12
1.61629e-10
8.07789e-06
-7.37017e-12
-3.89519e-10
1.314e-11
2.27758e-10
6.77964e-06
-8.90311e-12
1.3495e-10
6.77969e-06
-2.9928e-12
-3.19338e-10
1.18189e-11
1.8433e-10
5.66315e-06
-9.48003e-12
1.07428e-10
5.6632e-06
-2.11969e-12
-2.53442e-10
1.15246e-11
1.45993e-10
4.69771e-06
-8.56029e-12
7.65275e-11
4.69774e-06
-2.98941e-12
-1.98455e-10
1.14803e-11
1.21897e-10
3.85251e-06
-7.64457e-12
4.73288e-11
3.85253e-06
8.22631e-14
-1.66235e-10
7.51146e-12
1.18801e-10
3.08974e-06
-6.00631e-12
1.49503e-11
3.08974e-06
4.05942e-12
-1.13611e-10
1.91717e-12
9.85626e-11
2.3401e-06
-2.48412e-12
-3.19507e-12
2.3401e-06
2.02496e-12
-4.10261e-11
4.48303e-13
4.41296e-11
1.25474e-06
2.33077e-13
1.25474e-06
-8.72315e-12
8.44211e-12
1.4947e-06
2.97075e-12
-2.61968e-13
1.49471e-06
-2.24707e-12
-1.216e-11
-6.49542e-13
1.18996e-11
2.67224e-06
6.77685e-12
-3.31448e-12
2.67224e-06
-4.4468e-12
-3.99425e-11
-2.38231e-12
4.47836e-11
3.53251e-06
8.49753e-12
1.7257e-11
3.53252e-06
-2.47069e-15
-1.26008e-10
-8.6426e-12
1.08699e-10
4.40937e-06
9.36789e-12
5.65112e-11
4.4094e-06
3.67863e-12
-1.9277e-10
-1.32045e-11
1.36207e-10
5.3783e-06
1.02424e-11
9.15299e-11
5.37834e-06
2.90979e-12
-2.32855e-10
-1.32572e-11
1.40977e-10
6.48379e-06
9.53163e-12
1.28303e-10
6.48383e-06
3.79598e-12
-2.99153e-10
-1.3375e-11
1.70492e-10
7.76159e-06
6.07457e-12
1.61751e-10
7.76164e-06
8.71251e-12
-3.78949e-10
-1.48087e-11
2.17075e-10
9.24699e-06
6.62261e-13
1.94404e-10
9.24705e-06
1.69295e-11
-4.66353e-10
-1.76269e-11
2.72023e-10
1.09773e-05
-4.67342e-12
2.20986e-10
1.09774e-05
2.44286e-11
-5.47288e-10
-1.98248e-11
3.26492e-10
1.29921e-05
-8.7286e-12
2.54762e-10
1.29922e-05
2.88144e-11
-6.36365e-10
-2.02062e-11
3.81905e-10
1.53332e-05
-1.00334e-11
2.93566e-10
1.53334e-05
2.87184e-11
-7.37071e-10
-1.88176e-11
4.43568e-10
1.8044e-05
-9.31179e-12
3.49879e-10
1.80441e-05
2.47303e-11
-8.50127e-10
-1.55598e-11
5.00302e-10
2.11684e-05
-7.21233e-12
4.12987e-10
2.11685e-05
1.7962e-11
-9.74837e-10
-1.0879e-11
5.61773e-10
2.47527e-05
-4.0033e-12
4.76935e-10
2.47529e-05
9.51416e-12
-1.10288e-09
-5.62938e-12
6.25883e-10
2.88415e-05
-1.19478e-13
5.46256e-10
2.88417e-05
1.82203e-13
-1.25024e-09
-1.20293e-13
7.03666e-10
2.88414e-05
3.8088e-12
5.47605e-10
2.88417e-05
-9.17217e-12
-1.25176e-09
5.38824e-12
7.0374e-10
2.47526e-05
7.00047e-12
4.76668e-10
2.47528e-05
-1.76509e-11
-1.1036e-09
1.06384e-11
6.27113e-10
2.11683e-05
8.96702e-12
4.13129e-10
2.11685e-05
-2.45704e-11
-9.72912e-10
1.53975e-11
5.61074e-10
1.80439e-05
9.66066e-12
3.48982e-10
1.8044e-05
-2.86126e-11
-8.5006e-10
1.88656e-11
4.99543e-10
1.53332e-05
8.32243e-12
2.94563e-10
1.53333e-05
-2.84072e-11
-7.37787e-10
1.98394e-11
4.45095e-10
1.29921e-05
4.32445e-12
2.55381e-10
1.29922e-05
-2.37616e-11
-6.3815e-10
1.93068e-11
3.81848e-10
1.09772e-05
-1.00045e-12
2.20535e-10
1.09773e-05
-1.64606e-11
-5.46685e-10
1.73352e-11
3.26088e-10
9.24689e-06
-6.30961e-12
1.9392e-10
9.24696e-06
-8.69164e-12
-4.63336e-10
1.49018e-11
2.69258e-10
7.76144e-06
-9.73391e-12
1.61988e-10
7.76149e-06
-3.82614e-12
-3.789e-10
1.34729e-11
2.16842e-10
6.48361e-06
-1.04607e-11
1.28822e-10
6.48365e-06
-2.75961e-12
-2.99972e-10
1.31362e-11
1.71125e-10
5.37813e-06
-9.58163e-12
9.15853e-11
5.37817e-06
-3.4292e-12
-2.33695e-10
1.29334e-11
1.42073e-10
4.40922e-06
-8.66005e-12
5.62014e-11
4.40924e-06
2.15787e-13
-1.92702e-10
8.3873e-12
1.36375e-10
3.53236e-06
-6.87453e-12
1.7125e-11
3.53236e-06
4.71985e-12
-1.25883e-10
2.12117e-12
1.08636e-10
2.6721e-06
-2.97273e-12
-4.59272e-12
2.6721e-06
2.57754e-12
-4.142e-11
3.82621e-13
4.59003e-11
1.49462e-06
-3.34365e-13
1.49462e-06
-9.70233e-12
9.97617e-12
1.77315e-06
3.53987e-12
-1.08266e-12
1.77316e-06
-3.0497e-12
-1.30726e-11
-4.46841e-13
1.35896e-11
3.04333e-06
7.7681e-12
-4.95261e-12
3.04333e-06
-5.31055e-12
-3.9054e-11
-2.52323e-12
4.56422e-11
4.02433e-06
9.6328e-12
1.93897e-11
4.02433e-06
-2.62463e-13
-1.36263e-10
-9.54156e-12
1.16927e-10
5.02924e-06
1.04767e-11
6.59095e-11
5.02926e-06
4.12458e-12
-2.18864e-10