/*--------------------------------*- C++ -*----------------------------------*\
  =========                 |
  \\      /  F ield         | OpenFOAM: The Open Source CFD Toolbox
   \\    /   O peration     | Website:  https://openfoam.org
    \\  /    A nd           | Version:  6
     \\/     M anipulation  |
\*---------------------------------------------------------------------------*/
FoamFile
{
    version     2.0;
    format      ascii;
    class       volVectorField;
    location    "20";
    object      U;
}
// * * * * * * * * * * * * * * * * * * * * * * * * * * * * * * * * * * * * * //

dimensions      [0 1 -1 0 0 0 0];

internalField   nonuniform List<vector> 
3240
(
(0.0453075 1.9174e-10 2.64063e-12)
(0.0453077 1.10827e-09 -1.21433e-10)
(0.0453079 -1.06355e-09 7.22134e-11)
(0.0305115 9.50297e-10 6.62343e-12)
(0.0305123 -1.29712e-09 -1.906e-11)
(0.0305125 2.95177e-10 1.57258e-11)
(0.0360682 2.13584e-09 1.21901e-12)
(0.0360691 -1.26267e-09 -5.29929e-11)
(0.0360693 -8.86487e-10 4.91006e-11)
(0.0405578 2.55194e-09 6.91145e-12)
(0.0405589 9.29825e-10 -5.81468e-11)
(0.0405593 -3.51381e-09 5.0891e-11)
(0.0442891 3.42018e-09 1.64931e-11)
(0.0442902 -2.64533e-10 -8.72504e-11)
(0.0442908 -3.16323e-09 7.07821e-11)
(0.0475331 3.75386e-09 2.14546e-11)
(0.0475344 -6.66385e-10 -9.75207e-11)
(0.047535 -3.08535e-09 7.49997e-11)
(0.0504458 3.43352e-09 2.47568e-11)
(0.0504471 2.16265e-13 -1.13946e-10)
(0.0504477 -3.41636e-09 8.95816e-11)
(0.0531148 1.89869e-09 2.83805e-11)
(0.0531162 2.64078e-09 -1.39288e-10)
(0.0531168 -4.53076e-09 1.11488e-10)
(0.0555803 3.75693e-10 3.4286e-11)
(0.0555817 5.52137e-09 -1.34906e-10)
(0.0555823 -5.89781e-09 1.00709e-10)
(0.0578435 -1.23525e-09 4.35843e-11)
(0.0578449 7.78099e-09 -1.44331e-10)
(0.0578457 -6.5656e-09 1.00916e-10)
(0.0598749 -2.18028e-09 5.20583e-11)
(0.0598763 8.70936e-09 -1.52241e-10)
(0.0598771 -6.56054e-09 1.00116e-10)
(0.0616259 -2.25854e-09 6.15379e-11)
(0.0616273 8.17332e-09 -1.58675e-10)
(0.0616282 -5.94216e-09 9.71406e-11)
(0.0630364 -2.05174e-09 6.73232e-11)
(0.0630378 6.5618e-09 -1.62213e-10)
(0.0630387 -4.54797e-09 9.47885e-11)
(0.0640549 -1.42825e-09 7.00077e-11)
(0.0640562 4.18916e-09 -1.60703e-10)
(0.0640572 -2.77899e-09 9.07208e-11)
(0.0646236 -5.31073e-10 7.0715e-11)
(0.0646248 1.44159e-09 -1.58707e-10)
(0.0646258 -9.44048e-10 8.8011e-11)
(0.0646234 4.67185e-10 7.0881e-11)
(0.0646246 -1.32455e-09 -1.58946e-10)
(0.0646256 8.62302e-10 8.80992e-11)
(0.0640546 1.38008e-09 7.00644e-11)
(0.0640558 -4.09667e-09 -1.60441e-10)
(0.0640568 2.69477e-09 9.0645e-11)
(0.063036 1.95302e-09 6.72405e-11)
(0.0630373 -6.4933e-09 -1.62291e-10)
(0.0630383 4.43863e-09 9.55264e-11)
(0.0616255 2.20568e-09 6.01898e-11)
(0.0616269 -8.07705e-09 -1.55644e-10)
(0.0616278 6.01994e-09 9.0901e-11)
(0.0598749 2.09223e-09 5.31869e-11)
(0.0598763 -8.60098e-09 -1.57114e-10)
(0.0598771 6.60058e-09 1.10257e-10)
(0.0578432 1.10253e-09 4.33337e-11)
(0.0578446 -7.60785e-09 -1.44819e-10)
(0.0578453 6.31915e-09 1.00701e-10)
(0.05558 -4.86403e-10 3.3958e-11)
(0.0555815 -5.28832e-09 -1.36298e-10)
(0.0555821 5.68002e-09 1.02022e-10)
(0.053114 -1.98396e-09 2.81659e-11)
(0.0531154 -2.57484e-09 -1.26587e-10)
(0.053116 4.52247e-09 9.84758e-11)
(0.0504442 -3.48816e-09 2.46692e-11)
(0.0504455 -4.71406e-11 -1.14767e-10)
(0.0504461 3.50992e-09 9.01913e-11)
(0.0475309 -3.805e-09 2.10111e-11)
(0.0475321 6.64055e-10 -1.00743e-10)
(0.0475327 3.11698e-09 8.0077e-11)
(0.0442867 -3.45246e-09 1.5604e-11)
(0.0442879 3.71398e-10 -9.01848e-11)
(0.0442884 3.05529e-09 7.51187e-11)
(0.0405555 -2.57955e-09 6.19202e-12)
(0.0405566 -8.30197e-10 -5.70849e-11)
(0.040557 3.38907e-09 5.06957e-11)
(0.0360656 -2.13917e-09 2.77695e-12)
(0.0360665 1.35391e-09 -5.34614e-11)
(0.0360667 7.72172e-10 5.06531e-11)
(0.0305092 -1.011e-09 3.15465e-12)
(0.03051 1.34621e-09 -2.305e-11)
(0.0305102 -3.39561e-10 1.98837e-11)
(0.0453036 -8.23242e-12 4.72273e-11)
(0.0453038 -5.64517e-10 -9.61358e-11)
(0.045304 5.71002e-10 4.88074e-11)
(0.0618932 1.71119e-10 5.47154e-11)
(0.0618934 1.2998e-09 -1.71301e-10)
(0.0618937 -1.261e-09 1.00724e-10)
(0.0889404 2.37045e-09 3.7267e-11)
(0.0889424 -3.78371e-09 -3.91197e-10)
(0.0889428 9.72553e-10 3.73685e-10)
(0.102789 5.43962e-09 6.53241e-11)
(0.102791 -3.22498e-09 -6.71185e-10)
(0.102792 -2.36156e-09 6.01241e-10)
(0.113038 6.18599e-09 1.56699e-10)
(0.11304 2.70766e-09 -7.16782e-10)
(0.113041 -9.06553e-09 5.60596e-10)
(0.121025 8.19404e-09 2.27034e-10)
(0.121027 5.57336e-11 -7.66382e-10)
(0.121028 -8.32497e-09 5.39583e-10)
(0.12761 8.85184e-09 2.75591e-10)
(0.127612 -6.74878e-10 -8.41858e-10)
(0.127613 -8.2362e-09 5.65772e-10)
(0.133263 7.89146e-09 2.98114e-10)
(0.133266 1.29691e-09 -9.08386e-10)
(0.133267 -9.2151e-09 6.10339e-10)
(0.13825 4.01291e-09 3.13187e-10)
(0.138252 7.38393e-09 -9.51263e-10)
(0.138253 -1.14065e-08 6.37735e-10)
(0.142707 2.24312e-10 3.21882e-10)
(0.142709 1.38908e-08 -9.57886e-10)
(0.142711 -1.41297e-08 6.35856e-10)
(0.146685 -3.6186e-09 3.44755e-10)
(0.146687 1.91574e-08 -9.65462e-10)
(0.146688 -1.55972e-08 6.20932e-10)
(0.15017 -5.7578e-09 3.64075e-10)
(0.150173 2.11039e-08 -9.64119e-10)
(0.150174 -1.54329e-08 6.00097e-10)
(0.153117 -5.83023e-09 3.93191e-10)
(0.153119 1.9576e-08 -9.5877e-10)
(0.153121 -1.38234e-08 5.65733e-10)
(0.155454 -5.14356e-09 4.09936e-10)
(0.155456 1.55354e-08 -9.46738e-10)
(0.155458 -1.04969e-08 5.36821e-10)
(0.157122 -3.51779e-09 4.134e-10)
(0.157125 9.85036e-09 -9.22367e-10)
(0.157126 -6.39356e-09 5.08918e-10)
(0.158047 -1.29871e-09 4.11041e-10)
(0.158049 3.38679e-09 -9.00562e-10)
(0.158051 -2.18238e-09 4.89344e-10)
(0.158047 1.14907e-09 4.12182e-10)
(0.158049 -3.11127e-09 -9.01287e-10)
(0.158051 1.98004e-09 4.89068e-10)
(0.157122 3.41391e-09 4.13531e-10)
(0.157124 -9.61571e-09 -9.23042e-10)
(0.157126 6.19058e-09 5.09531e-10)
(0.155453 4.95703e-09 4.10205e-10)
(0.155455 -1.53601e-08 -9.4606e-10)
(0.155457 1.02966e-08 5.37318e-10)
(0.153116 5.62047e-09 3.93078e-10)
(0.153118 -1.9347e-08 -9.58413e-10)
(0.15312 1.37575e-08 5.66953e-10)
(0.15017 5.48635e-09 3.64842e-10)
(0.150173 -2.08849e-08 -9.6176e-10)
(0.150174 1.53703e-08 5.95736e-10)
(0.146684 3.37108e-09 3.45834e-10)
(0.146686 -1.88639e-08 -9.64687e-10)
(0.146688 1.52905e-08 6.1594e-10)
(0.142706 -4.81549e-10 3.21504e-10)
(0.142709 -1.35801e-08 -9.6171e-10)
(0.14271 1.39003e-08 6.39016e-10)
(0.138248 -4.21983e-09 3.13184e-10)
(0.138251 -7.19575e-09 -9.5106e-10)
(0.138252 1.13335e-08 6.37283e-10)
(0.13326 -8.02851e-09 2.99426e-10)
(0.133262 -1.06447e-09 -9.11347e-10)
(0.133264 9.02741e-09 6.11441e-10)
(0.127605 -8.99751e-09 2.76892e-10)
(0.127607 8.07845e-10 -8.40316e-10)
(0.127609 8.13068e-09 5.62945e-10)
(0.12102 -8.32837e-09 2.2758e-10)
(0.121022 9.43285e-11 -7.65507e-10)
(0.121023 8.18886e-09 5.37669e-10)
(0.113033 -6.35194e-09 1.5585e-10)
(0.113035 -2.66679e-09 -7.12798e-10)
(0.113036 8.98906e-09 5.56327e-10)
(0.102783 -5.58382e-09 6.81993e-11)
(0.102785 3.17371e-09 -6.67326e-10)
(0.102786 2.3854e-09 5.9886e-10)
(0.0889346 -2.86457e-09 1.88447e-11)
(0.0889366 3.34397e-09 -4.14627e-10)
(0.088937 -4.88059e-10 3.95529e-10)
(0.0618887 -3.88872e-11 6.70832e-11)
(0.0618888 -7.31553e-10 -1.46226e-10)
(0.0618891 7.68393e-10 7.89535e-11)
(0.0707031 2.72401e-10 5.66326e-11)
(0.0707033 1.46082e-09 -2.59616e-10)
(0.0707036 -1.4462e-09 1.66746e-10)
(0.126944 3.4131e-09 5.80365e-11)
(0.126946 -4.91086e-09 -9.64686e-10)
(0.126946 9.6683e-10 9.39073e-10)
(0.143894 7.21686e-09 1.64298e-10)
(0.143896 -4.05756e-09 -1.614e-09)
(0.143897 -3.35963e-09 1.43421e-09)
(0.155793 7.93963e-09 4.01541e-10)
(0.155795 3.8036e-09 -1.7029e-09)
(0.155796 -1.1975e-08 1.2997e-09)
(0.164928 1.03667e-08 5.5731e-10)
(0.16493 6.10424e-10 -1.74615e-09)
(0.164931 -1.10823e-08 1.18712e-09)
(0.172386 1.10834e-08 6.69181e-10)
(0.172388 -2.63965e-10 -1.89603e-09)
(0.172389 -1.09003e-08 1.2235e-09)
(0.178742 9.7451e-09 7.19486e-10)
(0.178745 2.24438e-09 -2.03467e-09)
(0.178746 -1.20252e-08 1.31535e-09)
(0.184316 4.69384e-09 7.48816e-10)
(0.184318 9.93753e-09 -2.13789e-09)
(0.18432 -1.46463e-08 1.38967e-09)
(0.189274 -2.17492e-10 7.53347e-10)
(0.189276 1.8131e-08 -2.113e-09)
(0.189278 -1.79357e-08 1.35999e-09)
(0.193681 -5.11182e-09 7.84077e-10)
(0.193684 2.46516e-08 -2.10392e-09)
(0.193685 -1.96181e-08 1.32078e-09)
(0.197533 -7.76003e-09 8.09312e-10)
(0.197536 2.69414e-08 -2.08237e-09)
(0.197537 -1.92959e-08 1.27302e-09)
(0.200782 -7.78061e-09 8.57709e-10)
(0.200785 2.48805e-08 -2.05659e-09)
(0.200787 -1.72013e-08 1.19901e-09)
(0.203356 -6.78244e-09 8.85268e-10)
(0.203358 1.96753e-08 -2.02124e-09)
(0.20336 -1.30282e-08 1.13568e-09)
(0.205192 -4.60306e-09 8.87341e-10)
(0.205194 1.24503e-08 -1.96158e-09)
(0.205196 -7.92504e-09 1.07413e-09)
(0.206208 -1.69393e-09 8.79205e-10)
(0.20621 4.27615e-09 -1.91219e-09)
(0.206212 -2.70335e-09 1.03257e-09)
(0.206208 1.49968e-09 8.81426e-10)
(0.20621 -3.93207e-09 -1.91424e-09)
(0.206212 2.45612e-09 1.03242e-09)
(0.205191 4.47127e-09 8.87493e-10)
(0.205193 -1.21496e-08 -1.9621e-09)
(0.205195 7.67985e-09 1.07525e-09)
(0.203355 6.56094e-09 8.85499e-10)
(0.203358 -1.94315e-08 -2.01925e-09)
(0.203359 1.2796e-08 1.13679e-09)
(0.200782 7.47058e-09 8.50949e-10)
(0.200784 -2.46595e-08 -2.05402e-09)
(0.200786 1.70971e-08 1.18602e-09)
(0.197533 7.3778e-09 8.16485e-10)
(0.197536 -2.67104e-08 -2.08574e-09)
(0.197537 1.91909e-08 1.29132e-09)
(0.193681 4.81937e-09 7.85841e-10)
(0.193683 -2.42234e-08 -2.10612e-09)
(0.193685 1.92477e-08 1.3156e-09)
(0.189273 -1.15699e-10 7.51638e-10)
(0.189276 -1.76994e-08 -2.11775e-09)
(0.189277 1.76417e-08 1.36462e-09)
(0.184314 -4.95929e-09 7.47532e-10)
(0.184317 -9.70336e-09 -2.11176e-09)
(0.184318 1.45623e-08 1.36344e-09)
(0.178739 -9.91298e-09 7.20813e-10)
(0.178741 -1.97375e-09 -2.0378e-09)
(0.178743 1.18031e-08 1.31656e-09)
(0.172381 -1.12729e-08 6.71153e-10)
(0.172383 4.25711e-10 -1.89897e-09)
(0.172384 1.0771e-08 1.22779e-09)
(0.164922 -1.0555e-08 5.57248e-10)
(0.164924 -4.22699e-10 -1.7503e-09)
(0.164926 1.09184e-08 1.19343e-09)
(0.155787 -8.17134e-09 3.99365e-10)
(0.15579 -3.75518e-09 -1.69514e-09)
(0.155791 1.18872e-08 1.29449e-09)
(0.143887 -7.42455e-09 1.72638e-10)
(0.143889 3.98374e-09 -1.60181e-09)
(0.143889 3.40777e-09 1.42851e-09)
(0.126937 -4.03349e-09 2.58418e-11)
(0.126939 4.37439e-09 -1.00546e-09)
(0.126939 -3.53363e-10 9.78904e-10)
(0.0706983 -7.19232e-11 8.59754e-11)
(0.0706984 -7.71718e-10 -2.15436e-10)
(0.0706988 8.41041e-10 1.29091e-10)
(0.07911 3.57325e-10 1.07995e-10)
(0.0791102 1.52684e-09 -3.46668e-10)
(0.0791105 -1.55628e-09 2.34205e-10)
(0.148702 4.14731e-09 6.88373e-11)
(0.148703 -5.22693e-09 -1.5386e-09)
(0.148704 6.37078e-10 1.51714e-09)
(0.167645 8.14587e-09 2.77465e-10)
(0.167647 -4.32508e-09 -2.61571e-09)
(0.167648 -4.01931e-09 2.31677e-09)
(0.180468 8.79755e-09 6.86253e-10)
(0.18047 4.42908e-09 -2.7812e-09)
(0.180471 -1.34686e-08 2.09216e-09)
(0.190275 1.1353e-08 9.35999e-10)
(0.190277 1.11043e-09 -2.7946e-09)
(0.190279 -1.2575e-08 1.85517e-09)
(0.198278 1.20585e-08 1.12169e-09)
(0.19828 1.64786e-10 -3.03256e-09)
(0.198282 -1.23022e-08 1.90642e-09)
(0.205097 1.05108e-08 1.20655e-09)
(0.2051 2.84912e-09 -3.25395e-09)
(0.205101 -1.33845e-08 2.04715e-09)
(0.211075 4.85532e-09 1.25352e-09)
(0.211078 1.13696e-08 -3.40726e-09)
(0.211079 -1.62371e-08 2.15428e-09)
(0.216392 -6.48126e-10 1.24913e-09)
(0.216395 2.04566e-08 -3.37853e-09)
(0.216396 -1.98342e-08 2.13008e-09)
(0.221119 -6.08952e-09 1.28185e-09)
(0.221122 2.75411e-08 -3.35629e-09)
(0.221123 -2.15403e-08 2.07593e-09)
(0.22525 -8.97871e-09 1.30789e-09)
(0.225253 2.99576e-08 -3.31592e-09)
(0.225255 -2.1108e-08 2.00813e-09)
(0.228736 -8.956e-09 1.37324e-09)
(0.228739 2.76111e-08 -3.2692e-09)
(0.228741 -1.87683e-08 1.8962e-09)
(0.231498 -7.75597e-09 1.41097e-09)
(0.231501 2.18092e-08 -3.20921e-09)
(0.231503 -1.42026e-08 1.7979e-09)
(0.233468 -5.24007e-09 1.41053e-09)
(0.233471 1.37925e-08 -3.11342e-09)
(0.233473 -8.63588e-09 1.70271e-09)
(0.23456 -1.92446e-09 1.39574e-09)
(0.234562 4.73352e-09 -3.03408e-09)
(0.234564 -2.94246e-09 1.63765e-09)
(0.23456 1.70326e-09 1.39919e-09)
(0.234562 -4.35694e-09 -3.03733e-09)
(0.234564 2.67993e-09 1.63741e-09)
(0.233468 5.09096e-09 1.41067e-09)
(0.23347 -1.34591e-08 -3.11467e-09)
(0.233472 8.37731e-09 1.70477e-09)
(0.231497 7.51433e-09 1.41151e-09)
(0.2315 -2.15197e-08 -3.20526e-09)
(0.231502 1.39542e-08 1.79846e-09)
(0.228735 8.58562e-09 1.36257e-09)
(0.228738 -2.74394e-08 -3.26957e-09)
(0.22874 1.86889e-08 1.88069e-09)
(0.22525 8.5298e-09 1.31969e-09)
(0.225253 -2.97421e-08 -3.31552e-09)
(0.225254 2.10014e-08 2.02929e-09)
(0.221118 5.77303e-09 1.28493e-09)
(0.221121 -2.69801e-08 -3.3606e-09)
(0.221122 2.10838e-08 2.06897e-09)
(0.216392 2.71563e-10 1.24646e-09)
(0.216394 -1.98805e-08 -3.38306e-09)
(0.216396 1.94358e-08 2.1349e-09)
(0.211074 -5.15146e-09 1.25137e-09)
(0.211076 -1.11238e-08 -3.37652e-09)
(0.211077 1.61671e-08 2.12391e-09)
(0.205093 -1.06898e-08 1.20858e-09)
(0.205096 -2.66595e-09 -3.25716e-09)
(0.205097 1.3264e-08 2.0479e-09)
(0.198272 -1.22673e-08 1.12549e-09)
(0.198274 -3.14426e-11 -3.03525e-09)
(0.198276 1.22137e-08 1.9095e-09)
(0.190269 -1.15641e-08 9.36692e-10)
(0.190271 -8.78709e-10 -2.79951e-09)
(0.190273 1.23708e-08 1.86289e-09)
(0.180462 -9.04571e-09 6.8344e-10)
(0.180464 -4.32286e-09 -2.77069e-09)
(0.180465 1.33177e-08 2.08542e-09)
(0.167637 -8.35756e-09 2.8766e-10)
(0.167639 4.31758e-09 -2.5961e-09)
(0.16764 3.99999e-09 2.30727e-09)
(0.148694 -4.69974e-09 2.04521e-11)
(0.148696 4.84772e-09 -1.59855e-09)
(0.148696 -1.63813e-10 1.57677e-09)
(0.0791048 -1.24419e-10 1.0079e-10)
(0.079105 -7.72317e-10 -3.014e-10)
(0.0791053 8.9366e-10 1.99924e-10)
(0.087404 4.28546e-10 1.05723e-10)
(0.0874042 1.48828e-09 -4.65397e-10)
(0.0874045 -1.58529e-09 3.42076e-10)
(0.163119 4.7279e-09 6.22172e-11)
(0.16312 -5.25595e-09 -2.07942e-09)
(0.163121 2.2302e-10 2.07958e-09)
(0.183927 8.73166e-09 4.0709e-10)
(0.183929 -4.39124e-09 -3.70108e-09)
(0.18393 -4.5192e-09 3.26907e-09)
(0.197552 9.31034e-09 1.0259e-09)
(0.197554 4.8329e-09 -4.00638e-09)
(0.197555 -1.43799e-08 2.97678e-09)
(0.207915 1.18732e-08 1.39163e-09)
(0.207917 1.57543e-09 -3.99263e-09)
(0.207919 -1.35605e-08 2.59556e-09)
(0.216361 1.25367e-08 1.66818e-09)
(0.216363 6.09366e-10 -4.34032e-09)
(0.216365 -1.32188e-08 2.66636e-09)
(0.223556 1.08478e-08 1.79814e-09)
(0.223558 3.35934e-09 -4.66992e-09)
(0.22356 -1.42189e-08 2.87102e-09)
(0.229862 4.82557e-09 1.8674e-09)
(0.229865 1.2373e-08 -4.89324e-09)
(0.229866 -1.72078e-08 3.02646e-09)
(0.23547 -1.0469e-09 1.84995e-09)
(0.235472 2.20044e-08 -4.86886e-09)
(0.235474 -2.09861e-08 3.0201e-09)
(0.240455 -6.82891e-09 1.88074e-09)
(0.240457 2.9396e-08 -4.8364e-09)
(0.240459 -2.26629e-08 2.95788e-09)
(0.244813 -9.8492e-09 1.90426e-09)
(0.244815 3.18614e-08 -4.77958e-09)
(0.244817 -2.21513e-08 2.87557e-09)
(0.248491 -9.79159e-09 1.9868e-09)
(0.248494 2.93288e-08 -4.71235e-09)
(0.248495 -1.96581e-08 2.7259e-09)
(0.251406 -8.44219e-09 2.03529e-09)
(0.251409 2.31543e-08 -4.62641e-09)
(0.251411 -1.48706e-08 2.59069e-09)
(0.253486 -5.68461e-09 2.03119e-09)
(0.253489 1.46399e-08 -4.48923e-09)
(0.253491 -9.04215e-09 2.4578e-09)
(0.254639 -2.08397e-09 2.00824e-09)
(0.254641 5.02145e-09 -4.37515e-09)
(0.254643 -3.079e-09 2.36591e-09)
(0.254639 1.84384e-09 2.01309e-09)
(0.254641 -4.62564e-09 -4.37994e-09)
(0.254643 2.80959e-09 2.36568e-09)
(0.253486 5.52265e-09 2.03127e-09)
(0.253488 -1.42869e-08 -4.49132e-09)
(0.25349 8.7774e-09 2.46103e-09)
(0.251405 8.18439e-09 2.03624e-09)
(0.251408 -2.28348e-08 -4.61977e-09)
(0.25141 1.46101e-08 2.59036e-09)
(0.24849 9.38499e-09 1.97466e-09)
(0.248493 -2.92017e-08 -4.71289e-09)
(0.248495 1.96134e-08 2.70989e-09)
(0.244812 9.35877e-09 1.91771e-09)
(0.244815 -3.16616e-08 -4.77947e-09)
(0.244817 2.20534e-08 2.89824e-09)
(0.240454 6.49363e-09 1.88529e-09)
(0.240456 -2.87329e-08 -4.84459e-09)
(0.240458 2.21306e-08 2.95025e-09)
(0.235469 6.40491e-10 1.84616e-09)
(0.235471 -2.13087e-08 -4.87214e-09)
(0.235473 2.04945e-08 3.02425e-09)
(0.22986 -5.14145e-09 1.8639e-09)
(0.229862 -1.21259e-08 -4.8559e-09)
(0.229864 1.71541e-08 2.99028e-09)
(0.223552 -1.10324e-08 1.80089e-09)
(0.223554 -3.27845e-09 -4.67286e-09)
(0.223556 1.42142e-08 2.87108e-09)
(0.216355 -1.27565e-08 1.67427e-09)
(0.216357 -5.14399e-10 -4.34421e-09)
(0.216359 1.31802e-08 2.66951e-09)
(0.207908 -1.20962e-08 1.39326e-09)
(0.20791 -1.3051e-09 -3.99953e-09)
(0.207912 1.33186e-08 2.60603e-09)
(0.197545 -9.55867e-09 1.0222e-09)
(0.197547 -4.66148e-09 -3.99397e-09)
(0.197548 1.41586e-08 2.96929e-09)
(0.183919 -8.92686e-09 4.16821e-10)
(0.183921 4.47367e-09 -3.67595e-09)
(0.183922 4.40727e-09 3.25726e-09)
(0.163111 -5.15234e-09 -2.47896e-12)
(0.163112 5.10913e-09 -2.15741e-09)
(0.163113 2.43488e-11 2.15776e-09)
(0.0873985 -2.00149e-10 1.05302e-10)
(0.0873986 -7.28831e-10 -3.9395e-10)
(0.087399 9.25501e-10 2.87491e-10)
(0.0957196 5.12065e-10 1.13374e-10)
(0.0957198 1.36026e-09 -5.84203e-10)
(0.0957202 -1.55357e-09 4.56447e-10)
(0.17371 5.19543e-09 3.89655e-11)
(0.173711 -5.2261e-09 -2.56671e-09)
(0.173711 -1.54468e-10 2.60482e-09)
(0.196282 9.14208e-09 5.51327e-10)
(0.196284 -4.39075e-09 -4.84765e-09)
(0.196284 -4.91035e-09 4.2706e-09)
(0.210656 9.65393e-09 1.41825e-09)
(0.210658 5.10011e-09 -5.37753e-09)
(0.210659 -1.49841e-08 3.95492e-09)
(0.221508 1.21567e-08 1.92569e-09)
(0.221511 2.02194e-09 -5.35129e-09)
(0.221512 -1.42918e-08 3.41792e-09)
(0.230337 1.27584e-08 2.30962e-09)
(0.23034 1.08195e-09 -5.82777e-09)
(0.230341 -1.39097e-08 3.51083e-09)
(0.237853 1.09631e-08 2.49486e-09)
(0.237856 3.86714e-09 -6.28775e-09)
(0.237857 -1.4834e-08 3.79156e-09)
(0.244438 4.70384e-09 2.5899e-09)
(0.244441 1.31784e-08 -6.60092e-09)
(0.244442 -1.78909e-08 4.01187e-09)
(0.250292 -1.41533e-09 2.555e-09)
(0.250295 2.31481e-08 -6.58935e-09)
(0.250296 -2.17646e-08 4.03618e-09)
(0.255496 -7.42848e-09 2.57977e-09)
(0.255498 3.0726e-08 -6.55119e-09)
(0.2555 -2.33992e-08 3.97446e-09)
(0.260046 -1.05209e-08 2.59745e-09)
(0.260048 3.32042e-08 -6.48195e-09)
(0.26005 -2.28302e-08 3.88493e-09)
(0.263887 -1.04362e-08 2.69739e-09)
(0.26389 3.0536e-08 -6.39587e-09)
(0.263892 -2.0227e-08 3.69895e-09)
(0.266932 -8.96943e-09 2.75711e-09)
(0.266935 2.41022e-08 -6.28352e-09)
(0.266937 -1.52987e-08 3.52586e-09)
(0.269105 -6.02312e-09 2.74822e-09)
(0.269108 1.52379e-08 -6.10036e-09)
(0.26911 -9.30525e-09 3.3518e-09)
(0.27031 -2.20415e-09 2.71569e-09)
(0.270312 5.22426e-09 -5.94674e-09)
(0.270314 -3.16864e-09 3.22967e-09)
(0.270309 1.9498e-09 2.72214e-09)
(0.270312 -4.81537e-09 -5.95336e-09)
(0.270314 2.89469e-09 3.22956e-09)
(0.269104 5.85115e-09 2.74816e-09)
(0.269107 -1.48715e-08 -6.10359e-09)
(0.269109 9.03582e-09 3.35657e-09)
(0.266931 8.69786e-09 2.75849e-09)
(0.266934 -2.37632e-08 -6.27349e-09)
(0.266936 1.50283e-08 3.5242e-09)
(0.263886 1.00076e-08 2.68433e-09)
(0.263889 -3.04412e-08 -6.39602e-09)
(0.263891 2.02097e-08 3.68293e-09)
(0.260045 1.00041e-08 2.61208e-09)
(0.260048 -3.30157e-08 -6.48346e-09)
(0.26005 2.27402e-08 3.9091e-09)
(0.255495 7.0778e-09 2.58589e-09)
(0.255498 -2.99944e-08 -6.56439e-09)
(0.255499 2.28121e-08 3.9668e-09)
(0.250291 9.87197e-10 2.54978e-09)
(0.250294 -2.23696e-08 -6.59023e-09)
(0.250295 2.12062e-08 4.03871e-09)
(0.244436 -5.03382e-09 2.58462e-09)
(0.244438 -1.29327e-08 -6.55452e-09)
(0.24444 1.7849e-08 3.96766e-09)
(0.237849 -1.11523e-08 2.49837e-09)
(0.237851 -3.86591e-09 -6.29006e-09)
(0.237853 1.49179e-08 3.79054e-09)
(0.230331 -1.29866e-08 2.31836e-09)
(0.230333 -1.01816e-09 -5.83477e-09)
(0.230335 1.391e-08 3.51582e-09)
(0.221501 -1.23884e-08 1.92828e-09)
(0.221504 -1.72472e-09 -5.36197e-09)
(0.221505 1.40225e-08 3.43313e-09)
(0.210648 -9.90016e-09 1.41317e-09)
(0.21065 -4.87733e-09 -5.36436e-09)
(0.210652 1.47076e-08 3.94795e-09)
(0.196273 -9.32003e-09 5.62629e-10)
(0.196275 4.55052e-09 -4.81998e-09)
(0.196276 4.71908e-09 4.25456e-09)
(0.173701 -5.5032e-09 -3.83897e-11)
(0.173702 5.28525e-09 -2.66101e-09)
(0.173703 1.966e-10 2.69626e-09)
(0.0957138 -3.02871e-10 1.02903e-10)
(0.095714 -6.28926e-10 -4.93087e-10)
(0.0957143 9.279e-10 3.88442e-10)
(0.104124 6.15673e-10 1.03759e-10)
(0.104124 1.13456e-09 -7.27101e-10)
(0.104125 -1.45793e-09 6.00792e-10)
(0.18205 5.58403e-09 1.58155e-13)
(0.182051 -5.22818e-09 -2.97407e-09)
(0.182051 -4.52662e-10 3.06541e-09)
(0.206256 9.45458e-09 7.12132e-10)
(0.206257 -4.38289e-09 -6.01848e-09)
(0.206258 -5.21536e-09 5.28222e-09)
(0.221363 9.90683e-09 1.86029e-09)
(0.221365 5.26502e-09 -6.88075e-09)
(0.221367 -1.53974e-08 5.01572e-09)
(0.232671 1.23023e-08 2.53499e-09)
(0.232673 2.4574e-09 -6.87025e-09)
(0.232675 -1.48767e-08 4.32513e-09)
(0.241844 1.28251e-08 3.04467e-09)
(0.241847 1.58463e-09 -7.49882e-09)
(0.241848 -1.44798e-08 4.44501e-09)
(0.249646 1.09427e-08 3.29469e-09)
(0.249648 4.39774e-09 -8.11264e-09)
(0.24965 -1.53416e-08 4.81598e-09)
(0.256476 4.52842e-09 3.41864e-09)
(0.256479 1.38778e-08 -8.53502e-09)
(0.25648 -1.84167e-08 5.11756e-09)
(0.262547 -1.75945e-09 3.36247e-09)
(0.262549 2.40488e-08 -8.54622e-09)
(0.262551 -2.23251e-08 5.18634e-09)
(0.267942 -7.9366e-09 3.37734e-09)
(0.267945 3.17447e-08 -8.50835e-09)
(0.267946 -2.39151e-08 5.135e-09)
(0.27266 -1.10635e-08 3.38595e-09)
(0.272662 3.42145e-08 -8.43229e-09)
(0.272664 -2.33047e-08 5.04695e-09)
(0.276643 -1.0959e-08 3.50367e-09)
(0.276646 3.14409e-08 -8.33065e-09)
(0.276648 -2.06149e-08 4.82756e-09)
(0.279802 -9.3966e-09 3.57517e-09)
(0.279805 2.48158e-08 -8.19279e-09)
(0.279807 -1.55921e-08 4.61692e-09)
(0.282057 -6.29494e-09 3.56071e-09)
(0.282059 1.56887e-08 -7.95953e-09)
(0.282062 -9.48868e-09 4.39837e-09)
(0.283306 -2.29949e-09 3.5173e-09)
(0.283309 5.377e-09 -7.7619e-09)
(0.283311 -3.23291e-09 4.24278e-09)
(0.283306 2.03392e-09 3.52559e-09)
(0.283309 -4.95843e-09 -7.77073e-09)
(0.283311 2.95497e-09 4.24284e-09)
(0.282056 6.115e-09 3.56031e-09)
(0.282059 -1.53125e-08 -7.96404e-09)
(0.282061 9.21457e-09 4.40512e-09)
(0.279801 9.11309e-09 3.57693e-09)
(0.279804 -2.44642e-08 -8.1787e-09)
(0.279806 1.53131e-08 4.61352e-09)
(0.276642 1.05169e-08 3.48954e-09)
(0.276645 -3.13676e-08 -8.33042e-09)
(0.276647 2.06152e-08 4.8115e-09)
(0.272659 1.05299e-08 3.40195e-09)
(0.272662 -3.40334e-08 -8.4361e-09)
(0.272664 2.32193e-08 5.07324e-09)
(0.267941 7.57378e-09 3.38533e-09)
(0.267944 -3.09715e-08 -8.52797e-09)
(0.267945 2.32923e-08 5.12822e-09)
(0.262546 1.31558e-09 3.35562e-09)
(0.262548 -2.32193e-08 -8.5439e-09)
(0.26255 2.1724e-08 5.18659e-09)
(0.256474 -4.86915e-09 3.41118e-09)
(0.256476 -1.36339e-08 -8.4774e-09)
(0.256478 1.83817e-08 5.06336e-09)
(0.249641 -1.1137e-08 3.29912e-09)
(0.249643 -4.45047e-09 -8.11414e-09)
(0.249645 1.54841e-08 4.81357e-09)
(0.241838 -1.30609e-08 3.05644e-09)
(0.24184 -1.54256e-09 -7.51073e-09)
(0.241842 1.45058e-08 4.45358e-09)
(0.232663 -1.25418e-08 2.53842e-09)
(0.232666 -2.1442e-09 -6.88653e-09)
(0.232667 1.45898e-08 4.34724e-09)
(0.221356 -1.01519e-08 1.85314e-09)
(0.221358 -5.00733e-09 -6.86791e-09)
(0.221359 1.50832e-08 5.01062e-09)
(0.206247 -9.61843e-09 7.21553e-10)
(0.206249 4.60006e-09 -5.99112e-09)
(0.206249 4.96469e-09 5.26565e-09)
(0.182041 -5.80079e-09 -8.72095e-11)
(0.182042 5.44158e-09 -3.08239e-09)
(0.182042 3.3592e-10 3.16527e-09)
(0.104118 -4.3678e-10 9.37032e-11)
(0.104118 -4.60418e-10 -6.04231e-10)
(0.104118 8.92855e-10 5.08057e-10)
(0.112645 7.46359e-10 8.55707e-11)
(0.112645 8.02007e-10 -8.83594e-10)
(0.112646 -1.29428e-09 7.66709e-10)
(0.188973 5.91843e-09 -5.71351e-11)
(0.188973 -5.30847e-09 -3.28334e-09)
(0.188974 -6.50015e-10 3.44583e-09)
(0.214642 9.71106e-09 8.84088e-10)
(0.214643 -4.40643e-09 -7.17329e-09)
(0.214643 -5.43865e-09 6.26885e-09)
(0.230486 1.01105e-08 2.34733e-09)
(0.230488 5.33967e-09 -8.49457e-09)
(0.230489 -1.56743e-08 6.14245e-09)
(0.242231 1.23609e-08 3.21861e-09)
(0.242234 2.88402e-09 -8.54713e-09)
(0.242235 -1.53686e-08 5.31577e-09)
(0.251727 1.27875e-08 3.87141e-09)
(0.251729 2.11823e-09 -9.35667e-09)
(0.251731 -1.49806e-08 5.47402e-09)
(0.25979 1.08287e-08 4.19558e-09)
(0.259792 4.96187e-09 -1.0148e-08)
(0.259794 -1.57943e-08 5.94975e-09)
(0.266844 4.31711e-09 4.35095e-09)
(0.266846 1.4517e-08 -1.07012e-08)
(0.266848 -1.88489e-08 6.35181e-09)
(0.273109 -2.084e-09 4.27149e-09)
(0.273112 2.4789e-08 -1.07469e-08)
(0.273114 -2.27454e-08 6.4789e-09)
(0.278677 -8.37961e-09 4.27326e-09)
(0.27868 3.25596e-08 -1.07171e-08)
(0.278682 -2.42921e-08 6.44885e-09)
(0.283545 -1.15137e-08 4.26965e-09)
(0.283548 3.50067e-08 -1.06415e-08)
(0.28355 -2.36528e-08 6.37272e-09)
(0.287657 -1.13962e-08 4.40581e-09)
(0.28766 3.21476e-08 -1.05293e-08)
(0.287662 -2.08899e-08 6.12421e-09)
(0.290917 -9.75468e-09 4.4901e-09)
(0.29092 2.5377e-08 -1.03679e-08)
(0.290922 -1.58021e-08 5.87694e-09)
(0.293245 -6.52055e-09 4.46977e-09)
(0.293248 1.60438e-08 -1.00815e-08)
(0.29325 -9.62359e-09 5.6112e-09)
(0.294535 -2.37754e-09 4.41417e-09)
(0.294538 5.4973e-09 -9.83574e-09)
(0.29454 -3.28229e-09 5.41923e-09)
(0.294535 2.10286e-09 4.42462e-09)
(0.294537 -5.07109e-09 -9.84713e-09)
(0.294539 3.00016e-09 5.4195e-09)
(0.293244 6.33427e-09 4.46874e-09)
(0.293247 -1.566e-08 -1.00876e-08)
(0.293249 9.34417e-09 5.62051e-09)
(0.290916 9.46068e-09 4.4922e-09)
(0.290919 -2.50179e-08 -1.03491e-08)
(0.290921 1.55154e-08 5.87143e-09)
(0.287656 1.09465e-08 4.39065e-09)
(0.287659 -3.20868e-08 -1.05286e-08)
(0.287661 2.08984e-08 6.10816e-09)
(0.283545 1.09701e-08 4.28727e-09)
(0.283548 -3.48295e-08 -1.06485e-08)
(0.28355 2.3568e-08 6.40157e-09)
(0.278676 8.00779e-09 4.28329e-09)
(0.278679 -3.17669e-08 -1.0744e-08)
(0.278681 2.36502e-08 6.44338e-09)
(0.273108 1.62922e-09 4.26273e-09)
(0.273111 -2.39353e-08 -1.07405e-08)
(0.273113 2.21224e-08 6.4761e-09)
(0.266841 -4.66647e-09 4.34096e-09)
(0.266844 -1.42746e-08 -1.06302e-08)
(0.266845 1.8816e-08 6.2857e-09)
(0.259785 -1.10296e-08 4.20123e-09)
(0.259787 -5.04424e-09 -1.01485e-08)
(0.259789 1.59677e-08 5.94551e-09)
(0.25172 -1.30313e-08 3.88661e-09)
(0.251722 -2.08853e-09 -9.37517e-09)
(0.251724 1.50199e-08 5.48776e-09)
(0.242224 -1.26082e-08 3.22262e-09)
(0.242226 -2.56445e-09 -8.57078e-09)
(0.242228 1.50729e-08 5.34697e-09)
(0.230478 -1.03561e-08 2.33725e-09)
(0.23048 -5.06294e-09 -8.48314e-09)
(0.230481 1.53391e-08 6.1407e-09)
(0.214632 -9.8656e-09 8.92493e-10)
(0.214634 4.65986e-09 -7.14883e-09)
(0.214634 5.14993e-09 6.2511e-09)
(0.188963 -6.07083e-09 -1.51248e-10)
(0.188964 5.62169e-09 -3.40297e-09)
(0.188964 4.24371e-10 3.54847e-09)
(0.112638 -6.0616e-10 7.60188e-11)
(0.112639 -2.10183e-10 -7.24828e-10)
(0.112639 8.11523e-10 6.45458e-10)
(0.121283 9.10593e-10 5.48556e-11)
(0.121283 3.54001e-10 -1.04603e-09)
(0.121284 -1.05886e-09 9.50361e-10)
(0.194972 6.21926e-09 -1.34379e-10)
(0.194972 -5.49624e-09 -3.48494e-09)
(0.194972 -7.33865e-10 3.73792e-09)
(0.221895 9.93923e-09 1.06369e-09)
(0.221896 -4.49537e-09 -8.27109e-09)
(0.221897 -5.57416e-09 7.19255e-09)
(0.238485 1.02907e-08 2.88036e-09)
(0.238486 5.32285e-09 -1.01926e-08)
(0.238487 -1.58396e-08 7.30769e-09)
(0.250665 1.23625e-08 3.97389e-09)
(0.250667 3.2999e-09 -1.03716e-08)
(0.250669 -1.57957e-08 6.38219e-09)
(0.260471 1.26743e-08 4.78925e-09)
(0.260473 2.682e-09 -1.13982e-08)
(0.260474 -1.54401e-08 6.59539e-09)
(0.26878 1.06445e-08 5.19634e-09)
(0.268782 5.56375e-09 -1.23938e-08)
(0.268784 -1.62192e-08 7.19391e-09)
(0.276042 4.07931e-09 5.38648e-09)
(0.276044 1.5121e-08 -1.30999e-08)
(0.276046 -1.92217e-08 7.71546e-09)
(0.282488 -2.39234e-09 5.28193e-09)
(0.28249 2.54152e-08 -1.31937e-08)
(0.282492 -2.30687e-08 7.91624e-09)
(0.288214 -8.77323e-09 5.26757e-09)
(0.288216 3.32307e-08 -1.31817e-08)
(0.288218 -2.45746e-08 7.92037e-09)
(0.29322 -1.18927e-08 5.24884e-09)
(0.293223 3.56441e-08 -1.3116e-08)
(0.293225 -2.39169e-08 7.86825e-09)
(0.297448 -1.17693e-08 5.40449e-09)
(0.297451 3.27143e-08 -1.30004e-08)
(0.297453 -2.10891e-08 7.59671e-09)
(0.300801 -1.00617e-08 5.50302e-09)
(0.300804 2.58314e-08 -1.2819e-08)
(0.300806 -1.59566e-08 7.31491e-09)
(0.303195 -6.71168e-09 5.47706e-09)
(0.303198 1.63319e-08 -1.24778e-08)
(0.3032 -9.72702e-09 6.99997e-09)
(0.304522 -2.44265e-09 5.40797e-09)
(0.304525 5.59503e-09 -1.21802e-08)
(0.304527 -3.32253e-09 6.76931e-09)
(0.304522 2.16043e-09 5.42095e-09)
(0.304525 -5.1625e-09 -1.21947e-08)
(0.304527 3.03564e-09 6.76982e-09)
(0.303194 6.52042e-09 5.47505e-09)
(0.303197 -1.5942e-08 -1.24855e-08)
(0.303199 9.44138e-09 7.0125e-09)
(0.3008 9.75842e-09 5.50535e-09)
(0.300803 -2.54687e-08 -1.27947e-08)
(0.300805 1.56628e-08 7.30694e-09)
(0.297447 1.13159e-08 5.38803e-09)
(0.29745 -3.2658e-08 -1.29993e-08)
(0.297452 2.10968e-08 7.5805e-09)
(0.293219 1.1344e-08 5.26858e-09)
(0.293222 -3.54677e-08 -1.31265e-08)
(0.293224 2.3829e-08 7.90029e-09)
(0.288212 8.39546e-09 5.28e-09)
(0.288215 -3.24372e-08 -1.32171e-08)
(0.288217 2.3928e-08 7.91672e-09)
(0.282487 1.93083e-09 5.27105e-09)
(0.282489 -2.45602e-08 -1.31826e-08)
(0.282491 2.24413e-08 7.90984e-09)
(0.276039 -4.4359e-09 5.37362e-09)
(0.276041 -1.48796e-08 -1.30136e-08)
(0.276043 1.91866e-08 7.63561e-09)
(0.268775 -1.08538e-08 5.20388e-09)
(0.268777 -5.65409e-09 -1.23932e-08)
(0.268779 1.63991e-08 7.18713e-09)
(0.260463 -1.29269e-08 4.80827e-09)
(0.260466 -2.65611e-09 -1.14248e-08)
(0.260467 1.54815e-08 6.61568e-09)
(0.250657 -1.26181e-08 3.97805e-09)
(0.250659 -2.98231e-09 -1.04042e-08)
(0.250661 1.54988e-08 6.42468e-09)
(0.238476 -1.05387e-08 2.86633e-09)
(0.238478 -5.04169e-09 -1.01835e-08)
(0.238479 1.54983e-08 7.31081e-09)
(0.221886 -1.00891e-08 1.06697e-09)
(0.221887 4.76466e-09 -8.2515e-09)
(0.221887 5.26742e-09 7.17774e-09)
(0.194962 -6.33156e-09 -2.34653e-10)
(0.194962 5.85893e-09 -3.61237e-09)
(0.194963 4.46794e-10 3.83974e-09)
(0.121276 -8.14971e-10 4.63372e-11)
(0.121277 1.34363e-10 -8.48423e-10)
(0.121277 6.75287e-10 7.97694e-10)
(0.130018 1.11417e-09 7.74187e-12)
(0.130018 -2.14826e-10 -1.19956e-09)
(0.130019 -7.50374e-10 1.14246e-09)
(0.200363 6.50402e-09 -2.35211e-10)
(0.200363 -5.81214e-09 -3.56811e-09)
(0.200363 -6.96462e-10 3.93352e-09)
(0.228307 1.016e-08 1.24483e-09)
(0.228307 -4.6844e-09 -9.27173e-09)
(0.228308 -5.60802e-09 8.01909e-09)
(0.245644 1.04654e-08 3.45443e-09)
(0.245645 5.20326e-09 -1.19391e-08)
(0.245646 -1.58997e-08 8.48073e-09)