/*--------------------------------*- C++ -*----------------------------------*\
  =========                 |
  \\      /  F ield         | OpenFOAM: The Open Source CFD Toolbox
   \\    /   O peration     | Website:  https://openfoam.org
    \\  /    A nd           | Version:  6
     \\/     M anipulation  |
\*---------------------------------------------------------------------------*/
FoamFile
{
    version     2.0;
    format      ascii;
    class       volVectorField;
    location    "35";
    object      wallShearStress;
}
// * * * * * * * * * * * * * * * * * * * * * * * * * * * * * * * * * * * * * //

dimensions      [0 2 -2 0 0 0 0];

internalField   uniform (0 0 0);

boundaryField
{
    inlet
    {
        type            calculated;
        value           uniform (0 0 0);
    }
    outlet
    {
        type            calculated;
        value           uniform (0 0 0);
    }
    roughCylinder
    {
        type            calculated;
        value           nonuniform List<vector> 
5120
(
(-0.00024231 -0.000343568 -0.000172541)
(-0.000296893 -0.000446 -3.95701e-05)
(-0.000330195 -0.00053707 1.55428e-06)
(-0.000375358 -0.00062381 5.53269e-05)
(-0.000431236 -0.000698448 0.000116713)
(-0.000494332 -0.000756657 0.000177883)
(-0.000561063 -0.000795962 0.000234549)
(-0.000626807 -0.000817014 0.000284036)
(-0.00068769 -0.00082253 0.000324399)
(-0.000742115 -0.000817937 0.000355271)
(-0.000790598 -0.000811813 0.00037858)
(-0.000832942 -0.000808112 0.000395622)
(-0.000866963 -0.000807596 0.000405493)
(-0.000895692 -0.000812136 0.000409158)
(-0.000920324 -0.000821092 0.000407685)
(-0.000942179 -0.000833756 0.000402085)
(-0.000962589 -0.000849394 0.000393362)
(-0.000982706 -0.000867389 0.00038234)
(-0.0010034 -0.000887315 0.000369638)
(-0.00102526 -0.000908895 0.000355638)
(-0.00104858 -0.000931968 0.000340517)
(-0.00107347 -0.000956413 0.000324286)
(-0.00109987 -0.000982107 0.000306851)
(-0.00112762 -0.00100889 0.000288032)
(-0.00115647 -0.00103651 0.000267577)
(-0.00118609 -0.00106467 0.000245148)
(-0.00121607 -0.0010929 0.000220283)
(-0.00124582 -0.00112057 0.00019231)
(-0.00127451 -0.00114682 0.000160188)
(-0.00130066 -0.00117022 0.00012247)
(-0.00132169 -0.00118913 7.72664e-05)
(-0.00133343 -0.00120017 2.61329e-05)
(-0.000260255 -0.000332471 -0.000163026)
(-0.000317929 -0.000432234 -4.20574e-05)
(-0.000353718 -0.000522094 -4.12459e-06)
(-0.000400906 -0.000608637 4.63974e-05)
(-0.000458401 -0.000684317 0.000105327)
(-0.000522978 -0.000744257 0.000164848)
(-0.000591037 -0.000785621 0.000220454)
(-0.000658243 -0.000809 0.000269375)
(-0.000721378 -0.000817588 0.000309836)
(-0.000779271 -0.0008173 0.000341915)
(-0.000831743 -0.000814775 0.000367135)
(-0.000877598 -0.000812359 0.000385971)
(-0.000913943 -0.00081035 0.000396715)
(-0.000944122 -0.000813866 0.000400874)
(-0.000970205 -0.00082217 0.00039969)
(-0.000993428 -0.000834505 0.000394295)
(-0.00101519 -0.00085002 0.000385732)
(-0.00103667 -0.000868027 0.00037487)
(-0.00105876 -0.000888029 0.000362359)
(-0.00108207 -0.000909709 0.000348593)
(-0.00110689 -0.000932874 0.000333754)
(-0.00113333 -0.000957399 0.000317864)
(-0.00116132 -0.000983144 0.000300822)
(-0.00119069 -0.00100994 0.000282445)
(-0.00122117 -0.00103755 0.000262476)
(-0.00125241 -0.00106566 0.00024057)
(-0.00128398 -0.00109381 0.000216267)
(-0.00131526 -0.00112139 0.00018889)
(-0.0013454 -0.0011475 0.000157414)
(-0.00137281 -0.00117076 0.000120391)
(-0.00139487 -0.00118957 7.59724e-05)
(-0.00140715 -0.0012005 2.57006e-05)
(-0.000278016 -0.000316328 -0.000146621)
(-0.000338473 -0.000413179 -4.50472e-05)
(-0.000376562 -0.000501111 -1.04536e-05)
(-0.000425401 -0.000586826 3.66131e-05)
(-0.000484234 -0.000663056 9.27947e-05)
(-0.000550155 -0.000724531 0.000150435)
(-0.000619636 -0.000768162 0.00020492)
(-0.000688681 -0.000794561 0.000253461)
(-0.000754579 -0.000807106 0.000294471)
(-0.000816123 -0.000811271 0.000328032)
(-0.000872329 -0.000811975 0.000354949)
(-0.000921264 -0.000810825 0.000374993)
(-0.000960844 -0.000808378 0.000386833)
(-0.000992577 -0.000810628 0.000391505)
(-0.00102016 -0.000818104 0.000390598)
(-0.00104484 -0.000829943 0.000385448)
(-0.00106804 -0.000845191 0.000377101)
(-0.00109095 -0.000863056 0.000366459)
(-0.0011145 -0.00088298 0.000354192)
(-0.0011393 -0.000904605 0.000340712)
(-0.00116566 -0.000927711 0.000326218)
(-0.00119367 -0.000952141 0.000310724)
(-0.00122327 -0.000977763 0.000294135)
(-0.00125426 -0.00100439 0.000276257)
(-0.00128636 -0.0010318 0.000256832)
(-0.00131921 -0.00105967 0.000235508)
(-0.00135235 -0.00108755 0.000211824)
(-0.00138514 -0.00111482 0.000185105)
(-0.00141669 -0.00114063 0.000154341)
(-0.00144533 -0.00116359 0.000118086)
(-0.00146839 -0.00118215 7.45378e-05)
(-0.00148119 -0.0011929 2.52233e-05)
(-0.000293854 -0.000296431 -0.000126016)
(-0.00035667 -0.000389836 -4.81111e-05)
(-0.000396609 -0.000475115 -1.70324e-05)
(-0.000446517 -0.000559364 2.63966e-05)
(-0.00050626 -0.000635653 7.95678e-05)
(-0.000573329 -0.000698495 0.000135065)
(-0.00064433 -0.000744612 0.000188289)
(-0.000715564 -0.00077456 0.000236484)
(-0.000784514 -0.000791555 0.000278186)
(-0.000849669 -0.00080014 0.000313256)
(-0.000909427 -0.00080386 0.000341734)
(-0.000961621 -0.000804196 0.000362886)
(-0.00100489 -0.000802482 0.000376012)
(-0.0010387 -0.000803037 0.000381226)
(-0.00106789 -0.000809588 0.000380694)
(-0.00109415 -0.000820791 0.00037585)
(-0.00111886 -0.000835627 0.000367775)
(-0.00114328 -0.000853233 0.000357413)
(-0.00116834 -0.000872974 0.000345451)
(-0.00119465 -0.000894429 0.00033232)
(-0.00122254 -0.000917346 0.000318218)
(-0.00125212 -0.000941558 0.000303174)
(-0.00128328 -0.000966913 0.000287083)
(-0.00131585 -0.000993229 0.000269749)
(-0.0013495 -0.00102029 0.000250908)
(-0.00138388 -0.00104774 0.000230204)
(-0.0014185 -0.00107519 0.000207174)
(-0.0014527 -0.001102 0.000181144)
(-0.00148557 -0.00112736 0.000151126)
(-0.00151535 -0.00114987 0.000115674)
(-0.00153934 -0.00116808 7.30399e-05)
(-0.0015526 -0.00117859 2.47272e-05)
(-0.000306702 -0.000273016 -0.000103189)
(-0.000371493 -0.000362468 -5.09121e-05)
(-0.000412818 -0.000444476 -2.35264e-05)
(-0.000463253 -0.000526682 1.60781e-05)
(-0.000523538 -0.000602595 6.59451e-05)
(-0.000591637 -0.000666686 0.000118994)
(-0.00066432 -0.000715494 0.000170757)
(-0.000738036 -0.000749301 0.000218542)
(-0.000810166 -0.000770779 0.000260889)
(-0.000878785 -0.000783467 0.000297307)
(-0.000941942 -0.000789985 0.000327223)
(-0.000997516 -0.000791906 0.000349542)
(-0.00104417 -0.00079116 0.00036374)
(-0.00108148 -0.0007909 0.000369928)
(-0.0011125 -0.000796174 0.000369948)
(-0.00114047 -0.000806485 0.000365495)
(-0.00116681 -0.000820762 0.000357792)
(-0.00119279 -0.000837962 0.000347787)
(-0.00121937 -0.000857359 0.000336199)
(-0.0012472 -0.000878494 0.000323473)
(-0.00127661 -0.000901079 0.000309825)
(-0.00130769 -0.00092492 0.000295281)
(-0.00134037 -0.000949852 0.000279737)
(-0.00137441 -0.000975697 0.000262991)
(-0.00140953 -0.00100222 0.000244773)
(-0.00144532 -0.0010291 0.000224723)
(-0.00148131 -0.00105594 0.000202377)
(-0.0015168 -0.00108213 0.000177062)
(-0.00155086 -0.00110687 0.000147816)
(-0.00158168 -0.0011288 0.000113191)
(-0.00160652 -0.00114654 7.15008e-05)
(-0.00162017 -0.00115674 2.42208e-05)
(-0.000316595 -0.000247522 -7.98199e-05)
(-0.000382841 -0.000332467 -5.33161e-05)
(-0.000424981 -0.000410641 -2.97383e-05)
(-0.000475338 -0.000490225 5.87815e-06)
(-0.0005357 -0.000565266 5.21416e-05)
(-0.000604607 -0.00063036 0.000102399)
(-0.000678971 -0.000681837 0.00015243)
(-0.000755261 -0.000719491 0.000199642)
(-0.00083063 -0.000745252 0.00024249)
(-0.000902733 -0.000761698 0.000280075)
(-0.000969347 -0.000770834 0.000311309)
(-0.00102842 -0.000774359 0.000334839)
(-0.00107864 -0.000774618 0.000350068)
(-0.00111999 -0.000774582 0.00035747)
(-0.00115361 -0.000778105 0.000358249)
(-0.00118346 -0.000787444 0.00035437)
(-0.00121154 -0.000800859 0.000347121)
(-0.00123915 -0.000817424 0.000337566)
(-0.00126731 -0.000836331 0.000326437)
(-0.00129667 -0.000856999 0.000314194)
(-0.00132757 -0.000879094 0.000301064)
(-0.00136011 -0.0009024 0.000287076)
(-0.00139421 -0.000926749 0.000272129)
(-0.00142964 -0.000951946 0.000256015)
(-0.0014661 -0.000977765 0.000238458)
(-0.00150317 -0.0010039 0.000219092)
(-0.00154037 -0.00102996 0.000197455)
(-0.001577 -0.00105536 0.000172878)
(-0.00161212 -0.00107932 0.000144425)
(-0.00164383 -0.00110052 0.000110646)
(-0.00166942 -0.00111769 6.99284e-05)
(-0.00168337 -0.00112752 2.37071e-05)
(-0.000322264 -0.000220155 -5.67913e-05)
(-0.000389473 -0.00030015 -5.51575e-05)
(-0.000431873 -0.000373961 -3.54678e-05)
(-0.000481538 -0.000450357 -4.03798e-06)
(-0.000541484 -0.000524035 3.82664e-05)
(-0.000610941 -0.000589866 8.53207e-05)
(-0.00068698 -0.000643965 0.000133281)
(-0.000765951 -0.00068543 0.000179678)
(-0.000844634 -0.000715247 0.000222806)
(-0.000920273 -0.000735125 0.000261327)
(-0.000990467 -0.000746724 0.000293743)
(-0.00105322 -0.0007519 0.000318522)
(-0.00110728 -0.000753232 0.000334929)
(-0.00115261 -0.000753827 0.000343497)
(-0.00119039 -0.000756708 0.000345524)
(-0.00122235 -0.000764049 0.000342338)
(-0.00125236 -0.000776507 0.000335721)
(-0.00128178 -0.000792276 0.000326734)
(-0.00131155 -0.000810463 0.000316156)
(-0.00134244 -0.000830476 0.000304475)
(-0.0013748 -0.000851922 0.000291933)
(-0.00140875 -0.000874553 0.000278567)
(-0.00144419 -0.000898169 0.000264274)
(-0.00148089 -0.000922579 0.000248838)
(-0.00151856 -0.000947562 0.000231981)
(-0.00155675 -0.000972815 0.000213333)
(-0.00159502 -0.000997956 0.000192432)
(-0.00163263 -0.00102242 0.000168612)
(-0.00166865 -0.00104547 0.00014097)
(-0.00170113 -0.00106583 0.000108054)
(-0.00172736 -0.00108231 6.83307e-05)
(-0.00174152 -0.00109172 2.31899e-05)
(-0.000323925 -0.000192097 -3.50701e-05)
(-0.00039145 -0.000266705 -5.64374e-05)
(-0.000433494 -0.000335717 -4.06225e-05)
(-0.000481799 -0.000408384 -1.34976e-05)
(-0.000540702 -0.000480129 2.45341e-05)
(-0.000610241 -0.000546224 6.79682e-05)
(-0.000687656 -0.000602575 0.000113436)
(-0.000769106 -0.000647487 0.000158638)
(-0.000851035 -0.000681011 0.000201707)
(-0.000930351 -0.000704115 0.000240914)
(-0.0010044 -0.000718137 0.000274393)
(-0.0010711 -0.000725027 0.000300439)
(-0.00112923 -0.000727524 0.000318201)
(-0.00117866 -0.000728749 0.00032806)
(-0.00122043 -0.000731597 0.000331312)
(-0.00125632 -0.000737798 0.000329349)
(-0.00128844 -0.000748401 0.000323511)
(-0.00131976 -0.000762854 0.000315212)
(-0.00135126 -0.000780178 0.000305327)
(-0.00138373 -0.000799386 0.000294311)
(-0.00141753 -0.000820036 0.000282442)
(-0.00145281 -0.000841836 0.000269768)
(-0.00148947 -0.000864568 0.000256186)
(-0.00152729 -0.000888041 0.000241476)
(-0.00156599 -0.000912033 0.000225359)
(-0.00160511 -0.00093624 0.000207457)
(-0.00164422 -0.000960314 0.000187311)
(-0.0016826 -0.00098377 0.000164268)
(-0.00171932 -0.00100583 0.000137454)
(-0.00175239 -0.00102525 0.000105414)
(-0.00177914 -0.00104099 6.67111e-05)
(-0.00179336 -0.00105001 2.26718e-05)
(-0.000320122 -0.000163279 -1.51346e-05)
(-0.000387403 -0.000232203 -5.69739e-05)
(-0.000428482 -0.000295947 -4.50011e-05)
(-0.0004747 -0.000364298 -2.23012e-05)
(-0.000531813 -0.000433429 1.11267e-05)
(-0.000600869 -0.000499212 5.04536e-05)
(-0.00067938 -0.000557454 9.29115e-05)
(-0.000763291 -0.000605616 0.000136459)
(-0.000848581 -0.000642693 0.000179077)
(-0.000931702 -0.000668863 0.000218656)
(-0.0010098 -0.000685239 0.000253026)
(-0.00108074 -0.000693878 0.00028032)
(-0.00114322 -0.000697608 0.000299558)
(-0.00119702 -0.000699563 0.000310946)
(-0.00124292 -0.000702472 0.000315588)
(-0.00128263 -0.000708137 0.000314911)
(-0.00131826 -0.000717458 0.000310258)
(-0.00135228 -0.000730626 0.000303024)
(-0.00138556 -0.000746574 0.000293962)
(-0.00141959 -0.000764662 0.000283714)
(-0.00145481 -0.000784323 0.000272615)
(-0.00149132 -0.000805171 0.000260713)
(-0.00152909 -0.000826954 0.000247914)
(-0.00156787 -0.000849444 0.000233987)
(-0.0016074 -0.000872431 0.000218652)
(-0.00164725 -0.000895611 0.000201531)
(-0.00168699 -0.000918634 0.000182165)
(-0.00172584 -0.000940968 0.000159898)
(-0.00176296 -0.00096192 0.00013391)
(-0.0017964 -0.000980322 0.000102749)
(-0.00182347 -0.000995239 6.50834e-05)
(-0.00183751 -0.00100378 2.21572e-05)
(-0.000311725 -0.000135156 2.36811e-06)
(-0.000377822 -0.000197716 -5.7032e-05)
(-0.000417364 -0.000256201 -4.8581e-05)
(-0.000460875 -0.000319729 -3.02672e-05)
(-0.000515395 -0.00038557 -1.64682e-06)
(-0.000583184 -0.000450301 3.31361e-05)
(-0.000662138 -0.000509749 7.20217e-05)
(-0.000747989 -0.00056054 0.000113311)
(-0.000836351 -0.000600735 0.000154923)
(-0.000923396 -0.000629866 0.000194497)
(-0.00100591 -0.000648673 0.000229579)
(-0.00108147 -0.000659124 0.000258092)
(-0.00114865 -0.000664126 0.000278902)
(-0.00120703 -0.000666774 0.000291989)
(-0.00125729 -0.000669784 0.000298263)
(-0.00130088 -0.000674966 0.000299046)
(-0.00133998 -0.000683405 0.000295752)
(-0.00137676 -0.000695378 0.000289721)
(-0.0014124 -0.000710012 0.000281738)
(-0.00144829 -0.000726907 0.000272478)
(-0.00148492 -0.000745421 0.00026229)
(-0.00152254 -0.000765143 0.000251257)
(-0.00156113 -0.000785788 0.000239302)
(-0.0016005 -0.000807118 0.000226197)
(-0.00164043 -0.000828904 0.00021167)
(-0.00168051 -0.000850856 0.000195344)
(-0.00172037 -0.000872628 0.00017676)
(-0.00175932 -0.000893677 0.000155288)
(-0.00179656 -0.000913383 0.000130164)
(-0.0018301 -0.000930664 9.99251e-05)
(-0.00185733 -0.000944678 6.33609e-05)
(-0.001871 -0.000952624 2.16159e-05)
(-0.00029535 -0.000106978 1.70472e-05)
(-0.000362042 -0.000163723 -5.62349e-05)
(-0.000398636 -0.000216383 -5.12426e-05)
(-0.0004385 -0.000274422 -3.71188e-05)
(-0.000489386 -0.000336091 -1.34692e-05)
(-0.000554898 -0.000398816 1.62884e-05)
(-0.000633635 -0.000458767 5.09109e-05)
(-0.000721308 -0.000511931 8.92355e-05)
(-0.000812983 -0.000555282 0.000129255)
(-0.000904131 -0.000587384 0.000168363)
(-0.000991249 -0.000608638 0.000203865)
(-0.00107177 -0.000620974 0.00023351)
(-0.00114399 -0.000627246 0.000255932)
(-0.00120737 -0.000630613 0.000270893)
(-0.00126227 -0.000633726 0.000279041)
(-0.00131011 -0.000638502 0.000281571)
(-0.00135282 -0.000646088 0.000279853)
(-0.00139258 -0.00065694 0.000275223)
(-0.00143057 -0.000670289 0.000268486)
(-0.00146824 -0.000685882 0.000260363)
(-0.00150623 -0.00070311 0.000251222)
(-0.00154484 -0.000721538 0.000241171)
(-0.0015841 -0.000740871 0.000230156)
(-0.00162386 -0.000760847 0.000217947)
(-0.00166395 -0.000781259 0.000204285)
(-0.001704 -0.000801806 0.000188802)
(-0.00174372 -0.000822173 0.000171041)
(-0.00178253 -0.000841816 0.000150407)
(-0.00181964 -0.000860188 0.000126195)
(-0.00185305 -0.00087628 9.6929e-05)
(-0.00188024 -0.000889326 6.15354e-05)
(-0.00189345 -0.00089665 2.1048e-05)
(-0.000272848 -8.01462e-05 2.88739e-05)
(-0.000340687 -0.000131695 -5.46916e-05)
(-0.000374084 -0.000178265 -5.30135e-05)
(-0.000409482 -0.000230547 -4.27427e-05)
(-0.000455789 -0.000287364 -2.39702e-05)
(-0.000517912 -0.000347111 4.74739e-07)
(-0.000595345 -0.000406553 3.01932e-05)
(-0.000683785 -0.000461165 6.47188e-05)
(-0.000777934 -0.000507005 0.000102322)
(-0.000873101 -0.000541995 0.000140367)
(-0.000965212 -0.000565906 0.000175964)
(-0.00105109 -0.00058026 0.000206598)
(-0.00112884 -0.00058789 0.000230668)
(-0.00119752 -0.000591886 0.00024762)
(-0.00125743 -0.000595031 0.000257863)
(-0.0013097 -0.000599296 0.000262381)
(-0.00135628 -0.000605998 0.000262498)
(-0.00139904 -0.000615586 0.000259462)
(-0.00143948 -0.000627586 0.000254173)
(-0.00147903 -0.000641796 0.000247364)
(-0.00151835 -0.000657602 0.000239413)
(-0.00155783 -0.000674598 0.000230466)
(-0.00159759 -0.000692467 0.000220492)
(-0.00163748 -0.000710963 0.000209258)
(-0.00167744 -0.000729853 0.000196522)
(-0.00171713 -0.000748862 0.000181932)
(-0.00175635 -0.000767682 0.000165027)
(-0.00179464 -0.000785802 0.000145263)
(-0.00183128 -0.000802738 0.000122007)
(-0.00186423 -0.000817555 9.37569e-05)
(-0.00189119 -0.000829585 5.96079e-05)
(-0.00190368 -0.000836216 2.04536e-05)
(-0.0002429 -5.51428e-05 3.75793e-05)
(-0.000311109 -0.000101159 -5.20724e-05)
(-0.000341315 -0.000141519 -5.34685e-05)
(-0.000371392 -0.000187511 -4.66633e-05)
(-0.000411743 -0.000238408 -3.26076e-05)
(-0.000468889 -0.000293793 -1.37362e-05)
(-0.000543734 -0.000351553 1.03363e-05)
(-0.0006326 -0.000407206 4.01104e-05)
(-0.000729719 -0.000455825 7.44278e-05)
(-0.000829109 -0.000493903 0.000110684)
(-0.000926245 -0.000520579 0.000145851)
(-0.00101783 -0.000537169 0.000177225)
(-0.00110141 -0.000546224 0.000202875)
(-0.00117592 -0.000550914 0.000221943)
(-0.0012412 -0.000554019 0.00023448)
(-0.0012984 -0.000557755 0.000241287)
(-0.00134909 -0.000563465 0.000243508)
(-0.0013953 -0.000571795 0.000242377)
(-0.00143832 -0.000582337 0.000238766)
(-0.00147969 -0.000594991 0.000233442)
(-0.00152028 -0.000609239 0.000226842)
(-0.00156051 -0.000624673 0.000219132)
(-0.00160055 -0.000640963 0.000210313)
(-0.0016403 -0.00065786 0.000200138)
(-0.00167985 -0.000675146 0.000188395)
(-0.00171884 -0.000692535 0.000174749)
(-0.00175725 -0.000709747 0.000158741)
(-0.00179475 -0.000726309 0.000139886)
(-0.00183063 -0.000741774 0.000117625)
(-0.0018629 -0.00075531 9.0433e-05)
(-0.00188938 -0.000766261 5.75932e-05)
(-0.00190107 -0.00077224 1.98423e-05)
(-0.000208319 -3.36106e-05 4.3141e-05)
(-0.00027563 -7.36427e-05 -4.86484e-05)
(-0.000303354 -0.000108276 -5.29005e-05)
(-0.000328329 -0.000148166 -4.90454e-05)
(-0.00036216 -0.000192775 -3.91872e-05)
(-0.000413085 -0.000242826 -2.57104e-05)
(-0.000483699 -0.000297532 -7.7132e-06)
(-0.000570889 -0.000352667 1.63632e-05)
(-0.000668746 -0.000402683 4.62522e-05)
(-0.00077169 -0.000443601 7.97882e-05)
(-0.000874181 -0.000473412 0.000113907)
(-0.000971756 -0.000492518 0.000145638)
(-0.00106173 -0.000503294 0.000172754)
(-0.00114237 -0.000508709 0.000193962)
(-0.00121355 -0.000511794 0.000208998)
(-0.00127583 -0.000514809 0.000218312)
(-0.00133097 -0.000519415 0.00022293)
(-0.00138054 -0.000526225 0.000223928)
(-0.00142628 -0.000535185 0.000222244)
(-0.00146967 -0.000546219 0.000218646)
(-0.00151149 -0.000558797 0.000213575)
(-0.00155234 -0.000572565 0.000207248)
(-0.00159245 -0.000587183 0.000199697)
(-0.00163176 -0.000602412 0.000190665)
(-0.00167052 -0.000618004 0.000179967)
(-0.0017084 -0.000633714 0.000167306)
(-0.00174554 -0.000649255 0.000152213)
(-0.00178177 -0.000664188 0.000134283)
(-0.00181649 -0.00067814 0.000113048)
(-0.00184766 -0.000690332 8.69455e-05)
(-0.00187353 -0.000700226 5.54899e-05)
(-0.00188404 -0.000705503 1.92121e-05)
(-0.000167452 -1.55979e-05 4.51197e-05)
(-0.000231637 -4.8883e-05 -4.38797e-05)
(-0.000256827 -7.76528e-05 -5.06559e-05)
(-0.000276321 -0.000110985 -4.92056e-05)
(-0.000302333 -0.000148248 -4.28708e-05)
(-0.000344776 -0.000191178 -3.43895e-05)
(-0.000408866 -0.000240959 -2.27693e-05)
(-0.000493721 -0.000294868 -5.401e-06)
(-0.000593652 -0.000347043 1.88008e-05)
(-0.000700291 -0.000391135 4.84199e-05)
(-0.000807744 -0.000424248 8.05545e-05)
(-0.000911549 -0.000446322 0.00011206)
(-0.00100799 -0.000459076 0.000140303)
(-0.00109532 -0.000465534 0.000163618)
(-0.00117256 -0.000468613 0.000181234)
(-0.00124055 -0.000471001 0.000193333)
(-0.00130037 -0.000474375 0.000200616)
(-0.00135395 -0.000479711 0.000204098)
(-0.00140257 -0.000486972 0.00020461)
(-0.00144782 -0.000496194 0.000202933)
(-0.0014908 -0.000506988 0.000199581)
(-0.0015321 -0.000518996 0.000194785)
(-0.00157204 -0.000531887 0.000188629)
(-0.00161057 -0.000545407 0.000180823)
(-0.00164823 -0.000559313 0.000171233)
(-0.00168463 -0.000573353 0.000159601)
(-0.00172016 -0.000587256 0.000145451)
(-0.00175489 -0.000600625 0.000128476)
(-0.00178815 -0.000613102 0.0001083)
(-0.00181804 -0.000624023 8.33221e-05)
(-0.00184292 -0.000632813 5.331e-05)
(-0.00185224 -0.000637501 1.85735e-05)
(-0.00012456 -2.5885e-06 4.38201e-05)
(-0.000183673 -2.88537e-05 -3.81768e-05)
(-0.000207736 -5.22667e-05 -4.72837e-05)
(-0.000223802 -7.98822e-05 -4.79106e-05)
(-0.000243217 -0.000110442 -4.42402e-05)
(-0.000277143 -0.000146102 -3.97373e-05)
(-0.000332926 -0.000189604 -3.41264e-05)
(-0.000411064 -0.000239385 -2.41254e-05)
(-0.000506703 -0.000290145 -6.77539e-06)
(-0.000615021 -0.000336621 1.76999e-05)
(-0.000727494 -0.000373526 4.67461e-05)
(-0.000837397 -0.000399029 7.71909e-05)
(-0.000940898 -0.000414445 0.000106107)
(-0.00103497 -0.000422242 0.000131281)
(-0.00111898 -0.000425696 0.000151543)
(-0.00119267 -0.000427415 0.000166535)
(-0.00125755 -0.000429584 0.000176744)
(-0.00131482 -0.000433184 0.000182903)
(-0.00136639 -0.000438635 0.000185864)
(-0.00141379 -0.000446038 0.00018638)
(-0.00145792 -0.000454988 0.000184944)
(-0.00149951 -0.000465197 0.000181836)
(-0.00153902 -0.000476329 0.000177199)
(-0.00157641 -0.00048815 0.000170697)
(-0.0016125 -0.000500373 0.000162253)
(-0.00164692 -0.000512766 0.000151682)
(-0.0016803 -0.000525052 0.000138474)
(-0.00171292 -0.000536839 0.000122451)
(-0.00174425 -0.000547862 0.000103357)
(-0.00177229 -0.000557482 7.95245e-05)
(-0.00179621 -0.000565262 5.10421e-05)
(-0.00180378 -0.000569334 1.79188e-05)
(-7.82682e-05 6.43428e-06 3.96834e-05)
(-0.000129383 -1.23422e-05 -3.07715e-05)
(-0.000150607 -2.9574e-05 -4.18257e-05)
(-0.000162061 -5.06026e-05 -4.38013e-05)
(-0.000173865 -7.3332e-05 -4.17277e-05)
(-0.000195777 -9.94704e-05 -3.98887e-05)
(-0.000238227 -0.00013383 -3.88635e-05)
(-0.000309963 -0.000179192 -3.59234e-05)
(-0.000407831 -0.000231182 -2.73556e-05)
(-0.000517389 -0.000279895 -1.04469e-05)
(-0.000633247 -0.000320661 1.38697e-05)
(-0.000749209 -0.000350398 4.20447e-05)
(-0.000859154 -0.000368964 7.075e-05)
(-0.000960454 -0.000378883 9.73509e-05)
(-0.00105078 -0.000382938 0.000119994)
(-0.00113073 -0.000384404 0.000137963)
(-0.00120067 -0.000385429 0.000151233)
(-0.00126246 -0.000387546 0.000160389)
(-0.00131719 -0.000391202 0.000166059)
(-0.00136639 -0.000396642 0.000168944)
(-0.00141149 -0.000403701 0.00016961)
(-0.00145317 -0.000412091 0.000168343)
(-0.00149195 -0.000421478 0.000165354)
(-0.00152778 -0.000431655 0.000160235)
(-0.00156197 -0.000442282 0.000152988)
(-0.001594 -0.000453137 0.000143515)
(-0.00162488 -0.000463932 0.000131262)
(-0.00165525 -0.00047431 0.000116219)
(-0.00168435 -0.000483985 9.82363e-05)
(-0.00171053 -0.000492478 7.55885e-05)
(-0.00173289 -0.000499188 4.86932e-05)
(-0.00173883 -0.000502833 1.72598e-05)
(-3.81341e-05 9.8353e-06 3.19607e-05)
(-7.66894e-05 -2.7049e-06 -2.20916e-05)
(-9.87279e-05 -1.4554e-05 -3.16264e-05)
(-0.000112415 -2.96256e-05 -3.79479e-05)
(-0.000122285 -4.86963e-05 -3.75665e-05)
(-0.000137476 -6.63064e-05 -3.40097e-05)
(-0.000175376 -9.07919e-05 -3.75577e-05)
(-0.000226461 -0.00012554 -4.56216e-05)
(-0.000300423 -0.000170034 -4.44069e-05)
(-0.000407885 -0.000220822 -3.39676e-05)
(-0.000526679 -0.00026539 -1.60958e-05)
(-0.000647157 -0.000299814 8.17551e-06)
(-0.000764181 -0.000322853 3.54994e-05)
(-0.000872034 -0.000335552 6.26792e-05)
(-0.000969753 -0.000341312 8.7384e-05)
(-0.00105565 -0.00034287 0.000108117)
(-0.00113103 -0.000343146 0.000124513)
(-0.00119656 -0.000343692 0.0001367)
(-0.00125425 -0.000345574 0.000145245)
(-0.00130566 -0.000349227 0.000150752)
(-0.00135169 -0.00035445 0.000153706)
(-0.00139323 -0.000361072 0.000154421)
(-0.00143099 -0.000368782 0.000153208)
(-0.0014648 -0.000377414 0.000149535)
(-0.00149655 -0.000386526 0.000143497)
(-0.00152563 -0.000395954 0.000135138)
(-0.00155339 -0.000405342 0.000123817)
(-0.00158071 -0.000414326 0.000109731)
(-0.00160711 -0.000422732 9.28834e-05)
(-0.0016306 -0.000430067 7.14326e-05)
(-0.00165171 -0.000435901 4.62384e-05)
(-0.00165525 -0.00043908 1.65805e-05)
(-1.46594e-05 8.30819e-06 2.23175e-05)
(-2.57092e-05 8.08251e-07 -8.86628e-06)
(-3.48091e-05 -2.01522e-06 -1.74665e-05)
(-4.15593e-05 -9.34652e-06 -2.58466e-05)
(-4.27863e-05 -2.17467e-05 -2.38212e-05)
(-4.54225e-05 -2.51271e-05 -2.08741e-05)
(-5.4044e-05 -3.99771e-05 -2.20892e-05)
(-0.00011439 -7.40435e-05 -2.60782e-05)
(-0.000203964 -0.000112269 -4.36161e-05)
(-0.000293871 -0.000157797 -5.06282e-05)
(-0.000409946 -0.000207969 -4.02456e-05)
(-0.000534825 -0.000247562 -2.21739e-05)
(-0.000656504 -0.000275367 1.91407e-06)
(-0.000771437 -0.000292356 2.85381e-05)
(-0.000874436 -0.000300134 5.43521e-05)
(-0.0009664 -0.00030267 7.74385e-05)
(-0.00104657 -0.000302595 9.67191e-05)
(-0.00111679 -0.000302248 0.000112051)
(-0.00117768 -0.000302677 0.000123608)
(-0.00123052 -0.000304539 0.000131803)
(-0.00127712 -0.000308007 0.000137167)
(-0.00131822 -0.000312968 0.000139983)
(-0.00135458 -0.000319101 0.000140663)
(-0.00138588 -0.000326345 0.00013849)
(-0.00141489 -0.000334125 0.000133687)
(-0.00144057 -0.000342299 0.000126469)
(-0.00146494 -0.000350484 0.000116082)
(-0.00148931 -0.000358343 0.000102989)
(-0.0015127 -0.000365622 8.73059e-05)
(-0.00153384 -0.000372092 6.711e-05)
(-0.00155277 -0.000376919 4.36757e-05)
(-0.00155426 -0.000379889 1.58936e-05)
(4.1574e-06 9.48657e-06 2.27212e-05)
(-7.09692e-07 4.2321e-06 -7.7755e-06)
(-7.20624e-06 2.74949e-06 -1.89548e-05)
(-1.47061e-05 -7.42436e-06 -2.392e-05)
(-2.21952e-05 -1.64226e-05 -2.60443e-05)
(-2.2274e-05 -1.74497e-05 -2.52192e-05)
(-3.07155e-05 -3.72854e-05 -3.33944e-05)
(-3.11174e-05 -3.05171e-05 -1.46279e-05)
(-7.75056e-05 -5.23813e-05 -2.05875e-05)
(-0.000190695 -9.6718e-05 -4.21848e-05)
(-0.000287648 -0.000141338 -5.48647e-05)
(-0.000409418 -0.000190435 -4.60674e-05)
(-0.000537649 -0.000225546 -2.75679e-05)
(-0.000656852 -0.000247528 -3.38324e-06)
(-0.000767426 -0.000259665 2.24079e-05)
(-0.000864839 -0.000264094 4.69361e-05)
(-0.00095034 -0.00026472 6.87006e-05)
(-0.00102367 -0.000263691 8.68372e-05)
(-0.00108699 -0.000262963 0.000101324)
(-0.00114183 -0.000263541 0.000112339)
(-0.00118895 -0.000265528 0.000120212)
(-0.00122929 -0.000269021 0.000125203)
(-0.00126393 -0.000273761 0.00012788)
(-0.00129215 -0.000279812 0.000127231)
(-0.00131778 -0.000286389 0.000123622)
(-0.00133951 -0.00029348 0.000117544)
(-0.00135975 -0.000300556 0.000108037)
(-0.00138015 -0.000307298 9.58884e-05)
(-0.00140015 -0.000313556 8.14077e-05)
(-0.00141768 -0.000319063 6.24748e-05)
(-0.00143529 -0.000323168 4.09614e-05)
(-0.00143368 -0.000325825 1.51685e-05)
(1.85664e-05 8.86881e-06 2.4085e-05)
(2.17829e-05 5.74413e-06 -6.44523e-06)
(1.8315e-05 3.8619e-06 -9.62729e-06)
(1.13593e-05 -9.31749e-07 -9.58849e-06)
(1.28511e-06 -1.42078e-06 -1.24258e-05)
(-3.32346e-06 -6.68947e-06 -1.29248e-05)
(-1.31751e-05 -2.65843e-06 -1.63742e-05)
(-1.98482e-05 -1.32797e-05 -2.51218e-05)
(-2.66215e-05 -2.44796e-05 -2.02672e-05)
(-5.99239e-05 -4.24181e-05 -1.82064e-05)
(-0.000196851 -8.79596e-05 -3.98937e-05)
(-0.00029275 -0.000130401 -6.26281e-05)
(-0.000412526 -0.000174041 -5.17522e-05)
(-0.000537966 -0.000203313 -3.09542e-05)
(-0.000649841 -0.00021906 -7.08052e-06)
(-0.000751645 -0.000226561 1.77095e-05)
(-0.000840172 -0.000228457 4.10202e-05)
(-0.000917713 -0.000228005 6.15909e-05)
(-0.000983718 -0.000226897 7.88336e-05)
(-0.00103896 -0.000226413 9.24667e-05)
(-0.00108586 -0.000227202 0.000102793)
(-0.00112502 -0.000229504 0.00010996)
(-0.00115743 -0.000233047 0.000114693)
(-0.00118201 -0.000238146 0.000115568)
(-0.00120413 -0.000243789 0.000113128)
(-0.00122151 -0.000249988 0.000108198)
(-0.00123761 -0.000256176 9.95702e-05)
(-0.00125458 -0.000262147 8.84297e-05)
(-0.00127088 -0.000267476 7.51863e-05)
(-0.00128586 -0.000272441 5.76209e-05)
(-0.00130063 -0.000275529 3.80843e-05)
(-0.00129677 -0.000278167 1.44208e-05)
(3.32233e-05 1.36005e-05 3.88686e-05)
(4.33121e-05 1.10079e-05 -8.2249e-06)
(4.48878e-05 5.92703e-06 -1.28013e-05)
(4.2311e-05 -1.62802e-06 -1.33556e-05)
(3.39577e-05 -8.65497e-06 -1.23282e-05)
(2.52365e-05 -1.00657e-05 -9.90603e-06)
(8.0032e-06 -8.23771e-06 -1.26089e-05)
(2.6356e-07 -6.25692e-06 -1.42934e-05)
(-1.45833e-05 -9.28334e-06 -2.42426e-05)
(-2.30166e-05 -1.29231e-05 -3.27157e-05)
(-3.87844e-05 -6.21429e-05 -3.34477e-05)
(-0.000157026 -9.0742e-05 -2.51826e-05)
(-0.000285665 -0.000116174 -5.82181e-05)
(-0.000404089 -0.000154077 -5.11093e-05)
(-0.000523056 -0.000177677 -3.13319e-05)
(-0.000628495 -0.000189214 -8.51953e-06)
(-0.000721751 -0.000194342 1.50926e-05)
(-0.000800661 -0.000194917 3.7087e-05)
(-0.000867686 -0.000194042 5.6545e-05)
(-0.000924255 -0.000193464 7.26361e-05)
(-0.000970906 -0.000193627 8.52929e-05)
(-0.0010084 -0.000195097 9.45451e-05)
(-0.00103833 -0.000197745 0.00010137)
(-0.00105862 -0.000202141 0.000103708)
(-0.00107645 -0.000206979 0.000102289)
(-0.00108902 -0.000212434 9.84791e-05)
(-0.00110017 -0.000217721 9.06406e-05)
(-0.00111234 -0.000222849 8.0429e-05)
(-0.00112489 -0.000227293 6.84944e-05)
(-0.00113531 -0.000231464 5.22991e-05)
(-0.00114907 -0.00023382 3.49733e-05)
(-0.00114142 -0.000236151 1.35928e-05)
(4.50233e-05 1.52562e-05 4.56446e-05)
(6.10451e-05 1.28983e-05 -8.0188e-06)
(6.69804e-05 8.87918e-06 -1.53846e-05)
(6.851e-05 1.21596e-06 -1.91067e-05)
(6.58154e-05 -7.49929e-06 -2.01591e-05)
(5.96275e-05 -1.50347e-05 -1.91842e-05)
(4.85495e-05 -2.10976e-05 -1.74488e-05)
(3.68135e-05 -2.15133e-05 -1.38168e-05)
(1.66475e-05 -1.51661e-05 -1.55553e-05)
(-2.50758e-05 -1.64956e-05 -3.39806e-05)
(-9.85617e-06 -2.70265e-05 -3.45832e-05)
(-5.52545e-05 -3.90939e-05 -2.3419e-05)
(-0.000167788 -6.78047e-05 -5.06523e-05)
(-0.000286621 -0.000106795 -5.8748e-05)
(-0.000395201 -0.000135204 -4.85167e-05)
(-0.000501998 -0.000152391 -3.00485e-05)
(-0.000593269 -0.000160341 -7.97487e-06)
(-0.000674816 -0.00016375 1.43187e-05)
(-0.000743148 -0.000164267 3.527e-05)
(-0.000797916 -0.000163922 5.31391e-05)
(-0.000842917 -0.000163912 6.77103e-05)
(-0.00087816 -0.000164961 7.87962e-05)
(-0.00090492 -0.000166949 8.76304e-05)
(-0.000920279 -0.000170829 9.13132e-05)
(-0.00093416 -0.000175243 9.08077e-05)
(-0.000941766 -0.000180059 8.80975e-05)
(-0.000948471 -0.00018458 8.10704e-05)
(-0.000957249 -0.000189299 7.19145e-05)
(-0.000965749 -0.000192753 6.13322e-05)
(-0.000974051 -0.000196754 4.67101e-05)
(-0.000984469 -0.00019781 3.16218e-05)
(-0.000974866 -0.000200163 1.27134e-05)
(5.25337e-05 1.4168e-05 4.6376e-05)
(7.33479e-05 1.17866e-05 -7.12869e-06)
(8.28332e-05 7.98436e-06 -1.56408e-05)