/*--------------------------------*- C++ -*----------------------------------*\
  =========                 |
  \\      /  F ield         | OpenFOAM: The Open Source CFD Toolbox
   \\    /   O peration     | Website:  https://openfoam.org
    \\  /    A nd           | Version:  6
     \\/     M anipulation  |
\*---------------------------------------------------------------------------*/
FoamFile
{
    version     2.0;
    format      ascii;
    class       volScalarField;
    location    "0.2";
    object      yPlus;
}
// * * * * * * * * * * * * * * * * * * * * * * * * * * * * * * * * * * * * * //

dimensions      [0 0 0 0 0 0 0];

internalField   uniform 0;

boundaryField
{
    inlet
    {
        type            calculated;
        value           uniform 0;
    }
    outlet
    {
        type            calculated;
        value           uniform 0;
    }
    roughCylinder
    {
        type            calculated;
        value           nonuniform List<scalar> 
3840
(
77.0391
42.0984
43.9871
46.2893
49.4619
52.4864
56.0252
59.371
62.4118
65.0315
67.3212
69.4356
71.5087
73.6074
75.7518
77.9398
80.1737
82.4462
84.7399
87.0175
89.2133
91.203
92.8496
93.9069
74.1679
43.7878
43.6366
45.8268
48.7431
51.6104
55.0224
58.3249
61.3586
63.9765
66.2439
68.307
70.3073
72.3223
74.3775
76.4679
78.5917
80.7504
82.929
85.0938
87.1823
89.0763
90.6464
91.6591
70.1331
43.3119
43.4659
45.434
48.0717
50.743
53.9896
57.2222
60.2341
62.8469
65.0926
67.103
69.0226
70.9407
72.8921
74.8726
76.873
78.8997
80.9453
82.9781
84.9411
86.7246
88.2049
89.1627
61.0029
43.9673
43.352
45.1755
47.5304
49.9855
53.0308
56.1587
59.1262
61.726
63.9557
65.9254
67.776
69.6052
71.4587
73.3368
75.2244
77.126
79.0402
80.9427
82.7806
84.4529
85.844
86.7466
83.4669
44.5391
43.3481
45.0308
47.1203
49.3462
52.1623
55.1495
58.043
60.614
62.8263
64.764
66.5571
68.307
70.0694
71.8524
73.6393
75.4287
77.2193
78.9953
80.7133
82.2782
83.5818
84.4299
77.6853
45.7622
43.4304
44.9885
46.8363
48.8296
51.3956
54.208
56.9949
59.5149
61.7012
63.6105
65.3554
67.0362
68.7153
70.4103
72.1075
73.7999
75.4807
77.139
78.7434
80.2074
81.4292
82.2254
72.5057
45.718
43.5873
45.0361
46.6725
48.4372
50.7418
53.3487
55.9957
58.4385
60.5849
62.4637
64.1669
65.7879
67.3922
69.006
70.6227
72.2327
73.8208
75.3758
76.8768
78.2474
79.3939
80.1423
70.8603
46.9562
43.8275
45.1616
46.616
48.1669
50.2088
52.5871
55.0641
57.4014
59.4891
61.3299
62.9934
64.5615
66.0986
67.6379
69.1816
70.7209
72.2337
73.7029
75.1142
76.402
77.481
78.1865
63.2892
46.0689
44.0977
45.3502
46.6543
48.0106
49.7991
51.9362
54.219
56.4244
58.432
60.2224
61.843
63.3612
64.8367
66.3066
67.782
69.2583
70.71
72.1112
73.4487
74.6658
75.6869
76.355
66.3197
47.4571
44.4219
45.5909
46.7683
47.9582
49.5127
51.4067
53.4796
55.5301
57.4356
59.1598
60.7293
62.196
63.6121
65.0155
66.4246
67.8409
69.2399
70.5879
71.8672
73.0273
74.0006
74.6374
62.5047
48.1147
44.8266
45.8617
46.9429
47.9939
49.3404
51.0006
52.8593
54.7396
56.5239
58.1647
59.6714
61.0808
62.4355
63.7719
65.1137
66.4687
67.8174
69.1216
70.3554
71.4711
72.4069
73.0182
62.5
47.91
45.137
46.1618
47.1611
48.1022
49.269
50.7136
52.3639
54.0667
55.7151
57.2572
58.6883
60.0316
61.3202
62.5868
63.8577
65.1466
66.4411
67.7037
68.9002
69.9813
70.8885
71.4797
64.1298
49.1639
45.5794
46.4683
47.4073
48.2643
49.281
50.5362
51.9908
53.5176
55.023
56.4538
57.7975
59.0654
60.2812
61.4728
62.6673
63.8831
65.1158
66.3325
67.4934
68.5453
69.43
70.0047
63.1639
49.1012
45.8914
46.7844
47.6733
48.4607
49.3576
50.4558
51.729
53.0888
54.4497
55.7634
57.0106
58.1943
59.3308
60.4425
61.5551
62.6897
63.85
65.0108
66.1316
67.1541
68.0186
68.5784
62.8996
49.9351
46.3108
47.0942
47.9418
48.6801
49.4802
50.4491
51.5638
52.7692
53.9917
55.186
56.3319
57.4263
58.4778
59.5044
60.5297
61.5763
62.6538
63.7464
64.8169
65.8047
66.6463
67.1904
60.8904
49.5094
46.5972
47.3969
48.2136
48.9041
49.6296
50.4897
51.4745
52.5404
53.6335
54.713
55.7567
56.7583
57.7226
58.6622
59.5973
60.5501
61.5355
62.5469
63.554
64.497
65.3092
65.835
60.2523
49.673
46.8733
47.6794
48.4728
49.1287
49.7895
50.556
51.4293
52.3746
53.3498
54.3203
55.2661
56.1769
57.0529
57.9039
58.7471
59.6032
60.4892
61.4067
62.3341
63.2164
63.9868
64.4896
60.644
50.5037
47.2266
47.9458
48.7276
49.3466
49.9548
50.635
51.4058
52.2416
53.1084
53.9765
54.8268
55.6484
56.4385
57.2024
57.9535
58.7102
59.4915
60.3055
61.1402
61.9476
62.6647
63.1393
60.898
51.1958
47.5661
48.1855
48.9611
49.5496
50.1128
50.7156
51.3932
52.1246
52.8873
53.6569
54.4152
55.1493
55.8542
56.5324
57.1942
57.8548
58.5325
59.239
59.9712
60.6908
61.3426
61.7824
60.1064
51.3397
47.8528
48.4053
49.185
49.7438
50.2569
50.7917
51.3822
52.017
52.6795
53.3527
54.0209
54.6708
55.2941
55.8897
56.4646
57.0315
57.6075
58.2064
58.8322
59.4563
60.0338
60.4328
60.6529
51.3559
48.0219
48.5781
49.3771
49.9139
50.39
50.864
51.3691
51.9131
52.4824
53.0636
53.6435
54.2096
54.7527
55.2693
55.7626
56.2416
56.7205
57.2137
57.7301
58.2518
58.7464
59.0993
53.4798
50.7338
48.1849
48.7385
49.5427
50.0697
50.5021
50.9241
51.3571
51.8132
52.2929
52.7873
53.2843
53.7706
54.236
54.675
55.0888
55.4838
55.8712
56.2643
56.6746
57.0928
57.4989
57.8001
75.365
51.2714
48.2435
48.8231
49.6659
50.2012
50.5944
50.9643
51.3357
51.7176
52.1143
52.5245
52.9406
53.3504
53.7427
54.1097
54.4493
54.7648
55.0646
55.3607
55.6663
55.98
56.2952
56.5424
71.509
52.2752
48.5226
48.9348
49.7639
50.2993
50.6744
50.9898
51.3001
51.6159
51.9424
52.2794
52.6205
52.956
53.2758
53.5723
53.8415
54.0839
54.3043
54.5118
54.7186
54.9295
55.15
55.3383
68.9638
52.9401
48.6328
48.9277
49.7996
50.3536
50.7177
51.0013
51.2564
51.5099
51.7708
52.0411
52.316
52.5864
52.8415
53.072
53.2733
53.444
53.5867
53.7086
53.8217
53.9349
54.0639
54.1938
65.5647
53.5778
49.0756
49.0125
49.8167
50.3672
50.7189
50.977
51.1939
51.3963
51.5996
51.8093
52.0228
52.2321
52.4272
52.599
52.7408
52.8492
52.9235
52.9669
52.9899
53.0063
53.0414
53.1095
66.1408
54.6679
49.3229
48.9382
49.75
50.3237
50.6715
50.9084
51.0934
51.257
51.4157
51.5764
51.7376
51.8929
52.0333
52.1503
52.2363
52.2861
52.297
52.2703
52.2135
52.1421
52.09
52.0957
57.2707
54.2886
49.8695
49.0231
49.6801
50.2378
50.5736
50.7905
50.9494
51.0818
51.2045
51.325
51.443
51.5526
51.6459
51.7145
51.7503
51.7472
51.7001
51.608
51.4768
51.3238
51.1894
51.1383
68.4257
56.0042
50.2058
48.9374
49.5164
50.0818
50.4164
50.6218
50.7629
50.8731
50.9692
51.0589
51.1426
51.2149
51.2685
51.2955
51.2879
51.2378
51.139
50.9883
50.789
50.5591
50.3448
50.2348
69.3007
57.842
51.1442
49.0743
49.3676
49.884
50.2065
50.3986
50.5235
50.6142
50.6888
50.7539
50.8092
50.8503
50.8703
50.8613
50.8153
50.7239
50.5789
50.3752
50.1145
49.8164
49.5311
49.3672
67.4609
58.5587
51.6854
49.0792
49.1316
49.6167
49.9336
50.1137
50.2249
50.3029
50.3645
50.4151
50.4532
50.4738
50.4704
50.4355
50.3608
50.2371
50.0548
49.8079
49.4951
49.1356
48.7836
48.5655
60.1394
58.7437
52.5526
49.306
48.943
49.3099
49.5887
49.7444
49.8381
49.9041
49.9565
49.9971
50.0229
50.0277
50.0051
49.9479
49.8479
49.6956
49.4808
49.195
48.8355
48.4235
48.0156
47.7533
78.2544
59.7078
53.1417
49.47
48.6928
48.9218
49.1584
49.2923
49.3752
49.4386
49.4927
49.5355
49.561
49.5624
49.533
49.4657
49.3528
49.184
48.9479
48.6353
48.2414
47.7856
47.3265
47.0203
67.8454
59.9673
53.7488
49.7375
48.4734
48.4819
48.6449
48.7454
48.8109
48.8676
48.9208
48.9645
48.9895
48.9873
48.9505
48.8725
48.7451
48.5584
48.301
47.9618
47.5347
47.0411
46.5419
46.2049
60.7126
59.913
54.4316
50.0578
48.2794
48.0064
48.063
48.1204
48.168
48.2221
48.2821
48.3367
48.3727
48.3795
48.3492
48.2741
48.147
47.9576
47.6923
47.3404
46.8941
46.372
45.8354
45.4665
75.1891
60.8547
54.9322
50.3284
48.0562
47.4701
47.3959
47.3939
47.4108
47.4518
47.5105
47.57
47.6124
47.6237
47.5941
47.5173
47.3844
47.1855
46.9087
46.5408
46.0727
45.5257
44.9626
44.5759
62.9621
60.0444
55.2081
50.6803
47.9555
46.9577
46.6826
46.5904
46.5625
46.5841
46.6414
46.7112
46.7689
46.797
46.7836
46.7192
46.5969
46.4061
46.1316
45.7609
45.2833
44.7161
44.1224
43.7113
72.5585
60.929
55.5296
50.8616
47.7742
46.3914
45.8863
45.6756
45.5819
45.5691
45.6133
45.6836
45.749
45.7852
45.7772
45.7174
45.5963
45.4045
45.129
44.7552
44.2691
43.6923
43.0851
42.6683
65.7141
60.471
55.7411
51.1658
47.728
45.8889
45.066
44.6756
44.4769
44.3977
44.4105
44.4775
44.5552
44.6123
44.6287
44.5908
44.4911
44.315
44.0477
43.6734
43.1784
42.576
41.9315
41.4876
64.4065
60.1731
55.6864
51.2319
47.5765
45.3303
44.1613
43.5321
43.1863
43.0237
42.9941
43.0453
43.1246
43.1885
43.2116
43.1831
43.0934
42.931
42.6821
42.3315
41.8584
41.282
40.6522
40.2234
64.7213
64.0235
66.1312
63.1687
62.7017
57.5744
50.0662
44.5843
39.537
33.8784
28.2869
22.7228
17.4283
12.2092
8.72545
6.8383
5.7903
5.21071
4.90828
4.82311
4.82317
4.90829
5.21047
5.7892
6.83812
8.73252
12.2369
17.4819
22.796
28.3699
33.9541
39.5842
44.5768
49.875
56.2643
57.1926
62.4067
66.9935
70.5435
68.7845
59.6525
57.1728
56.4599
54.3265
53.4404
51.7057
48.1433
45.0846
42.2005
38.8606
35.1455
30.9877
26.6994
21.9516
17.3772
13.8244
11.616
11.551
11.7055
11.2488
11.2486
11.7054
11.5545
11.625
13.8422
17.4075
21.9938
26.7467
31.0318
35.1801
38.8806
42.205
45.0614
47.9893
51.0231
51.836
54.4673
56.6247
58.6125
59.8032
55.0839
53.3848
52.1973
50.5566
49.0599
47.8813
45.6841
43.5119
41.3389
38.8903
36.1674
32.847
29.1948
25.1167
20.9124
17.2737
14.7137
13.375
12.7904
12.5573
12.5521
12.7766
13.3583
14.7051
17.2836
20.9406
25.1536
29.2293
32.8717
36.1792
38.8886
41.3228
43.4694
45.5614
47.5563
48.5777
50.6007
52.2373
53.898
55.2452
50.7376
49.5524
48.3709
47.1926
45.7842
44.7834
43.355
41.8172
40.1344
38.1568
36.0335
33.4141
30.3117
26.7308
22.9038
19.3906
16.7503
15.1887
14.4753
14.2434
14.2356
14.4548
15.1659
16.7418
19.405
22.9351
26.766
30.3401
33.4291
36.0322
38.1348
40.0846
41.7357
43.2347
44.6125
45.6151
47.1655
48.3843
49.7162
50.8384
46.9275
45.7593
44.4896
43.3767
42.1144
41.2102
40.2889
39.3812
38.3467
36.9449
35.3628
33.3955
30.8912
27.7929
24.2852
20.873
18.1599
16.4813
15.7129
15.5011
15.4965
15.7017
16.4731
18.1685
20.9024
24.3271
27.8349
30.9239
33.414
35.3633
36.9195
38.288
39.2998
40.2056
41.1397
42.0637
43.3497
44.4701
45.7667
46.9573
44.2665
42.7113
41.0625
39.5511
38.0642
36.947
36.1322
35.6116
35.1869
34.4872
33.5802
32.3432
30.5655
28.1063
25.0736
21.9119
19.2402
17.5017
16.6877
16.4857
16.4896
16.6984
17.5212
19.2758
21.966
25.1394
28.1733
30.6259
32.3934
33.6157
34.4963
35.1621
35.5694
36.1004
36.9378
38.0608
39.5318
41.031
42.6776
44.2695
42.627
40.4753
38.2318
36.062
34.0151
32.3734
31.2862
30.8064
30.7158
30.5925
30.3503
29.8343
28.7945
27.0504
24.6796
22.0832
19.8247
18.3147
17.5817
17.397
17.4064
17.6059
18.3496
19.8738
22.1516
24.766
27.1472
28.8936
29.9306
30.4369
30.6557
30.7436
30.8078
31.2842
32.3792
34.0184
36.048
38.2067
40.4462
42.6322
41.6166
38.9426
36.0958
33.214
30.4577
28.1461
26.6008
25.9405
25.9121
26.0925
26.2661
26.2134
25.6895
24.5771
23.0035
21.3079
19.8694
18.9122
18.4316
18.3007
18.3054
18.4426
18.9244
19.888
21.3442
23.065
24.6612
25.7885
26.3207
26.3736
26.1869
25.9809
25.9799
26.6196
28.1517
30.4555
33.2039
36.082
38.9269
41.6279
41.007
37.9541
34.6269
31.1429
27.7298
24.7998
22.8353
22.0053
21.9884
22.2845
22.5794
22.669
22.4162
21.8255
21.0358
20.2385
19.5902
19.1618
18.9432
18.8851
18.8831
18.9361
19.1443
19.5662
20.22
21.0367
21.8512
22.4628
22.7315
22.6527
22.3605
22.0624
22.0682
22.8767
24.8109
27.725
31.1366
34.6233
37.9499
41.0211
40.6756
37.3751
33.7184
29.8026
25.8832
22.4635
20.1929
19.366
19.5724
20.1256
20.5958
20.8106
20.7412
20.4674
20.094
19.7149
19.4052
19.2019
19.1057
19.0944
19.0934
19.102
19.1902
19.384
19.6888
20.0745
20.4646
20.7547
20.8358
20.6326
20.1765
19.646
19.4548
20.2636
22.4863
25.8776
29.7984
33.7222
37.379
40.6899
40.5515
37.1061
33.2485
29.0565
24.7864
20.9875
18.466
17.7265
18.3385
19.3933
20.3003
20.8477
21.0243
20.9148
20.6143
20.2317
19.8805
19.6301
19.5031
19.4918
19.4978
19.5192
19.6518
19.9023
20.2494
20.6309
20.9389
21.0562
20.8821
20.3412
19.4567
18.4464
17.8689
18.5789
21.0234
24.7775
29.0512
33.2561
37.1141
40.5649
40.5636
37.048
33.084
28.7328
24.2374
20.1516
17.3817
16.6693
17.6405
19.1988
20.5972
21.555
22.0378
22.0976
21.8263
21.3783
20.918
20.556
20.3512
20.3235
20.3365
20.3868
20.6089
20.9785
21.4346
21.8739
22.1425
22.0854
21.605
20.6596
19.3024
17.8164
16.892
17.5457
20.1961
24.2197
28.7223
33.0915
37.0567
40.575
40.6353
37.1006
33.0877
28.6558
24.0208
19.7277
16.7222
15.9565
17.1541
19.0856
20.8724
22.1736
22.9265
23.1471
22.9307
22.469
21.9583
21.5312
21.2768
21.2405
21.258
21.3241
21.5991
22.0322
22.5318
22.9717
23.1742
22.9571
22.2193
20.9518
19.239
17.4161
16.2745
16.9375
19.7738
23.9889
28.6368
33.0922
37.1069
40.6443
40.7098
37.1803
33.1532
28.6829
23.9657
19.5246
16.3151
15.4458
16.7651
18.9516
21.0191
22.5757
23.5281
23.8659
23.6984
23.2487
22.7277
22.2752
21.9957
21.9529
21.9719
22.0459
22.3413
22.7901
23.2852
23.6972
23.8397
23.5087
22.5926
21.1034
19.1546
17.1205
15.8659
16.5792
19.5672
23.9166
28.6534
33.153
37.1825
40.7162
40.7518
37.2379
33.2153
28.73
23.9669
19.4239
16.0392
15.0376
16.4011
18.7613
21.0352
22.7825
23.8751
24.2923
24.1671
23.744
23.2348
22.7775
22.4835
22.4309
22.4495
22.5304
22.8309
23.2691
23.7329
24.1
24.1885
23.7809
22.7486
21.1108
19.0107
16.8553
15.566
16.355
19.4625
23.9022
28.6898
33.2111
37.2348
40.7564
40.7418
37.2495
33.2441
28.758
23.9765
19.365
15.8306
14.6699
16.011
18.4843
20.9148
22.8101
24.0101
24.4927
24.4155
24.038
23.5638
23.1204
22.8216
22.7592
22.7769
22.865
23.1602
23.5664
23.9724
24.2706
24.2945
23.823
22.7076
20.9693
18.7782
16.5732
15.3179
16.2084
19.4068
23.9017
28.7108
33.2373
37.243
40.745
40.6688
37.2026
33.2234
28.7503
23.9752
19.3262
15.6672
14.3174
15.5761
18.1114
20.6576
22.6708
23.9658
24.5231
24.5198
24.2182
23.8067
23.3999
23.1091
23.0401
23.0588
23.1542
23.4341
23.7865
24.1043
24.2981
24.226
23.6747
22.4852
20.6797
18.449
16.2595
15.1026
16.1228
19.3854
23.8997
28.7047
33.2174
37.1965
40.6725
40.5193
37.0843
33.1372
28.6913
23.9439
19.2919
15.5363
13.9731
15.0911
17.6363
20.2596
22.3698
23.764
24.4256
24.5404
24.3589
24.0482
23.7064
23.4399
23.3689
23.3908
23.495
23.7486
24.0213
24.2125
24.2537
24.0352
23.3669
22.0934
20.2408
18.0188
15.9136
14.9211
16.0942
19.3915
23.885
28.6601
33.1409
37.0829
40.5291
40.2755
36.8729
32.9605
28.5512
23.8491
19.2285
15.4095
13.6272
14.5591
17.0598
19.719
21.914
23.4312
24.248
24.5431
24.542
24.3811
24.1399
23.9174
23.8473
23.875
23.9935
24.2126
24.3795
24.3986
24.2229
23.7844
22.9363
21.5486
19.6583
17.4928
15.5457
14.7785
16.1086
19.405
23.8341
28.5547
32.9873
36.8837
40.2972
39.9157
36.542
32.6598
28.285
23.6356
19.0748
15.2312
13.2563
13.9695
16.3695
19.0314
21.3184
23.0056
24.0555
24.6158
24.8705
24.9182
24.8167
24.6545
24.5836
24.6198
24.764
24.9479
24.9879
24.7879
24.3191
23.5631
22.4394
20.8704
18.9283
16.8634
15.1569
14.6707
16.1369
19.3805
23.7067
28.3528
32.7286
36.5774
39.9573
39.4104
36.0507
32.1835
27.8186
23.2037
18.6968
14.8494
12.7271
13.2469
15.5554
18.2422
20.671
22.6067
23.9863
24.9147
25.5152
25.8336
25.9035
25.8088
25.7264
25.7706
25.9581
26.1189
26.0271
25.573
24.7334
23.54
22.0049
20.1423
18.0928
16.1387
14.7241
14.5414
16.0948
19.2226
23.4236
27.9952
32.3187
36.1277
39.481
38.7716
35.4037
31.5156
27.1141
22.4611
17.9298
14.022
11.7527
12.1994
14.5858
17.4416
20.1332
22.4307
24.249
25.641
26.6517
27.2651
27.4994
27.449
27.3289
27.3759
27.6304
27.805
27.6183
26.9225
25.67
23.9289
21.8252
19.5105
17.2336
15.3266
14.1746
14.2523
15.8238
18.8107
22.9134
27.4504
31.745
35.5358
38.8827
38.0529
34.648
30.6902
26.1783
21.3701
16.6565
12.5046
10.035
10.7114
13.5796
16.888
20.0165
22.777
25.0885
26.9595
28.3525
29.2022
29.5341
29.4763
29.289
29.3291
29.6619
29.8952
29.6917
28.8468
27.2557
24.9747
22.2161
19.2917
16.6031
14.5613
13.491
13.66
15.1605
18.0276
22.1258
26.7099
31.0317
34.8416
38.2121
37.5638
34.1291
30.1225
25.526
20.5785
15.6666
11.2561
9.74379
10.1044
12.8227
16.5363
19.9753
23.0374
25.6563
27.809
29.4101
30.3739
30.7388
30.6591
30.4251
30.4588
30.8386
31.1198
30.936
30.0422
28.2863
25.6977
22.5257
19.1885
16.2055
14.0571
13.0241
13.2249
14.6564
17.4543
21.5744
26.2009
30.544
34.3661
37.7544
67.6784
41.9044
43.9086
46.2666
49.4677
52.4998
56.0608
59.4171
62.4802
65.1331
67.473
69.6521
71.7962
73.9637
76.1681
78.4073
80.6868
82.9948
85.3176
87.6173
89.83
91.8382
93.5065
94.5935
67.183
42.787
43.6028
45.7536
48.6894
51.5555
54.991
58.3082
61.3641
64.0084
66.3116
68.4211
70.4742
72.5413
74.6405
76.7632
78.9139
81.0925
83.2859
85.4607
87.5551
89.4596
91.0453
92.0832
67.5034
43.5314
43.3938
45.3757
48.0256
50.6939
53.962
57.2097
60.2452
62.885
65.1656
67.2199
69.1907
71.1612
73.1587
75.1728
77.1989
79.2469
81.3091
83.3541
85.3271
87.1243
88.6236
89.61
57.0637
43.2072
43.3198
45.1222
47.4927
49.9412
53.0045
56.1474
59.1395
61.7685
64.0347
66.0492
67.9515
69.835
71.7384
73.6542
75.5685
77.4913
79.4242
81.3408
83.1913
84.8807
86.2934
87.2265
84.3965
45.052
43.3046
44.9895
47.0913
49.3082
52.1386
55.1394
58.0581
60.6611
62.9134
64.8994
66.7478
68.5565
70.3751
72.2035
74.0215
75.8323
77.6416
79.4338
81.1657
82.7481
84.0743
84.9542
74.2102
44.8073
43.4059
44.9561
46.8167
48.799
51.3757
54.2001
57.0119
59.5657
61.7959
63.758
65.5635
67.3094
69.0531
70.8036
72.5403
74.2564
75.9548
77.6298
79.2483
80.7291
81.9715
82.798
74.1589
46.4949
43.5728
45.0146
46.6609
48.4139
50.7255
53.3425
56.0128
58.4897
60.6819
62.6169
64.3854
66.0775
67.7544
69.4345
71.1013
72.7404
74.3452
75.9157
77.4294
78.8145
79.9787
80.7547
68.0151
46.4597
43.8281
45.1471
46.6106
48.1495
50.1951
52.5808
55.0779
57.4472
59.5797
61.4771
63.2075
64.8499
66.4651
68.0792
69.6833
71.2594
72.7894
74.2721
75.6937
76.9926
78.0852
78.8145
66.6298
46.5461
44.0794
45.3455
46.6524
47.9974
49.7861
51.9271
54.2255
56.4584
58.5064
60.3498
62.0345
63.6258
65.1804
66.7294
68.2728
69.7939
71.2651
72.678
74.0231
75.248
76.2782
76.966
64.8203
47.973
44.4761
45.5878
46.7689
47.9476
49.4988
51.3929
53.4756
55.5467
57.485
59.2548
60.8814
62.415
63.9058
65.3869
66.867
68.3343
69.7567
71.1157
72.4008
73.5659
74.5446
75.1971
60.9259
46.987
44.778
45.8653
46.9443
47.9845
49.3248
50.981
52.8431
54.7356
56.5432
58.2189
59.7719
61.2378
62.6579
64.0651
65.4753
66.8841
68.2598
69.5754
70.8145
71.9339
72.8727
73.4961
60.8968
47.7026
45.1529
46.1661
47.1631
48.0936
49.2517
50.6884
52.3355
54.0421
55.7032
57.268
58.7322
60.1184
61.4593
62.7852
64.1166
65.4572
66.7809
68.0559
69.2582
70.3432
71.2525
71.8527
60.9194
48.4065
45.5488
46.4757
47.41
48.2568
49.2627
50.5064
51.9524
53.475
54.9829
56.4242
57.7869
59.0829
60.3356
61.5718
62.8149
64.0758
65.3365
66.566
67.7338
68.791
69.6784
70.2598
60.3352
48.6468
45.9094
46.7927
47.6766
48.4538
49.3388
50.4232
51.6835
53.0327
54.3873
55.7005
56.9537
58.1509
59.3087
60.449
61.5958
62.765
63.9489
65.1214
66.2495
67.279
68.1475
68.7124
58.8226
48.6206
46.2305
47.1033
47.9452
48.6738
49.4616
50.4154
51.5146
52.7048
53.9142
55.0991
56.2402
57.3353
58.3937
59.4336
60.4779
61.5467
62.6404
63.7414
64.8185
65.8145
66.662
67.21
60.3413
49.1826
46.5743
47.4059
48.2175
48.8985
49.6118
50.4565
51.424
52.4721
53.5478
54.6115
55.6421
56.6344
57.5937
58.5332
59.4735
60.4356
61.4281
62.4427
63.4541
64.4053
65.2246
65.7532
51.5374
48.7198
46.8515
47.6908
48.4776
49.1241
49.773
50.5243
51.3801
52.3061
53.2615
54.2124
55.1396
56.0339
56.8961
57.7366
58.5733
59.427
60.3107
61.2247
62.1521
63.041
63.8191
64.3238
77.4368
49.8794
47.151
47.9547
48.7319
49.3425
49.9398
50.6056
51.359
52.1756
53.0216
53.8681
54.6968
55.4975
56.2679
57.0139
57.7498
58.4945
59.2651
60.0692
60.8994
61.7108
62.4356
62.9112
71.0515
50.3004
47.4125
48.1952
48.9662
49.5465
50.0995
50.6889
51.3502
52.063
52.8052
53.5528
54.2884
54.9994
55.6814
56.3374
56.9783
57.6203
58.2808
58.9721
59.695
60.4158
61.0749
61.5157
67.3791
50.2787
47.5618
48.3994
49.1876
49.741
50.2453
50.768
51.3435
51.9608
52.6037
53.2555
53.901
54.5273
55.1263
55.6976
56.2486
56.7929
57.3474
57.9271
58.54
59.1622
59.7458
60.1455
70.4119
52.3606
47.9673
48.587
49.3846
49.9138
50.3811
50.8441
51.3357
51.8636
52.4148
52.9759
53.5342
54.0774
54.5966
55.0887
55.557
56.0115
56.4667
56.9382
57.439
57.9563
58.4561
58.8098
67.9495
51.8502
48.0455
48.7217
49.5432
50.0691
50.495
50.9074
51.3284
51.77
52.233
52.7089
53.1856
53.6502
54.0926
54.5076
54.8968
55.2668
55.6298
56.0003
56.3932
56.8042
57.2136
57.5153
75.5339
55.2651
48.5774
48.8518
49.6802
50.2061
50.5912
50.9521
51.3129
51.6822
52.0643
52.458
52.8556
53.2457
53.6168
53.9614
54.2776
54.5691
54.8451
55.1186
55.4063
55.7118
56.029
56.2768
67.346
54.0917
48.7575
48.9195
49.7575
50.299
50.6715
50.9803
51.2815
51.5862
51.8996
52.2216
52.5459
52.8631
53.1633
53.4388
53.6861
53.9057
54.103
54.2881
54.4763
54.6769
54.8974
55.0862
67.5205
54.0765
48.929
48.9918
49.8267
50.3646
50.7201
50.9969
51.2446
51.4889
51.739
51.9966
52.257
52.5115
52.7492
52.9611
53.1427
53.2927
53.4141
53.5155
53.611
53.7138
53.8416
53.9711
65.3157
54.0494
49.1177
48.9599
49.7928
50.3626
50.7182
50.9735
51.1846
51.3793
51.5731
51.7715
51.9719
52.1665
52.3456
52.5
52.6232
52.7118
52.7655
52.7883
52.793
52.7975
52.8298
52.8981
66.3452
55.0798
49.537
49.0441
49.7989
50.3429
50.6793
50.9112
51.0918
51.2499
51.4015
51.5535
51.7043
51.8476
51.9746
52.077
52.1472
52.1801
52.1731
52.1282
52.0548
51.9719
51.9149
51.9189
56.8533
54.2662
49.7562
48.9086
49.6283
50.2248
50.5728
50.791
50.9475
51.0755
51.1922
51.305
51.4134
51.5119
51.5926
51.6472
51.6678
51.6481
51.5833
51.4731
51.3248
51.1588
51.0183
50.9645
68.9666
56.2073
50.4265
49.0999
49.5932
50.1108
50.4296
50.6309
50.7702
50.878
50.9706
51.0554
51.1324
51.1966
51.2408
51.2571
51.2375
51.1742
51.0609
50.895
50.6811
50.4396
50.2194
50.107
69.2195
57.6834
50.9206
48.8992
49.2894
49.8625
50.2042
50.4008
50.5261
50.6155
50.6872
50.7477
50.7969
50.8302
50.8407
50.821
50.7626
50.6575
50.4974
50.2775
50.0007
49.689
49.3955
49.228
67.5031
58.7284
51.9267
49.2702
49.2215
49.6507
49.9506
50.1277
50.239
50.317
50.378
50.4269
50.462
50.4783
50.469
50.427
50.3441
50.2104
50.0169
49.7575
49.4318
49.0609
48.7013
48.4795
60.1334
58.5849
52.3462
49.1459
48.871
49.2886
49.585
49.7463
49.8423
49.9092
49.9611
49.9999
50.0222
50.0221
49.9929
49.9276
49.818
49.6542
49.4263
49.1257
48.7511
48.3251
47.9073
47.64
78.2525
59.7886
53.2703
49.5879
48.7533
48.949
49.1763
49.3093
49.3934
49.4585
49.5141
49.5579
49.5835
49.5838
49.5521
49.4813
49.3633
49.1877
48.9431
48.6204
48.2148
47.7474
47.2788
46.967
67.793
59.9017
53.6844
49.681
48.4438
48.4691
48.6398
48.7449
48.8136
48.8724
48.9269
48.9705
48.9942
48.9893
48.9482
48.8644
48.7295
48.5335
48.2647
47.9118
47.4701
46.9619
46.451
46.1078
60.6485
59.8737
54.4268
50.0791
48.3008
48.0262
48.0825
48.1398
48.1887
48.245
48.3076
48.3652
48.4036
48.4121
48.3822
48.3064
48.177
47.9832
47.7116
47.3514
46.8937
46.3592
45.8106
45.4337
74.9604
60.6946
54.8454
50.2959
48.0376
47.4538
47.3849
47.3886
47.41
47.4544
47.5153
47.5761
47.6188
47.6294
47.5978
47.5174
47.379
47.1729
46.8859
46.5048
46.0217
45.4585
44.8807
44.4858
62.9717
60.0193
55.2027
50.6992
47.9897
46.99
46.7089
46.6133
46.5849
46.6075
46.6672
46.7403
46.8014
46.8325
46.8213
46.758
46.6353
46.4415
46.1617
45.7835
45.2939
44.7122
44.1035
43.6819
72.7461
61.0284
55.5077
50.7973
47.7154
46.3538
45.8644
45.6639
45.5769
45.5694
45.6178
45.6911
45.7589
45.7965
45.7889
45.7278
45.603
45.4057
45.1205
44.7319
44.2278
43.6294
43.0006
42.571
64.3668
60.1937
55.7729
51.2571
47.8003
45.9366
45.1012
44.7036
44.5012
44.4208
44.4343
44.5036
44.5846
44.6451
44.6645
44.6293
44.5307
44.3517
44.0789
43.6966
43.1874
42.566
41.902
41.4432
71.2
60.1668
55.3646
51.0577
47.4951
45.283
44.1296
43.5142
43.1791
43.025
43.0021
43.0585
43.1421
43.2095
43.2356
43.2082
43.1166
42.9495
42.691
42.3225
41.8247
41.2168
40.5514
40.1013
65.7452
65.1233
68.0954
70.4061
68.5385
73.6188
67.4345
54.528
62.5679
54.3743
49.9167
18.4091
19.1892
23.8664
19.4336
10.1906
14.879
11.7306
11.5502
11.1936
11.2008
11.5848
11.7911
14.9593
10.3992
19.5293
24.0088
19.5502
18.4966
50.0823
54.3386
63.0704
53.9616
67.0279
76.5951
74.4006
68.297
67.7579
57.6764
86.8159
40.3593
37.9452
36.0774
33.9407
31.7051
28.9752
27.14
25.7864
24.4787
24.3346
24.0216
25.0642
22.8488
22.2416
22.9236
22.4698
21.6691
21.4832
21.1125
20.9658
20.9763
21.1496
21.5495
21.7715
22.5978
23.0832
22.4647
23.0178
25.2839
24.181
24.6303
24.613
25.9874
27.3564
29.3502
31.1625
33.5343
35.9138
37.6298
40.4915
43.5946
41.9543
40.916
39.4369
38.334
37.0506
35.9322
34.7751
33.7055
32.7305
31.9005
31.2637
31.0937
30.7757
30.2517
29.9804
29.578
29.0881
28.8234
28.6606
28.6685
28.8445
29.1292
29.6401
30.0695
30.3605
30.8941
31.2244
31.3982
32.028
32.8468
33.8197
34.8736
36.0207
37.1354
38.4367
39.5494
41.0252
42.0885
43.7103
46.143
44.7241
43.8054
42.5521
41.5858
40.5061
39.6122
38.7615
38.0553
37.4375
36.9347
36.5005
36.1393
35.9062
35.8194
35.5997
35.2572
34.8542
34.5993
34.4518
34.4575
34.6143
34.8839
35.3053
35.6646
35.8981
36.002
36.2297
36.6112
37.0214
37.5548
38.135
38.8699
39.6964
40.6011
41.678
42.6516
43.9068
44.8348
46.2702
49.533
48.3419
47.5317
46.4112
45.5094
44.4735
43.5927
42.704
41.9684
41.2973
40.777
40.3351
39.9965
39.7247
39.4855
39.3425
39.123
38.7055
38.4746
38.3239
38.3277
38.485
38.726
39.1555
39.3884
39.5402
39.7876
40.0642
40.4139
40.8479
41.3889
42.0365
42.7986
43.6635
44.5613
45.5913
46.5016
47.6276
48.4454
49.6575
52.6546
51.4813
50.7207
49.5947
48.7593
47.7332
46.9404
46.0882
45.4248
44.7787
44.2737
43.8189
43.4608
43.1504
42.9039
42.6453
42.3922
42.0125
41.7844
41.633
41.6351
41.7914
42.0248
42.4138
42.6749
42.9398
43.196
43.5071
43.8804
44.3257
44.8545
45.4781
46.1708
47.0006
47.8145
48.8345
49.68
50.8167
51.5793
52.785
56.2557
55.014
54.2376
53.0374
52.1877
51.1045
50.2959
49.3999
48.7103
48.0281
47.482
46.9842
46.5693
46.2046
45.8761
45.5731
45.2223
44.8507
44.6107
44.4557
44.4564
44.6153
44.8574
45.2341
45.5918
45.8997
46.2361
46.6036
47.0321
47.5236
48.0932
48.7554
49.475
50.3481
51.1787
52.2541
53.11
54.322
55.0914
56.3677
59.5926
58.2298
57.4146
56.1292
55.2717
54.1443
53.3397
52.4173
51.7216
51.0073
50.4384
49.9004
49.4439
49.0229
48.6371
48.2432
47.7971
47.4682
47.2023
47.0442
47.0438
47.206
47.4712
47.8028
48.254
48.6521
49.0456
49.4677
49.9383
50.469
51.062
51.7566
52.4826
53.3829
54.2089
55.3304
56.1904
57.4908
58.2934
59.689
62.6243
61.1407
60.2913
58.9311
58.0647
56.8917
56.0776
55.1224
54.4042
53.6604
53.0587
52.4799
51.9786
51.5039
51.0527
50.58
50.0905
49.7528
49.4767
49.3114
49.3099
49.4805
49.7542
50.0916
50.5852
51.0613
51.5199
51.9949
52.5101
53.0806
53.7064
54.43
55.1773
56.1107
56.9422
58.1108
58.9732
60.349
61.183
62.6911
65.262
63.681
62.8201
61.4056
60.5404
59.3315
58.5179
57.5375
56.8176
56.0504
55.4311
54.8214
54.2838
53.7573
53.2337
52.6517
52.2301
51.8425
51.5731
51.3963
51.3941
51.578
51.8432
52.229
52.6525
53.2369
53.7675
54.2928
54.8441
55.4435
56.0865
56.8322
57.5796
58.5388
59.3647
60.5707
61.4258
62.8525
63.7005
65.2918
67.6192
65.9706
65.1192
63.6667
62.809
61.576
60.7737
59.7832
59.0651
58.2837
57.6506
57.0147
56.4425
55.8619
55.247
54.6703
54.2171
53.8333
53.5508
53.3661
53.3631
53.5574
53.8343
54.215
54.6678
55.2458
55.8671
56.4449
57.03
57.6535
58.3093
59.0678
59.8102
60.7804
61.5889
62.8191
63.6623
65.1178
65.9625
67.6025
69.843
68.145
67.3149
65.8349
64.996
63.7603
62.9782
61.9881
61.2768
60.486
59.8425
59.1814
58.574
57.9366
57.2306
56.704
56.2052
55.8307
55.5319
55.34
55.3365
55.541
55.8328
56.2028
56.6998
57.2254
57.9369
58.5698
59.189
59.8356
60.4998
61.2664
61.9981
62.9685
63.7513
64.9825
65.8058
67.2745
68.1064
69.7745
72.046
70.3075
69.5081
68.0132
67.204
65.9772
65.2166
64.2277
63.5237
62.7225
62.0658
61.3746
60.7197
59.9952
59.3042
58.7516
58.251
57.8642
57.5548
57.3539
57.35
57.567
57.8683
58.249
58.7472
59.2959
59.9921
60.7103
61.3754
62.0497
62.7248
63.5003
64.2206
65.1893
65.9464
67.1644
67.9605
69.428
70.2382
71.9259
74.278
72.5044
71.7448
70.2483
69.4774
68.2555
67.514
66.5252
65.8209
65.0061
64.3299
63.606
62.9022
62.0946
61.444
60.8461
60.3511
59.9481
59.6278
59.4173
59.4132
59.6436
59.9551
60.3507
60.8421
61.4347
62.0886
62.8886
63.6007
64.3059
64.9976
65.7858
66.502
67.4695
68.2051
69.4112
70.1742
71.6276
72.4072
74.1109
76.5529
74.7562
74.0448
72.5489
71.8123
70.5936
69.8661
68.8737
68.1646
67.3343
66.6366
65.877
65.1146
64.2556
63.6175
62.9918
62.4931
62.0754
61.7427
61.5224
61.5182
61.7627
62.0859
62.4954
62.9893
63.609
64.2479
65.1
65.8682
66.6069
67.317
68.1196
68.8369
69.8061
70.5265
71.722
72.4563
73.8937
74.6342
76.3459
78.8746
77.0645
76.3986
74.9064
74.1959
72.9798
72.2585
71.2585
70.5382
69.6857
68.9571
68.1512
67.3204
66.4858
65.8154
65.1801
64.6706
64.2388
63.8931
63.6627
63.6585
63.9177
64.2536
64.6768
65.1805
65.8095
66.4783
67.3055
68.1412
68.9247
69.6628
70.4863
71.2117
72.1863
72.8998
74.0859
74.7984
76.2197
76.9235
78.6328
81.2409
79.418
78.7944
77.3077
76.6152
75.3995
74.6786
73.6681
72.9332
72.0588
71.302
70.4567
69.5657
68.7452
68.0421
67.401
66.8766
66.431
66.0716
65.8309
65.8269
66.1011
66.4508
66.8877
67.4056
68.0403
68.7407
69.5531
70.4473
71.2692
72.0329
72.8778
73.6153
74.598
75.3118
76.4897
77.1905
78.5934
79.2634
80.9701
83.6366
81.803
81.2218
79.7333
79.0572
77.8374
77.1134
76.0911
75.3401
74.4451
73.6616
72.7804
71.8336
71.0218
70.2881
69.64
69.0993
68.6397
68.266
68.015
68.0111
68.3008
68.6653
69.1163
69.6504
70.2922
71.0223
71.8262
72.7744
73.6317
74.4195
75.2851
76.0363
77.0293
77.7472
78.9216
79.6134
81.0042
81.6417
83.3453
86.044
84.1983
83.6554
82.162
81.4975
80.2717
79.5407
78.5062
77.7375
76.8231
76.0135
75.099
74.1022
73.2934
72.5313
71.8743
71.3164
70.8425
70.4538
70.1928
70.1891
70.4942
70.8745
71.3404
71.8919
72.5431
73.3011
74.1024
75.0997
75.9898
76.8009
77.6867
78.4537
79.4575
80.1841
81.3576
82.0442
83.4287
84.0355
85.7384
88.4241
86.5641
86.0541
84.5537
83.8958
82.6626
81.9212
80.874
80.0856
79.1512
78.3116
77.355
76.3376
75.5192
74.7326
74.0642
73.4889
73.0001
72.5963
72.3254
72.322
72.6425
73.0391
73.5207
74.0902
74.7533
75.5364
76.3458
77.3685
78.2988
79.1363
80.0424
80.8274
81.8426
82.5817
83.7563
84.4419
85.8239
86.404
88.1088
90.7125