/*--------------------------------*- C++ -*----------------------------------*\
  =========                 |
  \\      /  F ield         | OpenFOAM: The Open Source CFD Toolbox
   \\    /   O peration     | Website:  https://openfoam.org
    \\  /    A nd           | Version:  6
     \\/     M anipulation  |
\*---------------------------------------------------------------------------*/
FoamFile
{
    version     2.0;
    format      ascii;
    class       volVectorField;
    location    "44";
    object      wallShearStress;
}
// * * * * * * * * * * * * * * * * * * * * * * * * * * * * * * * * * * * * * //

dimensions      [0 2 -2 0 0 0 0];

internalField   uniform (0 0 0);

boundaryField
{
    inlet
    {
        type            calculated;
        value           uniform (0 0 0);
    }
    outlet
    {
        type            calculated;
        value           uniform (0 0 0);
    }
    roughCylinder
    {
        type            calculated;
        value           nonuniform List<vector> 
5120
(
(-0.000429765 -0.000617704 -0.000324152)
(-0.000384007 -0.000555634 -3.85048e-05)
(-0.000346685 -0.000542184 1.72076e-06)
(-0.000383752 -0.00060349 4.9335e-05)
(-0.00045035 -0.000681749 0.000104593)
(-0.000520856 -0.000742062 0.000156963)
(-0.000592134 -0.000782006 0.000203158)
(-0.000659884 -0.000803731 0.000241912)
(-0.000721592 -0.000811202 0.000272463)
(-0.000777202 -0.000812021 0.000295608)
(-0.000827721 -0.000813433 0.000313352)
(-0.000870265 -0.000816018 0.000324929)
(-0.000906126 -0.000822859 0.00033068)
(-0.000936781 -0.00083407 0.000331617)
(-0.000963253 -0.000849043 0.00032888)
(-0.000987174 -0.000867008 0.000323574)
(-0.00100999 -0.000887103 0.000316518)
(-0.00103313 -0.000908946 0.000308318)
(-0.00105728 -0.000932135 0.000299198)
(-0.00108281 -0.000956536 0.000289236)
(-0.00110987 -0.000982109 0.000278415)
(-0.0011384 -0.00100882 0.000266668)
(-0.0011683 -0.00103655 0.000253885)
(-0.00119937 -0.00106514 0.000239909)
(-0.00123133 -0.00109433 0.000224494)
(-0.00126382 -0.00112375 0.000207278)
(-0.00129635 -0.00115292 0.000187709)
(-0.00132822 -0.00118116 0.000165038)
(-0.00135842 -0.00120755 0.000138137)
(-0.00138545 -0.0012308 0.000105848)
(-0.00140656 -0.00124921 6.64557e-05)
(-0.00141811 -0.00125993 2.22226e-05)
(-0.0005423 -0.000708437 -0.00037106)
(-0.000409704 -0.000542089 -4.223e-05)
(-0.000365647 -0.000524316 -4.18164e-06)
(-0.000402761 -0.000585384 4.01383e-05)
(-0.000471057 -0.00066447 9.32914e-05)
(-0.000543503 -0.000726548 0.00014437)
(-0.000616734 -0.000768698 0.000189727)
(-0.000686848 -0.000793117 0.000228068)
(-0.000751882 -0.000804411 0.000258943)
(-0.0008118 -0.000809496 0.000283373)
(-0.000866016 -0.000813156 0.000302501)
(-0.000911988 -0.000815484 0.000315264)
(-0.000949575 -0.000821008 0.000321612)
(-0.000981749 -0.000831194 0.000322846)
(-0.00100975 -0.000845517 0.000320344)
(-0.00103505 -0.000862973 0.00031517)
(-0.0010594 -0.000882876 0.000308284)
(-0.00108381 -0.000904397 0.000300198)
(-0.00110927 -0.000927312 0.00029124)
(-0.00113621 -0.0009515 0.000281514)
(-0.00116474 -0.000976869 0.000270997)
(-0.00119477 -0.00100332 0.000259607)
(-0.0012262 -0.00103078 0.000247232)
(-0.00125878 -0.00105903 0.000233708)
(-0.00129226 -0.00108786 0.000218789)
(-0.00132625 -0.00111689 0.000202109)
(-0.00136024 -0.00114565 0.00018312)
(-0.00139351 -0.00117347 0.00016108)
(-0.00142499 -0.00119946 0.000134873)
(-0.00145313 -0.00122235 0.00010337)
(-0.00147511 -0.00124047 6.48933e-05)
(-0.00148714 -0.001251 2.16896e-05)
(-0.000599323 -0.000702939 -0.000361889)
(-0.000451014 -0.000544047 -4.68418e-05)
(-0.000393333 -0.000513239 -1.08891e-05)
(-0.000421562 -0.000563015 3.02054e-05)
(-0.000490036 -0.000640869 8.10091e-05)
(-0.000564077 -0.0007042 0.000130638)
(-0.000639142 -0.000748533 0.000175128)
(-0.000711997 -0.000776341 0.000213334)
(-0.00078084 -0.000792037 0.000244943)
(-0.000844795 -0.000800995 0.000270594)
(-0.000902649 -0.000806901 0.00029076)
(-0.000952345 -0.000810275 0.000304665)
(-0.000992015 -0.000814121 0.000311553)
(-0.00102582 -0.00082327 0.000313172)
(-0.00105534 -0.000836665 0.000310906)
(-0.00108221 -0.000853533 0.000305967)
(-0.00110776 -0.000872744 0.000299204)
(-0.00113366 -0.000893912 0.000291336)
(-0.00116059 -0.000916504 0.000282633)
(-0.00118891 -0.000940277 0.000273185)
(-0.0012188 -0.000965176 0.000262994)
(-0.00125025 -0.00099115 0.000251993)
(-0.00128309 -0.00101808 0.000240061)
(-0.00131715 -0.00104581 0.000227037)
(-0.00135209 -0.00107406 0.000212658)
(-0.00138753 -0.0011025 0.000196564)
(-0.0014229 -0.00113065 0.000178201)
(-0.00145747 -0.00115786 0.000156837)
(-0.00149015 -0.00118327 0.000131377)
(-0.00151933 -0.00120563 0.000100716)
(-0.00154212 -0.00122334 6.32223e-05)
(-0.00155459 -0.00123361 2.11208e-05)
(-0.000621067 -0.00065358 -0.000320736)
(-0.000467557 -0.00050973 -4.99287e-05)
(-0.000408979 -0.000484989 -1.79025e-05)
(-0.000434904 -0.000533082 1.97913e-05)
(-0.000503794 -0.000610417 6.79792e-05)
(-0.000579586 -0.000675376 0.000115956)
(-0.000657056 -0.000722691 0.000159563)
(-0.00073298 -0.000754424 0.000197685)
(-0.000805387 -0.000774402 0.000229998)
(-0.000873364 -0.000787257 0.00025688)
(-0.000934871 -0.00079542 0.000278072)
(-0.00098779 -0.000799978 0.0002928)
(-0.00103109 -0.00080346 0.000300622)
(-0.00106657 -0.000811022 0.000302682)
(-0.00109781 -0.000823392 0.000300758)
(-0.00112611 -0.000839319 0.000296064)
(-0.00115346 -0.000858095 0.000289636)
(-0.00118068 -0.000878613 0.000282002)
(-0.00120887 -0.000900573 0.000273556)
(-0.00123858 -0.000923826 0.000264448)
(-0.00126993 -0.000948222 0.00025466)
(-0.00130282 -0.000973641 0.000244109)
(-0.00133711 -0.000999964 0.000232675)
(-0.00137254 -0.00102701 0.000220181)
(-0.00140885 -0.00105454 0.000206376)
(-0.00144559 -0.00108222 0.00019089)
(-0.00148222 -0.00110959 0.000173175)
(-0.00151799 -0.00113603 0.000152509)
(-0.00155175 -0.00116071 0.000127814)
(-0.00158185 -0.00118241 9.80142e-05)
(-0.00160536 -0.0011996 6.15234e-05)
(-0.00161822 -0.00120956 2.05437e-05)
(-0.000655742 -0.000616732 -0.000285601)
(-0.00049445 -0.000487035 -5.39646e-05)
(-0.000426495 -0.000458783 -2.48319e-05)
(-0.000444816 -0.000500029 9.44922e-06)
(-0.000512892 -0.000575581 5.45956e-05)
(-0.000589984 -0.000641633 0.000100596)
(-0.000669354 -0.000691388 0.000143024)
(-0.000748212 -0.000726895 0.000180903)
(-0.000824564 -0.000751443 0.000213929)
(-0.00089619 -0.000767779 0.000241861)
(-0.000961233 -0.000778153 0.000264075)
(-0.00101784 -0.000784226 0.000279699)
(-0.00106491 -0.000788217 0.000288492)
(-0.0011033 -0.000794317 0.000291313)
(-0.00113629 -0.000805356 0.00028986)
(-0.00116654 -0.000820392 0.000285602)
(-0.00119508 -0.00083802 0.000279433)
(-0.00122389 -0.000857879 0.000272171)
(-0.00125366 -0.000879291 0.00026413)
(-0.00128474 -0.000901864 0.000255417)
(-0.00131732 -0.000925488 0.000246051)
(-0.00135146 -0.000950105 0.000235975)
(-0.00138699 -0.000975585 0.000225062)
(-0.00142371 -0.00100178 0.00021314)
(-0.00146125 -0.00102842 0.000199941)
(-0.0014992 -0.00105519 0.000185096)
(-0.00153696 -0.00108162 0.000168056)
(-0.00157377 -0.00110713 0.000148107)
(-0.00160849 -0.00113092 0.000124196)
(-0.00163941 -0.00115183 9.52735e-05)
(-0.00166356 -0.00116841 5.98026e-05)
(-0.00167672 -0.00117799 1.99602e-05)
(-0.00064252 -0.000533573 -0.000236937)
(-0.000497854 -0.0004473 -5.48832e-05)
(-0.000436389 -0.000424667 -3.09869e-05)
(-0.000448271 -0.00046191 -8.60698e-07)
(-0.00051468 -0.000535235 4.07973e-05)
(-0.000593116 -0.000602449 8.4464e-05)
(-0.000675154 -0.00065543 0.000125583)
(-0.000757506 -0.000695115 0.000163148)
(-0.000837157 -0.000723367 0.000196553)
(-0.000912587 -0.000743089 0.000225427)
(-0.000981395 -0.000755772 0.00024869)
(-0.00104143 -0.000763043 0.000265187)
(-0.00109249 -0.000768072 0.000274959)
(-0.00113482 -0.000773736 0.00027881)
(-0.0011703 -0.00078295 0.000278073)
(-0.00120213 -0.000796432 0.000274282)
(-0.00123291 -0.00081337 0.000268707)
(-0.00126319 -0.000832239 0.00026187)
(-0.00129416 -0.000852623 0.000254227)
(-0.00132657 -0.000874343 0.000245983)
(-0.00136059 -0.000897186 0.000237148)
(-0.00139608 -0.00092096 0.000227629)
(-0.00143292 -0.000945551 0.000217306)
(-0.00147082 -0.000970746 0.000205992)
(-0.00150948 -0.00099634 0.00019343)
(-0.00154847 -0.00102201 0.000179247)
(-0.00158721 -0.00104733 0.000162898)
(-0.00162493 -0.00107177 0.000143681)
(-0.00166047 -0.00109453 0.000120561)
(-0.00169208 -0.00111451 9.25225e-05)
(-0.00171674 -0.00113036 5.80781e-05)
(-0.00173016 -0.00113952 1.93774e-05)
(-0.000612555 -0.00045483 -0.000182468)
(-0.000516097 -0.000413797 -5.73443e-05)
(-0.000444186 -0.000391211 -3.78094e-05)
(-0.000447126 -0.000422226 -1.11125e-05)
(-0.000510817 -0.000492515 2.69213e-05)
(-0.000589964 -0.00056044 6.79023e-05)
(-0.000673541 -0.000615556 0.000107244)
(-0.00075835 -0.000658358 0.000144037)
(-0.000842133 -0.000690798 0.000177765)
(-0.000921324 -0.000713582 0.00020736)
(-0.000993724 -0.00072831 0.000231534)
(-0.00105805 -0.000737351 0.000249189)
(-0.00111291 -0.000743147 0.000259967)
(-0.00115944 -0.000749208 0.000264916)
(-0.00119865 -0.000757358 0.000265196)
(-0.00123343 -0.00076936 0.000262286)
(-0.0012655 -0.000784272 0.000257187)
(-0.00129754 -0.000801991 0.000250954)
(-0.00133034 -0.000821563 0.000243933)
(-0.00136417 -0.000842319 0.000236252)
(-0.0013993 -0.000864056 0.000227962)
(-0.00143588 -0.000886708 0.000219025)
(-0.00147373 -0.000910126 0.000209312)
(-0.00151268 -0.00093417 0.000198651)
(-0.00155232 -0.000958564 0.000186763)
(-0.00159224 -0.000983019 0.000173277)
(-0.00163183 -0.00100712 0.000157648)
(-0.00167029 -0.00103033 0.000139181)
(-0.00170649 -0.00105195 0.000116871)
(-0.00173869 -0.00107092 8.97337e-05)
(-0.00176378 -0.00108596 5.63344e-05)
(-0.00177737 -0.00109465 1.87892e-05)
(-0.00068033 -0.000450959 -0.000154891)
(-0.000529192 -0.000375304 -6.12375e-05)
(-0.000445136 -0.000354537 -4.36586e-05)
(-0.000437699 -0.000378797 -2.06995e-05)
(-0.00049726 -0.000445117 1.30251e-05)
(-0.000576487 -0.000513244 5.06933e-05)
(-0.000662406 -0.000571264 8.79117e-05)
(-0.000751135 -0.000618339 0.000123807)
(-0.000837941 -0.000653813 0.000157323)
(-0.000921058 -0.000679559 0.000187436)
(-0.000997938 -0.000696796 0.000212582)
(-0.00106598 -0.000707082 0.000231272)
(-0.0011254 -0.000714045 0.000243369)
(-0.00117575 -0.000720202 0.000249448)
(-0.00121914 -0.00072817 0.00025093)
(-0.0012568 -0.000738644 0.00024894)
(-0.00129258 -0.000752681 0.000244971)
(-0.00132664 -0.000768905 0.000239524)
(-0.0013606 -0.000786835 0.0002331)
(-0.00139576 -0.00080628 0.00022606)
(-0.00143237 -0.000826918 0.000218459)
(-0.00147025 -0.000848444 0.000210213)
(-0.00150931 -0.000870705 0.000201203)
(-0.00154922 -0.000893469 0.000191238)
(-0.00158973 -0.000916556 0.000180057)
(-0.00163037 -0.000939651 0.000167287)
(-0.0016706 -0.000962393 0.00015239)
(-0.00170965 -0.000984275 0.000134683)
(-0.00174636 -0.00100462 0.000113185)
(-0.00177898 -0.00102243 8.6949e-05)
(-0.00180437 -0.00103659 5.45976e-05)
(-0.00181804 -0.00104483 1.82066e-05)
(-0.000668897 -0.000388464 -0.000119913)
(-0.000527586 -0.000337027 -6.1402e-05)
(-0.000442248 -0.0003172 -4.8856e-05)
(-0.000423287 -0.000335593 -2.97241e-05)
(-0.000476772 -0.00039697 -5.1833e-07)
(-0.000555618 -0.000464868 3.33729e-05)
(-0.00064232 -0.000524361 6.78626e-05)
(-0.000732175 -0.0005733 0.000102019)
(-0.000823388 -0.000612749 0.000135154)
(-0.000910831 -0.000641558 0.000165539)
(-0.000991554 -0.000660689 0.000191351)
(-0.00106485 -0.000673081 0.000211356)
(-0.00112851 -0.000680864 0.000224798)
(-0.00118371 -0.000687625 0.000232405)
(-0.00123071 -0.000695039 0.000235134)
(-0.00127284 -0.000705198 0.00023454)
(-0.00131064 -0.000717569 0.000231503)
(-0.00134713 -0.000732403 0.000227036)
(-0.00138368 -0.000749253 0.000221594)
(-0.00142064 -0.000767439 0.000215397)
(-0.00145837 -0.000786623 0.000208541)
(-0.00149721 -0.000806706 0.00020103)
(-0.00153706 -0.000827495 0.000192753)
(-0.00157776 -0.000848846 0.00018354)
(-0.00161894 -0.0008705 0.000173116)
(-0.00166017 -0.000892165 0.000161109)
(-0.00170088 -0.000913475 0.000146981)
(-0.00174032 -0.000933939 0.000130062)
(-0.00177739 -0.000952952 0.000109404)
(-0.00181034 -0.000969599 8.40995e-05)
(-0.00183594 -0.000982838 5.28277e-05)
(-0.00184945 -0.000990544 1.76143e-05)
(-0.000555328 -0.000282453 -7.51188e-05)
(-0.00050085 -0.000285909 -5.92672e-05)
(-0.000426546 -0.000275173 -5.24164e-05)
(-0.000399252 -0.000289948 -3.74347e-05)
(-0.000444735 -0.000345169 -1.32994e-05)
(-0.000521137 -0.000411233 1.59999e-05)
(-0.000608992 -0.00047252 4.70826e-05)
(-0.000703591 -0.000526072 7.92849e-05)
(-0.000797402 -0.000568014 0.000111241)
(-0.000888789 -0.000599513 0.000141463)
(-0.000975171 -0.000621604 0.000168042)
(-0.00105261 -0.00063521 0.000189066)
(-0.00112175 -0.000644344 0.00020414)
(-0.00118118 -0.000651158 0.000213305)
(-0.0012332 -0.000658667 0.000217755)
(-0.00127799 -0.000667431 0.000218421)
(-0.0013201 -0.000679283 0.000216883)
(-0.00135933 -0.000692874 0.000213585)
(-0.00139727 -0.000707994 0.000209084)
(-0.00143572 -0.0007247 0.00020383)
(-0.00147512 -0.000742654 0.00019793)
(-0.00151534 -0.000761462 0.000191323)
(-0.00155631 -0.000780935 0.000183918)
(-0.00159778 -0.00080084 0.000175538)
(-0.00163947 -0.000820975 0.000165926)
(-0.00168102 -0.000841084 0.000154718)
(-0.00172192 -0.000860845 0.000141389)
(-0.00176153 -0.000879847 0.000125292)
(-0.00179871 -0.000897473 0.000105502)
(-0.00183175 -0.000912891 8.11588e-05)
(-0.00185735 -0.000925159 5.10021e-05)
(-0.00187065 -0.000932271 1.7005e-05)
(-0.000505015 -0.000224709 -4.41506e-05)
(-0.000478556 -0.000240282 -5.87377e-05)
(-0.000410911 -0.000237769 -5.62626e-05)
(-0.000371024 -0.000246752 -4.43391e-05)
(-0.000405255 -0.000294051 -2.48499e-05)
(-0.000479177 -0.000358239 -6.04752e-07)
(-0.000566814 -0.000420151 2.63284e-05)
(-0.000659764 -0.000473546 5.52869e-05)
(-0.000758233 -0.000519479 8.5664e-05)
(-0.000854886 -0.000554534 0.000115385)
(-0.000945206 -0.000578432 0.000142144)
(-0.00102926 -0.000594616 0.000164483)
(-0.00110329 -0.00060455 0.00018109)
(-0.00116875 -0.000612169 0.000192256)
(-0.00122468 -0.000618959 0.000198428)
(-0.00127518 -0.000627719 0.000201088)
(-0.00131932 -0.000637698 0.000200861)
(-0.00136103 -0.000649786 0.000198885)
(-0.00140205 -0.000663884 0.000195736)
(-0.00144251 -0.000679255 0.00019163)
(-0.00148286 -0.000695521 0.000186699)
(-0.00152375 -0.000712641 0.000181017)
(-0.00156515 -0.000730405 0.000174503)
(-0.00160697 -0.000748646 0.000167008)
(-0.00164895 -0.000767157 0.000158273)
(-0.00169065 -0.000785659 0.000147933)
(-0.00173156 -0.000803826 0.000135463)
(-0.00177102 -0.000821247 0.000120231)
(-0.00180808 -0.000837434 0.000101364)
(-0.00184102 -0.0008516 7.80398e-05)
(-0.00186645 -0.000862867 4.90679e-05)
(-0.00187942 -0.00086933 1.63611e-05)
(-0.000517714 -0.000197531 -2.41639e-05)
(-0.000439584 -0.000195157 -5.66329e-05)
(-0.000374751 -0.000194033 -5.7021e-05)
(-0.000332924 -0.000202791 -4.9128e-05)
(-0.000353429 -0.000240809 -3.43148e-05)
(-0.000420178 -0.000299582 -1.58357e-05)
(-0.000506206 -0.000361031 5.90766e-06)
(-0.000605861 -0.000420221 3.11288e-05)
(-0.000706112 -0.000468191 5.88052e-05)
(-0.000806203 -0.000505723 8.72182e-05)
(-0.00090383 -0.000533543 0.000114218)
(-0.0009924 -0.00055102 0.000137346)
(-0.00107322 -0.00056265 0.000155761)
(-0.00114338 -0.000570163 0.000168814)
(-0.00120574 -0.000577262 0.000177297)
(-0.00125877 -0.000584235 0.000181673)
(-0.00130833 -0.000593775 0.000183511)
(-0.00135354 -0.000604652 0.000183204)
(-0.00139585 -0.000616728 0.000181326)
(-0.0014377 -0.000630345 0.000178439)
(-0.00147989 -0.000645241 0.000174733)
(-0.0015222 -0.000660951 0.000170181)
(-0.00156464 -0.000677253 0.000164725)
(-0.00160707 -0.000693934 0.000158222)
(-0.00164917 -0.000710765 0.000150421)
(-0.00169071 -0.000727551 0.000140979)
(-0.00173129 -0.000744027 0.000129392)
(-0.00177044 -0.000759871 0.000115057)
(-0.00180712 -0.000774566 9.71303e-05)
(-0.00183969 -0.000787422 7.48474e-05)
(-0.00186478 -0.000797638 4.70901e-05)
(-0.00187734 -0.000803451 1.57047e-05)
(-0.000450779 -0.000146906 -6.99982e-06)
(-0.000396476 -0.000156572 -5.39081e-05)
(-0.00033551 -0.000155989 -5.6488e-05)
(-0.000286707 -0.000160488 -5.10238e-05)
(-0.000295439 -0.000190098 -4.08e-05)
(-0.000356206 -0.000244155 -2.87419e-05)
(-0.000441038 -0.000305242 -1.3059e-05)
(-0.000532987 -0.000360426 7.03381e-06)
(-0.000638144 -0.000412806 3.12243e-05)
(-0.000744873 -0.000455059 5.77268e-05)
(-0.000845875 -0.000484686 8.39473e-05)
(-0.000942789 -0.000505744 0.000108042)
(-0.00102911 -0.000518373 0.000127971)
(-0.00110691 -0.000527136 0.000143393)
(-0.00117333 -0.000533213 0.000154013)
(-0.00123388 -0.000540482 0.000161038)
(-0.00128553 -0.000547834 0.000164691)
(-0.00133328 -0.000556888 0.000166141)
(-0.00137947 -0.000567927 0.000166064)
(-0.00142382 -0.000580126 0.000164687)
(-0.0014668 -0.000593099 0.000162205)
(-0.00150946 -0.000606873 0.000158779)
(-0.00155196 -0.000621263 0.000154382)
(-0.00159423 -0.000636064 0.000148895)
(-0.0016362 -0.000651143 0.000142096)
(-0.00167744 -0.000666218 0.000133625)
(-0.00171754 -0.000681017 0.000122983)
(-0.00175598 -0.000695196 0.000109583)
(-0.00179203 -0.000708385 9.26498e-05)
(-0.00182406 -0.000719942 7.1469e-05)
(-0.00184866 -0.00072911 4.50012e-05)
(-0.00186064 -0.000734246 1.50138e-05)
(-0.00033095 -9.2202e-05 8.83766e-06)
(-0.000326564 -0.000112124 -4.92019e-05)
(-0.000286751 -0.000120473 -5.5018e-05)
(-0.000240086 -0.000124178 -5.17262e-05)
(-0.000225867 -0.000138528 -4.27098e-05)
(-0.000271431 -0.000181216 -3.65572e-05)
(-0.000348901 -0.000237523 -2.79743e-05)
(-0.000453186 -0.000302048 -1.49563e-05)
(-0.0005576 -0.000355389 4.07386e-06)
(-0.000665952 -0.000399782 2.73846e-05)
(-0.00077654 -0.000435232 5.25568e-05)
(-0.000877734 -0.000457955 7.66993e-05)
(-0.000972427 -0.000473248 9.8255e-05)
(-0.00105504 -0.000481963 0.000115666)
(-0.00112976 -0.0004889 0.000129072)
(-0.00119228 -0.000493906 0.000138212)
(-0.00125068 -0.000500929 0.0001445)
(-0.00130304 -0.00050884 0.000148167)
(-0.00135031 -0.000517538 0.000149733)
(-0.00139586 -0.000527686 0.000149884)
(-0.00144097 -0.000539189 0.000148926)
(-0.00148527 -0.000551492 0.000146884)
(-0.00152881 -0.000564349 0.000143748)
(-0.00157164 -0.000577576 0.000139425)
(-0.00161334 -0.000590898 0.00013368)
(-0.00165391 -0.000604194 0.000126201)
(-0.00169312 -0.000617255 0.000116514)
(-0.00173075 -0.000629837 0.000104071)
(-0.0017659 -0.000641518 8.81353e-05)
(-0.0017971 -0.000651745 6.80614e-05)
(-0.00182098 -0.000659855 4.28973e-05)
(-0.00183236 -0.000664356 1.43215e-05)
(-0.000193008 -4.42235e-05 1.67273e-05)
(-0.00023142 -6.85479e-05 -4.09583e-05)
(-0.000217056 -8.30639e-05 -5.03911e-05)
(-0.000181243 -8.8026e-05 -4.81842e-05)
(-0.000160029 -9.49189e-05 -3.98901e-05)
(-0.000191667 -0.000125749 -3.89152e-05)
(-0.000267402 -0.000180924 -3.99338e-05)
(-0.000347942 -0.000232113 -3.27803e-05)
(-0.000459338 -0.000292162 -2.04829e-05)
(-0.00057637 -0.000343518 -2.03056e-06)
(-0.000687975 -0.000380674 2.05132e-05)
(-0.000799717 -0.000409091 4.43957e-05)
(-0.000899829 -0.000426078 6.68416e-05)
(-0.000992021 -0.00043727 8.65422e-05)
(-0.00107023 -0.000443127 0.000102207)
(-0.00114265 -0.000449191 0.000114477)
(-0.00120291 -0.000453827 0.000122995)
(-0.0012575 -0.000459597 0.000128794)
(-0.00130968 -0.00046732 0.000132604)
(-0.00135844 -0.000476071 0.000134646)
(-0.00140412 -0.000485454 0.000135174)
(-0.00144832 -0.00049562 0.000134459)
(-0.00149142 -0.000506409 0.000132546)
(-0.00153346 -0.00051762 0.000129366)
(-0.00157459 -0.000529165 0.000124746)
(-0.00161439 -0.000540759 0.000118336)
(-0.0016526 -0.000552169 0.000109668)
(-0.0016889 -0.000563104 9.82172e-05)
(-0.00172288 -0.000573309 8.3335e-05)
(-0.00175309 -0.000582263 6.44377e-05)
(-0.00177611 -0.000589352 4.06645e-05)
(-0.00178667 -0.000593206 1.3589e-05)
(-7.27845e-05 -1.22565e-05 1.30599e-05)
(-0.000130437 -3.49572e-05 -2.71994e-05)
(-0.000138114 -4.78265e-05 -4.07737e-05)
(-0.000124231 -5.65958e-05 -4.3305e-05)
(-7.20769e-05 -4.22573e-05 -2.54669e-05)
(-7.00909e-05 -4.69807e-05 -2.1448e-05)
(-0.000131072 -9.08e-05 -3.1261e-05)
(-0.000252448 -0.000170206 -4.3882e-05)
(-0.000351922 -0.00022599 -4.07025e-05)
(-0.000466355 -0.000279421 -2.83665e-05)
(-0.000591392 -0.00032632 -9.95436e-06)
(-0.000705264 -0.000356953 1.21714e-05)
(-0.000815483 -0.000378789 3.5046e-05)
(-0.00091144 -0.000390539 5.61221e-05)
(-0.00100023 -0.000398774 7.44634e-05)
(-0.00107286 -0.000402363 8.88887e-05)
(-0.00114133 -0.000407218 0.000100336)
(-0.00120192 -0.000412248 0.000108759)
(-0.00125463 -0.000417416 0.0001145)
(-0.00130411 -0.000423899 0.000118327)
(-0.0013523 -0.000431827 0.000120662)
(-0.00139852 -0.000440584 0.000121583)
(-0.00144289 -0.000449919 0.000121143)
(-0.00148548 -0.000459627 0.000119295)
(-0.00152594 -0.00046946 0.000115846)
(-0.00156451 -0.000479328 0.000110511)
(-0.00160123 -0.000489083 0.000102856)
(-0.00163621 -0.000498531 9.24097e-05)
(-0.00166876 -0.000507313 7.85679e-05)
(-0.00169765 -0.00051501 6.08328e-05)
(-0.00171959 -0.000521107 3.84462e-05)
(-0.00172935 -0.000524399 1.28657e-05)
(-1.4662e-05 -6.40346e-07 1.02856e-05)
(-4.15294e-05 -9.74834e-06 -9.31472e-06)
(-5.21401e-05 -1.49681e-05 -2.27195e-05)
(-4.41078e-05 -1.90632e-05 -2.4734e-05)
(-3.98966e-05 -2.54637e-05 -2.324e-05)
(-5.89649e-05 -4.53973e-05 -2.85342e-05)
(-5.77793e-05 -4.437e-05 -2.12572e-05)
(-7.70635e-05 -5.444e-05 -2.18411e-05)
(-0.00022953 -0.000149956 -4.82383e-05)
(-0.000352371 -0.000213868 -4.88628e-05)
(-0.000472009 -0.000262448 -3.61733e-05)
(-0.000600576 -0.00030358 -1.7695e-05)
(-0.000714208 -0.000328375 4.09263e-06)
(-0.000822005 -0.000345314 2.60807e-05)
(-0.000911897 -0.000352929 4.59561e-05)
(-0.000997463 -0.000359431 6.32473e-05)
(-0.0010667 -0.000362146 7.69148e-05)
(-0.00112841 -0.00036501 8.75481e-05)
(-0.00118723 -0.000369623 9.57907e-05)
(-0.00124086 -0.000374994 0.000101799)
(-0.0012892 -0.000380756 0.000105821)
(-0.0013346 -0.00038728 0.000108226)
(-0.00137764 -0.000394456 0.000109128)
(-0.0014188 -0.000402179 0.000108543)
(-0.00145816 -0.000410316 0.000106322)
(-0.00149546 -0.000418629 0.000102144)
(-0.00153061 -0.00042689 9.5571e-05)
(-0.00156356 -0.000434827 8.61587e-05)
(-0.00159438 -0.000442276 7.3423e-05)
(-0.00162182 -0.000448831 5.69398e-05)
(-0.00164253 -0.000454005 3.60529e-05)
(-0.00165121 -0.000456743 1.20858e-05)
(2.32104e-06 3.73813e-06 1.87627e-05)
(-2.32754e-06 7.43967e-07 -1.07149e-06)
(-7.3657e-06 -1.37931e-06 -1.24684e-05)
(-1.46708e-05 -1.0644e-05 -2.19985e-05)
(-1.71092e-05 -1.68509e-05 -2.06839e-05)
(-2.88964e-05 -3.10018e-05 -2.68264e-05)
(-4.31097e-05 -4.16239e-05 -2.852e-05)
(-4.85183e-05 -3.94666e-05 -2.30392e-05)
(-7.22373e-05 -5.00717e-05 -2.44867e-05)
(-0.000218535 -0.000133741 -5.18946e-05)
(-0.000357072 -0.000199904 -5.59103e-05)
(-0.000478577 -0.00024347 -4.23655e-05)
(-0.000605322 -0.000277905 -2.36982e-05)
(-0.0007131 -0.000296518 -2.45322e-06)
(-0.00081657 -0.000309709 1.84219e-05)
(-0.000898178 -0.000313971 3.70094e-05)
(-0.000977113 -0.0003184 5.31064e-05)
(-0.00104643 -0.000321653 6.62562e-05)
(-0.00110444 -0.000323846 7.6424e-05)
(-0.00115766 -0.000326974 8.42736e-05)
(-0.00120892 -0.000331577 9.02694e-05)
(-0.00125691 -0.000336994 9.45041e-05)
(-0.00130187 -0.000343053 9.70747e-05)
(-0.00134342 -0.000349451 9.79466e-05)
(-0.00138177 -0.000356091 9.7002e-05)
(-0.0014172 -0.000362875 9.39619e-05)
(-0.00145019 -0.000369688 8.84383e-05)
(-0.00148135 -0.000376386 8.00636e-05)
(-0.0015102 -0.000382623 6.83998e-05)
(-0.00153582 -0.000388095 5.31289e-05)
(-0.00155508 -0.000392416 3.3713e-05)
(-0.00156281 -0.000394715 1.13287e-05)
(7.08823e-06 8.37685e-06 2.52755e-05)
(1.56265e-05 7.0428e-06 -1.94217e-06)
(1.76167e-05 4.13025e-06 -1.14489e-05)
(1.82644e-05 -3.03903e-06 -1.88257e-05)
(1.15787e-05 -1.15693e-05 -2.21256e-05)
(1.6566e-06 -2.03569e-05 -2.39793e-05)
(-1.1982e-05 -2.78456e-05 -2.53001e-05)
(-3.20161e-05 -3.61307e-05 -2.9219e-05)
(-6.13952e-05 -4.84632e-05 -3.44588e-05)
(-0.000117827 -7.49883e-05 -4.46387e-05)
(-0.000204054 -0.000115146 -5.22967e-05)
(-0.000356366 -0.00018227 -5.79755e-05)
(-0.00047793 -0.000220675 -4.51207e-05)
(-0.000601706 -0.000249946 -2.72531e-05)
(-0.000700394 -0.000263224 -7.09199e-06)
(-0.000799436 -0.000274084 1.23681e-05)
(-0.000876266 -0.000277202 2.97375e-05)
(-0.00094411 -0.000278801 4.45235e-05)
(-0.0010096 -0.000281563 5.69533e-05)
(-0.00106813 -0.000284399 6.69761e-05)
(-0.00111863 -0.000287091 7.46786e-05)
(-0.00116454 -0.000290402 8.04262e-05)
(-0.00120649 -0.000294322 8.4343e-05)
(-0.00124598 -0.000298995 8.65497e-05)
(-0.00128246 -0.000304171 8.68871e-05)
(-0.00131609 -0.000309694 8.506e-05)
(-0.00134693 -0.00031532 8.06575e-05)
(-0.00137526 -0.000320761 7.33385e-05)
(-0.00140177 -0.000325918 6.28306e-05)
(-0.00142548 -0.00033047 4.88972e-05)
(-0.00144317 -0.00033405 3.11113e-05)
(-0.00144952 -0.000335895 1.04842e-05)
(1.6468e-05 1.21233e-05 3.14284e-05)
(2.90298e-05 1.12858e-05 -3.9116e-06)
(3.31107e-05 8.08067e-06 -1.27036e-05)
(3.22662e-05 1.21076e-06 -1.59805e-05)
(2.73432e-05 -5.78954e-06 -1.52748e-05)
(2.27489e-05 -1.27152e-05 -1.53296e-05)
(1.11047e-05 -1.53414e-05 -1.24273e-05)
(-1.41862e-06 -1.62732e-05 -1.18531e-05)
(-1.76275e-05 -1.92147e-05 -1.64134e-05)
(-4.05676e-05 -2.80762e-05 -2.33564e-05)
(-6.96414e-05 -3.96127e-05 -2.65107e-05)
(-0.000204981 -0.000104523 -5.22249e-05)
(-0.000354298 -0.000164239 -5.75947e-05)
(-0.000467441 -0.000195664 -4.50234e-05)
(-0.000585708 -0.000220515 -2.87143e-05)
(-0.000671882 -0.000229087 -1.00737e-05)
(-0.000760636 -0.000236894 7.68664e-06)
(-0.000838057 -0.0002411 2.38095e-05)
(-0.000899899 -0.000242055 3.75694e-05)
(-0.000955628 -0.000243094 4.90716e-05)
(-0.00100939 -0.000245412 5.86123e-05)
(-0.00105865 -0.000248329 6.61918e-05)
(-0.00110379 -0.000251868 7.18782e-05)
(-0.00114331 -0.000255585 7.55736e-05)
(-0.00117853 -0.000259686 7.72438e-05)
(-0.00120958 -0.000264032 7.65711e-05)
(-0.00123751 -0.000268551 7.32161e-05)
(-0.00126367 -0.000273127 6.69474e-05)
(-0.00128772 -0.000277389 5.7529e-05)
(-0.00130915 -0.000281122 4.48547e-05)
(-0.00132504 -0.000284051 2.86269e-05)
(-0.00133039 -0.000285606 9.68403e-06)
(2.60855e-05 1.33584e-05 3.3418e-05)
(5.23424e-05 1.53658e-05 -6.25799e-06)
(6.80947e-05 1.25021e-05 -1.87731e-05)
(6.99605e-05 3.80688e-06 -2.32385e-05)
(5.52692e-05 -5.75094e-06 -2.00286e-05)
(5.36845e-05 -1.59564e-05 -1.98224e-05)
(2.6186e-05 -1.45736e-05 -9.50156e-06)
(2.03863e-05 -2.13764e-05 -7.82094e-06)
(4.2609e-06 -2.44328e-05 -9.28099e-06)
(-2.52178e-05 -2.3442e-05 -2.01864e-05)
(-6.42581e-05 -3.68755e-05 -3.48307e-05)
(-6.94973e-05 -3.55911e-05 -2.56295e-05)
(-0.000202349 -9.31153e-05 -4.93966e-05)
(-0.000346062 -0.000145869 -5.5364e-05)
(-0.000445099 -0.000170003 -4.3135e-05)
(-0.000558531 -0.000191859 -2.88319e-05)
(-0.000638571 -0.000199 -1.19402e-05)
(-0.000709452 -0.000202425 4.3043e-06)
(-0.000780642 -0.00020613 1.91279e-05)
(-0.000843271 -0.000208537 3.21758e-05)
(-0.00089446 -0.000209616 4.30677e-05)
(-0.000939391 -0.000210854 5.19148e-05)
(-0.000978572 -0.000212463 5.87189e-05)
(-0.00101519 -0.000214969 6.36699e-05)
(-0.0010474 -0.000217998 6.65543e-05)
(-0.00107605 -0.00022154 6.7073e-05)
(-0.0011013 -0.0002253 6.48294e-05)
(-0.00112367 -0.000228943 5.96048e-05)
(-0.00114479 -0.000232455 5.13918e-05)
(-0.00116387 -0.000235557 4.01625e-05)
(-0.00117787 -0.000237966 2.57287e-05)
(-0.00118155 -0.000239163 8.73995e-06)
(3.33186e-05 1.35663e-05 3.48136e-05)
(7.16856e-05 1.81347e-05 -5.04342e-06)
(9.45334e-05 1.61182e-05 -2.01601e-05)
(0.000106253 7.41822e-06 -2.9058e-05)
(0.000106575 -5.46494e-06 -3.22221e-05)
(9.20578e-05 -1.74959e-05 -2.8987e-05)
(5.37388e-05 -1.99067e-05 -1.67207e-05)
(5.47557e-05 -3.45751e-05 -1.45984e-05)
(3.11207e-05 -3.42443e-05 -4.77981e-06)
(2.86123e-06 -1.50849e-05 -1.06228e-06)
(-1.95276e-05 -1.64799e-05 -1.12152e-05)
(-4.57199e-05 -2.36738e-05 -2.21722e-05)
(-6.82524e-05 -3.13516e-05 -2.37622e-05)
(-0.000185685 -7.90078e-05 -4.42811e-05)
(-0.000324708 -0.000126155 -5.1138e-05)
(-0.000405035 -0.000142772 -3.98295e-05)
(-0.000503934 -0.000160045 -2.71848e-05)
(-0.000587748 -0.000169503 -1.25711e-05)
(-0.000649691 -0.000172114 2.19278e-06)
(-0.000704778 -0.00017342 1.56922e-05)
(-0.000759553 -0.000175624 2.76849e-05)
(-0.000809024 -0.00017782 3.79482e-05)
(-0.000853428 -0.000180318 4.63564e-05)
(-0.000889759 -0.000182556 5.26489e-05)
(-0.000920666 -0.000185172 5.68086e-05)
(-0.000945961 -0.000188012 5.84015e-05)
(-0.000967496 -0.000191074 5.71294e-05)
(-0.000987633 -0.000194309 5.2936e-05)
(-0.00100593 -0.000197295 4.58095e-05)
(-0.00102236 -0.00019987 3.58749e-05)
(-0.00103433 -0.000201862 2.30788e-05)
(-0.00103716 -0.000202904 7.88495e-06)
(3.93459e-05 1.36732e-05 3.74816e-05)
(8.04655e-05 1.91502e-05 -2.64354e-06)
(0.000108546 1.93089e-05 -1.91307e-05)
(0.000125296 1.24674e-05 -2.99716e-05)
(0.000129713 1.83124e-07 -3.60975e-05)
(0.000123324 -1.4155e-05 -3.72128e-05)
(0.000109121 -2.79644e-05 -3.35741e-05)
(7.482e-05 -3.30717e-05 -2.13592e-05)
(3.77978e-05 -2.65664e-05 -7.71342e-06)
(3.46526e-05 -3.96942e-05 -2.38314e-07)
(6.2609e-06 -2.92011e-05 3.05736e-06)
(-1.54832e-05 -1.15362e-05 -6.82291e-06)
(-6.23591e-05 -3.03871e-05 -2.97004e-05)
(-6.47032e-05 -2.89676e-05 -2.18374e-05)
(-0.000161721 -6.36425e-05 -3.72894e-05)
(-0.000298705 -0.000107495 -4.75679e-05)
(-0.000370752 -0.000121898 -3.74621e-05)
(-0.000439412 -0.00013109 -2.49074e-05)
(-0.000514927 -0.000140138 -1.19388e-05)
(-0.000580022 -0.000145487 1.36977e-06)
(-0.000628703 -0.000147327 1.37563e-05)
(-0.000669541 -0.000148351 2.45662e-05)
(-0.000703275 -0.000149198 3.34694e-05)
(-0.000734967 -0.000150848 4.05883e-05)
(-0.000761219 -0.000152894 4.56334e-05)
(-0.0007835 -0.000155476 4.8225e-05)
(-0.000801992 -0.000158242 4.79543e-05)
(-0.000817195 -0.000160803 4.4733e-05)
(-0.000831989 -0.00016334 3.8866e-05)
(-0.000845737 -0.000165556 3.05223e-05)
(-0.000855552 -0.000167233 1.97342e-05)
(-0.000856398 -0.000167928 6.7787e-06)
(4.32975e-05 1.3578e-05 4.09672e-05)
(8.23001e-05 1.93447e-05 2.42517e-07)
(0.000111981 2.14981e-05 -1.68648e-05)
(0.0001308 1.72402e-05 -2.8737e-05)