/*--------------------------------*- C++ -*----------------------------------*\
  =========                 |
  \\      /  F ield         | OpenFOAM: The Open Source CFD Toolbox
   \\    /   O peration     | Website:  https://openfoam.org
    \\  /    A nd           | Version:  6
     \\/     M anipulation  |
\*---------------------------------------------------------------------------*/
FoamFile
{
    version     2.0;
    format      ascii;
    class       volVectorField;
    location    "20";
    object      wallShearStress;
}
// * * * * * * * * * * * * * * * * * * * * * * * * * * * * * * * * * * * * * //

dimensions      [0 2 -2 0 0 0 0];

internalField   uniform (0 0 0);

boundaryField
{
    inlet
    {
        type            calculated;
        value           uniform (0 0 0);
    }
    outlet
    {
        type            calculated;
        value           uniform (0 0 0);
    }
    roughCylinder
    {
        type            calculated;
        value           nonuniform List<vector> 
5120
(
(-0.000423701 -0.000610166 -0.000319493)
(-0.000378386 -0.000546496 -3.82827e-05)
(-0.0003428 -0.000536744 1.70482e-06)
(-0.000383508 -0.000603184 4.94741e-05)
(-0.000450599 -0.000682069 0.000104734)
(-0.000521103 -0.000742343 0.000157071)
(-0.000592396 -0.000782254 0.000203251)
(-0.000660153 -0.000803955 0.000241997)
(-0.000721865 -0.000811406 0.000272534)
(-0.000777472 -0.00081222 0.000295669)
(-0.000827986 -0.000813629 0.000313405)
(-0.000870519 -0.00081621 0.000324973)
(-0.000906376 -0.000823054 0.00033071)
(-0.000937021 -0.000834268 0.000331641)
(-0.00096349 -0.000849243 0.000328896)
(-0.000987407 -0.000867213 0.000323586)
(-0.00101022 -0.00088731 0.000316529)
(-0.00103337 -0.000909155 0.000308326)
(-0.00105752 -0.000932349 0.000299205)
(-0.00108305 -0.000956752 0.00028924)
(-0.00111011 -0.000982332 0.000278419)
(-0.00113865 -0.00100904 0.000266673)
(-0.00116855 -0.00103678 0.000253889)
(-0.00119962 -0.00106537 0.000239913)
(-0.00123158 -0.00109456 0.000224497)
(-0.00126408 -0.00112399 0.000207282)
(-0.00129662 -0.00115316 0.000187714)
(-0.00132849 -0.0011814 0.000165044)
(-0.00135869 -0.00120779 0.000138143)
(-0.00138573 -0.00123105 0.000105854)
(-0.00140684 -0.00124946 6.64609e-05)
(-0.00141839 -0.00126018 2.22246e-05)
(-0.000556294 -0.000724927 -0.000382533)
(-0.000420569 -0.000558892 -4.28858e-05)
(-0.000370448 -0.000531039 -4.18609e-06)
(-0.000403384 -0.000586356 4.02527e-05)
(-0.000471292 -0.000664812 9.34251e-05)
(-0.000543789 -0.000726856 0.000144493)
(-0.000617042 -0.000768976 0.000189838)
(-0.000687158 -0.000793358 0.000228166)
(-0.000752182 -0.000804622 0.000259028)
(-0.000812104 -0.000809699 0.00028345)
(-0.000866308 -0.000813352 0.000302564)
(-0.000912265 -0.00081567 0.000315314)
(-0.000949842 -0.0008212 0.000321649)
(-0.000982007 -0.000831394 0.000322875)
(-0.00101001 -0.000845719 0.000320364)
(-0.0010353 -0.000863181 0.000315186)
(-0.00105965 -0.000883084 0.000308298)
(-0.00108407 -0.000904607 0.000300207)
(-0.00110952 -0.000927526 0.000291248)
(-0.00113647 -0.000951717 0.00028152)
(-0.00116499 -0.000977086 0.000271002)
(-0.00119504 -0.00100354 0.000259611)
(-0.00122645 -0.00103099 0.000247234)
(-0.00125905 -0.00105926 0.000233711)
(-0.00129254 -0.00108809 0.000218792)
(-0.00132654 -0.00111713 0.000202115)
(-0.00136053 -0.00114588 0.000183126)
(-0.0013938 -0.00117371 0.000161086)
(-0.00142528 -0.0011997 0.00013488)
(-0.00145342 -0.0012226 0.000103376)
(-0.0014754 -0.00124072 6.48986e-05)
(-0.00148744 -0.00125125 2.16916e-05)
(-0.00050135 -0.000587873 -0.000303259)
(-0.000432773 -0.000522531 -4.48228e-05)
(-0.000388284 -0.000506963 -1.08694e-05)
(-0.000421291 -0.00056266 3.03286e-05)
(-0.000490335 -0.000641212 8.11912e-05)
(-0.000564393 -0.000704514 0.000130795)
(-0.000639465 -0.000748794 0.000175262)
(-0.000712327 -0.000776575 0.000213453)
(-0.000781175 -0.000792255 0.000245047)
(-0.000845122 -0.0008012 0.000270682)
(-0.000902967 -0.000807097 0.000290834)
(-0.00095265 -0.000810462 0.000304724)
(-0.000992304 -0.000814307 0.000311594)
(-0.00102609 -0.000823464 0.000313203)
(-0.00105561 -0.000836864 0.000310931)
(-0.00108247 -0.000853734 0.000305985)
(-0.00110803 -0.000872955 0.000299218)
(-0.00113393 -0.000894122 0.000291347)
(-0.00116086 -0.000916717 0.000282641)
(-0.00118918 -0.000940491 0.000273192)
(-0.00121907 -0.000965393 0.000263)
(-0.00125053 -0.000991374 0.000251998)
(-0.00128339 -0.00101831 0.000240067)
(-0.00131744 -0.00104603 0.000227039)
(-0.00135239 -0.0010743 0.000212662)
(-0.00138782 -0.00110274 0.000196568)
(-0.0014232 -0.00113089 0.000178206)
(-0.00145778 -0.0011581 0.000156843)
(-0.00149047 -0.00118351 0.000131384)
(-0.00151965 -0.00120588 0.000100723)
(-0.00154244 -0.00122359 6.3228e-05)
(-0.00155491 -0.00123386 2.11229e-05)
(-0.000632568 -0.000668934 -0.000325671)
(-0.000478183 -0.000519079 -5.13891e-05)
(-0.000411577 -0.00048872 -1.79551e-05)
(-0.000435323 -0.000533762 2.00329e-05)
(-0.000504095 -0.000610721 6.8178e-05)
(-0.000579923 -0.000675666 0.000116126)
(-0.000657424 -0.000722969 0.000159716)
(-0.000733352 -0.000754674 0.000197818)
(-0.000805745 -0.000774623 0.000230112)
(-0.000873717 -0.000787462 0.00025698)
(-0.000935213 -0.000795615 0.000278153)
(-0.000988114 -0.000800164 0.000292864)
(-0.0010314 -0.000803645 0.000300668)
(-0.00106686 -0.000811212 0.000302717)
(-0.0010981 -0.000823589 0.000300783)
(-0.0011264 -0.000839524 0.000296085)
(-0.00115374 -0.0008583 0.00028965)
(-0.00118097 -0.000878826 0.000282013)
(-0.00120916 -0.000900787 0.000273566)
(-0.00123887 -0.000924042 0.000264455)
(-0.00127022 -0.000948437 0.000254666)
(-0.00130311 -0.000973854 0.000244113)
(-0.0013374 -0.00100018 0.000232677)
(-0.00137285 -0.00102724 0.000220186)
(-0.00140916 -0.00105477 0.00020638)
(-0.0014459 -0.00108245 0.000190895)
(-0.00148255 -0.00110982 0.000173181)
(-0.00151831 -0.00113627 0.000152516)
(-0.00155208 -0.00116095 0.000127821)
(-0.00158219 -0.00118265 9.80215e-05)
(-0.0016057 -0.00119984 6.15289e-05)
(-0.00161856 -0.0012098 2.05458e-05)
(-0.000632928 -0.000595004 -0.000276071)
(-0.000484196 -0.00047737 -5.30248e-05)
(-0.000424132 -0.000456466 -2.45709e-05)
(-0.00044476 -0.000500041 9.5971e-06)
(-0.00051321 -0.000575922 5.47777e-05)
(-0.000590358 -0.000641942 0.000100771)
(-0.000669727 -0.000691642 0.000143178)
(-0.000748585 -0.00072712 0.000181041)
(-0.000824948 -0.000751659 0.000214051)
(-0.000896568 -0.000767988 0.000241966)
(-0.000961596 -0.000778345 0.000264164)
(-0.00101819 -0.000784411 0.000279767)
(-0.00106524 -0.000788397 0.000288544)
(-0.00110362 -0.000794501 0.000291351)
(-0.0011366 -0.000805547 0.000289888)
(-0.00116684 -0.000820587 0.000285623)
(-0.00119539 -0.000838222 0.00027945)
(-0.00122419 -0.000858084 0.000272184)
(-0.00125396 -0.000879498 0.000264139)
(-0.00128504 -0.000902075 0.000255425)
(-0.00131763 -0.0009257 0.000246058)
(-0.00135179 -0.000950323 0.000235982)
(-0.00138732 -0.000975813 0.000225067)
(-0.00142403 -0.001002 0.000213143)
(-0.00146158 -0.00102865 0.000199945)
(-0.00149953 -0.00105541 0.0001851)
(-0.00153731 -0.00108185 0.000168062)
(-0.00157412 -0.00110737 0.000148114)
(-0.00160884 -0.00113116 0.000124203)
(-0.00163977 -0.00115208 9.52805e-05)
(-0.00166391 -0.00116865 5.98087e-05)
(-0.00167709 -0.00117823 1.99625e-05)
(-0.000673849 -0.000563259 -0.000246278)
(-0.000508661 -0.000453775 -5.59892e-05)
(-0.000437041 -0.000425591 -3.12269e-05)
(-0.000448592 -0.000462258 -8.70741e-07)
(-0.00051509 -0.000535518 4.09143e-05)
(-0.000593526 -0.000602719 8.46046e-05)
(-0.000675585 -0.000655698 0.000125726)
(-0.000757938 -0.000695365 0.000163286)
(-0.000837569 -0.000723588 0.000196677)
(-0.000912985 -0.000743292 0.000225536)
(-0.000981779 -0.000755962 0.000248781)
(-0.00104179 -0.000763228 0.00026526)
(-0.00109284 -0.000768247 0.000275016)
(-0.00113516 -0.000773917 0.000278853)
(-0.00117063 -0.000783134 0.000278106)
(-0.00120246 -0.000796628 0.000274306)
(-0.00123323 -0.000813569 0.000268725)
(-0.00126351 -0.00083244 0.000261884)
(-0.00129447 -0.000852828 0.000254237)
(-0.00132689 -0.000874548 0.000245992)
(-0.00136091 -0.000897394 0.000237154)
(-0.00139641 -0.00092117 0.000227633)
(-0.00143325 -0.000945755 0.000217308)
(-0.00147117 -0.000970967 0.000205997)
(-0.00150983 -0.000996561 0.000193434)
(-0.00154883 -0.00102223 0.000179251)
(-0.00158757 -0.00104757 0.000162903)
(-0.0016253 -0.001072 0.000143687)
(-0.00166083 -0.00109476 0.000120568)
(-0.00169245 -0.00111475 9.25294e-05)
(-0.00171712 -0.0011306 5.80843e-05)
(-0.00173054 -0.00113976 1.93794e-05)
(-0.000690386 -0.000514769 -0.00020143)
(-0.000529058 -0.000420846 -6.00566e-05)
(-0.000445392 -0.000392655 -3.79896e-05)
(-0.000447179 -0.000422329 -1.09749e-05)
(-0.00051128 -0.000492842 2.71137e-05)
(-0.000590452 -0.000560747 6.80781e-05)
(-0.000673995 -0.000615812 0.000107396)
(-0.000758776 -0.000658584 0.000144171)
(-0.000842561 -0.000691018 0.00017789)
(-0.000921743 -0.000713791 0.000207472)
(-0.00099413 -0.000728502 0.000231629)
(-0.00105844 -0.000737533 0.000249265)
(-0.00111328 -0.000743323 0.000260027)
(-0.0011598 -0.000749381 0.000264962)
(-0.001199 -0.000757533 0.000265228)
(-0.00123376 -0.000769543 0.000262309)
(-0.00126584 -0.000784462 0.000257208)
(-0.00129788 -0.000802182 0.000250969)
(-0.00133067 -0.000821759 0.000243944)
(-0.00136451 -0.00084252 0.000236261)
(-0.00139965 -0.000864261 0.000227969)
(-0.00143624 -0.000886924 0.000219032)
(-0.0014741 -0.000910346 0.00020932)
(-0.00151303 -0.000934375 0.000198654)
(-0.0015527 -0.000958782 0.000186767)
(-0.00159262 -0.000983242 0.000173281)
(-0.00163221 -0.00100735 0.000157654)
(-0.00167067 -0.00103056 0.000139188)
(-0.00170689 -0.00105218 0.000116878)
(-0.00173909 -0.00107115 8.97406e-05)
(-0.00176418 -0.00108619 5.63407e-05)
(-0.00177777 -0.00109488 1.87916e-05)
(-0.000660081 -0.000435191 -0.000150663)
(-0.000523299 -0.000372337 -6.09284e-05)
(-0.000444735 -0.000354181 -4.36936e-05)
(-0.000437928 -0.000379006 -2.05913e-05)
(-0.00049767 -0.000445469 1.32049e-05)
(-0.000576907 -0.000513539 5.08536e-05)
(-0.000662844 -0.000571534 8.80586e-05)
(-0.000751582 -0.000618589 0.000123945)
(-0.000838377 -0.000654038 0.000157447)
(-0.000921484 -0.000679769 0.000187546)
(-0.00099835 -0.000696987 0.000212677)
(-0.00106639 -0.000707263 0.000231349)
(-0.00112579 -0.000714221 0.000243431)
(-0.00117613 -0.000720376 0.000249496)
(-0.00121951 -0.000728349 0.000250966)
(-0.00125716 -0.000738827 0.000248969)
(-0.00129295 -0.000752868 0.000244993)
(-0.001327 -0.000769091 0.000239541)
(-0.00136096 -0.000787024 0.000233113)
(-0.00139612 -0.000806473 0.000226069)
(-0.00143273 -0.000827115 0.000218466)
(-0.00147061 -0.000848636 0.000210218)
(-0.00150966 -0.000870893 0.000201204)
(-0.00154961 -0.000893679 0.000191242)
(-0.00159011 -0.000916761 0.000180061)
(-0.00163077 -0.000939863 0.000167292)
(-0.001671 -0.000962603 0.000152395)
(-0.00171006 -0.000984492 0.00013469)
(-0.00174678 -0.00100484 0.000113192)
(-0.00177939 -0.00102265 8.6956e-05)
(-0.00180479 -0.00103681 5.46038e-05)
(-0.00181846 -0.00104505 1.82088e-05)
(-0.000626373 -0.000361819 -0.000112043)
(-0.00051077 -0.000327096 -5.99135e-05)
(-0.0004383 -0.000314173 -4.8522e-05)
(-0.000423105 -0.00033543 -2.96811e-05)
(-0.000477205 -0.000397363 -3.77566e-07)
(-0.000556096 -0.000465247 3.35359e-05)
(-0.000642777 -0.000524672 6.80089e-05)
(-0.000732618 -0.000573562 0.000102149)
(-0.000823817 -0.000612979 0.000135271)
(-0.000911257 -0.000641769 0.000165645)
(-0.000991978 -0.000660882 0.000191444)
(-0.00106526 -0.000673266 0.000211433)
(-0.00112891 -0.000681039 0.000224861)
(-0.00118411 -0.000687795 0.000232456)
(-0.0012311 -0.000695206 0.000235172)
(-0.00127322 -0.000705368 0.000234568)
(-0.00131102 -0.000717744 0.000231527)
(-0.00134751 -0.000732583 0.000227054)
(-0.00138406 -0.000749432 0.000221608)
(-0.00142101 -0.000767622 0.000215407)
(-0.00145875 -0.00078681 0.000208549)
(-0.00149761 -0.0008069 0.000201037)
(-0.00153747 -0.000827699 0.000192759)
(-0.00157815 -0.00084904 0.000183543)
(-0.00161935 -0.0008707 0.00017312)
(-0.00166059 -0.00089237 0.000161114)
(-0.00170132 -0.000913682 0.000146987)
(-0.00174075 -0.000934147 0.000130069)
(-0.00177783 -0.000953164 0.000109412)
(-0.00181079 -0.000969811 8.41072e-05)
(-0.00183638 -0.000983051 5.28346e-05)
(-0.0018499 -0.000990754 1.76169e-05)
(-0.00065798 -0.000333905 -8.58391e-05)
(-0.000505587 -0.000287358 -6.09636e-05)
(-0.000421851 -0.000272145 -5.2345e-05)
(-0.000398141 -0.000289237 -3.73873e-05)
(-0.000444959 -0.000345419 -1.31627e-05)
(-0.000521414 -0.00041148 1.61354e-05)
(-0.000609304 -0.000472739 4.71919e-05)
(-0.000703944 -0.000526289 7.93862e-05)
(-0.000797805 -0.000568235 0.000111342)
(-0.000889211 -0.000599724 0.000141557)
(-0.000975597 -0.000621797 0.000168128)
(-0.00105304 -0.000635387 0.000189142)
(-0.00112217 -0.000644513 0.0002042)
(-0.0011816 -0.00065133 0.000213356)
(-0.00123362 -0.000658832 0.000217796)
(-0.0012784 -0.000667601 0.000218453)
(-0.0013205 -0.00067945 0.000216908)
(-0.00135972 -0.000693044 0.000213604)
(-0.00139767 -0.000708169 0.000209099)
(-0.00143611 -0.000724874 0.000203841)
(-0.00147553 -0.000742833 0.000197937)
(-0.00151574 -0.000761642 0.000191328)
(-0.00155672 -0.000781114 0.000183921)
(-0.00159821 -0.000801033 0.000175542)
(-0.0016399 -0.000821169 0.00016593)
(-0.00168146 -0.000841276 0.000154723)
(-0.00172237 -0.000861044 0.000141395)
(-0.00176199 -0.000880045 0.000125299)
(-0.00179917 -0.000897671 0.000105511)
(-0.00183222 -0.000913094 8.11668e-05)
(-0.00185781 -0.000925359 5.10094e-05)
(-0.00187112 -0.000932469 1.70077e-05)
(-0.000601894 -0.00026659 -5.20721e-05)
(-0.00048753 -0.000245129 -6.10556e-05)
(-0.000405833 -0.000235129 -5.5845e-05)
(-0.000368501 -0.000245352 -4.39339e-05)
(-0.000405312 -0.000294233 -2.46787e-05)
(-0.000479632 -0.000358637 -5.08925e-07)
(-0.000567273 -0.000420497 2.63981e-05)
(-0.000660229 -0.000473854 5.53639e-05)
(-0.000758658 -0.000519719 8.57412e-05)
(-0.000855309 -0.000554746 0.000115463)
(-0.000945643 -0.000578625 0.000142221)
(-0.0010297 -0.000594794 0.000164551)
(-0.00110373 -0.000604718 0.00018115)
(-0.00116917 -0.00061233 0.000192307)
(-0.00122511 -0.000619114 0.000198469)
(-0.0012756 -0.000627878 0.00020112)
(-0.00131974 -0.000637857 0.000200888)
(-0.00136145 -0.000649949 0.000198904)
(-0.00140247 -0.00066405 0.000195752)
(-0.00144293 -0.000679423 0.000191642)
(-0.00148329 -0.000695691 0.000186708)
(-0.00152418 -0.000712818 0.000181024)
(-0.00156558 -0.000730576 0.000174507)
(-0.00160741 -0.000748822 0.00016701)
(-0.0016494 -0.00076734 0.000158277)
(-0.00169112 -0.000785842 0.000147938)
(-0.00173203 -0.000804015 0.00013547)
(-0.0017715 -0.000821438 0.000120239)
(-0.00180857 -0.000837627 0.000101372)
(-0.00184151 -0.000851794 7.80487e-05)
(-0.00186696 -0.000863056 4.90761e-05)
(-0.00187992 -0.000869521 1.63638e-05)
(-0.000513324 -0.000194498 -2.60861e-05)
(-0.000434205 -0.000194691 -5.67162e-05)
(-0.00036888 -0.00019151 -5.60743e-05)
(-0.000329741 -0.000201255 -4.84179e-05)
(-0.000353005 -0.000240687 -3.40519e-05)
(-0.000420156 -0.000299622 -1.57309e-05)
(-0.000506323 -0.000361123 5.95595e-06)
(-0.000606076 -0.000420342 3.11705e-05)
(-0.000706478 -0.000468384 5.88598e-05)
(-0.000806631 -0.000505927 8.72805e-05)
(-0.000904273 -0.000533732 0.000114283)
(-0.000992857 -0.000551196 0.00013741)
(-0.00107369 -0.000562819 0.000155819)
(-0.00114384 -0.000570325 0.000168866)
(-0.00120619 -0.000577416 0.000177341)
(-0.00125921 -0.000584386 0.000181708)
(-0.00130877 -0.000593927 0.00018354)
(-0.00135398 -0.000604805 0.000183225)
(-0.00139628 -0.000616885 0.000181343)
(-0.00143814 -0.000630503 0.000178452)
(-0.00148034 -0.000645403 0.000174741)
(-0.00152264 -0.000661115 0.000170187)
(-0.00156514 -0.000677437 0.000164735)
(-0.00160754 -0.000694102 0.000158226)
(-0.00164965 -0.000710933 0.000150424)
(-0.00169119 -0.00072772 0.000140984)
(-0.00173179 -0.000744201 0.000129399)
(-0.00177095 -0.000760048 0.000115065)
(-0.00180763 -0.000774744 9.71391e-05)
(-0.00184021 -0.000787603 7.4856e-05)
(-0.0018653 -0.000797823 4.70983e-05)
(-0.00187785 -0.000803633 1.57077e-05)
(-0.000450025 -0.000146371 -8.27489e-06)
(-0.000394623 -0.00015678 -5.36471e-05)
(-0.000332651 -0.000154888 -5.60057e-05)
(-0.000284187 -0.000159321 -5.04959e-05)
(-0.000295128 -0.000189993 -4.05826e-05)
(-0.000356972 -0.000244658 -2.86919e-05)
(-0.00044173 -0.000305677 -1.30506e-05)
(-0.000533624 -0.000360812 7.05767e-06)
(-0.000638617 -0.000413057 3.12653e-05)
(-0.000745318 -0.000455265 5.77774e-05)
(-0.000846342 -0.000484878 8.40045e-05)
(-0.000943258 -0.000505917 0.000108101)
(-0.00102959 -0.000518535 0.000128027)
(-0.00110737 -0.000527285 0.000143445)
(-0.0011738 -0.000533358 0.000154057)
(-0.00123435 -0.000540629 0.000161076)
(-0.00128599 -0.000547979 0.000164721)
(-0.00133374 -0.000557033 0.000166165)
(-0.00137992 -0.000568071 0.000166082)
(-0.00142427 -0.000580275 0.0001647)
(-0.00146726 -0.000593249 0.000162214)
(-0.00150992 -0.000607025 0.000158785)
(-0.00155234 -0.000621378 0.000154377)
(-0.00159472 -0.000636225 0.000148899)
(-0.0016367 -0.000651304 0.000142099)
(-0.00167796 -0.000666384 0.000133632)
(-0.00171807 -0.000681182 0.000122991)
(-0.00175651 -0.000695364 0.000109592)
(-0.00179256 -0.000708554 9.26594e-05)
(-0.00182461 -0.000720111 7.14783e-05)
(-0.0018492 -0.000729279 4.50102e-05)
(-0.00186119 -0.000734416 1.50169e-05)
(-0.000330785 -9.21811e-05 9.20951e-06)
(-0.000326045 -0.000111763 -4.92302e-05)
(-0.00028527 -0.000119911 -5.49486e-05)
(-0.000238049 -0.000123265 -5.13678e-05)
(-0.000224843 -0.000137986 -4.24783e-05)
(-0.000270794 -0.000180838 -3.6412e-05)
(-0.000348689 -0.000237382 -2.78962e-05)
(-0.000453157 -0.000301999 -1.49175e-05)
(-0.000557916 -0.000355536 4.1043e-06)
(-0.000666389 -0.000399977 2.74209e-05)
(-0.000777005 -0.000435418 5.26046e-05)
(-0.000878227 -0.00045813 7.67533e-05)
(-0.000972927 -0.000473411 9.83108e-05)
(-0.00105555 -0.000482113 0.00011572)
(-0.00113025 -0.000489039 0.000129118)
(-0.00119275 -0.000494035 0.000138251)
(-0.00125115 -0.000501061 0.000144532)
(-0.00130351 -0.000508973 0.000148192)
(-0.00135078 -0.000517671 0.000149752)
(-0.00139634 -0.000527826 0.000149898)
(-0.00144145 -0.000539328 0.000148936)
(-0.00148576 -0.000551637 0.000146892)
(-0.00152946 -0.000564547 0.000143767)
(-0.00157213 -0.000577714 0.000139427)
(-0.00161385 -0.000591041 0.000133683)
(-0.00165443 -0.00060434 0.000126207)
(-0.00169366 -0.000617406 0.000116522)
(-0.00173131 -0.000629992 0.000104081)
(-0.00176645 -0.000641666 8.81452e-05)
(-0.00179767 -0.0006519 6.80711e-05)
(-0.00182155 -0.00066001 4.29072e-05)
(-0.00183292 -0.000664511 1.43248e-05)
(-0.000192123 -4.39494e-05 1.69506e-05)
(-0.000230521 -6.8103e-05 -4.08414e-05)
(-0.000215712 -8.2518e-05 -5.02568e-05)
(-0.000179536 -8.72682e-05 -4.78272e-05)
(-0.000159226 -9.44944e-05 -3.96803e-05)
(-0.000192227 -0.00012612 -3.89915e-05)
(-0.000268104 -0.000181374 -3.99986e-05)
(-0.00034881 -0.000232638 -3.28397e-05)
(-0.000459829 -0.000292422 -2.04936e-05)
(-0.00057682 -0.000343722 -2.00944e-06)
(-0.000688469 -0.000380874 2.0551e-05)
(-0.000800226 -0.000409267 4.44454e-05)
(-0.000900343 -0.000426236 6.68959e-05)
(-0.00099253 -0.000437407 8.65948e-05)
(-0.00107074 -0.000443263 0.000102255)
(-0.00114317 -0.000449325 0.000114521)
(-0.0012034 -0.000453951 0.00012303)
(-0.00125799 -0.00045972 0.000128821)
(-0.00131016 -0.000467443 0.000132624)
(-0.00135892 -0.000476196 0.000134661)
(-0.0014046 -0.000485576 0.000135184)
(-0.0014488 -0.000495742 0.000134463)
(-0.00149171 -0.000506465 0.00013253)
(-0.001534 -0.000517759 0.000129371)
(-0.00157514 -0.000529298 0.000124749)
(-0.00161496 -0.000540893 0.000118343)
(-0.00165317 -0.000552308 0.000109677)
(-0.00168948 -0.000563244 9.82278e-05)
(-0.00172347 -0.000573449 8.33463e-05)
(-0.00175369 -0.0005824 6.44482e-05)
(-0.00177671 -0.00058949 4.06748e-05)
(-0.00178727 -0.000593347 1.35926e-05)
(-7.20603e-05 -1.21017e-05 1.29732e-05)
(-0.000129787 -3.48384e-05 -2.70163e-05)
(-0.000137261 -4.75356e-05 -4.05611e-05)
(-0.000122728 -5.59579e-05 -4.2803e-05)
(-6.89706e-05 -4.04532e-05 -2.43097e-05)
(-7.01776e-05 -4.69562e-05 -2.14506e-05)
(-0.000131004 -9.06459e-05 -3.13403e-05)
(-0.000252151 -0.000170023 -4.38826e-05)
(-0.000352207 -0.000226153 -4.06862e-05)
(-0.000466784 -0.000279616 -2.83677e-05)
(-0.000591854 -0.000326502 -9.93266e-06)
(-0.000705771 -0.000357126 1.22113e-05)
(-0.000816009 -0.000378944 3.50978e-05)
(-0.000911982 -0.000390682 5.6177e-05)
(-0.00100075 -0.000398895 7.45127e-05)
(-0.00107335 -0.000402474 8.89306e-05)
(-0.00114183 -0.000407331 0.000100373)
(-0.00120242 -0.000412357 0.000108787)
(-0.00125513 -0.000417528 0.000114521)
(-0.00130462 -0.000424009 0.000118342)
(-0.00135281 -0.000431941 0.000120672)
(-0.00139906 -0.000440705 0.000121592)
(-0.0014437 -0.000450116 0.000121168)
(-0.001486 -0.000459739 0.000119294)
(-0.0015265 -0.000469575 0.000115847)
(-0.00156509 -0.000479448 0.000110518)
(-0.00160181 -0.000489198 0.000102865)
(-0.00163681 -0.000498652 9.24201e-05)
(-0.00166936 -0.000507434 7.85789e-05)
(-0.00169826 -0.000515132 6.08439e-05)
(-0.0017202 -0.000521226 3.84577e-05)
(-0.00172996 -0.000524525 1.28694e-05)
(-1.46268e-05 -6.26039e-07 1.02345e-05)
(-4.11701e-05 -9.71396e-06 -9.33313e-06)
(-5.12068e-05 -1.47913e-05 -2.22725e-05)
(-4.35505e-05 -1.88895e-05 -2.43575e-05)
(-3.98696e-05 -2.54668e-05 -2.32591e-05)
(-5.88849e-05 -4.54097e-05 -2.86191e-05)
(-5.78788e-05 -4.44734e-05 -2.1341e-05)
(-7.71361e-05 -5.45456e-05 -2.18507e-05)
(-0.000229842 -0.000150188 -4.82118e-05)
(-0.000352808 -0.000214077 -4.88773e-05)
(-0.000472536 -0.000262666 -3.61708e-05)
(-0.00060112 -0.00030377 -1.76634e-05)
(-0.000714757 -0.000328538 4.13978e-06)
(-0.000822536 -0.000345449 2.61335e-05)
(-0.000912446 -0.000353056 4.60095e-05)
(-0.000998013 -0.000359549 6.3295e-05)
(-0.00106722 -0.000362251 7.69526e-05)
(-0.00112892 -0.000365114 8.75772e-05)
(-0.00118774 -0.000369724 9.58117e-05)
(-0.00124137 -0.00037509 0.000101813)
(-0.00128971 -0.000380853 0.00010583)
(-0.00133511 -0.000387376 0.00010823)
(-0.00137787 -0.00039447 0.000109106)
(-0.00141937 -0.000402281 0.000108544)
(-0.00145875 -0.000410421 0.000106324)
(-0.00149608 -0.000418735 0.000102153)
(-0.00153123 -0.000426996 9.55827e-05)
(-0.00156419 -0.000434937 8.61707e-05)
(-0.00159502 -0.000442385 7.34357e-05)
(-0.00162247 -0.000448936 5.69521e-05)
(-0.00164318 -0.000454113 3.60658e-05)
(-0.00165185 -0.000456852 1.20901e-05)
(2.14425e-06 3.96011e-06 1.87946e-05)
(-2.33807e-06 4.59989e-07 -1.24316e-06)
(-7.21871e-06 -1.56115e-06 -1.20371e-05)
(-1.4719e-05 -1.06192e-05 -2.22565e-05)
(-1.69847e-05 -1.68133e-05 -2.0762e-05)
(-2.87477e-05 -3.09938e-05 -2.68312e-05)
(-4.31584e-05 -4.17196e-05 -2.85331e-05)
(-4.86093e-05 -3.95002e-05 -2.30414e-05)
(-7.23135e-05 -5.01037e-05 -2.44993e-05)
(-0.000218871 -0.000133926 -5.19192e-05)
(-0.000357514 -0.000200091 -5.5897e-05)
(-0.000479085 -0.000243648 -4.23387e-05)
(-0.000605852 -0.000278061 -2.36538e-05)
(-0.000713659 -0.000296663 -2.40146e-06)
(-0.000817091 -0.000309823 1.84738e-05)
(-0.000898686 -0.000314069 3.70557e-05)
(-0.000977629 -0.000318495 5.31448e-05)
(-0.00104694 -0.000321743 6.62851e-05)
(-0.00110496 -0.000323934 7.64449e-05)
(-0.00115819 -0.000327065 8.42879e-05)
(-0.00120945 -0.000331667 9.02785e-05)
(-0.00125747 -0.000337086 9.45117e-05)
(-0.00130275 -0.000343226 9.70999e-05)
(-0.00134402 -0.000349539 9.79462e-05)
(-0.00138236 -0.000356174 9.70015e-05)
(-0.00141783 -0.000362958 9.39701e-05)
(-0.00145081 -0.000369771 8.84505e-05)
(-0.00148199 -0.000376472 8.00757e-05)
(-0.00151084 -0.000382707 6.84121e-05)
(-0.00153649 -0.00038818 5.31414e-05)
(-0.00155574 -0.000392503 3.37268e-05)
(-0.00156345 -0.000394801 1.13334e-05)
(7.14659e-06 8.17221e-06 2.55797e-05)
(1.54926e-05 7.3937e-06 -1.11788e-06)
(1.82591e-05 4.95096e-06 -1.22324e-05)
(1.77459e-05 -3.14727e-06 -1.91851e-05)
(1.16716e-05 -1.17264e-05 -2.18999e-05)
(1.70633e-06 -2.02333e-05 -2.39607e-05)
(-1.1998e-05 -2.78724e-05 -2.53621e-05)
(-3.19524e-05 -3.60304e-05 -2.92367e-05)
(-6.1556e-05 -4.8531e-05 -3.45454e-05)
(-0.000118044 -7.51247e-05 -4.46817e-05)
(-0.000204651 -0.000115458 -5.23747e-05)
(-0.000356905 -0.000182484 -5.79719e-05)
(-0.000478485 -0.000220855 -4.50912e-05)
(-0.000602226 -0.000250081 -2.72058e-05)
(-0.000700943 -0.00026335 -7.04309e-06)
(-0.000799971 -0.000274192 1.24136e-05)
(-0.000876783 -0.000277294 2.97754e-05)
(-0.000944631 -0.000278888 4.45528e-05)
(-0.00101012 -0.000281643 5.69728e-05)
(-0.00106864 -0.000284474 6.69881e-05)
(-0.00111915 -0.000287165 7.46858e-05)
(-0.00116508 -0.000290471 8.04311e-05)
(-0.00120672 -0.000294315 8.43197e-05)
(-0.00124652 -0.000299054 8.65427e-05)
(-0.0012831 -0.000304245 8.68878e-05)
(-0.00131675 -0.000309763 8.50699e-05)
(-0.0013476 -0.000315393 8.06733e-05)
(-0.00137594 -0.000320833 7.33528e-05)
(-0.00140246 -0.00032599 6.28447e-05)
(-0.00142619 -0.000330542 4.89117e-05)
(-0.00144386 -0.000334122 3.11272e-05)
(-0.0014502 -0.00033597 1.04896e-05)
(1.64175e-05 1.21841e-05 3.16643e-05)
(2.81902e-05 1.12e-05 -3.72976e-06)
(3.91772e-05 9.76694e-06 -1.52636e-05)
(3.24385e-05 1.02562e-06 -1.61813e-05)
(2.7467e-05 -5.8932e-06 -1.51353e-05)
(2.24269e-05 -1.25425e-05 -1.51469e-05)
(1.12905e-05 -1.56804e-05 -1.23964e-05)
(-1.68386e-06 -1.61122e-05 -1.17191e-05)
(-1.76727e-05 -1.9078e-05 -1.67186e-05)
(-4.06576e-05 -2.81481e-05 -2.33835e-05)
(-6.97446e-05 -3.96644e-05 -2.65193e-05)
(-0.000205527 -0.000104775 -5.22873e-05)
(-0.000354814 -0.000164426 -5.75793e-05)
(-0.000468004 -0.000195833 -4.49933e-05)
(-0.00058622 -0.000220637 -2.86718e-05)
(-0.000672404 -0.000229194 -1.00332e-05)
(-0.000761142 -0.000236983 7.72116e-06)
(-0.000838544 -0.000241175 2.38351e-05)
(-0.000900404 -0.000242128 3.75865e-05)
(-0.000956157 -0.000243166 4.90826e-05)
(-0.00100993 -0.000245479 5.86187e-05)
(-0.00105922 -0.000248394 6.61992e-05)
(-0.00110467 -0.000252002 7.18971e-05)
(-0.00114404 -0.000255667 7.55756e-05)
(-0.00117915 -0.000259739 7.72402e-05)
(-0.00121025 -0.000264083 7.65814e-05)
(-0.00123816 -0.000268604 7.32322e-05)
(-0.00126435 -0.000273178 6.69614e-05)
(-0.0012884 -0.000277441 5.75432e-05)
(-0.00130985 -0.000281171 4.4869e-05)
(-0.00132573 -0.000284104 2.86441e-05)
(-0.00133106 -0.000285659 9.68983e-06)
(2.60425e-05 1.34325e-05 3.34087e-05)
(5.26524e-05 1.53465e-05 -6.53227e-06)
(6.93531e-05 1.26514e-05 -1.91261e-05)
(7.0537e-05 3.80657e-06 -2.3118e-05)
(5.52738e-05 -5.61973e-06 -1.99488e-05)
(4.08571e-05 -1.22029e-05 -1.51057e-05)
(2.82822e-05 -1.56045e-05 -1.01626e-05)
(2.76753e-05 -2.77889e-05 -1.0246e-05)
(3.29371e-06 -2.37371e-05 -9.00872e-06)
(-2.54463e-05 -2.34766e-05 -2.03312e-05)
(-6.43344e-05 -3.69203e-05 -3.48834e-05)
(-6.95942e-05 -3.56324e-05 -2.56285e-05)
(-0.000202841 -9.33203e-05 -4.94344e-05)
(-0.000346482 -0.000146001 -5.53362e-05)
(-0.000445572 -0.000170129 -4.3106e-05)
(-0.000558975 -0.000191954 -2.87973e-05)
(-0.000639047 -0.000199088 -1.19117e-05)
(-0.000709957 -0.000202508 4.32521e-06)
(-0.000781134 -0.000206199 1.91406e-05)
(-0.000843769 -0.000208597 3.2182e-05)
(-0.000894985 -0.000209674 4.30705e-05)
(-0.000939925 -0.000210902 5.19196e-05)
(-0.000978788 -0.000212438 5.86947e-05)
(-0.0010156 -0.000214976 6.36493e-05)
(-0.00104807 -0.000218049 6.65526e-05)
(-0.00107676 -0.000221581 6.70863e-05)
(-0.001102 -0.000225348 6.48507e-05)
(-0.00112439 -0.000228989 5.96222e-05)
(-0.00114551 -0.000232502 5.14085e-05)
(-0.00116462 -0.000235602 4.01791e-05)
(-0.00117859 -0.000238012 2.57483e-05)
(-0.00118226 -0.000239211 8.74666e-06)
(3.33627e-05 1.35761e-05 3.48714e-05)
(7.16637e-05 1.81478e-05 -5.03713e-06)
(9.43315e-05 1.61126e-05 -2.01339e-05)
(0.000106108 7.39595e-06 -2.90191e-05)
(0.000106488 -5.30956e-06 -3.22426e-05)
(9.14788e-05 -1.74886e-05 -2.89918e-05)
(5.25834e-05 -1.96792e-05 -1.67226e-05)
(4.82428e-05 -3.09417e-05 -1.29377e-05)
(3.27295e-05 -3.57357e-05 -4.44025e-06)
(2.83639e-06 -1.5108e-05 -1.07295e-06)
(-1.96754e-05 -1.64075e-05 -1.10342e-05)
(-4.58083e-05 -2.36065e-05 -2.22502e-05)
(-6.83686e-05 -3.13868e-05 -2.37645e-05)
(-0.000186331 -7.92697e-05 -4.43619e-05)
(-0.000325187 -0.000126299 -5.11362e-05)
(-0.000405553 -0.000142905 -3.98214e-05)
(-0.00050439 -0.000160138 -2.71692e-05)
(-0.000588174 -0.000169573 -1.2557e-05)
(-0.000650154 -0.000172181 2.19976e-06)
(-0.000705276 -0.000173485 1.56944e-05)
(-0.000760068 -0.000175678 2.76846e-05)
(-0.000809592 -0.000177868 3.79575e-05)
(-0.000854386 -0.000180443 4.63739e-05)
(-0.000890682 -0.000182652 5.26537e-05)
(-0.000921281 -0.000185202 5.68007e-05)
(-0.000946644 -0.000188035 5.84145e-05)
(-0.000968153 -0.000191105 5.71521e-05)
(-0.000988312 -0.000194337 5.29526e-05)
(-0.00100661 -0.000197325 4.58261e-05)
(-0.00102307 -0.000199899 3.58915e-05)
(-0.00103501 -0.000201892 2.30995e-05)
(-0.00103782 -0.000202936 7.89201e-06)
(3.93716e-05 1.37154e-05 3.75248e-05)
(8.0746e-05 1.92305e-05 -2.71699e-06)
(0.000108847 1.93465e-05 -1.92206e-05)
(0.000125521 1.24453e-05 -3.00437e-05)
(0.00012984 1.15557e-07 -3.61351e-05)
(0.000123579 -1.42205e-05 -3.72478e-05)
(0.000109201 -2.83382e-05 -3.33243e-05)
(7.43087e-05 -3.26697e-05 -2.0921e-05)
(3.15662e-05 -2.22455e-05 -6.4593e-06)
(3.35418e-05 -3.92133e-05 1.99853e-07)
(6.59962e-06 -2.87501e-05 3.13953e-06)
(-1.56731e-05 -1.14706e-05 -6.94665e-06)
(-6.25573e-05 -3.04656e-05 -2.97912e-05)
(-6.47271e-05 -2.89836e-05 -2.18166e-05)
(-0.000162101 -6.37887e-05 -3.73112e-05)
(-0.00029902 -0.000107588 -4.75501e-05)
(-0.00037115 -0.000121987 -3.74568e-05)
(-0.000439866 -0.000131179 -2.49082e-05)
(-0.000515365 -0.000140209 -1.19405e-05)
(-0.000580471 -0.000145546 1.36479e-06)
(-0.000629192 -0.000147378 1.37501e-05)
(-0.00067002 -0.000148377 2.45716e-05)
(-0.000703234 -0.000149099 3.34365e-05)
(-0.000735156 -0.000150808 4.05504e-05)
(-0.000761908 -0.000152939 4.56303e-05)
(-0.000784255 -0.000155507 4.82454e-05)
(-0.000802684 -0.000158282 4.79841e-05)
(-0.000817925 -0.000160839 4.47546e-05)
(-0.000832711 -0.00016338 3.88868e-05)
(-0.000846497 -0.000165595 3.05424e-05)
(-0.000856286 -0.000167275 1.9758e-05)
(-0.000857112 -0.000167972 6.78695e-06)
(4.33165e-05 1.35876e-05 4.09869e-05)
(8.24199e-05 1.9377e-05 2.22674e-07)