/*--------------------------------*- C++ -*----------------------------------*\
  =========                 |
  \\      /  F ield         | OpenFOAM: The Open Source CFD Toolbox
   \\    /   O peration     | Website:  https://openfoam.org
    \\  /    A nd           | Version:  6
     \\/     M anipulation  |
\*---------------------------------------------------------------------------*/
FoamFile
{
    version     2.0;
    format      ascii;
    class       volScalarField;
    location    "80";
    object      omega;
}
// * * * * * * * * * * * * * * * * * * * * * * * * * * * * * * * * * * * * * //

dimensions      [0 0 -1 0 0 0 0];

internalField   nonuniform List<scalar> 
2880
(
737.062
737.062
737.062
1471.07
1471.07
1471.07
1471.07
1471.07
1471.07
1471.07
1471.07
1471.07
1471.07
1471.07
1471.07
1471.07
1471.07
1471.07
1471.07
1471.07
1471.07
1471.07
1471.07
1471.07
1471.07
1471.07
1471.07
1471.07
1471.07
1471.07
1471.07
1471.07
1471.07
1471.07
1471.07
1471.07
1471.07
1471.07
1471.07
1471.07
1471.07
1471.07
1471.07
1471.07
1471.07
1471.07
1471.07
1471.07
1471.07
1471.07
1471.07
1471.07
1471.07
1471.07
1471.07
1471.07
1471.07
1471.07
1471.07
1471.07
1471.07
1471.07
1471.07
1471.07
1471.07
1471.07
1471.07
1471.07
1471.07
1471.07
1471.07
1471.07
1471.07
1471.07
1471.07
1471.07
1471.07
1471.07
1471.07
1471.07
1471.07
1471.07
1471.07
1471.07
1471.07
1471.07
1471.07
737.062
737.062
737.062
6.47615
6.47618
6.47625
344.811
344.811
344.813
364.338
364.339
364.341
376.431
376.432
376.435
385.264
385.265
385.267
392.222
392.223
392.225
397.991
397.992
397.994
402.939
402.94
402.941
407.27
407.27
407.272
411.08
411.081
411.082
414.385
414.386
414.387
417.139
417.139
417.14
419.259
419.26
419.261
420.717
420.717
420.718
421.512
421.512
421.513
421.511
421.512
421.513
420.717
420.717
420.718
419.259
419.259
419.26
417.138
417.139
417.14
414.385
414.386
414.387
411.08
411.081
411.082
407.27
407.27
407.271
402.937
402.938
402.94
397.987
397.988
397.989
392.215
392.216
392.218
385.255
385.256
385.258
376.423
376.424
376.426
364.331
364.333
364.335
344.807
344.808
344.81
6.47602
6.47604
6.47612
7.77015
7.77019
7.77027
152.898
152.898
152.899
165.04
165.04
165.041
171.708
171.708
171.709
176.604
176.604
176.605
180.54
180.54
180.541
183.869
183.869
183.87
186.773
186.774
186.774
189.353
189.353
189.354
191.65
191.65
191.651
193.66
193.66
193.661
195.346
195.347
195.347
196.65
196.651
196.652
197.549
197.55
197.55
198.039
198.04
198.04
198.039
198.04
198.04
197.549
197.55
197.55
196.65
196.651
196.651
195.346
195.346
195.347
193.66
193.66
193.661
191.65
191.65
191.65
189.353
189.353
189.354
186.772
186.772
186.773
183.866
183.866
183.867
180.536
180.536
180.537
176.599
176.599
176.6
171.703
171.703
171.704
165.036
165.036
165.037
152.895
152.895
152.896
7.77
7.77004
7.77012
8.83749
8.83753
8.83762
85.6994
85.6992
85.6994
94.4016
94.4014
94.4019
99.1803
99.1803
99.1809
102.626
102.626
102.626
105.385
105.385
105.385
107.718
107.718
107.718
109.754
109.754
109.754
111.562
111.562
111.562
113.171
113.171
113.171
114.577
114.577
114.577
115.754
115.754
115.755
116.662
116.663
116.663
117.286
117.287
117.287
117.625
117.626
117.626
117.625
117.626
117.626
117.286
117.287
117.287
116.662
116.663
116.663
115.753
115.754
115.754
114.576
114.577
114.577
113.17
113.17
113.171
111.561
111.561
111.562
109.753
109.753
109.753
107.716
107.716
107.716
105.382
105.382
105.382
102.622
102.622
102.622
99.1766
99.1766
99.1772
94.3986
94.3985
94.399
85.6971
85.6969
85.6971
8.83733
8.83737
8.83746
9.78517
9.78522
9.78532
55.5635
55.5632
55.5633
61.7806
61.7803
61.7805
65.5063
65.5061
65.5064
68.1318
68.1317
68.132
70.2076
70.2075
70.2077
71.95
71.9499
71.9501
73.4638
73.4636
73.4639
74.803
74.8029
74.8032
75.9907
75.9907
75.991
77.0256
77.0257
77.026
77.8894
77.8898
77.89
78.5534
78.5542
78.5544
79.0072
79.0083
79.0084
79.2526
79.2539
79.2539
79.2526
79.2538
79.2538
79.007
79.0081
79.0082
78.5531
78.5539
78.554
77.8889
77.8893
77.8896
77.0251
77.0252
77.0256
75.9902
75.9902
75.9905
74.8025
74.8024
74.8027
73.4628
73.4627
73.4629
71.9482
71.9481
71.9483
70.205
70.2048
70.2051
68.1287
68.1286
68.1289
65.5033
65.5032
65.5035
61.7781
61.7778
61.778
55.5615
55.5611
55.5612
9.785
9.78504
9.78514
10.663
10.6631
10.6632
39.6498
39.6495
39.6495
43.8254
43.8249
43.8249
46.8299
46.8296
46.8297
48.9309
48.9307
48.9308
50.5685
50.5683
50.5684
51.9295
51.9292
51.9293
53.1036
53.1033
53.1034
54.1367
54.1365
54.1366
55.0488
55.0487
55.0489
55.8405
55.8406
55.8408
56.4991
56.4995
56.4996
57.0035
57.0042
57.0043
57.3464
57.3474
57.3474
57.5306
57.5317
57.5317
57.5306
57.5317
57.5317
57.3462
57.3472
57.3472
57.0032
57.0039
57.004
56.4987
56.499
56.4992
55.8401
55.8401
55.8403
55.0483
55.0482
55.0484
54.1361
54.136
54.1361
53.1027
53.1024
53.1025
51.928
51.9277
51.9278
50.5664
50.5661
50.5662
48.9284
48.9282
48.9283
46.8274
46.8271
46.8272
43.8232
43.8227
43.8228
39.6479
39.6476
39.6476
10.6628
10.6629
10.663
11.4984
11.4985
11.4986
30.2936
30.2933
30.2933
32.789
32.7884
32.7884
35.2197
35.2192
35.2193
36.952
36.9516
36.9516
38.2886
38.2883
38.2883
39.3877
39.3874
39.3874
40.328
40.3277
40.3277
41.15
41.1497
41.1498
41.8719
41.8718
41.8719
42.496
42.496
42.4961
43.0133
43.0135
43.0136
43.4079
43.4085
43.4085
43.6746
43.6754
43.6754
43.8168
43.8177
43.8177
43.8167
43.8177
43.8177
43.6745
43.6753
43.6753
43.4076
43.4082
43.4082
43.0128
43.0131
43.0132
42.4955
42.4955
42.4957
41.8715
41.8713
41.8714
41.1495
41.1492
41.1493
40.3272
40.3269
40.3269
39.3864
39.3861
39.3861
38.2868
38.2865
38.2865
36.9499
36.9495
36.9495
35.2176
35.2172
35.2172
32.787
32.7865
32.7865
30.2918
30.2915
30.2916
11.4983
11.4983
11.4984
12.3073
12.3073
12.3075
24.351
24.3507
24.3507
25.503
25.5024
25.5024
27.4292
27.4286
27.4286
28.8784
28.8779
28.8779
29.9957
29.9952
29.9952
30.9061
30.9056
30.9056
31.6781
31.6777
31.6777
32.3481
32.3478
32.3478
32.9332
32.933
32.933
33.4368
33.4367
33.4368
33.8526
33.8528
33.8528
34.1688
34.1692
34.1692
34.3811
34.3817
34.3817
34.4931
34.4939
34.4939
34.4931
34.4938
34.4938
34.3809
34.3815
34.3815
34.1685
34.1689
34.1689
33.8522
33.8524
33.8524
33.4363
33.4362
33.4363
32.9327
32.9326
32.9326
32.3476
32.3473
32.3473
31.6774
31.6769
31.677
30.9049
30.9045
30.9045
29.9942
29.9937
29.9937
28.8766
28.8761
28.8761
27.4274
27.4268
27.4268
25.5012
25.5006
25.5006
24.3493
24.349
24.349
12.3071
12.3071
12.3072
13.0978
13.0978
13.098
20.3441
20.3438
20.3438
20.4577
20.4571
20.4571
21.9184
21.9177
21.9177
23.1317
23.1311
23.1311
24.0798
24.0793
24.0793
24.8484
24.8479
24.8479
25.4948
25.4943
25.4943
26.0516
26.0512
26.0512
26.535
26.5347
26.5347
26.949
26.9489
26.949
27.2898
27.2899
27.2899
27.5479
27.5482
27.5482
27.7201
27.7205
27.7205
27.81
27.8106
27.8105
27.81
27.8105
27.8105
27.7199
27.7204
27.7204
27.5477
27.5479
27.5479
27.2894
27.2895
27.2895
26.9486
26.9485
26.9485
26.5345
26.5343
26.5343
26.0511
26.0507
26.0507
25.4941
25.4936
25.4937
24.8474
24.8469
24.8469
24.0785
24.078
24.078
23.1302
23.1296
23.1296
21.9168
21.9162
21.9162
20.4561
20.4555
20.4555
20.3425
20.3422
20.3422
13.0976
13.0976
13.0978
13.8727
13.8727
13.8729
17.5096
17.5094
17.5094
16.8458
16.8452
16.8452
17.8728
17.8721
17.8721
18.8757
18.875
18.8751
19.6858
19.6852
19.6852
20.3434
20.3428
20.3428
20.8931
20.8926
20.8926
21.3632
21.3628
21.3628
21.7689
21.7685
21.7685
22.1148
22.1146
22.1146
22.3985
22.3985
22.3984
22.6126
22.6128
22.6128
22.7545
22.7548
22.7548
22.8277
22.828
22.828
22.8276
22.828
22.828
22.7544
22.7546
22.7546
22.6124
22.6125
22.6125
22.3981
22.3981
22.3981
22.1144
22.1142
22.1142
21.7685
21.7681
21.7681
21.3627
21.3623
21.3623
20.8925
20.892
20.8919
20.3425
20.3419
20.342
19.6847
19.6841
19.6841
18.8745
18.8738
18.8738
17.8715
17.8708
17.8708
16.8443
16.8436
16.8436
17.508
17.5078
17.5078
13.8724
13.8725
13.8726
14.6303
14.6304
14.6305
15.4247
15.4245
15.4245
14.1955
14.1949
14.1949
14.8239
14.8232
14.8232
15.63
15.6293
15.6293
16.3209
16.3202
16.3202
16.8883
16.8876
16.8876
17.3613
17.3607
17.3607
17.7634
17.7629
17.7629
18.1084
18.108
18.108
18.4014
18.4011
18.4011
18.6407
18.6406
18.6406
18.8209
18.8209
18.8209
18.9395
18.9396
18.9396
18.9997
18.9999
18.9999
18.9997
18.9999
18.9998
18.9393
18.9395
18.9394
18.8207
18.8207
18.8206
18.6404
18.6403
18.6402
18.4009
18.4007
18.4007
18.108
18.1076
18.1076
17.7629
17.7624
17.7624
17.3607
17.3601
17.3601
16.8875
16.8869
16.8869
16.32
16.3193
16.3193
15.629
15.6282
15.6282
14.8227
14.822
14.822
14.1941
14.1935
14.1935
15.4232
15.4229
15.4229
14.6301
14.6302
14.6303
15.3659
15.366
15.3662
13.8422
13.8419
13.8419
12.2121
12.2115
12.2115
12.4829
12.4821
12.4821
13.1003
13.0995
13.0995
13.6831
13.6823
13.6823
14.1739
14.1732
14.1732
14.5843
14.5837
14.5837
14.9319
14.9314
14.9314
15.2287
15.2283
15.2282
15.4798
15.4795
15.4794
15.6842
15.684
15.6839
15.8377
15.8376
15.8375
15.938
15.938
15.9379
15.9882
15.9882
15.9882
15.9881
15.9882
15.9881
15.9379
15.9379
15.9378
15.8374
15.8374
15.8373
15.6838
15.6837
15.6836
15.4793
15.479
15.479
15.2284
15.2279
15.2279
14.9315
14.9309
14.9309
14.5838
14.5832
14.5832
14.1732
14.1726
14.1726
13.6823
13.6816
13.6816
13.0995
13.0987
13.0987
12.4818
12.481
12.481
12.2108
12.2102
12.2102
13.8406
13.8404
13.8404
15.3657
15.3658
15.3659
16.0728
16.0729
16.073
12.6108
12.6105
12.6105
10.702
10.7014
10.7014
10.6611
10.6603
10.6603
11.0969
11.096
11.096
11.5774
11.5766
11.5766
12.0005
11.9998
11.9998
12.3583
12.3576
12.3576
12.6612
12.6606
12.6606
12.919
12.9185
12.9185
13.1364
13.136
13.136
13.3129
13.3126
13.3125
13.4452
13.445
13.4449
13.5311
13.531
13.5309
13.5733
13.5733
13.5732
13.5733
13.5733
13.5731
13.531
13.5309
13.5308
13.445
13.4448
13.4447
13.3126
13.3123
13.3122
13.136
13.1356
13.1355
12.9187
12.9182
12.9181
12.6608
12.6602
12.6602
12.3578
12.3572
12.3571
11.9999
11.9992
11.9992
11.5768
11.576
11.576
11.0962
11.0953
11.0953
10.6602
10.6593
10.6593
10.7007
10.7001
10.7001
12.6092
12.609
12.609
16.0725
16.0726
16.0728
16.7436
16.7437
16.7438
11.6346
11.6343
11.6343
9.53329
9.53269
9.53268
9.22902
9.22817
9.22816
9.49172
9.49082
9.4908
9.87294
9.87211
9.8721
10.2336
10.2329
10.2328
10.5456
10.5449
10.5449
10.8111
10.8105
10.8104
11.0369
11.0363
11.0363
11.2269
11.2265
11.2264
11.3808
11.3804
11.3803
11.4961
11.4958
11.4957
11.5705
11.5704
11.5702
11.6064
11.6063
11.6061
11.6063
11.6062
11.6061
11.5704
11.5702
11.5701
11.4958
11.4956
11.4954
11.3805
11.3801
11.38
11.2265
11.2261
11.226
11.0365
11.036
11.0359
10.8107
10.8101
10.81
10.5452
10.5445
10.5444
10.2331
10.2324
10.2324
9.87247
9.87164
9.87163
9.49115
9.49024
9.49024
9.22818
9.22732
9.22732
9.53206
9.53146
9.53146
11.6331
11.6328
11.6328
16.7433
16.7434
16.7436
17.3719
17.372
17.3722
10.8505
10.8502
10.8502
8.61414
8.61354
8.61354
8.09395
8.09309
8.09308
8.19492
8.19399
8.19398
8.47858
8.4777
8.47768
8.77959
8.77881
8.77878
9.05029
9.04959
9.04954
9.28356
9.28292
9.28286
9.48258
9.48201
9.48193
9.65013
9.64963
9.64953
9.78557
9.78514
9.78502
9.88709
9.88673
9.88658
9.95238
9.95209
9.95193
9.98318
9.98297
9.98278
9.98314
9.98292
9.98274
9.95224
9.95196
9.95179
9.88688
9.88652
9.88637
9.78528
9.78485
9.78473
9.64974
9.64924
9.64914
9.48227
9.4817
9.48163
9.28318
9.28254
9.28248
9.04989
9.04919
9.04915
8.77922
8.77844
8.77841
8.47823
8.47736
8.47735
8.19448
8.19354
8.19354
8.09319
8.09233
8.09233
8.61297
8.61236
8.61237
10.849
10.8487
10.8487
17.3716
17.3717
17.3719
17.9533
17.9534
17.9535
10.2155
10.2152
10.2152
7.87923
7.87864
7.87864
7.18724
7.1864
7.18639
7.14103
7.14008
7.14008
7.32891
7.32801
7.32799
7.57137
7.57057
7.57053
7.80348
7.80276
7.80271
8.00825
8.00759
8.00753
8.18446
8.18387
8.18379
8.33328
8.33274
8.33264
8.45355
8.45306
8.45294
8.54386
8.54342
8.54327
8.60176
8.60138
8.60122
8.62852
8.6282
8.62802
8.62847
8.62816
8.62797
8.60163
8.60125
8.60108
8.54365
8.54321
8.54306
8.45327
8.45278
8.45266
8.3329
8.33236
8.33226
8.18418
8.18358
8.18351
8.00789
8.00724
8.00718
7.80314
7.80243
7.80238
7.5711
7.5703
7.57027
7.32869
7.32779
7.32778
7.1407
7.13975
7.13975
7.18657
7.18573
7.18572
7.87811
7.87752
7.87752
10.2141
10.2138
10.2138
17.9529
17.953
17.9532
18.4859
18.486
18.4861
9.69954
9.6992
9.69921
7.28167
7.28109
7.28109
6.4569
6.45607
6.45607
6.28066
6.27972
6.27972
6.37567
6.37476
6.37475
6.55974
6.55893
6.5589
6.75456
6.75384
6.75379
6.93327
6.93261
6.93255
7.0896
7.08899
7.08892
7.22259
7.22202
7.22193
7.33026
7.32972
7.32961
7.41137
7.41087
7.41073
7.46333
7.46287
7.46271
7.48684
7.48644
7.48626
7.48679
7.48639
7.48621
7.46318
7.46273
7.46257
7.41116
7.41066
7.41052
7.32999
7.32946
7.32934
7.22223
7.22166
7.22157
7.08934
7.08873
7.08866
6.93295
6.93229
6.93223
6.75428
6.75356
6.75352
6.55957
6.55876
6.55873
6.37557
6.37466
6.37465
6.28044
6.27951
6.2795
6.4563
6.45548
6.45547
7.28061
7.28004
7.28004
9.69811
9.69777
9.69778
18.4855
18.4856
18.4857
18.9711
18.9712
18.9713
9.28068
9.28033
9.28033
6.7876
6.78704
6.78703
5.86287
5.86207
5.86207
5.57542
5.5745
5.5745
5.58221
5.5813
5.58129
5.70782
5.70701
5.70699
5.8656
5.8649
5.86485
6.01965
6.019
6.01894
6.15816
6.15756
6.15748
6.27753
6.27695
6.27686
6.3746
6.37405
6.37394
6.44812
6.44758
6.44745
6.49525
6.49474
6.49459
6.51617
6.5157
6.51554
6.51612
6.51565
6.51549
6.4951
6.49459
6.49445
6.44791
6.44737
6.44725
6.37435
6.3738
6.37369
6.27718
6.27661
6.27652
6.15792
6.15732
6.15725
6.01936
6.01872
6.01866
5.86539
5.86468
5.86464
5.70774
5.70694
5.70691
5.58221
5.58131
5.5813
5.57529
5.57438
5.57437
5.86234
5.86156
5.86155
6.78662
6.78606
6.78606
9.2793
9.27895
9.27895
18.9706
18.9707
18.9709
19.4129
19.4129
19.4131
8.94296
8.94261
8.94261
6.37264
6.3721
6.3721
5.37411
5.37335
5.37335
4.99467
4.9938
4.99379
4.91987
4.91899
4.91899
4.98735
4.98657
4.98655
5.10771
5.10702
5.10699
5.23761
5.237
5.23695
5.35962
5.35904
5.35898
5.46697
5.46642
5.46634
5.55502
5.55447
5.55438
5.62218
5.62163
5.62152
5.66538
5.66484
5.66471
5.68422
5.68372
5.68357
5.68416
5.68366
5.68351
5.66523
5.66469
5.66456
5.62198
5.62143
5.62131
5.55478
5.55424
5.55414
5.46665
5.4661
5.46602
5.3594
5.35883
5.35876
5.23737
5.23676
5.23671
5.10756
5.10688
5.10684
4.98737
4.98659
4.98658
4.91998
4.91911
4.91911
4.99463
4.99377
4.99376
5.37366
5.37291
5.37291
6.37174
6.37121
6.37121
8.94164
8.94129
8.94129
19.4123
19.4124
19.4126
19.8172
19.8173
19.8174
8.67466
8.6743
8.6743
6.01946
6.01896
6.01896
4.96655
4.96585
4.96584
4.51359
4.51277
4.51277
4.36566
4.36484
4.36484
4.3763
4.37556
4.37555
4.45853
4.4579
4.45787
4.56415
4.56359
4.56355
4.67029
4.66977
4.66972
4.76672
4.76621
4.76614
4.84689
4.84637
4.84629
4.90864
4.90811
4.90801
4.94858
4.94805
4.94794
4.96575
4.96525
4.96512
4.96569
4.96518
4.96506
4.94843
4.9479
4.94778
4.90843
4.9079
4.9078
4.84666
4.84615
4.84606
4.76643
4.76592
4.76585
4.6701
4.66958
4.66952
4.56395
4.56339
4.56335
4.45845
4.45782
4.4578
4.37641
4.37568
4.37566
4.36587
4.36505
4.36505
4.51365
4.51284
4.51283
4.96619
4.96549
4.96548
6.01867
6.01817
6.01816
8.6734
8.67305
8.67305
19.8166
19.8167
19.8168
20.191
20.191
20.1912
8.46728
8.46691
8.46691
5.71611
5.71563
5.71563
4.62169
4.62105
4.62105
4.11188
4.11113
4.11113
3.90063
3.89988
3.89988
3.85702
3.85634
3.85634
3.9006
3.90003
3.90001
3.98129
3.98079
3.98076
4.07164
4.07118
4.07114
4.15772
4.15727
4.15722
4.23078
4.23032
4.23025
4.28779
4.2873
4.28722
4.32498
4.32449
4.32439
4.3408
4.34032
4.34021
4.34073
4.34025
4.34015
4.32483
4.32433
4.32423
4.28759
4.28711
4.28702
4.23057
4.23011
4.23004
4.15746
4.15701
4.15696
4.07146
4.07101
4.07097
3.98113
3.98064
3.98061
3.90059
3.90002
3.90001
3.85722
3.85655
3.85654
3.90093
3.90018
3.90018
4.11204
4.11129
4.11128
4.62143
4.62078
4.62078
5.71542
5.71495
5.71495
8.4661
8.46573
8.46574
20.1903
20.1904
20.1905
20.5406
20.5407
20.5408
8.31473
8.31437
8.31437
5.45471
5.45427
5.45428
4.32559
4.325
4.325
3.77297
3.7723
3.77229
3.50887
3.5082
3.5082
3.41507
3.41447
3.41447
3.42003
3.41954
3.41953
3.4749
3.47449
3.47447
3.54903
3.54866
3.54864
3.62489
3.62452
3.62448
3.69125
3.69087
3.69082
3.74394
3.74353
3.74346
3.77871
3.77828
3.7782
3.7934
3.79298
3.79289
3.79333
3.79292
3.79283
3.77855
3.77812
3.77804
3.74374
3.74333
3.74327
3.69107
3.69069
3.69063
3.62467
3.6243
3.62426
3.54888
3.54852
3.54849
3.47479
3.47439
3.47437
3.4201
3.4196
3.4196
3.41535
3.41476
3.41476
3.50927
3.5086
3.5086
3.77322
3.77255
3.77254
4.32543
4.32484
4.32483
5.45414
5.45371
5.45371
8.31363
8.31327
8.31327
20.5399
20.54
20.5401
20.8715
20.8716
20.8717
8.21237
8.21202
8.21202
5.23052
5.23013
5.23013
4.06803
4.06751
4.0675
3.48346
3.48286
3.48286
3.17691
3.17632
3.17632
3.03833
3.03782
3.03782
3.00565
3.00525
3.00525
3.03388
3.03356
3.03356
3.09098
3.09071
3.0907
3.15629
3.15602
3.156
3.21602
3.21573
3.2157
3.26454
3.26421
3.26417
3.29706
3.29671
3.29665
3.31078
3.31044
3.31038
3.31071
3.31037
3.31031
3.2969
3.29655
3.29649
3.26435
3.26403
3.26398
3.21585
3.21557
3.21553
3.15612
3.15585
3.15582
3.09086
3.09059
3.09057
3.03382
3.03351
3.0335
3.00578
3.00538
3.00538
3.03869
3.0382
3.03819
3.17739
3.17682
3.1768
3.48382
3.48321
3.48321
4.06799
4.06746
4.06745
5.23008
5.22969
5.22969
8.21137
8.21101
8.21101
20.8707
20.8708
20.8709
21.1871
21.1871
21.1872
8.15604
8.15569
8.15569
5.041
5.04065
5.04064
3.84197
3.84151
3.84149
3.23277
3.23225
3.23224
2.89331
2.89282
2.89281
2.71644
2.71603
2.71603
2.64829
2.64798
2.64798
2.64945
2.64923
2.64923
2.68851
2.68833
2.68833
2.74254
2.74237
2.74236
2.79533
2.79515
2.79513
2.83958
2.83936
2.83933
2.86985
2.86961
2.86957
2.8827
2.88246
2.88242
2.88263
2.88239
2.88235
2.86969
2.86945
2.86941
2.8394
2.83918
2.83916
2.79519
2.79501
2.79499
2.74242
2.74225
2.74224
2.68841
2.68823
2.68823
2.64944
2.64922
2.64922
2.64848
2.64817
2.64817
2.71687
2.71646
2.71646
2.89389
2.89339
2.89339
3.23323
3.2327
3.2327
3.84204
3.84157
3.84156
5.04069
5.04034
5.04033
8.15512
8.15477
8.15477
21.1861
21.1862
21.1863
21.4885
21.4886
21.4887
8.14108
8.14072
8.14072
4.88494
4.88463
4.8846
3.64288
3.64248
3.64245
3.01285
3.01239
3.01239
2.64859
2.64818
2.64817
2.44046
2.44014
2.44014
2.34028
2.34007
2.34006
2.31469
2.31457
2.31457
2.33471
2.33462
2.33463
2.37642
2.37634
2.37635
2.42161
2.42153
2.42153
2.46123
2.46111
2.46111
2.4891
2.48896
2.48894
2.50109
2.50095
2.50094
2.50103
2.50089
2.50087
2.48895
2.4888
2.48879
2.46107
2.46095
2.46095
2.4215
2.42142
2.42142
2.37635
2.37627
2.37628
2.33463
2.33454
2.33455
2.31472
2.3146
2.3146
2.34052
2.3403
2.3403
2.44095
2.44063
2.44063
2.64925
2.64884
2.64883
3.01343
3.01296
3.01296
3.64308
3.64267
3.64265
4.88477
4.88446
4.88444
8.14024
8.13989
8.13989
21.4875
21.4876
21.4877
21.7754
21.7754
21.7755
8.16168
8.16131
8.1613
4.76163
4.76135
4.76131
3.46828
3.46794
3.4679
2.81795
2.81756
2.81755
2.4351
2.43477
2.43477
2.20278
2.20255
2.20255
2.07518
2.07505
2.07505
2.02418
2.02412
2.02414
2.02444
2.02442
2.02446
2.05259
2.05259
2.05262
2.08921
2.0892
2.08924
2.12358
2.12355
2.12358
2.14874
2.14869
2.1487
2.15984
2.15979
2.1598
2.15977
2.15972
2.15974
2.14859
2.14854
2.14856
2.12343
2.12341
2.12344
2.08913
2.08912
2.08916
2.05257
2.05257
2.0526
2.02438
2.02436
2.0244
2.02425
2.02419
2.0242
2.07546
2.07533
2.07533
2.20333
2.20309
2.20309
2.43585
2.43552
2.43551
2.81865
2.81825
2.81823
3.46862
3.46827
3.46823
4.7616
4.76133
4.76129
8.16092
8.16054
8.16055
21.7743
21.7743
21.7744
22.0451
22.0452
22.0453
8.21055
8.21015
8.21015
4.67004
4.66979
4.66974
3.31719
3.31689
3.31683
2.64446
2.64413
2.6441
2.24717
2.2469
2.2469
1.99723
1.99708
1.99708
1.84768
1.84762
1.84763
1.77377
1.77376
1.7738
1.75414
1.75417
1.75423
1.76746
1.76752
1.76758
1.79427
1.79434
1.7944
1.82255
1.82262
1.82266
1.84455
1.84459
1.84463
1.85465
1.85468
1.85473
1.85459
1.85462
1.85467
1.84441
1.84445
1.8445
1.82243
1.82249
1.82254
1.79422
1.7943
1.79435
1.76749
1.76756
1.76761
1.7541
1.75413
1.75419
1.77386
1.77384
1.77389
1.84797
1.84791
1.84792
1.99782
1.99766
1.99766
2.248
2.24773
2.24773
2.64527
2.64494
2.64491
3.31767
3.31736
3.3173
4.67016
4.66991
4.66986
8.20986
8.20947
8.20947
22.044
22.044
22.0441
22.2939
22.2939
22.294
8.27886
8.27842
8.27842
4.6081
4.60786
4.6078
3.18956
3.1893
3.18922
2.49074
2.49046
2.49042
2.08121
2.08101
2.081
1.81933
1.81924
1.81924
1.65371
1.65369
1.65373
1.56049
1.56052
1.56058
1.52171
1.52178
1.52186
1.51917
1.51929
1.51936
1.53481
1.53495
1.53502
1.55602
1.55615
1.55622
1.5743
1.57441
1.57447
1.58324
1.58335
1.58342
1.58319
1.5833
1.58336
1.57418
1.57429
1.57436
1.55592
1.55605
1.55612
1.5348
1.53493
1.535
1.51925
1.51936
1.51943
1.52168
1.52175
1.52183
1.56058
1.56061
1.56067
1.65401
1.65399
1.65402
1.81994
1.81985
1.81985
2.08212
2.08191
2.0819
2.49168
2.49139
2.49134
3.19018
3.18991
3.18983
4.60836
4.60812
4.60805
8.27823
8.2778
8.2778
22.2927
22.2927
22.2928
22.516
22.516
22.5161
8.35654
8.35609
8.35608
4.5722
4.57197
4.57189
3.0859
3.08566
3.08556
2.35716
2.35693
2.35687
1.93609
1.93594
1.93592
1.6668
1.66676
1.66677
1.49085
1.49087
1.49092
1.38274
1.38281
1.38288
1.32658
1.32668
1.32676
1.30775
1.30788
1.30796
1.31098
1.31114
1.31122
1.3241
1.32426
1.32434
1.33808
1.33822
1.3383
1.34568
1.34582
1.3459
1.34563
1.34578
1.34586
1.33798
1.33813
1.33821
1.32403
1.32419
1.32427
1.31099
1.31115
1.31123
1.30785
1.30798
1.30806
1.32655
1.32666
1.32673
1.38282
1.38289
1.38296
1.49113
1.49116
1.4912
1.66743
1.66739
1.66739
1.93705
1.9369
1.93688
2.35821
2.35796
2.3579
3.08663
3.08639
3.08629
4.57257
4.57235
4.57226
8.35596
8.35551
8.3555
22.5147
22.5148
22.5149
22.7035
22.7035
22.7036
8.43317
8.4327
8.4327
4.55719
4.55698
4.55688
3.00691
3.00669
3.00657
2.24622
2.24601
2.24594
1.81367
1.81357
1.81353
1.54029
1.54028
1.54029
1.359
1.35908
1.35912
1.24074
1.24085
1.24091
1.17004
1.17016
1.17024
1.13549
1.13562
1.1357
1.12565
1.12579
1.12587
1.12993
1.13008
1.13017
1.13917
1.1393
1.13939
1.14524
1.14537
1.14547
1.14521
1.14534
1.14543
1.13909
1.13923
1.13932
1.12989
1.13003
1.13012
1.12567
1.12582
1.1259
1.1356
1.13573
1.13581
1.17
1.17013
1.1702
1.24079
1.2409
1.24096
1.35926
1.35934
1.35938
1.54091
1.54091
1.54092
1.81468
1.81457
1.81454
2.24735
2.24714
2.24706
3.00775
3.00752
3.0074
4.55763
4.55743
4.55732
8.43261
8.43215
8.43215
22.7022
22.7023
22.7024
22.8454
22.8455
22.8456
8.49825
8.49774
8.49775
4.55645
4.55621
4.55611
2.95326
2.95303
2.9529
2.16288
2.16269
2.1626
1.71967
1.7196
1.71955
1.44437
1.44439
1.4444
1.2614
1.26152
1.26156
1.13731
1.13745
1.13751
1.0559
1.05602
1.05609
1.00791
1.00802
1.0081
0.985772
0.985865
0.985955
0.981411
0.981495
0.981591
0.98593
0.986002
0.986101
0.990441
0.990506
0.990611
0.990416
0.990481
0.990585
0.985879
0.985951
0.98605
0.981384
0.981468
0.981563
0.985807
0.985899
0.985989
1.00802
1.00813
1.00821
1.05585
1.05598
1.05605
1.13733
1.13747
1.13753
1.26163
1.26175
1.26178
1.44498
1.445
1.44501
1.72071
1.72063
1.72059
2.16409
2.16389
2.1638
2.95419
2.95396
2.95383
4.55696
4.55673
4.55662
8.49768
8.49718
8.49718
22.8442
22.8442
22.8443
22.9271
22.9272
22.9273
8.53853
8.53801
8.53799
4.56083
4.56055
4.56045
2.92531
2.92506
2.92493
2.1151
2.11491
2.11481
1.66463
1.66458
1.66452
1.38868
1.38873
1.38873
1.20583
1.20597
1.206
1.07926
1.07942
1.07947
0.991855
0.991983
0.992049
0.935363
0.93544
0.935521
0.904759
0.904799
0.904892
0.8942
0.89422
0.894315
0.895287
0.895293
0.895387
0.89862
0.898619
0.898713
0.898602
0.8986
0.898694
0.89525
0.895257
0.89535
0.894184
0.894204
0.894299
0.904794
0.904833
0.904926
0.935461
0.935537
0.935618
0.991798
0.991926
0.991992
1.07926
1.07942
1.07947
1.20603
1.20618
1.2062
1.38928
1.38933
1.38933
1.66568
1.66562
1.66557
2.11636
2.11616
2.11606
2.92631
2.92606
2.92593
4.56139
4.56112
4.56101
8.53795
8.53743
8.53741
22.9258
22.9259
22.926
)
;

boundaryField
{
    freeSurface
    {
        type            slip;
    }
    inlet
    {
        type            cyclic;
    }
    outlet
    {
        type            cyclic;
    }
    sidewalls
    {
        type            omegaWallFunction;
        Cmu             0.09;
        kappa           0.41;
        E               9.8;
        beta1           0.075;
        blended         false;
        value           nonuniform List<scalar> 
192
(
737.062
6.47615
7.77015
8.83749
9.78517
10.663
11.4984
12.3073
13.0978
13.8727
14.6303
15.3659
16.0728
16.7436
17.3719
17.9533
18.4859
18.9711
19.4129
19.8172
20.191
20.5406
20.8715
21.1871
21.4885
21.7754
22.0451
22.2939
22.516
22.7035
22.8454
22.9271
737.062
6.47618
7.77019
8.83753
9.78522
10.6631
11.4985
12.3073
13.0978
13.8727
14.6304
15.366
16.0729
16.7437
17.372
17.9534
18.486
18.9712
19.4129
19.8173
20.191
20.5407
20.8716
21.1871
21.4886
21.7754
22.0452
22.2939
22.516
22.7035
22.8455
22.9272
737.062
6.47625
7.77027
8.83762
9.78532
10.6632
11.4986
12.3075
13.098
13.8729
14.6305
15.3662
16.073
16.7438
17.3722
17.9535
18.4861
18.9713
19.4131
19.8174
20.1912
20.5408
20.8717
21.1872
21.4887
21.7755
22.0453
22.294
22.5161
22.7036
22.8456
22.9273
737.062
6.47602
7.77
8.83733
9.785
10.6628
11.4983
12.3071
13.0976
13.8724
14.6301
15.3657
16.0725
16.7433
17.3716
17.9529
18.4855
18.9706
19.4123
19.8166
20.1903
20.5399
20.8707
21.1861
21.4875
21.7743
22.044
22.2927
22.5147
22.7022
22.8442
22.9258
737.062
6.47604
7.77004
8.83737
9.78504
10.6629
11.4983
12.3071
13.0976
13.8725
14.6302
15.3658
16.0726
16.7434
17.3717
17.953
18.4856
18.9707
19.4124
19.8167
20.1904
20.54
20.8708
21.1862
21.4876
21.7743
22.044
22.2927
22.5148
22.7023
22.8442
22.9259
737.062
6.47612
7.77012
8.83746
9.78514
10.663
11.4984
12.3072
13.0978
13.8726
14.6303
15.3659
16.0728
16.7436
17.3719
17.9532
18.4857
18.9709
19.4126
19.8168
20.1905
20.5401
20.8709
21.1863
21.4877
21.7744
22.0441
22.2928
22.5149
22.7024
22.8443
22.926
)
;
    }
    noSlipWalls
    {
        type            omegaWallFunction;
        Cmu             0.09;
        kappa           0.41;
        E               9.8;
        beta1           0.075;
        blended         false;
        value           nonuniform List<scalar> 
90
(
737.062
1471.07
1471.07
1471.07
1471.07
1471.07
1471.07
1471.07
1471.07
1471.07
1471.07
1471.07
1471.07
1471.07
1471.07
1471.07
1471.07
1471.07
1471.07
1471.07
1471.07
1471.07
1471.07
1471.07
1471.07
1471.07
1471.07
1471.07
1471.07
737.062
737.062
1471.07
1471.07
1471.07
1471.07
1471.07
1471.07
1471.07
1471.07
1471.07
1471.07
1471.07
1471.07
1471.07
1471.07
1471.07
1471.07
1471.07
1471.07
1471.07
1471.07
1471.07
1471.07
1471.07
1471.07
1471.07
1471.07
1471.07
1471.07
737.062
737.062
1471.07
1471.07
1471.07
1471.07
1471.07
1471.07
1471.07
1471.07
1471.07
1471.07
1471.07
1471.07
1471.07
1471.07
1471.07
1471.07
1471.07
1471.07
1471.07
1471.07
1471.07
1471.07
1471.07
1471.07
1471.07
1471.07
1471.07
1471.07
737.062
)
;
    }
}


// ************************************************************************* //
