/*--------------------------------*- C++ -*----------------------------------*\
  =========                 |
  \\      /  F ield         | OpenFOAM: The Open Source CFD Toolbox
   \\    /   O peration     | Website:  https://openfoam.org
    \\  /    A nd           | Version:  6
     \\/     M anipulation  |
\*---------------------------------------------------------------------------*/
FoamFile
{
    version     2.0;
    format      ascii;
    class       volVectorField;
    location    "80";
    object      U;
}
// * * * * * * * * * * * * * * * * * * * * * * * * * * * * * * * * * * * * * //

dimensions      [0 1 -1 0 0 0 0];

internalField   nonuniform List<vector> 
2880
(
(0.0522885 1.2439e-10 1.98952e-10)
(0.0522888 1.47649e-09 -3.49154e-10)
(0.0522896 -1.58086e-09 1.42722e-10)
(0.0372986 1.29141e-09 3.99247e-11)
(0.0372992 -1.1816e-10 -6.97618e-11)
(0.0373 -1.16551e-09 3.01704e-11)
(0.0446234 2.69482e-09 6.28917e-11)
(0.0446245 -2.86301e-09 -1.49789e-10)
(0.0446254 1.32865e-10 8.68369e-11)
(0.0506909 5.04538e-09 7.63023e-11)
(0.0506922 -7.59539e-09 -1.9145e-10)
(0.0506933 2.49675e-09 1.15181e-10)
(0.0557819 7.78813e-09 9.11218e-11)
(0.0557833 -1.28432e-08 -2.35292e-10)
(0.0557844 4.99798e-09 1.44111e-10)
(0.0602138 8.5038e-09 1.00234e-10)
(0.0602152 -1.45803e-08 -2.61474e-10)
(0.0602162 6.02385e-09 1.61079e-10)
(0.0641868 6.92159e-09 1.03487e-10)
(0.0641882 -1.26126e-08 -2.74651e-10)
(0.0641892 5.64853e-09 1.71114e-10)
(0.0678221 3.62685e-09 1.02111e-10)
(0.0678234 -7.77574e-09 -2.69216e-10)
(0.0678243 4.10558e-09 1.67341e-10)
(0.0711864 3.85318e-11 9.86927e-11)
(0.0711875 -2.73473e-09 -2.4945e-10)
(0.0711883 2.64929e-09 1.50826e-10)
(0.0742969 -2.88234e-09 9.60227e-11)
(0.0742979 1.28152e-09 -2.18448e-10)
(0.0742986 1.5558e-09 1.22454e-10)
(0.0771183 -4.59348e-09 1.00099e-10)
(0.0771189 3.89516e-09 -1.80802e-10)
(0.0771197 6.5855e-10 8.07483e-11)
(0.0795662 -4.95412e-09 1.209e-10)
(0.0795663 4.7892e-09 -1.34527e-10)
(0.0795673 1.32531e-10 1.36275e-11)
(0.0815196 -4.93616e-09 1.3861e-10)
(0.0815193 4.75496e-09 -8.54614e-11)
(0.0815204 1.5886e-10 -5.31215e-11)
(0.0829002 -3.46305e-09 1.5214e-10)
(0.0828995 3.13271e-09 -3.47828e-11)
(0.0829007 3.07672e-10 -1.17293e-10)
(0.0836656 -1.03716e-09 1.54455e-10)
(0.0836646 8.6985e-10 3.25515e-12)
(0.0836658 1.44824e-10 -1.57679e-10)
(0.0836656 1.00366e-09 1.54567e-10)
(0.0836646 -8.90825e-10 3.05293e-12)
(0.0836658 -1.35314e-10 -1.5759e-10)
(0.0829003 3.37132e-09 1.52046e-10)
(0.0828996 -3.11609e-09 -3.45177e-11)
(0.0829007 -2.77732e-10 -1.1747e-10)
(0.0815197 4.83684e-09 1.38591e-10)
(0.0815194 -4.73704e-09 -8.49486e-11)
(0.0815205 -1.22755e-10 -5.36167e-11)
(0.0795663 4.86938e-09 1.20892e-10)
(0.0795664 -4.78128e-09 -1.33715e-10)
(0.0795674 -1.0415e-10 1.28334e-11)
(0.0771188 4.51814e-09 9.97965e-11)
(0.0771194 -3.90458e-09 -1.7966e-10)
(0.0771202 -6.24728e-10 7.98319e-11)
(0.0742974 2.81672e-09 9.59419e-11)
(0.0742984 -1.2913e-09 -2.17071e-10)
(0.0742991 -1.5345e-09 1.21151e-10)
(0.0711869 -1.18957e-10 9.76192e-11)
(0.071188 2.79312e-09 -2.48535e-10)
(0.0711888 -2.68298e-09 1.50907e-10)
(0.0678215 -3.72783e-09 1.01872e-10)
(0.0678228 7.85958e-09 -2.67999e-10)
(0.0678237 -4.13944e-09 1.66125e-10)
(0.0641844 -7.10925e-09 1.02642e-10)
(0.0641858 1.27741e-08 -2.73522e-10)
(0.0641867 -5.67307e-09 1.7089e-10)
(0.0602097 -8.67442e-09 1.0004e-10)
(0.0602111 1.47878e-08 -2.60474e-10)
(0.0602122 -6.1206e-09 1.6045e-10)
(0.0557772 -8.01612e-09 9.24645e-11)
(0.0557786 1.30823e-08 -2.3503e-10)
(0.0557797 -5.07453e-09 1.42603e-10)
(0.0506869 -5.11604e-09 7.60118e-11)
(0.0506882 7.65856e-09 -1.89487e-10)
(0.0506893 -2.55042e-09 1.13488e-10)
(0.0446208 -2.59504e-09 6.34332e-11)
(0.0446219 2.74898e-09 -1.49459e-10)
(0.0446228 -1.5961e-10 8.60542e-11)
(0.0372975 -1.25545e-09 3.94921e-11)
(0.0372981 8.69094e-11 -6.90984e-11)
(0.0372989 1.16589e-09 2.96131e-11)
(0.0522869 -7.90133e-11 2.07479e-10)
(0.0522871 -1.48188e-09 -3.47741e-10)
(0.0522879 1.56173e-09 1.40227e-10)
(0.0701625 8.81704e-11 3.32484e-10)
(0.0701628 2.02323e-09 -5.89434e-10)
(0.0701637 -2.10003e-09 2.53029e-10)
(0.10121 2.76588e-09 3.64889e-10)
(0.101211 3.6004e-10 -6.6334e-10)
(0.101213 -3.17473e-09 3.02473e-10)
(0.11569 6.18427e-09 4.11628e-10)
(0.115692 -6.07983e-09 -8.65693e-10)
(0.115694 -2.18697e-10 4.55526e-10)
(0.126258 1.14488e-08 4.27509e-10)
(0.12626 -1.6439e-08 -9.63184e-10)
(0.126262 4.84615e-09 5.36362e-10)
(0.134529 1.7287e-08 4.87722e-10)
(0.134531 -2.74572e-08 -1.12509e-09)
(0.134533 1.00231e-08 6.37469e-10)
(0.141395 1.85348e-08 5.47761e-10)
(0.141397 -3.07028e-08 -1.258e-09)
(0.141399 1.2028e-08 7.09954e-10)
(0.147339 1.48601e-08 5.63852e-10)
(0.14734 -2.61587e-08 -1.29799e-09)
(0.147342 1.11777e-08 7.33842e-10)
(0.152631 7.71048e-09 5.36992e-10)
(0.152633 -1.58998e-08 -1.22955e-09)
(0.152634 8.07681e-09 6.92517e-10)
(0.157423 2.14602e-10 4.85208e-10)
(0.157424 -5.54283e-09 -1.08502e-09)
(0.157425 5.22106e-09 5.99616e-10)
(0.161772 -5.70862e-09 4.39801e-10)
(0.161773 2.5012e-09 -9.13861e-10)
(0.161774 3.10819e-09 4.7384e-10)
(0.165657 -9.09769e-09 4.25006e-10)
(0.165657 7.60925e-09 -7.35992e-10)
(0.165659 1.40263e-09 3.10779e-10)
(0.168983 -9.7565e-09 4.75836e-10)
(0.168983 9.27589e-09 -5.48499e-10)
(0.168985 4.12045e-10 7.24702e-11)
(0.17161 -9.65629e-09 5.23161e-10)
(0.17161 9.14311e-09 -3.6602e-10)
(0.171611 4.65591e-10 -1.57196e-10)
(0.173452 -6.75819e-09 5.56109e-10)
(0.173451 5.99304e-09 -1.82851e-10)
(0.173453 7.16762e-10 -3.73192e-10)
(0.174469 -2.03006e-09 5.56781e-10)
(0.174467 1.67155e-09 -4.72903e-11)
(0.174469 3.10539e-10 -5.09442e-10)
(0.174469 1.96393e-09 5.57261e-10)
(0.174467 -1.72205e-09 -4.81932e-11)
(0.174469 -2.90021e-10 -5.09015e-10)
(0.173452 6.58177e-09 5.55763e-10)
(0.173451 -5.97531e-09 -1.81907e-10)
(0.173453 -6.55014e-10 -3.73785e-10)
(0.17161 9.4625e-09 5.23027e-10)
(0.17161 -9.12242e-09 -3.64232e-10)
(0.171611 -3.90035e-10 -1.58822e-10)
(0.168983 9.58909e-09 4.75387e-10)
(0.168984 -9.27207e-09 -5.45399e-10)
(0.168985 -3.52111e-10 6.98997e-11)
(0.165657 8.94656e-09 4.2375e-10)
(0.165658 -7.64405e-09 -7.3123e-10)
(0.165659 -1.32784e-09 3.07355e-10)
(0.161773 5.57979e-09 4.38381e-10)
(0.161774 -2.53294e-09 -9.09245e-10)
(0.161775 -3.06812e-09 4.70801e-10)
(0.157423 -3.88061e-10 4.82724e-10)
(0.157425 5.64436e-09 -1.081e-09)
(0.157426 -5.27659e-09 5.98195e-10)
(0.15263 -7.94117e-09 5.35998e-10)
(0.152632 1.60484e-08 -1.22651e-09)
(0.152633 -8.12596e-09 6.9044e-10)
(0.147335 -1.52676e-08 5.61085e-10)
(0.147337 2.64875e-08 -1.29588e-09)
(0.147338 -1.12405e-08 7.34731e-10)
(0.141389 -1.89254e-08 5.47754e-10)
(0.141391 3.11549e-08 -1.25568e-09)
(0.141392 -1.22481e-08 7.0786e-10)
(0.134522 -1.77969e-08 4.90018e-10)
(0.134524 2.79782e-08 -1.1219e-09)
(0.134526 -1.02024e-08 6.31882e-10)
(0.126252 -1.16256e-08 4.21474e-10)
(0.126254 1.65889e-08 -9.49124e-10)
(0.126256 -4.98336e-09 5.27523e-10)
(0.115686 -5.99426e-09 4.10201e-10)
(0.115687 5.83977e-09 -8.60607e-10)
(0.115689 1.39701e-10 4.50223e-10)
(0.101208 -2.73532e-09 3.65396e-10)
(0.101209 -4.26256e-10 -6.61314e-10)
(0.101211 3.15433e-09 2.95598e-10)
(0.0701606 -4.27613e-11 3.38621e-10)
(0.0701608 -2.02907e-09 -5.8735e-10)
(0.0701617 2.07284e-09 2.4863e-10)
(0.0796532 5.15965e-11 5.25161e-10)
(0.0796535 2.3214e-09 -9.68439e-10)
(0.0796545 -2.35883e-09 4.38692e-10)
(0.136913 3.23165e-09 8.31821e-10)
(0.136914 1.03269e-09 -1.50456e-09)
(0.136916 -4.34683e-09 6.80114e-10)
(0.153999 7.65754e-09 8.99731e-10)
(0.154001 -7.10367e-09 -1.82159e-09)
(0.154003 -7.08409e-10 9.24627e-10)
(0.165784 1.42133e-08 9.16674e-10)
(0.165787 -1.98076e-08 -1.98424e-09)
(0.165789 5.40583e-09 1.06858e-09)
(0.174898 2.13739e-08 1.03671e-09)
(0.1749 -3.3221e-08 -2.29278e-09)
(0.174902 1.16566e-08 1.25581e-09)
(0.182418 2.28565e-08 1.17039e-09)
(0.18242 -3.71562e-08 -2.57505e-09)
(0.182422 1.41187e-08 1.40367e-09)
(0.188904 1.82834e-08 1.20504e-09)
(0.188906 -3.161e-08 -2.64977e-09)
(0.188907 1.31698e-08 1.44399e-09)
(0.194663 9.47794e-09 1.14002e-09)
(0.194665 -1.91659e-08 -2.49393e-09)
(0.194666 9.54392e-09 1.35407e-09)
(0.199865 3.14222e-10 1.0169e-09)
(0.199867 -6.66011e-09 -2.17754e-09)
(0.199868 6.21058e-09 1.16046e-09)
(0.204579 -6.8837e-09 9.07248e-10)
(0.20458 3.00462e-09 -1.81984e-09)
(0.204581 3.75454e-09 9.12303e-10)
(0.208781 -1.09819e-08 8.58083e-10)
(0.208781 9.11921e-09 -1.46511e-09)
(0.208783 1.75548e-09 6.06744e-10)
(0.212373 -1.17755e-08 9.37221e-10)
(0.212373 1.11147e-08 -1.10492e-09)
(0.212374 5.75398e-10 1.67347e-10)
(0.215204 -1.15547e-08 1.01109e-09)
(0.215204 1.08593e-08 -7.65577e-10)
(0.215206 6.36183e-10 -2.45683e-10)
(0.217187 -8.10179e-09 1.05925e-09)
(0.217187 7.11515e-09 -4.25303e-10)
(0.217188 9.26615e-10 -6.33901e-10)
(0.218281 -2.4518e-09 1.0546e-09)
(0.21828 2.00171e-09 -1.73512e-10)
(0.218281 3.90537e-10 -8.81054e-10)
(0.218281 2.37073e-09 1.05557e-09)
(0.21828 -2.06449e-09 -1.75385e-10)
(0.218281 -3.66056e-10 -8.80149e-10)
(0.217187 7.89163e-09 1.05858e-09)
(0.217187 -7.10037e-09 -4.23603e-10)
(0.217188 -8.51741e-10 -6.34931e-10)
(0.215204 1.13243e-08 1.01082e-09)
(0.215204 -1.08422e-08 -7.62355e-10)
(0.215206 -5.44399e-10 -2.48584e-10)
(0.212373 1.15746e-08 9.36247e-10)
(0.212373 -1.11163e-08 -1.09893e-09)
(0.212374 -5.02134e-10 1.62483e-10)
(0.208781 1.08004e-08 8.55494e-10)
(0.208782 -9.16743e-09 -1.45608e-09)
(0.208783 -1.66475e-09 6.00351e-10)
(0.204579 6.72784e-09 9.04648e-10)
(0.204581 -3.04811e-09 -1.81103e-09)
(0.204582 -3.70653e-09 9.06322e-10)
(0.199866 -5.28223e-10 1.01179e-09)
(0.199867 6.77817e-09 -2.17017e-09)
(0.199869 -6.27558e-09 1.15826e-09)
(0.194662 -9.76462e-09 1.13858e-09)
(0.194664 1.93409e-08 -2.48816e-09)
(0.194665 -9.60016e-09 1.3495e-09)
(0.1889 -1.87845e-08 1.2002e-09)
(0.188902 3.20049e-08 -2.64577e-09)
(0.188903 -1.32467e-08 1.4455e-09)
(0.182411 -2.33446e-08 1.17139e-09)
(0.182413 3.77086e-08 -2.57109e-09)
(0.182415 -1.43881e-08 1.39964e-09)
(0.17489 -2.20017e-08 1.03901e-09)
(0.174892 3.38539e-08 -2.28424e-09)
(0.174894 -1.18796e-08 1.24526e-09)
(0.165777 -1.44352e-08 9.03227e-10)
(0.165779 1.99919e-08 -1.95392e-09)
(0.165781 -5.58269e-09 1.05044e-09)
(0.153994 -7.43733e-09 8.95263e-10)
(0.153996 6.81912e-09 -1.80916e-09)
(0.153998 5.98722e-10 9.13462e-10)
(0.13691 -3.20205e-09 8.36302e-10)
(0.136912 -1.11056e-09 -1.50088e-09)
(0.136913 4.30252e-09 6.63851e-10)
(0.0796512 1.92143e-12 5.34162e-10)
(0.0796514 -2.32796e-09 -9.65411e-10)
(0.0796524 2.32698e-09 4.31043e-10)
(0.0887963 -9.9499e-12 8.21707e-10)
(0.0887966 2.61837e-09 -1.5624e-09)
(0.0887976 -2.59465e-09 7.41471e-10)
(0.156967 3.30909e-09 1.3274e-09)
(0.156968 1.66123e-09 -2.39054e-09)
(0.15697 -5.06518e-09 1.07514e-09)
(0.176224 8.28947e-09 1.42174e-09)
(0.176226 -7.28694e-09 -2.81032e-09)
(0.176228 -1.17595e-09 1.39344e-09)
(0.189015 1.54959e-08 1.44867e-09)
(0.189017 -2.10575e-08 -3.05561e-09)
(0.189019 5.35075e-09 1.60864e-09)
(0.198846 2.33265e-08 1.64587e-09)
(0.198848 -3.56381e-08 -3.54017e-09)
(0.19885 1.20985e-08 1.89395e-09)
(0.206941 2.49815e-08 1.87797e-09)
(0.206943 -4.0031e-08 -4.01493e-09)
(0.206945 1.48476e-08 2.13553e-09)
(0.213913 2e-08 1.94574e-09)
(0.213915 -3.41177e-08 -4.1535e-09)
(0.213916 1.39436e-08 2.20658e-09)
(0.220097 1.03758e-08 1.84328e-09)
(0.220099 -2.0687e-08 -3.91352e-09)
(0.2201 1.01512e-08 2.07024e-09)
(0.225677 3.60535e-10 1.63933e-09)
(0.225678 -7.1628e-09 -3.40839e-09)
(0.22568 6.65122e-09 1.76869e-09)
(0.230727 -7.50084e-09 1.45475e-09)
(0.230728 3.28579e-09 -2.84709e-09)
(0.230729 4.07616e-09 1.39184e-09)
(0.235223 -1.19726e-08 1.36364e-09)
(0.235224 9.89999e-09 -2.30494e-09)
(0.235225 1.95314e-09 9.40777e-10)
(0.239061 -1.28485e-08 1.46621e-09)
(0.239062 1.20849e-08 -1.7676e-09)
(0.239063 6.68427e-10 3.00776e-10)
(0.242083 -1.24591e-08 1.56402e-09)
(0.242083 1.16731e-08 -1.26917e-09)
(0.242085 7.20133e-10 -2.95178e-10)
(0.244198 -8.76298e-09 1.62248e-09)
(0.244197 7.65354e-09 -7.6663e-10)
(0.244199 1.04273e-09 -8.55832e-10)
(0.245362 -2.66591e-09 1.60692e-09)
(0.245361 2.16569e-09 -3.90123e-10)
(0.245363 4.34032e-10 -1.2168e-09)
(0.245362 2.57635e-09 1.60846e-09)
(0.245361 -2.23488e-09 -3.93189e-10)
(0.245363 -4.07932e-10 -1.21527e-09)
(0.244198 8.53638e-09 1.6214e-09)
(0.244197 -7.64245e-09 -7.64093e-10)
(0.244199 -9.61146e-10 -8.57282e-10)
(0.242083 1.22119e-08 1.56354e-09)
(0.242083 -1.16609e-08 -1.26446e-09)
(0.242085 -6.20166e-10 -2.99305e-10)
(0.239061 1.26309e-08 1.46446e-09)
(0.239062 -1.20916e-08 -1.75848e-09)
(0.239063 -5.88114e-10 2.9366e-10)
(0.235223 1.17761e-08 1.35949e-09)
(0.235224 -9.95612e-09 -2.29107e-09)
(0.235225 -1.85548e-09 9.31245e-10)
(0.230727 7.33024e-09 1.45035e-09)
(0.230728 -3.3363e-09 -2.83401e-09)
(0.23073 -4.02383e-09 1.38357e-09)
(0.225677 -5.95773e-10 1.63213e-09)
(0.225679 7.28937e-09 -3.3972e-09)
(0.22568 -6.72225e-09 1.76495e-09)
(0.220096 -1.06904e-08 1.84129e-09)
(0.220097 2.08769e-08 -3.90562e-09)
(0.220099 -1.02132e-08 2.06428e-09)
(0.213908 -2.05477e-08 1.93892e-09)
(0.21391 3.45436e-08 -4.14852e-09)
(0.213912 -1.40253e-08 2.20955e-09)
(0.206933 -2.55182e-08 1.88016e-09)
(0.206935 4.06292e-08 -4.00998e-09)
(0.206937 -1.5138e-08 2.12979e-09)
(0.198837 -2.40079e-08 1.64684e-09)
(0.198839 3.63186e-08 -3.52554e-09)
(0.198841 -1.23414e-08 1.87878e-09)
(0.189006 -1.57359e-08 1.42583e-09)
(0.189008 2.12545e-08 -3.00717e-09)
(0.18901 -5.54774e-09 1.58093e-09)
(0.176218 -8.05745e-09 1.41285e-09)
(0.17622 6.98795e-09 -2.78969e-09)
(0.176222 1.04746e-09 1.37609e-09)
(0.156964 -3.26952e-09 1.33608e-09)
(0.156965 -1.74211e-09 -2.38592e-09)
(0.156967 4.99971e-09 1.04861e-09)
(0.0887941 6.87328e-11 8.29269e-10)
(0.0887944 -2.62553e-09 -1.55808e-09)
(0.0887954 2.55757e-09 7.2835e-10)
(0.0978833 -9.64007e-11 1.16916e-09)
(0.0978836 2.92115e-09 -2.28093e-09)
(0.0978847 -2.81557e-09 1.11386e-09)
(0.170455 3.24794e-09 1.88298e-09)
(0.170456 2.25331e-09 -3.36174e-09)
(0.170458 -5.60049e-09 1.49617e-09)
(0.191751 8.5796e-09 2.02247e-09)
(0.191753 -7.11933e-09 -3.91685e-09)
(0.191755 -1.64403e-09 1.902e-09)
(0.205457 1.61585e-08 2.07779e-09)
(0.205459 -2.14126e-08 -4.28772e-09)
(0.205461 5.02973e-09 2.21253e-09)
(0.215908 2.43717e-08 2.37193e-09)
(0.21591 -3.66358e-08 -4.98612e-09)
(0.215912 1.20367e-08 2.61374e-09)
(0.224489 2.61618e-08 2.72442e-09)
(0.224491 -4.13789e-08 -5.69496e-09)
(0.224493 1.50019e-08 2.96855e-09)
(0.231869 2.09739e-08 2.8341e-09)
(0.231871 -3.53583e-08 -5.91361e-09)
(0.231872 1.41994e-08 3.07781e-09)
(0.238407 1.08874e-08 2.68823e-09)
(0.238409 -2.1446e-08 -5.57877e-09)
(0.23841 1.03879e-08 2.89036e-09)
(0.244301 3.72509e-10 2.38982e-09)
(0.244303 -7.38302e-09 -4.85636e-09)
(0.244304 6.8488e-09 2.466e-09)
(0.24963 -7.88407e-09 2.11708e-09)
(0.249631 3.49058e-09 -4.06238e-09)
(0.249632 4.24484e-09 1.94456e-09)
(0.254369 -1.25799e-08 1.97582e-09)
(0.25437 1.03824e-08 -3.31339e-09)
(0.254371 2.06969e-09 1.33675e-09)
(0.258411 -1.35119e-08 2.09721e-09)
(0.258411 1.26957e-08 -2.58806e-09)
(0.258413 7.14329e-10 4.89909e-10)
(0.261589 -1.28953e-08 2.21059e-09)
(0.261589 1.20867e-08 -1.92115e-09)
(0.261591 7.38071e-10 -2.8993e-10)
(0.263811 -9.1047e-09 2.27869e-09)
(0.26381 7.93312e-09 -1.25465e-09)
(0.263812 1.10023e-09 -1.02404e-09)
(0.265033 -2.78265e-09 2.24353e-09)
(0.265033 2.25592e-09 -7.42386e-10)
(0.265034 4.55945e-10 -1.50117e-09)
(0.265033 2.68786e-09 2.24576e-09)
(0.265033 -2.33001e-09 -7.46934e-10)
(0.265034 -4.28887e-10 -1.49883e-09)
(0.263811 8.86943e-09 2.27708e-09)
(0.26381 -7.92689e-09 -1.25117e-09)
(0.263812 -1.0144e-09 -1.02588e-09)
(0.261589 1.26399e-08 2.20981e-09)
(0.261589 -1.20809e-08 -1.91487e-09)
(0.261591 -6.32953e-10 -2.95269e-10)
(0.25841 1.32844e-08 2.09448e-09)
(0.258411 -1.27075e-08 -2.57541e-09)
(0.258412 -6.2928e-10 4.80377e-10)
(0.254369 1.23747e-08 1.96975e-09)
(0.25437 -1.04444e-08 -3.29401e-09)
(0.254371 -1.96832e-09 1.32382e-09)
(0.24963 7.70417e-09 2.11054e-09)
(0.249631 -3.54623e-09 -4.04441e-09)
(0.249632 -4.18999e-09 1.93377e-09)
(0.244301 -6.21108e-10 2.38016e-09)
(0.244303 7.51383e-09 -4.84094e-09)
(0.244304 -6.9235e-09 2.46066e-09)
(0.238406 -1.12194e-08 2.68565e-09)
(0.238407 2.16446e-08 -5.56856e-09)
(0.238409 -1.04538e-08 2.8829e-09)
(0.231864 -2.1549e-08 2.82508e-09)
(0.231866 3.58007e-08 -5.90763e-09)
(0.231867 -1.42831e-08 3.08255e-09)
(0.224481 -2.67268e-08 2.72807e-09)
(0.224483 4.20005e-08 -5.68908e-09)
(0.224485 -1.53027e-08 2.96103e-09)
(0.215898 -2.50802e-08 2.3707e-09)
(0.2159 3.73381e-08 -4.96411e-09)
(0.215902 -1.22908e-08 2.59356e-09)
(0.205448 -1.64052e-08 2.04377e-09)
(0.20545 2.16134e-08 -4.21845e-09)
(0.205452 -5.23938e-09 2.17412e-09)
(0.191744 -8.34279e-09 2.00777e-09)
(0.191746 6.81767e-09 -3.88683e-09)
(0.191748 1.50141e-09 1.87795e-09)
(0.170451 -3.19414e-09 1.89666e-09)
(0.170452 -2.33418e-09 -3.35666e-09)
(0.170454 5.51498e-09 1.45815e-09)
(0.097881 1.56879e-10 1.1806e-09)
(0.0978813 -2.92884e-09 -2.27505e-09)
(0.0978823 2.77245e-09 1.09366e-09)
(0.107042 -2.03466e-10 1.58553e-09)
(0.107043 3.22806e-09 -3.13886e-09)
(0.107044 -3.02243e-09 1.55881e-09)
(0.180502 3.12801e-09 2.49433e-09)
(0.180503 2.80576e-09 -4.40505e-09)
(0.180505 -6.03628e-09 1.93411e-09)
(0.203676 8.68881e-09 2.69712e-09)
(0.203678 -6.75524e-09 -5.12476e-09)
(0.20368 -2.12398e-09 2.43858e-09)
(0.218265 1.648e-08 2.79684e-09)
(0.218267 -2.12588e-08 -5.66957e-09)
(0.218269 4.54515e-09 2.87641e-09)
(0.229281 2.49098e-08 3.20715e-09)
(0.229283 -3.68302e-08 -6.61989e-09)
(0.229285 1.16825e-08 3.41219e-09)
(0.238294 2.68105e-08 3.70031e-09)
(0.238296 -4.18642e-08 -7.59846e-09)
(0.238298 1.48286e-08 3.89548e-09)
(0.24603 2.15259e-08 3.86059e-09)
(0.246032 -3.58807e-08 -7.91438e-09)
(0.246034 1.41611e-08 4.05144e-09)
(0.252876 1.11753e-08 3.6662e-09)
(0.252877 -2.17671e-08 -7.47602e-09)
(0.252879 1.04129e-08 3.8094e-09)
(0.25904 3.56506e-10 3.2629e-09)
(0.259041 -7.43053e-09 -6.51191e-09)
(0.259043 6.90423e-09 3.24823e-09)
(0.264607 -8.14453e-09 2.89345e-09)
(0.264608 3.66916e-09 -5.46425e-09)
(0.26461 4.31946e-09 2.56975e-09)
(0.269554 -1.29798e-08 2.69776e-09)
(0.269555 1.07139e-08 -4.49618e-09)
(0.269556 2.13198e-09 1.79725e-09)
(0.273768 -1.39519e-08 2.8325e-09)
(0.273769 1.31195e-08 -3.58103e-09)
(0.273771 7.25536e-10 7.472e-10)
(0.27708 -1.31747e-08 2.96262e-09)
(0.27708 1.23939e-08 -2.75541e-09)
(0.277082 7.06573e-10 -2.07883e-10)
(0.279391 -9.25237e-09 3.02906e-09)
(0.279391 8.06432e-09 -1.92229e-09)
(0.279393 1.11312e-09 -1.10676e-09)
(0.280663 -2.84057e-09 2.96524e-09)
(0.280662 2.30423e-09 -1.26874e-09)
(0.280664 4.62047e-10 -1.69653e-09)
(0.280663 2.74256e-09 2.96826e-09)
(0.280662 -2.38292e-09 -1.27507e-09)
(0.280664 -4.34191e-10 -1.6932e-09)
(0.279391 9.01293e-09 3.02675e-09)
(0.279391 -8.06411e-09 -1.91777e-09)
(0.279393 -1.02419e-09 -1.10894e-09)
(0.27708 1.29146e-08 2.96146e-09)
(0.27708 -1.23945e-08 -2.74756e-09)
(0.277081 -5.97561e-10 -2.14339e-10)
(0.273768 1.37181e-08 2.82856e-09)
(0.273769 -1.31364e-08 -3.56453e-09)
(0.27377 -6.36832e-10 7.35185e-10)
(0.269554 1.2769e-08 2.68939e-09)
(0.269555 -1.07807e-08 -4.47072e-09)
(0.269556 -2.02834e-09 1.78073e-09)
(0.264607 7.95839e-09 2.88441e-09)
(0.264608 -3.729e-09 -5.44083e-09)
(0.26461 -4.26318e-09 2.55626e-09)
(0.25904 -6.14393e-10 3.25052e-09)
(0.259041 7.56276e-09 -6.4919e-09)
(0.259043 -6.9808e-09 3.24124e-09)
(0.252874 -1.15197e-08 3.66297e-09)
(0.252875 2.19704e-08 -7.46339e-09)
(0.252877 -1.04809e-08 3.80044e-09)
(0.246025 -2.21188e-08 3.84914e-09)
(0.246027 3.63319e-08 -7.90739e-09)
(0.246028 -1.42462e-08 4.05827e-09)
(0.238285 -2.73929e-08 3.70567e-09)
(0.238287 4.24976e-08 -7.59172e-09)
(0.238289 -1.51353e-08 3.88612e-09)
(0.229271 -2.56315e-08 3.20299e-09)
(0.229273 3.7541e-08 -6.58935e-09)
(0.229275 -1.1944e-08 3.38656e-09)
(0.218255 -1.67274e-08 2.74996e-09)
(0.218257 2.14588e-08 -5.57714e-09)
(0.218259 -4.76406e-09 2.82641e-09)
(0.203669 -8.45131e-09 2.67529e-09)
(0.203671 6.45708e-09 -5.08442e-09)
(0.203673 1.96933e-09 2.40758e-09)
(0.180498 -3.06041e-09 2.51373e-09)
(0.180499 -2.88519e-09 -4.3999e-09)
(0.180501 5.93107e-09 1.88359e-09)
(0.10704 2.64111e-10 1.60018e-09)
(0.10704 -3.23648e-09 -3.13101e-09)
(0.107041 2.97244e-09 1.5296e-09)
(0.116326 -3.26773e-10 2.08903e-09)
(0.116326 3.53299e-09 -4.17227e-09)
(0.116328 -3.21322e-09 2.09224e-09)
(0.188545 2.98473e-09 3.15964e-09)
(0.188546 3.31177e-09 -5.51379e-09)
(0.188548 -6.40307e-09 2.38407e-09)
(0.213381 8.6879e-09 3.43689e-09)
(0.213383 -6.26312e-09 -6.40907e-09)
(0.213385 -2.61998e-09 2.98702e-09)
(0.228845 1.65822e-08 3.60093e-09)
(0.228847 -2.07587e-08 -7.18556e-09)
(0.22885 3.93613e-09 3.5896e-09)
(0.240402 2.51148e-08 4.14741e-09)
(0.240404 -3.64802e-08 -8.43105e-09)
(0.240407 1.11195e-08 4.28296e-09)
(0.249814 2.71068e-08 4.80202e-09)
(0.249816 -4.17678e-08 -9.71646e-09)
(0.249818 1.4428e-08 4.91096e-09)
(0.257873 2.17954e-08 5.02241e-09)
(0.257875 -3.59178e-08 -1.0146e-08)
(0.257877 1.39213e-08 5.12048e-09)
(0.264994 1.13094e-08 4.77526e-09)
(0.264995 -2.17875e-08 -9.59744e-09)
(0.264997 1.02923e-08 4.82146e-09)
(0.271398 3.14407e-10 4.25708e-09)
(0.271399 -7.35062e-09 -8.37257e-09)
(0.271401 6.85992e-09 4.11442e-09)
(0.277176 -8.33221e-09 3.78248e-09)
(0.277177 3.84514e-09 -7.05488e-09)
(0.277178 4.32544e-09 3.27097e-09)
(0.282305 -1.32511e-08 3.5328e-09)
(0.282306 1.09604e-08 -5.86128e-09)
(0.282307 2.15187e-09 2.32689e-09)
(0.286671 -1.42518e-08 3.6763e-09)
(0.286672 1.34312e-08 -4.762e-09)
(0.286673 7.09841e-10 1.08392e-09)
(0.290098 -1.33555e-08 3.81925e-09)
(0.290098 1.26395e-08 -3.78951e-09)
(0.2901 6.38803e-10 -3.06338e-11)
(0.292488 -9.25911e-09 3.87052e-09)
(0.292488 8.09385e-09 -2.79126e-09)
(0.29249 1.08746e-09 -1.07924e-09)
(0.293801 -2.8563e-09 3.7826e-09)
(0.293801 2.32428e-09 -2.00522e-09)
(0.293803 4.54843e-10 -1.77741e-09)
(0.293801 2.75647e-09 3.78654e-09)
(0.293801 -2.40771e-09 -2.01362e-09)
(0.293803 -4.26135e-10 -1.77291e-09)
(0.292488 9.01854e-09 3.86736e-09)
(0.292488 -8.10084e-09 -2.78559e-09)
(0.292489 -9.95984e-10 -1.08171e-09)
(0.290098 1.30928e-08 3.81764e-09)
(0.290098 -1.26466e-08 -3.78015e-09)
(0.2901 -5.26618e-10 -3.80838e-11)
(0.28667 1.40139e-08 3.67089e-09)
(0.286671 -1.34531e-08 -4.74135e-09)
(0.286673 -6.18083e-10 1.0694e-09)
(0.282305 1.30364e-08 3.52181e-09)
(0.282306 -1.10314e-08 -5.82925e-09)
(0.282307 -2.04677e-09 2.30666e-09)
(0.277176 8.14173e-09 3.77065e-09)
(0.277177 -3.90855e-09 -7.02544e-09)
(0.277178 -4.26845e-09 3.25456e-09)
(0.271398 -5.79117e-10 4.24166e-09)
(0.271399 7.48228e-09 -8.34769e-09)
(0.271401 -6.93699e-09 4.10584e-09)
(0.264992 -1.16637e-08 4.77134e-09)
(0.264993 2.19928e-08 -9.58235e-09)
(0.264995 -1.03607e-08 4.81104e-09)
(0.257867 -2.23999e-08 5.0085e-09)
(0.257869 3.63732e-08 -1.0138e-08)
(0.257871 -1.40077e-08 5.12953e-09)
(0.249805 -2.76995e-08 4.80929e-09)
(0.249807 4.24056e-08 -9.70895e-09)
(0.249809 -1.4738e-08 4.89976e-09)
(0.240391 -2.58407e-08 4.1399e-09)
(0.240393 3.71913e-08 -8.39085e-09)
(0.240395 -1.13863e-08 4.25119e-09)
(0.228835 -1.68258e-08 3.53959e-09)
(0.228837 2.09546e-08 -7.06787e-09)
(0.228839 -4.16256e-09 3.52726e-09)
(0.213374 -8.45212e-09 3.40678e-09)
(0.213375 5.97203e-09 -6.35778e-09)
(0.213377 2.45428e-09 2.94895e-09)
(0.188541 -2.90465e-09 3.18538e-09)
(0.188542 -3.38928e-09 -5.50892e-09)
(0.188543 6.27834e-09 2.32011e-09)
(0.116323 3.86475e-10 2.10848e-09)
(0.116324 -3.54249e-09 -4.16186e-09)
(0.116325 3.15549e-09 2.05161e-09)
(0.12574 -4.59741e-10 2.69926e-09)
(0.12574 3.82557e-09 -5.416e-09)
(0.125741 -3.38391e-09 2.73045e-09)
(0.195359 2.83843e-09 3.88084e-09)
(0.19536 3.76292e-09 -6.69231e-09)
(0.195361 -6.71331e-09 2.8484e-09)
(0.22159 8.61533e-09 4.23919e-09)
(0.221591 -5.68355e-09 -7.74905e-09)
(0.221593 -3.13076e-09 3.52909e-09)
(0.237929 1.6528e-08 4.48385e-09)
(0.237931 -1.99941e-08 -8.81568e-09)
(0.237933 3.22072e-09 4.33831e-09)
(0.250019 2.50749e-08 5.18818e-09)
(0.250021 -3.57114e-08 -1.04074e-08)
(0.250023 1.03843e-08 5.21845e-09)
(0.259812 2.71405e-08 6.0268e-09)
(0.259814 -4.12253e-08 -1.20401e-08)
(0.259816 1.38449e-08 6.00894e-09)
(0.268174 2.18512e-08 6.31876e-09)
(0.268175 -3.55818e-08 -1.26012e-08)
(0.268177 1.35226e-08 6.27843e-09)
(0.275547 1.13239e-08 6.01517e-09)
(0.275549 -2.15726e-08 -1.19376e-08)
(0.27555 1.00566e-08 5.92136e-09)
(0.28217 2.45975e-10 5.37181e-09)
(0.282172 -7.16331e-09 -1.04366e-08)
(0.282173 6.73561e-09 5.06337e-09)
(0.288139 -8.47336e-09 4.78586e-09)
(0.28814 4.03243e-09 -8.83875e-09)
(0.288142 4.27469e-09 4.05103e-09)
(0.293433 -1.34343e-08 4.48496e-09)
(0.293434 1.11569e-08 -7.41868e-09)
(0.293435 2.13481e-09 2.93162e-09)
(0.297934 -1.44549e-08 4.6347e-09)
(0.297935 1.36681e-08 -6.1472e-09)
(0.297937 6.72781e-10 1.5102e-09)
(0.301465 -1.3468e-08 4.78867e-09)
(0.301465 1.28446e-08 -5.04604e-09)
(0.301467 5.43682e-10 2.56217e-10)
(0.303924 -9.24336e-09 4.83291e-09)
(0.303924 8.13048e-09 -3.90641e-09)
(0.303926 1.03263e-09 -9.26475e-10)
(0.305274 -2.8374e-09 4.70007e-09)
(0.305274 2.32253e-09 -2.97549e-09)
(0.305276 4.35306e-10 -1.7246e-09)
(0.305274 2.73679e-09 4.70503e-09)
(0.305274 -2.41103e-09 -2.98618e-09)
(0.305276 -4.05549e-10 -1.71883e-09)
(0.303924 9.00272e-09 4.82873e-09)
(0.303924 -8.14448e-09 -3.89945e-09)
(0.303926 -9.38935e-10 -9.29183e-10)
(0.301464 1.32041e-08 4.7866e-09)
(0.301465 -1.28581e-08 -5.03527e-09)
(0.301466 -4.28817e-10 2.47916e-10)
(0.297934 1.42143e-08 4.62754e-09)
(0.297935 -1.36951e-08 -6.12211e-09)
(0.297936 -5.78359e-10 1.49319e-09)
(0.293433 1.3217e-08 4.47104e-09)
(0.293434 -1.12316e-08 -7.37964e-09)
(0.293435 -2.02875e-09 2.9076e-09)
(0.288139 8.27985e-09 4.77095e-09)
(0.28814 -4.09896e-09 -8.80276e-09)
(0.288142 -4.21751e-09 4.03151e-09)
(0.28217 -5.15852e-10 5.35309e-09)
(0.282172 7.29285e-09 -1.04066e-08)
(0.282173 -6.81205e-09 5.0533e-09)
(0.275545 -1.16863e-08 6.01054e-09)
(0.275547 2.17777e-08 -1.19201e-08)
(0.275548 -1.01242e-08 5.9096e-09)
(0.268168 -2.24632e-08 6.30167e-09)
(0.268169 3.60382e-08 -1.25922e-08)
(0.268171 -1.36106e-08 6.2906e-09)
(0.259803 -2.77384e-08 6.03619e-09)
(0.259804 4.18624e-08 -1.2032e-08)
(0.259806 -1.4157e-08 5.99595e-09)
(0.250007 -2.57982e-08 5.17666e-09)
(0.250009 3.64169e-08 -1.03565e-08)
(0.250011 -1.06554e-08 5.1801e-09)
(0.237918 -1.67638e-08 4.40638e-09)
(0.23792 2.0183e-08 -8.67078e-09)
(0.237922 -3.45369e-09 4.26307e-09)
(0.221582 -8.38256e-09 4.19912e-09)
(0.221583 5.4017e-09 -7.68634e-09)
(0.221585 2.95435e-09 3.48459e-09)
(0.195354 -2.74709e-09 3.9136e-09)
(0.195354 -3.83914e-09 -6.68833e-09)
(0.195356 6.56968e-09 2.77035e-09)
(0.125737 5.17727e-10 2.72446e-09)
(0.125737 -3.83667e-09 -5.40234e-09)
(0.125738 3.31764e-09 2.67544e-09)
(0.135254 -5.92885e-10 3.43437e-09)
(0.135254 4.09074e-09 -6.90365e-09)
(0.135256 -3.52857e-09 3.48921e-09)
(0.201406 2.70448e-09 4.66147e-09)
(0.201407 4.14597e-09 -7.95152e-09)
(0.201409 -6.96909e-09 3.33442e-09)
(0.228733 8.4966e-09 5.10148e-09)
(0.228734 -5.0489e-09 -9.12722e-09)
(0.228736 -3.64991e-09 4.04986e-09)
(0.245937 1.63555e-08 5.44377e-09)
(0.245939 -1.90146e-08 -1.05382e-08)
(0.245941 2.40982e-09 5.10272e-09)
(0.258564 2.48406e-08 6.32973e-09)
(0.258565 -3.45914e-08 -1.25364e-08)
(0.258568 9.49355e-09 6.20584e-09)
(0.268732 2.69614e-08 7.37774e-09)
(0.268734 -4.03068e-08 -1.45624e-08)
(0.268736 1.30996e-08 7.17932e-09)
(0.277383 2.17304e-08 7.75423e-09)
(0.277385 -3.49298e-08 -1.52755e-08)
(0.277387 1.29848e-08 7.51632e-09)
(0.284996 1.12359e-08 7.39102e-09)
(0.284998 -2.11543e-08 -1.44937e-08)
(0.284999 9.72028e-09 7.10118e-09)
(0.291823 1.49627e-10 6.61009e-09)
(0.291824 -6.87666e-09 -1.27032e-08)
(0.291826 6.54069e-09 6.09129e-09)
(0.297969 -8.58363e-09 5.90482e-09)
(0.29797 4.24079e-09 -1.08178e-08)
(0.297971 4.17286e-09 4.91061e-09)
(0.303413 -1.35532e-08 5.55697e-09)
(0.303414 1.13243e-08 -9.17673e-09)
(0.303415 2.08319e-09 3.61709e-09)
(0.308039 -1.45858e-08 5.71365e-09)
(0.30804 1.38503e-08 -7.75094e-09)
(0.308041 6.19002e-10 2.03439e-09)
(0.311664 -1.3529e-08 5.88312e-09)
(0.311664 1.30193e-08 -6.5457e-09)
(0.311666 4.28068e-10 6.61121e-10)
(0.314186 -9.21086e-09 5.92321e-09)
(0.314187 8.17184e-09 -5.28569e-09)
(0.314188 9.56707e-10 -6.37498e-10)
(0.315569 -2.81667e-09 5.75536e-09)
(0.31557 2.32907e-09 -4.23002e-09)
(0.315571 4.05966e-10 -1.52536e-09)
(0.315569 2.71602e-09 5.7615e-09)
(0.31557 -2.42283e-09 -4.24311e-09)
(0.315571 -3.75025e-10 -1.51835e-09)
(0.314186 8.97091e-09 5.91783e-09)
(0.314186 -8.19268e-09 -5.2773e-09)
(0.314188 -8.61053e-10 -6.40422e-10)
(0.311663 1.32652e-08 5.8806e-09)
(0.311664 -1.30391e-08 -6.53368e-09)
(0.311665 -3.10919e-10 6.52125e-10)
(0.308038 1.43436e-08 5.7045e-09)
(0.308039 -1.38822e-08 -7.72111e-09)
(0.308041 -5.22216e-10 2.01487e-09)
(0.303413 1.3334e-08 5.53983e-09)
(0.303414 -1.14023e-08 -9.13031e-09)
(0.303415 -1.97653e-09 3.58924e-09)
(0.297968 8.38803e-09 5.88655e-09)
(0.29797 -4.31005e-09 -1.07748e-08)
(0.297971 -4.11586e-09 4.88783e-09)
(0.291823 -4.23461e-10 6.58782e-09)
(0.291824 7.00287e-09 -1.2668e-08)
(0.291826 -6.61556e-09 6.07987e-09)
(0.284994 -1.16054e-08 7.38565e-09)
(0.284995 2.13576e-08 -1.44739e-08)
(0.284997 -9.78603e-09 7.08832e-09)
(0.277377 -2.23467e-08 7.73254e-09)
(0.277379 3.53847e-08 -1.52658e-08)
(0.27738 -1.30746e-08 7.53334e-09)
(0.268722 -2.75604e-08 7.38939e-09)
(0.268724 4.09391e-08 -1.4554e-08)
(0.268725 -1.34128e-08 7.16471e-09)
(0.258551 -2.55558e-08 6.3135e-09)
(0.258553 3.52864e-08 -1.24738e-08)
(0.258555 -9.76817e-09 6.16058e-09)
(0.245926 -1.65795e-08 5.34849e-09)
(0.245927 1.91932e-08 -1.03642e-08)
(0.245929 -2.64875e-09 5.01407e-09)
(0.228724 -8.26753e-09 5.05212e-09)
(0.228726 4.77749e-09 -9.05288e-09)
(0.228728 3.46295e-09 3.9975e-09)
(0.201401 -2.60266e-09 4.70214e-09)
(0.201401 -4.22175e-09 -7.94894e-09)
(0.201403 6.80692e-09 3.24136e-09)
(0.135251 6.48698e-10 3.46649e-09)
(0.135251 -4.10412e-09 -6.88599e-09)
(0.135253 3.45317e-09 3.41622e-09)
(0.144813 -7.13467e-10 4.31286e-09)
(0.144813 4.30825e-09 -8.66899e-09)
(0.144815 -3.63924e-09 4.38418e-09)
(0.206987 2.59748e-09 5.50577e-09)
(0.206987 4.44179e-09 -9.30614e-09)
(0.206989 -7.16565e-09 3.85255e-09)
(0.235097 8.35229e-09 6.01949e-09)
(0.235098 -4.39168e-09 -1.05291e-08)
(0.2351 -4.16571e-09 4.539e-09)
(0.253133 1.60923e-08 6.47808e-09)