/*--------------------------------*- C++ -*----------------------------------*\
  =========                 |
  \\      /  F ield         | OpenFOAM: The Open Source CFD Toolbox
   \\    /   O peration     | Website:  https://openfoam.org
    \\  /    A nd           | Version:  6
     \\/     M anipulation  |
\*---------------------------------------------------------------------------*/
FoamFile
{
    version     2.0;
    format      ascii;
    class       volScalarField;
    location    "19";
    object      yPlus;
}
// * * * * * * * * * * * * * * * * * * * * * * * * * * * * * * * * * * * * * //

dimensions      [0 0 0 0 0 0 0];

internalField   uniform 0;

boundaryField
{
    inlet
    {
        type            calculated;
        value           uniform 0;
    }
    outlet
    {
        type            calculated;
        value           uniform 0;
    }
    roughCylinder
    {
        type            calculated;
        value           nonuniform List<scalar> 
5120
(
43.5031
51.3238
57.553
63.6797
68.9685
73.2582
76.6952
79.4732
81.7476
83.6528
85.3084
86.7909
88.1375
89.3823
90.5564
91.69
92.8138
93.9561
95.1404
96.3839
97.6961
99.0792
100.53
102.043
103.605
105.206
106.828
108.45
110.031
111.502
112.714
113.434
42.7911
50.3276
56.3577
62.344
67.5593
71.8138
75.2326
78.0024
80.2766
82.188
83.852
85.3381
86.6763
87.9071
89.063
90.1753
91.2756
92.3929
93.5515
94.7678
96.0512
97.4043
98.8238
100.303
101.83
103.395
104.979
106.563
108.107
109.543
110.723
111.425
42.0055
49.2931
55.1356
60.9821
66.1237
70.3466
73.7538
76.5243
78.8087
80.7362
82.414
83.9053
85.2398
86.4601
87.6
88.6928
89.7712
90.8651
91.9978
93.1871
94.4424
95.7657
97.154
98.5998
100.094
101.622
103.17
104.716
106.222
107.621
108.772
109.454
41.192
48.2455
53.9011
59.6044
64.672
68.867
72.2687
75.0472
77.351
79.3028
81
82.5004
83.8365
85.0474
86.1736
87.2491
88.3074
89.3785
90.4881
91.6522
92.8803
94.175
95.5329
96.9466
98.4061
99.899
101.41
102.918
104.387
105.751
106.871
107.536
40.3354
47.165
52.6312
58.1867
63.1811
67.3558
70.7638
73.5637
75.8982
77.8814
79.602
81.1153
82.4568
83.6661
84.7835
85.8447
86.8854
87.9372
89.0235
90.1632
91.3656
92.6327
93.9613
95.3441
96.7709
98.2298
99.705
101.176
102.609
103.938
105.029
105.675
39.4603
46.07
51.3414
56.7436
61.6655
65.8275
69.2511
72.0796
74.4498
76.4696
78.2192
79.7513
81.1049
82.3172
83.4277
84.4778
85.5036
86.5364
87.6038
88.7219
89.8999
91.1407
92.441
93.7932
95.1879
96.6122
98.0516
99.4874
100.884
102.179
103.24
103.869
38.5422
44.9352
50.0036
55.2429
60.09
64.2468
67.7003
70.5737
72.9936
75.0573
76.8403
78.3961
79.7647
80.9877
82.1016
83.1464
84.1611
85.1805
86.2286
87.3252
88.4806
89.6965
90.9698
92.2931
93.6565
95.0491
96.455
97.855
99.216
100.478
101.51
102.122
37.6009
43.7754
48.6311
53.6975
58.4688
62.6306
66.1275
69.0538
71.5263
73.6397
75.4642
77.0512
78.4457
79.6841
80.8051
81.8479
82.8559
83.8621
84.8966
85.9763
87.1106
88.3032
89.5504
90.8452
92.1776
93.5366
94.9068
96.2729
97.5995
98.8286
99.8313
100.426
36.5901
42.5484
47.1789
52.0561
56.7423
60.9131
64.4695
67.4728
70.0225
72.1998
74.0735
75.701
77.1235
78.3853
79.5228
80.576
81.5828
82.5849
83.6057
84.6678
85.7832
86.9536
88.176
89.4437
90.7466
92.0751
93.4135
94.7445
96.0359
97.233
98.2084
98.7855
35.5442
41.2772
45.6695
50.339
54.9315
59.1212
62.7573
65.8502
68.4789
70.7291
72.6672
74.343
75.8093
77.1017
78.26
79.3229
80.3365
81.3352
82.3496
83.4015
84.5
85.6499
86.8486
88.0889
89.362
90.6562
91.9586
93.2552
94.5138
95.6774
96.6228
97.1835
34.3481
39.8677
44.0104
48.4497
52.9282
57.1324
60.8646
64.0862
66.8455
69.1994
71.2131
72.9563
74.4704
75.8047
76.9945
78.0825
79.1064
80.1122
81.1218
82.1612
83.2452
84.3761
85.5515
86.7658
88.0096
89.2743
90.5445
91.8065
93.0288
94.1624
95.0801
95.6231
33.083
38.3905
42.2654
46.4428
50.7804
55.0017
58.8611
62.2352
65.121
67.592
69.7162
71.5359
73.1196
74.503
75.7323
76.8447
77.8901
78.9012
79.9133
80.9511
82.0232
83.137
84.291
85.4785
86.6916
87.9207
89.1544
90.3815
91.5729
92.6709
93.558
94.0844
31.5423
36.6507
40.238
44.1176
48.2767
52.4922
56.4839
60.0704
63.1987
65.8591
68.1063
70.0424
71.7067
73.1636
74.446
75.6034
76.6719
77.704
78.721
79.751
80.8137
81.912
83.0447
84.2077
85.393
86.5939
87.7933
88.9866
90.1391
91.2088
92.0673
92.5762
29.8894
34.8094
38.095
41.6222
45.5304
49.7118
53.8894
57.7435
61.0824
63.9486
66.4081
68.4749
70.2548
71.7858
73.1339
74.3356
75.4477
76.4977
77.5279
78.568
79.6252
80.7103
81.824
82.9604
84.1129
85.2741
86.4383
87.5938
88.7172
89.7473
90.5735
91.066
27.6653
32.4201
35.3757
38.5002
42.1102
46.2107
50.5119
54.6907
58.5246
61.775
64.4516
66.7399
68.665
70.3313
71.7693
73.0459
74.1964
75.2856
76.3343
77.3718
78.4255
79.4993
80.5937
81.707
82.8331
83.9693
85.0927
86.2152
87.2958
88.2996
89.0944
89.5689
25.1942
29.8603
32.5203
35.1573
38.2416
42.0945
46.6724
51.367
55.5246
59.1837
62.3287
64.8616
66.999
68.7802
70.3267
71.6778
72.9066
74.0322
75.1087
76.1729
77.2298
78.2952
79.3729
80.4585
81.547
82.6346
83.7259
84.8062
85.8577
86.8158
87.5752
88.0324
21.2527
25.918
28.2109
30.2964
32.9208
36.5379
40.9919
46.0973
51.5039
56.0002
59.5555
62.5862
65.0181
67.0768
68.7872
70.2655
71.5531
72.7443
73.8584
74.9256
75.986
77.0449
78.1052
79.1687
80.2325
81.3002
82.3372
83.3858
84.3885
85.323
86.0439
86.4846
16.8143
21.9699
24.2887
25.8915
27.4376
30.0689
34.8072
40.7034
46.0778
51.6837
56.5063
60.0235
62.9069
65.1611
67.066
68.6752
70.1057
71.3627
72.5256
73.6451
74.7211
75.7778
76.8234
77.8558
78.8729
79.8768
80.8862
81.8812
82.8559
83.7307
84.4138
84.8342
5.53276
11.6364
12.6971
12.4812
7.01931
18.4945
14.2427
27.6221
39.0458
45.9901
51.5095
56.4723
60.0277
62.925
65.165
67.0115
68.5316
69.8992
71.131
72.2587
73.3471
74.403
75.4332
76.4437
77.4364
78.4259
79.3607
80.3311
81.2428
82.1031
82.7303
83.135
5.22751
9.53742
10.1437
9.52109
2.04039
17.0772
9.66137
20.6061
16.3624
35.7909
46.3776
52.0898
56.9078
60.1954
62.8478
64.9492
66.7566
68.2464
69.562
70.7877
71.9119
72.974
73.9901
74.9629
75.8939
76.7977
77.7019
78.5922
79.4841
80.2515
80.8387
81.2244
11.7599
16.2318
17.7543
18.2827
18.963
16.7681
12.142
19.8314
10.448
19.3056
32.7137
45.6001
51.6937
56.7536
60.1636
62.7771
64.7283
66.4204
67.8676
69.1055
70.2545
71.3251
72.3288
73.2761
74.1781
75.0672
75.8752
76.7608
77.5546
78.3337
78.8351
79.1913
19.5811
24.0048
25.8416
26.6287
26.3133
25.3527
24.923
17.9117
17.023
16.1551
18.7451
32.8054
46.3912
51.9566
56.4827
59.656
62.2641
64.2049
65.8064
67.2387
68.4644
69.555
70.5415
71.4393
72.2526
73.0264
73.7723
74.5232
75.3219
75.9344
76.3682
76.7419
22.1658
27.134
29.841
31.8359
33.0107
33.195
32.0381
29.7358
24.264
20.8127
24.7948
15.5739
29.7287
45.4152
51.8929
56.411
59.2498
61.6212
63.4963
64.9397
66.2104
67.3277
68.3091
69.1678
69.9345
70.6779
71.3069
72.0955
72.7286
73.4044
73.7389
73.9973
23.0578
28.1461
31.0844
33.4534
35.214
36.3489
36.8185
36.5003
34.9181
30.753
25.2276
25.1823
26.52
32.8106
44.9273
50.6167
55.2695
58.1669
60.3688
62.2434
63.6859
64.8528
65.8031
66.5855
67.2061
67.783
68.2479
68.7951
69.476
69.832
69.9409
70.3875
22.5729
27.8021
30.906
33.5096
35.5713
37.0825
38.0516
38.4878
38.3148
37.0903
33.1964
28.4434
29.6717
26.1394
34.2321
45.3785
49.8412
53.934
56.7469
58.5781
60.1008
61.3345
62.2944
62.9979
63.5155
64.0238
64.3298
65.0111
65.4708
65.9358
66.0623
66.0622
21.1124
26.479
29.6743
32.408
34.6511
36.4019
37.6833
38.5345
38.9844
38.9423
37.8258
33.6144
29.4981
13.2643
14.5556
28.5594
42.6268
47.4425
51.1273
54.0926
56.0157
57.3771
58.2526
58.7985
59.0154
59.2194
59.0736
59.2739
59.7776
59.5927
58.809
59.7771
19.1067
24.5682
27.7869
30.564
32.8909
34.7821
36.2658
37.3984
38.2599
38.9054
39.2178
38.529
34.889
27.6922
28.3579
27.4522
27.4119
39.6908
44.6453
46.9965
49.0991
50.5854
51.5151
51.7992
51.8161
51.9164
51.2721
51.9345
53.3528
52.3712
52.846
51.834
16.8144
22.258
25.3993
28.1183
30.4344
32.3852
34.0136
35.3756
36.5566
37.6438
38.6631
39.4264
39.1849
36.0941
28.7692
25.5758
27.9249
22.8864
32.6769
39.0781
41.8667
43.9322
44.3705
44.3713
42.7498
42.5202
40.899
40.5671
39.8503
38.7564
35.2865
42.8379
14.5161
19.802
22.7629
25.3242
27.538
29.4644
31.1629
32.6969
34.1433
35.5869
37.0699
38.5211
39.6333
39.4985
36.0467
26.5292
25.9377
19.5849
35.3554
20.3758
22.0781
25.6632
28.9495
21.661
28.5042
22.7707
14.9348
12.3286
38.2105
17.2279
22.4027
47.5566
12.4983
17.5039
20.2097
22.5423
24.5866
26.4213
28.1167
29.7399
31.3592
33.0445
34.8515
36.7546
38.5796
39.8987
39.799
36.2533
27.9304
23.8692
26.8433
16.599
28.4728
14.5661
37.6331
24.8944
37.5351
31.5815
37.9068
14.3125
42.0159
20.1996
34.2322
47.4522
10.9394
15.5938
18.0283
20.1153
21.9684
23.6797
25.323
26.9602
28.646
30.432
32.3714
34.4877
36.7121
38.7799
40.1761
40.0277
37.5753
31.2259
27.8624
25.4743
26.8404
24.9841
28.4016
23.2024
34.2401
34.2528
34.7929
29.0209
39.5895
31.8695
34.555
42.6333
9.79113
14.1984
16.4026
18.2831
19.9758
21.576
23.1511
24.7489
26.4081
28.1666
30.0706
32.1685
34.4768
36.8896
39.0687
40.4333
40.5286
38.7176
35.0191
32.1495
29.4201
30.0741
28.9956
32.347
35.2481
35.419
38.843
39.6872
33.9381
39.2276
36.4479
41.3253
9.17862
13.3928
15.435
17.1818
18.7774
20.3076
21.8231
23.3533
24.9214
26.5565
28.301
30.2126
32.3497
34.7211
37.1866
39.3538
40.7232
40.8833
39.7029
39.1608
38.5048
37.134
38.8337
40.9039
42.5061
41.7289
42.7356
43.398
40.7037
42.8028
41.5688
44.996
8.99861
13.1231
15.0938
16.7922
18.3604
19.8677
21.3451
22.8057
24.262
25.7376
27.2711
28.9164
30.7404
32.8056
35.1133
37.4968
39.5768
40.8654
41.1077
41.2709
41.2037
40.6002
41.7482
42.8394
43.7547
42.7915
42.9221
43.4669
42.7604
42.9815
42.7008
45.0018
9.17592
13.2903
15.2636
16.9829
18.5783
20.1007
21.5639
22.9704
24.3284
25.6587
26.9945
28.3808
29.8745
31.544
33.4504
35.5856
37.7814
39.6725
40.8533
41.5777
41.82
41.5824
42.21
42.8243
43.2648
42.4271
42.2976
42.4526
42.498
42.2106
42.2576
43.6764
9.61208
13.7686
15.7933
17.5797
19.2388
20.8044
22.278
23.6566
24.9468
26.1685
27.3515
28.5318
29.7524
31.0675
32.5416
34.2269
36.1069
38.0124
39.6151
40.7781
41.3784
41.4771
41.7818
41.9849
41.948
41.2281
40.9508
40.7395
40.9966
40.6841
40.7593
41.698
10.2507
14.4793
16.5789
18.4527
20.1909
21.8122
23.3111
24.6831
25.9366
27.0924
28.1771
29.2192
30.248
31.3007
32.4263
33.6811
35.1032
36.6595
38.1801
39.4597
40.28
40.6039
40.7492
40.6633
40.2996
39.6494
39.2702
38.8395
39.0913
38.9917
39.0785
39.7633
11.0379
15.3664
17.5531
19.5206
21.3395
23.018
24.5472
25.9252
27.1646
28.2884
29.3217
30.2866
31.2012
32.0869
32.9748
33.907
34.9273
36.0539
37.2314
38.3248
39.1281
39.5177
39.5748
39.3232
38.7956
38.1785
37.7412
37.2516
37.469
37.6362
37.7898
38.3516
11.8831
16.3802
18.6627
20.7238
22.6198
24.3524
25.9132
27.3052
28.5462
29.6623
30.6778
31.61
32.4693
33.2652
34.0139
34.7401
35.4761
36.2493
37.0547
37.8295
38.4362
38.7409
38.7078
38.3625
37.7715
37.1645
36.7057
36.262
36.4741
36.8739
37.1439
37.6632
12.8696
17.4889
19.8653
22.017
23.9859
25.7694
27.3623
28.7735
30.027
31.1518
32.1713
33.0995
33.9416
34.6999
35.3804
35.994
36.5582
37.0922
37.6059
38.0763
38.4278
38.5609
38.411
37.9908
37.3718
36.7623
36.306
35.9513
36.1853
36.7554
37.159
37.6797
13.5817
14.0086
14.5007
14.8977
15.2813
15.5875
15.8542
16.0615
16.2281
16.3461
16.4266
16.468
16.4745
16.4472
16.3903
16.3062
16.1973
16.0685
15.9307
15.8131
15.808
15.9224
16.0601
16.1898
16.3001
16.3857
16.444
16.4728
16.4682
16.4285
16.3498
16.234
16.0698
15.8655
15.602
15.2998
14.9203
14.5278
14.0401
13.617
18.3175
18.7613
19.2738
19.6894
20.0914
20.4193
20.709
20.9413
21.1339
21.2798
21.3885
21.459
21.4942
21.4939
21.4606
21.396
21.3011
21.1799
21.0422
20.9194
20.9143
21.0343
21.1725
21.2952
21.3918
21.4582
21.4932
21.4953
21.4621
21.3934
21.2866
21.143
20.953
20.7238
20.4375
20.1139
19.7163
19.3058
18.7982
18.3589
20.7662
21.2359
21.7788
22.2202
22.6508
23.0092
23.3335
23.6032
23.8363
24.0256
24.1793
24.2963
24.3788
24.4251
24.4355
24.4107
24.351
24.2587
24.1427
24.033
24.0285
24.136
24.2529
24.3471
24.4088
24.4355
24.427
24.3826
24.3021
24.1867
24.0349
23.8478
23.6171
23.3504
23.0295
22.6753
22.2493
21.8131
21.2756
20.8109
22.9747
23.4641
24.0299
24.4911
24.9461
25.3317
25.6879
25.9932
26.2654
26.4976
26.6958
26.8589
26.9885
27.0815
27.1368
27.1537
27.1313
27.0715
26.9832
26.8959
26.8925
26.9782
27.0676
27.1295
27.1541
27.1394
27.0861
26.9949
26.8671
26.7055
26.5091
26.279
26.009
25.7065
25.3534
24.9719
24.5213
24.0655
23.5051
23.0214
24.9812
25.475
26.0486
26.5161
26.9828
27.3835
27.7597
28.0894
28.3895
28.6542
28.8883
29.0892
29.2574
29.3891
29.4822
29.5343
29.5443
29.5138
29.4518
29.3872
29.3849
29.4483
29.5117
29.5446
29.5368
29.487
29.3961
29.2662
29.0996
28.9001
28.6675
28.4045
28.1064
27.7792
27.4059
27.009
26.5466
26.0844
25.5162
25.0284
26.7847
27.2666
27.8339
28.2956
28.7623
29.1679
29.5546
29.9011
30.2238
30.5151
30.7793
31.0124
31.2135
31.3783
31.5036
31.5862
31.6242
31.6188
31.5794
31.533
31.5314
31.5772
31.6183
31.6261
31.5907
31.5105
31.3873
31.2244
31.0249
30.7931
30.5302
30.2403
29.9193
29.5748
29.1906
28.7885
28.3257
27.869
27.3072
26.8314
28.3849
28.8435
29.397
29.8472
30.3094
30.7171
31.1136
31.4765
31.8202
32.1364
32.428
32.6903
32.9211
33.1154
33.2693
33.3785
33.4406
33.4565
33.435
33.4017
33.4006
33.4338
33.4573
33.444
33.3847
33.278
33.1265
32.934
32.7048
32.4439
32.1534
31.8383
31.496
31.1348
30.7403
30.3353
29.8766
29.4312
28.8831
28.4307
29.7972
30.2286
30.7674
31.2074
31.6677
32.0819
32.4901
32.8703
33.2346
33.5746
33.8918
34.1807
34.4382
34.6589
34.8376
34.9698
35.0521
35.0852
35.0772
35.0524
35.0517
35.0768
35.0869
35.0567
34.9774
34.8479
34.6715
34.4529
34.197
33.9094
33.5935
33.2547
32.8915
32.5127
32.1062
31.6944
31.2369
30.8013
30.2675
29.8424
31.0507
31.4563
31.9845
32.4191
32.8824
33.3055
33.7267
34.124
34.5076
34.8693
35.2093
35.5217
35.8025
36.0457
36.2455
36.3967
36.4955
36.5417
36.5432
36.5237
36.5232
36.5433
36.5442
36.5011
36.4055
36.2572
36.0598
35.8187
35.5396
35.2285
34.8899
34.5293
34.1468
33.7508
33.3313
32.9103
32.4498
32.0188
31.4955
31.0959
32.1762
32.5593
33.0806
33.5144
33.9819
34.4146
34.8479
35.2606
35.6613
36.0418
36.4012
36.7335
37.0338
37.2956
37.5127
37.6791
37.7907
37.8467
37.8547
37.8381
37.8377
37.8551
37.8497
37.7971
37.6888
37.5253
37.3108
37.0513
36.7528
36.4221
36.0638
35.6846
35.285
34.8736
34.4419
34.0115
33.5466
33.1162
32.5992
32.2222
33.195
33.5573
34.0743
34.5079
34.9796
35.4207
35.8645
36.2904
36.7056
37.1017
37.4773
37.8258
38.1418
38.4185
38.6492
38.8275
38.9486
39.0119
39.0244
39.0094
39.0091
39.025
39.0153
38.9555
38.8377
38.6625
38.4346
38.1602
37.8461
37.4992
37.1251
36.7302
36.3164
35.8919
35.4497
35.0106
34.5416
34.1116
33.599
33.243
34.119
34.4593
34.971
35.4037
35.8788
36.327
36.7797
37.2167
37.6437
38.0527
38.4414
38.8028
39.1314
39.4198
39.6611
39.8487
39.9776
40.0467
40.0632
40.0502
40.0499
40.064
40.0504
39.9846
39.8592
39.6749
39.4364
39.1504
38.8238
38.4641
38.077
37.6694
37.2437
36.8084
36.3574
35.9115
35.4392
35.0103
34.5032
34.1694
34.9497
35.2655
35.77
36.201
36.6783
37.1326
37.5928
38.0392
38.4762
38.8958
39.295
39.6669
40.0054
40.3031
40.5528
40.7479
40.8834
40.9583
40.9797
40.9703
40.9701
40.9807
40.9621
40.8906
40.7585
40.5667
40.3198
40.0246
39.6883
39.3181
38.9206
38.5025
38.0671
37.6225
37.1643
36.7126
36.2383
35.8115
35.3117
35.003
35.6859
35.9731
36.4678
36.8959
37.3749
37.8345
38.3017
38.7563
39.2021
39.6307
40.0388
40.4192
40.7657
41.0707
41.3272
41.5286
41.6702
41.7512
41.779
41.7751
41.7751
41.7803
41.7551
41.6773
41.5391
41.3409
41.0872
40.7847
40.4404
40.062
39.6557
39.2288
38.7849
38.3322
37.8674
37.4106
36.935
36.5113
36.022
35.7424
36.3272
36.5789
37.0602
37.4842
37.9642
38.4292
38.9031
39.3657
39.8197
40.2565
40.6722
41.06
41.4131
41.7243
41.9865
42.1935
42.3411
42.4289
42.4646
42.4675
42.4676
42.4661
42.4329
42.3481
42.2037
41.9997
41.7403
41.4316
41.0807
40.6951
40.2813
39.8464
39.3945
38.9342
38.4629
38.0013
37.525
37.1061
36.631
36.3877
36.8741
37.0789
37.5421
37.9602
38.4408
38.9113
39.3921
39.863
40.3251
40.7699
41.193
41.5873
41.9463
42.2629
42.5303
42.7426
42.8962
42.9913
43.0354
43.0453
43.0457
43.0371
42.9952
42.9029
42.7522
42.5428
42.278
41.9639
41.6072
41.215
40.7941
40.3515
39.8916
39.4233
38.9455
38.4789
38.0029
37.5908
37.1354
36.9406
37.332
37.4709
37.9072
38.3167
38.7968
39.2727
39.761
40.2407
40.7115
41.1644
41.5947
41.9955
42.3602
42.6819
42.9542
43.1717
43.3313
43.4338
43.486
43.5025
43.5028
43.4877
43.4375
43.3375
43.1805
42.9657
42.6959
42.3766
42.0142
41.6156
41.1875
40.737
40.2688
39.7921
39.3073
38.8358
38.3612
37.9597
37.5329
37.4062
37.7087
37.7533
38.1467
38.5437
39.0211
39.5027
39.9987
40.4879
40.9678
41.4294
41.8675
42.2749
42.6454
42.9722
43.2494
43.472
43.6374
43.7468
43.8064
43.8284
43.8288
43.808
43.7501
43.643
43.4798
43.2596
42.9847
42.6602
42.292
41.8869
41.4511
40.992
40.5149
40.0291
39.5371
39.0608
38.59
38.2024
37.8207
37.7913
38.0115
37.9262
38.253
38.6275
39.1007
39.5869
40.091
40.5902
41.0801
41.5511
41.9974
42.412
42.7886
43.1208
43.403
43.6307
43.8018
43.9174
43.9834
44.0099
44.0103
43.9848
43.9202
43.8064
43.6374
43.4116
43.1316
42.8016
42.4271
42.0147
41.5708
41.1025
40.6157
40.1204
39.6209
39.141
38.6762
38.3131
38.0002
38.1032
38.2398
37.9906
38.2235
38.5596
39.0216
39.5118
40.0235
40.5328
41.033
41.514
41.9692
42.3915
42.7747
43.1127
43.4
43.6329
43.8093
43.9305
44.0018
44.0319
44.0322
44.0029
43.9326
43.8129
43.6381
43.4071
43.1215
42.7854
42.4043
41.9841
41.5313
41.0532
40.5564
40.0513
39.5451
39.0625
38.6102
38.2867
38.0686
38.3357
38.357
37.9334
38.0538
38.3357
38.7771
39.2684
39.7859
40.3047
40.8147
41.3055
41.7697
42.2
42.5901
42.934
43.2268
43.4645
43.6459
43.7719
43.8475
43.8803
43.8805
43.8481
43.7732
43.6483
43.4683
43.2319
42.9407
42.5984
42.2102
41.7819
41.3201
40.8322
40.3257
39.8115
39.2998
38.8168
38.3856
38.1163
38.0106
38.453
38.3328
37.7385
37.7398
37.9565
38.3669
38.8526
39.3764
39.9031
40.4223
40.922
41.3944
41.8321
42.2286
42.5781
42.8757
43.118
43.3034
43.4331
43.5119
43.5467
43.5467
43.512
43.4336
43.3045
43.12
42.8789
42.5824
42.2343
41.8393
41.4035
40.9333
40.4364
39.9207
39.3985
38.8808
38.4028
38.0008
37.7931
37.7989
38.3972
38.1045
37.3797
37.2824
37.4369
37.8137
38.2881
38.8131
39.3453
39.8706
40.3766
40.8551
41.2983
41.6996
42.0532
42.3544
42.5995
42.7875
42.9195
43
43.0357
43.0356
42.9996
42.9192
42.7875
42.6001
42.3556
42.0554
41.7028
41.3027
40.8611
40.3847
39.8813
39.3592
38.8316
38.3117
37.8429
37.4706
37.3176
37.41
38.1198
37.6508
36.8536
36.697
36.8073
37.1559
37.6163
38.1381
38.673
39.2006
39.7093
40.1899
40.6351
41.038
41.3928
41.6946
41.9403
42.1282
42.26
42.3401
42.3756
42.3752
42.3392
42.2588
42.127
41.9391
41.6939
41.3924
41.0383
40.6361
40.192
39.7126
39.2059
38.6808
38.1494
37.6316
37.1748
36.8279
36.715
36.8598
37.6315
37.0257
36.2196
36.0494
36.1393
36.4699
36.9169
37.4309
37.9622
38.4863
38.9919
39.4697
39.9121
40.3121
40.6638
40.9626
41.2048
41.3893
41.5174
41.5942
41.6277
41.6273
41.5931
41.5158
41.3875
41.2031
40.9609
40.6625
40.311
39.9112
39.4693
38.9921
38.4873
37.9645
37.4351
36.9233
36.4781
36.1474
36.0544
36.2144
36.9997
36.3129
35.5629
35.4248
35.5238
35.8526
36.292
36.7973
37.3201
37.8357
38.3329
38.8022
39.2362
39.6278
39.9715
40.2621
40.4962
40.6724
40.7924
40.862
40.8907
40.8901
40.8603
40.7901
40.6697
40.493
40.2586
39.9675
39.6233
39.2308
38.7959
38.3256
37.8277
37.3119
36.7899
36.287
35.8524
35.5324
35.4484
35.6093
36.3931
35.9702
35.2179
35.0736
35.1554
35.4642
35.8818
36.3658
36.869
37.3679
37.8499
38.3051
38.7257
39.1045
39.4356
39.714
39.936
40.1
40.2077
40.2657
40.2867
40.2864
40.2651
40.2072
40.0999
39.9363
39.7146
39.4364
39.105
38.7254
38.3036
37.8465
37.362
36.8599
36.3527
35.8642
35.4419
35.1292
35.0456
35.1931
35.9572
35.8104
35.111
34.995
35.0843
35.3867
35.7882
36.2506
36.7298
37.2068
37.668
38.1033
38.5047
38.8652
39.1786
39.4399
39.6453
39.7929
39.8838
39.9252
39.9337
39.9331
39.9242
39.8832
39.7931
39.6462
39.4412
39.1798
38.8657
38.5038
38.1
37.6611
37.195
36.7114
36.2232
35.7496
35.3348
35.0169
34.9101
35.0096
35.6959
36.2262
35.5268
35.4024
35.4638
35.7323
36.0942
36.5157
36.9564
37.4003
37.8316
38.2399
38.6163
38.9536
39.2455
39.4869
39.6736
39.8032
39.8761
39.8988
39.8914
39.8907
39.8979
39.876
39.804
39.675
39.4881
39.2455
38.951
38.6095
38.2269
37.8099
37.367
36.9076
36.446
35.9976
35.603
35.2986
35.1956
35.2881
35.9563
36.6838
36.0193
35.919
35.9925
36.2597
36.609
37.0106
37.4309
37.853
38.2624
38.6488
39.0038
39.3205
39.5931
39.8163
39.9863
40.1004
40.1584
40.1662
40.1452
40.1456
40.1689
40.1648
40.1106
40.0003
39.8336
39.6131
39.3429
39.0278
38.6736
38.2873
37.8774
37.4537
37.0313
36.6262
36.2727
35.9991
35.9152
35.9975
36.6299
37.1284
36.5919
36.566
36.6716
36.9447
37.2826
37.666
38.0639
38.4622
38.8474
39.2102
39.5426
39.8383
40.0915
40.2975
40.4524
40.5535
40.6005
40.5985
40.5698
40.5719
40.6067
40.6157
40.576
40.4817
40.3328
40.1319
39.8825
39.5895
39.2581
38.8949
38.5075
38.1053
37.7018
37.3113
36.9648
36.6837
36.5729
36.6004
37.1512
37.5182
37.0002
36.9922
37.1121
37.3923
37.7311
38.1115
38.5035
38.8939
39.2698
39.6226
39.945
40.2306
40.4745
40.6719
40.8191
40.9139
40.9557
40.95
40.9187
40.9213
40.9606
40.976
40.9442
40.8591
40.7208
40.5317
40.295
40.0156
39.6985
39.3499
38.9773
38.5897
38.2006
37.8239
37.4908
37.2189
37.1115
37.1372
37.6821
43.5005
51.3214
57.5509
63.6779
68.9673
73.2574
76.6949
79.4732
81.7476
83.6529
85.3085
86.7909
88.1375
89.3823
90.5564
91.6901
92.8141
93.9565
95.1408
96.3844
97.6966
99.0799
100.531
102.043
103.606
105.207
106.828
108.449
110.029
111.503
112.714
113.434
42.7928
50.328
56.3572
62.343
67.558
71.8123
75.2311
78.001
80.2753
82.187
83.8511
85.3374
86.676
87.9072
89.0633
90.1756
91.2759
92.3932
93.552
94.7683
96.0517
97.4048
98.8243
100.303
101.831
103.395
104.979
106.563
108.104
109.543
110.724
111.424
42.0003
49.2887
55.1315
60.9786
66.121
70.3446
73.7525
76.5235
78.8083
80.7361
82.4143
83.9058
85.24
86.4601
87.5998
88.6926
89.7713
90.8652
91.9979
93.1873
94.4427
95.7663
97.1545
98.6007
100.094
101.623
103.17
104.715
106.218
107.621
108.772
109.454
41.195
48.2468
53.9014
59.6039
64.671
68.8658
72.2672
75.0457
77.3494
79.3011
80.998
82.4982
83.8347
85.0464
86.1734
87.2491
88.3073
89.3786
90.4882
91.6525
92.8807
94.1754
95.5333
96.947
98.4061
99.899
101.41
102.917
104.384
105.751
106.872
107.535
40.3275
47.1579
52.6246
58.1809
63.1762
67.3518
70.7606
73.5612
75.8962
77.8801
79.6019
81.1163
82.458
83.6666
84.7832
85.8441
86.885
87.9369
89.0234
90.1631
91.3657
92.6331
93.9617
95.3445
96.7719
98.2303
99.7046
101.176
102.604
103.938
105.028
105.674
39.4636
46.0715
51.3419
56.7431
61.6645
65.8263
69.25
72.0786
74.449
76.4683
78.2167
79.7475
81.1009
82.3141
83.4262
84.4772
85.5031
86.5361
87.6036
88.7218
89.9
91.1409
92.4413
93.7936
95.1879
96.6122
98.0512
99.4861
100.879
102.179
103.24
103.867
38.5331
44.9264
49.9951
55.2351
60.0831
64.2407
67.6945
70.568
72.9881
75.0529
76.8382
78.3968
79.7667
80.9894
82.102
83.1457
84.1602
85.1798
86.2281
87.3248
88.4804
89.6966
90.9701
92.2936
93.6574
95.0495
96.4536
97.8541
99.21
100.478
101.51
102.12
37.6007
43.774
48.6286
53.6938
58.4649
62.6274
66.1261
69.0543
71.528
73.641
75.463
77.0466
78.4395
79.6781
80.8012
81.846
82.8548
83.8611
84.8957
85.9758
87.1104
88.3029
89.5503
90.8452
92.1772
93.5362
94.9063
96.2703
97.5931
98.8274
99.8318
100.423
36.5838
42.5416
47.1725
52.0506
56.7376
60.9078
64.4621
67.4626
70.0106
72.1887
74.0665
75.6997
77.1253
78.3881
79.524
80.5753
81.5812
82.5836
83.6046
84.6669
85.7824
86.9532
88.176
89.4439
90.7475
92.0751
93.4113
94.7428
96.0279
97.2326
98.208
98.7827
35.5356
41.2672
45.6572
50.3246
54.9167
59.1093
62.7514
65.8513
68.4852
70.7365
72.6702
74.3387
75.8015
77.0929
78.2531
79.3188
80.3342
81.3331
82.348
83.4003
84.4991
85.6492
86.8479
88.0885
89.3611
90.6562
91.9578
93.2518
94.5046
95.6753
96.6232
97.1798
34.348
39.8681
44.0129
48.4549
52.9344
57.1357
60.8603
64.0725
66.8249
69.1773
71.1975
72.9515
74.4708
75.8072
76.9958
78.0816
79.1039
80.1099
81.1197
82.1594
83.2436
84.3749
85.551
86.7655
88.0096
89.273
90.5415
91.8036
93.0179
94.1611
95.0801
95.6191
33.0625
38.3667
42.2358
46.407
50.7427
54.9699
58.8434
62.2337
65.132
67.6079
69.7249
71.5315
73.1098
74.4919
75.7229
76.8381
77.8861
78.8977
79.9105
80.9486
82.0214
83.1355
84.2893
85.4774
86.6908
87.9215
89.1535
90.3772
91.5591
92.6671
93.5584
94.0795
31.5488
36.6597
40.2532
44.1402
48.3027
52.5116
56.4858
60.0538
63.1684
65.8238
68.0825
70.0367
71.7067
73.1642
74.4453
75.6007
76.6675
77.7001
78.7173
79.748
80.8109
81.9095
83.0433
84.2065
85.3916
86.5902
87.7894
88.982
90.1232
91.2063
92.0681
92.5697
29.8576
34.7724
38.0471
41.5609
45.4624
49.6545
53.8618
57.7412
61.0977
63.9717
66.4158
68.4603
70.2375
71.7718
73.1234
74.3274
75.442
76.492
77.5234
78.5637
79.6217
80.7077
81.821
82.9584
84.1123
85.277
86.437
87.5875
88.6958
89.7428
90.5743
91.0591
27.6731
32.4312
35.396
38.5332
42.1526
46.2433
50.4989
54.6581
58.4836
61.7311
64.4326
66.7517
68.6743
70.3305
71.7626
73.0381
74.1881
75.2792
76.3284
77.3672
78.4213
79.4952
80.5911
81.7043
82.8294
83.961
85.0873
86.2088
87.2722
88.2946
89.0968
89.5595
25.1475
29.8122
32.4642
35.0882
38.1484
41.9923
46.6833
51.392
55.542
59.1967
62.3081
64.8014
66.9529
68.7576
70.3173
71.6697
72.8991
74.0235
75.1011
76.1656
77.2236
78.2906
79.3679
80.455
81.5471
82.6417
83.724
84.7958
85.8247
86.8108
87.5768
88.0225
21.2517
25.9357
28.2436
30.3576
33.1227
36.9025
40.9358
46.0084
51.4761
56.0008
59.5937
62.6737
65.0671
67.0802
68.7666
70.246
71.5379
72.7341
73.8502
74.919
75.9801
77.0386
78.1006
79.1639
80.2251
81.2846
82.3317
83.377
84.3542
85.3116
86.0498
86.4712
16.3687
21.5653
23.9236
25.4473
26.1791
27.7775
34.5575
40.9058
46.0512
51.5631
56.3638
59.8161
62.7795
65.1138
67.0627
68.6721
70.0966
71.3496
72.5121
73.6329
74.7105
75.7698
76.8152
77.8502
78.8742
79.8897
80.8827
81.8653
82.8011
83.7286
84.421
84.8199
4.71722
11.3323
12.872
13.8346
15.4049
15.6027
17.9068
26.779
39.3505
46.4522
51.8138
56.8096
60.184
62.9415
65.1108
66.9632
68.503
69.8828
71.1211
72.2504
73.3393
74.3939
75.4254
76.4353
77.4243
78.4016
79.3587
80.3147
81.1938
82.0779
82.7398
83.1175
11.1373
13.4294
14.052
14.3471
13.5283
7.98013
10.7574
17.2438
17.8528
34.991
45.7893
51.4612
56.5958
60.0941
62.8643
64.9662
66.7484
68.2269
69.5372
70.7664
71.8941
72.9607
73.9776
74.9537
75.8957
76.8141
77.6935
78.5724
79.3863
80.2567
80.866
81.2015
11.6071
15.9308
17.339
17.4445
16.402
15.6711
12.3001
15.3583
22.65
19.2744
34.5148
46.5935
52.0412
56.7682
60.0177
62.6551
64.6698
66.3931
67.858
69.0967
70.2448
71.3116
72.3149
73.2611
74.1613
75.0365
75.8887
76.7199
77.4823
78.2848
78.8429
79.1727
19.7802
24.142
25.9244
26.5295
25.9127
24.5295
23.8995
21.1058
18.5906
7.68408
16.0418
33.0233
45.9601
51.7322
56.5627
59.7407
62.2694
64.1779
65.7574
67.2001
68.4342
69.5323
70.5226
71.4231
72.2518
73.0362
73.7469
74.5034
75.1367
75.9451
76.4621
76.7036
21.8825
26.861
29.5431
31.4869
32.5595
32.5446
31.2615
29.1532
27.6084
19.7674
13.5651
15.8763
28.2766
45.3434
51.4775
56.0942
59.1224
61.5751
63.5026
64.9358
66.2002
67.307
68.2839
69.1404
69.9172
70.6478
71.3816
71.9927
72.6024
73.3266
73.7247
73.9861
22.7913
27.8661
30.7747
33.1014
34.8039
35.8578
36.2083
35.6853
33.7102
29.8063
23.5096
26.1113
30.7426
31.4267
45.5312
51.0416
55.3497
58.1442
60.2416
62.1625
63.6322
64.8093
65.7746
66.554
67.1946
67.7597
68.1664
68.7675
69.1036
69.8192
70.2357
70.3295
22.2639
27.4819
30.5589
33.1257
35.1389
36.5838
37.4595
37.7593
37.3724
35.7323
30.9515
28.244
34.0478
32.8497
32.5729
44.2387
49.5648
53.8536
56.886
58.6192
60.1008
61.3018
62.249
62.9481
63.5184
64.002
64.6464
64.776
65.166
65.8429
65.996
66.0972
20.8481
26.2002
29.3736
32.0804
34.2885
35.9921
37.2077
37.9646
38.2794
38.0467
36.5794
31.7091
29.4304
33.522
32.6752
33.4144
42.973
47.599
50.5973
53.8267
55.9236
57.2705
58.2214
58.7288
58.9798
59.0973
58.8133
59.1997
59.0309
59.4191
59.7504
59.6374
18.9264
24.3749
27.5793
30.3408
32.6472
34.5096
35.9529
37.0281
37.8052
38.3282
38.4724
37.5159
33.5468
28.3474
30.6231
35.3336
30.8993
39.4793
46.2718
47.552
49.1349
50.5774
51.4103
51.8998
51.8478
51.9148
52.8371
52.2208
52.0213
52.5535
52.9056
52.1511
16.7049
22.1446
25.2818
27.9965
30.3056
32.2454
33.8571
35.1949
36.3387
37.3655
38.2862
38.911
38.5214
35.2973
26.3527
30.6043
25.8659
25.1597
28.534
36.8662
41.9926
43.4681
44.7201
44.0104
43.6065
42.2975
40.8944
38.5776
40.005
37.6474
36.7984
36.8567
14.4564
19.7428
22.705
25.2684
27.4836
29.4104
31.1075
32.638
34.0763
35.5028
36.9514
38.3364
39.3574
39.2535
35.9225
25.2948
29.1148
22.1683
23.4508
29.0007
22.9007
24.9368
24.997
28.8581
20.4539
33.6907
22.9625
40.0807
43.4514
18.9933
32.9019
39.5872
12.4672
17.4741
20.182
22.5179
24.5661
26.4054
28.1059
29.7346
31.3577
33.0408
34.8317
36.6968
38.4531
39.6912
39.54
35.9181
27.3685
23.8126
32.2559
36.498
16.8562
29.9445
21.4891
34.5032
25.6919
42.2961
33.6536
43.1674
40.9081
23.0317
37.0647
37.8446
10.9238
15.5791
18.0146
20.1029
21.9579
23.6721
25.3199
26.9634
28.6565
30.448
32.382
34.4699
36.6279
38.5931
39.8623
39.6078
35.9705
28.7971
27.8362
28.5615
22.802
28.1827
26.0632
35.751
29.7752
39.0249
35.5723
41.6669
34.5601
30.7943
34.973
30.4652
9.77777
14.1847
16.3881
18.2672
19.9586
21.5581
23.1343
24.7355
26.3998
28.1633
30.0661
32.1453
34.4
36.7106
38.7489
39.9634
39.6151
37.5304
32.6252
30.4971
32.2981
30.0562
28.6673
29.1795
34.5437
34.8453
36.235
35.7743
34.8121
40.7721
38.8767
41.3268
9.16215
13.374
15.4133
17.156
18.7473
20.2741
21.7878
23.3185
24.8891
26.5271
28.271
30.1694
32.2668
34.5567
36.8944
38.9153
40.061
40.1572
38.2863
38.6818
36.9745
38.0629
38.2358
39.0641
41.4217
41.6709
41.2082
41.9707
39.2691
44.1123
42.0068
44.5491
8.97642
13.0967
15.0627
16.7551
18.3175
19.8203
21.2949
22.7545
24.2114
25.6879
27.2205
28.8582
30.6585
32.6709
34.8864
37.15
39.0906
40.3365
40.2984
40.8455
39.8657
41.0647
41.4059
42.129
42.9302
42.896
42.4662
43.1044
40.7237
44.156
42.2749
44.6015
9.14816
13.2567
15.2241
16.9367
18.5261
20.0441
21.5043
22.9092
24.2665
25.5961
26.9304
28.3118
29.7927
31.4334
33.2854
35.3397
37.4385
39.2828
40.3325
41.184
40.8797
41.7545
42.1837
42.6842
42.9276
42.5547
42.2244
42.3169
40.8628
43.1191
41.4638