/*--------------------------------*- C++ -*----------------------------------*\
  =========                 |
  \\      /  F ield         | OpenFOAM: The Open Source CFD Toolbox
   \\    /   O peration     | Website:  https://openfoam.org
    \\  /    A nd           | Version:  6
     \\/     M anipulation  |
\*---------------------------------------------------------------------------*/
FoamFile
{
    version     2.0;
    format      ascii;
    class       volScalarField;
    location    "26";
    object      yPlus;
}
// * * * * * * * * * * * * * * * * * * * * * * * * * * * * * * * * * * * * * //

dimensions      [0 0 0 0 0 0 0];

internalField   uniform 0;

boundaryField
{
    inlet
    {
        type            calculated;
        value           uniform 0;
    }
    outlet
    {
        type            calculated;
        value           uniform 0;
    }
    roughCylinder
    {
        type            calculated;
        value           nonuniform List<scalar> 
5120
(
42.5946
50.3607
56.5283
62.5357
67.6756
71.8186
75.1258
77.7914
79.9701
81.7979
83.3938
84.824
86.1265
87.3331
88.4737
89.5782
90.6762
91.7945
92.9552
94.1745
95.4607
96.8156
98.2359
99.7144
101.241
102.803
104.383
105.958
107.488
108.903
110.062
110.743
41.9105
49.3939
55.3661
61.2383
66.3078
70.4167
73.7055
76.3628
78.5416
80.3763
81.9791
83.4112
84.7036
85.895
87.0172
88.1004
89.1749
90.2686
91.4042
92.5966
93.8545
95.1799
96.5693
98.0153
99.5077
101.034
102.578
104.116
105.609
106.991
108.121
108.784
41.142
48.3801
54.1693
59.9074
64.9079
68.9874
72.2658
74.9244
77.114
78.9645
80.5801
82.0167
83.304
84.4848
85.5907
86.6543
87.7074
88.7777
89.8877
91.0538
92.2843
93.5806
94.9395
96.3535
97.8128
99.3041
100.812
102.313
103.77
105.117
106.218
106.863
40.3632
47.3665
52.9719
58.5716
63.5016
67.5541
70.8266
73.4932
75.7025
77.5769
79.2096
80.6527
81.9393
83.1094
84.2012
85.2474
86.28
87.3282
88.4154
89.5566
90.7603
92.0285
93.3576
94.7402
96.166
97.6232
99.095
100.56
101.98
103.294
104.366
104.994
39.5204
46.303
51.7233
57.1817
62.044
66.0799
69.3611
72.0509
74.2913
76.1957
77.85
79.3054
80.5977
81.7647
82.8467
83.8782
84.8937
85.9223
86.9866
88.1039
89.2826
90.5238
91.8244
93.1767
94.5709
95.9943
97.4314
98.8607
100.247
101.526
102.571
103.182
38.6857
45.2472
50.476
55.7871
60.5817
64.6059
67.9014
70.6177
72.8926
74.832
76.5128
77.9842
79.285
80.4524
81.5273
82.5475
83.5471
84.5573
85.6029
86.6987
87.8533
89.0689
90.3416
91.6643
93.0269
94.4171
95.8196
97.214
98.5643
99.8119
100.829
101.422
37.777
44.1245
49.1542
54.3093
59.036
63.0601
66.3893
69.1536
71.4787
73.4602
75.1721
76.6662
77.9829
79.1611
80.2372
81.2507
82.2395
83.2356
84.2618
85.3369
86.4693
87.6606
88.9072
90.2015
91.534
92.8926
94.2622
95.6223
96.9402
98.154
99.1449
99.7215
36.8816
43.0104
47.8323
52.8232
57.4814
61.5126
64.8819
67.6935
70.0664
72.0945
73.8453
75.368
76.7056
77.8955
78.978
79.9885
80.9692
81.9522
82.9653
84.023
85.1348
86.303
87.5238
88.7904
90.0928
91.4194
92.755
94.0814
95.3637
96.5478
97.5106
98.071
35.878
41.7915
46.3904
51.1983
55.779
59.8254
63.2596
66.1532
68.6057
70.6965
72.4941
74.0546
75.4212
76.6355
77.7322
78.7519
79.7307
80.7085
81.707
82.7481
83.8412
84.9878
86.1851
87.4251
88.6989
89.9949
91.2994
92.5924
93.8438
94.9947
95.9327
96.4756
34.8827
40.5729
44.9415
49.5553
54.0552
58.1263
61.6356
64.6073
67.128
69.285
71.1417
72.7488
74.1539
75.3939
76.5098
77.5365
78.5202
79.4939
80.4869
81.5166
82.593
83.7195
84.8925
86.1063
87.3508
88.6151
89.8857
91.1446
92.3602
93.4821
94.3918
94.9184
33.6976
39.1717
43.2889
47.6751
52.0665
56.1583
59.7713
62.8816
65.5392
67.8001
69.7326
71.4015
72.8533
74.1348
75.2795
76.3319
77.3256
78.3051
79.291
80.3096
81.3716
82.4793
83.6313
84.8191
86.0355
87.2692
88.508
89.7339
90.9201
92.0081
92.8942
93.4032
32.4853
37.7524
41.6151
45.762
50.0385
54.1637
57.8998
61.1404
63.9021
66.2665
68.2952
70.039
71.5558
72.8833
74.0662
75.136
76.1472
77.1305
78.1207
79.1352
80.1856
81.2767
82.4054
83.5681
84.7553
85.9568
87.1612
88.3523
89.5005
90.5606
91.4171
91.9095
30.9674
36.0293
39.5951
43.4354
47.5278
51.6477
55.5298
59.0086
62.0298
64.5848
66.7452
68.5955
70.1875
71.5804
72.8094
73.9287
74.965
75.969
76.9595
77.9687
79.0092
80.0847
81.1957
82.3333
83.4928
84.6636
85.8363
86.9941
88.1144
89.1386
89.9724
90.4469
29.3629
34.247
37.5334
41.0649
44.9656
49.1003
53.1675
56.8596
60.0403
62.7775
65.1114
67.0893
68.7933
70.2659
71.5645
72.7143
73.7841
74.801
75.8085
76.8234
77.8585
78.9216
80.0102
81.1237
82.2535
83.3908
84.527
85.6485
86.7278
87.7245
88.5262
88.9821
27.1954
31.9036
34.8363
37.9223
41.4683
45.4804
49.7029
53.8229
57.5581
60.6749
63.2584
65.4366
67.27
68.8493
70.2164
71.4512
72.5678
73.6277
74.6457
75.6617
76.6927
77.7437
78.8185
79.9072
81.009
82.1146
83.218
84.3048
85.3568
86.3148
87.0957
87.5337
24.735
29.3723
32.0547
34.7603
37.9634
41.921
46.4245
50.8399
54.7462
58.238
61.1869
63.61
65.6549
67.3792
68.8766
70.1608
71.3338
72.4165
73.4684
74.5042
75.5384
76.582
77.6345
78.6992
79.7698
80.8389
81.9022
82.9493
83.9563
84.8849
85.6278
86.0451
20.9492
25.5881
27.8324
29.826
32.3065
35.6933
40.1236
45.4908
50.9103
55.2033
58.6649
61.514
63.8088
65.7257
67.3261
68.7569
70.0102
71.1721
72.2493
73.294
74.3305
75.3664
76.4094
77.4486
78.4899
79.5247
80.5528
81.5628
82.5413
83.4279
84.1515
84.5504
15.9688
21.1014
23.6851
25.5536
27.1988
30.603
35.9132
41.1224
45.833
51.1546
55.5576
58.9497
61.7052
63.9153
65.7812
67.2953
68.6446
69.8407
70.9756
72.0617
73.1136
74.1481
75.168
76.1821
77.1882
78.1806
79.1618
80.1254
81.0528
81.9043
82.5809
82.9551
6.62224
11.4204
12.3037
11.7181
11.7248
10.2582
14.3661
26.6958
38.9911
45.7452
51.3369
55.8423
59.1556
61.772
63.8049
65.5953
67.0849
68.4273
69.6132
70.7172
71.7798
72.812
73.8275
74.8131
75.7872
76.74
77.6816
78.6033
79.4985
80.3031
80.9649
81.3178
4.53643
5.66136
5.19243
10.534
14.1396
15.2183
10.5107
11.5686
19.8072
36.9336
45.6892
51.4096
55.9066
59.188
61.8376
63.7776
65.449
66.8409
68.1232
69.3073
70.4049
71.4434
72.4337
73.3906
74.3201
75.2187
76.1008
76.9638
77.7987
78.5551
79.1507
79.4739
11.5034
15.711
16.6691
16.0738
14.2393
12.5502
19.545
16.0526
20.4206
20.4751
35.1899
45.6053
51.6123
55.9711
58.9011
61.4532
63.3911
65.0753
66.4608
67.675
68.7963
69.8409
70.8332
71.7531
72.6469
73.4957
74.3302
75.1413
75.9351
76.6387
77.2321
77.5256
19.6146
23.945
25.7019
26.2638
25.5165
23.3019
19.7589
15.5512
20.5651
14.6356
20.8485
35.5745
45.4316
51.3776
56.0565
58.8657
61.2046
62.9609
64.522
65.8974
67.091
68.1539
69.116
70.0003
70.8262
71.5952
72.3437
73.0742
73.7936
74.4162
74.8995
75.1596
21.772
26.6929
29.3526
31.2729
32.35
32.4143
31.1338
27.8994
21.6856
20.0351
5.29472
10.7571
35.0801
45.7019
50.5666
55.1107
58.029
60.4562
62.2385
63.663
64.9055
65.9903
66.9645
67.7866
68.5732
69.2729
69.9643
70.6121
71.2732
71.8362
72.3628
72.5619
22.628
27.6463
30.5308
32.8251
34.4945
35.5194
35.8483
35.2948
33.3073
28.3218
23.507
22.1607
18.7383
34.474
46.3461
50.7736
54.6992
57.1817
59.3343
61.1216
62.5195
63.643
64.5786
65.3513
66.0106
66.5649
67.0953
67.6368
68.1916
68.5904
68.8797
69.068
22.0741
27.2398
30.2971
32.8404
34.8344
36.274
37.1642
37.4993
37.1861
35.751
31.5238
28.1395
16.0411
19.0113
31.0149
43.2207
48.6322
53.0478
55.7089
57.5552
59.0565
60.2386
61.1952
61.8355
62.4384
62.8883
63.417
63.7144
64.2259
64.5193
65.0814
65.0474
20.6397
25.9403
29.0918
31.7718
33.9585
35.6552
36.8888
37.7027
38.1314
38.0965
37.0521
33.1783
28.9309
18.0273
19.1983
33.4265
43.4982
47.0608
50.5761
53.3849
55.2551
56.4794
57.4109
57.9422
58.2769
58.3815
58.3484
58.7111
58.8989
58.8876
58.6306
58.9383
18.7005
24.0967
27.2764
30.0078
32.2876
34.134
35.5779
36.6785
37.5146
38.1381
38.4239
37.6685
33.8559
24.4694
27.168
13.4368
25.9606
39.1378
43.8795
46.4887
48.5597
50.0878
50.8503
51.1213
51.1797
51.1436
52.2865
50.8838
52.054
50.9272
52.9229
51.5787
16.4837
21.8675
24.9773
27.6599
29.9389
31.8553
33.454
34.7934
35.9575
37.024
37.9897
38.6054
38.0107
34.0917
29.3032
9.31428
17.9412
22.626
32.6948
39.4474
42.606
43.2866
44.7543
44.9133
43.8716
42.7067
39.682
41.2228
38.3539
39.3726
36.5822
39.1845
14.2406
19.4728
22.4087
24.9412
27.1257
29.0245
30.6981
32.2117
33.6411
35.0633
36.5007
37.8389
38.7016
38.2769
34.1679
25.486
25.2473
27.1037
17.3329
18.0986
23.2924
27.7757
25.1305
24.6324
20.7572
27.0282
29.3076
29.0348
31.0872
34.6296
26.7127
42.6871
12.2494
17.2049
19.8893
22.1983
24.2188
26.031
27.7056
29.3101
30.9115
32.5739
34.3354
36.1384
37.7678
38.7872
38.2129
35.5607
26.1
30.783
27.9342
10.1838
17.1112
32.6217
21.8367
24.6832
8.3825
39.8632
34.0704
42.4235
35.9252
11.963
33.8914
38.617
10.7134
15.3159
17.7292
19.7941
21.6258
23.3166
24.9403
26.5585
28.2245
29.9855
31.8842
33.9199
35.9907
37.822
38.8983
38.8151
35.6165
30.2346
24.8843
26.8176
26.8763
30.963
19.8885
34.5625
23.5976
34.6992
35.8923
39.6762
35.9927
35.525
27.7694
29.1663
9.58303
13.9386
16.1221
17.9821
19.6551
21.2363
22.7923
24.3703
26.0069
27.7365
29.5985
31.6273
33.8166
36.0414
37.9743
39.178
38.8689
36.5427
34.4318
30.9019
27.3931
26.2703
26.6027
26.8619
34.839
36.0612
35.0158
37.9161
36.4785
39.9928
37.6474
40.6722
8.98849
13.1524
15.1757
16.9046
18.483
19.996
21.4931
23.0027
24.5465
26.1513
27.8547
29.7055
31.7482
33.9751
36.2415
38.2031
39.2818
39.2211
38.7321
36.8167
35.6399
35.3899
37.5417
36.0924
41.8263
42.267
41.285
42.6167
41.5873
43.3225
42.1837
43.8343
8.82276
12.9001
14.8548
16.5384
18.092
19.5836
21.0429
22.4822
23.9135
25.3593
26.8558
28.4514
30.2039
32.1623
34.3194
36.5197
38.3685
39.4576
39.8942
39.4074
39.2306
39.2527
40.708
40.1684
42.9842
43.1532
42.6657
42.861
42.1208
43.1457
42.899
43.714
9.01205
13.0827
15.0426
16.7493
18.3312
19.8375
21.2813
22.6655
23.9986
25.3012
26.6052
27.952
29.3931
30.9878
32.7871
34.7792
36.791
38.4916
39.6292
40.055
40.3648
40.3881
41.414
41.274
42.6219
42.6661
42.3734
42.056
41.2934
42.1684
42.0854
42.4744
9.45893
13.575
15.5877
17.362
19.0064
20.5536
22.0054
23.3599
24.625
25.8212
26.9773
28.1268
29.3092
30.573
31.9751
33.5594
35.3022
37.0451
38.5337
39.5509
40.2529
40.4323
41.0781
40.9831
41.4462
41.2722
40.9585
40.4579
39.7081
40.4574
40.3762
40.6194
10.107
14.2976
16.3856
18.246
19.9669
21.5665
23.0402
24.3859
25.6135
26.7448
27.8062
28.8236
29.8245
30.8426
31.9212
33.1096
34.4397
35.8771
37.2881
38.4773
39.3793
39.7211
40.1069
39.9223
39.8696
39.4938
39.0967
38.5786
37.9331
38.588
38.5198
38.7604
10.8997
15.1917
17.3667
19.3189
21.1173
22.7703
24.2711
25.6205
26.8331
27.9327
28.9447
29.8885
30.7815
31.6433
32.5003
33.3907
34.3531
35.4029
36.5009
37.5294
38.3737
38.7591
38.9624
38.6904
38.3498
37.8347
37.3705
36.9232
36.464
37.0619
37.0759
37.3752
11.745
16.2065
18.4762
20.5199
22.3925
24.0964
25.6262
26.9878
28.2011
29.2931
30.2882
31.2011
32.042
32.8197
33.547
34.2466
34.9469
35.6729
36.4261
37.1537
37.7697
38.0604
38.1035
37.7591
37.2663
36.6755
36.181
35.8328
35.5756
36.1627
36.3027
36.6733
12.7252
17.309
19.6722
21.8048
23.7478
25.5004
27.0604
28.4402
29.6657
30.7665
31.7661
32.6758
33.5007
34.2435
34.9071
35.5024
36.0435
36.5485
37.0284
37.4649
37.8082
37.9221
37.8024
37.3811
36.8007
36.1722
35.6742
35.4186
35.34
35.9438
36.2211
36.656
13.515
13.949
14.4428
14.8416
15.2234
15.5276
15.7904
15.9934
16.1552
16.2686
16.3446
16.3815
16.3837
16.3525
16.2922
16.2049
16.0926
15.9595
15.8147
15.6808
15.629
15.715
15.84
15.9633
16.0704
16.1549
16.2132
16.2436
16.2423
16.2071
16.1333
16.0233
15.8666
15.6699
15.4154
15.123
14.7534
14.3678
13.8878
13.4649
18.2177
18.6672
19.1797
19.5956
19.9945
20.3192
20.6042
20.8318
21.0193
21.1604
21.2646
21.3308
21.362
21.3582
21.322
21.2547
21.1571
21.0322
20.8881
20.7487
20.6959
20.7882
20.9149
21.0323
21.1265
21.1924
21.2277
21.2317
21.2018
21.137
21.0346
20.8965
20.7134
20.4914
20.2137
19.8993
19.5116
19.1084
18.6092
18.1709
20.6563
21.1307
21.6723
22.1126
22.5389
22.8929
23.2115
23.4756
23.703
23.887
24.0359
24.1487
24.2275
24.2705
24.2784
24.2516
24.1899
24.0949
23.9734
23.8482
23.7991
23.8807
23.9871
24.0765
24.1361
24.1622
24.154
24.1114
24.0334
23.9209
23.7726
23.5901
23.3654
23.1048
22.7915
22.4457
22.0291
21.6005
21.0717
20.609
22.8511
23.3432
23.9055
24.3633
24.8119
25.1912
25.5401
25.8384
26.1037
26.3296
26.5223
26.6807
26.8063
26.8963
26.9493
26.9643
26.9406
26.8787
26.7853
26.6833
26.6422
26.704
26.7838
26.8413
26.8641
26.8492
26.7966
26.7072
26.5817
26.4225
26.2292
26.0032
25.7381
25.4409
25.0948
24.7208
24.2793
23.831
23.2797
22.7991
24.8398
25.3336
25.901
26.3625
26.8205
27.2127
27.5798
27.9008
28.1928
28.4502
28.6781
28.8739
29.038
29.1666
29.2574
29.3081
29.317
29.2846
29.2176
29.139
29.106
29.1479
29.2021
29.2311
29.2224
29.1728
29.083
28.955
28.7907
28.5934
28.3636
28.1039
27.8095
27.487
27.1201
26.73
26.2762
25.8212
25.2624
24.7789
26.6215
27.1005
27.6591
28.1124
28.5684
28.9636
29.3396
29.6763
29.9899
30.2733
30.5309
30.7586
30.9554
31.1172
31.2406
31.3219
31.3591
31.3521
31.308
31.2484
31.2215
31.2482
31.2809
31.2856
31.2498
31.1706
31.0491
30.8884
30.6912
30.4618
30.2014
29.9139
29.5958
29.2544
28.8754
28.4787
28.0233
27.5733
27.0205
26.55
28.197
28.6503
29.1929
29.6327
30.0828
30.4788
30.8637
31.216
31.55
31.8579
32.1426
32.3994
32.6259
32.8175
32.9697
33.078
33.1396
33.1542
33.1283
33.0828
33.0599
33.0764
33.0927
33.0774
33.0186
32.9138
32.7647
32.575
32.3485
32.0902
31.8021
31.4891
31.1489
30.7896
30.3983
29.9963
29.5432
29.1029
28.5632
28.1159
29.5831
30.0073
30.5341
30.9621
31.4091
31.8107
32.2065
32.5756
32.9297
33.2611
33.5711
33.8544
34.1078
34.3257
34.5031
34.6348
34.7172
34.7495
34.7376
34.7018
34.6813
34.6916
34.6961
34.6652
34.5875
34.4609
34.2879
34.0728
33.8203
33.5357
33.2223
32.8855
32.5241
32.1466
31.7419
31.3313
30.8771
30.4445
29.9174
29.4963
30.8099
31.207
31.7223
32.1437
32.5927
33.0023
33.4104
33.7957
34.1689
34.5216
34.8541
35.1608
35.4376
35.6784
35.8772
36.0285
36.1279
36.1741
36.1727
36.143
36.1242
36.1311
36.1279
36.0853
35.9925
35.8482
35.6552
35.4186
35.1437
34.8362
34.5006
34.1422
33.7615
33.3665
32.9483
32.5275
32.0687
31.6383
31.1196
30.7225
31.9081
32.2817
32.7892
33.2089
33.6614
34.0795
34.499
34.8991
35.2888
35.66
36.0118
36.3384
36.6347
36.8944
37.111
37.2781
37.3911
37.4481
37.454
37.4284
37.4107
37.4163
37.4082
37.3573
37.2532
37.0949
36.8858
36.6316
36.3382
36.0117
35.6572
35.2804
34.883
34.4725
34.0418
33.6111
33.1471
32.7163
32.2019
31.8255
32.8994
33.2513
33.7534
34.1716
34.6275
35.0532
35.4825
35.8953
36.299
36.6854
37.0532
37.3959
37.7082
37.9832
38.214
38.3937
38.5174
38.5827
38.5944
38.5717
38.5551
38.5602
38.5491
38.4924
38.3798
38.2108
37.9894
37.7213
37.413
37.0711
36.7013
36.3095
35.8979
35.4746
35.0333
34.5941
34.1256
33.6944
33.1837
32.8272
33.7944
34.1236
34.6195
35.0359
35.4942
35.9262
36.3637
36.7869
37.2019
37.6009
37.9817
38.3375
38.6625
38.9497
39.1917
39.3816
39.514
39.5864
39.6036
39.5846
39.5694
39.5738
39.5597
39.4982
39.379
39.2019
38.9709
38.6923
38.3725
38.0185
37.6363
37.2323
36.8093
36.3755
35.9256
35.4793
35.0075
34.5769
34.0712
33.7354
34.5951
34.8988
35.3867
35.8003
36.26
36.6973
37.1417
37.5736
37.9982
38.4076
38.7988
39.1651
39.5005
39.7974
40.0484
40.2466
40.3866
40.4661
40.4898
40.4764
40.4636
40.4655
40.4474
40.381
40.2563
40.0728
39.8345
39.5475
39.2188
38.8553
38.4633
38.0494
37.6171
37.1743
36.7173
36.2654
35.7915
35.3628
34.8643
34.5526
35.3004
35.5743
36.0514
36.4614
36.9218
37.3636
37.8143
38.254
38.687
39.1052
39.5053
39.8802
40.2239
40.5286
40.7871
40.9926
41.1398
41.2268
41.2587
41.2533
41.2437
41.2416
41.2176
41.1457
41.0158
40.8268
40.5828
40.2894
39.9536
39.5825
39.1824
38.7603
38.3198
37.8693
37.4059
36.9491
36.4738
36.0485
35.5602
35.2773
35.9107
36.1476
36.61
37.0147
37.4754
37.9217
38.3783
38.8256
39.2665
39.6927
40.1004
40.4828
40.8335
41.145
41.4101
41.6224
41.7767
41.8719
41.9134
41.9174
41.9115
41.9048
41.8736
41.7954
41.6601
41.4663
41.2174
40.9188
40.5772
40.1996
39.7926
39.3629
38.9149
38.4569
37.9874
37.526
37.0503
36.6296
36.1554
35.9078
36.4271
36.6148
37.0577
37.4553
37.9154
38.3662
38.8291
39.284
39.7326
40.1665
40.5815
40.9709
41.328
41.6456
41.9167
42.1353
42.2969
42.4008
42.4525
42.4664
42.4643
42.453
42.4144
42.3296
42.1889
41.9905
41.7372
41.4339
41.0872
40.7038
40.2901
39.8532
39.3976
38.9321
38.4563
37.9902
37.515
37.1013
36.6474
36.4462
36.8571
36.9754
37.3886
37.776
38.2341
38.6893
39.1587
39.6217
40.0784
40.5201
40.9425
41.3385
41.7017
42.0251
42.3021
42.5269
42.6959
42.8086
42.8701
42.8932
42.8948
42.8797
42.8344
42.7431
42.5971
42.3944
42.1369
41.8293
41.4776
41.0884
40.668
40.2236
39.7601
39.2865
38.8041
38.3335
37.86
37.4569
37.0311
36.8948
37.211
37.2297
37.5957
37.9678
38.421
38.8803
39.3561
39.8277
40.2929
40.743
41.1729
41.5757
41.9451
42.2743
42.5571
42.7883
42.9643
43.0854
43.1562
43.1873
43.1922
43.1744
43.1235
43.0264
42.8755
42.6684
42.4067
42.0947
41.7379
41.3426
40.9151
40.4626
39.9905
39.5082
39.019
38.5441
38.0751
37.6871
37.3051
37.2605
37.4975
37.3789
37.6718
38.017
38.4631
38.925
39.4075
39.8877
40.362
40.8209
41.2589
41.669
42.0449
42.3801
42.6688
42.9061
43.0892
43.2181
43.2971
43.3352
43.343
43.3234
43.2679
43.1659
43.0103
42.7989
42.5329
42.2161
41.8537
41.4516
41.0164
40.555
40.0737
39.5822
39.0863
38.6086
38.1473
37.7838
37.4683
37.5498
37.7149
37.4231
37.6143
37.9156
38.3466
38.8103
39.2983
39.7874
40.2708
40.7389
41.1852
41.6029
41.9857
42.3273
42.622
42.8656
43.0552
43.1912
43.2774
43.3214
43.3319
43.3112
43.2523
43.1459
42.9861
42.7703
42.4997
42.1777
41.809
41.3996
40.9559
40.485
39.9939
39.4935
38.9914
38.5132
38.0651
37.7402
37.5171
37.7566
37.8288
37.3496
37.4185
37.6591
38.0644
38.5259
39.0181
39.5149
40.007
40.484
40.9388
41.3643
41.754
42.102
42.4029
42.6524
42.8482
42.9905
43.0827
43.1315
43.1443
43.1231
43.0615
42.9517
42.7879
42.568
42.2925
41.9649
41.5897
41.1725
40.72
40.2394
39.7387
39.2295
38.7227
38.2447
37.8186
37.5485
37.4396
37.8568
37.7667
37.1238
37.0733
37.246
37.6171
38.0697
38.5655
39.0682
39.5678
40.0524
40.5147
40.9471
41.3434
41.6973
42.0038
42.2587
42.4597
42.6072
42.7042
42.7568
42.7716
42.7503
42.687
42.5746
42.4076
42.1838
41.9041
41.5711
41.1896
40.7651
40.3044
39.8152
39.3062
38.7897
38.2788
37.8069
37.4102
37.2021
37.2048
37.779
37.4798
36.7188
36.573
36.683
37.0184
37.4573
37.9527
38.4605
38.9653
39.4557
39.9235
40.3613
40.7623
41.1209
41.4315
41.6904
41.8952
42.0462
42.1465
42.2016
42.218
42.1971
42.1334
42.0198
41.8511
41.6249
41.3419
41.005
40.6188
40.1888
39.7219
39.2264
38.7113
38.1907
37.6782
37.2164
36.8518
36.7029
36.8016
37.5029
36.9363
36.1229
35.9273
35.9964
36.3045
36.7296
37.2215
37.732
38.2388
38.7317
39.2018
39.6418
40.0449
40.4054
40.7177
40.9782
41.1843
41.3365
41.4378
41.494
41.5117
41.4923
41.4299
41.3175
41.1493
40.9234
40.6399
40.3019
39.9139
39.4816
39.0121
38.5137
37.9962
37.4732
36.9645
36.5166
36.1801
36.0753
36.2327
37.0045
36.1898
35.3865
35.1901
35.2462
35.5413
35.9563
36.4431
36.9527
37.459
37.9505
38.4192
38.8576
39.2593
39.6179
39.9286
40.1872
40.3915
40.5416
40.6412
40.6965
40.7152
40.6987
40.6407
40.5329
40.3693
40.1472
39.8674
39.5325
39.1471
38.7172
38.2498
37.7534
37.2382
36.7173
36.2152
35.7802
35.4628
35.3835
35.568
36.3737
35.4994
34.6922
34.4956
34.5457
34.8335
35.2406
35.7211
36.2261
36.7287
37.216
37.6799
38.1133
38.5096
38.8628
39.168
39.4211
39.6195
39.7639
39.8581
39.9102
39.9295
39.9185
39.8688
39.7703
39.6159
39.4029
39.1317
38.8051
38.4278
38.0058
37.5461
37.0573
36.5501
36.0377
35.5456
35.1222
34.8159
34.7459
34.9308
35.7374
35.0374
34.2346
34.0388
34.0796
34.3544
34.7463
35.2115
35.7018
36.1907
36.6656
37.1181
37.5406
37.9264
38.2695
38.5647
38.8078
38.9963
39.1306
39.2152
39.2606
39.2804
39.2781
39.242
39.1583
39.0184
38.8194
38.562
38.249
37.885
37.476
37.0294
36.5535
36.0591
35.5605
35.0813
34.6686
34.3681
34.297
34.4688
35.2561
34.7873
34.0334
33.8672
33.9194
34.1924
34.5731
35.0208
35.4901
35.959
36.4157
36.8509
37.257
37.6272
37.9554
38.2365
38.4658
38.6408
38.7613
38.8319
38.8664
38.8858
38.8965
38.8792
38.8149
38.694
38.5137
38.2749
37.9809
37.6362
37.2469
36.8203
36.3654
35.8926
35.4177
34.96
34.5637
34.2703
34.1939
34.3378
35.0765
35.0023
34.292
34.1473
34.1961
34.4514
34.8034
35.217
35.6506
36.0885
36.5174
36.9273
37.3102
37.6592
37.9679
38.2311
38.444
38.6034
38.7084
38.7632
38.7835
38.8022
38.8304
38.8353
38.7926
38.6927
38.5332
38.3159
38.0439
37.7219
37.356
36.953
36.5216
36.0725
35.6205
35.1824
34.7976
34.501
34.401
34.49
35.1367
35.525
34.8274
34.6842
34.7224
34.9569
35.2798
35.6602
36.0636
36.4742
36.8776
37.2641
37.6252
37.9539
38.2443
38.4907
38.6886
38.8343
38.9265
38.9682
38.9758
38.994
39.0397
39.0646
39.041
38.9603
38.821
38.6252
38.3761
38.0784
37.738
37.3618
36.9586
36.539
36.1184
35.7144
35.3613
35.0902
35.0103
35.1057
35.7562
36.1857
35.5143
35.3777
35.4001
35.6077
35.896
36.2426
36.6151
36.9969
37.374
37.7361
38.075
38.3837
38.6561
38.8868
39.0712
39.2056
39.288
39.3214
39.3218
39.3417
39.4009
39.4401
39.4311
39.3659
39.2436
39.0659
38.8361
38.5585
38.2387
37.8829
37.4995
37.0978
36.6922
36.298
35.9472
35.6637
35.5518
35.5897
36.1528
36.4642
35.8926
35.8169
35.8674
36.0839
36.3676
36.7037
37.0612
37.4267
37.7866
38.1318
38.4544
38.7481
39.0067
39.2251
39.3986
39.5237
39.5985
39.6253
39.6204
39.6381
39.7011
39.746
39.744
39.6871
39.5743
39.4073
39.1894
38.9247
38.6189
38.2779
37.91
37.5247
37.1359
36.759
36.4261
36.156
36.0511
36.0834
36.6301
42.6252
50.389
56.5564
62.5645
67.7056
71.8499
75.1581
77.8246
80.0042
81.8329
83.4293
84.8597
86.1621
87.3687
88.5092
89.6134
90.711
91.8287
92.9886
94.2068
95.4916
96.8449
98.2633
99.7395
101.263
102.823
104.4
105.972
107.5
108.916
110.073
110.751
41.9406
49.4207
55.3921
61.2643
66.335
70.4454
73.7359
76.3947
78.5748
80.4103
82.0137
83.4465
84.7395
85.9312
87.0533
88.1363
89.2102
90.3032
91.4378
92.6292
93.8857
95.2094
96.5967
98.0404
99.5301
101.054
102.595
104.13
105.621
107.003
108.131
108.791
41.1712
48.4073
54.1966
59.9358
64.938
69.0191
72.2985
74.958
77.1485
79
80.6163
82.0533
83.3407
84.5213
85.627
86.6903
87.743
88.8127
89.9217
91.0865
92.3155
93.61
94.9667
96.3781
97.8345
99.3231
100.827
102.327
103.78
105.128
106.228
106.869
40.3916
47.3916
52.9959
58.5956
63.5268
67.5812
70.8556
73.5242
75.7353
77.6109
79.2442
80.6879
81.9754
83.1459
84.2376
85.2837
86.3156
87.3628
88.4492
89.5893
90.7914
92.0577
93.3845
94.7645
96.1875
97.641
99.1093
100.572
101.99
103.304
104.375
104.998
39.548
46.3283
51.7488
57.2087
62.0731
66.1111
69.3937
72.0843
74.3251
76.2302
77.8857
79.342
80.6343
81.8012
82.8832
83.9144
84.9294
85.9575
87.0207
88.1365
89.3135
90.5528
91.8508
93.2002
94.5912
96.0111
97.4447
98.872
100.254
101.535
102.579
103.185
38.7114
45.2692
50.4966
55.8075
60.6033
64.6295
67.9272
70.6462
72.9238
74.8654
76.547
78.0187
79.3205
80.4889
81.5638
82.5836
83.5828
84.5917
85.6363
86.731
87.8838
89.0973
90.3675
91.6874
93.0464
94.4332
95.8319
97.2234
98.5705
99.8197
100.835
101.424
37.8021
44.147
49.1767
54.3333
59.0627
63.0898
66.4212
69.1865
71.5116
73.4932
75.2062
76.7018
78.0188
79.1968
80.273
81.2864
82.2747
83.2706
84.2958
85.3689
86.4996
87.6886
88.9322
90.2232
91.5521
92.9067
94.2721
95.6303
96.9442
98.1605
99.1501
99.7206
36.903
43.0277
47.8477
52.8379
57.4972
61.5305
64.9023
67.7168
70.0937
72.1258
73.8784
75.4015
76.74
77.9313
79.014
80.0242
81.0042
81.9858
82.9975
84.0544
85.1642
86.33
87.5482
88.8117
90.1098
91.4321
92.7635
94.0867
95.3655
96.553
97.5145
98.068
35.8993
41.8095
46.4078
51.2171
55.8012
59.8519
63.2899
66.1859
68.6384
70.7279
72.5258
74.088
75.4553
76.6692
77.766
78.786
79.7648
80.7427
81.7403
82.7791
83.8702
85.0144
86.208
87.444
88.7137
90.0057
91.3051
92.5959
93.843
94.9972
95.9344
96.4701
34.8975
40.5829
44.9486
49.561
54.0619
58.1353
61.647
64.6217
67.1475
69.3111
71.1724
72.7805
74.1867
75.4284
76.5449
77.5709
78.5538
79.5259
80.5171
81.5462
82.6204
83.7441
84.9145
86.1247
87.3642
88.6235
89.8888
91.1442
92.355
93.483
94.3914
94.9096
33.7128
39.1827
43.2985
47.6852
52.0803
56.178
59.7979
62.9139
65.573
67.8309
69.7611
71.4313
72.8842
74.1653
75.31
76.3631
77.3573
78.3374
79.3229
80.3385
81.3984
82.5034
83.6507
84.8337
86.045
87.2744
88.5071
89.7309
90.912
92.0059
92.8912
93.3898
32.4876
37.7493
41.6081
45.7527
50.0297
54.1577
57.8967
61.1395
63.9068
66.2823
68.3206
70.0678
71.5867
72.9162
74.0999
75.1686
76.1785
77.16
78.1473
79.1618
80.2095
81.2973
82.4234
83.5823
84.7631
85.9583
87.1562
88.3432
89.4855
90.556
91.4108
91.892
30.9734
36.0298
39.5923
43.431
47.5258
51.6528
55.546
59.0383
62.0666
64.6168
66.7699
68.6197
70.2124
71.6053
72.8347
73.9558
74.9932
75.998
76.9892
77.9943
79.0325
80.1052
81.2102
82.3417
83.4947
84.6611
85.8264
86.9824
88.0964
89.1297
89.9632
90.4235
29.3376
34.2159
37.4969
41.0252
44.9273
49.0677
53.1413
56.8338
60.0182
62.7736
65.1281
67.1141
68.8224
70.2976
71.5966
72.7438
73.8122
74.8271
75.8302
76.8456
77.8777
78.9365
80.0227
81.1317
82.2538
83.3827
84.5103
85.6271
86.6986
87.7126
88.5124
88.9533
27.1855
31.8879
34.8146
37.8916
41.432
45.4475
49.6826
53.833
57.5946
60.7078
63.2754
65.4512
67.2838
68.8638
70.2332
71.4729
72.591
73.6515
74.6719
75.6828
76.7113
77.7595
78.8261
79.9069
81.0001
82.101
83.196
84.281
85.3259
86.2982
87.0775
87.4959
24.6242
29.2568
31.9305
34.6364
37.8526
41.8311
46.3701
50.7863
54.6848
58.2059
61.1952
63.6319
65.6858
67.4129
68.9082
70.1854
71.3568
72.4379
73.4831
74.5204
75.5509
76.5891
77.6391
78.6988
79.7595
80.8171
81.8685
82.9109
83.906
84.8635
85.6053
86.0003
20.8968
25.5511
27.809
29.7724
32.1915
35.5586
39.932
45.383
50.8971
55.2057
58.6496
61.5064
63.799
65.7192
67.3272
68.7715
70.0267
71.1883
72.2705
73.3086
74.3424
75.3756
76.4076
77.4365
78.4657
79.4954
80.5142
81.5217
82.4918
83.4012
84.1221
84.4921
15.4272
20.6011
23.0204
24.9088
26.7647
30.1869
35.8919
41.0024
45.7341
51.1378
55.5896
58.9778
61.7505
63.9614
65.818
67.3114
68.659
69.8552
70.9803
72.0692
73.1167
74.144
75.1616
76.1696
77.1626
78.1388
79.1025
80.0624
80.9706
81.8702
82.548
82.8873
5.14222
10.2133
11.3875
11.452
12.5273
11.424
11.4515
26.9463
38.953
45.5214
51.2106
55.787
59.0872
61.7161
63.7728
65.6019
67.0937
68.4324
69.6269
70.7223
71.7822
72.8122
73.8129
74.7844
75.7406
76.6876
77.6194
78.5364
79.4223
80.2647
80.9193
81.2303
6.37155
9.43267
9.52479
14.3575
17.8037
17.5722
12.9636
20.6844
19.4352
37.4171
45.6683
51.4104
56.001
59.2756
61.8942
63.7758
65.4475
66.8454
68.1133
69.3021
70.394
71.4232
72.4108
73.3604
74.2718
75.1465
76.0012
76.8631
77.6637
78.503
79.1056
79.3704
11.3806
15.6196
16.5375
14.8815
14.0949
9.11661
4.84415
18.3636
20.3949
15.3529
35.9644
45.6603
51.37
55.7788
58.7937
61.4589
63.3932
65.0628
66.463
67.666
68.7854
69.8292
70.8004
71.7002
72.5657
73.4075
74.2322
75.0333
75.82
76.5884
77.1623
77.3932
19.6971
24.078
25.8886
26.61
25.8297
23.5308
19.0207
11.2527
14.3558
20.7993
15.0205
34.8539
45.6942
51.5687
56.1413
58.7965
61.1667
62.9494
64.488
65.8724
67.0578
68.1084
69.0672
69.9421
70.7418
71.4721
72.1758
72.9117
73.56
74.3356
74.8427
74.9936
21.92
26.8591
29.5454
31.511
32.6782
32.9194
31.9632
29.1362
22.9577
19.4356
16.5591
16.285
34.5991
45.2819
50.4394
55.2523
58.0453
60.4081
62.2193
63.6284
64.8722
65.9613
66.9037
67.6955
68.4321
69.1239
69.7989
70.432
71.1027
71.7846
72.2531
72.3553
22.7025
27.7381
30.6398
32.9565
34.66
35.7427
36.1701
35.7805
33.9804
29.032
24.6733
13.1071
11.0335
32.7987
45.5732
50.1464
54.54
57.1472
59.2532
61.0621
62.4462
63.5537
64.4833
65.2443
65.8604
66.3383
66.8039
67.3537
67.7385
68.45
68.8203
68.7593
22.0316
27.2078
30.2697
32.8194
34.8277
36.2972
37.2407
37.6539
37.434
36.0886
31.9235
27.1733
22.7456
24.0774
34.823
45.2179
48.8434
52.8898
55.6442
57.4634
58.9689
60.1778
61.0843
61.6691
62.1801
62.6267
63.0446
63.4139
64.0022
64.5398
64.8958
64.7264
20.5188
25.8243
28.9705
31.6443
33.8292
35.5334
36.7886
37.6392
38.1119
38.1102
37.0939
33.2129
31.58
18.4454
6.07429
29.4324
43.1335
47.0773
50.3669
53.2622
55.1018
56.3183
57.2059
57.7477
57.9788
57.8797
57.9111
58.0835
57.873
58.5751
58.6358
58.06
18.5663
23.9541
27.1194
29.8356
32.1035
33.9447
35.393
36.5105
37.3747
38.0238
38.3035
37.4797
33.7294
26.8987
18.1347
17.5613
25.7993
38.5596
43.8001
46.2519
48.3401
49.8498
50.6921
50.8131
50.6979
50.6323
50.4465
50.804
52.3669
51.5224
52.7647
51.402
16.3873
21.7487
24.8355
27.4946
29.7527
31.652
33.2396
34.5775
35.7523
36.8399
37.8248
38.4349
37.8226
34.4128
26.1876
23.6885
22.05
22.7706
31.6951
39.3435
41.7804
43.51
43.8985
44.5154
43.0856
41.5294
40.4509
39.0553
35.2612
38.7363
36.112
34.1576
14.2019
19.4079
22.3192
24.8259
26.9849
28.8594
30.5115
32.0089
33.4323
34.8598
36.3017
37.6231
38.4238
37.8721
33.4399
29.5359
29.4427
28.2661
19.3871
15.5143
26.2928
24.1956
26.1295
23.3488
21.3671
14.1423
8.74578
23.8253
32.6567
17.5471
28.7549
19.7503
12.2575
17.1932
19.8581
22.1452
24.142
25.9289
27.5775
29.1571
30.738
32.3884
34.137
35.91
37.4629
38.2994
37.5261
33.8518
27.3969
30.91
19.2408
18.0455
33.3379
21.9993
17.9088
25.8203
31.496
11.5597
15.7825
30.1813
35.6321
21.4564
33.1516
28.1772
10.7516
15.3424
17.7419
19.79
21.6021
23.2709
24.8709
26.4648
28.1069
29.8458
31.7186
33.7154
35.7148
37.4026
38.2553
37.4811
34.4687
28.2072
27.6955
26.1646
27.8503
25.2073
18.1176
33.002
27.7063
30.3342
31.4633
37.0677
22.8611
34.1322
29.1949
30.8373
9.63106
13.982
16.1552
18.0014
19.6581
21.2213
22.7589
24.3185
25.9365
27.6466
29.4847
31.4804
33.6168
35.7473
37.5319
38.464
38.2437
36.4224
33.4536
30.236
26.5968
25.0607
30.7272
25.4868
33.3644
37.2277
36.9599
33.6945
35.2598
38.5571
36.9792
41.3924
9.03388
13.1964
15.2102
16.926
18.4899
19.9887
21.4728
22.9709
24.5037
26.0965
27.7859
29.6191
31.6348
33.8192
36.0277
37.9167
39.1194
39.3522
38.5675
37.3686
36.8414
36.4448
36.4491
35.3573
39.5793
42.4144
41.2555
39.9154
40.7213
42.3156
41.7439
43.6944
8.86328
12.9405
14.8854
16.5561
18.0968
19.5776
21.0286
22.4614
23.887
25.3276
26.8188
28.4088
30.1538
32.1027
34.253
36.4672
38.443
39.7579
40.1454
40.0279
40.0908
40.0933
39.9872
39.483
40.9033
42.9093
41.6315
41.272
41.6087
42.496
42.3828
43.4553
9.04821
13.1185
15.0689
16.7642
18.3365
19.8365
21.2769
22.659
23.9899
25.2898
26.5913
27.9367
29.3784
30.9784
32.7938
34.8271
36.9506
38.8248
40.0553
40.6793
41.0462
41.1758
40.9392
40.5949
40.9192
42.2744
41.2044
41.0255
41.0388
41.7201
41.7092