/*--------------------------------*- C++ -*----------------------------------*\
  =========                 |
  \\      /  F ield         | OpenFOAM: The Open Source CFD Toolbox
   \\    /   O peration     | Website:  https://openfoam.org
    \\  /    A nd           | Version:  6
     \\/     M anipulation  |
\*---------------------------------------------------------------------------*/
FoamFile
{
    version     2.0;
    format      ascii;
    class       volScalarField;
    location    "1.8";
    object      k;
}
// * * * * * * * * * * * * * * * * * * * * * * * * * * * * * * * * * * * * * //

dimensions      [0 2 -2 0 0 0 0];

internalField   nonuniform List<scalar> 
63280
(
0.00072107
0.000752478
0.000780104
0.000804066
0.000822064
0.000834444
0.000840968
0.000840198
0.000830735
0.000813439
0.000788635
0.000760759
0.000726184
0.000692933
0.000653103
0.000619165
0.00058013
0.000591788
0.000606791
0.000620017
0.000629289
0.000636051
0.0006393
0.000639275
0.000636291
0.000628669
0.000620011
0.000606522
0.000593987
0.000576425
0.000561072
0.000541447
0.000524508
0.000504531
0.000491264
0.000499164
0.000505708
0.000510592
0.000514065
0.00051565
0.000515675
0.000513629
0.000508917
0.000502843
0.000494128
0.000485097
0.000473858
0.000462863
0.000450893
0.000439352
0.000428333
0.000403388
0.000408761
0.000413402
0.00041788
0.000421588
0.000425038
0.000427331
0.000428953
0.000428595
0.000427243
0.000423775
0.00041888
0.000412489
0.000404434
0.000396335
0.000386675
0.000378636
0.000334977
0.000339224
0.000342812
0.00034685
0.000349983
0.000353549
0.000355865
0.000357896
0.000358534
0.00035823
0.000357264
0.000354685
0.000352112
0.000347345
0.000343147
0.000336863
0.000332103
0.000285647
0.000288116
0.000290713
0.000292744
0.000294953
0.000296592
0.000298501
0.000299435
0.000300526
0.000300012
0.000299891
0.000298177
0.000297273
0.000294834
0.000293204
0.00028973
0.000287359
0.000242537
0.000244205
0.000246161
0.000247957
0.000250188
0.00025217
0.000254713
0.000256505
0.00025846
0.000258864
0.000259209
0.000258037
0.000257459
0.000255935
0.000255581
0.00025404
0.000253512
0.000205869
0.000207226
0.000209115
0.000211057
0.000213152
0.000215273
0.000217163
0.000218846
0.000220136
0.000220578
0.000220645
0.000219571
0.000218838
0.000217528
0.000217534
0.000217205
0.000218329
0.000177207
0.000178192
0.00017973
0.000181449
0.000183544
0.00018554
0.000187626
0.000189299
0.000190955
0.000191739
0.000192315
0.000191589
0.0001909
0.000189254
0.000188575
0.000187586
0.000188209
0.000152986
0.000153804
0.000155251
0.000156998
0.000159089
0.000161114
0.000163065
0.000164498
0.000165873
0.000166492
0.000167057
0.000166543
0.000166029
0.000164555
0.000163721
0.000162494
0.000162646
0.00013322
0.000133726
0.000134722
0.000135837
0.000137387
0.000138701
0.000140248
0.000141298
0.000142573
0.000143405
0.000144426
0.000144757
0.000145042
0.000144282
0.000143676
0.000142287
0.000141806
0.000115534
0.000115962
0.000116745
0.000117696
0.000118902
0.000120004
0.000121149
0.000122022
0.000123011
0.000123859
0.000125024
0.00012584
0.000126753
0.000126688
0.000126468
0.000125162
0.000124257
0.000100608
0.00010085
0.000101385
0.000101973
0.000102782
0.000103355
0.000104051
0.000104438
0.000105065
0.000105559
0.000106443
0.00010719
0.000108253
0.000108729
0.000109222
0.000108713
0.000108329
8.717e-05
8.71768e-05
8.73095e-05
8.74924e-05
8.78297e-05
8.81493e-05
8.86012e-05
8.89831e-05
8.95172e-05
9.00087e-05
9.07428e-05
9.13716e-05
9.23529e-05
9.30158e-05
9.39672e-05
9.42745e-05
9.47582e-05
7.48385e-05
7.44369e-05
7.39684e-05
7.35002e-05
7.32887e-05
7.32565e-05
7.36146e-05
7.40532e-05
7.47842e-05
7.54128e-05
7.62167e-05
7.68437e-05
7.76915e-05
7.83238e-05
7.92746e-05
7.98569e-05
8.07595e-05
6.22312e-05
6.15311e-05
6.06453e-05
5.98032e-05
5.93492e-05
5.93784e-05
5.99547e-05
6.07866e-05
6.18018e-05
6.26743e-05
6.34915e-05
6.40655e-05
6.46736e-05
6.50844e-05
6.57308e-05
6.61236e-05
6.68472e-05
4.87997e-05
4.82972e-05
4.7652e-05
4.70693e-05
4.68167e-05
4.70244e-05
4.76682e-05
4.85668e-05
4.95369e-05
5.03971e-05
5.11354e-05
5.16431e-05
5.21594e-05
5.24774e-05
5.29792e-05
5.32886e-05
5.38195e-05
3.56338e-05
3.54864e-05
3.5361e-05
3.52672e-05
3.53032e-05
3.55176e-05
3.59657e-05
3.66329e-05
3.74248e-05
3.81927e-05
3.88869e-05
3.93855e-05
3.98386e-05
4.01498e-05
4.05354e-05
4.07884e-05
4.11574e-05
2.62671e-05
2.61579e-05
2.61722e-05
2.62238e-05
2.61792e-05
2.59732e-05
2.56407e-05
2.53109e-05
2.51296e-05
2.51762e-05
2.5424e-05
2.582e-05
2.62155e-05
2.66501e-05
2.70391e-05
2.74836e-05
2.78485e-05
2.82519e-05
1.94152e-05
1.93911e-05
1.93737e-05
1.91031e-05
1.87047e-05
1.79115e-05
1.72046e-05
1.62169e-05
1.54724e-05
1.49082e-05
1.44521e-05
1.44814e-05
1.43724e-05
1.44579e-05
1.46344e-05
1.47898e-05
1.48746e-05
1.51541e-05
3.70898e-05
3.77396e-05
3.72534e-05
3.70769e-05
3.7226e-05
3.82996e-05
3.79209e-05
3.71338e-05
3.69283e-05
3.77501e-05
3.66098e-05
3.65194e-05
3.50758e-05
3.50665e-05
3.54387e-05
3.59394e-05
3.65342e-05
3.7272e-05
0.00109353
0.00110001
0.00110632
0.0011121
0.00111747
0.00112204
0.00112607
0.00112957
0.00113187
0.00113429
0.00113497
0.00113692
0.00113587
0.00113727
0.0011342
0.0011349
0.00113029
0.00107494
0.00107987
0.00108492
0.00108945
0.00109336
0.00109724
0.00109986
0.00110328
0.00110478
0.00110786
0.00110847
0.00111123
0.00111117
0.00111334
0.00111247
0.00111339
0.00111148
0.00105635
0.00106031
0.00106437
0.00106792
0.00107133
0.0010745
0.00107706
0.00107994
0.00108165
0.00108429
0.0010855
0.00108759
0.00108832
0.0010896
0.00109007
0.00109041
0.0010908
0.00103413
0.00103752
0.00104063
0.00104379
0.00104648
0.0010495
0.00105203
0.00105505
0.00105732
0.0010598
0.00106193
0.00106384
0.00106593
0.00106686
0.00106844
0.00106802
0.00106922
0.00100916
0.00101231
0.00101481
0.00101805
0.00102051
0.00102374
0.00102673
0.00103018
0.00103373
0.00103646
0.00103979
0.00104165
0.00104488
0.00104637
0.0010492
0.00104928
0.00105077
0.000986305
0.000988703
0.000991809
0.000994428
0.00099739
0.00099957
0.00100266
0.00100502
0.00100895
0.00101142
0.00101503
0.00101651
0.00101924
0.00102021
0.00102323
0.00102401
0.00102679
0.000960262
0.000962137
0.000964738
0.000966895
0.000969703
0.000971637
0.000974717
0.000977114
0.00098139
0.000984602
0.000988934
0.000990901
0.000993417
0.000993461
0.000995356
0.000995527
0.000998314
0.000930542
0.000931894
0.000933977
0.000936537
0.000939316
0.000942568
0.000945961
0.00094947
0.000953898
0.000957683
0.000962294
0.000964652
0.000967166
0.000966863
0.000967869
0.000967146
0.000969396
0.00090134
0.000902201
0.00090394
0.000906051
0.000909219
0.000912536
0.000916527
0.000919918
0.000924331
0.000927878
0.000932675
0.000935424
0.000938633
0.000938637
0.000939507
0.000937981
0.000939325
0.000870091
0.000870504
0.000871907
0.00087411
0.000877635
0.000881663
0.000886581
0.000890691
0.000895648
0.000899436
0.000904463
0.000907549
0.000911171
0.000911525
0.000912372
0.000910317
0.000910689
0.000839175
0.000839541
0.000841104
0.000842859
0.000846372
0.000849616
0.000854157
0.000857447
0.000861453
0.000864325
0.000868531
0.000871656
0.000876107
0.000877963
0.000880358
0.000879176
0.000879555
0.000805355
0.00080566
0.000807039
0.000808984
0.000812229
0.000815528
0.000819406
0.000822344
0.000825536
0.000827897
0.000831823
0.000835378
0.00084115
0.000845138
0.00084975
0.000850181
0.000850847
0.000770745
0.000770963
0.000772319
0.000773957
0.000777023
0.000779549
0.000782908
0.000784999
0.000787703
0.000789465
0.00079265
0.000795401
0.00080045
0.000804311
0.000809678
0.00081161
0.000813918
0.000734126
0.000734218
0.000734784
0.000735418
0.000736807
0.000738109
0.000740082
0.000741691
0.000743969
0.000745831
0.00074884
0.000751088
0.000755263
0.000758245
0.000763324
0.000766153
0.000770399
0.000694324
0.000694149
0.000693197
0.000691268
0.00068984
0.000688745
0.000689701
0.000691289
0.0006948
0.000698055
0.000702381
0.00070562
0.000709999
0.000712989
0.000717843
0.00072087
0.00072592
0.000645369
0.000644273
0.000640827
0.000635548
0.0006308
0.000628073
0.000628917
0.000632185
0.000637687
0.000643135
0.000648729
0.000652805
0.000657047
0.000659739
0.000663911
0.000666458
0.000671142
0.000577221
0.000575921
0.000572318
0.000567271
0.000563058
0.000561629
0.00056391
0.000569192
0.000576147
0.000583034
0.000589372
0.00059384
0.000598193
0.000600774
0.000604573
0.000606994
0.000611023
0.000490917
0.000489482
0.000487796
0.000485817
0.000484473
0.000484465
0.000486584
0.000491032
0.000497304
0.000503996
0.000510554
0.000515513
0.000520039
0.000523154
0.000526956
0.000529631
0.000533331
0.000413008
0.000411423
0.000411338
0.000412173
0.00041258
0.000411331
0.000408395
0.000404756
0.000402134
0.000401822
0.000403799
0.000407754
0.000411837
0.000416401
0.000420402
0.000425177
0.000429213
0.000433842
0.000337197
0.000337197
0.000338695
0.000338018
0.00033641
0.00032873
0.000321375
0.000308648
0.000297931
0.000289619
0.000282211
0.000282305
0.000280869
0.000281767
0.000284368
0.000287044
0.000288146
0.000292244
0.00013157
0.000133552
0.000133546
0.000133048
0.00013262
0.000132158
0.000132163
0.000132133
0.000132482
0.000132571
0.000131959
0.000131483
0.000130055
0.000129767
0.000130135
0.000130682
0.000131262
0.000132207
0.0011358
0.00114242
0.00114953
0.00115633
0.00116335
0.00116984
0.00117597
0.00118224
0.00118704
0.00119267
0.00119572
0.00120125
0.0012024
0.00120778
0.0012066
0.00121132
0.0012082
0.00111756
0.00112284
0.0011286
0.00113439
0.00113945
0.00114529
0.00114927
0.00115515
0.00115817
0.00116404
0.00116632
0.00117216
0.00117404
0.00117962
0.00118098
0.00118536
0.00118579
0.0010993
0.00110345
0.00110821
0.00111268
0.00111712
0.0011218
0.00112554
0.00113047
0.00113359
0.00113851
0.00114145
0.00114605
0.0011489
0.00115281
0.00115582
0.00115873
0.00116216
0.00107763
0.00108121
0.0010847
0.00108862
0.00109198
0.00109609
0.00109952
0.00110398
0.00110764
0.00111174
0.00111572
0.00111943
0.0011239
0.00112685
0.00113131
0.00113288
0.00113725
0.00105248
0.00105583
0.00105843
0.00106232
0.0010653
0.00106931
0.00107319
0.0010776
0.00108285
0.00108692
0.00109248
0.0010959
0.00110166
0.00110503
0.00111094
0.00111313
0.00111792
0.00103093
0.0010332
0.00103669
0.0010397
0.00104353
0.0010462
0.00105037
0.00105322
0.00105873
0.00106236
0.00106822
0.00107127
0.00107639
0.00107884
0.00108458
0.00108712
0.00109317
0.00100669
0.00100835
0.0010112
0.00101343
0.00101688
0.00101895
0.00102278
0.00102528
0.00103072
0.00103487
0.00104146
0.00104521
0.0010504
0.00105182
0.00105591
0.00105711
0.00106232
0.00097886
0.000979986
0.000981815
0.000984456
0.000987326
0.000990913
0.000995004
0.000998978
0.00100483
0.0010098
0.00101696
0.00102143
0.00102694
0.00102827
0.00103133
0.00103103
0.00103476
0.000952604
0.000953072
0.000954476
0.000956142
0.000959168
0.000962403
0.000966967
0.000970675
0.000976291
0.00098071
0.000987738
0.00099239
0.000998713
0.00100072
0.00100413
0.00100329
0.00100606
0.000924176
0.000924048
0.000924777
0.000926217
0.000929355
0.000933084
0.000938696
0.000943378
0.000949957
0.000955033
0.000962618
0.000967922
0.000974993
0.000977773
0.000981589
0.000980513
0.000982308
0.000896905
0.000896766
0.000898011
0.000899007
0.000902416
0.00090538
0.000910559
0.000914295
0.000919373
0.00092287
0.000928622
0.000932975
0.000940193
0.000944251
0.000950009
0.000950563
0.000953287
0.000867032
0.000866775
0.000867682
0.000868922
0.000871936
0.000875046
0.000879392
0.000882638
0.000886583
0.000889098
0.00089402
0.000898245
0.000906473
0.000912957
0.0009218
0.000925374
0.0009298
0.000836487
0.000836315
0.00083743
0.000838488
0.000841619
0.000844149
0.000848273
0.000850918
0.000854541
0.000856605
0.000860595
0.000863559
0.000870234
0.000875618
0.000884395
0.00088918
0.000895465
0.00080457
0.000804723
0.00080541
0.000805823
0.000807124
0.000808093
0.000810048
0.000811484
0.000813999
0.000815721
0.000819291
0.000821426
0.000826608
0.00083004
0.000837072
0.000841359
0.000848509
0.000769513
0.000770929
0.000771592
0.000770408
0.000768996
0.000766855
0.00076686
0.000767446
0.000770887
0.000774291
0.000779672
0.000783599
0.000789438
0.000793018
0.000799421
0.000803108
0.000810065
0.000728085
0.000730129
0.000729425
0.000724992
0.000718806
0.000712729
0.000710012
0.000710374
0.000714721
0.000720179
0.000727124
0.000732531
0.000738727
0.000742481
0.000748447
0.000751844
0.000758432
0.000669397
0.000671284
0.000670162
0.000665405
0.000658871
0.000653385
0.000651631
0.000654387
0.000660875
0.000668871
0.000677555
0.000684168
0.00069094
0.00069486
0.000700263
0.000703573
0.000709176
0.000598891
0.000597182
0.000594848
0.000591358
0.000587521
0.000584251
0.000582852
0.000584178
0.000588703
0.000595004
0.000602692
0.000609159
0.000615728
0.000620229
0.000625802
0.000629787
0.000635364
0.000532615
0.000530148
0.000529318
0.00053039
0.000532968
0.000534721
0.000534803
0.000532397
0.000529157
0.000527364
0.000527551
0.000530784
0.000534503
0.00053931
0.000543072
0.00054815
0.000552304
0.000557941
0.000466811
0.000465953
0.000470541
0.000475732
0.00048466
0.000485256
0.000486482
0.000476844
0.000465548
0.000455546
0.00044392
0.000442982
0.000441611
0.000441761
0.00044462
0.000449113
0.000449449
0.000454202
0.000184807
0.000187718
0.000188602
0.000188159
0.000187528
0.000186609
0.000186531
0.000186438
0.000187003
0.000187127
0.000186565
0.000186069
0.000184706
0.000184156
0.000184355
0.000184805
0.000185175
0.000186159
0.00112335
0.00112852
0.00113474
0.00114082
0.00114758
0.00115428
0.00116067
0.00116801
0.00117381
0.00118151
0.00118611
0.00119466
0.0011978
0.00120712
0.0012083
0.00121753
0.00121698
0.0011078
0.00111232
0.00111752
0.00112345
0.00112836
0.001135
0.00113914
0.00114636
0.00114998
0.00115772
0.00116102
0.00116923
0.00117264
0.00118116
0.00118465
0.00119234
0.00119546
0.0010926
0.00109613
0.00110066
0.00110522
0.00110965
0.001115
0.00111889
0.00112493
0.00112858
0.00113497
0.00113899
0.00114544
0.00114995
0.00115602
0.00116129
0.00116647
0.00117283
0.00107365
0.00107676
0.00107992
0.00108388
0.00108712
0.0010915
0.00109498
0.00109992
0.00110417
0.00110899
0.00111406
0.00111883
0.00112505
0.00112951
0.00113641
0.00113972
0.00114696
0.00104972
0.00105268
0.00105488
0.00105875
0.00106172
0.00106578
0.00106994
0.0010744
0.00108057
0.00108514
0.00109213
0.00109644
0.00110389
0.00110854
0.00111689
0.00112084
0.00112853
0.0010299
0.00103165
0.00103502
0.00103794
0.00104216
0.00104481
0.00104952
0.00105223
0.00105845
0.0010625
0.00106975
0.00107381
0.00108067
0.00108404
0.00109182
0.00109565
0.0011044
0.00100732
0.00100845
0.00101119
0.00101312
0.00101685
0.00101872
0.0010229
0.00102501
0.00103079
0.00103505
0.00104294
0.0010478
0.00105508
0.0010576
0.00106342
0.00106533
0.00107239
0.00098047
0.000981287
0.000982593
0.00098504
0.000987769
0.000991214
0.000995712
0.000999485
0.00100601
0.00101125
0.00101995
0.00102582
0.00103375
0.00103658
0.00104152
0.00104167
0.00104652
0.000955823
0.000955919
0.000956897
0.000958013
0.000960658
0.000963438
0.000968199
0.000971715
0.000977899
0.000982423
0.000990706
0.000996447
0.00100514
0.00100887
0.00101459
0.00101454
0.00101851
0.000928348
0.000927843
0.000928017
0.000928662
0.00093129
0.000934315
0.000940131
0.000944774
0.000952183
0.000957689
0.000966769
0.000973388
0.000983081
0.000987963
0.000994559
0.000994717
0.000997946
0.000902384
0.000901864
0.000902875
0.000903137
0.000906215
0.000908636
0.000913955
0.000917788
0.000923498
0.000927172
0.000933838
0.000938644
0.000947673
0.00095327
0.000961783
0.000963964
0.000968881
0.000873677
0.000873026
0.000873574
0.000874137
0.000876764
0.000879429
0.00088392
0.000887224
0.000891722
0.000894124
0.000899534
0.000903621
0.000913016
0.00092079
0.000932709
0.000938917
0.00094683
0.000844103
0.000843663
0.000844595
0.000845052
0.000847952
0.000850198
0.000854573
0.000857449
0.000861672
0.000863852
0.000868418
0.00087122
0.000878728
0.000884778
0.000895855
0.00090283
0.000912469
0.000813035
0.000813182
0.000813989
0.000814248
0.000815486
0.000816135
0.00081794
0.000819018
0.00082154
0.000822865
0.000826767
0.00082861
0.000834415
0.000838016
0.000846325
0.000851602
0.000860922
0.000777752
0.000780124
0.000782152
0.000782005
0.000781194
0.000778662
0.000777857
0.000777269
0.00078004
0.000782997
0.000788852
0.000793111
0.00080014
0.000804308
0.000812027
0.000816365
0.0008248
0.000737819
0.0007419
0.000743871
0.0007415
0.000735849
0.000728239
0.000722774
0.000720032
0.000722245
0.000726541
0.000733801
0.000739862
0.000747599
0.000752327
0.00075982
0.000764033
0.000772079
0.000683239
0.000687139
0.000688561
0.000685665
0.000679174
0.00067158
0.000666401
0.000665881
0.000670333
0.00067774
0.000687416
0.000695446
0.000704301
0.000709696
0.000716578
0.000720823
0.000727646
0.000623833
0.000621715
0.000619189
0.000615443
0.000610803
0.000606015
0.000602396
0.000600923
0.000603044
0.000607633
0.00061502
0.00062186
0.00062973
0.000635188
0.00064198
0.000646844
0.000653592
0.000561988
0.000558964
0.00055744
0.000558134
0.000562318
0.000566867
0.000571103
0.00057201
0.000570294
0.00056873
0.000567709
0.00057021
0.000573392
0.000578396
0.000581894
0.000587089
0.000590758
0.000596426
0.000519189
0.000515518
0.000520088
0.000526836
0.000542895
0.000549697
0.000559269
0.000554179
0.000544089
0.000533949
0.000518846
0.000516137
0.000514918
0.000514408
0.00051699
0.000523665
0.000523382
0.00052798
0.000235025
0.000238845
0.000241024
0.000241231
0.000240887
0.000239678
0.000239404
0.000238889
0.000239406
0.000239619
0.000239049
0.000238698
0.000237356
0.000236481
0.000236397
0.000236708
0.000236724
0.000237704
0.00110193
0.00110541
0.00111032
0.00111523
0.001121
0.0011272
0.00113293
0.00114032
0.001146
0.00115455
0.00115953
0.00116987
0.00117393
0.001186
0.00118872
0.00120144
0.00120301
0.00108776
0.00109124
0.00109538
0.001101
0.00110517
0.00111199
0.00111562
0.00112332
0.00112674
0.00113538
0.00113886
0.0011484
0.00115245
0.00116286
0.00116769
0.0011778
0.00118315
0.00107493
0.00107757
0.00108137
0.00108568
0.00108951
0.00109505
0.00109848
0.00110495
0.00110846
0.00111544
0.00111979
0.00112721
0.00113262
0.00113999
0.00114681
0.00115349
0.00116216
0.00105798
0.00106035
0.00106283
0.00106652
0.00106928
0.00107352
0.00107659
0.00108141
0.0010857
0.00109059
0.00109607
0.00110116
0.00110834
0.00111359
0.00112217
0.00112663
0.00113607
0.00103482
0.00103707
0.00103863
0.00104211
0.00104485
0.00104853
0.00105265
0.00105658
0.00106307
0.00106757
0.00107526
0.0010799
0.00108824
0.00109343
0.00110338
0.00110853
0.00111851
0.00101621
0.00101723
0.00102013
0.00102262
0.00102695
0.00102931
0.00103423
0.00103642
0.0010427
0.00104658
0.00105449
0.00105905
0.00106708
0.00107086
0.00107997
0.00108455
0.00109526
0.000994804
0.000995248
0.000997616
0.000999009
0.00100279
0.0010043
0.00100859
0.00101007
0.00101562
0.00101936
0.00102771
0.00103304
0.00104188
0.00104528
0.00105246
0.00105481
0.00106317
0.000968522
0.000968965
0.000969605
0.000971593
0.000974075
0.000977007
0.000981715
0.000984896
0.000991495
0.000996312
0.0010056
0.00101216
0.00102193
0.00102611
0.0010328
0.00103351
0.00103923
0.000945091
0.000944847
0.000945352
0.000945835
0.000947952
0.000949975
0.000954641
0.000957612
0.000963855
0.000967905
0.000976592
0.000982704
0.000993011
0.00099817
0.00100599
0.00100689
0.00101191
0.000918282
0.000917465
0.000917196
0.000917004
0.000919017
0.000921026
0.000926605
0.000930757
0.000938339
0.000943589
0.000953211
0.000960312
0.000971757
0.000978358
0.000987505
0.000989195
0.000993945
0.000893213
0.000892366
0.000893168
0.000892732
0.000895271
0.000896923
0.000901933
0.00090552
0.000911487
0.000914956
0.000921986
0.000926638
0.0009366
0.000943128
0.000953807
0.000957574
0.000964597
0.000865329
0.000864375
0.000864617
0.000864505
0.000866591
0.000868576
0.000872888
0.000875993
0.000880842
0.000882944
0.000888414
0.000891777
0.000901223
0.000909188
0.000923007
0.000931329
0.000942446
0.000836444
0.000835798
0.000836549
0.000836422
0.000838839
0.000840591
0.000844808
0.000847607
0.000852121
0.000854186
0.000859041
0.00086138
0.000868971
0.000874933
0.000887214
0.000895734
0.000908144
0.000805802
0.00080587
0.000806765
0.000806936
0.000808149
0.00080856
0.000810193
0.00081082
0.00081316
0.000813845
0.000817727
0.000819057
0.00082496
0.000828384
0.000837247
0.000843051
0.000853809
0.000769825
0.000772675
0.000775835
0.000776951
0.000777191
0.000774944
0.000773651
0.000771898
0.000773516
0.000775385
0.000780974
0.000785004
0.000792611
0.000797121
0.000805669
0.000810518
0.000819887
0.000731304
0.000736568
0.000741004
0.000741447
0.000737771
0.000730283
0.0007231
0.000717407
0.00071676
0.000718762
0.000725116
0.000730906
0.000739391
0.000744764
0.000753273
0.000758142
0.000767082
0.000683028
0.000687951
0.000691561
0.00069118
0.000686282
0.000678307
0.000670692
0.000666701
0.000667937
0.000673125
0.000682157
0.000690426
0.000700473
0.000707076
0.00071505
0.000720126
0.000727708
0.000637489
0.00063482
0.000632047
0.000628539
0.000624175
0.000619277
0.000614862
0.000611444
0.000611194
0.00061329
0.000619141
0.000625095
0.000633216
0.000638944
0.000646219
0.000651445
0.000658556
0.00058114
0.000577712
0.000575567
0.000575471
0.000581027
0.000588191
0.0005972
0.000602884
0.000604319
0.000604529
0.000603045
0.000604914
0.000607356
0.000612364
0.000615415
0.000620679
0.000623644
0.000628743
0.000569884
0.000562328
0.000565015
0.000570328
0.000591017
0.000602166
0.00061939
0.000619756
0.000612063
0.000603166
0.00058558
0.000580621
0.000579344
0.000578412
0.000580032
0.000589013
0.000588793
0.000593104
0.000284192
0.000288708
0.000292357
0.000293756
0.000294289
0.000292982
0.000292539
0.000291354
0.00029152
0.00029172
0.000291088
0.000290983
0.000289768
0.000288576
0.000288088
0.000288232
0.000287735
0.000288577
0.00107972
0.00108155
0.00108501
0.00108864
0.00109306
0.00109839
0.00110295
0.00110971
0.00111455
0.00112302
0.00112745
0.00113844
0.00114243
0.00115602
0.00115939
0.00117438
0.00117744
0.001066
0.00106838
0.00107118
0.00107626
0.00107936
0.00108595
0.00108869
0.00109628
0.00109899
0.00110773
0.00111074
0.00112068
0.00112458
0.00113586
0.00114121
0.00115267
0.00115965
0.00105488
0.00105659
0.00105935
0.00106324
0.00106613
0.00107153
0.00107416
0.00108052
0.00108348
0.00109037
0.00109445
0.00110204
0.00110766
0.00111551
0.00112315
0.00113048
0.0011407
0.00103932
0.00104084
0.00104244
0.00104569
0.0010478
0.00105165
0.00105412
0.00105837
0.00106233
0.00106682
0.00107217
0.00107697
0.0010844
0.00108975
0.00109925
0.00110424
0.00111514
0.00101666
0.00101803
0.00101882
0.00102166
0.00102406
0.0010271
0.001031
0.00103405
0.00104037
0.0010444
0.00105217
0.00105668
0.00106525
0.0010703
0.001081
0.00108669
0.00109823
0.000998858
0.000999063
0.00100128
0.00100308
0.00100732
0.00100923
0.00101415
0.00101567
0.00102152
0.00102479
0.00103271
0.00103727
0.00104596
0.00104975
0.00105947
0.00106424
0.0010761
0.000978297
0.000978005
0.000979839
0.000980529
0.000984174
0.000985256
0.00098955
0.000990378
0.000995312
0.000998092
0.00100617
0.00101135
0.00102114
0.00102519
0.00103336
0.00103591
0.00104504
0.000952414
0.000952452
0.000952411
0.000953698
0.000955896
0.000958062
0.00096283
0.000965282
0.000971523
0.00097545
0.000984498
0.000991009
0.00100191
0.00100718
0.00101541
0.00101675
0.00102316
0.000929944
0.000929422
0.00092949
0.000929318
0.000930882
0.000931965
0.000936327
0.000938577
0.000944523
0.000947727
0.000956083
0.000961889
0.000973
0.000979168
0.000988749
0.000990749
0.000996698
0.000903801
0.000902714
0.000902151
0.000901167
0.00090256
0.000903419
0.000908426
0.000911815
0.000919101
0.000923614
0.000932957
0.000939733
0.000951951
0.000959693
0.000970949
0.000974339
0.000980661
0.000879458
0.000878342
0.000878963
0.000877952
0.00087987
0.000880665
0.000885051
0.000888115
0.000894059
0.000897074
0.00090402
0.00090806
0.000918107
0.000924908
0.000937031
0.000942218
0.000951164
0.000852387
0.00085121
0.000851215
0.000850512
0.000852005
0.000853202
0.000857096
0.000859807
0.000864848
0.000866612
0.000871889
0.000874227
0.000882831
0.000889965
0.000904365
0.000913997
0.00092772
0.000824234
0.000823457
0.000824047
0.000823452
0.000825275
0.00082644
0.000830242
0.000832736
0.000837306
0.000839086
0.000843961
0.000845683
0.000852737
0.000857946
0.000870308
0.000879547
0.000893911
0.000794145
0.000794074
0.000795006
0.000795169
0.000796429
0.000796771
0.000798347
0.000798606
0.000800712
0.000800671
0.00080421
0.000804878
0.000810377
0.000813303
0.000822013
0.000827856
0.000839269
0.000758035
0.000760858
0.000764741
0.000767136
0.000768739
0.000767453
0.00076625
0.000763677
0.000763996
0.000764327
0.000768922
0.000772132
0.000779548
0.00078402
0.000792793
0.000797936
0.000807667
0.000722222
0.000727649
0.000733813
0.000737159
0.000736408
0.000730611
0.000723164
0.000715373
0.000711802
0.000710813
0.000715136
0.000719671
0.000727877
0.000733371
0.000742236
0.000747511
0.000756752
0.000683306
0.000688199
0.000693115
0.000695103
0.000692666
0.000685871
0.000677365
0.000670628
0.00066836
0.000670248
0.000677125
0.000684282
0.000694268
0.000701452
0.000709932
0.000715601
0.00072346
0.000653034
0.000649869
0.000646714
0.000643558
0.000640057
0.000636109
0.000632387
0.000628432
0.00062678
0.000626589
0.000630432
0.000634647
0.000642077
0.000647378
0.000654423
0.00065952
0.000666291
0.000603141
0.000599462
0.000596862
0.000595583
0.000602031
0.000611036
0.000624371
0.000635312
0.000640858
0.000644235
0.000643399
0.000645211
0.000647106
0.000652229
0.000654814
0.000660336
0.000662817
0.000667339
0.000623793
0.000612191
0.000612024
0.000613444
0.000636068
0.000648987
0.000672059
0.000677929
0.000673181
0.000666703
0.0006478
0.000640511
0.000638899
0.000637948
0.000638081
0.000649204
0.000649819
0.000654288
0.000333386
0.000338214
0.000343197
0.000346065
0.000348081
0.00034699
0.00034655
0.000344558
0.000344047
0.000344051
0.00034321
0.000343365
0.00034246
0.000341088
0.000340133
0.000340136
0.000339024
0.000339542
0.00105843
0.00105884
0.00106086
0.00106332
0.00106628
0.00107063
0.00107388
0.00107964
0.00108326
0.00109107
0.00109434
0.00110507
0.00110824
0.00112219
0.00112539
0.00114136
0.00114522
0.00104461
0.00104597
0.00104734
0.00105176
0.00105371
0.00105983
0.00106157
0.00106866
0.00107042
0.00107871
0.00108084
0.00109046
0.00109362
0.00110481
0.00110998
0.0011217
0.00112959
0.00103463
0.00103551
0.00103707
0.00104049
0.00104232
0.00104738
0.00104909
0.00105502
0.00105722
0.00106357
0.00106695
0.0010741
0.00107935
0.00108695
0.00109475
0.00110196
0.00111289
0.00101999
0.00102068
0.00102132
0.00102406
0.00102551
0.00102886
0.00103071
0.00103417
0.00103758
0.00104137
0.00104622
0.00105032
0.00105741
0.00106228
0.001072
0.0010769
0.00108849
0.000997737
0.000998217
0.000998218
0.00100023
0.00100227
0.00100454
0.00100816
0.00101022
0.001016
0.00101933
0.0010267
0.00103074
0.00103907
0.00104345
0.00105411
0.00105969
0.00107197
0.000980431
0.000979869
0.000981329
0.000982247
0.00098623
0.000987627
0.000992445
0.00099336
0.000998511
0.00100089
0.00100828
0.00101239
0.00102129
0.00102478
0.00103451
0.00103897
0.00105114
0.000960487
0.000959532
0.000960782
0.000960674
0.000964031
0.000964655
0.00096889
0.000969229
0.000973439
0.000975034
0.000982284
0.00098673
0.00099681
0.00100123
0.00101007
0.00101264
0.00102209
0.000935021
0.000934663
0.000934056
0.000934465
0.000936366
0.000937624
0.000942305
0.000944096
0.000949772
0.000952601
0.00096077
0.000966535
0.000977766
0.000983727
0.000993177
0.000995227
0.00100221
0.000913314
0.000912594
0.000912347
0.000911567
0.00091265
0.000912742
0.000916648
0.000918152
0.000923611
0.000925835
0.000933321
0.000938231
0.000949301
0.000955932
0.000966803
0.000969951
0.000976756
0.000888
0.000886692
0.000886002
0.000884367
0.000885217
0.000884963
0.000889176
0.000891675
0.000898386
0.000901943
0.000910412
0.000916187
0.000928162
0.000936281
0.000948955
0.000953996
0.000961865
0.000864368
0.00086306
0.000863537
0.000862131
0.000863464
0.000863446
0.000867039
0.000869384
0.0008751
0.000877565
0.000884114
0.000887272
0.000896667
0.000903057
0.000915767
0.000922024
0.000932568
0.000838318
0.000836998
0.000836855
0.000835706
0.00083665
0.000837068
0.000840394
0.000842568
0.000847653
0.000849158
0.000854161
0.000855493
0.000862725
0.000868239
0.000881898
0.000891775
0.000907148
0.000811135
0.000810316
0.000810789
0.000809912
0.000811162
0.000811753
0.000815025
0.00081709
0.000821563
0.000823
0.000827674
0.000828775
0.000834876
0.000838842
0.000850239
0.000859224
0.000874483
0.000782178
0.000781923
0.000782823
0.000783046
0.000784423
0.000784886
0.0007866
0.000786718
0.000788686
0.000788026
0.000790985
0.000790935
0.00079561
0.000797766
0.000805687
0.000811073
0.000822349
0.000747342
0.000749692
0.000753758
0.00075719
0.000760232
0.000760439
0.000760025
0.000757287
0.000756557
0.000755249
0.000758272
0.000760141
0.000766542
0.000770488
0.000778791
0.000783906
0.000793406
0.000716525
0.000721165
0.000727957
0.000733595
0.000736006
0.000733035
0.000726858
0.000718342
0.000712498
0.000708464
0.000709981
0.000712408
0.000719247
0.000724182
0.000732635
0.000737955
0.000746907
0.000689636
0.000693703
0.000698866
0.000702449
0.000702573
0.00069796
0.000690169
0.000682047
0.000676909
0.000675265
0.000679025
0.000683923
0.000692547
0.000699436
0.000707684
0.000713557
0.000721218
0.000673688
0.000670314
0.000666762
0.000663892
0.000661413
0.000658864
0.000656837
0.00065362
0.000651879
0.000650311
0.000652514
0.000654841
0.000661134
0.000665585
0.000671944
0.000676598
0.000682632
0.000630173
0.000626409
0.000623617
0.000620852
0.000627609
0.000637307
0.000653533
0.000669088
0.000678703
0.000686024
0.000686876
0.000689444
0.000691282
0.000696983
0.000699298
0.000705412
0.000707888
0.00071233
0.000676736
0.000661545
0.000658414
0.000654265
0.000676542
0.000688588
0.000714908
0.000725659
0.000723768
0.000720623
0.000701646
0.000692166
0.000689889
0.000689402
0.000687628
0.000700462
0.000702509
0.000707884
0.000382893
0.000387604
0.000393497
0.000397696
0.00040167
0.000401201
0.000401081
0.000398346
0.000396853
0.000396434
0.000395129
0.00039539
0.000394934
0.000393643
0.000392252
0.000392224
0.000390525
0.000390551
0.00103806
0.00103739
0.00103811
0.0010396