/*--------------------------------*- C++ -*----------------------------------*\
  =========                 |
  \\      /  F ield         | OpenFOAM: The Open Source CFD Toolbox
   \\    /   O peration     | Website:  https://openfoam.org
    \\  /    A nd           | Version:  6
     \\/     M anipulation  |
\*---------------------------------------------------------------------------*/
FoamFile
{
    version     2.0;
    format      ascii;
    class       volScalarField;
    location    "1.8";
    object      p;
}
// * * * * * * * * * * * * * * * * * * * * * * * * * * * * * * * * * * * * * //

dimensions      [0 2 -2 0 0 0 0];

internalField   nonuniform List<scalar> 
63280
(
0.00387771
0.00346968
0.00307533
0.00269793
0.00234037
0.00200568
0.00169641
0.00141503
0.00116281
0.000941691
0.000752405
0.000596212
0.000472535
0.000381719
0.000321674
0.000291192
0.000287424
0.00394589
0.00356538
0.0031971
0.00284423
0.00250906
0.00219447
0.00190212
0.00163419
0.0013917
0.00117636
0.000988787
0.000829988
0.000699702
0.000598037
0.000523806
0.000475879
0.000452543
0.00403738
0.00367712
0.00332819
0.00299331
0.0026746
0.00237443
0.00209438
0.0018366
0.00160235
0.00139307
0.00120942
0.00105198
0.000920661
0.00081509
0.000734605
0.000677837
0.000643668
0.00410304
0.00376274
0.00343289
0.00311575
0.00281333
0.00252764
0.00226044
0.0020132
0.0017873
0.00158368
0.00140322
0.0012461
0.00111265
0.0010023
0.000914815
0.000848893
0.000803863
0.00417643
0.00385244
0.00353816
0.00323536
0.00294614
0.00267189
0.00241446
0.00217507
0.00195535
0.00175608
0.00157821
0.00142179
0.00128711
0.00117355
0.00108096
0.00100818
0.000954722
0.00423449
0.00392559
0.00362567
0.00333621
0.00305921
0.00279592
0.00254801
0.00231662
0.00210315
0.00190835
0.00173311
0.00157747
0.00144176
0.00132539
0.0012283
0.00114945
0.00108863
0.00429324
0.00399731
0.00370963
0.00343146
0.00316466
0.00291038
0.00267015
0.00244511
0.00223661
0.00204536
0.00187226
0.00171733
0.00158087
0.00146234
0.00136171
0.00127798
0.00121108
0.00434224
0.00405796
0.00378119
0.00351317
0.00325555
0.00300935
0.00277612
0.0025568
0.00235284
0.00216482
0.00199367
0.00183937
0.00170223
0.00158175
0.001478
0.0013901
0.00131807
0.00438592
0.00411122
0.00384346
0.00358365
0.00333331
0.00309343
0.00286554
0.00265066
0.00245019
0.00226473
0.00209515
0.00194141
0.00180377
0.00168176
0.00157548
0.00148422
0.00140802
0.00442045
0.00415356
0.00389311
0.00363998
0.00339559
0.00316091
0.00293742
0.00272611
0.00252843
0.00234497
0.00217656
0.00202318
0.00188505
0.00176171
0.00165333
0.00155932
0.00147986
0.0044511
0.00419104
0.00393699
0.00368968
0.00345031
0.00321981
0.00299959
0.0027909
0.00259523
0.00241331
0.00224591
0.00209292
0.00195448
0.00183008
0.00171992
0.00162347
0.00154113
0.00447704
0.00422277
0.00397405
0.00373155
0.0034963
0.00326926
0.00305188
0.00284546
0.00265163
0.00247109
0.00230462
0.002152
0.00201327
0.00188785
0.00177599
0.00167726
0.00159225
0.00449917
0.00425011
0.00400621
0.00376798
0.00353633
0.00331202
0.0030965
0.0028913
0.00269827
0.00251841
0.00235252
0.00220031
0.00206159
0.0019356
0.00182247
0.00172181
0.0016344
0.00451855
0.00427381
0.00403381
0.00379896
0.00356996
0.00334765
0.00313364
0.00292965
0.00273771
0.00255885
0.00239386
0.00224226
0.00210367
0.0019772
0.00186287
0.00176036
0.00167054
0.00453368
0.00429293
0.00405657
0.00382486
0.00359833
0.00337759
0.00316428
0.0029604
0.00276844
0.00258981
0.00242528
0.00227419
0.00213581
0.00200905
0.00189378
0.00178975
0.00169796
0.0045484
0.00431072
0.00407707
0.00384758
0.00362253
0.00340257
0.00318967
0.00298619
0.00279482
0.00261698
0.00245326
0.00230279
0.00216454
0.00203726
0.00192079
0.00181505
0.00172119
0.00455782
0.00432331
0.00409241
0.00386512
0.00364149
0.00342217
0.00320904
0.00300488
0.00281298
0.00263509
0.00247192
0.00232202
0.00218392
0.00205632
0.00193892
0.00183187
0.00173654
0.0045703
0.00433794
0.0041084
0.0038814
0.00365734
0.00343708
0.00322337
0.00301937
0.00282839
0.00265145
0.00248902
0.00233941
0.00220102
0.00207259
0.00195387
0.00184535
0.00174862
0.00480721
0.00457508
0.00434496
0.00411674
0.00389009
0.00366599
0.0034452
0.00323114
0.00302702
0.00283638
0.00265991
0.00249796
0.00234841
0.00220962
0.00208049
0.00196097
0.00185159
0.00175413
0.00481399
0.00458341
0.00435437
0.00412563
0.00389757
0.00367215
0.00345043
0.00323788
0.0030354
0.00284657
0.00267093
0.00250837
0.00235753
0.00221766
0.00208711
0.00196643
0.00185641
0.00175864
0.00481485
0.00458713
0.00435911
0.00413008
0.00390117
0.00367542
0.00345342
0.00323987
0.00303636
0.00284696
0.00267116
0.00250817
0.00235705
0.00221706
0.00208651
0.00196577
0.00185537
0.00175695
0.00387854
0.00347045
0.00307598
0.00269844
0.0023407
0.00200582
0.00169636
0.00141475
0.00116231
0.000940998
0.000751577
0.000595268
0.000471525
0.00038066
0.000320616
0.000290152
0.000286441
0.00394638
0.00356579
0.00319744
0.00284446
0.0025092
0.0021945
0.00190204
0.00163397
0.00139138
0.00117594
0.000988283
0.000829407
0.000699067
0.000597359
0.000523108
0.000475171
0.000451839
0.0040377
0.00367739
0.00332841
0.00299347
0.00267469
0.00237445
0.00209433
0.00183648
0.00160215
0.0013928
0.0012091
0.0010516
0.000920245
0.000814644
0.000734141
0.000677366
0.000643195
0.00410327
0.00376294
0.00343306
0.00311588
0.00281343
0.0025277
0.00226045
0.00201316
0.0017872
0.00158353
0.00140301
0.00124585
0.00111236
0.00100197
0.00091446
0.000848527
0.000803487
0.00417661
0.0038526
0.0035383
0.00323547
0.00294623
0.00267194
0.00241447
0.00217505
0.00195528
0.00175597
0.00157806
0.00142161
0.00128689
0.0011733
0.00108069
0.0010079
0.000954423
0.00423462
0.00392571
0.00362577
0.00333629
0.00305926
0.00279596
0.00254802
0.00231661
0.0021031
0.00190827
0.001733
0.00157734
0.0014416
0.00132521
0.0012281
0.00114924
0.0010884
0.00429335
0.00399741
0.00370972
0.00343154
0.00316472
0.00291043
0.00267018
0.00244511
0.00223658
0.0020453
0.00187218
0.00171723
0.00158075
0.00146221
0.00136157
0.00127783
0.00121092
0.00434233
0.00405804
0.00378127
0.00351324
0.0032556
0.00300939
0.00277614
0.00255681
0.00235282
0.00216477
0.00199359
0.00183927
0.00170212
0.00158164
0.00147788
0.00138998
0.00131795
0.00438599
0.0041113
0.00384354
0.00358372
0.00333337
0.00309348
0.00286557
0.00265066
0.00245017
0.00226469
0.00209509
0.00194132
0.00180366
0.00168165
0.00157537
0.00148412
0.00140792
0.00442052
0.00415363
0.00389318
0.00364005
0.00339565
0.00316095
0.00293743
0.00272611
0.0025284
0.00234493
0.0021765
0.0020231
0.00188495
0.00176161
0.00165322
0.00155921
0.00147976
0.00445116
0.0041911
0.00393705
0.00368974
0.00345036
0.00321985
0.00299961
0.0027909
0.00259521
0.00241328
0.00224587
0.00209287
0.00195442
0.00183
0.00171982
0.00162337
0.00154102
0.00447709
0.00422282
0.0039741
0.00373159
0.00349634
0.00326928
0.00305189
0.00284546
0.00265161
0.00247107
0.00230459
0.00215197
0.00201323
0.00188779
0.0017759
0.00167715
0.00159214
0.00449922
0.00425016
0.00400626
0.00376803
0.00353637
0.00331204
0.0030965
0.00289129
0.00269825
0.00251838
0.00235249
0.00220027
0.00206155
0.00193555
0.00182241
0.00172174
0.00163431
0.00451859
0.00427384
0.00403385
0.00379899
0.00356998
0.00334767
0.00313365
0.00292964
0.00273769
0.00255883
0.00239383
0.00224223
0.00210364
0.00197718
0.00186285
0.00176032
0.00167049
0.00453371
0.00429295
0.00405658
0.00382488
0.00359834
0.00337761
0.00316429
0.0029604
0.00276842
0.00258978
0.00242524
0.00227415
0.00213577
0.00200902
0.00189375
0.00178973
0.00169792
0.00454843
0.00431074
0.00407708
0.00384759
0.00362254
0.0034026
0.00318969
0.00298621
0.00279481
0.00261696
0.00245323
0.00230275
0.0021645
0.00203723
0.00192077
0.00181503
0.00172117
0.00455786
0.00432334
0.00409243
0.00386514
0.00364152
0.0034222
0.00320906
0.00300488
0.00281295
0.00263504
0.00247186
0.00232196
0.00218387
0.00205627
0.00193889
0.00183184
0.00173651
0.00457038
0.00433802
0.00410847
0.00388146
0.00365738
0.00343709
0.00322337
0.00301937
0.00282837
0.00265142
0.00248898
0.00233937
0.00220099
0.00207257
0.00195386
0.00184533
0.0017486
0.00480724
0.00457513
0.00434502
0.00411679
0.00389011
0.00366596
0.00344513
0.00323105
0.00302693
0.0028363
0.00265986
0.00249793
0.0023484
0.00220961
0.00208049
0.00196097
0.00185158
0.00175411
0.00481399
0.00458342
0.00435438
0.00412563
0.00389753
0.00367207
0.00345029
0.00323773
0.00303528
0.00284647
0.0026709
0.00250837
0.00235754
0.00221771
0.00208716
0.00196648
0.00185648
0.00175873
0.00481516
0.0045875
0.00435948
0.00413028
0.00390104
0.00367499
0.00345289
0.00323948
0.00303618
0.00284691
0.00267116
0.00250818
0.00235705
0.00221707
0.00208653
0.00196583
0.0018555
0.00175715
0.00387851
0.00347042
0.00307596
0.00269845
0.00234073
0.00200587
0.00169643
0.00141484
0.00116245
0.000941167
0.000751769
0.000595454
0.000471709
0.00038082
0.000320766
0.00029027
0.000286542
0.00394638
0.00356581
0.00319746
0.0028445
0.00250925
0.00219455
0.0019021
0.00163405
0.00139147
0.00117603
0.000988377
0.00082949
0.000699139
0.000597409
0.000523137
0.000475166
0.000451806
0.00403776
0.00367746
0.00332848
0.00299353
0.00267477
0.00237452
0.00209441
0.00183654
0.00160223
0.00139288
0.00120917
0.00105166
0.000920297
0.000814686
0.000734171
0.000677384
0.000643192
0.00410331
0.00376299
0.00343311
0.00311592
0.00281347
0.00252774
0.00226049
0.0020132
0.00178724
0.00158356
0.00140304
0.00124588
0.00111238
0.00100199
0.000914465
0.000848524
0.000803467
0.00417668
0.00385266
0.00353836
0.00323552
0.00294628
0.00267199
0.00241452
0.0021751
0.00195532
0.00175601
0.00157809
0.00142163
0.0012869
0.00117331
0.00108068
0.00100787
0.000954379
0.00423469
0.00392577
0.00362583
0.00333635
0.00305931
0.00279601
0.00254807
0.00231666
0.00210314
0.0019083
0.00173301
0.00157733
0.00144159
0.0013252
0.00122807
0.00114921
0.00108835
0.00429342
0.00399748
0.00370978
0.0034316
0.00316477
0.00291047
0.00267021
0.00244514
0.00223661
0.00204532
0.00187218
0.00171721
0.00158072
0.00146218
0.00136153
0.00127779
0.00121088
0.00434239
0.0040581
0.00378133
0.00351329
0.00325565
0.00300944
0.00277618
0.00255685
0.00235285
0.0021648
0.0019936
0.00183925
0.00170207
0.00158158
0.00147782
0.00138992
0.00131789
0.00438606
0.00411136
0.00384361
0.00358379
0.00333343
0.00309353
0.0028656
0.00265069
0.00245019
0.00226471
0.00209509
0.00194131
0.00180363
0.0016816
0.00157531
0.00148406
0.00140786
0.00442058
0.00415369
0.00389324
0.00364011
0.00339571
0.00316101
0.00293748
0.00272615
0.00252843
0.00234495
0.00217651
0.00202309
0.00188491
0.00176155
0.00165314
0.00155913
0.00147967
0.00445123
0.00419117
0.00393712
0.00368981
0.00345043
0.00321991
0.00299965
0.00279092
0.00259522
0.00241328
0.00224587
0.00209287
0.0019544
0.00182997
0.00171977
0.0016233
0.00154093
0.00447715
0.00422288
0.00397417
0.00373166
0.0034964
0.00326932
0.00305191
0.00284546
0.0026516
0.00247106
0.0023046
0.00215199
0.00201325
0.0018878
0.00177588
0.00167709
0.00159204
0.00449928
0.00425023
0.00400633
0.0037681
0.00353643
0.00331209
0.00309653
0.00289129
0.00269824
0.00251837
0.00235247
0.00220027
0.00206155
0.00193555
0.00182239
0.00172169
0.00163423
0.00451865
0.0042739
0.0040339
0.00379903
0.00357002
0.00334769
0.00313366
0.00292964
0.00273768
0.00255881
0.00239381
0.00224222
0.00210363
0.00197718
0.00186285
0.00176033
0.00167046
0.00453379
0.004293
0.00405661
0.00382489
0.00359836
0.00337763
0.00316432
0.00296043
0.00276843
0.00258977
0.0024252
0.00227411
0.00213573
0.00200899
0.00189373
0.00178972
0.0016979
0.00454851
0.00431077
0.00407706
0.00384756
0.00362252
0.00340262
0.00318973
0.00298624
0.00279484
0.00261695
0.0024532
0.00230271
0.00216446
0.00203721
0.00192076
0.00181504
0.00172118
0.00455795
0.00432339
0.00409244
0.00386513
0.00364153
0.00342224
0.00320912
0.00300493
0.00281296
0.00263502
0.00247179
0.00232189
0.00218379
0.00205623
0.00193886
0.00183183
0.0017365
0.00457048
0.00433812
0.00410856
0.00388153
0.00365743
0.00343712
0.00322338
0.00301936
0.00282834
0.00265139
0.00248893
0.00233933
0.00220097
0.00207257
0.00195387
0.00184535
0.0017486
0.00480728
0.00457521
0.00434514
0.00411693
0.00389023
0.00366602
0.0034451
0.00323093
0.00302676
0.00283613
0.00265973
0.00249785
0.00234836
0.00220962
0.00208052
0.001961
0.00185161
0.00175412
0.00481395
0.00458344
0.00435447
0.00412579
0.00389767
0.00367213
0.00345019
0.00323744
0.00303494
0.00284613
0.0026707
0.00250831
0.00235753
0.00221779
0.00208727
0.00196658
0.00185661
0.00175889
0.00481538
0.00458779
0.0043598
0.0041305
0.00390104
0.00367475
0.00345253
0.00323916
0.003036
0.00284686
0.00267121
0.00250828
0.00235721
0.00221729
0.00208678
0.00196612
0.00185587
0.00175759
0.00387872
0.00347064
0.00307617
0.00269865
0.00234092
0.00200605
0.00169659
0.00141498
0.00116257
0.000941264
0.00075185
0.000595494
0.000471725
0.000380789
0.000320719
0.000290186
0.000286458
0.00394654
0.00356596
0.00319761
0.00284463
0.00250938
0.00219466
0.00190221
0.00163413
0.00139153
0.00117607
0.000988393
0.000829469
0.000699089
0.000597314
0.00052301
0.000474988
0.00045159
0.00403791
0.00367761
0.00332862
0.00299367
0.0026749
0.00237464
0.00209452
0.00183663
0.00160231
0.00139293
0.0012092
0.00105167
0.000920287
0.000814653
0.000734116
0.000677312
0.000643089
0.00410343
0.0037631
0.00343322
0.00311603
0.00281358
0.00252784
0.00226058
0.00201327
0.0017873
0.00158361
0.00140308
0.00124591
0.00111238
0.00100197
0.000914429
0.000848477
0.000803394
0.0041768
0.00385278
0.00353848
0.00323564
0.00294639
0.0026721
0.00241462
0.00217519
0.00195539
0.00175607
0.00157813
0.00142166
0.00128692
0.00117331
0.00108066
0.00100783
0.000954304
0.00423479
0.00392588
0.00362593
0.00333645
0.0030594
0.0027961
0.00254815
0.00231674
0.00210321
0.00190836
0.00173304
0.00157735
0.00144159
0.00132519
0.00122805
0.00114918
0.00108829
0.00429353
0.00399759
0.00370989
0.0034317
0.00316486
0.00291055
0.00267029
0.00244522
0.00223668
0.00204538
0.00187221
0.00171722
0.0015807
0.00146216
0.00136151
0.00127777
0.00121084
0.00434249
0.00405819
0.00378143
0.00351339
0.00325575
0.00300954
0.00277626
0.00255694
0.00235293
0.00216487
0.00199364
0.00183927
0.00170206
0.00158155
0.00147777
0.00138988
0.00131784
0.00438615
0.00411146
0.00384371
0.0035839
0.00333354
0.00309363
0.00286569
0.00265077
0.00245025
0.00226476
0.00209512
0.00194133
0.00180362
0.00168158
0.00157527
0.00148401
0.00140781
0.00442066
0.00415377
0.00389333
0.00364022
0.00339582
0.00316111
0.00293756
0.00272623
0.00252849
0.00234502
0.00217656
0.00202313
0.00188492
0.00176153
0.00165308
0.00155906
0.00147959
0.00445132
0.00419127
0.00393722
0.00368992
0.00345054
0.00322001
0.00299973
0.00279097
0.00259525
0.00241331
0.00224589
0.0020929
0.00195442
0.00182998
0.00171975
0.00162326
0.00154086
0.00447723
0.00422298
0.00397426
0.00373175
0.00349648
0.0032694
0.00305196
0.00284548
0.00265161
0.00247108
0.00230463
0.00215206
0.00201333
0.00188788
0.00177591
0.00167708
0.00159197
0.00449937
0.00425033
0.00400643
0.0037682
0.00353652
0.00331217
0.0030966
0.00289134
0.00269826
0.00251837
0.00235247
0.00220028
0.00206158
0.0019356
0.00182242
0.00172169
0.00163418
0.00451874
0.00427399
0.00403397
0.0037991
0.00357007
0.00334774
0.00313369
0.00292966
0.00273767
0.0025588
0.00239378
0.00224221
0.00210364
0.00197722
0.0018629
0.00176037
0.00167049
0.0045339
0.0042931
0.00405668
0.00382494
0.00359839
0.00337768
0.00316437
0.00296048
0.00276847
0.00258978
0.00242519
0.00227409
0.0021357
0.00200899
0.00189375
0.00178975
0.00169793
0.00454864
0.00431086
0.00407709
0.00384755
0.00362251
0.00340262
0.00318976
0.00298628
0.00279486
0.00261696
0.00245317
0.00230268
0.00216443
0.00203722
0.0019208
0.0018151
0.00172124
0.00455808
0.00432349
0.00409251
0.00386517
0.00364156
0.00342229
0.00320919
0.003005
0.002813
0.002635
0.00247173
0.00232182
0.00218373
0.0020562
0.00193886
0.00183186
0.00173653
0.00457056
0.00433823
0.0041087
0.00388168
0.00365757
0.00343722
0.0032234
0.00301931
0.00282822
0.00265125
0.0024888
0.00233925
0.00220093
0.0020726
0.00195393
0.00184543
0.00174867
0.00480729
0.00457527
0.00434528
0.0041172
0.00389058
0.00366638
0.00344534
0.00323096
0.00302661
0.00283585
0.00265944
0.00249763
0.00234825
0.00220959
0.00208057
0.00196107
0.00185167
0.00175418
0.00481386
0.00458343
0.0043546
0.00412615
0.00389815
0.00367261
0.00345043
0.00323731
0.00303457
0.00284557
0.00267028
0.0025081
0.00235743
0.00221785
0.00208741
0.00196667
0.00185671
0.00175905
0.00481544
0.0045879
0.00435996
0.00413071
0.00390122
0.00367487
0.00345256
0.00323913
0.00303596
0.00284684
0.00267127
0.00250838
0.00235736
0.00221751
0.00208703
0.00196637
0.00185615
0.0017579
0.00387883
0.00347077
0.00307632
0.00269881
0.0023411
0.00200623
0.00169679
0.00141518
0.0011628
0.000941504
0.000752111
0.000595736
0.000471966
0.000380992
0.000320919
0.000290345
0.000286625
0.00394664
0.00356607
0.00319774
0.00284475
0.00250952
0.00219479
0.00190235
0.00163425
0.00139166
0.00117619
0.000988513
0.000829565
0.000699171
0.000597354
0.000523023
0.000474947
0.000451502
0.00403803
0.00367774
0.00332876
0.0029938
0.00267505
0.00237477
0.00209466
0.00183675
0.00160243
0.00139305
0.00120932
0.00105177
0.000920372
0.00081472
0.000734163
0.000677344
0.000643087
0.00410352
0.0037632
0.00343332
0.00311612
0.00281368
0.00252794
0.00226068
0.00201338
0.00178739
0.00158371
0.00140317
0.001246
0.00111247
0.00100205
0.000914486
0.000848529
0.00080342
0.0041769
0.00385289
0.00353859
0.00323575
0.00294651
0.00267223
0.00241474
0.00217532
0.0019555
0.00175618
0.00157822
0.00142175
0.00128701
0.0011734
0.00108072
0.00100788
0.000954313
0.00423488
0.00392598
0.00362604
0.00333656
0.0030595
0.00279621
0.00254825
0.00231685
0.00210331
0.00190846
0.00173312
0.00157742
0.00144164
0.00132525
0.0012281
0.00114922
0.0010883
0.00429362
0.0039977
0.00371
0.00343182
0.00316496
0.00291066
0.00267038
0.00244532
0.00223677
0.00204547
0.00187229
0.00171728
0.00158073
0.00146218
0.00136152
0.0012778
0.00121085
0.00434257
0.00405828
0.00378154
0.0035135
0.00325586
0.00300966
0.00277637
0.00255706
0.00235303
0.00216498
0.00199373
0.00183934
0.00170209
0.00158157
0.00147776
0.00138987
0.00131783
0.00438623
0.00411155
0.00384381
0.00358402
0.00333366
0.00309376
0.00286579
0.00265087
0.00245033
0.00226485
0.0020952
0.0019414
0.00180367
0.0016816
0.00157526
0.001484
0.00140779
0.00442073
0.00415386
0.00389343
0.00364034
0.00339594
0.00316125
0.00293768
0.00272634
0.00252859
0.00234512
0.00217665
0.00202322
0.00188499
0.00176157
0.00165308
0.00155902
0.00147952
0.00445141
0.00419137
0.00393733
0.00369004
0.00345067
0.00322014
0.00299984
0.00279106
0.00259531
0.00241336
0.00224593
0.00209296
0.00195448
0.00183004
0.00171977
0.00162326
0.00154081
0.00447732
0.00422307
0.00397437
0.00373187
0.0034966
0.0032695
0.00305204
0.00284554
0.00265163
0.00247111
0.00230466
0.00215213
0.00201344
0.00188802
0.00177603
0.00167716
0.00159196
0.00449947
0.00425044
0.00400654
0.00376832
0.00353664
0.00331228
0.00309669
0.00289141
0.0026983
0.00251841
0.00235248
0.00220032
0.00206163
0.00193568
0.0018225
0.00172176
0.00163418
0.00451885
0.0042741
0.00403407
0.00379919
0.00357015
0.00334781
0.00313374
0.00292969
0.00273768
0.0025588
0.00239376
0.0022422
0.00210364
0.00197726
0.00186296
0.00176046
0.00167055
0.00453405
0.00429324
0.00405679
0.00382503
0.00359846
0.00337774
0.00316444
0.00296056
0.00276854
0.00258983
0.00242519
0.00227408
0.00213569
0.00200901
0.00189378
0.00178982
0.00169799
0.0045488
0.004311
0.00407719
0.0038476
0.00362252
0.00340264
0.00318979
0.00298632
0.00279489
0.00261696
0.00245314
0.00230264
0.0021644
0.00203723
0.00192085
0.0018152
0.00172134
0.00455822
0.00432363
0.00409263
0.00386527
0.00364166
0.00342241
0.00320932
0.00300512
0.00281306
0.00263501
0.00247167
0.00232174
0.00218366
0.00205618
0.00193889
0.00183193
0.00173661
0.00457057
0.00433829
0.00410883
0.0038819
0.00365787
0.00343752
0.00322359
0.00301934
0.00282809
0.00265102
0.00248856
0.00233906
0.00220083
0.00207261
0.00195402
0.00184556
0.00174879
0.00480724
0.00457526
0.00434539
0.00411752
0.00389113
0.00366708
0.00344602
0.00323136
0.00302667
0.0028356
0.00265904
0.00249727
0.00234802
0.00220951
0.00208064
0.00196119
0.00185178
0.00175427
0.0048137
0.00458333
0.00435465
0.00412652
0.0038988
0.00367342
0.0034511
0.0032375
0.00303436
0.00284496
0.00266966
0.00250773
0.00235723
0.00221786
0.0020876
0.00196682
0.00185682
0.0017592
0.00481543
0.00458791
0.00436002
0.00413085
0.00390138
0.00367503
0.00345267
0.00323919
0.00303598
0.00284686
0.00267134
0.00250848
0.00235748
0.00221768
0.00208722
0.00196657
0.00185636
0.00175811
0.00387886
0.00347083
0.0030764
0.00269891
0.00234124
0.0020064
0.001697
0.00141542
0.00116309
0.000941837
0.000752495
0.000596124
0.000472376
0.000381374
0.000321314
0.000290704
0.000287002
0.0039467
0.00356614
0.00319784
0.00284484
0.00250964
0.00219492
0.0019025
0.0016344
0.00139184
0.00117637
0.0009887
0.000829739
0.000699344
0.000597492
0.000523145
0.000475016
0.000451523
0.0040381
0.00367782
0.00332887
0.00299391
0.00267518
0.0023749
0.0020948
0.00183689
0.00160258
0.00139321
0.00120948
0.00105193
0.000920523
0.000814857
0.000734283
0.000677455
0.000643164
0.00410359
0.00376328
0.00343341
0.0031162
0.00281376
0.00252803
0.00226078
0.00201349
0.0017875
0.00158382
0.00140329
0.00124613
0.0011126
0.00100219
0.000914615
0.000848661
0.000803527
0.00417697
0.00385298
0.00353869
0.00323587
0.00294662
0.00267236
0.00241486
0.00217547
0.00195564
0.00175632
0.00157836
0.00142188
0.00128714
0.00117354
0.00108085
0.00100801
0.0009544
0.00423495
0.00392607
0.00362615
0.00333668
0.00305961
0.00279633
0.00254835
0.00231696
0.00210344
0.00190858
0.00173325
0.00157753
0.00144173
0.00132535
0.0012282
0.00114933
0.00108839
0.00429369
0.00399778
0.0037101
0.00343193
0.00316507
0.00291077
0.00267047
0.00244541
0.00223687
0.00204558
0.0018724
0.00171739
0.00158081
0.00146224
0.00136156
0.00127785
0.0012109
0.00434264
0.00405835
0.00378164
0.00351362
0.00325598
0.00300981
0.00277649
0.00255719
0.00235316
0.00216512
0.00199387
0.00183947
0.00170219
0.00158163
0.00147779
0.00138989
0.00131783
0.0043863
0.00411163
0.00384391
0.00358413
0.00333378
0.00309391
0.00286592
0.00265099
0.00245042
0.00226495
0.00209529
0.0019415
0.00180376
0.00168168
0.00157529
0.00148402
0.00140779
0.0044208
0.00415393
0.00389352
0.00364046
0.00339608
0.00316141
0.00293783
0.00272648
0.00252871
0.00234524
0.00217678
0.00202336
0.00188511
0.00176169
0.00165313
0.00155904
0.00147949
0.00445149
0.00419147
0.00393743
0.00369017
0.0034508
0.00322029
0.00299999
0.00279118
0.00259539
0.00241343
0.00224598
0.00209303
0.00195456
0.00183014
0.00171984
0.0016233
0.00154079
0.0044774
0.00422317
0.00397448
0.003732
0.00349673
0.00326964
0.00305216
0.00284563
0.00265168
0.00247114
0.00230469
0.00215219
0.00201355
0.00188819
0.00177621
0.00167733
0.00159204
0.00449957
0.00425056
0.00400666
0.00376846
0.00353678
0.00331243
0.00309682
0.00289153
0.00269838
0.00251847
0.00235251
0.00220035
0.00206168
0.00193579
0.00182263
0.00172189
0.00163425
0.00451895
0.00427422
0.00403419
0.00379932
0.00357027
0.00334792
0.00313382
0.00292975
0.0027377
0.00255881
0.00239373
0.00224217
0.00210363
0.00197729
0.00186303
0.00176056
0.00167065
0.0045342
0.00429341
0.00405695
0.00382517
0.00359858
0.00337785
0.00316454
0.00296067
0.00276863
0.0025899
0.00242522
0.00227409
0.00213568
0.00200903
0.00189383
0.00178991
0.00169809
0.00454896
0.00431119
0.00407737
0.00384773
0.00362261
0.00340271
0.00318984
0.00298637
0.00279491
0.00261695
0.00245308
0.00230258
0.00216434
0.00203723
0.00192089
0.00181531
0.00172147
0.00455833
0.00432377
0.00409279
0.00386545
0.00364185
0.00342262
0.00320953
0.0030053
0.00281317
0.00263503
0.00247159
0.00232164
0.00218357
0.00205615
0.00193893
0.00183204
0.00173673
0.00457047
0.00433824
0.00410891
0.00388215
0.0036583
0.00343806
0.00322404
0.00301958
0.00282804
0.00265076
0.0024882
0.00233874
0.00220061
0.00207254
0.00195409
0.0018457
0.00174895
0.0048071
0.00457514
0.00434538
0.00411781
0.00389178
0.00366806
0.00344715
0.00323225
0.00302713
0.00283555
0.00265866
0.00249682
0.00234766
0.00220932
0.00208067
0.00196134
0.00185194
0.0017544
0.00481351
0.00458314
0.00435456
0.00412678
0.00389943
0.00367439
0.00345212
0.00323809
0.00303449
0.0028445
0.00266899
0.00250726
0.00235692
0.00221777
0.00208778
0.00196702
0.00185692
0.00175932
0.00481533
0.00458781
0.00435997
0.0041309
0.00390151
0.00367524
0.00345285
0.00323931
0.00303604
0.0028469
0.00267145
0.00250862
0.00235762
0.00221784
0.00208739
0.00196671
0.00185649
0.00175825
0.00387881
0.00347081
0.00307641
0.00269895
0.00234134
0.00200654
0.0016972
0.00141567
0.00116342
0.000942227
0.000752965
0.000596618
0.000472916
0.000381899
0.000321867
0.000291232
0.000287558
0.00394671
0.00356616
0.0031979
0.00284491
0.00250975
0.00219503
0.00190264
0.00163455
0.00139202
0.00117657
0.000988931
0.000829965
0.000699586
0.000597705
0.000523353
0.000475183
0.000451644
0.00403812
0.00367786
0.00332894
0.00299398
0.0026753
0.00237501
0.00209494
0.00183704
0.00160274
0.00139338
0.00120967
0.00105212
0.000920718
0.000815045
0.000734454
0.000677624
0.000643305
0.00410362
0.00376332
0.00343348
0.00311627
0.00281384
0.0025281
0.00226086
0.00201359
0.00178761
0.00158395
0.00140342
0.00124629
0.00111277
0.00100238
0.000914798
0.000848858
0.000803703
0.004177
0.00385303
0.00353877
0.00323596
0.00294672
0.00267249
0.00241498
0.00217562
0.00195579
0.00175648
0.00157852
0.00142204
0.00128729
0.00117372
0.00108103
0.00100819
0.000954553
0.00423499
0.00392613
0.00362623
0.00333679
0.00305972
0.00279645
0.00254846
0.00231708
0.00210356
0.00190873
0.00173339
0.00157768
0.00144186
0.00132549
0.00122833
0.00114949
0.00108854
0.00429373
0.00399784
0.00371017
0.00343205
0.00316519
0.0029109
0.00267058
0.00244551
0.00223697
0.0020457
0.00187253
0.00171754
0.00158093
0.00146233
0.00136163
0.00127793
0.00121097
0.00434268
0.0040584
0.00378171
0.00351374
0.00325611
0.00300997
0.00277664
0.00255733
0.00235329
0.00216526
0.00199403
0.00183965
0.00170234
0.00158175
0.00147786
0.00138994
0.00131786
0.00438636
0.00411168
0.00384398
0.00358424
0.0033339
0.00309407
0.00286607
0.00265113
0.00245053
0.00226505
0.0020954
0.00194164
0.00180389
0.0016818
0.00157537
0.00148406
0.00140781
0.00442084
0.00415399
0.0038936
0.00364057
0.00339622
0.00316159
0.00293801
0.00272665
0.00252885
0.00234537
0.00217691
0.00202352
0.00188528
0.00176186
0.00165326
0.00155912
0.00147951
0.00445154
0.00419155
0.00393753
0.0036903
0.00345095
0.00322046
0.00300017
0.00279136
0.00259551
0.00241352
0.00224605
0.0020931
0.00195465
0.00183027
0.00171996
0.0016234
0.00154082
0.00447745
0.00422326
0.00397458
0.00373213
0.00349689
0.00326982
0.00305232
0.00284579
0.00265177
0.0024712
0.0023047
0.00215222
0.00201362
0.00188835
0.00177642
0.00167756
0.00159221
0.00449965
0.00425066
0.00400678
0.0037686
0.00353694
0.00331261
0.003097
0.0028917
0.00269851
0.00251856
0.00235256
0.00220038
0.00206172
0.00193589
0.00182278
0.00172209
0.00163441
0.00451903
0.00427433
0.00403433
0.00379947
0.00357044
0.00334809
0.00313396
0.00292987
0.00273776
0.00255883
0.00239371
0.00224214
0.00210359
0.00197729
0.00186308
0.00176067
0.00167077
0.00453432
0.00429359
0.00405715
0.00382538
0.00359878
0.00337804
0.00316471
0.00296083
0.00276876
0.00259001
0.00242526
0.0022741
0.00213566
0.00200903
0.00189387
0.00179001
0.00169822
0.00454907
0.00431138
0.00407759
0.00384796
0.00362281
0.00340289
0.00318998
0.00298648
0.00279496
0.00261695
0.00245301
0.00230247
0.00216422
0.00203716
0.0019209
0.00181541
0.00172162
0.00455837
0.00432386
0.00409294
0.00386566
0.00364213
0.00342296
0.00320988
0.00300563
0.00281339
0.00263512
0.00247152
0.00232151
0.00218343
0.00205608
0.00193896
0.00183216
0.00173689
0.00457029
0.00433807
0.00410888
0.00388236
0.00365878
0.00343881
0.00322481
0.00302016
0.00282824
0.00265061
0.00248782
0.00233832
0.00220025
0.00207237
0.0019541
0.00184583
0.00174912
0.00480685
0.00457487
0.0043452
0.00411795
0.00389236
0.0036691
0.00344854
0.00323354
0.00302806
0.00283591
0.00265852
0.00249645
0.00234729
0.00220906
0.00208065
0.00196152
0.00185215
0.00175459
0.00481328
0.0045829
0.00435433
0.00412686
0.00389987
0.00367525
0.00345323
0.00323891
0.00303497
0.00284437
0.00266848
0.00250686
0.00235662
0.00221761
0.00208793
0.00196727
0.00185703
0.0017594
0.00481513
0.00458757
0.0043598
0.00413087
0.00390159
0.00367547
0.00345308
0.00323946
0.00303613
0.00284695
0.00267158
0.00250881
0.0023578
0.002218
0.00208753
0.00196678
0.00185651
0.00175826
0.00387866
0.00347069
0.00307635
0.00269892
0.00234138
0.00200664
0.00169737
0.00141591
0.00116376
0.000942653
0.000753493
0.000597187
0.000473552
0.00038253
0.00032254
0.000291891
0.000288253
0.00394667
0.00356614
0.00319793
0.00284495
0.00250983
0.00219512
0.00190276
0.0016347
0.00139222
0.00117679
0.000989193
0.000830229
0.000699878
0.000597978
0.000523626
0.000475431
0.000451853
0.00403809
0.00367784
0.00332897
0.00299403
0.00267538
0.0023751
0.00209505
0.00183717
0.0016029
0.00139355
0.00120987
0.00105233
0.000920938
0.000815266
0.000734659
0.000677829
0.000643488
0.00410362
0.00376334
0.00343352
0.00311632
0.0028139
0.00252817
0.00226093
0.00201369
0.00178772
0.00158407
0.00140356
0.00124645
0.00111296
0.00100261
0.00091502
0.000849104
0.000803937
0.00417698
0.00385303
0.0035388
0.00323604
0.0029468
0.0026726
0.00241509
0.00217576
0.00195596
0.00175665
0.00157869
0.00142222
0.00128745
0.00117391
0.00108122
0.00100841
0.000954754
0.004235
0.00392616
0.00362628
0.0033369
0.00305983
0.00279657
0.00254858
0.00231719
0.00210369
0.00190887
0.00173355
0.00157786
0.00144201
0.00132565
0.00122849
0.00114968
0.00108873
0.00429373
0.00399787
0.00371022
0.00343214
0.00316531
0.00291103
0.0026707
0.00244561
0.00223707
0.00204582
0.00187266
0.0017177
0.00158108
0.00146247
0.00136172
0.00127803
0.00121105
0.0043427
0.00405843
0.00378176
0.00351385
0.00325623
0.00301015
0.00277682
0.0025575
0.00235344
0.00216542
0.00199419
0.00183985
0.00170253
0.00158192
0.00147797
0.00139003
0.00131791
0.00438639
0.00411172
0.00384402
0.00358432
0.00333402
0.00309423
0.00286625
0.0026513
0.00245067
0.00226517
0.00209551
0.00194178
0.00180404
0.00168196
0.00157549
0.00148414
0.00140785
0.00442086