/*--------------------------------*- C++ -*----------------------------------*\
  =========                 |
  \\      /  F ield         | OpenFOAM: The Open Source CFD Toolbox
   \\    /   O peration     | Website:  https://openfoam.org
    \\  /    A nd           | Version:  6
     \\/     M anipulation  |
\*---------------------------------------------------------------------------*/
FoamFile
{
    version     2.0;
    format      ascii;
    class       volVectorField;
    location    "5";
    object      wallShearStress;
}
// * * * * * * * * * * * * * * * * * * * * * * * * * * * * * * * * * * * * * //

dimensions      [0 2 -2 0 0 0 0];

internalField   uniform (0 0 0);

boundaryField
{
    inlet
    {
        type            calculated;
        value           uniform (0 0 0);
    }
    outlet
    {
        type            calculated;
        value           uniform (0 0 0);
    }
    roughCylinder
    {
        type            calculated;
        value           nonuniform List<vector> 
5120
(
(-8.95472e-05 -0.000103811 -5.24208e-05)
(-0.000158868 -0.000256558 -6.93374e-05)
(-0.000235778 -0.00041009 -1.00316e-05)
(-0.000283232 -0.000487562 4.17197e-05)
(-0.000338523 -0.000549414 8.85745e-05)
(-0.000386495 -0.000580326 0.000127538)
(-0.000428484 -0.000592274 0.000157786)
(-0.00045934 -0.000586193 0.000177816)
(-0.000484498 -0.000574941 0.000191228)
(-0.00050534 -0.000564579 0.000201255)
(-0.00052458 -0.000557688 0.000210158)
(-0.000540763 -0.000553329 0.000216823)
(-0.000551051 -0.000548725 0.00021951)
(-0.000555556 -0.000542959 0.00021834)
(-0.0005581 -0.000538822 0.000214899)
(-0.000563248 -0.000539591 0.000210821)
(-0.000568512 -0.000542401 0.000205094)
(-0.000570979 -0.000544475 0.00019706)
(-0.00056683 -0.000541311 0.000185879)
(-0.000572134 -0.000547086 0.000176771)
(-0.000573975 -0.000550224 0.000165816)
(-0.000578326 -0.000556248 0.000154858)
(-0.000568632 -0.000549694 0.000139938)
(-0.000560682 -0.000544145 0.000125522)
(-0.000580655 -0.000564424 0.000116529)
(-0.000582712 -0.000568499 0.000103112)
(-0.000576588 -0.00056439 8.78191e-05)
(-0.000573529 -0.000563293 7.29529e-05)
(-0.000571103 -0.000562234 5.78366e-05)
(-0.000567911 -0.000560148 4.21003e-05)
(-0.000569207 -0.000562372 2.59657e-05)
(-0.000563218 -0.000557405 8.73448e-06)
(-9.75874e-05 -9.98806e-05 -4.71764e-05)
(-0.000170867 -0.000248122 -7.42088e-05)
(-0.000252149 -0.000400877 -1.84775e-05)
(-0.000302552 -0.000482594 3.28743e-05)
(-0.000359925 -0.000547015 7.98434e-05)
(-0.000409341 -0.000580131 0.000119337)
(-0.000452996 -0.000594283 0.000150058)
(-0.000487127 -0.000592488 0.000171028)
(-0.000515742 -0.00058565 0.0001858)
(-0.000539056 -0.000577623 0.00019723)
(-0.000560357 -0.000571837 0.000207417)
(-0.000576048 -0.000564657 0.000214169)
(-0.000587986 -0.00055994 0.000217724)
(-0.000595655 -0.000556177 0.000217925)
(-0.00059739 -0.00055067 0.000214378)
(-0.000599738 -0.000548336 0.000209372)
(-0.000610544 -0.000555816 0.000205561)
(-0.000612397 -0.000557193 0.000197372)
(-0.000608914 -0.000554835 0.000186584)
(-0.000612727 -0.000559147 0.00017707)
(-0.000614988 -0.000562646 0.000166357)
(-0.000620451 -0.000569452 0.000155702)
(-0.000612343 -0.000564823 0.000141352)
(-0.000602463 -0.000558042 0.000126657)
(-0.000622599 -0.000577542 0.00011745)
(-0.000629278 -0.000585748 0.000104708)
(-0.000622801 -0.000581814 8.92438e-05)
(-0.000621202 -0.00058232 7.43598e-05)
(-0.000619241 -0.0005819 5.90261e-05)
(-0.000614133 -0.000578238 4.28639e-05)
(-0.000613966 -0.000579056 2.63712e-05)
(-0.000609712 -0.000576062 8.90116e-06)
(-0.000106091 -9.42912e-05 -3.88657e-05)
(-0.000185155 -0.000238981 -7.98105e-05)
(-0.000269252 -0.000388014 -2.75369e-05)
(-0.000322095 -0.00047284 2.2874e-05)
(-0.000381233 -0.000539494 6.98456e-05)
(-0.000433099 -0.000576331 0.000110112)
(-0.000478624 -0.000593119 0.000141409)
(-0.000513416 -0.000592705 0.000162684)
(-0.000544124 -0.000588958 0.0001786)
(-0.000571497 -0.000585196 0.000192058)
(-0.000596358 -0.000582163 0.000203845)
(-0.000616754 -0.000578012 0.000212539)
(-0.000628666 -0.000570926 0.000216256)
(-0.000633772 -0.000563726 0.000215802)
(-0.000637891 -0.000559548 0.000213276)
(-0.000645346 -0.000561146 0.000210083)
(-0.000651137 -0.00056356 0.000204573)
(-0.000654122 -0.000565719 0.000196862)
(-0.000651866 -0.000564559 0.000186651)
(-0.000655383 -0.000568558 0.000177183)
(-0.000658259 -0.00057253 0.000166778)
(-0.000664723 -0.000579933 0.000156407)
(-0.000658978 -0.000577773 0.00014278)
(-0.00064974 -0.000572235 0.00012838)
(-0.000670034 -0.000590916 0.000118923)
(-0.000678322 -0.000600186 0.000106241)
(-0.00066896 -0.000594264 9.02805e-05)
(-0.000668046 -0.000595565 7.5333e-05)
(-0.000666376 -0.000595589 5.98457e-05)
(-0.000662603 -0.000593472 4.35854e-05)
(-0.000664755 -0.000596436 2.69141e-05)
(-0.000659942 -0.000593196 9.08082e-06)
(-0.000114345 -8.70687e-05 -2.81003e-05)
(-0.000193747 -0.000221125 -8.29792e-05)
(-0.000282438 -0.000367459 -3.65877e-05)
(-0.000338246 -0.000455959 1.18993e-05)
(-0.00039946 -0.000525626 5.85511e-05)
(-0.000452848 -0.000565198 9.91207e-05)
(-0.00050049 -0.000585387 0.000130923)
(-0.000539999 -0.000591477 0.00015389)
(-0.000575555 -0.000593703 0.000172031)
(-0.000605537 -0.000592488 0.000187118)
(-0.000632261 -0.000590392 0.000199919)
(-0.000651421 -0.000584029 0.000208389)
(-0.000666144 -0.000577641 0.000213301)
(-0.000676025 -0.000572715 0.000214681)
(-0.000680591 -0.000567928 0.000212462)
(-0.000684592 -0.00056572 0.000208265)
(-0.000696266 -0.000572402 0.000204593)
(-0.000699237 -0.000574242 0.000196969)
(-0.000697183 -0.000573307 0.000187012)
(-0.000699005 -0.000575861 0.000177269)
(-0.000703226 -0.000580837 0.000167355)
(-0.000710511 -0.000588648 0.000157229)
(-0.000706399 -0.00058816 0.000144132)
(-0.00069603 -0.00058233 0.000129703)
(-0.000715454 -0.000599369 0.000119906)
(-0.000728256 -0.000612016 0.000107761)
(-0.000718731 -0.000606699 9.16939e-05)
(-0.000719304 -0.000609452 7.66959e-05)
(-0.00071828 -0.000610236 6.1001e-05)
(-0.000712774 -0.000606948 4.43501e-05)
(-0.000712738 -0.000608022 2.73021e-05)
(-0.000709088 -0.00060607 9.23131e-06)
(-0.000162101 -0.000104205 -2.06603e-05)
(-0.000204515 -0.000204873 -8.6965e-05)
(-0.000294171 -0.000344057 -4.55099e-05)
(-0.000351318 -0.000433839 4.0129e-07)
(-0.000413742 -0.000505598 4.61926e-05)
(-0.000470351 -0.000550152 8.7099e-05)
(-0.000521612 -0.000575592 0.00011968)
(-0.000563085 -0.000585117 0.000143656)
(-0.000600815 -0.000590538 0.000163277)
(-0.000634734 -0.000593333 0.000180377)
(-0.000664861 -0.000593751 0.000194702)
(-0.000689385 -0.000591173 0.000205072)
(-0.000705847 -0.000584989 0.000210797)
(-0.000714445 -0.000576765 0.000212035)
(-0.000721835 -0.00057264 0.000210911)
(-0.000732281 -0.000574601 0.000208731)
(-0.000738895 -0.000576304 0.000203624)
(-0.000742606 -0.000578316 0.000196368)
(-0.000741222 -0.000577941 0.000186853)
(-0.000743151 -0.000580597 0.000177399)
(-0.000749078 -0.000586724 0.000168051)
(-0.000756828 -0.000594639 0.000158116)
(-0.000754864 -0.000596115 0.000145641)
(-0.000746739 -0.000592809 0.000131806)
(-0.000764709 -0.00060794 0.000121567)
(-0.000777644 -0.00062018 0.000109222)
(-0.000765778 -0.000613819 9.27909e-05)
(-0.000766908 -0.000617196 7.76817e-05)
(-0.000766151 -0.000618373 6.18128e-05)
(-0.000762076 -0.000616645 4.50584e-05)
(-0.000764811 -0.000620084 2.78486e-05)
(-0.000761425 -0.000618591 9.42389e-06)
(-0.000128753 -6.84563e-05 -1.91179e-06)
(-0.000204176 -0.000178196 -8.62264e-05)
(-0.000299645 -0.000313474 -5.31505e-05)
(-0.000359573 -0.000405683 -1.12953e-05)
(-0.000424396 -0.000481108 3.29733e-05)
(-0.000483077 -0.000529407 7.36856e-05)
(-0.000536962 -0.000559157 0.00010667)
(-0.000584175 -0.000576074 0.000132543)
(-0.000627726 -0.000587927 0.000154617)
(-0.000664569 -0.00059336 0.000173431)
(-0.000696679 -0.000594872 0.000188914)
(-0.000720089 -0.000590485 0.000199367)
(-0.000739329 -0.00058555 0.000206173)
(-0.000755183 -0.000581475 0.000209785)
(-0.000764733 -0.000576852 0.000209549)
(-0.000771588 -0.000574303 0.000206539)
(-0.000784447 -0.000579776 0.000203256)
(-0.000788432 -0.000581492 0.000196259)
(-0.00078681 -0.000580904 0.000186984)
(-0.000787431 -0.000582586 0.000177541)
(-0.000795415 -0.000589964 0.000168836)
(-0.000803395 -0.000597837 0.000159086)
(-0.000802473 -0.000600322 0.000147031)
(-0.000794533 -0.000597789 0.000133435)
(-0.000810359 -0.000610714 0.00012277)
(-0.000826726 -0.000625066 0.000110745)
(-0.00081541 -0.000620099 9.4296e-05)
(-0.000817747 -0.000624618 7.90627e-05)
(-0.000817681 -0.000626671 6.29702e-05)
(-0.000812269 -0.00062438 4.58579e-05)
(-0.00081221 -0.000625759 2.82528e-05)
(-0.00080922 -0.000624873 9.57043e-06)
(-0.000134277 -5.77714e-05 1.22301e-05)
(-0.000209553 -0.000157248 -8.74267e-05)
(-0.000302687 -0.000281639 -6.02616e-05)
(-0.000362729 -0.000372694 -2.29059e-05)
(-0.000428179 -0.000449918 1.88141e-05)
(-0.000490974 -0.000504361 5.90715e-05)
(-0.00055007 -0.000541096 9.28086e-05)
(-0.000600364 -0.000562453 0.00011996)
(-0.000646235 -0.000577137 0.00014352)
(-0.000687147 -0.000586137 0.000164185)
(-0.000723072 -0.000590327 0.000181273)
(-0.000753035 -0.000590471 0.000193997)
(-0.000775237 -0.000586756 0.000202022)
(-0.000789815 -0.000580392 0.000205638)
(-0.000803608 -0.000577136 0.000206837)
(-0.000818702 -0.000578527 0.000206249)
(-0.000826711 -0.000578805 0.000201917)
(-0.00083094 -0.000579833 0.00019524)
(-0.000829859 -0.000579579 0.000186516)
(-0.000831471 -0.000581952 0.0001777)
(-0.000841647 -0.00059049 0.000169676)
(-0.000849403 -0.000598033 0.000160085)
(-0.000850122 -0.000601978 0.000148596)
(-0.000845749 -0.000602829 0.000135811)
(-0.000858688 -0.000613568 0.000124638)
(-0.000873197 -0.000626345 0.00011219)
(-0.000860323 -0.000621483 9.55002e-05)
(-0.000862867 -0.000626538 8.00957e-05)
(-0.000862744 -0.000628893 6.37825e-05)
(-0.000858615 -0.0006281 4.65484e-05)
(-0.000861474 -0.000631895 2.87939e-05)
(-0.00085938 -0.000631978 9.77033e-06)
(-0.000137232 -4.62114e-05 2.64396e-05)
(-0.000206075 -0.000130369 -8.36551e-05)
(-0.000298703 -0.000245312 -6.60703e-05)
(-0.000360343 -0.000335646 -3.39594e-05)
(-0.000427885 -0.000416259 4.19188e-06)
(-0.000492817 -0.000474925 4.32884e-05)
(-0.000554597 -0.000516162 7.71727e-05)
(-0.000611249 -0.000544861 0.000106007)
(-0.000663837 -0.000565915 0.000131832)
(-0.000708648 -0.000577857 0.000154225)
(-0.000747317 -0.000583553 0.000172659)
(-0.00077656 -0.000582379 0.000185866)
(-0.000801906 -0.000580115 0.00019526)
(-0.00082489 -0.000578674 0.000201473)
(-0.000841382 -0.000575872 0.00020375)
(-0.000853575 -0.000573619 0.000202796)
(-0.000868841 -0.000577162 0.000200521)
(-0.000874282 -0.000578035 0.000194563)
(-0.000873186 -0.000577431 0.000186351)
(-0.000874306 -0.000579335 0.000177896)
(-0.000886337 -0.000588682 0.000170521)
(-0.000893529 -0.000595915 0.00016113)
(-0.000894594 -0.00060049 0.00015005)
(-0.000890673 -0.00060236 0.000137593)
(-0.00090062 -0.000611265 0.000126038)
(-0.000916973 -0.000625272 0.000113725)
(-0.000904983 -0.000622411 9.70372e-05)
(-0.000908068 -0.0006283 8.14076e-05)
(-0.000908383 -0.000631236 6.48259e-05)
(-0.000903265 -0.000630209 4.72803e-05)
(-0.000902891 -0.000631851 2.91565e-05)
(-0.000900365 -0.000631853 9.8945e-06)
(-0.000154585 -3.82157e-05 4.51369e-05)
(-0.000207132 -0.0001084 -8.05947e-05)
(-0.000290704 -0.000208223 -7.04709e-05)
(-0.000350204 -0.00029392 -4.36807e-05)
(-0.000416946 -0.000374899 -1.04783e-05)
(-0.000486372 -0.000440098 2.65299e-05)
(-0.000554446 -0.000489194 6.06175e-05)
(-0.000614812 -0.000522502 9.04856e-05)
(-0.000670123 -0.000546169 0.000117522)
(-0.000719497 -0.000561426 0.000141513)
(-0.000762914 -0.000570091 0.000161619)
(-0.000800319 -0.000574162 0.000177408)
(-0.000829998 -0.00057398 0.000188556)
(-0.0008513 -0.00057024 0.000195049)
(-0.000872364 -0.000569236 0.000198975)
(-0.000893273 -0.000571339 0.000200517)
(-0.000904544 -0.000571036 0.000197804)
(-0.000910314 -0.000571414 0.000192537)
(-0.000910577 -0.00057129 0.00018527)
(-0.000913787 -0.000574313 0.000177848)
(-0.000927467 -0.00058422 0.000171174)
(-0.000933484 -0.000590876 0.000161985)
(-0.000935696 -0.000596528 0.000151487)
(-0.000935216 -0.00060115 0.000139804)
(-0.000941447 -0.000608026 0.000127785)
(-0.00095379 -0.000619315 0.00011486)
(-0.000940561 -0.000616873 9.79682e-05)
(-0.00094331 -0.000622861 8.20961e-05)
(-0.000943393 -0.000625849 6.53039e-05)
(-0.000939481 -0.000626092 4.77089e-05)
(-0.00094207 -0.000629956 2.95371e-05)
(-0.000940983 -0.00063116 1.00464e-05)
(-0.000169861 -2.72603e-05 6.6722e-05)
(-0.000201266 -8.50622e-05 -7.40396e-05)
(-0.000278271 -0.000170877 -7.27891e-05)
(-0.000335304 -0.00025143 -5.15768e-05)
(-0.000402193 -0.000333165 -2.45191e-05)
(-0.000472093 -0.000401371 9.33052e-06)
(-0.000541997 -0.000454458 4.25907e-05)
(-0.000609241 -0.000494961 7.34014e-05)
(-0.00067217 -0.000524938 0.000102124)
(-0.000726877 -0.000543623 0.000127694)
(-0.000774342 -0.000554272 0.000149259)
(-0.000811692 -0.000557338 0.000165816)
(-0.000844839 -0.00055858 0.000178542)
(-0.000876251 -0.000560464 0.000188088)
(-0.000899905 -0.000559902 0.000193341)
(-0.000917718 -0.000558843 0.000194877)
(-0.00093626 -0.000562036 0.000194413)
(-0.000943989 -0.000563049 0.000190299)
(-0.000945097 -0.000563174 0.000183992)
(-0.00094854 -0.000566096 0.000177333)
(-0.000962869 -0.000575855 0.000171272)
(-0.000967358 -0.000581791 0.000162347)
(-0.000969547 -0.00058767 0.000152324)
(-0.000968843 -0.000592478 0.000140934)
(-0.000972477 -0.000598318 0.000128768)
(-0.000985766 -0.000610212 0.000115942)
(-0.00097363 -0.00060969 9.90679e-05)
(-0.000976474 -0.000616041 8.29312e-05)
(-0.000976786 -0.000619373 6.59139e-05)
(-0.000972287 -0.000619662 4.8144e-05)
(-0.000971515 -0.000621489 2.9729e-05)
(-0.000969374 -0.000622174 1.01086e-05)
(-0.000187884 -1.4313e-05 9.31934e-05)
(-0.000198841 -6.57241e-05 -6.80621e-05)
(-0.000259005 -0.000133162 -7.15449e-05)
(-0.00030974 -0.000204905 -5.58956e-05)
(-0.000372732 -0.000282918 -3.63934e-05)
(-0.000446214 -0.000356519 -7.56707e-06)
(-0.000522701 -0.000417639 2.4113e-05)
(-0.000593496 -0.000462571 5.49278e-05)
(-0.000659761 -0.000495398 8.42359e-05)
(-0.000719884 -0.00051745 0.000111007)
(-0.000773384 -0.000531239 0.000134169)
(-0.00082068 -0.00053982 0.000153374)
(-0.000859864 -0.000543754 0.000168234)
(-0.000888996 -0.000543015 0.000178304)
(-0.000918059 -0.000544601 0.000185622)
(-0.000945023 -0.000547892 0.000189916)
(-0.000959904 -0.00054807 0.000189571)
(-0.000967898 -0.000548796 0.000186461)
(-0.00097106 -0.000549887 0.000181518)
(-0.000977042 -0.000554017 0.000176185)
(-0.000991866 -0.00056356 0.000170843)
(-0.000994746 -0.000568849 0.000162313)
(-0.000997988 -0.000575504 0.000153022)
(-0.000999509 -0.000581887 0.000142337)
(-0.000999393 -0.000586294 0.000129912)
(-0.0010072 -0.000595027 0.000116446)
(-0.000993858 -0.000594937 9.94031e-05)
(-0.00099596 -0.000601066 8.30185e-05)
(-0.000995748 -0.000604235 6.58584e-05)
(-0.000992211 -0.00060553 4.81663e-05)
(-0.000994146 -0.000609274 2.98592e-05)
(-0.000993654 -0.000611188 1.01801e-05)
(-0.000195412 1.38565e-06 0.000118375)
(-0.000196171 -4.81742e-05 -6.16336e-05)
(-0.000243243 -0.000101569 -6.90817e-05)
(-0.0002836 -0.000162398 -5.73557e-05)
(-0.000341889 -0.000235509 -4.59025e-05)
(-0.000411046 -0.000308332 -2.31522e-05)
(-0.000486626 -0.00037167 5.39183e-06)
(-0.000564597 -0.000424064 3.53438e-05)
(-0.000639283 -0.000463713 6.51162e-05)
(-0.000706404 -0.000490154 9.29854e-05)
(-0.000765635 -0.00050646 0.000117586)
(-0.000813989 -0.000514032 0.00013775)
(-0.00085695 -0.000518798 0.000154195)
(-0.000898329 -0.000524146 0.000167652)
(-0.000929757 -0.000525888 0.000176555)
(-0.000953679 -0.000526383 0.000181347)
(-0.000976289 -0.000530153 0.000183609)
(-0.000987468 -0.000532244 0.000182248)
(-0.000991915 -0.000533847 0.000178675)
(-0.000998106 -0.000537827 0.000174376)
(-0.00101202 -0.00054647 0.000169675)
(-0.00101283 -0.000551047 0.000161636)
(-0.00101562 -0.000557581 0.00015297)
(-0.00101521 -0.000563082 0.00014252)
(-0.00101314 -0.000567321 0.000130239)
(-0.00102105 -0.000576409 0.0001169)
(-0.00100832 -0.000577868 9.9836e-05)
(-0.00100986 -0.000583886 8.31501e-05)
(-0.00100959 -0.00058719 6.5844e-05)
(-0.0010057 -0.000588682 4.81593e-05)
(-0.00100427 -0.000590604 2.97987e-05)
(-0.00100228 -0.000591767 1.01558e-05)
(-0.000197111 1.75881e-05 0.000142126)
(-0.00019322 -3.23803e-05 -5.49624e-05)
(-0.000213421 -6.9733e-05 -6.05004e-05)
(-0.000244214 -0.000117728 -5.27939e-05)
(-0.000293226 -0.000180628 -4.9503e-05)
(-0.000362807 -0.000254785 -3.56489e-05)
(-0.000443569 -0.00032487 -1.22097e-05)
(-0.000523082 -0.000380763 1.54372e-05)
(-0.000601222 -0.000423965 4.42563e-05)
(-0.000674519 -0.000454611 7.23556e-05)
(-0.000741422 -0.000474944 9.82266e-05)
(-0.000801691 -0.000488174 0.000120993)
(-0.000852811 -0.000495574 0.000139842)
(-0.000891253 -0.000497266 0.000153916)
(-0.000929241 -0.000501221 0.000165201)
(-0.000962857 -0.000505918 0.000173062)
(-0.000982268 -0.000507308 0.000176092)
(-0.000993728 -0.00050921 0.000176179)
(-0.00100078 -0.000511978 0.000174421)
(-0.0010092 -0.000516921 0.000171698)
(-0.00102235 -0.000524943 0.000167877)
(-0.00102151 -0.000529213 0.000160566)
(-0.00102476 -0.000536074 0.000152762)
(-0.00102466 -0.000541999 0.000142942)
(-0.00101851 -0.000545131 0.000130568)
(-0.0010196 -0.000550944 0.000116567)
(-0.00100507 -0.000552615 9.92915e-05)
(-0.00100532 -0.000558164 8.23454e-05)
(-0.00100424 -0.000561213 6.50117e-05)
(-0.00100093 -0.000563426 4.75998e-05)
(-0.00100168 -0.000566932 2.95714e-05)
(-0.00100116 -0.00056916 1.01078e-05)
(-0.000187173 3.1451e-05 0.000156829)
(-0.000195489 -1.87979e-05 -4.99053e-05)
(-0.000199536 -4.87246e-05 -5.45063e-05)
(-0.000213211 -8.31528e-05 -4.63107e-05)
(-0.000249834 -0.000134263 -4.92459e-05)
(-0.000305797 -0.000199739 -4.37478e-05)
(-0.000379279 -0.000267447 -2.70357e-05)
(-0.000465375 -0.000330718 -3.72311e-06)
(-0.000551777 -0.000381313 2.30688e-05)
(-0.000633244 -0.000417874 5.07827e-05)
(-0.000707007 -0.000441962 7.73598e-05)
(-0.000769749 -0.000455217 0.000101112)
(-0.00082551 -0.000463187 0.000121673)
(-0.000878887 -0.000470864 0.000139372)
(-0.000918997 -0.000473867 0.000152393)
(-0.00094978 -0.000475508 0.000161181)
(-0.00097755 -0.000480179 0.000167166)
(-0.000993403 -0.000483885 0.000169608)
(-0.00100159 -0.000487082 0.000169625)
(-0.00100956 -0.000491692 0.000168233)
(-0.00102035 -0.000498559 0.000165242)
(-0.00101708 -0.000502378 0.000158697)
(-0.00101865 -0.000508651 0.000151566)
(-0.00101468 -0.00051317 0.000141963)
(-0.00100681 -0.00051675 0.000129971)
(-0.00100695 -0.00052316 0.000116114)
(-0.000991992 -0.000525911 9.87246e-05)
(-0.000990836 -0.000531 8.14314e-05)
(-0.000989402 -0.000534104 6.40913e-05)
(-0.000985747 -0.000536459 4.69418e-05)
(-0.000983221 -0.000538419 2.91348e-05)
(-0.000980912 -0.000539794 9.95786e-06)
(-0.000169743 4.04314e-05 0.000160259)
(-0.000191123 -6.05458e-06 -4.33862e-05)
(-0.000160362 -2.7744e-05 -4.08332e-05)
(-0.000162872 -4.88055e-05 -3.2731e-05)
(-0.000187112 -8.43136e-05 -3.97567e-05)
(-0.000239044 -0.000143454 -4.502e-05)
(-0.000313062 -0.000213295 -3.81396e-05)
(-0.000394535 -0.000276374 -2.07774e-05)
(-0.00048314 -0.000330698 2.25852e-06)
(-0.000570475 -0.000372301 2.81337e-05)
(-0.000653366 -0.000402313 5.46935e-05)
(-0.00072927 -0.000422597 8.02065e-05)
(-0.000794793 -0.000434385 0.000103071)
(-0.00084467 -0.00043792 0.000121596)
(-0.000893212 -0.000443102 0.000137331)
(-0.000934525 -0.00044819 0.000149447)
(-0.000959649 -0.00045017 0.000156751)
(-0.000975501 -0.00045297 0.00016097)
(-0.000986395 -0.000457051 0.000163202)
(-0.000995708 -0.000462338 0.000163651)
(-0.00100467 -0.00046889 0.000161845)
(-0.000999814 -0.000472966 0.000156394)
(-0.00100046 -0.000479246 0.00015016)
(-0.000994841 -0.000483877 0.000141208)
(-0.000981578 -0.000486348 0.00012918)
(-0.000973404 -0.000489977 0.000114628)
(-0.000955775 -0.000492516 9.69354e-05)
(-0.000952739 -0.000496863 7.93594e-05)
(-0.000950278 -0.000499595 6.21685e-05)
(-0.000946742 -0.000502228 4.55765e-05)
(-0.000945663 -0.000505271 2.84136e-05)
(-0.000944316 -0.000507315 9.74103e-06)
(-0.000147778 4.30345e-05 0.000150029)
(-0.000186937 4.20456e-06 -3.77078e-05)
(-0.000149147 -1.712e-05 -3.39767e-05)
(-0.000137939 -2.96371e-05 -2.23816e-05)
(-0.000142201 -5.01695e-05 -2.89735e-05)
(-0.000167906 -9.0369e-05 -3.88703e-05)
(-0.000222517 -0.00014752 -4.08088e-05)
(-0.000308296 -0.000215951 -3.33636e-05)
(-0.000402128 -0.000276461 -1.64196e-05)
(-0.000497774 -0.000325285 6.4188e-06)
(-0.000586786 -0.000359933 3.19351e-05)
(-0.000665609 -0.000382027 5.74818e-05)
(-0.000736321 -0.000396129 8.14358e-05)
(-0.000803733 -0.000407516 0.000103316)
(-0.000853647 -0.000411449 0.000120728)
(-0.000892667 -0.000413453 0.000134162)
(-0.000926941 -0.000418373 0.000144758)
(-0.000948472 -0.000422648 0.000151913)
(-0.000959972 -0.000426378 0.000156247)
(-0.000967826 -0.000431093 0.000158314)
(-0.000973202 -0.000436872 0.00015766)
(-0.000965308 -0.000440638 0.000153215)
(-0.000962103 -0.000445817 0.00014755)
(-0.000950923 -0.000448846 0.000138835)
(-0.000935473 -0.0004519 0.000127331)
(-0.00092488 -0.000456246 0.000112842)
(-0.000905627 -0.000459165 9.48714e-05)
(-0.000900218 -0.000462578 7.68941e-05)
(-0.000897124 -0.000465089 5.9907e-05)
(-0.000893116 -0.000467603 4.39476e-05)
(-0.000888899 -0.000469196 2.74075e-05)
(-0.000885622 -0.000470279 9.39852e-06)
(-0.000123972 3.99242e-05 0.000128194)
(-0.000175576 1.13548e-05 -3.18219e-05)
(-0.000118133 -8.61337e-06 -2.30754e-05)
(-8.24726e-05 -1.17093e-05 -7.90955e-06)
(-6.77829e-05 -1.58175e-05 -1.02341e-05)
(-9.85656e-05 -4.473e-05 -2.59327e-05)
(-0.000146998 -9.50386e-05 -3.89919e-05)
(-0.000212616 -0.000152255 -3.98475e-05)
(-0.000305106 -0.000214985 -3.07002e-05)
(-0.000403367 -0.000268183 -1.2637e-05)
(-0.000502155 -0.000310968 1.06168e-05)
(-0.000593523 -0.000341556 3.5887e-05)
(-0.000673217 -0.000360872 6.06117e-05)
(-0.00073496 -0.00036901 8.24616e-05)
(-0.00079576 -0.000377345 0.000102363)
(-0.000846057 -0.000383234 0.000118982)
(-0.000877915 -0.000385574 0.000131199)
(-0.000898903 -0.000388357 0.000140456)
(-0.000913067 -0.00039257 0.000147424)
(-0.000921339 -0.000397641 0.000151664)
(-0.000923908 -0.000403239 0.000152506)
(-0.000914194 -0.000407345 0.000149361)
(-0.000908084 -0.00041225 0.000144483)
(-0.000893402 -0.00041499 0.000136387)
(-0.000870114 -0.000416222 0.00012467)
(-0.000849559 -0.000417709 0.000109289)
(-0.000826751 -0.000419559 9.0904e-05)
(-0.000819125 -0.000421914 7.27291e-05)
(-0.000815103 -0.000423775 5.62217e-05)
(-0.00081087 -0.00042602 4.12939e-05)
(-0.00080729 -0.000428059 2.58955e-05)
(-0.000804321 -0.00042931 8.9074e-06)
(-0.000105819 3.45311e-05 0.000103717)
(-0.000159534 1.43534e-05 -2.71502e-05)
(-0.000112348 -5.37892e-06 -1.83165e-05)
(-7.28246e-05 -6.31491e-06 -6.99249e-07)
(-4.46864e-05 -4.6243e-06 -7.09147e-07)
(-3.52121e-05 -1.13628e-05 -7.84716e-06)
(-4.23644e-05 -2.71575e-05 -1.69701e-05)
(-0.000115679 -8.76191e-05 -3.77799e-05)
(-0.000201079 -0.000149452 -3.82132e-05)
(-0.000305119 -0.000210537 -2.62542e-05)
(-0.00040436 -0.000257071 -6.40796e-06)
(-0.000496511 -0.000291025 1.65091e-05)
(-0.000580787 -0.000314871 3.98534e-05)
(-0.000661769 -0.000333768 6.28513e-05)
(-0.000720791 -0.000341188 8.29819e-05)
(-0.00076868 -0.000345523 0.000100498)
(-0.000810589 -0.000351431 0.000115967)
(-0.000838311 -0.000356158 0.000128515)
(-0.000852337 -0.000359846 0.00013791)
(-0.000857971 -0.00036415 0.000144078)
(-0.000855775 -0.0003689 0.000146251)
(-0.000841613 -0.000372102 0.000144006)
(-0.000828998 -0.000375261 0.000139358)
(-0.000807489 -0.000376037 0.000131442)
(-0.000781485 -0.000377562 0.000120344)
(-0.000757572 -0.000379242 0.000104885)
(-0.000732513 -0.000380271 8.61177e-05)
(-0.000722056 -0.000381056 6.76532e-05)
(-0.000717432 -0.000382154 5.17561e-05)
(-0.000712692 -0.000383757 3.80633e-05)
(-0.000706394 -0.000384299 2.39319e-05)
(-0.000701581 -0.000384462 8.2363e-06)
(-8.33365e-05 2.64633e-05 7.39968e-05)
(-0.000143112 1.53502e-05 -2.3921e-05)
(-0.000107104 -2.71096e-06 -1.52489e-05)
(-6.47542e-05 -1.46518e-06 5.13313e-06)
(-3.05195e-05 3.95945e-06 7.36921e-06)
(-9.24514e-06 4.29092e-06 1.00467e-06)
(-5.77211e-06 -1.9902e-06 -8.86293e-06)
(-2.18155e-05 -1.8055e-05 -1.57484e-05)
(-0.00010189 -8.05298e-05 -3.41076e-05)
(-0.000192466 -0.000140872 -2.8473e-05)
(-0.000297288 -0.000198392 -1.42142e-05)
(-0.000395695 -0.000241378 3.63239e-06)
(-0.000484287 -0.000271049 2.30957e-05)
(-0.000555098 -0.00028669 4.27591e-05)
(-0.000628329 -0.000302064 6.33238e-05)
(-0.000687376 -0.000311699 8.27004e-05)
(-0.000725755 -0.000315712 9.92903e-05)
(-0.000751448 -0.000319127 0.000113736)
(-0.0007674 -0.000323524 0.000125947)
(-0.000772363 -0.000328201 0.000134513)
(-0.00076654 -0.000332704 0.000138259)
(-0.000750192 -0.000335871 0.000137215)
(-0.000733331 -0.000338278 0.00013306)
(-0.000707358 -0.000337936 0.000125614)
(-0.000670913 -0.000335737 0.000113816)
(-0.000636469 -0.000333432 9.71892e-05)
(-0.000607551 -0.000331992 7.80739e-05)
(-0.000595284 -0.000331268 5.98591e-05)
(-0.000590452 -0.000331404 4.51074e-05)
(-0.000585521 -0.0003322 3.3243e-05)
(-0.000579194 -0.000332474 2.10719e-05)
(-0.000574188 -0.000332307 7.27211e-06)
(-5.63561e-05 1.86831e-05 4.74431e-05)
(-0.000121773 1.58505e-05 -1.99797e-05)
(-0.000102645 7.45313e-07 -1.57237e-05)
(-6.24728e-05 2.95287e-06 6.16066e-06)
(-2.30439e-05 9.89833e-06 9.26993e-06)
(2.72807e-06 1.42107e-05 1.73145e-06)
(7.57647e-06 1.10838e-05 -1.43954e-06)
(-1.67467e-06 1.1494e-06 -6.41588e-06)
(-3.07163e-05 -2.36691e-05 -1.1833e-05)
(-0.000102607 -7.97674e-05 -1.44494e-05)
(-0.000181316 -0.000132658 -7.54002e-06)
(-0.000269772 -0.000179128 7.8771e-07)
(-0.000359974 -0.000215561 1.1581e-05)
(-0.000452234 -0.000245599 2.65686e-05)
(-0.000517927 -0.000258686 4.39034e-05)
(-0.000573852 -0.000267932 6.24772e-05)
(-0.000623082 -0.000277137 8.1273e-05)
(-0.000655958 -0.000283617 9.86791e-05)
(-0.000670661 -0.000287794 0.000113263)
(-0.000671426 -0.000291699 0.000123696)
(-0.000659602 -0.000295014 0.00012847)
(-0.000636495 -0.000295994 0.000127533)
(-0.000611325 -0.000295456 0.000122857)
(-0.000578017 -0.000291864 0.000115192)
(-0.00054019 -0.000289414 0.000104127)
(-0.000503594 -0.00028637 8.7459e-05)
(-0.000473329 -0.000283021 6.82926e-05)
(-0.000459183 -0.00028025 5.04358e-05)
(-0.000454311 -0.000279158 3.70744e-05)
(-0.000449109 -0.000278836 2.73875e-05)
(-0.000440987 -0.000277578 1.75025e-05)
(-0.000434704 -0.00027628 6.0414e-06)
(-4.28709e-05 1.60171e-05 4.0142e-05)
(-9.35089e-05 1.37501e-05 -1.46028e-05)
(-9.82701e-05 3.18613e-06 -1.82898e-05)
(-6.15247e-05 4.10315e-06 5.34869e-06)
(-1.31722e-05 1.09541e-05 1.20325e-05)
(3.1251e-06 1.16524e-05 1.28226e-05)
(8.589e-06 9.38425e-06 1.77752e-05)
(8.35167e-06 3.2971e-06 2.07914e-05)
(5.64603e-08 -7.32728e-06 1.90124e-05)
(-1.56777e-05 -2.13016e-05 1.43215e-05)
(-7.59546e-05 -7.89909e-05 1.98285e-05)
(-0.000150191 -0.000126077 1.11288e-05)
(-0.000234503 -0.000163245 6.32596e-06)
(-0.000310279 -0.000186535 1.20122e-05)
(-0.000397189 -0.000212729 2.63363e-05)
(-0.000463471 -0.000228429 4.41912e-05)
(-0.000506212 -0.000235527 6.2366e-05)
(-0.000534523 -0.000240545 8.04336e-05)
(-0.000549463 -0.000245603 9.7192e-05)
(-0.000548112 -0.000249863 0.000109532)
(-0.000532025 -0.000252564 0.000115216)
(-0.000507133 -0.000253209 0.000114843)
(-0.000478711 -0.000251392 0.00011013)
(-0.000442466 -0.000245778 0.000102567)
(-0.000392908 -0.000236353 8.9631e-05)
(-0.000347669 -0.000226981 7.16274e-05)
(-0.000314731 -0.000219304 5.29118e-05)
(-0.000300518 -0.000214671 3.66952e-05)
(-0.000296977 -0.000212815 2.57323e-05)
(-0.000292229 -0.000211497 1.90705e-05)
(-0.00028399 -0.000209365 1.24155e-05)
(-0.000277447 -0.000207287 4.28501e-06)
(-1.54609e-05 9.70785e-06 2.60583e-05)
(-6.51903e-05 1.10512e-05 -9.89328e-06)
(-8.96713e-05 6.53759e-06 -2.41644e-05)
(-7.71703e-05 6.9168e-06 -1.14556e-05)
(-4.26179e-05 1.40208e-05 5.90056e-06)
(-1.45562e-05 2.38576e-05 1.9666e-05)
(5.62241e-06 3.04558e-05 1.87009e-05)
(2.40121e-05 2.43192e-05 2.03761e-05)
(3.64518e-05 1.6111e-05 2.89483e-05)
(3.57987e-05 2.57225e-06 3.12496e-05)
(2.14691e-05 -1.40705e-05 2.50105e-05)
(-4.24429e-06 -3.74457e-05 1.71686e-05)
(-8.44288e-05 -9.60276e-05 7.06321e-06)
(-0.000192038 -0.000140941 1.74858e-06)
(-0.000261935 -0.000158864 1.03634e-05)
(-0.000323979 -0.000175052 2.54352e-05)
(-0.000378698 -0.000189715 4.3196e-05)
(-0.000414436 -0.000199135 6.26151e-05)
(-0.000426848 -0.00020419 8.07743e-05)
(-0.000419474 -0.00020723 9.38591e-05)
(-0.00039627 -0.000207689 9.90363e-05)
(-0.000362477 -0.000203788 9.66882e-05)
(-0.000326558 -0.000197024 9.01315e-05)
(-0.000283715 -0.00018537 8.10857e-05)
(-0.000239319 -0.000175712 6.94008e-05)
(-0.000197864 -0.000165045 5.23203e-05)
(-0.000167939 -0.000155109 3.51462e-05)
(-0.000155106 -0.000148716 2.10224e-05)
(-0.00015266 -0.000145785 1.26733e-05)
(-0.000148274 -0.000143285 9.40274e-06)
(-0.000139795 -0.000139694 6.4464e-06)
(-0.000133426 -0.000136682 2.20428e-06)
(9.82927e-06 7.93814e-06 2.31433e-05)
(-1.47241e-05 9.41268e-06 -5.80264e-06)
(-4.75478e-05 8.83194e-06 -2.42649e-05)
(-6.43682e-05 8.97687e-06 -2.97337e-05)
(-6.19598e-05 1.31542e-05 -2.54756e-05)
(-4.89528e-05 2.02986e-05 -1.71934e-05)
(-3.18962e-05 3.09263e-05 -1.21584e-05)
(-1.38135e-05 3.97926e-05 -1.12857e-05)
(3.64355e-06 4.14637e-05 -1.13944e-05)
(2.42524e-05 3.75896e-05 -1.39062e-05)
(3.58681e-05 1.55832e-05 -7.70538e-06)
(3.83213e-05 1.49095e-06 -9.07345e-07)
(1.90329e-05 -1.66981e-05 5.32922e-07)
(-3.33523e-05 -4.79741e-05 -4.28392e-06)
(-0.000138809 -0.000104474 -6.51908e-07)
(-0.000204862 -0.000128595 1.08933e-05)
(-0.000247079 -0.00013936 2.45714e-05)
(-0.000274584 -0.000146235 4.13361e-05)
(-0.000285024 -0.000151796 5.92151e-05)
(-0.000274069 -0.000154397 7.19768e-05)
(-0.000247433 -0.000153236 7.60065e-05)
(-0.0002159 -0.000148884 7.32247e-05)
(-0.00018249 -0.000140638 6.64227e-05)
(-0.000144269 -0.000126932 5.7155e-05)
(-9.08978e-05 -0.000102473 3.96341e-05)
(-4.82497e-05 -7.82715e-05 2.11808e-05)