/*--------------------------------*- C++ -*----------------------------------*\
  =========                 |
  \\      /  F ield         | OpenFOAM: The Open Source CFD Toolbox
   \\    /   O peration     | Website:  https://openfoam.org
    \\  /    A nd           | Version:  6
     \\/     M anipulation  |
\*---------------------------------------------------------------------------*/
FoamFile
{
    version     2.0;
    format      ascii;
    class       volScalarField;
    location    "0.4";
    object      p;
}
// * * * * * * * * * * * * * * * * * * * * * * * * * * * * * * * * * * * * * //

dimensions      [0 2 -2 0 0 0 0];

internalField   nonuniform List<scalar> 
63552
(
0.00864948
0.00825737
0.00766266
0.00685946
0.00579945
0.004328
0.00248032
9.47547e-05
-0.00318816
-0.00686563
-0.0117946
-0.0167563
-0.0251147
-0.0293437
-0.0447006
0.0105814
0.0103124
0.0100058
0.00943312
0.00863107
0.00745884
0.00585128
0.00382717
0.0010477
-0.00215271
-0.00644473
-0.010678
-0.0179453
-0.021115
-0.0356431
0.0124551
0.0122614
0.0118894
0.0113556
0.0104899
0.00914823
0.00746987
0.00518065
0.00245659
-0.000999906
-0.00472489
-0.0106987
-0.0131342
-0.0260514
0.0147172
0.0146405
0.0144684
0.0140677
0.0135792
0.0125897
0.0112163
0.00935966
0.00706907
0.00436484
0.001191
-0.00361692
-0.00526645
-0.016671
0.017104
0.0171611
0.0170085
0.0165765
0.016029
0.015003
0.0135607
0.0118273
0.00965661
0.00715233
0.00342006
0.00238926
-0.00731448
0.0195796
0.0198028
0.0199056
0.019776
0.0193152
0.0187647
0.0178186
0.0166207
0.0149257
0.0130884
0.0103627
0.0100798
0.00205392
0.022
0.0224465
0.0226955
0.0229077
0.022786
0.0224385
0.0220169
0.0212423
0.0201915
0.0188724
0.0171583
0.0174307
0.0110573
0.025061
0.0256023
0.0259333
0.0261489
0.0261547
0.0260552
0.0257953
0.0253542
0.0244922
0.0236508
0.0245083
0.0196766
0.0276013
0.0283365
0.0289574
0.0293492
0.0296837
0.0299444
0.0302332
0.0303078
0.0299903
0.0299031
0.0313813
0.0276842
0.0300538
0.0310024
0.0318335
0.0325487
0.0331263
0.0337374
0.0343913
0.0350096
0.0352159
0.0359193
0.0378569
0.0354118
0.0323894
0.0335237
0.0345699
0.0355241
0.0364607
0.0374031
0.0383257
0.0393819
0.0400829
0.0414387
0.0439051
0.0427563
0.0358958
0.0371409
0.0383286
0.0395113
0.0407746
0.0420705
0.0434626
0.044675
0.0466254
0.0495741
0.0493449
0.0380823
0.0395082
0.0409106
0.042355
0.0439017
0.045545
0.0472633
0.0488339
0.0514036
0.0547578
0.055401
0.0400609
0.04165
0.0432421
0.0449076
0.0467115
0.0486334
0.0506934
0.0525859
0.0555806
0.0593253
0.0608422
0.0418062
0.043538
0.0452983
0.0471583
0.0491765
0.0513415
0.0536752
0.0558815
0.0592485
0.0633653
0.0655028
0.0432962
0.0451495
0.0470524
0.0490775
0.05128
0.0536505
0.0562032
0.0586665
0.0624052
0.0668172
0.0694333
0.0445115
0.0464634
0.0484824
0.0506412
0.0529911
0.0555261
0.0582571
0.0609333
0.0649288
0.0696146
0.0725914
0.0454361
0.0474629
0.0495704
0.0518309
0.0542922
0.056952
0.0598165
0.0626578
0.0668466
0.0717201
0.0749762
0.0481357
0.0503034
0.0526324
0.0551685
0.0579115
0.0608622
0.0638139
0.0681275
0.0731406
0.0765669
0.0484723
0.0506705
0.0530342
0.0556076
0.0583923
0.0613844
0.0643937
0.0687653
0.0738499
0.0773543
0.00872745
0.00829289
0.00769792
0.00687956
0.0057932
0.00440724
0.00248089
1.56517e-06
-0.0031325
-0.00691106
-0.0117311
-0.0169906
-0.0253455
-0.0302882
-0.0457015
0.0107042
0.0104763
0.0100827
0.00948656
0.00862524
0.00745789
0.00585815
0.00368838
0.000960677
-0.00231758
-0.00643427
-0.0110232
-0.0180685
-0.0220471
-0.0363876
0.0125547
0.0123683
0.0120188
0.0114208
0.010506
0.00921944
0.00741607
0.00508156
0.00232895
-0.00126306
-0.00508046
-0.0111826
-0.0140448
-0.0268918
0.014747
0.0147459
0.0145937
0.0142661
0.0136224
0.012647
0.0112379
0.00932262
0.00711879
0.00413008
0.00101446
-0.00404884
-0.00615997
-0.0174093
0.0171472
0.0171849
0.017075
0.0167386
0.0160568
0.0150415
0.0135634
0.0118091
0.0095553
0.00698409
0.00294727
0.00146314
-0.00795443
0.0195867
0.0198348
0.0199459
0.0198375
0.0194829
0.0188188
0.0177747
0.0164746
0.0149128
0.0128711
0.00983243
0.00888078
0.00122325
0.0220215
0.0224667
0.0228057
0.0229298
0.0228455
0.0225414
0.0219293
0.0211382
0.0201062
0.0186854
0.0165325
0.0163167
0.0102262
0.0250642
0.0255973
0.0259876
0.0261699
0.0261884
0.0260219
0.0256975
0.0251622
0.0243341
0.0231183
0.0235485
0.0188657
0.0276057
0.0283508
0.0289545
0.0294232
0.0297493
0.0300049
0.0300971
0.0300876
0.0297445
0.0294103
0.030354
0.0271832
0.0300538
0.0310002
0.0318342
0.0325367
0.0331759
0.0337866
0.034327
0.0347917
0.0349202
0.0353038
0.0368509
0.0349748
0.0323888
0.0335249
0.0345689
0.0355219
0.0364212
0.0373566
0.0383226
0.0392481
0.0398408
0.040899
0.0429096
0.0421232
0.0358934
0.0371358
0.0383152
0.0394931
0.0407296
0.0420238
0.0433797
0.0443925
0.0460703
0.0485154
0.0488136
0.0380802
0.0395031
0.0408953
0.0423127
0.0438253
0.045415
0.0471275
0.0485582
0.050757
0.0536245
0.0548538
0.0400583
0.0416439
0.0432251
0.0448653
0.0466248
0.0484937
0.050488
0.0522761
0.0549886
0.0582419
0.060165
0.0418034
0.0435314
0.0452797
0.0471128
0.0490891
0.0511982
0.0534613
0.0555341
0.0586636
0.0622612
0.0648266
0.0432932
0.0451424
0.0470324
0.0490291
0.0511866
0.0534976
0.0559814
0.0583196
0.061743
0.0656569
0.0687476
0.0445084
0.0464559
0.0484613
0.0505909
0.0528954
0.0553705
0.0580307
0.0605763
0.0642709
0.0684183
0.0719196
0.0454329
0.047455
0.0495485
0.0517792
0.0541947
0.0567937
0.0595856
0.0622907
0.0661707
0.0705233
0.0743098
0.0481276
0.0502808
0.0525799
0.0550701
0.0577526
0.0606318
0.0634474
0.0674504
0.0719399
0.0759112
0.0484642
0.0506478
0.0529815
0.0555093
0.0582338
0.0611551
0.0640284
0.0680902
0.0726578
0.0767103
0.008685
0.00824993
0.00766618
0.00685982
0.00577872
0.00438515
0.00246678
-8.56209e-06
-0.0031728
-0.00697002
-0.0118713
-0.0171803
-0.025841
-0.0313199
-0.0462347
0.0106717
0.0104311
0.0100348
0.00943839
0.00859494
0.00743525
0.00584156
0.00368824
0.000928506
-0.00237519
-0.00658056
-0.0112288
-0.0186389
-0.02307
-0.0370377
0.0125321
0.0123272
0.0119557
0.0113609
0.0104618
0.00919225
0.0074075
0.00505794
0.0022645
-0.00138227
-0.005306
-0.0117278
-0.01518
-0.0275876
0.0147362
0.0147217
0.0145577
0.014219
0.0135572
0.0126011
0.0112139
0.00930028
0.00703958
0.00399897
0.000746299
-0.00464533
-0.00733654
-0.0180464
0.0171377
0.0171773
0.0170582
0.0166934
0.0160022
0.0150036
0.0135368
0.0117386
0.00939904
0.00670365
0.00232819
0.000275839
-0.00862361
0.0195808
0.0198265
0.0199232
0.0198201
0.0194498
0.0187738
0.0177365
0.0164014
0.0147334
0.0125832
0.00919146
0.00768295
0.000555031
0.022016
0.0224602
0.0227866
0.0229186
0.0228346
0.0225117
0.0218847
0.0210517
0.0199283
0.0183747
0.0158873
0.01505
0.00950762
0.0250624
0.0255949
0.0259791
0.0261607
0.0261628
0.025963
0.0255906
0.024981
0.0240081
0.0224398
0.0221899
0.018143
0.0276013
0.0283483
0.028958
0.0294169
0.0297278
0.0299333
0.0299784
0.0298799
0.029404
0.0286899
0.0289615
0.0264257
0.0300522
0.0309989
0.0318354
0.0325418
0.0331568
0.0337229
0.0341951
0.0345714
0.0345692
0.0345774
0.0353963
0.0341598
0.0323869
0.033524
0.0345711
0.0355259
0.0364163
0.0373026
0.0381751
0.0390071
0.0394576
0.0401539
0.0414145
0.0413194
0.0358938
0.0371396
0.0383198
0.0394793
0.0406692
0.0418746
0.0431193
0.0439772
0.0452838
0.0469649
0.0479572
0.0380813
0.0395077
0.0408999
0.0423007
0.0437646
0.0452723
0.0468638
0.048124
0.0499456
0.052038
0.0539455
0.0400603
0.0416495
0.0432296
0.0448497
0.0465595
0.0483436
0.050233
0.0518368
0.0541427
0.0566119
0.0592859
0.0418061
0.0435378
0.0452837
0.0470948
0.0490182
0.0510402
0.0531956
0.0550974
0.0577872
0.0605868
0.0639337
0.0432967
0.0451493
0.0470358
0.0490087
0.0511121
0.0533354
0.0557104
0.0578656
0.0608703
0.0639522
0.0678555
0.0445125
0.0464632
0.048464
0.0505682
0.0528169
0.0552034
0.0577546
0.0601142
0.0633725
0.0666947
0.0710227
0.0454374
0.0474625
0.0495503
0.0517542
0.054113
0.0566229
0.0593062
0.0618234
0.0652655
0.0687772
0.0734124
0.0481351
0.0502818
0.0525531
0.054986
0.057579
0.0603495
0.0629743
0.0665348
0.0701802
0.0750127
0.0484716
0.0506481
0.0529535
0.0554237
0.0580587
0.0608716
0.0635526
0.0671689
0.0708905
0.0758115
0.00868646
0.0082532
0.00766553
0.00685879
0.00577495
0.004365
0.00245018
-1.6226e-05
-0.00319884
-0.00700291
-0.0119982
-0.0173657
-0.0263651
-0.0325127
-0.0472734
0.0106759
0.0104307
0.0100364
0.00944454
0.00860034
0.00743578
0.00583395
0.00369248
0.000923338
-0.00238922
-0.00670581
-0.0114182
-0.019247
-0.0242336
-0.0381083
0.0125333
0.0123298
0.0119593
0.0113648
0.0104677
0.00918908
0.00740715
0.00505355
0.00224041
-0.00147294
-0.00551047
-0.0123015
-0.0164012
-0.0286616
0.0147389
0.0147218
0.0145574
0.0142108
0.013567
0.0126077
0.0112119
0.00929126
0.00698424
0.00389645
0.000495287
-0.0052596
-0.00862
-0.0191412
0.0171373
0.0171774
0.0170562
0.0166905
0.0160165
0.0150064
0.0135271
0.0116905
0.00927275
0.0064414
0.00169926
-0.00104728
-0.00972468
0.0195795
0.0198253
0.0199261
0.0198195
0.0194507
0.0187817
0.0177359
0.01637
0.0145876
0.0123144
0.00854375
0.0063748
-0.000516939
0.0220138
0.022459
0.0227844
0.0229237
0.0228425
0.0225195
0.021894
0.0210117
0.0197856
0.0180895
0.0152363
0.0136777
0.00844453
0.0250608
0.0255962
0.0259829
0.026177
0.0261807
0.0259732
0.0255464
0.0248447
0.0237043
0.0217459
0.0207411
0.0170818
0.0276004
0.0283492
0.0289653
0.0294308
0.0297488
0.0299353
0.0299372
0.0297409
0.0290986
0.0279679
0.0274825
0.025332
0.0300519
0.0310014
0.0318441
0.032562
0.0331793
0.0337246
0.0341471
0.0344274
0.0342581
0.0338575
0.0338737
0.0330598
0.0323878
0.0335279
0.0345826
0.035547
0.0364437
0.0373129
0.0381226
0.0388506
0.0391273
0.0393985
0.0398609
0.0402468
0.0358994
0.0371528
0.0383444
0.0395072
0.040677
0.0418222
0.0429562
0.0436448
0.0445109
0.0453922
0.0468841
0.0380886
0.0395236
0.0409255
0.0423292
0.0437721
0.045221
0.046704
0.0477845
0.0491714
0.0504545
0.0528801
0.0400693
0.0416674
0.0432577
0.0448787
0.0465649
0.0482874
0.0500743
0.0514956
0.0533509
0.0549878
0.0582127
0.0418167
0.0435578
0.0453132
0.0471239
0.049022
0.0509808
0.0530308
0.0547479
0.0569871
0.0589447
0.062861
0.0433089
0.0451711
0.0470666
0.0490376
0.0511138
0.0532725
0.0555429
0.0575083
0.060064
0.0622983
0.0667782
0.0445259
0.0464865
0.0484957
0.0505967
0.0528167
0.0551371
0.0575834
0.0597522
0.062557
0.0650227
0.0699422
0.0454519
0.0474871
0.0495826
0.0517821
0.0541108
0.0565535
0.0591316
0.0614557
0.0644434
0.0670923
0.0723294
0.0481605
0.0503144
0.0525802
0.054982
0.057507
0.0601725
0.0626025
0.0657064
0.0684853
0.0739267
0.0484975
0.0506807
0.05298
0.0554183
0.0579849
0.0606931
0.0631781
0.0663364
0.0691898
0.0747225
0.00866942
0.00823317
0.00763942
0.00682862
0.00574296
0.0043233
0.00241545
-3.44904e-05
-0.00321525
-0.00700371
-0.0120461
-0.0174467
-0.0267585
-0.033543
-0.0487659
0.0106681
0.0104151
0.0100145
0.00941765
0.00856882
0.00740126
0.00580137
0.00368376
0.000928906
-0.00237193
-0.00674007
-0.0114996
-0.0197059
-0.0252777
-0.0395538
0.0125248
0.0123162
0.0119393
0.0113384
0.0104365
0.00915506
0.0073954
0.00506484
0.00225851
-0.00148116
-0.00559882
-0.0127511
-0.0174792
-0.0300819
0.0147339
0.0147127
0.0145445
0.0141888
0.0135491
0.012583
0.0111995
0.00930305
0.00699337
0.00388699
0.000383993
-0.00573925
-0.00975506
-0.0205549
0.0171304
0.0171684
0.0170419
0.0166765
0.016009
0.0150005
0.0135419
0.0117101
0.00925199
0.00632456
0.00120728
-0.00220493
-0.0111297
0.0195733
0.0198176
0.0199173
0.0198107
0.0194476
0.0187892
0.0177618
0.0164047
0.0145628
0.0121968
0.00803708
0.00520627
-0.00189957
0.0220078
0.022453
0.0227776
0.022922
0.0228484
0.0225359
0.021929
0.021046
0.0197674
0.0179662
0.0147197
0.0124622
0.00706886
0.0250558
0.0255942
0.0259861
0.026193
0.0262104
0.026015
0.0255849
0.0248352
0.0235749
0.0211992
0.0194794
0.0157046
0.0275969
0.0283483
0.0289734
0.0294527
0.0297876
0.0299805
0.029979
0.0297345
0.0289733
0.0274063
0.0261943
0.0239386
0.0300499
0.0310033
0.0318558
0.0325911
0.0332269
0.0337773
0.0341898
0.0344189
0.0341289
0.0332861
0.0325598
0.0316746
0.032388
0.0335327
0.0345987
0.0355803
0.0364973
0.0373743
0.0381686
0.0388393
0.0389925
0.0388062
0.0385256
0.0388752
0.035907
0.0371727
0.038383
0.0395655
0.0407427
0.0418741
0.0429462
0.0435103
0.0439103
0.0440442
0.0455093
0.0380993
0.0395476
0.040968
0.0423909
0.0438408
0.0452763
0.0466988
0.0476465
0.048565
0.0490872
0.051512
0.0400827
0.041695
0.0433042
0.0449437
0.0466357
0.0483429
0.05007
0.0513553
0.0527319
0.0535996
0.0568539
0.0418327
0.0435889
0.0453631
0.0471915
0.0490945
0.051037
0.0530262
0.0546019
0.056363
0.0575436
0.0615032
0.0433272
0.0452051
0.0471194
0.0491073
0.0511873
0.0533285
0.0555375
0.0573591
0.0594319
0.0608866
0.0654228
0.0445463
0.046523
0.0485509
0.050668
0.052891
0.0551925
0.0575769
0.0595994
0.0619201
0.0635991
0.068588
0.0454741
0.0475256
0.0496396
0.0518545
0.0541853
0.056608
0.0591235
0.0612988
0.0638008
0.0656605
0.0709767
0.0482006
0.0503726
0.0526533
0.0550564
0.0575606
0.0601631
0.0624425
0.0650604
0.067048
0.0725753
0.0485383
0.0507395
0.0530533
0.0554924
0.0580375
0.0606826
0.0630158
0.0656881
0.0677504
0.0733722
0.00865152
0.00821219
0.00761295
0.00679834
0.00570922
0.00428074
0.00237597
-6.04018e-05
-0.00323098
-0.00699545
-0.0120577
-0.0174684
-0.0270727
-0.034236
-0.0505168
0.0106572
0.0103965
0.00998963
0.00938805
0.00853535
0.00736502
0.00576798
0.00367065
0.000933701
-0.00234497
-0.00673274
-0.0115152
-0.0200619
-0.0261475
-0.0410712
0.0125127
0.0122979
0.0119142
0.011307
0.0104036
0.00912423
0.00738637
0.00508107
0.00229414
-0.00145025
-0.00560872
-0.0130988
-0.0183964
-0.0315258
0.0147254
0.0146992
0.014526
0.014162
0.0135249
0.0125597
0.0111938
0.00932556
0.00703207
0.00392633
0.000370969
-0.00610538
-0.0107155
-0.0219423
0.0171198
0.0171549
0.0170238
0.016659
0.0159992
0.0150029
0.0135723
0.0117618
0.00929076
0.00631558
0.000833688
-0.00317563
-0.0124833
0.0195641
0.0198065
0.0199048
0.0198013
0.0194464
0.0188049
0.0178049
0.0164727
0.0146076
0.0121966
0.00765545
0.00422955
-0.00322045
0.0219997
0.0224448
0.0227692
0.0229206
0.0228591
0.0225644
0.0219838
0.0211214
0.019823
0.0179705
0.0143299
0.0114645
0.00576739
0.0250498
0.0255918
0.025992
0.0262151
0.0262535
0.0260795
0.0256693
0.0249043
0.023585
0.0207917
0.018462
0.014412
0.0275934
0.0283491
0.0289864
0.0294839
0.0298423
0.0300525
0.0300707
0.0298112
0.0289935
0.0269885
0.0251666
0.0226442
0.0300491
0.0310084
0.0318747
0.0326319
0.0332932
0.0338602
0.0342873
0.0345003
0.0341539
0.0328602
0.0315235
0.0303898
0.0323902
0.033542
0.0346237
0.0356282
0.036573
0.0374683
0.0382731
0.0389239
0.0390201
0.0383701
0.0374838
0.0376034
0.0359206
0.0372034
0.0384379
0.0396481
0.0408445
0.0419881
0.0430365
0.0435415
0.0434684
0.0430008
0.0442413
0.0381171
0.039584
0.0410291
0.0424799
0.0439492
0.0453977
0.0467969
0.0476783
0.0481165
0.0480357
0.0502512
0.0401045
0.0417364
0.0433708
0.045038
0.0467493
0.0484693
0.0501741
0.0513875
0.0522734
0.0525412
0.0555986
0.0418582
0.0436349
0.0454347
0.0472903
0.0492123
0.0511674
0.0531348
0.0546348
0.0558987
0.05648
0.0602501
0.0433559
0.0452552
0.0471952
0.04921
0.0513089
0.0534622
0.0556492
0.057392
0.0589632
0.0598185
0.0641708
0.0445777
0.0465765
0.0486301
0.0507738
0.0530154
0.0553285
0.0576908
0.0596313
0.0614469
0.0625274
0.067336
0.0455078
0.0475818
0.0497215
0.0519626
0.0543118
0.0567456
0.059239
0.0613292
0.0633238
0.0645853
0.069725
0.0482587
0.0504563
0.0527629
0.0551842
0.057699
0.0602792
0.0624714
0.0645809
0.0659711
0.0713236
0.0485976
0.0508243
0.0531637
0.0556209
0.0581762
0.0607989
0.0630431
0.0652073
0.0666736
0.0721206
0.00863024
0.00818626
0.00758
0.00675939
0.00566424
0.00422838
0.0023269
-9.29002e-05
-0.00324415
-0.00698213
-0.0120557
-0.017483
-0.0273722
-0.03459
-0.0520053
0.0106419
0.0103737
0.00995941
0.00935161
0.00849366
0.00732007
0.00572767
0.0036532
0.000941277
-0.00231046
-0.00670698
-0.0115169
-0.0203784
-0.026772
-0.0422112
0.0124964
0.0122747
0.0118839
0.0112704
0.0103667
0.00909209
0.00737909
0.00510449
0.00234427
-0.00140125
-0.00559521
-0.0134012
-0.0190757
-0.0325373
0.0147132
0.0146814
0.014503
0.014132
0.0134983
0.0125394
0.011196
0.00936068
0.00709353
0.00398985
0.000394875
-0.00641102
-0.0114197
-0.02286
0.0171062
0.0171383
0.0170039
0.0166424
0.015994
0.0150186
0.0136208
0.01184
0.00936336
0.0063533
0.000530376
-0.00387598
-0.0133395
0.0195532
0.0197942
0.0198924
0.0197956
0.0194542
0.0188368
0.0178693
0.0165685
0.0146931
0.012251
0.00735448
0.00353817
-0.00402661
0.0219913
0.022437
0.0227636
0.0229255
0.0228818
0.0226134
0.022064
0.0212313
0.0199241
0.0180389
0.0140282
0.0107761
0.0049982
0.0250461
0.0255939
0.0260072
0.0262522
0.0263201
0.0261741
0.0257926
0.0250222
0.0236681
0.0204854
0.0177785
0.01367
0.0275939
0.028357
0.0290114
0.0295338
0.0299241
0.0301598
0.0302066
0.0299421
0.0290922
0.0266793
0.0244912
0.0219216
0.030054
0.0310226
0.0319084
0.0326941
0.0333895
0.0339819
0.0344342
0.034642
0.034265
0.0325509
0.0308582
0.0296894
0.0323996
0.0335625
0.034666
0.0357009
0.036682
0.0376041
0.0384314
0.0390751
0.0391408
0.0380597
0.0368302
0.0369236
0.0359473
0.0372538
0.0385203
0.0397673
0.0409916
0.042159
0.0431984
0.0436714
0.0431576
0.0423594
0.0435764
0.0381497
0.039642
0.0411203
0.0426085
0.0441062
0.0455798
0.0469706
0.0478151
0.047804
0.0474024
0.0496012
0.0401427
0.0418016
0.0434698
0.0451744
0.0469147
0.0486601
0.0503581
0.0515307
0.0519576
0.0519156
0.0549603
0.0419014
0.0437063
0.0455406
0.0474335
0.0493846
0.0513655
0.0533273
0.0547843
0.0555817
0.0558611
0.0596189
0.0434035
0.045332
0.0473068
0.0493588
0.0514872
0.0536663
0.0558485
0.0575456
0.0586464
0.0592054
0.0635446
0.0446292
0.0466578
0.0487465
0.0509272
0.0531984
0.0555372
0.0578956
0.0597873
0.0611286
0.0619195
0.0667122
0.0455622
0.0476667
0.0498416
0.0521195
0.0544984
0.0569579
0.0594478
0.061487
0.063005
0.0639807
0.0691017
0.0483461
0.050579
0.0529221
0.0553731
0.0579134
0.0604906
0.0626293
0.0642615
0.0653698
0.0706995
0.0486864
0.0509483
0.053324
0.055811
0.0583917
0.0610116
0.0632004
0.0648876
0.0660753
0.0714945
0.00860619
0.00815645
0.00754251
0.00671515
0.00561376
0.00417349
0.00227776
-0.0001225
-0.00324756
-0.00695988
-0.0120363
-0.017524
-0.0277233
-0.0347813
-0.052762
0.0106233
0.0103476
0.00992558
0.00931132
0.00844855
0.00727435
0.00569105
0.00364306
0.00096268
-0.00226117
-0.00665656
-0.0115368
-0.020726
-0.0271026
-0.0427322
0.0124774
0.0122486
0.0118513
0.0112332
0.0103322
0.00906828
0.00738513
0.00514728
0.00241691
-0.00132373
-0.00559179
-0.0137249
-0.0194335
-0.0328975
0.0146989
0.0146618
0.014479
0.0141041
0.0134768
0.012531
0.0112176
0.00942181
0.0071862
0.00408869
0.000417634
-0.00672155
-0.0117714
-0.0230987
0.0170924
0.0171227
0.0169879
0.0166346
0.0160042
0.0150592
0.0137018
0.0119555
0.00948099
0.00639883
0.000235321
-0.00420265
-0.0134831
0.019544
0.0197854
0.0198867
0.019802
0.019482
0.0188981
0.017971
0.0167063
0.0148308
0.0123197
0.00707489
0.00324295
-0.00409131
0.0219864
0.022435
0.0227679
0.022946
0.0229284
0.0226963
0.0221869
0.0213904
0.0200837
0.0181302
0.0137605
0.0105095
0.00499927
0.0250506
0.0256084
0.0260417
0.0263171
0.0264247
0.0263171
0.0259714
0.0252034
0.0237818
0.020228
0.0175412
0.0137265
0.0276049
0.0283807
0.0290591
0.0296157
0.0300484
0.0303218
0.0304046
0.030143
0.0292277
0.0264315
0.0242832
0.0220263
0.0300717
0.0310556
0.0319684
0.0327922
0.0335326
0.0341632
0.0346499
0.0348606
0.0344196
0.0323147
0.0306803
0.0298399
0.032424
0.0336044
0.0347379
0.0358135
0.036842
0.0378037
0.0386647
0.0393103
0.0393121
0.0378337
0.0366817
0.0371153
0.035998
0.037337
0.0386464
0.0399418
0.0412071
0.0424095
0.0434499
0.043858
0.0429414
0.0422388
0.0438036
0.0382086
0.0397355
0.0412584
0.0427962
0.0443361
0.045846
0.0472385
0.0480151
0.0475958
0.0473061
0.04986
0.0402093
0.0419046
0.0436187
0.0453733
0.0471568
0.0489396
0.0506407
0.0517431
0.0517564
0.0518411
0.0552452
0.0419749
0.0438178
0.0456989
0.0476422
0.0496372
0.0516562
0.0536224
0.0550074
0.0553877
0.0558057
0.0599239
0.043483
0.0454507
0.0474732
0.0495758
0.0517486
0.0539664
0.0561539
0.057777
0.0584593
0.0591663
0.063865
0.0447137
0.0467826
0.0489194
0.0511508
0.053467
0.0558449
0.0582093
0.060025
0.0609463
0.0618941
0.0670429
0.0456507
0.0477961
0.0500196
0.0523483
0.0547725
0.0572712
0.0597679
0.0617293
0.062827
0.063966
0.0694385
0.0484788
0.0507603
0.0531542
0.0556508
0.0582303
0.0608147
0.0628738
0.0640865
0.0653633
0.0710379
0.0488208
0.0511315
0.0535579
0.0560906
0.0587105
0.0613378
0.0634456
0.0647145
0.0660745
0.0718314
0.00857991
0.00812382
0.00750217
0.00666823
0.00556183
0.00412065
0.00223502
-0.000142047
-0.00323289
-0.00692199
-0.0119872
-0.0176055
-0.0281393
-0.0347562
-0.0527607
0.0106025
0.0103198
0.00989062
0.00927092
0.00840555
0.00723496
0.00566675
0.00364955
0.00100916
-0.00218633
-0.00656592
-0.011588
-0.0211195
-0.0271096
-0.0425339
0.0124575
0.0122227
0.0118211
0.0112018
0.0103083
0.0090628
0.00741514
0.00522235
0.00252443
-0.00119818
-0.00561
-0.0140806
-0.0194257
-0.0325318
0.0146851
0.014644
0.0144592
0.0140854
0.0134696
0.0125462
0.0112709
0.00952363
0.00732446
0.00424477
0.00042778
-0.00704553
-0.0117213
-0.0225932
0.0170826
0.017114
0.0169839
0.0166457
0.0160425
0.0151382
0.0138314
0.0121257
0.00966663
0.00644161
-5.65453e-05
-0.00409943
-0.0128579
0.0195413
0.0197866
0.0198968
0.0198316
0.0195434
0.019004
0.0181286
0.0169074
0.0150455
0.0123938
0.00681523
0.00340461
-0.00336231
0.0219907
0.0224463
0.022792
0.0229943
0.0230136
0.0228297
0.0223727
0.021622
0.0203286
0.0182363
0.01353
0.0107278
0.00581968
0.0250716
0.0256464
0.0261084
0.0264256
0.0265851
0.0265303
0.0262319
0.0254774
0.0239186
0.020026
0.0178161
0.0146282
0.0276357
0.0284319
0.0291435
0.0297465
0.0302347
0.0305616
0.0306933
0.0304451
0.0293939
0.0262562
0.0246129
0.0230016
0.0301123
0.0311198
0.0320697
0.0329442
0.0337432
0.0344287
0.0349652
0.0351886
0.0346128
0.0321663
0.0310635
0.0308829
0.0324741
0.0336812
0.0348554
0.035985
0.0370749
0.0380936
0.0390057
0.039663
0.0395299
0.0377104
0.0371158
0.0382195
0.0360869
0.0374696
0.0388359
0.0401947
0.041519
0.0427747
0.0438257
0.0440983
0.0428417
0.0427205
0.0449623
0.0383089
0.0398822
0.0414643
0.0430673
0.0446679
0.0462334
0.0476364
0.0482756
0.0475175
0.0478309
0.0510668
0.04032
0.042064
0.0438392
0.0456603
0.0475062
0.0493463
0.0510582
0.0520219
0.0516977
0.0524048
0.0564928
0.042095
0.0439885
0.0459323
0.047943
0.0500017
0.0520797
0.054057
0.0553021
0.0553468
0.0564035
0.0612049
0.0436112
0.0456311
0.0477175
0.0498884
0.052126
0.0544039
0.0566028
0.0580847
0.058434
0.0597933
0.0651722
0.0448486
0.046971
0.0491727
0.0514729
0.0538547
0.0562937
0.0586697
0.0603429
0.0609336
0.0625454
0.0683692
0.0457908
0.0479907
0.0502797
0.0526775
0.0551681
0.0577285
0.060237
0.0620548
0.0628246
0.0646365
0.0707769
0.0486776
0.0510251
0.0534883
0.0560518
0.0586932
0.0612895
0.0632038
0.0640913
0.0660482
0.0723817
0.0490219
0.0513987
0.0538946
0.0564943
0.0591763
0.0618154
0.0637775
0.0647241
0.0667689
0.0731751
0.00855277
0.00809047
0.00746207
0.00662302
0.00551468
0.00407739
0.00220833
-0.000141075
-0.00319095
-0.00685785
-0.0119085
-0.0177361
-0.0285654
-0.0344803
-0.0521335
0.0105816
0.0102932
0.00985856
0.00923596
0.00837225
0.00721112
0.00566584
0.00368502
0.00109229
-0.00207152
-0.00643316
-0.011678
-0.0215022
-0.0267903
-0.0417249
0.0124403
0.0122019
0.0117994
0.0111846
0.0103053
0.00908772
0.00748257
0.00534286
0.00268359
-0.00102032
-0.0056545
-0.0144063
-0.0190476
-0.0315504
0.0146759
0.0146336
0.0144511
0.0140853
0.0134886
0.0125984
0.0113706
0.00968078
0.00752731
0.00446384
0.000423112
-0.0073165
-0.0112653
-0.0214588
0.0170833
0.0171206
0.0170029
0.0166886
0.0161241
0.0152721
0.014026
0.0123724
0.00992697
0.00648188
-0.000274097
-0.00356049
-0.0115845
0.0195523
0.0198072
0.0199345
0.0198986
0.0196548
0.0191724
0.0183605
0.0171967
0.0153454
0.0124769
0.00665185
0.0040295
-0.00196341
0.0220122
0.0224811
0.0228487
0.0230857
0.0231552
0.0230332
0.0226421
0.0219536
0.020669
0.0183626
0.0134177
0.0114377
0.00733318
0.0251204
0.025722
0.0262239
0.0265969
0.026823
0.0268361
0.026604
0.0258566
0.024086
0.0199639
0.0186095
0.0162467
0.0276985
0.0285257
0.0292826
0.0299465
0.0305056
0.0309029
0.0311049
0.0308621
0.0296009
0.0262415
0.0254868
0.0247166
0.0301889
0.0312315
0.0322313
0.0331716
0.0340456
0.0348043
0.0354144
0.0356409
0.034857
0.0321978
0.0320149
0.0326867
0.0325642
0.0338101
0.0350384
0.0362381
0.0374067
0.0385014
0.0394904
0.0401487
0.0398083
0.0377855
0.0381402
0.0401041
0.0362323
0.0376728
0.0391127
0.0405533
0.0419566
0.0432926
0.0443427
0.0444082
0.0429575
0.0438129
0.0469198
0.0384696
0.040104
0.0417629
0.0434504
0.0451327
0.0467817
0.0481822
0.0486143
0.0476707
0.0489856
0.0530887
0.0404947
0.0423028
0.0441574
0.046065
0.047995
0.0499215
0.0516298
0.0523864
0.0518848
0.0536155
0.0585704
0.0422823
0.0442421
0.0462675
0.0483667
0.0505116
0.0526782
0.0546511
0.055689
0.055564
0.0576637
0.063329
0.0438092
0.0458976
0.0480674
0.0503281
0.0526538
0.0550221
0.0572158
0.0584904
0.0586771
0.0610959
0.0673335
0.0450556
0.047248
0.0495345
0.0519257
0.0543971
0.0569278
0.0592981
0.0607637
0.061198
0.0638836
0.0705584
0.0460047
0.0482759
0.0506507
0.0531403
0.0557217
0.0583746
0.0608769
0.0624869
0.0631057
0.0660027
0.0729845
0.0489684
0.0514023
0.0539579
0.0566128
0.0593472
0.0619369
0.0636432
0.0643842
0.0674354
0.0745987
0.0493155
0.051779
0.0543675
0.0570593
0.0598342
0.0624664
0.0642204
0.065024
0.0681694
0.0753937
0.00852712
0.00805972
0.0074268
0.00658571
0.00548046
0.00405334
0.00220835
-0.000107753
-0.00311429
-0.00675448
-0.0118197
-0.0179233
-0.0289152
-0.0339532
-0.0510902
0.0105639
0.010272
0.00983517
0.00921401
0.00835827
0.00721424
0.00570077
0.00376344
0.00122212
-0.0019009
-0.00627749
-0.0118147
-0.0217844
-0.0261653
-0.0404963
0.0124309
0.0121928
0.011795
0.0111924
0.0103361
0.00915678
0.00760284
0.00552085
0.00291221
-0.000807977
-0.00573089
-0.0146084
-0.0183233
-0.0301429
0.0146772
0.0146386
0.0144648
0.0141159
0.0135483
0.012703
0.0115335
0.00990716
0.00781395
0.00472872
0.000400869
-0.00743799
-0.010431
-0.019886
0.0171034
0.0171537
0.0170583
0.0167792
0.0162663
0.0154791
0.0143016
0.0127166
0.0102458
0.00651907
-0.000317008
-0.00261417
-0.00985669
0.0195871
0.0198595
0.0200147
0.0200203
0.0198348
0.0194236
0.0186848
0.0175972
0.0157156
0.0125709
0.00668819
0.00508878
-9.10781e-05
0.0220619
0.0225529
0.0229541
0.023239
0.0233734
0.0233287
0.0230152
0.0224094
0.0210915
0.0185127
0.0135294
0.0126085
0.00934072
0.0252117
0.0258524
0.0264084
0.0268527
0.0271619
0.0272569
0.0271136
0.026329
0.0242907
0.0201494
0.0198891
0.0183803
0.0278091
0.0286807
0.0294975
0.030239
0.0308865
0.0313703
0.0316663
0.0313829
0.029858
0.0264978
0.0268712
0.0269676
0.0303185
0.0314105
0.0324756
0.0334991
0.0344667
0.0353164
0.0360251
0.0362072
0.0351637
0.0325223
0.0334991
0.0350465
0.0327123
0.034012
0.0353108
0.0365988
0.0378655
0.0390559
0.0401478
0.0407581
0.0401611
0.0381742
0.0397186
0.0425636
0.036456
0.0379716
0.0395043
0.0410471
0.0425503
0.043993
0.0449919
0.0448039
0.0434061
0.0454787
0.0494696
0.0387137
0.0404271
0.0421828
0.0439761
0.0457624
0.0475215
0.0488681
0.049049
0.0481741
0.0507315
0.0557191
0.0407574
0.0426481
0.0446029
0.0466194
0.048657
0.0506962
0.0523485
0.0528564
0.0524376
0.0554336
0.0612711
0.0425615
0.044607
0.0467355
0.0489462
0.0512019
0.0534834
0.0553986
0.0561898
0.0561604
0.0595453
0.0660892
0.0441026
0.0462792
0.0485545
0.0509289
0.0533682
0.055853
0.0579877
0.0590174
0.0593107
0.0630324
0.070142
0.0453607
0.0476434
0.0500373
0.0525438
0.0551311
0.0577794
0.0600896
0.0613119
0.061862
0.0658659
0.0734038
0.0463188
0.0486818
0.0511654
0.0537717
0.0564707
0.0592417
0.0616835
0.0630513
0.0637932
0.0680212
0.0758552
0.0493814
0.0519251
0.0545982
0.0573719
0.0602246
0.0627533
0.0642183
0.065088
0.0694806
0.0774832
0.0497323
0.052306
0.0550124
0.0578235
0.0607165
0.0632876
0.0648008
0.0657371
0.0702315
0.0782823
0.00850672
0.00803663
0.00740295
0.00656477
0.00546934
0.00406014
0.00224682
-3.0396e-05
-0.00299561
-0.00660666
-0.0117563
-0.0181743
-0.0291192
-0.0331962
-0.0498235
0.0105544
0.0102624
0.00982839
0.00921501
0.00837543
0.0072577
0.00578515
0.00389831
0.00140884
-0.00166813
-0.00613548
-0.0120046
-0.021894
-0.0252694
-0.0390311
0.0124366
0.0122048
0.0118193
0.0112384
0.0104156
0.00928512
0.00779078
0.0057687
0.00321704
-0.000596664
-0.00584395
-0.0146132
-0.0172935
-0.0284856
0.0146975
0.0146694
0.0145129
0.0141919
0.0136653
0.012877
0.0117757
0.0102173
0.00819075
0.00500437
0.000358594
-0.00733503
-0.00926142
-0.018047
0.0171544
0.0172275
0.0171664
0.0169356
0.0164876
0.0157766
0.0146748
0.0131648
0.0105889
0.00655128
-0.000109745
-0.00130462
-0.00784402
0.0196584
0.019959
0.0201551
0.0202165
0.0201039
0.0197764
0.0191206
0.0181152
0.0161233
0.0126764
0.00699953
0.0065373
0.00208654
0.0221539
0.0226787
0.0231274
0.0234753
0.0236904
0.0237366
0.0235134
0.0229961
0.0215633
0.0186908
0.0139419
0.0141936
0.011675
0.0253636
0.0260583
0.0266845
0.0272169
0.0276238
0.0278161
0.0277667
0.0268622
0.0245392
0.020661
0.0216067
0.0208624
0.027987
0.0289188
0.0298126
0.0306493
0.031401
0.031989
0.0323835
0.0319752
0.0301737
0.0271044
0.028716
0.0295884
0.0305219
0.0316798
0.0328284
0.0339537
0.0350314
0.035992
0.036803
0.0368557
0.0355437
0.0332198
0.0354649
0.0377964
0.0329403
0.0343115
0.0356996
0.0370955
0.038478
0.0397856
0.0409827
0.0414594
0.0406017
0.0389572
0.0417979
0.0454326
0.0367839
0.0383942
0.0400404
0.0417038
0.0433303
0.0448806
0.0457424
0.0453009
0.0442687
0.0476634
0.052447
0.039068
0.0408811
0.042755
0.0446736
0.0465886
0.048457
0.0496637
0.0495978
0.0491096
0.0530127
0.0587936
0.0411359
0.0431304
0.0452077
0.0473534
0.0495247
0.0516744
0.0531846
0.0534518
0.0534385
0.0578016
0.0644307
0.0429614
0.0451144
0.047369
0.0497123
0.052106
0.0544988
0.0562702
0.0568262
0.0572186
0.0619898
0.0693215
0.044521
0.0468081
0.0492125
0.0517224
0.0543033
0.0568998
0.0588896
0.0596887
0.0604177
0.0655429
0.073434
0.0457941
0.0481898
0.0507153
0.0533597
0.0560915
0.0588515
0.0610163
0.0620118
0.0630088
0.068431
0.0767418
0.0467638
0.0492418
0.0518588
0.0546047
0.0574503
0.0603328
0.062629
0.063773
0.0649703
0.0706296
0.0792256