/*--------------------------------*- C++ -*----------------------------------*\
  =========                 |
  \\      /  F ield         | OpenFOAM: The Open Source CFD Toolbox
   \\    /   O peration     | Website:  https://openfoam.org
    \\  /    A nd           | Version:  6
     \\/     M anipulation  |
\*---------------------------------------------------------------------------*/
FoamFile
{
    version     2.0;
    format      ascii;
    class       volVectorField;
    location    "47";
    object      wallShearStress;
}
// * * * * * * * * * * * * * * * * * * * * * * * * * * * * * * * * * * * * * //

dimensions      [0 2 -2 0 0 0 0];

internalField   uniform (0 0 0);

boundaryField
{
    inlet
    {
        type            calculated;
        value           uniform (0 0 0);
    }
    outlet
    {
        type            calculated;
        value           uniform (0 0 0);
    }
    roughCylinder
    {
        type            calculated;
        value           nonuniform List<vector> 
5120
(
(-8.88468e-05 -0.000107238 -5.82719e-05)
(-0.000158334 -0.000258735 -6.19853e-05)
(-0.000239909 -0.000412914 -4.64838e-07)
(-0.000287155 -0.000483926 4.89339e-05)
(-0.000341263 -0.000540024 9.32892e-05)
(-0.000386438 -0.000565153 0.00012967)
(-0.000425574 -0.000573053 0.000157869)
(-0.000453665 -0.000564124 0.000176228)
(-0.000477022 -0.00055157 0.000188298)
(-0.000497903 -0.00054278 0.000198076)
(-0.000517849 -0.000537865 0.000207101)
(-0.000534297 -0.000535462 0.000213623)
(-0.00054603 -0.000533301 0.000216593)
(-0.000555498 -0.000532982 0.000217098)
(-0.000561932 -0.000532948 0.000214749)
(-0.00056625 -0.000533587 0.000210064)
(-0.000566933 -0.000532876 0.000202711)
(-0.000568659 -0.000534203 0.000194319)
(-0.000571819 -0.000537873 0.00018505)
(-0.000559513 -0.000528688 0.000170449)
(-0.00055765 -0.000529096 0.000158894)
(-0.000566628 -0.000539054 0.000149805)
(-0.000587012 -0.000559379 0.000142262)
(-0.000570875 -0.000546586 0.000125684)
(-0.000568049 -0.000545915 0.000112178)
(-0.000572382 -0.000551587 9.96235e-05)
(-0.000574013 -0.000555002 8.6286e-05)
(-0.000567382 -0.000550421 7.15022e-05)
(-0.000564206 -0.00054891 5.68329e-05)
(-0.000559646 -0.000545732 4.15685e-05)
(-0.000555595 -0.000542757 2.55677e-05)
(-0.000552787 -0.000540672 8.66203e-06)
(-0.000123257 -0.000131241 -6.74297e-05)
(-0.000167451 -0.000245978 -6.56535e-05)
(-0.000258756 -0.000406677 -8.66186e-06)
(-0.000308652 -0.000481231 4.06425e-05)
(-0.000365334 -0.000540524 8.53113e-05)
(-0.000412151 -0.000568074 0.000122409)
(-0.00045262 -0.000577616 0.000151049)
(-0.000483553 -0.000572338 0.000170179)
(-0.00051036 -0.000564262 0.000183738)
(-0.000533681 -0.000557593 0.000195048)
(-0.000556791 -0.00055435 0.00020579)
(-0.000573987 -0.000550046 0.000212715)
(-0.000586442 -0.000547159 0.000216006)
(-0.000593234 -0.000543391 0.00021553)
(-0.000599753 -0.000542924 0.000213313)
(-0.000604854 -0.000543922 0.000209035)
(-0.000607435 -0.000544669 0.000202422)
(-0.000609575 -0.000546273 0.000194158)
(-0.000610363 -0.000547944 0.000184253)
(-0.00059878 -0.00054003 0.000170326)
(-0.000598684 -0.000542088 0.000159449)
(-0.000611357 -0.000554805 0.000151145)
(-0.000633294 -0.00057567 0.000143592)
(-0.00061667 -0.000563336 0.00012715)
(-0.000616 -0.000564839 0.000114043)
(-0.000620604 -0.000570652 0.000101364)
(-0.00062263 -0.000574464 8.79212e-05)
(-0.0006152 -0.000569549 7.29031e-05)
(-0.000611564 -0.00056785 5.79758e-05)
(-0.000605599 -0.000563669 4.23687e-05)
(-0.00060088 -0.000560324 2.60617e-05)
(-0.000597873 -0.000558227 8.83241e-06)
(-0.000106821 -9.8862e-05 -4.53478e-05)
(-0.000186395 -0.000243368 -7.29473e-05)
(-0.000276791 -0.000394178 -1.75841e-05)
(-0.000329512 -0.000472304 3.11392e-05)
(-0.00038825 -0.00053408 7.58962e-05)
(-0.000437977 -0.00056595 0.000113941)
(-0.000481229 -0.000579234 0.000143466)
(-0.00051415 -0.000576837 0.000163371)
(-0.00054417 -0.000572903 0.000178601)
(-0.000571669 -0.000570071 0.000192011)
(-0.000596198 -0.000567027 0.000203547)
(-0.000615908 -0.000562866 0.000211459)
(-0.00062787 -0.00055781 0.000214697)
(-0.000637495 -0.00055555 0.000215267)
(-0.000642692 -0.000553269 0.000212708)
(-0.000646819 -0.000552899 0.000208209)
(-0.000651831 -0.000555331 0.000202394)
(-0.000655106 -0.000557815 0.000194477)
(-0.000653784 -0.000557902 0.000184114)
(-0.00064422 -0.000552292 0.000171147)
(-0.000646091 -0.000555974 0.000160879)
(-0.000660518 -0.000569429 0.000152748)
(-0.000681197 -0.000588285 0.000144575)
(-0.000661783 -0.000574503 0.000127873)
(-0.000662299 -0.000577115 0.000115032)
(-0.000665952 -0.000582002 0.000102161)
(-0.000668132 -0.000585966 8.8717e-05)
(-0.000661672 -0.00058236 7.38118e-05)
(-0.000659439 -0.000582173 5.89019e-05)
(-0.000654859 -0.000579596 4.3206e-05)
(-0.000651033 -0.000577347 2.6647e-05)
(-0.000648343 -0.000575729 9.04202e-06)
(-0.000120478 -9.57827e-05 -3.61913e-05)
(-0.000191972 -0.000221748 -7.50727e-05)
(-0.000293157 -0.000377004 -2.67474e-05)
(-0.000348798 -0.000458614 2.08301e-05)
(-0.000409901 -0.000523476 6.55759e-05)
(-0.000461427 -0.000558255 0.000104124)
(-0.000507087 -0.000575085 0.000134298)
(-0.00054449 -0.000578717 0.000155912)
(-0.000578424 -0.000579547 0.000173203)
(-0.00060785 -0.000578182 0.000187973)
(-0.000635875 -0.000577325 0.000200858)
(-0.000656554 -0.000572529 0.000209238)
(-0.000670445 -0.000566936 0.000213218)
(-0.000676639 -0.000560746 0.000212849)
(-0.000682391 -0.000558136 0.000210641)
(-0.000688572 -0.000558847 0.000206911)
(-0.000695552 -0.000562338 0.000201683)
(-0.000698207 -0.000564196 0.000193645)
(-0.000694759 -0.000562845 0.000182989)
(-0.000686879 -0.000559021 0.000170889)
(-0.000691383 -0.000564644 0.000161396)
(-0.000708239 -0.000579275 0.000153642)
(-0.000729872 -0.000598096 0.000145446)
(-0.00071101 -0.000585868 0.000129165)
(-0.000714133 -0.000590667 0.000116753)
(-0.000718078 -0.000595793 0.000103825)
(-0.000720811 -0.000600261 9.03245e-05)
(-0.000713829 -0.000596667 7.52348e-05)
(-0.000711167 -0.000596363 6.0076e-05)
(-0.000705143 -0.000592917 4.40409e-05)
(-0.000700469 -0.000590241 2.71617e-05)
(-0.00069761 -0.00058867 9.22112e-06)
(-0.000124785 -8.40894e-05 -2.25959e-05)
(-0.000207038 -0.000210431 -8.08668e-05)
(-0.000306621 -0.000354779 -3.57008e-05)
(-0.000364398 -0.000438607 9.92053e-06)
(-0.000427586 -0.000506258 5.42007e-05)
(-0.000482952 -0.000546456 9.33203e-05)
(-0.000532422 -0.000568506 0.000124399)
(-0.000572325 -0.000576012 0.000147296)
(-0.000609776 -0.000581062 0.000166569)
(-0.000643876 -0.000583768 0.000183504)
(-0.000673028 -0.000582915 0.000197012)
(-0.000696313 -0.000579292 0.000206298)
(-0.000710629 -0.000572222 0.000210647)
(-0.000720955 -0.000567653 0.000211809)
(-0.000726408 -0.000563865 0.000209679)
(-0.000731979 -0.000563216 0.000205871)
(-0.000740522 -0.000567248 0.000201074)
(-0.000743793 -0.000569477 0.000193301)
(-0.000739246 -0.000567618 0.000182687)
(-0.000734801 -0.000566739 0.000171774)
(-0.000742451 -0.000574439 0.000163036)
(-0.000759705 -0.000588536 0.000155156)
(-0.000779311 -0.000604997 0.000146373)
(-0.000758495 -0.00059233 0.000130063)
(-0.000762367 -0.000597646 0.000117806)
(-0.000765027 -0.000601805 0.000104704)
(-0.000767529 -0.000606147 9.11713e-05)
(-0.000761454 -0.000603787 7.61725e-05)
(-0.000760117 -0.000604846 6.10139e-05)
(-0.000755749 -0.000603156 4.48963e-05)
(-0.000752074 -0.000601645 2.7763e-05)
(-0.00074954 -0.000600557 9.43699e-06)
(-0.000174009 -9.77338e-05 -1.20209e-05)
(-0.000208468 -0.000185166 -8.10307e-05)
(-0.000316782 -0.000328224 -4.42013e-05)
(-0.000377807 -0.000415189 -1.292e-06)
(-0.00044308 -0.000485713 4.20976e-05)
(-0.000500448 -0.000529242 8.12266e-05)
(-0.000553251 -0.00055609 0.000112985)
(-0.000598777 -0.000570541 0.000137946)
(-0.00064019 -0.000579884 0.000159295)
(-0.000675649 -0.000583493 0.000177417)
(-0.000708613 -0.00058507 0.00019237)
(-0.000733264 -0.000581612 0.000202226)
(-0.000751319 -0.000576365 0.000207917)
(-0.000759189 -0.000567859 0.00020869)
(-0.000765979 -0.000563623 0.000207229)
(-0.000774416 -0.000564129 0.000204352)
(-0.000784365 -0.000568327 0.000199953)
(-0.000786776 -0.000569742 0.000192145)
(-0.000780941 -0.000567254 0.000181637)
(-0.00077896 -0.000568255 0.000171664)
(-0.000788999 -0.00057718 0.000163529)
(-0.000806654 -0.000590805 0.000155659)
(-0.000826726 -0.000606971 0.000146924)
(-0.000808263 -0.000597224 0.000131356)
(-0.000814161 -0.000604018 0.000119416)
(-0.000817495 -0.000608871 0.00010638)
(-0.000820711 -0.000613874 9.28369e-05)
(-0.000814449 -0.000611896 7.76919e-05)
(-0.000812747 -0.000612973 6.22849e-05)
(-0.00080699 -0.00061064 4.58189e-05)
(-0.000802287 -0.000608704 2.83347e-05)
(-0.000799579 -0.000607703 9.63716e-06)
(-0.000140548 -6.45922e-05 4.84e-06)
(-0.000218122 -0.000167691 -8.40243e-05)
(-0.000323675 -0.000298648 -5.2072e-05)
(-0.000385362 -0.000385511 -1.26446e-05)
(-0.000452912 -0.000459116 2.90416e-05)
(-0.000515027 -0.000508978 6.81803e-05)
(-0.000572045 -0.000541461 0.000100754)
(-0.000620137 -0.000559651 0.000127089)
(-0.00066541 -0.000572915 0.000150363)
(-0.000705957 -0.00058056 0.000170537)
(-0.000740561 -0.000582719 0.000186394)
(-0.000768195 -0.000580771 0.000197382)
(-0.000786651 -0.000574886 0.000203475)
(-0.000801365 -0.000569939 0.000206423)
(-0.000809489 -0.000564641 0.000205657)
(-0.000817203 -0.000562993 0.000202773)
(-0.000827719 -0.000566672 0.000198611)
(-0.000830799 -0.000568328 0.000191216)
(-0.000825256 -0.000566321 0.000181233)
(-0.000827916 -0.000570408 0.000172585)
(-0.000840879 -0.00058073 0.000165075)
(-0.000857995 -0.000593287 0.000157027)
(-0.000875771 -0.000607266 0.000147861)
(-0.00085658 -0.000598096 0.000132494)
(-0.000861999 -0.0006045 0.000120539)
(-0.000863831 -0.000608522 0.000107372)
(-0.000866274 -0.000613182 9.37666e-05)
(-0.000860592 -0.000612386 7.86828e-05)
(-0.000859846 -0.000614682 6.32479e-05)
(-0.000855778 -0.000614205 4.6696e-05)
(-0.000852089 -0.000613558 2.89569e-05)
(-0.000849663 -0.000613094 9.86139e-06)
(-0.000153029 -5.61103e-05 1.99419e-05)
(-0.000220677 -0.000144587 -8.3643e-05)
(-0.000325547 -0.000265922 -5.89948e-05)
(-0.000390316 -0.00035404 -2.37809e-05)
(-0.000458845 -0.000429477 1.54223e-05)
(-0.000522792 -0.000482862 5.38456e-05)
(-0.000583859 -0.000520789 8.7008e-05)
(-0.000638395 -0.000546014 0.000115293)
(-0.000687567 -0.00056289 0.000140366)
(-0.000730032 -0.000571726 0.000161746)
(-0.000768609 -0.000576353 0.000179101)
(-0.00079886 -0.000575634 0.000191237)
(-0.000822286 -0.000572463 0.000198999)
(-0.000834953 -0.000565021 0.00020184)
(-0.000846312 -0.000560358 0.000202255)
(-0.000858224 -0.000559643 0.000200707)
(-0.000869741 -0.000562479 0.000196985)
(-0.000872384 -0.00056328 0.000189809)
(-0.00086686 -0.000561394 0.000180363)
(-0.000872185 -0.000566829 0.000172601)
(-0.000885764 -0.000576841 0.000165331)
(-0.000901838 -0.000588238 0.000157199)
(-0.000919445 -0.00060184 0.000148159)
(-0.000904175 -0.000596538 0.000133773)
(-0.000910486 -0.000603827 0.000122032)
(-0.000913554 -0.000609276 0.000109087)
(-0.000916737 -0.000614955 9.55294e-05)
(-0.000910931 -0.000614925 8.03223e-05)
(-0.000909673 -0.000617475 6.46283e-05)
(-0.000904067 -0.000616633 4.77094e-05)
(-0.000899065 -0.000615687 2.95901e-05)
(-0.000896297 -0.00061534 1.00833e-05)
(-0.000177494 -4.97296e-05 3.92269e-05)
(-0.000223855 -0.000122617 -8.22688e-05)
(-0.00032386 -0.000232063 -6.5104e-05)
(-0.000386681 -0.000316209 -3.4063e-05)
(-0.000457259 -0.000394327 1.44264e-06)
(-0.00052613 -0.000454118 3.87558e-05)
(-0.000590986 -0.000497172 7.23271e-05)
(-0.000648129 -0.000525823 0.000101705)
(-0.000702405 -0.00054707 0.000128521)
(-0.000750175 -0.000559634 0.000151699)
(-0.000791817 -0.000565871 0.00017034)
(-0.000825293 -0.000566781 0.000183844)
(-0.000849834 -0.000563617 0.000192472)
(-0.000870623 -0.00056067 0.000197755)
(-0.000884224 -0.000556262 0.000199146)
(-0.000895834 -0.000553913 0.000197903)
(-0.000908016 -0.000555684 0.000194652)
(-0.00091209 -0.000556705 0.000188291)
(-0.000908487 -0.000555822 0.000179851)
(-0.000918847 -0.000563762 0.000173411)
(-0.000934178 -0.000574242 0.000166608)
(-0.000949609 -0.000584954 0.000158494)
(-0.000964615 -0.000596811 0.000149191)
(-0.000949331 -0.000592666 0.000135135)
(-0.000953606 -0.00059911 0.000123251)
(-0.000954447 -0.00060384 0.00011017)
(-0.000955782 -0.00060886 9.64736e-05)
(-0.000949725 -0.000609418 8.12472e-05)
(-0.000948529 -0.000612526 6.54743e-05)
(-0.000944178 -0.000613142 4.84731e-05)
(-0.000939944 -0.000613283 3.01386e-05)
(-0.000937288 -0.00061334 1.02817e-05)
(-0.000201003 -3.97688e-05 6.20922e-05)
(-0.000226702 -0.000101689 -7.95306e-05)
(-0.000315658 -0.000195746 -6.90891e-05)
(-0.000380145 -0.000277955 -4.32785e-05)
(-0.000449194 -0.000355631 -1.23427e-05)
(-0.000519163 -0.000418543 2.27956e-05)
(-0.000588984 -0.000467716 5.63831e-05)
(-0.000653261 -0.00050326 8.71686e-05)
(-0.000710884 -0.00052722 0.000115199)
(-0.000762287 -0.000542003 0.000139673)
(-0.000808048 -0.000550474 0.00015976)
(-0.000845999 -0.000553715 0.000174918)
(-0.000876514 -0.000553712 0.000185586)
(-0.000895549 -0.000548856 0.000191199)
(-0.000912995 -0.000545897 0.000194065)
(-0.000929512 -0.00054545 0.000194405)
(-0.000943255 -0.000547138 0.000191978)
(-0.000947871 -0.000547992 0.00018637)
(-0.000946007 -0.000547831 0.000178959)
(-0.000958193 -0.000555993 0.00017327)
(-0.000971829 -0.000564888 0.000166445)
(-0.000985181 -0.000574118 0.000158271)
(-0.000998751 -0.000585034 0.000149066)
(-0.000987724 -0.00058431 0.000136021)
(-0.000991653 -0.000591014 0.000124286)
(-0.000993859 -0.000597194 0.000111508)
(-0.000995753 -0.000603004 9.78842e-05)
(-0.000989987 -0.000604497 8.26177e-05)
(-0.000988424 -0.000607879 6.6655e-05)
(-0.000982682 -0.000608244 4.93526e-05)
(-0.000977128 -0.000608139 3.06978e-05)
(-0.000974075 -0.000608265 1.04792e-05)
(-0.000224493 -2.65026e-05 8.92428e-05)
(-0.000227563 -8.13271e-05 -7.51143e-05)
(-0.000306487 -0.000161192 -7.16622e-05)
(-0.000363807 -0.000235187 -5.00508e-05)
(-0.000433259 -0.000313096 -2.51584e-05)
(-0.000506536 -0.000380848 6.77722e-06)
(-0.000578553 -0.000434041 3.96014e-05)
(-0.00064563 -0.000473042 7.07895e-05)
(-0.00071066 -0.000502605 0.000100214)
(-0.000767338 -0.000520567 0.000126063)
(-0.000818165 -0.000531591 0.000147678)
(-0.000859316 -0.000536064 0.000164212)
(-0.000892107 -0.000536707 0.000176179)
(-0.000920693 -0.000536869 0.000184623)
(-0.000940664 -0.000534548 0.000188806)
(-0.000956273 -0.000532736 0.000189656)
(-0.000970362 -0.00053388 0.000187992)
(-0.000976764 -0.00053534 0.00018352)
(-0.000977917 -0.00053654 0.000177449)
(-0.000994438 -0.000546161 0.000173006)
(-0.00100882 -0.000554924 0.00016665)
(-0.00102198 -0.000563822 0.000158765)
(-0.00103315 -0.000573367 0.000149539)
(-0.00102266 -0.000573602 0.000136949)
(-0.00102384 -0.000579283 0.000125102)
(-0.00102312 -0.000584357 0.000112189)
(-0.00102239 -0.000589022 9.84266e-05)
(-0.00101539 -0.000590521 8.31417e-05)
(-0.00101285 -0.000593797 6.71205e-05)
(-0.00100776 -0.000595159 4.98095e-05)
(-0.00100266 -0.000595912 3.10546e-05)
(-0.000999508 -0.000596309 1.06115e-05)
(-0.000247897 -9.88367e-06 0.000120997)
(-0.000231997 -6.35351e-05 -7.11749e-05)
(-0.000288713 -0.000125466 -7.04392e-05)
(-0.00034339 -0.000193105 -5.4131e-05)
(-0.000407716 -0.000266495 -3.5929e-05)
(-0.000480521 -0.000336016 -8.68677e-06)
(-0.000558015 -0.000395681 2.23769e-05)
(-0.000632107 -0.000441326 5.36972e-05)
(-0.000699473 -0.000472876 8.35025e-05)
(-0.000762284 -0.000494423 0.000110574)
(-0.000817431 -0.000507193 0.000133436)
(-0.000865499 -0.000514821 0.000151931)
(-0.000904729 -0.00051832 0.000166005)
(-0.000931867 -0.000516866 0.000175174)
(-0.00095669 -0.000516543 0.000181276)
(-0.00097827 -0.000517325 0.00018418)
(-0.000994362 -0.000518993 0.000183774)
(-0.0010018 -0.000520669 0.000180417)
(-0.00100555 -0.000522839 0.000175657)
(-0.0010223 -0.000531561 0.000171793)
(-0.00103354 -0.000538188 0.000165403)
(-0.00104391 -0.000545441 0.000157582)
(-0.00105233 -0.000553569 0.000148493)
(-0.00104525 -0.000556082 0.000136883)
(-0.00104548 -0.000561887 0.000125283)
(-0.00104614 -0.000568289 0.000112791)
(-0.00104577 -0.000573552 9.92146e-05)
(-0.00103936 -0.000576144 8.40396e-05)
(-0.00103644 -0.00057971 6.79358e-05)
(-0.00103007 -0.00058098 5.04377e-05)
(-0.00102361 -0.000581585 3.14712e-05)
(-0.00101998 -0.000582047 1.07619e-05)
(-0.000257801 9.51267e-06 0.000149851)
(-0.000232144 -4.57548e-05 -6.55137e-05)
(-0.000276791 -9.60534e-05 -6.85616e-05)
(-0.000317611 -0.000151788 -5.47113e-05)
(-0.000376988 -0.000219705 -4.39193e-05)
(-0.000448009 -0.000289838 -2.26284e-05)
(-0.00052417 -0.000351296 5.31585e-06)
(-0.000601361 -0.000401065 3.53785e-05)
(-0.000678488 -0.000439926 6.55535e-05)
(-0.000746243 -0.000464343 9.33299e-05)
(-0.000808851 -0.000480548 0.000117771)
(-0.000859833 -0.000488374 0.00013748)
(-0.000903096 -0.000492821 0.000153141)
(-0.000941106 -0.000496351 0.000165331)
(-0.000968455 -0.000496616 0.000173036)
(-0.000988848 -0.000496236 0.000176835)
(-0.00100549 -0.000497816 0.000177639)
(-0.00101524 -0.000500362 0.000175806)
(-0.00102191 -0.000503532 0.000172524)
(-0.0010415 -0.000512687 0.000169804)
(-0.0010534 -0.000519305 0.000164131)
(-0.0010638 -0.000526505 0.000156896)
(-0.00107049 -0.0005339 0.000148138)
(-0.00106381 -0.000536918 0.000137102)
(-0.00106082 -0.000541834 0.000125503)
(-0.00105747 -0.000546743 0.000112868)
(-0.0010535 -0.000550489 9.91903e-05)
(-0.00104438 -0.00055241 8.39949e-05)
(-0.00103909 -0.000555192 6.78635e-05)
(-0.00103232 -0.000556878 5.04538e-05)
(-0.00102567 -0.000558019 3.15469e-05)
(-0.00102153 -0.000558576 1.07964e-05)
(-0.000270324 2.96369e-05 0.000181684)
(-0.000241798 -3.05887e-05 -6.20424e-05)
(-0.000249205 -6.6151e-05 -6.0987e-05)
(-0.000282356 -0.000111014 -5.06141e-05)
(-0.000333946 -0.000169882 -4.70086e-05)
(-0.000401993 -0.00023848 -3.34262e-05)
(-0.000482089 -0.000304914 -1.04373e-05)
(-0.000563157 -0.000359654 1.72581e-05)
(-0.000641067 -0.000400393 4.62253e-05)
(-0.000717495 -0.0004304 7.44538e-05)
(-0.000784786 -0.000448531 9.97585e-05)
(-0.000845831 -0.000460365 0.000121682)
(-0.000895449 -0.000466272 0.000139343)
(-0.000932272 -0.000467679 0.000152446)
(-0.000965779 -0.000470145 0.000162414)
(-0.000993299 -0.000472802 0.000168761)
(-0.00101275 -0.000475487 0.000171391)
(-0.00102372 -0.00047836 0.000171044)
(-0.00103302 -0.000482285 0.000169278)
(-0.00105122 -0.000489837 0.000167119)
(-0.00105943 -0.000494462 0.000161622)
(-0.00106621 -0.000499948 0.000154587)
(-0.00106876 -0.000505595 0.00014601)
(-0.00106323 -0.000509324 0.000135821)
(-0.00105855 -0.000514279 0.000124572)
(-0.00105606 -0.000520239 0.000112426)
(-0.00105188 -0.000524451 9.90536e-05)
(-0.00104353 -0.000527709 8.41531e-05)
(-0.00103772 -0.000530933 6.80883e-05)
(-0.00102979 -0.000532755 5.06647e-05)
(-0.00102171 -0.000533894 3.17178e-05)
(-0.00101698 -0.000534571 1.08645e-05)
(-0.000264895 4.6737e-05 0.000200295)
(-0.000253512 -1.56079e-05 -5.88111e-05)
(-0.000240253 -4.60467e-05 -5.6246e-05)
(-0.00025558 -7.88003e-05 -4.48254e-05)
(-0.00029194 -0.000125318 -4.61002e-05)
(-0.000348632 -0.000186712 -4.01491e-05)
(-0.000421507 -0.000250787 -2.34504e-05)
(-0.000505953 -0.000310187 -4.9952e-08)
(-0.000593699 -0.000358941 2.68483e-05)
(-0.000673842 -0.000392044 5.42557e-05)
(-0.000750426 -0.000415213 8.0442e-05)
(-0.000813894 -0.000427114 0.000103311)
(-0.000870575 -0.000434722 0.000123001)
(-0.000919644 -0.000440296 0.000139226)
(-0.000955141 -0.000442142 0.000150948)
(-0.00098136 -0.000443161 0.000158495)
(-0.00100149 -0.000445855 0.000162683)
(-0.00101502 -0.000449693 0.000164227)
(-0.00102621 -0.000453977 0.000164008)
(-0.0010456 -0.000461222 0.000162968)
(-0.00105465 -0.000466244 0.000158482)
(-0.00106122 -0.000472042 0.000152289)
(-0.00106321 -0.000477953 0.000144488)
(-0.00105753 -0.000481881 0.000135013)
(-0.00104917 -0.000486344 0.000123891)
(-0.00104161 -0.000490752 0.000111591)
(-0.00103278 -0.000493453 9.81899e-05)
(-0.0010198 -0.000495387 8.32683e-05)
(-0.00100995 -0.000497342 6.72367e-05)
(-0.00100012 -0.000498885 5.00381e-05)
(-0.000990854 -0.000500115 3.13763e-05)
(-0.00098508 -0.000500675 1.07524e-05)
(-0.000256576 5.97795e-05 0.000210809)
(-0.000258992 -8.06267e-07 -5.40201e-05)
(-0.000212393 -2.70573e-05 -4.62744e-05)
(-0.000208738 -4.73217e-05 -3.31588e-05)
(-0.000238701 -8.19988e-05 -3.87638e-05)
(-0.000289219 -0.000136069 -4.13429e-05)
(-0.000359454 -0.000199482 -3.28937e-05)
(-0.000438892 -0.000258772 -1.51516e-05)
(-0.000525776 -0.000309514 7.91943e-06)
(-0.000615567 -0.000349797 3.36457e-05)
(-0.00069701 -0.00037616 5.94677e-05)
(-0.00077335 -0.000394281 8.40431e-05)
(-0.000835078 -0.000403025 0.000105405)
(-0.000883488 -0.000406398 0.000122906)
(-0.000927233 -0.000410398 0.000137314)
(-0.000961609 -0.000413986 0.000147726)
(-0.000985296 -0.000417494 0.00015416)
(-0.000999751 -0.000421188 0.000157411)
(-0.00101282 -0.000425774 0.000158775)
(-0.00102969 -0.000431547 0.000158404)
(-0.00103496 -0.000435144 0.000154385)
(-0.00103718 -0.000439596 0.000148583)
(-0.00103349 -0.000443608 0.000141005)
(-0.00102571 -0.000446954 0.000132199)
(-0.00101429 -0.000451335 0.000121463)
(-0.00100661 -0.000456533 0.000109685)
(-0.000996594 -0.000459513 9.67221e-05)
(-0.000984402 -0.000462784 8.23084e-05)
(-0.000973899 -0.000465239 6.65407e-05)
(-0.000963168 -0.000467053 4.95752e-05)
(-0.000952481 -0.000468326 3.11379e-05)
(-0.000945998 -0.000468976 1.0681e-05)
(-0.000241626 6.62239e-05 0.000206549)
(-0.000262137 1.22859e-05 -4.94019e-05)
(-0.000194213 -1.44416e-05 -3.82269e-05)
(-0.00018316 -2.76451e-05 -2.33453e-05)
(-0.000190093 -4.76275e-05 -2.82769e-05)
(-0.000220316 -8.66899e-05 -3.57896e-05)
(-0.000276457 -0.000140913 -3.53955e-05)
(-0.000358813 -0.000203391 -2.62795e-05)
(-0.000449264 -0.000259044 -8.92925e-06)
(-0.000540891 -0.000302592 1.3595e-05)
(-0.000631409 -0.000335109 3.84564e-05)
(-0.000708821 -0.00035413 6.29475e-05)
(-0.000781112 -0.000367588 8.61672e-05)
(-0.000842658 -0.000375898 0.000106636)
(-0.000886932 -0.000378719 0.000122715)
(-0.000919934 -0.000380538 0.000134629)
(-0.000944319 -0.00038349 0.000142894)
(-0.000961398 -0.00038769 0.000148176)
(-0.000974969 -0.000391998 0.000150997)
(-0.000991405 -0.000397478 0.000151794)
(-0.000997112 -0.000401528 0.000149023)
(-0.000998448 -0.000406232 0.000144227)
(-0.000995579 -0.000411226 0.000137841)
(-0.000987032 -0.000414802 0.000129929)
(-0.000971561 -0.000418917 0.000119411)
(-0.000958272 -0.000422528 0.000107475)
(-0.000942569 -0.00042396 9.45568e-05)
(-0.000923697 -0.000425093 8.01165e-05)
(-0.000907366 -0.000425584 6.44656e-05)
(-0.000892835 -0.00042613 4.79156e-05)
(-0.000879715 -0.000426682 3.01095e-05)
(-0.000871523 -0.000426778 1.03251e-05)
(-0.000217967 6.49908e-05 0.000184756)
(-0.000255784 2.21832e-05 -4.38255e-05)
(-0.000184102 -5.9313e-06 -3.1528e-05)
(-0.00013818 -1.16088e-05 -1.12293e-05)
(-0.000141601 -2.09967e-05 -1.57429e-05)
(-0.000162816 -4.80384e-05 -2.70943e-05)
(-0.000204102 -9.18559e-05 -3.3666e-05)
(-0.00026468 -0.000143791 -3.15578e-05)
(-0.000354715 -0.000201559 -2.18371e-05)
(-0.000452252 -0.00025115 -4.28471e-06)
(-0.000547679 -0.000288346 1.83491e-05)
(-0.000638887 -0.000315501 4.30006e-05)
(-0.000712009 -0.000329846 6.66452e-05)
(-0.000772519 -0.000337732 8.79309e-05)
(-0.000827394 -0.000344744 0.000106676)
(-0.000869162 -0.000349607 0.000121439)
(-0.000897467 -0.000353455 0.000132049)
(-0.000914837 -0.000357136 0.000139052)
(-0.000929324 -0.000361325 0.000143446)
(-0.000942561 -0.000365521 0.000145038)
(-0.000944325 -0.000368369 0.000142901)
(-0.000940941 -0.000371856 0.000138611)
(-0.000930437 -0.000374404 0.000132327)
(-0.000916121 -0.000376328 0.000124836)
(-0.000895361 -0.000379554 0.000114539)
(-0.000880316 -0.000382849 0.000103032)
(-0.000862275 -0.00038399 9.07085e-05)
(-0.00084426 -0.000386045 7.70857e-05)
(-0.00082757 -0.000386911 6.205e-05)
(-0.00081293 -0.000387673 4.61706e-05)
(-0.00079888 -0.000388037 2.90748e-05)
(-0.000790196 -0.000388055 9.98055e-06)
(-0.00019505 5.95926e-05 0.000155329)
(-0.000244706 2.81317e-05 -3.89199e-05)
(-0.000143112 -4.47064e-07 -2.09576e-05)
(-0.000102508 -3.11405e-06 -2.37886e-06)
(-7.60248e-05 -3.05421e-06 -2.84879e-06)
(-8.10852e-05 -1.31258e-05 -1.03778e-05)
(-0.0001167 -4.161e-05 -2.21437e-05)
(-0.000179695 -9.12556e-05 -3.18304e-05)
(-0.000253558 -0.000142722 -2.94182e-05)
(-0.000352006 -0.000195594 -1.77237e-05)
(-0.000451511 -0.00023781 1.38446e-06)
(-0.000541567 -0.000266846 2.43539e-05)
(-0.000628552 -0.000289443 4.83965e-05)
(-0.000700462 -0.000303376 7.10605e-05)
(-0.000751738 -0.00030944 9.02427e-05)
(-0.000790937 -0.000313572 0.000105914)
(-0.000819631 -0.000317594 0.000118072)
(-0.000839426 -0.000321961 0.000126958)
(-0.000852922 -0.000325621 0.00013258)
(-0.000863898 -0.000329224 0.000135133)
(-0.00086487 -0.000332111 0.000134135)
(-0.000859753 -0.000335393 0.000130838)
(-0.000851487 -0.00033917 0.000126114)
(-0.000836267 -0.000341373 0.000119733)
(-0.000812061 -0.000344253 0.000109783)
(-0.000792348 -0.000345665 9.82116e-05)
(-0.00076866 -0.000344794 8.6105e-05)
(-0.000742809 -0.000343477 7.25306e-05)
(-0.000719232 -0.000341288 5.78209e-05)
(-0.000699094 -0.000339247 4.26984e-05)
(-0.000681472 -0.000337671 2.68235e-05)
(-0.000670415 -0.000336392 9.18683e-06)
(-0.000173115 5.24904e-05 0.000124229)
(-0.000229098 3.09336e-05 -3.48263e-05)
(-0.000136525 2.42377e-06 -1.75008e-05)
(-9.68871e-05 1.36112e-06 2.86143e-06)
(-6.62894e-05 4.5639e-06 4.13578e-06)
(-4.6355e-05 2.44612e-06 -1.10799e-06)
(-3.84642e-05 -4.60909e-06 -7.77727e-06)
(-6.84756e-05 -2.7297e-05 -1.93964e-05)
(-0.000155801 -8.34876e-05 -3.17166e-05)
(-0.000243928 -0.000135701 -2.4911e-05)
(-0.000347739 -0.000184327 -9.32007e-06)
(-0.000446513 -0.000221347 1.10278e-05)
(-0.00052568 -0.000243416 3.28077e-05)
(-0.000595492 -0.000258876 5.40659e-05)
(-0.000659426 -0.000271878 7.41797e-05)
(-0.000706656 -0.000280179 9.13571e-05)
(-0.00073792 -0.000285682 0.000105002)
(-0.000756504 -0.000289724 0.000115038)
(-0.000769797 -0.000293508 0.000121905)
(-0.000777444 -0.000296375 0.000125154)
(-0.000774532 -0.000298156 0.000124695)
(-0.000765313 -0.00030014 0.000121928)
(-0.000747414 -0.000300233 0.000116934)
(-0.000723466 -0.000299263 0.000110554)
(-0.00069182 -0.00029936 0.000100453)
(-0.000668229 -0.000298514 8.91038e-05)
(-0.000641306 -0.000295949 7.77861e-05)
(-0.00061679 -0.00029468 6.55309e-05)
(-0.000594139 -0.00029247 5.21118e-05)
(-0.000575798 -0.00029061 3.84802e-05)
(-0.000558885 -0.000288796 2.42333e-05)
(-0.000548473 -0.000287498 8.31136e-06)
(-0.000140368 4.23835e-05 8.887e-05)
(-0.00021398 3.22499e-05 -3.19117e-05)
(-0.00013167 4.89439e-06 -1.57774e-05)
(-9.24681e-05 4.37019e-06 5.57037e-06)
(-5.71837e-05 9.36247e-06 8.14432e-06)
(-3.25921e-05 1.18113e-05 2.72898e-06)
(-2.32108e-05 1.0082e-05 -4.40651e-06)
(-2.51426e-05 3.75013e-07 -1.01316e-05)
(-4.78766e-05 -1.80653e-05 -1.46078e-05)
(-0.000146795 -7.62719e-05 -2.22079e-05)
(-0.00023383 -0.000124582 -1.03474e-05)
(-0.00032668 -0.000164887 5.62505e-06)
(-0.000420352 -0.000198438 2.34841e-05)
(-0.000495169 -0.000219534 4.17793e-05)
(-0.000548477 -0.0002305 5.88755e-05)
(-0.000591093 -0.000238617 7.47226e-05)
(-0.000622505 -0.000245224 8.85203e-05)
(-0.000642977 -0.000250566 9.94898e-05)
(-0.000653665 -0.000253925 0.000106794)
(-0.000657125 -0.000255908 0.000110286)
(-0.000651458 -0.000256894 0.000110304)
(-0.000639138 -0.00025754 0.00010808)
(-0.000624771 -0.000258698 0.000104783)
(-0.000601574 -0.000257933 9.97171e-05)
(-0.000569279 -0.000257481 9.02768e-05)
(-0.000544534 -0.000255048 7.9333e-05)
(-0.000514928 -0.000250426 6.87339e-05)
(-0.00048385 -0.000244924 5.68672e-05)
(-0.00045507 -0.000238581 4.42525e-05)
(-0.000430743 -0.000232375 3.19897e-05)
(-0.000409866 -0.00022727 1.99164e-05)
(-0.000396492 -0.000223588 6.77016e-06)
(-9.34039e-05 2.79748e-05 5.15599e-05)
(-0.000186746 2.92525e-05 -2.76151e-05)
(-0.000126926 6.72778e-06 -1.46568e-05)
(-8.65053e-05 6.61333e-06 1.02873e-05)
(-4.54778e-05 1.37853e-05 1.41441e-05)
(-2.07235e-05 1.6395e-05 8.1671e-06)
(-1.14648e-05 1.33123e-05 7.13565e-06)
(-1.37541e-05 7.02457e-06 6.98435e-06)
(-2.35728e-05 -3.14314e-06 4.45224e-06)
(-5.69141e-05 -2.38378e-05 2.67669e-06)
(-0.000142023 -7.38189e-05 4.39384e-06)
(-0.00021923 -0.000115058 1.12732e-05)
(-0.000289612 -0.000143945 2.0601e-05)
(-0.00036242 -0.000168558 3.22923e-05)
(-0.000431235 -0.000189035 4.6262e-05)
(-0.000479976 -0.000201469 6.04778e-05)
(-0.000510482 -0.000208902 7.34766e-05)
(-0.000527311 -0.000213614 8.40444e-05)
(-0.000536549 -0.000217174 9.15798e-05)
(-0.000537469 -0.000218895 9.52065e-05)
(-0.000529318 -0.000219001 9.53592e-05)
(-0.000515477 -0.000218581 9.35808e-05)
(-0.000491057 -0.000214911 8.93265e-05)
(-0.000457922 -0.000209029 8.34254e-05)
(-0.000417436 -0.000203381 7.32867e-05)
(-0.000387013 -0.000196237 6.23379e-05)
(-0.000353972 -0.000187821 5.26997e-05)
(-0.000325208 -0.000181158 4.29215e-05)
(-0.000300121 -0.00017457 3.28523e-05)
(-0.000281143 -0.000169116 2.35488e-05)
(-0.00026436 -0.000164408 1.467e-05)
(-0.000254762 -0.000161603 5.00864e-06)
(-5.27431e-05 1.81615e-05 2.89115e-05)
(-0.000157912 2.62898e-05 -2.57988e-05)
(-0.000124777 9.5133e-06 -1.80645e-05)
(-9.35948e-05 9.38446e-06 9.20777e-06)
(-5.33782e-05 2.121e-05 2.1694e-05)
(-2.89182e-05 2.80897e-05 1.76436e-05)
(-9.90744e-06 2.49948e-05 1.73885e-05)
(5.2012e-06 1.65733e-05 2.2997e-05)
(7.60674e-06 7.29966e-06 2.8928e-05)
(-5.13112e-06 -4.7636e-06 2.53539e-05)
(-3.07293e-05 -2.1773e-05 2.43597e-05)
(-9.86499e-05 -6.14092e-05 2.76893e-05)
(-0.000178425 -0.000100478 2.66794e-05)
(-0.000243498 -0.000125679 2.83474e-05)
(-0.000292905 -0.000139923 3.40693e-05)
(-0.000336634 -0.000151932 4.36246e-05)
(-0.000369084 -0.000161341 5.44955e-05)
(-0.000387732 -0.000167679 6.4183e-05)
(-0.000393195 -0.000170511 7.06132e-05)
(-0.000388387 -0.000170427 7.30269e-05)
(-0.00037561 -0.000168296 7.22717e-05)
(-0.00035658 -0.000164548 6.97608e-05)
(-0.000336731 -0.000161333 6.67133e-05)
(-0.000309638 -0.000156119 6.2361e-05)
(-0.000274413 -0.00015027 5.37512e-05)
(-0.000249722 -0.00014309 4.46783e-05)