/*--------------------------------*- C++ -*----------------------------------*\
  =========                 |
  \\      /  F ield         | OpenFOAM: The Open Source CFD Toolbox
   \\    /   O peration     | Website:  https://openfoam.org
    \\  /    A nd           | Version:  6
     \\/     M anipulation  |
\*---------------------------------------------------------------------------*/
FoamFile
{
    version     2.0;
    format      ascii;
    class       volScalarField;
    location    "1.6";
    object      p;
}
// * * * * * * * * * * * * * * * * * * * * * * * * * * * * * * * * * * * * * //

dimensions      [0 2 -2 0 0 0 0];

internalField   nonuniform List<scalar> 
63432
(
-0.00191766
-0.00138977
-0.00092789
-0.000525152
-0.00017325
0.000133957
0.000401334
0.000633172
0.00083235
0.000992506
0.00112168
0.00119602
-0.00185379
-0.00134324
-0.000896751
-0.000505987
-0.000163748
0.000135277
0.000393331
0.000611202
0.00079557
0.000950657
0.00108601
0.00120357
-0.00214987
-0.0015898
-0.0011024
-0.000676116
-0.000303027
2.31509e-05
0.00030731
0.000552944
0.000760811
0.000935909
0.00108059
0.0012031
0.00130558
-0.00176215
-0.0012339
-0.000774471
-0.000374284
-2.58809e-05
0.000277075
0.00053929
0.00076532
0.000956324
0.00111631
0.00124664
0.00135287
0.00144396
-0.00134203
-0.00084466
-0.000414347
-4.22647e-05
0.000278968
0.000556225
0.000794216
0.0009978
0.00116871
0.00131054
0.00142567
0.00151487
0.00159728
-0.00138382
-0.000845137
-0.00038287
1.32937e-05
0.000352489
0.000642284
0.000889835
0.00109993
0.00127744
0.00142468
0.00154459
0.00164117
0.00171014
0.00177767
-0.000763158
-0.00026672
0.00015387
0.000509551
0.000809977
0.00106301
0.00127594
0.00145369
0.00160096
0.00172062
0.00181463
0.00188919
0.00193503
0.00198719
-5.96912e-05
0.000388089
0.000760967
0.00107051
0.00132684
0.00153808
0.00171167
0.00185275
0.00196582
0.0020543
0.00211898
0.0021685
0.00218808
0.00222423
0.000246392
0.000726585
0.00111886
0.0014378
0.00169549
0.00190243
0.002067
0.00219667
0.00229685
0.00237177
0.00242548
0.00245751
0.00247873
0.00246956
0.0024844
0.00117098
0.00158829
0.00191897
0.00217837
0.00237908
0.00253195
0.00264558
0.00272734
0.00278289
0.00281616
0.00283172
0.00282822
0.00281768
0.00277846
0.00276465
0.0021647
0.00251369
0.0027777
0.00297284
0.00311232
0.00320726
0.00326654
0.00329734
0.00330543
0.00329445
0.00326924
0.00322806
0.00318295
0.00311272
0.00306642
0.00320459
0.00348311
0.00367801
0.00380644
0.00388232
0.0039171
0.0039199
0.00389784
0.00385668
0.00379987
0.00373228
0.00365208
0.00357097
0.00346865
0.00339039
0.00395118
0.0042661
0.0044751
0.00460088
0.00466205
0.00467346
0.00464718
0.00459263
0.00451704
0.00442612
0.00432321
0.00421305
0.00409366
0.00397638
0.00384146
0.00373174
0.00507817
0.00533011
0.00547239
0.00553034
0.00552465
0.00547163
0.00538422
0.00527241
0.00514353
0.00500341
0.00485514
0.00470328
0.00454563
0.00439267
0.00422597
0.0040827
0.0062398
0.00642087
0.00648877
0.00647209
0.00639399
0.00627236
0.00612095
0.00595029
0.00576766
0.0055788
0.00538635
0.00519432
0.00500027
0.0048129
0.00461615
0.00443784
0.00754094
0.00760604
0.00756464
0.0074479
0.00727971
0.00707795
0.00685579
0.00662276
0.00638511
0.00614742
0.00591146
0.00568006
0.00545051
0.00522946
0.00500307
0.00479172
0.00901905
0.00890333
0.00870809
0.00846195
0.00818498
0.00789119
0.0075904
0.00728943
0.0069925
0.00670247
0.00642007
0.00614691
0.00588017
0.00562491
0.0053683
0.00512822
0.0105115
0.0101964
0.00983727
0.00945566
0.00906555
0.00867601
0.00829291
0.00792018
0.00756022
0.00721457
0.00688339
0.00656726
0.00626324
0.00597495
0.00568984
0.00542525
0.0117576
0.0112848
0.010793
0.0102981
0.00981008
0.00933508
0.00887714
0.00843875
0.00802138
0.00762566
0.00725125
0.0068979
0.00656229
0.00624661
0.00593871
0.00565414
0.0125108
0.0119455
0.0113726
0.0108063
0.0102557
0.00972578
0.00921997
0.00874012
0.00828713
0.00786107
0.00746095
0.00708589
0.00673202
0.00640042
0.00607967
0.00578192
-0.00191881
-0.00139116
-0.000929311
-0.000526409
-0.000174272
0.000133138
0.000400669
0.000632602
0.000831888
0.000992205
0.00112147
0.00119586
-0.00185601
-0.00134532
-0.000898509
-0.00050744
-0.000164972
0.000134223
0.000392425
0.000610425
0.000794882
0.000950076
0.00108551
0.00120314
-0.00215173
-0.00159149
-0.0011038
-0.000677269
-0.000304014
2.2278e-05
0.000306536
0.000552274
0.000760257
0.000935442
0.00108021
0.00120279
0.0013053
-0.00176338
-0.00123491
-0.000775302
-0.000374989
-2.6501e-05
0.00027652
0.000538793
0.00076488
0.000955957
0.001116
0.0012464
0.00135269
0.00144378
-0.00134273
-0.000845251
-0.000414862
-4.27208e-05
0.000278565
0.000555868
0.000793902
0.000997519
0.00116848
0.00131034
0.0014255
0.00151477
0.00159716
-0.00138406
-0.000845366
-0.000383098
1.30704e-05
0.000352282
0.000642098
0.000889676
0.0010998
0.00127732
0.0014246
0.00154452
0.00164112
0.00171014
0.00177763
-0.000762863
-0.000266524
0.000153995
0.000509629
0.000810032
0.00106306
0.00127599
0.00145374
0.00160102
0.00172068
0.00181471
0.00188926
0.00193514
0.00198724
-5.89545e-05
0.000388661
0.000761422
0.00107088
0.00132715
0.00153835
0.00171191
0.00185298
0.00196604
0.00205451
0.00211919
0.0021687
0.00218831
0.00222438
0.000247797
0.000727718
0.00111979
0.00143857
0.00169614
0.001903
0.0020675
0.00219712
0.00229726
0.00237216
0.00242583
0.00245786
0.00247904
0.00246991
0.00248466
0.00117278
0.00158977
0.00192022
0.00217942
0.00237998
0.00253274
0.00264629
0.00272799
0.00278349
0.00281671
0.00283223
0.00282871
0.00281811
0.00277891
0.00276501
0.00216682
0.00251547
0.0027792
0.00297413
0.00311345
0.00320826
0.00326743
0.00329815
0.00330618
0.00329514
0.00326989
0.00322867
0.00318351
0.00311327
0.00306689
0.00320688
0.00348504
0.00367967
0.00380788
0.00388359
0.00391822
0.00392091
0.00389876
0.00385753
0.00380067
0.00373302
0.00365279
0.00357161
0.00346928
0.00339095
0.00395365
0.00426822
0.00447694
0.00460249
0.00466346
0.00467471
0.0046483
0.00459365
0.00451798
0.004427
0.00432405
0.00421383
0.00409442
0.00397707
0.00384213
0.00373235
0.0050794
0.00533131
0.00547354
0.00553143
0.00552568
0.00547259
0.00538514
0.00527327
0.00514436
0.00500421
0.00485591
0.00470401
0.00454635
0.00439334
0.00422662
0.0040833
0.0062377
0.00641958
0.00648808
0.00647182
0.006394
0.00627256
0.00612128
0.0059507
0.00576813
0.0055793
0.00538688
0.00519486
0.00500082
0.00481343
0.00461668
0.00443836
0.00753247
0.00760005
0.00756049
0.00744507
0.00727781
0.0070767
0.00685499
0.00662228
0.00638486
0.00614734
0.00591151
0.0056802
0.00545073
0.00522973
0.00500337
0.00479206
0.00900166
0.00889065
0.00869887
0.00845526
0.00818012
0.00788767
0.00758782
0.00728755
0.00699113
0.00670148
0.00641938
0.00614644
0.00587989
0.00562476
0.00536825
0.00512827
0.0104847
0.0101764
0.00982234
0.00944444
0.0090571
0.00866961
0.00828806
0.00791649
0.00755741
0.00721242
0.00688175
0.006566
0.0062623
0.00597426
0.00568934
0.00542492
0.0117227
0.0112584
0.0107729
0.0102828
0.00979833
0.00932604
0.00887015
0.00843332
0.00801714
0.00762233
0.00724863
0.00689582
0.00656066
0.00624533
0.00593772
0.00565339
0.0124708
0.0119151
0.0113494
0.0107886
0.010242
0.00971522
0.00921175
0.00873366
0.00828202
0.00785699
0.00745768
0.00708326
0.00672991
0.00639873
0.00607832
0.00578087
-0.00191633
-0.00139048
-0.000929221
-0.000526302
-0.000174047
0.000133427
0.000401007
0.000632977
0.00083228
0.000992594
0.00112178
0.00119606
-0.00185813
-0.00134759
-0.000900446
-0.000508961
-0.000166179
0.000133218
0.000391561
0.000609673
0.000794196
0.000949451
0.00108493
0.00120264
-0.00215317
-0.00159302
-0.00110514
-0.000678386
-0.000304971
2.14531e-05
0.000305836
0.000551687
0.000759788
0.000935056
0.00107991
0.00120255
0.00130511
-0.00176414
-0.00123563
-0.000775947
-0.000375591
-2.70663e-05
0.000276004
0.000538348
0.000764502
0.000955662
0.00111577
0.00124623
0.00135257
0.00144368
-0.00134308
-0.00084566
-0.000415313
-4.32014e-05
0.000278079
0.000555402
0.00079348
0.000997145
0.00116817
0.00131008
0.00142529
0.00151463
0.00159705
-0.00138385
-0.000845346
-0.000383234
1.28186e-05
0.000351953
0.000641727
0.000889295
0.00109943
0.001277
0.00142431
0.00154428
0.00164091
0.00171001
0.00177751
-0.000762148
-0.000266105
0.000154181
0.000509636
0.000809914
0.00106285
0.00127573
0.00145347
0.00160076
0.00172045
0.00181452
0.00188909
0.00193505
0.00198713
-5.77571e-05
0.000389477
0.000761946
0.00107117
0.00132727
0.00153833
0.0017118
0.00185282
0.00196586
0.00205434
0.00211905
0.00216856
0.00218825
0.00222431
0.000250063
0.000729421
0.00112103
0.00143946
0.00169673
0.00190337
0.0020677
0.00219719
0.00229725
0.0023721
0.00242575
0.00245779
0.00247895
0.0024699
0.00248463
0.00117567
0.00159199
0.0019219
0.00218067
0.00238089
0.00253338
0.00264671
0.00272825
0.00278363
0.00281679
0.00283225
0.00282873
0.00281808
0.00277895
0.00276502
0.00217027
0.00251814
0.00278125
0.00297569
0.00311461
0.00320911
0.00326804
0.00329858
0.00330647
0.00329535
0.00327001
0.00322878
0.00318354
0.00311336
0.00306693
0.00321063
0.00348793
0.00368188
0.00380957
0.00388486
0.00391917
0.00392162
0.00389929
0.00385791
0.00380096
0.00373323
0.00365296
0.00357171
0.00346941
0.00339103
0.00395808
0.00427157
0.00447947
0.0046044
0.0046649
0.0046758
0.00464912
0.00459426
0.00451844
0.00442735
0.00432433
0.00421403
0.0040946
0.00397718
0.00384227
0.00373246
0.00508132
0.00533261
0.00547443
0.00553205
0.00552612
0.0054729
0.00538535
0.00527342
0.00514448
0.00500428
0.00485598
0.00470406
0.00454641
0.00439336
0.00422668
0.00408336
0.0062325
0.00641539
0.00648478
0.00646927
0.00639206
0.00627107
0.00612014
0.0059498
0.00576744
0.00557874
0.00538645
0.00519451
0.00500056
0.0048132
0.00461652
0.00443825
0.00751231
0.00758483
0.00754906
0.00743648
0.00727137
0.00707183
0.00685128
0.00661942
0.00638264
0.00614559
0.00591015
0.0056791
0.00544988
0.00522903
0.00500283
0.00479166
0.00895907
0.00885871
0.00867494
0.00843729
0.00816658
0.0078774
0.00758001
0.00728155
0.00698652
0.00669789
0.00641659
0.00614424
0.00587817
0.00562339
0.00536717
0.00512745
0.0104183
0.010126
0.00978398
0.00941519
0.00903478
0.00865258
0.00827504
0.00790652
0.00754975
0.00720651
0.00687718
0.00656244
0.00625952
0.00597205
0.0056876
0.00542358
0.011636
0.0111917
0.0107216
0.0102433
0.00976798
0.00930272
0.00885227
0.00841959
0.00800658
0.00761418
0.00724232
0.0068909
0.00655681
0.00624228
0.0059353
0.00565149
0.0123716
0.0118384
0.0112902
0.0107431
0.010207
0.00968838
0.00919112
0.00871779
0.00826976
0.00784749
0.00745028
0.00707746
0.00672533
0.00639509
0.00607541
0.00577855
-0.00191338
-0.00138913
-0.000928863
-0.000526348
-0.000174153
0.000133396
0.000401117
0.000633222
0.000832663
0.000993109
0.00112225
0.0011965
-0.00186019
-0.00135012
-0.000903031
-0.000511334
-0.000168239
0.000131476
0.0003901
0.000608436
0.000793091
0.000948469
0.00108404
0.00120188
-0.00215425
-0.00159453
-0.00110675
-0.000680022
-0.000306599
1.98967e-05
0.000304436
0.000550486
0.000758819
0.000934247
0.00107926
0.00120203
0.00130472
-0.00176452
-0.0012363
-0.000776774
-0.000376536
-2.80999e-05
0.000274939
0.000537341
0.000763601
0.000954936
0.00111518
0.00124578
0.00135223
0.00144344
-0.00134307
-0.000845974
-0.000415856
-4.39143e-05
0.000277247
0.0005545
0.000792588
0.000996308
0.00116745
0.00130948
0.0014248
0.00151428
0.00159683
-0.00138292
-0.000844903
-0.000383176
1.25875e-05
0.000351504
0.000641117
0.000888581
0.00109869
0.00127627
0.00142367
0.00154374
0.00164044
0.00170967
0.0017773
-0.00076058
-0.000265104
0.00015472
0.000509806
0.0008098
0.00106251
0.00127524
0.0014529
0.00160018
0.00171992
0.00181407
0.00188869
0.00193476
0.00198697
-5.55092e-05
0.00039106
0.000762988
0.00107176
0.0013275
0.00153828
0.00171154
0.00185244
0.00196543
0.00205392
0.00211868
0.00216822
0.00218802
0.00222423
0.000253957
0.000732411
0.00112324
0.00144103
0.00169776
0.00190397
0.00206794
0.00219717
0.00229706
0.00237182
0.00242543
0.00245751
0.00247867
0.00246974
0.00248462
0.00118051
0.00159575
0.00192474
0.00218276
0.00238235
0.00253432
0.00264725
0.00272848
0.00278365
0.00281668
0.00283206
0.00282855
0.00281788
0.00277885
0.00276506
0.00217602
0.00252259
0.00278463
0.00297819
0.00311639
0.00321032
0.00326879
0.003299
0.00330664
0.00329539
0.00326995
0.00322871
0.00318342
0.00311332
0.00306701
0.00321695
0.00349274
0.00368549
0.00381221
0.00388673
0.00392044
0.00392242
0.00389975
0.00385814
0.00380106
0.00373322
0.00365295
0.00357165
0.00346941
0.00339115
0.00396627
0.00427761
0.00448388
0.00460755
0.0046671
0.00467727
0.00465004
0.00459479
0.0045187
0.00442742
0.00432432
0.00421397
0.00409455
0.00397711
0.00384226
0.0037326
0.00508674
0.00533612
0.00547658
0.00553326
0.00552667
0.00547303
0.0053852
0.00527309
0.00514408
0.00500386
0.0048556
0.00470371
0.00454616
0.00439313
0.00422656
0.00408344
0.00622819
0.00641106
0.00648069
0.00646555
0.00638875
0.00626817
0.00611764
0.00594765
0.00576562
0.00557721
0.00538522
0.00519349
0.0049998
0.00481259
0.0046161
0.00443809
0.00748593
0.00756354
0.00753204
0.00742291
0.00726055
0.00706318
0.00684436
0.00661386
0.00637819
0.00614202
0.00590734
0.00567688
0.00544819
0.00522773
0.00500186
0.00479107
0.00889835
0.00881091
0.00863741
0.00840786
0.0081435
0.00785929
0.0075658
0.0072704
0.0069778
0.00669108
0.00641132
0.00614016
0.00587507
0.00562102
0.0053654
0.00512624
0.01032
0.0100479
0.00972212
0.00936626
0.00899618
0.00862224
0.0082513
0.00788801
0.00753541
0.00719543
0.0068687
0.00655594
0.0062546
0.00596832
0.00568479
0.00542158
0.0115052
0.0110868
0.0106377
0.0101764
0.00971489
0.00926079
0.00881932
0.00839382
0.00798656
0.0075987
0.00723044
0.00688182
0.00654993
0.00623707
0.00593137
0.00564861
0.0122205
0.0117169
0.0111929
0.0106656
0.0101456
0.00963981
0.00915288
0.00868777
0.0082463
0.00782922
0.00743616
0.0070666
0.00671706
0.0063888
0.00607065
0.00577498
-0.0019077
-0.00138572
-0.000926904
-0.000525233
-0.000173508
0.00013384
0.000401582
0.0006338
0.000833408
0.000994027
0.0011231
0.00119733
-0.00186123
-0.00135198
-0.000905228
-0.000513583
-0.000170365
0.000129579
0.000388474
0.000607059
0.000791859
0.000947362
0.00108301
0.001201
-0.00215434
-0.00159528
-0.0011078
-0.000681293
-0.000308091
1.8276e-05
0.000302847
0.000549049
0.000757635
0.000933252
0.00107845
0.00120138
0.00130426
-0.00176376
-0.00123603
-0.000776897
-0.000377003
-2.88796e-05
0.000273927
0.000536253
0.000762546
0.000954062
0.00111447
0.00124523
0.00135181
0.00144318
-0.00134195
-0.000845405
-0.000415754
-4.4203e-05
0.000276636
0.000553633
0.000791599
0.000995289
0.00116654
0.0013087
0.00142418
0.0015138
0.00159659
-0.00138079
-0.000843447
-0.000382326
1.29328e-05
0.000351431
0.000640701
0.000887889
0.00109784
0.00127535
0.00142281
0.00154297
0.0016398
0.00170917
0.00177707
-0.000757875
-0.000263146
0.000156018
0.000510541
0.000810066
0.00106238
0.00127479
0.00145225
0.00159942
0.00171917
0.00181339
0.00188809
0.00193429
0.00198677
-5.21919e-05
0.000393565
0.000764782
0.00107292
0.00132813
0.00153845
0.00171134
0.00185198
0.00196482
0.00205327
0.00211807
0.00216767
0.0021876
0.00222411
0.000258957
0.000736442
0.00112638
0.00144337
0.0016994
0.00190499
0.00206845
0.00219724
0.00229682
0.00237138
0.0024249
0.00245699
0.00247817
0.00246935
0.00248457
0.00118645
0.00160059
0.00192856
0.00218569
0.00238447
0.00253574
0.00264808
0.00272882
0.00278362
0.00281642
0.00283165
0.00282813
0.00281742
0.0027785
0.00276506
0.00218303
0.00252828
0.00278913
0.00298165
0.00311894
0.00321207
0.00326989
0.00329956
0.00330679
0.00329528
0.00326965
0.00322837
0.00318302
0.00311299
0.00306701
0.00322496
0.00349909
0.00369043
0.00381596
0.00388946
0.00392232
0.00392359
0.00390038
0.00385835
0.00380101
0.00373298
0.00365266
0.00357128
0.00346909
0.00339116
0.00397739
0.00428613
0.00449033
0.00461236
0.00467058
0.00467968
0.00465159
0.00459566
0.00451907
0.00442742
0.00432411
0.0042136
0.00409417
0.00397668
0.00384189
0.00373259
0.00509697
0.00534326
0.00548142
0.00553641
0.00552857
0.005474
0.0053855
0.0052729
0.00514358
0.00500315
0.00485483
0.0047029
0.00454543
0.00439245
0.00422599
0.0040833
0.00623063
0.00641134
0.00647959
0.00646364
0.0063864
0.00626561
0.00611503
0.00594509
0.00576321
0.00557497
0.00538323
0.00519172
0.00499832
0.00481133
0.00461509
0.00443761
0.00746685
0.00754645
0.00751698
0.0074098
0.00724922
0.00705343
0.006836
0.00660668
0.00637209
0.00613685
0.00590304
0.00567331
0.00544532
0.00522542
0.00500005
0.00478996
0.00884218
0.00876384
0.00859818
0.00837524
0.00811646
0.00783692
0.00754738
0.00725528
0.00696546
0.00668104
0.00640327
0.00613372
0.00587003
0.0056171
0.00536238
0.00512422
0.0102195
0.00996385
0.00965206
0.00930814
0.00894821
0.00858285
0.00821918
0.00786197
0.00751449
0.00717873
0.00685551
0.0065456
0.00624663
0.00596222
0.00568016
0.00541835
0.0113633
0.0109678
0.0105383
0.0100939
0.00964671
0.00920481
0.00877363
0.00835677
0.00795673
0.00757487
0.00721161
0.0068671
0.00653861
0.00622847
0.00592491
0.00564399
0.0120522
0.0115759
0.0110755
0.0105684
0.0100655
0.00957421
0.00909934
0.00864424
0.00821108
0.0078009
0.0074136
0.00704884
0.0067033
0.00637832
0.00606276
0.00576922
-0.00189984
-0.00138037
-0.000923155
-0.000522608
-0.000171769
0.000134998
0.000402531
0.000634772
0.000834543
0.000995376
0.00112437
0.00119857
-0.001861
-0.00135282
-0.000906687
-0.00051537
-0.00017228
0.00012772
0.000386805
0.000605621
0.000790564
0.000946174
0.00108189
0.00119998
-0.00215331
-0.0015951
-0.00110806
-0.000681939
-0.000309147
1.68726e-05
0.000301285
0.000547512
0.00075631
0.000932116
0.00107753
0.00120065
0.00130375
-0.00176164
-0.00123458
-0.000776008
-0.000376644
-2.90372e-05
0.000273314
0.000535368
0.000761542
0.000953173
0.00111373
0.00124466
0.00135138
0.00144292
-0.00133944
-0.000843632
-0.000414648
-4.36906e-05
0.000276624
0.00055315
0.000790806
0.000994309
0.0011656
0.00130785
0.00142349
0.00151328
0.00159637
-0.00137724
-0.000840689
-0.000380341
1.42249e-05
0.00035211
0.000640846
0.000887554
0.00109717
0.00127445
0.00142188
0.0015421
0.00163905
0.00170858
0.00177686
-0.000753796
-0.000259929
0.000158418
0.000512206
0.000811078
0.00106281
0.00127472
0.0014518
0.00159871
0.00171837
0.0018126
0.00188738
0.00193371
0.0019866
-4.75862e-05
0.000397266
0.000767638
0.00107499
0.0013295
0.00153919
0.00171152
0.00185174
0.00196428
0.00205259
0.00211737
0.002167
0.00218704
0.00222403
0.000265142
0.000741662
0.00113064
0.00144675
0.00170193
0.00190675
0.00206952
0.00219769
0.00229679
0.00237101
0.00242433
0.00245636
0.00247753
0.00246881
0.00248458
0.00119344
0.00160654
0.00193348
0.00218963
0.0023875
0.00253792
0.00264951
0.00272958
0.00278383
0.00281625
0.00283122
0.00282759
0.00281683
0.00277797
0.00276512
0.00219107
0.00253509
0.00279477
0.00298618
0.00312245
0.00321465
0.00327162
0.00330057
0.00330721
0.00329528
0.00326934
0.00322793
0.00318248
0.00311247
0.00306707
0.00323429
0.00350682
0.00369671
0.00382095
0.0038933
0.00392512
0.00392548
0.00390151
0.00385886
0.00380108
0.00373272
0.00365225
0.00357076
0.00346854
0.00339119
0.00399104
0.00429697
0.00449889
0.00461904
0.00467568
0.00468345
0.00465423
0.00459734
0.00452
0.00442775
0.00432402
0.00421321
0.00409364
0.00397604
0.00384124
0.00373256
0.00511282
0.00535493
0.00548989
0.00554244
0.00553273
0.0054767
0.00538707
0.0052736
0.00514363
0.00500272
0.00485412
0.00470198
0.00454448
0.00439147
0.00422505
0.00408308
0.00624365
0.00641963
0.00648446
0.00646611
0.00638717
0.00626521
0.00611384
0.00594337
0.0057612
0.00557279
0.00538106
0.0051896
0.0049964
0.0048096
0.00461355
0.00443691
0.00746469
0.00754168
0.00751066
0.00740268
0.0072418
0.00704604
0.00682887
0.00659996
0.00636588
0.00613119
0.00589801
0.00566888
0.00544156
0.00522228
0.00499742
0.0047884
0.00880832
0.00873238
0.00856937
0.00834911
0.00809298
0.00781605
0.00752902
0.00723927
0.00695167
0.00666926
0.00639335
0.00612545
0.00586329
0.00561168
0.00535803
0.00512136
0.0101418
0.0098946
0.00959089
0.0092545
0.0089015
0.00854248
0.00818459
0.00783259
0.00748978
0.00715814
0.00683858
0.00653181
0.00623562
0.00595356
0.00567342
0.00541368
0.0112394
0.010859
0.0104435
0.0100118
0.00957612
0.00914449
0.00872239
0.00831349
0.00792042
0.00754465
0.00718675
0.0068469
0.00652251
0.0062159
0.00591527
0.00563711
0.0118966
0.0114407
0.0109589
0.0104684
0.00998036
0.00950191
0.00903818
0.00859265
0.00816771
0.00776464
0.00738353
0.00702422
0.00668351
0.00636278
0.00605083
0.00576046
-0.00188987
-0.00137319
-0.000917657
-0.000518313
-0.000168634
0.000137177
0.000404193
0.000636279
0.000836151
0.000997215
0.00112612
0.00120022
-0.00185909
-0.00135236
-0.000907135
-0.000516391
-0.000173669
0.000126176
0.000385306
0.000604278
0.000789329
0.000944993
0.00108075
0.00119885
-0.002151
-0.00159394
-0.00110751
-0.000681876
-0.000309598
1.59181e-05
0.000299979
0.000546052
0.000754953
0.000930908
0.00107652
0.00119985
0.00130317
-0.00175806
-0.00123185
-0.000773981
-0.000375277
-2.83223e-05
0.000273397
0.00053498
0.000760839
0.000952446
0.00111308
0.00124416
0.00135102
0.00144269
-0.00133544
-0.000840489
-0.000412326
-4.21226e-05
0.000277506
0.000553372
0.000790525
0.000993648
0.00116482
0.0013071
0.00142284
0.0015128
0.0015962
-0.00137211
-0.00083645
-0.000376997
1.67269e-05
0.000353832
0.000641869
0.000887904
0.00109699
0.00127386
0.00142111
0.0015413
0.00163832
0.001708
0.00177673
-0.000748142
-0.000255219
0.000162194
0.000515104
0.000813159
0.00106414
0.00127535
0.00145186
0.00159832
0.00171774
0.00181189
0.0018867
0.00193313
0.00198653
-4.14237e-05
0.000402452
0.000771867
0.0010783
0.00133196
0.00154084
0.00171243
0.00185203
0.00196408
0.0020521
0.00211675
0.00216637
0.00218648
0.00222408
0.00027285
0.000748388
0.00113636
0.00145147
0.00170569
0.0019096
0.00207153
0.00219891
0.00229734
0.00237102
0.00242399
0.00245584
0.00247694
0.00246826
0.00248475
0.00120187
0.00161396
0.00193983
0.00219494
0.00239178
0.00254122
0.0026519
0.00273112
0.00278464
0.00281647
0.00283103
0.00282718
0.00281629
0.00277741
0.00276537
0.00220059
0.00254344
0.00280192
0.00299217
0.00312731
0.00321843
0.0032744
0.00330244
0.00330828
0.00329572
0.00326931
0.00322762
0.003182
0.00311188
0.00306734
0.00324554
0.00351644
0.00370482
0.00382766
0.00389869
0.0039293
0.00392855
0.0039036
0.0038601
0.00380166
0.00373279
0.003652
0.00357029
0.00346791
0.00339142
0.00400843
0.00431115
0.00451044
0.00462838
0.00468313
0.00468926
0.00465861
0.00460048
0.00452206
0.00442892
0.00432452
0.00421318
0.00409329
0.00397547
0.00384047
0.00373271
0.00513662
0.00537312
0.00550372
0.00555287
0.00554047
0.00548231
0.00539097
0.00527612
0.00514506
0.00500328
0.00485406
0.00470145
0.00454369
0.00439051
0.00422395
0.00408301
0.00627152
0.00643961
0.00649848
0.00647569
0.00639344
0.00626901
0.00611581
0.00594398
0.00576083
0.00557172
0.00537956
0.00518781
0.00499454
0.00480777
0.00461171
0.00443626
0.00748637
0.00755541
0.00751855
0.00740632
0.00724238
0.0070445
0.00682589
0.00659605
0.00636148
0.00612657
0.00589344
0.0056645
0.00543755
0.00521872
0.00499421
0.00478664
0.00880742
0.00872626
0.00855968
0.00833709
0.00807961
0.00780212
0.00751518
0.00722597
0.00693923
0.00665786
0.00638315
0.00611646
0.00585556
0.00560521
0.00535256
0.00511782
0.0101021
0.00985401
0.0095509
0.00921605
0.00886522
0.00850882
0.00815384
0.00780491
0.00746521
0.00713659
0.00681995
0.00651593
0.00622234
0.00594272
0.00566462
0.00540757
0.011152
0.0107769
0.0103679
0.009943
0.00951426
0.0090893
0.00867347
0.00827039
0.00788266
0.00751179
0.00715843
0.00682282
0.00650243
0.00619958
0.00590225
0.00562767
0.0117733
0.0113289
0.0108587
0.0103794
0.00990187
0.00943303
0.0089779
0.00853998
0.00812175
0.00772464
0.00734893
0.0069946
0.0066586
0.00634236
0.00603452
0.00574818
-0.00187831
-0.00136466
-0.000910818
-0.000512563
-0.000164082
0.000140529
0.000406726
0.000638427
0.000838277
0.000999558
0.00112837
0.00120222
-0.00185525
-0.00135038
-0.000906397
-0.000516463
-0.000174314
0.000125172
0.000384175
0.000603195
0.000788289
0.000943922
0.00107968
0.00119761
-0.00214738
-0.00159179
-0.00110618
-0.00068116
-0.000309453
1.54881e-05
0.000299065
0.000544811
0.000753662
0.000929692
0.00107545
0.00119902
0.00130246
-0.00175303
-0.00122786
-0.000770839
-0.0003729
-2.66761e-05
0.000274311
0.000535281
0.000760639
0.000952045
0.00111265
0.0012438
0.0013508
0.00144247
-0.00132988
-0.000835939
-0.000408729
-3.94099e-05
0.000279415
0.000554492
0.000790988
0.000993547
0.00116443
0.00130659
0.00142236
0.00151246
0.00159608
-0.00136525
-0.000830623
-0.000372185
2.05679e-05
0.000356754
0.000643956
0.000889167
0.00109756
0.00127383
0.00142072
0.00154074
0.00163775
0.00170755
0.00177671
-0.000740691
-0.000248821
0.000167542
0.000519447
0.000816535
0.00106663
0.00127696
0.00145272
0.00159855
0.00171754
0.00181146
0.00188619
0.00193267
0.00198663
-3.33244e-05
0.000409452
0.000777772
0.00108315
0.00133579
0.00154373
0.00171439
0.00185319
0.00196455
0.00205209
0.00211645
0.00216593
0.00218605
0.00222434
0.000282792
0.000757188
0.001144
0.00145798
0.00171107
0.00191391
0.00207482
0.00220123
0.0022988
0.00237173
0.00242416
0.00245567
0.00247657
0.00246784
0.0024852
0.00121278
0.00162366
0.00194827
0.00220216
0.0023978
0.00254609
0.00265567
0.00273385
0.00278644
0.00281747
0.0028314
0.00282715
0.00281599
0.00277698
0.00276596
0.00221301
0.00255442
0.00281146
0.00300033
0.00313413
0.00322396
0.00327871
0.00330562
0.00331043
0.00329701
0.00326991
0.00322774
0.0031818
0.00311144
0.003068
0.00326072
0.00352952
0.00371596
0.00383704
0.00390646
0.00393557
0.00393342
0.00390721
0.00386258
0.00380321
0.00373358
0.00365224
0.00357017
0.00346742
0.00339208
0.00403307
0.00433144
0.00452715
0.00464208
0.0046943
0.00469825
0.00466569
0.00460588
0.004526
0.00443161
0.00432618
0.00421401
0.00409352
0.00397528
0.00383985
0.00373332
0.00517327
0.00540177
0.00552605
0.00557021
0.00555384
0.00549251
0.00539859
0.00528164
0.00514887
0.0050057
0.0048554
0.00470193
0.00454357
0.00439
0.00422297
0.0040834
0.00632089
0.00647664
0.00652603
0.00649599
0.00640818
0.00627949
0.00612303
0.00594867
0.00576359
0.00557299
0.00537974
0.00518719
0.0049934
0.00480637
0.00460993
0.00443602
0.00753977
0.00759423
0.00754624
0.00742552
0.00725511
0.00705232
0.00683003
0.00659748
0.00636096
0.0061247
0.00589072
0.00566128
0.00543414
0.00521542
0.00499085
0.00478508
0.00884804
0.00875309
0.00857598
0.00834532
0.00808176
0.00779987
0.00750989
0.00721875
0.00693095
0.00664917
0.00637453
0.00610822
0.00584795
0.00559847
0.00534645
0.00511404
0.0101103
0.00985127
0.00954049
0.00920038
0.00884618
0.00848788
0.00813219
0.00778344
0.00744456
0.00711721
0.00680212
0.00649986
0.00620814
0.00593059
0.00565424
0.00540037
0.011113
0.0107326
0.0103214
0.00989656
0.00946921
0.00904649
0.00863335
0.00823316
0.00784837
0.00748043
0.00713001
0.0067974
0.00648008
0.00618054
0.00588629
0.0056158
0.0116952
0.0112522
0.0107855
0.0103111
0.00983889
0.00937549
0.00892558
0.00849249
0.00807866
0.00768557
0.00731363
0.00696296
0.00663065
0.0063183
0.00601431
0.00573238
-0.00186581
-0.00135537
-0.000903232
-0.000505877
-0.000158424
0.000144954
0.000410134
0.000641221
0.000840888
0.00100235
0.00113108
0.00120442
-0.0018493
-0.00134672
-0.000904336
-0.000515467
-0.000174082
0.000124861
0.000383572
0.000602519
0.00078758
0.000943068
0.00107877
0.00119624
-0.00214243
-0.00158867
-0.00110412
-0.000679892
-0.000308823
1.55225e-05
0.000298557
0.000543852
0.000752502
0.000928514
0.00107433
0.00119818
0.00130155
-0.0017466
-0.00122273
-0.000766693
-0.000369624
-2.41891e-05
0.000276027
0.000536315
0.000761044
0.000952073
0.00111253
0.00124364
0.00135078
0.00144218
-0.0013228
-0.000830039
-0.000403905
-3.55878e-05
0.000282341
0.000556542
0.000792289
0.000994153
0.00116456
0.00130646
0.00142212
0.00151235
0.00159597
-0.00135658
-0.000823167
-0.000365889
2.57676e-05
0.000360907
0.000647163
0.000891434
0.00109901
0.00127454
0.00142089
0.00154059
0.00163744
0.00170733
0.00177679
-0.000731243
-0.000240594
0.000174579
0.000525348
0.000821327
0.0010704
0.00127971
0.00145458
0.00159959
0.00171797
0.00181149
0.001886
0.00193247
0.00198691
-2.28248e-05
0.000418615
0.000785638
0.00108979
0.00134123
0.00154806
0.00171764
0.00185544
0.00196593
0.00205277
0.00211667
0.00216585
0.00218589
0.00222486
0.000295978
0.000768839
0.00115418
0.00146674
0.00171849
0.00192004
0.00207975
0.00220499
0.00230148
0.00237346
0.00242512
0.00245609
0.00247661
0.00246772
0.00248599
0.00122784
0.00163692
0.00195981
0.00221208
0.0024062
0.00255304
0.00266128
0.00273819
0.00278961
0.0028196
0.00283267
0.00282779
0.00281619
0.00277688
0.002767
0.00223082
0.00256995
0.00282486
0.0030118
0.00314382
0.00323198
0.00328517
0.00331065
0.00331415
0.00329958
0.00327151
0.00322862
0.00318217
0.00311134
0.00306921
0.0032835
0.00354884
0.00373228
0.00385074
0.00391786
0.00394492
0.00394092
0.00391304
0.00386691
0.00380625
0.00373555
0.00365337
0.00357071
0.00346732
0.00339338
0.00407129
0.00436283
0.00455288
0.00466313
0.00471148
0.00471218
0.00467687
0.00461468
0.00453274
0.00443657
0.00432965
0.00421625
0.0040948
0.00397589
0.00383967
0.00373466
0.00523077
0.00544732
0.005562
0.0055985
0.00557601
0.00550979
0.00541193
0.00529176
0.00515636
0.00501104
0.00485901
0.00470414
0.00454472
0.00439042
0.00422251
0.00408461
0.00640154
0.00653858
0.00657341
0.00653207
0.00643549
0.00629996
0.00613816
0.00595961
0.00577125
0.00557805
0.00538282
0.00518872
0.0049938
0.00480605
0.00460871
0.00443667
0.00763553
0.00766666
0.00760071
0.00746605
0.00728476
0.00707347
0.0068446
0.00660695
0.00636659
0.00612743
0.00589138
0.00566046
0.00543235
0.00521319
0.00498793
0.00478431
0.0089401
0.00882107
0.00862523
0.00837979
0.0081046
0.00781369
0.00751689
0.00722075
0.00692945
0.00664533
0.00636928
0.00610221
0.00584167
0.00559245
0.00534039
0.00511065
0.010175
0.00989384
0.00956623
0.00921334
0.00884956
0.00848428
0.00812373
0.0077718
0.00743103
0.00710276
0.00678746
0.00648555
0.00619459
0.00591834
0.00564303
0.00539269
0.0111307
0.0107334
0.0103109
0.00987853
0.00944653
0.00902114
0.00860671
0.00820611
0.00782151
0.00745419
0.00710468
0.00677336
0.00645766
0.00616034
0.00586832
0.00560208
0.0116718
0.0112191
0.0107471
0.0102703
0.0097977
0.00933505
0.00888649
0.00845503
0.00804289
0.0076515