/*--------------------------------*- C++ -*----------------------------------*\
  =========                 |
  \\      /  F ield         | OpenFOAM: The Open Source CFD Toolbox
   \\    /   O peration     | Website:  https://openfoam.org
    \\  /    A nd           | Version:  6
     \\/     M anipulation  |
\*---------------------------------------------------------------------------*/
FoamFile
{
    version     2.0;
    format      ascii;
    class       volVectorField;
    location    "1.6";
    object      U;
}
// * * * * * * * * * * * * * * * * * * * * * * * * * * * * * * * * * * * * * //

dimensions      [0 1 -1 0 0 0 0];

internalField   nonuniform List<vector> 
63432
(
(0.108428 0.0167591 -5.48413e-05)
(0.109765 0.0152777 -3.57292e-05)
(0.110925 0.013969 -1.95925e-05)
(0.111744 0.0127208 -1.22235e-05)
(0.112098 0.011469 -1.02951e-05)
(0.11213 0.0102452 -9.36008e-06)
(0.112105 0.00910638 -8.62848e-06)
(0.112204 0.00807918 -8.26321e-06)
(0.11224 0.00713103 -8.18572e-06)
(0.11188 0.00626418 -8.21684e-06)
(0.111444 0.00550557 -7.55308e-06)
(0.111013 0.00482708 -5.78028e-06)
(0.107398 0.0169917 -8.54808e-06)
(0.108568 0.0154375 5.03678e-06)
(0.109626 0.0140575 1.02681e-05)
(0.11058 0.0127984 9.6771e-06)
(0.111293 0.0115895 7.55315e-06)
(0.111641 0.0104008 6.3073e-06)
(0.111702 0.00926252 5.98447e-06)
(0.111729 0.00823258 5.98734e-06)
(0.111848 0.00731773 6.03373e-06)
(0.111849 0.00648754 5.46608e-06)
(0.111691 0.00573109 4.8298e-06)
(0.111272 0.00498821 3.68995e-06)
(0.104058 0.0182328 1.3838e-05)
(0.10529 0.016486 2.37909e-05)
(0.106396 0.0149137 2.56106e-05)
(0.107486 0.0135196 2.31212e-05)
(0.108573 0.0122723 1.959e-05)
(0.10957 0.0111151 1.65432e-05)
(0.110328 0.0100015 1.42139e-05)
(0.110726 0.00891773 1.25154e-05)
(0.110867 0.00790242 1.11534e-05)
(0.110971 0.00699239 1.03288e-05)
(0.111036 0.00618838 9.32895e-06)
(0.11114 0.00548312 7.93097e-06)
(0.111032 0.00483164 5.67843e-06)
(0.101375 0.0172635 3.34225e-05)
(0.102753 0.0155723 3.24708e-05)
(0.103999 0.0140486 2.81726e-05)
(0.105201 0.0126926 2.37408e-05)
(0.106403 0.0114863 2.01694e-05)
(0.10756 0.0103877 1.73459e-05)
(0.108615 0.00936017 1.48738e-05)
(0.109429 0.00837445 1.27272e-05)
(0.109919 0.00743386 1.07353e-05)
(0.110214 0.00656891 9.21762e-06)
(0.110344 0.00579323 8.06026e-06)
(0.110498 0.00512788 6.74076e-06)
(0.11062 0.00453481 4.23311e-06)
(0.0983879 0.0159999 4.33106e-05)
(0.100086 0.0144097 3.69633e-05)
(0.101612 0.0129795 3.08145e-05)
(0.103001 0.011699 2.59402e-05)
(0.104324 0.0105568 2.22066e-05)
(0.105582 0.00952434 1.91782e-05)
(0.106779 0.00857584 1.65383e-05)
(0.107868 0.00768908 1.41999e-05)
(0.108729 0.00685026 1.20349e-05)
(0.109371 0.00607117 1.01199e-05)
(0.109752 0.00535211 8.63056e-06)
(0.110001 0.0047303 7.06326e-06)
(0.11025 0.0041893 3.75543e-06)
(0.0926913 0.01587 5.91131e-05)
(0.0950398 0.014263 5.00345e-05)
(0.0971586 0.0128288 4.18025e-05)
(0.099062 0.0115462 3.49208e-05)
(0.100749 0.0103948 2.93604e-05)
(0.102275 0.0093613 2.49541e-05)
(0.103668 0.00842551 2.12949e-05)
(0.10496 0.00756993 1.8273e-05)
(0.106181 0.00678381 1.56574e-05)
(0.107262 0.0060531 1.33735e-05)
(0.108217 0.00538415 1.12544e-05)
(0.108934 0.00475918 9.5995e-06)
(0.109435 0.00420881 7.78694e-06)
(0.109892 0.00373824 3.97014e-06)
(0.088563 0.0133877 6.48426e-05)
(0.0913889 0.0119971 5.4276e-05)
(0.0939611 0.010776 4.54045e-05)
(0.0962906 0.00969662 3.80464e-05)
(0.0983612 0.00873175 3.18616e-05)
(0.100194 0.00786234 2.68509e-05)
(0.101825 0.00707158 2.26174e-05)
(0.103263 0.00634328 1.91556e-05)
(0.104598 0.00567706 1.62257e-05)
(0.105787 0.00506203 1.37964e-05)
(0.106905 0.00451088 1.15593e-05)
(0.107885 0.00400054 9.86621e-06)
(0.108641 0.00355215 8.1324e-06)
(0.109396 0.00316686 3.92478e-06)
(0.0842234 0.0102798 6.70071e-05)
(0.0875413 0.00917647 5.60526e-05)
(0.0905692 0.00822784 4.68273e-05)
(0.0933221 0.00740369 3.91889e-05)
(0.0958081 0.00667776 3.27415e-05)
(0.098004 0.00602461 2.74708e-05)
(0.0999648 0.00543095 2.3014e-05)
(0.101651 0.00487691 1.92836e-05)
(0.103166 0.00436611 1.61475e-05)
(0.104487 0.00389069 1.35906e-05)
(0.105681 0.00346753 1.13003e-05)
(0.106809 0.00308044 9.5566e-06)
(0.107702 0.00274949 7.98264e-06)
(0.10872 0.00247814 3.11705e-06)
(0.0756442 0.00740429 7.74802e-05)
(0.0798186 0.00650361 6.4443e-05)
(0.0836329 0.00576824 5.36759e-05)
(0.0871183 0.00516097 4.46465e-05)
(0.0902712 0.00464791 3.71928e-05)
(0.0931509 0.00421043 3.10122e-05)
(0.0957129 0.00382134 2.59369e-05)
(0.0980201 0.00347062 2.16973e-05)
(0.100031 0.00313915 1.81081e-05)
(0.1018 0.00282724 1.50428e-05)
(0.103343 0.00252998 1.25898e-05)
(0.104661 0.00226121 1.03416e-05)
(0.105908 0.00201498 8.69394e-06)
(0.106864 0.00180582 7.3005e-06)
(0.108015 0.00167655 2.00996e-06)
(0.0707925 0.00245846 6.60596e-05)
(0.0755561 0.00206102 5.47594e-05)
(0.0798632 0.00178049 4.52731e-05)
(0.0837913 0.00158781 3.74269e-05)
(0.0873287 0.00144884 3.09869e-05)
(0.0905514 0.00134941 2.57311e-05)
(0.0934456 0.00126901 2.14482e-05)
(0.0960566 0.00119951 1.79049e-05)
(0.0983809 0.00112858 1.49712e-05)
(0.100431 0.00105376 1.23788e-05)
(0.102246 0.000972221 1.04014e-05)
(0.103781 0.000892194 8.45264e-06)
(0.105202 0.000815815 7.14106e-06)
(0.106278 0.000742442 6.04947e-06)
(0.107489 0.000764029 1.02108e-06)
(0.0664692 -0.00316941 4.38234e-05)
(0.0717608 -0.00297439 3.61909e-05)
(0.0765246 -0.00271836 2.96459e-05)
(0.0808409 -0.0024288 2.42542e-05)
(0.0847253 -0.00213323 1.98845e-05)
(0.0882388 -0.0018446 1.63855e-05)
(0.0914011 -0.00157551 1.35857e-05)
(0.0942559 -0.00133002 1.12885e-05)
(0.0968189 -0.0011136 9.49603e-06)
(0.0991087 -0.000925929 7.8331e-06)
(0.101162 -0.000767211 6.70307e-06)
(0.102933 -0.0006322 5.43744e-06)
(0.104568 -0.000513905 4.71359e-06)
(0.105845 -0.000424407 4.18342e-06)
(0.107158 -0.000255433 -1.32853e-07)
(0.0632073 -0.00929396 1.24281e-05)
(0.068893 -0.00843942 9.79382e-06)
(0.074004 -0.00758491 7.41021e-06)
(0.0786152 -0.00675833 5.50611e-06)
(0.0827538 -0.00598196 4.05837e-06)
(0.0864871 -0.0052647 3.03576e-06)
(0.0898353 -0.00461368 2.36211e-06)
(0.0928571 -0.00402767 1.84754e-06)
(0.0955743 -0.00350557 1.63646e-06)
(0.0980127 -0.00304241 1.33178e-06)
(0.100225 -0.00263294 1.37663e-06)
(0.102157 -0.00227087 1.13093e-06)
(0.103966 -0.00194671 1.13924e-06)
(0.105424 -0.00167167 1.37948e-06)
(0.106885 -0.00135112 -2.27464e-06)
(0.055244 -0.0172218 -2.17214e-05)
(0.0617206 -0.0156498 -2.00611e-05)
(0.0675693 -0.0140927 -1.87924e-05)
(0.0728231 -0.0126008 -1.75139e-05)
(0.077558 -0.0112029 -1.60434e-05)
(0.0818027 -0.0099178 -1.44479e-05)
(0.0856233 -0.00875055 -1.28365e-05)
(0.0890515 -0.00770154 -1.11937e-05)
(0.0921341 -0.0067645 -9.72644e-06)
(0.0949172 -0.00593066 -8.18991e-06)
(0.0974056 -0.00518968 -6.98308e-06)
(0.0996843 -0.00453004 -5.64047e-06)
(0.101677 -0.00394109 -4.71681e-06)
(0.103567 -0.0034106 -3.7648e-06)
(0.105114 -0.00294519 -2.55967e-06)
(0.106665 -0.00245913 -5.53902e-06)
(0.0566364 -0.0243735 -3.33418e-05)
(0.0628795 -0.021957 -3.62871e-05)
(0.0685187 -0.0196393 -3.71392e-05)
(0.0735982 -0.0174744 -3.63294e-05)
(0.0781815 -0.0154887 -3.43918e-05)
(0.0823092 -0.0136901 -3.16094e-05)
(0.0860274 -0.0120765 -2.84915e-05)
(0.0893819 -0.0106386 -2.51759e-05)
(0.092397 -0.00936201 -2.20753e-05)
(0.095133 -0.00822974 -1.8967e-05)
(0.0975778 -0.00722385 -1.63041e-05)
(0.0998239 -0.00632679 -1.36152e-05)
(0.10179 -0.00552293 -1.14626e-05)
(0.103655 -0.0047952 -9.42807e-06)
(0.105199 -0.0041504 -7.21551e-06)
(0.106716 -0.00349902 -9.14634e-06)
(0.0625013 -0.0312199 -7.17651e-06)
(0.0678343 -0.0278215 -2.42058e-05)
(0.0726664 -0.0246809 -3.52833e-05)
(0.077066 -0.0218245 -4.11451e-05)
(0.0810832 -0.0192563 -4.31395e-05)
(0.0847498 -0.0169708 -4.23575e-05)
(0.0880908 -0.0149475 -3.99389e-05)
(0.0911391 -0.0131609 -3.6472e-05)
(0.0939053 -0.0115836 -3.27594e-05)
(0.0964356 -0.0101888 -2.8794e-05)
(0.098713 -0.00895029 -2.51407e-05)
(0.100813 -0.00784455 -2.14403e-05)
(0.102661 -0.00685237 -1.82564e-05)
(0.104407 -0.00595296 -1.52838e-05)
(0.105878 -0.00515182 -1.21388e-05)
(0.107263 -0.00436966 -1.25487e-05)
(0.0740333 -0.0363475 2.1787e-05)
(0.0776753 -0.0321265 -6.57832e-07)
(0.0809643 -0.0283226 -1.9819e-05)
(0.0840115 -0.0249309 -3.33731e-05)
(0.0868812 -0.0219271 -4.14271e-05)
(0.089595 -0.0192764 -4.50238e-05)
(0.0921563 -0.0169441 -4.555e-05)
(0.0945675 -0.0148949 -4.38236e-05)
(0.0968134 -0.0130905 -4.08677e-05)
(0.0989127 -0.0114967 -3.70394e-05)
(0.100836 -0.0100827 -3.30613e-05)
(0.102636 -0.00882212 -2.88241e-05)
(0.104242 -0.00769343 -2.48697e-05)
(0.105768 -0.00667626 -2.11697e-05)
(0.10708 -0.00576704 -1.72128e-05)
(0.108287 -0.00491944 -1.61715e-05)
(0.0898734 -0.0372988 -1.35751e-05)
(0.0916345 -0.032954 -1.22085e-05)
(0.0930782 -0.029056 -2.10997e-05)
(0.0943979 -0.0255887 -3.22155e-05)
(0.0956998 -0.022515 -4.1542e-05)
(0.0970302 -0.0197934 -4.74925e-05)
(0.0983949 -0.0173855 -5.01085e-05)
(0.0997872 -0.015257 -4.99515e-05)
(0.101177 -0.0133779 -4.7906e-05)
(0.102557 -0.0117182 -4.43993e-05)
(0.103882 -0.0102488 -4.02654e-05)
(0.105179 -0.00894405 -3.56787e-05)
(0.106375 -0.00778178 -3.1161e-05)
(0.107552 -0.00674314 -2.69228e-05)
(0.108591 -0.00581467 -2.23641e-05)
(0.109574 -0.00498173 -2.04267e-05)
(0.105636 -0.0323951 -0.000124256)
(0.106119 -0.0288175 -8.41332e-05)
(0.106194 -0.0255419 -6.73842e-05)
(0.106112 -0.0225777 -6.24766e-05)
(0.10602 -0.0199155 -6.23264e-05)
(0.106005 -0.0175362 -6.29223e-05)
(0.106099 -0.0154165 -6.24928e-05)
(0.106323 -0.0135327 -6.03879e-05)
(0.10666 -0.0118618 -5.69508e-05)
(0.107112 -0.0103819 -5.25047e-05)
(0.107639 -0.00907151 -4.76287e-05)
(0.108252 -0.0079093 -4.25024e-05)
(0.108885 -0.00687617 -3.74982e-05)
(0.109592 -0.00595528 -3.28478e-05)
(0.110255 -0.00513285 -2.78925e-05)
(0.11095 -0.00440722 -2.53146e-05)
(0.11771 -0.0220179 -0.000252673)
(0.117632 -0.0197373 -0.00018154)
(0.11701 -0.017578 -0.000139763)
(0.116134 -0.0155772 -0.000115719)
(0.11518 -0.0137563 -0.000101325)
(0.114254 -0.0121213 -9.15166e-05)
(0.113412 -0.0106668 -8.35864e-05)
(0.112692 -0.0093791 -7.62449e-05)
(0.112107 -0.00824051 -6.91652e-05)
(0.111682 -0.00723233 -6.22798e-05)
(0.111411 -0.00633698 -5.58471e-05)
(0.111315 -0.00553928 -4.98148e-05)
(0.111351 -0.00482679 -4.41992e-05)
(0.111552 -0.00418717 -3.90893e-05)
(0.111817 -0.00361458 -3.37804e-05)
(0.112199 -0.00310583 -3.03172e-05)
(0.124105 -0.00790279 -0.000343807)
(0.123839 -0.00711012 -0.000253133)
(0.122928 -0.00633614 -0.000194536)
(0.121698 -0.00560513 -0.000157172)
(0.120355 -0.00493384 -0.000132596)
(0.119017 -0.00433089 -0.000115106)
(0.11774 -0.00379789 -0.00010139)
(0.11656 -0.00333145 -8.97708e-05)
(0.115499 -0.00292481 -7.96097e-05)
(0.114587 -0.00256959 -7.06421e-05)
(0.113845 -0.0022573 -6.27996e-05)
(0.113303 -0.00198008 -5.59242e-05)
(0.112951 -0.00173242 -4.97371e-05)
(0.112811 -0.00150878 -4.41975e-05)
(0.11281 -0.00130803 -3.85862e-05)
(0.112973 -0.00112683 -3.40748e-05)
(0.184269 0.0269648 -4.87813e-05)
(0.185325 0.0246518 -5.60041e-05)
(0.186402 0.0226027 -3.11035e-05)
(0.187372 0.0207273 -8.90308e-06)
(0.188083 0.0189125 -3.34534e-07)
(0.188517 0.0171259 1.8688e-06)
(0.188793 0.0153991 2.44537e-06)
(0.189026 0.0137749 2.57683e-06)
(0.189138 0.0122575 8.78206e-08)
(0.188962 0.0108786 -5.55967e-06)
(0.188714 0.00966834 -8.34076e-06)
(0.188449 0.00856927 -9.98654e-06)
(0.182831 0.0275398 -3.32245e-05)
(0.184031 0.025157 -1.30623e-05)
(0.185207 0.0230138 4.63015e-06)
(0.186308 0.0210638 1.33057e-05)
(0.187225 0.0192203 1.46445e-05)
(0.187861 0.017423 1.36953e-05)
(0.188237 0.0156796 1.29904e-05)
(0.188494 0.0140461 1.29667e-05)
(0.188737 0.0125468 1.33634e-05)
(0.188832 0.0111734 1.1216e-05)
(0.188775 0.00993102 9.29463e-06)
(0.188547 0.00875331 5.78666e-06)
(0.179379 0.0302751 1.59153e-05)
(0.18074 0.0276061 2.88405e-05)
(0.182058 0.0251646 3.68578e-05)
(0.183341 0.0229518 3.89671e-05)
(0.184589 0.0209462 3.79101e-05)
(0.185736 0.0190865 3.54599e-05)
(0.186669 0.0173063 3.24532e-05)
(0.187303 0.0155782 2.95786e-05)
(0.187679 0.0139358 2.68926e-05)
(0.187965 0.0124254 2.57104e-05)
(0.188174 0.0110596 2.36903e-05)
(0.18833 0.00983734 2.10526e-05)
(0.188322 0.00871347 1.55298e-05)
(0.176533 0.0298852 6.26198e-05)
(0.178166 0.0272019 6.16214e-05)
(0.179681 0.0247408 5.62212e-05)
(0.181122 0.0225017 4.9893e-05)
(0.182527 0.0204736 4.46642e-05)
(0.183871 0.018615 4.05162e-05)
(0.185087 0.0168708 3.6573e-05)
(0.186065 0.0151983 3.2698e-05)
(0.186732 0.013598 2.84263e-05)
(0.187182 0.0121066 2.53147e-05)
(0.187477 0.0107506 2.25447e-05)
(0.187732 0.00955197 1.97241e-05)
(0.187918 0.00847847 1.36195e-05)
(0.173219 0.0290597 9.46393e-05)
(0.175239 0.0264004 8.13566e-05)
(0.177074 0.0239627 6.83116e-05)
(0.17876 0.02174 5.75655e-05)
(0.180351 0.0197235 4.96056e-05)
(0.181862 0.0178844 4.36732e-05)
(0.183279 0.0161823 3.87548e-05)
(0.184546 0.0145798 3.43825e-05)
(0.18556 0.0130581 2.97421e-05)
(0.186318 0.0116326 2.56666e-05)
(0.186824 0.0103162 2.22169e-05)
(0.187187 0.00914822 1.87451e-05)
(0.187497 0.00812508 1.03003e-05)
(0.166574 0.0304452 0.000143433)
(0.169339 0.0276176 0.000120558)
(0.171867 0.0250386 9.97733e-05)
(0.174153 0.0226842 8.20463e-05)
(0.176208 0.0205375 6.76835e-05)
(0.178074 0.0185851 5.67274e-05)
(0.179786 0.016804 4.83292e-05)
(0.181368 0.0151653 4.17782e-05)
(0.182828 0.0136439 3.64671e-05)
(0.184104 0.0122192 3.1516e-05)
(0.185181 0.0108963 2.69302e-05)
(0.186003 0.00966724 2.31113e-05)
(0.186595 0.00856323 1.92499e-05)
(0.18708 0.00761138 8.65908e-06)
(0.161527 0.0281224 0.000172135)
(0.164916 0.0254317 0.000142068)
(0.168033 0.0230016 0.000116652)
(0.170866 0.0208001 9.5549e-05)
(0.173404 0.0188002 7.81184e-05)
(0.175666 0.0169804 6.43235e-05)
(0.177684 0.0153178 5.33611e-05)
(0.179479 0.0137874 4.47296e-05)
(0.18111 0.0123748 3.79225e-05)
(0.182558 0.0110645 3.22104e-05)
(0.18385 0.0098645 2.70845e-05)
(0.184953 0.008758 2.29906e-05)
(0.185815 0.00776286 1.92534e-05)
(0.186562 0.00690969 7.37064e-06)
(0.155962 0.0248535 0.000195067)
(0.160043 0.0223878 0.000160257)
(0.163798 0.020187 0.000131272)
(0.167224 0.0182137 0.000107388)
(0.170315 0.0164355 8.75937e-05)
(0.173064 0.014823 7.15507e-05)
(0.175499 0.0133522 5.85574e-05)
(0.177617 0.0119956 4.79515e-05)
(0.179485 0.0107435 3.94856e-05)
(0.181112 0.0095836 3.27022e-05)
(0.182546 0.00852941 2.67308e-05)
(0.183831 0.00756742 2.22167e-05)
(0.184882 0.00671225 1.84579e-05)
(0.185885 0.00600138 4.80775e-06)
(0.144785 0.0229084 0.000257134)
(0.15003 0.0204766 0.000210784)
(0.154866 0.0183494 0.000172684)
(0.159303 0.0164792 0.000141153)
(0.163338 0.0148227 0.000115216)
(0.166997 0.0133484 9.39076e-05)
(0.170265 0.012022 7.64318e-05)
(0.173172 0.0108202 6.21695e-05)
(0.175705 0.00971415 5.02897e-05)
(0.177904 0.00869243 4.04528e-05)
(0.179797 0.00774375 3.27182e-05)
(0.181407 0.00687986 2.57576e-05)
(0.182842 0.00609575 2.08054e-05)
(0.184005 0.00539947 1.6946e-05)
(0.185166 0.00487283 1.35074e-06)
(0.137761 0.0167596 0.000261921)
(0.143958 0.0148345 0.000214273)
(0.149609 0.0131885 0.000174884)
(0.15476 0.0117753 0.000142474)
(0.159417 0.0105473 0.000115861)
(0.163629 0.00947342 9.41411e-05)
(0.167401 0.00852088 7.63453e-05)
(0.170765 0.00766783 6.17377e-05)
(0.173727 0.00688975 4.96329e-05)
(0.176304 0.00617296 3.92116e-05)
(0.17853 0.0055067 3.10546e-05)
(0.180403 0.00489573 2.34742e-05)
(0.18204 0.00434271 1.81181e-05)
(0.183345 0.00383783 1.44391e-05)
(0.184603 0.00351934 -1.96324e-06)
(0.130961 0.00904227 0.000243733)
(0.138135 0.00781179 0.000198808)
(0.144625 0.00681802 0.00016145)
(0.150489 0.00601204 0.00013075)
(0.15576 0.00534667 0.000105641)
(0.160493 0.00478984 8.52466e-05)
(0.16472 0.00431237 6.86324e-05)
(0.168486 0.00389564 5.49702e-05)
(0.171817 0.00352143 4.38109e-05)
(0.174736 0.00317889 3.40228e-05)
(0.177283 0.00285973 2.63517e-05)
(0.179447 0.00256353 1.9044e-05)
(0.181336 0.00229789 1.366e-05)
(0.182853 0.00203736 1.05114e-05)
(0.18424 0.00194371 -5.27824e-06)
(0.125106 -0.000281154 0.000197376)
(0.133189 -0.000605942 0.000159635)
(0.140452 -0.000755349 0.000128025)
(0.146964 -0.000783363 0.000102106)
(0.152777 -0.000737451 8.1046e-05)
(0.157961 -0.000647731 6.41422e-05)
(0.162563 -0.000540291 5.0576e-05)
(0.166645 -0.000428643 3.94957e-05)
(0.170249 -0.000324045 3.06502e-05)
(0.173414 -0.00023143 2.28491e-05)
(0.176195 -0.000152082 1.68343e-05)
(0.178586 -8.60104e-05 1.08943e-05)
(0.180695 -2.14997e-05 6.31866e-06)
(0.182423 1.41535e-05 4.18313e-06)
(0.183975 0.000173146 -1.03545e-05)
(0.11157 -0.0116161 0.000152126)
(0.12131 -0.0110213 0.000121402)
(0.130065 -0.0102311 9.4565e-05)
(0.137888 -0.00934457 7.20838e-05)
(0.144859 -0.00842507 5.40102e-05)
(0.151045 -0.00752273 3.97294e-05)
(0.156527 -0.0066655 2.86252e-05)
(0.161368 -0.0058727 2.01081e-05)
(0.165635 -0.00515199 1.32926e-05)
(0.169392 -0.00450425 8.17429e-06)
(0.17268 -0.00392714 3.54771e-06)
(0.175576 -0.00341115 2.94493e-07)
(0.178072 -0.00295069 -3.21192e-06)
(0.18029 -0.00252765 -5.81482e-06)
(0.182135 -0.00216471 -5.99501e-06)
(0.183794 -0.00171854 -1.90565e-05)
(0.111131 -0.0244713 3.02098e-05)
(0.121139 -0.0225438 1.52383e-05)
(0.13008 -0.0204893 2.44356e-06)
(0.138029 -0.0184287 -7.56929e-06)
(0.145075 -0.0164425 -1.49021e-05)
(0.151304 -0.0145841 -1.97553e-05)
(0.156798 -0.0128813 -2.27826e-05)
(0.161639 -0.0113442 -2.42817e-05)
(0.165889 -0.00997162 -2.5148e-05)
(0.169625 -0.00875064 -2.50942e-05)
(0.172886 -0.00766765 -2.52687e-05)
(0.175754 -0.00670056 -2.45749e-05)
(0.178226 -0.00583546 -2.45457e-05)
(0.180423 -0.00504455 -2.41355e-05)
(0.182263 -0.00434789 -2.12954e-05)
(0.183902 -0.00360313 -3.1613e-05)
(0.11693 -0.036408 -0.000164234)
(0.126284 -0.0332148 -0.000146346)
(0.134582 -0.0299557 -0.000131962)
(0.141941 -0.0267887 -0.000120054)
(0.148455 -0.023805 -0.000109672)
(0.154215 -0.0210564 -0.000100227)
(0.1593 -0.018568 -9.17103e-05)
(0.163791 -0.0163414 -8.37076e-05)
(0.167743 -0.0143648 -7.67048e-05)
(0.171226 -0.0126128 -7.00115e-05)
(0.17427 -0.0110599 -6.44057e-05)
(0.176951 -0.00967306 -5.86277e-05)
(0.179262 -0.00843081 -5.38742e-05)
(0.181313 -0.00729856 -4.93769e-05)
(0.183042 -0.00629085 -4.24187e-05)
(0.184544 -0.00528573 -4.76342e-05)
(0.129634 -0.0437596 -0.000494339)
(0.13756 -0.0399792 -0.000401642)
(0.144411 -0.0361659 -0.000330815)
(0.150383 -0.0324409 -0.000277058)
(0.155639 -0.0289047 -0.000236566)
(0.160302 -0.0256273 -0.000205449)
(0.164448 -0.0226427 -0.000180886)
(0.168139 -0.0199564 -0.000160534)
(0.171419 -0.0175575 -0.000143438)
(0.174336 -0.0154201 -0.000128199)
(0.176908 -0.0135168 -0.000114978)
(0.179191 -0.0118129 -0.000102415)
(0.181171 -0.0102847 -9.12629e-05)
(0.182933 -0.00889902 -8.11588e-05)
(0.184435 -0.0076577 -6.90342e-05)
(0.185719 -0.00648619 -6.76829e-05)
(0.146098 -0.0438993 -0.000952483)
(0.152592 -0.0403026 -0.000751279)
(0.157934 -0.0367252 -0.000601563)
(0.162368 -0.0332336 -0.000490234)
(0.166105 -0.0298787 -0.00040712)
(0.169312 -0.0267006 -0.000344384)
(0.172122 -0.0237376 -0.000296266)
(0.174625 -0.0210152 -0.000257824)
(0.176864 -0.018544 -0.000226106)
(0.178883 -0.016315 -0.000198564)
(0.18069 -0.0143124 -0.000174697)
(0.182325 -0.0125108 -0.000153045)
(0.183769 -0.0108902 -0.000133923)
(0.185081 -0.00942514 -0.000117017)
(0.186219 -0.00810615 -9.9272e-05)
(0.187211 -0.0069067 -9.16487e-05)
(0.16117 -0.0368462 -0.00143912)
(0.166685 -0.0340372 -0.00114301)
(0.171034 -0.031224 -0.00091946)
(0.174447 -0.0284529 -0.00074935)
(0.177115 -0.0257655 -0.000618399)
(0.179206 -0.0231959 -0.000516101)
(0.180863 -0.0207726 -0.000435142)
(0.182214 -0.0185142 -0.000370016)
(0.183349 -0.0164346 -0.000317138)
(0.184342 -0.0145354 -0.000273145)
(0.185225 -0.0128097 -0.000236374)
(0.186045 -0.0112416 -0.000204706)
(0.186795 -0.00981785 -0.000177612)
(0.187524 -0.00852199 -0.000154193)
(0.188186 -0.00734499 -0.000131419)
(0.188814 -0.00628867 -0.000118136)
(0.171479 -0.0242421 -0.00183773)
(0.176514 -0.0225225 -0.00148543)
(0.180403 -0.0207401 -0.00120864)
(0.183358 -0.0189452 -0.000989636)
(0.185548 -0.0171874 -0.000814773)
(0.187112 -0.0155086 -0.000674057)
(0.188174 -0.0139382 -0.000560513)
(0.188848 -0.0124907 -0.00046872)
(0.18924 -0.0111667 -0.000394909)
(0.189449 -0.00995781 -0.000335517)
(0.189553 -0.0088519 -0.000287844)
(0.189628 -0.00783452 -0.000248711)
(0.189708 -0.00689568 -0.000216149)
(0.189851 -0.00602523 -0.000188347)
(0.190027 -0.00522161 -0.000162253)
(0.190274 -0.00449283 -0.000143675)
(0.176241 -0.00852263 -0.00208256)
(0.181111 -0.00794273 -0.00169682)
(0.184829 -0.00731653 -0.00138461)
(0.187615 -0.00667013 -0.00113244)
(0.189642 -0.00602964 -0.00092854)
(0.191044 -0.00541745 -0.000763519)
(0.19193 -0.00484976 -0.000630258)
(0.192396 -0.00433525 -0.000523193)
(0.192529 -0.00387562 -0.000437977)
(0.192422 -0.00346532 -0.000370652)
(0.192164 -0.00309616 -0.00031773)
(0.191849 -0.00275931 -0.000275556)
(0.191544 -0.00244815 -0.00024102)
(0.191325 -0.00215669 -0.000211672)
(0.191193 -0.00188422 -0.000184419)
(0.191186 -0.00163277 -0.000161828)
(0.223667 0.0309186 -0.000136159)
(0.224345 0.0283683 -0.000137995)
(0.225181 0.0260832 -0.000109903)
(0.226085 0.0240165 -7.93429e-05)
(0.226862 0.022054 -5.89029e-05)
(0.227405 0.0201247 -4.48575e-05)
(0.227767 0.0182285 -3.47412e-05)
(0.22804 0.0164056 -2.7764e-05)
(0.228155 0.0146792 -2.49423e-05)
(0.22796 0.0130955 -2.60608e-05)
(0.227651 0.0116927 -2.54114e-05)
(0.227328 0.0104059 -2.46291e-05)
(0.221708 0.0317705 -8.71217e-05)
(0.222628 0.0291389 -7.13502e-05)
(0.223648 0.0267501 -5.30496e-05)
(0.224716 0.02458 -3.9047e-05)
(0.2257 0.0225488 -3.04617e-05)
(0.226454 0.0205775 -2.39537e-05)
(0.226943 0.0186477 -1.75714e-05)
(0.227274 0.0168035 -1.14619e-05)
(0.227548 0.0150786 -6.23261e-06)
(0.227654 0.0134811 -4.59224e-06)
(0.227579 0.0120291 -3.5635e-06)
(0.227328 0.010655 -5.82146e-06)
(0.218188 0.0351358 -8.67858e-06)
(0.219237 0.0321991 -5.21329e-06)
(0.220371 0.0294913 -6.09522e-07)
(0.221563 0.0270151 2.43157e-06)
(0.222799 0.0247606 4.38368e-06)
(0.224006 0.0226753 5.52289e-06)
(0.225051 0.0206854 6.37503e-06)
(0.225813 0.0187467 7.9579e-06)
(0.226295 0.0168797 9.91186e-06)
(0.226649 0.0151315 1.30279e-05)
(0.226903 0.013526 1.44438e-05)
(0.227073 0.0120738 1.39481e-05)
(0.227062 0.0107275 8.2332e-06)
(0.214951 0.0351903 5.90206e-05)
(0.216353 0.0322029 4.9034e-05)
(0.217742 0.0294434 3.98726e-05)
(0.219131 0.0269105 3.23863e-05)
(0.220541 0.0245998 2.72534e-05)
(0.221948 0.0224779 2.39399e-05)
(0.223269 0.0204865 2.13972e-05)
(0.224378 0.0185719 1.97506e-05)
(0.225169 0.0167242 1.8162e-05)
(0.225713 0.0149778 1.78815e-05)
(0.226079 0.0133664 1.77751e-05)
(0.226382 0.0119206 1.678e-05)
(0.226589 0.010608 9.39848e-06)
(0.211246 0.0348184 0.000117608)
(0.213092 0.0318099 9.37544e-05)
(0.214836 0.0290309 7.37661e-05)
(0.216497 0.0264759 5.8294e-05)
(0.218114 0.0241399 4.7306e-05)
(0.219704 0.0220005 3.98548e-05)
(0.221237 0.0200155 3.44983e-05)
(0.222643 0.0181389 3.06467e-05)
(0.223795 0.016344 2.70288e-05)
(0.224669 0.0146427 2.41429e-05)
(0.225268 0.0130539 2.19821e-05)
(0.225704 0.0116224 1.97972e-05)
(0.226057 0.0103472 8.44123e-06)
(0.204393 0.0370813 0.000216882)
(0.206937 0.0338393 0.000174595)
(0.209332 0.0308565 0.000139129)
(0.211556 0.0281097 0.000110019)
(0.213612 0.025585 8.69498e-05)
(0.215531 0.0232725 6.97307e-05)
(0.217345 0.0211529 5.73207e-05)
(0.219064 0.019196 4.85019e-05)
(0.220682 0.0173692 4.22204e-05)
(0.222119 0.0156454 3.70262e-05)
(0.223338 0.0140252 3.23666e-05)
(0.224277 0.0125061 2.84661e-05)
(0.22497 0.0111229 2.50885e-05)
(0.225515 0.0099069 9.6001e-06)
(0.198786 0.0352829 0.000283485)
(0.202004 0.0321091 0.000228882)
(0.205032 0.0292123 0.000183721)
(0.207841 0.0265617 0.00014674)
(0.210414 0.0241335 0.000116719)
(0.212762 0.0219095 9.34032e-05)
(0.214908 0.0198684 7.56573e-05)
(0.216869 0.0179838 6.25582e-05)
(0.218681 0.0162343 5.30472e-05)
(0.220318 0.0145992 4.58089e-05)
(0.221784 0.0130815 3.95714e-05)
(0.223034 0.0116684 3.43213e-05)
(0.224034 0.0103797 3.04265e-05)
(0.224865 0.009254 1.17495e-05)
(0.192533 0.0325155 0.000345904)
(0.196501 0.0294866 0.000280521)
(0.200224 0.0267497 0.000226565)
(0.203682 0.0242676 0.000182485)
(0.206857 0.0220092 0.000146439)
(0.209739 0.0199474 0.000117746)
(0.212342 0.0180576 9.52042e-05)
(0.214662 0.0163112 7.7711e-05)
(0.216743 0.0146913 6.44759e-05)
(0.218587 0.0131814 5.44933e-05)
(0.22023 0.0117905 4.6224e-05)
(0.221693 0.0105073 3.94941e-05)
(0.222921 0.00934699 3.5131e-05)
(0.224037 0.00835789 1.28257e-05)
(0.180615 0.0317042 0.000491594)
(0.185734 0.0285799 0.000400669)
(0.190538 0.0258008 0.000325902)
(0.19502 0.0233199 0.000264309)
(0.199166 0.021094 0.000213997)
(0.202981 0.0190882 0.000173007)
(0.206449 0.0172694 0.000139972)
(0.209584 0.0156111 0.000113674)
(0.212369 0.0140824 9.26576e-05)
(0.214826 0.0126655 7.59874e-05)
(0.216971 0.0113444 6.31884e-05)
(0.218827 0.0101278 5.245e-05)
(0.220469 0.009011 4.39689e-05)
(0.221848 0.0080024 3.89307e-05)
(0.223151 0.00719415 1.30145e-05)
(0.172371 0.0259917 0.000539174)
(0.17856 0.0232614 0.000439822)
(0.184299 0.0208722 0.000357958)
(0.189604 0.0187733 0.000290725)
(0.19448 0.0169165 0.000235825)
(0.198948 0.0152644 0.000191321)
(0.20301 0.0137816 0.000155432)
(0.206686 0.0124414 0.000126717)
(0.209968 0.011215 0.000103717)
(0.212865 0.0100832 8.48214e-05)
(0.215393 0.00902982 7.00512e-05)
(0.217555 0.0080571 5.72636e-05)
(0.219435 0.00716657 4.7051e-05)
(0.220989 0.00634871 4.12966e-05)
(0.222416 0.00575124 1.334e-05)
(0.163999 0.0185008 0.000552814)
(0.171351 0.0163605 0.000450396)
(0.1781 0.0145394 0.000365832)
(0.184278 0.0129823 0.000296556)
(0.18991 0.0116377 0.000240193)
(0.195033 0.010466 0.000194769)
(0.199669 0.0094316 0.000158385)
(0.203851 0.00850911 0.00012931)
(0.207593 0.00767408 0.000106277)
(0.21091 0.00690958 8.7145e-05)
(0.213823 0.00620152 7.20379e-05)
(0.216331 0.00554647 5.86366e-05)
(0.218509 0.00494975 4.74946e-05)
(0.220312 0.00438478 4.14172e-05)
(0.2219 0.00402528 1.35427e-05)
(0.156182 0.00907079 0.000514481)
(0.16471 0.00775708 0.000417017)
(0.172474 0.00671961 0.000336322)
(0.179519 0.00589712 0.000270489)
(0.185885 0.00523517 0.000217361)
(0.191628 0.00469374 0.000175068)
(0.196787 0.004238 0.000141731)
(0.201409 0.00384503 0.000115424)
(0.205531 0.00349552 9.49748e-05)
(0.209183 0.00317745 7.81027e-05)
(0.212406 0.00288291 6.48259e-05)
(0.215204 0.00260819 5.28319e-05)
(0.217655 0.00236206 4.24019e-05)
(0.219713 0.00211344 3.71241e-05)
(0.221505 0.00203124 1.0639e-05)
(0.139585 -0.00166756 0.000492138)
(0.15009 -0.00221832 0.000398084)
(0.159645 -0.00245476 0.000317948)
(0.168282 -0.0024783 0.000251472)
(0.176061 -0.00236061 0.000197792)
(0.183037 -0.00216071 0.000155261)
(0.18928 -0.00191856 0.000122282)
(0.194847 -0.00166556 9.72024e-05)
(0.199797 -0.00142089 7.80075e-05)
(0.204185 -0.00119597 6.37076e-05)
(0.208055 -0.000996558 5.20489e-05)
(0.211467 -0.000820648 4.31832e-05)
(0.214435 -0.000666929 3.4941e-05)
(0.21705 -0.000520064 2.73838e-05)
(0.219271 -0.000408087 2.47089e-05)
(0.221215 -0.000168356 3.29024e-07)
(0.136263 -0.0154894 0.000205819)
(0.147503 -0.0147183 0.000158099)
(0.157659 -0.0136873 0.000117203)
(0.166782 -0.0125221 8.38537e-05)
(0.174947 -0.01131 5.77933e-05)
(0.182228 -0.0101155 3.83539e-05)
(0.188704 -0.00898033 2.44607e-05)
(0.194448 -0.00793015 1.52778e-05)
(0.199526 -0.00697816 9.1618e-06)
(0.204007 -0.00612454 5.75348e-06)
(0.20794 -0.00536556 3.09868e-06)
(0.211397 -0.00468672 1.80601e-06)
(0.214398 -0.00407877 1.55624e-09)
(0.217039 -0.00351575 -2.23676e-06)
(0.219293 -0.00302288 2.30636e-08)
(0.221251 -0.00243943 -1.9714e-05)
(0.139423 -0.0286741 -0.000342262)
(0.15051 -0.0266147 -0.000290104)
(0.16047 -0.0243598 -0.000246232)
(0.169374 -0.0220547 -0.000210104)
(0.17731 -0.0197977 -0.000180234)
(0.184365 -0.0176549 -0.000155269)
(0.190624 -0.0156683 -0.000134373)
(0.196169 -0.0138586 -0.000116245)
(0.201065 -0.0122321 -0.000100867)
(0.205382 -0.0107787 -8.71109e-05)
(0.209168 -0.0094842 -7.57671e-05)
(0.21249 -0.00832266 -6.53938e-05)
(0.21537 -0.00727724 -5.70918e-05)
(0.217895 -0.00631396 -5.06708e-05)
(0.220056 -0.00545205 -4.04741e-05)
(0.221896 -0.00455374 -5.07719e-05)
(0.150071 -0.0373992 -0.00120536)
(0.160086 -0.0346202 -0.000983397)
(0.168958 -0.031698 -0.000799349)
(0.176829 -0.0287594 -0.00065067)
(0.183811 -0.0258981 -0.000533047)
(0.190007 -0.0231814 -0.000440575)
(0.195502 -0.0206529 -0.000367732)
(0.200377 -0.0183348 -0.000309453)
(0.204692 -0.0162347 -0.000262489)
(0.208508 -0.0143425 -0.000223381)
(0.211864 -0.012643 -0.000191028)
(0.214816 -0.0111084 -0.000162949)
(0.217379 -0.00971976 -0.00013916)
(0.219626 -0.00844488 -0.000119378)
(0.221557 -0.00729077 -9.75949e-05)
(0.223178 -0.00617135 -9.44804e-05)
(0.165039 -0.0386993 -0.00221352)
(0.173795 -0.035936 -0.00180346)
(0.181374 -0.0331114 -0.00147015)
(0.187945 -0.0302907 -0.00120062)
(0.193662 -0.027524 -0.000984528)
(0.198657 -0.0248537 -0.00081239)
(0.203036 -0.0223195 -0.00067548)
(0.206887 -0.0199505 -0.000565177)
(0.210277 -0.0177656 -0.000475357)
(0.213268 -0.0157659 -0.000400645)
(0.215896 -0.0139456 -0.000338506)
(0.218213 -0.0122855 -0.000285655)
(0.220233 -0.0107711 -0.000241057)
(0.222014 -0.009379 -0.000203882)
(0.223556 -0.00810587 -0.000167958)
(0.224864 -0.00692048 -0.000150529)
(0.178853 -0.0327927 -0.00312282)
(0.186617 -0.0305975 -0.00257509)
(0.193256 -0.028344 -0.00213295)
(0.198933 -0.0260798 -0.00177212)
(0.203774 -0.0238475 -0.00147453)
(0.207886 -0.0216821 -0.00122734)
(0.21137 -0.019613 -0.00102207)
(0.214319 -0.0176642 -0.000851641)
(0.216813 -0.0158519 -0.000710686)
(0.218928 -0.014178 -0.000593677)
(0.220725 -0.0126375 -0.000497128)
(0.22227 -0.0112144 -0.000416854)
(0.223597 -0.00989699 -0.000350453)
(0.224773 -0.00866977 -0.00029569)
(0.225798 -0.00752849 -0.000246042)
(0.226702 -0.00647738 -0.000215019)
(0.187917 -0.0215536 -0.00378262)
(0.195098 -0.020217 -0.00316697)
(0.201228 -0.0187808 -0.00265825)
(0.20647 -0.0172956 -0.00223279)
(0.210933 -0.0158129 -0.00187324)
(0.214695 -0.0143792 -0.00156743)
(0.217818 -0.0130293 -0.00130751)
(0.22036 -0.0117832 -0.00108781)
(0.222385 -0.0106467 -0.000904366)
(0.223961 -0.0096117 -0.000752784)