/*--------------------------------*- C++ -*----------------------------------*\
  =========                 |
  \\      /  F ield         | OpenFOAM: The Open Source CFD Toolbox
   \\    /   O peration     | Website:  https://openfoam.org
    \\  /    A nd           | Version:  6
     \\/     M anipulation  |
\*---------------------------------------------------------------------------*/
FoamFile
{
    version     2.0;
    format      ascii;
    class       volScalarField;
    location    "50";
    object      yPlus;
}
// * * * * * * * * * * * * * * * * * * * * * * * * * * * * * * * * * * * * * //

dimensions      [0 0 0 0 0 0 0];

internalField   uniform 0;

boundaryField
{
    inlet
    {
        type            calculated;
        value           uniform 0;
    }
    outlet
    {
        type            calculated;
        value           uniform 0;
    }
    roughCylinder
    {
        type            calculated;
        value           nonuniform List<scalar> 
5120
(
43.4522
51.2728
57.5022
63.63
68.92
73.2107
76.6486
79.4276
81.703
83.6091
85.2651
86.7479
88.0946
89.3391
90.5127
91.6457
92.7689
93.9105
95.0938
96.3364
97.6476
99.0299
100.48
101.992
103.554
105.154
106.776
108.397
109.979
111.453
112.666
113.386
42.7303
50.2676
56.2984
62.2864
67.5037
71.7602
75.1808
77.9521
80.2275
82.1397
83.804
85.2903
86.6286
87.8598
89.0159
90.128
91.2279
92.3445
93.5023
94.7178
96.0003
97.3526
98.7717
100.25
101.777
103.341
104.926
106.51
108.053
109.493
110.675
111.377
41.9459
49.2331
55.0755
60.923
66.066
70.2902
73.6985
76.4702
78.756
80.6846
82.3634
83.8557
85.1907
86.4109
87.5502
88.6425
89.7205
90.8139
91.9459
93.1345
94.3892
95.7121
97.0999
98.5457
100.039
101.568
103.116
104.662
106.168
107.572
108.724
109.407
41.1225
48.1761
53.8316
59.5364
64.6063
68.8039
72.208
74.9887
77.2939
79.2466
80.9441
82.4446
83.7808
84.9923
86.1196
87.1956
88.2537
89.3245
90.4336
91.5973
92.8249
94.1192
95.4768
96.8907
98.3502
99.8434
101.354
102.863
104.332
105.702
106.824
107.488
40.2654
47.0941
52.5596
58.116
63.112
67.2884
70.6979
73.4992
75.8353
77.8203
79.5429
81.0582
82.4015
83.6113
84.7279
85.7885
86.8288
87.8804
88.9665
90.1057
91.3079
92.5749
93.9033
95.286
96.7132
98.173
99.6486
101.122
102.553
103.889
104.981
105.628
39.3805
45.9889
51.2595
56.6628
61.5874
65.753
69.1804
72.012
74.3845
76.4054
78.1552
79.687
81.0403
82.2533
83.3659
84.4176
85.4439
86.4767
87.544
88.662
89.8398
91.0806
92.3812
93.7337
95.1285
96.554
97.9935
99.4309
100.827
102.129
103.193
103.822
38.4592
44.8501
49.9169
55.1566
60.0056
64.1648
67.6204
70.4955
72.9176
74.984
76.7702
78.3297
79.702
80.927
82.0403
83.0842
84.0985
85.1181
86.1662
87.2627
88.4183
89.6345
90.908
92.2319
93.5962
94.9896
96.3964
97.7981
99.1591
100.428
101.463
102.074
37.5061
43.6784
48.5319
53.5989
58.3735
62.5405
66.0434
68.9752
71.4514
73.5667
75.3917
76.978
78.3713
79.61
80.7339
81.78
82.7896
83.7965
84.8311
85.9112
87.0458
88.2386
89.4865
90.7823
92.1155
93.4754
94.8464
96.2143
97.5404
98.7782
99.7852
100.379
36.491
42.4454
47.0725
51.9491
56.6375
60.8118
64.3713
67.3769
69.9295
72.1111
73.9899
75.6231
77.0517
78.3176
79.4549
80.507
81.5136
82.516
83.5375
84.5999
85.7158
86.8869
88.1101
89.3787
90.6835
92.013
93.3526
94.6854
95.9772
97.1829
98.1621
98.7383
35.4263
41.1558
45.5441
50.2128
54.8089
59.0059
62.6517
65.7545
68.3904
70.6444
72.5835
74.2585
75.7231
77.0155
78.1777
79.2454
80.2622
81.2624
82.2778
83.3305
84.4297
85.5802
86.78
88.022
89.2961
90.5926
91.8951
93.1938
94.4516
95.6267
96.578
97.1364
34.2265
39.7408
43.8781
48.3152
52.7959
57.0054
60.7429
63.9682
66.7315
69.0917
71.1133
72.8652
74.3879
75.7282
76.9187
78.0054
79.0289
80.0353
81.0465
82.0866
83.1716
84.3038
85.4805
86.6962
87.9421
89.2083
90.4799
91.7449
92.9672
94.1114
95.0354
95.5758
32.927
38.2294
42.0968
46.2703
50.6107
54.8416
58.7159
62.107
65.0073
67.4868
69.6144
71.4344
73.0169
74.4013
75.636
76.7555
77.8062
78.8199
79.8333
80.8725
81.946
83.0609
84.2165
85.4065
86.6218
87.8544
89.0878
90.3166
91.5055
92.6192
93.5142
94.0367
31.3883
36.4909
40.0703
43.9444
48.1038
52.326
56.3278
59.9242
63.0606
65.7306
67.9894
69.9371
71.6121
73.076
74.36
75.5158
76.5836
77.6169
78.6367
79.6682
80.7324
81.8326
82.9673
84.1323
85.32
86.5219
87.7245
88.9213
90.0725
91.1567
92.0242
92.5286
29.6643
34.578
37.8505
41.3684
45.2782
49.4742
53.6749
57.5523
60.9152
63.7997
66.2693
68.3429
70.1276
71.6637
73.0198
74.2316
75.3518
76.4056
77.4374
78.4796
79.5392
80.626
81.7418
82.882
84.0384
85.2056
86.3677
87.5233
88.6421
89.6955
90.5316
91.0166
27.4571
32.2112
35.1568
38.2659
41.8621
45.9584
50.2728
54.4914
58.357
61.6295
64.3249
66.6253
68.5565
70.2278
71.6688
72.9436
74.0928
75.1846
76.2382
77.2783
78.3341
79.4107
80.5082
81.6241
82.7526
83.8881
85.0178
86.1448
87.2217
88.2442
89.0544
89.5209
24.8057
29.4682
32.1125
34.7434
37.8425
41.7376
46.3787
51.0702
55.2431
58.9306
62.101
64.6615
66.8298
68.6315
70.19
71.5552
72.7958
73.9264
75.0043
76.0712
77.1317
78.1998
79.2803
80.3716
81.4669
82.565
83.6502
84.7278
85.7704
86.7647
87.5361
87.9795
20.9437
25.6633
27.9361
29.963
32.5343
36.1332
40.4442
45.7239
51.289
55.865
59.4523
62.4872
64.8961
66.9462
68.6616
70.1397
71.4262
72.623
73.7455
74.8177
75.8809
76.9438
78.0086
79.0756
80.1417
81.2051
82.255
83.3073
84.3042
85.2608
86.0096
86.4362
15.6357
20.7137
23.2595
24.9395
26.1177
28.1333
34.1876
40.4716
45.5937
51.1266
56.0509
59.6591
62.6592
64.9756
66.9031
68.5312
69.9777
71.2389
72.4021
73.5244
74.6061
75.6666
76.7156
77.757
78.7856
79.8066
80.8031
81.7934
82.7485
83.684
84.3813
84.7755
7.34019
11.4794
11.8508
11.6829
13.0649
16.0304
16.9107
24.3636
38.6063
46.387
51.5521
56.4438
59.8816
62.742
64.9883
66.8397
68.3628
69.7449
70.9926
72.1302
73.2224
74.284
75.3204
76.3359
77.3318
78.3117
79.2692
80.2367
81.1407
82.0271
82.7046
83.087
7.64628
10.1289
10.5701
10.4641
7.35619
8.02597
16.2433
19.2765
22.8006
31.2955
45.2958
51.3765
56.5446
59.9641
62.6611
64.7867
66.6126
68.0996
69.4103
70.6376
71.7713
72.8393
73.8597
74.8459
75.7955
76.7236
77.609
78.4928
79.3417
80.2146
80.8217
81.1579
12.1315
16.5011
17.8448
18.5897
19.4581
17.9944
12.6895
23.7245
28.9044
29.2856
31.4127
45.5817
51.4771
56.4639
59.864
62.5001
64.4714
66.2036
67.6873
68.9461
70.0994
71.1779
72.1894
73.1458
74.055
74.9287
75.7704
76.6394
77.4166
78.2362
78.8238
79.1434
19.9587
24.4325
26.3207
27.0438
26.6004
25.2256
22.7394
23.853
29.0663
28.509
30.157
32.4195
45.7911
51.6669
56.3136
59.4973
62.1137
64.0292
65.6052
67.0355
68.2815
69.3806
70.3737
71.2911
72.1357
72.9383
73.6671
74.3982
75.1126
75.9055
76.3921
76.6669
21.9991
26.9816
29.6885
31.6861
32.8572
33.0468
31.9696
29.136
26.2706
20.0693
29.3601
30.6378
33.388
45.2258
51.1939
55.8478
58.789
61.2644
63.2423
64.7334
66.0015
67.1305
68.1189
68.9977
69.7863
70.5032
71.1878
71.9438
72.5033
73.2956
73.7541
73.9518
22.7279
27.8198
30.7477
33.1089
34.8674
36.0025
36.4496
35.9912
34.0194
29.466
23.3431
23.8817
27.3852
32.008
44.93
50.5638
55.145
57.9643
60.0561
61.9204
63.4232
64.6004
65.5622
66.3755
67.0556
67.659
68.1224
68.585
69.1111
69.7805
70.0785
70.3091
22.1636
27.3928
30.4832
33.0739
35.1248
36.6266
37.5839
37.9935
37.7717
36.4896
32.8121
27.2697
18.6354
12.8747
31.4741
43.7074
48.9029
53.1925
56.3672
58.3139
59.776
61.0281
61.988
62.7377
63.3414
63.7621
64.2582
64.8757
64.979
65.9092
66.1425
66.0568
20.6912
26.0534
29.2337
31.9538
34.1871
35.9337
37.2176
38.0816
38.5696
38.6486
37.9155
34.8865
28.3755
16.9904
11.8537
30.9699
42.781
47.4624
50.4506
53.407
55.5956
56.9427
57.8396
58.4415
58.7894
58.9997
58.8567
58.7472
59.0513
59.3901
59.3238
59.6298
18.7187
24.1649
27.3626
30.1207
32.4331
34.3161
35.8003
36.9463
37.8416
38.5646
39.0732
38.8606
36.3316
28.196
21.3091
14.4451
26.9025
37.1579
44.3082
46.9293
48.3816
49.9466
50.8086
51.2602
51.7325
51.295
52.3973
52.4209
51.8628
53.3295
53.0047
52.2781
16.4818
21.8986
25.0123
27.7062
30.0028
31.9426
33.5708
34.9467
36.1575
37.2899
38.3687
39.207
39.0845
35.9083
32.9029
24.5507
30.3516
29.4802
29.1802
36.7827
41.3869
42.983
43.634
43.5053
42.7752
41.2785
38.2866
38.3121
39.613
38.6557
37.6185
36.2626
14.2455
19.4953
22.4238
24.9554
27.1457
29.0575
30.7525
32.2974
33.7708
35.2565
36.7895
38.2701
39.3417
39.0945
35.5735
25.8935
33.5949
34.659
28.299
18.273
16.0373
21.4084
21.0791
18.6612
24.3731
17.4172
37.4868
27.0903
43.5003
27.1745
21.6126
36.3975
12.2924
17.2583
19.9301
22.2312
24.2498
26.0669
27.7544
29.3809
31.0149
32.723
34.5532
36.4608
38.2341
39.3908
38.8991
35.8544
29.473
34.1029
22.2921
27.0428
19.352
29.049
30.1767
28.5861
31.2581
3.37216
39.4464
27.2948
45.0868
34.1991
32.0713
37.4962
10.7904
15.4086
17.811
19.8674
21.6943
23.3853
25.0155
26.6475
28.3359
30.129
32.0726
34.1722
36.3299
38.2466
39.3736
39.2567
35.4692
30.6882
28.7144
31.0972
21.0192
20.899
22.7908
20.8038
35.0009
27.7648
36.3183
30.5692
42.5113
41.0048
32.0913
30.3952
9.68894
14.0647
16.2409
18.0941
19.7624
21.3418
22.9003
24.4858
26.1361
27.8862
29.777
31.845
34.0858
36.37
38.3513
39.5826
39.1384
38.0158
35.3607
32.4632
31.1703
29.9153
31.7861
34.0354
33.9231
38.8733
37.2981
39.296
36.3872
36.2895
37.6507
39.5791
9.10754
13.2975
15.3174
17.0412
18.6155
20.1269
21.626
23.1418
24.6964
26.3165
28.0402
29.9168
31.9905
34.2534
36.5632
38.5925
39.7431
40.3274
39.8205
39.1645
39.3985
39.2762
40.4589
41.8232
41.3116
43.9749
43.0685
43.3146
42.1977
39.64
42.2239
43.1241
8.94529
13.0513
15.0045
16.6841
18.2345
19.7264
21.1905
22.6389
24.0826
25.5438
27.0586
28.6759
30.4535
32.4412
34.6345
36.9019
38.8844
40.4149
41.0583
41.3843
41.7846
41.9787
42.6832
43.3194
42.9907
44.3167
43.7455
43.5366
43.3502
41.251
43.1192
43.4121
9.12763
13.2268
15.1859
16.89
18.4718
19.9831
21.4374
22.8361
24.1859
25.5062
26.8289
28.1965
29.6615
31.2849
33.1213
35.1728
37.2995
39.2964
40.725
41.6775
42.2864
42.5694
42.9905
43.1292
42.8683
43.352
42.7629
42.5683
42.5048
41.1323
42.5695
42.6217
9.55929
13.7017
15.7141
17.4883
19.1376
20.6966
22.1662
23.5418
24.8286
26.0455
27.2215
28.3916
29.597
30.8887
32.3268
33.9647
35.7969
37.7279
39.4501
40.8071
41.6926
42.1019
42.3327
42.1428
41.8047
41.6777
40.9117
40.8104
40.6765
39.9569
41.0355
41.0774
10.1885
14.4033
16.4919
18.3557
20.0872
21.7054
23.2038
24.5765
25.8305
26.9856
28.0681
29.1061
30.1288
31.1719
32.2827
33.5158
34.9128
36.4671
38.0327
39.4317
40.4459
40.9524
41.0953
40.7375
40.2868
39.7825
38.9176
38.8836
38.6868
38.4347
39.2777
39.4341
10.9639
15.2786
17.4555
19.4148
21.2292
22.9067
24.4378
25.8187
27.0609
28.1867
29.2208
30.1855
31.0994
31.9836
32.868
33.794
34.8053
35.9286
37.1207
38.2736
39.1889
39.6851
39.7753
39.3666
38.8333
38.1497
37.3087
37.2868
37.0988
37.1781
37.8738
38.1705
11.7958
16.2795
18.5528
20.6069
22.4997
24.2326
25.7965
27.1925
28.4376
29.557
30.5747
31.5089
32.3701
33.1686
33.9199
34.6484
35.3857
36.161
36.9741
37.7777
38.4446
38.8116
38.8249
38.4008
37.8206
37.0834
36.329
36.2912
36.1775
36.4692
37.1087
37.5236
12.7687
17.3746
19.7421
21.8871
23.8531
25.6375
27.2338
28.6494
29.9072
31.0357
32.0578
32.9887
33.834
34.5967
35.2827
35.9029
36.4744
37.0164
37.54
38.0294
38.4173
38.5908
38.4866
38.0315
37.4183
36.684
36.0252
35.9661
35.9552
36.3792
37.0228
37.5206
10.2854
10.6204
11.2243
11.8502
12.4722
13.0395
13.526
13.9221
14.2506
14.5168
14.7259
14.8881
15.0059
15.0818
15.1203
15.1257
15.1037
15.0609
15.0143
15.0105
15.1388
15.3273
15.5176
15.6909
15.8399
15.9607
16.0518
16.1112
16.1345
16.1215
16.0678
15.9757
15.8336
15.6503
15.4061
15.1217
14.7592
14.3835
13.9107
13.5035
14.9616
15.2049
15.8181
16.4839
17.1297
17.7049
18.208
18.6287
18.9853
19.2822
19.5247
19.7211
19.8739
19.9841
20.0545
20.0875
20.0877
20.0606
20.0225
20.0241
20.1662
20.3699
20.5683
20.7416
20.8832
20.9909
21.064
21.1012
21.1001
21.0618
20.9831
20.8657
20.6998
20.4932
20.2274
19.9228
19.5426
19.1489
18.6561
18.2324
17.3944
17.5762
18.2102
18.8942
19.5624
20.1583
20.6889
21.1448
21.5421
21.8839
22.175
22.4218
22.6266
22.7893
22.9103
22.9904
23.0326
23.0414
23.0317
23.0522
23.1997
23.3982
23.5825
23.734
23.8473
23.9213
23.9563
23.952
23.9084
23.8277
23.7077
23.5502
23.3466
23.1049
22.8066
22.4732
22.0657
21.647
21.1244
20.6751
19.6157
19.7442
20.3908
21.0799
21.7591
22.3695
22.923
23.4101
23.8452
24.2302
24.5688
24.8648
25.1205
25.3348
25.5064
25.6344
25.7204
25.7684
25.7929
25.8398
25.9855
26.1697
26.334
26.4598
26.5419
26.5801
26.5754
26.5291
26.4429
26.3202
26.1591
25.9619
25.7219
25.447
25.1189
24.7601
24.3295
23.8921
23.3472
22.8785
21.6947
21.7644
22.3997
23.0705
23.7411
24.3496
24.9114
25.4154
25.8746
26.2904
26.6657
27.0013
27.2984
27.5546
27.7679
27.9362
28.0598
28.1424
28.1989
28.2707
28.4123
28.5803
28.725
28.8274
28.8824
28.8901
28.852
28.7711
28.6501
28.4928
28.2989
28.072
27.8065
27.5094
27.1631
26.7908
26.3499
25.9072
25.3553
24.8824
23.6557
23.6456
24.2378
24.8646
25.5087
26.1012
26.6593
27.1705
27.6461
28.0846
28.4885
28.8562
29.1872
29.4783
29.7261
29.9281
30.0833
30.1953
30.2784
30.3693
30.5078
30.6619
30.7892
30.8711
30.9024
30.8833
30.8167
30.7059
30.555
30.3684
30.147
29.8956
29.6097
29.2978
28.9427
28.567
28.1272
27.6913
27.1467
26.686
25.4989
25.3853
25.9078
26.4726
27.0813
27.6532
28.2042
28.7194
29.2076
29.6651
30.093
30.488
30.8479
31.1688
31.4461
31.6762
31.8577
31.9935
32.097
32.2012
32.3384
32.4823
32.595
32.6592
32.6695
32.6269
32.5344
32.3968
32.2186
32.0049
31.7583
31.4838
31.1789
30.8522
30.4888
30.1125
29.6784
29.2551
28.7253
28.2884
27.2162
26.9892
27.4297
27.9266
28.4995
29.0512
29.5948
30.113
30.6117
31.0852
31.5333
31.9514
32.3359
32.6816
32.9835
33.2368
33.4393
33.5932
33.7113
33.8244
33.9612
34.0982
34.1998
34.2491
34.2414
34.178
34.0626
33.9007
33.6975
33.459
33.1886
32.892
32.5679
32.2254
31.8517
31.4701
31.0393
30.6274
30.113
29.7041
28.8019
28.4726
28.8329
29.2646
29.8036
30.3356
30.8715
31.3909
31.8968
32.3828
32.8466
33.283
33.687
34.0526
34.3738
34.6451
34.8634
35.0304
35.1581
35.2764
35.4133
35.5458
35.639
35.6764
35.6537
35.5727
35.4376
35.2546
35.0297
34.769
34.4771
34.1601
33.8179
33.4594
33.0742
32.6848
32.2521
31.8466
31.3438
30.9614
30.2562
29.8522
30.1419
30.5144
31.021
31.532
32.058
32.5753
33.0846
33.5783
34.053
34.5024
34.9206
35.3007
35.636
35.9201
36.1496
36.3251
36.4583
36.5792
36.7161
36.8456
36.9325
36.9606
36.9258
36.8304
36.6791
36.4783
36.2349
35.9554
35.645
35.3103
34.952
34.5792
34.1828
33.7848
33.349
32.9451
32.45
32.091
31.5834
31.1375
31.3685
31.6891
32.1636
32.6516
33.1648
33.6761
34.1842
34.6809
35.1613
35.6185
36.0457
36.4353
36.7797
37.0724
37.3088
37.4894
37.6254
37.7468
37.8829
38.0098
38.0915
38.1121
38.0677
37.9606
37.7961
37.5811
37.3225
37.0276
36.7019
36.3524
35.9806
35.5953
35.1893
34.7837
34.3445
33.9419
33.4519
33.1144
32.7896
32.3285
32.5128
32.7898
33.2323
33.6958
34.1939
34.6953
35.1984
35.6936
36.1752
36.6354
37.067
37.4615
37.811
38.1084
38.349
38.5326
38.6703
38.7917
38.9255
39.0484
39.1248
39.1385
39.0857
38.9691
38.7941
38.5676
38.2968
37.9894
37.6512
37.2895
36.9065
36.511
36.0968
35.685
35.2434
34.8424
34.3583
34.0434
33.8787
33.4188
33.5682
33.81
34.2218
34.6614
35.1426
35.6317
36.1269
36.6169
37.0957
37.5552
37.9871
38.3829
38.7342
39.0337
39.2763
39.4622
39.6019
39.7232
39.8528
39.9692
40.0387
40.0453
39.985
39.8603
39.6766
39.4406
39.1601
38.8424
38.4941
38.1222
37.7298
37.3257
36.9048
36.4879
36.0446
35.6462
35.1701
34.8805
34.8526
34.4008
34.5263
34.7404
35.1249
35.5425
36.0069
36.4827
36.968
37.4505
37.9238
38.3792
38.8083
39.2023
39.5526
39.852
40.0956
40.2835
40.4258
40.5475
40.6707
40.7776
40.8382
40.8368
40.7691
40.6372
40.4459
40.2022
39.9135
39.5875
39.2306
38.8501
38.4496
38.0378
37.6107
37.1891
36.7451
36.3504
35.8849
35.6248
35.7128
35.2697
35.3791
35.5721
35.934
36.3331
36.7819
37.2451
37.7198
38.1935
38.6594
39.1086
39.5325
39.9223
40.2697
40.5673
40.8107
41.0004
41.1454
41.267
41.3825
41.4778
41.5275
41.517
41.4415
41.3024
41.1044
40.8539
40.5582
40.2247
39.8602
39.4718
39.0636
38.6443
38.2111
37.7851
37.341
36.9514
36.5003
36.2767
36.461
36.0227
36.1201
36.2974
36.6416
37.0265
37.4621
37.9141
38.3787
38.8432
39.3008
39.7423
40.1594
40.5433
40.886
41.1805
41.4228
41.6134
41.7603
41.8808
41.9877
42.0703
42.1077
42.087
42.0032
41.8569
41.6523
41.3953
41.093
40.7525
40.3805
39.9843
39.5682
39.1412
38.7018
38.2711
37.8274
37.4452
37.0138
36.8382
37.0978
36.6575
36.7431
36.9085
37.2396
37.6138
38.0394
38.4824
38.9381
39.394
39.843
40.2762
40.6855
41.0622
41.3989
41.6891
41.9288
42.1189
42.2661
42.3837
42.4815
42.5511
42.5759
42.5442
42.4514
42.2975
42.0861
41.8226
41.5135
41.1658
40.7863
40.3817
39.9571
39.5218
39.0756
38.6403
38.1982
37.8266
37.4235
37.3143
37.6189
37.1681
37.2397
37.3956
37.7167
38.0838
38.5024
38.9387
39.3873
39.8357
40.2767
40.7015
41.1024
41.4712
41.8009
42.0853
42.3212
42.5091
42.6542
42.7674
42.8557
42.9126
42.9244
42.8816
42.7793
42.6171
42.3984
42.1278
41.8115
41.4561
41.068
40.6544
40.2206
39.7759
39.3225
38.8825
38.4444
38.0865
37.7269
37.7121
38.0149
37.5448
37.5985
37.7452
38.0581
38.4207
38.8347
39.2668
39.7105
40.1529
40.587
41.0041
41.3969
41.7576
42.0796
42.3576
42.5881
42.7719
42.9131
43.0201
43.0986
43.143
43.1422
43.0877
42.9754
42.8045
42.5776
42.299
41.9745
41.6104
41.213
40.7894
40.3452
39.8907
39.4295
38.9856
38.5534
38.2186
37.925
38.0385
38.2728
37.7733
37.8037
37.94
38.2448
38.6045
39.0161
39.4464
39.8874
40.3261
40.7549
41.1657
41.5512
41.9043
42.2188
42.4895
42.7139
42.8922
43.0278
43.1274
43.1957
43.228
43.2147
43.1487
43.0258
42.8454
42.6095
42.3219
41.9883
41.6143
41.2065
40.7717
40.3166
39.8516
39.383
38.9363
38.5152
38.2173
38.0153
38.29
38.3699
37.8334
37.8354
37.9589
38.2554
38.6132
39.0243
39.4551
39.8957
40.3331
40.7591
41.1656
41.5455
41.8922
42.1997
42.4636
42.6814
42.8532
42.982
43.0736
43.1317
43.1522
43.1269
43.0495
42.9159
42.7253
42.4797
42.1825
41.8388
41.4542
41.0351
40.5887
40.1225
39.647
39.1722
38.7236
38.322
38.0764
37.9849
38.4356
38.2673
37.6899
37.664
37.777
38.0671
38.4252
38.8383
39.2724
39.7157
40.1546
40.5805
40.9853
41.3619
41.7039
42.006
42.2639
42.4753
42.6405
42.7622
42.8454
42.8938
42.9034
42.867
42.7787
42.6348
42.4343
42.1788
41.8717
41.5177
41.1225
40.6924
40.2348
39.7575
39.2725
38.7903
38.3449
37.9701
37.7839
37.8027
38.4114
37.9316
37.3114
37.2583
37.3662
37.6603
38.0264
38.4466
38.8884
39.338
39.7818
40.2108
40.6167
40.9926
41.3323
41.6306
41.8837
42.0895
42.2484
42.3633
42.4388
42.4784
42.4789
42.4331
42.3356
42.1828
41.9735
41.7093
41.3934
41.0304
40.626
40.1864
39.7196
39.2335
38.7411
38.2546
37.8164
37.4704
37.3396
37.448
38.1742
37.3968
36.7267
36.6427
36.7443
37.0448
37.4275
37.8633
38.3179
38.7782
39.2304
39.6655
40.0754
40.453
40.7925
41.0887
41.3383
41.5394
41.6927
41.8013
41.8702
41.9031
41.8969
41.8448
41.7411
41.5822
41.3668
41.0966
40.7746
40.4053
39.9944
39.5485
39.0749
38.5825
38.0829
37.5952
37.1654
36.8407
36.7445
36.8983
37.6739
36.7285
36.0154
35.9023
35.9957
36.3
36.6981
37.1533
37.6243
38.0976
38.56
39.0026
39.4176
39.7979
40.1379
40.4328
40.6792
40.8757
41.0234
41.1261
41.1894
41.218
41.2089
41.1548
41.0494
40.8888
40.6719
40.4
40.0762
39.7051
39.2924
38.8446
38.369
37.8749
37.3732
36.8871
36.4651
36.1539
36.0761
36.2468
37.0399
36.0575
35.3242
35.193
35.2778
35.5811
35.9857
36.4521
36.9358
37.4184
37.8883
38.3358
38.7536
39.1346
39.4733
39.765
40.0066
40.1967
40.3372
40.4329
40.4911
40.5178
40.5098
40.4587
40.3569
40.1999
39.9864
39.7179
39.3974
39.0294
38.6197
38.1748
37.702
37.2105
36.7111
36.2285
35.8104
35.5008
35.4185
35.571
36.3342
35.5429
34.8258
34.6962
34.7773
35.0756
35.4772
35.9421
36.4256
36.9076
37.3759
37.8209
38.2346
38.6104
38.9425
39.2262
39.4584
39.6379
39.7671
39.8522
39.9037
39.9303
39.9285
39.8865
39.7945
39.6474
39.4437
39.1849
38.8742
38.5162
38.1165
37.6817
37.2192
36.7381
36.2497
35.777
35.3656
35.0537
34.9562
35.068
35.7641
35.4416
34.7333
34.6009
34.6701
34.9527
35.3363
35.7831
36.2491
36.7164
37.1709
37.6026
38.003
38.3653
38.6833
38.9524
39.1692
39.3324
39.444
39.5124
39.5524
39.5786
39.5861
39.5569
39.4781
39.3437
39.1524
38.906
38.6078
38.2625
37.8758
37.4543
37.0062
36.5407
36.0709
35.6176
35.225
34.9309
34.8501
34.9753
35.6887
35.9
35.1552
34.9949
35.0319
35.2814
35.6293
36.0399
36.4733
36.9123
37.341
37.7487
38.1265
38.4671
38.7642
39.0129
39.2094
39.3521
39.4424
39.4892
39.5134
39.5406
39.5625
39.5506
39.4889
39.3714
39.1974
38.9687
38.6892
38.3635
37.9973
37.5969
37.1707
36.7274
36.281
35.8462
35.4636
35.1657
35.0624
35.1394
35.7766
36.4582
35.772
35.6428
35.6808
35.9152
36.2349
36.6128
37.0145
37.4227
37.8216
38.2008
38.5513
38.8658
39.1382
39.3634
39.5376
39.6583
39.7261
39.7489
39.7516
39.7755
39.8088
39.81
39.7611
39.6565
39.4961
39.2823
39.0187
38.7101
38.362
37.9811
37.5756
37.1548
36.7331
36.3252
35.9668
35.6867
35.5927
35.6628
36.2743
36.957
36.3413
36.258
36.3188
36.5585
36.8709
37.236
37.6213
38.0107
38.3901
38.7491
39.0795
39.3744
39.6281
39.8357
39.9934
40.0985
40.1514
40.1588
40.1473
40.1714
40.2156
40.2288
40.1921
40.1008
39.9553
39.7578
39.5123
39.2232
38.896
38.5371
38.1543
37.7571
37.3592
36.9754
36.6373
36.3692
36.2786
36.3391
36.9392
37.4169
36.7922
36.7107
36.7745
37.0144
37.3235
37.6832
38.0612
38.4421
38.8116
39.1603
39.4799
39.7641
40.0072
40.2047
40.3528
40.4489
40.4933
40.4921
40.4719
40.4927
40.5399
40.5574
40.526
40.4411
40.3031
40.1146
39.8792
39.6016
39.2871
38.9424
38.5753
38.1952
37.8165
37.4539
37.1402
36.894
36.8213
36.8868
37.4803
43.8875
51.7405
57.9985
64.1402
69.4304
73.7139
77.1415
79.9086
82.1716
84.0666
85.7142
87.1859
88.5209
89.7524
90.9108
92.0265
93.13
94.2495
95.4084
96.6238
97.9051
99.2553
100.672
102.149
103.676
105.244
106.837
108.431
109.989
111.441
112.641
113.35
43.2063
50.7797
56.8411
62.8434
68.059
72.3056
75.7134
78.4708
80.7324
82.6325
84.2864
85.7597
87.0839
88.2985
89.4362
90.5285
91.6064
92.6991
93.8299
95.0158
96.2663
97.5843
98.9675
100.409
101.901
103.432
104.986
106.542
108.062
109.479
110.648
111.337
42.4758
49.8027
55.6784
61.5403
66.6794
70.89
74.2816
77.0356
79.3044
81.2183
82.8832
84.3582
85.6737
86.8747
87.9939
89.0637
90.1173
91.1835
92.2867
93.4437
94.6639
95.9504
97.3004
98.7083
100.165
101.658
103.175
104.692
106.175
107.555
108.694
109.364
41.7116
48.8105
54.5029
60.2223
65.2849
69.464
72.8471
75.6072
77.8935
79.8286
81.5085
82.9885
84.3019
85.4902
86.5917
87.6413
88.6716
89.713
90.7896
91.9184
93.1089
94.3642
95.6815
97.0549
98.476
99.9335
101.412
102.892
104.337
105.682
106.791
107.442
40.9334
47.8142
53.3218
58.8944
63.8805
68.033
71.4151
74.1894
76.5001
78.4614
80.1599
81.648
82.9621
84.1409
85.2288
86.2595
87.2687
88.2863
89.3376
90.4395
91.6016
92.827
94.1132
95.4541
96.8406
98.2626
99.7055
101.148
102.556
103.865
104.946
105.578
40.1392
46.8087
52.1271
57.5471
62.4558
66.5876
69.9785
72.7768
75.1195
77.1118
78.8323
80.333
81.6525
82.8293
83.9054
84.9205
85.9101
86.9062
87.9336
89.0096
90.1442
91.3401
92.595
93.9031
95.2561
96.6428
98.0485
99.4554
100.827
102.103
103.153
103.768
39.3393
45.8019
50.9256
56.1862
61.0167
65.1344
68.543
71.3724
73.7513
75.7775
77.5238
79.041
80.3696
81.5485
82.6175
83.6195
84.5925
85.5685
86.5735
87.6255
88.7338
89.9019
91.1274
92.4044
93.7245
95.0772
96.4497
97.8194
99.1561
100.398
101.42
102.016
38.5273
44.7849
49.7051
54.7951
59.5422
63.6497
67.0859
69.9577
72.3824
74.4494
76.2268
77.7663
79.1099
80.2967
81.3654
82.3597
83.3189
84.2777
85.2623
86.2909
87.374
88.5144
89.7101
90.9555
92.2429
93.5619
94.8971
96.2337
97.5349
98.7434
99.7374
100.316
37.7049
43.7592
48.4685
53.3773
58.0368
62.1405
65.616
68.5393
71.0138
73.1248
74.9386
76.5058
77.8692
79.0678
80.141
81.1315
82.081
83.0249
83.9912
84.999
86.058
87.1723
88.3401
89.5562
90.8123
92.0976
93.4009
94.7003
95.9674
97.1424
98.11
98.6684
36.8623
42.7126
47.1987
51.9081
56.4657
60.5632
64.0865
67.0755
69.6168
71.787
73.647
75.25
76.6404
77.8581
78.9418
79.9363
80.8823
81.8149
82.7654
83.7526
84.7885
85.8764
87.0152
88.1997
89.4224
90.6746
91.9405
93.2066
94.4381
95.581
96.5191
97.0599
35.9902
41.6378
45.894
50.389
54.8342
58.9299
62.5173
65.5883
68.2042
70.436
72.3486
73.9945
75.4188
76.6604
77.7599
78.7596
79.7034
80.6291
81.567
82.5373
83.5508
84.6134
85.7241
86.8792
88.0708
89.2887
90.5226
91.7513
92.9491
94.0584
94.9713
95.4909
35.0655
40.5163
44.5309
48.7852
53.089
57.1666
60.8206
63.9914
66.7109
69.0361
71.0223
72.7249
74.1922
75.4671
76.5893
77.6047
78.555
79.4763
80.4031
81.3554
82.3477
83.3847
84.4666
85.5892
86.7463
87.9302
89.1252
90.3208
91.482
92.5596
93.4416
93.9438
34.0736
39.3372
43.1022
47.0957
51.2375
55.2955
59.0387
62.3395
65.179
67.5989
69.6648
71.4334
72.9546
74.27
75.4226
76.4537
77.4089
78.3302
79.2494
80.1888
81.1608
82.1733
83.2274
84.3212
85.4475
86.5957
87.7593
88.9171
90.0449
91.088
91.9451
92.4237
32.9989
38.0804
41.5809
45.2753
49.2018
53.1954
57.0107
60.4579
63.4655
66.045
68.2351
70.0971
71.6867
73.0552
74.2453
75.3069
76.2822
77.2075
78.1207
79.0447
79.997
80.9846
82.0097
83.0692
84.1584
85.2726
86.3944
87.5174
88.6064
89.6159
90.4407
90.9025
31.8053
36.7161
39.9462
43.3152
46.9899
50.904
54.8193
58.4665
61.6754
64.41
66.7316
68.7006
70.3776
71.8116
73.0536
74.1447
75.1324
76.0658
76.9776
77.8931
78.8272
79.7907
80.7872
81.8179
82.8766
83.9521
85.0434
86.1265
87.1821
88.1563
88.9553
89.3891
30.4624
35.2134
38.163
41.1563
44.4877
48.2184
52.1614
56.0029
59.4919
62.5237
65.0713
67.2042
68.9955
70.516
71.8167
72.9577
73.9851
74.9332
75.8455
76.7484
77.6638
78.6022
79.5684
80.5615
81.5787
82.6176
83.6607
84.7087
85.7199
86.6557
87.4206
87.8372
28.8917
33.5054
36.1778
38.7678
41.6985
45.2085
49.2152
53.3477
57.1778
60.4648
63.2478
65.5732
67.5186
69.1489
70.5373
71.7292
72.7774
73.7433
74.6612
75.5599
76.459
77.3726
78.3084
79.2718
80.2574
81.2547
82.2697
83.2704
84.2486
85.1491
85.8833
86.2654
27.023
31.5347
33.9362
36.0704
38.4488
41.4984
45.3298
49.6371
53.9365
57.8536
61.0933
63.7345
65.8877
67.6712
69.1552
70.4267
71.5449
72.5408
73.4667
74.3566
75.2367
76.1238
77.0258
77.9454
78.8822
79.8355
80.7882
81.7577
82.6793
83.5308
84.2306
84.5936
24.6736
29.1473
31.3064
32.9675
34.7127
37.2535
41.0304
45.7705
50.6295
54.8771
58.5701
61.5988
64.0569
66.0405
67.6822
69.0438
70.1933
71.2192
72.16
73.0492
73.914
74.7731
75.6405
76.5285
77.4311
78.3395
79.2714
80.1733
81.0643
81.8809
82.5414
82.8592
21.5954
26.1653
28.1592
29.3548
30.2549
31.622
34.3488
38.8152
44.5598
50.5666
55.2973
59.0126
61.8949
64.1852
65.9985
67.4939
68.7686
69.8499
70.8081
71.6924
72.5362
73.3649
74.1907
75.0231
75.8628
76.7116
77.554
78.4362
79.2477
79.9953
80.6142
80.9117
17.0721
22.1305
24.1529
24.9555
24.845
25.2316
28.2556
34.0888
40.1726
45.4351
51.1558
55.7513
59.3125
62.0024
64.1286
65.7973
67.1183
68.2473
69.2351
70.1222
70.9486
71.7414
72.5248
73.3212
74.1232
74.9207
75.7541
76.5337
77.3138
78.0247
78.6054
78.8298
9.53082
15.6178
18.2562
19.4381
19.107
15.925
7.59358
1.84194
22.0272
37.2651
45.1235
51.4052
55.9541
59.3538
61.822
63.7377
65.3001
66.5338
67.5524
68.4378
69.2384
69.9914
70.7147
71.433
72.1417
72.849
73.5483
74.3149
74.9789
75.5902
76.085
76.2977
6.89056
11.5383
12.4126
13.1643
11.8026
11.4285
19.206
21.6943
24.8125
21.229
36.7918
45.4571
51.7131
55.962
59.1275
61.4029
63.0315
64.3435
65.4191
66.3128
67.0864
67.7853
68.4516
69.1237
69.7904
70.4327
71.1285
71.7632
72.3728
72.926
73.431
73.5021
12.288
16.464
17.4003
16.7412
14.8325
13.2372
12.8949
15.4648
20.9902
19.0575
20.7195
36.9251
45.5259
51.6168
55.469
58.2489
60.3998
61.9213
63.0476
63.9371
64.6735
65.3068
65.8662
66.4142
66.9177
67.395
67.8979
68.4581
68.8927
69.3163
69.5835
69.6657
19.5482
23.9049
25.6229
26.1339
25.4185
23.8999
21.8843
18.4182
17.3932
22.726
21.6031
20.3946
37.2479
45.3409
51.0493
54.5977
56.7679
58.4198
59.6593
60.5636
61.2419
61.7823
62.253
62.7341
63.1837
63.5857
64.0381
64.5674
64.8308
65.1155
65.5592
65.3747
22.4663
27.2004
29.5868
31.1135
31.6615
31.0986
29.3573
26.2834
21.1787
18.3899
21.604
18.7646
25.2052
37.6636
44.1579
48.8475
52.4084
54.5
55.8053
56.6753
57.2845
57.6648
57.9047
58.1372
58.2672
58.2369
58.4845
58.4782
58.453
58.7587
58.418
58.2714
23.7028
28.562
31.194
33.1297
34.3229
34.7418
34.316
32.8459
29.7579
23.6401
15.8719
26.1349
31.2704
24.8812
36.5458
42.8049
45.4199
47.7206
49.2217
50.0317
50.471
50.7578
50.733
50.9667
50.8762
50.9701
50.6861
52.1594
51.2711
51.3892
51.4718
51.5555
24.2082
29.1264
31.8713
33.9803
35.4138
36.1588
36.2142
35.5647
34.0786
31.16
24.9523
14.7467
25.7949
22.2426
17.7295
27.4467
37.2109
40.474
42.202
43.0399
43.3668
42.8317
42.4511
41.9011
41.3467
39.625
40.1008
37.2456
34.2799
38.1783
35.5005
34.6335
24.0416
29.0158
31.8319
34.0597
35.6648
36.6371
36.9892
36.7614
36.007
34.6415
31.9633
26.0245
16.8786
21.6934
7.77881
21.7587
21.5216
26.1629
25.423
21.4218
20.5159
22.0467
19.034
18.4961
14.0081
12.7519
33.3756
23.8915
21.944
41.9081
17.5884
29.7329
23.4545
28.4751
31.3316
33.6416
35.379
36.5358
37.1266
37.2063
36.8921
36.3513
35.5839
33.8598
29.3971
22.3173
20.6928
24.7271
31.9557
33.6564
32.6687
15.3105
21.2442
27.4109
5.55507
22.6488
32.3558
20.1552
33.6623
32.2859
12.6745
41.353
29.9747
40.7777
22.5835
27.6572
30.5454
32.9267
34.7875
36.1213
36.939
37.2807
37.2401
36.9876
36.7599
36.6682
36.2197
34.0122
29.5994
26.1802
31.0057
32.274
31.2263
21.1425
24.6046
31.1705
31.6451
32.5439
30.3816
34.4121
33.0822
38.665
31.9336
30.0023
29.8482
43.3105
21.5364
26.6785
29.6024
32.057
34.0395
35.547
36.5872
37.1902
37.4247
37.4132
37.3336
37.3836
37.684
38.1013
38.001
36.6268
34.5342
33.3325
33.6122
36.3402
34.9723
35.2563
35.9416
36.1896
37.4337
38.8037
39.4123
37.6857
42.7632
38.3601
37.6256
36.2029
20.4355
25.6598
28.6268
31.1593
33.2596
34.9268
36.1624
36.9858
37.4479
37.6437
37.7165
37.8358
38.1432
38.6898
39.4296
40.1342
40.4524
40.6431
41.1346
42.5077
42.0218
42.1519
40.9832
42.1977
42.5627
43.3148
42.7321
41.8038
44.8415
42.3523
41.3109
41.2895
19.3827
24.6756
27.6756
30.2688
32.4595
34.2473
35.6303
36.6141
37.2312
37.5528
37.6962
37.8188
38.0906
38.6315
39.4277
40.3361
41.1905
41.9428
42.6206
43.5144
43.434
43.5641
42.476
43.234
43.2538
43.6269
42.69
42.2916
44.3006
42.6127
42.0747
43.5154
18.2874
23.6124
26.6144
29.2286
31.4616
33.314
34.7828
35.8685
36.5866
36.9893
37.1748
37.2864
37.4934
37.94
38.6805
39.632
40.6156
41.5077
42.264
43.0065
43.1983
43.3742
42.6145