/*--------------------------------*- C++ -*----------------------------------*\
  =========                 |
  \\      /  F ield         | OpenFOAM: The Open Source CFD Toolbox
   \\    /   O peration     | Website:  https://openfoam.org
    \\  /    A nd           | Version:  6
     \\/     M anipulation  |
\*---------------------------------------------------------------------------*/
FoamFile
{
    version     2.0;
    format      ascii;
    class       volScalarField;
    location    "50";
    object      yPlus;
}
// * * * * * * * * * * * * * * * * * * * * * * * * * * * * * * * * * * * * * //

dimensions      [0 0 0 0 0 0 0];

internalField   uniform 0;

boundaryField
{
    inlet
    {
        type            calculated;
        value           uniform 0;
    }
    outlet
    {
        type            calculated;
        value           uniform 0;
    }
    roughCylinder
    {
        type            calculated;
        value           nonuniform List<scalar> 
5120
(
43.5116
51.3324
57.5621
63.6895
68.9795
73.2704
76.7085
79.4873
81.7621
83.6675
85.3233
86.8059
88.1526
89.3975
90.5715
91.7053
92.8292
93.9717
95.156
96.3995
97.7116
99.0947
100.546
102.057
103.62
105.22
106.843
108.464
110.048
111.52
112.739
113.455
42.8068
50.3414
56.3708
62.3568
67.572
71.8266
75.2454
78.0154
80.2899
82.2017
83.866
85.3524
86.6909
87.9221
89.0784
90.1909
91.2913
92.4086
93.5672
94.7835
96.0668
97.4197
98.839
100.318
101.845
103.409
104.994
106.577
108.124
109.56
110.749
111.446
42.0121
49.3
55.143
60.9905
66.1335
70.358
73.7667
76.5383
78.8234
80.7512
82.4292
83.9207
85.2554
86.4757
87.6153
88.7082
89.7869
90.8808
92.0136
93.2029
94.458
95.7813
97.1695
98.6151
100.109
101.637
103.184
104.73
106.238
107.639
108.798
109.477
41.2088
48.2603
53.9153
59.6181
64.6856
68.8803
72.2816
75.06
77.3639
79.316
81.0135
82.5142
83.8506
85.062
86.189
87.2649
88.3232
89.3944
90.504
91.6681
92.8962
94.1906
95.5483
96.9617
98.4206
99.9133
101.425
102.932
104.404
105.769
106.898
107.558
40.3395
47.1694
52.6361
58.1925
63.1885
67.3652
70.7753
73.5769
75.9124
77.896
79.617
81.1308
82.4729
83.6821
84.7989
85.86
86.9009
87.9529
89.0394
90.179
91.3814
92.6483
93.9766
95.3591
96.7857
98.2439
99.7189
101.19
102.626
103.957
105.057
105.698
39.4775
46.0853
51.3562
56.7582
61.68
65.8416
69.2645
72.0923
74.4625
76.4827
78.2326
79.7648
81.1182
82.3308
83.4426
84.4934
85.5194
86.5523
87.6196
88.7377
89.9157
91.1563
92.4563
93.8085
95.2021
96.6257
98.0658
99.5001
100.9
102.197
103.269
103.892
38.5438
44.9365
50.0047
55.2445
60.093
64.2522
67.7088
70.5849
73.0064
75.0707
76.854
78.4104
79.7804
81.0041
82.1172
83.1616
84.1762
85.1959
86.2442
87.3409
88.4962
89.712
90.9849
92.3079
93.671
95.0625
96.4677
97.8676
99.2323
100.496
101.54
102.145
37.6162
43.7896
48.6454
53.7123
58.4843
62.6462
66.142
69.0668
71.5386
73.6526
75.4778
77.0654
78.4589
79.6966
80.8189
81.8628
82.8713
83.8778
84.9121
85.9919
87.1262
88.3185
89.5654
90.8598
92.1911
93.549
94.9203
96.2837
97.6148
98.8454
99.8621
100.449
36.5905
42.547
47.176
52.0522
56.7388
60.9117
64.472
67.4797
70.0327
72.2114
74.0855
75.7126
77.137
78.4012
79.538
80.5908
81.5975
82.5996
83.6207
84.683
85.7983
86.9686
88.1907
89.4576
90.7605
92.0875
93.4252
94.7552
96.052
97.2505
98.2398
98.8094
35.5541
41.2869
45.6805
50.3524
54.9476
59.1391
62.7745
65.8649
68.4914
70.7411
72.68
74.3579
75.8233
77.1134
78.2727
79.3364
80.3508
81.3501
82.3649
83.4165
84.515
85.6647
86.8628
88.1027
89.3744
90.6681
91.9703
93.2637
94.5269
95.6928
96.6569
97.206
34.3475
39.864
44.0033
48.4389
52.9149
57.1194
60.8557
64.0846
66.8505
69.2087
71.2243
72.9657
74.4809
75.8189
77.0084
78.0966
79.1203
80.1258
81.1355
82.1755
83.2594
84.3902
85.5654
86.7786
88.0219
89.2843
90.5549
91.8142
93.0435
94.1785
95.1145
95.6476
33.0832
38.3912
42.2687
46.451
50.7951
55.0221
58.8833
62.2537
65.1346
67.6022
69.7247
71.5487
73.1329
74.5135
75.7444
76.8568
77.9029
78.9149
79.9277
80.9651
82.0373
83.1508
84.3038
85.4909
86.703
87.9311
89.163
90.3857
91.5821
92.6837
93.5965
94.1064
31.5404
36.6443
40.2256
44.0972
48.249
52.4603
56.4543
60.0519
63.1929
65.8635
68.119
70.0523
71.7169
73.1773
74.457
75.6152
76.6843
77.716
78.7327
79.7637
80.8266
81.9247
83.0573
84.2189
85.4027
86.6002
87.8027
88.99
90.1516
91.2224
92.1053
92.6003
29.8741
34.7949
38.084
41.6186
45.5371
49.7308
53.9186
57.7685
61.0987
63.957
66.4072
68.4798
70.2614
71.7901
73.1454
74.3474
75.4589
76.5093
77.541
78.5806
79.6377
80.7226
81.835
82.9708
84.1227
85.283
86.4409
87.5917
88.7214
89.7581
90.6186
91.0873
27.6661
32.4158
35.3622
38.474
42.0745
46.1614
50.4437
54.6394
58.4972
61.7675
64.4677
66.7551
68.6815
70.3521
71.7771
73.052
74.2047
75.2951
76.3433
77.3824
78.4367
79.5105
80.6047
81.7159
82.8391
83.9692
85.1015
86.2122
87.3046
88.3087
89.1385
89.5923
25.1649
29.8283
32.4906
35.1261
38.1804
42.0367
46.7028
51.3967
55.5389
59.1895
62.3096
64.849
66.9888
68.7656
70.3351
71.6918
72.9178
74.0413
75.1198
76.1834
77.2403
78.3052
79.3812
80.4659
81.555
82.6426
83.72
84.794
85.8539
86.8242
87.6291
88.053
21.3648
26.0177
28.2942
30.4046
33.236
36.8914
40.9107
45.9737
51.4351
55.9648
59.5819
62.6189
65.0502
67.1184
68.7929
70.2592
71.5515
72.7488
73.8631
74.9329
75.9948
77.054
78.114
79.1745
80.233
81.29
82.3451
83.3722
84.3917
85.323
86.0988
86.5058
16.9695
22.0052
24.2713
25.5942
25.3523
27.0202
34.3398
40.7613
46.0578
51.6841
56.4374
59.9638
62.8691
65.1114
67.0684
68.6973
70.1216
71.3694
72.5339
73.6529
74.7288
75.7846
76.828
77.8593
78.8788
79.8839
80.8698
81.857
82.8391
83.7387
84.4823
84.8541
8.06379
13.3939
15.1099
16.5663
18.0179
18.2125
17.3488
25.4969
38.7613
45.8352
51.6409
56.6091
60.0977
63.0024
65.1625
66.9755
68.5051
69.892
71.1281
72.2609
73.3524
74.4095
75.4385
76.4445
77.4292
78.4009
79.3632
80.2962
81.238
82.0869
82.8026
83.154
4.81052
8.18024
8.81267
7.31131
11.2003
15.8524
21.3066
23.2887
19.5969
36.4651
45.9412
51.7833
56.8048
60.0956
62.8541
64.9963
66.79
68.253
69.5671
70.792
71.916
72.9762
73.9901
74.9606
75.8958
76.8004
77.6758
78.5541
79.4434
80.2594
80.9371
81.244
10.5634
15.1137
16.6244
18.0505
20.1488
16.5197
10.5622
13.5909
21.2719
15.5414
35.5902
46.681
52.0222
56.9186
60.117
62.6644
64.6397
66.3842
67.8482
69.0978
70.2544
71.328
72.3276
73.2685
74.1611
75.0226
75.8613
76.6875
77.537
78.2926
78.9306
79.2092
19.8927
24.288
26.0925
26.6704
26.0404
24.31
21.0292
14.4644
12.406
0.974151
9.54141
30.2932
45.4949
51.6487
56.525
59.7627
62.3424
64.2193
65.8094
67.2399
68.4638
69.5491
70.5352
71.4275
72.2464
73.0142
73.7372
74.4584
75.2359
75.9365
76.5437
76.761
22.0349
27.0126
29.7109
31.6817
32.8186
33.0597
32.0628
29.4103
24.5769
17.9127
19.2293
22.4062
34.6401
46.5173
51.7422
56.111
59.0129
61.51
63.4392
64.91
66.2014
67.3266
68.2968
69.1458
69.9069
70.6036
71.257
71.9745
72.6755
73.3283
73.8608
74.029
22.9395
28.0117
30.9205
33.2519
34.9758
36.0827
36.5305
36.1272
34.2776
29.5701
23.5436
24.4494
12.0701
30.707
44.8514
50.7593
55.435
58.2192
60.3745
62.2454
63.6801
64.831
65.7847
66.5556
67.1823
67.731
68.1943
68.6426
69.2983
69.8045
70.3238
70.4011
22.3957
27.6082
30.6812
33.2449
35.2608
36.7206
37.6254
37.9591
37.5961
35.9937
31.6001
28.5155
19.1455
24.28
33.5805
44.9251
49.3335
53.6108
56.6062
58.4941
60.0749
61.3297
62.2722
62.9541
63.4893
63.8834
64.2083
64.9161
65.2425
65.8033
66.2492
66.2068
20.8993
26.2441
29.408
32.1046
34.3062
36.0123
37.2458
38.0423
38.4238
38.2946
37.0946
33.2599
25.9525
27.0823
16.2303
27.0332
42.7121
47.7823
51.1529
54.1071
56.0237
57.325
58.2025
58.7276
58.9575
59.075
58.9817
58.8
59.4002
59.4589
59.8226
59.6501
18.9064
24.3445
27.5359
30.2835
32.5777
34.4315
35.8731
36.9588
37.7668
38.3605
38.6719
38.1497
35.8634
32.8333
21.3211
24.8282
27.3937
38.5072
44.5277
46.9196
49.0017
50.5826
51.6108
51.8871
51.7997
51.6625
51.4067
52.928
51.3317
52.1324
53.6185
53.0157
16.6746
22.0972
25.2184
27.9171
30.2105
32.1347
33.7315
35.0585
36.1996
37.2407
38.2209
39.0399
39.2768
37.1965
30.2618
32.9213
29.5046
27.5729
31.3652
37.5095
42.1568
44.0277
44.1957
43.9666
43.6093
41.3434
40.0699
39.4757
39.9864
38.3183
37.3045
36.3126
14.4356
19.7053
22.6538
25.2032
27.4034
29.3129
30.9898
32.4982
33.9171
35.3319
36.7872
38.2264
39.406
39.3816
35.9193
32.9495
31.7959
34.402
33.7317
28.9421
20.6521
24.3236
28.1696
27.765
21.3759
33.7221
37.2744
27.1151
34.7497
11.9123
33.0918
33.344
12.4555
17.4512
20.1513
22.4796
24.5188
26.3463
28.031
29.6391
31.2389
32.9008
34.678
36.5443
38.3228
39.5139
39.0547
34.5299
28.6479
31.4568
30.4042
36.6933
25.9368
18.7943
33.4898
34.3503
21.7337
40.1727
40.4555
36.6671
11.3213
19.2545
38.6177
38.5924
10.9311
15.5789
18.0108
20.0969
21.9492
23.6585
25.2978
26.9279
28.6022
30.371
32.2838
34.3551
36.503
38.427
39.5372
38.9372
35.7292
30.118
29.5622
29.8395
19.546
26.1806
32.6329
34.3758
31.5864
39.1075
40.7955
39.9344
35.7874
31.8199
32.1541
30.0255
9.805
14.2101
16.414
18.2951
19.9883
21.5883
23.1621
24.7568
26.4095
28.1555
30.0364
32.0924
34.3254
36.6059
38.5696
39.658
39.3675
38.139
34.5326
31.8327
29.4067
27.7574
27.4422
30.6003
33.9936
35.0878
34.8422
35.9671
40.4476
40.805
37.1735
38.8688
9.20669
13.4222
15.4651
17.2127
18.8087
20.3389
21.8541
23.3833
24.9485
26.5767
28.306
30.1872
32.2671
34.5388
36.8511
38.8433
40.0294
40.5503
39.6583
39.35
38.2949
37.2554
37.9561
39.8614
40.7462
41.9536
41.5207
40.7213
43.3721
43.94
42.4471
43.0571
9.03364
13.1617
15.1335
16.8322
18.4003
19.9077
21.3852
22.8458
24.3012
25.7741
27.3008
28.931
30.7238
32.7301
34.9441
37.221
39.2203
40.7144
41.2331
41.5611
41.1861
40.9772
41.4842
42.4312
42.546
43.1993
42.7532
42.1677
43.2091
43.699
43.2391
43.3777
9.21402
13.3327
15.3068
17.0258
18.6208
20.1432
21.6068
23.0142
24.3729
25.7033
27.0377
28.4192
29.9009
31.5451
33.4073
35.4871
37.645
39.6438
41.0203
41.8563
41.9443
42.0178
42.2713
42.7045
42.596
42.7756
42.1156
41.7165
42.2378
42.5149
42.5312
42.4042
9.6496
13.8104
15.8354
17.6214
19.2803
20.8464
22.3213
23.7014
24.9932
26.2164
27.4005
28.5811
29.7996
31.108
32.5679
34.2337
36.1001
38.0572
39.776
41.0244
41.5834
41.8712
41.9635
41.9543
41.6181
41.4278
40.5965
40.1425
40.592
40.6853
40.9187
40.7325
10.2854
14.5175
16.6173
18.4911
20.2299
21.8527
23.3537
24.7279
25.9834
27.1409
28.2272
29.2708
30.3011
31.3546
32.4793
33.7316
35.1541
36.7365
38.3181
39.6625
40.4983
40.9372
40.9592
40.6595
40.122
39.6946
38.8246
38.279
38.7583
38.8049
39.138
39.0798
11.0688
15.3999
17.5871
19.5552
21.3757
23.0566
24.5887
25.9693
27.2107
28.336
29.3704
30.3363
31.2528
32.1408
33.0315
33.9669
34.992
36.1335
37.3425
38.4795
39.3143
39.7749
39.7625
39.331
38.6862
38.1212
37.3108
36.7468
37.2377
37.3442
37.7471
37.8807
11.9104
16.4097
18.6929
20.7553
22.6538
24.3895
25.9536
27.3482
28.591
29.708
30.7235
31.6557
32.5157
33.3134
34.0647
34.7944
35.5354
36.3178
37.1392
37.9406
38.5753
38.9223
38.8535
38.3766
37.6968
37.063
36.3483
35.8426
36.3138
36.5325
37.0006
37.3121
12.8954
17.516
19.8932
22.0467
24.0184
25.8053
27.4014
28.8151
30.0698
31.1946
32.2129
33.1401
33.9815
34.74
35.4217
36.0376
36.6052
37.1449
37.6671
38.1527
38.5238
38.6813
38.5145
38.0066
37.318
36.6544
36.0323
35.6215
36.06
36.3975
36.9282
37.3718
13.5573
13.977
14.4609
14.8498
15.2265
15.526
15.7879
15.9912
16.1546
16.2704
16.3495
16.3899
16.3955
16.3681
16.3115
16.2282
16.1209
15.9954
15.8647
15.7649
15.7974
15.9268
16.0711
16.2045
16.3174
16.405
16.4654
16.4962
16.4927
16.4544
16.377
16.2621
16.0986
15.8943
15.6304
15.3272
14.9467
14.5533
14.0649
13.6424
18.2938
18.7304
19.2348
19.6424
20.0375
20.3588
20.6438
20.8721
21.0616
21.2051
21.3123
21.3816
21.4157
21.4149
21.3815
21.3171
21.2232
21.1045
20.9732
20.8681
20.9016
21.0367
21.1809
21.3068
21.4056
21.474
21.511
21.5149
21.483
21.416
21.3108
21.1685
20.9793
20.7505
20.4643
20.1403
19.7421
19.3311
18.8233
18.3852
20.7421
21.2042
21.7388
22.1721
22.596
22.9483
23.2683
23.5345
23.7648
23.9521
24.1044
24.2207
24.3022
24.3478
24.358
24.3332
24.2741
24.1838
24.0735
23.9805
24.012
24.1338
24.2562
24.3533
24.4172
24.4459
24.4395
24.3971
24.3183
24.2053
24.0555
23.8703
23.6412
23.3756
23.0555
22.7015
22.2754
21.839
21.3014
20.8379
22.9485
23.4298
23.9877
24.4411
24.8899
25.2702
25.6228
25.9253
26.1955
26.4261
26.6233
26.7859
26.9148
27.0073
27.0622
27.0787
27.0566
26.9987
26.9157
26.8438
26.8708
26.9701
27.065
27.1296
27.1562
27.1436
27.0924
27.0035
26.8781
26.7195
26.5256
26.2981
26.0305
25.7299
25.3785
24.998
24.5482
24.0927
23.5327
23.0499
24.9508
25.4367
26.0029
26.4635
26.9247
27.321
27.6943
28.022
28.3209
28.5849
28.8184
29.0191
29.1868
29.3181
29.4105
29.4621
29.4722
29.4432
29.3864
29.3361
29.3582
29.4345
29.5033
29.5388
29.533
29.4852
29.3965
29.269
29.1053
28.9092
28.6798
28.4204
28.1253
27.801
27.4302
27.0354
26.5746
26.1135
25.5464
25.0596
26.7492
27.2236
27.7842
28.2401
28.7026
29.1048
29.4895
29.8353
30.1575
30.4487
30.7128
30.9457
31.1465
31.3107
31.4352
31.5169
31.5547
31.5506
31.516
31.4825
31.5009
31.5585
31.6048
31.615
31.5814
31.5029
31.3819
31.2215
31.025
30.7969
30.5378
30.2519
29.9349
29.5946
29.2138
28.8148
28.3545
27.9
27.34
26.8658
28.3446
28.7963
29.3439
29.7895
30.2488
30.655
31.0506
31.4136
31.7575
32.074
32.3658
32.6279
32.8583
33.0517
33.2045
33.3125
33.3739
33.3906
33.3732
33.3514
33.3675
33.4115
33.4395
33.4284
33.3704
33.2653
33.1156
32.9256
32.6993
32.4421
32.1557
31.8451
31.5075
31.1511
30.7611
30.3608
29.9056
29.4634
28.918
28.4679
29.7535
30.179
30.7131
31.15
31.6089
32.0226
32.431
32.8117
33.1766
33.5171
33.8344
34.1231
34.3799
34.5994
34.7767
34.9073
34.9884
35.0215
35.017
35.0026
35.0172
35.0519
35.066
35.0375
34.959
34.8306
34.6557
34.4393
34.1863
33.9023
33.5905
33.2561
32.8981
32.5246
32.1233
31.7169
31.2643
30.8334
30.3032
29.8813
31.0057
31.4068
31.9315
32.3646
32.8273
33.2507
33.6725
34.0706
34.455
34.8172
35.1572
35.4693
35.7491
35.9907
36.1887
36.3378
36.4347
36.4804
36.4846
36.4745
36.4882
36.517
36.5211
36.4789
36.3836
36.2358
36.0396
35.8003
35.5238
35.2161
34.8814
34.5256
34.1481
33.7578
33.3439
32.9289
32.474
32.049
31.5302
31.1351
32.1322
32.5118
33.0312
33.4643
33.9319
34.3653
34.7994
35.2131
35.6147
35.9957
36.355
36.6867
36.9856
37.2455
37.4602
37.624
37.733
37.7878
37.7977
37.7896
37.8027
37.8281
37.8252
37.7726
37.6641
37.5007
37.2868
37.0286
36.7324
36.4047
36.0504
35.6756
35.2812
34.8755
34.4498
34.0255
33.5668
33.1431
32.6319
32.2605
33.1548
33.5143
34.03
34.4633
34.9355
35.3777
35.8225
36.2495
36.6653
37.0619
37.4372
37.7848
38.0991
38.3735
38.6012
38.7762
38.8944
38.9557
38.9693
38.9622
38.9747
38.9977
38.9898
38.9294
38.8106
38.6349
38.407
38.1336
37.8213
37.4772
37.1067
36.7162
36.3073
35.8887
35.4525
35.0202
34.5577
34.1348
33.6286
33.2793
34.0839
34.4222
34.933
35.3659
35.8415
36.2908
36.7447
37.1826
37.6104
38.0196
38.4077
38.7679
39.0945
39.3801
39.618
39.8017
39.927
39.9935
40.0104
40.0046
40.0163
40.0367
40.0241
39.9572
39.8302
39.6447
39.4057
39.1201
38.795
38.4376
38.0539
37.6504
37.2298
36.8001
36.3554
35.9163
35.451
35.0297
34.5296
34.2035
34.9207
35.2353
35.7392
36.1705
36.6486
37.104
37.5654
38.0126
38.4502
38.8697
39.2682
39.6386
39.9746
40.2691
40.515
40.7057
40.837
40.9088
40.93
40.9268
40.9373
40.9534
40.9351
40.8619
40.7277
40.5341
40.2862
39.991
39.6555
39.2873
38.8928
38.4788
38.0481
37.6092
37.1573
36.7126
36.2456
35.827
35.3351
35.0352
35.6639
35.9507
36.4451
36.8738
37.3536
37.8144
38.2825
38.7379
39.1839
39.6123
40.0193
40.3978
40.7414
41.0429
41.2951
41.4917
41.6286
41.7061
41.7332
41.7343
41.7432
41.7528
41.7275
41.6475
41.5065
41.306
41.0508
40.7476
40.4039
40.027
39.6234
39.2003
38.7609
38.314
37.8554
37.406
36.9381
36.5235
36.0426
35.7734
36.3131
36.5655
37.0467
37.4713
37.9521
38.418
38.8926
39.3559
39.8099
40.2461
40.6605
41.046
41.3959
41.703
41.9606
42.1624
42.3049
42.3888
42.4232
42.4299
42.4368
42.4384
42.4045
42.317
42.1694
41.9626
41.7011
41.3913
41.0405
40.656
40.2446
39.8131
39.3658
38.911
38.4464
37.9923
37.5243
37.1152
36.6494
36.4183
36.8704
37.0764
37.5389
37.9573
38.4383
38.9094
39.3909
39.8621
40.3241
40.768
41.1894
41.5811
41.9366
42.2487
42.511
42.7178
42.866
42.9568
42.999
43.0113
43.0163
43.0094
42.9662
42.8707
42.7163
42.5035
42.2361
41.9205
41.5633
41.172
40.7531
40.3139
39.8585
39.3959
38.9248
38.4662
37.9989
37.5975
37.1528
36.9719
37.339
37.4804
37.9157
38.3244
38.8045
39.2808
39.7694
40.2493
40.7196
41.1714
41.5998
41.9976
42.3584
42.6752
42.942
43.1536
43.3074
43.4051
43.4548
43.4722
43.4752
43.4604
43.4079
43.3043
43.1431
42.9244
42.6515
42.3301
41.967
41.569
41.1427
40.6954
40.2317
39.7609
39.2831
38.8202
38.355
37.9652
37.5503
37.4391
37.7272
37.7754
38.1676
38.5626
39.0394
39.5206
40.0168
40.5059
40.9852
41.4455
41.8815
42.2856
42.6519
42.9734
43.2447
43.4609
43.6202
43.7243
43.7806
43.8021
43.8033
43.7815
43.7205
43.609
43.4411
43.2165
42.9382
42.6112
42.2419
41.837
41.4031
40.9473
40.4749
39.9953
39.5107
39.0435
38.583
38.2082
37.8398
37.8276
38.0447
37.9633
38.2885
38.6597
39.13
39.6152
40.1189
40.6177
41.1068
41.5764
42.0203
42.4315
42.8036
43.1303
43.4061
43.6271
43.7915
43.9013
43.963
43.9878
43.9873
43.9595
43.8909
43.7721
43.5978
43.3673
43.0833
42.7505
42.3748
41.9627
41.5207
41.0558
40.5739
40.0852
39.5938
39.1236
38.6699
38.3204
38.0218
38.1443
38.2891
38.0428
38.2734
38.6057
39.0637
39.5508
40.0614
40.5699
41.0691
41.5485
42.0012
42.42
42.7984
43.1305
43.4112
43.6369
43.8061
43.9208
43.9871
44.0141
44.0121
43.9793
43.9042
43.7788
43.5982
43.3619
43.0721
42.7332
42.3507
41.9309
41.4802
41.0059
40.5146
40.0167
39.5191
39.0468
38.6062
38.297
38.0948
38.3851
38.4266
37.9995
38.1155
38.3931
38.8299
39.3173
39.8332
40.351
40.8601
41.3492
41.8108
42.2374
42.6224
42.9603
43.2459
43.4761
43.6496
43.7685
43.8382
43.867
43.8636
43.8267
43.7462
43.6149
43.4286
43.1866
42.891
42.5459
42.1565
41.7289
41.2696
40.786
40.2856
39.7791
39.277
38.8048
38.3858
38.1317
38.0445
38.5146
38.3898
37.8048
37.8093
38.0253
38.4328
38.9146
39.4348
39.9598
40.4773
40.975
41.4446
41.8783
42.2695
42.6125
42.9026
43.1367
43.3138
43.4358
43.5079
43.5377
43.5333
43.4931
43.4083
43.2723
43.0812
42.8342
42.5333
42.1824
41.7866
41.3519
40.8848
40.3929
39.8841
39.3703
38.8623
38.3953
38.0057
37.8142
37.8408
38.4725
38.1189
37.429
37.3503
37.5124
37.8903
38.3622
38.8838
39.4124
39.9355
40.4388
40.9141
41.3528
41.7485
42.0951
42.3883
42.6248
42.8038
42.9274
43.0006
43.0306
43.0253
42.9831
42.8956
42.7565
42.5621
42.3115
42.0068
41.6516
41.251
40.8111
40.3383
39.8403
39.3255
38.8059
38.2952
37.8368
37.4763
37.3383
37.4496
38.1883
37.5986
36.8762
36.761
36.8891
37.2432
37.7023
38.2199
38.7498
39.2741
39.7794
40.2563
40.6966
41.0934
41.4408
41.7341
41.9704
42.1488
42.2716
42.3438
42.3731
42.3671
42.3244
42.2363
42.0966
41.9013
41.6498
41.3439
40.9873
40.585
40.1429
39.6678
39.167
38.6492
38.1253
37.6153
37.1663
36.8261
36.7197
36.8689
37.6459
37.0264
36.2638
36.118
36.22
36.5548
37.0012
37.5121
38.0396
38.5615
39.0647
39.5393
39.9771
40.3711
40.7153
41.0051
41.2376
41.4119
41.5304
41.5989
41.6259
41.6197
41.5783
41.4926
41.3554
41.1627
40.9137
40.6101
40.2558
39.8557
39.4157
38.9425
38.4432
37.9268
37.403
36.8962
36.4548
36.1254
36.0308
36.1849
36.9605
36.4571
35.6927
35.5408
35.6285
35.9481
36.3801
36.8789
37.3968
37.9098
38.4048
38.8713
39.301
39.6868
40.0228
40.304
40.5278
40.6933
40.803
40.8638
40.8863
40.88
40.8428
40.7633
40.6329
40.4469
40.2046
39.9079
39.5604
39.167
38.7336
38.2668
37.7733
37.2618
36.7432
36.2421
35.8067
35.4815
35.3872
35.5331
36.2972
36.0651
35.3099
35.1618
35.2413
35.5481
35.9641
36.446
36.9475
37.4458
37.9265
38.3791
38.7952
39.1672
39.4894
39.757
39.9668
40.1182
40.214
40.2622
40.2767
40.2707
40.2405
40.1713
40.0517
39.8767
39.6453
39.3597
39.0238
38.6424
38.2213
37.7671
37.2869
36.789
36.2843
35.7959
35.3702
35.0465
34.9413
35.0521
35.7575
35.8285
35.1234
35.0077
35.105
35.4163
35.8271
36.2972
36.7827
37.265
37.729
38.1647
38.5633
38.9179
39.2226
39.4726
39.6648
39.7983
39.8757
39.9066
39.9097
39.9055
39.8872
39.8329
39.7283
39.5682
39.352
39.082
38.7624
38.398
37.9946
37.5583
37.0963
36.6167
36.1302
35.656
35.2363
34.9049
34.7721
34.828
35.4475
35.9532
35.3068
35.2251
35.3381
35.6495
36.0489
36.501
36.9654
37.4258
37.8676
38.2809
38.6571
38.9896
39.2726
39.5015
39.673
39.7856
39.8415
39.8504
39.8363
39.8315
39.8254
39.7849
39.6938
39.5468
39.3444
39.0892
38.7855
38.4383
38.0536
37.6379
37.1991
36.7462
36.2927
35.8537
35.47
35.1756
35.0825
35.1782
35.8459
36.4978
35.8853
35.827
35.9368
36.2323
36.6042
37.0229
37.4551
37.8843
38.2964
38.6811
39.0302
39.337
39.596
39.8023
39.9528
40.0456
40.0822
40.0715
40.0414
40.0386
40.0461
40.0198
39.9426
39.8105
39.6244
39.3871
39.1032
38.7773
38.4155
38.0239
37.6104
37.1841
36.7579
36.3458
35.9829
35.6978
35.5986
35.6644
36.2769
36.8373
36.3666
36.3975
36.5536
36.8668
37.2362
37.6418
38.0546
38.4614
38.8494
39.2096
39.5346
39.818
40.0549
40.2406
40.3721
40.4472
40.4672
40.44
40.3944
40.3878
40.4009
40.3816
40.3125
40.1898
40.0148
39.7903
39.5205
39.2106
38.8658
38.4926
38.0988
37.6933
37.2894
36.9015
36.5601
36.2899
36.1974
36.2569
36.8517
37.6806
37.1239
37.0852
37.1719
37.4266
37.7456
38.1129
38.4951
38.877
39.2439
39.5862
39.8955
40.1653
40.3902
40.5655
40.688
40.7556
40.7693
40.7369
40.6883
40.6845
40.7033
40.6906
40.6291
40.5155
40.3508
40.1383
39.882
39.587
39.2587
38.9037
38.5296
38.1454
37.7648
37.4013
37.0866
36.8373
36.7582
36.8091
37.3756
43.4856
51.3058
57.5345
63.6607
68.9491
73.2384
76.6751
79.453
81.7274
83.6327
85.2884
86.7709
88.1177
89.3628
90.5369
91.6706
92.7944
93.9369
95.1213
96.365
97.6774
99.0609
100.512
102.025
103.588
105.189
106.811
108.431
110.009
111.478
112.687
113.4
42.7653
50.3032
56.3338
62.3206
67.5364
71.7916
75.2111
77.9815
80.2561
82.1678
83.8318
85.318
86.6562
87.8872
89.0431
90.1555
91.2559
92.3733
93.5321
94.7486
96.0322
97.3856
98.8056
100.285
101.813
103.378
104.962
106.545
108.084
109.518
110.695
111.389
41.9884
49.2752
55.1168
60.9626
66.1036
70.3257
73.7323
76.5024
78.7868
80.7144
82.3927
83.8844
85.2191
86.4396
87.5796
88.6725
89.7511
90.845
91.9779
93.1674
94.4231
95.7469
97.1355
98.5821
100.076
101.605
103.152
104.697
106.199
107.596
108.743
109.418
41.1627
48.2178
53.8738
59.5777
64.6462
68.8424
72.2453
75.0249
77.3293
79.2813
80.9786
82.4788
83.8149
85.026
86.1525
87.2283
88.2868
89.3582
90.4679
91.6324
92.8608
94.1559
95.5143
96.9286
98.3884
99.882
101.392
102.9
104.364
105.725
106.841
107.498
40.3188
47.1472
52.6125
58.1672
63.1606
67.3342
70.741
73.54
75.8742
77.8575
79.5789
81.0931
82.4355
83.645
84.7623
85.8236
86.8644
87.9163
89.0031
90.1429
91.3458
92.6134
93.9426
95.3263
96.7534
98.2126
99.6875
101.158
102.585
103.912
104.999
105.635
39.4275
46.0384
51.31
56.7127
61.6357
65.7995
69.2252
72.0553
74.4266
76.4469
78.1966
79.7282
81.0813
82.2938
83.405
84.4558
85.482
86.5152
87.5829
88.7016
89.8799
91.1213
92.4221
93.7751
95.1701
96.595
98.0343
99.469
100.86
102.152
103.209
103.828
38.5244
44.9164
49.9838
55.2223
60.0682
64.2236
67.6753
70.5475
72.9671
75.0312
76.8147
78.3718
79.7423
80.9663
82.0801
83.1247
84.1393
85.159
86.2075
87.3043
88.4604
89.6769
90.9509
92.2752
93.6397
95.0321
96.4378
97.8363
99.1912
100.451
101.479
102.078
37.5658
43.7407
48.5958
53.6625
58.435
62.5993
66.0994
69.0283
71.5014
73.6149
75.4399
77.0268
78.4201
79.6581
80.7802
81.8242
82.8333
83.84
84.8748
85.9556
87.0903
88.2833
89.5314
90.8268
92.1601
93.5202
94.8906
96.2548
97.5744
98.8005
99.7989
100.38
36.5679
42.5255
47.1552
52.0315
56.7166
60.8853
64.4387
67.44
69.9908
72.1707
74.0455
75.6741
77.0992
78.3632
79.5008
80.5539
81.5603
82.5627
83.5841
84.6462
85.7625
86.9337
88.157
89.4257
90.73
92.0588
93.397
94.7265
96.0101
97.2055
98.1757
98.7366
35.5082
41.2406
45.6315
50.3006
54.8941
59.0875
62.7297
65.8277
68.456
70.7027
72.6398
74.3163
75.7817
77.0731
78.2326
79.2967
80.3123
81.3119
82.3269
83.3803
84.4792
85.6297
86.8294
88.0707
89.3446
90.6409
91.9435
93.2382
94.4873
95.6479
96.5891
97.1319
34.3179
39.837
43.9787
48.4176
52.8952
57.0961
60.8215
64.0371
66.7994
69.1626
71.1822
72.927
74.4435
75.7808
76.9713
78.0601
79.0833
80.0892
81.0997
82.1389
83.224
84.3559
85.5324
86.7476
87.9936
89.2586
90.5295
91.79
93.0016
94.1334
95.046
95.5672
33.0441
38.3506
42.2229
46.3977
50.7349
54.9617
58.8354
62.2245
65.1104
67.5694
69.6848
71.5047
73.0888
74.4721
75.7028
76.8156
77.8638
78.8766
79.8894
80.9292
82.002
83.1165
84.2716
85.4608
86.6758
87.9071
89.1411
90.3662
91.544
92.6394
93.5224
94.0245
31.5025
36.6108
40.1982
44.0794
48.24
52.4503
56.4234
59.9882
63.1191
65.8036
68.0713
70.0121
71.6772
73.1357
74.4192
75.5795
76.6477
77.68
78.6982
79.728
80.7919
81.8915
83.0253
84.189
85.3772
86.5782
87.7817
88.9722
90.109
91.1786
92.0312
92.5106
29.8387
34.7568
38.0367
41.5557
45.4582
49.648
53.861
57.7598
61.1033
63.9377
66.3676
68.4317
70.2177
71.7535
73.1041
74.3042
75.419
76.4712
77.5026
78.5452
79.6035
80.6894
81.8044
82.9436
84.0993
85.2644
86.4263
87.5815
88.6845
89.7138
90.5361
90.9929
27.6127
32.3697
35.3284
38.4586
42.0739
46.1627
50.4145
54.5327
58.3761
61.6895
64.4232
66.7217
68.6374
70.296
71.7339
73.0179
74.1701
75.2602
76.3108
77.3482
78.4031
79.4785
80.5741
81.6871
82.8175
83.9531
85.0878
86.2032
87.2613
88.2675
89.0556
89.4901
25.0951
29.7631
32.417
35.0496
38.1424
42.039
46.7093
51.4973
55.6237
59.1798
62.2419
64.7713
66.9391
68.7474
70.3015
71.6458
72.8753
74.0032
75.0809
76.1487
77.2075
78.2733
79.3528
80.4427
81.5367
82.631
83.7139
84.7991
85.8183
86.779
87.5353
87.9394
21.1363
25.8282
28.1274
30.1871
32.7331
36.196
40.5102
45.5643
51.1683
55.9008
59.6065
62.6427
65.0209
67.0311
68.7318
70.228
71.523
72.7172
73.8351
74.9015
75.9627
77.0237
78.0852
79.1467
80.2169
81.2829
82.3458
83.377
84.3467
85.2862
86.0029
86.3873
16.1107
21.3241
23.8137
25.5538
27.3035
30.6459
36.0008
41.8585
46.5386
51.627
56.2184
59.7674
62.7664
65.1221
67.0583
68.6473
70.0715
71.3299
72.4929
73.6186
74.6979
75.7543
76.8019
77.8408
78.8675
79.8816
80.873
81.8858
82.8029
83.692
84.3724
84.7095
4.84198
11.4433
12.9984
13.7156
12.1111
6.79901
10.6901
23.4239
37.8481
46.0518
51.9476
56.7874
60.1423
62.8728
65.0624
66.9507
68.4943
69.8702
71.1104
72.2353
73.323
74.3813
75.4121
76.4177
77.4213
78.4085
79.3917
80.3243
81.1894
82.0545
82.6872
83.0117
4.36242
7.21853
7.30247
5.80727
9.69603
10.389
7.80004
4.04148
20.9601
35.6643
45.4518
51.4525
56.5937
60.1344
62.8871
64.9381
66.7211
68.2084
69.5204
70.7568
71.8877
72.9482
73.9672
74.948
75.8957
76.8116
77.6913
78.6206
79.3976
80.2155
80.8021
81.0477
11.5584
15.7381
16.7234
16.2356
15.1827
16.3123
13.4192
22.6656
26.6244
23.1234
33.2829
46.2759
51.969
56.6872
59.9445
62.6616
64.6748
66.3888
67.8534
69.0859
70.2304
71.3025
72.3035
73.2411
74.165
75.0545
75.9378
76.7573
77.4867
78.2575
78.7844
79.0264
19.538
23.9403
25.7325
26.3348
25.564
23.7278
21.8751
17.5264
24.3618
28.3056
30.8364
33.0831
46.4609
51.8978
56.6413
59.6861
62.2344
64.1617
65.7523
67.2006
68.4396
69.5251
70.5188
71.4247
72.2662
73.0487
73.7845
74.5942
75.1414
75.904
76.3631
76.4734
21.6806
26.6422
29.3209
31.2881
32.4143
32.4806
31.2205
28.4347
23.5145
22.7546
25.6739
27.0287
28.1343
45.2405
51.3249
56.1635
59.16
61.586
63.494
64.9313
66.1889
67.3044
68.2708
69.1083
69.9276
70.679
71.4148
72.1159
72.649
73.2747
73.6616
73.7601
22.5944
27.6602
30.5603
32.891
34.6142
35.7076
36.1118
35.6316
33.6853
29.2677
22.0567
21.6439
26.7818
31.7016
45.3616
50.7569
55.2776
58.1247
60.2975
62.1927
63.6645
64.8132
65.7843
66.5754
67.2433
67.8136
68.3435
68.9329
68.9981
69.7929
70.0464
69.9381
22.1761
27.4
30.486
33.0716
35.1161
36.6079
37.5458
37.9177
37.6225
36.2143
32.2532
26.8187
30.8517
26.0847
31.2266
44.5626
49.6696
53.9067
56.7714
58.6061
60.0888
61.3139
62.2209
62.8738
63.5301
64.0479
64.5288
65.1624
65.3867
65.6876
65.9278
65.7152
20.8438
26.2083
29.3961
32.1238
34.3628
36.1105
37.3857
38.2178
38.6222
38.4983
37.2537
32.7319
29.8601
29.7425
26.5964
31.8523
42.8405
47.3576
50.9985
54.0007
56.0193
57.3084
58.242
58.8044
59.1059
59.2661
59.4706
59.4753
58.2108
59.5086
59.2681
58.828
18.928
24.3915
27.6091
30.3876
32.7187
34.6173
36.1095
37.2439
38.0838
38.6589
38.8105
37.7466
33.2373
31.6716
18.1891
27.1513
27.9599
40.1751
44.6318
47.1562
49.0723
50.5862
51.2922
51.5056
51.9466
51.7993
51.7951
52.9259
52.4927
51.9014
52.7386
51.6853
16.686
22.1311
25.2728
27.9955
30.3202
32.2865
33.9379
35.3266
36.5268
37.6069
38.5518
39.0977
38.4024
34.8012
25.3491
14.71
9.61059
20.0446
32.1356
38.9651
42.0098
43.92
44.3289
44.6228
43.2733
42.9339
42.5703
39.9507
35.3625
38.5796
35.4769
34.9492
14.4083
19.6907
22.6492
25.2121
27.4338
29.3773
31.1026
32.672
34.1556
35.6266
37.1088
38.4962
39.449
39.1871
36.4181
28.3329
19.2369
10.0462
8.1383
15.6567
22.3435
24.9842
24.8662
24.1657
25.7939
17.4506
32.0886
23.4291
42.3439
34.7024
27.6738
34.4184
12.4027
17.3979
20.0962
22.4251
24.4723
26.3191
28.037
29.6926
31.35
33.0696
34.892
36.7719
38.5191
39.7285
39.714
36.3919
28.42
28.0036
11.8959
17.9088
28.257
16.4151
29.8177
15.0986
33.7468
14.5355
43.1343
29.9836
41.8647
43.8096
35.7189
40.3943
10.8533
15.4925
17.916
19.995
21.8457
23.5615
25.2171
26.8742
28.5857
30.3981
32.3536
34.4598
36.6285
38.5986
39.9115
39.7273
37.0301
32.4786
23.8927
27.7787
14.1542
27.5925
14.815
31.8508
33.843
30.6648
38.5632
37.9726
49.962
40.9982
32.6483
31.2898
9.71696
14.1061
16.2985
18.1699
19.8572
21.4563
23.0343
24.6387
26.307
28.0744
29.981
32.0646
34.3254
36.6472
38.7132
39.9669
39.9632
37.5897
35.1814
31.6256
28.3474
28.6522
29.436
29.9179
34.3233
36.5993
36.4913
36.738
45.1096
40.6274
40.5942
37.1475
9.11499
13.3118
15.3441
17.0832
18.6733
20.1998
21.7127
23.2409
24.8067
26.4378
28.173
30.0623
32.1522
34.4393
36.7852
38.8193
40.0585
39.956
39.5978
38.4287
37.981
36.3204
38.7998
36.8023
41.792
42.0377
41.567
40.3889
40.134
44.5231
44.1449
41.0257
8.9428
13.0519
15.0153
16.7081
18.2717
19.7748
21.2474
22.7024
24.1517
25.6179
27.1372
28.7589
30.5415
32.5362
34.7375
36.9865
38.9321
40.0695
40.6673
40.8067
40.9308
40.3567
41.484
40.0643
43.206
42.807
42.1839
41.6085
40.2172
44.5993
44.2189
41.9156
9.12379
13.2247
15.1929
16.9086
18.5005
20.0188
21.4768
22.8773
24.228
25.5487
26.8714
28.2378
29.6997
31.3177
33.1436
35.1661
37.2351
39.0102
40.3475
41.2134
41.6662
41.5235
42.0241
41.0336
42.8767
42.3711
41.7733
41.4938
40.6604
43.3131
42.8439