/*--------------------------------*- C++ -*----------------------------------*\
  =========                 |
  \\      /  F ield         | OpenFOAM: The Open Source CFD Toolbox
   \\    /   O peration     | Website:  https://openfoam.org
    \\  /    A nd           | Version:  6
     \\/     M anipulation  |
\*---------------------------------------------------------------------------*/
FoamFile
{
    version     2.0;
    format      ascii;
    class       volVectorField;
    location    "9";
    object      wallShearStress;
}
// * * * * * * * * * * * * * * * * * * * * * * * * * * * * * * * * * * * * * //

dimensions      [0 2 -2 0 0 0 0];

internalField   uniform (0 0 0);

boundaryField
{
    inlet
    {
        type            calculated;
        value           uniform (0 0 0);
    }
    outlet
    {
        type            calculated;
        value           uniform (0 0 0);
    }
    roughCylinder
    {
        type            calculated;
        value           nonuniform List<vector> 
5120
(
(-0.000242988 -0.000344905 -0.000173585)
(-0.00029777 -0.00044753 -3.93957e-05)
(-0.000331265 -0.000538795 1.94407e-06)
(-0.000376691 -0.000625628 5.59344e-05)
(-0.000432837 -0.000700256 0.00011748)
(-0.000496164 -0.000758351 0.000178746)
(-0.000563068 -0.000797466 0.000235441)
(-0.000628901 -0.000818276 0.000284895)
(-0.000689788 -0.000823517 0.000325161)
(-0.000744178 -0.000818712 0.000355905)
(-0.00079263 -0.000812547 0.000379139)
(-0.00083484 -0.000808763 0.00039606)
(-0.00086876 -0.000808281 0.000405832)
(-0.000897403 -0.000812839 0.000409392)
(-0.000921945 -0.000821812 0.000407837)
(-0.000943716 -0.00083448 0.000402168)
(-0.000964052 -0.000850112 0.000393391)
(-0.000984098 -0.000868098 0.000382335)
(-0.00100473 -0.000887999 0.000369618)
(-0.00102653 -0.000909551 0.000355615)
(-0.00104979 -0.000932585 0.000340499)
(-0.00107462 -0.000956984 0.000324282)
(-0.00110095 -0.00098262 0.000306865)
(-0.00112861 -0.00100933 0.000288061)
(-0.00115737 -0.00103688 0.000267618)
(-0.00118689 -0.00106495 0.000245183)
(-0.00121677 -0.00109311 0.000220321)
(-0.0012464 -0.00112069 0.000192315)
(-0.00127507 -0.00114691 0.000160182)
(-0.0013011 -0.00117022 0.000122432)
(-0.00132222 -0.0011892 7.71318e-05)
(-0.00133414 -0.00120038 2.60563e-05)
(-0.000261143 -0.000333945 -0.000164107)
(-0.000319031 -0.000433912 -4.19118e-05)
(-0.000355024 -0.000523986 -3.7576e-06)
(-0.000402491 -0.000610644 4.69941e-05)
(-0.000460263 -0.000686324 0.000106101)
(-0.000525079 -0.000746153 0.000165737)
(-0.000593311 -0.000787311 0.000221386)
(-0.000660605 -0.000810425 0.000270281)
(-0.00072377 -0.000818748 0.000310655)
(-0.000781656 -0.000818277 0.000342631)
(-0.000834093 -0.000815675 0.00036778)
(-0.000879844 -0.000813145 0.000386512)
(-0.000915997 -0.000811116 0.000397123)
(-0.000946072 -0.000814652 0.000401165)
(-0.000972054 -0.000822982 0.000399887)
(-0.000995188 -0.000835329 0.00039442)
(-0.00101687 -0.000850846 0.0003858)
(-0.00103827 -0.000868841 0.000374907)
(-0.0010603 -0.000888825 0.000362377)
(-0.00108354 -0.000910473 0.000348603)
(-0.0011083 -0.0009336 0.000333773)
(-0.00113466 -0.000958073 0.000317893)
(-0.00116257 -0.000983759 0.000300869)
(-0.00119184 -0.00101048 0.000282506)
(-0.00122221 -0.00103801 0.000262546)
(-0.00125333 -0.00106603 0.00024063)
(-0.0012848 -0.00109411 0.000216327)
(-0.00131596 -0.00112157 0.000188909)
(-0.00134607 -0.00114767 0.000157419)
(-0.00137334 -0.00117083 0.000120356)
(-0.00139551 -0.00118971 7.58177e-05)
(-0.00140801 -0.0012008 2.5611e-05)
(-0.00027905 -0.000317813 -0.000147668)
(-0.000339748 -0.000414899 -4.4928e-05)
(-0.000378063 -0.000503068 -1.0115e-05)
(-0.000427199 -0.000588925 3.71896e-05)
(-0.000486329 -0.000665175 9.35659e-05)
(-0.000552504 -0.000726557 0.00015134)
(-0.000622178 -0.000769997 0.00020589)
(-0.000691346 -0.000796152 0.00025442)
(-0.000757313 -0.000808473 0.00029537)
(-0.000818886 -0.000812472 0.000328859)
(-0.000875063 -0.000813063 0.0003557)
(-0.000923873 -0.000811764 0.000375637)
(-0.000963203 -0.000809182 0.000387309)
(-0.000994804 -0.000811499 0.000391861)
(-0.00102228 -0.000819006 0.000390853)
(-0.00104685 -0.00083086 0.000385626)
(-0.00106996 -0.000846113 0.000377218)
(-0.0010928 -0.000863969 0.000366535)
(-0.00111627 -0.000883875 0.000354245)
(-0.001141 -0.000905468 0.000340761)
(-0.00116728 -0.000928535 0.000326271)
(-0.00119521 -0.000952912 0.000310792)
(-0.00122471 -0.000978469 0.000294218)
(-0.00125559 -0.00100502 0.000276353)
(-0.00128757 -0.00103235 0.000256936)
(-0.00132029 -0.00106011 0.000235597)
(-0.00135332 -0.00108792 0.00021191)
(-0.00138596 -0.00111508 0.000185139)
(-0.00141748 -0.00114087 0.000154358)
(-0.00144596 -0.00116372 0.000118054)
(-0.00146915 -0.00118236 7.43601e-05)
(-0.00148222 -0.00119329 2.5118e-05)
(-0.000295155 -0.000298032 -0.000127061)
(-0.000358224 -0.000391686 -4.8034e-05)
(-0.000398404 -0.000477227 -1.67294e-05)
(-0.000448625 -0.000561644 2.69553e-05)
(-0.000508682 -0.000637975 8.03489e-05)
(-0.000576021 -0.000700731 0.000136004)
(-0.000647222 -0.000746656 0.000189309)
(-0.000718593 -0.000776364 0.000237516)
(-0.000787626 -0.000793129 0.000279175)
(-0.000852814 -0.000801533 0.000314184)
(-0.00091253 -0.000805089 0.000342581)
(-0.000964586 -0.00080525 0.000363612)
(-0.00100766 -0.000803383 0.000376591)
(-0.00104121 -0.000803958 0.000381655)
(-0.00107028 -0.000810552 0.000381008)
(-0.00109644 -0.000821783 0.000376079)
(-0.00112105 -0.000836631 0.000367938)
(-0.00114538 -0.000854237 0.000357535)
(-0.00117036 -0.00087396 0.00034555)
(-0.00119659 -0.000895385 0.00033241)
(-0.0012244 -0.00091826 0.000318315)
(-0.00125388 -0.000942415 0.000303282)
(-0.00128494 -0.000967704 0.000287207)
(-0.00131738 -0.000993944 0.000269884)
(-0.0013509 -0.0010209 0.000251051)
(-0.00138512 -0.00104826 0.000230323)
(-0.00141961 -0.00107563 0.000207287)
(-0.00145365 -0.00110233 0.000181195)
(-0.0014865 -0.00112766 0.000151157)
(-0.00151609 -0.00115006 0.000115646)
(-0.00154023 -0.00116836 7.28344e-05)
(-0.00155383 -0.00117907 2.46035e-05)
(-0.000308166 -0.000274598 -0.00010417)
(-0.000373245 -0.000364324 -5.08657e-05)
(-0.000414832 -0.000446616 -2.32569e-05)
(-0.0004656 -0.000529013 1.66121e-05)
(-0.000526221 -0.000604992 6.67134e-05)
(-0.000594612 -0.000669022 0.000119943)
(-0.000667531 -0.000717668 0.000171811)
(-0.000741426 -0.000751275 0.000219633)
(-0.00081368 -0.000772554 0.000261971)
(-0.000882359 -0.000785065 0.00029835)
(-0.000945489 -0.000791397 0.000328189)
(-0.00100093 -0.000793119 0.000350385)
(-0.00104738 -0.000792201 0.000364439)
(-0.00108437 -0.000791829 0.000370439)
(-0.00111523 -0.0007972 0.000370335)
(-0.00114307 -0.000807547 0.000365785)
(-0.0011693 -0.000821845 0.000358012)
(-0.00119518 -0.000839039 0.000347959)
(-0.00122167 -0.000858421 0.000336341)
(-0.00124941 -0.00087953 0.000323609)
(-0.00127873 -0.00090207 0.000309966)
(-0.00130971 -0.000925857 0.000295435)
(-0.00134226 -0.000950718 0.000279906)
(-0.00137616 -0.000976478 0.000263171)
(-0.00141113 -0.00100291 0.000244959)
(-0.00144674 -0.00102969 0.000224878)
(-0.00148259 -0.00105644 0.000202522)
(-0.00151789 -0.00108251 0.000177131)
(-0.00155194 -0.00110724 0.000147864)
(-0.00158253 -0.00112903 0.000113169)
(-0.00160756 -0.00114688 7.12629e-05)
(-0.00162161 -0.0011573 2.40749e-05)
(-0.000318371 -0.000249187 -8.07701e-05)
(-0.000384925 -0.000334425 -5.33163e-05)
(-0.000427346 -0.000412911 -2.95125e-05)
(-0.000478058 -0.00049272 6.38081e-06)
(-0.000538789 -0.000567867 5.29105e-05)
(-0.000608016 -0.000632921 0.000103378)
(-0.000682639 -0.000684249 0.000153539)
(-0.000759115 -0.000721702 0.000200817)
(-0.000834607 -0.000747241 0.000243677)
(-0.000906755 -0.000763469 0.000281229)
(-0.000973329 -0.000772375 0.00031238)
(-0.00103227 -0.000775674 0.000335782)
(-0.00108227 -0.000775735 0.000350852)
(-0.00112334 -0.00077556 0.000358084)
(-0.00115667 -0.000779141 0.000358709)
(-0.00118638 -0.000788531 0.000354719)
(-0.00121434 -0.000801974 0.000347395)
(-0.00124185 -0.00081856 0.000337794)
(-0.00126992 -0.000837458 0.000326636)
(-0.00129918 -0.000858097 0.000314383)
(-0.00132998 -0.000880148 0.000301254)
(-0.00136241 -0.000903404 0.000287279)
(-0.00139637 -0.000927683 0.00027235)
(-0.00143164 -0.000952792 0.000256245)
(-0.00146791 -0.000978513 0.000238691)
(-0.00150477 -0.00100454 0.000219285)
(-0.00154182 -0.00103051 0.000197634)
(-0.00157825 -0.00105578 0.000172968)
(-0.00161336 -0.00107973 0.000144491)
(-0.0016448 -0.00110079 0.000110631)
(-0.0016706 -0.00111806 6.96506e-05)
(-0.00168506 -0.00112814 2.35344e-05)
(-0.000324225 -0.000221771 -5.76589e-05)
(-0.000391779 -0.000302077 -5.51893e-05)
(-0.000434478 -0.000376213 -3.52823e-05)
(-0.000484519 -0.000452857 -3.5757e-06)
(-0.000544851 -0.00052667 3.90033e-05)
(-0.000614658 -0.000592492 8.62921e-05)
(-0.000690997 -0.000646479 0.000134414)
(-0.0007702 -0.000687772 0.000180909)
(-0.000849057 -0.000717397 0.000224081)
(-0.00092478 -0.000737064 0.000262595)
(-0.000994965 -0.000748427 0.000294945)
(-0.00105761 -0.00075336 0.000319595)
(-0.00111146 -0.000754491 0.000335841)
(-0.00115651 -0.000754921 0.000344246)
(-0.00119388 -0.000757712 0.000346071)
(-0.00122569 -0.000765164 0.000342764)
(-0.00125556 -0.000777665 0.000336066)
(-0.00128484 -0.000793438 0.00032702)
(-0.0013145 -0.000811615 0.000316406)
(-0.00134529 -0.00083161 0.000304714)
(-0.00137754 -0.000853021 0.000292178)
(-0.00141136 -0.000875593 0.000278827)
(-0.00144664 -0.000899138 0.00026455)
(-0.00148316 -0.000923462 0.000249124)
(-0.00152061 -0.000948345 0.000232269)
(-0.00155858 -0.000973483 0.000213571)
(-0.00159668 -0.000998537 0.000192649)
(-0.00163405 -0.00102287 0.000168723)
(-0.00167009 -0.00104592 0.000141058)
(-0.00170223 -0.00106612 0.000108046)
(-0.00172872 -0.00108272 6.80065e-05)
(-0.00174349 -0.0010924 2.29851e-05)
(-0.00032624 -0.000193753 -3.58749e-05)
(-0.000394133 -0.000268693 -5.65214e-05)
(-0.000436505 -0.000338059 -4.04922e-05)
(-0.000485217 -0.000411021 -1.30849e-05)
(-0.000544551 -0.000482948 2.52491e-05)
(-0.000614492 -0.000549084 6.89475e-05)
(-0.00069224 -0.000605351 0.000114616)
(-0.000773939 -0.000650088 0.000159951)
(-0.000856023 -0.000683384 0.000203089)
(-0.000935396 -0.00070622 0.000242301)
(-0.00100941 -0.000719962 0.000275716)
(-0.00107599 -0.000726577 0.00030163)
(-0.0011339 -0.000728831 0.000319216)
(-0.00118302 -0.000729861 0.000328893)
(-0.00122446 -0.000732566 0.000331958)
(-0.00126008 -0.000738815 0.000329844)
(-0.00129204 -0.000749481 0.000323914)
(-0.00132322 -0.000764025 0.000315565)
(-0.00135462 -0.000781355 0.00030564)
(-0.00138696 -0.000800546 0.000294611)
(-0.00142064 -0.000821157 0.000282748)
(-0.00145576 -0.000842902 0.000270089)
(-0.00149226 -0.000865567 0.000256526)
(-0.00152986 -0.000888955 0.000241827)
(-0.00156831 -0.000912837 0.000225708)
(-0.00160717 -0.000936933 0.00020774)
(-0.0016461 -0.000960917 0.000187569)
(-0.00168423 -0.000984205 0.0001644)
(-0.00172097 -0.00100626 0.000137565)
(-0.00175363 -0.00102553 0.000105415)
(-0.00178068 -0.00104138 6.63287e-05)
(-0.0017957 -0.00105067 2.24278e-05)
(-0.00032264 -0.000164852 -1.58386e-05)
(-0.000390323 -0.000234116 -5.70922e-05)
(-0.000431741 -0.000298218 -4.49193e-05)
(-0.000478378 -0.000366879 -2.1948e-05)
(-0.000535939 -0.000436218 1.17835e-05)
(-0.000605419 -0.000502073 5.13923e-05)
(-0.000684294 -0.00056026 9.40832e-05)
(-0.000768507 -0.000608278 0.000137803)
(-0.000854028 -0.000645163 0.000180527)
(-0.000937278 -0.000671091 0.000220144)
(-0.0010154 -0.000687194 0.000254471)
(-0.00108625 -0.00069556 0.00028165)
(-0.00114855 -0.000699043 0.000300724)
(-0.00120208 -0.000700792 0.000311925)
(-0.00124765 -0.000703534 0.000316368)
(-0.00128707 -0.000709166 0.000315527)
(-0.00132251 -0.000718529 0.000310785)
(-0.00135621 -0.000731689 0.000303446)
(-0.00138934 -0.000747652 0.000294328)
(-0.00142326 -0.00076574 0.000284071)
(-0.00145833 -0.000785372 0.000272981)
(-0.00149469 -0.000806177 0.000261101)
(-0.00153223 -0.000827888 0.00024832)
(-0.00157077 -0.000850305 0.000234406)
(-0.00161001 -0.00087319 0.000219068)
(-0.00164957 -0.000896264 0.000201866)
(-0.00168912 -0.000919206 0.000182468)
(-0.00172773 -0.000941405 0.000160059)
(-0.00176491 -0.000962374 0.000134056)
(-0.00179782 -0.000980605 0.000102766)
(-0.00182531 -0.000995652 6.46351e-05)
(-0.00184031 -0.00100446 2.18662e-05)
(-0.0003146 -0.000136694 1.77579e-06)
(-0.000381146 -0.000199631 -5.72046e-05)
(-0.000421057 -0.000258497 -4.85739e-05)
(-0.000465029 -0.00032239 -2.99932e-05)
(-0.000520067 -0.000388516 -1.05815e-06)
(-0.000588364 -0.000453403 3.40446e-05)
(-0.000667757 -0.00051285 7.32122e-05)
(-0.000753941 -0.000563505 0.000114717)
(-0.000842502 -0.000603458 0.000156469)
(-0.00092963 -0.000632275 0.000196098)
(-0.00101213 -0.000650751 0.000231146)
(-0.00108758 -0.000660886 0.000259551)
(-0.00115454 -0.000665592 0.000280185)
(-0.0012126 -0.000667984 0.000293062)
(-0.00126254 -0.000670821 0.000299132)
(-0.00130591 -0.000675981 0.000299765)
(-0.00134481 -0.000684437 0.000296374)
(-0.00138134 -0.00069637 0.00029024)
(-0.00141686 -0.000711044 0.000282208)
(-0.00145259 -0.000727937 0.000272934)
(-0.00148905 -0.000746428 0.000262755)
(-0.00152646 -0.000766102 0.000251741)
(-0.00156482 -0.000786694 0.000239808)
(-0.0016039 -0.000807949 0.000226716)
(-0.00164347 -0.000829639 0.000212178)
(-0.00168319 -0.000851488 0.000195745)
(-0.00172283 -0.000873183 0.000177122)
(-0.00176151 -0.000894141 0.000155485)
(-0.00179882 -0.000913858 0.00013035)
(-0.00183171 -0.000930969 9.99612e-05)
(-0.00185941 -0.000945107 6.28339e-05)
(-0.00187437 -0.00095336 2.12704e-05)
(-0.000298496 -0.000108412 1.65795e-05)
(-0.000365554 -0.000165502 -5.64513e-05)
(-0.000402543 -0.000218542 -5.12871e-05)
(-0.000442861 -0.000276946 -3.69249e-05)
(-0.000494255 -0.00033891 -1.29777e-05)
(-0.00056027 -0.000401807 1.71032e-05)
(-0.00063946 -0.000461778 5.20312e-05)
(-0.000727516 -0.000514837 9.06085e-05)
(-0.000819506 -0.000558001 0.000130814)
(-0.000910883 -0.00058986 0.000170025)
(-0.000998093 -0.000610818 0.000205537)
(-0.00107856 -0.000622836 0.000235097)
(-0.00115063 -0.000628823 0.00025737)
(-0.00121378 -0.000631955 0.000272141)
(-0.00126841 -0.000634895 0.000280087)
(-0.00131595 -0.000639587 0.000282443)
(-0.00135843 -0.000647162 0.000280606)
(-0.00139788 -0.00065793 0.000275856)
(-0.00143568 -0.000671296 0.000269063)
(-0.0014732 -0.000686893 0.000260928)
(-0.00151101 -0.000704102 0.0002518)
(-0.00154939 -0.000722498 0.000241773)
(-0.00158835 -0.000741765 0.000230775)
(-0.00162777 -0.000761676 0.00021858)
(-0.00166743 -0.00078199 0.0002049)
(-0.00170708 -0.000802447 0.000189283)
(-0.00174656 -0.00082274 0.000171475)
(-0.00178499 -0.000842295 0.000150639)
(-0.00182224 -0.000860696 0.000126428)
(-0.00185481 -0.000876602 9.69875e-05)
(-0.00188261 -0.000889791 6.09165e-05)
(-0.00189736 -0.000897408 2.06361e-05)
(-0.000276343 -8.14978e-05 2.8531e-05)
(-0.000344561 -0.000133381 -5.49821e-05)
(-0.000378371 -0.000180368 -5.31459e-05)
(-0.000414295 -0.000233075 -4.26641e-05)
(-0.000461219 -0.00029029 -2.3602e-05)
(-0.000523997 -0.00035034 1.18349e-06)
(-0.000602038 -0.000409927 3.1255e-05)
(-0.000690958 -0.000464489 6.6099e-05)
(-0.000785391 -0.000510086 0.000103936)
(-0.000880673 -0.000544713 0.000142111)
(-0.000972787 -0.000568226 0.000177732)
(-0.0010586 -0.000582219 0.000208304)
(-0.00113615 -0.0005895 0.000232229)
(-0.00120451 -0.000593183 0.000248972)
(-0.00126411 -0.000596129 0.000259003)
(-0.00131618 -0.000600338 0.000263364)
(-0.00136253 -0.00060701 0.000263352)
(-0.00140506 -0.000616543 0.000260208)
(-0.00144538 -0.000628589 0.000254876)
(-0.00148473 -0.000642791 0.000248052)
(-0.00152383 -0.000658577 0.000240114)
(-0.00156302 -0.000675529 0.000231191)
(-0.00160245 -0.000693358 0.000221238)
(-0.00164194 -0.000711785 0.000210019)
(-0.00168139 -0.000730585 0.000197257)
(-0.00172059 -0.000749498 0.000182493)
(-0.00175954 -0.00076825 0.000165531)
(-0.00179743 -0.000786311 0.000145535)
(-0.00183422 -0.000803261 0.000122291)
(-0.00186615 -0.000817901 9.38431e-05)
(-0.0018938 -0.000830062 5.88781e-05)
(-0.00190832 -0.000837038 1.99642e-05)
(-0.000246526 -5.63193e-05 3.73451e-05)
(-0.000315169 -0.000102677 -5.24111e-05)
(-0.000345718 -0.000143419 -5.36692e-05)
(-0.000376255 -0.000189806 -4.66903e-05)
(-0.000417158 -0.000241077 -3.23834e-05)
(-0.000474889 -0.000296744 -1.3197e-05)
(-0.000550276 -0.000354622 1.12267e-05)
(-0.000639623 -0.000410229 4.13356e-05)
(-0.000737217 -0.000458717 7.59364e-05)
(-0.000837024 -0.000496582 0.000112397)
(-0.000934423 -0.000522966 0.000147662)
(-0.00102604 -0.000539189 0.000179016)
(-0.00110952 -0.000547907 0.000204558)
(-0.0011839 -0.000552345 0.000223465)
(-0.00124899 -0.000555272 0.000235818)
(-0.00130588 -0.000558877 0.00024244)
(-0.00135632 -0.000564522 0.00024452)
(-0.00140221 -0.000572748 0.00024326)
(-0.001445 -0.00058329 0.000239586)
(-0.00148618 -0.000595948 0.000234255)
(-0.00152653 -0.000610181 0.000227677)
(-0.00156646 -0.000625594 0.000220002)
(-0.00160607 -0.000641833 0.000211196)
(-0.00164535 -0.000658668 0.000201041)
(-0.00168427 -0.000675862 0.000189261)
(-0.00172272 -0.000693167 0.000175399)
(-0.00176085 -0.000710325 0.000159323)
(-0.00179781 -0.000726804 0.00014019)
(-0.00183396 -0.000742309 0.00011797)
(-0.00186493 -0.000755663 9.05521e-05)
(-0.00189229 -0.000766765 5.67336e-05)
(-0.00190636 -0.00077303 1.92574e-05)
(-0.000212068 -3.46059e-05 4.30178e-05)
(-0.000279927 -7.5017e-05 -4.90629e-05)
(-0.000308002 -0.000110037 -5.32051e-05)
(-0.0003335 -0.000150372 -4.92254e-05)
(-0.000368041 -0.000195479 -3.91668e-05)
(-0.000419815 -0.000246012 -2.54002e-05)
(-0.000491326 -0.00030109 -7.02637e-06)
(-0.000579308 -0.000356375 1.74561e-05)
(-0.000677605 -0.000406201 4.77013e-05)
(-0.00078071 -0.000446699 8.14901e-05)
(-0.000883228 -0.000476019 0.00011574)
(-0.000980818 -0.000494683 0.000147497)
(-0.00107067 -0.000505046 0.000174536)
(-0.00115102 -0.000510087 0.000195576)
(-0.00122186 -0.000512902 0.000210408)
(-0.00128398 -0.000515827 0.000219565)
(-0.0013389 -0.000520351 0.00022404)
(-0.00138829 -0.000527108 0.000224931)
(-0.00143392 -0.000536104 0.000223205)
(-0.00147707 -0.000547127 0.000219598)
(-0.00151861 -0.000559687 0.000214558)
(-0.00155904 -0.000573411 0.000208267)
(-0.0015987 -0.000588008 0.000200734)
(-0.00163747 -0.000603176 0.000191728)
(-0.00167546 -0.000618704 0.000180984)
(-0.0017127 -0.000634323 0.000168048)
(-0.00174952 -0.000649807 0.000152872)
(-0.00178524 -0.000664694 0.000134626)
(-0.00182024 -0.000678665 0.000113463)
(-0.00184979 -0.000690694 8.71057e-05)
(-0.00187667 -0.000700715 5.44735e-05)
(-0.0018903 -0.000706315 1.85156e-05)
(-0.000171084 -1.63938e-05 4.50434e-05)
(-0.000235938 -5.00763e-05 -4.43472e-05)
(-0.000261407 -7.91916e-05 -5.10513e-05)
(-0.000281268 -0.000112903 -4.95186e-05)
(-0.000307794 -0.000150573 -4.30392e-05)
(-0.00035089 -0.00019388 -3.43346e-05)
(-0.000415596 -0.000243879 -2.24028e-05)
(-0.000500977 -0.000297804 -4.63699e-06)
(-0.000601682 -0.000349991 1.99749e-05)
(-0.000709141 -0.000393999 4.99216e-05)
(-0.00081719 -0.000426868 8.22887e-05)
(-0.000921225 -0.00044853 0.0001139)
(-0.0010177 -0.00046087 0.000142134)
(-0.00110501 -0.00046701 0.000165359)
(-0.00118222 -0.000469887 0.000182837)
(-0.00124992 -0.000472076 0.000194757)
(-0.00130952 -0.000475337 0.000201891)
(-0.00136279 -0.000480551 0.000205244)
(-0.00141114 -0.000487777 0.000205695)
(-0.00145618 -0.000496993 0.000204027)
(-0.00149887 -0.000507782 0.000200724)
(-0.00153976 -0.000519779 0.000195988)
(-0.00157908 -0.000532626 0.000189833)
(-0.001617 -0.000546104 0.000182066)
(-0.00165368 -0.000559948 0.000172415)
(-0.00168937 -0.000573925 0.000160444)
(-0.00172459 -0.000587786 0.000146194)
(-0.00175862 -0.000601067 0.000128845)
(-0.00179232 -0.000613588 0.000108795)
(-0.00182021 -0.000624378 8.35316e-05)
(-0.00184636 -0.000633298 5.21097e-05)
(-0.00185929 -0.000638178 1.774e-05)
(-0.000127892 -3.19046e-06 4.37265e-05)
(-0.000187786 -2.98769e-05 -3.87134e-05)
(-0.000212156 -5.36235e-05 -4.77902e-05)
(-0.000228685 -8.1649e-05 -4.84072e-05)
(-0.000248817 -0.000112713 -4.47256e-05)
(-0.000283732 -0.000149014 -4.01225e-05)
(-0.000340925 -0.00019319 -3.41748e-05)
(-0.000420669 -0.000243561 -2.37246e-05)
(-0.000516962 -0.000294242 -5.96483e-06)
(-0.000625411 -0.000340246 1.895e-05)
(-0.000737984 -0.000376544 4.83233e-05)
(-0.000848082 -0.000401516 7.89758e-05)
(-0.000951613 -0.00041641 0.000107968)
(-0.00104549 -0.000423722 0.000133077)
(-0.00112913 -0.000426776 0.000153178)
(-0.00120275 -0.000428324 0.000168028)
(-0.00126745 -0.000430344 0.000178093)
(-0.00132462 -0.000433866 0.000184158)
(-0.00137616 -0.000439334 0.000187099)
(-0.00142329 -0.000446706 0.000187633)
(-0.00146705 -0.00045564 0.000186265)
(-0.00150806 -0.000465818 0.000183224)
(-0.00154695 -0.000476958 0.000178592)
(-0.00158361 -0.000488739 0.000172146)
(-0.00161854 -0.000500934 0.000163633)
(-0.00165211 -0.000513274 0.000152628)
(-0.00168514 -0.000525515 0.000139297)
(-0.00171714 -0.000537262 0.000122856)
(-0.00174896 -0.000548295 0.000103951)
(-0.00177449 -0.000557831 7.97969e-05)
(-0.00179984 -0.000565708 4.96224e-05)
(-0.00181213 -0.000569953 1.6926e-05)
(-8.09873e-05 5.8794e-06 3.93652e-05)
(-0.000133004 -1.32975e-05 -3.13076e-05)
(-0.000154534 -3.07974e-05 -4.24786e-05)
(-0.000166117 -5.21531e-05 -4.45129e-05)
(-0.000178254 -7.5198e-05 -4.24209e-05)
(-0.000200823 -0.000101635 -4.06036e-05)
(-0.000244652 -0.000136387 -3.96045e-05)
(-0.000316044 -0.000181742 -3.62365e-05)
(-0.000415222 -0.000234223 -2.68178e-05)
(-0.000526622 -0.000283052 -9.53023e-06)
(-0.000643724 -0.000323638 1.51021e-05)
(-0.000760222 -0.000352902 4.36103e-05)
(-0.000870434 -0.000370947 7.2525e-05)
(-0.000971861 -0.000380423 9.91743e-05)
(-0.00106243 -0.000384213 0.000121768)
(-0.0011422 -0.000385371 0.000139589)
(-0.00121205 -0.000386198 0.000152729)
(-0.0012736 -0.00038814 0.000161779)
(-0.00132803 -0.000391698 0.000167412)
(-0.00137704 -0.000397111 0.000170352)
(-0.00142178 -0.000404154 0.000171126)
(-0.00146289 -0.000412554 0.000169964)
(-0.00150078 -0.000421933 0.000166949)
(-0.00153584 -0.000432091 0.000161914)
(-0.00156854 -0.000442726 0.000154583)
(-0.00159965 -0.000453564 0.00014457)
(-0.0016302 -0.000464328 0.00013217)
(-0.00165971 -0.000474603 0.000116636)
(-0.00168952 -0.000484306 9.89389e-05)
(-0.00171264 -0.0004928 7.59359e-05)
(-0.00173676 -0.000499599 4.70171e-05)
(-0.00174816 -0.000503196 1.60724e-05)
(-3.93667e-05 9.47848e-06 3.13196e-05)
(-7.89817e-05 -3.41898e-06 -2.24359e-05)
(-0.000101653 -1.55212e-05 -3.20251e-05)
(-0.000116225 -3.09677e-05 -3.835e-05)
(-0.000124799 -4.89814e-05 -3.83891e-05)
(-0.000142361 -6.81847e-05 -3.69001e-05)
(-0.000179777 -9.42859e-05 -3.97304e-05)
(-0.000237701 -0.000130086 -4.49284e-05)
(-0.000311427 -0.000173837 -4.46806e-05)
(-0.000418503 -0.000224881 -3.40226e-05)
(-0.000538115 -0.00026903 -1.5387e-05)
(-0.000659452 -0.000302881 9.47027e-06)
(-0.000776724 -0.000325234 3.71869e-05)
(-0.000884569 -0.000337293 6.45102e-05)
(-0.000981838 -0.000342417 8.9128e-05)
(-0.00106781 -0.000343662 0.000109744)
(-0.00114313 -0.000343665 0.000126018)
(-0.00120873 -0.000344064 0.000138157)
(-0.00126656 -0.000345913 0.000146746)
(-0.00131771 -0.000349487 0.000152337)
(-0.00136327 -0.000354667 0.000155439)
(-0.00140399 -0.000361275 0.000156282)
(-0.00144087 -0.000369045 0.000155031)
(-0.00147378 -0.000377658 0.000151477)
(-0.00150375 -0.000386846 0.000145352)
(-0.00153171 -0.000396272 0.000136304)
(-0.00155913 -0.00040563 0.000124803)
(-0.00158579 -0.000414554 0.000110176)
(-0.00161296 -0.000422956 9.37245e-05)
(-0.00163261 -0.000430383 7.18758e-05)
(-0.00165569 -0.000436256 4.42621e-05)
(-0.00166628 -0.000439294 1.51706e-05)
(-1.56711e-05 8.03288e-06 2.16771e-05)
(-2.66712e-05 1.87453e-08 -1.02562e-05)
(-3.54643e-05 -2.84854e-06 -1.88871e-05)
(-3.98011e-05 -1.15306e-05 -2.36024e-05)
(-4.35382e-05 -1.97097e-05 -2.20187e-05)
(-4.46007e-05 -2.35546e-05 -2.11089e-05)
(-6.70688e-05 -4.32428e-05 -2.72034e-05)
(-0.000120153 -7.79309e-05 -3.07962e-05)
(-0.000213616 -0.000118016 -4.18135e-05)
(-0.000303615 -0.000160754 -5.12544e-05)
(-0.000421216 -0.000211145 -4.09901e-05)
(-0.00054686 -0.000250612 -2.14687e-05)
(-0.000669101 -0.000277787 3.44854e-06)
(-0.000784165 -0.000294064 3.02999e-05)
(-0.000887837 -0.000301459 5.61109e-05)
(-0.000979886 -0.00030354 7.90728e-05)
(-0.00106034 -0.000303165 9.82818e-05)
(-0.00113056 -0.000302536 0.000113594)
(-0.00119113 -0.000302738 0.000125192)
(-0.00124387 -0.000304515 0.000133544)
(-0.00129007 -0.000307944 0.000139137)
(-0.00133038 -0.000312943 0.00014215)
(-0.00136547 -0.00031913 0.000142721)
(-0.00139588 -0.000326368 0.000140726)
(-0.00142258 -0.000334276 0.000135827)
(-0.00144708 -0.000342507 0.000127749)
(-0.00147114 -0.000350672 0.00011714)
(-0.00149457 -0.000358355 0.000103416)
(-0.00151903 -0.000365662 8.8296e-05)
(-0.00153558 -0.000372378 6.76667e-05)
(-0.00155691 -0.000377255 4.13568e-05)
(-0.00156644 -0.00037975 1.42164e-05)
(7.32985e-06 9.55637e-06 2.28666e-05)
(1.16561e-07 4.77153e-06 -9.86933e-06)
(-7.02359e-06 3.58201e-07 -1.85956e-05)
(-1.18663e-05 -5.77334e-06 -2.11537e-05)
(-2.28907e-05 -1.41992e-05 -3.12878e-05)
(-3.25217e-05 -2.50542e-05 -3.56006e-05)
(-2.83349e-05 -2.54112e-05 -2.44411e-05)
(-3.50755e-05 -3.1269e-05 -2.03266e-05)
(-7.31573e-05 -5.67463e-05 -2.29316e-05)
(-0.000200002 -0.000105951 -4.07094e-05)
(-0.000301247 -0.000147307 -5.56165e-05)
(-0.000424245 -0.000194813 -4.57879e-05)
(-0.000551847 -0.000228737 -2.61542e-05)
(-0.000671102 -0.000249756 -1.63661e-06)
(-0.000781241 -0.000260967 2.40448e-05)
(-0.000879038 -0.000264926 4.84235e-05)
(-0.000964703 -0.000265063 7.01244e-05)
(-0.00103839 -0.000263745 8.8347e-05)
(-0.00110222 -0.000262896 0.000103022)
(-0.00115684 -0.000263288 0.000114254)
(-0.0012034 -0.000265173 0.000122442)
(-0.00124256 -0.000268668 0.00012768)
(-0.00127593 -0.000273567 0.000130194)
(-0.00130319 -0.000279581 0.000129789)
(-0.00132607 -0.000286399 0.000126106)
(-0.00134639 -0.000293574 0.000118934)
(-0.00136636 -0.000300644 0.00010915)
(-0.00138624 -0.000307196 9.63261e-05)
(-0.00140733 -0.000313473 8.2592e-05)
(-0.00141917 -0.000319353 6.31746e-05)
(-0.00143935 -0.000323475 3.82522e-05)
(-0.00144795 -0.000325545 1.31947e-05)
(2.09234e-05 8.22736e-06 2.37638e-05)
(2.41222e-05 6.28249e-06 -4.37637e-06)
(1.9909e-05 4.72022e-06 -6.89553e-06)
(1.06931e-05 2.74363e-06 -1.08706e-05)
(2.68077e-06 -1.43801e-06 -1.39635e-05)
(-4.07924e-06 -5.23292e-06 -1.52741e-05)
(-1.30744e-05 -6.92182e-06 -2.02208e-05)
(-2.10982e-05 -1.49798e-05 -2.46415e-05)
(-3.71475e-05 -3.0495e-05 -3.07977e-05)
(-6.27883e-05 -5.28775e-05 -2.3414e-05)
(-0.000191473 -9.44161e-05 -3.77915e-05)
(-0.000303203 -0.000135592 -5.89853e-05)
(-0.000426392 -0.000177483 -4.88537e-05)
(-0.000551275 -0.000205421 -2.914e-05)
(-0.000663879 -0.000220484 -5.7534e-06)
(-0.000766294 -0.000227417 1.88853e-05)
(-0.000856154 -0.00022897 4.22668e-05)
(-0.000934214 -0.000228105 6.30605e-05)
(-0.00099992 -0.000226569 8.05265e-05)
(-0.0010553 -0.000225881 9.45022e-05)
(-0.00110184 -0.000226562 0.000105296)
(-0.00113988 -0.000228946 0.000112842)
(-0.00117042 -0.000232648 0.000117255)
(-0.00119419 -0.000237688 0.000118475)
(-0.00121276 -0.000243623 0.000115987)
(-0.00122867 -0.000249987 0.000109691)
(-0.00124455 -0.000256195 0.000100714)
(-0.00126067 -0.000261692 8.87974e-05)
(-0.00127847 -0.000267165 7.65671e-05)
(-0.00128681 -0.000272694 5.84844e-05)
(-0.00130473 -0.000275915 3.49503e-05)
(-0.00131223 -0.000277594 1.21021e-05)
(3.44756e-05 1.42174e-05 4.06133e-05)
(4.41114e-05 1.1533e-05 -8.01504e-06)
(4.53253e-05 6.14129e-06 -1.20489e-05)
(4.16706e-05 -2.2525e-06 -1.29805e-05)
(3.52707e-05 -8.90333e-06 -1.15358e-05)
(2.47893e-05 -1.20983e-05 -7.81785e-06)
(8.59785e-06 -8.40298e-06 -6.91e-06)
(-3.80879e-06 -5.08636e-06 -1.2206e-05)
(-2.49788e-05 -9.67937e-06 -2.77426e-05)
(-3.90203e-05 -3.00896e-05 -3.94715e-05)
(-5.37615e-05 -4.29063e-05 -2.59515e-05)
(-0.000172568 -8.47923e-05 -4.60829e-05)
(-0.000295084 -0.000121663 -5.9574e-05)
(-0.000414219 -0.000156442 -4.87526e-05)
(-0.000536765 -0.000178904 -2.98635e-05)
(-0.00064433 -0.000190242 -7.83745e-06)
(-0.00073815 -0.00019475 1.5855e-05)
(-0.000817735 -0.000194867 3.83413e-05)
(-0.000885963 -0.000193797 5.82635e-05)
(-0.000942451 -0.000192839 7.47961e-05)
(-0.00098848 -0.000192761 8.80836e-05)
(-0.00102418 -0.000194262 9.78234e-05)
(-0.00105229 -0.000197232 0.000104173)
(-0.00107186 -0.000201471 0.000106966)
(-0.00108553 -0.000206693 0.000105597)
(-0.00109635 -0.000212379 0.000100067)
(-0.00110738 -0.000217754 9.17806e-05)
(-0.00111958 -0.000222163 8.07807e-05)
(-0.00113353 -0.000226917 7.01382e-05)
(-0.00113584 -0.000231714 5.33605e-05)
(-0.00115269 -0.000234307 3.1379e-05)
(-0.00115924 -0.000235798 1.09148e-05)
(4.48244e-05 1.58803e-05 4.66679e-05)
(6.09229e-05 1.34778e-05 -8.15821e-06)
(6.68396e-05 9.38933e-06 -1.55107e-05)
(6.8243e-05 1.55796e-06 -1.91398e-05)
(6.56069e-05 -7.24455e-06 -1.99739e-05)
(5.8842e-05 -1.51162e-05 -1.8575e-05)
(4.67927e-05 -2.12174e-05 -1.60015e-05)
(3.12828e-05 -2.16902e-05 -1.22971e-05)
(1.11721e-05 -1.69923e-05 -9.41839e-06)
(-2.02264e-05 -3.97396e-06 -2.76886e-05)
(-2.60548e-05 -2.50029e-05 -3.46166e-05)
(-5.73514e-05 -3.46628e-05 -2.44962e-05)
(-0.000183163 -6.78607e-05 -4.96687e-05)
(-0.000306775 -0.000103611 -5.99914e-05)
(-0.000408918 -0.000135036 -5.15755e-05)
(-0.000515193 -0.000153346 -3.10195e-05)
(-0.000610607 -0.000161181 -7.86776e-06)
(-0.000693808 -0.000164062 1.53208e-05)
(-0.00076164 -0.000163911 3.68255e-05)
(-0.000817069 -0.000163188 5.53079e-05)
(-0.000861956 -0.000162913 7.0783e-05)
(-0.000895637 -0.00016415 8.26131e-05)
(-0.00091958 -0.000166456 9.0621e-05)
(-0.000934767 -0.000170138 9.49198e-05)
(-0.000943262 -0.000174789 9.45864e-05)
(-0.000949046 -0.000179996 8.97577e-05)
(-0.000955744 -0.000184728 8.2153e-05)
(-0.000964308 -0.000188008 7.21172e-05)
(-0.000974508 -0.000192186 6.32095e-05)
(-0.000973759 -0.000196913 4.79863e-05)
(-0.000988006 -0.000198659 2.75729e-05)
(-0.000993415 -0.000199965 9.63689e-06)
(5.25278e-05 1.48089e-05 4.75173e-05)
(7.34577e-05 1.23708e-05 -7.382e-06)
(8.30507e-05 8.55612e-06 -1.59413e-05)