/*--------------------------------*- C++ -*----------------------------------*\
  =========                 |
  \\      /  F ield         | OpenFOAM: The Open Source CFD Toolbox
   \\    /   O peration     | Website:  https://openfoam.org
    \\  /    A nd           | Version:  6
     \\/     M anipulation  |
\*---------------------------------------------------------------------------*/
FoamFile
{
    version     2.0;
    format      ascii;
    class       volScalarField;
    location    "0.6";
    object      yPlus;
}
// * * * * * * * * * * * * * * * * * * * * * * * * * * * * * * * * * * * * * //

dimensions      [0 0 0 0 0 0 0];

internalField   uniform 0;

boundaryField
{
    inlet
    {
        type            calculated;
        value           uniform 0;
    }
    outlet
    {
        type            calculated;
        value           uniform 0;
    }
    roughCylinder
    {
        type            calculated;
        value           nonuniform List<scalar> 
5120
(
99.5782
63.8222
54.7344
57.0113
61.8711
65.898
69.2885
72.2571
74.9789
77.5313
79.9569
82.2746
84.4948
86.6342
88.7203
90.7854
92.8583
94.9598
97.1015
99.2897
101.528
103.815
106.146
108.513
110.9
113.282
115.623
117.867
119.939
121.734
123.134
123.975
90.6699
64.5843
54.5025
56.0565
60.7508
64.7067
68.0535
70.9908
73.6805
76.1897
78.5603
80.8158
82.9694
85.0396
87.0544
89.0465
91.0445
93.0697
95.1338
97.2434
99.4019
101.608
103.857
106.143
108.447
110.749
113.011
115.182
117.186
118.923
120.279
121.097
75.0039
62.6045
54.0709
55.1366
59.6421
63.5407
66.8545
69.7689
72.4276
74.8923
77.2035
79.3945
81.4799
83.4794
85.4217
87.3398
89.2621
91.2101
93.1957
95.2254
97.3029
99.427
101.594
103.796
106.018
108.237
110.421
112.516
114.451
116.129
117.44
118.234
98.4192
63.1524
53.5375
54.2198
58.5813
62.4299
65.7207
68.6175
71.2454
73.6643
75.9155
78.0412
80.0583
81.9877
83.8588
85.7041
87.5525
89.4251
91.3339
93.2856
95.2839
97.3281
99.4143
101.535
103.677
105.816
107.922
109.945
111.812
113.432
114.699
115.47
87.4115
63.3519
53.383
53.4019
57.5688
61.3791
64.6516
67.5326
70.1292
72.5021
74.6949
76.7563
78.7061
80.567
82.3684
84.1435
85.9204
87.7201
89.5549
91.4313
93.3532
95.3197
97.3282
99.3707
101.434
103.497
105.528
107.48
109.283
110.847
112.072
112.82
79.2756
61.9876
52.7148
52.5852
56.6115
60.388
63.6452
66.5102
69.0749
71.4023
73.5408
75.5381
77.4223
79.2163
80.9507
82.6579
84.3661
86.096
87.8596
89.6635
91.5118
93.4039
95.3374
97.3044
99.2925
101.281
103.241
105.124
106.865
108.376
109.561
110.287
77.1016
62.7256
52.7575
51.8753
55.71
59.4586
62.7002
65.5478
68.08
70.3636
72.4504
74.3865
76.2068
77.9364
79.6059
81.2481
82.8905
84.5535
86.2491
87.9838
89.7617
91.5826
93.4436
95.3386
97.2543
99.1719
101.063
102.881
104.563
106.022
107.168
107.874
74.7345
61.9775
52.4324
51.2148
54.8669
58.5855
61.8117
64.6406
67.1413
69.3832
71.421
73.2993
75.0587
76.7264
78.3338
79.9138
81.4934
83.0924
84.723
86.3914
88.1018
89.8543
91.6464
93.4714
95.3185
97.1684
98.993
100.75
102.374
103.785
104.894
105.58
76.7465
63.0295
52.5296
50.6333
54.0756
57.768
60.9775
63.7861
66.2568
68.4595
70.4514
72.2775
73.9781
75.5862
77.1346
78.6549
80.1746
81.7129
83.2816
84.887
86.533
88.2203
89.9463
91.7051
93.486
95.2711
97.0329
98.7297
100.3
101.664
102.738
103.406
69.5593
62.51
52.6046
50.1495
53.3401
56.9971
60.1896
62.9785
65.4216
67.588
69.5373
71.3151
72.9605
74.513
76.0044
77.4686
78.9314
80.4117
81.9212
83.4663
85.0508
86.6756
88.3384
90.0337
91.7518
93.4749
95.1768
96.8172
98.3361
99.655
100.696
101.346
94.3055
63.3475
52.6313
49.7155
52.6451
56.2696
59.4469
62.2166
64.6347
66.7677
68.6777
70.4107
72.0068
73.5057
74.9447
76.3551
77.7637
79.189
80.6425
82.1303
83.6561
85.2211
86.8232
88.4577
90.1155
91.7789
93.4236
95.0099
96.4801
97.7564
98.7655
99.3999
86.0381
64.1469
52.8029
49.3694
51.9975
55.5742
58.7388
61.4925
63.8891
65.9925
67.8667
69.5588
71.1096
72.5601
73.948
75.308
76.6654
78.0383
79.438
80.8707
82.3403
83.848
85.3922
86.9686
88.568
90.1752
91.7655
93.3005
94.7236
95.9597
96.9381
97.5575
71.996
62.7243
52.8506
49.0633
51.3773
54.9054
58.0648
60.8065
63.1851
65.263
67.1046
68.7588
70.2679
71.6736
73.0157
74.3282
75.637
76.96
78.3086
79.6887
81.1038
82.5557
84.0432
85.563
87.1063
88.6584
90.1964
91.6818
93.0605
94.2576
95.2075
95.8124
93.7703
63.6081
53.0131
48.8333
50.7931
54.2549
57.4124
60.1471
62.5127
64.57
66.3832
68.003
69.4734
70.8374
72.1364
73.4041
74.6667
75.9419
77.2409
78.5699
79.9326
81.3306
82.7635
84.2282
85.7173
87.2165
88.7038
90.1422
91.4779
92.6376
93.5599
94.1522
84.8024
64.4821
53.348
48.665
50.2302
53.6161
56.7802
59.5163
61.8747
63.9164
65.7043
67.2929
68.7276
70.0527
71.3107
72.5355
73.7539
74.983
76.234
77.5133
78.825
80.171
81.5511
82.9628
84.3994
85.848
87.2865
88.6794
89.9736
91.0972
91.9929
92.5733
71.3162
63.1981
53.5897
48.5585
49.6896
52.9773
56.1504
58.8976
61.2565
63.2882
65.0558
66.6166
68.0185
69.3073
70.5262
71.7101
72.8859
74.0705
75.275
76.5061
77.7682
79.0638
80.393
81.7536
83.1397
84.539
85.9309
87.2799
88.5348
89.6235
90.4936
91.0627
91.6394
64.0348
53.8628
48.5219
49.1738
52.3347
55.5232
58.2947
60.6628
62.6907
64.4428
65.979
67.3507
68.6052
69.7867
70.9312
72.0657
73.207
74.3661
75.5503
76.7642
78.0105
79.2899
80.6009
81.9379
83.2897
84.6362
85.9433
87.1595
88.2148
89.0598
89.6184
82.9657
65.2846
54.5086
48.5709
48.6725
51.671
54.8758
57.6826
60.0718
62.104
63.8467
65.3622
66.7064
67.9288
69.0746
70.1812
71.2755
72.3747
73.4898
74.6283
75.7951
76.9935
78.2247
79.4874
80.7769
82.0827
83.3855
84.6518
85.8308
86.8531
87.674
88.2233
69.7463
62.8782
54.5659
48.6512
48.1972
50.9858
54.2091
57.0666
59.4917
61.5378
63.277
64.776
66.095
67.2866
68.3977
69.4668
70.5214
71.5789
72.6505
73.7439
74.8644
76.0157
77.1994
78.4148
79.6576
80.9183
82.1783
83.4047
84.5477
85.5381
86.3354
86.8756
78.323
64.7181
55.1198
48.8169
47.7517
50.2623
53.4909
56.4119
58.8884
60.9609
62.7047
64.1929
65.4898
66.6525
67.7301
68.7626
69.778
70.7943
71.8231
72.8721
73.9472
75.0522
76.1896
77.3587
78.5562
79.773
80.9913
82.179
83.2865
84.2454
85.0197
85.5517
69.7275
64.2616
55.6038
49.0085
47.3092
49.4934
52.7225
55.7269
58.275
60.3901
62.148
63.6303
64.9081
66.0426
67.0864
68.0812
69.0563
70.0305
71.0156
72.0199
73.0492
74.1081
75.199
76.3222
77.4746
78.6477
79.8247
80.974
82.0471
82.9745
83.7257
84.2506
85.3886
64.5894
55.9058
49.3165
46.9522
48.6773
51.8608
54.9593
57.6006
59.7759
61.561
63.0452
64.3083
65.4172
66.4281
67.3856
68.3202
69.2516
70.1925
71.1516
72.1351
73.1479
74.1932
75.2712
76.3792
77.5095
78.6462
79.7578
80.796
81.6924
82.4211
82.94
88.5768
65.4395
56.1574
49.4561
46.5458
47.7933
50.9077
54.1203
56.8852
59.1453
60.9741
62.4688
63.7206
64.8042
65.7806
66.6972
67.5875
68.4729
69.3665
70.2778
71.2136
72.179
73.1773
74.2092
75.2726
76.3596
77.4553
78.5291
79.5339
80.3988
81.1043
81.6177
75.0333
64.9195
56.6294
49.8452
46.2602
46.8502
49.8039
53.1309
56.0502
58.4232
60.3145
61.8324
63.0797
64.1414
65.0849
65.9608
66.8058
67.6428
68.4869
69.3483
70.2347
71.1518
72.1032
73.0896
74.1081
75.1525
76.208
77.2445
78.2135
79.0475
79.7311
80.2407
85.8607
66.0431
56.9669
50.0348
45.9408
45.8458
48.5591
52.0053
55.1225
57.6497
59.6315
61.1884
62.4373
63.4761
64.3808
65.2097
66.0016
66.7832
67.5712
68.3771
69.2094
70.0745
70.9755
71.9133
72.8864
73.8864
74.9003
75.8981
76.8353
77.6364
78.296
78.8029
70.9538
63.5918
56.6672
50.1669
45.627
44.7451
47.0885
50.6243
53.9785
56.707
58.8117
60.4253
61.6879
62.711
63.5819
64.3625
65.0989
65.8202
66.5466
67.2923
68.0671
68.8775
69.7279
70.6181
71.5441
72.5006
73.4735
74.4341
75.3329
76.104
76.7422
77.249
73.9533
64.5323
56.8862
50.301
45.346
43.6004
45.4087
48.9958
52.6483
55.6498
57.9293
59.63
60.9151
61.919
62.7429
63.4635
64.1302
64.7786
65.4326
66.1075
66.8157
67.5648
68.3575
69.1939
70.0719
70.9815
71.9115
72.8316
73.7014
74.4352
75.0484
75.5564
68.14
62.7664
56.4077
50.168
44.935
42.3064
43.395
46.9479
50.9301
54.2886
56.8033
58.6233
59.9521
60.9529
61.7415
62.3999
62.9914
63.5569
64.1254
64.7203
65.3551
66.0375
66.7717
67.5551
68.3819
69.2462
70.134
71.0178
71.8443
72.5535
73.1469
73.6628
67.3729
61.8313
55.8618
49.9241
44.4866
40.9519
41.0751
44.418
48.8499
52.6852
55.5383
57.5337
58.9188
59.9017
60.6275
61.2038
61.6972
62.1598
62.6288
63.127
63.6733
64.2781
64.9421
65.664
66.438
67.253
68.0975
68.9394
69.7446
70.4061
70.9748
71.4974
69.1876
60.8836
55.1178
49.3354
43.7532
39.3786
38.3192
41.2165
46.008
50.5307
53.8375
56.0845
57.5743
58.5716
59.2526
59.7328
60.1086
60.4402
60.7753
61.1547
61.5991
62.115
62.7065
63.3644
64.0821
64.8498
65.6518
66.4629
67.2195
67.8748
68.429
68.982
72.5795
60.8848
54.6346
48.7774
42.908
37.6167
35.114
37.295
42.5094
47.8196
51.8408
54.4176
56.0128
56.9855
57.5763
57.9375
58.1634
58.3421
58.532
58.7714
59.0877
59.5021
60.005
60.594
61.254
61.9738
62.7423
63.5149
64.2709
64.8596
65.3946
65.9616
70.0805
59.8494
53.7854
47.9459
41.7671
35.4388
31.0343
31.9874
37.7475
44.1468
49.0192
52.1701
53.9966
54.9916
55.4668
55.6165
55.6076
55.5255
55.4671
55.498
55.6659
55.9468
56.3548
56.862
57.4609
58.1378
58.8602
59.6292
60.3369
60.9694
61.5118
62.1788
66.2251
58.3426
52.6558
46.7492
40.1571
32.5896
25.5675
24.6965
31.3881
39.5834
45.62
49.2853
51.2318
52.1865
52.5411
52.5116
52.2325
51.895
51.5709
51.3774
51.2989
51.4462
51.7388
52.1804
52.7384
53.3921
54.1815
54.9378
55.7415
56.2828
56.8275
57.5246
62.3572
56.9465
51.6829
45.4924
38.1282
28.6252
15.3305
2.00448
21.5573
33.1764
41.1456
45.697
47.9942
48.7884
48.5943
47.8476
46.8795
45.8634
45.1089
44.5044
44.3622
44.3108
44.5139
44.8551
45.3162
45.9438
46.4948
47.3235
47.857
48.6075
49.2558
50.3313
58.3472
55.3281
50.6212
44.1209
35.6433
23.0349
15.3385
8.77715
21.2956
25.4036
35.0949
40.1111
42.1508
42.8208
42.5724
41.6391
40.2299
38.5925
36.1072
34.8588
33.643
33.2806
33.1701
33.4667
34.1267
34.9451
36.478
37.6199
40.5117
40.9759
41.7449
42.7422
55.007
53.6252
49.3764
42.5496
32.6438
14.5012
19.7454
19.2677
19.4443
8.14301
28.7678
34.9421
36.6876
34.3444
30.1661
24.2825
14.411
27.7255
22.022
22.4194
11.7978
12.3737
13.3587
14.5224
15.1511
16.2856
25.9329
26.2705
33.9464
33.4087
33.889
12.2741
52.54
51.971
47.9562
40.6518
28.8924
21.7007
19.1963
20.2252
11.0093
20.6028
14.6898
22.3892
23.1339
12.9073
16.9552
24.2156
24.0055
13.2185
26.2085
26.6543
26.343
26.9023
27.4773
28.4485
28.5978
29.3524
19.5105
19.5087
18.9045
31.6429
31.9565
21.4617
51.3721
50.9128
46.8273
38.9489
25.6691
10.6656
20.4276
20.9524
21.4755
11.9551
9.8116
8.49948
9.53587
12.6643
24.4851
24.2524
26.7817
26.5969
26.8709
27.3699
27.7984
28.2168
28.7706
13.0015
29.6228
29.9134
31.1995
32.3744
8.01339
25.6242
25.9214
34.2926
50.9429
50.253
46.1029
37.731
23.0012
4.25717
10.2635
16.8782
15.184
13.8199
22.8576
15.8298
13.746
25.0654
15.8203
5.92363
26.8078
30.2067
29.6318
29.8631
30.1185
31.7373
31.8884
14.1087
32.0742
32.2037
32.6094
19.2329
16.8562
19.6637
21.3248
26.7313
50.9251
50.6953
47.0267
39.7361
27.3113
10.2709
14.3935
20.352
15.3392
15.1161
20.9931
19.7422
8.26
6.08185
27.5607
11.8099
23.0567
11.9849
7.41842
6.19972
7.50946
26.7883
23.5395
15.705
17.4698
16.232
14.7626
37.3682
36.6412
29.3478
22.2245
29.9384
43.9783
30.2384
12.8985
3.22123
15.9399
34.6114
57.1249
64.7506
50.3106
35.0416
30.0815
20.009
15.9256
13.5949
11.4605
6.70476
8.30943
5.25318
5.41
5.18154
5.17065
5.39465
5.24114
8.31266
6.65017
11.4232
13.6418
15.965
19.9333
29.8959
34.8244
50.0235
64.4599
57.0257
34.6887
16.095
3.36536
12.597
30.2836
44.5915
48.3167
41.4589
27.0714
12.902
22.9885
33.0664
37.9822
32.823
21.7453
20.8185
18.5
16.6171
15.7248
14.5496
13.7084
12.9609
12.8996
12.5379
12.7438
12.9355
12.9072
12.7086
12.5186
12.8948
12.972
13.7274
14.5828
15.7661
16.6469
18.5071
20.8043
21.7006
32.61
37.7902
32.9253
23.1143
12.6326
26.8368
41.7507
49.1169
46.8761
43.9566
31.1779
10.874
22.2924
29.3843
28.1004
24.1426
22.6921
23.9328
22.7036
21.4365
19.7795
18.5138
17.4626
16.7482
16.3293
16.1196
16.1938
16.3336
16.3069
16.1683
16.1146
16.3437
16.7799
17.5066
18.5661
19.8295
21.4858
22.7356
23.9671
22.7145
24.0496
27.9346
29.1618
22.4364
10.4242
30.982
44.3556
47.7149
41.8342
43.2852
32.7633
9.58947
20.5428
27.4756
24.9445
25.8619
27.2878
28.9442
28.3498
26.5308
24.2326
22.3503
20.808
19.7447
19.0617
18.7681
18.7951
18.9689
18.9516
18.7905
18.7862
19.0973
19.7934
20.8664
22.4144
24.2907
26.5838
28.3839
28.9871
27.313
25.8347
24.882
27.2316
20.7398
9.09719
32.6063
43.7516
42.6299
32.8475
40.2407
32.643
17.1003
19.2807
27.3057
25.839
28.6596
30.8707
32.8177
32.7726
30.7578
28.0574
25.5759
23.5161
22.0335
21.0823
20.6647
20.6843
20.9309
20.9234
20.7011
20.7045
21.1351
22.0938
23.5814
25.6419
28.1123
30.8033
32.7971
32.8563
30.8881
28.6599
25.8143
27.1302
19.3825
16.9945
32.4849
40.7338
33.5624
14.433
34.2633
31.2873
7.10483
10.538
29.2217
27.201
30.6437
33.0689
35.2745
35.6717
33.9271
31.1409
28.258
25.7486
23.865
22.6504
22.1196
22.1664
22.5212
22.5221
22.201
22.1748
22.7129
23.9292
25.8128
28.3162
31.185
33.9573
35.683
35.3051
33.0699
30.6504
27.214
28.9471
12.0599
6.73767
31.1913
34.7757
15.3878
19.509
29.3127
29.5817
11.7643
19.5062
29.2118
28.5309
31.918
34.0001
36.2192
37.1007
35.8605
33.3496
30.335
27.5381
25.3511
23.9263
23.3232
23.4564
23.9594
23.9663
23.5026
23.385
23.9891
25.41
27.5916
30.3785
33.3751
35.875
37.0993
36.2367
33.984
31.9307
28.521
28.9798
19.6192
11.8712
29.4102
29.7222
19.6648
20.778
18.4856
26.8281
21.8466
20.884
25.6244
30.6187
32.3771
34.124
36.2393
37.1203
36.4431
34.3938
31.6176
28.7821
26.47
24.9484
24.3762
24.6682
25.3692
25.3796
24.7189
24.4354
25.0022
26.5139
28.8179
31.638
34.4008
36.4375
37.1069
36.2474
34.0878
32.4008
30.5471
25.455
20.8919
21.8369
26.7506
19.1131
20.8454
18.7901
14.9388
24.12
22.7331
13.0557
20.1392
32.0968
31.6311
34.3982
35.1027
36.3249
35.7773
34.2865
31.8883
29.32
27.1081
25.6832
25.2768
25.8617
26.791
26.803
25.9129
25.3262
25.7186
27.1305
29.33
31.8865
34.2719
35.756
36.3028
35.0865
34.3461
31.6557
31.9542
19.9241
13.4046
23.3609
23.9314
15.1897
18.9108
16.1819
18.4343
20.7746
4.95674
13.4212
7.10117
32.3055
31.5813
33.6228
33.9836
34.8388
34.4825
33.1464
31.2159
28.9702
27.1282
26.0258
26.086
27.0314
28.2162
28.2297
27.0805
26.1242
26.0411
27.1202
28.9483
31.1835
33.1094
34.4417
34.7942
33.9576
33.5409
31.5512
32.2085
6.57026
11.6056
16.2446
20.57
18.5264
16.4522
15.244
13.7932
17.1919
25.1578
23.1974
13.2209
30.1139
31.6322
32.4741
32.5529
32.8827
32.3037
31.1757
29.3852
27.7292
26.5108
26.1907
26.8367
28.2319
29.6075
29.622
28.2867
26.8673
26.1886
26.4778
27.6735
29.306
31.1076
32.2031
32.8466
32.4187
32.4459
31.5602
29.8665
12.6879
22.5523
25.2249
17.9584
13.2545
16.3314
28.123
10.9044
29.0649
16.0604
14.3972
9.97966
28.8577
31.7781
30.5825
30.5284
29.7099
29.2933
27.9036
26.89
26.0597
25.9871
26.5214
27.8237
29.4996
30.957
30.9753
29.5599
27.8649
26.5195
25.9513
25.9741
26.8037
27.7533
29.1968
29.5251
30.4708
30.3177
31.7853
28.7423
11.869
22.685
25.826
28.6877
11.3079
25.2344
23.94
21.2665
16.3545
20.3861
23.0522
11.5616
28.8596
31.0933
26.7941
27.5414
26.0861
25.8049
25.1461
25.1855
25.4863
26.4089
27.6041
29.1812
30.9248
32.318
32.3369
31.0032
29.2403
27.6336
26.3903
25.4456
25.0637
25.061
25.5818
26.0021
27.2357
26.6902
30.7132
28.7033
11.7932
12.0016
19.1387
15.5354
21.4777
20.5649
10.7814
16.0203
18.0485
26.5135
9.46818
15.5107
29.4618
27.7228
23.4459
25.1899
24.3529
24.4143
25.3313
25.7677
27.0592
28.2161
29.5609
31.034
32.6606
33.8046
33.8243
32.7421
31.1313
29.6333
28.277
27.0627
25.7848
25.2234
24.3876
24.1773
25.0015
23.3636
27.529
28.301
19.0016
14.434
26.4035
17.7837
15.6773
10.2701
15.1883
31.342
31.3001
19.6843
14.5212
24.1936
27.7739
25.1652
24.176
26.3871
26.3749
27.4171
28.4969
29.2223
30.422
31.3857
32.3909
33.6243
34.8295
35.6479
35.666
34.9045
33.7301
32.5169
31.5059
30.5427
29.3295
28.5874
27.4468
26.5706
26.0107
24.8791
24.2528
27.5619
25.6169
13.0961
16.3699
31.1646
31.6183
16.1715
17.7576
13.48
8.31935
18.4116
22.3677
26.9306
26.9667
26.662
29.468
30.261
31.9568
32.4443
33.6271
34.0472
34.9399
35.4766
36.0802
36.8674
37.5649
38.0598
38.071
37.6232
36.9582
36.2004
35.6268
35.1032
34.2173
33.8315
32.5796
32.229
30.3583
29.6081
27.2824
25.8569
27.8612
24.5371
10.545
11.0168
18.0735
19.0777
25.5948
35.1869
18.3926
16.9379
29.9167
26.9815
28.8837
33.1007
33.8405
36.6094
36.9556
38.3672
38.6261
39.4198
39.6705
40.0981
40.2446
40.6221
40.9264
41.1243
41.1289
40.9472
40.6771
40.3257
40.2111
39.8005
39.6057
38.758
38.654
37.0247
37.0845
33.6958
34.0858
27.8807
28.982
27.8924
22.352
28.33
31.7582
28.4835
19.622
22.7868
19.6627
22.9481
32.1675
31.1277
34.1661
39.0354
38.9188
42.3169
41.9217
43.7278
43.5877
44.4862
44.4299
44.6713
44.5847
44.6503
44.6896
44.6891
44.6846
44.6822
44.6516
44.6093
44.715
44.5184
44.5515
43.7669
43.7655
42.2235
42.304
39.4128
38.9171
35.0896
30.62
32.6846
25.8917
10.4639
19.5827
18.2027
16.3443
23.5957
17.6073
29.6731
35.7321
35.2475
41.0371
42.5971
44.8924
46.1375
47.033
47.8604
48.2599
48.7591
48.7662
48.7571
48.5947
48.4573
48.3443
48.2315
48.2208
48.3116
48.4251
48.5721
48.7361
48.8098
48.7467
48.3695
47.8539
47.1829
46.1563
45.0821
42.6414
41.4226
35.0641
36.4831
29.3913
18.2658
23.764
14.9445
11.2568
22.3904
24.781
31.4702
38.8208
39.3882
44.8473
46.1249
48.6794
49.4245
50.7117
51.1787
51.8773
52.1155
52.1777
52.0857
51.8467
51.6194
51.3999
51.2333
51.218
51.3552
51.5579
51.7998
52.0305
52.1708
52.0926
51.9073
51.1692
50.7748
49.4071
48.7541
46.2431
44.6366
40.4347
36.9064
35.5908
19.0774
22.4483
12.2602
10.4905
23.3582
27.5529
32.5635
40.6829
41.9218
47.0866
48.631
51.0154
51.9103
53.1497
53.6914
54.4392
54.6065
54.7335
54.5366
54.2873
53.9668
53.6859
53.4816
53.4625
53.6296
53.8911
54.2028
54.4859
54.6598
54.6088
54.3916
53.7166
53.1174
51.9554
50.9364
48.817
46.8435
42.4641
40.1429
33.4857
26.9066
24.9593
13.2259
18.0959
32.9439
24.1642
36.3067
39.8385
44.6884
47.864
50.712
52.448
53.8188
54.8614
55.6251
56.2751
56.4908
56.5788
56.3371
56.02
55.6213
55.2828
55.0422
55.0186
55.212
55.5278
55.9085
56.2551
56.4959
56.4392
56.2541
55.5739
54.8897
53.7246
52.5709
50.4656
48.3442
43.8911
41.349
34.1198
28.475
22.5403
20.7339
18.3423
31.6427
23.7961
38.1981
39.7801
46.3814
48.6684
52.2228
53.6523
55.3122
56.2747
57.1525
57.7272
57.9965
57.9733
57.692
57.2577
56.7847
56.3745
56.096
56.0664
56.2875
56.6619
57.1232
57.5669
57.8695
57.918
57.6771
57.0939
56.2869
55.1881
53.7983
51.9395
49.1248
45.7337
41.0331
36.0159
30.7212
18.097
36.4667
34.0011
16.9416
30.7423
37.2218
41.349
46.8215
50.0389
53.0818
54.979
56.4242
57.6099
58.3883
59.0321
59.2069
59.1314
58.7279
58.1919
57.6177
57.1341
56.8136
56.7765
57.0259
57.4644
58.018
58.5701
58.9827
59.1196
58.9267
58.372
57.5079
56.473
54.8206
53.2799
49.7225
47.4252
40.3687
39.2341
26.0504
25.4539
14.2506
34.1748
14.4249
32.0976
37.6368
42.236
47.4311
51.1283
53.9057
56.1227
57.4186
58.8001
59.4772
60.1943
60.2349
60.1106
59.5567
58.9188
58.236
57.6774
57.3138
57.268
57.5443
58.0477
58.6978
59.367
59.9068
60.1418
60.0404
59.4749
58.669
57.4666
56.0218
53.9303
51.2751
47.0365
43.4034
35.8546
32.6286
20.6402
34.781
11.6216
25.8719
27.9159
40.0137
41.9417
48.603
51.6406
54.9753
56.8862
58.5117
59.7074
60.5857
61.124
61.2017
60.9011
60.2609
59.4912
58.7108
58.0773
57.6719
57.6161
57.9166
58.4815
59.2265
60.0147
60.684
61.0313
61.0232
60.4715
59.7051
58.3838
57.0317
54.6759
52.2842
47.5169
44.2647
36.2436
33.5774
18.7113
34.9929
7.51438
25.8335
27.7855
40.7737
42.5814
49.072
52.5276
55.6247
57.8242
59.2955
60.6809
61.4526
62.0318
61.9948
61.5971
60.8425
59.9527
59.0824
58.3767
57.9327
57.866
58.1865
58.8078
59.642
60.5452
61.3408
61.8065
61.8927
61.3641
60.6344
59.2316
57.876
55.5126
52.8023
48.7527
43.2657
40.1838
27.5881
27.1844
11.0961
37.6278
24.9076
27.7312
41.3632
43.1454
49.4545
53.2994
56.2152
58.6477
60.0157
61.5244
62.2404
62.8154
62.6889
62.1959
61.3264
60.3364
59.3786
58.6094
58.1297
58.0519
58.3888
59.0601
59.9766
60.9856
61.9067
62.4728
62.673
62.1486
61.4757
59.971
58.7012
56.072
53.7729
48.5645
45.4205
37.0197
35.4048
12.0844
30.6598
35.336
21.9157
27.7244
41.3231
43.9763
49.6178
53.9808
56.783
59.301
60.7353
62.1846
62.9912
63.4492
63.3189
62.6897
61.7517
60.6569
59.6297
58.8037
58.2928
58.204
58.5533
59.2674
60.2556
61.3606
62.3859
63.0649
63.3371
62.8584
62.2066
60.6394
59.4241
56.6402
54.3935
49.1012
45.2627
39.8135
28.0142
30.8895
21.7571
36.2098
21.8186
27.0067
41.1183
44.8767
49.6101
54.6572
57.1941
59.9041
61.2963
62.7611
63.5882
64.0092
63.8356
63.1493
62.1267
60.973
59.8834
59.0151
58.479
58.3804
58.7382
59.4849
60.5321
61.7057
62.8223
63.577
63.8993
63.4711
62.7783
61.2714
59.8932
57.3838
54.4286
50.3867
43.8738
42.5242
27.6918
14.353
24.4701
11.7465
26.9132
24.112
41.874
44.8319
50.1817
55.0191
57.6611
60.4494
61.7221
63.3165
64.0352
64.5187
64.2843
63.572
62.5024
61.3053
60.1769
59.2788
58.7252
58.6192
58.9822
59.7535
60.8356
62.0709
63.2256
64.0488
64.3895
63.9714
63.3012
61.7225
60.4558
57.7107
55.0705
50.293
44.8631
42.022
25.5516
23.6556
19.7007
13.3217
27.1062
24.2547
39.7878
45.9051
49.6446
55.3546
57.7646
60.6721
61.961
63.4976
64.273
64.7087
64.4904
63.751
62.6614
61.4377
60.2854
59.3668
58.7996
58.6867
59.0516
59.8365
60.9452
62.208
63.3994
64.2542
64.581
64.2409
63.4521
62.0253
60.5915
57.9545
55.1402
50.2896
44.849
41.6671
26.3683
8.20797
38.5426
107.607
65.2539
54.8305
56.9667
61.8437
65.8849
69.286
72.2623
74.99
77.5474
79.9774
82.2992
84.5233
86.6667
88.7568
90.8261
92.9032
95.009
97.155
99.3475
101.59
103.88
106.216
108.586
110.976
113.361
115.704
117.951
120.024
121.821
123.222
124.063
92.7448
65.1825
54.5906
55.9984
60.7075
64.6784
68.0359
70.981
73.6767
76.1907
78.5652
80.824
82.9806
85.0535
87.071
89.0658
91.0666
93.0944
95.1612
97.2733
99.4341
101.642
103.894
106.181
108.487
110.789
113.051
115.222
117.225
118.963
120.319
121.135
75.7195
62.7354
54.0683
55.0875
59.6026
63.5154
66.8401
69.7624
72.427
74.8963
77.2112
79.4052
81.4932
83.495
85.4396
87.3599
89.2846
91.2348
93.2225
95.2543
97.3339
99.4593
101.628
103.831
106.054
108.274
110.457
112.552
114.486
116.164
117.474
118.266
99.4522
63.3923
53.5408
54.1581
58.5415
62.4061
65.708
68.6128
71.2465
73.67
75.9245
78.0531
80.0726
82.0041
83.877
85.7243
87.5746
89.449
91.3595
93.3129
95.3128
97.3583
99.4457
101.567
103.709
105.848
107.953
109.975
111.841
113.461
114.729
115.496
87.3667
63.2308
53.3388
53.3544
57.5316
61.3569
64.6406
67.5296
70.132
72.5091
74.7053
76.7693
78.7212
80.5838
82.3869
84.1635
85.9419
87.7432
89.5794
91.457
93.3801
95.3478
97.3567
99.3995
101.463
103.525
105.555
107.505
109.307
110.871
112.096
112.841
79.3405
62.043
52.6895
52.5196
56.5719
60.3662
63.6352
66.5082
69.0787
71.4103
73.5519
75.5517
77.4377
79.2333
80.9689
82.6774
84.3868
86.1178
87.8825
89.6873
91.5364
93.4291
95.3625
97.3299
99.3175
101.305
103.263
105.145
106.884
108.395
109.58
110.303
76.6649
62.5857
52.8111
51.8494
55.6747
59.4386
62.6915
65.5472
68.0849
70.3725
72.4623
74.4007
76.2227
77.9535
79.6241
81.2671
82.9104
84.5743
86.2706
88.0059
89.7842
91.6053
93.4663
95.3604
97.2757
99.192
101.08
102.897
104.577
106.036
107.183
107.886
75.1532
62.0669
52.4005
51.1611
54.8283
58.5657
61.8036
64.6405
67.1468
69.3926
71.4333
73.3137
75.0746
76.7434
78.3515
79.9322
81.5123
83.1118
84.7427
86.4114
88.1219
89.8743
91.6659
93.4905
95.3363
97.1842
99.0068
100.761
102.384
103.795
104.904
105.588
75.5189
63.0719
52.7138
50.6283
54.0432
57.7498
60.9702
63.7866
66.2628
68.4693
70.464
72.2921
73.9941
75.6031
77.152
78.6726
80.1926
81.7311
83.2998
84.9052
86.551
88.2378
89.963
91.7206
93.5003
95.283
97.0425
98.737
100.306
101.67
102.745
103.41
74.005
62.4099
52.5512
50.119
53.303
56.9778
60.1823
62.9791
65.4277
67.5979
69.55
71.3298
72.9763
74.5296
76.0214
77.4856
78.9483
80.4285
81.9377
83.4824
85.0664
86.6905
88.3522
90.0465
91.7626
93.4834
95.1826
96.8209
98.3385
99.6582
100.7
101.348
75.7311
63.3796
52.775
49.7006
52.6132
56.2514
59.4397
62.2173
64.6409
66.7777
68.6904
70.4253
72.0225
73.522
74.9611
76.3713
77.7796
79.2044
80.6573
82.1444
83.6693
85.2332
86.834
88.467
90.1224
91.7836
93.4261
95.0099
96.4789
97.7564
98.7671
99.3999
68.6293
62.7712
52.9319
49.3597
51.9619
55.5547
58.7315
61.4932
63.8952
66.0025
67.8794
69.5732
71.1252
72.5761
73.9639
75.3235
76.6803
78.0524
79.4512
80.8829
82.3513
83.8576
85.4002
86.9747
88.5719
90.1765
91.7643
93.2972
94.7199
95.9577
96.9385
97.5567
93.2775
63.681
53.0312
49.0646
51.3459
54.8874
58.0576
60.8069
63.191
65.2727
67.1171
68.773
70.2831
71.689
73.0308
74.3428
75.6506
76.9726
78.32
79.6986
81.112
82.5621
84.0478
85.5654
87.1067
88.6563
90.1918
91.6756
93.054
94.254
95.2067
95.8116
85.1459
64.5614
53.3121
48.8589
50.7638
54.2363
57.4053
60.1477
62.5186
64.5797
66.3956
68.0172
69.4886
70.8528
72.1514
73.4182
74.6796
75.9534
77.2508
78.578
79.9386
81.3345
82.7651
84.2276
85.7143
87.2114
88.6966
90.1339
91.4702
92.6336
93.5599
94.153
71.481
63.143
53.4157
48.6684
50.1986
53.5974
56.7726
59.5163
61.88
63.9256
65.7162
67.3066
68.7423
70.0675
71.325
72.5487
73.7656
74.9929
76.2418
77.519
78.8283
80.1718
81.5494
82.9587
84.393
85.8394
87.2764
88.6691
89.9647
91.0936
91.9949
92.5768
92.7015
64.1244
53.7065
48.5955
49.6716
52.9616
56.1439
58.8981
61.2621
63.2975
65.0679
66.6306
68.0335
69.3225
70.5407
71.7233
72.8973
74.0798
75.2818
76.5104
77.7698
79.0627
80.3891
81.7472
83.1312
84.5288
85.9199
87.2695
88.527
89.6223
90.4996
91.0715
83.6117
64.9397
54.0937
48.5251
49.1386
52.3135
55.5147
58.294
60.6675
62.6993
64.4541
65.9924
67.3651
68.6198
69.8006
70.9437
72.0761
73.2148
74.3712
75.5525
76.7633
78.0067
79.2834
80.592
81.9271
83.2778
84.6243
85.9328
87.1533
88.2168
89.0707
89.6337
70.149
63.4468
54.378
48.596
48.6659
51.66
54.8708
57.6835
60.0773
62.1131
63.8587
65.3763
66.7217
67.9443
69.0894
70.1944
71.2865
72.3829
73.4949
74.6301
75.7936
76.989
78.2174
79.4779
80.766
82.0713
83.375
84.6441
85.8291
86.8618
87.6937
88.2485
89.9605
64.5855
54.76
48.6479
48.16
50.9626
54.1999
57.0656
59.4958
61.5457
63.2878
64.789
66.1094
67.3015
68.412
69.4796
70.5319
71.5864
72.6546
73.7446
74.8616
76.0096
77.1907
78.4041
79.6462
80.9073
82.1695
83.4003
84.5507
85.5535
86.3639
86.9114
79.9492
64.7103
55.1385
48.8447
47.7547
50.2571
53.4883
56.4138
58.8942
60.9701
62.7167
64.2072
65.5056
66.669
67.7462
68.7774
69.7905
70.8037
71.8289
72.8743
73.9457
75.0475
76.1822
77.3499
78.5472
79.7655
80.9873
82.1811
83.2987
84.2721
85.062
85.6029
67.2512
63.0622
55.3321
48.9644
47.2736
49.4712
52.7139
55.7259
58.2786
60.3972
62.1581
63.6429
64.9226
66.0582
67.1021
68.0959
69.0689
70.0403
71.0218
72.0223
73.048
74.1037
75.1924
76.3146
77.4676
78.6435
79.8256
80.9831
82.0677
83.0122
83.7815
84.3175
86.8267
64.5715
55.7285
49.2801
46.9494
48.6738
51.86
54.9622
57.6068
59.7851
61.573
63.0598
64.3249
65.4352
66.4466
67.4035
68.3364
69.2651
70.2027
71.158
72.138
73.1478
74.191
75.2685
76.3781
77.5123
78.6556
79.7771
80.8305
81.7467
82.496
83.0276
74.4889
63.8967
55.7643
49.3172
46.4942
47.7717
50.8994
54.1187
56.8879
59.1512
60.9829
62.4805
63.735
64.8207
65.7983
66.7151
67.6043
68.4876
69.3784
70.2864
71.2189
72.1816
73.1787
74.2109
75.2765
76.369
77.4733
78.5595
79.5801
80.4675
81.1969
81.7257
86.773
65.3354
56.4486
49.7493
46.2201
46.8373
49.8024
53.1345
56.0569
58.4327
60.3267
61.8475
63.0974
64.1614
65.1064
65.9833
66.828
67.6635
68.5053
69.3639
70.2476
71.1625
72.1127
73.0996
74.1219
75.1723
76.2379
77.2881
78.2786
79.1379
79.8474
80.3734
73.2423
63.8165
56.1848
49.7765
45.8496
45.8117
48.5479
52.003
55.1243
57.6543
59.6388
61.1988
62.4511
63.4932
64.4008
65.2311
66.0238
66.8052
67.592
68.3961
69.2264
70.0899
70.9911
71.9309
72.9077
73.9163
74.9421
75.9573
76.9138
77.7428
78.4322
78.959
78.8812
63.8095
56.4792
50.0438
45.5567
44.7146
47.083
50.6291
53.9874
56.7184
58.8253
60.4415
61.707
62.7331
63.6067
64.3903
65.1283
65.8502
66.5763
67.321
68.0948
68.9047
69.755
70.6468
71.5787
72.5428
73.529
74.5069
75.434
76.2358
76.9048
77.4315
86.2699
64.6372
56.4231
50.1109
45.2547
43.5508
45.3913
48.9937
52.6511
55.6541
57.9352
59.6386
60.9277
61.9362
62.7646
63.4881
64.1578
64.8085
65.4637
66.1394
66.8477
67.5972
68.3921
69.2323
70.1153
71.0372
71.9819
72.9239
73.8153
74.5819
75.2307
75.7626
77.9209
63.3521
56.1464
50.0188
44.8633
42.265
43.3845
46.9567
50.9455
54.3052
56.8204
58.6418
59.9729
60.9765
61.7684
62.4322
63.0275
63.5957
64.1665
64.763
65.3995
66.0837
66.8194
67.606
68.4406
69.3123
70.216
71.1197
71.9822
72.7267
73.355
73.8943
69.2306
62.2674
55.787
49.7608
44.3468
40.8598
41.0397
44.4162
48.8579
52.6925
55.5442
57.5404
58.9292
59.9175
60.6493
61.229
61.7273
62.1948
62.6679
63.1698
63.7188
64.3271
64.9962
65.7238
66.5043
67.3361
68.1972
69.0647
69.8917
70.5899
71.1987
71.7476
70.2996
62.0301
55.9067
49.7244
43.8563
39.3548
38.2982
41.2307
46.0368
50.5594
53.8625
56.1071
57.5967
58.5955
59.279
59.7661
60.147
60.4829
60.8225
61.206
61.6553
62.1756
62.7707
63.4347
64.1616
64.9343
65.7531
66.5868
67.3878
68.0819
68.6747
69.2555
71.9172
60.6855
54.686
48.8811
42.9223
37.5459
35.051
37.2871
42.5285
47.8366
51.8506
54.4237
56.0203
56.9979
57.5951
57.9593
58.1907
58.3757
58.5712
58.8166
59.1381
59.5595
60.0715
60.6678
61.3372
62.0801
62.8684
63.6663
64.4433
65.0724
65.6501
66.2421
71.5516
60.5218
54.073
48.0615
41.7779
35.3634
30.952
31.9779
37.7892
44.2004
49.0608
52.2009
54.0205
55.014
55.4886
55.6434
55.6389
55.5605
55.5071
55.5434
55.7187
56.0061
56.4198
56.9377
57.5475
58.2279
58.9602
59.7631
60.5256
61.199
61.7855
62.487
68.1695
59.4897
53.1522
46.7986
40.0036
32.3525
25.3364
24.6155
31.4263
39.616
45.6441
49.2953
51.238
52.1937
52.5525
52.5253
52.2491
51.9162
51.5958
51.4079
51.3341
51.4926
51.8003
52.2527
52.8259
53.51
54.3402
55.104
55.9311
56.5224
57.1093
57.8295
63.9418
58.2174
52.4474
45.7154
37.9973
28.3031
14.8037
21.0763
21.5199
33.2995
41.219
45.7441
48.0226
48.8064
48.605
47.8557
46.8878
45.8686
45.1172
44.5135
44.3831
44.3404
44.5478
44.9041
45.3876
46.0319
46.5402
47.4666
48.0819
48.862
49.5861
50.7033
58.5221
55.7122
50.9253
44.1722
35.4164
22.5096
15.0995
8.50947
21.4181
25.4179
35.1588
40.1287
42.1526
42.8176
42.5684
41.6356
40.2203
38.5827
36.0666
34.823
33.5767
33.2261
33.1537
33.4838
34.1662
35.0261
36.7001
37.8118
40.7122
41.3639
42.0761