/*--------------------------------*- C++ -*----------------------------------*\
  =========                 |
  \\      /  F ield         | OpenFOAM: The Open Source CFD Toolbox
   \\    /   O peration     | Website:  https://openfoam.org
    \\  /    A nd           | Version:  6
     \\/     M anipulation  |
\*---------------------------------------------------------------------------*/
FoamFile
{
    version     2.0;
    format      ascii;
    class       volVectorField;
    location    "28";
    object      wallShearStress;
}
// * * * * * * * * * * * * * * * * * * * * * * * * * * * * * * * * * * * * * //

dimensions      [0 2 -2 0 0 0 0];

internalField   uniform (0 0 0);

boundaryField
{
    inlet
    {
        type            calculated;
        value           uniform (0 0 0);
    }
    outlet
    {
        type            calculated;
        value           uniform (0 0 0);
    }
    roughCylinder
    {
        type            calculated;
        value           nonuniform List<vector> 
5120
(
(-0.000250384 -0.000356588 -0.000183626)
(-0.000306889 -0.000460849 -4.20777e-05)
(-0.000340372 -0.000554558 -7.62312e-07)
(-0.000386011 -0.000644508 5.39237e-05)
(-0.000442925 -0.000722605 0.000117089)
(-0.000507569 -0.000784396 0.000180583)
(-0.00057649 -0.00082704 0.000239893)
(-0.00064503 -0.00085096 0.000292246)
(-0.000709122 -0.000858618 0.000335547)
(-0.000766671 -0.00085505 0.00036907)
(-0.000817916 -0.000848493 0.000394289)
(-0.000863158 -0.000844633 0.000413105)
(-0.000899416 -0.0008435 0.000424258)
(-0.000929977 -0.000847843 0.000428867)
(-0.000956151 -0.000856882 0.000427966)
(-0.000979267 -0.000869906 0.000422616)
(-0.00100075 -0.000886134 0.000413864)
(-0.00102184 -0.000904914 0.000402604)
(-0.00104347 -0.000925769 0.00038951)
(-0.00106631 -0.000948405 0.000375002)
(-0.00109068 -0.000972642 0.000359283)
(-0.00111672 -0.000998358 0.000342379)
(-0.00114439 -0.00102542 0.000324189)
(-0.00117352 -0.00105365 0.00030452)
(-0.00120385 -0.00108283 0.000283101)
(-0.00123505 -0.00111262 0.000259581)
(-0.00126669 -0.00114254 0.000233453)
(-0.0012982 -0.00117196 0.000204043)
(-0.00132865 -0.00119991 0.000170211)
(-0.00135655 -0.00122493 0.000130389)
(-0.00137903 -0.00124517 8.24502e-05)
(-0.00139175 -0.0012571 2.79151e-05)
(-0.000268858 -0.000344876 -0.000173444)
(-0.000328475 -0.000446386 -4.45419e-05)
(-0.000364542 -0.000538784 -6.51934e-06)
(-0.000412296 -0.000628451 4.47584e-05)
(-0.00047089 -0.000707567 0.000105299)
(-0.000537085 -0.000771151 0.000167003)
(-0.000607401 -0.000815973 0.000225161)
(-0.000677431 -0.000842321 0.000276887)
(-0.000743705 -0.000853033 0.000320192)
(-0.00080466 -0.000853727 0.000354763)
(-0.000860083 -0.000851249 0.000381974)
(-0.000908867 -0.000848973 0.000402639)
(-0.000947978 -0.000846579 0.000414888)
(-0.000980093 -0.000849826 0.000420085)
(-0.00100779 -0.000858151 0.000419502)
(-0.00103235 -0.00087081 0.000414377)
(-0.00105525 -0.000886909 0.000405801)
(-0.00107775 -0.000905701 0.000394712)
(-0.00110085 -0.000926642 0.00038182)
(-0.00112519 -0.00094939 0.000367554)
(-0.00115112 -0.000973739 0.000352135)
(-0.00117879 -0.000999537 0.000335585)
(-0.00120811 -0.00102665 0.000317805)
(-0.00123893 -0.00105492 0.000298598)
(-0.00127097 -0.00108408 0.000277687)
(-0.00130388 -0.00111382 0.000254716)
(-0.00133719 -0.00114367 0.000229177)
(-0.00137032 -0.00117299 0.000200397)
(-0.00140228 -0.00120079 0.000167251)
(-0.00143152 -0.00122568 0.000128171)
(-0.00145508 -0.00124578 8.10664e-05)
(-0.00146839 -0.00125761 2.74477e-05)
(-0.000287232 -0.000328045 -0.000156045)
(-0.000349613 -0.000426565 -4.75305e-05)
(-0.000388064 -0.000516892 -1.29369e-05)
(-0.00043753 -0.000605596 3.47281e-05)
(-0.000497498 -0.000685187 9.23452e-05)
(-0.000565082 -0.000750314 0.00015201)
(-0.000636861 -0.000797469 0.000208938)
(-0.000708735 -0.000826886 0.000260193)
(-0.000777733 -0.000841583 0.000303935)
(-0.000842385 -0.000846875 0.000339929)
(-0.000901708 -0.000848038 0.000368938)
(-0.000953757 -0.000847268 0.000390886)
(-0.000996434 -0.000844911 0.000404435)
(-0.00103022 -0.000846612 0.000410151)
(-0.00105947 -0.000854047 0.000409883)
(-0.00108556 -0.00086617 0.000405029)
(-0.00110996 -0.000881975 0.000396686)
(-0.00113397 -0.000900617 0.00038583)
(-0.00115858 -0.000921482 0.00037319)
(-0.00118448 -0.000944176 0.000359232)
(-0.00121202 -0.00096846 0.00034417)
(-0.00124132 -0.00099417 0.000328036)
(-0.00127233 -0.00102116 0.000310727)
(-0.00130484 -0.00104926 0.000292043)
(-0.00133858 -0.00107821 0.000271702)
(-0.00137317 -0.0011077 0.000249343)
(-0.00140814 -0.00113726 0.000224451)
(-0.00144286 -0.00116626 0.000196363)
(-0.00147632 -0.00119374 0.000163974)
(-0.00150685 -0.0012183 0.000125713)
(-0.00153145 -0.00123813 7.95339e-05)
(-0.00154532 -0.00124976 2.69318e-05)
(-0.000303512 -0.000307254 -0.000134141)
(-0.00036825 -0.000402264 -5.05827e-05)
(-0.000408649 -0.000489791 -1.96055e-05)
(-0.000459244 -0.000576892 2.42663e-05)
(-0.000520152 -0.000656465 7.86844e-05)
(-0.000588908 -0.000722947 0.000136045)
(-0.000662219 -0.000772608 0.000191579)
(-0.000736261 -0.000805595 0.000242366)
(-0.000808293 -0.000824793 0.000286687)
(-0.000876628 -0.000834718 0.000324155)
(-0.000939658 -0.000839256 0.000354819)
(-0.000995157 -0.000840202 0.00037798)
(-0.00104151 -0.000838771 0.00039283)
(-0.00107789 -0.000838919 0.000399238)
(-0.00110885 -0.000845374 0.000399413)
(-0.00113661 -0.00085679 0.000394881)
(-0.0011626 -0.000872157 0.000386834)
(-0.00118817 -0.000890523 0.000376277)
(-0.00121436 -0.0009112 0.000363961)
(-0.00124185 -0.000933725 0.000350367)
(-0.001271 -0.000957818 0.000335719)
(-0.00130193 -0.000983302 0.000320052)
(-0.00133457 -0.00101002 0.000303265)
(-0.00136873 -0.00103779 0.00028515)
(-0.0014041 -0.00106637 0.00026542)
(-0.00144029 -0.00109543 0.000243711)
(-0.00147681 -0.00112453 0.000219503)
(-0.00151303 -0.00115306 0.000192143)
(-0.00154787 -0.00118006 0.000160546)
(-0.00157961 -0.00120414 0.000123141)
(-0.00160518 -0.00122359 7.79348e-05)
(-0.00161955 -0.00123496 2.6396e-05)
(-0.000316746 -0.000282916 -0.000109923)
(-0.000383438 -0.000373889 -5.33681e-05)
(-0.000425292 -0.000457967 -2.61743e-05)
(-0.000476434 -0.00054284 1.37196e-05)
(-0.000537856 -0.000621896 6.46428e-05)
(-0.000607614 -0.000689541 0.000119372)
(-0.000682581 -0.000741869 0.000173283)
(-0.000759091 -0.000778744 0.000223517)
(-0.000834353 -0.000802569 0.00026838)
(-0.000906295 -0.000816885 0.000307198)
(-0.000972897 -0.000824548 0.000339376)
(-0.00103191 -0.000827274 0.000363789)
(-0.00108178 -0.000826944 0.000379737)
(-0.00112204 -0.000826694 0.000387302)
(-0.00115495 -0.0008316 0.000388047)
(-0.00118451 -0.000842103 0.000383938)
(-0.00121222 -0.000856858 0.000376287)
(-0.00123944 -0.000874794 0.000366115)
(-0.00126722 -0.000895111 0.00035419)
(-0.00129629 -0.000917307 0.000341022)
(-0.00132702 -0.000941063 0.000326848)
(-0.00135953 -0.000966161 0.000311708)
(-0.00139375 -0.000992444 0.000295493)
(-0.00142947 -0.00101972 0.000277995)
(-0.00146637 -0.00104775 0.000258918)
(-0.00150405 -0.00107621 0.000237896)
(-0.00154199 -0.00110468 0.0002144)
(-0.00157958 -0.00113255 0.000187795)
(-0.00161568 -0.00115889 0.000157019)
(-0.00164852 -0.00118235 0.000120498)
(-0.00167495 -0.00120129 7.62935e-05)
(-0.00168974 -0.00121232 2.58482e-05)
(-0.000326797 -0.000256342 -8.5126e-05)
(-0.000394933 -0.00034273 -5.57243e-05)
(-0.000437673 -0.00042279 -3.24346e-05)
(-0.00048875 -0.000504854 3.31431e-06)
(-0.000550212 -0.000582886 5.04496e-05)
(-0.000620739 -0.000651428 0.000102193)
(-0.00069735 -0.000706385 0.000154189)
(-0.000776426 -0.000747143 0.000203684)
(-0.000854955 -0.000775382 0.000248929)
(-0.000930468 -0.000793691 0.000288883)
(-0.00100064 -0.000804231 0.000322423)
(-0.00106329 -0.000808752 0.000348122)
(-0.00111691 -0.000809596 0.000365187)
(-0.00116129 -0.000809804 0.00037401)
(-0.0011973 -0.000813127 0.00037565)
(-0.00122885 -0.000822461 0.000372164)
(-0.00125842 -0.00083632 0.00036501)
(-0.00128737 -0.000853579 0.000355317)
(-0.00131681 -0.00087338 0.000343886)
(-0.00134749 -0.000895091 0.000331226)
(-0.00137977 -0.000918339 0.000317593)
(-0.00141381 -0.000942885 0.000303037)
(-0.00144952 -0.000968558 0.000287447)
(-0.00148669 -0.000995162 0.000270609)
(-0.00152498 -0.00102246 0.000252225)
(-0.001564 -0.00105013 0.000231922)
(-0.0016032 -0.00107777 0.000209165)
(-0.00164202 -0.00110483 0.000183339)
(-0.00167921 -0.00113035 0.000153407)
(-0.00171299 -0.00115303 0.000117791)
(-0.00174019 -0.00117134 7.46172e-05)
(-0.00175531 -0.00118198 2.52925e-05)
(-0.000332567 -0.000227926 -6.07262e-05)
(-0.000401629 -0.000309268 -5.75069e-05)
(-0.000444664 -0.000384763 -3.81907e-05)
(-0.000495016 -0.000463416 -6.76523e-06)
(-0.000555961 -0.000539866 3.62251e-05)
(-0.00062693 -0.000608968 8.45539e-05)
(-0.000705133 -0.000666454 0.000134263)
(-0.000786865 -0.000711058 0.000182753)
(-0.000868788 -0.00074354 0.000228161)
(-0.000947996 -0.000765564 0.00026903)
(-0.00102193 -0.000778831 0.000303793)
(-0.00108842 -0.000785198 0.000330797)
(-0.00114602 -0.000787247 0.00034912)
(-0.00119449 -0.00078817 0.000359154)
(-0.00123485 -0.000791045 0.000362115)
(-0.00126893 -0.000798437 0.000359436)
(-0.00130053 -0.000811155 0.000352956)
(-0.00133139 -0.000827576 0.000343878)
(-0.00136253 -0.000846615 0.000333027)
(-0.0013948 -0.000867641 0.00032096)
(-0.00142862 -0.000890214 0.00030795)
(-0.00146413 -0.000914059 0.000294046)
(-0.00150124 -0.000938964 0.00027914)
(-0.00153973 -0.000964746 0.000263015)
(-0.00157929 -0.00099116 0.000245365)
(-0.0016195 -0.00101791 0.000225817)
(-0.00165981 -0.00104459 0.000203824)
(-0.00169965 -0.00107065 0.000178792)
(-0.00173779 -0.0010952 0.000149728)
(-0.00177238 -0.00111699 0.000115036)
(-0.0018002 -0.00113456 7.29164e-05)
(-0.00181554 -0.00114474 2.47323e-05)
(-0.00033404 -0.000198723 -3.76988e-05)
(-0.000403391 -0.00027459 -5.86909e-05)
(-0.000446109 -0.000345074 -4.33255e-05)
(-0.000495064 -0.000419772 -1.63428e-05)
(-0.000554858 -0.000494064 2.21933e-05)
(-0.000625803 -0.000563246 6.66781e-05)
(-0.000705314 -0.000622911 0.000113663)
(-0.000789514 -0.000671008 0.000160753)
(-0.000874713 -0.000707346 0.000205957)
(-0.000957659 -0.000732788 0.000247446)
(-0.00103554 -0.000748656 0.000283266)
(-0.0011061 -0.000756885 0.000311563)
(-0.00116795 -0.000760249 0.000331309)
(-0.00122072 -0.000761924 0.000342716)
(-0.00126532 -0.000764916 0.000346996)
(-0.00130353 -0.000771284 0.00034562)
(-0.00133764 -0.000782188 0.000340035)
(-0.00137052 -0.000797131 0.000331696)
(-0.00140349 -0.000815252 0.000321588)
(-0.00143743 -0.000835434 0.000310229)
(-0.00147276 -0.00085717 0.000297927)
(-0.00150965 -0.000880145 0.000284748)
(-0.00154804 -0.000904136 0.000270589)
(-0.00158771 -0.000928929 0.000255226)
(-0.00162834 -0.000954301 0.000238349)
(-0.00166951 -0.000979951 0.000219586)
(-0.00171067 -0.00100554 0.000198378)
(-0.00175137 -0.00103058 0.000174167)
(-0.00179023 -0.00105409 0.000145989)
(-0.00182541 -0.00107486 0.000112234)
(-0.00185373 -0.00109164 7.11936e-05)
(-0.00186919 -0.00110141 2.41706e-05)
(-0.000330008 -0.000168861 -1.65912e-05)
(-0.000399047 -0.000238919 -5.91264e-05)
(-0.000440803 -0.000303936 -4.76586e-05)
(-0.000487591 -0.000374062 -2.52074e-05)
(-0.000545425 -0.000445455 8.55277e-06)
(-0.00061568 -0.000514055 4.86901e-05)
(-0.000696107 -0.000575442 9.23989e-05)
(-0.000782683 -0.000626779 0.000137591)
(-0.000871275 -0.000666818 0.000182175)
(-0.00095817 -0.000695574 0.000223961)
(-0.00104031 -0.000714053 0.000260664)
(-0.00111535 -0.000724247 0.000290251)
(-0.00118174 -0.000728969 0.000311531)
(-0.00123907 -0.000731466 0.000324543)
(-0.00128799 -0.000734614 0.000330303)
(-0.00133024 -0.000740513 0.000330303)
(-0.00136803 -0.000750199 0.00032598)
(-0.00140395 -0.000763867 0.00031881)
(-0.00143881 -0.000780532 0.000309594)
(-0.00147439 -0.000799527 0.000299044)
(-0.0015112 -0.000820224 0.000287555)
(-0.0015494 -0.000842201 0.000275192)
(-0.00158893 -0.000865191 0.000261851)
(-0.0016296 -0.000888963 0.000247309)
(-0.0016711 -0.000913284 0.000231252)
(-0.00171304 -0.00093786 0.000213316)
(-0.00175477 -0.000962298 0.000192902)
(-0.00179589 -0.00098612 0.000169495)
(-0.00183516 -0.00100846 0.000142209)
(-0.00187073 -0.00102815 0.000109403)
(-0.00189931 -0.00104404 6.94587e-05)
(-0.00191455 -0.00105328 2.36087e-05)
(-0.000320915 -0.000139593 1.95237e-06)
(-0.00038883 -0.000203195 -5.90491e-05)
(-0.00042901 -0.000262744 -5.11454e-05)
(-0.000473015 -0.000327789 -3.3169e-05)
(-0.000528102 -0.000395617 -4.38488e-06)
(-0.000596912 -0.000462913 3.09765e-05)
(-0.000677665 -0.00052537 7.08373e-05)
(-0.000766141 -0.000579365 0.000113511)
(-0.000857819 -0.000622649 0.000156899)
(-0.000948672 -0.000654512 0.000198549)
(-0.00103528 -0.000675556 0.00023589)
(-0.00111502 -0.000687665 0.00026667)
(-0.00118628 -0.000693784 0.000289556)
(-0.0012484 -0.000697083 0.000304344)
(-0.00130196 -0.00070046 0.000311857)
(-0.00134837 -0.000705965 0.000313436)
(-0.00138989 -0.000714818 0.000310583)
(-0.00142876 -0.000727346 0.000304715)
(-0.00146615 -0.000742648 0.00029665)
(-0.00150371 -0.000760396 0.000287155)
(-0.00154202 -0.00077989 0.000276633)
(-0.00158136 -0.000800685 0.000265184)
(-0.00162176 -0.000822484 0.000252731)
(-0.00166304 -0.000845032 0.000239054)
(-0.00170494 -0.000868084 0.000223843)
(-0.00174708 -0.000891351 0.000206739)
(-0.0017889 -0.000914424 0.000187127)
(-0.00183023 -0.00093689 0.000164561)
(-0.00186958 -0.000957898 0.000138212)
(-0.00190522 -0.00097639 0.0001064)
(-0.00193386 -0.000991315 6.76219e-05)
(-0.00194878 -0.000999937 2.30179e-05)
(-0.000303818 -0.000110395 1.75309e-05)
(-0.00037245 -0.000168155 -5.81099e-05)
(-0.000409619 -0.000221658 -5.37012e-05)
(-0.000449845 -0.000280958 -3.99707e-05)
(-0.000501057 -0.000344293 -1.62863e-05)
(-0.000567262 -0.000409209 1.38261e-05)
(-0.000647472 -0.000471879 4.91218e-05)
(-0.00073753 -0.000528112 8.85219e-05)
(-0.00083243 -0.000574601 0.000130058)
(-0.000927486 -0.000609645 0.000171077)
(-0.00101893 -0.0006334 0.000208766)
(-0.00110397 -0.000647667 0.000240686)
(-0.00118055 -0.000655227 0.000265233)
(-0.00124797 -0.000659373 0.000281984)
(-0.0013064 -0.000662922 0.000291471)
(-0.00135727 -0.000668054 0.000294912)
(-0.00140258 -0.000676054 0.000293735)
(-0.00144457 -0.000687433 0.000289354)
(-0.00148445 -0.0007014 0.000282615)
(-0.00152389 -0.000717781 0.000274327)
(-0.00156365 -0.00073593 0.000264917)
(-0.00160404 -0.000755381 0.000254509)
(-0.00164512 -0.000775795 0.000243041)
(-0.00168681 -0.000796926 0.000230309)
(-0.00172886 -0.000818526 0.000216006)
(-0.00177099 -0.000840317 0.000199794)
(-0.00181265 -0.000861896 0.000181024)
(-0.00185382 -0.000882839 0.000159332)
(-0.00189301 -0.000902429 0.000133979)
(-0.00192847 -0.000919655 0.00010322)
(-0.00195696 -0.000933546 6.56787e-05)
(-0.00197135 -0.000941476 2.23958e-05)
(-0.000280103 -8.24905e-05 3.00781e-05)
(-0.000349873 -0.000135 -5.63577e-05)
(-0.000383863 -0.00018219 -5.52875e-05)
(-0.000419518 -0.000235472 -4.54616e-05)
(-0.000465953 -0.000293657 -2.67704e-05)
(-0.000528536 -0.000355282 -2.176e-06)
(-0.000607244 -0.000417227 2.79284e-05)
(-0.000697983 -0.000474862 6.32184e-05)
(-0.000795354 -0.000523922 0.000102059)
(-0.000894423 -0.000561974 0.0001418)
(-0.000990877 -0.000588504 0.00017943)
(-0.00108123 -0.00060484 0.000212234)
(-0.00116347 -0.000613862 0.000238422)
(-0.00123635 -0.00061871 0.000257215)
(-0.00130011 -0.000622404 0.000268921)
(-0.00135576 -0.000627109 0.000274494)
(-0.00140527 -0.000634287 0.000275303)
(-0.00145051 -0.000644403 0.000272638)
(-0.00149304 -0.000656992 0.000267448)
(-0.00153451 -0.000671945 0.000260566)
(-0.00157566 -0.000688608 0.00025242)
(-0.00161695 -0.000706546 0.000243178)
(-0.00165855 -0.000725436 0.000232804)
(-0.00170037 -0.000744999 0.000221097)
(-0.00174225 -0.000764999 0.000207766)
(-0.00178397 -0.000785144 0.000192492)
(-0.00182501 -0.000805061 0.000174592)
(-0.0018658 -0.000824416 0.000153818)
(-0.00190443 -0.000842477 0.000129514)
(-0.00193937 -0.000858343 9.98573e-05)
(-0.00196743 -0.000871124 6.36257e-05)
(-0.00198117 -0.000878352 2.17447e-05)
(-0.000249195 -5.66721e-05 3.93431e-05)
(-0.000319212 -0.000103573 -5.35625e-05)
(-0.000350066 -0.000144408 -5.5572e-05)
(-0.000380336 -0.000191187 -4.92294e-05)
(-0.000420549 -0.000243142 -3.53139e-05)
(-0.000477695 -0.000299954 -1.64369e-05)
(-0.000553258 -0.000359731 7.74335e-06)
(-0.000643912 -0.000418052 3.7904e-05)
(-0.000743948 -0.000469787 7.30882e-05)
(-0.00084722 -0.000511054 0.000110752)
(-0.000948873 -0.000540595 0.000147766)
(-0.00104545 -0.000559558 0.000181268)
(-0.00113393 -0.000570268 0.000209055)
(-0.00121311 -0.00057603 0.000230064)
(-0.00128254 -0.000579764 0.000244177)
(-0.00134332 -0.000583941 0.000252161)
(-0.00139708 -0.000590063 0.000255189)
(-0.00144589 -0.000598857 0.000254538)
(-0.00149114 -0.000609924 0.000251134)
(-0.00153452 -0.000623241 0.000245828)
(-0.00157701 -0.000638279 0.000239116)
(-0.0016191 -0.000654589 0.00023119)
(-0.00166097 -0.000671815 0.00022202)
(-0.00170266 -0.000689707 0.000211433)
(-0.00174408 -0.000708014 0.000199143)
(-0.00178511 -0.000726458 0.000184875)
(-0.00182524 -0.000744687 0.000167882)
(-0.00186523 -0.000762342 0.000148046)
(-0.001903 -0.000778838 0.000124847)
(-0.00193714 -0.000793322 9.63372e-05)
(-0.0019646 -0.000804995 6.14853e-05)
(-0.00197739 -0.000811466 2.10719e-05)
(-0.000213029 -3.43347e-05 4.51981e-05)
(-0.000281896 -7.51011e-05 -4.98537e-05)
(-0.000310233 -0.000110001 -5.47172e-05)
(-0.000335345 -0.000150429 -5.13436e-05)
(-0.000368895 -0.000195819 -4.1678e-05)
(-0.000419576 -0.000246948 -2.83116e-05)
(-0.000490642 -0.000303355 -1.04462e-05)
(-0.000579494 -0.000361018 1.36756e-05)
(-0.000680225 -0.000414159 4.4064e-05)
(-0.000786993 -0.000458332 7.86744e-05)
(-0.000894055 -0.000491163 0.000114393)
(-0.000996333 -0.000512603 0.000148037)
(-0.00109121 -0.00052511 0.000177203)
(-0.00117652 -0.000531629 0.000200343)
(-0.0012521 -0.000535441 0.000217057)
(-0.00131839 -0.000539001 0.000227718)
(-0.00137706 -0.000544092 0.000233328)
(-0.00142959 -0.000551381 0.00023497)
(-0.00147779 -0.000560829 0.000233629)
(-0.00152337 -0.000572482 0.000230168)
(-0.00156718 -0.00058578 0.000225084)
(-0.00160988 -0.000600329 0.000218618)
(-0.00165181 -0.000615814 0.000210777)
(-0.00169303 -0.000631936 0.000201393)
(-0.00173356 -0.000648467 0.000190196)
(-0.0017734 -0.000665113 0.000176974)
(-0.00181205 -0.000681558 0.000160893)
(-0.00185095 -0.000697505 0.00014202)
(-0.00188743 -0.000712396 0.000119975)
(-0.00192041 -0.000725478 9.26539e-05)
(-0.00194685 -0.000735962 5.9247e-05)
(-0.00195859 -0.000741747 2.03773e-05)
(-0.000170997 -1.58196e-05 4.72893e-05)
(-0.000236515 -4.97514e-05 -4.48541e-05)
(-0.000262392 -7.86754e-05 -5.22537e-05)
(-0.00028211 -0.000112427 -5.12936e-05)
(-0.000307727 -0.000150275 -4.515e-05)
(-0.000349446 -0.000193836 -3.67783e-05)
(-0.000413225 -0.000244665 -2.54313e-05)
(-0.000498761 -0.000300381 -8.37663e-06)
(-0.000600821 -0.000355248 1.5858e-05)
(-0.000711044 -0.000402588 4.61094e-05)
(-0.000822941 -0.000438836 7.94908e-05)
(-0.000932207 -0.000463811 0.000112771)
(-0.00103412 -0.000478688 0.000143022)
(-0.00112686 -0.000486631 0.000168359)
(-0.00120899 -0.00049061 0.000187773)
(-0.00128116 -0.000493531 0.000201335)
(-0.00134452 -0.000497283 0.000209726)
(-0.00140112 -0.000502984 0.000213978)
(-0.00145235 -0.000510664 0.000214965)
(-0.00149983 -0.000520398 0.000213538)
(-0.00154486 -0.000531832 0.00021028)
(-0.00158806 -0.000544557 0.000205446)
(-0.00162975 -0.000558218 0.000199052)
(-0.0016702 -0.000572551 0.000190966)
(-0.00170952 -0.000587314 0.000180931)
(-0.00174787 -0.000602194 0.000168817)
(-0.00178471 -0.000616937 0.000153666)
(-0.00182218 -0.000631173 0.000135763)
(-0.00185699 -0.000644491 0.000114926)
(-0.00188843 -0.000656176 8.88262e-05)
(-0.0019138 -0.000665574 5.69355e-05)
(-0.00192407 -0.000670642 1.96679e-05)
(-0.00012625 -2.30786e-06 4.58136e-05)
(-0.000186262 -2.90483e-05 -3.87776e-05)
(-0.000210795 -5.23568e-05 -4.84846e-05)
(-0.000226941 -8.01026e-05 -4.96108e-05)
(-0.000245849 -0.000110968 -4.61356e-05)
(-0.000279061 -0.000147042 -4.18094e-05)
(-0.000334074 -0.000191157 -3.65234e-05)
(-0.000412894 -0.000242593 -2.69799e-05)
(-0.000510755 -0.000295919 -1.00361e-05)
(-0.000622439 -0.000345538 1.45663e-05)
(-0.000739709 -0.000385891 4.44738e-05)
(-0.000854345 -0.000414093 7.63487e-05)
(-0.000963149 -0.000431722 0.000107095)
(-0.00106224 -0.000440947 0.000134168)
(-0.0011511 -0.000445348 0.000156248)
(-0.00122943 -0.000447753 0.000172858)
(-0.0012985 -0.000450448 0.000184386)
(-0.00135926 -0.00045446 0.000191509)
(-0.00141369 -0.000460291 0.000195105)
(-0.00146359 -0.000468179 0.000196024)
(-0.00150983 -0.000477692 0.000194808)
(-0.00155328 -0.000488521 0.000191762)
(-0.0015945 -0.000500361 0.000186945)
(-0.00163377 -0.000512893 0.000180237)
(-0.00167132 -0.000525884 0.000171397)
(-0.00170761 -0.000538988 0.000160425)
(-0.00174195 -0.00055204 0.000146182)
(-0.00177752 -0.00056456 0.000129242)
(-0.00181025 -0.000576364 0.000109673)
(-0.00183981 -0.00058672 8.48331e-05)
(-0.00186353 -0.000594964 5.45227e-05)
(-0.00187228 -0.000599448 1.89392e-05)
(-7.87814e-05 6.82836e-06 4.12933e-05)
(-0.000130556 -1.23759e-05 -3.09205e-05)
(-0.000152717 -2.9573e-05 -4.25228e-05)
(-0.00016473 -5.06474e-05 -4.5022e-05)
(-0.00017614 -7.33948e-05 -4.34107e-05)
(-0.000195804 -9.91526e-05 -4.14272e-05)
(-0.000238467 -0.000133815 -4.0542e-05)
(-0.000308958 -0.000179524 -3.86819e-05)
(-0.00040714 -0.00023359 -3.09232e-05)
(-0.000519547 -0.000285361 -1.42856e-05)
(-0.000639029 -0.000329086 1.04181e-05)
(-0.000760916 -0.000362366 3.97484e-05)
(-0.000876553 -0.000383545 7.00617e-05)
(-0.000983984 -0.00039554 9.8574e-05)
(-0.00108007 -0.00040095 0.000123131)
(-0.00116483 -0.000403144 0.000142805)
(-0.00123875 -0.000404556 0.000157476)
(-0.00130397 -0.00040697 0.000167718)
(-0.00136168 -0.000410936 0.000174166)
(-0.00141336 -0.000416736 0.000177579)
(-0.0014606 -0.000424273 0.000178598)
(-0.00150414 -0.000433219 0.000177518)
(-0.00154449 -0.000443237 0.000174392)
(-0.00158221 -0.000454027 0.000169154)
(-0.00161768 -0.000465369 0.000161565)
(-0.00165159 -0.000476819 0.000151795)
(-0.00168304 -0.000488363 0.000138455)
(-0.00171664 -0.000499295 0.000122482)
(-0.00174678 -0.000509664 0.000104238)
(-0.001774 -0.000518743 8.06838e-05)
(-0.00179614 -0.000526015 5.20345e-05)
(-0.00180286 -0.000529908 1.81965e-05)
(-3.78244e-05 1.01268e-05 3.29305e-05)
(-7.67386e-05 -2.71758e-06 -2.28656e-05)
(-9.7941e-05 -1.49951e-05 -3.30933e-05)
(-0.00011039 -3.0422e-05 -3.84231e-05)
(-0.000118994 -4.77598e-05 -3.61824e-05)
(-0.000139617 -6.53319e-05 -3.5623e-05)
(-0.000172804 -9.00163e-05 -4.13226e-05)
(-0.000225364 -0.000126059 -4.69796e-05)
(-0.000297611 -0.000170288 -4.69385e-05)
(-0.000405833 -0.000223259 -3.76374e-05)
(-0.000530402 -0.000271964 -2.0115e-05)
(-0.000654749 -0.000308996 4.77339e-06)
(-0.0007776 -0.000335094 3.35052e-05)
(-0.000890688 -0.000349703 6.22782e-05)
(-0.000993325 -0.000356707 8.87263e-05)
(-0.00108432 -0.000359209 0.000111216)
(-0.00116453 -0.000360171 0.000129195)
(-0.00123407 -0.000361138 0.000142652)
(-0.00129499 -0.000363327 0.000152129)
(-0.00134921 -0.00036734 0.000158341)
(-0.00139745 -0.000372981 0.000161802)
(-0.00144075 -0.000380077 0.000162834)
(-0.00147995 -0.000388369 0.000161521)
(-0.00151565 -0.000397509 0.000157818)
(-0.00154833 -0.000407273 0.000151478)
(-0.00157926 -0.000417131 0.000142942)
(-0.00160699 -0.000427272 0.000130449)
(-0.00163791 -0.000436582 0.000115388)
(-0.00166509 -0.000445667 9.85602e-05)
(-0.00168973 -0.000453613 7.63347e-05)
(-0.00170957 -0.000459868 4.94198e-05)
(-0.00171427 -0.000463336 1.74281e-05)
(-1.49181e-05 9.025e-06 2.0968e-05)
(-2.44789e-05 -5.05553e-07 -1.26043e-05)
(-3.0484e-05 -4.72266e-06 -1.65848e-05)
(-3.77997e-05 -1.04215e-05 -2.13893e-05)
(-4.06424e-05 -1.73256e-05 -2.40031e-05)
(-4.13456e-05 -2.61234e-05 -2.46033e-05)
(-5.0007e-05 -3.83392e-05 -2.11187e-05)
(-0.000105569 -7.50171e-05 -2.5345e-05)
(-0.000198596 -0.000113952 -3.85117e-05)
(-0.000291181 -0.000157397 -5.26034e-05)
(-0.000406061 -0.000208953 -4.48759e-05)
(-0.000538259 -0.000253988 -2.60204e-05)
(-0.00066387 -0.000284264 -1.19729e-06)
(-0.000784818 -0.000303899 2.68242e-05)
(-0.000894576 -0.000313748 5.43268e-05)
(-0.000991948 -0.000317444 7.91599e-05)
(-0.00107638 -0.000317928 0.00010002)
(-0.00115037 -0.000317925 0.00011669)
(-0.00121453 -0.000318636 0.000129291)
(-0.00127007 -0.000320743 0.000138312)
(-0.00131886 -0.000324571 0.000144345)
(-0.00136165 -0.000329959 0.000147632)
(-0.00139919 -0.000336638 0.000148214)
(-0.00143244 -0.000344276 0.000146117)
(-0.00146206 -0.000352701 0.000141055)
(-0.00148976 -0.000361136 0.000133815)
(-0.00151333 -0.000370155 0.000122136)
(-0.00154192 -0.00037808 0.000107988)
(-0.00156565 -0.000386023 9.26632e-05)
(-0.00158705 -0.000392871 7.1782e-05)
(-0.00160485 -0.000398357 4.67018e-05)
(-0.00160694 -0.000401391 1.66358e-05)
(6.32827e-06 9.26648e-06 2.13531e-05)
(1.08991e-06 3.34466e-06 -7.35919e-06)
(-3.80659e-06 2.40272e-06 -1.55424e-05)
(-1.1272e-05 -4.18928e-06 -2.3561e-05)
(-1.88972e-05 -1.40384e-05 -2.63036e-05)
(-2.53577e-05 -2.19359e-05 -3.24593e-05)
(-3.08899e-05 -3.82179e-05 -3.13214e-05)
(-4.35618e-05 -4.58618e-05 -2.07265e-05)
(-6.6151e-05 -5.13663e-05 -1.94678e-05)
(-0.000175136 -9.64111e-05 -4.12984e-05)
(-0.000288449 -0.000145608 -5.74901e-05)
(-0.000404466 -0.00019283 -4.94583e-05)
(-0.000540388 -0.000232431 -2.97955e-05)
(-0.000666127 -0.000256567 -5.81972e-06)
(-0.000781099 -0.000270327 2.10308e-05)
(-0.000883641 -0.000276163 4.71868e-05)
(-0.000974397 -0.000277854 7.05641e-05)
(-0.00105211 -0.000277412 9.01258e-05)
(-0.0011189 -0.000277042 0.000105742)
(-0.00117684 -0.000277918 0.000117744)
(-0.00122613 -0.000280249 0.000126469)
(-0.00126798 -0.000284129 0.000132096)
(-0.00130351 -0.000289425 0.000134645)
(-0.00133381 -0.000295746 0.00013419)
(-0.00135947 -0.000302968 0.000130334)
(-0.0013833 -0.000310039 0.000124413)
(-0.00140182 -0.000318126 0.000113459)
(-0.00142716 -0.00032455 0.000100109)
(-0.00144692 -0.000331513 8.64162e-05)
(-0.00146525 -0.000337468 6.69531e-05)
(-0.00148009 -0.00034215 4.37971e-05)
(-0.00147976 -0.0003449 1.57964e-05)
(2.19341e-05 8.7737e-06 2.67808e-05)
(2.53745e-05 8.49232e-06 -3.40287e-06)
(2.14543e-05 7.30202e-06 -1.23154e-05)
(1.74791e-05 1.74163e-07 -1.54736e-05)
(9.07857e-06 -2.57341e-06 -1.42922e-05)
(-7.29272e-06 -5.87504e-06 -2.34002e-05)
(-1.81628e-05 -1.73565e-05 -3.14588e-05)
(-2.36492e-05 -2.19227e-05 -2.9688e-05)
(-3.33515e-05 -2.89651e-05 -2.71262e-05)
(-5.31769e-05 -4.09634e-05 -2.39014e-05)
(-0.000160153 -8.65547e-05 -4.0717e-05)
(-0.000295027 -0.000130817 -5.72829e-05)
(-0.000411332 -0.00017455 -5.55173e-05)
(-0.000539098 -0.000208713 -3.46602e-05)
(-0.000659437 -0.000227589 -9.17246e-06)
(-0.000767201 -0.00023691 1.70013e-05)
(-0.000859923 -0.000239793 4.17492e-05)
(-0.000941373 -0.00023995 6.36878e-05)
(-0.00101077 -0.000239272 8.20592e-05)
(-0.00106898 -0.000239019 9.67579e-05)
(-0.00111797 -0.000240167 0.000108131)
(-0.00115841 -0.000242859 0.000116124)
(-0.0011913 -0.000247016 0.000120635)
(-0.00121817 -0.00025224 0.00012184)
(-0.00123972 -0.000258598 0.000119155)
(-0.00125979 -0.000264455 0.000114635)
(-0.00127267 -0.000271873 0.000104335)
(-0.00129572 -0.000277094 9.17727e-05)
(-0.00131151 -0.000283345 7.98813e-05)
(-0.00132566 -0.00028826 6.18297e-05)
(-0.00133822 -0.000292497 4.07334e-05)
(-0.00133478 -0.00029485 1.49053e-05)
(3.78841e-05 1.44749e-05 4.19065e-05)
(4.85929e-05 1.15225e-05 -8.11789e-06)
(5.10736e-05 6.20348e-06 -1.37613e-05)
(5.02459e-05 -1.75556e-06 -1.59344e-05)
(4.41742e-05 -9.54967e-06 -1.43755e-05)
(3.23678e-05 -1.5983e-05 -4.48653e-06)
(1.122e-05 -4.8887e-06 -1.03184e-06)
(-6.03587e-06 5.59273e-06 -2.02574e-05)
(-9.18491e-06 -6.96521e-06 -2.69396e-05)
(-1.72345e-05 -1.89566e-05 -2.39712e-05)
(-3.64566e-05 -2.34352e-05 -1.96582e-05)
(-0.000143026 -7.57806e-05 -4.79997e-05)
(-0.000278934 -0.000122633 -5.94497e-05)
(-0.000405173 -0.000157033 -5.34627e-05)
(-0.000527054 -0.000182838 -3.42849e-05)
(-0.000636884 -0.000196477 -9.96154e-06)
(-0.000735258 -0.000203287 1.48716e-05)
(-0.000818551 -0.000204785 3.80908e-05)
(-0.000888983 -0.000204524 5.85778e-05)
(-0.000948966 -0.000204322 7.58148e-05)
(-0.000997536 -0.000204909 8.97428e-05)
(-0.001036 -0.000206806 0.000100028)
(-0.00106579 -0.000210172 0.000106444)
(-0.00108874 -0.000214536 0.00010928)
(-0.00110508 -0.000220182 0.000107562)
(-0.00112063 -0.000224673 0.00010443)
(-0.00112725 -0.000231595 9.46962e-05)
(-0.00114704 -0.000235465 8.27302e-05)
(-0.00115762 -0.000240998 7.27955e-05)
(-0.00116869 -0.000245079 5.62995e-05)
(-0.0011776 -0.000248793 3.7365e-05)
(-0.00117175 -0.00025083 1.39188e-05)
(4.84833e-05 1.62316e-05 4.88789e-05)
(6.57042e-05 1.37757e-05 -7.93649e-06)
(7.23753e-05 9.84295e-06 -1.55301e-05)
(7.45692e-05 2.02269e-06 -1.93785e-05)
(7.25355e-05 -6.98881e-06 -2.03533e-05)
(6.58571e-05 -1.48881e-05 -1.91994e-05)
(5.08341e-05 -2.25057e-05 -1.78609e-05)
(3.52331e-05 -2.62843e-05 -1.76534e-05)
(2.41567e-05 -2.24905e-05 -1.02751e-05)
(-6.75236e-06 -4.06232e-06 -1.80767e-05)
(-2.30034e-05 -1.00831e-05 -2.88969e-05)
(-3.34978e-05 -2.63845e-05 -2.51419e-05)
(-0.000146604 -7.37743e-05 -4.06015e-05)
(-0.000275559 -0.000105406 -5.79096e-05)
(-0.000395568 -0.000137645 -5.15329e-05)
(-0.000507807 -0.000157617 -3.16444e-05)
(-0.000601993 -0.000167118 -8.73953e-06)
(-0.000687541 -0.000171543 1.44896e-05)
(-0.000758939 -0.000172891 3.62433e-05)
(-0.000817126 -0.000172942 5.52177e-05)
(-0.000863843 -0.000173491 7.13205e-05)
(-0.000899666 -0.000175085 8.36745e-05)
(-0.000925646 -0.000178001 9.17993e-05)
(-0.000944321 -0.000181718 9.62022e-05)
(-0.000955512 -0.000186994 9.52886e-05)
(-0.000967955 -0.000190231 9.37e-05)
(-0.000966918 -0.000196391 8.43847e-05)
(-0.000985162 -0.000199456 7.29854e-05)
(-0.000992098 -0.000204855 6.53461e-05)
(-0.000998311 -0.000207516 5.03603e-05)
(-0.00100529 -0.000211364 3.37699e-05)
(-0.00099612 -0.00021273 1.28307e-05)
(5.5004e-05 1.53558e-05 4.94482e-05)
(7.68799e-05 1.27642e-05 -7.21371e-06)
(8.72188e-05 9.20256e-06 -1.5936e-05)
(9.29364e-05 1.78805e-06 -2.12829e-05)