/*--------------------------------*- C++ -*----------------------------------*\
  =========                 |
  \\      /  F ield         | OpenFOAM: The Open Source CFD Toolbox
   \\    /   O peration     | Website:  https://openfoam.org
    \\  /    A nd           | Version:  6
     \\/     M anipulation  |
\*---------------------------------------------------------------------------*/
FoamFile
{
    version     2.0;
    format      ascii;
    class       volScalarField;
    location    "28";
    object      yPlus;
}
// * * * * * * * * * * * * * * * * * * * * * * * * * * * * * * * * * * * * * //

dimensions      [0 0 0 0 0 0 0];

internalField   uniform 0;

boundaryField
{
    inlet
    {
        type            calculated;
        value           uniform 0;
    }
    outlet
    {
        type            calculated;
        value           uniform 0;
    }
    roughCylinder
    {
        type            calculated;
        value           nonuniform List<scalar> 
5120
(
43.4889
51.3087
57.5369
63.6629
68.9515
73.2415
76.6791
79.4578
81.7327
83.6383
85.2939
86.7763
88.1228
89.3676
90.5416
91.6752
92.7989
93.9411
95.1252
96.3685
97.6805
99.0635
100.514
102.026
103.589
105.19
106.812
108.433
110.013
111.484
112.696
113.41
42.7753
50.3108
56.3399
62.3259
67.5414
71.7963
75.2155
77.9857
80.2602
82.1719
83.8361
85.3226
86.6611
87.8922
89.0482
90.1603
91.2604
92.3776
93.536
94.7521
96.0353
97.3882
98.8076
100.286
101.814
103.378
104.963
106.546
108.089
109.523
110.705
111.4
41.9872
49.2747
55.1164
60.9626
66.1045
70.328
73.7362
76.5076
78.7929
80.721
82.3992
83.8904
85.2247
86.4448
87.5844
88.6772
89.7557
90.8494
91.9819
93.171
94.4262
95.7495
97.1375
98.5835
100.077
101.606
103.154
104.699
106.203
107.602
108.753
109.429
41.178
48.2299
53.8842
59.5867
64.6541
68.8492
72.2508
75.0294
77.3331
79.2848
80.9821
82.4829
83.8197
85.0311
86.1579
87.2334
88.2914
89.3625
90.4719
91.636
92.8639
94.1583
95.5161
96.93
98.3894
99.8825
101.393
102.901
104.368
105.731
106.853
107.51
40.3124
47.1421
52.6077
58.1631
63.158
67.3339
70.7434
73.5448
75.8805
77.8648
79.5864
81.1001
82.4416
83.6504
84.7671
85.8283
86.869
87.9207
89.007
90.1464
91.3487
92.6158
93.9443
95.3272
96.7539
98.213
99.688
101.159
102.59
103.919
105.01
105.648
39.4479
46.0556
51.3256
56.7268
61.6483
65.81
69.2332
72.0611
74.431
76.4503
78.1993
79.7315
81.0856
82.2987
83.4105
84.461
85.4867
86.5195
87.5868
88.7048
89.8827
91.1233
92.4236
93.776
95.1706
96.595
98.0348
99.4699
100.865
102.158
103.221
103.841
38.5152
44.9079
49.9749
55.2135
60.0609
64.2192
67.675
70.5506
72.9724
75.0379
76.8227
78.3797
79.7491
80.9722
82.0849
83.1292
84.1437
85.1631
86.2111
87.3075
88.4628
89.6789
90.952
92.2756
93.6393
95.0316
96.4374
97.8363
99.1967
100.458
101.492
102.092
37.5872
43.7606
48.6154
53.6814
58.4528
62.6146
66.1107
69.0359
71.5075
73.6202
75.4434
77.0296
78.4238
79.6623
80.7853
81.8294
82.8378
83.8441
84.8785
85.9583
87.0926
88.2847
89.5321
90.827
92.1601
93.5184
94.8893
96.2548
97.5795
98.8064
99.8126
100.395
36.5617
42.518
47.1455
52.02
56.705
60.8766
64.4357
67.4424
69.9948
72.1747
74.0517
75.682
77.1066
78.3701
79.506
80.558
81.5643
82.5662
83.587
84.6488
85.7642
86.9349
88.1573
89.4251
90.7287
92.0571
93.3957
94.7248
96.016
97.2117
98.1898
98.7527
35.525
41.2582
45.6509
50.3221
54.9169
59.1083
62.744
65.835
68.4625
70.7119
72.6472
74.3203
75.7851
77.0759
78.2365
79.3015
80.3165
81.3156
82.3302
83.3823
84.4807
85.6302
86.8289
88.0695
89.3429
90.6374
91.9405
93.2369
94.4924
95.6542
96.6043
97.1487
34.3207
39.8366
43.9737
48.4064
52.8791
57.0809
60.8158
64.0432
66.807
69.1639
71.1836
72.9332
74.4513
75.7896
76.9779
78.0642
79.0866
80.0918
81.1013
82.1404
83.2244
84.3557
85.5312
86.7457
87.9901
89.2546
90.526
91.7857
93.0083
94.1388
95.0624
95.5852
33.0522
38.3614
42.2389
46.4221
50.7682
54.9966
58.8568
62.2263
65.1096
67.5809
69.6998
71.5125
73.0921
74.4717
75.7035
76.8189
77.8672
78.8793
79.8918
80.93
82.0022
83.1153
84.2695
85.4574
86.6716
87.9015
89.1355
90.3628
91.549
92.646
93.54
94.0449
31.5188
36.6216
40.1994
44.0635
48.2047
52.4079
56.4027
60.0041
63.1428
65.8061
68.0636
70.0131
71.6856
73.1494
74.4305
75.585
76.6505
77.6815
78.6983
79.7277
80.7903
81.8894
83.022
84.1853
85.3714
86.5715
87.7744
88.965
90.1173
91.1819
92.0513
92.5318
29.8323
34.756
38.0485
41.5936
45.5312
49.7395
53.9172
57.7503
61.0781
63.9483
66.3997
68.4517
70.2232
71.7469
73.0973
74.3037
75.4208
76.4724
77.5033
78.5444
79.6019
80.6859
81.7999
82.9371
84.0917
85.2555
86.4185
87.5743
88.6899
89.7212
90.5562
91.0186
27.6463
32.3949
35.3338
38.4172
41.9637
46.0082
50.3266
54.5694
58.4431
61.6963
64.3893
66.7023
68.6401
70.3184
71.7562
73.028
74.1726
75.2605
76.3091
77.3453
78.3988
79.4736
80.5675
81.6811
82.8081
83.9412
85.0723
86.1926
87.2718
88.2679
89.0808
89.5144
25.0451
29.7201
32.4007
35.1048
38.3172
42.3135
46.8551
51.4275
55.5222
59.1916
62.3269
64.8338
66.9645
68.7334
70.2794
71.6369
72.8743
74.002
75.0789
76.1456
77.203
78.2669
79.3451
80.4322
81.5247
82.6186
83.7058
84.784
85.8259
86.7873
87.5607
87.9749
21.2019
25.8962
28.1581
30.1097
32.4752
35.7163
40.3466
45.7908
51.3903
55.9051
59.4855
62.5607
64.9894
67.0612
68.7761
70.2482
71.5256
72.7152
73.8304
74.8948
75.9548
77.0148
78.074
79.1372
80.2024
81.2629
82.315
83.3626
84.3618
85.2833
86.0356
86.4145
15.8913
21.0497
23.4954
25.3324
27.1482
30.9962
35.5683
41.0711
46.0627
51.6525
56.4681
59.9279
62.8557
65.1097
67.0078
68.6235
70.0671
71.326
72.488
73.6119
74.6889
75.7436
76.7897
77.8253
78.8492
79.8647
80.8657
81.8575
82.8163
83.7024
84.407
84.7628
5.40252
10.4281
11.594
11.8449
11.4656
3.43458
12.5217
25.1271
38.7267
45.985
51.5505
56.6214
60.0463
62.9045
65.1508
66.9896
68.4946
69.8625
71.0983
72.2224
73.3102
74.3666
75.3943
76.4036
77.3992
78.3768
79.3353
80.3036
81.214
82.046
82.7304
83.0407
5.66277
8.83495
8.89437
5.8855
11.0684
13.9022
16.1466
17.9206
19.051
35.9608
46.0372
51.5793
56.7072
60.1275
62.7787
64.8897
66.715
68.2025
69.5143
70.7459
71.8714
72.9306
73.9469
74.9248
75.8667
76.7861
77.6816
78.5741
79.4268
80.2286
80.8506
81.1326
12.1372
16.5953
17.7156
17.0287
14.458
14.8353
19.3423
19.4411
16.9062
16.49
34.4593
46.7282
52.1138
56.7668
60.142
62.7344
64.6635
66.3662
67.8231
69.0604
70.21
71.279
72.2765
73.223
74.1324
75.0107
75.8414
76.7175
77.528
78.2415
78.8499
79.062
20.3583
24.8614
26.8806
27.9076
27.6998
25.9962
23.3755
20.8055
11.8482
2.04286
10.7405
30.9094
45.0415
51.7686
56.385
59.5931
62.2317
64.1543
65.7464
67.1847
68.4112
69.4951
70.4809
71.3851
72.2159
72.998
73.7538
74.5279
75.2236
75.9235
76.431
76.6107
22.3808
27.3646
30.086
32.0986
33.29
33.4729
32.3241
29.5982
24.2955
22.0599
13.0484
11.0135
34.1947
45.6137
51.8709
56.3244
59.1143
61.5282
63.4287
64.8799
66.1551
67.2656
68.2299
69.093
69.8793
70.6427
71.2535
72.0166
72.7071
73.2527
73.773
73.8253
23.011
28.0992
31.033
33.3975
35.153
36.2784
36.7196
36.2943
34.4714
29.6186
20.4255
21.9443
8.08436
34.2793
44.7091
50.5336
55.2646
58.1097
60.2757
62.169
63.6145
64.7584
65.7043
66.4954
67.1426
67.676
68.2293
68.8611
69.2815
69.8281
70.1533
70.1631
22.3441
27.5635
30.646
33.2249
35.26
36.7447
37.6864
38.0862
37.8526
36.5097
32.7523
26.2734
11.1474
26.7346
34.1439
45.1784
49.5985
53.7696
56.6825
58.5137
60.0321
61.238
62.1501
62.8774
63.4533
64.1529
64.2836
64.8829
65.3918
65.7388
66.1006
65.8763
20.8267
26.1775
29.3467
32.0517
34.2655
35.9879
37.2432
38.073
38.5133
38.5031
37.6007
34.1403
27.7238
11.0073
6.83257
30.2939
42.5372
47.4423
50.8302
53.9315
55.9391
57.2001
58.0478
58.6242
58.8865
58.7838
59.0782
59.5221
59.3264
59.5532
59.5201
59.1456
18.8514
24.2892
27.4795
30.2271
32.5232
34.3819
35.8326
36.9358
37.7767
38.4261
38.8148
38.3781
35.3758
29.5177
26.9624
16.1242
29.1504
39.1318
45.6445
47.3254
49.0323
50.3677
51.1718
51.5546
51.7946
53.2077
52.7443
52.279
52.0097
53.2893
52.3705
52.0991
16.6305
22.0472
25.1624
27.8552
30.1433
32.0629
33.6557
34.9801
36.1243
37.1816
38.1923
39.0026
38.9117
36.2856
26.2216
28.3189
33.0358
29.8285
28.7334
37.4776
42.009
43.6007
43.7772
44.0209
43.3333
40.4147
41.0288
40.0881
39.2507
37.2454
37.5989
35.1095
14.3964
19.6578
22.5985
25.1401
27.3326
29.2338
30.9009
32.3976
33.8036
35.2068
36.6514
38.0766
39.1903
39.1056
35.904
26.7194
33.3372
23.0747
27.6233
25.9438
27.3853
22.566
23.4004
20.3859
33.8508
35.6509
43.5532
35.1458
14.1549
36.0566
16.3773
26.2241
12.4235
17.41
20.1026
22.4232
24.4542
26.272
27.9443
29.5362
31.1148
32.752
34.4973
36.3237
38.0644
39.2911
38.9748
34.1935
27.9462
20.1609
32.9075
25.0666
36.5227
18.4142
29.3489
28.5419
40.6166
35.368
45.2076
39.1354
15.2076
40.9677
24.8304
35.6763
10.8949
15.5342
17.9604
20.0409
21.8866
23.5876
25.2158
26.8312
28.4857
30.2277
32.1031
34.1248
36.2176
38.1194
39.2961
38.5924
35.2537
30.5018
23.385
25.9189
29.6451
22.2852
28.2899
21.9539
38.4146
32.791
37.9673
39.0991
31.2408
33.2441
31.1662
36.016
9.76037
14.1563
16.3559
18.2329
19.9213
21.515
23.0805
24.6642
26.3019
28.0262
29.8751
31.8861
34.0628
36.2894
38.2237
39.2585
38.9613
37.827
32.6044
30.893
28.6846
28.7172
30.0725
32.9988
32.6929
34.6891
33.1276
37.2075
40.4809
36.6073
40.545
40.0863
9.15146
13.3563
15.3954
17.1398
18.7323
20.2582
21.7679
23.2899
24.8451
26.458
28.1641
30.011
32.0428
34.2551
36.5071
38.4195
39.5687
40.022
38.8163
38.2005
37.5416
38.5538
39.9592
40.7526
40.9913
41.3145
41.1541
42.2568
44.0245
42.4651
43.5414
42.8145
8.9684
13.0842
15.0521
16.7482
18.3137
19.8183
21.2926
22.7491
24.1985
25.6621
27.1742
28.7818
30.5403
32.4979
34.6486
36.8457
38.7762
40.1802
40.5792
40.795
40.835
41.6076
42.3944
42.45
42.869
42.9344
42.9872
42.7745
44.0086
43.3122
43.4823
42.9399
9.14087
13.2468
15.2168
16.9332
18.526
20.0464
21.5081
22.9131
24.2687
25.594
26.9202
28.2881
29.7482
31.3594
33.1739
35.1869
37.2717
39.1767
40.4711
41.2798
41.6715
42.3071
42.7629
42.4797
42.7871
42.8063
42.6941
41.9848
42.9535
42.6211
42.4793
42.1746
9.57227
13.7208
15.7416
17.5247
19.1812
20.7452
22.2182
23.5966
24.8867
26.1075
27.2875
28.4607
29.6667
30.9546
32.3826
34.0007
35.8047
37.6786
39.3176
40.5578
41.3043
41.9371
42.1765
41.7301
41.7097
41.5452
41.265
40.4625
41.132
40.9773
40.8157
40.7919
10.2066
14.4277
16.5232
18.3936
20.1294
21.7495
23.2482
24.6206
25.8748
27.0311
28.1158
29.156
30.1798
31.2213
32.326
33.5466
34.9228
36.4391
37.9479
39.2647
40.1905
40.8526
41.0048
40.4911
40.1548
39.7979
39.4348
38.7074
39.1317
39.1297
39.1072
39.3527
10.9902
15.3117
17.4943
19.4586
21.2753
22.9528
24.482
25.8607
27.1009
28.2257
29.2598
30.2247
31.1381
32.0195
32.8982
33.813
34.8056
35.8983
37.0465
38.1416
39.0012
39.599
39.7014
39.201
38.6685
38.1765
37.7878
37.2056
37.4731
37.6398
37.8085
38.2614
11.8328
16.3232
18.6016
20.6596
22.5537
24.2855
25.8465
27.239
28.4808
29.5978
30.6139
31.5467
32.4057
33.2002
33.9444
34.6611
35.3798
36.127
36.9012
37.6595
38.2855
38.7083
38.7297
38.2569
37.6373
37.0736
36.6817
36.2453
36.4546
36.7861
37.1378
37.7206
12.8174
17.4302
19.8027
21.9515
23.9186
25.7015
27.2944
28.7061
29.96
31.0853
32.1051
33.0338
33.8758
34.6333
35.3113
35.9193
36.4721
36.9869
37.4739
37.9224
38.2735
38.4677
38.3631
37.8839
37.2306
36.6318
36.2399
35.9264
36.1409
36.6123
37.116
37.7741
13.6032
14.0246
14.5107
14.9017
15.2798
15.5808
15.8431
16.0464
16.2097
16.3247
16.4026
16.4417
16.4461
16.4168
16.3582
16.2728
16.1625
16.0327
15.8939
15.7749
15.7658
15.8779
16.0146
16.1438
16.2539
16.3394
16.3979
16.4269
16.4223
16.3827
16.3041
16.1881
16.0238
15.8189
15.5549
15.2518
14.8714
14.4776
13.9888
13.5647
18.3432
18.7809
19.2869
19.6958
20.0919
20.4139
20.6988
20.9266
21.1154
21.2578
21.3635
21.4313
21.4639
21.4614
21.426
21.3596
21.2632
21.1406
21.0017
20.877
20.8671
20.9845
21.1216
21.2439
21.3404
21.4068
21.4422
21.4444
21.4114
21.3428
21.2361
21.0924
20.902
20.6722
20.3853
20.0606
19.6619
19.2498
18.7408
18.3003
20.794
21.257
21.7928
22.2271
22.6513
23.0036
23.3227
23.5876
23.8165
24.002
24.1522
24.2663
24.3459
24.3897
24.3977
24.3709
24.3094
24.2155
24.0981
23.9863
23.9769
24.0819
24.1978
24.2916
24.3533
24.3803
24.3722
24.3281
24.2478
24.1327
23.9811
23.7939
23.563
23.2957
22.9741
22.6188
22.1915
21.7536
21.2146
20.7484
23.0032
23.4853
24.0436
24.4973
24.9457
25.3249
25.6757
25.976
26.2438
26.4719
26.6665
26.8263
26.9528
27.0431
27.0959
27.1104
27.0859
27.0246
26.9346
26.8449
26.8371
26.9203
27.0088
27.0704
27.0951
27.0809
27.028
26.9373
26.8101
26.6489
26.4527
26.2225
25.9524
25.6494
25.2956
24.9129
24.4611
24.0036
23.4416
22.9561
25.0091
25.4952
26.061
26.5208
26.9807
27.3749
27.7456
28.0701
28.3657
28.6261
28.8565
29.054
29.219
29.3477
29.438
29.4878
29.4957
29.4632
29.3994
29.3323
29.3263
29.3873
29.4497
29.4823
29.475
29.4256
29.3353
29.206
29.0402
28.8412
28.609
28.3462
28.048
27.7203
27.3464
26.9484
26.4848
26.0208
25.4512
24.9615
26.8112
27.2849
27.8442
28.2981
28.758
29.1571
29.5383
29.8797
30.1977
30.4849
30.7452
30.9747
31.1725
31.3342
31.4567
31.5367
31.5724
31.5651
31.5237
31.4748
31.4699
31.5135
31.5536
31.5612
31.5262
31.4467
31.3243
31.1621
30.9634
30.7324
30.47
30.1804
29.8594
29.5145
29.1298
28.7267
28.2628
27.8046
27.2413
26.7638
28.4095
28.8596
29.4048
29.8471
30.3028
30.7042
31.0953
31.4532
31.7922
32.1042
32.392
32.6506
32.8779
33.069
33.2199
33.3264
33.3862
33.4
33.3765
33.3407
33.3367
33.3678
33.3904
33.377
33.3181
33.2122
33.0616
32.8701
32.6418
32.3817
32.0918
31.777
31.4349
31.0733
30.6785
30.2727
29.8131
29.3662
28.817
28.363
29.82
30.2425
30.7732
31.2053
31.6593
32.0673
32.4702
32.8455
33.2051
33.5408
33.854
34.1391
34.3931
34.6103
34.7861
34.9156
34.9955
35.0264
35.0164
34.9892
34.9857
35.0087
35.0181
34.9881
34.9092
34.7807
34.6053
34.3877
34.1329
33.8461
33.5308
33.1923
32.8294
32.4503
32.0435
31.6309
31.1728
30.736
30.2012
29.7748
31.0722
31.4688
31.9887
32.416
32.8727
33.2899
33.7055
34.0978
34.4768
34.834
35.1698
35.4784
35.7556
35.9954
36.1922
36.3407
36.4371
36.4812
36.4807
36.4589
36.4556
36.4738
36.4741
36.4311
36.3361
36.1887
35.9925
35.7525
35.4745
35.1644
34.8263
34.4662
34.0838
33.6877
33.2679
32.8462
32.385
31.953
31.429
31.0284
32.1973
32.571
33.0844
33.5107
33.9716
34.3981
34.8259
35.2333
35.6292
36.0053
36.3605
36.6887
36.9854
37.2438
37.4578
37.6216
37.7307
37.7846
37.7907
37.7718
37.7688
37.7845
37.7785
37.726
37.6186
37.4562
37.2429
36.9845
36.6871
36.3572
35.9998
35.6209
35.2214
34.81
34.3779
33.9467
33.4813
33.05
32.5326
32.1547
33.217
33.5694
34.0783
34.504
34.9689
35.4036
35.8418
36.2623
36.6724
37.064
37.4352
37.7796
38.0919
38.3653
38.5928
38.7684
38.8873
38.9486
38.9593
38.9421
38.9392
38.9534
38.9433
38.8838
38.7668
38.5929
38.3662
38.093
37.7801
37.4341
37.0607
36.6661
36.2523
35.8277
35.3852
34.9455
34.4758
34.0451
33.5321
33.1756
34.1427
34.4726
34.9757
35.4001
35.868
36.3095
36.7562
37.1875
37.6095
38.0138
38.3978
38.7553
39.0801
39.3651
39.6034
39.7883
39.915
39.9824
39.9971
39.9821
39.9794
39.9918
39.9778
39.9126
39.7881
39.605
39.3678
39.083
38.7576
38.3988
38.0124
37.6051
37.1795
36.7439
36.2926
35.846
35.3731
34.9435
34.436
34.1021
34.976
35.2807
35.7759
36.198
36.6677
37.1148
37.5687
38.009
38.4408
38.8554
39.2501
39.6179
39.9526
40.247
40.4937
40.6863
40.8197
40.893
40.9129
40.9016
40.8991
40.9082
40.8893
40.8184
40.6874
40.4968
40.2513
39.9574
39.6221
39.2529
38.8559
38.4382
38.0027
37.5579
37.0992
36.6466
36.1717
35.7441
35.2443
34.9354
35.7159
35.9908
36.4755
36.8938
37.3647
37.8166
38.2769
38.7252
39.1655
39.589
39.9923
40.3686
40.7113
41.0131
41.2668
41.4658
41.6055
41.685
41.7115
41.706
41.7039
41.7078
41.6824
41.6053
41.4682
41.2712
41.019
40.7177
40.3746
39.997
39.5913
39.1646
38.7204
38.2674
37.8019
37.3443
36.868
36.4435
35.9539
35.6743
36.3621
36.6004
37.0704
37.4837
37.9547
38.4113
38.8779
39.3338
39.7818
40.2133
40.6243
41.0077
41.3571
41.6651
41.9246
42.1295
42.2753
42.3619
42.3964
42.3981
42.3965
42.3937
42.3605
42.2764
42.1332
41.9305
41.6725
41.3652
41.0154
40.6305
40.2172
39.7823
39.3301
38.8692
38.3973
37.9345
37.4575
37.0373
36.5618
36.3179
36.9168
37.1063
37.5561
37.9619
38.4325
38.8936
39.3664
39.8302
40.2861
40.7252
41.1433
41.5332
41.8886
42.2021
42.4669
42.6772
42.8294
42.9235
42.9668
42.9757
42.9747
42.9651
42.9234
42.8318
42.6823
42.4742
42.211
41.8982
41.5425
41.151
40.7304
40.2878
39.8275
39.3584
38.8796
38.4116
37.9342
37.5205
37.0641
36.8673
37.3847
37.5061
37.9268
38.3215
38.7901
39.2557
39.7352
40.2072
40.6712
41.1182
41.5434
41.9397
42.3007
42.6193
42.8893
43.105
43.2635
43.3651
43.4168
43.4326
43.432
43.4162
43.3662
43.2671
43.1114
42.898
42.6297
42.3117
41.9503
41.5525
41.1246
40.6737
40.2049
39.7271
39.241
38.7675
38.291
37.8866
37.4571
37.3253
37.7728
37.7973
38.1726
38.5527
39.0167
39.4866
39.973
40.4536
40.9264
41.3817
41.8145
42.2174
42.5841
42.9079
43.1828
43.4038
43.5684
43.6772
43.7366
43.7583
43.7581
43.737
43.6796
43.5734
43.4116
43.1929
42.9195
42.5963
42.2291
41.8244
41.3888
40.9294
40.4514
39.964
39.47
38.991
38.5169
38.1246
37.7367
37.697
38.0869
37.9799
38.2869
38.642
39.0994
39.5724
40.0657
40.5555
41.0376
41.5019
41.9426
42.3525
42.7253
43.0546
43.3347
43.5611
43.7315
43.8468
43.9128
43.9393
43.9396
43.9141
43.8503
43.7376
43.5699
43.3459
43.0674
42.7386
42.3651
41.9533
41.5094
41.0405
40.5524
40.055
39.5528
39.0687
38.5986
38.227
37.9029
37.989
38.3155
38.0481
38.2624
38.5792
39.0242
39.4991
39.9988
40.4978
40.9895
41.4632
41.9124
42.3299
42.7092
43.0443
43.3297
43.5614
43.7373
43.8585
43.9302
43.9606
43.961
43.9321
43.8628
43.7444
43.5712
43.3419
43.058
42.7233
42.343
41.9233
41.4704
40.9915
40.4929
39.9852
39.4751
38.9866
38.5259
38.1898
37.9559
38.2012
38.4149
37.9827
38.0905
38.3557
38.7807
39.2564
39.761
40.2688
40.7696
41.2528
41.7106
42.1358
42.522
42.8629
43.1538
43.3905
43.5715
43.6978
43.7741
43.8076
43.8082
43.7765
43.7028
43.5794
43.4012
43.1666
42.8772
42.5363
42.1491
41.7212
41.2592
40.7701
40.2616
39.744
39.2277
38.7371
38.2954
38.0112
37.8883
38.3098
38.3307
37.7556
37.7607
37.969
38.3673
38.839
39.3495
39.865
40.3744
40.8659
41.3317
41.7641
42.1566
42.5032
42.799
43.0403
43.2256
43.3559
43.4356
43.4713
43.472
43.4383
43.3613
43.2339
43.0513
42.8121
42.5176
42.1709
41.7769
41.3414
40.871
40.3728
39.855
39.329
38.806
38.3201
37.9085
37.6892
37.6861
38.2815
38.0277
37.3509
37.2757
37.4327
37.8034
38.2669
38.7802
39.3009
39.8166
40.3144
40.7862
41.2241
41.6214
41.9722
42.2717
42.5162
42.7043
42.8371
42.9187
42.9556
42.9565
42.9216
42.8426
42.7127
42.5274
42.2849
41.9865
41.6355
41.2364
40.7953
40.3185
39.8137
39.2894
38.7581
38.233
37.7578
37.379
37.2205
37.3137
38.035
37.5289
36.7859
36.6575
36.7762
37.1232
37.5763
38.0887
38.6141
39.1334
39.6348
40.1096
40.5501
40.9496
41.3022
41.6028
41.8482
42.0367
42.1696
42.2511
42.2879
42.2887
42.2538
42.1749
42.0449
41.8591
41.6159
41.3164
40.9637
40.5627
40.1191
39.6395
39.1319
38.6049
38.0701
37.548
37.0858
36.7332
36.6141
36.7543
37.5231
36.9158
36.1429
35.9889
36.0824
36.4107
36.8517
37.3586
37.8826
38.4002
38.9003
39.3736
39.8124
40.21
40.5603
40.8584
41.1009
41.2863
41.4159
41.4943
41.5292
41.5298
41.4966
41.4206
41.2938
41.1111
40.8706
40.5737
40.2233
39.8243
39.3826
38.9049
38.3987
37.8736
37.3403
36.8234
36.3717
36.0339
35.9319
36.0838
36.8594
36.3126
35.5272
35.3656
35.4478
35.7652
36.1961
36.6948
37.2123
37.7236
38.2175
38.6844
39.1169
39.5077
39.8511
40.1422
40.3774
40.5552
40.6771
40.7485
40.7786
40.7787
40.7495
40.6801
40.5607
40.3853
40.152
39.8619
39.5183
39.1261
38.6911
38.2201
37.7208
37.203
36.6779
36.1713
35.7322
35.4074
35.3169
35.4729
36.2513
35.7652
35.0467
34.9231
35.0177
35.334
35.7556
36.2412
36.7446
37.2426
37.7233
38.1773
38.597
38.9753
39.3062
39.5848
39.8077
39.9728
40.082
40.1412
40.1627
40.1619
40.1398
40.0815
39.9742
39.8107
39.589
39.3106
38.9787
38.5983
38.1755
37.7171
37.2312
36.7279
36.2195
35.7311
35.3105
35.002
34.9251
35.0853
35.8638
35.6719
34.9859
34.8803
34.9704
35.2724
35.6717
36.1315
36.6075
37.0815
37.5399
37.973
38.3727
38.7317
39.0443
39.3054
39.5108
39.6587
39.7502
39.792
39.8001
39.7977
39.7867
39.7445
39.6535
39.5061
39.3004
39.0382
38.7232
38.3602
37.9553
37.5154
37.0489
36.5658
36.0795
35.6104
35.2033
34.8979
34.8091
34.9323
35.6466
35.9527
35.2636
35.1566
35.2406
35.5286
35.9071
36.3411
36.791
37.2409
37.6766
38.0881
38.4668
38.8058
39.0992
39.3419
39.5298
39.6606
39.7345
39.7581
39.7505
39.7474
39.7517
39.7281
39.6553
39.5255
39.3379
39.0947
38.7995
38.4575
38.0748
37.658
37.216
36.7586
36.3007
35.8579
35.4715
35.1777
35.0893
35.1981
35.8888
36.2892
35.7417
35.7115
35.8269
36.1171
36.4775
36.8842
37.3049
37.7251
38.1316
38.5147
38.8663
39.1798
39.4495
39.6702
39.8381
39.9503
40.0067
40.0125
39.9881
39.9819
40
39.9927
39.9363
39.8237
39.6548
39.4322
39.1597
38.8423
38.4859
38.0975
37.6857
37.2606
36.8372
36.4318
36.0784
35.8058
35.7242
35.8122
36.4568
37.1543
36.5323
36.4514
36.5227
36.7751
37.1008
37.4775
37.8722
38.2689
38.6534
39.016
39.3485
39.6443
39.8977
40.1038
40.2587
40.3596
40.4061
40.4031
40.3713
40.3663
40.3954
40.4005
40.3573
40.2598
40.1077
39.9037
39.6515
39.3562
39.0233
38.6598
38.2737
37.8749
37.478
37.0982
36.7683
36.5081
36.4228
36.481
37.0677
37.4071
36.8885
36.8743
36.9826
37.2517
37.5799
37.951
38.3346
38.7176
39.0871
39.4342
39.7515
40.0327
40.2726
40.4663
40.6102
40.7016
40.7401
40.7304
40.6927
40.6851
40.7172
40.7279
40.6922
40.6038
40.4627
40.2714
40.0337
39.7547
39.4401
39.0967
38.7329
38.3589
37.9895
37.6404
37.3457
37.1225
37.0736
37.1538
37.7544
43.4962
51.3161
57.5446
63.6709
68.9595
73.2492
76.6862
79.4642
81.7386
83.6438
85.2993
86.7818
88.1282
89.3728
90.5463
91.6796
92.8029
93.9447
95.1284
96.3712
97.6827
99.0649
100.515
102.026
103.588
105.187
106.808
108.428
110.011
111.482
112.7
113.415
42.7799
50.3164
56.3463
62.3325
67.548
71.803
75.2223
77.9926
80.2672
82.1788
83.8427
85.3286
86.6665
87.8972
89.0529
90.1649
91.2647
92.3814
93.5395
94.755
96.0376
97.3897
98.8081
100.286
101.813
103.376
104.96
106.541
108.086
109.522
110.709
111.405
41.999
49.2859
55.1277
60.9738
66.1152
70.3378
73.7449
76.5154
78.7999
80.7274
82.4053
83.8966
85.2309
86.4509
87.59
88.6822
89.7602
90.8535
91.9855
93.174
94.4285
95.751
97.1384
98.583
100.076
101.603
103.15
104.693
106.201
107.6
108.758
109.435
41.1806
48.2341
53.8894
59.5924
64.6603
68.8559
72.2582
75.0373
77.3412
79.2929
80.9898
82.4899
83.8257
85.0366
86.1631
87.2384
88.2962
89.3667
90.4756
91.6391
92.8663
94.16
95.5167
96.9295
98.3875
99.8793
101.389
102.894
104.365
105.73
106.857
107.516
40.3292
47.1584
52.6242
58.1794
63.1734
67.3477
70.7551
73.5548
75.8893
77.8729
79.594
81.1074
82.449
83.6575
84.7736
85.8339
86.874
87.9252
89.011
90.1496
91.3512
92.6173
93.945
95.3263
96.752
98.2089
99.6831
101.152
102.587
103.917
105.015
105.655
39.4492
46.0585
51.3293
56.7309
61.6529
65.8156
69.2404
72.0697
74.4401
76.4592
78.2079
79.7393
81.0925
82.3049
83.4165
84.4668
85.4922
86.5242
87.5908
88.7083
89.8854
91.1252
92.4241
93.7751
95.1683
96.591
98.0299
99.4616
100.86
102.156
103.227
103.848
38.5369
44.9298
49.9982
55.2374
60.0843
64.2403
67.6925
70.5647
72.9843
75.049
76.8331
78.3895
79.7583
80.9805
82.0922
83.1355
84.1491
85.1682
86.2156
87.311
88.4654
89.6803
90.9527
92.2747
93.637
95.0272
96.4312
97.8276
99.192
100.455
101.497
102.1
37.5895
43.7637
48.618
53.6831
58.454
62.6166
66.1156
69.044
71.5171
73.6291
75.4516
77.0376
78.4314
79.6697
80.7926
81.8363
82.8442
83.8495
84.8829
85.9621
87.0956
88.2869
89.5324
90.826
92.1565
93.5136
94.8836
96.244
97.5736
98.8034
99.8189
100.404
36.587
42.5456
47.1769
52.0549
56.7414
60.9109
64.4644
67.4643
70.0127
72.1915
74.0678
75.696
77.1184
78.3797
79.5139
80.5649
81.5702
82.5719
83.5921
84.6528
85.767
86.9362
88.1579
89.4241
90.7265
92.0518
93.3874
94.7132
96.0093
97.208
98.196
98.7625
35.5331
41.2653
45.6552
50.322
54.9127
59.1031
62.7429
65.8404
68.4711
70.7191
72.6528
74.3272
75.7937
77.0857
78.2462
79.3103
80.3244
81.3219
82.3352
83.3865
84.484
85.6327
86.8291
88.068
89.3384
90.6312
91.9336
93.222
94.484
95.65
96.6121
97.1589
34.3479
39.8687
44.0134
48.455
52.9348
57.1375
60.8643
64.079
66.8347
69.1907
71.2106
72.9548
74.4662
75.7994
76.9858
78.0713
79.0929
80.098
81.1071
82.145
83.2274
84.3568
85.532
86.7447
87.988
89.2485
90.5157
91.77
92.9986
94.1346
95.0694
95.5974
33.075
38.3812
42.2527
46.4255
50.7593
54.9803
58.8453
62.2273
65.1171
67.5846
69.6982
71.5152
73.1029
74.4876
75.7185
76.831
77.8775
78.8873
79.8978
80.9347
82.0059
83.1182
84.2691
85.4548
86.6648
87.8936
89.1265
90.3416
91.5369
92.6407
93.549
94.0571
31.5445
36.6539
40.2435
44.1262
48.2878
52.5022
56.4853
60.0619
63.1846
65.8484
68.1107
70.0501
71.7047
73.1555
74.4349
75.5916
76.6568
77.6882
78.7046
79.7331
80.7939
81.8902
83.023
84.1849
85.3703
86.5633
87.7615
88.9425
90.1035
91.1761
92.0595
92.5469
29.8891
34.8092
38.0933
41.617
45.5201
49.699
53.8869
57.7479
61.0886
63.948
66.3823
68.4412
70.235
71.7756
73.1245
74.3217
75.435
76.4829
77.5111
78.5497
79.6056
80.6893
81.7989
82.9325
84.0808
85.2458
86.406
87.5446
88.6723
89.7142
90.5677
91.0346
27.6713
32.4242
35.377
38.4981
42.1112
46.2184
50.4923
54.6657
58.5034
61.7624
64.4751
66.7726
68.6714
70.3156
71.7489
73.0316
74.1782
75.2673
76.3157
77.3516
78.4031
79.4744
80.569
81.6824
82.8099
83.931
85.0569
86.1598
87.2512
88.2605
89.0907
89.5337
25.1939
29.8641
32.5347
35.1823
38.2453
42.0446
46.72
51.4182
55.5527
59.1914
62.2756
64.792
66.9675
68.782
70.3319
71.6666
72.895
74.0168
75.0896
76.1518
77.2068
78.2705
79.3434
80.424
81.5068
82.6062
83.6882
84.7417
85.798
86.7785
87.5748
87.9952
21.2921
25.969
28.2465
30.3477
33.1579
37.0769
41.0209
46.0195
51.4753
56.0043
59.6518
62.6915
65.0512
67.0466
68.743
70.2425
71.5291
72.7217
73.8373
74.9024
75.9602
77.0156
78.0757
79.142
80.2091
81.2498
82.2969
83.313
84.33
85.2748
86.0481
86.4403
16.4639
21.5785
24.0804
25.5503
26.0132
26.7523
34.1052
40.8271
46.146
51.6864
56.3346
59.8499
62.8422
65.1852
67.1063
68.6756
70.098
71.3476
72.5028
73.6199
74.6931
75.7473
76.788
77.8121
78.8223
79.8492
80.8419
81.7946
82.7712
83.6887
84.4239
84.7877
6.93222
11.9305
12.7177
12.8948
14.8662
14.0126
18.47
27.9315
39.2406
46.1382
51.9517
56.7927
60.1336
62.8714
65.0673
66.9635
68.4952
69.8685
71.1066
72.2315
73.3163
74.3672
75.3952
76.4131
77.4108
78.3592
79.3143
80.2275
81.1591
82.0423
82.7478
83.0768
3.67263
9.79502
14.0692
14.815
15.7182
14.4195
18.6459
20.2275
16.0491
35.9076
45.4786
51.6735
56.7688
60.2554
62.9646
64.9827
66.7606
68.2344
69.534
70.7563
71.8765
72.9347
73.9471
74.9066
75.8322
76.7684
77.6518
78.4727
79.3546
80.2048
80.8721
81.1601
11.0656
15.2919
16.3017
17.0394
14.6365
12.7759
19.1171
18.8523
20.6594
16.7339
36.2763
46.2477
51.9867
56.6652
59.9382
62.6687
64.6639
66.374
67.8361
69.0721
70.2158
71.278
72.2755
73.2373
74.1446
74.9807
75.8204
76.6012
77.4189
78.2533
78.8737
79.1151
19.9499
24.3926
26.2143
26.8836
26.6053
25.0407
22.4763
16.9616
17.2218
8.53196
25.8527
34.9632
46.0127
52.0153
56.7907
59.7665
62.3031
64.2056
65.7747
67.198
68.4176
69.5004
70.4863
71.3657
72.1812
72.9869
73.719
74.3409
75.0979
75.8867
76.4607
76.6324
22.2456
27.2258
29.9466
31.967
33.1907
33.4637
32.5554
30.1718
25.7962
18.896
15.2648
8.18386
32.0239
45.4487
51.2677
56.176
59.1257
61.5405
63.4455
64.8961
66.1571
67.2563
68.2287
69.1119
69.8851
70.5638
71.2511
71.8432
72.4766
73.292
73.8132
73.9148
23.0324
28.1217
31.0569
33.4187
35.1679
36.2846
36.7263
36.3477
34.7281
31.0509
24.7259
27.5169
31.6991
31.9612
45.9855
50.8949
55.4232
58.2238
60.3424
62.1883
63.6241
64.7713
65.7204
66.4856
67.1268
67.7151
68.1886
68.4417
68.9954
69.8028
70.1916
70.1367
22.4139
27.6381
30.7288
33.3158
35.3585
36.8519
37.8101
38.2505
38.1135
36.9693
33.3552
25.6315
27.5155
3.28161
31.8396
45.036
49.6149
53.7558
56.6461
58.525
60.0158
61.1974
62.1664
62.9111
63.4559
63.8449
64.3565
64.6536
64.9255
65.7684
66.2178
66.0724
20.8939
26.2486
29.4231
32.1315
34.3458
36.0676
37.3279
38.1824
38.6918
38.7973
37.8838
34.2591
29.6323
13.4144
14.3369
29.728
43.4261
47.8307
51.1366
54.0024
55.9634
57.2488
58.0903
58.6606
58.9354
59.1026
58.9606
58.2893
58.4341
59.7001
59.5424
58.8996
18.9046
24.3494
27.5469
30.3016
32.6046
34.4724
35.9377
37.0653
37.9455
38.6527
39.1056
38.6647
35.8123
26.1209
21.2912
20.6916
28.0917
39.368
44.6445
47.0883
48.913
50.2716
51.3076
51.6771
51.9164
51.4693
52.1823
52.2548
52.5367
52.1099
53.0969
52.978
16.6661
22.0911
25.2143
27.9161
30.2163
32.1535
33.7733
35.1371
36.3334
37.445
38.4769
39.2221
38.8972
36.0024
27.9971
24.5733
21.609
24.4555
31.327
38.597
42.1925
44.2218
43.817
44.396
43.2426
42.6698
40.406
35.5066
34.5325
39.9437
37.482
33.9216
14.4201
19.6878
22.6343
25.1833
27.3873
29.3072
31.0031
32.5405
33.9972
35.4531
36.9305
38.3123
39.2209
38.7411
34.0578
27.4561
29.5059
22.631
34.3863
23.895
22.6565
24.1208
26.3571
24.2971
25.9856
32.5895
23.8859
27.5781
34.3159
20.0263
22.7537
26.7887
12.4387
17.4291
20.1248
22.45
24.4895
26.3223
28.0188
29.6453
31.2686
32.9527
34.7315
36.5429
38.1599
39.0977
38.1749
34.1359
29.0236
27.3357
36.4818
22.1409
12.9912
21.849
8.63154
15.1092
35.2202
41.6354
31.2175
33.3341
40.4043
24.8442
30.2209
36.9365
10.9073
15.5484
17.9757
20.0582
21.9089
23.6194
25.2631
26.9007
28.5843
30.3599
32.2654
34.2918
36.3225
38.0518
38.9193
38.2827
34.9154
30.9206
29.7449
26.9691
19.4207
32.8433
21.0127
28.82
35.5037
38.35
36.8706
33.1275
42.5068
37.9675
30.65
28.8353
9.773
14.1697
16.3693
18.2473
19.9387
21.5381
23.112
24.7073
26.3597
28.1018
29.9688
31.9897
34.1481
36.303
38.1081
39.1286
38.8312
37.5051
34.0614
29.1915
32.3374
26.1831
33.922
32.0294
33.6091
36.0899
36.1721
38.7345
31.5245
39.8084
39.2746
37.8399
9.16763
13.3733
15.4126
17.1579
18.7526
20.2816
21.7949
23.3211
24.8813
26.5004
28.2135
30.065
32.0917
34.2795
36.4875
38.4036
39.5843
39.9399
39.3356
37.4215
36.0513
34.1961
37.1143
38.7276
40.4803
42.4939
41.2117
42.1664
38.6816
41.9887
43.2808
42.9465
8.99034
13.1079
15.0767
16.7742
18.3415
19.8475
21.3226
22.7792
24.2284
25.692
27.2041
28.8107
30.5649
32.5123
34.649
36.8545
38.8149
40.1893
40.7569
40.326
39.2979
39.0595
39.9152
41.268
42.2252
43.4408
42.19
42.2744
41.7794
42.02
43.7858
43.8178
9.16891
13.2776
15.2495
16.968
18.5625
20.0834
21.5445
22.948
24.3014
25.6241
26.9472
28.3113
29.7661
31.3696
33.1759
35.1921
37.2968
39.2059
40.5563
41.0185
40.6138
40.646
40.8199
41.7518
42.156
42.8734
41.6743
41.4176
41.9677