/*--------------------------------*- C++ -*----------------------------------*\
  =========                 |
  \\      /  F ield         | OpenFOAM: The Open Source CFD Toolbox
   \\    /   O peration     | Website:  https://openfoam.org
    \\  /    A nd           | Version:  6
     \\/     M anipulation  |
\*---------------------------------------------------------------------------*/
FoamFile
{
    version     2.0;
    format      ascii;
    class       volVectorField;
    location    "22";
    object      wallShearStress;
}
// * * * * * * * * * * * * * * * * * * * * * * * * * * * * * * * * * * * * * //

dimensions      [0 2 -2 0 0 0 0];

internalField   uniform (0 0 0);

boundaryField
{
    inlet
    {
        type            calculated;
        value           uniform (0 0 0);
    }
    outlet
    {
        type            calculated;
        value           uniform (0 0 0);
    }
    roughCylinder
    {
        type            calculated;
        value           nonuniform List<vector> 
3840
(
(-0.000476457 -0.000688638 -0.000289177)
(-0.000332694 -0.000505821 -1.8135e-05)
(-0.000365011 -0.000579023 4.12428e-05)
(-0.00045191 -0.00068392 0.000110079)
(-0.000544231 -0.000755142 0.000175913)
(-0.000635174 -0.000794732 0.000231572)
(-0.000717703 -0.000808087 0.00027406)
(-0.000789706 -0.000809115 0.000303843)
(-0.000851303 -0.000812162 0.000323514)
(-0.000899968 -0.000820686 0.000332811)
(-0.000940178 -0.000836737 0.00033364)
(-0.000974287 -0.000858823 0.000328574)
(-0.00100584 -0.000885269 0.000319825)
(-0.0010378 -0.0009149 0.000308862)
(-0.00107184 -0.000947064 0.000296297)
(-0.00110853 -0.000981474 0.000282236)
(-0.00114801 -0.00101804 0.000266572)
(-0.00118992 -0.00105644 0.000248997)
(-0.00123373 -0.00109611 0.000228938)
(-0.00127854 -0.00113614 0.000205383)
(-0.00132299 -0.00117518 0.000176502)
(-0.00136482 -0.00121118 0.000139697)
(-0.00139973 -0.00124113 9.1008e-05)
(-0.00142073 -0.00125962 3.13727e-05)
(-0.000500291 -0.000656756 -0.000282966)
(-0.000352216 -0.000494654 -2.15165e-05)
(-0.000383988 -0.000561725 3.34252e-05)
(-0.000472727 -0.000667109 9.9011e-05)
(-0.000567465 -0.000740611 0.000163131)
(-0.000661376 -0.000783473 0.000217971)
(-0.000747915 -0.000801386 0.000260665)
(-0.000825229 -0.000807426 0.000292091)
(-0.000892066 -0.000812285 0.000313798)
(-0.000943344 -0.000818821 0.000323816)
(-0.000985338 -0.000833598 0.000324938)
(-0.00102141 -0.000854952 0.000320089)
(-0.00105489 -0.000880989 0.000311524)
(-0.00108864 -0.00091022 0.000300732)
(-0.00112448 -0.000941997 0.000288423)
(-0.00116321 -0.00097613 0.000274765)
(-0.00120472 -0.00101231 0.000259588)
(-0.00124871 -0.00105027 0.000242597)
(-0.0012946 -0.00108942 0.000223199)
(-0.00134148 -0.0011289 0.000200385)
(-0.00138789 -0.00116737 0.000172332)
(-0.00143153 -0.00120283 0.000136473)
(-0.00146792 -0.00123233 8.89256e-05)
(-0.0014898 -0.00125052 3.06483e-05)
(-0.000494647 -0.000587823 -0.000249378)
(-0.000375625 -0.00047904 -2.65542e-05)
(-0.000401407 -0.000539415 2.47092e-05)
(-0.000491798 -0.000643811 8.70607e-05)
(-0.000588852 -0.000719467 0.000149324)
(-0.000685687 -0.00076581 0.000203463)
(-0.000776732 -0.000788902 0.000246807)
(-0.000859321 -0.000799943 0.000279808)
(-0.000930751 -0.000807015 0.000302935)
(-0.000985384 -0.000811738 0.000313653)
(-0.00102962 -0.000825326 0.000315337)
(-0.00106771 -0.000845665 0.000310749)
(-0.00110299 -0.000870886 0.000302391)
(-0.00113866 -0.000899571 0.000291881)
(-0.00117649 -0.000930861 0.00027994)
(-0.00121702 -0.0009643 0.000266696)
(-0.00126047 -0.000999811 0.000252061)
(-0.00130645 -0.00103702 0.000235705)
(-0.00135436 -0.0010754 0.000217034)
(-0.0014032 -0.00111406 0.000195021)
(-0.00145149 -0.00115169 0.000167858)
(-0.00149681 -0.00118637 0.000133014)
(-0.0015346 -0.00121521 8.66936e-05)
(-0.00155729 -0.00123298 2.98733e-05)
(-0.000448164 -0.000481357 -0.000193124)
(-0.000395585 -0.000454022 -3.29677e-05)
(-0.000414506 -0.00051146 1.58423e-05)
(-0.000505971 -0.000614165 7.44604e-05)
(-0.000605332 -0.000692053 0.000134589)
(-0.000705822 -0.000742954 0.000188099)
(-0.000801496 -0.000771526 0.000232177)
(-0.000889009 -0.000787156 0.000266598)
(-0.000964444 -0.000796006 0.000290672)
(-0.00102442 -0.000801197 0.000302778)
(-0.00107069 -0.000812714 0.000304954)
(-0.00111088 -0.000831772 0.000300711)
(-0.00114831 -0.000856184 0.000292738)
(-0.00118583 -0.000884039 0.000282562)
(-0.00122538 -0.000914474 0.000271005)
(-0.00126794 -0.00094725 0.000258305)
(-0.00131331 -0.000981936 0.00024428)
(-0.00136122 -0.00101825 0.00022862)
(-0.00141097 -0.00105561 0.00021071)
(-0.00146161 -0.00109321 0.000189531)
(-0.0015116 -0.0011298 0.000163287)
(-0.00155845 -0.00116347 0.000129485)
(-0.00159749 -0.00119149 8.44179e-05)
(-0.00162091 -0.00120872 2.90842e-05)
(-0.000592084 -0.000567585 -0.000220804)
(-0.000411463 -0.00042977 -3.7652e-05)
(-0.000423879 -0.000478828 6.90897e-06)
(-0.000515021 -0.000579589 6.12831e-05)
(-0.000616691 -0.000659759 0.000119074)
(-0.00072027 -0.000714573 0.000171634)
(-0.00082049 -0.000748506 0.000216312)
(-0.0009129 -0.00076858 0.000252065)
(-0.000993394 -0.00078006 0.00027737)
(-0.00105777 -0.000785821 0.000290647)
(-0.0011078 -0.000795429 0.000293713)
(-0.00115037 -0.00081315 0.000290061)
(-0.00118973 -0.000836192 0.000282492)
(-0.00122927 -0.000863098 0.000272795)
(-0.00127088 -0.00089274 0.000261791)
(-0.00131506 -0.000924391 0.000249631)
(-0.00136217 -0.000957982 0.000236263)
(-0.00141179 -0.000993108 0.000221336)
(-0.00146327 -0.00102926 0.000204239)
(-0.00151555 -0.00106559 0.000183933)
(-0.00156706 -0.00110089 0.000158637)
(-0.00161528 -0.00113336 0.0001259)
(-0.00165544 -0.00116038 8.21115e-05)
(-0.00167949 -0.00117698 2.8286e-05)
(-0.00049769 -0.000426081 -0.000158455)
(-0.000421404 -0.000398551 -4.17741e-05)
(-0.000427728 -0.000442056 -2.18502e-06)
(-0.000517552 -0.000540158 4.76525e-05)
(-0.000620937 -0.000622063 0.000102637)
(-0.000728514 -0.000681668 0.000154154)
(-0.000833411 -0.000720807 0.000199227)
(-0.000930634 -0.000744934 0.00023614)
(-0.00101507 -0.00075805 0.000262429)
(-0.00108524 -0.000765789 0.000277199)
(-0.00114017 -0.000774385 0.000281489)
(-0.00118523 -0.000789644 0.000278548)
(-0.00122718 -0.000811502 0.000271684)
(-0.00126871 -0.000837112 0.000262563)
(-0.00131191 -0.000865385 0.000252116)
(-0.00135811 -0.000896016 0.000240678)
(-0.001407 -0.000928384 0.000228056)
(-0.00145831 -0.000962203 0.000213937)
(-0.00151131 -0.000996885 0.000197683)
(-0.00156503 -0.00103171 0.000178278)
(-0.00161786 -0.0010655 0.000153949)
(-0.00166727 -0.00109656 0.000122289)
(-0.00170839 -0.00112241 7.97905e-05)
(-0.00173295 -0.00113827 2.74845e-05)
(-0.000597896 -0.000454481 -0.000159516)
(-0.000431171 -0.000368615 -4.65258e-05)
(-0.000426457 -0.000403351 -1.09342e-05)
(-0.000513369 -0.00049748 3.39033e-05)
(-0.000618756 -0.000581437 8.56628e-05)
(-0.000728949 -0.000644385 0.0001355)
(-0.000838219 -0.000688156 0.000180567)
(-0.000940244 -0.000716003 0.000218397)
(-0.00103087 -0.000732287 0.000246247)
(-0.0011052 -0.000740677 0.000262136)
(-0.00116573 -0.000749528 0.00026791)
(-0.00121545 -0.000763112 0.000266239)
(-0.00125962 -0.000782481 0.000260134)
(-0.00130341 -0.00080657 0.000251793)
(-0.00134892 -0.000833717 0.000242164)
(-0.00139653 -0.000862754 0.00023143)
(-0.00144692 -0.000893608 0.000219603)
(-0.00149962 -0.000925805 0.000206326)
(-0.00155405 -0.000958883 0.00019098)
(-0.00160904 -0.000992022 0.000172515)
(-0.00166301 -0.00102414 0.000149184)
(-0.00171343 -0.00105363 0.000118625)
(-0.00175539 -0.00107818 7.74414e-05)
(-0.00178036 -0.00109324 2.66749e-05)
(-0.000536112 -0.000360847 -0.000120146)
(-0.000426854 -0.000330006 -4.91643e-05)
(-0.000417602 -0.000361512 -1.94384e-05)
(-0.000500742 -0.000451407 2.0023e-05)
(-0.00060624 -0.000535712 6.77741e-05)
(-0.000720433 -0.000603148 0.000115634)
(-0.000834511 -0.000651603 0.000160352)
(-0.000942054 -0.000683355 0.000198968)
(-0.00103656 -0.000700948 0.000227784)
(-0.00111773 -0.000711635 0.000245556)
(-0.00118338 -0.000720557 0.000252834)
(-0.00123771 -0.000732954 0.000252561)
(-0.00128637 -0.000750804 0.000247845)
(-0.0013327 -0.0007729 0.000240507)
(-0.00137968 -0.000797945 0.000231671)
(-0.00142943 -0.000825543 0.000221883)
(-0.00148147 -0.000854778 0.00021097)
(-0.00153567 -0.000885307 0.000198631)
(-0.00159122 -0.000916525 0.000184218)
(-0.00164723 -0.000947773 0.000166719)
(-0.00170212 -0.000978014 0.000144398)
(-0.00175333 -0.00100571 0.000114947)
(-0.00179592 -0.00102878 7.50848e-05)
(-0.00182116 -0.00104298 2.58652e-05)
(-0.000536245 -0.00032101 -9.41756e-05)
(-0.000427138 -0.000294239 -5.37143e-05)
(-0.000402362 -0.000319259 -2.72927e-05)
(-0.00047909 -0.000402655 6.41665e-06)
(-0.000586045 -0.000488432 4.96015e-05)
(-0.000701731 -0.000558149 9.45297e-05)
(-0.000819956 -0.000610576 0.000138243)
(-0.000932355 -0.000645536 0.000177138)
(-0.00103491 -0.000667074 0.000207679)
(-0.00112062 -0.000678283 0.000226933)
(-0.00119229 -0.00068769 0.000236131)
(-0.00125215 -0.000699607 0.000237664)
(-0.00130436 -0.000715715 0.000234346)
(-0.00135392 -0.000735989 0.000228304)
(-0.00140404 -0.000759581 0.000220721)
(-0.00145518 -0.000785097 0.000211906)
(-0.00150857 -0.000812405 0.000201986)
(-0.00156382 -0.000840935 0.000190632)
(-0.00162046 -0.000870235 0.000177242)
(-0.00167733 -0.00089951 0.000160765)
(-0.00173295 -0.000927799 0.0001395)
(-0.00178487 -0.000953682 0.000111197)
(-0.00182803 -0.000975243 7.26941e-05)
(-0.00185336 -0.000988514 2.50454e-05)
(-0.000464227 -0.000244106 -6.44012e-05)
(-0.000404256 -0.00024924 -5.50706e-05)
(-0.000378623 -0.000275232 -3.39934e-05)
(-0.000448206 -0.000352155 -6.72559e-06)
(-0.000551972 -0.000435706 3.08613e-05)
(-0.000671338 -0.00050943 7.22663e-05)
(-0.000794442 -0.000566221 0.000114401)
(-0.000913667 -0.00060553 0.000153487)
(-0.00101985 -0.00062789 0.00018472)
(-0.00111396 -0.000641741 0.000206274)
(-0.00119172 -0.000651404 0.00021762)
(-0.0012564 -0.000662287 0.000221089)
(-0.00131361 -0.000677335 0.000219656)
(-0.00136653 -0.000695862 0.000215136)
(-0.00141825 -0.000717133 0.000208759)
(-0.00147191 -0.000741095 0.000201264)
(-0.00152696 -0.00076659 0.000192523)
(-0.00158353 -0.000793241 0.000182308)
(-0.00164083 -0.000820417 0.00016999)
(-0.0016982 -0.000847575 0.000154585)
(-0.00175421 -0.000873807 0.00013442)
(-0.00180646 -0.000897799 0.000107306)
(-0.00184988 -0.000917798 7.02136e-05)
(-0.00187512 -0.000930067 2.41966e-05)
(-0.000445867 -0.000205208 -4.84186e-05)
(-0.000387248 -0.000212929 -5.67491e-05)
(-0.000347544 -0.000231421 -3.97791e-05)
(-0.00040559 -0.000299098 -1.87102e-05)
(-0.000510047 -0.000383325 1.24998e-05)
(-0.000628902 -0.000457775 4.91421e-05)
(-0.000755732 -0.00051807 8.87334e-05)
(-0.000879437 -0.000560155 0.000127055)
(-0.000996406 -0.000587679 0.000159939)
(-0.00109567 -0.000601912 0.000183208)
(-0.00118035 -0.000611984 0.000197055)
(-0.0012518 -0.000622589 0.00020308)
(-0.00131289 -0.000635753 0.000203604)
(-0.00136924 -0.000652396 0.000200857)
(-0.00142471 -0.000672272 0.000196198)
(-0.00147942 -0.000693824 0.000189971)
(-0.00153543 -0.00071707 0.000182463)
(-0.0015925 -0.000741404 0.000173419)
(-0.00165042 -0.000766441 0.000162289)
(-0.00170804 -0.000791399 0.000148038)
(-0.00176412 -0.0008155 0.000129039)
(-0.00181643 -0.000837546 0.000103185)
(-0.00185986 -0.000855935 6.75878e-05)
(-0.00188484 -0.00086715 2.32995e-05)
(-0.000432016 -0.00017136 -3.34572e-05)
(-0.000355697 -0.000174228 -5.77754e-05)
(-0.000309149 -0.000188874 -4.37434e-05)
(-0.000355106 -0.0002472 -2.896e-05)
(-0.000450402 -0.000324716 -5.09243e-06)
(-0.00057234 -0.00040249 2.56656e-05)
(-0.000703741 -0.000466955 6.16774e-05)
(-0.000836311 -0.000514644 9.90805e-05)
(-0.000955998 -0.000542431 0.000132053)
(-0.00106566 -0.000559867 0.00015783)
(-0.00115786 -0.000570338 0.00017444)
(-0.00123467 -0.000579651 0.000183072)
(-0.00130192 -0.000591775 0.000186218)
(-0.00136231 -0.000606584 0.000185589)
(-0.00141901 -0.000623697 0.00018251)
(-0.00147659 -0.000643553 0.000177977)
(-0.00153427 -0.000664809 0.000171935)
(-0.00159249 -0.000687096 0.000164253)
(-0.00165049 -0.000709761 0.00015435)
(-0.00170799 -0.00073241 0.000141296)
(-0.00176377 -0.000754285 0.0001235)
(-0.00181576 -0.000774312 9.89366e-05)
(-0.00185888 -0.000791011 6.48792e-05)
(-0.00188345 -0.000801143 2.23758e-05)
(-0.000337113 -0.000113617 -1.952e-05)
(-0.000310537 -0.00013716 -5.5023e-05)
(-0.000262972 -0.000147371 -4.59245e-05)
(-0.000289899 -0.000192048 -3.60193e-05)
(-0.000385193 -0.000268938 -2.08241e-05)
(-0.000502865 -0.00034481 2.6753e-06)
(-0.00063734 -0.000412672 3.37454e-05)
(-0.00077276 -0.000462636 6.86137e-05)
(-0.000907061 -0.000497822 0.000102602)
(-0.00102242 -0.000515816 0.000130083)
(-0.00112252 -0.000526692 0.000149641)
(-0.00120777 -0.000535883 0.000161595)
(-0.00127926 -0.00054579 0.000167378)
(-0.0013435 -0.000558445 0.000169121)
(-0.00140506 -0.000574184 0.000168317)
(-0.00146333 -0.00059127 0.00016538)
(-0.00152154 -0.000609973 0.000160823)
(-0.00157967 -0.00062967 0.000154506)
(-0.00163785 -0.000650049 0.00014596)
(-0.00169498 -0.000670371 0.000134185)
(-0.00175016 -0.000689997 0.000117658)
(-0.00180154 -0.000707987 9.44538e-05)
(-0.00184416 -0.000722999 6.20245e-05)
(-0.00186812 -0.000732034 2.14045e-05)
(-0.000291064 -8.35293e-05 -8.36425e-06)
(-0.00025979 -0.000102673 -5.21496e-05)
(-0.000209865 -0.00010884 -4.521e-05)
(-0.000222363 -0.000141374 -3.96486e-05)
(-0.000297677 -0.000204065 -3.23591e-05)
(-0.000418727 -0.000283331 -1.81435e-05)
(-0.000555996 -0.000354837 6.10031e-06)
(-0.000703201 -0.000412924 3.77794e-05)
(-0.000837596 -0.000447789 7.06293e-05)
(-0.000965597 -0.000470353 0.000100292)
(-0.00107485 -0.00048227 0.00012296)
(-0.00116573 -0.000489963 0.000138072)
(-0.0012449 -0.000498934 0.000147216)
(-0.00131401 -0.000509638 0.000151716)
(-0.00137617 -0.000522111 0.000152903)
(-0.00143791 -0.000537421 0.000152083)
(-0.00149799 -0.000554054 0.000149308)
(-0.00155723 -0.00057164 0.000144591)
(-0.00161489 -0.000589528 0.000137427)
(-0.00167123 -0.000607451 0.000126964)
(-0.00172541 -0.000624803 0.000111726)
(-0.00177579 -0.000640721 8.98933e-05)
(-0.00181754 -0.000654003 5.91178e-05)
(-0.00184072 -0.000661954 2.04181e-05)
(-0.000192802 -4.69736e-05 7.24932e-07)
(-0.000196538 -7.06258e-05 -4.69312e-05)
(-0.00015342 -7.51001e-05 -4.13158e-05)
(-0.00013762 -8.48837e-05 -3.40061e-05)
(-0.000215857 -0.000146813 -3.93537e-05)
(-0.000322029 -0.00021817 -3.48365e-05)
(-0.000461451 -0.000293882 -1.93892e-05)
(-0.000607475 -0.000353443 6.7036e-06)
(-0.000761805 -0.000399911 3.84239e-05)
(-0.000895034 -0.000423836 6.89984e-05)
(-0.0010126 -0.00043682 9.45209e-05)
(-0.00111383 -0.000445128 0.000113403)
(-0.00119714 -0.000451664 0.000125698)
(-0.00127044 -0.000460047 0.000133111)
(-0.00133905 -0.00047132 0.000137147)
(-0.00140099 -0.000483547 0.000138257)
(-0.00146101 -0.000497375 0.000137217)
(-0.00151941 -0.000512187 0.000134049)
(-0.00157681 -0.000527764 0.00012841)
(-0.00163214 -0.000543369 0.000119343)
(-0.00168499 -0.000558491 0.00010546)
(-0.00173411 -0.000572398 8.50726e-05)
(-0.00177483 -0.000584015 5.60489e-05)
(-0.00179703 -0.000590901 1.93787e-05)
(-7.7831e-05 -1.55141e-05 7.75534e-06)
(-0.000116544 -3.801e-05 -3.63903e-05)
(-9.8036e-05 -4.57099e-05 -3.70308e-05)
(-9.01784e-05 -5.62441e-05 -3.32444e-05)
(-7.48287e-05 -5.24052e-05 -2.14437e-05)
(-0.000212278 -0.000146949 -4.13987e-05)
(-0.000350773 -0.000225807 -3.91174e-05)
(-0.000513745 -0.000299133 -2.20467e-05)
(-0.000661647 -0.000344279 6.2426e-06)
(-0.000810082 -0.000375927 3.72083e-05)
(-0.000938051 -0.000391735 6.5167e-05)
(-0.00104419 -0.000398974 8.71392e-05)
(-0.00113689 -0.000405317 0.000103163)
(-0.00121578 -0.000411916 0.00011378)
(-0.0012837 -0.00041948 0.000120111)
(-0.00134993 -0.000430027 0.000123735)
(-0.00141221 -0.000441855 0.000124788)
(-0.0014719 -0.000454668 0.000123467)
(-0.00152814 -0.000467771 0.000119355)
(-0.00158196 -0.000481056 0.000111697)
(-0.00163306 -0.000494003 9.91716e-05)
(-0.00168046 -0.000505926 8.02226e-05)
(-0.00171971 -0.000515885 5.29571e-05)
(-0.00174079 -0.000521762 1.83344e-05)
(-7.69156e-06 3.59467e-07 8.6925e-06)
(-2.6376e-05 -7.5493e-06 -1.26566e-05)
(-3.26128e-05 -1.5392e-05 -2.10762e-05)
(-5.00361e-05 -3.54421e-05 -3.08231e-05)
(-5.00347e-05 -3.9462e-05 -2.27825e-05)
(-0.000101101 -7.41194e-05 -3.17745e-05)
(-0.000237043 -0.000154462 -4.86477e-05)
(-0.00038571 -0.00022681 -4.43107e-05)
(-0.000562687 -0.000292749 -2.29265e-05)
(-0.000712602 -0.000326877 6.38159e-06)
(-0.000847976 -0.000345694 3.56184e-05)
(-0.000966178 -0.000355548 6.06755e-05)
(-0.00106175 -0.00035986 7.97191e-05)
(-0.00114478 -0.000364469 9.34267e-05)
(-0.00122136 -0.000371478 0.000103018)
(-0.00128687 -0.000378807 0.000108812)
(-0.00134827 -0.000387756 0.000111799)
(-0.00140602 -0.000397725 0.000112166)
(-0.00146151 -0.000408669 0.000109729)
(-0.00151365 -0.000419816 0.00010357)
(-0.00156265 -0.000430726 9.24689e-05)
(-0.0016081 -0.000440819 7.50429e-05)
(-0.00164578 -0.000449252 4.96576e-05)
(-0.00166551 -0.000454189 1.72207e-05)
(6.52366e-06 6.23771e-06 1.50969e-05)
(4.19875e-06 4.85279e-07 -7.52735e-06)
(-4.44679e-06 -8.24816e-06 -2.07264e-05)
(-1.71746e-05 -2.32007e-05 -2.75147e-05)
(-3.51939e-05 -3.75644e-05 -3.00117e-05)
(-4.41776e-05 -3.66865e-05 -2.31899e-05)
(-7.40988e-05 -5.02358e-05 -2.50617e-05)
(-0.000278527 -0.000164869 -5.7169e-05)
(-0.00043129 -0.000225827 -4.52977e-05)
(-0.00060194 -0.000275394 -2.11659e-05)
(-0.000747678 -0.00030033 7.45881e-06)
(-0.000868295 -0.000310709 3.40469e-05)
(-0.000974806 -0.00031676 5.60952e-05)
(-0.00106374 -0.000320488 7.2854e-05)
(-0.00113696 -0.000323643 8.47135e-05)
(-0.00120781 -0.000329801 9.32566e-05)
(-0.00127192 -0.000337082 9.85617e-05)
(-0.00133153 -0.000345444 0.000101)
(-0.00138513 -0.000354137 0.000100206)
(-0.00143494 -0.000363219 9.55275e-05)
(-0.00148139 -0.000372242 8.583e-05)
(-0.00152438 -0.000380606 6.98934e-05)
(-0.00155999 -0.000387575 4.63682e-05)
(-0.00157825 -0.000391669 1.61136e-05)
(1.28227e-05 1.12006e-05 2.15276e-05)
(2.38493e-05 7.27598e-06 -7.6566e-06)
(2.14404e-05 -4.53189e-07 -1.46713e-05)
(1.2346e-05 -9.36646e-06 -1.59984e-05)
(-9.86805e-07 -2.49972e-05 -2.47212e-05)
(-2.90476e-05 -3.37124e-05 -2.93607e-05)
(-6.91855e-05 -5.27425e-05 -3.82364e-05)
(-8.16834e-05 -4.91136e-05 -2.59295e-05)
(-0.000322449 -0.000168527 -5.917e-05)
(-0.000480756 -0.000220705 -4.31492e-05)
(-0.000632332 -0.000252891 -1.75794e-05)
(-0.000765848 -0.000269415 9.04299e-06)
(-0.000872402 -0.000274927 3.26856e-05)
(-0.000964316 -0.000277834 5.1845e-05)
(-0.00104928 -0.000281987 6.68739e-05)
(-0.00111756 -0.000285158 7.75652e-05)
(-0.00117956 -0.000289821 8.48563e-05)
(-0.0012353 -0.000295441 8.89941e-05)
(-0.00128761 -0.000302357 8.99706e-05)
(-0.00133502 -0.000309696 8.68527e-05)
(-0.00137854 -0.000317063 7.86264e-05)
(-0.00141885 -0.000323939 6.42865e-05)
(-0.00145238 -0.000329671 4.27859e-05)
(-0.00146892 -0.000333 1.4906e-05)
(2.29874e-05 1.31462e-05 2.38071e-05)
(3.66704e-05 1.01515e-05 -8.5699e-06)
(5.23336e-05 3.99167e-06 -1.97986e-05)
(2.94447e-05 -6.54653e-06 -1.34462e-05)
(2.24015e-05 -1.56851e-05 -1.32139e-05)
(3.8805e-06 -2.56601e-05 -1.8483e-05)
(-2.03799e-05 -1.96557e-05 -1.70735e-05)
(-5.4292e-05 -3.39331e-05 -2.54901e-05)
(-0.000145292 -7.50582e-05 -4.03501e-05)
(-0.000354327 -0.000162968 -5.54284e-05)
(-0.000511113 -0.000205522 -3.76101e-05)
(-0.000643232 -0.000225472 -1.32394e-05)
(-0.000760955 -0.000235779 1.06694e-05)
(-0.000858854 -0.000239942 3.15876e-05)
(-0.000935194 -0.000240537 4.82295e-05)
(-0.00101017 -0.000243785 6.14883e-05)
(-0.00107517 -0.000247567 7.10727e-05)
(-0.00113409 -0.000252443 7.74178e-05)
(-0.00118353 -0.000257571 8.00643e-05)
(-0.00122768 -0.00026332 7.84408e-05)
(-0.00126783 -0.000269269 7.16264e-05)
(-0.00130491 -0.000274829 5.88097e-05)
(-0.00133572 -0.000279418 3.92699e-05)
(-0.00135054 -0.00028213 1.37236e-05)
(3.27789e-05 1.41506e-05 2.50462e-05)
(7.37009e-05 1.62691e-05 -1.3996e-05)
(8.41928e-05 6.1336e-06 -2.3924e-05)
(6.19083e-05 -7.38425e-06 -1.9358e-05)
(6.15561e-05 -2.36788e-05 -1.95492e-05)
(2.62599e-05 -2.29871e-05 -7.54575e-06)
(1.65473e-06 -2.49303e-05 -9.93407e-06)
(-4.37997e-05 -3.04925e-05 -2.79212e-05)
(-0.000107817 -5.68587e-05 -4.31608e-05)
(-0.000206276 -9.53602e-05 -4.87409e-05)
(-0.000376109 -0.00015328 -4.87807e-05)
(-0.000521031 -0.000184456 -3.12771e-05)
(-0.000636308 -0.000197175 -8.99234e-06)
(-0.00073346 -0.000202303 1.22466e-05)
(-0.000826215 -0.000206891 3.09228e-05)
(-0.000894975 -0.000207839 4.57991e-05)
(-0.000955906 -0.000209761 5.7096e-05)
(-0.00100734 -0.000212167 6.48642e-05)
(-0.00105497 -0.000216234 6.92449e-05)
(-0.00109593 -0.000220857 6.91541e-05)
(-0.00113226 -0.000225695 6.38096e-05)
(-0.00116595 -0.000230255 5.26602e-05)
(-0.00119422 -0.000234011 3.5316e-05)
(-0.00120693 -0.000236178 1.23863e-05)
(3.90524e-05 1.44441e-05 2.689e-05)
(9.20664e-05 1.90853e-05 -1.26371e-05)
(0.000111872 9.79714e-06 -2.71678e-05)
(0.000112077 -7.04025e-06 -3.20711e-05)
(8.39902e-05 -2.22788e-05 -2.42767e-05)
(3.27289e-05 -1.80702e-05 -7.79184e-06)
(1.96306e-05 -2.31032e-05 -2.16686e-06)
(-6.94255e-06 -2.10595e-05 -5.06327e-06)
(-4.06484e-05 -2.3081e-05 -2.02446e-05)
(-8.21756e-05 -3.85968e-05 -2.7452e-05)
(-0.000248689 -0.000101777 -4.93386e-05)
(-0.000384688 -0.000139124 -4.2513e-05)
(-0.000506461 -0.000159757 -2.48859e-05)
(-0.00061092 -0.000169743 -4.85972e-06)
(-0.000685176 -0.000171034 1.39425e-05)
(-0.000762749 -0.000174444 3.03601e-05)
(-0.00082675 -0.000176942 4.34045e-05)
(-0.000884292 -0.000180221 5.32896e-05)
(-0.000927492 -0.000183175 5.91645e-05)
(-0.000964132 -0.000186859 6.04618e-05)
(-0.00099632 -0.000190885 5.64716e-05)
(-0.00102605 -0.000194642 4.68459e-05)
(-0.00105097 -0.000197658 3.15487e-05)
(-0.00106185 -0.000199459 1.11154e-05)
(4.43381e-05 1.46263e-05 2.92753e-05)
(0.000102434 2.15134e-05 -1.04781e-05)
(0.000128916 1.49966e-05 -2.82424e-05)
(0.000133778 -1.43875e-06 -3.6273e-05)
(0.00012122 -2.09663e-05 -3.51472e-05)
(8.27488e-05 -3.26137e-05 -2.23445e-05)
(2.95978e-05 -2.17079e-05 -4.63947e-06)
(1.16919e-05 -1.8411e-05 2.0433e-06)
(-1.77032e-05 -2.28117e-05 -8.18735e-06)
(-4.76079e-05 -2.39496e-05 -2.10526e-05)
(-7.41953e-05 -3.11646e-05 -2.14877e-05)
(-0.00025096 -9.36115e-05 -4.41218e-05)
(-0.000371799 -0.000121354 -3.51347e-05)
(-0.000467027 -0.000133898 -1.83711e-05)
(-0.000566452 -0.000144228 -5.6605e-07)
(-0.000630793 -0.000146028 1.62184e-05)
(-0.000687269 -0.000147753 3.0103e-05)
(-0.000730348 -0.000148713 4.05913e-05)
(-0.000771611 -0.000151706 4.78784e-05)
(-0.000804268 -0.000155025 5.04868e-05)
(-0.000831711 -0.000158539 4.7873e-05)
(-0.000857426 -0.000161823 3.99814e-05)
(-0.000879457 -0.000164466 2.70884e-05)
(-0.00088788 -0.000165905 9.59057e-06)
(4.79032e-05 1.47831e-05 3.24148e-05)
(0.000101419 2.19366e-05 -7.42822e-06)
(0.00013027 1.90695e-05 -2.66349e-05)
(0.000142961 5.98979e-06 -3.78137e-05)
(0.000137016 -1.34485e-05 -4.0052e-05)
(0.000117102 -3.19531e-05 -3.4077e-05)
(7.20283e-05 -3.70022e-05 -1.75542e-05)
(2.5001e-05 -2.28759e-05 -2.19861e-06)
(1.05172e-05 -2.81897e-05 3.98513e-06)
(-2.20522e-05 -1.71502e-05 -9.85712e-06)
(-7.68767e-05 -3.62767e-05 -3.17853e-05)
(-9.43735e-05 -3.66763e-05 -2.47325e-05)
(-0.000235699 -8.03531e-05 -3.67853e-05)
(-0.000341909 -0.000102917 -2.80165e-05)
(-0.00040367 -0.000108464 -1.19296e-05)
(-0.000482054 -0.000116613 3.68667e-06)
(-0.000542842 -0.000121357 1.78401e-05)
(-0.000598592 -0.000125875 2.98848e-05)
(-0.000632743 -0.00012838 3.81126e-05)
(-0.000659933 -0.000131357 4.17918e-05)
(-0.000682761 -0.000134666 4.03609e-05)
(-0.00070398 -0.0001376 3.3931e-05)
(-0.000722106 -0.000139866 2.31112e-05)
(-0.000728881 -0.000141122 8.23654e-06)
(4.96662e-05 1.44293e-05 3.55213e-05)
(9.62985e-05 2.13139e-05 -4.31749e-06)
(0.00012488 2.09125e-05 -2.34281e-05)
(0.000137946 1.15874e-05 -3.5212e-05)
(0.000139835 -4.64716e-06 -4.06761e-05)
(0.000127403 -2.32663e-05 -3.82114e-05)
(0.000106671 -3.9e-05 -2.98176e-05)
(6.02694e-05 -3.71606e-05 -1.26506e-05)
(4.59163e-05 -4.73812e-05 -1.267e-06)
(5.37225e-06 -2.64848e-05 -2.05186e-08)
(-3.33212e-05 -2.22178e-05 -2.00208e-05)
(-8.0298e-05 -3.52648e-05 -3.20545e-05)
(-7.1478e-05 -2.63893e-05 -1.75084e-05)
(-0.000190819 -6.06515e-05 -2.66913e-05)
(-0.000298701 -8.49641e-05 -2.07726e-05)
(-0.000350741 -9.07154e-05 -6.32457e-06)
(-0.000394948 -9.50433e-05 6.92403e-06)
(-0.000423563 -9.64308e-05 1.78996e-05)
(-0.000457033 -0.000100396 2.6599e-05)
(-0.000479882 -0.000103518 3.09576e-05)
(-0.000497005 -0.000106786 3.06365e-05)
(-0.000513584 -0.000109409 2.60126e-05)
(-0.000528747 -0.000111679 1.78853e-05)
(-0.000533018 -0.000112612 6.41367e-06)
(4.96825e-05 1.42411e-05 3.8936e-05)
(8.82538e-05 2.05979e-05 -1.91903e-06)
(0.000115521 2.1759e-05 -2.01947e-05)
(0.000128524 1.48097e-05 -3.14595e-05)
(0.000131799 2.18215e-06 -3.76071e-05)
(0.000128085 -1.42788e-05 -3.86355e-05)
(0.000113616 -3.02705e-05 -3.32673e-05)
(9.65558e-05 -4.2848e-05 -2.53566e-05)
(5.23118e-05 -3.6023e-05 -1.1204e-05)
(2.382e-05 -2.95591e-05 -3.91822e-06)
(-1.38411e-06 -1.6885e-05 -7.07088e-06)
(-2.09568e-05 -1.28132e-05 -1.37972e-05)
(-4.42387e-05 -1.87245e-05 -1.73625e-05)
(-0.000120316 -4.35995e-05 -2.81019e-05)
(-9.14531e-05 -2.78298e-05 -1.1745e-05)
(-0.000195305 -5.53437e-05 -1.1069e-05)
(-0.000257046 -6.74035e-05 -1.15953e-06)
(-0.000308366 -7.64785e-05 9.54342e-06)
(-0.000330067 -8.01084e-05 1.81618e-05)
(-0.000348067 -8.35603e-05 2.30385e-05)
(-0.00035912 -8.62902e-05 2.35564e-05)
(-0.000373004 -8.88656e-05 2.02191e-05)
(-0.000383964 -9.0879e-05 1.39788e-05)
(-0.000387517 -9.21562e-05 5.04888e-06)
(4.81378e-05 1.51852e-05 4.29659e-05)
(7.88507e-05 2.08066e-05 -8.55862e-07)
(0.000102033 2.21894e-05 -1.74101e-05)
(0.000113374 1.66446e-05 -2.67751e-05)
(0.000118011 6.43477e-06 -3.25696e-05)
(0.000117535 -7.00447e-06 -3.48764e-05)
(0.000113657 -2.25833e-05 -3.34218e-05)
(0.000101727 -3.53496e-05 -2.77537e-05)
(8.99378e-05 -4.51858e-05 -2.25639e-05)
(4.42369e-05 -3.26582e-05 -1.10091e-05)
(1.49364e-05 -2.00633e-05 -7.0137e-06)
(-5.68797e-06 -1.41566e-05 -1.38909e-05)
(-3.91416e-05 -2.24791e-05 -2.94119e-05)
(-3.78888e-05 -1.6994e-05 -1.59461e-05)
(-9.71618e-05 -3.70987e-05 -2.32721e-05)
(-6.41887e-05 -2.20577e-05 -7.81065e-06)
(-7.30564e-05 -2.21783e-05 -2.99797e-06)
(-0.000100641 -2.84263e-05 1.17999e-06)
(-0.000132166 -3.62521e-05 6.30489e-06)
(-0.000137757 -3.93904e-05 9.30521e-06)
(-0.000153384 -4.26642e-05 1.08436e-05)
(-0.000154768 -4.38216e-05 9.02281e-06)
(-0.000164189 -4.64097e-05 6.49771e-06)
(-0.000160915 -4.69782e-05 2.3005e-06)
(4.43051e-05 1.72301e-05 4.67583e-05)
(6.49153e-05 2.06293e-05 -7.82802e-07)
(8.23279e-05 2.13107e-05 -1.42497e-05)
(9.16199e-05 1.66953e-05 -2.08384e-05)
(9.69597e-05 8.66659e-06 -2.52724e-05)
(0.000100045 -2.39845e-06 -2.81764e-05)
(0.000101219 -1.59642e-05 -2.85525e-05)
(0.000102569 -2.98014e-05 -2.72842e-05)
(9.43755e-05 -3.83856e-05 -2.40295e-05)
(8.33452e-05 -4.52551e-05 -2.27269e-05)
(3.88214e-05 -3.08301e-05 -1.46157e-05)
(1.25552e-05 -2.08851e-05 -1.49986e-05)
(-8.38905e-06 -1.60376e-05 -2.29982e-05)
(-3.1538e-05 -1.94839e-05 -3.02634e-05)
(-2.86631e-05 -1.44249e-05 -1.45311e-05)
(-5.9307e-05 -2.62744e-05 -1.59662e-05)
(-9.14685e-05 -3.80096e-05 -1.16295e-05)
(-5.19752e-05 -1.98629e-05 -1.62601e-06)
(-0.000113844 -4.30666e-05 3.43768e-06)
(-9.64567e-05 -3.66772e-05 6.47421e-06)
(-0.000124712 -4.84052e-05 9.40569e-06)
(-5.88428e-05 -2.38245e-05 3.80684e-06)
(-6.02386e-05 -2.41681e-05 2.75622e-06)
(-0.000110899 -4.42817e-05 1.92773e-06)
(3.81531e-05 1.96167e-05 4.90143e-05)
(5.15292e-05 2.05693e-05 -1.317e-06)
(6.06255e-05 1.90232e-05 -1.12721e-05)
(6.56891e-05 1.44719e-05 -1.46617e-05)
(7.05664e-05 8.24762e-06 -1.71257e-05)
(7.60288e-05 -6.64305e-07 -1.94281e-05)
(8.35164e-05 -1.23629e-05 -2.11345e-05)
(9.08161e-05 -2.42408e-05 -2.18852e-05)
(9.68582e-05 -3.46308e-05 -2.30667e-05)
(8.85425e-05 -3.94573e-05 -2.30448e-05)
(7.48065e-05 -4.31396e-05 -2.52681e-05)
(3.34927e-05 -2.84183e-05 -1.99577e-05)
(1.00481e-05 -1.69505e-05 -2.03114e-05)
(-3.63902e-06 -1.07317e-05 -2.12467e-05)
(-2.07945e-05 -1.80605e-05 -3.28849e-05)
(-1.92316e-05 -1.20732e-05 -1.44591e-05)
(-3.66188e-05 -2.2473e-05 -1.44852e-05)
(-5.5635e-05 -3.09741e-05 -9.35932e-06)
(-2.95017e-05 -1.67749e-05 -7.64452e-07)
(-6.63461e-05 -3.76593e-05 3.58649e-06)
(-3.0396e-05 -1.85525e-05 2.53356e-06)
(-5.67095e-05 -3.44463e-05 4.51176e-06)
(-5.94348e-05 -3.58814e-05 3.4835e-06)
(-7.18534e-05 -4.14735e-05 1.76243e-06)
(3.06048e-05 2.15808e-05 4.90277e-05)
(3.99479e-05 2.06237e-05 -2.28861e-06)
(4.33181e-05 1.66683e-05 -9.78872e-06)
(4.40766e-05 1.13482e-05 -1.06902e-05)
(4.63734e-05 5.74485e-06 -1.11118e-05)
(5.29287e-05 -1.84303e-06 -1.21471e-05)
(6.37668e-05 -1.1827e-05 -1.34076e-05)
(7.76181e-05 -2.19428e-05 -1.5489e-05)
(8.67043e-05 -2.99308e-05 -1.79952e-05)
(9.15797e-05 -3.69534e-05 -2.15958e-05)
(8.17025e-05 -3.91902e-05 -2.45434e-05)
(6.61829e-05 -4.03719e-05 -3.03821e-05)
(3.12543e-05 -2.67221e-05 -2.79413e-05)
(1.02021e-05 -1.483e-05 -2.47312e-05)
(5.04405e-07 -1.09039e-05 -2.37814e-05)
(-8.50076e-06 -1.8267e-05 -3.95504e-05)
(-7.68169e-06 -1.05686e-05 -1.66276e-05)
(-1.31215e-05 -1.61623e-05 -1.33579e-05)
(-2.10274e-05 -2.57693e-05 -1.06172e-05)
(-1.90687e-05 -2.51025e-05 -3.39117e-06)
(-1.31298e-05 -1.9135e-05 -1.72862e-07)
(-9.91615e-06 -1.39262e-05 4.56527e-07)
(-1.41922e-05 -1.96409e-05 6.47788e-07)
(-2.19501e-05 -3.21996e-05 5.58233e-07)
(2.30081e-05 2.2642e-05 4.63453e-05)
(3.05358e-05 2.05563e-05 -3.88233e-06)
(3.15494e-05 1.48111e-05 -9.85735e-06)
(3.15478e-05 8.94292e-06 -9.8677e-06)
(3.27718e-05 2.63429e-06 -9.15856e-06)
(3.95226e-05 -5.55582e-06 -8.7949e-06)
(5.20451e-05 -1.51191e-05 -8.74742e-06)
(6.55143e-05 -2.29745e-05 -9.90948e-06)
(7.82304e-05 -2.93016e-05 -1.31772e-05)
(8.34552e-05 -3.36627e-05 -1.71058e-05)
(8.49128e-05 -3.78718e-05 -2.25599e-05)
(7.49439e-05 -3.84532e-05 -2.88507e-05)
(6.04313e-05 -3.79051e-05 -3.8534e-05)
(3.41826e-05 -2.81253e-05 -3.98503e-05)
(1.66952e-05 -2.04239e-05 -3.84178e-05)
(8.35747e-06 -1.91942e-05 -4.28253e-05)
(3.20416e-06 -1.28887e-05 -2.92803e-05)