/*--------------------------------*- C++ -*----------------------------------*\
  =========                 |
  \\      /  F ield         | OpenFOAM: The Open Source CFD Toolbox
   \\    /   O peration     | Website:  https://openfoam.org
    \\  /    A nd           | Version:  6
     \\/     M anipulation  |
\*---------------------------------------------------------------------------*/
FoamFile
{
    version     2.0;
    format      ascii;
    class       volScalarField;
    location    "22";
    object      yPlus;
}
// * * * * * * * * * * * * * * * * * * * * * * * * * * * * * * * * * * * * * //

dimensions      [0 0 0 0 0 0 0];

internalField   uniform 0;

boundaryField
{
    inlet
    {
        type            calculated;
        value           uniform 0;
    }
    outlet
    {
        type            calculated;
        value           uniform 0;
    }
    roughCylinder
    {
        type            calculated;
        value           nonuniform List<scalar> 
3840
(
84.0652
50.6238
53.7009
62.0122
68.4322
73.5433
77.6566
81.1173
84.1766
86.9567
89.5859
92.1068
94.6183
97.2173
99.9598
102.867
105.953
109.197
112.567
115.995
119.377
122.539
125.168
126.773
81.2412
49.8253
52.2415
60.3324
66.6934
71.7905
75.8895
79.3373
82.3673
85.1234
87.661
90.1016
92.5317
95.031
97.6675
100.481
103.46
106.595
109.847
113.16
116.426
119.482
122.023
123.573
73.8823
49.4836
50.8243
58.6564
64.9551
70.0064
74.1176
77.5842
80.6204
83.2886
85.782
88.1444
90.4779
92.891
95.4405
98.1406
101.011
104.033
107.173
110.37
113.524
116.474
118.928
120.423
61.2991
48.7566
49.3369
56.9051
63.1594
68.2441
72.3789
75.8524
78.846
81.5279
83.938
86.2256
88.4926
90.8128
93.2564
95.8732
98.645
101.563
104.59
107.674
110.717
113.564
115.932
117.373
79.8856
48.3247
47.8923
55.1623
61.3965
66.4467
70.614
74.1217
77.1653
79.7631
82.149
84.3802
86.5557
88.801
91.1754
93.682
96.3514
99.162
102.086
105.061
107.997
110.746
113.032
114.421
62.1852
47.6134
46.3682
53.3107
59.5053
64.6462
68.8747
72.4199
75.4016
78.0631
80.391
82.5577
84.6912
86.8572
89.1273
91.5681
94.1503
96.8691
99.6871
102.558
105.39
108.042
110.248
111.586
74.7786
47.5121
44.9113
51.4315
57.6785
62.7893
67.0658
70.6501
73.7547
76.331
78.667
80.8127
82.8642
84.9694
87.1954
89.5291
92.0162
94.6331
97.3573
100.128
102.862
105.422
107.552
108.841
64.8137
46.4279
43.2844
49.4067
55.5853
60.8694
65.2554
68.9347
71.9465
74.6446
76.9558
79.0548
81.0994
83.1461
85.2669
87.5564
89.9712
92.5105
95.1364
97.8092
100.447
102.917
104.971
106.213
65.3995
46.6265
41.7171
47.2236
53.5909
58.8518
63.3163
67.0349
70.2848
72.899
75.2427
77.3683
79.347
81.3504
83.4624
85.6468
87.9718
90.4133
92.955
95.5369
98.0827
100.468
102.452
103.647
56.7893
44.8056
39.9303
44.8767
51.0712
56.6539
61.3135
65.2416
68.349
71.1636
73.5262
75.6145
77.6275
79.601
81.603
83.7713
86.0425
88.4228
90.8717
93.3621
95.8177
98.1188
100.033
101.181
57.8194
44.7211
38.0486
42.0329
48.6898
54.2782
59.0963
63.0585
66.5992
69.3376
71.7617
73.9359
75.8912
77.8361
79.8769
81.9377
84.1211
86.4033
88.7781
91.1839
93.5529
95.7743
97.6219
98.7244
62.0688
43.7068
35.997
39.0491
45.2589
51.4897
56.673
61.0904
64.4014
67.4604
69.9714
72.1165
74.1619
76.1114
78.0241
80.1036
82.2568
84.4978
86.7836
89.102
91.3848
93.5244
95.3031
96.3601
54.284
42.1925
33.5522
34.7241
41.9877
48.3002
53.8949
58.335
62.4494
65.4523
68.0662
70.3864
72.3783
74.3156
76.3357
78.2992
80.3608
82.4991
84.7215
86.9607
89.1611
91.2245
92.9401
93.9518
58.1218
41.1718
30.5611
30.1835
36.2381
44.2059
50.5448
56.0143
59.7452
63.2884
66.1039
68.3997
70.5701
72.5581
74.4136
76.4447
78.5102
80.6348
82.7699
84.9248
87.0411
89.0239
90.6711
91.6379
51.2172
39.5538
27.305
21.6243
30.7815
38.7902
46.493
52.0539
57.3978
60.9252
63.9153
66.5358
68.6423
70.6412
72.7118
74.6081
76.5698
78.5781
80.6616
82.7433
84.7795
86.6885
88.275
89.1962
32.3305
33.4333
23.5623
18.7282
10.2115
30.386
40.6535
48.951
53.6293
58.216
61.6291
64.222
66.6603
68.7721
70.6041
72.6417
74.6572
76.6947
78.691
80.6886
82.6409
84.4687
85.9851
86.861
7.37956
13.4969
8.34844
15.8527
4.2712
17.9105
33.0526
41.9587
50.5364
55.1456
58.901
62.0963
64.4339
66.5924
68.8222
70.6849
72.5723
74.4594
76.4174
78.3472
80.2198
81.9744
83.4319
84.2595
10.0104
11.6315
14.4656
16.4316
17.6176
7.68239
1.31402
36.4834
43.9978
51.347
55.9968
59.1802
62.1267
64.4981
66.3383
68.4651
70.479
72.4741
74.3414
76.1832
77.9693
79.6382
81.0207
81.802
7.37057
2.22603
9.6753
11.6224
19.5958
19.292
19.6378
10.9771
39.3062
46.5836
52.2033
56.533
59.3408
61.8089
64.3878
66.2539
68.1009
69.8616
71.7092
73.4888
75.1918
76.786
78.1112
78.8379
1.43709
11.7644
17.6628
9.32231
15.4083
22.5565
11.0995
12.0547
20.6091
40.4215
47.9445
52.4965
56.3928
59.3056
61.1787
63.5428
65.6293
67.6647
69.4073
71.0884
72.6983
74.1977
75.4369
76.1158
11.5452
20.5032
23.3512
18.0839
24.7125
17.6037
24.2632
22.4644
23.2014
28.514
41.4963
48.5594
52.5669
55.6129
58.9431
60.8539
62.7115
64.3067
66.0723
67.6999
69.2177
70.6386
71.8239
72.435
11.5638
21.8582
26.6055
29.214
25.0459
10.6782
15.0071
19.6923
14.9686
14.2418
33.84
42.2815
48.1082
52.3336
54.2427
57.1831
59.4956
61.7625
63.3725
64.8802
66.2958
67.6058
68.6854
69.2497
11.5526
22.1812
27.9459
31.0638
31.9605
25.8604
10.1525
7.63621
25.7387
14.4478
7.27159
34.0409
42.0777
46.4019
51.5946
53.6001
55.5504
56.8445
58.6095
60.0868
61.391
62.6189
63.6558
64.1239
11.3443
20.4272
26.8424
31.4255
33.3148
33.0445
24.3726
5.12628
21.5862
18.2611
22.8271
15.385
33.0407
41.3421
43.1551
47.7413
50.7797
53.8124
55.261
56.5743
57.7698
58.8643
59.7621
60.1912
11.1326
18.6115
25.0617
29.7646
32.8359
33.5003
32.8026
22.1401
30.2101
27.5098
24.0634
22.9529
10.8868
28.4113
40.213
42.3465
44.3656
44.9789
47.0308
48.4007
49.449
50.449
51.3493
51.6284
8.73837
16.7991
23.1224
27.8209
30.987
32.8149
32.2815
31.8457
21.0891
19.3415
18.8225
3.92413
6.33402
25.3336
13.6595
29.1036
36.1549
41.4036
42.6606
43.8165
44.6902
45.659
46.35
46.5807
7.41173
15.3578
20.9954
25.2221
28.3972
30.3561
31.3879
30.3372
31.3156
19.9376
15.5106
19.1354
25.7793
5.1903
24.6477
8.61188
10.6528
15.502
20.3376
20.7327
23.0552
22.6714
23.8313
23.2974
5.10208
13.4845
18.0276
21.5672
24.4672
26.7318
27.9562
29.3202
29.0644
31.6232
21.1028
20.1576
23.3952
25.896
6.16234
19.7831
27.147
7.27709
28.4416
22.2528
29.9322
10.3999
11.3293
24.6831
4.95968
12.1957
14.7612
16.9005
19.1948
21.4555
23.6725
25.4256
28.3
29.0952
32.1202
22.1752
18.6322
15.5862
26.6729
12.7232
20.6883
28.0386
10.5094
30.8421
7.07794
24.3707
24.8343
31.5687
3.85309
11.4757
12.4881
13.0757
14.1864
16.2815
18.8522
22.0233
24.6059
28.3647
29.7806
32.5264
23.4801
15.9679
13.638
28.6911
13.3343
17.5511
30.8448
25.6088
18.035
12.305
17.9179
31.0855
3.33432
11.582
11.704
11.8947
12.3622
14.0987
16.7287
19.2706
22.5423
25.0998
28.8679
30.5967
32.6848
25.9813
20.6904
22.3093
14.8592
22.6613
28.1717
22.9006
30.1831
14.4966
25.1583
12.3359
2.96896
11.2684
11.5952
11.7434
12.3763
14.6083
17.0235
19.3004
21.1453
23.8362
26.0338
29.4841
31.3175
32.4926
29.5287
18.8162
26.8031
27.2834
21.0284
7.39474
20.6657
14.2515
19.5832
9.65832
1.97751
9.45055
11.5456
11.6668
12.6561
15.4477
18.0241
19.9689
21.8041
23.1117
25.1191
26.9858
30.004
31.8847
32.3031
32.1592
28.0157
23.0782
17.2432
14.7348
11.8358
12.065
10.2268
12.75
2.38806
10.1018
11.5156
11.6383
14.2034
17.1778
19.4727
21.3008
22.6513
23.9973
24.837
26.2315
27.8551
30.2418
32.237
32.0308
31.2452
30.8109
30.4906
30.3104
29.9666
29.5926
29.5981
29.7597
3.311
11.42
11.6466
13.2649
16.368
19.024
21.1142
22.7483
24.1343
25.0527
25.8829
26.2953
27.1677
28.5748
30.2865
31.7226
31.5037
30.458
28.8178
27.1529
25.6578
24.8042
24.6174
24.759
3.49935
11.7906
12.9377
15.9226
18.7178
21.0258
22.8965
24.4473
25.6608
26.6535
27.1609
27.4908
27.5433
27.9491
29.0686
30.018
30.2858
29.9085
28.9152
27.6639
26.4474
25.7543
25.7453
26.0426
3.95073
12.0138
15.6007
18.4202
20.8336
22.9133
24.6825
26.1748
27.4346
28.3164
28.8942
28.9954
28.8677
28.6304
28.6274
29.1342
29.3174
28.8045
27.4111
25.4918
23.6116
22.6268
22.6962
23.1583
5.81489
14.915
18.1086
20.5974
22.8071
24.7646
26.4786
27.9799
29.2237
30.189
30.7183
30.8783
30.5977
30.0639
29.5437
29.135
28.8092
28.2203
27.0488
25.4368
23.8955
23.149
23.4114
24.0294
7.95381
16.9682
20.0763
22.4375
24.5658
26.4955
28.232
29.776
31.0996
32.0857
32.7112
32.8777
32.6291
31.9935
31.1029
30.2147
29.3418
28.332
26.9025
25.0705
23.295
22.4625
22.8274
23.5714
10.3693
18.8288
21.7679
24.0865
26.2207
28.1753
29.9668
31.5877
32.9701
34.0508
34.7288
34.9983
34.7965
34.1501
33.1533
31.9129
30.5803
29.1724
27.568
25.7725
24.1932
23.5407
24.0224
24.8328
11.679
13.0964
15.0821
16.3882
17.3283
17.6886
17.6635
17.2464
16.6361
15.862
15.0683
14.2573
13.5122
12.8319
12.257
11.8047
11.6804
11.436
11.0952
10.9021
10.9048
11.1064
11.4749
11.5246
11.8163
12.2791
12.859
13.5452
14.2964
15.1141
15.9147
16.6953
17.3117
17.7323
17.7602
17.3971
16.456
15.136
13.1535
11.7145
20.0464
20.8459
21.4346
21.7249
21.911
21.919
21.8933
21.7804
21.6717
21.5302
21.4094
21.2813
21.1706
21.0642
20.9741
20.8951
20.8312
20.7815
20.7492
20.7319
20.7328
20.752
20.7863
20.8374
20.9033
20.9841
21.0758
21.1839
21.2961
21.426
21.5484
21.6916
21.8022
21.9167
21.9443
21.9374
21.753
21.4622
20.8743
20.0758
22.8499
23.3767
23.7818
24.0125
24.1976
24.279
24.3458
24.3524
24.3515
24.3172
24.2827
24.2377
24.1966
24.155
24.1188
24.0878
24.062
24.0431
24.0297
24.0221
24.0232
24.0328
24.0483
24.0692
24.0968
24.1297
24.1677
24.2109
24.2536
24.3
24.3358
24.3712
24.373
24.3672
24.301
24.2203
24.0351
23.8055
23.3981
22.8753
25.1563
25.6288
26.0537
26.3232
26.564
26.7123
26.8474
26.9348
27.0162
27.0703
27.1203
27.1582
27.1945
27.226
27.255
27.2812
27.3032
27.3207
27.3321
27.3368
27.3379
27.3355
27.3263
27.3108
27.291
27.2667
27.2396
27.2099
27.1752
27.1389
27.0903
27.0373
26.957
26.8703
26.7358
26.5882
26.3469
26.0783
25.6512
25.1808
27.3083
27.7534
28.2062
28.5032
28.8029
29.0172
29.2322
29.3997
29.5677
29.7089
29.8473
29.9711
30.0902
30.1992
30.299
30.3873
30.4614
30.5192
30.5578
30.5757
30.5769
30.5613
30.525
30.4693
30.3974
30.3111
30.2132
30.1061
29.9887
29.8665
29.7294
29.5895
29.4225
29.256
29.0416
28.8278
28.5281
28.2315
27.7774
27.3326
29.3069
29.7399
30.2402
30.5794
30.9499
31.2306
31.5255
31.7713
32.0223
32.246
32.4676
32.6723
32.8688
33.0498
33.2156
33.3612
33.4832
33.5774
33.6404
33.6695
33.6708
33.644
33.5833
33.4912
33.3713
33.2278
33.0641
32.8849
32.6901
32.487
32.2668
32.0443
31.7944
31.5495
31.2551
30.975
30.6046
30.2654
29.7644
29.3308
31.1676
31.6011
32.16
32.5365
32.9712
33.3092
33.6722
33.9849
34.3056
34.5987
34.8891
35.1605
35.4205
35.6603
35.879
36.0704
36.23
36.3527
36.4341
36.4711
36.4723
36.4376
36.3585
36.238
36.0805
35.8912
35.6745
35.4365
35.1783
34.9084
34.6195
34.3276
34.008
33.6961
33.3338
32.9961
32.5616
32.1849
31.6252
31.191
32.8595
33.295
33.9014
34.3086
34.7926
35.1768
35.5919
35.9574
36.3316
36.6785
37.0213
37.3432
37.6504
37.9336
38.1908
38.4151
38.6014
38.7439
38.8379
38.8802
38.8814
38.8414
38.7495
38.6092
38.4251
38.2028
37.9476
37.6662
37.3608
37.0403
36.6991
36.3534
35.9802
35.6155
35.201
34.8172
34.3332
33.9257
33.3185
32.882
34.3172
34.7419
35.3924
35.8193
36.3433
36.762
37.2174
37.6228
38.0373
38.4242
38.8051
39.1635
39.5039
39.8173
40.1005
40.3466
40.5502
40.7053
40.8074
40.853
40.8542
40.8107
40.7108
40.5578
40.3563
40.1122
39.8309
39.5194
39.1807
38.8239
38.4444
38.0587
37.6452
37.2405
36.7856
36.3672
35.8432
35.416
34.7647
34.3388
35.4497
35.8796
36.5624
37.0129
37.5682
38.0186
38.5063
38.9452
39.3914
39.8097
40.2193
40.6045
40.9687
41.3027
41.6033
41.8634
42.0777
42.2404
42.3471
42.3947
42.3958
42.3505
42.2457
42.085
41.8728
41.6146
41.3159
40.9837
40.6213
40.2376
39.8294
39.4123
38.967
38.5289
38.0416
37.5914
37.036
36.5851
35.9015
35.4702
36.2165
36.6466
37.3772
37.8511
38.4437
38.925
39.4463
39.9161
40.392
40.8378
41.2722
41.6794
42.0623
42.4121
42.7253
42.9952
43.2167
43.3844
43.4942
43.5431
43.5441
43.4974
43.3896
43.2238
43.0043
42.7363
42.4249
42.0769
41.6957
41.2899
40.857
40.4123
39.9373
39.4682
38.9474
38.4662
37.8734
37.399
36.6675
36.2358
36.5586
37.0267
37.8062
38.322
38.956
39.4769
40.0344
40.5387
41.0451
41.5187
41.977
42.4049
42.8048
43.1684
43.4922
43.7702
43.9974
44.1691
44.2814
44.3316
44.3327
44.2845
44.1742
44.0044
43.779
43.5029
43.1809
42.819
42.4207
41.9943
41.5373
41.0649
40.5593
40.0557
39.4986
38.9778
38.3435
37.8272
37.0466
36.5769
36.4567
36.9825
37.8318
38.4036
39.0904
39.6596
40.2598
40.8031
41.3433
41.8468
42.33
42.779
43.196
43.573
43.9072
44.1928
44.4255
44.601
44.7158
44.7676
44.7687
44.7189
44.6059
44.4323
44.2015
43.9177
43.5853
43.2099
42.7945
42.3469
41.8649
41.3625
40.8233
40.2805
39.6807
39.1115
38.4244
37.8519
37.0014
36.4738
35.8816
36.4734
37.412
38.0581
38.8097
39.4367
40.0868
40.6746
41.2526
41.7889
42.2994
42.7713
43.2064
43.598
43.9431
44.2369
44.4757
44.6555
44.7733
44.8269
44.828
44.7763
44.6604
44.4824
44.2456
43.9535
43.61
43.2201
42.7865
42.3161
41.8068
41.2715
40.6943
40.107
39.4573
38.8302
38.0782
37.4312
36.4913
35.8972
34.8478
35.4897
36.4922
37.2307
38.055
38.7512
39.4559
40.0945
40.7142
41.2873
41.8282
42.3255
42.7812
43.1893
43.5473
43.8512
44.0973
44.2824
44.404
44.46
44.461
44.4069
44.2873
44.104
43.8596
43.5576
43.2012
42.7948
42.3405
41.8446
41.3048
40.7327
40.1138
39.4758
38.7713
38.075
37.2499
36.5102
35.5059
34.8619
33.4665
34.059
35.0771
35.8761
36.77
37.5411
38.3032
38.9955
39.6595
40.2725
40.8465
41.3725
41.8518
42.2794
42.6531
42.9692
43.2248
43.4171
43.5435
43.6025
43.6035
43.5465
43.4219
43.2315
42.9777
42.6633
42.2913
41.8653
41.3875
40.8628
40.29
39.6779
39.0147
38.3227
37.5606
36.7889
35.8938
35.0932
34.0728
33.477
31.8553
32.2902
33.2373
34.0301
34.952
35.7781
36.5947
37.3355
38.0412
38.6925
39.2999
39.8554
40.3599
40.809
41.2005
41.5311
41.7982
41.9991
42.1315
42.1942
42.1952
42.1346
42.0039
41.8049
41.5396
41.2107
40.8208
40.3733
39.8703
39.3161
38.7099
38.0595
37.3542
36.6134
35.7962
34.9691
34.0454
33.2502
32.3002
31.8612
30.1082
30.3155
31.1069
31.8145
32.7
33.5298
34.3711
35.1454
35.88
36.56
37.1938
37.7741
38.301
38.7701
39.179
39.5242
39.8032
40.0132
40.1522
40.2186
40.2196
40.1551
40.0181
39.8098
39.5327
39.1892
38.782
38.3144
37.7889
37.2097
36.577
35.8975
35.1629
34.3879
33.545
32.7131
31.8249
31.1137
30.3172
30.1048
28.2214
28.2329
28.8429
29.4206
30.2173
30.9978
31.8192
32.594
33.3341
34.0233
34.6685
35.2619
35.8019
36.2841
36.705
37.061
37.3491
37.5663
37.7106
37.7803
37.7814
37.7135
37.571
37.3555
37.0691
36.7147
36.2953
35.8146
35.2756
34.6832
34.0385
33.3491
32.6079
31.8312
31.0074
30.2234
29.4227
28.8394
28.2239
28.2035
26.2286
26.1696
26.6339
27.1063
27.8038
28.5142
29.2853
30.0307
30.7548
31.4341
32.0741
32.6659
33.2069
33.6914
34.1157
34.4753
34.7669
34.9873
35.1339
35.2054
35.2063
35.1365
34.9915
34.7727
34.4826
34.1243
33.7014
33.2179
32.6778
32.0865
31.4465
30.7664
30.0401
29.292
28.517
27.8027
27.0995
26.6228
26.15
26.2056
24.5161
24.5135
24.8966
25.3332
25.9586
26.6163
27.3325
28.0356
28.7236
29.3767
29.9959
30.5718
31.1
31.5747
31.991
32.3447
32.6318
32.8492
32.994
33.0648
33.0655
32.9962
32.8527
32.6367
32.3508
31.9982
31.5828
31.1089
30.5812
30.0056
29.3858
28.7314
28.0407
27.334
26.6141
25.9512
25.3219
24.8778
24.4928
24.4829
23.8168
23.9016
24.2472
24.6821
25.2524
25.8646
26.5171
27.1633
27.7996
28.4112
28.9935
29.5373
30.0371
30.4872
30.8825
31.2186
31.4917
31.6985
31.8363
31.9034
31.9041
31.8381
31.7013
31.4957
31.2236
30.8883
30.4939
30.0444
29.5451
29.0014
28.4189
27.8063
27.1681
26.5186
25.8622
25.2454
24.6707
24.2303
23.8811
23.7876
24.3415
24.4471
24.7778
25.1862
25.7052
26.258
26.8415
27.4258
28.006
28.567
29.1026
29.6038
30.0653
30.4812
30.8468
31.1578
31.4106
31.6021
31.7294
31.7912
31.7916
31.7307
31.6041
31.4135
31.1614
30.851
30.4859
30.0705
29.6095
29.1082
28.5726
28.0109
27.4292
26.8428
26.2554
25.6982
25.1745
24.7598
24.4255
24.3096
25.2065
25.3004
25.623
26.0004
26.485
26.9936
27.5371
28.0818
28.6248
29.1502
29.6522
30.1223
30.5556
30.9462
31.2898
31.5823
31.8199
31.9997
32.1193
32.177
32.1775
32.1206
32.0018
31.8226
31.5856
31.2938
30.9508
30.5606
30.1278
29.6577
29.1556
28.6299
28.0858
27.5393
26.9931
26.4799
25.9902
25.6058
25.2774
25.1735
82.9364
50.5598
53.6897
62.0078
68.426
73.5389
77.6547
81.1173
84.1757
86.9569
89.586
92.1066
94.618
97.2174
99.9603
102.867
105.953
109.197
112.567
115.997
119.379
122.541
125.17
126.775
83.4057
50.1
52.2457
60.3297
66.6921
71.7919
75.8879
79.3346
82.3666
85.1222
87.6603
90.1015
92.5319
95.031
97.6676
100.481
103.461
106.596
109.848
113.16
116.428
119.484
122.025
123.575
82.9579
49.8047
50.8215
58.6534
64.9493
69.999
74.1142
77.5846
80.6189
83.2884
85.7816
88.1436
90.4772
92.8909
95.4405
98.1406
101.012
104.033
107.174
110.371
113.525
116.476
118.93
120.425
81.7627
49.2742
49.3603
56.9008
63.1565
68.2464
72.378
75.8478
78.8449
81.5263
83.9373
86.226
88.4928
90.8125
93.2564
95.8737
98.645
101.564
104.591
107.675
110.718
113.566
115.934
117.376
80.977
48.911
47.8855
55.1535
61.3885
66.435
70.6069
74.1223
77.163
79.7622
82.148
84.3778
86.5544
88.8008
91.1752
93.6819
96.3519
99.162
102.086
105.062
107.999
110.747
113.034
114.423
78.7862
48.2579
46.4213
53.3007
59.4971
64.6482
68.8751
72.4129
75.3995
78.0609
80.39
82.5594
84.6918
86.8567
89.127
91.5681
94.1507
96.8704
99.688
102.559
105.391
108.043
110.25
111.588
78.43
48.0385
44.853
51.4154
57.6685
62.7732
67.0535
70.6506
73.7516
76.3296
78.6654
80.8081
82.8616
84.969
87.195
89.5288
92.016
94.6326
97.3577
100.129
102.863
105.423
107.553
108.843
76.6422
47.0182
43.3392
49.3877
55.5677
60.8688
65.2574
68.9253
71.9431
74.6412
76.9539
79.0578
81.1008
83.1452
85.2663
87.5562
89.9715
92.5119
95.1368
97.8105
100.448
102.918
104.973
106.215
59.7793
45.9006
41.6373
47.2042
53.583
58.8328
63.2986
67.0345
70.2809
72.8969
75.2406
77.3616
79.3424
81.3495
83.4618
85.6462
87.971
90.412
92.9554
95.5373
98.0839
100.47
102.454
103.649
65.0341
44.7796
39.8434
44.8429
51.0391
56.65
61.3163
65.2298
68.3438
71.1588
73.5231
75.6176
77.6297
79.5997
81.6019
83.7707
86.0431
88.4241
90.8721
93.363
95.8186
98.1204
100.034
101.183
66.5614
44.9043
38.0142
42.0036
48.6907
54.2538
59.0714
63.0564
66.5936
69.3342
71.7584
73.928
75.8848
77.8344
79.876
81.9365
84.1192
86.4014
88.7785
91.1839
93.5542
95.7755
97.6235
98.7264
62.5927
43.521
35.8661
39.018
45.1879
51.4817
56.6781
61.0748
64.3941
67.4538
69.9677
72.1185
74.1633
76.1098
78.0221
80.1027
82.2577
84.4994
86.7835
89.1024
91.3852
93.526
95.3047
96.3621
55.6637
42.4694
33.4757
34.6065
42.0375
48.2697
53.854
58.3293
62.4406
65.4472
68.06
70.377
72.3727
74.3125
76.3343
78.2971
80.3577
82.496
84.7214
86.9607
89.1619
91.2253
92.9413
93.9535
52.7739
41.4108
30.8897
30.3442
36.0284
44.1566
50.5534
55.994
59.735
63.2784
66.0998
68.4022
70.5656
72.5561
74.4105
76.4437
78.5113
80.6373
82.7694
84.9254
87.0411
89.0255
90.6723
91.64
50.742
39.9419
27.6561
20.7131
30.8203
38.8325
46.4303
52.0395
57.3822
60.9185
63.9064
66.5191
68.6447
70.6367
72.7098
74.6044
76.5652
78.5724
80.6612
82.7428
84.78
86.6894
88.2763
89.1978
32.0374
33.336
23.4181
11.2687
13.6986
30.2847
40.7134
48.9135
53.6165
58.2003
61.6213
64.2355
66.6393
68.7686
70.5997
72.6409
74.6589
76.6999
78.6901
80.6891
82.6407
84.4708
85.9863
86.8631
7.08813
12.8897
12.0448
6.9701
8.55589
13.3535
32.0616
41.9193
50.5046
55.1356
58.8927
62.0534
64.4571
66.5879
68.8194
70.6795
72.5641
74.4485
76.4167
78.346
80.2201
81.9744
83.433
84.2612
9.73068
11.9222
7.81217
16.7814
17.7442
19.5701
19.1888
36.2668
43.9731
51.3264
55.9836
59.2301
62.0742
64.4903
66.3322
68.4631
70.4865
72.4854
74.3401
76.1839
77.9684
79.6413
81.0218
81.804
9.53654
11.7897
5.69484
10.5969
9.42368
8.47463
11.0451
15.2908
39.3717
46.5628
52.1731
56.439
59.3957
61.8069
64.3837
66.2488
68.0793
69.8418
71.7081
73.4868
75.1921
76.7852
78.1122
78.8397
3.23525
11.871
10.0781
19.5997
21.0089
21.8777
20.8545
21.2099
19.7305
40.3304
48.0113
52.5708
56.307
59.2903
61.1708
63.5351
65.6567
67.6852
69.4058
71.0899
72.6967
74.2026
75.4384
76.1183
11.5129
20.6378
22.9357
18.8489
18.4747
19.6622
24.2963
22.6433
14.4456
29.1136
41.2039
48.5529
52.6265
55.611
58.9358
60.8544
62.6591
64.2763
66.0708
67.6961
69.2186
70.6363
71.825
72.4378
11.9049
21.8818
26.7226
29.2162
24.4537
11.1709
15.2185
19.8321
13.8427
4.51984
34.5154
41.8705
48.0666
52.321
54.2344
57.1652
59.557
61.791
63.372
64.8847
66.2928
67.6147
68.6883
69.2523
11.4833
22.2544
28.0427
31.1932
32.066
25.9874
10.5821
7.46976
20.2639
22.5545
25.8407
35.4221
41.9917
46.3585
51.5787
53.5953
55.4685
56.8101
58.6075
60.079
61.3942
62.6152
63.6578
64.1309
11.4707
20.4541
26.8612
31.4503
33.3868
33.1312
24.5512
29.8558
16.541
6.63929
11.8323
9.67782
32.743
41.4417
43.1517
47.7607
50.8399
53.8398
55.2632
56.5896
57.7631
58.8797
59.7649
60.1924
11.6555
18.6465
25.0994
29.8125
32.8787
33.5574
32.8779
22.7841
27.5423
15.8363
19.1788
23.7191
23.6945
27.4025
40.1648
42.2231
44.3546
44.9458
47.0291
48.3721
49.4628
50.4485
51.3778
51.6565
8.73808
16.7988
23.1289
27.8367
31.0223
32.8617
32.3373
31.8906
19.8772
29.9295
9.49612
23.8195
3.28672
21.1839
13.8872
29.1564
35.9847
41.5383
42.7415
43.9015
44.6629
45.6864
46.2183
46.4838
7.37107
15.3522
20.9997
25.2373
28.4205
30.3911
31.4361
30.3828
31.4957
21.2064
18.8758
10.5279
24.3519
25.6705
24.7275
14.9788
11.9608
12.1325
18.6763
20.8769
23.2168
22.7081
25.3262
25.1317
5.23681
13.4784
18.0193
21.5711
24.4877
26.7661
28.0007
29.3842
29.0821
31.6236
21.0985
16.3106
11.3161
20.1676
5.16701
9.6195
27.2203
19.5267
21.312
8.73709
29.8197
10.7536
31.3022
31.4438
4.82842
12.1821
14.7467
16.9087
19.2169
21.4904
23.7185
25.4684
28.3733
29.17
32.1773
22.2689
25.2513
15.7392
26.1167
26.3549
20.7532
5.7915
28.7878
21.8973
7.98639
24.7745
12.1045
9.0261
3.90814
12.0814
12.5061
13.086
14.2091
16.316
18.891
22.0721
24.6356
28.3912
29.8076
32.5397
23.6019
16.2788
27.9551
27.7791
13.0423
19.2448
1.13098
24.7005
27.0485
18.2392
1.47622
28.5593
3.32821
11.2599
11.6851
11.8995
12.3734
14.1147
16.7483
19.2891
22.5805
25.1434
28.9007
30.6291
32.6822
26.1814
18.1927
17.4063
10.892
16.0831
24.038
4.75456
19.5087
29.4469
20.7735
24.3736
2.98473
11.3845
11.6089
11.7524
12.391
14.62
17.0305
19.3123
21.1528
23.8481
26.0562
29.5042
31.3743
32.5625
29.7293
18.7988
17.3476
17.2735
6.17922
10.9738
22.7767
8.57832
19.1065
11.5751
2.01312
9.5254
11.4843
11.7184
12.6654
15.454
18.0281
19.9698
21.8125
23.1262
25.1352
27.0141
30.0351
31.9301
32.3907
32.3423
27.9115
22.6773
18.1803
14.5081
12.9418
12.4971
10.9295
12.4495
2.39322
10.1127
11.379
11.5054
14.197
17.1773
19.4703
21.3007
22.6493
23.9963
24.8424
26.2423
27.8872
30.2776
32.2615
32.0633
31.4502
30.9495
30.5552
30.3485
29.9317
29.6526
29.5989
29.8428
3.31089
11.4159
11.6924
13.2826
16.3659
19.0179
21.1086
22.7424
24.132
25.0532
25.8844
26.3019
27.1794
28.6007
30.3219
31.7507
31.5274
30.5252
28.9097
27.2133
25.7649
24.8873
24.7196
24.8773
3.46179
11.5425
12.929
15.9122
18.7072
21.0155
22.8866
24.4392
25.653
26.6466
27.1566
27.4892
27.5476
27.959
29.0863
30.0509
30.3088
29.9517
28.9775
27.713
26.4811
25.8245
25.8096
26.131
3.94055
12.002
15.5858
18.4077
20.8205
22.8997
24.6695
26.1627
27.4246
28.3083
28.8873
28.9904
28.8649
28.6322
28.6355
29.1485
29.3408
28.8427
27.4644
25.5367
23.682
22.6814
22.766
23.2307
5.80155
14.8993
18.0946
20.5817
22.7899
24.7476
26.4624
27.9651
29.2099
30.1763
30.7072
30.8687
30.5904
30.0592
29.5436
29.1423
28.8198
28.2511
27.0906
25.4828
23.9271
23.1884
23.4536
24.0912
7.9328
16.9465
20.0552
22.4176
24.5461
26.476
28.2131
29.758
31.0832
32.0707
32.6972
32.8652
32.6178
31.9846
31.0966
30.2139
29.3478
28.3503
26.9382
25.1045
23.3443
22.5043
22.8748
23.6205
10.3456
18.8085
21.7501
24.0669
26.1991
28.1533
29.9453
31.5672
32.9505
34.0324
34.7116
34.9823
34.7821
34.137
33.1431
31.9063
30.5791
29.1846
27.5925
25.8077
24.2219
23.5696
24.0541
24.873
80.8491
76.0371
58.9737
69.5612
72.4476
68.1147
66.9876
66.5297
53.663
33.214
18.6808
35.5127
12.3193
10.0175
18.3734
14.2632
14.0171
14.0936
13.5267
13.4096
13.4094
13.5197
14.2127
13.1562
17.1758
10.9674
22.7105
20.0414
43.1568
7.92209
50.3875
54.1176
53.7298
66.4928
59.4204
61.7936
74.6128
68.9722
59.2479
78.3228
49.9732
47.9257
46.5923
45.2843
43.2706
41.1312
39.9569
37.737
36.3316
34.649
34.4589
32.9977
33.0349
32.3349
31.5994
31.2733
30.9205
30.5713
30.3986
30.2735
30.2736
30.3985
30.5639
30.9775
31.084
31.9632
31.9454
33.0195
33.2231
34.2937
35.0358
36.7876
37.8053
40.3137
40.8726
43.541
44.7782
46.6752
47.8159
49.6878
54.2405
52.6893
52.2117
50.7353
50.1749
48.8489
48.2682
47.133
46.535
45.5466
44.8997
44.0989
43.4768
42.8829
42.4407
41.9697
41.6353
41.3796
41.1879
41.0862
41.0862
41.188
41.382
41.622
42.0058
42.3916
42.9096
43.5071
44.0659
44.9166
45.512
46.5026
47.1183
48.2634
48.87
50.1968
50.7613
52.2285
52.7005
54.2543
62.6725
61.1738
60.6584
59.2159
58.5672
57.2438
56.5345
55.3739
54.6676
53.7026
53.0244
52.2292
51.6315
51.028
50.5285
50.1023
49.758
49.488
49.3068
49.2042
49.2042
49.3068
49.4876
49.7615
50.0943
50.5392
51.0232
51.6278
52.2353
53.0205
53.6972
54.6691
55.3776
56.5406
57.2485
58.5682
59.2184
60.6579
61.1764
62.6767
69.0799
67.5314
66.9347
65.472
64.7524
63.4351
62.6592
61.5172
60.7383
59.7816
59.0497
58.2689
57.6277
57.0217
56.5177
56.0746
55.7243
55.4554
55.2685
55.1675
55.1675
55.2686
55.4557
55.7228
56.078
56.5147
57.0219
57.6306
58.2669
59.0481
59.7798
60.7373
61.5174
62.6611
63.4385
64.7561
65.4771
66.9379
67.5367
69.083
74.175
72.5879
71.9134
70.4424
69.6476
68.3411
67.4958
66.3694
65.5374
64.5891
63.8233
63.043
62.3872
61.7737
61.2565
60.8131
60.4557
60.1814
59.9944
59.8927
59.8927
59.9944
60.1813
60.4564
60.8119
61.2575
61.7738
62.3865
63.043
63.8228
64.5884
65.5379
66.3705
67.4973
68.3426
69.6487
70.4438
71.914
72.5902
74.1752
78.2413
76.64
75.8859
74.4239
73.5638
72.2744
71.3794
70.2643
69.399
68.4526
67.668
66.8859
66.2184
65.602
65.0793
64.6303
64.27
63.9942
63.8047
63.703
63.703
63.8048
63.9942
64.2697
64.6309
65.079
65.6018
66.2186
66.8855
67.6676
68.4524
69.3992
70.2644
71.38
72.2748
73.5649
74.4247
75.8876
76.6412
78.2433
81.664
80.0528
79.2414
77.7843
76.8803
75.5966
74.6712
73.5569
72.6714
71.7218
70.9231
70.1366
69.4598
68.8382
68.3086
67.856
67.4905
67.2107
67.0192
66.9154
66.9154
67.0191
67.2107
67.4906
67.8557
68.3086
68.8381
69.4596
70.1364
70.9229
71.7216
72.6713
73.557
74.6715
75.5969
76.881
77.7846
79.2424
80.0529
81.6655
84.708
83.0666
82.2254
80.7558
79.8276
78.5369
77.5918
76.4715
75.5697
74.614
73.8023
73.0093
72.3224
71.6943
71.1573
70.6983
70.3275
70.043
69.8471
69.7402
69.7402
69.8471
70.043
70.3274
70.6983
71.1572
71.6941
72.3223
73.0091
73.8021
74.6138
75.5697
76.4715
77.5919
78.537
79.8279
80.756
82.226
83.067
84.7087
87.525
85.8281
84.9793
83.483
82.5393
81.2344
80.2717
79.1414
78.2233
77.2582
76.4327
75.6304
74.9326
74.2958
73.75
73.2839
72.9061
72.6158
72.4149
72.3036
72.3036
72.4149
72.6157
72.9061
73.2837
73.7499
74.2957
74.9324
75.6303
76.4325
77.2579
78.2231
79.1412
80.2717
81.2342
82.5395
83.4828
84.9798
85.8278
87.526
90.1712
88.4355
87.5695
86.0504
85.0871
83.766
82.7845
81.6401
80.7051
79.7271
78.8871
78.0731
77.363
76.716
76.1603
75.6857
75.3004
75.0035
74.7968
74.6805
74.6805
74.7968
75.0034
75.3003
75.6856
76.1602
76.7158
77.3628
78.0729
78.8869
79.7269
80.7049
81.64
82.7843
83.7658
85.0872
86.0502
87.5697
88.4353
90.1717
92.7402
90.9403
90.0792
88.5183
87.5482
86.199
85.2044
84.0398
83.0896
82.0957
81.2409
80.4137
79.6907
79.0327
78.4666
77.9831
77.5898
77.2861
77.0735
76.9519
76.9519
77.0735
77.286
77.5897
77.9829
78.4665
79.0325
79.6906
80.4135
81.2407
82.0955
83.0894
84.0396
85.2042
86.1989
87.548
88.5182
90.0792
90.9403
92.7403
95.308
93.441
92.586
90.9832
90.0038
88.6278
87.617
86.4331
85.4653
84.4556
83.5846
82.744
82.0075
81.338
80.7613
80.2686
79.8672
79.5567
79.3382
79.2113
79.2112
79.3382
79.5566
79.8671
80.2684
80.7611
81.3378
82.0073
82.7438
83.5844
84.4554
85.465
86.4328
87.6168
88.6276
90.0036
90.9831
92.5857
93.441
95.3078
97.9561
96.0278
95.1731
93.5305
92.5383
91.1352
90.1063
88.9016
87.915
86.8882
86.0002
85.1448
84.3941
83.7123
83.1244
82.6221
82.2124
81.8949
81.6705
81.5384
81.5384
81.6705
81.8948
82.2123
82.6219
83.1242
83.7122
84.3938
85.1446
86
86.888
87.9148
88.9014
90.106
91.135
92.5381
93.5303
95.173
96.0276
97.956
100.75
98.756
97.901
96.2147
95.2086
93.7751
92.7265
91.4983
90.4914
89.4451
88.5384
87.6667
86.9004
86.2053
85.6052
85.0926
84.6741
84.3492
84.1189
83.9817
83.9816
84.1188
84.3492
84.674
85.0924
85.605
86.2052
86.9004
87.6667
88.5384
89.4447
90.4909
91.4978
92.726
93.7746
95.2081
96.2147
97.901
98.7555
100.749
103.721
101.649
100.799
99.0612
98.041
96.5725
95.5024
94.2475
93.2182
92.1503
91.2233
90.3331
89.5498
88.8399
88.2263
87.7026
87.2744
86.9418
86.7054
86.5631
86.5631
86.7054
86.9418
87.2744
87.7021
88.2259
88.8395
89.5493
90.3331
91.2228
92.1499
93.2178
94.2475
95.5019
96.5721
98.0405
99.0607
100.798
101.649
103.721
106.866
104.718
103.863
102.076
101.036
99.532
98.4361
97.1535
96.0984
95.0071
94.0571
93.1472
92.345
91.6185
90.9907
90.4546
90.0163
89.6753
89.4325
89.285
89.285
89.4321
89.6753
90.0159
90.4542
90.9903
91.6185
92.3446
93.1467
94.0567
95.0067
96.098
97.153
98.4356
99.5315
101.035
102.076
103.863
104.718
106.866
110.172
107.944
107.084
105.244
104.182
102.64
101.516
100.204
99.121
98.0037
97.0294
96.0982
95.2752
94.5318
93.8882
93.3386
92.8897
92.5401
92.2903
92.1379
92.1379
92.2903
92.5401
92.8893
93.3386
93.8878
94.5314
95.2748
96.0978
97.029
98.0033
99.1201
100.203
101.516
102.64
104.181
105.244
107.084
107.943
110.171
113.601
111.294
110.425
108.533
107.445
105.865
104.711
103.367
102.255
101.111
100.11
99.1565
98.3122
97.5504
96.8901
96.3274
95.8666
95.5081
95.2516
95.0941
95.0941
95.2516
95.5081
95.8662
96.327
96.8898
97.55
98.3118
99.1561
100.11
101.11
102.254
103.367
104.71
105.865
107.444
108.533
110.425
111.293
113.6
117.091
114.705
113.825
111.881
110.766
109.148
107.962
106.587
105.443
104.273
103.245
102.268
101.402
100.621
99.9438
99.3665
98.8943
98.5267
98.2631
98.101
98.101
98.2631
98.5263
98.8939
99.3665
99.9435
100.62
101.401
102.267
103.245
104.272
105.443
106.586
107.961
109.147
110.765
111.881
113.824
114.704
117.09