/*--------------------------------*- C++ -*----------------------------------*\
  =========                 |
  \\      /  F ield         | OpenFOAM: The Open Source CFD Toolbox
   \\    /   O peration     | Website:  https://openfoam.org
    \\  /    A nd           | Version:  6
     \\/     M anipulation  |
\*---------------------------------------------------------------------------*/
FoamFile
{
    version     2.0;
    format      ascii;
    class       volScalarField;
    location    "16";
    object      omega;
}
// * * * * * * * * * * * * * * * * * * * * * * * * * * * * * * * * * * * * * //

dimensions      [0 0 -1 0 0 0 0];

internalField   nonuniform List<scalar> 
380496
(
843.917
843.917
843.917
843.917
843.917
843.917
843.917
843.917
843.917
843.917
843.917
843.917
843.917
843.917
843.917
843.917
843.917
843.917
843.917
843.917
843.917
843.917
843.917
843.917
843.917
843.917
843.917
843.917
843.917
843.917
843.917
843.917
843.917
843.917
843.917
843.917
843.917
843.917
843.917
843.917
843.917
843.917
843.917
843.917
843.917
843.917
843.917
843.917
843.917
843.917
843.917
843.917
843.917
843.917
843.917
843.917
843.917
843.917
843.917
843.917
843.917
843.917
843.917
843.917
843.917
843.917
843.917
843.917
843.917
843.917
843.917
843.917
843.917
843.917
843.917
843.917
843.917
843.917
843.917
843.917
843.917
843.917
843.917
843.917
843.917
843.917
843.917
843.917
843.917
843.917
843.917
843.917
843.917
843.917
843.917
843.917
843.917
843.917
843.917
843.917
843.917
843.917
843.917
843.917
843.917
843.917
843.917
843.917
843.917
843.917
843.917
843.917
843.917
843.917
843.917
843.917
843.917
843.917
843.917
843.917
843.917
843.917
843.917
843.917
843.917
843.917
843.917
843.917
843.917
843.917
843.917
843.917
843.917
843.917
843.917
843.917
843.917
843.917
843.917
843.917
843.917
843.917
843.917
843.917
843.917
843.917
843.917
843.917
843.917
843.917
843.917
843.917
843.917
843.917
843.917
843.917
843.917
843.917
843.917
843.917
843.917
843.917
843.917
843.917
843.917
843.917
843.917
843.917
843.917
843.917
843.917
843.917
843.917
843.917
843.917
843.917
843.917
843.917
843.917
843.917
843.917
843.917
843.917
843.917
843.917
843.917
843.917
843.917
843.917
843.917
843.917
843.917
843.917
843.917
843.917
843.917
843.917
843.917
843.917
843.917
843.917
843.917
843.917
843.917
843.917
843.917
843.917
843.917
843.917
843.917
843.917
843.917
843.917
843.917
843.917
843.917
843.917
843.917
843.917
843.917
843.917
843.917
843.917
843.917
843.917
843.917
843.917
843.917
843.917
843.917
843.917
843.917
843.917
843.917
843.917
843.917
843.917
843.917
843.917
843.917
843.917
843.917
843.917
843.917
843.917
843.917
843.917
843.917
843.917
843.917
843.917
843.917
843.917
843.917
843.917
843.917
843.917
843.917
843.917
843.917
843.917
843.917
843.917
843.917
843.917
843.917
843.917
843.917
843.917
843.917
843.917
843.917
843.917
843.917
843.917
843.917
843.917
843.917
843.917
843.917
843.917
843.917
843.917
843.917
843.917
843.917
843.917
843.917
843.917
843.917
843.917
843.917
843.917
843.917
843.917
843.917
843.917
843.917
843.917
843.917
843.917
843.917
843.917
843.917
843.917
843.917
843.917
843.917
843.917
843.917
843.917
843.917
843.917
843.917
843.917
843.917
843.917
843.917
843.917
843.917
843.917
843.917
843.917
843.917
843.917
843.917
843.917
843.917
843.917
843.917
843.917
843.917
843.917
843.917
843.917
843.917
843.917
843.917
843.917
843.917
843.917
843.917
843.917
843.917
843.917
843.917
843.917
843.917
843.917
843.917
843.917
843.917
843.917
843.917
843.917
843.917
843.917
843.917
843.917
843.917
843.917
843.917
843.917
843.917
843.917
843.917
843.917
843.917
843.917
843.917
843.917
843.917
843.917
843.917
843.917
843.917
843.917
843.917
843.917
843.917
843.917
843.917
843.917
843.917
843.917
843.917
843.917
843.917
843.917
843.917
843.917
843.917
843.917
843.917
843.917
843.917
843.917
843.917
843.917
843.917
843.917
843.917
843.917
843.917
843.917
843.917
843.917
843.917
843.917
843.917
843.917
843.917
843.917
843.917
843.917
843.917
843.917
843.917
843.917
843.917
843.917
843.917
843.917
843.917
843.917
843.917
843.917
843.917
843.917
843.917
843.917
843.917
843.917
843.917
843.917
843.917
843.917
843.917
843.917
843.917
843.917
843.917
843.917
843.917
843.917
843.917
843.917
843.917
843.917
843.917
843.917
843.917
843.917
843.917
843.917
843.917
843.917
843.917
843.917
843.917
843.917
843.917
843.917
843.917
843.917
843.917
843.917
843.917
843.917
843.917
843.917
843.917
843.917
843.917
843.917
843.917
843.917
843.917
843.917
843.917
843.917
843.917
843.917
843.917
843.917
843.917
843.917
843.917
843.917
843.917
843.917
843.917
843.917
843.917
843.917
843.917
843.917
843.917
843.917
843.917
843.917
843.917
843.917
843.917
843.917
843.917
843.917
843.917
843.917
843.917
843.917
843.917
843.917
843.917
843.917
843.917
843.917
843.917
843.917
843.917
843.917
843.917
843.917
843.917
843.917
843.917
843.917
843.917
843.917
843.917
843.917
843.917
843.917
843.917
843.917
843.917
843.917
843.917
843.917
843.917
843.917
843.917
843.917
843.917
843.917
843.917
843.917
843.917
843.917
843.917
843.917
843.917
843.917
843.917
843.917
843.917
843.917
843.917
843.917
843.917
843.917
843.917
843.917
843.917
843.917
843.917
843.917
843.917
843.917
843.917
843.917
843.917
843.917
843.917
843.917
843.917
843.917
843.917
843.917
843.917
843.917
843.917
843.917
843.917
843.917
843.917
843.917
843.917
843.917
843.917
843.917
843.917
843.917
843.917
843.917
843.917
843.917
843.917
843.917
843.917
843.917
843.917
843.917
843.917
843.917
843.917
843.917
843.917
843.917
843.917
843.917
843.917
843.917
843.917
843.917
843.917
843.917
843.917
843.917
843.917
843.917
843.917
843.917
843.917
843.917
843.917
843.917
843.917
843.917
843.917
843.917
843.917
843.917
843.917
843.917
843.917
843.917
843.917
843.917
843.917
843.917
843.917
843.917
843.917
843.917
843.917
843.917
843.917
843.917
843.917
843.917
843.917
843.917
843.917
843.917
843.917
843.917
843.917
843.917
843.917
843.917
843.917
843.917
843.917
843.917
843.917
843.917
843.917
843.917
843.917
843.917
843.917
843.917
843.917
843.917
843.917
843.917
843.917
843.917
843.917
843.917
843.917
843.917
843.917
843.917
843.917
843.917
843.917
843.917
843.917
843.917
843.917
843.917
843.917
843.917
843.917
843.917
843.917
843.917
843.917
423.923
423.923
423.923
423.923
423.923
424.288
424.278
424.288
424.272
424.295
424.32
424.34
424.363
424.382
424.405
424.425
424.449
424.471
424.498
424.521
424.55
424.576
424.608
424.636
424.672
424.701
424.742
424.772
424.818
424.845
424.9
424.92
424.988
424.988
425.071
275.638
262.144
263.673
264.573
264.559
264.418
264.334
264.29
264.266
264.254
264.249
264.249
264.252
264.26
264.266
264.279
264.289
264.306
264.318
264.342
264.357
264.388
264.407
264.445
264.471
264.517
264.551
264.605
264.649
264.711
264.766
264.835
264.896
264.984
265.022
275.379
261.96
263.393
264.252
264.226
264.084
263.996
263.955
263.929
263.923
263.917
263.924
263.928
263.943
263.952
263.972
263.985
264.01
264.027
264.059
264.081
264.119
264.148
264.194
264.23
264.284
264.328
264.392
264.443
264.518
264.574
264.661
264.71
264.831
264.787
274.938
261.625
263.023
263.851
263.812
263.667
263.58
263.542
263.52
263.519
263.519
263.533
263.543
263.566
263.582
263.612
263.632
263.669
263.696
263.739
263.773
263.824
263.865
263.925
263.975
264.045
264.104
264.185
264.252
264.344
264.418
264.524
264.589
264.735
264.709
274.255
261.102
262.54
263.341
263.28
263.131
263.045
263.012
262.996
263.004
263.011
263.035
263.053
263.085
263.11
263.149
263.181
263.227
263.265
263.319
263.365
263.427
263.482
263.554
263.617
263.701
263.774
263.869
263.95
264.058
264.143
264.267
264.339
264.51
264.479
273.787
260.732
262.024
262.77
262.702
262.553
262.468
262.438
262.426
262.438
262.45
262.48
262.504
262.543
262.575
262.623
262.663
262.718
262.766
262.831
262.888
262.963
263.03
263.116
263.193
263.291
263.378
263.489
263.585
263.709
263.81
263.952
264.039
264.234
264.207
272.915
260.038
261.328
262.034
261.947
261.796
261.717
261.695
261.693
261.715
261.739
261.778
261.814
261.863
261.906
261.965
262.015
262.084
262.142
262.222
262.288
262.38
262.456
262.561
262.647
262.765
262.861
262.993
263.098
263.243
263.354
263.517
263.612
263.833
263.804
272.061
259.34
260.531
261.18
261.08
260.929
260.856
260.842
260.849
260.88
260.913
260.962
261.007
261.066
261.119
261.188
261.249
261.329
261.399
261.49
261.571
261.674
261.766
261.883
261.985
262.116
262.23
262.374
262.497
262.657
262.783
262.963
263.071
263.316
263.287
271.026
258.479
259.567
260.157
260.044
259.896
259.832
259.828
259.847
259.889
259.933
259.991
260.047
260.116
260.18
260.259
260.332
260.422
260.505
260.608
260.701
260.818
260.923
261.054
261.17
261.316
261.443
261.604
261.74
261.916
262.056
262.254
262.371
262.64
262.608
269.807
257.456
258.457
258.984
258.857
258.715
258.666
258.677
258.711
258.767
258.825
258.896
258.964
259.044
259.12
259.211
259.295
259.398
259.492
259.608
259.714
259.844
259.962
260.108
260.237
260.398
260.539
260.715
260.864
261.056
261.208
261.422
261.55
261.84
261.806
268.657
256.454
257.277
257.74
257.61
257.478
257.442
257.466
257.512
257.578
257.646
257.726
257.803
257.893
257.978
258.078
258.172
258.285
258.39
258.517
258.635
258.777
258.906
259.065
259.206
259.38
259.533
259.723
259.884
260.09
260.253
260.483
260.619
260.928
260.89
267.087
255.101
255.846
256.251
256.111
255.995
255.985
256.033
256.102
256.187
256.273
256.368
256.46
256.562
256.66
256.773
256.88
257.005
257.122
257.262
257.392
257.547
257.689
257.861
258.015
258.203
258.368
258.572
258.745
258.965
259.14
259.384
259.529
259.858
259.815
265.666
253.803
254.279
254.616
254.485
254.389
254.4
254.465
254.548
254.645
254.742
254.846
254.948
255.06
255.168
255.29
255.408
255.543
255.672
255.823
255.965
256.132
256.287
256.471
256.639
256.839
257.018
257.235
257.42
257.654
257.84
258.098
258.252
258.599
258.552
263.602
251.962
252.321
252.61
252.486
252.426
252.479
252.58
252.694
252.816
252.936
253.059
253.178
253.305
253.429
253.564
253.696
253.845
253.988
254.151
254.307
254.488
254.657
254.855
255.036
255.251
255.442
255.673
255.872
256.12
256.318
256.591
256.753
257.12
257.065
261.657
250.111
250.128
250.362
250.265
250.245
250.335
250.461
250.598
250.737
250.873
251.009
251.142
251.281
251.418
251.565
251.71
251.87
252.027
252.203
252.372
252.566
252.748
252.96
253.155
253.384
253.588
253.834
254.046
254.308
254.518
254.806
254.977
255.364
255.3
258.961
247.586
247.37
247.584
247.529
247.576
247.729
247.906
248.082
248.252
248.414
248.571
248.724
248.879
249.032
249.193
249.353
249.526
249.697
249.885
250.069
250.275
250.472
250.697
250.906
251.149
251.367
251.628
251.852
252.13
252.352
252.657
252.837
253.246
253.173
255.939
244.637
244.052
244.272
244.29
244.42
244.641
244.867
245.082
245.282
245.468
245.644
245.814
245.981
246.148
246.318
246.49
246.672
246.855
247.052
247.249
247.465
247.676
247.912
248.136
248.392
248.626
248.902
249.142
249.436
249.672
249.994
250.188
250.618
250.538
252.317
240.988
239.927
240.186
240.311
240.557
240.861
241.145
241.393
241.615
241.812
241.994
242.166
242.335
242.502
242.674
242.85
243.035
243.226
243.431
243.64
243.867
244.094
244.345
244.588
244.862
245.118
245.412
245.675
245.99
246.25
246.593
246.811
247.265
247.2
246.448
235.384
234.178
234.679
234.989
235.386
235.783
236.121
236.39
236.624
236.817
237
237.167
237.341
237.511
237.696
237.884
238.09
238.303
238.535
238.772
239.03
239.291
239.575
239.856
240.164
240.458
240.788
241.09
241.439
241.738
242.113
242.373
242.846
242.83
238.155
227.579
225.862
226.732
227.333
227.911
228.379
228.737
229.005
229.247
229.45
229.665
229.863
230.087
230.301
230.547
230.786
231.056
231.322
231.618
231.911
232.232
232.55
232.894
233.233
233.598
233.953
234.335
234.699
235.097
235.458
235.876
236.207
236.708
236.827
218.095
211.367
210.037
211.656
212.786
213.68
214.36
214.896
215.335
215.739
216.088
216.436
216.748
217.079
217.381
217.717
218.029
218.383
218.718
219.099
219.459
219.863
220.251
220.681
221.095
221.543
221.979
222.439
222.889
223.355
223.809
224.27
224.705
225.106
225.358
9.50425
8.83564
9.16122
9.2992
9.37669
9.42564
9.47201
9.50705
9.53628
9.57142
9.61532
9.64901
9.69226
9.72535
9.77051
9.80533
9.85408
9.89183
9.9449
9.98592
10.0436
10.0878
10.1508
10.1976
10.2668
10.3144
10.3915
10.4364
10.5246
10.5609
10.6658
10.683
10.8139
10.7916
10.9532
133.591
127.215
127.094
127.665
127.852
127.834
127.782
127.738
127.708
127.688
127.675
127.668
127.666
127.666
127.67
127.675
127.683
127.692
127.703
127.717
127.732
127.75
127.77
127.792
127.819
127.847
127.881
127.916
127.959
128.004
128.055
128.114
128.172
128.253
128.317
133.312
126.951
126.79
127.333
127.509
127.487
127.432
127.388
127.358
127.339
127.328
127.324
127.323
127.327
127.333
127.342
127.354
127.368
127.383
127.401
127.422
127.445
127.471
127.499
127.532
127.566
127.607
127.647
127.699
127.745
127.809
127.862
127.933
128.009
128.048
132.938
126.595
126.417
126.943
127.109
127.084
127.029
126.985
126.956
126.941
126.933
126.932
126.936
126.945
126.956
126.971
126.988
127.009
127.031
127.056
127.084
127.115
127.149
127.186
127.228
127.271
127.322
127.372
127.433
127.491
127.564
127.63
127.709
127.803
127.851
132.435
126.122
125.96
126.48
126.635
126.605
126.547
126.505
126.479
126.468
126.465
126.47
126.479
126.494
126.511
126.532
126.556
126.582
126.612
126.644
126.679
126.717
126.759
126.803
126.853
126.904
126.964
127.021
127.091
127.156
127.237
127.31
127.394
127.495
127.543
132.014
125.739
125.522
126
126.14
126.104
126.044
126.002
125.976
125.967
125.966
125.975
125.987
126.006
126.027
126.053
126.08
126.112
126.147
126.185
126.226
126.271
126.32
126.371
126.428
126.487
126.554
126.62
126.697
126.771
126.859
126.941
127.032
127.142
127.198
131.387
125.155
124.944
125.405
125.53
125.487
125.426
125.386
125.366
125.362
125.367
125.381
125.4
125.425
125.453
125.485
125.519
125.558
125.599
125.645
125.693
125.745
125.801
125.86
125.925
125.991
126.066
126.139
126.224
126.305
126.4
126.489
126.584
126.704
126.757
130.746
124.568
124.324
124.747
124.852
124.801
124.739
124.701
124.684
124.684
124.695
124.715
124.739
124.769
124.802
124.84
124.88
124.925
124.973
125.024
125.079
125.138
125.201
125.268
125.34
125.413
125.495
125.576
125.668
125.756
125.858
125.955
126.055
126.183
126.24
129.997
123.88
123.603
123.985
124.068
124.01
123.947
123.912
123.9
123.907
123.923
123.949
123.979
124.015
124.054
124.098
124.144
124.195
124.249
124.307
124.368
124.434
124.504
124.577
124.656
124.737
124.826
124.914
125.013
125.108
125.215
125.32
125.423
125.56
125.615
129.152
123.104
122.799
123.139
123.199
123.132
123.07
123.041
123.036
123.05
123.074
123.108
123.145
123.188
123.234
123.285
123.337
123.395
123.455
123.52
123.588
123.66
123.737
123.817
123.903
123.991
124.086
124.182
124.287
124.388
124.502
124.613
124.72
124.866
124.921
128.333
122.355
121.978
122.26
122.296
122.222
122.163
122.139
122.14
122.161
122.191
122.23
122.273
122.322
122.372
122.428
122.486
122.55
122.615
122.686
122.759
122.838
122.92
123.007
123.099
123.193
123.295
123.396
123.507
123.615
123.733
123.851
123.961
124.115
124.168
127.304
121.401
120.996
121.234
121.245
121.165
121.112
121.098
121.111
121.143
121.183
121.232
121.284
121.341
121.399
121.462
121.527
121.597
121.669
121.747
121.827
121.912
122.001
122.095
122.193
122.294
122.402
122.51
122.627
122.741
122.865
122.989
123.103
123.265
123.316
126.312
120.489
119.958
120.117
120.1
120.017
119.97
119.966
119.988
120.028
120.076
120.131
120.189
120.252
120.316
120.385
120.456
120.532
120.61
120.694
120.78
120.872
120.967
121.067
121.171
121.279
121.393
121.507
121.631
121.751
121.88
122.012
122.128
122.299
122.347
125.004
119.264
118.671
118.778
118.737
118.653
118.621
118.634
118.674
118.729
118.791
118.859
118.928
119
119.074
119.151
119.23
119.314
119.399
119.49
119.584
119.683
119.785
119.893
120.004
120.119
120.24
120.361
120.491
120.619
120.754
120.892
121.012
121.193
121.237
123.705
118.045
117.265
117.276
117.207
117.129
117.114
117.143
117.198
117.266
117.34
117.417
117.495
117.576
117.657
117.742
117.828
117.919
118.012
118.11
118.21
118.317
118.426
118.54
118.659
118.781
118.909
119.037
119.174
119.308
119.45
119.595
119.719
119.911
119.949
122.019
116.445
115.512
115.453
115.364
115.3
115.313
115.37
115.45
115.539
115.631
115.723
115.814
115.905
115.997
116.091
116.185
116.284
116.385
116.49
116.598
116.712
116.828
116.95
117.076
117.206
117.341
117.477
117.62
117.762
117.91
118.064
118.193
118.396
118.429
120.107
114.604
113.423
113.275
113.175
113.137
113.184
113.274
113.38
113.491
113.601
113.707
113.81
113.912
114.012
114.114
114.216
114.321
114.428
114.54
114.654
114.774
114.898
115.026
115.159
115.296
115.439
115.583
115.734
115.884
116.04
116.201
116.337
116.551
116.58
117.825
112.372
110.841
110.583
110.476
110.478
110.574
110.704
110.84
110.973
111.097
111.214
111.324
111.431
111.536
111.641
111.747
111.856
111.967
112.083
112.204
112.33
112.46
112.597
112.738
112.884
113.036
113.19
113.352
113.513
113.68
113.853
114.002
114.232
114.267
114.184
108.832
107.096
106.874
106.837
106.924
107.089
107.27
107.438
107.594
107.729
107.854
107.967
108.078
108.185
108.295
108.407
108.524
108.645
108.773
108.907
109.048
109.194
109.348
109.507
109.672
109.843
110.016
110.198
110.378
110.566
110.756
110.927
111.17
111.222
108.727
103.939
101.682
101.432
101.489
101.683
101.915
102.133
102.311
102.477
102.619
102.762
102.894
103.035
103.17
103.318
103.463
103.622
103.779
103.948
104.119
104.299
104.483
104.674
104.87
105.071
105.277
105.486
105.701
105.915
106.136
106.358
106.567
106.838
106.958
94.0524
94.1822
91.37
90.7408
90.7686
91.0937
91.5099
91.9155
92.2897
92.6441
92.9654
93.2725
93.5506
93.8221
94.0707
94.32
94.5542
94.7952
95.0257
95.2627
95.49
95.7261
95.9581
96.2001
96.4403
96.6888
96.9365
97.1897
97.4442
97.6978
97.96
98.1991
98.4827
98.6424
98.9439
11.5219
10.7696
11.096
11.221
11.3
11.3517
11.4004
11.4365
11.4738
11.5059
11.5484
11.5796
11.6227
11.6542
11.7001
11.7339
11.7839
11.8208
11.8755
11.9159
11.9754
12.0189
12.0839
12.1297
12.2009
12.247
12.3262
12.3689
12.4593
12.4923
12.5997
12.6124
12.7458
12.7194
12.8829
79.3735
76.7492
76.2134
76.3798
76.5395
76.5868
76.5787
76.5549
76.5314
76.512
76.4977
76.487
76.4803
76.4757
76.4744
76.4737
76.4766
76.4784
76.4849
76.4886
76.4984
76.5039
76.5172
76.5248
76.5414
76.5521
76.5719
76.5869
76.6097
76.6312
76.6564
76.6874
76.7152
76.7571
76.7969
79.1305
76.5263
75.9807
76.1314
76.2814
76.3232
76.3121
76.2863
76.2623
76.2425
76.229
76.2188
76.214
76.2104
76.2117
76.2125
76.2183
76.2222
76.2318
76.2382
76.2513
76.26
76.277
76.2878
76.3093
76.3219
76.3493
76.3633
76.3981
76.4127
76.4565
76.4726
76.5214
76.5477
76.5892
78.8429
76.2491
75.6995
75.841
75.9839
76.0211
76.0075
75.9804
75.9562
75.937
75.9249
75.9164
75.9139
75.9125
75.9168
75.9203
75.9296
75.9366
75.9503
75.9602
75.9778
75.9905
76.0124
76.0276
76.0544
76.0722
76.1046
76.1249
76.1644
76.1867
76.2345
76.2599
76.3132
76.3494
76.4011
78.4941
75.9018
75.3598
75.5004
75.6382
75.6706
75.654
75.6256
75.6017
75.5837
75.5737
75.5677
75.5681
75.5701
75.5776
75.5849
75.5976
75.609
75.6261
75.6407
75.6622
75.6797
75.7059
75.7261
75.7577
75.7803
75.8183
75.8427
75.8886
75.9143
75.9685
75.9973
76.0542
76.0962
76.143
78.1501
75.5902
75.0361
75.1538
75.276
75.3
75.2786
75.248
75.2231
75.2053
75.196
75.1913
75.1934
75.1974
75.2071
75.2168
75.2322
75.2463
75.2665
75.2843
75.3092
75.3304
75.3602
75.3847
75.4201
75.4472
75.4894
75.5186
75.5688
75.5992
75.6587
75.6908
75.756
75.7968
75.8603
77.7112
75.162
74.6156
74.7272
74.8399
74.8565
74.8309
74.7988
74.7743
74.7583
74.7515
74.7499
74.7553
74.7628
74.7762
74.7895
74.8091
74.8266
74.8516
74.8725
74.9029
74.9268
74.9629
74.9896
75.032
75.0611
75.1106
75.1416
75.1991
75.2317
75.2971
75.333
75.4005
75.4485
75.5084
77.2391
74.7181
74.1676
74.2598
74.3559
74.362
74.331
74.2969
74.2725
74.2578
74.2531
74.2542
74.2624
74.273
74.2896
74.3063
74.329
74.3502
74.3784
74.4035
74.437
74.4655
74.5048
74.5365
74.582
74.6164
74.6692
74.7055
74.7665
74.8038
74.8735
74.9129
74.986
75.035
75.1036
76.6973
74.2067
73.6529
73.7238
73.8012
73.7956
73.7588
73.723
73.6991
73.6864
73.6844
73.6887
73.7002
73.7143
73.7343
73.7545
73.7809
73.8057
73.8377
73.8664
73.9041
73.9363
73.98
74.0153
74.0656
74.1035
74.1612
74.201
74.267
74.3078
74.3818
74.425
74.5012
74.5545
74.6245
76.0999
73.6406
73.0851
73.1342
73.191
73.1723
73.1295
73.0925
73.0702
73.0606
73.0623
73.0707
73.0863
73.1045
73.1284
73.1527
73.1829
73.2116
73.2475
73.2801
73.3217
73.3579
73.4057
73.445
73.4995
73.5415
73.6035
73.6472
73.7175
73.762
73.8403
73.8869
73.9669
74.0235
74.0967
75.4988
73.0835
72.509
72.5232
72.5547
72.5222
72.4742
72.4367
72.416
72.4094
72.4144
72.4263
72.4453
72.467
72.4944
72.5221
72.5556
72.5878
72.627
72.6631
72.7082
72.7479
72.7994
72.8423
72.9006
72.9462
73.0122
73.0593
73.1337
73.1814
73.2636
73.3135
73.3965
73.4566
73.5318
74.7877
72.4069
71.8275
71.8171
71.8252
71.7785
71.7255
71.6887
71.6717
71.6701
71.6805
71.6978
71.7219
71.7487
71.7806
71.8129
71.8507
71.8871
71.9305
71.9707
72.0199
72.0637
72.1192
72.1662
72.2287
72.2781
72.3483
72.3992
72.4778
72.5291
72.6153
72.6688
72.755
72.819
72.8959
74.0535
71.7341
71.1101
71.0453
71.0185
70.9556
70.8985
70.8634
70.8503
70.8535
70.8688
70.891
70.9195
70.9506
70.9866
71.0229
71.0645
71.1049
71.152
71.1961
71.2491
71.2968
71.3562
71.4071
71.4736
71.527
71.6014
71.656
71.7389
71.7938
71.8841
71.9411
72.0305
72.0987
72.1768
73.1494
70.8786
70.2307
70.1295
70.0732
69.9955
69.9359
69.905
69.8988
69.9099
69.9328
69.9624
69.9976
70.0351
70.0767
70.1186
70.1653
70.2108
70.2626
70.3116
70.3691
70.4214
70.4855
70.5408
70.612
70.6696
70.7487
70.8074
70.8951
70.9538
71.0488
71.1096
71.2026
71.2757
71.3548
72.1923
69.9974
69.2694
69.0937
68.9938
68.8996
68.8397
68.8148
68.8168
68.8364
68.8672
68.9042
68.9459
68.9895
69.0367
69.084
69.1355
69.1859
69.2423
69.2959
69.3579
69.4147
69.4832
69.543
69.6188
69.6807
69.7647
69.8274
69.9201
69.9825
70.0825
70.1473
70.244
70.3223
70.4018
71.0025
68.881
68.0803
67.8421
67.7033
67.5955
67.539
67.5243
67.5384
67.5698
67.6113
67.6578
67.7079
67.7591
67.8128
67.8665
67.9236
67.9796
68.0409
68.0997
68.1665
68.2282
68.3015
68.366
68.4468
68.5133
68.6025
68.6695
68.7678
68.8342
68.9399
69.0087
69.1105
69.1947
69.2759
69.6099
67.5791
66.6556
66.3306
66.1469
66.0288
65.9802
65.9793
66.0078
66.0527
66.1058
66.1624
66.2208
66.2795
66.3394
66.399
66.461
66.5221
66.5878
66.6515
66.7225
66.7892
66.8669
66.9363
67.0219
67.0933
67.1878
67.2596
67.3638
67.4347
67.5471
67.6201
67.7281
67.8178
67.9014
67.9186
65.9889
64.882
64.4394
64.1988
64.0705
64.034
64.0507
64.096
64.1548
64.2189
64.2842
64.3495
64.4139
64.4786
64.5428
64.6087
64.6743
64.7437
64.8122
64.8872
64.9594
65.0417
65.1173
65.2082
65.2863
65.3872
65.4659
65.5776
65.6552
65.7765
65.8557
65.9744
66.0716
66.1665
65.3965
63.5126
62.2588
61.7692
61.5195
61.4089
61.3991
61.4406
61.5059
61.5803
61.656
61.7298
61.8016
61.8714
61.9412
62.0106
62.0823
62.1547
62.2313
62.3088
62.3925
62.4755
62.5677
62.6558
62.7578
62.8494
62.962
63.0546
63.179
63.27
63.4054
63.4959
63.6312
63.7361
63.8479
61.5623
60.0531
58.4392
57.7748
57.4766
57.38
57.4012
57.4698
57.5578
57.6508
57.7466
57.8406
57.937
58.0316
58.1302
58.2276
58.33
58.4314
58.5385
58.6447
58.7572
58.8685
58.9871
59.103
59.2284
59.3476
59.481
59.601
59.744
59.8614
60.015
60.1291
60.2878
60.4109
60.5652
52.9315
55.1642
53.2042
51.9869
51.3896
51.1882
51.2127
51.3256
51.4868
51.6573
51.8416
52.0155
52.1952
52.3583
52.5274
52.6787
52.8391
52.9822
53.1365
53.2728
53.4205
53.5526
53.6974
53.8305
53.9751
54.1117
54.2572
54.3965
54.5454
54.6819
54.8427
54.9582
55.1565
55.2014
55.4671
13.0788
12.358
12.7412
12.8832
12.967
13.0167
13.0622
13.0937
13.1304
13.1572
13.1964
13.2233
13.2647
13.293
13.3384
13.3698
13.4202
13.4553
13.511
13.5498
13.6109
13.653
13.7198
13.7643
13.8377
13.8824
13.9639
14.0049
14.0979
14.1288
14.2389
14.2497
14.3849
14.3588
14.522
52.7832
51.7579
51.3203
51.2782
51.3466
51.3941
51.408
51.402
51.3891
51.3749
51.3624
51.3514
51.3435
51.3362
51.3327
51.328
51.3282
51.3251
51.3285
51.3264
51.3326
51.3312
51.3396
51.3394
51.3493
51.3508
51.3617
51.3658
51.3768
51.3852
51.3959
51.4088
51.422
51.4361
51.462
52.5868
51.5748
51.1396
51.0913
51.1538
51.196
51.2072
51.1983
51.1849
51.1689
51.1573
51.1453
51.139
51.1314
51.1299
51.1255
51.1279
51.1256
51.1313
51.1303
51.1389
51.1389
51.1504
51.1508
51.1657
51.1658
51.185
51.1838
51.2086
51.2054
51.2365
51.2318
51.2665
51.2637
51.3
52.3671
51.3604
50.9262
50.8741
50.9322
50.9705
50.9788
50.9679
50.9532
50.9365
50.925
50.913
50.9079
50.9006
50.901
50.8972
50.9019
50.9005
50.9087
50.9092
50.9203
50.9221
50.9363
50.9389
50.9565
50.9594
50.9811
50.9837
51.0104
51.0119
51.0449
51.0452
51.0846
51.0831
51.1347
52.1144
51.1047
50.6739
50.6226
50.6789
50.714
50.7196
50.7063
50.6907
50.6733
50.6623
50.651
50.647
50.6414
50.6432
50.6417
50.6478
50.6494
50.659
50.6626
50.6757
50.6805
50.6972
50.7027
50.7234
50.7289
50.7545
50.759
50.7906
50.7937
50.831
50.8344
50.8735
50.8817
50.9197
51.844
50.8526
50.4247
50.3646
50.4107
50.4379
50.4382
50.4215
50.4039
50.3854
50.3741
50.363
50.3597
50.3548
50.3577
50.3574
50.365
50.3679
50.3793
50.3846
50.3995
50.4064
50.425
50.4329
50.4557
50.4637
50.4917
50.4987
50.5333
50.5382
50.5803
50.5828
50.6318
50.6322
50.6913
51.5236
50.5345
50.1128
50.0522
50.0935
50.1153
50.1108
50.0912
50.0718
50.0531
50.0418
50.0318
50.0296
50.0264
50.0312
50.0325
50.0429
50.0469
50.062
50.0677
50.0874
50.0941
50.1183
50.1256
50.1545
50.1618
50.1961
50.2027
50.2431
50.2486
50.2947
50.3004
50.3493
50.3577
50.4095
51.1696
50.1936
49.7765
49.7091
49.7402
49.753
49.7423
49.7187
49.6974
49.6778
49.6669
49.6575
49.6566
49.6548
49.6613
49.6644
49.6763
49.6827
49.6992
49.7078
49.7286
49.7386
49.7639
49.7747
49.8049
49.8157
49.8516
49.8614
49.9041
49.9119
49.9619
49.968
50.0232
50.0287
50.091
50.7657
49.8042
49.3929
49.318
49.3373
49.3397
49.3217
49.2939
49.2704
49.2504
49.2397
49.2315
49.2321
49.232
49.2403
49.2454
49.2595
49.2678
49.2869
49.2973
49.3209
49.3327
49.3611
49.3736
49.4073
49.4197
49.4593
49.4707
49.5171
49.5267
49.5799
49.5882
49.6459
49.6541
49.7177
50.3251
49.3784
48.9731
48.8904
48.8966
48.8874
48.8612
48.829
48.8034
48.7832
48.7734
48.7667
48.7691
48.7711
48.7816
48.7888
48.8052
48.8158
48.8371
48.8498
48.8759
48.89
48.9209
48.9357
48.9721
48.9867
49.0293
49.0427
49.0924
49.1037
49.1605
49.1702
49.2315
49.2407
49.3082
49.8716
48.9497
48.5449
48.4466
48.4346
48.4115
48.3768
48.3405
48.3134
48.2935
48.2847
48.2798
48.2839
48.2881
48.3006
48.31
48.3285
48.3412
48.3647
48.3796
48.4079
48.4241
48.4575
48.4744
48.5134
48.53
48.5754
48.5908
48.6434
48.6565
48.7164
48.7278
48.792
48.8027
48.8729
49.3498
48.4479
48.0479
47.9395
47.9116
47.8746
47.8309
47.7902
47.7615
47.7422
47.7349
47.7322
47.7388
47.7456
47.7606
47.7727
47.7937
47.8089
47.8349
47.8523
47.8832
47.9018
47.9379
47.9571
47.9989
48.0178
48.0662
48.0836
48.1395
48.1545
48.2176
48.2308
48.298
48.3105
48.3833
48.7893
47.9266
47.5169
47.3802
47.3246
47.2688
47.2153
47.171
47.1419
47.1242
47.1192
47.1195
47.1288
47.1386
47.1563
47.1713
47.1948
47.2128
47.2413
47.2612
47.2947
47.3158
47.3546
47.3761
47.4208
47.442
47.4935
47.513
47.5721
47.5891
47.6555
47.6706
47.7408
47.7553
47.8305
48.1201
47.293
46.8806
46.7253
46.6467
46.5732
46.5096
46.4614
46.4318
46.4162
46.4138
46.4176
46.4302
46.4436
46.4646
46.4829
46.5096
46.5308
46.5623
46.5852
46.6217
46.6456
46.6875
46.7118
46.7598
46.7834
46.8384
46.8602
46.9229
46.942
47.0121
47.0292
47.1027
47.1196
47.1975
47.384
46.6132
46.1743
45.9756
45.8588
45.7621
45.6882
45.638
45.6101
45.5984
45.6003
45.6089
45.6256
45.6434
45.668
45.6903
45.7201
45.7447
45.7793
45.8053
45.8448
45.8716
45.9166
45.9435
45.9948
46.0209
46.0795
46.1035
46.1702
46.1912
46.2655
46.2845
46.3617
46.3809
46.4614
46.4841
45.7767
45.3134
45.0764
44.9236
44.8041
44.72
44.6679
44.642
44.6347
44.6411
44.6548
44.6757
44.6982
44.7263
44.7527
44.7857
44.8141
44.8516
44.881
44.9235
44.9535
45.0017
45.0316
45.0865
45.1152
45.1779
45.2041
45.2754
45.2984
45.3775
45.3985
45.4805
45.5023
45.587
45.4148
44.7866
44.275
43.9805
43.7816
43.6367
43.5436
43.4914
43.4691
43.4672
43.4786
43.4977
43.5227
43.5499
43.5812
43.6116
43.6472
43.6793
43.7192
43.7524
43.7973
43.8311
43.8821
43.9156
43.9739
44.006
44.0727
44.102
44.1781
44.2036
44.2884
44.3115
44.3994
44.4233
44.5134
44.1
43.5679
42.9759
42.5983
42.3372
42.1594
42.0547
42.0009
41.9816
41.9839
41.9997
42.0232
42.0519
42.0831
42.1175
42.1522
42.1905
42.2273
42.2698
42.3081
42.3558
42.395
42.449
42.4882
42.5501
42.5879
42.6591
42.6938
42.7755
42.8057
42.8975
42.9245
43.0211
43.0487
43.15
42.3715
41.8215
41.1163
40.6655
40.3557
40.1517
40.039
39.9835
39.9685
39.9748
39.9974
40.0259
40.0613
40.0978
40.1386
40.1791
40.2237
40.2674
40.3161
40.3627
40.4166
40.4654
40.5257
40.5757
40.6438
40.693
40.7707
40.8169
40.9058
40.9465
41.0471
41.0825
41.1904
41.2231
41.3382
39.7933
39.442
38.4703
37.8254
37.4174
37.1809
37.0766
37.0385
37.051
37.079
37.1296
37.1784
37.2413
37.2974
37.3649
37.4246
37.4946
37.557
37.6287
37.6937
37.7673
37.8346
37.9107
37.9797
38.0596
38.1288
38.2144
38.2815
38.3754
38.4372
38.5417
38.5964
38.7113
38.7606
38.8913
35.627
38.2627
37.0517
35.8411
35.0303
34.5622
34.3387
34.2392
34.229
34.2503
34.3131
34.375
34.4633
34.5374
34.6337
34.7094
34.8065
34.8803
34.9754
35.0464
35.1373
35.2063
35.2932
35.363
35.447
35.5192
35.6014
35.6756
35.7593
35.8304
35.9245
35.9783
36.1023
36.1136
36.2847
14.3883
13.784
14.2555
14.4353
14.5281
14.5733
14.6111
14.6325
14.6628
14.6809
14.7141
14.7339
14.7716
14.7945
14.8378
14.8648
14.9143
14.9458
15.0015
15.0373
15.099
15.1385
15.2063
15.2484
15.3232
15.3655
15.4487
15.4874
15.5822
15.6112
15.7225
15.7326
15.8675
15.8446
16.0034
37.6296
37.2291
36.9732
36.8768
36.8772
36.8995
36.9144
36.9171
36.9125
36.904
36.8952
36.8857
36.8786
36.8706
36.8665
36.8598
36.8589
36.853
36.8548
36.8493
36.8534
36.8483
36.8538
36.8495
36.8557
36.8525
36.8587
36.8571
36.8626
36.8632
36.8685
36.8696