/*--------------------------------*- C++ -*----------------------------------*\
  =========                 |
  \\      /  F ield         | OpenFOAM: The Open Source CFD Toolbox
   \\    /   O peration     | Website:  https://openfoam.org
    \\  /    A nd           | Version:  6
     \\/     M anipulation  |
\*---------------------------------------------------------------------------*/
FoamFile
{
    version     2.0;
    format      ascii;
    class       volScalarField;
    location    "37";
    object      omega;
}
// * * * * * * * * * * * * * * * * * * * * * * * * * * * * * * * * * * * * * //

dimensions      [0 0 -1 0 0 0 0];

internalField   nonuniform List<scalar> 
380496
(
843.917
843.917
843.917
843.917
843.917
843.917
843.917
843.917
843.917
843.917
843.917
843.917
843.917
843.917
843.917
843.917
843.917
843.917
843.917
843.917
843.917
843.917
843.917
843.917
843.917
843.917
843.917
843.917
843.917
843.917
843.917
843.917
843.917
843.917
843.917
843.917
843.917
843.917
843.917
843.917
843.917
843.917
843.917
843.917
843.917
843.917
843.917
843.917
843.917
843.917
843.917
843.917
843.917
843.917
843.917
843.917
843.917
843.917
843.917
843.917
843.917
843.917
843.917
843.917
843.917
843.917
843.917
843.917
843.917
843.917
843.917
843.917
843.917
843.917
843.917
843.917
843.917
843.917
843.917
843.917
843.917
843.917
843.917
843.917
843.917
843.917
843.917
843.917
843.917
843.917
843.917
843.917
843.917
843.917
843.917
843.917
843.917
843.917
843.917
843.917
843.917
843.917
843.917
843.917
843.917
843.917
843.917
843.917
843.917
843.917
843.917
843.917
843.917
843.917
843.917
843.917
843.917
843.917
843.917
843.917
843.917
843.917
843.917
843.917
843.917
843.917
843.917
843.917
843.917
843.917
843.917
843.917
843.917
843.917
843.917
843.917
843.917
843.917
843.917
843.917
843.917
843.917
843.917
843.917
843.917
843.917
843.917
843.917
843.917
843.917
843.917
843.917
843.917
843.917
843.917
843.917
843.917
843.917
843.917
843.917
843.917
843.917
843.917
843.917
843.917
843.917
843.917
843.917
843.917
843.917
843.917
843.917
843.917
843.917
843.917
843.917
843.917
843.917
843.917
843.917
843.917
843.917
843.917
843.917
843.917
843.917
843.917
843.917
843.917
843.917
843.917
843.917
843.917
843.917
843.917
843.917
843.917
843.917
843.917
843.917
843.917
843.917
843.917
843.917
843.917
843.917
843.917
843.917
843.917
843.917
843.917
843.917
843.917
843.917
843.917
843.917
843.917
843.917
843.917
843.917
843.917
843.917
843.917
843.917
843.917
843.917
843.917
843.917
843.917
843.917
843.917
843.917
843.917
843.917
843.917
843.917
843.917
843.917
843.917
843.917
843.917
843.917
843.917
843.917
843.917
843.917
843.917
843.917
843.917
843.917
843.917
843.917
843.917
843.917
843.917
843.917
843.917
843.917
843.917
843.917
843.917
843.917
843.917
843.917
843.917
843.917
843.917
843.917
843.917
843.917
843.917
843.917
843.917
843.917
843.917
843.917
843.917
843.917
843.917
843.917
843.917
843.917
843.917
843.917
843.917
843.917
843.917
843.917
843.917
843.917
843.917
843.917
843.917
843.917
843.917
843.917
843.917
843.917
843.917
843.917
843.917
843.917
843.917
843.917
843.917
843.917
843.917
843.917
843.917
843.917
843.917
843.917
843.917
843.917
843.917
843.917
843.917
843.917
843.917
843.917
843.917
843.917
843.917
843.917
843.917
843.917
843.917
843.917
843.917
843.917
843.917
843.917
843.917
843.917
843.917
843.917
843.917
843.917
843.917
843.917
843.917
843.917
843.917
843.917
843.917
843.917
843.917
843.917
843.917
843.917
843.917
843.917
843.917
843.917
843.917
843.917
843.917
843.917
843.917
843.917
843.917
843.917
843.917
843.917
843.917
843.917
843.917
843.917
843.917
843.917
843.917
843.917
843.917
843.917
843.917
843.917
843.917
843.917
843.917
843.917
843.917
843.917
843.917
843.917
843.917
843.917
843.917
843.917
843.917
843.917
843.917
843.917
843.917
843.917
843.917
843.917
843.917
843.917
843.917
843.917
843.917
843.917
843.917
843.917
843.917
843.917
843.917
843.917
843.917
843.917
843.917
843.917
843.917
843.917
843.917
843.917
843.917
843.917
843.917
843.917
843.917
843.917
843.917
843.917
843.917
843.917
843.917
843.917
843.917
843.917
843.917
843.917
843.917
843.917
843.917
843.917
843.917
843.917
843.917
843.917
843.917
843.917
843.917
843.917
843.917
843.917
843.917
843.917
843.917
843.917
843.917
843.917
843.917
843.917
843.917
843.917
843.917
843.917
843.917
843.917
843.917
843.917
843.917
843.917
843.917
843.917
843.917
843.917
843.917
843.917
843.917
843.917
843.917
843.917
843.917
843.917
843.917
843.917
843.917
843.917
843.917
843.917
843.917
843.917
843.917
843.917
843.917
843.917
843.917
843.917
843.917
843.917
843.917
843.917
843.917
843.917
843.917
843.917
843.917
843.917
843.917
843.917
843.917
843.917
843.917
843.917
843.917
843.917
843.917
843.917
843.917
843.917
843.917
843.917
843.917
843.917
843.917
843.917
843.917
843.917
843.917
843.917
843.917
843.917
843.917
843.917
843.917
843.917
843.917
843.917
843.917
843.917
843.917
843.917
843.917
843.917
843.917
843.917
843.917
843.917
843.917
843.917
843.917
843.917
843.917
843.917
843.917
843.917
843.917
843.917
843.917
843.917
843.917
843.917
843.917
843.917
843.917
843.917
843.917
843.917
843.917
843.917
843.917
843.917
843.917
843.917
843.917
843.917
843.917
843.917
843.917
843.917
843.917
843.917
843.917
843.917
843.917
843.917
843.917
843.917
843.917
843.917
843.917
843.917
843.917
843.917
843.917
843.917
843.917
843.917
843.917
843.917
843.917
843.917
843.917
843.917
843.917
843.917
843.917
843.917
843.917
843.917
843.917
843.917
843.917
843.917
843.917
843.917
843.917
843.917
843.917
843.917
843.917
843.917
843.917
843.917
843.917
843.917
843.917
843.917
843.917
843.917
843.917
843.917
843.917
843.917
843.917
843.917
843.917
843.917
843.917
843.917
843.917
843.917
843.917
843.917
843.917
843.917
843.917
843.917
843.917
843.917
843.917
843.917
843.917
843.917
843.917
843.917
843.917
843.917
843.917
843.917
843.917
843.917
843.917
843.917
843.917
843.917
843.917
843.917
843.917
843.917
843.917
843.917
843.917
843.917
843.917
843.917
843.917
843.917
843.917
843.917
843.917
843.917
843.917
843.917
843.917
843.917
843.917
843.917
843.917
843.917
843.917
843.917
843.917
843.917
843.917
843.917
843.917
843.917
843.917
843.917
843.917
843.917
843.917
843.917
843.917
843.917
843.917
843.917
423.923
423.923
423.923
423.923
423.923
423.923
423.923
423.923
423.923
423.923
423.923
423.923
423.923
423.923
423.923
423.923
423.923
423.923
423.923
423.923
423.923
423.923
423.923
423.923
423.923
423.923
423.923
423.923
423.923
423.923
423.923
423.923
423.923
423.923
423.923
281.629
267.586
268.728
269.813
269.915
269.761
269.655
269.591
269.561
269.539
269.532
269.524
269.528
269.53
269.54
269.55
269.564
269.58
269.598
269.62
269.642
269.668
269.695
269.727
269.757
269.796
269.828
269.876
269.911
269.966
270.001
270.065
270.095
270.173
270.176
281.466
267.571
268.65
269.689
269.764
269.607
269.494
269.432
269.397
269.38
269.368
269.37
269.37
269.383
269.389
269.412
269.423
269.453
269.468
269.504
269.524
269.567
269.591
269.64
269.668
269.726
269.757
269.824
269.855
269.932
269.96
270.048
270.053
270.178
270.067
281.132
267.396
268.476
269.481
269.531
269.366
269.248
269.188
269.153
269.141
269.133
269.142
269.147
269.169
269.182
269.213
269.232
269.273
269.297
269.347
269.376
269.434
269.469
269.536
269.575
269.652
269.695
269.783
269.828
269.926
269.969
270.082
270.103
270.257
270.172
280.564
267.017
268.178
269.157
269.173
268.994
268.872
268.814
268.782
268.776
268.775
268.791
268.804
268.836
268.858
268.9
268.929
268.981
269.017
269.079
269.12
269.192
269.238
269.321
269.373
269.467
269.523
269.63
269.688
269.806
269.861
269.996
270.026
270.21
270.12
280.147
266.781
267.831
268.741
268.736
268.553
268.431
268.373
268.343
268.341
268.345
268.368
268.388
268.427
268.457
268.509
268.548
268.611
268.657
268.732
268.786
268.872
268.933
269.032
269.099
269.21
269.283
269.407
269.484
269.622
269.696
269.853
269.901
270.115
270.036
279.34
266.189
267.276
268.14
268.103
267.909
267.787
267.734
267.713
267.72
267.735
267.768
267.801
267.851
267.895
267.959
268.012
268.088
268.149
268.238
268.307
268.41
268.486
268.602
268.686
268.816
268.906
269.05
269.144
269.304
269.395
269.576
269.639
269.884
269.808
278.499
265.571
266.595
267.389
267.323
267.122
267.002
266.953
266.94
266.955
266.98
267.024
267.068
267.13
267.186
267.262
267.329
267.419
267.494
267.598
267.683
267.801
267.895
268.028
268.13
268.279
268.388
268.552
268.665
268.846
268.957
269.161
269.243
269.518
269.45
277.443
264.752
265.71
266.428
266.333
266.127
266.012
265.97
265.967
265.993
266.03
266.086
266.143
266.217
266.287
266.376
266.457
266.561
266.652
266.771
266.872
267.007
267.118
267.269
267.388
267.556
267.683
267.867
267.999
268.2
268.33
268.558
268.656
268.961
268.897
276.189
263.733
264.632
265.271
265.144
264.935
264.828
264.798
264.81
264.851
264.904
264.973
265.046
265.134
265.219
265.322
265.419
265.538
265.645
265.779
265.897
266.048
266.177
266.345
266.483
266.668
266.814
267.017
267.167
267.389
267.537
267.786
267.901
268.233
268.174
274.955
262.704
263.454
264.003
263.856
263.648
263.549
263.529
263.552
263.603
263.667
263.748
263.832
263.931
264.029
264.144
264.254
264.385
264.507
264.655
264.787
264.953
265.097
265.28
265.434
265.636
265.798
266.018
266.185
266.424
266.589
266.857
266.986
267.342
267.285
273.277
261.26
261.958
262.429
262.253
262.049
261.969
261.97
262.016
262.088
262.173
262.272
262.374
262.489
262.604
262.735
262.861
263.007
263.145
263.308
263.457
263.639
263.799
263.999
264.17
264.389
264.568
264.805
264.989
265.246
265.427
265.713
265.857
266.236
266.181
271.661
259.851
260.317
260.682
260.491
260.297
260.23
260.244
260.302
260.386
260.483
260.593
260.708
260.835
260.962
261.104
261.244
261.402
261.554
261.731
261.895
262.09
262.267
262.482
262.669
262.903
263.099
263.352
263.553
263.826
264.023
264.326
264.484
264.884
264.83
269.373
257.805
258.191
258.478
258.268
258.094
258.06
258.108
258.197
258.309
258.432
258.564
258.701
258.846
258.993
259.152
259.31
259.484
259.654
259.846
260.029
260.24
260.435
260.666
260.871
261.122
261.336
261.606
261.824
262.115
262.328
262.649
262.82
263.241
263.189
267.102
255.736
255.829
256.008
255.792
255.64
255.63
255.699
255.809
255.938
256.079
256.227
256.379
256.539
256.701
256.873
257.047
257.235
257.421
257.627
257.827
258.053
258.265
258.511
258.735
259.001
259.233
259.519
259.755
260.062
260.291
260.629
260.814
261.256
261.204
264.032
252.899
252.819
252.922
252.708
252.599
252.638
252.752
252.9
253.063
253.233
253.407
253.583
253.763
253.946
254.137
254.33
254.536
254.741
254.964
255.183
255.425
255.657
255.92
256.163
256.446
256.697
257.001
257.255
257.578
257.826
258.18
258.381
258.842
258.791
260.551
249.614
249.245
249.274
249.076
249.018
249.106
249.265
249.449
249.647
249.844
250.044
250.241
250.443
250.644
250.853
251.064
251.285
251.509
251.747
251.984
252.241
252.492
252.771
253.033
253.333
253.603
253.923
254.196
254.535
254.801
255.17
255.388
255.866
255.816
256.377
245.608
244.86
244.808
244.639
244.651
244.795
245.005
245.223
245.454
245.673
245.897
246.111
246.331
246.546
246.771
246.995
247.23
247.467
247.72
247.972
248.244
248.512
248.805
249.087
249.4
249.691
250.026
250.32
250.674
250.961
251.346
251.583
252.081
252.038
249.996
239.626
238.829
238.827
238.72
238.827
239.057
239.341
239.614
239.894
240.145
240.402
240.633
240.877
241.103
241.346
241.578
241.831
242.078
242.346
242.612
242.901
243.186
243.498
243.799
244.136
244.448
244.811
245.128
245.514
245.824
246.239
246.505
247.017
247.015
240.798
231.461
230.492
230.658
230.723
230.963
231.263
231.579
231.86
232.137
232.376
232.622
232.84
233.078
233.294
233.539
233.767
234.028
234.275
234.556
234.825
235.129
235.429
235.775
236.113
236.487
236.845
237.241
237.612
238.027
238.396
238.837
239.167
239.695
239.804
214.294
212.127
212.382
213.303
213.928
214.653
215.363
216.024
216.613
217.169
217.67
218.164
218.619
219.083
219.516
219.968
220.393
220.845
221.272
221.73
222.165
222.631
223.076
223.552
224.006
224.488
224.95
225.432
225.898
226.373
226.837
227.293
227.751
228.136
228.764
9.02114
7.66151
7.58812
7.55414
7.60549
7.67605
7.76643
7.85697
7.95691
8.04804
8.14384
8.22816
8.31686
8.39395
8.4769
8.54865
8.62822
8.69656
8.77496
8.8411
8.92019
8.98448
9.06594
9.12748
9.21308
9.26959
9.36189
9.40933
9.51232
9.5437
9.66406
9.66645
9.81586
9.75991
9.95775
135.248
128.879
128.554
129.049
129.246
129.239
129.184
129.132
129.092
129.06
129.037
129.02
129.008
129.001
128.997
128.997
128.999
129.004
129.011
129.021
129.033
129.047
129.063
129.081
129.104
129.127
129.155
129.184
129.22
129.256
129.302
129.347
129.4
129.464
129.523
135.076
128.679
128.314
128.785
128.97
128.958
128.899
128.845
128.803
128.771
128.748
128.733
128.722
128.717
128.716
128.719
128.725
128.733
128.745
128.758
128.775
128.792
128.815
128.836
128.865
128.891
128.928
128.958
129.004
129.039
129.096
129.136
129.196
129.262
129.281
134.794
128.386
128.006
128.462
128.638
128.62
128.559
128.505
128.462
128.433
128.412
128.399
128.392
128.392
128.395
128.402
128.414
128.428
128.446
128.465
128.49
128.514
128.545
128.575
128.613
128.647
128.694
128.733
128.79
128.834
128.902
128.954
129.023
129.106
129.133
134.361
127.975
127.614
128.067
128.232
128.206
128.141
128.086
128.045
128.017
128
127.991
127.989
127.993
128.002
128.015
128.032
128.053
128.077
128.103
128.134
128.166
128.204
128.241
128.287
128.328
128.383
128.429
128.494
128.545
128.621
128.678
128.754
128.841
128.871
134.043
127.65
127.239
127.655
127.803
127.77
127.701
127.643
127.601
127.574
127.558
127.551
127.552
127.559
127.571
127.589
127.61
127.635
127.665
127.697
127.734
127.772
127.816
127.86
127.913
127.962
128.024
128.079
128.151
128.21
128.293
128.36
128.441
128.542
128.574
133.489
127.122
126.722
127.124
127.257
127.215
127.142
127.084
127.044
127.02
127.008
127.007
127.013
127.026
127.045
127.068
127.096
127.128
127.164
127.203
127.247
127.292
127.344
127.396
127.456
127.513
127.582
127.644
127.724
127.791
127.88
127.955
128.041
128.15
128.182
132.924
126.585
126.161
126.531
126.643
126.591
126.513
126.453
126.414
126.392
126.384
126.387
126.398
126.416
126.439
126.469
126.502
126.54
126.582
126.628
126.678
126.73
126.789
126.848
126.915
126.979
127.056
127.126
127.212
127.287
127.383
127.466
127.556
127.677
127.709
132.247
125.942
125.497
125.833
125.922
125.858
125.776
125.715
125.677
125.66
125.655
125.663
125.679
125.703
125.732
125.767
125.807
125.851
125.899
125.951
126.008
126.067
126.133
126.198
126.272
126.344
126.427
126.505
126.598
126.68
126.781
126.872
126.966
127.096
127.126
131.463
125.209
124.748
125.048
125.111
125.034
124.947
124.887
124.853
124.84
124.842
124.857
124.879
124.909
124.945
124.987
125.033
125.084
125.138
125.197
125.261
125.327
125.399
125.472
125.552
125.631
125.721
125.805
125.905
125.994
126.101
126.2
126.297
126.437
126.465
130.701
124.496
123.98
124.227
124.264
124.175
124.084
124.024
123.992
123.983
123.989
124.008
124.035
124.07
124.111
124.158
124.209
124.266
124.326
124.391
124.46
124.532
124.609
124.688
124.775
124.86
124.956
125.046
125.151
125.247
125.358
125.464
125.563
125.713
125.738
129.711
123.569
123.043
123.254
123.263
123.161
123.069
123.012
122.988
122.987
123.001
123.028
123.064
123.107
123.155
123.21
123.268
123.331
123.398
123.47
123.545
123.624
123.708
123.794
123.887
123.979
124.08
124.178
124.289
124.391
124.508
124.62
124.723
124.882
124.903
128.745
122.677
122.061
122.2
122.174
122.06
121.965
121.91
121.889
121.893
121.913
121.945
121.986
122.034
122.088
122.148
122.212
122.281
122.353
122.431
122.512
122.597
122.687
122.779
122.877
122.976
123.084
123.187
123.304
123.412
123.534
123.654
123.759
123.927
123.945
127.449
121.46
120.821
120.916
120.86
120.734
120.642
120.597
120.587
120.602
120.634
120.677
120.728
120.786
120.849
120.917
120.989
121.065
121.145
121.23
121.319
121.411
121.508
121.607
121.713
121.818
121.933
122.044
122.166
122.282
122.409
122.536
122.645
122.823
122.837
126.136
120.247
119.484
119.491
119.395
119.258
119.167
119.127
119.125
119.149
119.189
119.24
119.299
119.364
119.435
119.51
119.589
119.672
119.759
119.851
119.946
120.045
120.149
120.255
120.367
120.48
120.601
120.719
120.849
120.971
121.105
121.239
121.351
121.54
121.549
124.43
118.648
117.81
117.753
117.622
117.478
117.397
117.371
117.385
117.424
117.478
117.542
117.613
117.69
117.77
117.855
117.943
118.035
118.13
118.23
118.333
118.44
118.552
118.666
118.786
118.907
119.036
119.162
119.298
119.429
119.569
119.711
119.827
120.027
120.032
122.481
116.821
115.842
115.699
115.53
115.383
115.311
115.302
115.332
115.387
115.456
115.533
115.616
115.704
115.794
115.888
115.985
116.085
116.188
116.296
116.406
116.521
116.64
116.762
116.89
117.019
117.155
117.289
117.433
117.571
117.718
117.868
117.99
118.2
118.199
120.129
114.623
113.443
113.183
112.967
112.819
112.764
112.775
112.822
112.894
112.975
113.065
113.157
113.253
113.35
113.451
113.554
113.66
113.769
113.883
114
114.122
114.248
114.377
114.512
114.649
114.792
114.935
115.087
115.234
115.389
115.548
115.678
115.901
115.901
116.507
111.184
110.003
109.756
109.537
109.406
109.373
109.407
109.473
109.561
109.653
109.754
109.852
109.956
110.058
110.166
110.275
110.389
110.504
110.626
110.751
110.882
111.017
111.157
111.303
111.452
111.609
111.765
111.933
112.095
112.268
112.441
112.591
112.824
112.844
111.046
106.317
104.832
104.493
104.259
104.151
104.141
104.199
104.28
104.387
104.494
104.616
104.732
104.86
104.984
105.12
105.254
105.399
105.543
105.698
105.853
106.018
106.183
106.356
106.532
106.713
106.898
107.085
107.28
107.471
107.672
107.871
108.058
108.305
108.398
95.7368
95.7796
94.6576
94.3615
94.1471
94.1122
94.2164
94.403
94.6247
94.8718
95.121
95.3792
95.6312
95.889
96.1392
96.3949
96.6435
96.8981
97.1466
97.4014
97.6513
97.9075
98.1602
98.4187
98.6746
98.9352
99.1935
99.4552
99.7142
99.9748
100.233
100.484
100.753
100.956
101.316
11.4418
9.87376
9.83783
9.8809
9.99534
10.1166
10.2504
10.3758
10.5071
10.6239
10.7439
10.8481
10.9564
11.0496
11.1491
11.2344
11.3286
11.4088
11.5007
11.5776
11.6695
11.7437
11.8378
11.9085
12.0069
12.0717
12.1773
12.232
12.3492
12.3864
12.5223
12.5295
12.6949
12.6489
12.8529
79.7825
77.2361
76.6745
76.7673
76.8929
76.9351
76.9259
76.9
76.87
76.8439
76.8204
76.802
76.7863
76.7749
76.7656
76.7596
76.7554
76.7534
76.7532
76.7543
76.7575
76.7612
76.7675
76.7733
76.783
76.7906
76.8044
76.8138
76.8326
76.8445
76.8683
76.8861
76.9131
76.9414
76.9763
79.5949
77.0486
76.4705
76.5482
76.6655
76.7022
76.6901
76.6607
76.6298
76.6014
76.5785
76.5589
76.5452
76.5332
76.5271
76.5207
76.5206
76.5184
76.5231
76.5239
76.5327
76.5358
76.5487
76.5534
76.5708
76.5765
76.5995
76.6055
76.6356
76.6414
76.6795
76.6865
76.7279
76.7445
76.779
79.3539
76.8065
76.2186
76.2872
76.3987
76.431
76.4162
76.3848
76.353
76.3242
76.302
76.2831
76.2711
76.2606
76.2569
76.2526
76.2555
76.2557
76.2643
76.2678
76.2813
76.2872
76.3056
76.3132
76.3368
76.3457
76.3754
76.385
76.422
76.4324
76.4767
76.4912
76.5362
76.5673
76.6
79.0384
76.4929
75.909
75.9769
76.0846
76.1126
76.0944
76.0608
76.0281
75.9995
75.9782
75.9609
75.9509
75.9427
75.9418
75.9404
75.9466
75.95
75.9622
75.9692
75.9867
75.9963
76.0192
76.0305
76.0592
76.0714
76.107
76.1194
76.1629
76.1752
76.2267
76.2415
76.2939
76.3226
76.3634
78.7525
76.2177
75.6164
75.6647
75.7591
75.7789
75.7554
75.7182
75.6831
75.6531
75.6312
75.614
75.6047
75.5976
75.5981
75.5985
75.6067
75.6125
75.6272
75.6369
75.6575
75.6701
75.6964
75.7111
75.7435
75.7596
75.7987
75.8156
75.8625
75.8798
75.9345
75.9551
76.0102
76.0458
76.0894
78.3535
75.824
75.227
75.2713
75.3584
75.3714
75.3429
75.3029
75.2667
75.237
75.2162
75.201
75.1938
75.1896
75.1928
75.1964
75.2077
75.217
75.2351
75.2486
75.2728
75.2893
75.3195
75.3381
75.3747
75.3945
75.4382
75.4585
75.5104
75.5305
75.5903
75.6131
75.673
75.71
75.758
77.928
75.414
74.8115
74.8414
74.915
74.9183
74.8831
74.8392
74.8008
74.7705
74.7499
74.7359
74.7303
74.7282
74.7337
74.74
74.7539
74.7662
74.7873
74.804
74.8314
74.8513
74.885
74.9072
74.9473
74.9708
75.0182
75.0422
75.0977
75.1217
75.1849
75.2118
75.2744
75.316
75.366
77.4333
74.9362
74.3309
74.346
74.4046
74.3967
74.3542
74.306
74.2656
74.2349
74.215
74.2026
74.1989
74.1992
74.2072
74.2164
74.2332
74.2487
74.2728
74.293
74.3236
74.3471
74.3841
74.4099
74.4536
74.4808
74.5317
74.5593
74.6184
74.6459
74.7123
74.7427
74.8077
74.853
74.9042
76.8736
74.4021
73.7986
73.7994
73.8416
73.8208
73.7701
73.7178
73.6757
73.6455
73.627
73.6169
73.6158
73.6192
73.6302
73.6427
73.6626
73.6816
73.7089
73.7326
73.7665
73.7935
73.8339
73.8633
73.9103
73.9411
73.9955
74.0266
74.0891
74.12
74.1895
74.2235
74.2906
74.3401
74.3921
76.3105
73.8741
73.2587
73.2344
73.2555
73.2207
73.1618
73.1052
73.0612
73.0309
73.0132
73.0048
73.0056
73.0115
73.0248
73.0401
73.0626
73.0845
73.1146
73.1412
73.178
73.2081
73.2514
73.2839
73.334
73.3678
73.4253
73.4595
73.525
73.559
73.6313
73.6684
73.7374
73.7905
73.8429
75.627
73.2226
72.614
72.5764
72.5792
72.53
72.4626
72.4024
72.358
72.3293
72.3143
72.3094
72.3137
72.3234
72.3402
72.3594
72.3854
72.411
72.4444
72.4748
72.5148
72.5485
72.5951
72.6311
72.6845
72.7217
72.7826
72.82
72.8889
72.926
73.0013
73.0418
73.1127
73.1698
73.2225
74.9229
72.5722
71.9393
71.8632
71.8362
71.7689
71.6921
71.6276
71.582
71.554
71.5407
71.5381
71.5451
71.5578
71.5776
71.6
71.6289
71.6578
71.6941
71.7278
71.7708
71.8078
71.8575
71.8968
71.9533
71.9939
72.058
72.0987
72.1708
72.2112
72.2895
72.3333
72.4063
72.4675
72.5202
74.0388
71.7343
71.1049
71.0103
70.9603
70.8762
70.791
70.7242
70.6798
70.6552
70.6461
70.6483
70.6599
70.6775
70.7017
70.7286
70.7616
70.7948
70.8349
70.8727
70.9194
70.9604
71.0136
71.0569
71.117
71.1615
71.2292
71.2736
71.3494
71.3933
71.4751
71.5226
71.598
71.6638
71.7167
73.1017
70.8707
70.203
70.0571
69.9689
69.8631
69.7683
69.6984
69.6547
69.6327
69.6273
69.6337
69.6496
69.6716
69.7
69.7313
69.7682
69.8057
69.8495
69.8914
69.9415
69.9867
70.0434
70.0908
70.1546
70.2031
70.2745
70.3229
70.4025
70.4502
70.5356
70.587
70.6649
70.7356
70.7883
71.9317
69.7751
69.0901
68.9086
68.787
68.6611
68.5585
68.4881
68.4478
68.4311
68.4316
68.4441
68.4657
68.4935
68.527
68.5636
68.6051
68.6475
68.6954
68.742
68.796
68.8458
68.9063
68.9582
69.0258
69.0788
69.1543
69.2069
69.2907
69.3425
69.432
69.4875
69.5686
69.6447
69.6978
70.575
68.5116
67.778
67.5407
67.3768
67.2282
67.1174
67.0465
67.0101
66.9988
67.0058
67.0246
67.0524
67.0859
67.1247
67.1663
67.2122
67.2591
67.3108
67.3617
67.4191
67.4733
67.5371
67.5935
67.6645
67.7221
67.8013
67.8584
67.9463
68.0022
68.0961
68.1557
68.2405
68.3215
68.3751
68.9306
66.9869
66.1748
65.8552
65.6333
65.4571
65.3384
65.268
65.2358
65.2292
65.2411
65.2638
65.2953
65.3314
65.3728
65.4164
65.4643
65.5133
65.5669
65.6205
65.6803
65.738
65.8046
65.8653
65.9394
66.0017
66.0845
66.1468
66.239
66.3001
66.3995
66.463
66.5551
66.641
66.7005
66.5753
64.6694
63.85
63.5256
63.2841
63.0926
62.9656
62.89
62.8545
62.8442
62.8534
62.8726
62.9022
62.936
62.9772
63.0206
63.0705
63.1215
63.1789
63.2366
63.3014
63.3649
63.4375
63.5055
63.5872
63.6567
63.7492
63.8183
63.9224
63.9892
64.1027
64.1707
64.2786
64.3676
64.4439
63.0744
61.5353
60.4574
59.9505
59.5974
59.3485
59.1938
59.1063
59.0691
59.0636
59.0835
59.1168
59.1649
59.2187
59.2835
59.3504
59.427
59.5037
59.5896
59.6743
59.7683
59.8598
59.9609
60.0563
60.1624
60.2593
60.3701
60.4664
60.5847
60.6788
60.8066
60.8969
61.0282
61.1268
61.247
55.4844
57.2192
56.1478
55.3579
54.7549
54.3386
54.0943
53.9644
53.9212
53.9258
53.9724
54.0358
54.123
54.2135
54.3208
54.4251
54.5436
54.6555
54.7809
54.8977
55.0279
55.1485
55.2821
55.4063
55.5426
55.6709
55.8086
55.941
56.0793
56.2141
56.3548
56.4827
56.642
56.7346
56.9594
13.0133
11.405
11.4168
11.5442
11.7268
11.8977
12.0695
12.2216
12.3744
12.5063
12.6394
12.7525
12.8695
12.9681
13.0736
13.1622
13.2608
13.3429
13.4381
13.516
13.6107
13.6853
13.7818
13.8526
13.9531
14.0179
14.1255
14.1804
14.2992
14.3377
14.474
14.4857
14.6477
14.6168
14.8063
52.8625
51.8609
51.4542
51.3869
51.4238
51.4576
51.4657
51.4581
51.441
51.4232
51.4046
51.3888
51.3739
51.3621
51.3517
51.3436
51.337
51.3318
51.3283
51.3254
51.3244
51.3231
51.3243
51.324
51.3274
51.3273
51.3334
51.3332
51.3421
51.3425
51.3532
51.3568
51.3679
51.377
51.3917
52.6912
51.6997
51.2903
51.2154
51.2474
51.2764
51.2824
51.2712
51.2534
51.2328
51.2147
51.1967
51.1837
51.17
51.1624
51.1525
51.1497
51.1427
51.1438
51.1388
51.1432
51.1394
51.1468
51.1433
51.1541
51.1499
51.1649
51.1591
51.1792
51.171
51.1968
51.1866
51.2169
51.2046
51.2425
52.4926
51.5061
51.0937
51.0139
51.0423
51.0679
51.0716
51.058
51.039
51.017
50.9987
50.9801
50.9676
50.9539
50.9475
50.938
50.9368
50.9303
50.9337
50.9292
50.9365
50.9332
50.9442
50.9411
50.956
50.9524
50.9717
50.9669
50.9911
50.9852
51.0139
51.009
51.0389
51.0391
51.0705
52.255
51.2693
50.8584
50.7785
50.8059
50.8293
50.8306
50.8148
50.7943
50.7712
50.7526
50.734
50.7221
50.7092
50.7039
50.6956
50.6961
50.6912
50.6966
50.6938
50.7036
50.7019
50.7159
50.7143
50.7329
50.7304
50.7541
50.7499
50.7793
50.7732
50.8079
50.8017
50.8382
50.8348
50.8736
52.0125
51.0411
50.6279
50.5398
50.5589
50.5758
50.5721
50.5526
50.5293
50.5043
50.4843
50.4649
50.4527
50.4398
50.435
50.4272
50.4286
50.4245
50.4312
50.4295
50.4409
50.4406
50.4564
50.4564
50.4769
50.4764
50.5019
50.5001
50.5312
50.528
50.5643
50.5613
50.5997
50.5997
50.6417
51.7113
50.7436
50.3342
50.246
50.2622
50.2751
50.2673
50.2446
50.2189
50.1926
50.172
50.1527
50.1409
50.1289
50.125
50.1186
50.1214
50.119
50.1273
50.1275
50.1409
50.1425
50.1606
50.1625
50.1856
50.1868
50.2154
50.2149
50.2497
50.2472
50.2877
50.2848
50.3277
50.3269
50.3734
51.3809
50.4246
50.0172
49.9244
49.9335
49.9395
49.9258
49.8988
49.87
49.8418
49.8199
49.8004
49.7884
49.7771
49.7738
49.7686
49.7724
49.7714
49.7811
49.7829
49.7979
49.8011
49.8211
49.8247
49.8497
49.8527
49.8834
49.8848
49.9217
49.9211
49.9638
49.9629
50.0079
50.009
50.058
51.0013
50.0569
49.6536
49.5569
49.5582
49.5562
49.5357
49.5038
49.4715
49.4413
49.4182
49.3984
49.3866
49.376
49.3735
49.3696
49.3746
49.3752
49.3865
49.39
49.4067
49.4118
49.4336
49.4391
49.4663
49.471
49.504
49.5071
49.5465
49.5475
49.5927
49.5932
49.6405
49.6428
49.6939
50.5805
49.65
49.254
49.1545
49.1477
49.1368
49.1086
49.0713
49.0353
49.0032
48.9791
48.9594
48.948
48.9384
48.937
48.9345
48.9409
48.9432
48.956
48.9613
48.9797
48.9866
49.0103
49.0175
49.0467
49.0532
49.0883
49.0931
49.1346
49.1373
49.1846
49.1868
49.2361
49.2401
49.2929
50.1474
49.2384
48.8457
48.7377
48.7186
48.6965
48.66
48.6171
48.5774
48.5434
48.5183
48.4986
48.4875
48.4789
48.4785
48.4774
48.485
48.4889
48.5032
48.5101
48.5301
48.5387
48.564
48.5729
48.6039
48.612
48.6491
48.6554
48.699
48.7032
48.7526
48.7563
48.8073
48.8128
48.8672
49.6404
48.7494
48.3681
48.259
48.2312
48.1988
48.1535
48.1047
48.0613
48.0257
48
47.9808
47.9704
47.9632
47.964
47.9648
47.9739
47.9797
47.9956
48.0045
48.0261
48.0366
48.0637
48.0745
48.1073
48.1172
48.1563
48.1643
48.2101
48.2158
48.2674
48.2726
48.3256
48.3326
48.3886
49.0986
48.2403
47.8589
47.7343
47.6875
47.6395
47.5835
47.5283
47.4812
47.444
47.4179
47.3994
47.3899
47.3843
47.3866
47.3892
47.4
47.4078
47.4253
47.4362
47.4595
47.472
47.5009
47.5137
47.5484
47.5602
47.6014
47.6112
47.6592
47.6666
47.7205
47.7273
47.7823
47.791
47.8486
48.442
47.6135
47.2454
47.118
47.059
46.9975
46.9311
46.8693
46.8186
46.7801
46.7538
46.7364
46.7282
46.7246
46.7285
46.7334
46.746
46.7561
46.7754
46.7886
46.8137
46.8284
46.8593
46.8742
46.911
46.9248
46.9683
46.98
47.0305
47.0397
47.0961
47.1047
47.162
47.1725
47.232
47.7238
46.9423
46.5699
46.4196
46.3347
46.2531
46.1742
46.1053
46.0514
46.0122
45.9864
45.9707
45.9643
45.9632
45.9693
45.9769
45.9915
46.0044
46.0257
46.0416
46.0686
46.0859
46.1188
46.1361
46.1751
46.1914
46.2372
46.2511
46.3042
46.3154
46.3745
46.3851
46.4448
46.4573
46.5187
46.8461
46.1177
45.7531
45.5902
45.4838
45.3829
45.2912
45.215
45.1577
45.1177
45.0926
45.0784
45.0738
45.075
45.083
45.0932
45.1096
45.1251
45.148
45.1665
45.1952
45.2151
45.2496
45.2696
45.3105
45.3292
45.3772
45.3934
45.4492
45.4624
45.5244
45.5368
45.5994
45.6139
45.678
45.8228
45.159
44.7869
44.5966
44.4592
44.334
44.2276
44.143
44.0823
44.0412
44.0169
44.0042
44.0016
44.0049
44.0147
44.027
44.0449
44.0626
44.0865
44.1073
44.1369
44.1593
44.1947
44.2173
44.2594
44.2807
44.3305
44.3491
44.4072
44.4224
44.4875
44.5016
44.5674
44.5833
44.6508
44.5801
44.0025
43.6099
43.3746
43.1919
43.0345
42.9101
42.8152
42.7501
42.7058
42.6805
42.6662
42.6628
42.6647
42.6737
42.685
42.7019
42.7192
42.7424
42.7639
42.7931
42.8171
42.8527
42.8779
42.9206
42.945
42.996
43.0181
43.0782
43.0968
43.1652
43.1817
43.2526
43.2707
43.3446
43.0294
42.4147
41.9895
41.7326
41.5219
41.3361
41.1897
41.0749
40.9951
40.9363
40.9007
40.8753
40.8651
40.8592
40.8645
40.8715
40.8875
40.9037
40.928
40.951
40.9825
41.0103
41.0489
41.0795
41.1261
41.1566
41.2126
41.2409
41.307
41.3311
41.4065
41.4276
41.5067
41.5284
41.612
40.8418
40.5279
39.9115
39.467
39.1185
38.8415
38.6406
38.4913
38.3947
38.3259
38.2914
38.2681
38.2684
38.2711
38.2922
38.3111
38.3458
38.3758
38.4198
38.458
38.5091
38.5533
38.6104
38.6591
38.7205
38.77
38.8349
38.8824
38.9531
38.9969
39.0762
39.1147
39.202
39.2367
39.3345
37.8607
40.6887
39.8765
38.924
38.1209
37.5018
37.0619
36.7462
36.5366
36.3872
36.2981
36.234
36.2081
36.1895
36.1988
36.2058
36.2361
36.2588
36.3022
36.335
36.387
36.427
36.4844
36.5305
36.5913
36.6433
36.706
36.7637
36.8275
36.8889
36.957
37.0137
37.0998
37.1331
37.2691
14.2724
12.6891
12.7668
12.9767
13.2258
13.4428
13.6483
13.822
13.9911
14.1324
14.2735
14.3902
14.511
14.61
14.7172
14.8045
14.9034
14.9832
15.078
15.1528
15.2465
15.3176
15.4127
15.4799
15.5786
15.6401
15.7454
15.7978
15.9133
15.9512
16.0822
16.0975
16.2495
16.2316
16.4036
37.6239
37.2102
36.9818
36.889
36.8742
36.8851
36.8924
36.8926
36.8845
36.8741
36.8612
36.8492
36.8371
36.8267
36.8172
36.8089
36.802
36.7957
36.7912
36.7865
36.7839
36.7803
36.7793
36.7761
36.7769
36.7731
36.776
36.7713
36.7758
36.771
36.7759