/*--------------------------------*- C++ -*----------------------------------*\
  =========                 |
  \\      /  F ield         | OpenFOAM: The Open Source CFD Toolbox
   \\    /   O peration     | Website:  https://openfoam.org
    \\  /    A nd           | Version:  6
     \\/     M anipulation  |
\*---------------------------------------------------------------------------*/
FoamFile
{
    version     2.0;
    format      ascii;
    class       volVectorField;
    location    "37";
    object      wallShearStress;
}
// * * * * * * * * * * * * * * * * * * * * * * * * * * * * * * * * * * * * * //

dimensions      [0 2 -2 0 0 0 0];

internalField   uniform (0 0 0);

boundaryField
{
    inlet
    {
        type            calculated;
        value           uniform (0 0 0);
    }
    outlet
    {
        type            calculated;
        value           uniform (0 0 0);
    }
    roughCylinder
    {
        type            calculated;
        value           nonuniform List<vector> 
3840
(
(-9.6893e-05 -0.000124148 -5.4082e-05)
(-0.000211219 -0.000354258 -4.58115e-05)
(-0.000299569 -0.000509318 3.44954e-05)
(-0.000362875 -0.000577224 9.55093e-05)
(-0.000430634 -0.000619705 0.000146802)
(-0.000474803 -0.000615464 0.000178439)
(-0.000513234 -0.00060469 0.000198971)
(-0.000538824 -0.000589308 0.000211193)
(-0.000564049 -0.000583558 0.000221763)
(-0.000580141 -0.000579001 0.000226388)
(-0.000589398 -0.000575268 0.000225155)
(-0.000593925 -0.000572654 0.000219199)
(-0.000598378 -0.000573821 0.000210377)
(-0.000598146 -0.000573204 0.000197487)
(-0.000599599 -0.000575892 0.000183143)
(-0.00058446 -0.000563953 0.000162821)
(-0.00059399 -0.000574943 0.000148229)
(-0.000601063 -0.000583905 0.000131825)
(-0.000620795 -0.000605274 0.000116793)
(-0.000613137 -0.000600389 9.58825e-05)
(-0.000604335 -0.000594703 7.50645e-05)
(-0.000601692 -0.00059379 5.47038e-05)
(-0.000598752 -0.000592759 3.35867e-05)
(-0.000594894 -0.000589967 1.13788e-05)
(-0.000105805 -0.000120857 -5.14585e-05)
(-0.000227273 -0.00034609 -5.2103e-05)
(-0.000320845 -0.000503737 2.59653e-05)
(-0.000387201 -0.000576225 8.74953e-05)
(-0.000457563 -0.000621659 0.000139284)
(-0.000504687 -0.000621501 0.000171868)
(-0.00054693 -0.000615524 0.0001939)
(-0.000574952 -0.000602244 0.000207774)
(-0.000603864 -0.000597745 0.00022026)
(-0.000620062 -0.000590724 0.000225178)
(-0.000632516 -0.000588807 0.00022519)
(-0.000636889 -0.000585468 0.000219303)
(-0.000641259 -0.000586221 0.000210514)
(-0.000641436 -0.000585966 0.000197876)
(-0.000642638 -0.000588412 0.000183522)
(-0.000628031 -0.000577807 0.00016371)
(-0.00063711 -0.000588065 0.000148917)
(-0.000644202 -0.000596774 0.000132476)
(-0.000667654 -0.000620537 0.000117841)
(-0.000659219 -0.000615609 9.68266e-05)
(-0.000653105 -0.000612962 7.62826e-05)
(-0.000651032 -0.000612799 5.57201e-05)
(-0.000649171 -0.000613 3.42997e-05)
(-0.000645439 -0.000610603 1.16356e-05)
(-0.000115312 -0.000115844 -4.6377e-05)
(-0.000242622 -0.000331869 -5.82952e-05)
(-0.000341102 -0.000491 1.63467e-05)
(-0.000411081 -0.000568833 7.81159e-05)
(-0.000484947 -0.000618628 0.000130568)
(-0.000535687 -0.000623658 0.000164551)
(-0.000582038 -0.000622853 0.000188481)
(-0.000615773 -0.000615233 0.000205143)
(-0.000647347 -0.000611525 0.000219029)
(-0.000666138 -0.000603822 0.000224959)
(-0.000676172 -0.00059829 0.00022428)
(-0.00068056 -0.00059429 0.000218569)
(-0.000685024 -0.000594734 0.00020994)
(-0.000686431 -0.000595488 0.000197845)
(-0.000688589 -0.000598764 0.000183876)
(-0.000676809 -0.00059141 0.000165116)
(-0.000685937 -0.000601415 0.000150223)
(-0.000693445 -0.000610229 0.000133772)
(-0.000720018 -0.000635516 0.000119301)
(-0.000708999 -0.000629062 9.78842e-05)
(-0.000703159 -0.000627112 7.72941e-05)
(-0.0006998 -0.000626022 5.64388e-05)
(-0.000698265 -0.000626702 3.47879e-05)
(-0.000694219 -0.000624307 1.18084e-05)
(-0.000124785 -0.000109253 -3.93528e-05)
(-0.000256868 -0.000314179 -6.43268e-05)
(-0.000360148 -0.00047402 6.10919e-06)
(-0.000432994 -0.000556081 6.76237e-05)
(-0.000509777 -0.000609696 0.000120419)
(-0.000564988 -0.000621275 0.000156099)
(-0.000616185 -0.000626528 0.000182332)
(-0.000651709 -0.00062067 0.000200525)
(-0.000686661 -0.000618827 0.000215851)
(-0.000706844 -0.000609758 0.000222402)
(-0.000720783 -0.000605891 0.000223233)
(-0.000726224 -0.000601913 0.00021802)
(-0.000730976 -0.000602125 0.000209628)
(-0.000733275 -0.00060345 0.000197947)
(-0.000735314 -0.000606579 0.000184086)
(-0.000724769 -0.000600852 0.000165938)
(-0.000732547 -0.000609488 0.000150763)
(-0.000740336 -0.000618277 0.000134392)
(-0.000769646 -0.000644553 0.00012011)
(-0.000758339 -0.000638742 9.8744e-05)
(-0.000755525 -0.000639805 7.84361e-05)
(-0.000752743 -0.000639521 5.74146e-05)
(-0.000752308 -0.000641358 3.54737e-05)
(-0.000748553 -0.000639536 1.20597e-05)
(-0.000179451 -0.00013557 -4.15482e-05)
(-0.000267919 -0.000291751 -6.94612e-05)
(-0.000374894 -0.000449904 -4.45484e-06)
(-0.000451491 -0.000537301 5.61286e-05)
(-0.000532567 -0.000596499 0.000109282)
(-0.000592487 -0.00061492 0.000146683)
(-0.000647769 -0.000625385 0.000175079)
(-0.000689839 -0.000625795 0.000196287)
(-0.000727212 -0.000624812 0.000212732)
(-0.000750879 -0.000616795 0.000220667)
(-0.000763642 -0.000609365 0.000221359)
(-0.00076983 -0.000605003 0.000216636)
(-0.000774943 -0.000604852 0.000208565)
(-0.000779056 -0.000607335 0.000197591)
(-0.000782547 -0.000611536 0.000184284)
(-0.000775399 -0.000608996 0.000167193)
(-0.000782587 -0.00061704 0.000151923)
(-0.000791593 -0.000626556 0.000135751)
(-0.000822813 -0.000653043 0.000121443)
(-0.000809832 -0.000646881 9.988e-05)
(-0.00080713 -0.000648459 7.94878e-05)
(-0.000802877 -0.000647374 5.81825e-05)
(-0.000802572 -0.000649537 3.59874e-05)
(-0.00079861 -0.00064786 1.22445e-05)
(-0.000167845 -0.000108229 -2.55656e-05)
(-0.000277335 -0.000267213 -7.383e-05)
(-0.000387455 -0.000422575 -1.51203e-05)
(-0.000466752 -0.000513977 4.38181e-05)
(-0.000550836 -0.000577428 9.68227e-05)
(-0.000616214 -0.000603448 0.00013598)
(-0.000677395 -0.000620665 0.000166974)
(-0.00072085 -0.00062245 0.000189728)
(-0.000761947 -0.000623672 0.000207711)
(-0.000787524 -0.000615999 0.000216547)
(-0.000806559 -0.000611034 0.000219302)
(-0.000815181 -0.000606747 0.000215577)
(-0.000821341 -0.000606629 0.000208041)
(-0.000826678 -0.000609543 0.000197597)
(-0.000830395 -0.000613752 0.000184551)
(-0.00082394 -0.000612125 0.00016791)
(-0.000829034 -0.000618599 0.000152394)
(-0.000838969 -0.000628581 0.000136471)
(-0.000871391 -0.00065467 0.000122158)
(-0.000858767 -0.000649829 0.000100763)
(-0.000859073 -0.000654135 8.06183e-05)
(-0.000855527 -0.000654081 5.91794e-05)
(-0.000856133 -0.000657321 3.66838e-05)
(-0.000852609 -0.000656442 1.25033e-05)
(-0.000150363 -8.16545e-05 -1.17814e-05)
(-0.00028277 -0.000239368 -7.67701e-05)
(-0.000394048 -0.000389129 -2.54668e-05)
(-0.000476764 -0.000485226 3.06811e-05)
(-0.000565948 -0.000555293 8.34835e-05)
(-0.00063696 -0.000588779 0.000124334)
(-0.000701966 -0.000610431 0.000157357)
(-0.000753138 -0.000618818 0.00018322)
(-0.00079749 -0.000621605 0.000202721)
(-0.00082639 -0.000615383 0.000212914)
(-0.000845989 -0.000609012 0.00021621)
(-0.000856855 -0.000604072 0.000213457)
(-0.000863838 -0.000603103 0.000206493)
(-0.000871295 -0.00060692 0.000196883)
(-0.000876844 -0.0006122 0.000184539)
(-0.000873323 -0.00061302 0.000168834)
(-0.000877808 -0.000619204 0.000153406)
(-0.000889711 -0.000630326 0.000137856)
(-0.000922685 -0.00065582 0.000123421)
(-0.000909031 -0.000651644 0.000101972)
(-0.000909181 -0.000656531 8.17274e-05)
(-0.000903878 -0.000656006 6.00179e-05)
(-0.000904146 -0.000659511 3.72389e-05)
(-0.000900319 -0.00065888 1.27039e-05)
(-0.000158629 -7.13519e-05 -1.67085e-06)
(-0.000285623 -0.000210682 -7.84066e-05)
(-0.000397688 -0.000353924 -3.53414e-05)
(-0.000482468 -0.000453258 1.70302e-05)
(-0.000574278 -0.000527675 6.88785e-05)
(-0.000651177 -0.000568628 0.000111207)
(-0.000723546 -0.000597408 0.000146814)
(-0.00077658 -0.000607145 0.000174266)
(-0.000824949 -0.000612208 0.000195493)
(-0.00085711 -0.000607548 0.000207151)
(-0.000883514 -0.000604618 0.000212643)
(-0.000898934 -0.000600993 0.000211475)
(-0.000908724 -0.000600251 0.000205658)
(-0.000917404 -0.000603767 0.000196699)
(-0.000923104 -0.000608789 0.00018471)
(-0.000919279 -0.00060984 0.000169347)
(-0.000921642 -0.000615031 0.000153883)
(-0.000934633 -0.000626859 0.000138686)
(-0.000966911 -0.000651089 0.000124114)
(-0.000953531 -0.000648593 0.000102856)
(-0.000956092 -0.000655912 8.28085e-05)
(-0.00095129 -0.000656718 6.09967e-05)
(-0.000951955 -0.000661031 3.79084e-05)
(-0.000948496 -0.000661065 1.29515e-05)
(-0.000175709 -6.40988e-05 9.03088e-06)
(-0.000284108 -0.000180417 -7.85163e-05)
(-0.000393674 -0.000313946 -4.38948e-05)
(-0.000480282 -0.00041574 3.08319e-06)
(-0.000577461 -0.000497219 5.34688e-05)
(-0.000660944 -0.000545851 9.71358e-05)
(-0.000737019 -0.000578178 0.000134404)
(-0.000799039 -0.000594486 0.000164814)
(-0.000852408 -0.000602177 0.000188046)
(-0.000888317 -0.000599258 0.000201465)
(-0.000915634 -0.000595685 0.000207879)
(-0.000933533 -0.00059235 0.000207946)
(-0.000945261 -0.000591619 0.000203223)
(-0.000956448 -0.000595557 0.000195344)
(-0.000963996 -0.000601382 0.000184244)
(-0.000962488 -0.000604391 0.00016983)
(-0.000964888 -0.000610189 0.00015477)
(-0.000979446 -0.000623011 0.000139961)
(-0.00101049 -0.000645637 0.000125147)
(-0.000996083 -0.000643789 0.000103869)
(-0.000997822 -0.000651149 8.37044e-05)
(-0.000990674 -0.000651307 6.16623e-05)
(-0.000990502 -0.00065555 3.83353e-05)
(-0.000986736 -0.00065573 1.31066e-05)
(-0.000190508 -5.48083e-05 2.04228e-05)
(-0.000280748 -0.000150488 -7.71011e-05)
(-0.00038596 -0.000273769 -5.13637e-05)
(-0.000472911 -0.00037608 -1.06596e-05)
(-0.000571517 -0.000461449 3.71186e-05)
(-0.000660817 -0.000516927 8.14717e-05)
(-0.000745865 -0.000556495 0.000120944)
(-0.000810988 -0.000574377 0.000152915)
(-0.000868696 -0.000584095 0.000177922)
(-0.000909711 -0.000583833 0.000193483)
(-0.000944377 -0.000583908 0.000202456)
(-0.000967121 -0.000582452 0.000204447)
(-0.000982261 -0.000582783 0.000201229)
(-0.00099466 -0.000586557 0.000194255)
(-0.00100191 -0.000591946 0.00018371)
(-0.000999442 -0.000594836 0.000169725)
(-0.000999983 -0.000600027 0.00015486)
(-0.0010145 -0.000612595 0.000140294)
(-0.00104319 -0.000632993 0.00012528)
(-0.00102922 -0.000632609 0.000104278)
(-0.00103303 -0.000641743 8.43625e-05)
(-0.00102649 -0.000643228 6.23514e-05)
(-0.0010264 -0.000648026 3.88176e-05)
(-0.00102288 -0.000648685 1.32886e-05)
(-0.000211683 -4.56843e-05 3.35721e-05)
(-0.000274987 -0.000121479 -7.37059e-05)
(-0.000369821 -0.000230736 -5.67465e-05)
(-0.000454948 -0.000330921 -2.35671e-05)
(-0.00055776 -0.000422509 2.03747e-05)
(-0.000654321 -0.000485767 6.48887e-05)
(-0.00074328 -0.000528348 0.00010544)
(-0.000818593 -0.000552329 0.000139979)
(-0.000883653 -0.000565485 0.000167324)
(-0.000929096 -0.000567021 0.000184998)
(-0.000965102 -0.00056685 0.000195431)
(-0.000990041 -0.000565764 0.000198991)
(-0.00100717 -0.000566448 0.000197186)
(-0.00102155 -0.000570693 0.000191477)
(-0.00103022 -0.000576778 0.000181996)
(-0.00103002 -0.00058147 0.000169134)
(-0.00103178 -0.00058786 0.000155023)
(-0.00104708 -0.000600537 0.000140831)
(-0.00107306 -0.000618629 0.000125615)
(-0.0010581 -0.000618805 0.000104721)
(-0.00106043 -0.000627459 8.47686e-05)
(-0.00105117 -0.000628267 6.26728e-05)
(-0.00104964 -0.000632709 3.9021e-05)
(-0.00104556 -0.000633324 1.33652e-05)
(-0.000235291 -3.4696e-05 4.86284e-05)
(-0.000269231 -9.54432e-05 -6.91249e-05)
(-0.000350186 -0.000188983 -5.99969e-05)
(-0.000431399 -0.000285149 -3.50651e-05)
(-0.00053273 -0.000378667 3.64816e-06)
(-0.00063413 -0.000447903 4.69366e-05)
(-0.000733612 -0.000498164 8.8769e-05)
(-0.000813935 -0.000524129 0.000124762)
(-0.000883783 -0.000538508 0.000153812)
(-0.000936282 -0.00054314 0.000174065)
(-0.000980243 -0.000546551 0.000187439)
(-0.00101058 -0.000547622 0.000193424)
(-0.00103142 -0.000549648 0.000193546)
(-0.00104637 -0.000553719 0.000188963)
(-0.00105415 -0.000559368 0.000180231)
(-0.00105287 -0.00056402 0.000168015)
(-0.00105289 -0.000569913 0.000154302)
(-0.00106661 -0.000581303 0.0001403)
(-0.00108845 -0.000596509 0.000124937)
(-0.00107364 -0.000597842 0.000104432)
(-0.00107733 -0.000607611 8.48271e-05)
(-0.00106845 -0.00060967 6.29441e-05)
(-0.00106658 -0.000614476 3.92402e-05)
(-0.00106238 -0.000615321 1.34537e-05)
(-0.000257355 -2.10124e-05 6.49241e-05)
(-0.000262819 -7.24657e-05 -6.36197e-05)
(-0.000323176 -0.000147241 -5.98281e-05)
(-0.000395472 -0.000235342 -4.36426e-05)
(-0.000497565 -0.000331686 -1.21336e-05)
(-0.000605537 -0.000408142 2.86047e-05)
(-0.000708794 -0.000461595 7.0175e-05)
(-0.000800496 -0.000493624 0.000108088)
(-0.000880616 -0.00051175 0.000139739)
(-0.000938311 -0.000517369 0.00016227)
(-0.000983981 -0.000520526 0.000177531)
(-0.00101612 -0.000521835 0.000185496)
(-0.00103884 -0.000524325 0.000187441)
(-0.00105543 -0.000529 0.000184435)
(-0.00106424 -0.000535414 0.000177023)
(-0.00106517 -0.000541785 0.000166154)
(-0.00106685 -0.000548958 0.000153437)
(-0.00108004 -0.000559657 0.000139831)
(-0.00109784 -0.000572252 0.000124383)
(-0.00108163 -0.000573904 0.0001041)
(-0.00108267 -0.000582562 8.45468e-05)
(-0.00107048 -0.000583918 6.27719e-05)
(-0.00106633 -0.000588074 3.91164e-05)
(-0.00106109 -0.000588661 1.34131e-05)
(-0.000276753 -4.99046e-06 8.18134e-05)
(-0.0002558 -5.26442e-05 -5.75253e-05)
(-0.000294419 -0.000109415 -5.67021e-05)
(-0.000355453 -0.000187712 -4.89158e-05)
(-0.000450057 -0.000280847 -2.59065e-05)
(-0.000559735 -0.000361342 1.01729e-05)
(-0.000674289 -0.000423292 5.07784e-05)
(-0.000772795 -0.000458701 8.93972e-05)
(-0.000858411 -0.000477744 0.000122708)
(-0.000925417 -0.000485899 0.000148232)
(-0.000979764 -0.000491662 0.000166691)
(-0.00101782 -0.000495011 0.000177503)
(-0.00104396 -0.000498799 0.000181773)
(-0.0010604 -0.000503394 0.000180227)
(-0.0010678 -0.000509534 0.000173848)
(-0.00106731 -0.000515817 0.000163821)
(-0.00106645 -0.00052212 0.000151567)
(-0.00107618 -0.000530703 0.000138089)
(-0.00108818 -0.000540578 0.000122605)
(-0.00107138 -0.000543031 0.000102825)
(-0.00107274 -0.000552338 8.37543e-05)
(-0.00106034 -0.000554829 6.24302e-05)
(-0.00105524 -0.000559306 3.89422e-05)
(-0.00104938 -0.000559954 1.3362e-05)
(-0.000292542 1.28627e-05 9.86997e-05)
(-0.000251059 -3.62102e-05 -5.1817e-05)
(-0.000262074 -7.57306e-05 -5.01736e-05)
(-0.00030354 -0.000139059 -4.87637e-05)
(-0.000392232 -0.00022822 -3.6354e-05)
(-0.000504971 -0.000313615 -7.04918e-06)
(-0.000621412 -0.000378511 3.05452e-05)
(-0.00073166 -0.000420876 6.93197e-05)
(-0.000830351 -0.000445474 0.000104987)
(-0.000903619 -0.000454093 0.000133169)
(-0.000960256 -0.000458775 0.000153957)
(-0.000999644 -0.000461297 0.000167045)
(-0.00102725 -0.000465027 0.000173415)
(-0.00104492 -0.000470273 0.000173728)
(-0.00105283 -0.000477325 0.000168909)
(-0.00105383 -0.000485096 0.000160363)
(-0.00105403 -0.000492443 0.00014921)
(-0.00106185 -0.000500351 0.000136176)
(-0.00106888 -0.000508576 0.000120871)
(-0.00104974 -0.000511052 0.000101423)
(-0.00104707 -0.00051884 8.25306e-05)
(-0.00103037 -0.000520428 6.15516e-05)
(-0.00102194 -0.000524015 3.83447e-05)
(-0.00101442 -0.000524253 1.31519e-05)
(-0.000300945 3.12322e-05 0.00011322)
(-0.000248233 -2.25828e-05 -4.66624e-05)
(-0.000228597 -4.82463e-05 -4.09782e-05)
(-0.000253089 -9.69081e-05 -4.42451e-05)
(-0.000323837 -0.000174381 -4.1936e-05)
(-0.000430848 -0.000258966 -2.16804e-05)
(-0.00055778 -0.000332429 1.09556e-05)
(-0.000675431 -0.000379685 4.83632e-05)
(-0.000779236 -0.000406321 8.47768e-05)
(-0.00086386 -0.000418971 0.000116082)
(-0.000929991 -0.000425968 0.000140451)
(-0.000975871 -0.000430021 0.000156845)
(-0.00100622 -0.000434177 0.000165756)
(-0.00102283 -0.00043904 0.000167695)
(-0.00102854 -0.000445763 0.000164081)
(-0.001027 -0.000453086 0.000156443)
(-0.001023 -0.00045907 0.000145685)
(-0.00102554 -0.000465104 0.000132808)
(-0.00102524 -0.000471021 0.000117639)
(-0.00100441 -0.000473816 9.87809e-05)
(-0.00100082 -0.000481524 8.0532e-05)
(-0.000983232 -0.000484033 6.03178e-05)
(-0.000973109 -0.000487588 3.75813e-05)
(-0.000964483 -0.000487842 1.28909e-05)
(-0.000296242 4.72605e-05 0.000121149)
(-0.000247254 -1.13533e-05 -4.21724e-05)
(-0.000198369 -2.81399e-05 -3.06667e-05)
(-0.000192676 -5.79976e-05 -3.34672e-05)
(-0.000249333 -0.000122636 -4.14425e-05)
(-0.000351366 -0.000206014 -3.25265e-05)
(-0.000474389 -0.00027975 -7.11565e-06)
(-0.000602791 -0.000334529 2.74384e-05)
(-0.00072152 -0.000369111 6.48144e-05)
(-0.000811584 -0.000383695 9.83512e-05)
(-0.000880204 -0.000390582 0.000125348)
(-0.000926621 -0.0003937 0.000144154)
(-0.00095777 -0.000397577 0.000155274)
(-0.000975117 -0.000402977 0.000159195)
(-0.000980663 -0.000410186 0.000157219)
(-0.000979232 -0.000418101 0.000150996)
(-0.000975061 -0.000424687 0.000141312)
(-0.000974312 -0.000430106 0.000128933)
(-0.000968604 -0.000435062 0.00011419)
(-0.000944105 -0.00043746 9.5731e-05)
(-0.000935103 -0.000442854 7.78132e-05)
(-0.000911755 -0.000443767 5.82554e-05)
(-0.000897125 -0.000445684 3.61745e-05)
(-0.000886251 -0.000445285 1.2389e-05)
(-0.000287339 5.96274e-05 0.000123324)
(-0.000242742 -2.32083e-06 -3.76437e-05)
(-0.000160551 -1.36468e-05 -1.87628e-05)
(-0.000143443 -3.02046e-05 -2.11104e-05)
(-0.000170683 -7.4752e-05 -3.41614e-05)
(-0.000253442 -0.000147006 -3.66769e-05)
(-0.00038334 -0.000227118 -2.20341e-05)
(-0.0005174 -0.000286962 7.92791e-06)
(-0.000638839 -0.000324108 4.44254e-05)
(-0.000740839 -0.000345169 8.02214e-05)
(-0.000817964 -0.000356036 0.000110364)
(-0.000870533 -0.000361708 0.00013233)
(-0.000903298 -0.000366288 0.000145749)
(-0.000918292 -0.0003711 0.000151106)
(-0.000920561 -0.000377429 0.000150222)
(-0.000914732 -0.000383921 0.000144688)
(-0.000904184 -0.000388403 0.000135194)
(-0.000896178 -0.000391629 0.000122894)
(-0.000882314 -0.000394388 0.000108442)
(-0.000854955 -0.000396264 9.07054e-05)
(-0.0008439 -0.000400512 7.36956e-05)
(-0.000819646 -0.000401682 5.54252e-05)
(-0.000803067 -0.000402927 3.43608e-05)
(-0.00079099 -0.000402232 1.17536e-05)
(-0.000271901 6.56447e-05 0.000115945)
(-0.000237193 4.06985e-06 -3.33989e-05)
(-0.000126371 -5.275e-06 -8.35807e-06)
(-7.61745e-05 -8.22854e-06 -6.12014e-06)
(-9.53153e-05 -3.49073e-05 -2.12559e-05)
(-0.000162822 -9.56233e-05 -3.54106e-05)
(-0.000275243 -0.000167691 -3.16882e-05)
(-0.000416484 -0.000234336 -8.39176e-06)
(-0.000553126 -0.000281582 2.69376e-05)
(-0.000656386 -0.000305139 6.34822e-05)
(-0.000733773 -0.000317842 9.50389e-05)
(-0.00078419 -0.00032402 0.000118222)
(-0.000815619 -0.000329128 0.000132925)
(-0.000830461 -0.000334625 0.000139764)
(-0.000831529 -0.000340823 0.000140179)
(-0.000824302 -0.000346913 0.000135799)
(-0.00081277 -0.000351384 0.000127344)
(-0.000800942 -0.000353851 0.000115608)
(-0.000782626 -0.000355769 0.000101899)
(-0.000751026 -0.000356078 8.47211e-05)
(-0.000734012 -0.000356942 6.83427e-05)
(-0.000702852 -0.000354875 5.1197e-05)
(-0.000681003 -0.000353328 3.14819e-05)
(-0.000666418 -0.000351338 1.07171e-05)
(-0.000259542 6.69255e-05 0.00010265)
(-0.000223521 7.90024e-06 -2.83938e-05)
(-0.000104472 -9.66759e-07 -9.94839e-07)
(-4.86531e-05 1.37687e-07 2.27114e-06)
(-3.13945e-05 -7.73013e-06 -6.11116e-06)
(-5.9461e-05 -3.79289e-05 -2.12394e-05)
(-0.000172912 -0.000111866 -3.56043e-05)
(-0.000312044 -0.000181051 -1.93111e-05)
(-0.000443468 -0.000229651 1.33042e-05)
(-0.000556905 -0.000262121 4.97329e-05)
(-0.000638718 -0.000280126 8.18595e-05)
(-0.00069285 -0.000290427 0.00010608)
(-0.00072416 -0.00029725 0.000121525)
(-0.000734794 -0.000302091 0.000128649)
(-0.000731444 -0.000306857 0.000129486)
(-0.000718135 -0.000310503 0.000125286)
(-0.000698157 -0.000311574 0.000116602)
(-0.000677777 -0.000310852 0.000104752)
(-0.000651612 -0.000309634 9.14736e-05)
(-0.000616977 -0.000308011 7.53428e-05)
(-0.000597206 -0.000306296 6.03385e-05)
(-0.000566816 -0.000303832 4.5372e-05)
(-0.000544322 -0.000301236 2.77451e-05)
(-0.00052944 -0.000298676 9.39811e-06)
(-0.000245865 6.40578e-05 8.39799e-05)
(-0.000208743 1.04004e-05 -2.42256e-05)
(-8.72858e-05 1.7829e-06 4.12069e-06)
(-3.61641e-05 5.88235e-06 9.33398e-06)
(-5.53202e-06 3.65804e-06 1.50148e-06)
(-5.26215e-06 -6.52344e-06 -9.23875e-06)
(-6.70832e-05 -4.79113e-05 -2.5387e-05)
(-0.000201159 -0.000121957 -2.08829e-05)
(-0.000342295 -0.000182886 7.90902e-06)
(-0.000445474 -0.00021646 4.10487e-05)
(-0.000522013 -0.000237319 7.03483e-05)
(-0.000569318 -0.000248638 9.19039e-05)
(-0.000595868 -0.000256006 0.000105667)
(-0.000605392 -0.000261535 0.000112534)
(-0.000599879 -0.00026547 0.000113595)
(-0.000584343 -0.000267809 0.000109988)
(-0.000564281 -0.000268569 0.000102406)
(-0.000541765 -0.000266873 9.13374e-05)
(-0.00051414 -0.00026455 7.92689e-05)
(-0.000476841 -0.000260369 6.42246e-05)
(-0.000452826 -0.000254565 5.04971e-05)
(-0.000415818 -0.000246746 3.73172e-05)
(-0.000388278 -0.000239761 2.22867e-05)
(-0.000371363 -0.000234987 7.41955e-06)
(-0.000227312 6.02997e-05 6.39212e-05)
(-0.000188895 1.28587e-05 -2.09543e-05)
(-8.06719e-05 5.02333e-06 7.11175e-06)
(-2.7269e-05 1.4056e-05 1.38988e-05)
(1.23149e-05 1.34405e-05 1.4623e-06)
(1.49703e-05 8.47534e-06 -3.36557e-06)
(-1.19296e-05 -8.94848e-06 -8.33192e-06)
(-0.000111089 -6.97588e-05 -9.38722e-06)
(-0.000220481 -0.000124902 1.26152e-05)
(-0.000327029 -0.000169444 3.97838e-05)
(-0.000400516 -0.000195553 6.32448e-05)
(-0.000448044 -0.000211575 8.08004e-05)
(-0.000473062 -0.000220893 9.16949e-05)
(-0.000477033 -0.000224937 9.62824e-05)
(-0.000466982 -0.000226614 9.63355e-05)
(-0.000445604 -0.000225506 9.21178e-05)
(-0.000416204 -0.000220849 8.36388e-05)
(-0.000385484 -0.000214043 7.21629e-05)
(-0.000351934 -0.000206707 6.06262e-05)
(-0.000313496 -0.000198996 4.74098e-05)
(-0.00028713 -0.000188879 3.59217e-05)
(-0.000255922 -0.000180974 2.62963e-05)
(-0.000232348 -0.00017361 1.53393e-05)
(-0.000217619 -0.000168435 4.96279e-06)
(-0.000198962 5.46163e-05 4.60834e-05)
(-0.00017812 1.5731e-05 -1.93182e-05)
(-7.51839e-05 7.76725e-06 7.96706e-06)
(-1.63572e-05 1.277e-05 8.39465e-06)
(1.47064e-05 1.09928e-05 2.99121e-06)
(1.3245e-05 8.8138e-06 1.11683e-05)
(7.54084e-08 5.84591e-07 1.05355e-05)
(-3.00042e-05 -2.04932e-05 1.1478e-05)
(-0.000130056 -8.41879e-05 3.11106e-05)
(-0.000201685 -0.000120381 4.47921e-05)
(-0.000260904 -0.000146734 5.73661e-05)
(-0.000295963 -0.000161371 6.54823e-05)
(-0.000313785 -0.000169517 6.98442e-05)
(-0.000317402 -0.000173538 7.13659e-05)
(-0.000305988 -0.000173264 6.98777e-05)
(-0.000283843 -0.000169743 6.54819e-05)
(-0.000259235 -0.00016521 5.87095e-05)
(-0.00023208 -0.000157736 4.87918e-05)
(-0.000203012 -0.000149541 3.92671e-05)
(-0.000167119 -0.000139185 2.85274e-05)
(-0.00014337 -0.000125594 1.99617e-05)
(-0.000108225 -0.00010891 1.25159e-05)
(-8.20927e-05 -9.39931e-05 6.1032e-06)
(-6.77184e-05 -8.48782e-05 1.63137e-06)
(-0.000159437 4.39422e-05 2.93076e-05)
(-0.000156668 1.62757e-05 -1.61909e-05)
(-8.42972e-05 9.76019e-06 1.03369e-05)
(-9.74932e-06 9.06029e-06 1.17044e-05)
(9.12756e-06 7.75682e-06 1.69747e-05)
(1.84702e-05 6.3458e-06 3.30381e-05)
(1.65906e-05 -5.64108e-07 3.80544e-05)
(3.19869e-06 -1.26229e-05 3.78801e-05)
(-1.93607e-05 -2.56354e-05 3.00891e-05)
(-8.07243e-05 -7.32186e-05 5.03027e-05)
(-0.000130579 -0.000100977 5.32837e-05)
(-0.000165556 -0.000119284 5.33083e-05)
(-0.000182449 -0.000128016 5.0606e-05)
(-0.000181725 -0.000128432 4.65517e-05)
(-0.000168741 -0.000124761 4.23207e-05)
(-0.000145163 -0.000116886 3.66583e-05)
(-0.000112754 -0.00010255 2.80092e-05)
(-8.16513e-05 -8.58196e-05 1.79369e-05)
(-5.30455e-05 -6.80518e-05 9.55824e-06)
(-2.47255e-05 -5.00146e-05 2.39156e-06)
(-7.07793e-06 -2.10386e-05 -5.00753e-07)
(3.11097e-06 -2.29969e-05 -3.81606e-06)
(8.21062e-06 -1.05103e-05 -2.98588e-06)
(1.51088e-05 -9.43334e-06 -1.8203e-06)
(-0.000120782 3.60691e-05 1.61185e-05)
(-0.00014302 1.88793e-05 -1.90832e-05)
(-6.98278e-05 1.13466e-05 6.06239e-06)
(-1.97184e-05 1.83512e-05 1.46378e-05)
(-7.48412e-08 1.74917e-05 1.87906e-05)
(1.8234e-05 1.7255e-05 2.58679e-05)
(3.02327e-05 1.09494e-05 3.23141e-05)
(3.84919e-05 1.69797e-06 4.27581e-05)
(2.92608e-05 -9.45026e-06 4.26629e-05)
(1.30396e-05 -2.28087e-05 3.99427e-05)
(-5.83426e-06 -3.17404e-05 2.80775e-05)
(-1.35866e-05 -2.7543e-05 1.44626e-05)
(-2.51147e-05 -3.90201e-05 1.20534e-05)
(-2.99491e-05 -4.37486e-05 7.49893e-06)
(-2.24249e-05 -3.68616e-05 2.44523e-06)
(-8.38502e-06 -2.10737e-05 -1.39599e-06)
(-3.59583e-07 -2.06074e-05 -6.02331e-06)
(9.62962e-06 -1.60976e-05 -1.29808e-05)
(1.27634e-05 -5.55798e-06 -1.26638e-05)
(2.77162e-05 2.37821e-06 -2.22006e-05)
(2.95044e-05 7.4837e-06 -2.08965e-05)
(2.44703e-05 1.14512e-05 -1.39214e-05)
(2.45049e-05 1.37972e-05 -8.75007e-06)
(3.6932e-05 2.23146e-05 -4.53038e-06)
(-4.88601e-05 1.96814e-05 8.23941e-06)
(-0.000116658 2.02101e-05 -2.72488e-05)
(-7.40486e-05 1.45991e-05 -5.92058e-06)
(-4.30681e-05 2.59871e-05 7.09092e-06)
(-1.96502e-05 4.55117e-05 1.66121e-05)
(8.27815e-06 5.74112e-05 1.16042e-05)
(3.44265e-05 4.0704e-05 1.22512e-05)
(3.56095e-05 1.69271e-05 1.41207e-05)
(3.82057e-05 8.5743e-06 2.23663e-05)
(3.65355e-05 5.84833e-06 2.49508e-05)
(3.18885e-05 2.4084e-06 1.89558e-05)
(2.57752e-05 -1.60494e-06 9.72418e-06)
(2.08171e-05 -3.7801e-06 -6.743e-07)
(1.78496e-05 -3.53407e-06 -9.86266e-06)
(1.79577e-05 -1.02044e-06 -1.67595e-05)
(2.0626e-05 2.8725e-06 -2.1903e-05)
(2.34857e-05 7.62786e-06 -2.48921e-05)
(2.53369e-05 1.12689e-05 -2.55185e-05)
(3.27002e-05 1.66592e-05 -3.07086e-05)
(2.80731e-05 1.52777e-05 -2.226e-05)
(3.16217e-05 1.72839e-05 -2.12723e-05)
(2.76546e-05 1.45381e-05 -1.43685e-05)
(3.74208e-05 1.83428e-05 -1.24803e-05)
(2.84517e-05 1.30563e-05 -3.23489e-06)
(2.38257e-06 1.04317e-05 1.54538e-05)
(-5.42235e-05 1.77872e-05 -2.67307e-05)
(-6.55128e-05 1.50979e-05 -1.93762e-05)
(-5.73297e-05 2.39579e-05 -7.9e-06)
(-4.43786e-05 5.00952e-05 -1.16018e-06)
(-5.82684e-06 6.84282e-05 -6.89989e-06)
(3.21769e-05 6.74422e-05 -1.39808e-05)
(5.6541e-05 4.41198e-05 -1.20394e-05)
(4.77539e-05 1.28166e-05 6.16895e-06)
(4.09514e-05 1.01235e-05 1.62908e-05)
(4.02395e-05 1.07641e-05 1.3945e-05)
(4.00971e-05 1.01612e-05 7.66311e-06)
(4.9675e-05 1.31432e-05 -2.18457e-06)
(3.34758e-05 1.02589e-05 -1.10319e-05)
(3.10226e-05 1.11965e-05 -1.86796e-05)
(3.90075e-05 1.5708e-05 -3.03166e-05)
(3.28422e-05 1.36604e-05 -2.78087e-05)
(2.90748e-05 1.15131e-05 -2.52146e-05)
(3.43744e-05 1.17911e-05 -2.93891e-05)
(4.66268e-05 1.33031e-05 -3.58706e-05)
(4.81658e-05 9.69566e-06 -3.20225e-05)
(5.3717e-05 6.68842e-06 -2.84991e-05)
(5.48273e-05 3.64038e-06 -1.87055e-05)
(5.81106e-05 1.24303e-06 -6.78679e-06)
(1.40232e-05 1.57002e-05 3.31502e-05)
(-8.87894e-06 2.30879e-05 -1.94421e-05)
(-4.14022e-05 1.8123e-05 -2.5922e-05)
(-4.94859e-05 1.96392e-05 -1.77347e-05)
(-5.73708e-05 4.17239e-05 -1.76133e-05)
(-2.97252e-05 6.28415e-05 -2.36519e-05)
(9.29945e-06 6.46912e-05 -3.2486e-05)
(3.90473e-05 3.7724e-05 -3.41837e-05)
(5.14729e-05 2.87295e-06 -9.85132e-06)
(6.95683e-05 9.13011e-07 1.6223e-05)
(8.66444e-05 6.99242e-06 1.85142e-05)
(9.00214e-05 8.17028e-06 7.73276e-06)
(8.48513e-05 8.82337e-06 -8.0045e-06)
(7.42943e-05 8.97447e-06 -2.32722e-05)
(6.52785e-05 8.48269e-06 -3.50532e-05)
(6.0055e-05 6.89444e-06 -4.27251e-05)
(5.88496e-05 4.13791e-06 -4.80623e-05)
(6.14246e-05 4.34214e-08 -5.34026e-05)
(6.29637e-05 -4.92039e-06 -5.44716e-05)
(6.23481e-05 -8.78627e-06 -4.91712e-05)
(6.37903e-05 -1.33825e-05 -4.2409e-05)
(6.40457e-05 -1.68537e-05 -3.34468e-05)
(6.33265e-05 -1.88108e-05 -2.11235e-05)
(6.41296e-05 -1.93827e-05 -7.11355e-06)
(1.20761e-05 1.4357e-05 3.45482e-05)
(5.86445e-06 2.77551e-05 -7.014e-06)
(-2.23118e-05 2.63825e-05 -2.51655e-05)
(-4.35499e-05 2.27012e-05 -2.45467e-05)
(-5.63611e-05 3.30719e-05 -2.61174e-05)
(-4.71407e-05 4.78063e-05 -3.40783e-05)
(-1.72339e-05 4.72695e-05 -4.56555e-05)
(1.2309e-05 1.64844e-05 -4.53655e-05)
(3.61537e-05 -1.64111e-05 -1.7021e-05)
(6.36407e-05 -1.70897e-05 8.71834e-06)
(8.68367e-05 -9.70494e-06 1.02598e-05)
(9.87886e-05 -8.22997e-06 6.84015e-08)
(0.000100375 -8.15503e-06 -1.53442e-05)
(9.341e-05 -9.5361e-06 -3.15224e-05)
(8.32605e-05 -1.17573e-05 -4.39573e-05)
(7.53109e-05 -1.49881e-05 -5.175e-05)
(7.07321e-05 -1.86504e-05 -5.58852e-05)
(6.88889e-05 -2.21375e-05 -5.74383e-05)
(6.93879e-05 -2.59944e-05 -5.74989e-05)
(6.80834e-05 -2.88057e-05 -5.22138e-05)
(6.96092e-05 -2.92972e-05 -4.45604e-05)
(6.86032e-05 -2.93349e-05 -3.48082e-05)
(6.6498e-05 -2.7965e-05 -2.1588e-05)
(6.5316e-05 -2.61222e-05 -7.10076e-06)
(9.84641e-06 8.51728e-06 2.44805e-05)
(4.11699e-06 2.1256e-05 -5.2561e-07)
(-1.1676e-05 2.56622e-05 -1.59081e-05)
(-3.40216e-05 2.36008e-05 -2.43503e-05)
(-5.01684e-05 2.56104e-05 -2.94896e-05)
(-5.20099e-05 2.97445e-05 -3.8534e-05)
(-3.49117e-05 2.22155e-05 -4.90209e-05)
(-7.30168e-06 -5.91644e-06 -4.2929e-05)
(2.22724e-05 -2.69643e-05 -1.80808e-05)
(5.18992e-05 -2.38941e-05 7.36148e-07)
(7.24018e-05 -1.65655e-05 9.222e-07)
(8.6313e-05 -1.57217e-05 -7.01287e-06)
(9.6995e-05 -1.7418e-05 -2.048e-05)
(9.69993e-05 -2.11938e-05 -3.58265e-05)
(8.99057e-05 -2.55318e-05 -4.77719e-05)
(8.2445e-05 -2.94707e-05 -5.51608e-05)
(7.66872e-05 -3.20094e-05 -5.85364e-05)
(7.37887e-05 -3.29902e-05 -5.93695e-05)
(7.2769e-05 -3.34361e-05 -5.81591e-05)
(6.90319e-05 -3.31974e-05 -5.1009e-05)
(6.61606e-05 -2.91754e-05 -4.14874e-05)
(6.11042e-05 -2.59142e-05 -3.07026e-05)
(5.48647e-05 -2.25377e-05 -1.78975e-05)
(5.14282e-05 -2.05607e-05 -5.68355e-06)
(9.35008e-06 1.00301e-06 1.13686e-05)
(3.86198e-06 7.65987e-06 3.61628e-07)
(-7.87526e-06 1.42136e-05 -1.02902e-05)
(-2.37067e-05 1.47338e-05 -1.9866e-05)
(-3.85896e-05 1.31407e-05 -2.79229e-05)
(-4.44487e-05 1.00038e-05 -3.65995e-05)
(-3.54236e-05 -7.15982e-07 -4.2764e-05)
(-1.30306e-05 -1.83077e-05 -3.5537e-05)
(1.21307e-05 -2.68889e-05 -2.08332e-05)
(2.89084e-05 -2.22044e-05 -1.00777e-05)
(3.21308e-05 -1.48641e-05 -6.06301e-06)
(4.02274e-05 -1.38992e-05 -7.37788e-06)
(5.68696e-05 -1.60676e-05 -1.48165e-05)
(7.42556e-05 -2.05979e-05 -2.91759e-05)