/*--------------------------------*- C++ -*----------------------------------*\
  =========                 |
  \\      /  F ield         | OpenFOAM: The Open Source CFD Toolbox
   \\    /   O peration     | Website:  https://openfoam.org
    \\  /    A nd           | Version:  6
     \\/     M anipulation  |
\*---------------------------------------------------------------------------*/
FoamFile
{
    version     2.0;
    format      ascii;
    class       volVectorField;
    location    "21";
    object      wallShearStress;
}
// * * * * * * * * * * * * * * * * * * * * * * * * * * * * * * * * * * * * * //

dimensions      [0 2 -2 0 0 0 0];

internalField   uniform (0 0 0);

boundaryField
{
    inlet
    {
        type            calculated;
        value           uniform (0 0 0);
    }
    outlet
    {
        type            calculated;
        value           uniform (0 0 0);
    }
    roughCylinder
    {
        type            calculated;
        value           nonuniform List<vector> 
5120
(
(-0.000239354 -0.000339729 -0.000170862)
(-0.000293373 -0.000441399 -3.95245e-05)
(-0.000326246 -0.000531825 1.24425e-06)
(-0.000370892 -0.000618047 5.46085e-05)
(-0.00042622 -0.000692336 0.000115619)
(-0.000488784 -0.000750366 0.000176482)
(-0.000555047 -0.000789679 0.000232925)
(-0.000620438 -0.00081091 0.000282305)
(-0.000681115 -0.000816728 0.000322689)
(-0.000735412 -0.000812411 0.000353648)
(-0.000783772 -0.000806326 0.00037699)
(-0.00082613 -0.000802708 0.000394113)
(-0.000860146 -0.000802127 0.000404048)
(-0.00088887 -0.00080662 0.000407782)
(-0.000913486 -0.000815512 0.00040636)
(-0.000935304 -0.000828094 0.000400783)
(-0.000955681 -0.000843653 0.000392046)
(-0.000975814 -0.000861626 0.000380996)
(-0.000996589 -0.000881578 0.000368243)
(-0.00101854 -0.000903213 0.000354151)
(-0.00104205 -0.000926402 0.000338926)
(-0.00106722 -0.000951046 0.000322608)
(-0.001094 -0.000977016 0.000305123)
(-0.00112221 -0.00100413 0.000286316)
(-0.00115154 -0.00103213 0.000265948)
(-0.00118165 -0.00106065 0.000243679)
(-0.00121205 -0.00108922 0.000219014)
(-0.00124215 -0.00111719 0.000191291)
(-0.00127106 -0.00114362 0.000159362)
(-0.00129748 -0.00116725 0.000121892)
(-0.00131853 -0.00118619 7.68869e-05)
(-0.00133049 -0.00119743 2.59322e-05)
(-0.000256934 -0.000328455 -0.000161181)
(-0.000314013 -0.000427458 -4.19791e-05)
(-0.00034935 -0.000516658 -4.41737e-06)
(-0.00039599 -0.000602675 4.56844e-05)
(-0.000452904 -0.000678 0.000104214)
(-0.000516921 -0.000737782 0.000163405)
(-0.000584484 -0.000779181 0.000218783)
(-0.000651302 -0.000802757 0.000267601)
(-0.000714167 -0.000811614 0.000308071)
(-0.000771837 -0.000811525 0.000340193)
(-0.000824142 -0.000809061 0.000365438)
(-0.000869931 -0.000806748 0.000384327)
(-0.000906349 -0.000804726 0.000395176)
(-0.000936493 -0.000808163 0.00039942)
(-0.000962551 -0.000816383 0.000398293)
(-0.000985786 -0.000828668 0.000392944)
(-0.00100758 -0.000844163 0.000384392)
(-0.00102906 -0.00086213 0.000373485)
(-0.00105117 -0.000882104 0.00036087)
(-0.00107461 -0.000903852 0.000346992)
(-0.00109965 -0.000927156 0.000332023)
(-0.00112643 -0.000951896 0.000316017)
(-0.00115487 -0.000977942 0.000298912)
(-0.00118478 -0.00100511 0.00028055)
(-0.00121583 -0.00103313 0.000260686)
(-0.00124763 -0.00106163 0.000238969)
(-0.00127967 -0.00109014 0.000214896)
(-0.00131134 -0.00111801 0.000187803)
(-0.0013417 -0.00114431 0.000156535)
(-0.00136941 -0.00116781 0.000119782)
(-0.00139147 -0.00118663 7.55718e-05)
(-0.00140403 -0.00119778 2.54811e-05)
(-0.000274422 -0.000312326 -0.000144734)
(-0.000334228 -0.000408386 -4.49415e-05)
(-0.000371818 -0.000495629 -1.0718e-05)
(-0.00042006 -0.000580788 3.59165e-05)
(-0.000478264 -0.00065664 9.16851e-05)
(-0.000543578 -0.000717938 0.000148978)
(-0.000612514 -0.000761595 0.000203218)
(-0.000681116 -0.000788175 0.000251639)
(-0.000746662 -0.000800963 0.000292637)
(-0.000807923 -0.000805305 0.000326234)
(-0.00086394 -0.000806117 0.000353183)
(-0.000912812 -0.000805128 0.000373297)
(-0.000952539 -0.000802839 0.000385305)
(-0.000984278 -0.000804951 0.000390074)
(-0.00101183 -0.000812329 0.000389235)
(-0.00103644 -0.00082404 0.000384104)
(-0.00105953 -0.000839151 0.000375713)
(-0.00108244 -0.000856963 0.000365002)
(-0.00110609 -0.000876929 0.000352633)
(-0.001131 -0.000898595 0.00033899)
(-0.00115762 -0.00092184 0.000324323)
(-0.00118604 -0.000946519 0.000308686)
(-0.00121618 -0.000972471 0.000292018)
(-0.00124781 -0.000999509 0.000274161)
(-0.00128059 -0.00102736 0.000254865)
(-0.00131407 -0.00105564 0.000233764)
(-0.00134775 -0.0010839 0.000210346)
(-0.00138096 -0.00111147 0.000183949)
(-0.00141274 -0.00113745 0.000153409)
(-0.00144172 -0.00116066 0.000117446)
(-0.00146475 -0.00117922 7.41158e-05)
(-0.00147786 -0.0011902 2.4983e-05)
(-0.000289825 -0.000292302 -0.000124047)
(-0.000351961 -0.000384915 -4.79589e-05)
(-0.000391375 -0.000469491 -1.72563e-05)
(-0.000440658 -0.000553171 2.57317e-05)
(-0.000499742 -0.000629078 7.84653e-05)
(-0.00056617 -0.000691754 0.000133597)
(-0.00063659 -0.000737908 0.000186565)
(-0.000707326 -0.000768029 0.00023463)
(-0.000775849 -0.000785227 0.000276298)
(-0.000840642 -0.000793975 0.00031138)
(-0.000900145 -0.000797828 0.000339898)
(-0.000952228 -0.00079834 0.000361135)
(-0.000995506 -0.000796783 0.000374393)
(-0.00102941 -0.000797237 0.000379737)
(-0.00105851 -0.000803656 0.000379288)
(-0.00108474 -0.000814738 0.000374479)
(-0.00110948 -0.000829531 0.000366398)
(-0.00113386 -0.000847068 0.000355936)
(-0.00115888 -0.000866724 0.000343784)
(-0.00118538 -0.000888267 0.000330457)
(-0.0012136 -0.000911346 0.000316138)
(-0.00124366 -0.000935822 0.000300911)
(-0.00127549 -0.00096155 0.000284726)
(-0.00130882 -0.000988311 0.000267422)
(-0.00134327 -0.00101583 0.000248741)
(-0.00137837 -0.00104373 0.000228302)
(-0.00141359 -0.00107157 0.000205581)
(-0.00144825 -0.00109869 0.000179916)
(-0.00148135 -0.00112421 0.000150139)
(-0.0015115 -0.00114698 0.000115003)
(-0.00153545 -0.00116517 7.25962e-05)
(-0.00154907 -0.00117592 2.44639e-05)
(-0.000302448 -0.000269011 -0.000101241)
(-0.000366508 -0.000357648 -5.07203e-05)
(-0.000407261 -0.000438935 -2.37027e-05)
(-0.000457028 -0.000520548 1.54655e-05)
(-0.000516598 -0.000596045 6.489e-05)
(-0.000583986 -0.000659929 0.000117563)
(-0.000656002 -0.000708721 0.000169052)
(-0.000729117 -0.000742643 0.000216684)
(-0.000800726 -0.000764282 0.000258974)
(-0.000868908 -0.000777132 0.00029539)
(-0.000931753 -0.00078383 0.000325357)
(-0.000987148 -0.000785949 0.000347782)
(-0.00103377 -0.000785403 0.000362117)
(-0.00107128 -0.000785273 0.000368519)
(-0.00110224 -0.000790315 0.000368629)
(-0.00113009 -0.000800473 0.000364184)
(-0.00115623 -0.000814518 0.000356388)
(-0.00118214 -0.000831608 0.000346242)
(-0.00120888 -0.000851062 0.000334468)
(-0.00123683 -0.000872214 0.000321456)
(-0.00126663 -0.000894972 0.000307526)
(-0.00129833 -0.000919108 0.000292757)
(-0.0013318 -0.000944448 0.000277101)
(-0.00136676 -0.000970771 0.000260398)
(-0.00140282 -0.000997799 0.000242383)
(-0.00143943 -0.00102515 0.000222649)
(-0.00147609 -0.00105239 0.000200662)
(-0.00151208 -0.00107888 0.000175764)
(-0.00154637 -0.00110377 0.000146773)
(-0.0015776 -0.00112596 0.00011249)
(-0.00160236 -0.00114367 7.10349e-05)
(-0.00161642 -0.00115413 2.39312e-05)
(-0.000311909 -0.000243465 -7.78181e-05)
(-0.000377398 -0.000327596 -5.30605e-05)
(-0.000418942 -0.000405029 -2.98398e-05)
(-0.000468597 -0.000483994 5.33642e-06)
(-0.000528208 -0.0005586 5.11516e-05)
(-0.000596355 -0.000623466 0.000101018)
(-0.00067 -0.000674922 0.000150765)
(-0.000745631 -0.000712683 0.000197815)
(-0.00082041 -0.000738602 0.000240592)
(-0.000891998 -0.00075522 0.000278165)
(-0.000958198 -0.000764558 0.000309453)
(-0.001017 -0.000768314 0.00033311)
(-0.0010671 -0.000768801 0.0003485)
(-0.00110844 -0.000768942 0.000356081)
(-0.00114206 -0.000772319 0.000356971)
(-0.00117175 -0.000781365 0.00035309)
(-0.0011998 -0.000794701 0.00034579)
(-0.00122734 -0.000811138 0.000336037)
(-0.00125536 -0.000829856 0.000324571)
(-0.00128502 -0.000850633 0.000311995)
(-0.0013164 -0.000872918 0.000298506)
(-0.0013497 -0.00089655 0.000284239)
(-0.00138478 -0.000921341 0.000269165)
(-0.00142133 -0.000947056 0.000253118)
(-0.00145888 -0.00097341 0.000235815)
(-0.00149688 -0.00100003 0.000216829)
(-0.00153482 -0.00102649 0.000195609)
(-0.00157198 -0.00105218 0.000171505)
(-0.00160733 -0.0010763 0.000143325)
(-0.0016395 -0.00109776 0.000109915)
(-0.00166496 -0.00111487 6.94396e-05)
(-0.0016794 -0.00112497 2.33882e-05)
(-0.000317473 -0.000216313 -5.48019e-05)
(-0.00038389 -0.000295491 -5.48556e-05)
(-0.000425664 -0.000368563 -3.54946e-05)
(-0.000474597 -0.000444328 -4.47683e-06)
(-0.000533736 -0.000517535 3.74012e-05)
(-0.000602354 -0.000583079 8.40792e-05)
(-0.00067756 -0.000637073 0.000131747)
(-0.000755726 -0.000678558 0.000177959)
(-0.000833672 -0.000708472 0.000220989)
(-0.000908665 -0.000728515 0.000259489)
(-0.000978325 -0.000740335 0.000291966)
(-0.00104066 -0.000745758 0.000316878)
(-0.00109441 -0.000747331 0.000333462)
(-0.00113956 -0.00074811 0.000342204)
(-0.00117728 -0.000751053 0.000344343)
(-0.00120926 -0.000758267 0.000341196)
(-0.00123895 -0.000770281 0.000334402)
(-0.00126819 -0.000785887 0.000325148)
(-0.00129824 -0.000804149 0.000314237)
(-0.00132927 -0.000824127 0.000302064)
(-0.00136223 -0.00084577 0.000289067)
(-0.00139713 -0.000868745 0.000275358)
(-0.00143379 -0.000892834 0.000260922)
(-0.00147184 -0.000917785 0.000245586)
(-0.00151079 -0.00094332 0.000229055)
(-0.00155006 -0.000969053 0.000210865)
(-0.00158916 -0.000994601 0.000190448)
(-0.00162733 -0.00101937 0.000167168)
(-0.00166354 -0.00104253 0.000139811)
(-0.00169655 -0.00106315 0.000107293)
(-0.00172259 -0.00107957 6.78187e-05)
(-0.00173732 -0.00108925 2.28375e-05)
(-0.000318854 -0.000188324 -3.30148e-05)
(-0.000385572 -0.000262114 -5.60631e-05)
(-0.000426962 -0.00033037 -4.05393e-05)
(-0.000474497 -0.000402367 -1.37933e-05)
(-0.000532533 -0.00047358 2.38328e-05)
(-0.000601169 -0.000539336 6.68945e-05)
(-0.000677675 -0.000595545 0.000112069)
(-0.000758254 -0.000640471 0.000157083)
(-0.00083937 -0.000674115 0.00020006)
(-0.00091793 -0.000697403 0.000239255)
(-0.000991282 -0.000711657 0.0002728)
(-0.00105741 -0.000718832 0.000298995)
(-0.0011151 -0.000721629 0.000316964)
(-0.00116417 -0.000723093 0.000327017)
(-0.00120555 -0.000725984 0.000330331)
(-0.00124115 -0.000732164 0.00032831)
(-0.00127341 -0.0007427 0.000322377)
(-0.00130448 -0.000756887 0.000313702)
(-0.00133573 -0.000773757 0.000303207)
(-0.00136871 -0.000793104 0.000291642)
(-0.00140328 -0.000813947 0.000279194)
(-0.00143977 -0.000836111 0.000266102)
(-0.00147796 -0.000859344 0.000252369)
(-0.00151743 -0.000883384 0.000237812)
(-0.00155764 -0.000907934 0.000222109)
(-0.00159799 -0.000932626 0.000204761)
(-0.00163802 -0.000957123 0.000185182)
(-0.00167697 -0.000980864 0.000162752)
(-0.00171389 -0.00100305 0.000136238)
(-0.00174753 -0.00102271 0.000104624)
(-0.00177401 -0.00103836 6.61753e-05)
(-0.00178892 -0.00104767 2.22809e-05)
(-0.000315179 -0.000159788 -1.30171e-05)
(-0.000381666 -0.000227923 -5.655e-05)
(-0.000422097 -0.000290946 -4.48205e-05)
(-0.000467546 -0.000358641 -2.24255e-05)
(-0.000523772 -0.000427213 1.06641e-05)
(-0.000591853 -0.000492599 4.96663e-05)
(-0.000669331 -0.000550609 9.18627e-05)
(-0.000752182 -0.000598669 0.000135227)
(-0.00083641 -0.000635751 0.000177739)
(-0.000918531 -0.000662042 0.0002173)
(-0.000995723 -0.00067865 0.000251742)
(-0.00106582 -0.000687566 0.000279182)
(-0.00112748 -0.00069156 0.000298602)
(-0.00118049 -0.000693696 0.000310135)
(-0.00122576 -0.000696751 0.000314834)
(-0.001265 -0.000702531 0.00031407)
(-0.00130024 -0.000711868 0.000309161)
(-0.001334 -0.000724847 0.000301397)
(-0.0013681 -0.000740958 0.000291807)
(-0.00140233 -0.00075891 0.000280755)
(-0.00143856 -0.000778734 0.000268919)
(-0.00147663 -0.0007999 0.000256507)
(-0.00151632 -0.000822126 0.000243552)
(-0.0015571 -0.000845129 0.000229844)
(-0.00159845 -0.000868635 0.000215043)
(-0.00163969 -0.000892255 0.000198592)
(-0.0016804 -0.000915646 0.00017988)
(-0.00171984 -0.000938242 0.00015831)
(-0.00175708 -0.000959279 0.000132629)
(-0.0017912 -0.000977924 0.000101928)
(-0.00181791 -0.000992743 6.45205e-05)
(-0.00183276 -0.00100156 2.17209e-05)
(-0.000306913 -0.000131877 4.63122e-06)
(-0.000372235 -0.000193669 -5.65425e-05)
(-0.000411102 -0.000251433 -4.82614e-05)
(-0.000453802 -0.000314263 -3.01701e-05)
(-0.000507369 -0.000379471 -1.81715e-06)
(-0.000574078 -0.0004437 3.27004e-05)
(-0.000651874 -0.000502819 7.13611e-05)
(-0.000736555 -0.000553468 0.000112496)
(-0.000823775 -0.000593701 0.000154041)
(-0.00090967 -0.000622978 0.000193632)
(-0.000990996 -0.000641998 0.0002288)
(-0.00106541 -0.00065274 0.000257471)
(-0.00113152 -0.00065808 0.000278479)
(-0.00118894 -0.000661069 0.00029174)
(-0.00123816 -0.000664282 0.000298023)
(-0.00128076 -0.00066958 0.000298601)
(-0.00131915 -0.000678143 0.000294902)
(-0.00135541 -0.000690038 0.000288129)
(-0.00139086 -0.000704582 0.000279205)
(-0.00142763 -0.0007216 0.000268999)
(-0.00146564 -0.00074024 0.000257888)
(-0.00150539 -0.000760256 0.000246274)
(-0.00154653 -0.000781309 0.000234203)
(-0.00158849 -0.000803119 0.000221448)
(-0.00163065 -0.000825379 0.000207622)
(-0.00167236 -0.000847738 0.000192116)
(-0.00171333 -0.000869824 0.000174299)
(-0.00175289 -0.000891083 0.000153624)
(-0.00179022 -0.000910876 0.000128819)
(-0.00182453 -0.000928384 9.9072e-05)
(-0.00185127 -0.000942286 6.27685e-05)
(-0.00186595 -0.00095053 2.11285e-05)
(-0.000291122 -0.000104024 1.95156e-05)
(-0.000357059 -0.000160048 -5.56986e-05)
(-0.000393061 -0.000212058 -5.08102e-05)
(-0.000432178 -0.000269461 -3.67951e-05)
(-0.000482157 -0.000330518 -1.32828e-05)
(-0.000546583 -0.000392713 1.63349e-05)
(-0.000624087 -0.000452262 5.08367e-05)
(-0.000710375 -0.00050515 8.90832e-05)
(-0.000800495 -0.000548322 0.00012907)
(-0.000890044 -0.000580412 0.000168209)
(-0.000975615 -0.000601846 0.000203828)
(-0.00105455 -0.000614451 0.000233634)
(-0.00112509 -0.000621003 0.000256211)
(-0.00118662 -0.000624559 0.000271214)
(-0.00123981 -0.000627885 0.000279258)
(-0.00128623 -0.00063294 0.000281482)
(-0.00132776 -0.000640736 0.000279146)
(-0.0013668 -0.000651676 0.000273533)
(-0.00140544 -0.000665494 0.000265711)
(-0.00144355 -0.0006809 0.000256189)
(-0.0014835 -0.00069828 0.000245923)
(-0.00152494 -0.000716976 0.00023522)
(-0.00156753 -0.000736693 0.000224166)
(-0.00161053 -0.000757116 0.000212483)
(-0.00165335 -0.000777985 0.000199746)
(-0.00169529 -0.00079891 0.000185266)
(-0.00173628 -0.000819563 0.000168403)
(-0.00177574 -0.000839402 0.000148682)
(-0.0018128 -0.000857818 0.000124787)
(-0.00184713 -0.000874144 9.60462e-05)
(-0.00187368 -0.000887052 6.09146e-05)
(-0.00188808 -0.000894678 2.05018e-05)
(-0.000269613 -7.75555e-05 3.1662e-05)
(-0.000336656 -0.000128371 -5.41279e-05)
(-0.00036948 -0.000174372 -5.2467e-05)
(-0.000404128 -0.000226033 -4.21598e-05)
(-0.000449469 -0.000282177 -2.33686e-05)
(-0.000510387 -0.000341264 1.08141e-06)
(-0.000586369 -0.00040013 3.08028e-05)
(-0.000673208 -0.000454334 6.53662e-05)
(-0.000765732 -0.000500012 0.000103059)
(-0.000859132 -0.000535018 0.00014124)
(-0.000949195 -0.000559022 0.000176995)
(-0.00103291 -0.000573608 0.000207812)
(-0.00110842 -0.000581568 0.00023204)
(-0.00117497 -0.000586018 0.000249066)
(-0.00123269 -0.000589583 0.000259136)
(-0.00128268 -0.000594164 0.000263113)
(-0.00132725 -0.000601097 0.000262267)
(-0.00136861 -0.000610776 0.000257815)
(-0.00140842 -0.000622789 0.000250782)
(-0.00144955 -0.000637215 0.000242323)
(-0.00149146 -0.000653141 0.000232982)
(-0.00153477 -0.000670394 0.000223331)
(-0.00157882 -0.000688619 0.000213443)
(-0.00162281 -0.000707536 0.000202983)
(-0.00166602 -0.00072684 0.000191445)
(-0.00170786 -0.000746192 0.00017807)
(-0.00174849 -0.000765264 0.000162209)
(-0.0017874 -0.000783529 0.000143485)
(-0.0018239 -0.000800518 0.00012054)
(-0.00185791 -0.000815551 9.28442e-05)
(-0.00188404 -0.000827428 5.89564e-05)
(-0.00189799 -0.000834378 1.98407e-05)
(-0.000241006 -5.28789e-05 4.0749e-05)
(-0.000308472 -9.81974e-05 -5.14997e-05)
(-0.000338204 -0.000138111 -5.28394e-05)
(-0.000367667 -0.000183609 -4.58562e-05)
(-0.000407208 -0.000233932 -3.15975e-05)
(-0.000463289 -0.00028872 -1.25007e-05)
(-0.00053679 -0.000345914 1.18161e-05)
(-0.000623939 -0.000401045 4.18417e-05)
(-0.000718794 -0.000449137 7.64039e-05)
(-0.000815619 -0.000486868 0.000112905)
(-0.000910145 -0.000513534 0.000148335)
(-0.000998874 -0.000530309 0.000179944)
(-0.00107932 -0.000539674 0.000205729)
(-0.00115021 -0.000544628 0.000224681)
(-0.00121181 -0.000548066 0.000236785)
(-0.00126571 -0.000552266 0.000242767)
(-0.00131379 -0.000558487 0.000243663)
(-0.00135843 -0.000567243 0.000240664)
(-0.00140191 -0.00057842 0.000234935)
(-0.00144434 -0.000590927 0.000227286)
(-0.00148857 -0.000605319 0.000219008)
(-0.00153381 -0.00062093 0.000210551)
(-0.00157938 -0.000637512 0.000202008)
(-0.00162417 -0.000654755 0.000192924)
(-0.0016676 -0.000672407 0.000182727)
(-0.00170903 -0.000690101 0.00017055)
(-0.001749 -0.000707543 0.000155749)
(-0.00178716 -0.000724239 0.00013808)
(-0.00182266 -0.000739729 0.000116104)
(-0.00185618 -0.000753461 8.94927e-05)
(-0.00188165 -0.000764268 5.69122e-05)
(-0.00189503 -0.000770533 1.91519e-05)
(-0.00020855 -3.1662e-05 4.68874e-05)
(-0.00027521 -7.10556e-05 -4.8178e-05)
(-0.000302455 -0.000105404 -5.22672e-05)
(-0.000326857 -0.000144917 -4.8063e-05)
(-0.000359925 -0.000189014 -3.77906e-05)
(-0.000409733 -0.000238408 -2.38452e-05)
(-0.000478694 -0.000292308 -5.3216e-06)
(-0.000563791 -0.000346649 1.93072e-05)
(-0.000659478 -0.000396185 4.97479e-05)
(-0.000759803 -0.000436803 8.38037e-05)
(-0.000858863 -0.000466364 0.000118356)
(-0.000952534 -0.00048547 0.000150413)
(-0.00103818 -0.00049649 0.000177673)
(-0.00111448 -0.000502501 0.000198782)
(-0.00118118 -0.000506325 0.000213272)
(-0.0012389 -0.000510048 0.000221386)
(-0.00128973 -0.000515161 0.000223998)
(-0.00133629 -0.000522344 0.000222276)
(-0.00138101 -0.000531522 0.000217467)
(-0.00142721 -0.000542911 0.000211062)
(-0.00147389 -0.00055555 0.000203938)
(-0.00152144 -0.000569424 0.000196881)
(-0.0015686 -0.000584213 0.000189891)
(-0.00161419 -0.000599699 0.000182384)
(-0.0016575 -0.000615584 0.000173663)
(-0.00169808 -0.00063154 0.000162762)
(-0.00173689 -0.000647269 0.00014905)
(-0.0017737 -0.000662291 0.000132463)
(-0.00180785 -0.000676287 0.000111477)
(-0.00184052 -0.000688653 8.59783e-05)
(-0.00186506 -0.000698387 5.47754e-05)
(-0.00187767 -0.000703953 1.84326e-05)
(-0.000169968 -1.38444e-05 4.94124e-05)
(-0.000233828 -4.66001e-05 -4.35464e-05)
(-0.000258591 -7.52774e-05 -5.00804e-05)
(-0.000277614 -0.000108436 -4.81539e-05)
(-0.000303006 -0.000145362 -4.12188e-05)
(-0.00034471 -0.000187858 -3.20032e-05)
(-0.000407832 -0.000237132 -1.95127e-05)
(-0.00049101 -0.000290341 -1.17556e-06)
(-0.000587694 -0.000341342 2.40178e-05)
(-0.000690349 -0.000384398 5.45402e-05)
(-0.000793611 -0.000417023 8.74421e-05)
(-0.000892503 -0.000438968 0.000119505)
(-0.000983371 -0.00045198 0.000148007)
(-0.00106407 -0.000458833 0.00017105)
(-0.00113421 -0.000462549 0.00018771)
(-0.00119539 -0.000465812 0.00019802)
(-0.0012499 -0.000470288 0.000202608)
(-0.00130033 -0.000476647 0.000202511)
(-0.00134903 -0.000484793 0.000199028)
(-0.00139674 -0.000493961 0.000193496)
(-0.00144649 -0.000504781 0.000187691)
(-0.00149646 -0.000516676 0.000182226)
(-0.00154534 -0.000529542 0.000177043)
(-0.00159148 -0.000543126 0.000171316)
(-0.00163444 -0.000557215 0.000164238)
(-0.00167381 -0.000571445 0.000154707)
(-0.00171117 -0.000585524 0.00014213)
(-0.00174647 -0.000598968 0.000126681)
(-0.00177878 -0.000611491 0.000106689)
(-0.00181044 -0.00062253 8.23256e-05)
(-0.00183376 -0.000631208 5.25639e-05)
(-0.00184548 -0.000636106 1.769e-05)
(-0.00013018 -8.45557e-07 4.89659e-05)
(-0.000189507 -2.67829e-05 -3.82386e-05)
(-0.000212939 -5.03241e-05 -4.70308e-05)
(-0.00022844 -7.80028e-05 -4.69816e-05)
(-0.000247607 -0.000108557 -4.25545e-05)
(-0.000280993 -0.000143929 -3.71674e-05)
(-0.000335296 -0.000186614 -3.0297e-05)
(-0.000411026 -0.000235209 -1.86112e-05)
(-0.000504737 -0.000285332 4.14877e-07)
(-0.000609655 -0.000330931 2.63694e-05)
(-0.000716642 -0.000366747 5.66992e-05)
(-0.000819931 -0.000391616 8.80909e-05)
(-0.000915546 -0.000406892 0.000117439)
(-0.00100128 -0.000415337 0.000142404)
(-0.00107649 -0.00041998 0.000161522)
(-0.0011414 -0.000423161 0.000174118)
(-0.00119791 -0.000426564 0.000180399)
(-0.00124939 -0.000431173 0.000181404)
(-0.00129979 -0.000437378 0.000178789)
(-0.00135232 -0.000445291 0.00017453)
(-0.00140537 -0.000454047 0.000170141)
(-0.00145846 -0.000463912 0.000166571)
(-0.0015092 -0.000474719 0.000163492)
(-0.00155592 -0.00048639 0.000159813)
(-0.00159812 -0.000498658 0.00015454)
(-0.00163572 -0.000511162 0.000146451)
(-0.00167094 -0.000523562 0.000135006)
(-0.00170399 -0.000535377 0.000120704)
(-0.00173401 -0.000546513 0.000101711)
(-0.00176426 -0.000556208 7.84995e-05)
(-0.0017861 -0.000563874 5.02576e-05)
(-0.0017967 -0.000568125 1.69153e-05)
(-8.64194e-05 8.3203e-06 4.49443e-05)
(-0.000138391 -1.02623e-05 -3.1421e-05)
(-0.000159904 -2.82061e-05 -4.19924e-05)
(-0.000171081 -4.96471e-05 -4.34098e-05)
(-0.000181071 -7.22055e-05 -4.0462e-05)
(-0.000202912 -9.84622e-05 -3.73747e-05)
(-0.000247086 -0.000133263 -3.48993e-05)
(-0.0003195 -0.000178643 -3.01968e-05)
(-0.000412014 -0.000228216 -1.90739e-05)
(-0.000515918 -0.000274797 6.51606e-07)
(-0.0006259 -0.000314043 2.7201e-05)
(-0.000733866 -0.000342702 5.70713e-05)
(-0.000834339 -0.000361065 8.67603e-05)
(-0.000923966 -0.000371359 0.000113235)
(-0.00100139 -0.000376533 0.000134285)
(-0.00106826 -0.000379663 0.00014883)
(-0.00112788 -0.000382935 0.000156839)
(-0.00118367 -0.000387222 0.00015919)
(-0.00123779 -0.000392263 0.000157463)
(-0.00129245 -0.000397821 0.000153956)
(-0.00134988 -0.000404519 0.000151177)
(-0.00140621 -0.00041209 0.000149784)
(-0.001459 -0.000420758 0.00014917)
(-0.00150593 -0.000430423 0.000147802)
(-0.00154703 -0.000440916 0.000144524)
(-0.0015824 -0.000451812 0.000137961)
(-0.00161528 -0.000462722 0.000127676)
(-0.00164603 -0.000473116 0.00011458)
(-0.00167323 -0.000482978 9.65741e-05)
(-0.00170197 -0.000491412 7.4526e-05)
(-0.00172197 -0.000498122 4.78733e-05)
(-0.00173135 -0.000501805 1.61156e-05)
(-4.73744e-05 1.14665e-05 3.85534e-05)
(-9.02834e-05 -8.95372e-08 -2.32913e-05)
(-0.000111383 -1.28947e-05 -3.49194e-05)
(-0.00012326 -2.92495e-05 -3.65661e-05)
(-0.000136935 -4.67782e-05 -3.52157e-05)
(-0.000152886 -6.52525e-05 -3.53705e-05)
(-0.000187151 -9.06316e-05 -3.76375e-05)
(-0.000232118 -0.000123539 -3.92421e-05)
(-0.000311689 -0.000169696 -3.36333e-05)
(-0.000416502 -0.00021883 -2.06855e-05)
(-0.000527177 -0.00026062 7.43638e-07)
(-0.000637559 -0.000292989 2.80723e-05)
(-0.00074107 -0.000314565 5.72458e-05)
(-0.000833756 -0.000327427 8.47466e-05)
(-0.000914656 -0.000334643 0.000107677)
(-0.000984015 -0.000338821 0.000124023)
(-0.00104394 -0.000341749 0.00013302)
(-0.00109914 -0.000344612 0.000135608)
(-0.00115622 -0.000348401 0.000134232)
(-0.001217 -0.000352752 0.000131695)
(-0.00127912 -0.000357178 0.000130626)
(-0.00133979 -0.000362513 0.000131862)
(-0.00139475 -0.000368974 0.000134128)
(-0.00144194 -0.000376735 0.00013541)
(-0.00148142 -0.000385537 0.000134305)
(-0.00151386 -0.000394933 0.000129314)
(-0.00154347 -0.00040438 0.000120135)
(-0.00157095 -0.000413308 0.000108235)
(-0.0015948 -0.000422068 9.12101e-05)
(-0.00162161 -0.000429235 7.033e-05)
(-0.0016396 -0.000435108 4.53721e-05)
(-0.00164746 -0.000438249 1.52749e-05)
(-1.62649e-05 1.21534e-05 3.03087e-05)
(-4.08358e-05 6.34721e-06 -1.61813e-05)
(-5.74149e-05 -1.77399e-06 -2.7341e-05)
(-6.60756e-05 -1.25142e-05 -3.77593e-05)
(-5.80449e-05 -2.93581e-05 -3.1467e-05)
(-5.99845e-05 -3.37447e-05 -2.22944e-05)
(-8.56424e-05 -5.5012e-05 -2.02145e-05)
(-0.000168007 -8.12536e-05 -2.09598e-05)
(-0.000231556 -0.000114657 -3.89422e-05)
(-0.000307935 -0.000158217 -3.68535e-05)
(-0.000419227 -0.000205122 -2.0675e-05)
(-0.000531028 -0.000241157 2.63603e-06)
(-0.000637484 -0.000267146 3.05106e-05)
(-0.00073249 -0.000283495 5.84325e-05)
(-0.000813119 -0.000292675 8.23994e-05)
(-0.000881136 -0.000297918 9.95781e-05)
(-0.000942024 -0.000301903 0.000108983)
(-0.00100126 -0.000305609 0.000111602)
(-0.00106037 -0.00030831 0.00010978)
(-0.00112466 -0.000310635 0.000107518)
(-0.00119321 -0.000313022 0.000108401)
(-0.00125818 -0.000315934 0.000112683)
(-0.0013155 -0.000320248 0.000118315)
(-0.00136229 -0.00032611 0.000122547)
(-0.00139962 -0.000333389 0.000123799)
(-0.0014286 -0.000341498 0.000120428)
(-0.00145491 -0.000349785 0.000112352)
(-0.00147946 -0.000357564 0.000101729)
(-0.00149934 -0.000365418 8.56542e-05)
(-0.0015243 -0.000371453 6.59478e-05)
(-0.00153976 -0.000376523 4.27704e-05)
(-0.00154611 -0.000379221 1.44006e-05)
(-3.83825e-07 1.26505e-05 2.5195e-05)
(-9.28843e-06 5.22818e-06 -1.11212e-05)
(-1.68295e-05 2.09619e-06 -1.89992e-05)
(-2.66862e-05 -5.12601e-06 -2.8297e-05)
(-2.72747e-05 -1.31559e-05 -3.19199e-05)
(-3.2054e-05 -1.99128e-05 -3.2882e-05)
(-3.9888e-05 -3.75242e-05 -4.50429e-05)
(-4.70666e-05 -7.2264e-05 -2.70921e-05)
(-0.000109255 -9.45699e-05 -1.13249e-06)
(-0.0002143 -0.000108917 -1.76787e-05)
(-0.000306009 -0.000144875 -3.37823e-05)
(-0.000420466 -0.000189226 -1.5611e-05)
(-0.000526552 -0.000218119 8.474e-06)
(-0.000619666 -0.000238152 3.5784e-05)
(-0.000698921 -0.00025059 6.00734e-05)
(-0.00076562 -0.000258581 7.73648e-05)
(-0.000823473 -0.000263752 8.57143e-05)
(-0.000879796 -0.000267165 8.64759e-05)
(-0.000945034 -0.00027055 8.36424e-05)
(-0.00101662 -0.000272173 8.14318e-05)
(-0.00109176 -0.000272466 8.43729e-05)
(-0.00116257 -0.000273316 9.23531e-05)
(-0.00122214 -0.000275623 0.000101866)
(-0.00126855 -0.000279887 0.000109418)
(-0.00130307 -0.000285875 0.000113173)
(-0.00132774 -0.000292894 0.000111406)
(-0.00134954 -0.000300042 0.00010429)
(-0.00136973 -0.000306537 9.4906e-05)
(-0.0013852 -0.000313763 7.97804e-05)
(-0.00140779 -0.000318601 6.12402e-05)
(-0.00142082 -0.000323046 3.99998e-05)
(-0.00142533 -0.000325322 1.34638e-05)
(1.75771e-05 9.10391e-06 2.69875e-05)
(1.69754e-05 8.98195e-06 -4.0809e-06)
(1.09523e-05 6.9255e-06 -1.15878e-05)
(2.48178e-06 2.33588e-06 -8.77523e-06)
(-1.25232e-05 6.72913e-06 -1.83839e-05)
(-2.24417e-05 -7.48194e-06 -3.38254e-05)
(-3.63447e-05 -2.38274e-05 -3.53477e-05)
(-2.40013e-05 -2.5852e-05 -3.04808e-05)
(-4.65779e-05 -4.4764e-05 -2.10838e-05)
(-9.87365e-05 -5.42637e-05 -1.35066e-05)
(-0.000235415 -8.75125e-05 -2.83963e-05)
(-0.000308322 -0.000131485 -3.27818e-05)
(-0.000412212 -0.000169172 -7.29481e-06)
(-0.000504705 -0.000193516 1.93547e-05)
(-0.000579649 -0.000209505 4.31577e-05)
(-0.000639437 -0.000219914 5.89399e-05)
(-0.000693543 -0.000227603 6.45371e-05)
(-0.00075155 -0.000233398 6.22306e-05)
(-0.000813854 -0.000235725 5.63293e-05)
(-0.000892076 -0.000236784 5.3394e-05)
(-0.000976537 -0.000235814 5.86555e-05)
(-0.00105251 -0.000234689 7.08926e-05)
(-0.00111425 -0.00023539 8.48282e-05)
(-0.0011591 -0.000238231 9.59308e-05)
(-0.00119005 -0.000243243 0.000102284)
(-0.00120983 -0.000249425 0.000102081)
(-0.00122751 -0.000255824 9.58769e-05)
(-0.0012446 -0.000261466 8.7872e-05)
(-0.00125477 -0.000268224 7.36451e-05)
(-0.00127557 -0.000272059 5.62776e-05)
(-0.00128535 -0.000275788 3.70825e-05)
(-0.00128816 -0.00027776 1.24745e-05)
(2.9944e-05 1.76975e-05 4.78405e-05)
(3.55738e-05 1.59959e-05 -7.36278e-06)
(3.42717e-05 1.05085e-05 -1.3407e-05)
(2.84506e-05 2.26585e-06 -1.4439e-05)
(1.56271e-05 -6.20466e-06 -1.30692e-05)
(7.93753e-06 -9.37559e-06 -6.18979e-06)
(-5.71541e-06 -2.51404e-06 7.37304e-06)
(-3.51014e-05 2.93057e-05 -1.15823e-05)
(-3.22561e-05 6.32396e-06 -4.04451e-05)
(-3.77009e-05 -1.48243e-05 -2.96034e-05)
(-9.17958e-05 -7.21371e-05 -2.58978e-05)
(-0.000212959 -9.09578e-05 -5.00139e-06)
(-0.000303869 -0.000116989 -1.58002e-05)
(-0.000383548 -0.000146464 9.99244e-06)
(-0.000446504 -0.000164367 3.21274e-05)
(-0.000495751 -0.000177917 4.48329e-05)
(-0.000541151 -0.00018807 4.55059e-05)
(-0.000595148 -0.000195495 3.78267e-05)
(-0.000670511 -0.000202698 2.83653e-05)
(-0.000755062 -0.000204183 2.37211e-05)
(-0.00084817 -0.000202322 3.14462e-05)
(-0.000931216 -0.000200259 4.87223e-05)
(-0.000994319 -0.000199884 6.75359e-05)
(-0.00103759 -0.000201901 8.24358e-05)
(-0.00106409 -0.00020631 9.13876e-05)
(-0.00107809 -0.000211873 9.25987e-05)
(-0.00109009 -0.000217385 8.70344e-05)
(-0.00110174 -0.000221712 8.03126e-05)
(-0.00110672 -0.000228394 6.70324e-05)
(-0.00112481 -0.000230988 5.08132e-05)
(-0.00113208 -0.00023417 3.39053e-05)
(-0.00113287 -0.000235848 1.1385e-05)
(4.03495e-05 2.27544e-05 6.1107e-05)
(5.27451e-05 2.31816e-05 -7.00904e-06)
(5.56431e-05 1.96528e-05 -1.70851e-05)
(5.41443e-05 1.1435e-05 -2.19172e-05)
(4.85387e-05 1.62503e-06 -2.33301e-05)
(3.9648e-05 -6.55382e-06 -2.23686e-05)
(2.39048e-05 -1.169e-05 -1.7878e-05)
(-3.21679e-06 -7.9122e-06 -1.60524e-05)
(-1.80459e-05 -2.34524e-07 -3.96842e-05)
(-3.12037e-05 -2.21398e-05 -4.93878e-05)
(-3.43667e-05 -4.80314e-05 -2.24426e-05)
(-0.000111029 -6.10174e-05 1.64628e-06)
(-0.000202522 -7.11566e-05 -6.99642e-06)
(-0.000277856 -0.000103891 1.05541e-05)
(-0.000327689 -0.000124466 3.04874e-05)
(-0.000362408 -0.000140201 3.88824e-05)
(-0.000395996 -0.000152395 3.17913e-05)
(-0.00044401 -0.00016185 1.63801e-05)
(-0.000506962 -0.000166643 7.55826e-07)
(-0.000605987 -0.000171955 -6.69897e-06)
(-0.00071139 -0.000171307 3.40813e-06)
(-0.000799079 -0.000168866 2.62712e-05)
(-0.000862843 -0.000168389 5.02587e-05)
(-0.000902427 -0.000169879 6.88413e-05)
(-0.000923525 -0.00017411 8.02324e-05)
(-0.000931358 -0.000179181 8.2659e-05)
(-0.000938809 -0.000184164 7.76359e-05)
(-0.000948491 -0.000187862 7.24929e-05)
(-0.000946481 -0.000194234 6.00574e-05)
(-0.000963786 -0.000196078 4.50313e-05)
(-0.000967205 -0.000198349 3.05214e-05)
(-0.000966276 -0.000199835 1.02153e-05)
(4.66568e-05 2.36331e-05 6.48853e-05)
(6.15618e-05 2.47821e-05 -6.17067e-06)
(6.77334e-05 2.18882e-05 -1.68705e-05)
(7.00949e-05 1.39506e-05 -2.26307e-05)