/*--------------------------------*- C++ -*----------------------------------*\
  =========                 |
  \\      /  F ield         | OpenFOAM: The Open Source CFD Toolbox
   \\    /   O peration     | Website:  https://openfoam.org
    \\  /    A nd           | Version:  6
     \\/     M anipulation  |
\*---------------------------------------------------------------------------*/
FoamFile
{
    version     2.0;
    format      ascii;
    class       volScalarField;
    location    "21";
    object      yPlus;
}
// * * * * * * * * * * * * * * * * * * * * * * * * * * * * * * * * * * * * * //

dimensions      [0 0 0 0 0 0 0];

internalField   uniform 0;

boundaryField
{
    inlet
    {
        type            calculated;
        value           uniform 0;
    }
    outlet
    {
        type            calculated;
        value           uniform 0;
    }
    roughCylinder
    {
        type            calculated;
        value           nonuniform List<scalar> 
5120
(
42.5038
50.2578
56.4154
62.417
67.5548
71.6977
75.0053
77.6719
79.8521
81.6811
83.2771
84.7079
86.011
87.2179
88.3577
89.4591
90.5537
91.6736
92.8394
94.0619
95.3535
96.717
98.148
99.6391
101.179
102.755
104.347
105.932
107.47
108.892
110.056
110.737
41.804
49.2768
55.2396
61.1064
66.175
70.285
73.5757
76.2349
78.4153
80.2501
81.8517
83.2825
84.5729
85.7624
86.8841
87.9706
89.0507
90.1454
91.2792
92.4772
93.7422
95.0763
96.4774
97.9372
99.4443
100.985
102.541
104.09
105.591
106.979
108.114
108.777
41.0382
48.2639
54.0428
59.775
64.774
68.8539
72.1329
74.7922
76.9828
78.8338
80.4494
81.8863
83.175
84.3571
85.4634
86.5232
87.5699
88.6413
89.7594
90.9277
92.1646
93.4712
94.8427
96.2714
97.7462
99.2528
100.774
102.286
103.751
105.105
106.21
106.856
40.2386
47.2311
52.826
58.4198
63.3491
67.4038
70.6793
73.3491
75.5606
77.4356
79.0677
80.5103
81.7957
82.9628
84.0518
85.1005
86.1409
87.1903
88.2721
89.4214
90.6333
91.9121
93.2552
94.6541
96.0969
97.5696
99.0556
100.531
101.961
103.28
104.358
104.985
39.4015
46.1713
51.5807
57.0331
61.8945
65.9316
69.2137
71.9034
74.1433
76.0472
77.7011
79.1561
80.4485
81.6169
82.7012
83.7298
84.7361
85.7647
86.8423
87.9596
89.1464
90.4
91.7159
93.0857
94.4982
95.9385
97.3906
98.8318
100.225
101.512
102.561
103.172
38.5424
45.0918
50.3084
55.6123
60.4056
64.4324
67.7318
70.4524
72.7308
74.6721
76.3529
77.8245
79.1253
80.2914
81.3609
82.3804
83.3887
84.4002
85.4343
86.5428
87.7069
88.9359
90.226
91.5685
92.9507
94.359
95.7769
97.1826
98.5423
99.7962
100.818
101.411
37.6406
43.9757
48.9936
54.1423
58.8686
62.8954
66.2263
68.9898
71.3122
73.2915
75.0021
76.4939
77.8074
78.9835
80.0621
81.0753
82.0541
83.0495
84.0965
85.168
86.3113
87.5179
88.7837
90.0995
91.454
92.8317
94.2175
95.5904
96.9148
98.138
99.1325
99.7087
36.7225
42.8382
47.6448
52.6252
57.28
61.3127
64.6857
67.5024
69.8811
71.9127
73.6633
75.186
76.5248
77.7161
78.7923
79.7978
80.7844
81.7675
82.761
83.8384
84.9618
86.1479
87.391
88.6824
90.0084
91.3554
92.7085
94.0461
95.3385
96.5289
97.497
98.0562
35.7238
41.6265
46.2126
51.013
55.5935
59.6444
63.0825
65.9752
68.4216
70.5061
72.3004
73.8561
75.2147
76.4181
77.5118
78.532
79.5041
80.482
81.5114
82.5441
83.6523
84.8192
86.0416
87.3086
88.6094
89.9278
91.25
92.5564
93.814
94.9755
95.9167
96.4587
34.719
40.3961
44.7461
49.3442
53.8354
57.9035
61.4127
64.388
66.917
69.08
70.935
72.5389
73.943
75.1872
76.2983
77.3147
78.2957
79.264
80.2293
81.2885
82.3805
83.5323
84.7357
85.9819
87.2555
88.544
89.8335
91.1036
92.3296
93.4587
94.3741
94.8987
33.535
39.0017
43.1049
47.4806
51.8701
55.9675
59.5882
62.699
65.3438
67.589
69.5134
71.1735
72.612
73.8694
74.9973
76.0441
77.0342
78.0174
79.0447
80.0494
81.1341
82.2709
83.458
84.682
85.9325
87.1931
88.4525
89.6926
90.8832
91.9839
92.8732
93.3802
32.3465
37.6036
41.4459
45.5713
49.83
53.9405
57.663
60.897
63.6689
66.0435
68.0655
69.7981
71.3041
72.6337
73.8133
74.8687
75.8611
76.8262
77.7788
78.8363
79.9102
81.0398
82.2129
83.4202
84.6451
85.8755
87.1011
88.3037
89.462
90.5306
91.3932
91.882
30.8361
35.8949
39.4446
43.2677
47.35
51.473
55.3688
58.8519
61.843
64.3599
66.5017
68.3349
69.907
71.2591
72.4483
73.5428
74.576
75.5898
76.6293
77.6207
78.6976
79.8177
80.9805
82.1685
83.3725
84.5757
85.7721
86.9451
88.0682
89.1086
89.9447
90.416
29.3234
34.2025
37.4719
40.9819
44.8596
48.9589
52.9712
56.6181
59.8088
62.5616
64.874
66.8223
68.4913
69.951
71.2396
72.3708
73.3975
74.3726
75.3371
76.4132
77.4873
78.6121
79.7678
80.9449
82.1246
83.2968
84.4568
85.589
86.6776
87.6851
88.4939
88.9453
27.2233
31.9319
34.8475
37.9001
41.404
45.4025
49.6602
53.7981
57.4416
60.4601
63.0027
65.1441
66.946
68.4618
69.7562
70.926
72.0314
73.1084
74.1742
75.175
76.268
77.3912
78.5454
79.7061
80.8667
82.0116
83.1431
84.2468
85.2981
86.2774
87.0577
87.4913
25.0179
29.6334
32.2931
34.9975
38.2314
42.1463
46.46
50.6908
54.6274
58.135
61.002
63.3474
65.3009
66.9687
68.4258
69.6816
70.7728
71.7752
72.7923
73.9165
75.0191
76.1659
77.3229
78.4803
79.6182
80.7294
81.8187
82.8747
83.8882
84.8322
85.5841
85.9948
21.5975
26.1974
28.4667
30.4204
32.6843
35.9709
40.6044
46.0786
51.0705
55.0792
58.4615
61.2148
63.446
65.261
66.7408
68.0283
69.2438
70.4285
71.5335
72.5812
73.7306
74.888
76.0567
77.2013
78.3206
79.4024
80.464
81.4933
82.4652
83.3809
84.1
84.4914
17.5227
22.4812
24.6906
26.4198
28.7102
32.2338
36.6662
41.099
46.3635
51.6316
55.6463
58.8172
61.3319
63.3648
65.0895
66.5468
67.7507
68.8089
69.96
71.1803
72.3598
73.574
74.7604
75.9124
77.0098
78.0524
79.0606
80.0282
80.9562
81.8317
82.5219
82.8858
9.35172
15.2586
17.3424
17.9484
15.8617
15.2035
20.0824
32.0923
40.3058
46.1246
51.6279
55.7097
58.8222
61.2353
63.0739
64.5599
65.941
67.2969
68.4365
69.6141
70.899
72.1455
73.3659
74.5081
75.586
76.593
77.5744
78.5213
79.3974
80.2461
80.8923
81.2352
5.23614
10.2588
11.8838
13.6
14.2519
13.0234
15.1304
16.3775
27.3789
40.3536
46.6246
51.9469
55.7248
58.4588
60.6247
62.4026
63.8059
65.0006
66.5002
67.9014
69.2588
70.6286
71.892
73.0585
74.1118
75.0677
75.9745
76.8299
77.654
78.4509
79.0701
79.3768
10.8562
14.7754
15.3634
14.4536
14.6635
15.2308
20.4489
21.5063
22.9202
26.9031
40.9847
46.7914
51.7802
55.4847
58.0677
59.9246
61.5512
63.1486
64.2637
65.8233
67.4334
68.8827
70.2227
71.381
72.41
73.3171
74.1965
75.0501
75.7959
76.574
77.1254
77.4072
19.6689
23.8144
25.317
25.4627
24.0622
20.9781
16.3544
19.6101
17.0397
7.62824
21.1412
39.9527
46.7525
50.7941
53.5874
55.7358
57.4892
59.1733
61.6794
63.4165
65.2229
66.9524
68.3834
69.5957
70.5901
71.4159
72.1809
72.871
73.5582
74.2548
74.7876
75.0171
22.4591
27.1939
29.613
31.1085
31.5328
30.7117
28.2673
23.8187
19.9123
17.3276
14.2887
25.9737
39.4133
46.0037
49.9649
52.5507
54.4548
56.1403
57.1309
60.1417
62.6222
64.5514
66.1516
67.351
68.3017
69.052
69.7816
70.5392
71.0661
71.784
72.1942
72.3864
23.4069
28.2846
30.9935
32.9667
34.118
34.3424
33.4015
30.7143
25.3687
23.7794
23.4932
20.221
33.0459
38.7119
41.283
42.0433
43.9041
48.2407
53.6754
55.877
59.1412
61.7868
63.5735
64.8785
65.766
66.3449
66.8798
67.2637
67.7618
68.2955
68.7239
68.8379
22.9171
27.9012
30.7319
32.9089
34.3718
35.0568
34.808
33.2252
29.5414
24.5205
29.2359
26.3565
25.3231
26.6035
27.3
28.7686
30.0905
31.2509
38.5177
49.76
54.7889
57.9788
60.1443
61.4088
62.1583
62.6105
63.0857
63.838
63.8445
64.6152
64.7761
64.7872
21.4383
26.5308
29.4357
31.7546
33.4681
34.5638
34.9866
34.5332
32.672
28.6297
25.813
27.7003
29.8518
23.0811
27.1395
33.5522
37.6309
36.3515
27.5311
36.7246
48.3449
53.6114
56.0994
57.5131
58.1199
58.0915
58.1473
57.7441
58.0836
58.1463
58.5074
58.4523
19.3162
24.4989
27.4467
29.8747
31.7966
33.2411
34.2267
34.7292
34.5431
33.0005
29.1572
26.7315
27.9471
25.835
33.3668
40.396
46.9875
48.9257
43.2327
24.8324
38.741
46.5246
49.8498
51.0971
51.0775
50.7981
51.1134
52.4996
50.6807
52.2061
52.5991
51.7943
16.7217
21.9436
24.8838
27.3655
29.4311
31.1334
32.5238
33.6622
34.5916
35.2036
35.0146
34.005
34.1582
36.4716
39.2345
43.48
50.7598
54.8114
51.5799
35.3431
29.1151
40.1828
43.6046
45.0636
44.1779
42.5744
40.4491
39.211
39.7922
37.3875
35.42
35.1488
13.9699
19.0905
21.9107
24.3191
26.3868
28.183
29.7729
31.2335
32.6585
34.1078
35.5073
36.5762
37.6987
39.0896
39.5691
44.2796
52.2522
56.5639
52.8619
41.399
21.4321
26.8876
29.8046
28.2591
23.999
19.1601
27.9867
27.2206
42.1123
25.6049
33.3362
34.2348
11.5768
16.3017
18.8532
21.0376
22.9459
24.653
26.224
27.7325
29.2651
30.9009
32.6986
34.5477
36.2128
37.1762
39.5095
45.8228
53.2479
56.6344
51.6342
40.0018
13.7244
10.8085
13.4441
23.3025
4.73036
21.3352
36.897
31.7265
37.4474
28.9612
39.1452
37.2842
9.70894
14.0579
16.2971
18.207
19.9013
21.4566
22.931
24.3773
25.8461
27.3822
29.0019
30.8433
32.8461
35.4537
39.5136
46.0458
53.0277
55.8136
50.4042
38.7867
14.2336
23.8455
24.5984
32.8404
24.0067
33.3162
40.2357
35.1381
34.1734
27.7573
29.9105
28.8968
8.70811
12.7683
14.7698
16.4772
18.0204
19.4749
20.889
22.2925
23.7077
25.168
26.7485
28.4246
30.4627
33.1478
37.6806
44.6638
51.6127
54.202
49.215
40.282
31.7395
25.3575
34.209
28.5419
32.5157
33.4979
35.5194
34.8309
38.4303
37.5509
37.3293
39.2523
8.3866
12.3371
14.2428
15.8789
17.3826
18.8225
20.2314
21.6235
23.0085
24.4073
25.8638
27.5673
29.6096
32.4568
36.8115
42.9826
49.2774
51.7194
47.4775
40.5575
37.4194
32.1638
33.5668
35.226
39.7871
39.6273
41.8535
40.2594
41.7396
41.7928
42.3299
42.7593
8.55705
12.5277
14.4464
16.1093
17.6497
19.1253
20.5568
21.9497
23.311
24.6637
26.0533
27.5173
29.3237
31.7998
35.4488
40.6496
46.1131
48.4537
45.3008
40.3862
38.7457
38.0693
38.1884
39.5291
41.7028
41.3545
43.0751
41.8785
41.8003
42.5237
43.1326
43.0517
9.04615
13.0965
15.0806
16.8189
18.4326
19.9666
21.4314
22.8271
24.1602
25.453
26.7533
28.1551
29.7109
31.6594
34.4625
38.4044
42.7131
44.8665
42.9479
39.6508
39.0059
39.4933
39.9412
40.6591
41.8767
41.6617
42.5612
41.6451
41.1051
41.9088
42.3391
42.1018
9.73323
13.886
15.9533
17.7834
19.4808
21.0774
22.5755
23.973
25.2788
26.5176
27.7278
28.9599
30.3417
31.9974
34.0782
36.783
39.8211
41.6347
40.7771
38.8252
38.5158
39.4861
40.0777
40.4755
41.1251
40.8269
40.9897
40.1814
39.699
40.3804
40.6958
40.4786
10.5621
14.8257
16.9808
18.9036
20.681
22.3334
23.8584
25.2557
26.5378
27.7323
28.8777
30.0166
31.1816
32.4676
34.0127
35.8909
37.9305
39.3174
39.1661
38.1542
37.9655
38.762
39.3225
39.5447
39.8069
39.363
39.0532
38.2914
38.0715
38.609
38.9106
38.811
11.4749
15.8617
18.1059
20.1177
21.9679
23.6685
25.2159
26.6131
27.8774
29.0388
30.1321
31.1897
32.2534
33.3569
34.5502
35.8723
37.2022
38.1806
38.348
37.8802
37.6847
38.1044
38.4262
38.4753
38.4269
37.8659
37.3132
36.6316
36.6713
37.1295
37.4951
37.5456
12.3892
16.9522
19.2874
21.3843
23.3015
25.0454
26.6136
28.0138
29.2689
30.412
31.4759
32.4826
33.4477
34.3978
35.3579
36.3312
37.2895
38.0126
38.2402
38.0312
37.8279
37.8917
37.8986
37.7238
37.4147
36.7729
36.132
35.5582
35.7765
36.2268
36.6883
36.8795
13.3797
18.0723
20.4986
22.6793
24.6602
26.4449
28.0341
29.4418
30.6973
31.836
32.8873
33.8678
34.7882
35.6554
36.4812
37.2693
37.9646
38.486
38.7143
38.6165
38.3803
38.1858
37.9094
37.505
36.9839
36.2818
35.6284
35.1657
35.484
35.9682
36.524
36.8321
13.4324
13.8648
14.354
14.7495
15.1275
15.4279
15.6883
15.8897
16.0496
16.1618
16.2369
16.2731
16.2746
16.2438
16.1844
16.0988
15.9902
15.8644
15.7344
15.6348
15.6638
15.7928
15.9391
16.0764
16.1951
16.291
16.3614
16.4057
16.4204
16.4045
16.3522
16.2688
16.1429
15.9842
15.7712
15.5306
15.2113
14.8894
14.4608
14.0897
18.1311
18.5796
19.0887
19.5027
19.8996
20.2228
20.5073
20.7349
20.9223
21.0635
21.1679
21.2343
21.2652
21.2616
21.2258
21.1595
21.0644
20.9452
20.8139
20.7079
20.737
20.8726
21.02
21.1512
21.2576
21.3361
21.3857
21.4067
21.3967
21.3559
21.2807
21.1761
21.0316
20.8564
20.63
20.3777
20.0513
19.7224
19.2846
18.9085
20.5665
21.0403
21.5795
22.0193
22.4453
22.8001
23.1205
23.3868
23.616
23.8017
23.952
24.0661
24.1451
24.1883
24.1964
24.17
24.1097
24.0189
23.9085
23.8142
23.8415
23.9637
24.0893
24.1916
24.2632
24.3022
24.3092
24.2853
24.2293
24.1433
24.0255
23.8807
23.6991
23.4903
23.2335
22.9556
22.6064
22.2584
21.7974
21.4039
22.7559
23.2484
23.8103
24.2699
24.7208
25.1037
25.4568
25.7597
26.029
26.2583
26.4534
26.614
26.7403
26.8303
26.883
26.8977
26.8742
26.8154
26.7319
26.6586
26.6821
26.7817
26.8795
26.9493
26.9836
26.9815
26.9444
26.8743
26.7718
26.6406
26.4802
26.2953
26.0765
25.8353
25.55
25.2488
24.8798
24.5175
24.0402
23.635
24.7358
25.2317
25.8012
26.2674
26.7305
27.1292
27.5028
27.8308
28.1289
28.3915
28.623
28.8214
28.9865
29.1151
29.205
29.2544
29.2629
29.2326
29.1749
29.1228
29.1424
29.2193
29.291
29.3318
29.334
29.2969
29.2225
29.114
28.9734
28.8049
28.6097
28.3925
28.1462
27.8828
27.58
27.2668
26.89
26.5261
26.0473
25.6455
26.5063
26.9896
27.5533
28.0145
28.4789
28.8836
29.2688
29.615
29.9366
30.2268
30.4888
30.7196
30.9175
31.079
31.2007
31.2801
31.3159
31.3103
31.2743
31.2389
31.2558
31.3145
31.3639
31.3798
31.3544
31.2873
31.181
31.0395
30.8663
30.6662
30.4414
30.1973
29.929
29.6477
29.3341
29.0174
28.6431
28.2892
27.8224
27.4409
28.0706
28.5309
29.0817
29.5329
29.9947
30.4039
30.8009
31.1648
31.5083
31.8239
32.114
32.3737
32.6013
32.792
32.9418
33.0473
33.1066
33.1214
33.1025
33.0786
33.0938
33.1395
33.1713
33.1663
33.1171
33.0237
32.8892
32.7185
32.516
32.2875
32.0357
31.7667
31.4776
31.1796
30.8555
30.5346
30.1644
29.8247
29.3767
29.027
29.4483
29.8825
30.4206
30.8637
31.326
31.7437
32.1539
32.536
32.9008
33.2404
33.5559
33.8424
34.0964
34.3128
34.4872
34.615
34.6937
34.7248
34.7185
34.7019
34.7163
34.7535
34.772
34.7502
34.6809
34.5649
34.4059
34.2093
33.9807
33.7261
33.4496
33.1575
32.8485
32.5334
32.1977
31.8702
31.5008
31.1711
30.7401
30.4253
30.6711
31.0812
31.6106
32.051
32.5177
32.9454
33.3693
33.769
34.1534
34.5149
34.8531
35.1627
35.4396
35.6782
35.873
36.0192
36.1137
36.1572
36.1595
36.1473
36.161
36.193
36.2022
36.1672
36.0817
35.9469
35.7672
35.5486
35.2971
35.02
34.7215
34.4087
34.0814
33.7505
33.4033
33.0679
32.6971
32.3735
31.9539
31.6713
31.7702
32.1593
32.6837
33.1244
33.5963
34.0342
34.4708
34.8861
35.2877
35.6678
36.0253
36.3544
36.6504
36.9071
37.1186
37.2794
37.386
37.4387
37.4465
37.4364
37.4498
37.4789
37.4816
37.4368
37.3387
37.1887
36.992
36.7552
36.4851
36.1888
35.8718
35.5414
35.1986
34.854
34.4967
34.1544
33.7822
33.4635
33.0542
32.8011
32.7668
33.1357
33.6567
34.0976
34.5743
35.0209
35.4682
35.8967
36.3126
36.7082
37.0816
37.4265
37.7378
38.0089
38.2336
38.4057
38.5215
38.5808
38.5925
38.5835
38.5967
38.6237
38.6217
38.5694
38.4614
38.2997
38.0898
37.8384
37.5531
37.2415
36.9095
36.5649
36.2094
35.8538
35.4887
35.1414
34.7694
34.4571
34.0598
33.8387
33.6704
34.0179
34.5337
34.9741
35.4543
35.9081
36.3643
36.8037
37.2313
37.6396
38.0256
38.3832
38.7067
38.989
39.2238
39.4048
39.5278
39.5927
39.6079
39.6003
39.6129
39.6374
39.6308
39.5724
39.4565
39.2856
39.0652
38.8025
38.5053
38.1816
37.8378
37.4819
37.1165
36.7524
36.382
36.0319
35.6627
35.3597
34.9782
34.7958
34.482
34.8051
35.3137
35.7524
36.2349
36.6945
37.1582
37.6068
38.0443
38.4628
38.8591
39.2268
39.5597
39.8511
40.0938
40.2818
40.4111
40.4813
40.5014
40.4969
40.5084
40.5282
40.5161
40.4514
40.3289
40.1504
39.9218
39.6503
39.3439
39.0107
38.6577
38.293
37.9199
37.5494
37.1756
36.825
36.4609
36.1709
35.8109
35.6764
35.2001
35.4943
35.9929
36.4285
36.9126
37.3776
37.8479
38.3046
38.7506
39.1779
39.5829
39.9587
40.2993
40.5976
40.8468
41.0409
41.1759
41.2523
41.2788
41.2793
41.289
41.3019
41.2824
41.2111
41.0822
40.8974
40.6621
40.3838
40.0701
39.7295
39.3692
38.9974
38.6183
38.2431
37.8671
37.5179
37.1612
36.8883
36.5566
36.484
35.8232
36.082
36.5668
36.9981
37.4831
37.9531
38.4299
38.8946
39.3485
39.7838
40.1962
40.5791
40.9261
41.2303
41.485
41.6846
41.8256
41.9086
41.9428
41.9492
41.957
41.9614
41.9331
41.8543
41.719
41.5284
41.2877
41.0036
40.6841
40.3375
39.9712
39.5934
39.2093
38.8301
38.453
38.1063
37.7597
37.5081
37.2141
37.2185
36.3522
36.5643
37.0301
37.4551
37.9403
38.4155
38.8993
39.3719
39.8339
40.2769
40.6965
41.0858
41.4386
41.748
42.0077
42.2125
42.3593
42.4496
42.4918
42.504
42.5096
42.5053
42.4675
42.3807
42.2389
42.043
41.7972
41.5082
41.1837
40.8319
40.4602
40.0771
39.6883
39.3055
38.9279
38.5844
38.2502
38.0233
37.7786
37.8735
36.7885
36.9364
37.3753
37.7912
38.2757
38.7563
39.2474
39.7286
40.1992
40.6502
41.0771
41.4728
41.8311
42.1454
42.4099
42.6197
42.7723
42.8695
42.9191
42.9364
42.94
42.9275
42.8803
42.7855
42.6373
42.436
42.1856
41.8921
41.5631
41.2064
40.8296
40.4414
40.0478
39.6613
39.283
38.9434
38.6222
38.4247
38.2303
38.439
37.1363
37.1931
37.5907
37.995
38.4771
38.9634
39.4622
39.9529
40.4327
40.8924
41.327
41.7294
42.0934
42.4128
42.682
42.8967
43.0549
43.1584
43.2145
43.2356
43.2371
43.2175
43.1619
43.0594
42.9049
42.6983
42.4432
42.1454
41.8118
41.4502
41.0682
40.6745
40.2758
39.8851
39.5056
39.1691
38.8605
38.6904
38.544
38.8512
37.4006
37.3335
37.6677
38.0515
38.5302
39.0216
39.529
40.0299
40.5197
40.9889
41.4319
41.8415
42.2118
42.5365
42.8106
43.0301
43.1935
43.3025
43.3639
43.3878
43.3874
43.3616
43.2984
43.1888
43.0282
42.8163
42.5565
42.2541
41.9156
41.5486
41.1608
40.7609
40.3563
39.9603
39.5784
39.2432
38.9441
38.7928
38.6818
39.0363
37.5832
37.3575
37.6017
37.9499
38.4195
38.9162
39.4319
39.9435
40.4441
40.9236
41.3757
41.7933
42.1703
42.5008
42.7801
43.0043
43.1725
43.2863
43.3516
43.3774
43.3752
43.3441
43.2741
43.1579
42.9912
42.7739
42.5089
42.201
41.8569
41.4835
41.0887
40.6812
40.269
39.8658
39.4788
39.1413
38.846
38.704
38.6083
38.9714
37.6723
37.264
37.3932
37.688
38.1378
38.6369
39.1601
39.6821
40.1933
40.6834
41.1449
41.5708
41.9548
42.2915
42.5758
42.8048
42.9772
43.0947
43.163
43.1898
43.1854
43.1496
43.0736
42.9512
42.7784
42.5552
42.2841
41.9698
41.6183
41.2368
40.8328
40.4151
39.9921
39.5777
39.1809
38.8349
38.5381
38.3976
38.3203
38.7067
37.6289
37.0381
37.0408
37.2679
37.6868
38.1813
38.7119
39.2432
39.7645
40.2642
40.7346
41.1683
41.5591
41.9013
42.1905
42.4233
42.5989
42.7191
42.7889
42.8156
42.8089
42.7687
42.6872
42.5586
42.3797
42.15
41.8717
41.5496
41.1891
40.7972
40.3813
39.9499
39.5122
39.0817
38.6698
38.3091
38.0067
37.8734
37.8516
38.3337
37.3767
36.6467
36.544
36.7061
37.0902
37.5735
38.1065
38.6451
39.1739
39.6808
40.1579
40.5974
40.9932
41.3393
41.6315
41.8667
42.0438
42.1647
42.2342
42.2594
42.2498
42.2053
42.1188
41.9848
41.7998
41.5634
41.2777
40.947
40.5765
40.173
39.7437
39.2972
38.8426
38.3937
37.9636
37.5847
37.2823
37.1719
37.23
37.8393
36.8647
36.0707
35.9122
36.0315
36.3883
36.8588
37.3896
37.9326
38.4645
38.9747
39.4544
39.8961
40.2933
40.6402
40.9325
41.1669
41.3426
41.4612
41.5279
41.5497
41.5363
41.488
41.3977
41.2595
41.0698
40.8279
40.5358
40.1974
39.8181
39.4043
38.9631
38.503
38.0335
37.5687
37.1218
36.7336
36.4422
36.3681
36.51
37.2431
36.145
35.369
35.2118
35.3182
35.6618
36.1214
36.6461
37.1865
37.716
38.2237
38.7005
39.139
39.5325
39.8754
40.1631
40.3924
40.5624
40.6748
40.7349
40.7508
40.7327
40.6814
40.5891
40.4492
40.2574
40.0128
39.7172
39.3744
38.9896
38.5693
38.1202
37.6511
37.1716
36.6949
36.2392
35.8509
35.5747
35.5343
35.7397
36.5678
35.5565
34.764
34.5968
34.689
35.0184
35.4648
35.9783
36.5096
37.0317
37.5318
38.0007
38.4309
38.8159
39.1497
39.428
39.6474
39.8069
39.9084
39.9576
39.9645
39.941
39.8884
39.7979
39.6606
39.4712
39.2286
38.9344
38.5926
38.2084
37.7876
37.3379
36.867
36.3853
35.9054
35.4486
35.0631
34.7949
34.7657
34.9852
35.8309
35.063
34.3089
34.1678
34.268
34.5948
35.0312
35.5314
36.0481
36.5549
37.04
37.4939
37.9091
38.2788
38.5976
38.8605
39.0644
39.208
39.2931
39.3261
39.3194
39.2889
39.2377
39.153
39.023
38.8409
38.6052
38.3178
37.9826
37.6049
37.1906
36.747
36.2821
35.8061
35.3318
34.8803
34.4984
34.2296
34.1916
34.3897
35.201
34.9493
34.2256
34.1021
34.2026
34.5192
34.937
35.4145
35.9065
36.3903
36.8532
37.2857
37.68
38.0292
38.3278
38.5711
38.7556
38.8795
38.9443
38.9565
38.9317
38.8936
38.848
38.7752
38.658
38.4883
38.2652
37.9905
37.6687
37.3046
36.9045
36.4753
36.0254
35.5644
35.1056
34.6665
34.2908
34.0172
33.9563
34.1072
34.8391
35.1064
34.4697
34.3959
34.5119
34.8239
35.222
35.6711
36.1301
36.5834
37.0168
37.4212
37.7885
38.1121
38.3862
38.6061
38.7682
38.8705
38.9134
38.9027
38.8556
38.807
38.7695
38.7107
38.6075
38.4519
38.2433
37.9846
37.6799
37.3349
36.9559
36.5503
36.1271
35.697
35.2756
34.8799
34.5476
34.3134
34.2884
34.4589
35.1993
35.5394
35.0037
34.9932
35.1303
35.4398
35.8171
36.2362
36.6621
37.0818
37.4826
37.8553
38.1923
38.4872
38.7346
38.9298
39.069
39.15
39.1725
39.1413
39.0733
39.0134
38.9847
38.9395
38.85
38.7088
38.5161
38.2749
37.9898
37.666
37.3101
36.9291
36.532
36.1293
35.7368
35.372
35.0691
34.8556
34.8387
35.0018
35.7199
36.2706
35.7242
35.6951
35.8048
36.0842
36.4285
36.8151
37.2124
37.6064
37.9834
38.3341
38.6507
38.9267
39.1568
39.3362
39.4612
39.5297
39.5409
39.499
39.4205
39.3553
39.3342
39.2994
39.2208
39.092
38.9133
38.6879
38.4205
38.1163
37.7816
37.4234
37.0505
36.6734
36.3074
35.9695
35.6946
35.5043
35.4996
35.6527
36.342
36.8268
36.2534
36.2023
36.2921
36.5527
36.8785
37.2489
37.6313
38.0113
38.3752
38.7132
39.0178
39.2826
39.5022
39.6721
39.7887
39.8496
39.8546
39.8075
39.7249
39.6579
39.64
39.6101
39.538
39.4166
39.2469
39.0318
38.7759
38.4843
38.1631
37.8193
37.4612
37.0991
36.7475
36.4224
36.1574
35.9712
35.9619
36.091
36.7339
42.622
50.3885
56.5563
62.5637
67.7036
71.8466
75.1537
77.8191
79.9975
81.8248
83.4202
84.8497
86.1518
87.3582
88.4989
89.6036
90.7017
91.8201
92.9811
94.2005
95.4869
96.8419
98.2623
99.7407
101.267
102.829
104.408
105.981
107.512
108.924
110.089
110.77
41.9402
49.4231
55.3951
61.2665
66.3353
70.4435
73.7319
76.3886
78.567
80.4015
82.0046
83.4372
84.7302
85.9219
87.0441
88.1273
89.202
90.2959
91.4316
92.6242
93.8822
95.2077
96.5971
98.0431
99.5355
101.061
102.604
104.141
105.634
107.012
108.148
108.812
41.1722
48.4112
54.2013
59.9397
64.9403
69.0197
72.2981
74.9565
77.1459
78.9961
80.6111
82.0468
83.3332
84.5134
85.6192
86.6829
87.736
88.8064
89.9165
91.0827
92.3133
93.6097
94.9685
96.3823
97.8412
99.3321
100.839
102.338
103.795
105.138
106.246
106.892
40.3975
47.4005
53.0056
58.6045
63.5335
67.5851
70.8567
73.5225
75.731
77.6048
79.2375
80.6811
81.9685
83.1393
84.2311
85.2773
86.31
87.3582
88.4456
89.5869
90.7906
92.0588
93.3878
94.7703
96.1961
97.6518
99.1228
100.585
102.006
103.314
104.395
105.023
39.5542
46.3382
51.7598
57.2189
62.0813
66.1171
69.3981
72.0877
74.3278
76.2322
77.8861
79.3404
80.6312
81.7969
82.8785
83.9098
84.9252
85.9538
87.0182
88.1355
89.3142
90.5554
91.8557
93.2077
94.6011
96.0236
97.4603
98.8869
100.273
101.546
102.6
103.211
38.7258
45.287
50.5159
55.8261
60.6192
64.6421
67.9362
70.6513
72.925
74.8633
76.5433
78.0149
79.3165
80.4851
81.5602
82.5804
83.58
84.5901
85.6357
86.7316
87.8861
89.1016
90.3742
91.6966
93.0586
94.4475
95.8491
97.2404
98.5913
99.8311
100.858
101.452
37.8155
44.1651
49.1968
54.3529
59.0797
63.1034
66.432
69.1958
71.5205
73.5021
75.2138
76.7069
78.0218
79.1978
80.2726
81.2855
82.274
83.27
84.2962
85.3711
86.5036
87.6947
88.9409
90.2348
91.5664
92.9236
94.2923
95.6494
96.967
98.1726
99.1749
99.7521
36.9294
43.0583
47.8806
52.8706
57.5272
61.5563
64.9235
67.733
70.104
72.1302
73.8792
75.4015
76.7394
77.9307
79.0136
80.0246
81.0051
81.9879
83.0007
84.0586
85.1701
86.3381
87.5588
88.825
90.1268
91.4516
92.7859
94.1083
95.3911
96.565
97.5408
98.1019
35.9228
41.8393
46.4411
51.2506
55.8312
59.8765
63.3093
66.2017
68.6538
70.7447
72.5424
74.1017
75.4666
76.6781
77.7726
78.7905
79.7685
80.746
81.7444
82.7852
83.8782
85.0247
86.2213
87.4607
88.7332
90.028
91.3305
92.62
93.8711
95.0105
95.9632
96.5079
34.9423
40.6332
45.0027
49.6161
54.1142
58.1825
61.6885
64.6568
67.1737
69.3268
71.1803
72.7862
74.1905
75.4313
76.5477
77.5758
78.5597
79.5327
80.5253
81.555
82.631
83.7572
84.9303
86.1435
87.3872
88.6492
89.918
91.1721
92.3877
93.4961
94.423
94.9506
33.7511
39.2291
43.3501
47.7385
52.1294
56.2186
59.8283
62.936
65.5935
67.8555
69.7889
71.4561
72.9065
74.185
75.3274
76.3758
77.3671
78.3462
79.3319
80.3499
81.4119
82.5196
83.6703
84.8576
86.072
87.3043
88.541
89.7626
90.948
92.0199
92.9252
93.437
32.5651
37.8333
41.6986
45.8469
50.1223
54.2445
57.9764
61.2116
63.9646
66.3196
68.3408
70.0823
71.5967
72.9234
74.1052
75.1782
76.1908
77.1733
78.1624
79.177
80.2267
81.3172
82.4466
83.6085
84.7948
85.9932
87.195
88.3796
89.5279
90.5687
91.4489
91.9437
31.0348
36.1005
39.6702
43.5123
47.6025
51.716
55.5893
59.0606
62.0843
64.6462
66.8115
68.6591
70.2498
71.6405
72.8686
73.9809
75.0116
76.0141
77.0048
78.0129
79.0534
80.1291
81.2382
82.3753
83.532
84.7012
85.8711
87.0236
88.1422
89.1441
90.0038
90.4832
29.4801
34.3658
37.6592
41.198
45.1029
49.2386
53.303
56.9911
60.1484
62.8568
65.1698
67.1426
68.8409
70.3094
71.603
72.7577
73.8322
74.8491
75.8543
76.8692
77.9036
78.9657
80.0555
81.1682
82.2969
83.4302
84.5627
85.6758
86.7544
87.7228
88.5582
89.0197
27.2976
32.0065
34.9394
38.0214
41.5583
45.5453
49.742
53.8291
57.5811
60.7307
63.3357
65.5111
67.344
68.923
70.2928
71.5167
72.622
73.6778
74.6967
75.7108
76.7419
77.7934
78.8654
79.9537
81.0515
82.1552
83.255
84.3352
85.3852
86.3114
87.1269
87.5727
24.953
29.5871
32.2799
34.9996
38.1933
42.2054
46.7238
51.1717
54.9996
58.3925
61.2755
63.6828
65.7142
67.4268
68.9111
70.2025
71.386
72.4713
73.519
74.5555
75.5882
76.6306
77.6852
78.7494
79.8185
80.8824
81.9402
82.9768
83.9812
84.8676
85.6593
86.0878
21.2272
25.8356
28.0973
30.1549
32.8993
35.8585
40.0888
45.2652
50.7906
55.2143
58.7539
61.6034
63.9004
65.823
67.432
68.8453
70.0769
71.2289
72.3082
73.3492
74.3861
75.423
76.4622
77.5018
78.537
79.5692
80.5926
81.5945
82.5702
83.4108
84.1822
84.5933
16.8858
22.0283
24.3696
25.6832
23.6407
30.2598
36.5722
42.0894
46.4821
51.5133
55.7182
59.065
61.7854
63.9612
65.8004
67.328
68.699
69.9039
71.0314
72.1198
73.1696
74.2029
75.2258
76.2403
77.244
78.2301
79.2028
80.1537
81.0748
81.8602
82.6106
83.0067
6.67067
12.9201
14.9681
17.0782
16.977
17.1349
16.03
26.8948
39.2159
45.7831
51.5132
55.9753
59.2857
61.928
63.9747
65.7274
67.1739
68.4939
69.6841
70.7808
71.8443
72.8783
73.8889
74.8767
75.841
76.7897
77.7251
78.6373
79.5281
80.2661
80.9929
81.3669
9.15509
7.91858
9.2353
10.8824
13.8347
11.3726
17.3779
7.84744
18.914
37.6666
45.7949
51.5678
56.0099
59.1894
61.7972
63.7807
65.501
66.9151
68.1835
69.3739
70.4688
71.5071
72.5013
73.461
74.3868
75.2782
76.1461
76.994
77.8154
78.4634
79.177
79.5426
9.1922
13.6681
14.9304
16.0302
18.0252
14.3656
13.0752
9.98111
5.0979
17.6405
36.7108
46.0506
51.8855
56.3279
59.2536
61.6881
63.5228
65.1578
66.5536
67.7515
68.8736
69.9222
70.9075
71.8354
72.7114
73.5533
74.3782
75.1802
75.9658
76.5713
77.252
77.5858
18.67
22.8816
24.4129
24.6645
23.818
22.0774
19.2183
14.0891
15.5051
13.8895
18.642
35.0665
45.4382
51.1072
55.7661
58.7591
61.244
63.0518
64.5805
65.9739
67.1656
68.231
69.1985
70.0902
70.9108
71.6721
72.3964
73.1085
73.8014
74.2292
74.919
75.2631
21.1942
26.074
28.6608
30.4576
31.3401
31.2609
30.0111
27.1427
22.4318
20.7404
24.9252
21.5685
36.2545
46.791
51.5956
55.7035
58.256
60.565
62.3811
63.7624
65.0025
66.0966
67.0601
67.9082
68.6581
69.3448
70.0156
70.6653
71.3028
71.7223
72.3544
72.6504
22.2788
27.2712
30.1176
32.3741
34.0152
35.0248
35.3386
34.7414
32.5636
27.3268
25.1418
8.87251
10.8132
33.4798
44.9038
50.0587
54.6848
57.3109
59.3604
61.2055
62.6081
63.7456
64.6856
65.4763
66.1299
66.6753
67.1662
67.6777
68.1922
68.1808
68.8864
69.2457
21.9809
27.1262
30.1631
32.6857
34.6626
36.0914
36.9792
37.3182
37.0096
35.5906
31.3485
25.1091
9.42354
13.4009
35.0322
46.1992
49.2359
53.1975
56.0033
57.698
59.1842
60.3837
61.3348
62.0478
62.5825
62.9982
63.4542
63.8188
64.2243
64.3669
64.924
65.2646
20.6734
25.9588
29.1005
31.7718
33.9497
35.6367
36.8567
37.6477
38.0381
37.956
36.8858
33.0888
27.8275
20.8833
17.741
27.7292
43.1179
47.3146
50.4133
53.4612
55.3471
56.6508
57.5462
58.1463
58.4712
58.562
58.4908
58.7515
58.998
57.7901
58.7011
59.1856
18.8004
24.1897
27.3685
30.099
32.3756
34.2141
35.6445
36.7236
37.5268
38.105
38.3481
37.6602
33.9658
27.9548
25.2955
24.5011
28.2283
39.6011
44.7919
46.7079
48.7461
50.1775
51.1653
51.5101
51.7179
51.3819
52.2054
51.1603
51.7268
51.4754
51.2749
53.223
16.6104
22.0025
25.1224
27.813
30.0946
32.0056
33.5895
34.9028
36.0262
37.0348
37.9265
38.4623
37.7794
33.4955
29.8717
30.8198
23.1538
22.1767
32.1194
39.3372
42.5086
43.6983
44.9175
44.8845
44.0025
43.3047
39.8765
41.5757
39.0676
35.0448
37.5714
36.521
14.3568
19.6108
22.5656
25.1138
27.3076
29.2075
30.8732
32.3684
33.767
35.1427
36.5122
37.7499
38.4349
37.4904
32.5391
23.5712
26.7563
24.8201
16.0191
26.4798
22.5326
26.8802
26.2406
24.9121
28.3743
19.7827
30.1969
11.5159
38.2909
24.7743
3.7458
32.8184
12.3387
17.321
20.0273
22.3553
24.3896
26.209
27.8837
29.4807
31.0664
32.7037
34.4291
36.1814
37.7257
38.5311
37.5629
32.3284
26.4218
27.333
23.8998
32.5674
24.0128
29.0791
23.1258
19.1333
35.1797
16.2392
33.3403
13.955
39.8641
32.2933
11.8369
35.3736
10.7735
15.4006
17.8336
19.9161
21.7614
23.4618
25.0909
26.7105
28.3738
30.1288
32.0168
34.0369
36.0765
37.8214
38.6991
37.7904
34.1035
28.5586
24.6419
29.1642
24.2862
12.7866
27.4756
22.6981
34.5719
30.3475
35.1948
32.5405
36.6075
34.4782
30.6726
29.8449
9.61415
13.9891
16.1875
18.0604
19.7436
21.3329
22.8957
24.4796
26.1216
27.858
29.7279
31.7658
33.9602
36.166
38.0213
38.9442
38.384
36.844
33.5126
30.3736
27.308
25.5589
24.8133
28.3641
30.4606
35.0664
34.5076
38.6009
36.3427
36.4587
41.8521
36.8477
8.99428
13.1699
15.2016
16.9374
18.5212
20.0391
21.5414
23.0574
24.6097
26.2265
27.9463
29.8183
31.8848
34.1309
36.3903
38.2713
39.267
39.4989
38.3949
37.7798
36.8563
37.0159
36.4875
38.8802
38.5957
41.3219
41.2299
43.2359
41.6073
40.2783
44.1929
41.8289
8.80853
12.8906
14.8477
16.5328
18.0875
19.5807
21.0425
22.4863
23.9251
25.3821
26.8945
28.5121
30.2936
32.2863
34.4734
36.6775
38.5202
39.747
39.8745
40.1849
40.176
40.4609
40.4549
41.5623
41.0143
42.4526
42.6179
43.398
42.1848
41.0287
43.72
42.5561
8.98463
13.055
15.0128
16.7171
18.2969
19.8022
21.246
22.6316
23.9684
25.278
26.5935
27.9576
29.4231
31.0507
32.8896
34.9191
36.9619
38.7365
39.7662
40.6299
41.0774
41.3945
41.5303
42.0187
41.269
42.2064
42.287
42.4817
41.3703
40.6638