/*--------------------------------*- C++ -*----------------------------------*\
  =========                 |
  \\      /  F ield         | OpenFOAM: The Open Source CFD Toolbox
   \\    /   O peration     | Website:  https://openfoam.org
    \\  /    A nd           | Version:  6
     \\/     M anipulation  |
\*---------------------------------------------------------------------------*/
FoamFile
{
    version     2.0;
    format      ascii;
    class       volScalarField;
    location    "40";
    object      nut;
}
// * * * * * * * * * * * * * * * * * * * * * * * * * * * * * * * * * * * * * //

dimensions      [0 2 -1 0 0 0 0];

internalField   nonuniform List<scalar> 
720
(
8.10311e-08
8.10311e-08
8.10335e-08
2.59847e-08
2.59847e-08
2.59858e-08
4.40686e-08
4.4069e-08
4.40708e-08
6.5366e-08
6.53676e-08
6.53696e-08
9.01619e-08
9.01657e-08
9.01664e-08
1.19813e-07
1.1982e-07
1.19819e-07
1.5608e-07
1.56091e-07
1.56088e-07
2.01383e-07
2.01399e-07
2.01391e-07
2.59417e-07
2.59438e-07
2.59425e-07
3.35281e-07
3.3531e-07
3.35288e-07
1.33251e-05
1.33251e-05
1.33252e-05
1.63832e-06
1.63832e-06
1.63836e-06
2.12012e-06
2.12013e-06
2.12017e-06
2.51147e-06
2.5115e-06
2.51153e-06
2.82557e-06
2.82561e-06
2.82562e-06
3.08809e-06
3.08815e-06
3.08815e-06
3.31272e-06
3.31279e-06
3.31277e-06
3.50745e-06
3.50751e-06
3.50748e-06
3.67798e-06
3.67804e-06
3.678e-06
3.82749e-06
3.82754e-06
3.8275e-06
1.56408e-05
1.56408e-05
1.56409e-05
5.09427e-06
5.09428e-06
5.09435e-06
5.68021e-06
5.68024e-06
5.68031e-06
6.30087e-06
6.30094e-06
6.30098e-06
6.8078e-06
6.8079e-06
6.8079e-06
7.23485e-06
7.23498e-06
7.23496e-06
7.60411e-06
7.60425e-06
7.60421e-06
7.92938e-06
7.92951e-06
7.92945e-06
8.22114e-06
8.22127e-06
8.22119e-06
8.48615e-06
8.48626e-06
8.48618e-06
1.76434e-05
1.76434e-05
1.76435e-05
9.99455e-06
9.99455e-06
9.9947e-06
1.03227e-05
1.03227e-05
1.03228e-05
1.11759e-05
1.1176e-05
1.11761e-05
1.19162e-05
1.19164e-05
1.19165e-05
1.25502e-05
1.25504e-05
1.25504e-05
1.31018e-05
1.31021e-05
1.3102e-05
1.35891e-05
1.35894e-05
1.35893e-05
1.40266e-05
1.40269e-05
1.40267e-05
1.4424e-05
1.44242e-05
1.44241e-05
1.94836e-05
1.94836e-05
1.94838e-05
1.66212e-05
1.66212e-05
1.66214e-05
1.61729e-05
1.6173e-05
1.61732e-05
1.71428e-05
1.71431e-05
1.71432e-05
1.81015e-05
1.81019e-05
1.81019e-05
1.89548e-05
1.89553e-05
1.89552e-05
1.97106e-05
1.97112e-05
1.9711e-05
2.03846e-05
2.03851e-05
2.03849e-05
2.09924e-05
2.09929e-05
2.09926e-05
2.15459e-05
2.15463e-05
2.15461e-05
2.12376e-05
2.12377e-05
2.12378e-05
2.50203e-05
2.50203e-05
2.50208e-05
2.34376e-05
2.34378e-05
2.34381e-05
2.43164e-05
2.43168e-05
2.4317e-05
2.54307e-05
2.54314e-05
2.54314e-05
2.64936e-05
2.64945e-05
2.64944e-05
2.74655e-05
2.74665e-05
2.74662e-05
2.83474e-05
2.83484e-05
2.8348e-05
2.91505e-05
2.91514e-05
2.9151e-05
2.98862e-05
2.9887e-05
2.98865e-05
2.29445e-05
2.29445e-05
2.29446e-05
3.49889e-05
3.4989e-05
3.49896e-05
3.23643e-05
3.23648e-05
3.23653e-05
3.28913e-05
3.2892e-05
3.28923e-05
3.40405e-05
3.40417e-05
3.40416e-05
3.52711e-05
3.52726e-05
3.52723e-05
3.64547e-05
3.64563e-05
3.64557e-05
3.75591e-05
3.75606e-05
3.756e-05
3.85808e-05
3.85823e-05
3.85816e-05
3.95257e-05
3.9527e-05
3.95262e-05
2.46171e-05
2.46171e-05
2.46173e-05
4.60877e-05
4.6088e-05
4.60889e-05
4.31537e-05
4.31546e-05
4.31554e-05
4.31155e-05
4.31167e-05
4.31171e-05
4.4122e-05
4.41237e-05
4.41237e-05
4.54353e-05
4.54376e-05
4.54372e-05
4.68011e-05
4.68035e-05
4.68027e-05
4.81299e-05
4.81321e-05
4.81312e-05
4.93886e-05
4.93907e-05
4.93897e-05
5.05687e-05
5.05706e-05
5.05695e-05
2.62481e-05
2.62481e-05
2.62483e-05
5.77024e-05
5.7703e-05
5.77041e-05
5.58646e-05
5.58662e-05
5.58673e-05
5.52535e-05
5.52555e-05
5.52562e-05
5.59122e-05
5.59147e-05
5.59147e-05
5.71742e-05
5.71773e-05
5.71768e-05
5.8657e-05
5.86603e-05
5.86593e-05
6.01907e-05
6.01937e-05
6.01924e-05
6.16948e-05
6.16977e-05
6.16962e-05
6.31319e-05
6.31346e-05
6.3133e-05
2.7815e-05
2.7815e-05
2.78152e-05
6.91204e-05
6.91214e-05
6.91228e-05
7.03355e-05
7.03384e-05
7.03399e-05
6.95281e-05
6.95315e-05
6.95325e-05
6.9679e-05
6.96827e-05
6.96827e-05
7.07135e-05
7.07177e-05
7.07169e-05
7.22033e-05
7.22076e-05
7.22061e-05
7.38905e-05
7.38943e-05
7.38926e-05
7.5631e-05
7.56347e-05
7.56326e-05
7.73378e-05
7.73413e-05
7.7339e-05
2.92887e-05
2.92888e-05
2.9289e-05
7.96184e-05
7.96201e-05
7.96218e-05
8.61485e-05
8.61535e-05
8.61554e-05
8.60378e-05
8.60434e-05
8.60448e-05
8.56891e-05
8.56942e-05
8.56943e-05
8.63119e-05
8.63172e-05
8.63161e-05
8.7651e-05
8.76561e-05
8.76541e-05
8.93965e-05
8.94011e-05
8.93988e-05
9.13373e-05
9.13415e-05
9.13387e-05
9.33099e-05
9.3314e-05
9.3311e-05
3.06431e-05
3.06431e-05
3.06433e-05
8.85612e-05
8.85638e-05
8.85659e-05
0.000102646
0.000102654
0.000102656
0.000104665
0.000104674
0.000104676
0.000104149
0.000104156
0.000104157
0.000104243
0.000104249
0.000104248
0.000105241
0.000105246
0.000105244
0.000106896
0.000106901
0.000106898
0.000108961
0.000108966
0.000108962
0.00011117
0.000111174
0.00011117
3.18625e-05
3.18626e-05
3.18628e-05
9.55035e-05
9.55071e-05
9.55094e-05
0.000118992
0.000119004
0.000119007
0.000125005
0.000125019
0.000125021
0.000125119
0.000125129
0.000125129
0.000124757
0.000124764
0.000124762
0.000125235
0.000125241
0.000125237
0.0001266
0.000126604
0.0001266
0.000128661
0.000128663
0.000128658
0.000131036
0.000131039
0.000131033
3.29472e-05
3.29472e-05
3.29475e-05
0.000100269
0.000100274
0.000100277
0.000134273
0.000134289
0.000134292
0.000146335
0.000146356
0.000146358
0.000148407
0.000148422
0.000148422
0.00014801
0.000148017
0.000148015
0.000147897
0.000147901
0.000147896
0.000148741
0.000148743
0.000148737
0.000150605
0.000150605
0.000150598
0.000153021
0.000153021
0.000153014
3.39116e-05
3.39117e-05
3.39119e-05
0.00010298
0.000102986
0.000102988
0.000147603
0.000147624
0.000147628
0.000167654
0.000167682
0.000167686
0.000173479
0.000173499
0.000173499
0.00017396
0.000173967
0.000173963
0.000173434
0.000173435
0.000173428
0.000173563
0.00017356
0.000173552
0.000174979
0.000174973
0.000174962
0.000177238
0.000177233
0.000177221
3.47796e-05
3.47797e-05
3.47799e-05
0.000104008
0.000104015
0.000104018
0.000158249
0.000158274
0.000158278
0.000187769
0.000187806
0.00018781
0.000199404
0.00019943
0.000199431
0.000202238
0.000202244
0.000202239
0.00020191
0.000201903
0.000201893
0.000201288
0.000201277
0.000201265
0.000201975
0.000201959
0.000201944
0.000203795
0.000203779
0.000203762
3.55756e-05
3.55757e-05
3.5576e-05
0.000103872
0.00010388
0.000103883
0.000165731
0.000165761
0.000165766
0.000205425
0.000205469
0.000205475
0.000224875
0.000224907
0.000224909
0.000232028
0.000232033
0.000232026
0.000233093
0.000233076
0.000233062
0.000232034
0.000232009
0.000231991
0.000231766
0.000231733
0.000231712
0.000232782
0.000232747
0.000232723
3.63183e-05
3.63184e-05
3.63186e-05
0.000103101
0.000103109
0.000103112
0.000169913
0.000169946
0.000169952
0.000219455
0.000219507
0.000219513
0.000248298
0.000248336
0.000248339
0.000261993
0.000261996
0.000261986
0.000266282
0.000266249
0.00026623
0.000265656
0.000265609
0.000265585
0.000264417
0.000264357
0.000264329
0.000264222
0.000264158
0.000264127
3.70159e-05
3.7016e-05
3.70162e-05
0.000102129
0.000102138
0.00010214
0.000171036
0.000171072
0.000171078
0.000228945
0.000229003
0.000229011
0.000267944
0.000267986
0.000267991
0.00029028
0.00029028
0.000290267
0.000300116
0.000300064
0.000300038
0.000301501
0.000301424
0.000301392
0.000299696
0.000299599
0.000299563
0.000297949
0.000297844
0.000297804
3.76664e-05
3.76665e-05
3.76667e-05
0.000101256
0.000101264
0.000101267
0.000169698
0.000169735
0.000169743
0.000233413
0.000233477
0.000233486
0.000282164
0.00028221
0.000282216
0.00031464
0.000314637
0.00031462
0.00033247
0.000332397
0.000332364
0.000338096
0.000337981
0.000337942
0.000336751
0.00033661
0.000336565
0.000333338
0.000333182
0.000333132
3.82581e-05
3.82581e-05
3.82584e-05
0.00010064
0.000100648
0.000100651
0.00016676
0.000166798
0.000166806
0.000233008
0.000233076
0.000233087
0.000289707
0.000289756
0.000289765
0.000332708
0.000332704
0.000332684
0.000360524
0.000360433
0.000360393
0.00037289
0.000372741
0.000372693
0.000373659
0.000373475
0.000373424
0.000368878
0.000368672
0.000368614
3.87701e-05
3.87702e-05
3.87704e-05
0.000100325
0.000100331
0.000100335
0.000163205
0.000163244
0.000163252
0.000228722
0.000228796
0.000228808
0.000290263
0.00029032
0.000290331
0.000342615
0.000342615
0.000342593
0.000381232
0.000381132
0.000381087
0.000402352
0.000402179
0.000402125
0.000407115
0.000406906
0.000406848
0.000401705
0.000401471
0.000401408
3.91706e-05
3.91706e-05
3.91709e-05
0.000100253
0.000100258
0.000100262
0.000159998
0.000160037
0.000160047
0.000222589
0.000222669
0.000222683
0.000285381
0.00028545
0.000285464
0.00034428
0.000344287
0.000344269
0.00039259
0.000392496
0.000392447
0.000422877
0.000422703
0.000422645
0.000432794
0.000432588
0.000432528
0.000427621
0.000427399
0.000427333
3.94108e-05
3.94108e-05
3.94111e-05
0.000100298
0.000100303
0.000100307
0.000158008
0.000158047
0.000158057
0.000217728
0.000217813
0.000217828
0.000279575
0.000279653
0.000279671
0.000341436
0.000341449
0.000341437
0.000395855
0.000395775
0.000395726
0.000432742
0.000432582
0.000432522
0.000446849
0.000446665
0.000446605
0.000442257
0.000442071
0.000442006
)
;

boundaryField
{
    freeSurface
    {
        type            slip;
    }
    inlet
    {
        type            cyclic;
    }
    outlet
    {
        type            cyclic;
    }
    sidewalls
    {
        type            nutkWallFunction;
        Cmu             0.09;
        kappa           0.41;
        E               9.8;
        value           nonuniform List<scalar> 
72
(
4.66807e-07
1.31193e-06
1.64031e-06
1.919e-06
2.17139e-06
2.40907e-06
2.63791e-06
2.86004e-06
3.07479e-06
3.27952e-06
3.47076e-06
3.64544e-06
3.8019e-06
3.94043e-06
4.06315e-06
4.17321e-06
4.27387e-06
4.36752e-06
4.45529e-06
4.53694e-06
4.61106e-06
4.67509e-06
4.7251e-06
4.75507e-06
4.66807e-07
1.31193e-06
1.64031e-06
1.919e-06
2.1714e-06
2.40907e-06
2.63791e-06
2.86005e-06
3.0748e-06
3.27952e-06
3.47077e-06
3.64544e-06
3.8019e-06
3.94044e-06
4.06316e-06
4.17323e-06
4.27388e-06
4.36754e-06
4.4553e-06
4.53695e-06
4.61107e-06
4.6751e-06
4.72511e-06
4.75507e-06
4.66824e-07
1.31194e-06
1.64033e-06
1.91901e-06
2.17141e-06
2.40909e-06
2.63793e-06
2.86007e-06
3.07482e-06
3.27955e-06
3.47079e-06
3.64547e-06
3.80193e-06
3.94047e-06
4.06319e-06
4.17326e-06
4.27391e-06
4.36757e-06
4.45533e-06
4.53698e-06
4.6111e-06
4.67513e-06
4.72514e-06
4.7551e-06
)
;
    }
    noSlipWalls
    {
        type            nutkWallFunction;
        Cmu             0.09;
        kappa           0.41;
        E               9.8;
        value           uniform 0;
    }
    procBoundary0to1
    {
        type            processor;
        value           nonuniform List<scalar> 
72
(
4.35456e-07
4.35487e-07
4.35457e-07
3.95785e-06
3.95788e-06
3.95785e-06
8.72876e-06
8.72884e-06
8.72877e-06
1.47877e-05
1.47878e-05
1.47877e-05
2.2053e-05
2.20533e-05
2.2053e-05
3.05628e-05
3.05633e-05
3.05629e-05
4.04007e-05
4.04015e-05
4.04009e-05
5.16724e-05
5.16736e-05
5.16727e-05
6.4494e-05
6.44959e-05
6.44946e-05
7.89841e-05
7.89867e-05
7.89848e-05
9.52568e-05
9.526e-05
9.52573e-05
0.000113416
0.000113419
0.000113415
0.000133549
0.000133551
0.000133546
0.000155723
0.000155723
0.000155716
0.000179982
0.000179978
0.000179967
0.000206341
0.000206328
0.000206312
0.000234773
0.000234744
0.000234722
0.000265175
0.000265119
0.000265088
0.000297264
0.000297169
0.000297128
0.000330371
0.000330224
0.000330173
0.000363067
0.000362867
0.000362805
0.000392747
0.000392511
0.000392443
0.00041565
0.000415424
0.000415355
0.000428137
0.000427955
0.000427887
)
;
    }
}


// ************************************************************************* //
