/*--------------------------------*- C++ -*----------------------------------*\
  =========                 |
  \\      /  F ield         | OpenFOAM: The Open Source CFD Toolbox
   \\    /   O peration     | Website:  https://openfoam.org
    \\  /    A nd           | Version:  6
     \\/     M anipulation  |
\*---------------------------------------------------------------------------*/
FoamFile
{
    version     2.0;
    format      ascii;
    class       volScalarField;
    location    "40";
    object      p;
}
// * * * * * * * * * * * * * * * * * * * * * * * * * * * * * * * * * * * * * //

dimensions      [0 2 -2 0 0 0 0];

internalField   nonuniform List<scalar> 
720
(
4.19291e-15
4.90197e-08
2.23399e-08
6.20078e-11
4.89554e-08
2.23425e-08
-2.77105e-11
4.91381e-08
2.22492e-08
-2.46331e-10
4.96749e-08
2.19308e-08
-6.30209e-10
5.05028e-08
2.14861e-08
-9.13775e-10
5.14736e-08
2.07984e-08
-1.00314e-09
5.23544e-08
2.00065e-08
-8.72534e-10
5.25205e-08
1.97092e-08
-6.02836e-10
5.23311e-08
1.96288e-08
-1.69067e-10
5.17056e-08
1.98204e-08
5.51641e-13
4.90209e-08
2.23382e-08
6.0508e-11
4.89582e-08
2.23412e-08
-2.94534e-11
4.91419e-08
2.22472e-08
-2.46605e-10
4.96762e-08
2.19298e-08
-6.28452e-10
5.04991e-08
2.14881e-08
-9.10914e-10
5.14667e-08
2.08024e-08
-1.00083e-09
5.23479e-08
2.00106e-08
-8.71503e-10
5.25158e-08
1.97128e-08
-6.0287e-10
5.23285e-08
1.96315e-08
-1.69357e-10
5.17043e-08
1.9822e-08
-6.92704e-13
4.90239e-08
2.23363e-08
5.71558e-11
4.89641e-08
2.23386e-08
-3.29529e-11
4.91492e-08
2.22432e-08
-2.47036e-10
4.96787e-08
2.19277e-08
-6.24964e-10
5.04919e-08
2.14918e-08
-9.05384e-10
5.14536e-08
2.081e-08
-9.96502e-10
5.23357e-08
2.00186e-08
-8.69873e-10
5.25067e-08
1.97203e-08
-6.03992e-10
5.23232e-08
1.96379e-08
-1.72012e-10
5.17014e-08
1.98276e-08
-2.93155e-12
4.90269e-08
2.23353e-08
5.203e-11
4.89729e-08
2.23348e-08
-3.77215e-11
4.91592e-08
2.2238e-08
-2.47373e-10
4.9682e-08
2.19247e-08
-6.20089e-10
5.04822e-08
2.14966e-08
-8.97645e-10
5.14366e-08
2.08193e-08
-9.90185e-10
5.232e-08
2.00279e-08
-8.67234e-10
5.24953e-08
1.97291e-08
-6.0536e-10
5.23168e-08
1.96456e-08
-1.75863e-10
5.16979e-08
1.9835e-08
-5.11985e-12
4.90295e-08
2.23348e-08
4.52158e-11
4.89839e-08
2.23306e-08
-4.36607e-11
4.91708e-08
2.22323e-08
-2.47768e-10
4.9686e-08
2.1921e-08
-6.14292e-10
5.04715e-08
2.15015e-08
-8.8804e-10
5.14185e-08
2.08278e-08
-9.81825e-10
5.23037e-08
2.00359e-08
-8.63258e-10
5.24837e-08
1.97367e-08
-6.06354e-10
5.23112e-08
1.96523e-08
-1.80149e-10
5.1695e-08
1.98421e-08
-7.34365e-12
4.90321e-08
2.23343e-08
3.71164e-11
4.89959e-08
2.23264e-08
-5.0848e-11
4.91836e-08
2.22265e-08
-2.48519e-10
4.96909e-08
2.19169e-08
-6.07798e-10
5.04613e-08
2.15052e-08
-8.76767e-10
5.14019e-08
2.08332e-08
-9.71506e-10
5.2289e-08
2.00403e-08
-8.58031e-10
5.2474e-08
1.97413e-08
-6.06577e-10
5.23078e-08
1.96559e-08
-1.84268e-10
5.16939e-08
1.98473e-08
-9.8915e-12
4.90349e-08
2.23339e-08
2.85509e-11
4.90077e-08
2.23231e-08
-5.92805e-11
4.91973e-08
2.22211e-08
-2.50053e-10
4.96967e-08
2.19125e-08
-6.00686e-10
5.04528e-08
2.15065e-08
-8.63973e-10
5.13892e-08
2.0833e-08
-9.59328e-10
5.22784e-08
2.00387e-08
-8.51716e-10
5.24681e-08
1.97409e-08
-6.05051e-10
5.23081e-08
1.96542e-08
-1.86952e-10
5.16961e-08
1.98479e-08
-1.29546e-11
4.90381e-08
2.23336e-08
2.05521e-11
4.90176e-08
2.2321e-08
-6.87038e-11
4.92116e-08
2.22161e-08
-2.52814e-10
4.9704e-08
2.19079e-08
-5.93187e-10
5.04477e-08
2.15042e-08
-8.50229e-10
5.13839e-08
2.08247e-08
-9.45565e-10
5.22749e-08
2.00285e-08
-8.43566e-10
5.24678e-08
1.97331e-08
-6.00596e-10
5.23136e-08
1.96442e-08
-1.87407e-10
5.17034e-08
1.98411e-08
-1.66272e-11
4.90416e-08
2.23336e-08
1.39855e-11
4.90245e-08
2.23206e-08
-7.85643e-11
4.92261e-08
2.22113e-08
-2.57219e-10
4.97139e-08
2.19024e-08
-5.85932e-10
5.04481e-08
2.14965e-08
-8.36793e-10
5.13897e-08
2.08055e-08
-9.2991e-10
5.2281e-08
2.00068e-08
-8.30646e-10
5.24741e-08
1.9714e-08
-5.93049e-10
5.23265e-08
1.96239e-08
-1.86069e-10
5.17187e-08
1.98245e-08
-2.09199e-11
4.90454e-08
2.2334e-08
9.16208e-12
4.9028e-08
2.23218e-08
-8.80727e-11
4.92405e-08
2.22063e-08
-2.63724e-10
4.97281e-08
2.18945e-08
-5.79957e-10
5.04571e-08
2.14815e-08
-8.2461e-10
5.14111e-08
2.07718e-08
-9.08339e-10
5.22963e-08
1.99701e-08
-8.10604e-10
5.24878e-08
1.96804e-08
-5.82875e-10
5.23489e-08
1.95913e-08
-1.8313e-10
5.17441e-08
1.97962e-08
-2.57377e-11
4.90493e-08
2.23348e-08
5.62052e-12
4.90291e-08
2.2324e-08
-9.64608e-11
4.92552e-08
2.21998e-08
-2.72729e-10
4.97497e-08
2.18819e-08
-5.76664e-10
5.0479e-08
2.14563e-08
-8.11376e-10
5.14501e-08
2.07197e-08
-8.76089e-10
5.23186e-08
1.99155e-08
-7.86325e-10
5.25122e-08
1.96318e-08
-5.71259e-10
5.23815e-08
1.95472e-08
-1.7882e-10
5.17797e-08
1.97563e-08
-3.08407e-11
4.90531e-08
2.23359e-08
2.44786e-12
4.90302e-08
2.23261e-08
-1.0316e-10
4.92715e-08
2.21901e-08
-2.84639e-10
4.97823e-08
2.18611e-08
-5.76782e-10
5.05204e-08
2.14149e-08
-7.85488e-10
5.15004e-08
2.06436e-08
-8.36739e-10
5.23515e-08
1.98434e-08
-7.64841e-10
5.25519e-08
1.95707e-08
-5.58983e-10
5.24202e-08
1.94963e-08
-1.71051e-10
5.18194e-08
1.97089e-08
-3.57632e-11
4.90566e-08
2.23372e-08
-8.92781e-13
4.90339e-08
2.23257e-08
-1.07659e-10
4.92923e-08
2.21737e-08
-2.99923e-10
4.98322e-08
2.18264e-08
-5.77964e-10
5.0593e-08
2.13436e-08
-7.44729e-10
5.15635e-08
2.05396e-08
-8.07188e-10
5.24066e-08
1.97587e-08
-7.48655e-10
5.2601e-08
1.95054e-08
-5.4351e-10
5.24536e-08
1.94475e-08
-1.56452e-10
5.18507e-08
1.96631e-08
-3.96827e-11
4.90599e-08
2.23377e-08
-4.19604e-12
4.90423e-08
2.23206e-08
-1.10078e-10
4.93217e-08
2.21467e-08
-3.18312e-10
4.99111e-08
2.17658e-08
-5.78836e-10
5.07068e-08
2.12306e-08
-7.15642e-10
5.16598e-08
2.04143e-08
-7.94519e-10
5.248e-08
1.96728e-08
-7.30495e-10
5.26426e-08
1.94458e-08
-5.17501e-10
5.24658e-08
1.94094e-08
-1.28849e-10
5.1857e-08
1.96293e-08
-4.13852e-11
4.9063e-08
2.23361e-08
-6.64324e-12
4.90559e-08
2.23094e-08
-1.11112e-10
4.93631e-08
2.21064e-08
-3.36016e-10
5.00244e-08
2.16701e-08
-5.75623e-10
5.08615e-08
2.10727e-08
-7.11504e-10
5.1793e-08
2.0277e-08
-7.8312e-10
5.25475e-08
1.95939e-08
-6.99584e-10
5.26586e-08
1.93989e-08
-4.67469e-10
5.24322e-08
1.9393e-08
-7.25311e-11
5.18106e-08
1.96194e-08
-3.92782e-11
4.90664e-08
2.23306e-08
-6.56209e-12
4.90739e-08
2.22913e-08
-1.10967e-10
4.94168e-08
2.20525e-08
-3.45138e-10
5.01646e-08
2.15389e-08
-5.77558e-10
5.10671e-08
2.0869e-08
-7.2824e-10
5.19535e-08
2.01332e-08
-7.62811e-10
5.25928e-08
1.95284e-08
-6.42824e-10
5.26224e-08
1.93784e-08
-3.77922e-10
5.23156e-08
1.94201e-08
3.23888e-11
5.16691e-08
1.9656e-08
-3.14026e-11
4.90706e-08
2.23184e-08
-1.5827e-12
4.90938e-08
2.22664e-08
-1.10023e-10
4.94807e-08
2.19875e-08
-3.56384e-10
5.03335e-08
2.13812e-08
-6.03124e-10
5.13228e-08
2.06388e-08
-7.52512e-10
5.21255e-08
1.99854e-08
-7.25501e-10
5.25972e-08
1.94866e-08
-5.47812e-10
5.24957e-08
1.94101e-08
-2.31664e-10
5.20654e-08
1.9524e-08
2.08117e-10
5.13713e-08
1.9778e-08
-1.57893e-11
4.90762e-08
2.22971e-08
1.04244e-11
4.91135e-08
2.22347e-08
-1.05912e-10
4.95561e-08
2.19078e-08
-3.7114e-10
5.05166e-08
2.12127e-08
-6.44576e-10
5.15855e-08
2.04173e-08
-7.7599e-10
5.22973e-08
1.9837e-08
-6.62426e-10
5.25388e-08
1.9482e-08
-4.00494e-10
5.22323e-08
1.95261e-08
-1.11817e-11
5.16207e-08
1.97481e-08
4.76124e-10
5.0842e-08
2.00393e-08
8.82054e-12
4.90823e-08
2.22664e-08
3.04657e-11
4.91301e-08
2.21981e-08
-9.92335e-11
4.96306e-08
2.18265e-08
-3.8845e-10
5.06971e-08
2.10492e-08
-6.91968e-10
5.18352e-08
2.02148e-08
-7.90976e-10
5.24499e-08
1.96992e-08
-5.65873e-10
5.23954e-08
1.95288e-08
-1.88491e-10
5.17903e-08
1.97561e-08
2.95462e-10
5.09249e-08
2.01373e-08
8.46033e-10
4.99951e-08
2.05167e-08
4.33551e-11
4.9085e-08
2.22292e-08
5.94211e-11
4.91393e-08
2.21601e-08
-8.75654e-11
4.96885e-08
2.17568e-08
-4.04228e-10
5.08557e-08
2.09061e-08
-7.35683e-10
5.20569e-08
2.00363e-08
-7.90209e-10
5.25593e-08
1.95886e-08
-4.33311e-10
5.21546e-08
1.96371e-08
9.02622e-11
5.11507e-08
2.01172e-08
6.8501e-10
4.9948e-08
2.07249e-08
1.29679e-09
4.8727e-08
2.13341e-08
8.86253e-11
4.90771e-08
2.2192e-08
9.7969e-11
4.91352e-08
2.21259e-08
-6.85289e-11
4.97204e-08
2.17058e-08
-4.14124e-10
5.09761e-08
2.07953e-08
-7.69933e-10
5.22344e-08
1.98925e-08
-7.72276e-10
5.26131e-08
1.95165e-08
-2.7349e-10
5.18303e-08
1.98017e-08
4.15678e-10
5.03429e-08
2.05993e-08
1.13168e-09
4.87189e-08
2.15072e-08
1.82175e-09
4.71163e-08
2.24189e-08
1.43663e-10
4.90511e-08
2.21631e-08
1.44868e-10
4.91116e-08
2.21028e-08
-4.21161e-11
4.9721e-08
2.16787e-08
-4.18518e-10
5.10532e-08
2.07223e-08
-7.94939e-10
5.23669e-08
1.97843e-08
-7.44691e-10
5.2626e-08
1.94755e-08
-1.1188e-10
5.14813e-08
1.99891e-08
7.50016e-10
4.94999e-08
2.11083e-08
1.59737e-09
4.74303e-08
2.23303e-08
2.38879e-09
4.55039e-08
2.34652e-08
2.02181e-10
4.90072e-08
2.21487e-08
1.94189e-10
4.90699e-08
2.20954e-08
-1.21264e-11
4.9695e-08
2.16749e-08
-4.17996e-10
5.10921e-08
2.06826e-08
-8.11293e-10
5.24656e-08
1.9701e-08
-7.23045e-10
5.26286e-08
1.94504e-08
1.94425e-11
5.11999e-08
2.01393e-08
1.03527e-09
4.88203e-08
2.15031e-08
1.99378e-09
4.6383e-08
2.29813e-08
2.86711e-09
4.42239e-08
2.42672e-08
2.48337e-10
4.89621e-08
2.21479e-08
2.29834e-10
4.90316e-08
2.20984e-08
9.61962e-12
4.96677e-08
2.16807e-08
-4.12989e-10
5.11037e-08
2.06659e-08
-8.14884e-10
5.25195e-08
1.965e-08
-7.10564e-10
5.26251e-08
1.94402e-08
9.42143e-11
5.10469e-08
2.02176e-08
1.20358e-09
4.84471e-08
2.17083e-08
2.23075e-09
4.57879e-08
2.3339e-08
3.1468e-09
4.35092e-08
2.47016e-08
)
;

boundaryField
{
    freeSurface
    {
        type            slip;
    }
    inlet
    {
        type            cyclic;
    }
    outlet
    {
        type            cyclic;
    }
    sidewalls
    {
        type            zeroGradient;
    }
    noSlipWalls
    {
        type            zeroGradient;
    }
    procBoundary0to1
    {
        type            processor;
        value           nonuniform List<scalar> 
72
(
4.12677e-10
5.07088e-08
2.02349e-08
4.12608e-10
5.07085e-08
2.02353e-08
4.0924e-10
5.07077e-08
2.02395e-08
4.04114e-10
5.07066e-08
2.02457e-08
3.98323e-10
5.07056e-08
2.02526e-08
3.92474e-10
5.07055e-08
2.02586e-08
3.86687e-10
5.07074e-08
2.02625e-08
3.81023e-10
5.07134e-08
2.02623e-08
3.75781e-10
5.07256e-08
2.02554e-08
3.71338e-10
5.0746e-08
2.02395e-08
3.68642e-10
5.07748e-08
2.02135e-08
3.72073e-10
5.08054e-08
2.01796e-08
3.83933e-10
5.0828e-08
2.01452e-08
4.08268e-10
5.08283e-08
2.01207e-08
4.59456e-10
5.07812e-08
2.01166e-08
5.57967e-10
5.06468e-08
2.01525e-08
7.27979e-10
5.03651e-08
2.02642e-08
9.96537e-10
4.98533e-08
2.05074e-08
1.38392e-09
4.90032e-08
2.09703e-08
1.89252e-09
4.76677e-08
2.17975e-08
2.48916e-09
4.58876e-08
2.2981e-08
3.11112e-09
4.40479e-08
2.41993e-08
3.64332e-09
4.25723e-08
2.51431e-08
3.95614e-09
4.17469e-08
2.56549e-08
)
;
    }
}


// ************************************************************************* //
