/*--------------------------------*- C++ -*----------------------------------*\
  =========                 |
  \\      /  F ield         | OpenFOAM: The Open Source CFD Toolbox
   \\    /   O peration     | Website:  https://openfoam.org
    \\  /    A nd           | Version:  6
     \\/     M anipulation  |
\*---------------------------------------------------------------------------*/
FoamFile
{
    version     2.0;
    format      ascii;
    class       surfaceScalarField;
    location    "40";
    object      phi;
}
// * * * * * * * * * * * * * * * * * * * * * * * * * * * * * * * * * * * * * //

dimensions      [0 3 -1 0 0 0 0];

internalField   nonuniform List<scalar> 
1818
(
4.67771e-07
6.20099e-13
1.60589e-12
4.67773e-07
-9.58609e-13
-1.29408e-12
3.36169e-13
-3.10664e-13
4.48218e-07
3.8583e-12
3.75287e-14
4.48221e-07
-5.75946e-12
1.47154e-12
1.92149e-12
-1.53173e-12
6.28427e-07
8.03767e-12
2.25831e-13
6.28432e-07
-1.30487e-11
1.81194e-12
5.05418e-12
-2.06061e-12
8.28325e-07
1.08064e-11
1.27941e-12
8.28332e-07
-1.83281e-11
-1.63959e-12
7.58047e-12
3.4456e-13
1.05554e-06
9.57501e-12
2.64139e-12
1.05555e-06
-1.74526e-11
-8.26698e-12
7.94219e-12
5.61978e-12
1.31855e-06
5.41389e-12
3.14675e-12
1.31856e-06
-1.16865e-11
-1.46472e-11
6.33447e-12
1.15033e-11
1.62539e-06
5.65756e-13
1.33085e-12
1.6254e-06
-4.47457e-12
-1.64989e-11
3.96215e-12
1.51766e-11
1.9846e-06
-3.30805e-12
-2.38573e-12
1.98461e-06
1.11837e-12
-1.36348e-11
2.23227e-12
1.60313e-11
2.40614e-06
-6.05995e-12
-7.01279e-12
2.40615e-06
4.97389e-12
-1.00984e-11
1.11643e-12
1.71235e-11
2.90096e-06
-1.12428e-11
2.90096e-06
-6.93115e-12
1.81836e-11
7.10997e-07
1.92293e-12
2.49804e-12
7.11e-07
-2.67258e-12
-1.46494e-12
7.50497e-13
-1.03281e-12
1.15942e-06
8.87762e-12
-1.64714e-12
1.15942e-06
-1.28172e-11
6.24067e-12
3.98807e-12
-4.6638e-12
1.52398e-06
1.75981e-11
-1.78063e-12
1.52399e-06
-2.75492e-11
8.25174e-12
1.00509e-11
-6.54527e-12
1.91854e-06
2.27705e-11
2.11809e-12
1.91855e-06
-3.76934e-11
-1.50573e-12
1.5053e-11
-6.5823e-13
2.36401e-06
2.00507e-11
7.49425e-12
2.36402e-06
-3.49031e-11
-2.13389e-11
1.49919e-11
1.38295e-11
2.87588e-06
1.14193e-11
1.04542e-11
2.87589e-06
-2.26272e-11
-3.88904e-11
1.1338e-11
2.84484e-11
3.46806e-06
1.56597e-12
6.49682e-12
3.46807e-06
-8.99484e-12
-4.2257e-11
7.54e-12
3.57877e-11
4.15474e-06
-6.23971e-12
-2.59016e-12
4.15475e-06
1.9057e-12
-3.45284e-11
4.42139e-12
3.71531e-11
4.95145e-06
-1.15605e-11
-1.35955e-11
4.95146e-06
9.08572e-12
-2.45643e-11
2.53602e-12
3.81982e-11
5.87397e-06
-2.26608e-11
5.87397e-06
-1.61137e-11
3.88047e-11
9.35026e-07
2.99341e-12
2.94173e-12
9.35029e-07
-4.02961e-12
-9.11375e-13
1.04144e-12
-2.03528e-12
1.71622e-06
1.25783e-11
-4.71887e-12
1.71622e-06
-1.78434e-11
1.32785e-11
5.33653e-12
-8.69603e-12
2.23009e-06
2.443e-11
-5.28477e-12
2.2301e-06
-3.75833e-11
1.76343e-11
1.32957e-11
-1.24947e-11
2.77912e-06
3.13506e-11
2.74804e-12
2.77913e-06
-5.11652e-11
-2.47476e-13
1.99984e-11
-2.58782e-12
3.39913e-06
2.77294e-11
1.38822e-11
3.39914e-06
-4.71251e-11
-3.77946e-11
1.95913e-11
2.38853e-11
4.11177e-06
1.59934e-11
2.05532e-11
4.11179e-06
-3.03615e-11
-6.99182e-11
1.45498e-11
4.93911e-11
4.93634e-06
2.47138e-12
1.41174e-11
4.93636e-06
-1.22853e-11
-7.46515e-11
9.96949e-12
6.05878e-11
5.89267e-06
-8.31124e-12
-1.71731e-12
5.89268e-06
2.41445e-12
-6.08985e-11
6.01879e-12
6.26839e-11
7.00258e-06
-1.56353e-11
-2.1174e-11
7.00259e-06
1.20576e-11
-4.25194e-11
3.66313e-12
6.37683e-11
8.2887e-06
-3.67983e-11
8.2887e-06
-2.73714e-11
6.42288e-11
1.21562e-06
4.11308e-12
3.0737e-12
1.21563e-06
-5.43157e-12
2.14218e-13
1.32974e-12
-3.30408e-12
2.2563e-06
1.61109e-11
-8.77571e-12
2.25631e-06
-2.25667e-11
2.1901e-11
6.5506e-12
-1.33453e-11
2.93388e-06
3.08121e-11
-9.75176e-12
2.93389e-06
-4.684e-11
2.90101e-11
1.62111e-11
-1.94918e-11
3.64792e-06
3.94551e-11
3.44125e-12
3.64793e-06
-6.36475e-11
1.51892e-12
2.44278e-11
-5.09958e-12
4.45239e-06
3.51132e-11
2.16523e-11
4.4524e-06
-5.8596e-11
-5.75786e-11
2.3733e-11
3.58843e-11
5.37637e-06
2.05332e-11
3.31305e-11
5.37638e-06
-3.77615e-11
-1.07192e-10
1.74607e-11
7.41052e-11
6.44504e-06
3.46966e-12
2.40321e-11
6.44506e-06
-1.54507e-11
-1.13119e-10
1.21804e-11
8.9174e-11
7.68421e-06
-1.02443e-11
8.74544e-14
7.68422e-06
2.8896e-12
-9.19799e-11
7.51115e-12
9.20035e-11
9.12231e-06
-1.95792e-11
-2.99588e-11
9.12231e-06
1.49714e-11
-6.31532e-11
4.7175e-12
9.32336e-11
1.07889e-05
-5.40789e-11
1.07889e-05
-3.9984e-11
9.41591e-11
1.56852e-06
5.45324e-12
2.89877e-12
1.56853e-06
-7.08973e-12
1.92349e-12
1.6564e-12
-4.85833e-12
2.84246e-06
1.98742e-11
-1.36727e-11
2.84247e-06
-2.75558e-11
3.17887e-11
7.80266e-12
-1.84372e-11
3.70713e-06
3.74228e-11
-1.5022e-11
3.70714e-06
-5.63494e-11
4.19296e-11
1.91527e-11
-2.7246e-11
4.60891e-06
4.78744e-11
4.26154e-12
4.60893e-06
-7.64344e-11
3.5157e-12
2.88494e-11
-7.97996e-12
5.62154e-06
4.29007e-11
3.06822e-11
5.62155e-06
-7.04849e-11
-8.05479e-11
2.78919e-11
4.98054e-11
6.78334e-06
2.54589e-11
4.81079e-11
6.78336e-06
-4.55793e-11
-1.50275e-10
2.04067e-11
1.02232e-10
8.12643e-06
4.65218e-12
3.63137e-11
8.12645e-06
-1.88141e-11
-1.57133e-10
1.44079e-11
1.20946e-10
9.68342e-06
-1.22066e-11
2.82202e-12
9.68343e-06
3.40109e-12
-1.26981e-10
8.99891e-12
1.24323e-10
1.14902e-05
-2.37276e-11
-4.01325e-11
1.14902e-05
1.81443e-11
-8.54544e-11
5.71923e-12
1.25766e-10
1.35843e-05
-7.49981e-11
1.35843e-05
-5.29523e-11
1.28092e-10
2.01182e-06
7.13903e-12
2.3542e-12
2.01183e-06
-9.14077e-12
4.29097e-12
2.03423e-12
-6.71372e-12
3.50875e-06
2.40657e-11
-1.92712e-11
3.50876e-06
-3.30627e-11
4.26552e-11
9.14836e-12
-2.3824e-11
4.58927e-06
4.45446e-11
-2.10109e-11
4.58929e-06
-6.65095e-11
5.60111e-11
2.22377e-11
-3.54601e-11
5.71082e-06
5.69327e-11
5.19025e-12
5.71084e-06
-9.00185e-11
5.50042e-12
3.34335e-11
-1.09684e-11
6.96559e-06
5.14118e-11
4.08592e-11
6.96561e-06
-8.32838e-11
-1.06471e-10
3.22421e-11
6.55292e-11
8.40325e-06
3.1004e-11
6.53929e-11
8.40326e-06
-5.41846e-11
-1.9859e-10
2.35257e-11
1.33287e-10
1.00642e-05
6.09881e-12
5.09461e-11
1.00642e-05
-2.25391e-11
-2.05943e-10
1.67372e-11
1.55172e-10
1.1989e-05
-1.42504e-11
6.29974e-12
1.1989e-05
3.99128e-12
-1.64924e-10
1.04933e-11
1.58851e-10
1.42225e-05
-2.82242e-11
-5.19993e-11
1.42225e-05
2.177e-11
-1.08081e-10
6.61944e-12
1.60328e-10
1.68112e-05
-1.00054e-10
1.68112e-05
-6.48325e-11
1.65084e-10
2.5663e-06
9.29471e-12
1.3235e-12
2.56631e-06
-1.17044e-11
7.41116e-12
2.4601e-12
-8.85363e-12
4.2842e-06
2.8842e-11
-2.5391e-11
4.28421e-06
-3.92524e-11
5.4165e-11
1.05972e-11
-2.93503e-11
5.61302e-06
5.23454e-11
-2.76281e-11
5.61304e-06
-7.75154e-11
7.08482e-11
2.54944e-11
-4.38176e-11
6.99447e-06
6.67997e-11
6.1191e-12
6.9945e-06
-1.04619e-10
7.21798e-12
3.82305e-11
-1.37018e-11
8.53491e-06
6.08439e-11
5.20546e-11
8.53493e-06
-9.72642e-11
-1.34998e-10
3.68585e-11
8.28342e-11
1.02971e-05
3.73507e-11
8.48424e-11
1.02971e-05
-6.38448e-11
-2.51246e-10
2.69039e-11
1.66522e-10
1.23313e-05
7.89646e-12
6.78527e-11
1.23313e-05
-2.67497e-11
-2.58454e-10
1.92065e-11
1.90833e-10
1.46879e-05
-1.63774e-11
1.0139e-11
1.46879e-05
4.70218e-12
-2.04475e-10
1.19543e-11
1.94636e-10
1.74219e-05
-3.31364e-11
-6.61938e-11
1.74219e-05
2.60315e-11
-1.29187e-10
7.30302e-12
1.9571e-10
2.05907e-05
-1.29961e-10
2.05907e-05
-7.34369e-11
2.03661e-10
3.2554e-06
1.2045e-11
-3.51764e-13
3.25541e-06
-1.48817e-11
1.13502e-11
2.912e-12
-1.11927e-11
5.19915e-06
3.436e-11
-3.18086e-11
5.19917e-06
-4.62536e-11
6.59055e-11
1.21221e-11
-3.48263e-11
6.81201e-06
6.09565e-11
-3.47408e-11
6.81203e-06
-8.94643e-11
8.59842e-11
2.88893e-11
-5.19938e-11
8.50121e-06
7.75789e-11
6.89081e-12
8.50124e-06
-1.20316e-10
8.42495e-12
4.3217e-11
-1.57794e-11
1.03808e-05
7.13424e-11
6.4036e-11
1.03808e-05
-1.12603e-10
-1.6558e-10
4.17723e-11
1.01403e-10
1.25275e-05
4.46711e-11
1.06101e-10
1.25275e-05
-7.48177e-11
-3.06904e-10
3.06269e-11
2.00953e-10
1.50034e-05
1.01518e-11
8.68308e-11
1.50034e-05
-3.15739e-11
-3.13145e-10
2.1837e-11
2.26612e-10
1.78703e-05
-1.87422e-11
1.40989e-11
1.78703e-05
5.57839e-12
-2.43881e-10
1.34929e-11
2.30169e-10
2.11955e-05
-3.88694e-11
-8.34804e-11
2.11955e-05
3.10424e-11
-1.46223e-10
8.06175e-12
2.30127e-10
2.50494e-05
-1.6603e-10
2.50493e-05
-7.53538e-11
2.41724e-10
4.10507e-06
1.55043e-11
-2.84784e-12
4.10508e-06
-1.87401e-11
1.60795e-11
3.34427e-12
-1.35344e-11
6.28817e-06
4.0791e-11
-3.82775e-11
6.28819e-06
-5.41681e-11
7.73804e-11
1.36551e-11
-4.00018e-11
8.22449e-06
7.05022e-11
-4.21635e-11
8.22453e-06
-1.02382e-10
1.00911e-10
3.23239e-11
-5.96645e-11
1.02768e-05
8.93393e-11
7.31578e-12
1.02768e-05
-1.37079e-10
8.96209e-12
4.82941e-11
-1.68514e-11
1.25599e-05
8.30154e-11
7.63465e-11
1.25599e-05
-1.29418e-10
-1.97364e-10
4.69936e-11
1.2084e-10
1.51639e-05
5.31307e-11
1.28501e-10
1.51639e-05
-8.73994e-11
-3.63644e-10
3.48251e-11
2.35328e-10
1.81644e-05
1.30023e-11
1.07492e-10
1.81644e-05
-3.71733e-11
-3.68077e-10
2.46521e-11
2.60958e-10
2.16367e-05
-2.1179e-11
1.76257e-11
2.16366e-05
6.49685e-12
-2.80808e-10
1.50665e-11
2.63665e-10
2.56629e-05
-4.50911e-11
-1.05057e-10
2.56629e-05
3.65162e-11
-1.55183e-10
8.8502e-12
2.60772e-10
3.03287e-05
-2.10149e-10
3.03287e-05
-6.54035e-11
2.75982e-10
5.14373e-06
1.97627e-11
-6.31783e-12
5.14375e-06
-2.32992e-11
2.13941e-11
3.68732e-12
-1.55298e-11
7.59206e-06
4.83193e-11
-4.45706e-11
7.59208e-06
-6.30632e-11
8.80127e-11
1.50799e-11
-4.45262e-11
9.89596e-06
8.11142e-11
-4.96691e-11
9.896e-06
-1.16223e-10
1.1509e-10
3.56225e-11
-6.65158e-11
1.23741e-05
1.02132e-10
7.14962e-12
1.23742e-05
-1.54756e-10
8.85462e-12
5.32569e-11
-1.66965e-11
1.51369e-05
9.58998e-11
8.82738e-11
1.5137e-05
-1.47774e-10
-2.29034e-10
5.25477e-11
1.40541e-10
1.82856e-05
6.28436e-11
1.51111e-10
1.82856e-05
-1.01971e-10
-4.18761e-10
3.97588e-11
2.67876e-10
2.19105e-05
1.64489e-11
1.29119e-10
2.19105e-05
-4.37882e-11
-4.20971e-10
2.78955e-11
2.923e-10
2.61026e-05
-2.36396e-11
1.96461e-11
2.61026e-05
7.24231e-12
-3.11884e-10
1.68407e-11
2.92834e-10
3.09618e-05
-5.13155e-11
-1.33141e-10
3.09618e-05
4.20272e-11
-1.50487e-10
9.60745e-12
2.84284e-10
3.6592e-05
-2.65014e-10
3.6592e-05
-3.66101e-11
3.02157e-10
6.4027e-06
2.48781e-11
-1.0842e-11
6.40272e-06
-2.8536e-11
2.68352e-11
3.85962e-12
-1.66484e-11
9.15957e-06
5.71348e-11
-5.05503e-11
9.15961e-06
-7.30272e-11
9.71971e-11
1.62957e-11
-4.79325e-11
1.18815e-05
9.29371e-11
-5.70255e-11
1.18815e-05
-1.30949e-10
1.27986e-10
3.86005e-11
-7.22412e-11
1.4856e-05
1.16003e-10
6.08754e-12
1.48561e-05
-1.73034e-10
8.33405e-12
5.77432e-11
-1.52382e-11
1.81873e-05
1.10079e-10
9.87464e-11
1.81873e-05
-1.67651e-10
-2.58557e-10
5.83307e-11
1.59546e-10
2.19846e-05
7.35378e-11
1.73163e-10
2.19846e-05
-1.18546e-10
-4.69321e-10
4.57174e-11
2.96434e-10
2.63534e-05
2.00847e-11
1.5063e-10
2.63534e-05
-5.11835e-11
-4.69082e-10
3.17303e-11
3.18978e-10
3.14025e-05
-2.60162e-11
1.78482e-11
3.14024e-05
7.65182e-12
-3.32157e-10
1.88686e-11
3.15032e-10
3.72526e-05
-5.7112e-11
-1.71351e-10
3.72526e-05
4.72105e-11
-1.2519e-10
1.02667e-11
2.97337e-10
4.40297e-05
-3.34838e-10
4.40296e-05
1.98409e-11
3.15646e-10
7.9171e-06
3.08853e-11
-1.63962e-11
7.91713e-06
-3.44213e-11
3.16365e-11
3.79521e-12
-1.61548e-11
1.1049e-05
6.74303e-11
-5.62269e-11
1.1049e-05
-8.41639e-11
1.04388e-10
1.72121e-11
-4.96663e-11
1.42479e-05
1.06137e-10
-6.40706e-11
1.4248e-05
-1.46534e-10
1.39162e-10
4.10642e-11
-7.6561e-11
1.7798e-05
1.31025e-10
3.72105e-12
1.77981e-05
-1.91395e-10
7.82318e-12
6.11627e-11
-1.24858e-11
2.17999e-05
1.25637e-10
1.06308e-10
2.17999e-05
-1.88884e-10
-2.82899e-10
6.40809e-11
1.76285e-10
2.63685e-05
8.47194e-11
1.93994e-10
2.63684e-05
-1.37079e-10
-5.12186e-10
5.31432e-11
3.18518e-10
3.16234e-05
2.30565e-11
1.707e-10
3.16234e-05
-5.88212e-11
-5.09341e-10
3.6469e-11
3.39247e-10
3.76934e-05
-2.81894e-11
7.99099e-12
3.76933e-05
7.48618e-12
-3.35173e-10
2.1269e-11
3.28044e-10
4.47232e-05
-6.17739e-11
-2.25325e-10
4.47231e-05
5.14095e-11
-7.12148e-11
1.0777e-11
2.97489e-10
5.2865e-05
-4.25988e-10
5.28649e-05
1.14312e-10
3.12453e-10
9.72763e-06
3.78097e-11
-2.28421e-11
9.72767e-06
-4.10204e-11
3.4817e-11
3.52936e-12
-1.32081e-11
1.33293e-05
7.93944e-11
-6.17155e-11
1.33293e-05
-9.6675e-11
1.09161e-10
1.78392e-11
-4.91909e-11
1.70767e-05
1.20912e-10
-7.07034e-11
1.70767e-05
-1.63066e-10
1.48415e-10
4.2901e-11
-7.93694e-11
2.12917e-05
1.47331e-10
-5.72495e-13
2.12917e-05
-2.09074e-10
7.77475e-12
6.26128e-11
-8.26649e-12
2.60807e-05
1.40298e-10
1.115e-10
2.60807e-05
-2.07963e-10
-3.00781e-10
6.85687e-11
1.88943e-10
3.15635e-05
9.3131e-11
2.13232e-10
3.15635e-05
-1.54323e-10
-5.43202e-10
6.20475e-11
3.30344e-10
3.78732e-05
2.43991e-11
1.84802e-10
3.78731e-05
-6.62508e-11
-5.3564e-10
4.26129e-11
3.51538e-10
4.51592e-05
-3.0932e-11
-1.53915e-11
4.51591e-05
7.22888e-12
-3.14669e-10
2.43246e-11
3.31061e-10
5.35938e-05
-6.70567e-11
-3.0036e-10
5.35937e-05
5.61625e-11
1.7968e-11
1.13516e-11
2.83504e-10
6.33601e-05
-5.45545e-10
6.33599e-05
2.56391e-10
2.90073e-10
1.18828e-05
4.568e-11
-2.98816e-11
1.18829e-05
-4.86086e-11
3.53542e-11
3.30155e-12
-7.07872e-12
1.60815e-05
9.31881e-11
-6.71493e-11
1.60815e-05
-1.11005e-10
1.11245e-10
1.84533e-11
-4.61033e-11
2.04659e-05
1.3746e-10
-7.70096e-11
2.04659e-05
-1.81013e-10
1.56057e-10
4.43715e-11
-8.08886e-11
2.54483e-05
1.65026e-10
-7.73998e-12
2.54484e-05
-2.28643e-10
1.18154e-11
6.45498e-11
-5.25383e-12
3.11569e-05
1.52921e-10
1.15519e-10
3.11569e-05
-2.26593e-10
-3.10183e-10
7.46341e-11
1.94296e-10
3.7719e-05
9.81017e-11
2.29028e-10
3.7719e-05
-1.69764e-10
-5.59811e-10
7.25642e-11
3.31218e-10
4.52812e-05
2.49959e-11
1.86364e-10
4.52812e-05
-7.44166e-11
-5.41306e-10
5.02285e-11
3.55735e-10
5.40147e-05
-3.4551e-11
-5.63319e-11
5.40146e-05
6.85589e-12
-2.66621e-10
2.83613e-11
3.24096e-10
6.41219e-05
-7.29903e-11
-4.00116e-10
6.41218e-05
6.09796e-11
1.47402e-10
1.25064e-11
2.53997e-10
7.58222e-05
-6.9874e-10
7.5822e-05
4.53363e-10
2.46444e-10
1.44415e-05
5.45948e-11
-3.70911e-11
1.44416e-05
-5.78348e-11
3.2553e-11
3.65224e-12
2.51976e-12
1.9399e-05
1.09012e-10
-7.26895e-11
1.9399e-05
-1.28081e-10
1.10644e-10
1.97667e-11
-4.02488e-11
2.45327e-05
1.55931e-10
-8.33421e-11
2.45328e-05
-2.01244e-10
1.62939e-10
4.61835e-11
-8.16109e-11
3.0403e-05
1.83644e-10
-1.86945e-11
3.0403e-05
-2.50944e-10
2.47229e-11
6.82706e-11
-7.30629e-12
3.71815e-05
1.66231e-10
1.15387e-10
3.71815e-05
-2.48727e-10
-3.0399e-10
8.34666e-11
1.88235e-10
4.50121e-05
1.02217e-10
2.38742e-10
4.50121e-05
-1.85912e-10
-5.60184e-10
8.46076e-11
3.21934e-10
5.40572e-05
2.40219e-11
1.73266e-10
5.40571e-05
-8.248e-11
-5.24817e-10
5.92839e-11
3.52432e-10
6.45109e-05
-3.95478e-11
-1.16129e-10
6.45107e-05
6.33378e-12
-1.88822e-10
3.39039e-11
3.06229e-10
7.66083e-05
-7.96303e-11
-5.23847e-10
7.66081e-05
6.50434e-11
3.18636e-10
1.51073e-11
2.06664e-10
9.06105e-05
-8.84921e-10
9.06102e-05
7.08009e-10
1.7813e-10
1.74747e-05
6.48191e-11
-4.40918e-11
1.74748e-05
-6.98558e-11
2.66155e-11
5.46138e-12
1.50334e-11
2.33882e-05
1.2725e-10
-7.84922e-11
2.33883e-05
-1.49612e-10
1.07797e-10
2.3089e-11
-3.19003e-11
2.94155e-05
1.76315e-10
-8.99859e-11
2.94155e-05
-2.24782e-10
1.69757e-10
4.935e-11
-8.19414e-11
3.6318e-05
1.97542e-10
-2.95166e-11
3.6318e-05
-2.69858e-10
4.52418e-11
7.32824e-11
-1.70864e-11
4.43391e-05
1.72786e-10
1.08914e-10
4.43391e-05
-2.65029e-10
-2.76347e-10
9.31906e-11
1.67084e-10
5.36539e-05
1.0359e-10
2.33651e-10
5.36538e-05
-1.998e-10
-5.35164e-10
9.70843e-11
3.02079e-10
6.44471e-05
2.00179e-11
1.45136e-10
6.44469e-05
-8.9101e-11
-4.85579e-10
6.9881e-11
3.414e-10
7.69397e-05
-4.67856e-11
-1.92044e-10
7.69395e-05
5.7255e-12
-8.28765e-11
4.17394e-11
2.76318e-10
9.14022e-05
-8.71529e-11
-6.65475e-10
9.14019e-05
6.70778e-11
5.26392e-10
2.05971e-11
1.40693e-10
0.000108143
-1.09561e-09
0.000108142
1.01391e-09
8.30599e-11
2.10671e-05
7.68493e-11
-5.07917e-11
2.10671e-05
-8.63831e-11
1.93441e-11
9.93147e-12
2.86069e-11
2.81688e-05
1.48658e-10
-8.46771e-11
2.81689e-05
-1.7849e-10
1.03823e-10
3.05303e-11
-2.20421e-11
3.5274e-05
1.99751e-10
-9.79724e-11
3.52741e-05
-2.53552e-10
1.76371e-10
5.46689e-11
-8.07385e-11
4.33864e-05
2.13467e-10
-4.27077e-11
4.33864e-05
-2.92342e-10
7.78972e-11
7.97791e-11
-3.65872e-11
5.28512e-05
1.77754e-10
9.33422e-11
5.28511e-05
-2.81164e-10
-2.21395e-10
1.04252e-10
1.27766e-10
6.38958e-05
9.98396e-11
2.12674e-10
6.38957e-05
-2.07886e-10
-4.84133e-10
1.08805e-10
2.72109e-10
7.67404e-05
1.07015e-11
1.0391e-10
7.67403e-05
-9.18353e-11
-4.25228e-10
8.18358e-11
3.22332e-10
9.16408e-05
-5.77145e-11
-2.77535e-10
9.16405e-05
5.58424e-12
4.31693e-11
5.27474e-11
2.35848e-10
0.000108908
-9.60068e-11
-8.11458e-10
0.000108907
6.54841e-11
7.54239e-10
3.10101e-11
5.89584e-11
0.000128901
-1.31116e-09
0.000128901
1.34748e-09
-3.48229e-11
2.53169e-05
9.13255e-11
-5.72635e-11
2.5317e-05
-1.09425e-10
1.47148e-11
1.84191e-11
3.93885e-11
3.38738e-05
1.74061e-10
-9.1215e-11
3.38739e-05
-2.19712e-10
1.01653e-10
4.62269e-11
-1.35911e-11
4.22901e-05
2.25347e-10
-1.06942e-10
4.22902e-05
-2.98092e-10
1.87424e-10
7.34371e-11
-8.29382e-11
5.18335e-05
2.28793e-10
-5.97316e-11
5.18335e-05
-3.24397e-10
1.22971e-10
9.63115e-11
-6.46526e-11
6.29805e-05
1.78232e-10
6.57187e-11
6.29804e-05
-2.92268e-10
-1.44355e-10
1.14662e-10
7.84305e-11
7.60367e-05
8.71141e-11
1.7655e-10
7.60365e-05
-2.04432e-10
-4.07442e-10
1.17855e-10
2.31629e-10
9.12774e-05
-7.51854e-12
5.42648e-11
9.12772e-05
-8.60899e-11
-3.48022e-10
9.41188e-11
2.94797e-10
0.000109008
-7.4727e-11
-3.60761e-10
0.000109008
7.90566e-12
1.72698e-10
6.73015e-11
1.89575e-10
0.000129589
-1.07285e-10
-9.39647e-10
0.000129589
5.95478e-11
9.71066e-10
4.81351e-11
-2.95979e-11
0.000153441
-1.49958e-09
0.000153441
1.66286e-09
-1.61686e-10
3.03361e-05
1.09092e-10
-6.42147e-11
3.03362e-05
-1.39597e-10
1.73537e-11
3.06877e-11
4.35174e-11
4.06503e-05
2.05017e-10
-9.82416e-11
4.06505e-05
-2.7597e-10
1.04304e-10
7.12866e-11
-9.36475e-12
5.0665e-05
2.55916e-10
-1.17405e-10
5.06651e-05
-3.59373e-10
2.03561e-10
1.03841e-10
-8.86637e-11
6.19163e-05
2.44366e-10
-8.08734e-11
6.19163e-05
-3.6216e-10
1.74522e-10
1.18153e-10
-9.50373e-11
7.50332e-05
1.70037e-10
2.78292e-11
7.5033e-05
-2.91856e-10
-5.46755e-11
1.22076e-10
2.67428e-11
9.04275e-05
5.96249e-11
1.28784e-10
9.04273e-05
-1.80339e-10
-3.09719e-10
1.20889e-10
1.81755e-10
0.000108456
-4.02046e-11
3.81952e-12
0.000108456
-6.34069e-11
-2.61735e-10
1.03803e-10
2.58939e-10
0.000129496
-1.0167e-10
-4.24495e-10
0.000129496
1.78517e-11
2.80623e-10
8.40616e-11
1.45332e-10
0.000153978
-1.23294e-10
-1.02025e-09
0.000153978
5.15931e-11
1.13038e-09
7.19294e-11
-1.08295e-10
0.000182392
-1.61746e-09
0.000182392
1.88998e-09
-2.70863e-10
3.62489e-05
1.30052e-10
-7.15988e-11
3.6249e-05
-1.74093e-10
2.86695e-11
4.40155e-11
3.96107e-11
4.86588e-05
2.41785e-10
-1.04712e-10
4.8659e-05
-3.43939e-10
1.11607e-10
1.021e-10
-1.01682e-11
6.06155e-05
2.90799e-10
-1.27167e-10
6.06155e-05
-4.31157e-10
2.18455e-10
1.40251e-10
-9.37415e-11
7.39183e-05
2.57236e-10
-1.02508e-10
7.39182e-05
-3.96241e-10
2.20144e-10
1.38813e-10
-1.18939e-10
8.93557e-05
1.47158e-10
-1.39047e-11
8.93555e-05
-2.69698e-10
3.45964e-11
1.22235e-10
-2.06819e-11
0.000107472
9.19021e-12
7.67044e-11
0.000107471
-1.21712e-10
-2.02525e-10
1.12155e-10
1.26702e-10
0.000128735
-9.54954e-11
-3.72895e-11
0.000128734
-9.35994e-12
-1.78066e-10
1.04571e-10
2.16297e-10
0.000153626
-1.44532e-10
-4.48578e-10
0.000153626
4.61523e-11
3.37597e-10
9.82584e-11
1.12278e-10
0.000182674
-1.48138e-10
-1.02061e-09
0.000182674
5.18474e-11
1.17475e-09
9.62211e-11
-1.52351e-10
0.000216461
-1.61566e-09
0.000216461
1.94704e-09
-3.29865e-10
4.31885e-05
1.52435e-10
-7.6124e-11
4.31887e-05
-2.07564e-10
4.37984e-11
5.48248e-11
2.9311e-11
5.807e-05
2.82362e-10
-1.06191e-10
5.80702e-05
-4.1579e-10
1.17532e-10
1.3283e-10
-1.43196e-11
7.23647e-05
3.2723e-10
-1.29839e-10
7.23648e-05
-5.05888e-10
2.20618e-10
1.77841e-10
-9.30141e-11
8.81363e-05
2.62513e-10
-1.15977e-10
8.81362e-05
-4.1796e-10
2.42653e-10
1.54466e-10
-1.27814e-10
0.000106322
1.01506e-10
-4.87541e-11
0.000106322
-2.11957e-10
1.03413e-10
1.09358e-10
-5.45366e-11
0.000127615
-7.43187e-11
3.02775e-11
0.000127615
-9.62631e-12
-1.04069e-10
8.28249e-11
7.47001e-11
0.000152627
-1.83933e-10
-5.82256e-11
0.000152627
9.71745e-11
-1.10499e-10
8.57215e-11
1.69583e-10
0.000181981
-2.11843e-10
-4.156e-10
0.000181981
1.10719e-10
3.21388e-10
1.00453e-10
9.51442e-11
0.000216346
-1.8235e-10
-9.23128e-10
0.000216346
7.33642e-11
1.06148e-09
1.08573e-10
-1.36829e-10
0.000256428
-1.45484e-09
0.000256429
1.76214e-09
-3.05876e-10
5.12903e-05
1.73945e-10
-7.05727e-11
5.12905e-05
-2.34674e-10
5.14378e-11
6.00879e-11
1.67622e-11
6.90558e-05
3.23727e-10
-9.4315e-11
6.90561e-05
-4.82546e-10
1.09176e-10
1.57542e-10
-1.72047e-11
8.61265e-05
3.62306e-10
-1.15081e-10
8.61267e-05
-5.75255e-10
1.93626e-10
2.11219e-10
-8.0328e-11
0.000104855
2.56035e-10
-1.09599e-10
0.000104854
-4.18714e-10
2.22088e-10
1.60686e-10
-1.13364e-10
0.000126303
2.6177e-11
-6.39694e-11
0.000126303
-1.04369e-10
1.29202e-10
7.61e-11
-6.50125e-11
0.000151315
-2.00011e-10
-4.41727e-13
0.000151314
1.75963e-10
-3.25627e-11
2.20068e-11
3.38626e-11
0.000180673
-3.12286e-10
-5.54649e-11
0.000180673
2.79942e-10
-6.631e-11
3.05869e-11
1.22349e-10
0.000215186
-3.0898e-10
-3.19922e-10
0.000215186
2.33087e-10
2.34099e-10
7.45063e-11
8.63847e-11
0.000255712
-2.40444e-10
-7.07153e-10
0.000255713
1.29422e-10
7.90392e-10
1.10022e-10
-8.21003e-11
0.000303128
-1.11007e-09
0.000303128
1.31811e-09
-2.0695e-10
6.06756e-05
1.94273e-10
-4.67229e-11
6.06759e-05
-2.55148e-10
3.96205e-11
5.98416e-11
5.76249e-12
8.17681e-05
3.65186e-10
-5.91596e-11
8.17684e-05
-5.41892e-10
7.08974e-11
1.74691e-10
-1.30986e-11
0.000102075
3.96644e-10
-7.17406e-11
0.000102075
-6.38353e-10
1.1982e-10
2.38977e-10
-4.91474e-11
0.000124293
2.39175e-10
-7.17453e-11
0.000124293
-4.00499e-10
1.41228e-10
1.58215e-10
-6.99803e-11
0.000149596
-7.72619e-11
-4.91293e-11
0.000149595
5.40978e-11
9.62939e-11
1.9993e-11
-4.68812e-11
0.000178961
-3.69297e-10
-1.08444e-11
0.000178961
4.38917e-10
3.39447e-12
-7.26155e-11
8.13211e-12
0.000213364
-4.86307e-10
-3.31207e-11
0.000213364
5.43838e-10
-3.41821e-11
-6.01761e-11
6.75275e-11
0.000253837
-4.42146e-10
-1.74353e-10
0.000253838
4.20885e-10
1.11817e-10
1.90481e-11
6.26644e-11
0.000301479
-3.26576e-10
-3.88726e-10
0.000301479
2.37659e-10
4.14549e-10
8.72415e-11
-2.52211e-11
0.000357382
-6.08108e-10
0.000357383
6.94891e-10
-8.61767e-11
7.1417e-05
2.15702e-10
7.14173e-05
-2.73179e-10
5.61368e-11
9.6291e-05
4.13559e-10
9.62914e-05
-6.05006e-10
1.88747e-10
0.00012028
4.42639e-10
0.00012028
-7.16959e-10
2.70552e-10
0.000146511
2.33963e-10
0.000146511
-4.00058e-10
1.61829e-10
0.000176286
-1.79874e-10
0.000176286
2.15801e-10
-3.99097e-11
0.000210719
-5.54262e-10
0.000210719
7.28614e-10
-1.77653e-10
0.00025098
-6.83244e-10
0.00025098
8.47325e-10
-1.67157e-10
0.000298349
-5.97356e-10
0.000298349
6.44274e-10
-4.98651e-11
0.000354189
-4.32812e-10
0.00035419
3.80455e-10
5.00112e-11
0.000419843
0.000419844
)
;

boundaryField
{
    freeSurface
    {
        type            calculated;
        value           uniform 0;
    }
    inlet
    {
        type            cyclic;
        value           nonuniform List<scalar> 
240
(
-4.67773e-07
-4.48221e-07
-6.28431e-07
-8.28329e-07
-1.05554e-06
-1.31855e-06
-1.62538e-06
-1.98459e-06
-2.40613e-06
-2.90094e-06
-7.11e-07
-1.15942e-06
-1.52399e-06
-1.91855e-06
-2.36401e-06
-2.87587e-06
-3.46805e-06
-4.15474e-06
-4.95144e-06
-5.87395e-06
-9.35029e-07
-1.71622e-06
-2.2301e-06
-2.77912e-06
-3.39913e-06
-4.11177e-06
-4.93634e-06
-5.89266e-06
-7.00257e-06
-8.28868e-06
-1.21563e-06
-2.25631e-06
-2.93389e-06
-3.64793e-06
-4.45239e-06
-5.37636e-06
-6.44503e-06
-7.6842e-06
-9.12229e-06
-1.07889e-05
-1.56853e-06
-2.84247e-06
-3.70714e-06
-4.60892e-06
-5.62154e-06
-6.78334e-06
-8.12642e-06
-9.68341e-06
-1.14902e-05
-1.35843e-05
-2.01183e-06
-3.50876e-06
-4.58928e-06
-5.71083e-06
-6.9656e-06
-8.40324e-06
-1.00642e-05
-1.1989e-05
-1.42225e-05
-1.68111e-05
-2.56631e-06
-4.28421e-06
-5.61303e-06
-6.99449e-06
-8.53492e-06
-1.02971e-05
-1.23313e-05
-1.46879e-05
-1.74219e-05
-2.05907e-05
-3.25541e-06
-5.19917e-06
-6.81202e-06
-8.50123e-06
-1.03808e-05
-1.25275e-05
-1.50034e-05
-1.78703e-05
-2.11955e-05
-2.50493e-05
-4.10508e-06
-6.28819e-06
-8.22451e-06
-1.02768e-05
-1.25599e-05
-1.51639e-05
-1.81644e-05
-2.16366e-05
-2.56629e-05
-3.03287e-05
-5.14375e-06
-7.59208e-06
-9.89599e-06
-1.23742e-05
-1.51369e-05
-1.82856e-05
-2.19105e-05
-2.61025e-05
-3.09618e-05
-3.6592e-05
-6.40272e-06
-9.1596e-06
-1.18815e-05
-1.48561e-05
-1.81873e-05
-2.19846e-05
-2.63534e-05
-3.14024e-05
-3.72526e-05
-4.40296e-05
-7.91712e-06
-1.1049e-05
-1.42479e-05
-1.7798e-05
-2.17999e-05
-2.63684e-05
-3.16234e-05
-3.76933e-05
-4.47231e-05
-5.28649e-05
-9.72766e-06
-1.33293e-05
-1.70767e-05
-2.12917e-05
-2.60807e-05
-3.15635e-05
-3.78731e-05
-4.51591e-05
-5.35937e-05
-6.336e-05
-1.18829e-05
-1.60815e-05
-2.04659e-05
-2.54484e-05
-3.11569e-05
-3.7719e-05
-4.52812e-05
-5.40146e-05
-6.41218e-05
-7.58221e-05
-1.44416e-05
-1.9399e-05
-2.45328e-05
-3.0403e-05
-3.71815e-05
-4.50121e-05
-5.40571e-05
-6.45108e-05
-7.66081e-05
-9.06103e-05
-1.74748e-05
-2.33883e-05
-2.94155e-05
-3.6318e-05
-4.43391e-05
-5.36538e-05
-6.4447e-05
-7.69396e-05
-9.1402e-05
-0.000108142
-2.10671e-05
-2.81689e-05
-3.52741e-05
-4.33864e-05
-5.28512e-05
-6.38957e-05
-7.67403e-05
-9.16406e-05
-0.000108908
-0.000128901
-2.53169e-05
-3.38739e-05
-4.22901e-05
-5.18335e-05
-6.29804e-05
-7.60365e-05
-9.12773e-05
-0.000109008
-0.000129589
-0.000153441
-3.03362e-05
-4.06504e-05
-5.06651e-05
-6.19163e-05
-7.5033e-05
-9.04273e-05
-0.000108456
-0.000129496
-0.000153978
-0.000182392
-3.6249e-05
-4.86589e-05
-6.06155e-05
-7.39183e-05
-8.93555e-05
-0.000107472
-0.000128734
-0.000153626
-0.000182674
-0.000216461
-4.31886e-05
-5.80701e-05
-7.23647e-05
-8.81363e-05
-0.000106322
-0.000127615
-0.000152627
-0.000181981
-0.000216346
-0.000256429
-5.12905e-05
-6.9056e-05
-8.61266e-05
-0.000104854
-0.000126303
-0.000151314
-0.000180673
-0.000215186
-0.000255713
-0.000303128
-6.06758e-05
-8.17683e-05
-0.000102075
-0.000124293
-0.000149595
-0.000178961
-0.000213364
-0.000253838
-0.000301479
-0.000357382
-7.14173e-05
-9.62912e-05
-0.00012028
-0.000146511
-0.000176286
-0.000210719
-0.00025098
-0.000298349
-0.00035419
-0.000419844
)
;
    }
    outlet
    {
        type            cyclic;
        value           nonuniform List<scalar> 
240
(
4.67773e-07
4.48221e-07
6.28431e-07
8.28329e-07
1.05554e-06
1.31855e-06
1.62538e-06
1.98459e-06
2.40613e-06
2.90094e-06
7.11e-07
1.15942e-06
1.52399e-06
1.91855e-06
2.36401e-06
2.87587e-06
3.46805e-06
4.15474e-06
4.95144e-06
5.87395e-06
9.35029e-07
1.71622e-06
2.2301e-06
2.77912e-06
3.39913e-06
4.11177e-06
4.93634e-06
5.89266e-06
7.00257e-06
8.28868e-06
1.21563e-06
2.25631e-06
2.93389e-06
3.64793e-06
4.45239e-06
5.37636e-06
6.44503e-06
7.6842e-06
9.12229e-06
1.07889e-05
1.56853e-06
2.84247e-06
3.70714e-06
4.60892e-06
5.62154e-06
6.78334e-06
8.12642e-06
9.68341e-06
1.14902e-05
1.35843e-05
2.01183e-06
3.50876e-06
4.58928e-06
5.71083e-06
6.9656e-06
8.40324e-06
1.00642e-05
1.1989e-05
1.42225e-05
1.68111e-05
2.56631e-06
4.28421e-06
5.61303e-06
6.99449e-06
8.53492e-06
1.02971e-05
1.23313e-05
1.46879e-05
1.74219e-05
2.05907e-05
3.25541e-06
5.19917e-06
6.81202e-06
8.50123e-06
1.03808e-05
1.25275e-05
1.50034e-05
1.78703e-05
2.11955e-05
2.50493e-05
4.10508e-06
6.28819e-06
8.22451e-06
1.02768e-05
1.25599e-05
1.51639e-05
1.81644e-05
2.16366e-05
2.56629e-05
3.03287e-05
5.14375e-06
7.59208e-06
9.89599e-06
1.23742e-05
1.51369e-05
1.82856e-05
2.19105e-05
2.61025e-05
3.09618e-05
3.6592e-05
6.40272e-06
9.1596e-06
1.18815e-05
1.48561e-05
1.81873e-05
2.19846e-05
2.63534e-05
3.14024e-05
3.72526e-05
4.40296e-05
7.91712e-06
1.1049e-05
1.42479e-05
1.7798e-05
2.17999e-05
2.63684e-05
3.16234e-05
3.76933e-05
4.47231e-05
5.28649e-05
9.72766e-06
1.33293e-05
1.70767e-05
2.12917e-05
2.60807e-05
3.15635e-05
3.78731e-05
4.51591e-05
5.35937e-05
6.336e-05
1.18829e-05
1.60815e-05
2.04659e-05
2.54484e-05
3.11569e-05
3.7719e-05
4.52812e-05
5.40146e-05
6.41218e-05
7.58221e-05
1.44416e-05
1.9399e-05
2.45328e-05
3.0403e-05
3.71815e-05
4.50121e-05
5.40571e-05
6.45108e-05
7.66081e-05
9.06103e-05
1.74748e-05
2.33883e-05
2.94155e-05
3.6318e-05
4.43391e-05
5.36538e-05
6.4447e-05
7.69396e-05
9.1402e-05
0.000108142
2.10671e-05
2.81689e-05
3.52741e-05
4.33864e-05
5.28512e-05
6.38957e-05
7.67403e-05
9.16406e-05
0.000108908
0.000128901
2.53169e-05
3.38739e-05
4.22901e-05
5.18335e-05
6.29804e-05
7.60365e-05
9.12773e-05
0.000109008
0.000129589
0.000153441
3.03362e-05
4.06504e-05
5.06651e-05
6.19163e-05
7.5033e-05
9.04273e-05
0.000108456
0.000129496
0.000153978
0.000182392
3.6249e-05
4.86589e-05
6.06155e-05
7.39183e-05
8.93555e-05
0.000107472
0.000128734
0.000153626
0.000182674
0.000216461
4.31886e-05
5.80701e-05
7.23647e-05
8.81363e-05
0.000106322
0.000127615
0.000152627
0.000181981
0.000216346
0.000256429
5.12905e-05
6.9056e-05
8.61266e-05
0.000104854
0.000126303
0.000151314
0.000180673
0.000215186
0.000255713
0.000303128
6.06758e-05
8.17683e-05
0.000102075
0.000124293
0.000149595
0.000178961
0.000213364
0.000253838
0.000301479
0.000357382
7.14173e-05
9.62912e-05
0.00012028
0.000146511
0.000176286
0.000210719
0.00025098
0.000298349
0.00035419
0.000419844
)
;
    }
    sidewalls
    {
        type            calculated;
        value           uniform 0;
    }
    noSlipWalls
    {
        type            calculated;
        value           uniform 0;
    }
    procBoundary0to1
    {
        type            processor;
        value           nonuniform List<scalar> 
72
(
-7.63649e-12
7.2847e-12
3.72516e-13
-1.44626e-11
1.32568e-11
1.24653e-12
-1.96117e-11
1.7659e-11
2.00929e-12
-2.46412e-11
2.20078e-11
2.7062e-12
-2.99732e-11
2.67617e-11
3.30171e-12
-3.59486e-11
3.22018e-11
3.85681e-12
-4.269e-11
3.85471e-11
4.27522e-12
-5.04067e-11
4.58651e-11
4.69925e-12
-5.86395e-11
5.37787e-11
5.04636e-12
-6.68275e-11
6.18449e-11
5.19915e-12
-7.43442e-11
6.9587e-11
5.0065e-12
-8.01431e-11
7.61327e-11
4.29371e-12
-8.65156e-11
8.37551e-11
3.07718e-12
-9.33166e-11