/*--------------------------------*- C++ -*----------------------------------*\
  =========                 |
  \\      /  F ield         | OpenFOAM: The Open Source CFD Toolbox
   \\    /   O peration     | Website:  https://openfoam.org
    \\  /    A nd           | Version:  6
     \\/     M anipulation  |
\*---------------------------------------------------------------------------*/
FoamFile
{
    version     2.0;
    format      ascii;
    class       volVectorField;
    location    "41";
    object      wallShearStress;
}
// * * * * * * * * * * * * * * * * * * * * * * * * * * * * * * * * * * * * * //

dimensions      [0 2 -2 0 0 0 0];

internalField   uniform (0 0 0);

boundaryField
{
    inlet
    {
        type            calculated;
        value           uniform (0 0 0);
    }
    outlet
    {
        type            calculated;
        value           uniform (0 0 0);
    }
    roughCylinder
    {
        type            calculated;
        value           nonuniform List<vector> 
3840
(
(-0.000414365 -0.000598697 -0.0002532)
(-0.000330836 -0.000504265 -1.73997e-05)
(-0.000364901 -0.000578789 4.09612e-05)
(-0.000451851 -0.00068366 0.00010996)
(-0.000544045 -0.000754966 0.000175816)
(-0.000634985 -0.000794579 0.000231495)
(-0.000717534 -0.000807964 0.000273999)
(-0.000789554 -0.000809005 0.000303796)
(-0.000851148 -0.000812038 0.000323468)
(-0.000899827 -0.000820572 0.000332775)
(-0.000940041 -0.000836624 0.000333614)
(-0.000974157 -0.000858703 0.000328552)
(-0.0010057 -0.000885145 0.000319802)
(-0.00103767 -0.000914778 0.000308841)
(-0.0010717 -0.00094694 0.000296278)
(-0.0011084 -0.000981349 0.000282217)
(-0.00114787 -0.00101792 0.000266554)
(-0.00118979 -0.00105632 0.000248982)
(-0.00123359 -0.00109599 0.000228925)
(-0.00127841 -0.00113602 0.000205371)
(-0.00132285 -0.00117506 0.00017649)
(-0.00136469 -0.00121106 0.000139688)
(-0.00139959 -0.00124101 9.10013e-05)
(-0.00142059 -0.0012595 3.13692e-05)
(-0.000454623 -0.000599575 -0.000255048)
(-0.000355166 -0.000495728 -2.19563e-05)
(-0.00038353 -0.000561905 3.30832e-05)
(-0.000472674 -0.000666864 9.89762e-05)
(-0.000567355 -0.000740428 0.000163078)
(-0.000661246 -0.000783334 0.000217913)
(-0.000747753 -0.000801238 0.000260598)
(-0.000825051 -0.000807281 0.000292025)
(-0.000891912 -0.00081217 0.000313748)
(-0.000943185 -0.000818696 0.000323774)
(-0.000985181 -0.000833472 0.000324902)
(-0.00102126 -0.000854832 0.00032006)
(-0.00105475 -0.000880871 0.0003115)
(-0.0010885 -0.000910099 0.00030071)
(-0.00112434 -0.000941876 0.000288403)
(-0.00116307 -0.000976008 0.000274747)
(-0.00120457 -0.00101219 0.000259571)
(-0.00124857 -0.00105015 0.000242581)
(-0.00129445 -0.0010893 0.000223185)
(-0.00134133 -0.00112878 0.000200373)
(-0.00138775 -0.00116725 0.000172319)
(-0.00143138 -0.00120271 0.000136463)
(-0.00146777 -0.00123221 8.89184e-05)
(-0.00148965 -0.0012504 3.06446e-05)
(-0.0004747 -0.000565606 -0.000237463)
(-0.000376129 -0.000477692 -2.66535e-05)
(-0.000401127 -0.000539285 2.45468e-05)
(-0.000491678 -0.000643455 8.69926e-05)
(-0.000588697 -0.000719188 0.000149238)
(-0.000685508 -0.00076559 0.00020337)
(-0.000776567 -0.00078875 0.000246727)
(-0.000859177 -0.000799835 0.000279748)
(-0.000930581 -0.000806892 0.000302879)
(-0.000985232 -0.000811629 0.000313611)
(-0.00102947 -0.000825218 0.000315304)
(-0.00106756 -0.000845554 0.00031072)
(-0.00110283 -0.000870766 0.000302365)
(-0.00113851 -0.00089945 0.000291859)
(-0.00117633 -0.000930739 0.000279918)
(-0.00121686 -0.000964179 0.000266677)
(-0.00126032 -0.000999687 0.000252043)
(-0.0013063 -0.0010369 0.000235689)
(-0.0013542 -0.00107528 0.000217019)
(-0.00140304 -0.00111394 0.000195009)
(-0.00145133 -0.00115157 0.000167845)
(-0.00149666 -0.00118625 0.000133004)
(-0.00153444 -0.0012151 8.66863e-05)
(-0.00155714 -0.00123287 2.98693e-05)
(-0.000508131 -0.000545132 -0.000221436)
(-0.000398561 -0.000458813 -3.2092e-05)
(-0.000414555 -0.000511075 1.54876e-05)
(-0.000505947 -0.000613908 7.42482e-05)
(-0.000605245 -0.000691884 0.000134436)
(-0.000705709 -0.000742836 0.000187991)
(-0.000801337 -0.000771396 0.000232087)
(-0.000888802 -0.000787005 0.000266513)
(-0.000964275 -0.0007959 0.000290615)
(-0.00102424 -0.000801084 0.000302729)
(-0.00107051 -0.000812589 0.000304914)
(-0.00111071 -0.000831646 0.000300679)
(-0.00114815 -0.000856068 0.000292713)
(-0.00118566 -0.000883919 0.000282537)
(-0.00122521 -0.000914355 0.000270983)
(-0.00126777 -0.000947128 0.000258285)
(-0.00131315 -0.000981816 0.000244261)
(-0.00136106 -0.00101813 0.000228604)
(-0.00141081 -0.00105549 0.000210695)
(-0.00146144 -0.00109309 0.000189519)
(-0.00151143 -0.00112967 0.000163274)
(-0.00155828 -0.00116335 0.000129474)
(-0.00159732 -0.00119137 8.44106e-05)
(-0.00162074 -0.00120861 2.908e-05)
(-0.000533081 -0.000513823 -0.00019655)
(-0.000416887 -0.000432352 -3.82635e-05)
(-0.000423977 -0.000479249 6.40086e-06)
(-0.000514917 -0.000579332 6.11284e-05)
(-0.000616537 -0.000659516 0.000118955)
(-0.000720064 -0.000714374 0.00017153)
(-0.000820293 -0.000748357 0.000216224)
(-0.000912759 -0.000768503 0.000252008)
(-0.000993201 -0.00077995 0.000277313)
(-0.0010576 -0.000785723 0.000290604)
(-0.00110764 -0.000795333 0.000293681)
(-0.00115021 -0.000813048 0.000290034)
(-0.00118955 -0.000836073 0.000282464)
(-0.0012291 -0.000862982 0.000272771)
(-0.00127071 -0.000892621 0.000261768)
(-0.00131488 -0.000924271 0.00024961)
(-0.001362 -0.000957861 0.000236244)
(-0.00141161 -0.000992991 0.000221319)
(-0.00146309 -0.00102915 0.000204224)
(-0.00151537 -0.00106547 0.000183921)
(-0.00156687 -0.00110077 0.000158624)
(-0.0016151 -0.00113324 0.000125889)
(-0.00165526 -0.00116027 8.21038e-05)
(-0.00167931 -0.00117687 2.82816e-05)
(-0.000483252 -0.000415568 -0.000149312)
(-0.000423249 -0.000396329 -4.31551e-05)
(-0.000427336 -0.000442421 -2.43663e-06)
(-0.000517424 -0.000540041 4.76078e-05)
(-0.000620828 -0.00062197 0.000102604)
(-0.000728379 -0.000681597 0.000154113)
(-0.000833244 -0.000720724 0.000199177)
(-0.000930373 -0.000744785 0.00023607)
(-0.00101486 -0.000757945 0.000262379)
(-0.00108503 -0.000765682 0.000277153)
(-0.00113996 -0.00077427 0.000281449)
(-0.00118502 -0.000789522 0.000278514)
(-0.00122699 -0.000811389 0.000271659)
(-0.00126853 -0.000836998 0.000262538)
(-0.00131172 -0.000865266 0.000252093)
(-0.00135792 -0.000895897 0.000240656)
(-0.00140681 -0.00092827 0.000228036)
(-0.00145813 -0.00096209 0.000213919)
(-0.00151112 -0.000996773 0.000197669)
(-0.00156483 -0.00103159 0.000178265)
(-0.00161767 -0.00106538 0.000153935)
(-0.00166707 -0.00109644 0.000122277)
(-0.0017082 -0.00112229 7.97829e-05)
(-0.00173277 -0.00113816 2.74797e-05)
(-0.000598443 -0.000455189 -0.000157822)
(-0.000432508 -0.000368564 -4.71126e-05)
(-0.000426309 -0.000403526 -1.1095e-05)
(-0.000512969 -0.000497202 3.37831e-05)
(-0.000618345 -0.000581177 8.55769e-05)
(-0.000728591 -0.000644178 0.000135423)
(-0.000837898 -0.000687988 0.000180494)
(-0.000940058 -0.000715941 0.000218357)
(-0.00103064 -0.000732185 0.000246199)
(-0.00110499 -0.000740584 0.000262096)
(-0.00116555 -0.000749445 0.000267882)
(-0.00121526 -0.000763024 0.000266214)
(-0.00125941 -0.000782371 0.000260105)
(-0.00130321 -0.000806456 0.000251766)
(-0.00134872 -0.000833604 0.000242138)
(-0.00139633 -0.00086264 0.000231406)
(-0.00144673 -0.000893494 0.000219582)
(-0.00149943 -0.00092569 0.000206309)
(-0.00155384 -0.000958769 0.000190965)
(-0.00160882 -0.000991903 0.000172503)
(-0.0016628 -0.00102403 0.00014917)
(-0.00171323 -0.00105352 0.000118614)
(-0.00175517 -0.00107806 7.74334e-05)
(-0.00178015 -0.00109313 2.66698e-05)
(-0.000534831 -0.000360037 -0.00011943)
(-0.000424854 -0.00032818 -4.914e-05)
(-0.000417035 -0.000361116 -1.95474e-05)
(-0.000500405 -0.00045124 1.99096e-05)
(-0.000606022 -0.000535662 6.77024e-05)
(-0.000720209 -0.000603087 0.000115573)
(-0.000834303 -0.000651551 0.000160303)
(-0.000941716 -0.000683203 0.0001989)
(-0.0010363 -0.00070084 0.000227736)
(-0.00111747 -0.000711528 0.000245512)
(-0.00118312 -0.000720441 0.000252792)
(-0.00123744 -0.000732833 0.000252522)
(-0.00128614 -0.000750701 0.000247815)
(-0.00133249 -0.000772796 0.00024048)
(-0.00137946 -0.000797834 0.000231645)
(-0.00142921 -0.000825432 0.000221859)
(-0.00148126 -0.000854671 0.000210948)
(-0.00153546 -0.000885203 0.000198614)
(-0.00159101 -0.000916413 0.000184205)
(-0.00164702 -0.000947663 0.000166707)
(-0.00170189 -0.000977906 0.000144384)
(-0.0017531 -0.00100561 0.000114935)
(-0.00179569 -0.00102867 7.50768e-05)
(-0.00182094 -0.00104288 2.58597e-05)
(-0.000532512 -0.000319049 -9.34719e-05)
(-0.000425818 -0.000293141 -5.34587e-05)
(-0.000401822 -0.000318774 -2.74034e-05)
(-0.000478659 -0.000402375 6.28055e-06)
(-0.000585514 -0.000488109 4.94816e-05)
(-0.000701292 -0.00055793 9.44329e-05)
(-0.000819535 -0.000610378 0.000138159)
(-0.000932124 -0.000645476 0.000177096)
(-0.00103463 -0.000666976 0.000207634)
(-0.00112035 -0.000678186 0.000226892)
(-0.00119206 -0.000687615 0.000236101)
(-0.00125194 -0.000699525 0.000237638)
(-0.00130411 -0.00071561 0.000234312)
(-0.00135368 -0.000735887 0.000228273)
(-0.00140381 -0.000759481 0.000220694)
(-0.00145495 -0.000784993 0.00021188)
(-0.00150834 -0.000812302 0.000201963)
(-0.00156358 -0.000840831 0.000190614)
(-0.00162022 -0.000870133 0.000177228)
(-0.00167708 -0.000899405 0.000160753)
(-0.0017327 -0.00092769 0.000139485)
(-0.00178462 -0.000953575 0.000111184)
(-0.00182778 -0.000975138 7.26852e-05)
(-0.0018531 -0.000988411 2.50396e-05)
(-0.000461734 -0.000242577 -6.49206e-05)
(-0.000401663 -0.00024817 -5.464e-05)
(-0.00037787 -0.000274668 -3.39789e-05)
(-0.000447808 -0.000351959 -6.78599e-06)
(-0.000551826 -0.000435726 3.08062e-05)
(-0.000671118 -0.000509391 7.22158e-05)
(-0.000794233 -0.000566191 0.000114361)
(-0.000913268 -0.000605366 0.000153422)
(-0.00101953 -0.000627772 0.000184669)
(-0.00111365 -0.000641634 0.000206229)
(-0.0011914 -0.000651285 0.000217573)
(-0.00125608 -0.000662163 0.000221043)
(-0.00131335 -0.000677234 0.00021962)
(-0.00136627 -0.000695764 0.000215103)
(-0.00141799 -0.000717034 0.000208726)
(-0.00147165 -0.000740999 0.000201235)
(-0.00152671 -0.000766488 0.000192499)
(-0.00158328 -0.000793142 0.00018229)
(-0.00164057 -0.000820314 0.000169976)
(-0.00169794 -0.000847474 0.000154574)
(-0.00175393 -0.000873704 0.000134404)
(-0.00180619 -0.000897702 0.000107292)
(-0.0018496 -0.000917695 7.02049e-05)
(-0.00187485 -0.000929964 2.41905e-05)
(-0.000444978 -0.000204292 -4.80198e-05)
(-0.000385973 -0.000212369 -5.72288e-05)
(-0.0003471 -0.000231415 -3.98535e-05)
(-0.000405271 -0.000299097 -1.86935e-05)
(-0.000509442 -0.000383045 1.24845e-05)
(-0.000628402 -0.000457555 4.91011e-05)
(-0.000755233 -0.000517851 8.86754e-05)
(-0.000879183 -0.000560096 0.000127021)
(-0.000996093 -0.000587581 0.000159892)
(-0.00109534 -0.00060181 0.00018316)
(-0.00118006 -0.000611896 0.000197015)
(-0.00125155 -0.000622518 0.000203046)
(-0.0013126 -0.000635656 0.000203565)
(-0.00136896 -0.000652301 0.00020082)
(-0.00142444 -0.000672179 0.000196165)
(-0.00147915 -0.000693727 0.00018994)
(-0.00153516 -0.000716977 0.000182437)
(-0.00159223 -0.000741309 0.0001734)
(-0.00165014 -0.000766343 0.000162275)
(-0.00170775 -0.000791303 0.000148026)
(-0.00176382 -0.000815398 0.000129023)
(-0.00181613 -0.000837448 0.00010317)
(-0.00185955 -0.000855834 6.75781e-05)
(-0.00188455 -0.000867057 2.32926e-05)
(-0.000431599 -0.000171571 -3.16849e-05)
(-0.000355157 -0.000173011 -5.81535e-05)
(-0.000308088 -0.000188408 -4.38635e-05)
(-0.000354429 -0.000246884 -2.89924e-05)
(-0.000450188 -0.000324694 -5.12014e-06)
(-0.000572098 -0.000402448 2.56305e-05)
(-0.000703533 -0.000466939 6.16426e-05)
(-0.000835825 -0.000514454 9.90145e-05)
(-0.000955595 -0.000542298 0.000131992)
(-0.00106529 -0.000559761 0.000157777)
(-0.00115751 -0.000570229 0.000174388)
(-0.0012343 -0.000579537 0.000183018)
(-0.00130159 -0.000591675 0.00018617)
(-0.00136201 -0.000606496 0.000185549)
(-0.00141871 -0.000623603 0.000182472)
(-0.00147629 -0.00064346 0.000177943)
(-0.00153398 -0.000664723 0.000171907)
(-0.0015922 -0.000687007 0.000164233)
(-0.0016502 -0.000709671 0.000154336)
(-0.00170767 -0.000732321 0.000141285)
(-0.00176344 -0.000754195 0.000123483)
(-0.00181543 -0.000774222 9.89213e-05)
(-0.00185855 -0.000790915 6.48694e-05)
(-0.00188312 -0.000801053 2.23685e-05)
(-0.000352194 -0.000118721 -2.03738e-05)
(-0.0003098 -0.000136911 -5.51073e-05)
(-0.000261528 -0.00014674 -4.56486e-05)
(-0.000289548 -0.000191884 -3.59743e-05)
(-0.000384712 -0.000268692 -2.08532e-05)
(-0.000502335 -0.000344559 2.62764e-06)
(-0.000636715 -0.000412383 3.36816e-05)
(-0.000772479 -0.000462576 6.85669e-05)
(-0.00090671 -0.000497728 0.000102545)
(-0.00102204 -0.000515711 0.000130023)
(-0.00112215 -0.000526594 0.000149584)
(-0.00120741 -0.000535793 0.000161542)
(-0.00127896 -0.000545719 0.000167335)
(-0.00134316 -0.000558356 0.000169074)
(-0.00140475 -0.000574105 0.000168277)
(-0.00146302 -0.000591187 0.000165343)
(-0.00152122 -0.000609885 0.000160792)
(-0.00157936 -0.000629584 0.000154485)
(-0.00163752 -0.000649964 0.000145947)
(-0.00169463 -0.000670282 0.000134176)
(-0.00174979 -0.000689906 0.00011764)
(-0.00180119 -0.000707902 9.44373e-05)
(-0.0018438 -0.000722912 6.2014e-05)
(-0.00186777 -0.00073195 2.13967e-05)
(-0.000285359 -8.13855e-05 -9.8645e-06)
(-0.000257068 -0.000102745 -5.16596e-05)
(-0.000209245 -0.000108732 -4.49984e-05)
(-0.000222219 -0.000141422 -3.9536e-05)
(-0.000297114 -0.000203794 -3.23179e-05)
(-0.000418462 -0.000283265 -1.8176e-05)
(-0.000555876 -0.000354874 6.05554e-06)
(-0.000702679 -0.000412729 3.77103e-05)
(-0.000837118 -0.000447638 7.05574e-05)
(-0.000965177 -0.000470246 0.000100224)
(-0.00107446 -0.000482181 0.000122898)
(-0.00116541 -0.000489901 0.00013802)
(-0.00124442 -0.00049881 0.000147147)
(-0.00131365 -0.000509561 0.000151667)
(-0.0013758 -0.000522026 0.000152856)
(-0.00143758 -0.000537346 0.000152044)
(-0.00149768 -0.000553983 0.000149279)
(-0.00155689 -0.000571563 0.000144571)
(-0.00161454 -0.000589446 0.000137415)
(-0.00167085 -0.000607374 0.000126955)
(-0.00172501 -0.000624724 0.000111706)
(-0.0017754 -0.000640643 8.98757e-05)
(-0.00181714 -0.000653924 5.91074e-05)
(-0.00184034 -0.000661879 2.04097e-05)
(-0.000189421 -4.58092e-05 6.6771e-07)
(-0.00019561 -7.06105e-05 -4.71858e-05)
(-0.000153701 -7.53306e-05 -4.18316e-05)
(-0.000134095 -8.3296e-05 -3.3234e-05)
(-0.000216236 -0.000147175 -3.90472e-05)
(-0.000321537 -0.000217869 -3.49566e-05)
(-0.000460671 -0.000293535 -1.94187e-05)
(-0.000607052 -0.000353319 6.65179e-06)
(-0.000761399 -0.000399807 3.83575e-05)
(-0.000894595 -0.000423732 6.89266e-05)
(-0.00101216 -0.000436723 9.44497e-05)
(-0.00111321 -0.000444968 0.000113317)
(-0.00119693 -0.000451654 0.000125657)
(-0.00127005 -0.000459972 0.000133055)
(-0.00133869 -0.000471256 0.0001371)
(-0.00140062 -0.000483473 0.000138212)
(-0.00146062 -0.00049729 0.000137179)
(-0.00151906 -0.000512119 0.000134028)
(-0.00157643 -0.000527694 0.000128399)
(-0.00163173 -0.000543295 0.000119336)
(-0.00168454 -0.000558416 0.000105438)
(-0.00173369 -0.000572328 8.5053e-05)
(-0.00177438 -0.00058394 5.60375e-05)
(-0.0017966 -0.000590833 1.93695e-05)
(-7.66779e-05 -1.50982e-05 8.07244e-06)
(-0.000115559 -3.75421e-05 -3.67143e-05)
(-9.7143e-05 -4.54715e-05 -3.71281e-05)
(-6.10558e-05 -3.8259e-05 -2.25049e-05)
(-7.45778e-05 -5.22645e-05 -2.13727e-05)
(-0.000211845 -0.000146743 -4.14856e-05)
(-0.000350577 -0.000225783 -3.91563e-05)
(-0.000513355 -0.000299009 -2.21068e-05)
(-0.000661163 -0.000344134 6.17263e-06)
(-0.000809613 -0.000375817 3.71357e-05)
(-0.000937591 -0.000391643 6.50954e-05)
(-0.00104414 -0.000399046 8.71018e-05)
(-0.00113616 -0.000405149 0.000103069)
(-0.00121535 -0.000411848 0.000113719)
(-0.00128327 -0.000419406 0.000120055)
(-0.00134956 -0.000429973 0.000123688)
(-0.00141191 -0.000441815 0.000124758)
(-0.00147154 -0.000454612 0.000123447)
(-0.00152774 -0.000467712 0.000119346)
(-0.00158151 -0.000480994 0.000111692)
(-0.00163258 -0.000493941 9.91497e-05)
(-0.00168001 -0.000505868 8.0202e-05)
(-0.00171924 -0.000515822 5.29456e-05)
(-0.00174034 -0.000521708 1.83245e-05)
(-8.8772e-06 5.64436e-07 1.11952e-05)
(-2.4818e-05 -6.95008e-06 -1.20404e-05)
(-3.24011e-05 -1.5341e-05 -2.10349e-05)
(-5.01626e-05 -3.51878e-05 -3.09445e-05)
(-4.99155e-05 -3.94331e-05 -2.30366e-05)
(-0.000100695 -7.39134e-05 -3.16751e-05)
(-0.000236539 -0.000154165 -4.86161e-05)
(-0.000385082 -0.000226532 -4.43415e-05)
(-0.000562171 -0.00029259 -2.29817e-05)
(-0.000712098 -0.000326757 6.31647e-06)
(-0.000847478 -0.000345597 3.55445e-05)
(-0.000965019 -0.000355238 6.05585e-05)
(-0.00106167 -0.000359926 7.96805e-05)
(-0.00114435 -0.000364419 9.33638e-05)
(-0.00122096 -0.000371432 0.000102962)
(-0.00128642 -0.000378747 0.000108757)
(-0.00134775 -0.00038767 0.00011175)
(-0.00140559 -0.000397665 0.000112145)
(-0.00146106 -0.000408616 0.000109723)
(-0.00151315 -0.000419763 0.000103566)
(-0.00156211 -0.000430676 9.24444e-05)
(-0.0016076 -0.000440768 7.50199e-05)
(-0.00164524 -0.0004492 4.96443e-05)
(-0.001665 -0.000454138 1.721e-05)
(6.66631e-06 6.30841e-06 1.54031e-05)
(4.85262e-06 7.90108e-07 -7.54133e-06)
(-4.19656e-06 -7.95077e-06 -2.06412e-05)
(-1.70567e-05 -2.31826e-05 -2.77786e-05)
(-3.49411e-05 -3.74592e-05 -3.00748e-05)
(-4.41627e-05 -3.66687e-05 -2.32282e-05)
(-0.000132288 -8.97751e-05 -4.4818e-05)
(-0.000277992 -0.000164689 -5.71215e-05)
(-0.000430797 -0.000225659 -4.53157e-05)
(-0.000601452 -0.000275279 -2.12146e-05)
(-0.000747224 -0.000300256 7.39557e-06)
(-0.000868727 -0.000310956 3.40075e-05)
(-0.000973858 -0.000316561 5.59939e-05)
(-0.00106321 -0.000320423 7.27812e-05)
(-0.00113646 -0.000323586 8.46474e-05)
(-0.0012074 -0.000329764 9.32007e-05)
(-0.0012717 -0.000337088 9.85346e-05)
(-0.00133115 -0.00034541 0.000100985)
(-0.00138467 -0.000354098 0.000100204)
(-0.00143441 -0.000363184 9.55274e-05)
(-0.00148082 -0.000372209 8.58047e-05)
(-0.00152385 -0.000380574 6.9869e-05)
(-0.00155944 -0.000387546 4.63555e-05)
(-0.00157772 -0.000391637 1.61021e-05)
(1.2986e-05 1.12647e-05 2.16101e-05)
(2.40636e-05 7.36311e-06 -7.63375e-06)
(2.18173e-05 -3.53926e-07 -1.47492e-05)
(1.27357e-05 -9.80495e-06 -1.63347e-05)
(-1.0721e-06 -2.44884e-05 -2.3913e-05)
(-2.90589e-05 -3.36039e-05 -2.9378e-05)
(-6.92931e-05 -5.27625e-05 -3.79943e-05)
(-8.1548e-05 -4.89524e-05 -2.58702e-05)
(-0.000322091 -0.000168329 -5.92562e-05)
(-0.00048019 -0.000220542 -4.31828e-05)
(-0.000631613 -0.000252736 -1.76354e-05)
(-0.000764304 -0.000269012 8.9637e-06)
(-0.000872262 -0.000274986 3.26258e-05)
(-0.00096388 -0.000277809 5.17773e-05)
(-0.00104884 -0.000281959 6.68087e-05)
(-0.00111708 -0.000285116 7.74998e-05)
(-0.0011788 -0.000289707 8.47872e-05)
(-0.00123482 -0.000295393 8.89743e-05)
(-0.0012871 -0.000302325 8.99721e-05)
(-0.00133442 -0.000309668 8.68539e-05)
(-0.0013779 -0.000317039 7.85974e-05)
(-0.00141826 -0.000323915 6.42585e-05)
(-0.00145172 -0.000329641 4.27706e-05)
(-0.00146831 -0.000332975 1.48933e-05)
(2.31451e-05 1.32301e-05 2.38978e-05)
(3.63125e-05 1.00668e-05 -8.64873e-06)
(3.7212e-05 2.6405e-06 -1.40527e-05)
(2.95294e-05 -6.40825e-06 -1.3134e-05)
(1.81051e-05 -1.23649e-05 -1.05096e-05)
(3.64606e-06 -2.47811e-05 -1.79152e-05)
(-1.98893e-05 -1.97739e-05 -1.70533e-05)
(-5.24185e-05 -3.27478e-05 -2.43698e-05)
(-0.000144242 -7.44416e-05 -4.01902e-05)
(-0.000353877 -0.000162839 -5.54248e-05)
(-0.00051058 -0.000205341 -3.76509e-05)
(-0.000643158 -0.000225544 -1.33372e-05)
(-0.000760317 -0.000235704 1.05999e-05)
(-0.000858246 -0.000239881 3.15113e-05)
(-0.000934626 -0.000240489 4.81556e-05)
(-0.00100967 -0.000243752 6.14189e-05)
(-0.00107527 -0.000247653 7.10596e-05)
(-0.00113363 -0.000252413 7.74029e-05)
(-0.00118302 -0.000257553 8.00727e-05)
(-0.00122707 -0.000263312 7.84478e-05)
(-0.00126716 -0.000269266 7.15968e-05)
(-0.00130431 -0.000274824 5.878e-05)
(-0.00133511 -0.000279421 3.92559e-05)
(-0.00134993 -0.000282128 1.37103e-05)
(3.30242e-05 1.42316e-05 2.5181e-05)
(7.39947e-05 1.63472e-05 -1.39514e-05)
(8.38727e-05 6.18247e-06 -2.37886e-05)
(6.09732e-05 -7.39909e-06 -1.93132e-05)
(3.30823e-05 -1.28755e-05 -1.05293e-05)
(2.09968e-05 -1.83834e-05 -5.95049e-06)
(3.22493e-07 -1.95897e-05 -7.14609e-06)
(-4.32253e-05 -2.98621e-05 -2.75804e-05)
(-0.000107826 -5.68911e-05 -4.33823e-05)
(-0.000205375 -9.50746e-05 -4.85193e-05)
(-0.000377236 -0.000153616 -4.89093e-05)
(-0.000521878 -0.000184769 -3.14307e-05)
(-0.000635143 -0.000196929 -9.08346e-06)
(-0.000732928 -0.000202269 1.21793e-05)
(-0.000825746 -0.000206875 3.08514e-05)
(-0.000894555 -0.000207829 4.57269e-05)
(-0.000954557 -0.000209546 5.69899e-05)
(-0.001007 -0.000212162 6.48617e-05)
(-0.00105439 -0.000216213 6.92557e-05)
(-0.00109522 -0.000220848 6.91613e-05)
(-0.0011315 -0.000225696 6.37751e-05)
(-0.00116526 -0.000230256 5.2625e-05)
(-0.00119344 -0.000234004 3.52974e-05)
(-0.00120621 -0.000236172 1.23713e-05)
(3.95319e-05 1.46172e-05 2.72276e-05)
(9.21142e-05 1.91038e-05 -1.25968e-05)
(0.000112039 9.82524e-06 -2.71178e-05)
(0.000112265 -7.15383e-06 -3.19515e-05)
(8.19552e-05 -2.17505e-05 -2.36204e-05)
(4.77506e-05 -2.63353e-05 -1.1085e-05)
(3.32508e-05 -3.63846e-05 -3.0239e-06)
(-4.45383e-06 -1.33739e-05 -3.89249e-06)
(-3.99742e-05 -2.34022e-05 -2.04488e-05)
(-8.18437e-05 -3.86313e-05 -2.73846e-05)
(-0.000241447 -9.98237e-05 -4.83757e-05)
(-0.000378712 -0.000137698 -4.17657e-05)
(-0.00050797 -0.000160292 -2.48871e-05)
(-0.000610467 -0.000169707 -4.93533e-06)
(-0.000684534 -0.000170976 1.38662e-05)
(-0.000762038 -0.000174376 3.02746e-05)
(-0.000827686 -0.00017717 4.34196e-05)
(-0.000883474 -0.000180124 5.32593e-05)
(-0.000926966 -0.000183169 5.91892e-05)
(-0.000963453 -0.000186866 6.04775e-05)
(-0.000995551 -0.000190902 5.64364e-05)
(-0.00102539 -0.000194666 4.68098e-05)
(-0.0010503 -0.000197689 3.15336e-05)
(-0.00106119 -0.000199476 1.11002e-05)
(4.47756e-05 1.47767e-05 2.95612e-05)
(0.000102414 2.15146e-05 -1.04586e-05)
(0.000128842 1.5014e-05 -2.82043e-05)
(0.000133745 -1.30317e-06 -3.62494e-05)
(0.00012135 -2.09831e-05 -3.52957e-05)
(8.1651e-05 -3.19865e-05 -2.25015e-05)
(4.53229e-05 -3.34723e-05 -7.89145e-06)
(1.19395e-05 -1.86291e-05 1.60306e-06)
(-1.43265e-05 -1.85723e-05 -6.13636e-06)
(-5.29397e-05 -2.6514e-05 -2.30464e-05)
(-9.56736e-05 -4.02074e-05 -2.76002e-05)
(-0.000260881 -9.66896e-05 -4.5716e-05)
(-0.000366228 -0.000120123 -3.49336e-05)
(-0.000466078 -0.000133709 -1.8315e-05)
(-0.000566046 -0.000144216 -6.33084e-07)
(-0.000630597 -0.000146054 1.6135e-05)
(-0.000684941 -0.000147355 2.99598e-05)
(-0.000730615 -0.000148803 4.06342e-05)
(-0.000770952 -0.00015167 4.79e-05)
(-0.000803473 -0.000155014 5.04998e-05)
(-0.00083085 -0.000158539 4.78321e-05)
(-0.00085665 -0.000161839 3.99372e-05)
(-0.000878574 -0.000164471 2.70657e-05)
(-0.000887064 -0.000165901 9.57315e-06)
(4.81056e-05 1.48435e-05 3.2541e-05)
(0.000101328 2.19054e-05 -7.40965e-06)
(0.000130146 1.90466e-05 -2.65928e-05)
(0.000142851 5.99289e-06 -3.77671e-05)
(0.000136973 -1.33586e-05 -4.00263e-05)
(0.000117083 -3.20438e-05 -3.41e-05)
(7.10273e-05 -3.63435e-05 -1.72693e-05)
(3.5773e-05 -3.27937e-05 -3.12121e-06)
(1.19053e-05 -3.02147e-05 4.79292e-06)
(-1.50919e-05 -1.15383e-05 -6.6912e-06)
(-7.79392e-05 -3.63409e-05 -3.24167e-05)
(-7.49519e-05 -2.91615e-05 -1.96463e-05)
(-0.000243864 -8.23748e-05 -3.82192e-05)
(-0.000342996 -0.00010326 -2.83294e-05)
(-0.000402812 -0.000108346 -1.19659e-05)
(-0.000481202 -0.000116517 3.60787e-06)
(-0.0005442 -0.000121484 1.78408e-05)
(-0.000597082 -0.000125628 2.98261e-05)
(-0.000632243 -0.000128323 3.81583e-05)
(-0.000659255 -0.000131377 4.18178e-05)
(-0.00068193 -0.000134633 4.03217e-05)
(-0.000703299 -0.000137645 3.38872e-05)
(-0.000721395 -0.00013991 2.3092e-05)
(-0.000728248 -0.000141163 8.21989e-06)
(4.96435e-05 1.44108e-05 3.54835e-05)
(9.61475e-05 2.12525e-05 -4.29916e-06)
(0.000124747 2.08618e-05 -2.33838e-05)
(0.000137821 1.15496e-05 -3.51546e-05)
(0.000139728 -4.66594e-06 -4.06101e-05)
(0.000127398 -2.32225e-05 -3.8151e-05)
(0.000106649 -3.90817e-05 -2.97237e-05)
(5.88238e-05 -3.6306e-05 -1.228e-05)
(2.31477e-05 -2.43394e-05 -9.17742e-07)
(5.91433e-06 -2.81679e-05 -9.14786e-07)
(-2.57201e-05 -1.78189e-05 -1.50751e-05)
(-5.53955e-05 -2.50023e-05 -2.17435e-05)
(-0.000139408 -4.98743e-05 -3.39488e-05)
(-0.000184024 -5.94867e-05 -2.63482e-05)
(-0.000298584 -8.49778e-05 -2.06227e-05)
(-0.000350173 -9.07144e-05 -6.39988e-06)
(-0.000395277 -9.46071e-05 6.87104e-06)
(-0.000424635 -9.66448e-05 1.79491e-05)
(-0.000456416 -0.000100148 2.66257e-05)
(-0.000478781 -0.000103461 3.09647e-05)
(-0.000496123 -0.000106543 3.05817e-05)
(-0.000512957 -0.000109601 2.59648e-05)
(-0.000528074 -0.000111864 1.78657e-05)
(-0.000531857 -0.000112578 6.39432e-06)
(4.96542e-05 1.42192e-05 3.88929e-05)
(8.80938e-05 2.05328e-05 -1.91365e-06)
(0.000115387 2.16912e-05 -2.01575e-05)
(0.000128402 1.47514e-05 -3.14018e-05)
(0.000131688 2.13781e-06 -3.75382e-05)
(0.000127973 -1.4312e-05 -3.85496e-05)
(0.000113563 -3.02452e-05 -3.31666e-05)
(9.6451e-05 -4.29737e-05 -2.52072e-05)
(4.99234e-05 -3.44661e-05 -1.06608e-05)
(3.15112e-05 -3.8895e-05 -5.01291e-06)
(-7.26112e-07 -1.45678e-05 -5.8233e-06)
(-3.80768e-05 -2.22605e-05 -2.61763e-05)
(-7.99218e-05 -3.61317e-05 -3.22148e-05)
(-0.000103647 -3.7529e-05 -2.38338e-05)
(-8.85589e-05 -2.68602e-05 -1.13737e-05)
(-0.000196069 -5.5445e-05 -1.14137e-05)
(-0.000250961 -6.69913e-05 -1.36728e-06)
(-0.000306695 -7.61294e-05 9.72884e-06)
(-0.000331312 -8.0325e-05 1.82541e-05)
(-0.000347202 -8.3198e-05 2.31018e-05)
(-0.000360273 -8.65845e-05 2.35189e-05)
(-0.000370603 -8.88289e-05 2.01432e-05)
(-0.000381432 -9.08398e-05 1.39385e-05)
(-0.000386501 -9.17006e-05 5.05403e-06)
(4.81074e-05 1.51631e-05 4.29113e-05)
(7.87717e-05 2.0754e-05 -8.60656e-07)
(0.0001019 2.21133e-05 -1.73732e-05)
(0.000113238 1.65755e-05 -2.67142e-05)
(0.000117887 6.38413e-06 -3.24994e-05)
(0.000117427 -7.03668e-06 -3.48066e-05)
(0.000113547 -2.25968e-05 -3.33476e-05)
(0.000101645 -3.5304e-05 -2.76977e-05)
(8.9884e-05 -4.53554e-05 -2.2602e-05)
(4.51519e-05 -3.32396e-05 -1.12885e-05)
(1.97821e-05 -2.75944e-05 -9.67677e-06)
(-4.9741e-06 -1.28685e-05 -1.26251e-05)
(-2.94768e-05 -1.80469e-05 -2.26904e-05)
(-7.25111e-05 -3.18836e-05 -3.03352e-05)
(-9.66171e-05 -3.6907e-05 -2.31335e-05)
(-6.39974e-05 -2.17414e-05 -7.98034e-06)
(-0.000110006 -3.48829e-05 -4.66361e-06)
(-9.49782e-05 -2.63213e-05 1.19801e-06)
(-0.00012168 -3.46645e-05 5.8177e-06)
(-0.000138118 -3.86135e-05 9.35451e-06)
(-0.000142826 -4.14479e-05 1.0092e-05)
(-0.00016138 -4.49597e-05 9.63662e-06)
(-0.000170919 -4.75473e-05 6.78538e-06)
(-0.000162067 -4.598e-05 2.28944e-06)
(4.42677e-05 1.7201e-05 4.66849e-05)
(6.4797e-05 2.05541e-05 -7.86156e-07)
(8.22025e-05 2.12235e-05 -1.42134e-05)
(9.15068e-05 1.66204e-05 -2.07816e-05)
(9.68609e-05 8.61154e-06 -2.52103e-05)
(9.99586e-05 -2.43346e-06 -2.81141e-05)
(0.000101141 -1.59799e-05 -2.84923e-05)
(0.000102484 -2.97982e-05 -2.72229e-05)
(9.4319e-05 -3.83631e-05 -2.39907e-05)
(8.32175e-05 -4.52619e-05 -2.25929e-05)
(3.92054e-05 -3.07806e-05 -1.44684e-05)
(8.62572e-06 -1.32369e-05 -9.35064e-06)
(-7.33018e-06 -1.31359e-05 -2.12905e-05)
(-2.58358e-05 -1.6541e-05 -2.49329e-05)
(-5.46166e-05 -2.82703e-05 -2.75354e-05)
(-3.84746e-05 -1.6909e-05 -1.02203e-05)
(-7.65668e-05 -3.05376e-05 -9.76065e-06)
(-0.000106749 -4.15583e-05 -3.70233e-06)
(-9.02803e-05 -3.405e-05 2.83676e-06)
(-5.66991e-05 -2.21979e-05 3.78145e-06)
(-9.98368e-05 -3.9125e-05 7.82596e-06)
(-0.000129901 -5.09896e-05 8.52885e-06)
(-0.000134763 -5.28765e-05 5.95876e-06)
(-6.01841e-05 -2.46325e-05 9.47066e-07)
(3.81223e-05 1.95693e-05 4.8925e-05)
(5.15514e-05 2.05398e-05 -1.31661e-06)
(6.05642e-05 1.89498e-05 -1.12453e-05)
(6.56229e-05 1.44033e-05 -1.46216e-05)
(7.05042e-05 8.19554e-06 -1.70807e-05)
(7.59716e-05 -6.95242e-07 -1.93824e-05)
(8.3457e-05 -1.23702e-05 -2.10884e-05)
(9.07507e-05 -2.42263e-05 -2.18424e-05)
(9.67764e-05 -3.45928e-05 -2.30319e-05)
(8.84939e-05 -3.93811e-05 -2.30456e-05)
(7.46062e-05 -4.30539e-05 -2.54034e-05)
(3.46165e-05 -2.91979e-05 -2.04424e-05)
(1.51724e-05 -2.49335e-05 -2.97393e-05)
(-3.30549e-06 -9.98605e-06 -2.09342e-05)
(-1.34444e-05 -1.21738e-05 -2.15735e-05)
(-3.50028e-05 -2.27818e-05 -2.6521e-05)
(-2.46279e-05 -1.41915e-05 -9.77392e-06)
(-4.38443e-05 -2.53645e-05 -7.40897e-06)
(-6.31005e-05 -3.50866e-05 -1.62346e-06)
(-4.98439e-05 -2.93741e-05 2.84307e-06)
(-6.56899e-05 -3.74305e-05 5.7268e-06)
(-3.08882e-05 -1.95778e-05 2.30105e-06)
(-3.30884e-05 -2.03984e-05 1.8462e-06)
(-5.91518e-05 -3.63166e-05 1.25317e-06)
(3.06092e-05 2.15315e-05 4.89305e-05)
(4.02276e-05 2.07058e-05 -2.30554e-06)
(4.33554e-05 1.66314e-05 -9.76579e-06)
(4.40924e-05 1.13073e-05 -1.06749e-05)
(4.63804e-05 5.7107e-06 -1.10945e-05)
(5.29203e-05 -1.8629e-06 -1.21268e-05)
(6.37371e-05 -1.18276e-05 -1.33841e-05)
(7.75622e-05 -2.1924e-05 -1.54639e-05)
(8.66426e-05 -2.98972e-05 -1.79797e-05)
(9.15153e-05 -3.68906e-05 -2.1606e-05)
(8.16532e-05 -3.91349e-05 -2.46342e-05)
(6.63617e-05 -4.01901e-05 -3.05799e-05)
(3.19473e-05 -2.75985e-05 -2.86564e-05)
(1.13309e-05 -1.70342e-05 -2.77332e-05)
(4.16978e-07 -1.41727e-05 -3.24907e-05)
(-6.26376e-06 -1.38398e-05 -2.91119e-05)
(-7.32555e-06 -1.02726e-05 -1.53866e-05)
(-1.22303e-05 -1.49205e-05 -1.29703e-05)
(-1.81798e-05 -2.14092e-05 -8.28183e-06)
(-1.77659e-05 -2.25215e-05 -3.06811e-06)
(-9.30926e-06 -1.36442e-05 -2.56803e-07)
(-1.91404e-05 -2.81107e-05 6.2226e-07)
(-9.50415e-06 -1.41165e-05 4.99656e-07)
(-9.88046e-06 -1.36902e-05 2.66802e-07)
(2.30064e-05 2.25889e-05 4.62695e-05)
(3.04999e-05 2.04614e-05 -3.86337e-06)
(3.1551e-05 1.47529e-05 -9.8302e-06)
(3.15754e-05 8.91202e-06 -9.85223e-06)
(3.27928e-05 2.61586e-06 -9.14831e-06)
(3.95216e-05 -5.55937e-06 -8.78571e-06)
(5.20172e-05 -1.51072e-05 -8.7373e-06)
(6.54661e-05 -2.29521e-05 -9.89831e-06)
(7.81657e-05 -2.92667e-05 -1.31683e-05)
(8.34027e-05 -3.36212e-05 -1.71132e-05)
(8.48857e-05 -3.78312e-05 -2.26058e-05)
(7.50197e-05 -3.84608e-05 -2.89088e-05)
(6.06518e-05 -3.78529e-05 -3.83825e-05)
(3.50618e-05 -2.85676e-05 -4.0534e-05)
(1.06302e-05 -1.29004e-05 -2.41658e-05)
(9.03699e-06 -1.9683e-05 -4.42109e-05)
(3.07989e-06 -1.2661e-05 -2.84377e-05)