/*--------------------------------*- C++ -*----------------------------------*\
  =========                 |
  \\      /  F ield         | OpenFOAM: The Open Source CFD Toolbox
   \\    /   O peration     | Website:  https://openfoam.org
    \\  /    A nd           | Version:  6
     \\/     M anipulation  |
\*---------------------------------------------------------------------------*/
FoamFile
{
    version     2.0;
    format      ascii;
    class       volVectorField;
    location    "12";
    object      wallShearStress;
}
// * * * * * * * * * * * * * * * * * * * * * * * * * * * * * * * * * * * * * //

dimensions      [0 2 -2 0 0 0 0];

internalField   uniform (0 0 0);

boundaryField
{
    inlet
    {
        type            calculated;
        value           uniform (0 0 0);
    }
    outlet
    {
        type            calculated;
        value           uniform (0 0 0);
    }
    roughCylinder
    {
        type            calculated;
        value           nonuniform List<vector> 
5120
(
(-0.000521783 -0.000747647 -0.000393005)
(-0.000396406 -0.000574262 -3.94287e-05)
(-0.000349893 -0.000546279 1.8866e-06)
(-0.000386093 -0.000606465 4.96393e-05)
(-0.000453087 -0.000685018 0.000105245)
(-0.000523884 -0.000745333 0.000157772)
(-0.000595383 -0.000785151 0.000204012)
(-0.000663261 -0.000806666 0.000242728)
(-0.000725046 -0.000813931 0.00027318)
(-0.000780743 -0.000814723 0.000296258)
(-0.000831313 -0.000816115 0.00031395)
(-0.000873799 -0.000818681 0.000325432)
(-0.000909657 -0.000825568 0.000331097)
(-0.000940293 -0.000836832 0.000331965)
(-0.00096675 -0.000851856 0.000329174)
(-0.000990654 -0.000869863 0.000323823)
(-0.00101348 -0.000890007 0.000316746)
(-0.00103664 -0.00091189 0.00030853)
(-0.0010608 -0.000935105 0.000299399)
(-0.00108634 -0.00095952 0.000289429)
(-0.00111341 -0.000985123 0.000278613)
(-0.00114198 -0.00101185 0.000266872)
(-0.00117189 -0.0010396 0.000254095)
(-0.00120296 -0.0010682 0.000240126)
(-0.00123493 -0.00109739 0.000224713)
(-0.00126742 -0.00112682 0.000207494)
(-0.00129996 -0.00115599 0.000187914)
(-0.00133185 -0.00118423 0.000165226)
(-0.00136206 -0.00121064 0.000138299)
(-0.00138912 -0.0012339 0.000105978)
(-0.00141026 -0.00125232 6.65422e-05)
(-0.00142183 -0.00126306 2.2251e-05)
(-0.000570414 -0.000743071 -0.000389347)
(-0.000423977 -0.000561552 -4.31823e-05)
(-0.000371329 -0.000531461 -4.28441e-06)
(-0.000405681 -0.000588903 4.04646e-05)
(-0.000473994 -0.000667793 9.39577e-05)
(-0.000546719 -0.000729854 0.000145191)
(-0.000620185 -0.000771879 0.000190591)
(-0.000690459 -0.000796109 0.000228898)
(-0.000755629 -0.000807262 0.000259707)
(-0.000815673 -0.00081232 0.00028409)
(-0.000869935 -0.000815926 0.000303161)
(-0.000915849 -0.000818183 0.000315822)
(-0.000953408 -0.000823766 0.000322079)
(-0.00098556 -0.000834004 0.000323235)
(-0.00101354 -0.000848381 0.000320672)
(-0.00103883 -0.000865891 0.000315455)
(-0.00106316 -0.000885818 0.000308535)
(-0.00108757 -0.000907364 0.000300423)
(-0.00111306 -0.00093032 0.000291458)
(-0.00114004 -0.000954551 0.000281735)
(-0.00116858 -0.000979936 0.000271217)
(-0.00119863 -0.00100641 0.000259832)
(-0.00123006 -0.00103387 0.000247462)
(-0.00126265 -0.00106213 0.000233943)
(-0.00129613 -0.00109096 0.000219024)
(-0.00133012 -0.00111999 0.000202339)
(-0.00136411 -0.00114874 0.000183336)
(-0.00139739 -0.00117658 0.000161275)
(-0.00142889 -0.00120258 0.00013504)
(-0.00145707 -0.00122548 0.000103502)
(-0.00147907 -0.00124361 6.49803e-05)
(-0.00149112 -0.00125416 2.1718e-05)
(-0.000574496 -0.000665925 -0.00035112)
(-0.000436046 -0.00053364 -4.44906e-05)
(-0.000392456 -0.000510625 -1.03624e-05)
(-0.000424061 -0.000565696 3.06234e-05)
(-0.000493128 -0.000644324 8.1673e-05)
(-0.000567523 -0.000707634 0.000131452)
(-0.000642868 -0.000751833 0.000176006)
(-0.00071594 -0.000779483 0.000214205)
(-0.000784951 -0.000795047 0.00024577)
(-0.000849019 -0.000803929 0.000271373)
(-0.000906916 -0.000809753 0.000291479)
(-0.00095655 -0.000813002 0.000305279)
(-0.000996136 -0.000816876 0.000312059)
(-0.00102992 -0.000826086 0.000313593)
(-0.00105941 -0.000839539 0.000311265)
(-0.00108625 -0.000856451 0.000306272)
(-0.00111182 -0.000875722 0.00029948)
(-0.00113775 -0.000896937 0.000291596)
(-0.00116469 -0.000919551 0.000282876)
(-0.001193 -0.000943332 0.000273418)
(-0.00122291 -0.000968256 0.00026323)
(-0.00125438 -0.000994247 0.000252234)
(-0.00128725 -0.00102119 0.00024031)
(-0.00132131 -0.00104893 0.000227291)
(-0.00135625 -0.00107719 0.000212914)
(-0.00139167 -0.00110562 0.00019681)
(-0.00142705 -0.00113376 0.000178429)
(-0.00146163 -0.00116098 0.000157039)
(-0.00149433 -0.0011864 0.000131547)
(-0.00152355 -0.00120878 0.000100851)
(-0.00154637 -0.0012265 6.33102e-05)
(-0.00155887 -0.00123679 2.1149e-05)
(-0.000602914 -0.000632099 -0.000316939)
(-0.000478565 -0.000526662 -4.94073e-05)
(-0.000412941 -0.000489173 -1.77996e-05)
(-0.000438007 -0.000536475 2.01633e-05)
(-0.000507128 -0.000613861 6.85909e-05)
(-0.000583245 -0.000678806 0.000116732)
(-0.000661026 -0.000726024 0.00016043)
(-0.000737191 -0.000757612 0.00019857)
(-0.000809807 -0.000777486 0.000230868)
(-0.000877947 -0.000790273 0.000257723)
(-0.000939495 -0.000798326 0.000278846)
(-0.000992413 -0.000802801 0.000293494)
(-0.00103558 -0.000806211 0.000301183)
(-0.00107101 -0.000813856 0.000303148)
(-0.00110222 -0.00082628 0.000301154)
(-0.00113052 -0.000842277 0.00029641)
(-0.00115783 -0.000861077 0.000289937)
(-0.00118503 -0.000881615 0.00028227)
(-0.00121325 -0.000903616 0.000273814)
(-0.00124302 -0.000926926 0.00026471)
(-0.00127438 -0.000951337 0.000254923)
(-0.00130728 -0.000976767 0.000244377)
(-0.00134157 -0.00100309 0.000232948)
(-0.001377 -0.00103013 0.000220458)
(-0.00141328 -0.00105766 0.000206649)
(-0.00145002 -0.00108532 0.000191152)
(-0.00148665 -0.0011127 0.000173415)
(-0.00152242 -0.00113914 0.00015272)
(-0.0015562 -0.00116383 0.000127988)
(-0.00158635 -0.00118555 9.81508e-05)
(-0.00160989 -0.00120275 6.16114e-05)
(-0.00162278 -0.00121273 2.05714e-05)
(-0.000550024 -0.000521765 -0.000238213)
(-0.000494856 -0.000483594 -5.39502e-05)
(-0.000427441 -0.000460339 -2.48732e-05)
(-0.0004476 -0.00050294 9.81789e-06)
(-0.000516578 -0.000579002 5.52847e-05)
(-0.000594025 -0.00064513 0.000101441)
(-0.000673712 -0.000694816 0.000143954)
(-0.000752856 -0.000730234 0.000181866)
(-0.000829427 -0.000754676 0.000214885)
(-0.000901166 -0.000770882 0.000242778)
(-0.000966277 -0.000781137 0.000264928)
(-0.0010228 -0.000787043 0.000280435)
(-0.00106977 -0.000790941 0.000289106)
(-0.00110806 -0.000797074 0.000291818)
(-0.00114101 -0.00080821 0.000290288)
(-0.00117121 -0.000823286 0.000285963)
(-0.00119977 -0.000840985 0.000279758)
(-0.00122862 -0.000860916 0.000272478)
(-0.00125841 -0.000882357 0.000264419)
(-0.00128944 -0.000904919 0.00025569)
(-0.00132206 -0.000928566 0.000246329)
(-0.00135622 -0.000953198 0.00023626)
(-0.00139176 -0.000978698 0.000225357)
(-0.00142847 -0.00100489 0.00021344)
(-0.00146601 -0.00103153 0.000200238)
(-0.00150393 -0.00105828 0.000185377)
(-0.00154168 -0.0010847 0.00016831)
(-0.00157849 -0.00111022 0.000148327)
(-0.00161324 -0.00113402 0.000124374)
(-0.00164421 -0.00115495 9.54114e-05)
(-0.00166838 -0.00117153 5.98916e-05)
(-0.00168159 -0.00118113 1.99878e-05)
(-0.00067234 -0.000563346 -0.000244416)
(-0.000516912 -0.000459296 -5.69292e-05)
(-0.000440069 -0.000428925 -3.15257e-05)
(-0.000451358 -0.000464853 -5.64685e-07)
(-0.000518567 -0.000538532 4.14649e-05)
(-0.000597364 -0.000605833 8.52912e-05)
(-0.000679773 -0.000658815 0.000126517)
(-0.000762412 -0.000698413 0.000164133)
(-0.000842293 -0.000726571 0.000197546)
(-0.000917928 -0.000746219 0.000226408)
(-0.000986778 -0.000758744 0.000249596)
(-0.00104685 -0.000765928 0.000265999)
(-0.00109784 -0.00077086 0.000275648)
(-0.00114006 -0.000776497 0.000279388)
(-0.00117541 -0.000785738 0.000278548)
(-0.00120723 -0.00079934 0.000274694)
(-0.00123797 -0.000816314 0.000269062)
(-0.00126819 -0.000835191 0.000262183)
(-0.00129917 -0.00085561 0.000254524)
(-0.00133168 -0.000877407 0.000246291)
(-0.00136571 -0.000900268 0.000237457)
(-0.00140121 -0.000924052 0.000227947)
(-0.00143803 -0.000948634 0.00021763)
(-0.0014759 -0.00097382 0.000206319)
(-0.00151452 -0.00099939 0.000193748)
(-0.00155348 -0.00102505 0.000179546)
(-0.00159221 -0.00105037 0.000163165)
(-0.00162994 -0.0010748 0.000143907)
(-0.0016655 -0.00109757 0.000120741)
(-0.00169717 -0.00111758 9.2661e-05)
(-0.00172187 -0.00113343 5.81669e-05)
(-0.00173533 -0.00114261 1.9404e-05)
(-0.000603002 -0.000450436 -0.000176952)
(-0.000524516 -0.000417082 -5.86852e-05)
(-0.000447773 -0.000394825 -3.81091e-05)
(-0.000450411 -0.000425045 -1.07464e-05)
(-0.000515063 -0.000495881 2.75801e-05)
(-0.000594649 -0.000563947 6.87332e-05)
(-0.000678583 -0.000619046 0.000108199)
(-0.000763742 -0.000661813 0.000145075)
(-0.000847809 -0.000694184 0.000178844)
(-0.000927101 -0.000716784 0.000208415)
(-0.000999605 -0.000731375 0.000232529)
(-0.00106385 -0.00074021 0.000250052)
(-0.00111862 -0.000745891 0.000260698)
(-0.00116508 -0.000751923 0.000265536)
(-0.00120419 -0.000760077 0.000265717)
(-0.0012388 -0.000772101 0.000262706)
(-0.0012709 -0.000787099 0.000257561)
(-0.001303 -0.000804946 0.000251312)
(-0.00133582 -0.000824559 0.000244271)
(-0.00136957 -0.000845281 0.000236569)
(-0.00140472 -0.000867042 0.000228287)
(-0.0014413 -0.000889707 0.000219361)
(-0.00147916 -0.000913135 0.000209662)
(-0.00151809 -0.000937176 0.000199007)
(-0.00155772 -0.000961574 0.000187113)
(-0.00159758 -0.000986005 0.000173601)
(-0.00163714 -0.0010101 0.00015793)
(-0.00167561 -0.00103331 0.000139417)
(-0.00171185 -0.00105493 0.000117055)
(-0.0017441 -0.00107392 8.98733e-05)
(-0.00176924 -0.00108898 5.64232e-05)
(-0.00178286 -0.00109768 1.88158e-05)
(-0.000644432 -0.000426284 -0.000146788)
(-0.000524301 -0.000371953 -6.09823e-05)
(-0.000447158 -0.000356342 -4.37538e-05)
(-0.000441026 -0.000381478 -2.03679e-05)
(-0.000501587 -0.000448437 1.36848e-05)
(-0.000581293 -0.000516665 5.15208e-05)
(-0.00066768 -0.000574735 8.88721e-05)
(-0.000756754 -0.000621743 0.000124858)
(-0.000843779 -0.000657075 0.00015841)
(-0.000927166 -0.000682746 0.000188536)
(-0.0010041 -0.000699784 0.000213611)
(-0.00107225 -0.000709985 0.000232211)
(-0.00113165 -0.000716854 0.000244185)
(-0.0011819 -0.000722943 0.000250136)
(-0.00122516 -0.00073087 0.000251501)
(-0.00126277 -0.000741383 0.000249425)
(-0.00129851 -0.000755468 0.000245399)
(-0.00133237 -0.000771668 0.000239885)
(-0.00136633 -0.000789632 0.000233433)
(-0.00140164 -0.000809187 0.000226414)
(-0.00143825 -0.00082984 0.000218821)
(-0.00147613 -0.000851374 0.000210589)
(-0.00151515 -0.000873625 0.000201589)
(-0.001555 -0.000896372 0.000191626)
(-0.00159541 -0.000919419 0.000180431)
(-0.00163601 -0.000942506 0.000167631)
(-0.00167621 -0.000965237 0.000152685)
(-0.00171527 -0.000987121 0.000134926)
(-0.00175202 -0.00100747 0.000113371)
(-0.0017847 -0.0010253 8.70878e-05)
(-0.00181014 -0.00103947 5.4685e-05)
(-0.00182386 -0.00104773 1.82317e-05)
(-0.000706008 -0.000410351 -0.00012402)
(-0.000528693 -0.000336051 -6.25e-05)
(-0.000442991 -0.000318132 -4.89774e-05)
(-0.000426667 -0.000338163 -2.94567e-05)
(-0.000481417 -0.00040037 6.81471e-08)
(-0.00056086 -0.000468481 3.4179e-05)
(-0.000647965 -0.000527944 6.88208e-05)
(-0.00073823 -0.000576843 0.000103096)
(-0.000829859 -0.00061626 0.000136319)
(-0.000917422 -0.000644839 0.000166702)
(-0.000998316 -0.000663822 0.000192472)
(-0.00107151 -0.000675961 0.000212346)
(-0.00113508 -0.000683588 0.000225648)
(-0.00119023 -0.000690283 0.000233129)
(-0.00123717 -0.000697675 0.000235745)
(-0.00127914 -0.000707796 0.000235039)
(-0.00131695 -0.000720233 0.000231954)
(-0.00135349 -0.00073513 0.000227452)
(-0.00139008 -0.000752045 0.000221991)
(-0.00142689 -0.000770175 0.00021577)
(-0.00146464 -0.000789382 0.000208928)
(-0.00150347 -0.000809474 0.000201436)
(-0.00154329 -0.000830271 0.000193176)
(-0.00158395 -0.000851629 0.000183972)
(-0.0016251 -0.000873286 0.000173538)
(-0.00166624 -0.000894922 0.00016149)
(-0.0017069 -0.000916213 0.000147301)
(-0.00174634 -0.000936675 0.000130318)
(-0.00178346 -0.000955697 0.000109597)
(-0.0018165 -0.00097236 8.4242e-05)
(-0.00184214 -0.000985611 5.29167e-05)
(-0.00185571 -0.000993336 1.76392e-05)
(-0.000628806 -0.000321177 -8.04789e-05)
(-0.000509627 -0.000287816 -6.21143e-05)
(-0.000427556 -0.000276268 -5.26399e-05)
(-0.000402315 -0.00029216 -3.72861e-05)
(-0.000449298 -0.000348334 -1.28388e-05)
(-0.000526276 -0.000414594 1.66943e-05)
(-0.000614749 -0.000476017 4.79603e-05)
(-0.00070983 -0.000529566 8.03122e-05)
(-0.000803848 -0.000571299 0.000112347)
(-0.000895597 -0.000602713 0.000142618)
(-0.000982054 -0.000624569 0.00016915)
(-0.00105972 -0.000638092 0.00019011)
(-0.00112892 -0.000647137 0.00020507)
(-0.00118829 -0.000653858 0.000214104)
(-0.00124017 -0.000661272 0.000218417)
(-0.00128496 -0.000670059 0.000218991)
(-0.00132702 -0.000681935 0.000217384)
(-0.00136604 -0.000695439 0.00021401)
(-0.00140395 -0.000710573 0.000209484)
(-0.00144262 -0.000727415 0.000204266)
(-0.00148202 -0.000745388 0.000198382)
(-0.00152221 -0.0007642 0.000191797)
(-0.00156313 -0.000783673 0.00018441)
(-0.00160444 -0.000803537 0.000176026)
(-0.00164597 -0.000823625 0.000166387)
(-0.00168743 -0.000843719 0.000155132)
(-0.00172829 -0.000863472 0.000141732)
(-0.00176791 -0.000882468 0.00012556)
(-0.00180515 -0.0009001 0.0001057)
(-0.00183828 -0.00091554 8.13029e-05)
(-0.00186394 -0.000927819 5.10924e-05)
(-0.00187731 -0.000934943 1.70294e-05)
(-0.000532523 -0.000234581 -4.77961e-05)
(-0.000470434 -0.000237891 -5.86616e-05)
(-0.00040661 -0.00023537 -5.54683e-05)
(-0.000372706 -0.000247915 -4.40429e-05)
(-0.000409878 -0.000297154 -2.45194e-05)
(-0.000484789 -0.000361818 -6.30632e-08)
(-0.000572888 -0.000423746 2.70845e-05)
(-0.0006663 -0.000477104 5.62361e-05)
(-0.000765424 -0.0005231 8.67815e-05)
(-0.000862256 -0.000557896 0.00011656)
(-0.000952863 -0.000581644 0.000143328)
(-0.0010368 -0.000597505 0.00016556)
(-0.00111073 -0.000607216 0.000182031)
(-0.00117612 -0.000614718 0.000193064)
(-0.00123209 -0.000621482 0.000199122)
(-0.00128244 -0.000630173 0.000201659)
(-0.00132658 -0.000640181 0.000201367)
(-0.00136843 -0.000652342 0.000199367)
(-0.00140956 -0.000666519 0.000196218)
(-0.00144977 -0.000681789 0.000192087)
(-0.00149012 -0.000698074 0.000187182)
(-0.00153098 -0.000715206 0.00018153)
(-0.00157226 -0.000732945 0.000175034)
(-0.00161405 -0.000751216 0.000167552)
(-0.00165595 -0.000769733 0.000158796)
(-0.00169749 -0.000788198 0.000148391)
(-0.00173832 -0.000806342 0.000135833)
(-0.00177779 -0.00082376 0.000120515)
(-0.00181491 -0.000839955 0.000101567)
(-0.00184797 -0.000854142 7.81879e-05)
(-0.00187349 -0.000865419 4.91598e-05)
(-0.00188653 -0.0008719 1.63848e-05)
(-0.000528239 -0.0001993 -2.94771e-05)
(-0.000438053 -0.000197828 -5.60664e-05)
(-0.000372658 -0.000192918 -5.62927e-05)
(-0.000334215 -0.00020368 -4.88207e-05)
(-0.000357717 -0.00024353 -3.41132e-05)
(-0.000425418 -0.000302772 -1.5446e-05)
(-0.000512279 -0.000364516 6.52047e-06)
(-0.000612615 -0.000423806 3.19668e-05)
(-0.00071298 -0.00047146 5.97936e-05)
(-0.000813574 -0.000508916 8.83196e-05)
(-0.000911301 -0.000536441 0.000115317)
(-0.00100026 -0.000553854 0.000138423)
(-0.00108131 -0.0005654 0.000156757)
(-0.00115149 -0.000572799 0.000169692)
(-0.00121368 -0.000579738 0.000178025)
(-0.00126678 -0.000586727 0.000182308)
(-0.00131634 -0.000596265 0.000184077)
(-0.0013613 -0.000607014 0.000183689)
(-0.00140351 -0.000619071 0.00018179)
(-0.00144571 -0.000632851 0.000178965)
(-0.0014879 -0.000647769 0.000175293)
(-0.00153012 -0.000663469 0.000170775)
(-0.00157253 -0.000679793 0.000165354)
(-0.00161464 -0.000696391 0.000158835)
(-0.00165647 -0.000713161 0.00015099)
(-0.00169786 -0.000729927 0.000141474)
(-0.00173838 -0.000746399 0.000129785)
(-0.00177755 -0.000762237 0.00011535)
(-0.0018143 -0.00077694 9.73356e-05)
(-0.00184702 -0.000789813 7.49949e-05)
(-0.0018722 -0.000800044 4.71816e-05)
(-0.00188484 -0.000805873 1.5727e-05)
(-0.000458084 -0.000149225 -8.12475e-06)
(-0.000398423 -0.000157893 -5.45193e-05)
(-0.000334955 -0.000156032 -5.62623e-05)
(-0.000287509 -0.000161115 -5.07016e-05)
(-0.000299649 -0.000192625 -4.07309e-05)
(-0.000361917 -0.000247537 -2.85566e-05)
(-0.000447243 -0.000308735 -1.26339e-05)
(-0.000539675 -0.000363907 7.71292e-06)
(-0.000645932 -0.000416577 3.21418e-05)
(-0.000752899 -0.000458533 5.8778e-05)
(-0.000854394 -0.000488032 8.50774e-05)
(-0.000951169 -0.000508664 0.000109114)
(-0.00103735 -0.000520967 0.00012893)
(-0.00111508 -0.000529527 0.000144225)
(-0.00118169 -0.000535583 0.000154744)
(-0.00124213 -0.000542744 0.000161646)
(-0.00129376 -0.000550074 0.000165229)
(-0.00134181 -0.000559222 0.000166678)
(-0.00138824 -0.000570359 0.000166628)
(-0.0014322 -0.000582402 0.000165232)
(-0.00147514 -0.000595376 0.000162796)
(-0.00151775 -0.000609168 0.000159421)
(-0.00155996 -0.000623491 0.000155044)
(-0.00160222 -0.000638356 0.000149578)
(-0.00164406 -0.000653449 0.000142742)
(-0.00168506 -0.000668487 0.000134174)
(-0.00172502 -0.000683253 0.000123404)
(-0.00176348 -0.000697428 0.00010989)
(-0.00179964 -0.000710626 9.28588e-05)
(-0.00183185 -0.000722201 7.16182e-05)
(-0.00185653 -0.00073138 4.50939e-05)
(-0.00186863 -0.000736532 1.50354e-05)
(-0.000336526 -9.41268e-05 9.01757e-06)
(-0.000329744 -0.000112833 -4.97288e-05)
(-0.000287759 -0.000121022 -5.52128e-05)
(-0.00024089 -0.000124689 -5.15988e-05)
(-0.000228874 -0.000140234 -4.27558e-05)
(-0.00027671 -0.000184309 -3.66388e-05)
(-0.000355128 -0.000241044 -2.78251e-05)
(-0.00046028 -0.000305785 -1.45277e-05)
(-0.000564413 -0.000358534 4.76377e-06)
(-0.000673577 -0.000402978 2.82592e-05)
(-0.000784274 -0.000438052 5.3502e-05)
(-0.000886129 -0.000460744 7.76793e-05)
(-0.000981297 -0.000475954 9.92023e-05)
(-0.00106416 -0.000484548 0.00011653)
(-0.00113868 -0.000491232 0.000129795)
(-0.00120138 -0.000496213 0.000138858)
(-0.00125992 -0.000503225 0.000145095)
(-0.00131194 -0.000510941 0.000148691)
(-0.00135902 -0.000519552 0.000150248)
(-0.00140513 -0.000529908 0.000150507)
(-0.00145024 -0.000541422 0.000149615)
(-0.00149436 -0.000553699 0.000147626)
(-0.0015379 -0.000566612 0.000144547)
(-0.00158015 -0.000579707 0.000140195)
(-0.00162142 -0.000592959 0.000134381)
(-0.00166176 -0.00060624 0.00012679)
(-0.0017009 -0.000619301 0.000116957)
(-0.00173856 -0.000631879 0.000104384)
(-0.00177383 -0.00064356 8.8341e-05)
(-0.00180524 -0.000653806 6.82069e-05)
(-0.00182923 -0.000661928 4.29882e-05)
(-0.00184072 -0.000666442 1.4341e-05)
(-0.0001957 -4.47409e-05 1.59668e-05)
(-0.000233798 -6.95801e-05 -4.11066e-05)
(-0.000218728 -8.36062e-05 -5.06628e-05)
(-0.000182466 -8.85881e-05 -4.82865e-05)
(-0.00016342 -9.6747e-05 -4.05188e-05)
(-0.000194118 -0.000127245 -3.90381e-05)
(-0.000272389 -0.000183872 -3.98504e-05)
(-0.000353771 -0.000235182 -3.25525e-05)
(-0.000467665 -0.0002963 -2.0088e-05)
(-0.000584648 -0.000347135 -1.38792e-06)
(-0.000697138 -0.000384275 2.13405e-05)
(-0.000808718 -0.000412117 4.52655e-05)
(-0.000908664 -0.000428636 6.76621e-05)
(-0.0010008 -0.000439501 8.72652e-05)
(-0.00107946 -0.000445336 0.000102864)
(-0.00115184 -0.000451222 0.000115038)
(-0.00121207 -0.000455737 0.000123501)
(-0.00126726 -0.000461639 0.000129348)
(-0.00131991 -0.000469478 0.000133237)
(-0.00136806 -0.000477995 0.000135286)
(-0.00141363 -0.000487353 0.000135895)
(-0.00145775 -0.000497534 0.000135261)
(-0.00150036 -0.000508228 0.000133376)
(-0.0015424 -0.000519538 0.000130226)
(-0.00158332 -0.000531113 0.000125544)
(-0.00162276 -0.000542669 0.000118991)
(-0.00166077 -0.000554048 0.000110142)
(-0.00169712 -0.000564978 9.85408e-05)
(-0.00173127 -0.000575181 8.35412e-05)
(-0.00176173 -0.00058415 6.45835e-05)
(-0.00178487 -0.000591243 4.0756e-05)
(-0.00179557 -0.000595118 1.36071e-05)
(-7.45738e-05 -1.26361e-05 1.33221e-05)
(-0.000132282 -3.53382e-05 -2.76655e-05)
(-0.000139587 -4.83361e-05 -4.1082e-05)
(-0.000125095 -5.69697e-05 -4.34239e-05)
(-7.09488e-05 -4.15958e-05 -2.46756e-05)
(-9.55372e-05 -6.34967e-05 -2.87145e-05)
(-0.000140254 -9.67072e-05 -3.32055e-05)
(-0.000260249 -0.000174758 -4.46322e-05)
(-0.000357903 -0.000229156 -4.0677e-05)
(-0.000473781 -0.000282798 -2.78557e-05)
(-0.000598744 -0.000329014 -9.3833e-06)
(-0.000713763 -0.00035976 1.28171e-05)
(-0.000824852 -0.000381535 3.57175e-05)
(-0.000921396 -0.000393137 5.67721e-05)
(-0.00100999 -0.00040097 7.50227e-05)
(-0.00108305 -0.000404484 8.94181e-05)
(-0.00115197 -0.000409311 0.000100879)
(-0.00121208 -0.000414031 0.000109273)
(-0.00126442 -0.000419001 0.000115044)
(-0.00131479 -0.000425729 0.000119051)
(-0.001363 -0.000433667 0.000121506)
(-0.00140894 -0.00044238 0.000122513)
(-0.00145326 -0.00045178 0.000122154)
(-0.00149499 -0.000461346 0.000120266)
(-0.00153477 -0.000471093 0.000116709)
(-0.001573 -0.000480964 0.000111208)
(-0.00160962 -0.000490724 0.000103348)
(-0.00164468 -0.000500164 9.27326e-05)
(-0.00167742 -0.00050894 7.87633e-05)
(-0.00170661 -0.000516645 6.09705e-05)
(-0.00172868 -0.000522744 3.85345e-05)
(-0.00173859 -0.000526045 1.28808e-05)
(-1.50898e-05 -6.81285e-07 1.0015e-05)
(-4.20646e-05 -1.01153e-05 -9.51931e-06)
(-5.26709e-05 -1.52538e-05 -2.27375e-05)
(-3.79657e-05 -1.64991e-05 -2.09015e-05)
(-4.06946e-05 -2.58123e-05 -2.31282e-05)
(-6.11061e-05 -4.6359e-05 -2.92646e-05)
(-5.91779e-05 -4.50499e-05 -2.16677e-05)
(-7.84917e-05 -5.50594e-05 -2.21497e-05)
(-0.00023502 -0.000154084 -4.90758e-05)
(-0.000359569 -0.00021772 -4.82829e-05)
(-0.00048168 -0.000266589 -3.61108e-05)
(-0.000609668 -0.000306818 -1.73835e-05)
(-0.000723167 -0.000330997 4.48887e-06)
(-0.000831025 -0.00034747 2.64675e-05)
(-0.000921822 -0.000355034 4.63351e-05)
(-0.0010075 -0.000361243 6.3601e-05)
(-0.00107668 -0.00036369 7.72745e-05)
(-0.00113947 -0.000366711 8.80458e-05)
(-0.00119918 -0.000371458 9.64664e-05)
(-0.00125186 -0.000376465 0.000102537)
(-0.0013 -0.000382163 0.000106697)
(-0.00134524 -0.000388699 0.000109227)
(-0.00138762 -0.000395781 0.000110181)
(-0.00142867 -0.00040362 0.000109624)
(-0.00146775 -0.000411834 0.000107311)
(-0.00150452 -0.000420122 0.000102922)
(-0.0015394 -0.000428346 9.60941e-05)
(-0.00157246 -0.00043627 8.64884e-05)
(-0.00160354 -0.00044371 7.36161e-05)
(-0.00163133 -0.000450263 5.70771e-05)
(-0.00165219 -0.000455439 3.61427e-05)
(-0.00166106 -0.000458186 1.20998e-05)
(2.1534e-06 3.58016e-06 1.78409e-05)
(-2.84685e-06 4.46784e-07 -1.32239e-06)
(-8.12029e-06 -1.77342e-06 -1.24078e-05)
(-1.55138e-05 -1.08603e-05 -2.19622e-05)
(-1.78764e-05 -1.71306e-05 -2.10308e-05)
(-2.98658e-05 -3.18687e-05 -2.71269e-05)
(-4.43178e-05 -4.22397e-05 -2.8396e-05)
(-4.99479e-05 -4.03998e-05 -2.30587e-05)
(-0.000112037 -7.67558e-05 -3.68935e-05)
(-0.000226581 -0.000137753 -5.35633e-05)
(-0.000362652 -0.000202594 -5.61116e-05)
(-0.00048647 -0.000246461 -4.22455e-05)
(-0.000614613 -0.000280799 -2.36667e-05)
(-0.000723427 -0.000299255 -2.38257e-06)
(-0.000826846 -0.000311869 1.85354e-05)
(-0.000909316 -0.000315988 3.71999e-05)
(-0.0009892 -0.000320343 5.34273e-05)
(-0.00105791 -0.000323113 6.66656e-05)
(-0.00111527 -0.000324936 7.69567e-05)
(-0.0011699 -0.000328357 8.51e-05)
(-0.00122124 -0.000332948 9.12988e-05)
(-0.00126882 -0.000338304 9.56713e-05)
(-0.00131354 -0.00034441 9.83488e-05)
(-0.00135397 -0.000350692 9.91788e-05)
(-0.00139122 -0.000357238 9.80638e-05)
(-0.00142618 -0.000364044 9.47806e-05)
(-0.00145907 -0.000370876 8.89725e-05)
(-0.00149039 -0.000377557 8.03819e-05)
(-0.00151953 -0.00038377 6.85717e-05)
(-0.00154556 -0.000389228 5.32522e-05)
(-0.00156499 -0.000393548 3.37967e-05)
(-0.0015729 -0.000395847 1.13385e-05)
(6.93291e-06 7.96081e-06 2.47398e-05)
(1.53809e-05 6.66389e-06 -1.76248e-06)
(1.72387e-05 3.82961e-06 -1.13449e-05)
(1.74316e-05 -3.47952e-06 -1.83029e-05)
(1.06013e-05 -1.19201e-05 -2.18647e-05)
(7.69484e-07 -2.07176e-05 -2.39674e-05)
(-1.30404e-05 -2.84109e-05 -2.52155e-05)
(-3.27667e-05 -3.666e-05 -2.8762e-05)
(-6.505e-05 -4.99224e-05 -3.58305e-05)
(-0.000121567 -7.68611e-05 -4.62193e-05)
(-0.000213324 -0.00012076 -5.41585e-05)
(-0.000364166 -0.000185657 -5.83303e-05)
(-0.00048629 -0.00022344 -4.55818e-05)
(-0.000610432 -0.000252175 -2.75725e-05)
(-0.000710675 -0.000265411 -7.34242e-06)
(-0.00081001 -0.000275793 1.22506e-05)
(-0.000886937 -0.000278478 2.979e-05)
(-0.000956474 -0.000280213 4.48477e-05)
(-0.00102356 -0.000283131 5.76095e-05)
(-0.00108056 -0.000285405 6.78071e-05)
(-0.00113072 -0.00028796 7.57383e-05)
(-0.00117639 -0.000291266 8.16714e-05)
(-0.00121755 -0.000295121 8.56804e-05)
(-0.00125664 -0.000299914 8.79065e-05)
(-0.00129285 -0.000305242 8.81097e-05)
(-0.00132573 -0.000310757 8.59751e-05)
(-0.00135621 -0.000316342 8.12213e-05)
(-0.00138472 -0.000321752 7.36588e-05)
(-0.00141164 -0.000326885 6.29976e-05)
(-0.00143584 -0.000331414 4.90219e-05)
(-0.00145371 -0.000334986 3.11996e-05)
(-0.0014603 -0.000336837 1.04937e-05)
(1.62133e-05 1.18715e-05 3.09821e-05)
(2.84828e-05 1.07487e-05 -3.85353e-06)
(3.26744e-05 7.68538e-06 -1.20783e-05)
(4.17392e-05 1.77551e-06 -2.01626e-05)
(3.86344e-05 -8.35097e-06 -2.20947e-05)
(2.10188e-05 -1.23543e-05 -1.44085e-05)
(9.9339e-06 -1.46717e-05 -1.15812e-05)
(-1.95891e-06 -1.64227e-05 -1.22514e-05)
(-1.8371e-05 -1.99748e-05 -1.69578e-05)
(-4.14896e-05 -2.89377e-05 -2.3508e-05)
(-0.000103527 -5.86028e-05 -3.88631e-05)
(-0.000212825 -0.000108029 -5.41473e-05)
(-0.000362797 -0.000167582 -5.88315e-05)
(-0.00047714 -0.000198566 -4.59484e-05)
(-0.000595737 -0.000222709 -2.94428e-05)
(-0.000683672 -0.000231197 -1.05595e-05)
(-0.000773959 -0.000238846 7.51497e-06)
(-0.000850696 -0.000242345 2.39649e-05)
(-0.000911396 -0.000242666 3.80321e-05)
(-0.000969459 -0.000244093 4.99838e-05)
(-0.00102347 -0.000246376 5.98514e-05)
(-0.00107209 -0.000249181 6.76384e-05)
(-0.00111669 -0.000252728 7.34686e-05)
(-0.00115486 -0.000256386 7.71298e-05)
(-0.00118832 -0.000260369 7.85384e-05)
(-0.00121873 -0.000264766 7.75153e-05)
(-0.00124663 -0.000269318 7.37754e-05)
(-0.00127308 -0.000273858 6.72396e-05)
(-0.00129754 -0.000278069 5.76615e-05)
(-0.00131952 -0.00028176 4.49577e-05)
(-0.00133562 -0.000284682 2.87069e-05)
(-0.00134118 -0.000286227 9.68807e-06)
(2.6011e-05 1.33435e-05 3.37985e-05)
(5.19109e-05 1.5464e-05 -5.78225e-06)
(6.68311e-05 1.2614e-05 -1.85234e-05)
(6.97424e-05 4.04956e-06 -2.36997e-05)
(5.51579e-05 -5.74309e-06 -2.01371e-05)
(4.85289e-05 -1.4372e-05 -1.79105e-05)
(4.50795e-05 -2.50464e-05 -1.64177e-05)
(2.51146e-05 -2.65998e-05 -1.02479e-05)
(3.56759e-06 -2.46632e-05 -9.94718e-06)
(-2.62509e-05 -2.41996e-05 -1.99962e-05)
(-6.69687e-05 -3.78032e-05 -3.61746e-05)
(-7.07213e-05 -3.60373e-05 -2.65668e-05)
(-0.000206875 -9.6e-05 -5.09362e-05)
(-0.000353728 -0.000148378 -5.63672e-05)
(-0.000455264 -0.00017239 -4.44728e-05)
(-0.000568962 -0.00019357 -2.97551e-05)
(-0.000649359 -0.000200143 -1.24033e-05)
(-0.000722961 -0.000203788 4.29023e-06)
(-0.000796953 -0.000207738 1.96443e-05)
(-0.000856974 -0.000209224 3.30696e-05)
(-0.00090748 -0.000210039 4.43176e-05)
(-0.000952257 -0.000211288 5.3436e-05)
(-0.000990477 -0.000212824 6.0381e-05)
(-0.00102625 -0.000215446 6.53442e-05)
(-0.00105835 -0.000218739 6.80413e-05)
(-0.00108602 -0.000222291 6.81289e-05)
(-0.00111079 -0.000225996 6.54138e-05)
(-0.00113348 -0.000229581 5.9895e-05)
(-0.00115518 -0.000233042 5.15211e-05)
(-0.00117494 -0.0002361 4.02732e-05)
(-0.00118914 -0.000238496 2.58195e-05)
(-0.00119313 -0.000239696 8.74625e-06)
(3.34339e-05 1.38771e-05 3.59265e-05)
(7.21871e-05 1.89005e-05 -4.65386e-06)
(9.55365e-05 1.71888e-05 -2.04492e-05)
(0.00010759 8.53586e-06 -2.98042e-05)
(0.000108039 -4.4751e-06 -3.33184e-05)
(9.27523e-05 -1.67524e-05 -3.00659e-05)
(5.65493e-05 -2.03745e-05 -1.83875e-05)
(5.62622e-05 -3.54727e-05 -1.61665e-05)
(2.39897e-05 -2.71157e-05 -4.27301e-06)
(6.1957e-06 -2.76068e-05 -3.12747e-06)
(-1.71515e-05 -1.5095e-05 -1.07237e-05)
(-4.41205e-05 -2.2647e-05 -2.15188e-05)
(-0.000103727 -4.77375e-05 -3.68572e-05)
(-0.000193954 -8.20578e-05 -4.66331e-05)
(-0.000334494 -0.000128764 -5.30535e-05)
(-0.000417281 -0.000145281 -4.13119e-05)
(-0.000518939 -0.000162434 -2.82163e-05)
(-0.000601062 -0.000170806 -1.28852e-05)
(-0.000660681 -0.000172353 2.53391e-06)
(-0.000719958 -0.000174354 1.66367e-05)
(-0.00077545 -0.000176524 2.91121e-05)
(-0.000823586 -0.000178445 3.96631e-05)
(-0.000867407 -0.000180927 4.82907e-05)
(-0.000902078 -0.000183137 5.45693e-05)
(-0.000930236 -0.000185555 5.8341e-05)
(-0.000954697 -0.000188463 5.94485e-05)
(-0.00097637 -0.000191582 5.76795e-05)
(-0.000996971 -0.000194753 5.31731e-05)
(-0.00101585 -0.000197654 4.58866e-05)
(-0.00103296 -0.000200171 3.5954e-05)
(-0.00104517 -0.000202154 2.31576e-05)
(-0.00104822 -0.000203183 7.88422e-06)
(3.96856e-05 1.42675e-05 3.91922e-05)
(8.0945e-05 2.02781e-05 -2.25495e-06)
(0.000109653 2.09206e-05 -1.94963e-05)
(0.000126879 1.42908e-05 -3.09149e-05)
(0.0001315 1.93638e-06 -3.7518e-05)
(0.000125301 -1.27648e-05 -3.90253e-05)
(0.000110923 -2.6836e-05 -3.55945e-05)
(7.814e-05 -3.3562e-05 -2.36452e-05)
(3.21472e-05 -2.2196e-05 -7.60857e-06)
(1.76936e-05 -2.08951e-05 -1.43349e-06)
(4.57998e-06 -2.30425e-05 1.64517e-06)
(-2.77306e-05 -2.12121e-05 -1.35849e-05)
(-6.63969e-05 -3.04574e-05 -3.16654e-05)
(-6.64422e-05 -2.89677e-05 -2.32987e-05)
(-0.000166005 -6.57381e-05 -3.9266e-05)
(-0.000307431 -0.000109378 -4.88916e-05)
(-0.000380189 -0.000123142 -3.84119e-05)
(-0.000453391 -0.000132875 -2.53692e-05)
(-0.000534296 -0.00014251 -1.18421e-05)
(-0.000594269 -0.000146252 2.22801e-06)
(-0.000641525 -0.000147575 1.51541e-05)
(-0.000683073 -0.000148768 2.63316e-05)
(-0.000715207 -0.000149395 3.54122e-05)
(-0.000745688 -0.000151171 4.25628e-05)
(-0.000772316 -0.000153626 4.73708e-05)
(-0.000793424 -0.00015621 4.93949e-05)
(-0.000811241 -0.000158882 4.85244e-05)
(-0.000826958 -0.000161359 4.49737e-05)
(-0.000842527 -0.00016381 3.89575e-05)
(-0.000857144 -0.000166002 3.06293e-05)
(-0.000867181 -0.000167667 1.98388e-05)
(-0.0008684 -0.000168384 6.78697e-06)
(4.37747e-05 1.43341e-05 4.29849e-05)
(8.23658e-05 2.04939e-05 4.69293e-07)
(0.000112648 2.31186e-05 -1.73353e-05)
(0.000131801 1.91012e-05 -2.96524e-05)