/*--------------------------------*- C++ -*----------------------------------*\
  =========                 |
  \\      /  F ield         | OpenFOAM: The Open Source CFD Toolbox
   \\    /   O peration     | Website:  https://openfoam.org
    \\  /    A nd           | Version:  6
     \\/     M anipulation  |
\*---------------------------------------------------------------------------*/
FoamFile
{
    version     2.0;
    format      ascii;
    class       volScalarField;
    location    "80";
    object      k;
}
// * * * * * * * * * * * * * * * * * * * * * * * * * * * * * * * * * * * * * //

dimensions      [0 2 -2 0 0 0 0];

internalField   nonuniform List<scalar> 
2880
(
4.46179e-06
4.4618e-06
4.46188e-06
8.69943e-06
8.69969e-06
8.70018e-06
1.29662e-05
1.29671e-05
1.29679e-05
1.77125e-05
1.77138e-05
1.77148e-05
2.25744e-05
2.2576e-05
2.25771e-05
2.74877e-05
2.74896e-05
2.74907e-05
3.24259e-05
3.2428e-05
3.2429e-05
3.73731e-05
3.73754e-05
3.73763e-05
4.23155e-05
4.23179e-05
4.23188e-05
4.72086e-05
4.72108e-05
4.72119e-05
5.19465e-05
5.19483e-05
5.19496e-05
5.63512e-05
5.63523e-05
5.63541e-05
6.0043e-05
6.00431e-05
6.00453e-05
6.26814e-05
6.26806e-05
6.26832e-05
6.42287e-05
6.42271e-05
6.423e-05
6.42285e-05
6.42269e-05
6.42298e-05
6.2681e-05
6.26801e-05
6.26828e-05
6.00427e-05
6.00428e-05
6.0045e-05
5.63511e-05
5.63522e-05
5.6354e-05
5.19469e-05
5.19488e-05
5.19501e-05
4.72087e-05
4.72109e-05
4.7212e-05
4.23153e-05
4.23176e-05
4.23186e-05
3.73713e-05
3.73736e-05
3.73745e-05
3.2422e-05
3.24241e-05
3.24251e-05
2.7482e-05
2.74839e-05
2.7485e-05
2.25684e-05
2.257e-05
2.25711e-05
1.7708e-05
1.77093e-05
1.77103e-05
1.2964e-05
1.29649e-05
1.29657e-05
8.69849e-06
8.69874e-06
8.69923e-06
4.46157e-06
4.46157e-06
4.46166e-06
5.90017e-05
5.90017e-05
5.90027e-05
0.000199862
0.000199867
0.000199876
0.000272802
0.000272816
0.000272829
0.000343799
0.000343818
0.000343832
0.000408219
0.000408239
0.000408253
0.00046669
0.000466711
0.000466723
0.000520044
0.000520066
0.000520076
0.000568989
0.000569011
0.00056902
0.000614074
0.000614095
0.000614103
0.00065548
0.000655498
0.000655506
0.000692896
0.000692911
0.00069292
0.00072559
0.000725598
0.000725611
0.00075162
0.000751621
0.000751636
0.000769543
0.000769538
0.000769555
0.000779786
0.000779775
0.000779794
0.000779785
0.000779774
0.000779793
0.00076954
0.000769535
0.000769553
0.000751618
0.000751619
0.000751634
0.00072559
0.000725598
0.000725611
0.0006929
0.000692914
0.000692924
0.000655481
0.000655499
0.000655507
0.000614072
0.000614093
0.000614101
0.000568972
0.000568994
0.000569002
0.000520003
0.000520025
0.000520036
0.000466625
0.000466647
0.000466659
0.000408144
0.000408164
0.000408178
0.000343736
0.000343754
0.000343769
0.000272766
0.000272781
0.000272793
0.000199845
0.00019985
0.000199859
5.89991e-05
5.89991e-05
5.90001e-05
0.000105191
0.000105191
0.000105193
0.000407831
0.000407837
0.000407848
0.000485714
0.000485732
0.000485746
0.000560489
0.000560511
0.000560526
0.000626122
0.000626145
0.000626159
0.000684411
0.000684435
0.000684446
0.000736837
0.000736861
0.00073687
0.000784452
0.000784476
0.000784484
0.000828003
0.000828025
0.000828032
0.000867792
0.000867811
0.000867819
0.000903611
0.000903627
0.000903636
0.000934827
0.000934836
0.000934848
0.000959887
0.000959888
0.000959904
0.0009776
0.000977595
0.000977613
0.000987708
0.000987698
0.000987718
0.000987707
0.000987697
0.000987716
0.000977597
0.000977592
0.000977611
0.000959885
0.000959887
0.000959902
0.000934826
0.000934836
0.000934848
0.000903615
0.000903631
0.00090364
0.000867793
0.000867812
0.00086782
0.000828001
0.000828023
0.00082803
0.000784436
0.000784459
0.000784468
0.000736797
0.000736821
0.000736831
0.000684348
0.000684371
0.000684383
0.000626046
0.000626069
0.000626083
0.000560424
0.000560445
0.00056046
0.000485676
0.000485693
0.000485707
0.00040781
0.000407816
0.000407828
0.000105187
0.000105187
0.000105189
0.000144462
0.000144463
0.000144465
0.000482733
0.000482741
0.000482753
0.000552247
0.000552267
0.000552281
0.000625834
0.000625858
0.000625873
0.000690861
0.000690886
0.0006909
0.000748619
0.000748644
0.000748656
0.000800522
0.000800548
0.000800557
0.000847619
0.000847644
0.000847652
0.000890658
0.000890682
0.000890689
0.000929954
0.000929976
0.000929983
0.00096531
0.000965327
0.000965336
0.000996111
0.000996122
0.000996134
0.00102081
0.00102081
0.00102083
0.00103822
0.00103822
0.00103823
0.00104815
0.00104815
0.00104817
0.00104815
0.00104814
0.00104816
0.00103822
0.00103821
0.00103823
0.00102081
0.00102081
0.00102083
0.000996111
0.000996122
0.000996134
0.000965314
0.000965331
0.00096534
0.000929956
0.000929977
0.000929985
0.000890657
0.000890681
0.000890688
0.000847603
0.000847628
0.000847636
0.000800483
0.000800509
0.000800518
0.000748556
0.000748581
0.000748593
0.000690786
0.000690811
0.000690824
0.000625768
0.000625792
0.000625807
0.000552209
0.000552229
0.000552243
0.000482712
0.00048272
0.000482732
0.000144457
0.000144457
0.000144459
0.000180873
0.000180873
0.000180875
0.000524418
0.000524427
0.000524442
0.00057874
0.000578763
0.000578777
0.000649626
0.000649654
0.000649668
0.000713869
0.000713898
0.000713911
0.000771345
0.000771374
0.000771385
0.000823152
0.000823181
0.00082319
0.000870233
0.000870261
0.000870269
0.000913295
0.000913322
0.000913328
0.000952633
0.000952657
0.000952664
0.000988035
0.000988055
0.000988063
0.00101889
0.0010189
0.00101891
0.00104361
0.00104362
0.00104364
0.00106102
0.00106102
0.00106104
0.00107095
0.00107094
0.00107097
0.00107095
0.00107094
0.00107096
0.00106102
0.00106101
0.00106103
0.00104361
0.00104362
0.00104363
0.00101889
0.0010189
0.00101891
0.000988039
0.000988059
0.000988067
0.000952634
0.000952658
0.000952665
0.000913294
0.000913321
0.000913327
0.000870218
0.000870246
0.000870253
0.000823114
0.000823142
0.000823151
0.000771282
0.000771311
0.000771322
0.000713794
0.000713822
0.000713836
0.00064956
0.000649588
0.000649602
0.000578702
0.000578725
0.000578739
0.000524398
0.000524407
0.000524421
0.000180866
0.000180866
0.000180869
0.000215979
0.000215979
0.000215983
0.000558539
0.00055855
0.000558566
0.000594418
0.000594446
0.00059446
0.000661037
0.000661069
0.000661083
0.000723893
0.000723925
0.000723938
0.000780796
0.000780828
0.000780839
0.000832345
0.000832377
0.000832385
0.000879309
0.00087934
0.000879347
0.000922326
0.000922356
0.000922362
0.000961657
0.000961684
0.000961691
0.000997069
0.000997093
0.0009971
0.00102795
0.00102796
0.00102797
0.0010527
0.0010527
0.00105272
0.00107011
0.00107011
0.00107013
0.00108005
0.00108005
0.00108007
0.00108005
0.00108005
0.00108007
0.00107011
0.00107011
0.00107013
0.00105269
0.0010527
0.00105272
0.00102795
0.00102796
0.00102797
0.000997074
0.000997097
0.000997105
0.000961659
0.000961686
0.000961692
0.000922326
0.000922355
0.000922361
0.000879294
0.000879325
0.000879332
0.000832307
0.000832338
0.000832347
0.000780734
0.000780765
0.000780776
0.000723817
0.000723849
0.000723863
0.000660971
0.000661003
0.000661017
0.000594381
0.000594408
0.000594423
0.000558519
0.00055853
0.000558546
0.000215971
0.000215972
0.000215975
0.000250069
0.000250069
0.000250073
0.000590756
0.000590769
0.000590787
0.000606446
0.000606477
0.000606493
0.000667064
0.0006671
0.000667115
0.000727799
0.000727835
0.000727848
0.000783783
0.000783818
0.000783829
0.000834893
0.000834928
0.000834936
0.000881641
0.000881675
0.000881681
0.000924554
0.000924586
0.000924592
0.000963842
0.000963871
0.000963878
0.000999241
0.000999267
0.000999275
0.00103013
0.00103015
0.00103016
0.00105489
0.0010549
0.00105492
0.00107233
0.00107233
0.00107235
0.00108228
0.00108228
0.0010823
0.00108228
0.00108228
0.0010823
0.00107232
0.00107233
0.00107235
0.00105489
0.0010549
0.00105492
0.00103013
0.00103015
0.00103016
0.000999246
0.000999272
0.000999279
0.000963844
0.000963874
0.00096388
0.000924554
0.000924586
0.000924592
0.000881626
0.00088166
0.000881667
0.000834856
0.00083489
0.000834898
0.000783721
0.000783756
0.000783767
0.000727723
0.000727759
0.000727772
0.000666997
0.000667034
0.000667048
0.000606409
0.000606441
0.000606456
0.000590736
0.000590749
0.000590767
0.00025006
0.00025006
0.000250064
0.000284229
0.00028423
0.000284234
0.000622515
0.000622529
0.000622549
0.000617866
0.000617902
0.000617918
0.000670724
0.000670765
0.00067078
0.000728459
0.0007285
0.000728513
0.000783088
0.000783127
0.000783137
0.00083353
0.000833568
0.000833576
0.000879935
0.000879972
0.000879979
0.000922673
0.000922708
0.000922713
0.000961876
0.000961909
0.000961914
0.000997236
0.000997266
0.000997273
0.00102812
0.00102814
0.00102815
0.00105289
0.00105291
0.00105292
0.00107034
0.00107035
0.00107037
0.0010803
0.0010803
0.00108033
0.0010803
0.0010803
0.00108033
0.00107034
0.00107034
0.00107037
0.00105289
0.00105291
0.00105292
0.00102812
0.00102814
0.00102815
0.000997241
0.000997271
0.000997278
0.000961878
0.000961911
0.000961917
0.000922673
0.000922708
0.000922714
0.000879922
0.000879959
0.000879965
0.000833493
0.000833531
0.000833539
0.000783026
0.000783065
0.000783075
0.000728383
0.000728424
0.000728437
0.000670657
0.000670698
0.000670713
0.00061783
0.000617866
0.000617883
0.000622495
0.000622509
0.000622529
0.000284219
0.000284219
0.000284224
0.000318919
0.00031892
0.000318924
0.000653846
0.000653862
0.000653884
0.000630114
0.000630154
0.000630172
0.000673592
0.000673638
0.000673654
0.000727322
0.000727367
0.00072738
0.000780056
0.000780099
0.000780109
0.000829541
0.000829582
0.00082959
0.000875444
0.000875484
0.00087549
0.000917916
0.000917954
0.000917959
0.000956982
0.000957018
0.000957023
0.000992273
0.000992306
0.000992313
0.00102313
0.00102316
0.00102317
0.0010479
0.00104792
0.00104794
0.00106536
0.00106537
0.00106539
0.00107533
0.00107534
0.00107536
0.00107533
0.00107534
0.00107536
0.00106536
0.00106537
0.00106539
0.0010479
0.00104792
0.00104794
0.00102313
0.00102316
0.00102317
0.000992279
0.000992311
0.000992318
0.000956985
0.000957021
0.000957026
0.000917917
0.000917955
0.00091796
0.000875431
0.000875471
0.000875477
0.000829505
0.000829546
0.000829554
0.000779995
0.000780037
0.000780048
0.000727246
0.00072729
0.000727304
0.000673524
0.00067357
0.000673586
0.000630079
0.000630119
0.000630138
0.000653826
0.000653841
0.000653863
0.000318907
0.000318908
0.000318913
0.000354124
0.000354125
0.00035413
0.000684298
0.000684315
0.000684339
0.000643841
0.000643886
0.000643906
0.00067662
0.000676671
0.000676688
0.00072525
0.000725299
0.000725313
0.000775444
0.00077549
0.000775501
0.00082361
0.000823654
0.000823661
0.000868808
0.000868851
0.000868857
0.0009109
0.000910941
0.000910946
0.000949763
0.000949802
0.000949807
0.000984948
0.000984984
0.000984991
0.00101576
0.00101579
0.0010158
0.00104051
0.00104054
0.00104055
0.00105798
0.00105799
0.00105801
0.00106795
0.00106796
0.00106799
0.00106795
0.00106796
0.00106799
0.00105798
0.00105799
0.00105801
0.00104051
0.00104054
0.00104055
0.00101576
0.00101579
0.0010158
0.000984954
0.00098499
0.000984996
0.000949767
0.000949806
0.00094981
0.000910902
0.000910943
0.000910947
0.000868796
0.000868839
0.000868845
0.000823575
0.000823619
0.000823626
0.000775383
0.000775429
0.00077544
0.000725173
0.000725222
0.000725236
0.000676552
0.000676603
0.00067662
0.000643808
0.000643852
0.000643872
0.000684277
0.000684293
0.000684317
0.000354111
0.000354112
0.000354117
0.000389536
0.000389537
0.000389543
0.000713293
0.00071331
0.000713336
0.000659225
0.000659273
0.000659295
0.000680433
0.000680489
0.000680508
0.000722837
0.00072289
0.000722905
0.000769739
0.000769788
0.000769799
0.00081614
0.000816187
0.000816195
0.00086038
0.000860425
0.000860431
0.000901947
0.000901991
0.000901995
0.000940525
0.000940566
0.000940571
0.000975557
0.000975596
0.000975603
0.00100629
0.00100632
0.00100633
0.00103102
0.00103104
0.00103106
0.00104848
0.0010485
0.00104852
0.00105845
0.00105847
0.00105849
0.00105845
0.00105847
0.00105849
0.00104847
0.00104849
0.00104851
0.00103102
0.00103104
0.00103106
0.00100629
0.00100632
0.00100633
0.000975563
0.000975602
0.000975608
0.000940529
0.00094057
0.000940575
0.00090195
0.000901993
0.000901998
0.000860369
0.000860414
0.00086042
0.000816107
0.000816153
0.000816161
0.000769679
0.000769728
0.000769739
0.00072276
0.000722813
0.000722828
0.000680364
0.00068042
0.000680439
0.000659192
0.000659241
0.000659263
0.00071327
0.000713288
0.000713314
0.000389522
0.000389523
0.000389529
0.000424718
0.000424719
0.000424726
0.000740362
0.000740381
0.000740408
0.000676111
0.000676163
0.000676187
0.00068544
0.0006855
0.000685521
0.000720537
0.000720595
0.000720611
0.0007633
0.000763353
0.000763365
0.000807403
0.000807452
0.00080746
0.000850366
0.000850413
0.000850419
0.000891227
0.000891272
0.000891277
0.000929414
0.000929457
0.000929462
0.000964235
0.000964276
0.000964282
0.000994852
0.00099489
0.0009949
0.00101953
0.00101956
0.00101958
0.00103697
0.001037
0.00103702
0.00104695
0.00104697
0.00104699
0.00104695
0.00104697
0.00104699
0.00103697
0.001037
0.00103702
0.00101953
0.00101956
0.00101958
0.000994854
0.000994892
0.000994901
0.000964241
0.000964282
0.000964289
0.000929418
0.000929462
0.000929467
0.000891231
0.000891276
0.000891281
0.000850357
0.000850404
0.00085041
0.000807371
0.00080742
0.000807428
0.000763241
0.000763294
0.000763305
0.000720459
0.000720517
0.000720533
0.000685369
0.00068543
0.000685451
0.000676079
0.000676131
0.000676156
0.000740339
0.000740358
0.000740385
0.000424702
0.000424703
0.000424709
0.000459424
0.000459425
0.000459431
0.000765414
0.000765434
0.000765462
0.000694133
0.000694188
0.000694215
0.000691871
0.000691936
0.000691959
0.000718715
0.000718776
0.000718794
0.000756427
0.000756482
0.000756495
0.000797599
0.00079765
0.000797659
0.000838897
0.000838946
0.000838952
0.000878821
0.000878868
0.000878873
0.000916484
0.00091653
0.000916535
0.000951019
0.000951063
0.000951069
0.00098148
0.000981521
0.00098153
0.00100608
0.00100612
0.00100613
0.0010235
0.00102353
0.00102355
0.00103346
0.00103348
0.0010335
0.00103346
0.00103348
0.0010335
0.0010235
0.00102353
0.00102354
0.00100608
0.00100612
0.00100613
0.000981481
0.000981522
0.000981532
0.000951025
0.000951069
0.000951075
0.00091649
0.000916535
0.00091654
0.000878826
0.000878873
0.000878878
0.00083889
0.000838938
0.000838945
0.000797569
0.00079762
0.000797629
0.000756368
0.000756424
0.000756437
0.000718636
0.000718697
0.000718715
0.0006918
0.000691865
0.000691888
0.000694102
0.000694157
0.000694184
0.00076539
0.000765409
0.000765438
0.000459405
0.000459406
0.000459413
0.000493413
0.000493414
0.000493421
0.000787927
0.000787948
0.000787977
0.000712788
0.000712845
0.000712874
0.000699793
0.000699862
0.000699888
0.000717659
0.000717724
0.000717744
0.000749383
0.00074944
0.000749455
0.000786903
0.000786955
0.000786966
0.000826064
0.000826114
0.000826121
0.000864765
0.000864813
0.000864819
0.000901737
0.000901784
0.000901789
0.000935888
0.000935934
0.00093594
0.000966135
0.000966179
0.000966188
0.000990628
0.000990668
0.000990682
0.001008
0.00100803
0.00100805
0.00101794
0.00101797
0.00101799
0.00101794
0.00101797
0.00101799
0.001008
0.00100803
0.00100805
0.000990628
0.000990668
0.000990682
0.000966137
0.000966181
0.00096619
0.000935895
0.000935941
0.000935947
0.000901743
0.00090179
0.000901795
0.000864772
0.00086482
0.000864826
0.000826059
0.000826108
0.000826116
0.000786875
0.000786927
0.000786937
0.000749325
0.000749382
0.000749397
0.000717579
0.000717644
0.000717664
0.000699721
0.00069979
0.000699816
0.000712757
0.000712815
0.000712844
0.000787901
0.000787921
0.000787951
0.000493393
0.000493394
0.000493401
0.000526443
0.000526444
0.000526452
0.000807573
0.000807594
0.000807624
0.000731484
0.000731543
0.000731574
0.000709107
0.000709179
0.000709207
0.000717576
0.000717644
0.000717667
0.000742409
0.000742468
0.000742485
0.000775479
0.000775532
0.000775544
0.000811944
0.000811994
0.000812002
0.000849069
0.000849118
0.000849124
0.000885138
0.000885185
0.000885191
0.00091878
0.000918828
0.000918835
0.000948742
0.000948788
0.000948797
0.000973083
0.000973126
0.00097314
0.000990383
0.000990421
0.00099044
0.00100029
0.00100032
0.00100035
0.00100029
0.00100032
0.00100035
0.000990381
0.00099042
0.000990439
0.000973083
0.000973127
0.00097314
0.000948744
0.00094879
0.0009488
0.000918788
0.000918835
0.000918842
0.000885145
0.000885192
0.000885198
0.000849078
0.000849126
0.000849132
0.000811941
0.000811991
0.000811999
0.000775453
0.000775506
0.000775518
0.000742352
0.000742411
0.000742428
0.000717495
0.000717563
0.000717586
0.000709034
0.000709106
0.000709135
0.000731453
0.000731512
0.000731543
0.000807545
0.000807565
0.000807596
0.00052642
0.000526421
0.000526429
0.0005583
0.000558302
0.00055831
0.000824294
0.000824315
0.000824346
0.00074958
0.000749639
0.000749672
0.000719547
0.000719621
0.000719653
0.000718574
0.000718644
0.00071867
0.000735719
0.000735779
0.000735799
0.000763492
0.000763545
0.000763559
0.000796613
0.000796663
0.000796672
0.000831733
0.000831781
0.000831788
0.000866633
0.00086668
0.000866687
0.000899608
0.000899656
0.000899664
0.000929191
0.000929238
0.000929248
0.000953326
0.000953371
0.000953385
0.000970527
0.000970569
0.000970588
0.00098039
0.000980427
0.000980448
0.000980389
0.000980426
0.000980447
0.000970526
0.000970568
0.000970587
0.000953327
0.000953372
0.000953386
0.000929194
0.000929241
0.000929251
0.000899617
0.000899664
0.000899672
0.000866641
0.000866689
0.000866696
0.000831743
0.000831791
0.000831798
0.000796613
0.000796662
0.000796672
0.000763468
0.000763521
0.000763535
0.000735662
0.000735723
0.000735742
0.000718491
0.000718561
0.000718587
0.000719474
0.000719548
0.00071958
0.00074955
0.000749609
0.000749642
0.000824264
0.000824284
0.000824315
0.000558275
0.000558277
0.000558285
0.000588835
0.000588836
0.000588845
0.000838261
0.000838281
0.000838312
0.000766428
0.000766487
0.000766522
0.000730691
0.000730766
0.000730801
0.000720636
0.000720707
0.000720737
0.000729484
0.000729544
0.000729567
0.000751109
0.000751161
0.000751177
0.000780159
0.000780208
0.000780219
0.000812759
0.000812806
0.000812815
0.000846162
0.000846208
0.000846217
0.000878268
0.000878316
0.000878324
0.000907351
0.000907399
0.00090741
0.000931209
0.000931256
0.000931271
0.000948274
0.000948318
0.000948337
0.000958072
0.000958112
0.000958133
0.000958071
0.000958112
0.000958132
0.000948273
0.000948317
0.000948336
0.000931211
0.000931258
0.000931273
0.000907355
0.000907402
0.000907413
0.000878277
0.000878325
0.000878333
0.000846172
0.000846218
0.000846226
0.000812772
0.000812819
0.000812827
0.000780162
0.00078021
0.000780221
0.000751087
0.000751139
0.000751155
0.000729427
0.000729488
0.00072951
0.000720552
0.000720623
0.000720653
0.000730617
0.000730692
0.000730728
0.000766397
0.000766456
0.000766492
0.000838227
0.000838247
0.000838278
0.000588807
0.000588808
0.000588817
0.000617968
0.000617969
0.000617978
0.000849812
0.000849832
0.000849862
0.000781412
0.00078147
0.000781507
0.000741972
0.000742046
0.000742084
0.000723604
0.000723675
0.000723709
0.000723811
0.00072387
0.000723896
0.000738492
0.000738543
0.000738561
0.000762687
0.000762734
0.000762747
0.000792168
0.000792212
0.000792223
0.000823669
0.000823713
0.000823722
0.00085465
0.000854696
0.000854706
0.000883079
0.000883126
0.000883138
0.000906569
0.000906616
0.000906632
0.000923446
0.000923492
0.000923511
0.000933157
0.000933199
0.000933219
0.000933156
0.000933198
0.000933219
0.000923446
0.000923491
0.00092351
0.000906571
0.000906618
0.000906634
0.000883084
0.00088313
0.000883142
0.00085466
0.000854706
0.000854716
0.00082368
0.000823724
0.000823734
0.000792183
0.000792227
0.000792238
0.000762693
0.000762739
0.000762752
0.000738472
0.000738523
0.000738541
0.000723753
0.000723813
0.000723839
0.000723518
0.000723589
0.000723623
0.000741898
0.000741972
0.000742011
0.000781381
0.000781439
0.000781476
0.000849775
0.000849794
0.000849825
0.000617937
0.000617938
0.000617947
0.000645684
0.000645685
0.000645694
0.000859403
0.000859421
0.000859451
0.000793996
0.000794051
0.00079409
0.000752706
0.000752778
0.000752819
0.00072716
0.000727229
0.000727267
0.000718714
0.000718771
0.000718801
0.000725788
0.000725837
0.000725857
0.000744323
0.000744366
0.000744381
0.000770003
0.000770044
0.000770056
0.000799114
0.000799155
0.000799166
0.000828651
0.000828694
0.000828705
0.000856226
0.000856271
0.000856284
0.00087923
0.000879276
0.000879293
0.000895855
0.0008959
0.00089592
0.000905447
0.000905489
0.00090551
0.000905447
0.000905489
0.00090551
0.000895854
0.0008959
0.000895919
0.000879233
0.000879279
0.000879295
0.000856232
0.000856276
0.00085629
0.000828662
0.000828704
0.000828716
0.000799127
0.000799168
0.000799179
0.000770021
0.000770061
0.000770073
0.000744331
0.000744373
0.000744389
0.00072577
0.000725818
0.000725838
0.000718655
0.000718713
0.000718742
0.000727072
0.000727141
0.000727179
0.000752631
0.000752704
0.000752746
0.000793965
0.00079402
0.000794058
0.000859361
0.000859379
0.000859409
0.00064565
0.000645651
0.00064566
0.000672015
0.000672017
0.000672025
0.000867544
0.000867561
0.000867591
0.000803761
0.000803812
0.000803851
0.000762134
0.000762203
0.000762247
0.000730823
0.000730889
0.00073093
0.000714088
0.000714142
0.000714175
0.000713106
0.00071315
0.000713174
0.000725209
0.000725248
0.000725265
0.000746345
0.000746382
0.000746396
0.000772491
0.000772528
0.00077254
0.000800187
0.000800225
0.000800239
0.000826655
0.000826696
0.000826711
0.00084902
0.000849063
0.000849081
0.000865307
0.00086535
0.000865371
0.000874742
0.000874783
0.000874805
0.000874742
0.000874783
0.000874805
0.000865307
0.00086535
0.000865371
0.000849023
0.000849066
0.000849084
0.000826662
0.000826703
0.000826717
0.000800199
0.000800237
0.00080025
0.000772506
0.000772542
0.000772555
0.000746365
0.000746402
0.000746415
0.000725219
0.000725258
0.000725275
0.000713087
0.000713132
0.000713155
0.000714028
0.000714083
0.000714115
0.000730733
0.0007308
0.000730841
0.000762059
0.000762129
0.000762173
0.000803728
0.000803779
0.000803819
0.000867497
0.000867514
0.000867544
0.000671977
0.000671978
0.000671987
0.000697016
0.000697016
0.000697025
0.00087476
0.000874776
0.000874804
0.000810437
0.000810484
0.000810524
0.000769476
0.00076954
0.000769587
0.000733963
0.000734025
0.000734069
0.000709687
0.000709738
0.000709774
0.000700492
0.000700532
0.000700559
0.000705502
0.000705536
0.000705556
0.000721323
0.000721354
0.000721369
0.000743843
0.000743874
0.000743888
0.000769214
0.000769248
0.000769262
0.000794255
0.000794292
0.000794308
0.000815784
0.000815823
0.000815842
0.000831624
0.000831664
0.000831686
0.000840853
0.000840891
0.000840913
0.000840852
0.00084089
0.000840913
0.000831625
0.000831665
0.000831687
0.000815789
0.000815827
0.000815846
0.000794263
0.000794299
0.000794315
0.000769227
0.000769261
0.000769275
0.000743859
0.000743891
0.000743904
0.000721344
0.000721376
0.000721391
0.000705513
0.000705547
0.000705566
0.000700473
0.000700513
0.000700539
0.000709625
0.000709676
0.000709712
0.000733872
0.000733934
0.000733979
0.000769401
0.000769466
0.000769513
0.000810402
0.000810449
0.00081049
0.000874707
0.000874723
0.000874752
0.000696973
0.000696974
0.000696982
0.000720741
0.000720742
0.00072075
0.000881547
0.000881561
0.000881589
0.000813934
0.000813976
0.000814016
0.000773998
0.000774056
0.000774104
0.000735833
0.000735891
0.000735938
0.000705115
0.00070516
0.000705199
0.000687908
0.000687943
0.000687972
0.000685358
0.000685386
0.000685407
0.000695116
0.000695142
0.000695158
0.000713282
0.000713307
0.000713322
0.000735754
0.000735782
0.000735797
0.000758969
0.000758999
0.000759017
0.000779413
0.000779446
0.000779466
0.000794666
0.000794701
0.000794724
0.000803624
0.000803657
0.000803681
0.000803624
0.000803657
0.000803681
0.000794668
0.000794703
0.000794725
0.000779418
0.000779452
0.000779472
0.000758978
0.000759008
0.000759026
0.000735768
0.000735796
0.000735811
0.0007133
0.000713326
0.00071334
0.000695139
0.000695164
0.000695181
0.000685368
0.000685396
0.000685417
0.000687886
0.000687921
0.00068795
0.000705049
0.000705095
0.000705134
0.000735741
0.000735798
0.000735845
0.000773922
0.000773982
0.00077403
0.000813896
0.000813938
0.000813979
0.000881488
0.000881502
0.00088153
0.000720693
0.000720694
0.000720702
0.000743237
0.000743237
0.000743245
0.000888342
0.000888354
0.00088838
0.000814343
0.000814379
0.000814419
0.000775084
0.000775137
0.000775185
0.00073563
0.000735682
0.00073573
0.000699831
0.000699871
0.000699912
0.000675211
0.00067524
0.000675271
0.000664916
0.000664938
0.000664961
0.000667967
0.000667987
0.000668004
0.000681015
0.000681035
0.00068105
0.000699924
0.000699945
0.000699961
0.000720825
0.000720849
0.000720868
0.000739873
0.0007399
0.000739921
0.000754363
0.000754391
0.000754415
0.000762969
0.000762996
0.00076302
0.000762969
0.000762997
0.000763021
0.000754366
0.000754394
0.000754417
0.00073988
0.000739907
0.000739927
0.000720836
0.00072086
0.000720878
0.000699939
0.00069996
0.000699976
0.000681034
0.000681054
0.000681069
0.000667989
0.000668009
0.000668026
0.000664924
0.000664946
0.000664968
0.000675185
0.000675213
0.000675244
0.000699761
0.000699801
0.000699842
0.000735535
0.000735587
0.000735636
0.000775008
0.000775061
0.00077511
0.000814301
0.000814337
0.000814378
0.000888277
0.000888288
0.000888315
0.000743184
0.000743184
0.000743192
0.000764523
0.000764523
0.00076453
0.000895495
0.000895505
0.000895529
0.000811935
0.000811965
0.000812005
0.000772316
0.000772362
0.00077241
0.000732572
0.000732617
0.000732666
0.000693196
0.000693229
0.000693272
0.00066215
0.000662173
0.000662205
0.00064429
0.000644306
0.000644329
0.00064018
0.000640194
0.000640211
0.000647368
0.000647381
0.000647396
0.000661977
0.000661992
0.000662008
0.000679988
0.000680005
0.000680023
0.000697258
0.000697277
0.000697298
0.000710765
0.000710787
0.00071081
0.00071892
0.000718941
0.000718964
0.00071892
0.000718941
0.000718965
0.000710769
0.00071079
0.000710813
0.000697266
0.000697286
0.000697306
0.00068
0.000680017
0.000680035
0.000661992
0.000662007
0.000662023
0.000647387
0.0006474
0.000647415
0.0006402
0.000640213
0.00064023
0.000644292
0.000644308
0.000644331
0.000662116
0.000662139
0.000662171
0.00069312
0.000693153
0.000693196
0.000732473
0.000732518
0.000732568
0.000772238
0.000772284
0.000772333
0.000811889
0.000811919
0.000811959
0.000895423
0.000895433
0.000895458
0.000764465
0.000764465
0.000764472
0.000784591
0.000784591
0.000784597
0.000903243
0.00090325
0.000903273
0.000807142
0.000807166
0.000807205
0.000765539
0.000765577
0.000765625
0.000726006
0.000726044
0.000726093
0.00068454
0.000684567
0.00068461
0.000648391
0.000648408
0.00064844
0.000623559
0.00062357
0.000623593
0.000612122
0.000612131
0.000612147
0.000612807
0.000612815
0.000612829
0.000622347
0.000622356
0.000622371
0.000636812
0.000636823
0.00063684
0.000651851
0.000651863
0.000651883
0.000664113
0.000664127
0.000664148
0.000671694
0.000671708
0.00067173
0.000671695
0.000671709
0.000671732
0.000664117
0.000664131
0.000664153
0.000651861
0.000651873
0.000651893
0.000636825
0.000636836
0.000636853
0.000622361
0.00062237
0.000622385
0.000612824
0.000612832
0.000612846
0.000612136
0.000612145
0.000612161
0.000623553
0.000623564
0.000623586
0.000648348
0.000648365
0.000648397
0.000684456
0.000684484
0.000684527
0.000725903
0.000725941
0.00072599
0.000765457
0.000765496
0.000765545
0.000807091
0.000807114
0.000807154
0.000903165
0.000903172
0.000903196
0.000784527
0.000784526
0.000784533
0.000803389
0.000803389
0.000803395
0.000911682
0.000911688
0.000911709
0.000800522
0.00080054
0.000800578
0.000754918
0.00075495
0.000754997
0.000715533
0.000715564
0.000715611
0.000673282
0.000673303
0.000673345
0.000633584
0.000633596
0.000633626
0.00060279
0.000602797
0.000602817
0.000584229
0.000584234
0.000584247
0.000577965
0.000577969
0.00057798
0.000581702
0.000581706
0.000581718
0.000591915
0.00059192
0.000591934
0.000604211
0.000604218
0.000604235
0.000614922
0.00061493
0.000614949
0.00062179
0.000621797
0.000621817
0.000621791
0.000621799
0.000621818
0.000614928
0.000614936
0.000614955
0.000604223
0.00060423
0.000604246
0.000591928
0.000591934
0.000591948
0.000581713
0.000581718
0.00058173
0.000577978
0.000577982
0.000577993
0.000584234
0.000584239
0.000584252
0.000602771
0.000602778
0.000602798
0.000633528
0.00063354
0.000633571
0.000673189
0.00067321
0.000673252
0.000715424
0.000715455
0.000715503
0.000754832
0.000754864
0.000754912
0.000800464
0.000800482
0.000800521
0.000911599
0.000911604
0.000911626
0.00080332
0.000803319
0.000803325
0.000820816
0.000820814
0.00082082
0.000920752
0.000920758
0.000920778
0.000792728
0.000792742
0.000792778
0.000740982
0.000741007
0.000741052
0.000701142
0.000701167
0.000701212
0.000659086
0.000659102
0.00065914
0.00061747
0.000617478
0.000617505
0.000582082
0.000582086
0.000582103
0.000557015
0.000557018
0.000557028
0.000543656
0.000543658
0.000543665
0.000540986
0.000540987
0.000540995
0.000546258
0.00054626
0.000546269
0.000555275
0.000555277
0.000555289
0.000564103
0.000564107
0.00056412
0.000570101
0.000570104
0.000570118
0.000570103
0.000570107
0.000570121
0.000564112
0.000564115
0.000564129
0.000555288
0.00055529
0.000555302
0.000546271
0.000546272
0.000546282
0.000540993
0.000540995
0.000541002
0.000543662
0.000543664
0.000543671
0.000557007
0.000557009
0.000557019
0.000582047
0.00058205
0.000582067
0.000617398
0.000617406
0.000617433
0.00065898
0.000658996
0.000659035
0.000701025
0.00070105
0.000701096
0.00074089
0.000740915
0.000740961
0.000792664
0.000792677
0.000792714
0.000920665
0.00092067
0.000920691
0.000820741
0.00082074
0.000820746
0.000836709
0.000836708
0.000836714
0.00093026
0.000930267
0.000930286
0.000784491
0.000784502
0.000784536
0.000724651
0.00072467
0.000724713
0.000683354
0.000683373
0.000683416
0.000642054
0.000642066
0.000642101
0.000600053
0.000600058
0.000600082
0.000561663
0.000561665
0.000561678
0.000531106
0.000531106
0.000531112
0.000510891
0.000510891
0.000510894
0.000501467
0.000501466
0.000501469
0.000501228
0.000501226
0.000501232
0.000506468
0.000506467
0.000506474
0.000513093
0.000513093
0.000513101
0.000518065
0.000518064
0.000518073
0.000518068
0.000518068
0.000518076
0.000513103
0.000513103
0.000513111
0.000506482
0.000506481
0.000506488
0.000501238
0.000501236