/*--------------------------------*- C++ -*----------------------------------*\
  =========                 |
  \\      /  F ield         | OpenFOAM: The Open Source CFD Toolbox
   \\    /   O peration     | Website:  https://openfoam.org
    \\  /    A nd           | Version:  6
     \\/     M anipulation  |
\*---------------------------------------------------------------------------*/
FoamFile
{
    version     2.0;
    format      ascii;
    class       volScalarField;
    location    "80";
    object      nut;
}
// * * * * * * * * * * * * * * * * * * * * * * * * * * * * * * * * * * * * * //

dimensions      [0 2 -1 0 0 0 0];

internalField   nonuniform List<scalar> 
2880
(
6.05628e-09
6.05628e-09
6.0564e-09
5.91369e-09
5.91387e-09
5.9142e-09
8.81414e-09
8.81475e-09
8.81529e-09
1.20406e-08
1.20415e-08
1.20422e-08
1.53456e-08
1.53467e-08
1.53475e-08
1.86856e-08
1.86869e-08
1.86876e-08
2.20424e-08
2.20439e-08
2.20446e-08
2.54054e-08
2.5407e-08
2.54076e-08
2.87652e-08
2.87668e-08
2.87674e-08
3.20914e-08
3.20929e-08
3.20937e-08
3.53121e-08
3.53134e-08
3.53143e-08
3.83063e-08
3.83071e-08
3.83083e-08
4.08159e-08
4.0816e-08
4.08175e-08
4.26095e-08
4.26089e-08
4.26107e-08
4.36614e-08
4.36603e-08
4.36622e-08
4.36612e-08
4.36601e-08
4.3662e-08
4.26092e-08
4.26086e-08
4.26104e-08
4.08157e-08
4.08158e-08
4.08173e-08
3.83063e-08
3.8307e-08
3.83083e-08
3.53124e-08
3.53137e-08
3.53146e-08
3.20915e-08
3.2093e-08
3.20937e-08
2.87651e-08
2.87666e-08
2.87673e-08
2.54042e-08
2.54058e-08
2.54064e-08
2.20398e-08
2.20412e-08
2.20419e-08
1.86817e-08
1.8683e-08
1.86837e-08
1.53415e-08
1.53426e-08
1.53434e-08
1.20375e-08
1.20384e-08
1.20391e-08
8.81264e-09
8.81325e-09
8.81379e-09
5.91305e-09
5.91322e-09
5.91356e-09
6.05598e-09
6.05598e-09
6.0561e-09
3.69213e-07
3.69213e-07
3.69216e-07
5.70013e-07
5.70027e-07
5.7005e-07
7.41102e-07
7.41139e-07
7.41169e-07
9.06356e-07
9.06402e-07
9.06436e-07
1.05274e-06
1.05279e-06
1.05282e-06
1.18287e-06
1.18292e-06
1.18294e-06
1.29956e-06
1.29961e-06
1.29963e-06
1.40504e-06
1.40509e-06
1.40511e-06
1.501e-06
1.50104e-06
1.50106e-06
1.58819e-06
1.58823e-06
1.58824e-06
1.66628e-06
1.66631e-06
1.66633e-06
1.73404e-06
1.73405e-06
1.73408e-06
1.78588e-06
1.78588e-06
1.78591e-06
1.81795e-06
1.81794e-06
1.81797e-06
1.83623e-06
1.8362e-06
1.83624e-06
1.83622e-06
1.8362e-06
1.83623e-06
1.81795e-06
1.81793e-06
1.81797e-06
1.78588e-06
1.78588e-06
1.78591e-06
1.73404e-06
1.73405e-06
1.73408e-06
1.66629e-06
1.66632e-06
1.66634e-06
1.58819e-06
1.58823e-06
1.58825e-06
1.501e-06
1.50104e-06
1.50106e-06
1.40501e-06
1.40506e-06
1.40508e-06
1.29947e-06
1.29953e-06
1.29955e-06
1.18273e-06
1.18278e-06
1.18281e-06
1.05257e-06
1.05262e-06
1.05265e-06
9.06213e-07
9.0626e-07
9.06293e-07
7.41021e-07
7.41058e-07
7.41088e-07
5.69973e-07
5.69986e-07
5.70009e-07
3.69206e-07
3.69206e-07
3.69209e-07
9.02375e-07
9.02376e-07
9.02384e-07
2.50392e-06
2.50397e-06
2.50403e-06
2.7707e-06
2.77081e-06
2.77087e-06
3.09559e-06
3.09571e-06
3.09578e-06
3.38501e-06
3.38513e-06
3.38519e-06
3.64076e-06
3.64088e-06
3.64093e-06
3.86881e-06
3.86894e-06
3.86898e-06
4.07407e-06
4.0742e-06
4.07423e-06
4.26023e-06
4.26034e-06
4.26037e-06
4.42905e-06
4.42915e-06
4.42918e-06
4.58009e-06
4.58017e-06
4.58021e-06
4.71117e-06
4.71121e-06
4.71126e-06
4.81467e-06
4.81466e-06
4.81473e-06
4.88495e-06
4.88491e-06
4.88499e-06
4.92508e-06
4.925e-06
4.92509e-06
4.92507e-06
4.925e-06
4.92509e-06
4.88495e-06
4.8849e-06
4.88499e-06
4.81467e-06
4.81466e-06
4.81473e-06
4.71118e-06
4.71122e-06
4.71127e-06
4.58013e-06
4.5802e-06
4.58024e-06
4.42907e-06
4.42917e-06
4.4292e-06
4.26024e-06
4.26035e-06
4.26038e-06
4.07402e-06
4.07415e-06
4.07418e-06
3.86866e-06
3.86878e-06
3.86883e-06
3.6405e-06
3.64062e-06
3.64067e-06
3.38469e-06
3.38482e-06
3.38488e-06
3.09532e-06
3.09544e-06
3.09551e-06
2.77055e-06
2.77065e-06
2.77072e-06
2.50385e-06
2.50389e-06
2.50396e-06
9.02357e-07
9.02358e-07
9.02366e-07
1.65115e-06
1.65115e-06
1.65117e-06
5.4034e-06
5.4035e-06
5.40364e-06
5.69534e-06
5.69555e-06
5.69567e-06
6.17166e-06
6.17191e-06
6.17202e-06
6.60318e-06
6.60343e-06
6.60352e-06
6.98301e-06
6.98325e-06
6.98333e-06
7.31953e-06
7.31977e-06
7.31984e-06
7.62064e-06
7.62087e-06
7.62092e-06
7.89242e-06
7.89263e-06
7.89268e-06
8.13805e-06
8.13824e-06
8.13828e-06
8.35742e-06
8.35756e-06
8.35761e-06
8.54771e-06
8.54778e-06
8.54785e-06
8.69918e-06
8.69915e-06
8.69926e-06
8.80454e-06
8.80442e-06
8.80457e-06
8.86484e-06
8.86467e-06
8.86483e-06
8.86484e-06
8.86467e-06
8.86483e-06
8.80455e-06
8.80443e-06
8.80458e-06
8.6992e-06
8.69917e-06
8.69928e-06
8.54776e-06
8.54782e-06
8.5479e-06
8.3575e-06
8.35764e-06
8.35769e-06
8.13812e-06
8.13831e-06
8.13835e-06
7.89248e-06
7.89269e-06
7.89273e-06
7.62061e-06
7.62084e-06
7.62089e-06
7.31935e-06
7.31959e-06
7.31965e-06
6.98266e-06
6.98291e-06
6.98298e-06
6.60274e-06
6.60299e-06
6.60308e-06
6.17128e-06
6.17152e-06
6.17163e-06
5.69514e-06
5.69536e-06
5.69547e-06
5.40334e-06
5.40345e-06
5.40358e-06
1.65112e-06
1.65112e-06
1.65113e-06
2.57325e-06
2.57325e-06
2.57328e-06
9.03868e-06
9.03889e-06
9.03913e-06
9.13509e-06
9.1355e-06
9.13568e-06
9.72117e-06
9.72161e-06
9.72178e-06
1.02983e-05
1.02987e-05
1.02989e-05
1.08191e-05
1.08196e-05
1.08197e-05
1.12859e-05
1.12864e-05
1.12865e-05
1.17064e-05
1.17069e-05
1.17069e-05
1.20878e-05
1.20882e-05
1.20883e-05
1.24338e-05
1.24342e-05
1.24342e-05
1.27439e-05
1.27442e-05
1.27443e-05
1.3014e-05
1.30141e-05
1.30142e-05
1.32298e-05
1.32297e-05
1.32299e-05
1.33813e-05
1.33811e-05
1.33813e-05
1.34683e-05
1.3468e-05
1.34683e-05
1.34683e-05
1.3468e-05
1.34683e-05
1.33813e-05
1.33811e-05
1.33814e-05
1.32299e-05
1.32298e-05
1.323e-05
1.30141e-05
1.30142e-05
1.30143e-05
1.27441e-05
1.27444e-05
1.27444e-05
1.2434e-05
1.24343e-05
1.24344e-05
1.2088e-05
1.20883e-05
1.20884e-05
1.17065e-05
1.17069e-05
1.1707e-05
1.12857e-05
1.12862e-05
1.12863e-05
1.08187e-05
1.08191e-05
1.08193e-05
1.02977e-05
1.02981e-05
1.02983e-05
9.72068e-06
9.72112e-06
9.72129e-06
9.13491e-06
9.13531e-06
9.1355e-06
9.03872e-06
9.03892e-06
9.03916e-06
2.57321e-06
2.57321e-06
2.57323e-06
3.5147e-06
3.5147e-06
3.51473e-06
1.35105e-05
1.35109e-05
1.35112e-05
1.32439e-05
1.32445e-05
1.32449e-05
1.38658e-05
1.38665e-05
1.38668e-05
1.45681e-05
1.45688e-05
1.4569e-05
1.52286e-05
1.52293e-05
1.52295e-05
1.58323e-05
1.5833e-05
1.58332e-05
1.63825e-05
1.63832e-05
1.63833e-05
1.68856e-05
1.68862e-05
1.68863e-05
1.73447e-05
1.73452e-05
1.73453e-05
1.77582e-05
1.77586e-05
1.77587e-05
1.81199e-05
1.81201e-05
1.81202e-05
1.84104e-05
1.84103e-05
1.84106e-05
1.86162e-05
1.86159e-05
1.86162e-05
1.87349e-05
1.87345e-05
1.87349e-05
1.87349e-05
1.87345e-05
1.87349e-05
1.86162e-05
1.86159e-05
1.86163e-05
1.84105e-05
1.84104e-05
1.84107e-05
1.812e-05
1.81202e-05
1.81204e-05
1.77585e-05
1.77589e-05
1.7759e-05
1.73449e-05
1.73455e-05
1.73456e-05
1.68858e-05
1.68864e-05
1.68865e-05
1.63826e-05
1.63833e-05
1.63835e-05
1.58321e-05
1.58329e-05
1.5833e-05
1.52281e-05
1.52288e-05
1.5229e-05
1.45674e-05
1.45681e-05
1.45683e-05
1.38652e-05
1.38659e-05
1.38662e-05
1.32438e-05
1.32444e-05
1.32448e-05
1.35108e-05
1.35111e-05
1.35115e-05
3.51465e-06
3.51465e-06
3.51468e-06
4.35739e-06
4.35739e-06
4.35743e-06
1.87826e-05
1.87831e-05
1.87836e-05
1.80758e-05
1.80769e-05
1.80774e-05
1.86371e-05
1.86383e-05
1.86387e-05
1.94271e-05
1.94282e-05
1.94285e-05
2.02167e-05
2.02178e-05
2.0218e-05
2.09593e-05
2.09604e-05
2.09606e-05
2.16476e-05
2.16487e-05
2.16488e-05
2.2284e-05
2.22849e-05
2.2285e-05
2.28694e-05
2.28702e-05
2.28703e-05
2.33998e-05
2.34005e-05
2.34006e-05
2.38662e-05
2.38665e-05
2.38667e-05
2.42426e-05
2.42426e-05
2.4243e-05
2.45117e-05
2.45113e-05
2.45118e-05
2.46677e-05
2.46671e-05
2.46676e-05
2.46677e-05
2.46671e-05
2.46677e-05
2.45117e-05
2.45114e-05
2.45119e-05
2.42428e-05
2.42428e-05
2.42432e-05
2.38665e-05
2.38668e-05
2.3867e-05
2.34003e-05
2.34009e-05
2.34011e-05
2.28698e-05
2.28706e-05
2.28707e-05
2.22844e-05
2.22854e-05
2.22855e-05
2.16479e-05
2.16489e-05
2.16491e-05
2.09592e-05
2.09603e-05
2.09605e-05
2.02161e-05
2.02173e-05
2.02175e-05
1.94263e-05
1.94274e-05
1.94278e-05
1.86365e-05
1.86377e-05
1.86381e-05
1.80759e-05
1.8077e-05
1.80775e-05
1.87831e-05
1.87836e-05
1.87842e-05
4.35734e-06
4.35734e-06
4.35738e-06
5.10152e-06
5.10153e-06
5.10157e-06
2.47717e-05
2.47724e-05
2.47732e-05
2.36963e-05
2.36981e-05
2.36987e-05
2.40945e-05
2.40963e-05
2.40969e-05
2.4917e-05
2.49188e-05
2.49192e-05
2.58135e-05
2.58152e-05
2.58155e-05
2.66907e-05
2.66923e-05
2.66925e-05
2.75222e-05
2.75238e-05
2.75239e-05
2.83023e-05
2.83037e-05
2.83039e-05
2.90271e-05
2.90284e-05
2.90285e-05
2.96887e-05
2.96897e-05
2.96899e-05
3.02735e-05
3.02741e-05
3.02744e-05
3.07479e-05
3.07481e-05
3.07486e-05
3.10899e-05
3.10897e-05
3.10903e-05
3.12893e-05
3.12887e-05
3.12893e-05
3.12893e-05
3.12887e-05
3.12894e-05
3.10901e-05
3.10898e-05
3.10904e-05
3.07482e-05
3.07484e-05
3.07489e-05
3.0274e-05
3.02746e-05
3.02749e-05
2.96894e-05
2.96904e-05
2.96906e-05
2.90278e-05
2.9029e-05
2.90292e-05
2.8303e-05
2.83044e-05
2.83046e-05
2.75226e-05
2.75242e-05
2.75244e-05
2.66907e-05
2.66923e-05
2.66926e-05
2.5813e-05
2.58146e-05
2.5815e-05
2.49161e-05
2.49179e-05
2.49183e-05
2.40938e-05
2.40957e-05
2.40962e-05
2.36967e-05
2.36985e-05
2.36991e-05
2.47728e-05
2.47735e-05
2.47742e-05
5.10148e-06
5.10148e-06
5.10153e-06
5.77356e-06
5.77357e-06
5.77362e-06
3.13496e-05
3.13506e-05
3.13516e-05
3.0161e-05
3.01636e-05
3.01645e-05
3.03123e-05
3.03151e-05
3.03158e-05
3.10972e-05
3.10998e-05
3.11003e-05
3.2065e-05
3.20674e-05
3.20679e-05
3.30638e-05
3.30662e-05
3.30665e-05
3.4039e-05
3.40413e-05
3.40415e-05
3.49712e-05
3.49733e-05
3.49735e-05
3.58479e-05
3.58498e-05
3.585e-05
3.66549e-05
3.66564e-05
3.66566e-05
3.73725e-05
3.73735e-05
3.73739e-05
3.79576e-05
3.79581e-05
3.79587e-05
3.83828e-05
3.83828e-05
3.83835e-05
3.86322e-05
3.86317e-05
3.86325e-05
3.86322e-05
3.86318e-05
3.86326e-05
3.83831e-05
3.8383e-05
3.83838e-05
3.79581e-05
3.79585e-05
3.79591e-05
3.73731e-05
3.73742e-05
3.73745e-05
3.66559e-05
3.66574e-05
3.66576e-05
3.58489e-05
3.58507e-05
3.58509e-05
3.49723e-05
3.49744e-05
3.49746e-05
3.40398e-05
3.4042e-05
3.40423e-05
3.3064e-05
3.30664e-05
3.30667e-05
3.20645e-05
3.20669e-05
3.20674e-05
3.10962e-05
3.10988e-05
3.10993e-05
3.03116e-05
3.03144e-05
3.03151e-05
3.01619e-05
3.01645e-05
3.01654e-05
3.13513e-05
3.13522e-05
3.13533e-05
5.77352e-06
5.77353e-06
5.77359e-06
6.38776e-06
6.38777e-06
6.38783e-06
3.83473e-05
3.83486e-05
3.83499e-05
3.75e-05
3.75037e-05
3.75049e-05
3.73706e-05
3.73746e-05
3.73756e-05
3.80394e-05
3.80431e-05
3.80438e-05
3.90289e-05
3.90323e-05
3.90328e-05
4.01259e-05
4.01292e-05
4.01296e-05
4.12389e-05
4.1242e-05
4.12423e-05
4.23281e-05
4.2331e-05
4.23313e-05
4.33676e-05
4.33703e-05
4.33705e-05
4.43338e-05
4.4336e-05
4.43363e-05
4.51987e-05
4.52003e-05
4.52008e-05
4.59077e-05
4.59086e-05
4.59094e-05
4.64269e-05
4.64272e-05
4.64282e-05
4.67333e-05
4.67332e-05
4.67342e-05
4.67334e-05
4.67333e-05
4.67343e-05
4.64272e-05
4.64275e-05
4.64285e-05
4.59083e-05
4.59093e-05
4.591e-05
4.51996e-05
4.52012e-05
4.52017e-05
4.43352e-05
4.43374e-05
4.43377e-05
4.3369e-05
4.33716e-05
4.33719e-05
4.23296e-05
4.23325e-05
4.23328e-05
4.124e-05
4.12432e-05
4.12435e-05
4.01264e-05
4.01297e-05
4.013e-05
3.90284e-05
3.90318e-05
3.90323e-05
3.80382e-05
3.80419e-05
3.80427e-05
3.73699e-05
3.7374e-05
3.73749e-05
3.75016e-05
3.75053e-05
3.75065e-05
3.83498e-05
3.8351e-05
3.83523e-05
6.38772e-06
6.38774e-06
6.3878e-06
6.94665e-06
6.94666e-06
6.94673e-06
4.5325e-05
4.53258e-05
4.53274e-05
4.57062e-05
4.57113e-05
4.57128e-05
4.5346e-05
4.53517e-05
4.5353e-05
4.5824e-05
4.58292e-05
4.58302e-05
4.67722e-05
4.67769e-05
4.67776e-05
4.79319e-05
4.79364e-05
4.79369e-05
4.91683e-05
4.91726e-05
4.91729e-05
5.04145e-05
5.04186e-05
5.04188e-05
5.16253e-05
5.1629e-05
5.16292e-05
5.27632e-05
5.27664e-05
5.27668e-05
5.37895e-05
5.3792e-05
5.37927e-05
5.46355e-05
5.46372e-05
5.46383e-05
5.52597e-05
5.52607e-05
5.52621e-05
5.56309e-05
5.56314e-05
5.56327e-05
5.56311e-05
5.56315e-05
5.56329e-05
5.52602e-05
5.52612e-05
5.52625e-05
5.46364e-05
5.46381e-05
5.46391e-05
5.37908e-05
5.37933e-05
5.3794e-05
5.27651e-05
5.27683e-05
5.27687e-05
5.16271e-05
5.16308e-05
5.16311e-05
5.04166e-05
5.04206e-05
5.04209e-05
4.917e-05
4.91743e-05
4.91746e-05
4.79327e-05
4.79372e-05
4.79377e-05
4.67717e-05
4.67764e-05
4.67771e-05
4.58226e-05
4.58278e-05
4.58287e-05
4.53453e-05
4.53511e-05
4.53523e-05
4.57087e-05
4.57138e-05
4.57153e-05
4.53277e-05
4.53284e-05
4.533e-05
6.94661e-06
6.94663e-06
6.94669e-06
7.44647e-06
7.44649e-06
7.44656e-06
5.13381e-05
5.13389e-05
5.13407e-05
5.47289e-05
5.47357e-05
5.47376e-05
5.43009e-05
5.43089e-05
5.43105e-05
5.45354e-05
5.45426e-05
5.45439e-05
5.53701e-05
5.53765e-05
5.53775e-05
5.65436e-05
5.65497e-05
5.65503e-05
5.78786e-05
5.78844e-05
5.78848e-05
5.9275e-05
5.92804e-05
5.92808e-05
6.06614e-05
6.06664e-05
6.06668e-05
6.19813e-05
6.19858e-05
6.19864e-05
6.31823e-05
6.3186e-05
6.31869e-05
6.41779e-05
6.41807e-05
6.41821e-05
6.49182e-05
6.49201e-05
6.49219e-05
6.53621e-05
6.53633e-05
6.53652e-05
6.53623e-05
6.53635e-05
6.53655e-05
6.49188e-05
6.49207e-05
6.49225e-05
6.41791e-05
6.41819e-05
6.41833e-05
6.3184e-05
6.31877e-05
6.31886e-05
6.19839e-05
6.19884e-05
6.19889e-05
6.06638e-05
6.06688e-05
6.06692e-05
5.92778e-05
5.92832e-05
5.92835e-05
5.78809e-05
5.78867e-05
5.78871e-05
5.65448e-05
5.65508e-05
5.65514e-05
5.53696e-05
5.5376e-05
5.53769e-05
5.45336e-05
5.45408e-05
5.45421e-05
5.43003e-05
5.43083e-05
5.43099e-05
5.47326e-05
5.47394e-05
5.47414e-05
5.13413e-05
5.1342e-05
5.13438e-05
7.44644e-06
7.44645e-06
7.44652e-06
7.88868e-06
7.8887e-06
7.88877e-06
5.72554e-05
5.72564e-05
5.72584e-05
6.44724e-05
6.44812e-05
6.44836e-05
6.42722e-05
6.42829e-05
6.4285e-05
6.42563e-05
6.42662e-05
6.42678e-05
6.4904e-05
6.49127e-05
6.49138e-05
6.60292e-05
6.60372e-05
6.6038e-05
6.74256e-05
6.74332e-05
6.74337e-05
6.89564e-05
6.89636e-05
6.8964e-05
7.05171e-05
7.05238e-05
7.05243e-05
7.20258e-05
7.2032e-05
7.20327e-05
7.34124e-05
7.34178e-05
7.34189e-05
7.45691e-05
7.45735e-05
7.45753e-05
7.54358e-05
7.54392e-05
7.54415e-05
7.59606e-05
7.59632e-05
7.59657e-05
7.59609e-05
7.59634e-05
7.5966e-05
7.54366e-05
7.54401e-05
7.54423e-05
7.45706e-05
7.45751e-05
7.45768e-05
7.34147e-05
7.34201e-05
7.34212e-05
7.20292e-05
7.20353e-05
7.20361e-05
7.05202e-05
7.0527e-05
7.05275e-05
6.89601e-05
6.89672e-05
6.89677e-05
6.74287e-05
6.74362e-05
6.74368e-05
6.60308e-05
6.60387e-05
6.60395e-05
6.49033e-05
6.49119e-05
6.49131e-05
6.42539e-05
6.42638e-05
6.42654e-05
6.42715e-05
6.42823e-05
6.42844e-05
6.44777e-05
6.44865e-05
6.44889e-05
5.72592e-05
5.72601e-05
5.72621e-05
7.88864e-06
7.88866e-06
7.88873e-06
8.27872e-06
8.27873e-06
8.27881e-06
6.32378e-05
6.32389e-05
6.32411e-05
7.47968e-05
7.48079e-05
7.48108e-05
7.5259e-05
7.52731e-05
7.52758e-05
7.50596e-05
7.50727e-05
7.50749e-05
7.54585e-05
7.547e-05
7.54715e-05
7.6463e-05
7.64733e-05
7.64744e-05
7.78697e-05
7.78794e-05
7.78802e-05
7.95078e-05
7.9517e-05
7.95177e-05
8.12336e-05
8.12423e-05
8.12431e-05
8.29323e-05
8.29406e-05
8.29416e-05
8.45123e-05
8.45199e-05
8.45214e-05
8.58395e-05
8.58462e-05
8.58483e-05
8.68419e-05
8.68476e-05
8.68504e-05
8.74557e-05
8.74603e-05
8.74634e-05
8.74561e-05
8.74606e-05
8.74638e-05
8.68431e-05
8.68487e-05
8.68515e-05
8.58415e-05
8.58482e-05
8.58504e-05
8.45153e-05
8.45229e-05
8.45244e-05
8.29367e-05
8.2945e-05
8.2946e-05
8.12376e-05
8.12464e-05
8.12471e-05
7.95126e-05
7.95218e-05
7.95224e-05
7.78737e-05
7.78834e-05
7.78841e-05
7.64649e-05
7.64752e-05
7.64762e-05
7.54573e-05
7.54688e-05
7.54703e-05
7.50562e-05
7.50693e-05
7.50715e-05
7.52582e-05
7.52722e-05
7.52751e-05
7.4804e-05
7.48149e-05
7.4818e-05
6.32422e-05
6.32433e-05
6.32456e-05
8.27867e-06
8.27869e-06
8.27876e-06
8.62156e-06
8.62158e-06
8.62166e-06
6.92246e-05
6.92259e-05
6.92284e-05
8.55231e-05
8.55364e-05
8.55401e-05
8.72127e-05
8.72307e-05
8.72342e-05
8.69978e-05
8.70149e-05
8.70178e-05
8.71174e-05
8.71322e-05
8.71343e-05
8.79243e-05
8.79374e-05
8.79389e-05
8.92762e-05
8.92884e-05
8.92895e-05
9.09808e-05
9.09924e-05
9.09934e-05
9.28519e-05
9.28631e-05
9.28641e-05
9.47345e-05
9.47453e-05
9.47466e-05
9.65108e-05
9.65211e-05
9.6523e-05
9.80146e-05
9.80242e-05
9.80268e-05
9.91603e-05
9.91688e-05
9.91722e-05
9.98705e-05
9.98779e-05
9.98817e-05
9.9871e-05
9.98784e-05
9.98823e-05
9.91617e-05
9.91703e-05
9.91737e-05
9.80173e-05
9.80268e-05
9.80294e-05
9.65147e-05
9.6525e-05
9.65268e-05
9.47401e-05
9.4751e-05
9.47523e-05
9.2857e-05
9.28682e-05
9.28692e-05
9.09869e-05
9.09984e-05
9.09994e-05
8.92812e-05
8.92934e-05
8.92944e-05
8.79265e-05
8.79396e-05
8.7941e-05
8.71154e-05
8.71302e-05
8.71322e-05
8.69931e-05
8.70102e-05
8.7013e-05
8.72117e-05
8.72297e-05
8.72333e-05
8.55323e-05
8.55457e-05
8.55493e-05
6.92298e-05
6.92311e-05
6.92336e-05
8.62151e-06
8.62152e-06
8.62161e-06
8.92158e-06
8.92159e-06
8.92168e-06
7.50942e-05
7.50957e-05
7.50985e-05
9.64401e-05
9.64559e-05
9.64601e-05
0.00010003
0.000100052
0.000100056
0.000100091
0.000100113
0.000100117
9.99568e-05
9.99755e-05
9.99783e-05
0.000100496
0.000100512
0.000100514
0.000101716
0.000101731
0.000101732
0.00010343
0.000103445
0.000103446
0.000105414
0.000105427
0.000105429
0.000107464
0.000107477
0.000107479
0.000109432
0.000109446
0.000109448
0.000111114
0.000111127
0.000111131
0.000112408
0.00011242
0.000112424
0.000113222
0.000113233
0.000113237
0.000113222
0.000113233
0.000113238
0.00011241
0.000112422
0.000112426
0.000111118
0.000111131
0.000111134
0.000109437
0.000109451
0.000109453
0.000107471
0.000107485
0.000107486
0.00010542
0.000105434
0.000105435
0.000103438
0.000103452
0.000103453
0.000101722
0.000101737
0.000101738
0.000100498
0.000100515
0.000100517
9.99534e-05
9.99722e-05
9.99748e-05
0.000100085
0.000100106
0.00010011
0.000100028
0.000100051
0.000100055
9.64517e-05
9.64674e-05
9.64716e-05
7.51002e-05
7.51017e-05
7.51045e-05
8.92151e-06
8.92153e-06
8.92161e-06
9.18294e-06
9.18296e-06
9.18304e-06
8.07058e-05
8.07074e-05
8.07106e-05
0.000107315
0.000107333
0.000107337
0.000113548
0.000113574
0.00011358
0.000114316
0.000114343
0.000114347
0.000114036
0.000114059
0.000114063
0.000114261
0.000114281
0.000114284
0.000115264
0.000115282
0.000115284
0.000116916
0.000116933
0.000116935
0.000118962
0.000118978
0.00011898
0.00012115
0.000121167
0.000121169
0.000123297
0.000123314
0.000123317
0.000125153
0.00012517
0.000125174
0.000126596
0.000126612
0.000126617
0.000127518
0.000127534
0.000127539
0.000127519
0.000127534
0.00012754
0.000126598
0.000126615
0.00012662
0.000125157
0.000125174
0.000125178
0.000123303
0.00012332
0.000123323
0.000121158
0.000121175
0.000121178
0.000118969
0.000118986
0.000118988
0.000116925
0.000116942
0.000116944
0.000115271
0.000115289
0.000115291
0.000114263
0.000114283
0.000114286
0.00011403
0.000114054
0.000114057
0.000114306
0.000114333
0.000114338
0.000113546
0.000113573
0.000113578
0.000107329
0.000107346
0.000107351
8.07126e-05
8.07142e-05
8.07173e-05
9.18286e-06
9.18288e-06
9.18297e-06
9.4099e-06
9.40991e-06
9.41e-06
8.59129e-05
8.59146e-05
8.5918e-05
0.000117902
0.000117922
0.000117928
0.00012755
0.000127581
0.000127588
0.000129589
0.000129621
0.000129627
0.000129385
0.000129414
0.000129418
0.000129298
0.000129322
0.000129325
0.000130002
0.000130023
0.000130026
0.000131502
0.000131522
0.000131524
0.000133542
0.000133561
0.000133564
0.000135821
0.000135841
0.000135844
0.000138122
0.000138143
0.000138146
0.000140139
0.000140161
0.000140165
0.000141727
0.000141749
0.000141754
0.000142762
0.000142783
0.000142789
0.000142764
0.000142784
0.00014279
0.00014173
0.000141752
0.000141758
0.000140145
0.000140166
0.000140171
0.00013813
0.00013815
0.000138154
0.000135832
0.000135852
0.000135855
0.000133551
0.000133571
0.000133573
0.000131513
0.000131533
0.000131535
0.00013001
0.000130031
0.000130033
0.000129298
0.000129322
0.000129326
0.000129376
0.000129405
0.000129409
0.000129576
0.000129608
0.000129614
0.000127548
0.000127579
0.000127586
0.000117919
0.000117938
0.000117944
8.59204e-05
8.59221e-05
8.59255e-05
9.40981e-06
9.40982e-06
9.40991e-06
9.60671e-06
9.60672e-06
9.60681e-06
9.05743e-05
9.05761e-05
9.05797e-05
0.000127961
0.000127982
0.000127988
0.000141772
0.000141808
0.000141816
0.000145764
0.000145802
0.000145809
0.000145993
0.000146026
0.000146032
0.00014567
0.000145698
0.000145702
0.000146012
0.000146037
0.00014604
0.000147261
0.000147283
0.000147286
0.000149204
0.000149226
0.000149229
0.000151508
0.000151531
0.000151535
0.000153921
0.000153946
0.00015395
0.000156077
0.000156103
0.000156108
0.000157801
0.000157827
0.000157834
0.00015895
0.000158976
0.000158983
0.000158952
0.000158977
0.000158984
0.000157805
0.000157832
0.000157838
0.000156084
0.00015611
0.000156115
0.000153931
0.000153955
0.000153959
0.000151521
0.000151544
0.000151548
0.000149215
0.000149237
0.00014924
0.000147274
0.000147296
0.000147299
0.000146021
0.000146045
0.000146048
0.000145668
0.000145696
0.0001457
0.000145979
0.000146013
0.000146019
0.000145746
0.000145783
0.000145791
0.000141769
0.000141804
0.000141812
0.000127979
0.000128
0.000128006
9.05823e-05
9.0584e-05
9.05877e-05
9.6066e-06
9.60661e-06
9.6067e-06
9.77751e-06
9.77752e-06
9.7776e-06
9.45667e-05
9.45684e-05
9.45722e-05
0.000137263
0.000137285
0.000137292
0.000155913
0.000155952
0.000155961
0.000162624
0.000162667
0.000162676
0.000163791
0.000163828
0.000163836
0.000163417
0.000163449
0.000163454
0.000163378
0.000163404
0.000163409
0.000164271
0.000164295
0.000164299
0.000166006
0.00016603
0.000166034
0.000168244
0.00016827
0.000168274
0.00017071
0.000170737
0.000170742
0.000172969
0.000172998
0.000173005
0.000174812
0.000174842
0.00017485
0.000176072
0.000176102
0.00017611
0.000176074
0.000176104
0.000176112
0.000174817
0.000174847
0.000174855
0.000172978
0.000173007
0.000173013
0.000170721
0.000170748
0.000170753
0.00016826
0.000168285
0.000168289
0.000166019
0.000166043
0.000166047
0.000164285
0.000164309
0.000164313
0.000163386
0.000163412
0.000163416
0.000163412
0.000163443
0.000163449
0.00016377
0.000163808
0.000163816
0.000162599
0.000162642
0.000162651
0.000155907
0.000155946
0.000155955
0.000137282
0.000137304
0.000137311
9.4575e-05
9.45766e-05
9.45804e-05
9.77738e-06
9.77738e-06
9.77747e-06
9.92612e-06
9.92613e-06
9.92621e-06
9.7798e-05
9.77996e-05
9.78035e-05
0.000145611
0.000145633
0.00014564
0.000169648
0.000169689
0.0001697
0.000179886
0.000179933
0.000179944
0.000182639
0.00018268
0.00018269
0.000182539
0.000182574
0.000182581
0.00018217
0.000182199
0.000182204
0.000182617
0.000182641
0.000182646
0.000184013
0.000184037
0.000184042
0.000186068
0.000186093
0.000186098
0.000188502
0.00018853
0.000188536
0.000190814
0.000190846
0.000190854
0.00019275
0.000192783
0.000192792
0.000194116
0.000194149
0.000194159
0.000194118
0.000194152
0.000194161
0.000192756
0.00019279
0.000192799
0.000190825
0.000190857
0.000190864
0.000188515
0.000188543
0.000188549
0.000186085
0.00018611
0.000186116
0.000184028
0.000184052
0.000184057
0.000182632
0.000182657
0.000182661
0.000182176
0.000182204
0.00018221
0.000182528
0.000182563
0.00018257
0.000182609
0.000182651
0.00018266
0.000179852
0.000179899
0.00017991
0.000169639
0.000169681
0.000169691
0.00014563
0.000145652
0.00014566
9.78062e-05
9.78077e-05
9.78117e-05
9.92596e-06
9.92597e-06
9.92605e-06
1.0056e-05
1.0056e-05
1.0056e-05
0.00010022
0.000100221
0.000100225
0.000152847
0.000152869
0.000152876
0.00018265
0.000182693
0.000182704
0.000197207
0.000197257
0.00019727
0.00020232
0.000202365
0.000202376
0.00020298
0.000203016
0.000203025
0.000202442
0.00020247
0.000202477
0.000202386
0.000202409
0.000202415
0.000203299
0.000203321
0.000203327
0.000205023
0.000205047
0.000205053
0.000207316
0.000207343
0.00020735
0.000209614
0.000209646
0.000209654
0.000211605
0.00021164
0.00021165
0.000213066
0.0002131
0.000213111
0.000213069
0.000213103
0.000213113
0.000211613
0.000211648
0.000211658
0.000209627
0.000209659
0.000209667
0.000207331
0.000207359
0.000207366
0.000205041
0.000205066
0.000205072
0.000203316
0.000203338
0.000203343
0.000202401
0.000202424
0.00020243
0.000202444
0.000202473
0.000202479
0.000202961
0.000202997
0.000203005
0.000202278
0.000202324
0.000202335
0.000197162
0.000197213
0.000197226
0.000182637
0.000182681
0.000182692
0.000152866
0.000152887
0.000152895
0.000100227
0.000100229
0.000100233
1.00558e-05
1.00558e-05
1.00558e-05
1.01699e-05
1.01699e-05
1.017e-05
0.000101834
0.000101835
0.000101839
0.000158867
0.000158887
0.000158895
0.0001946
0.000194643
0.000194656
0.000214201
0.000214254
0.000214268
0.000222534
0.000222581
0.000222595
0.00022461
0.000224646
0.000224657
0.000224207
0.000224234
0.000224242
0.000223657
0.000223678
0.000223684
0.000223943
0.000223962
0.000223968
0.000225161
0.000225182
0.000225189
0.000227172
0.000227197
0.000227205
0.000229368
0.000229397
0.000229406
0.000231366
0.000231398
0.000231409
0.000232902
0.000232934
0.000232946
0.000232905
0.000232938
0.000232949
0.000231375
0.000231408
0.000231418
0.000229383
0.000229412
0.000229421
0.00022719
0.000227214
0.000227222
0.00022518
0.000225201
0.000225208
0.000223961
0.00022398
0.000223985
0.00022367
0.000223691
0.000223697
0.000224203
0.000224231
0.000224238
0.000224578
0.000224615
0.000224626
0.000222477
0.000222525
0.000222538
0.000214143
0.000214196
0.000214211
0.000194581
0.000194625
0.000194638
0.000158884
0.000158904
0.000158912
0.000101841
0.000101842
0.000101846
1.01697e-05
1.01697e-05
1.01698e-05
1.02705e-05
1.02705e-05
1.02706e-05
0.000102698
0.000102699
0.000102702
0.000163621
0.000163639
0.000163648
0.000205208
0.000205251
0.000205265
0.000230456
0.000230511
0.000230527
0.000242906
0.000242954
0.00024297
0.000247209
0.000247245
0.000247257
0.000247421
0.000247445
0.000247454
0.000246487
0.000246504
0.000246511
0.000246022
0.000246036
0.000246041
0.000246535
0.00024655
0.000246556
0.000248091
0.00024811
0.000248117
0.00025007
0.000250093
0.000250103
0.00025201
0.000252037
0.000252048
0.000253595
0.000253622
0.000253634
0.000253599
0.000253626
0.000253638
0.000252022
0.000252048
0.00025206
0.000250088
0.000250111
0.00025012
0.000248109
0.000248128
0.000248136
0.000246553
0.000246568
0.000246574
0.00024604
0.000246054
0.000246059
0.000246497
0.000246514
0.00024652
0.000247408
0.000247432
0.000247441
0.000247162
0.000247198
0.00024721
0.000242829
0.000242878
0.000242893
0.000230382
0.000230438
0.000230453
0.000205181
0.000205226
0.000205239
0.000163635
0.000163653
0.000163662
0.000102704
0.000102705
0.000102708
1.02703e-05
1.02703e-05
1.02703e-05
1.03597e-05
1.03597e-05
1.03597e-05
0.000102914
0.000102915
0.000102918
0.000167115
0.000167131
0.000167141
0.000214228
0.00021427
0.000214285
0.000245554
0.00024561
0.000245626
0.000262994
0.000263042
0.000263059
0.000270461
0.000270494
0.000270508
0.000271951
0.00027197
0.00027198
0.000270884
0.000270896
0.000270902
0.00026959
0.000269598
0.000269601
0.000269183
0.000269192
0.000269196
0.000270076
0.000270087
0.000270093
0.000271699
0.000271713
0.000271721
0.000273497
0.000273515
0.000273525
0.000275092
0.000275111
0.000275122
0.000275097
0.000275116
0.000275127
0.000273511
0.000273529
0.000273539
0.000271718
0.000271733
0.000271741
0.000270095
0.000270105
0.000270111
0.000269198
0.000269206
0.00026921
0.000269607
0.000269615
0.000269618
0.000270887
0.000270898
0.000270904
0.000271925
0.000271944
0.000271954
0.000270394
0.000270427
0.000270441
0.000262894
0.000262942
0.000262959
0.000245461
0.000245517
0.000245534
0.000214193
0.000214236
0.000214251
0.000167126
0.000167142
0.000167151
0.000102919
0.000102919
0.000102922
1.03594e-05
1.03594e-05
1.03595e-05
1.0439e-05
1.0439e-05
1.04391e-05
0.00010262
0.00010262
0.000102623
0.000169408
0.000169421
0.000169431
0.000221481
0.000221522
0.000221538
0.000259097
0.000259151
0.000259169
0.00028231
0.000282356
0.000282374
0.00029394
0.00029397
0.000293984
0.000297542
0.000297557
0.000297566
0.000296758
0.000296765
0.000296768
0.00029464
0.000294642
0.000294641
0.000293102
0.000293102
0.000293102
0.00029309
0.000293091
0.000293093
0.000294183
0.000294188
0.000294192
0.000295735
0.000295743
0.000295748
0.000297286
0.000297295
0.0002973
0.000297291
0.000297301
0.000297306
0.000295751
0.000295759
0.000295764
0.000294204
0.000294209
0.000294213
0.000293107
0.000293108
0.00029311
0.000293109
0.000293109
0.00029311
0.000294653
0.000294655
0.000294654
0.000296751
0.000296757
0.00029676
0.000297498
0.000297513
0.000297522
0.000293849
0.000293878
0.000293893
0.000282182
0.000282228
0.000282246
0.00025898
0.000259035
0.000259054
0.000221435
0.000221476
0.000221493
0.000169414
0.000169427
0.000169437
0.000102623
0.000102623
0.000102626
1.04387e-05
1.04387e-05
1.04387e-05
1.05095e-05
1.05095e-05
1.05096e-05
0.000101968
0.000101968
0.00010197
0.000170611
0.000170622
0.000170633
0.000226878
0.000226916
0.000226934
0.000270734
0.000270786
0.000270806
0.000300341
0.000300386
0.000300404
0.000317113
0.000317138
0.000317152
0.000323774
0.000323783
0.000323791
0.000323857
0.000323859
0.000323856
0.000321035
0.000321029
0.000321023
0.000318179
0.000318168
0.000318163
0.000316996
0.000316984
0.000316981
0.000317355
0.000317346
0.000317344
0.000318525
0.00031852
0.000318519
0.000319958
0.000319954
0.000319953
0.000319964
0.00031996
0.00031996
0.000318544
0.000318538
0.000318538
0.000317377
0.000317368
0.000317366
0.000317009
0.000316997
0.000316994
0.000318175
0.000318164
0.000318159
0.000321041
0.000321035
0.000321028
0.000323834
0.000323836
0.000323834
0.000323708
0.000323717
0.000323724
0.000316992
0.000317017
0.000317031
0.000300181
0.000300226
0.000300244
0.00027059
0.000270644
0.000270664
0.000226819
0.000226858
0.000226876
0.000170611
0.000170622
0.000170633
0.000101969
0.000101969
0.000101972
1.05092e-05
1.05092e-05
1.05092e-05
1.0572e-05
1.0572e-05
1.0572e-05
0.000101123
0.000101123
0.000101125
0.000170913
0.000170924
0.000170935
0.000230451
0.000230487
0.000230506
0.000280203
0.000280254
0.000280276
0.000316577
0.000316618
0.000316637
0.000339326
0.000339345
0.000339359
0.000349995
0.00035
0.000350003
0.000351651
0.000351646
0.000351638
0.000348377
0.000348362
0.00034835
0.000344079
0.000344058
0.000344046
0.000341452