/*--------------------------------*- C++ -*----------------------------------*\
  =========                 |
  \\      /  F ield         | OpenFOAM: The Open Source CFD Toolbox
   \\    /   O peration     | Website:  https://openfoam.org
    \\  /    A nd           | Version:  6
     \\/     M anipulation  |
\*---------------------------------------------------------------------------*/
FoamFile
{
    version     2.0;
    format      ascii;
    class       surfaceScalarField;
    location    "80";
    object      phi;
}
// * * * * * * * * * * * * * * * * * * * * * * * * * * * * * * * * * * * * * //

dimensions      [0 3 -1 0 0 0 0];

internalField   nonuniform List<scalar> 
7494
(
8.64438e-08
6.77713e-15
4.49509e-13
8.64442e-08
5.47989e-13
-8.99057e-13
-5.55082e-13
4.47764e-13
2.45997e-07
4.75134e-13
1.92286e-12
2.46001e-07
8.09977e-13
-3.59817e-12
-1.28305e-12
1.67306e-12
3.31554e-07
1.6786e-12
2.52002e-12
3.31561e-07
-1.7784e-12
-4.61812e-12
1.05509e-13
2.09448e-12
4.30394e-07
3.06208e-12
3.31364e-12
4.30404e-07
-4.58243e-12
-6.9793e-12
1.52635e-12
3.66539e-12
5.45119e-07
3.88533e-12
4.17778e-12
5.45131e-07
-6.11862e-12
-9.7939e-12
2.24031e-12
5.61513e-12
6.79245e-07
3.67451e-12
5.16309e-12
6.79258e-07
-5.7099e-12
-1.29675e-11
2.04341e-12
7.80343e-12
8.36647e-07
2.57377e-12
5.8821e-12
8.36661e-07
-4.01731e-12
-1.55451e-11
1.45144e-12
9.66313e-12
1.02168e-06
1.14493e-12
6.25053e-12
1.0217e-06
-1.89925e-12
-1.73413e-11
7.57255e-13
1.10957e-11
1.23931e-06
-2.74286e-13
6.58348e-12
1.23933e-06
3.71863e-14
-1.8368e-11
2.38958e-13
1.17857e-11
1.4949e-06
-1.28825e-12
7.2599e-12
1.49491e-06
1.45332e-12
-1.90783e-11
-1.63628e-13
1.18188e-11
1.79381e-06
-1.80307e-12
8.66451e-12
1.79383e-06
2.1714e-12
-1.93647e-11
-3.6646e-13
1.06998e-11
2.14112e-06
-1.85516e-12
1.23318e-11
2.14114e-06
2.26896e-12
-1.91071e-11
-4.11086e-13
6.77437e-12
2.53969e-06
-1.50407e-12
1.62888e-11
2.53971e-06
1.78189e-12
-1.686e-11
-2.74377e-13
5.70537e-13
2.99169e-06
-8.68121e-13
2.12351e-11
2.99171e-06
9.62588e-13
-1.42378e-11
-9.17338e-14
-6.99662e-12
3.50071e-06
-1.22063e-14
2.5516e-11
3.50072e-06
1.24272e-14
-1.07265e-11
1.33279e-15
-1.47884e-11
3.50071e-06
8.53849e-13
2.5538e-11
3.50072e-06
-9.40893e-13
-1.07024e-11
8.70377e-14
-1.48341e-11
2.99168e-06
1.48981e-12
2.12157e-11
2.9917e-06
-1.75732e-12
-1.4168e-11
2.66539e-13
-7.04672e-12
2.53968e-06
1.82747e-12
1.62654e-11
2.5397e-06
-2.23812e-12
-1.67999e-11
4.09431e-13
5.34735e-13
2.14112e-06
1.77816e-12
1.23261e-11
2.14114e-06
-2.13905e-12
-1.90312e-11
3.59465e-13
6.70523e-12
1.79382e-06
1.26945e-12
8.64774e-12
1.79384e-06
-1.41922e-12
-1.9304e-11
1.49542e-13
1.06551e-11
1.4949e-06
2.39333e-13
7.21681e-12
1.49491e-06
-8.32923e-15
-1.90412e-11
-2.3157e-13
1.18247e-11
1.23931e-06
-1.17069e-12
6.55154e-12
1.23933e-06
1.94634e-12
-1.83075e-11
-7.757e-13
1.17554e-11
1.02166e-06
-2.61861e-12
6.2448e-12
1.02168e-06
4.09044e-12
-1.72932e-11
-1.47156e-12
1.10481e-11
8.36609e-07
-3.73049e-12
5.86422e-12
8.36623e-07
5.8105e-12
-1.55204e-11
-2.07928e-12
9.65569e-12
6.79193e-07
-3.99826e-12
5.1758e-12
6.79206e-07
6.266e-12
-1.29787e-11
-2.26731e-12
7.80319e-12
5.45066e-07
-3.15357e-12
4.16291e-12
5.45077e-07
4.72537e-12
-9.77842e-12
-1.57195e-12
5.61608e-12
4.30354e-07
-1.74541e-12
3.28006e-12
4.30364e-07
1.85283e-12
-6.9228e-12
-1.07929e-13
3.6431e-12
3.31533e-07
-4.92526e-13
2.5017e-12
3.3154e-07
-7.88219e-13
-4.55406e-12
1.27967e-12
2.05293e-12
2.45987e-07
4.30063e-15
1.90108e-12
2.4599e-07
-5.55604e-13
-3.54408e-12
5.50702e-13
1.64253e-12
8.64414e-08
4.62976e-13
8.64417e-08
-9.0058e-13
4.37002e-13
2.69238e-07
-7.09809e-14
1.80663e-12
2.69239e-07
1.64306e-12
-3.57539e-12
-1.57296e-12
1.76785e-12
7.34105e-07
1.10541e-12
5.87489e-12
7.34112e-07
2.01504e-12
-1.09375e-11
-3.11194e-12
5.05104e-12
9.52351e-07
4.21092e-12
6.99094e-12
9.52365e-07
-4.06005e-12
-1.25971e-11
-1.34755e-13
5.5949e-12
1.19488e-06
7.64119e-12
8.90011e-12
1.1949e-06
-1.10158e-11
-1.79603e-11
3.39074e-12
9.06e-12
1.47138e-06
9.52694e-12
1.15081e-11
1.4714e-06
-1.4459e-11
-2.61822e-11
4.94784e-12
1.46735e-11
1.79064e-06
8.87932e-12
1.46469e-11
1.79066e-06
-1.34044e-11
-3.52404e-11
4.53915e-12
2.05942e-11
2.16163e-06
6.14843e-12
1.70058e-11
2.16166e-06
-9.28833e-12
-4.24374e-11
3.15195e-12
2.54338e-11
2.59414e-06
2.69726e-12
1.80466e-11
2.59417e-06
-4.3554e-12
-4.67971e-11
1.66418e-12
2.87615e-11
3.09914e-06
-5.87004e-13
1.86806e-11
3.09917e-06
8.39531e-14
-4.88749e-11
5.06733e-13
3.01978e-11
3.68857e-06
-2.91292e-12
2.00245e-11
3.6886e-06
3.23069e-12
-5.00074e-11
-3.14967e-13
2.99842e-11
4.37494e-06
-4.06595e-12
2.31145e-11
4.37497e-06
4.82211e-12
-5.02651e-11
-7.51841e-13
2.71487e-11
5.1709e-06
-4.14777e-12
3.1879e-11
5.17093e-06
4.98749e-12
-4.94092e-11
-8.33296e-13
1.75272e-11
6.08835e-06
-3.35696e-12
4.30179e-11
6.08838e-06
3.90552e-12
-4.54712e-11
-5.4088e-13
2.45136e-12
7.13956e-06
-1.93204e-12
5.51666e-11
7.13959e-06
2.11235e-12
-3.90905e-11
-1.73902e-13
-1.60741e-11
8.33299e-06
-2.59258e-14
6.57765e-11
8.33302e-06
2.55275e-14
-3.05423e-11
3.69026e-15
-3.52299e-11
8.33299e-06
1.89865e-12
6.58371e-11
8.33301e-06
-2.06478e-12
-3.04801e-11
1.65739e-13
-3.53517e-11
7.13955e-06
3.3228e-12
5.51129e-11
7.13957e-06
-3.85234e-12
-3.89101e-11
5.2688e-13
-1.61996e-11
6.08833e-06
4.08719e-12
4.29561e-11
6.08836e-06
-4.92311e-12
-4.53191e-11
8.32519e-13
2.36402e-12
5.17089e-06
4.00959e-12
3.18612e-11
5.17092e-06
-4.75042e-12
-4.9227e-11
7.37596e-13
1.73658e-11
4.37495e-06
2.86493e-12
2.30693e-11
4.37498e-06
-3.15923e-12
-5.01101e-11
2.92879e-13
2.70378e-11
3.68857e-06
5.17391e-13
1.99153e-11
3.6886e-06
-1.76364e-14
-4.99215e-11
-5.01044e-13
3.00065e-11
3.09913e-06
-2.77203e-12
1.86151e-11
3.09916e-06
4.45625e-12
-4.87267e-11
-1.68471e-12
3.01104e-11
2.59411e-06
-6.25331e-12
1.8028e-11
2.59413e-06
9.45701e-12
-4.66995e-11
-3.20332e-12
2.86703e-11
2.16157e-06
-9.03371e-12
1.69874e-11
2.16159e-06
1.36549e-11
-4.24113e-11
-4.61988e-12
2.54225e-11
1.79054e-06
-9.79532e-12
1.47024e-11
1.79056e-06
1.4817e-11
-3.52986e-11
-5.02086e-12
2.05969e-11
1.47128e-06
-7.88318e-12
1.14737e-11
1.4713e-06
1.137e-11
-2.61473e-11
-3.48707e-12
1.46752e-11
1.19481e-06
-4.37594e-12
8.77631e-12
1.19482e-06
4.25492e-12
-1.777e-11
1.19642e-13
8.9952e-12
9.52307e-07
-1.15461e-12
6.91619e-12
9.52321e-07
-1.95281e-12
-1.23809e-11
3.10471e-12
5.46661e-12
7.34082e-07
9.37553e-14
5.79261e-12
7.34089e-07
-1.65513e-12
-1.07565e-11
1.55989e-12
4.96222e-12
2.69231e-07
1.84426e-12
2.69232e-07
-3.57157e-12
1.72522e-12
4.57661e-07
-1.96171e-13
3.96743e-12
4.57662e-07
2.51501e-12
-7.70452e-12
-2.31973e-12
3.7371e-12
1.11799e-06
1.45805e-12
1.02655e-11
1.118e-06
2.82014e-12
-1.91112e-11
-4.26415e-12
8.81932e-12
1.43362e-06
5.86946e-12
1.19157e-11
1.43364e-06
-5.36224e-12
-2.08394e-11
-4.83503e-13
8.90278e-12
1.77638e-06
1.06834e-11
1.51584e-11
1.7764e-06
-1.50509e-11
-2.91689e-11
4.39122e-12
1.40103e-11
2.16581e-06
1.32741e-11
2.01831e-11
2.16583e-06
-1.97365e-11
-4.44655e-11
6.48496e-12
2.4283e-11
2.61481e-06
1.23325e-11
2.63427e-11
2.61483e-06
-1.8312e-11
-6.11061e-11
5.99853e-12
3.47678e-11
3.13589e-06
8.51678e-12
3.1023e-11
3.13592e-06
-1.26438e-11
-7.42306e-11
4.14253e-12
4.32133e-11
3.74259e-06
3.71874e-12
3.30244e-11
3.74261e-06
-5.9093e-12
-8.16566e-11
2.1996e-12
4.86498e-11
4.45005e-06
-7.9368e-13
3.40105e-11
4.45008e-06
1.34654e-13
-8.4904e-11
6.64184e-13
5.09009e-11
5.27486e-06
-3.98556e-12
3.60273e-11
5.27489e-06
4.38261e-12
-8.63899e-11
-3.93154e-13
5.03652e-11
6.23461e-06
-5.55856e-12
4.09339e-11
6.23464e-06
6.53519e-12
-8.67871e-11
-9.70498e-13
4.58491e-11
7.34745e-06
-5.65978e-12
5.5329e-11
7.34749e-06
6.75024e-12
-8.57452e-11
-1.08134e-12
3.04102e-11
8.63176e-06
-4.56811e-12
7.49486e-11
8.6318e-06
5.27998e-12
-8.12236e-11
-7.01143e-13
6.27147e-12
1.01071e-05
-2.61465e-12
9.48889e-11
1.01071e-05
2.84475e-12
-7.16021e-11
-2.20959e-13
-2.32832e-11
1.17867e-05
-3.44548e-14
1.12387e-10
1.17867e-05
3.37946e-14
-5.83423e-11
5.27262e-15
-5.40362e-11
1.17867e-05
2.56878e-12
1.12493e-10
1.17867e-05
-2.77998e-12
-5.82357e-11
2.10652e-13
-5.42471e-11
1.01071e-05
4.52059e-12
9.47905e-11
1.01071e-05
-5.20766e-12
-7.12947e-11
6.83363e-13
-2.34894e-11
8.63174e-06
5.57798e-12
7.48406e-11
8.63178e-06
-6.66424e-12
-8.09706e-11
1.08146e-12
6.13209e-12
7.34744e-06
5.48151e-12
5.52928e-11
7.34748e-06
-6.43743e-12
-8.54499e-11
9.51619e-13
3.01567e-11
6.23461e-06
3.91701e-12
4.08538e-11
6.23465e-06
-4.28682e-12
-8.65274e-11
3.67668e-13
4.56684e-11
5.27485e-06
7.02511e-13
3.58444e-11
5.27489e-06
-4.25401e-14
-8.62583e-11
-6.61582e-13
5.04136e-11
4.45003e-06
-3.82771e-12
3.39158e-11
4.45006e-06
6.04594e-12
-8.46624e-11
-2.21893e-12
5.07444e-11
3.74254e-06
-8.66113e-12
3.29892e-11
3.74257e-06
1.2876e-11
-8.15225e-11
-4.21432e-12
4.85308e-11
3.13581e-06
-1.25567e-11
3.10253e-11
3.13583e-06
1.86631e-11
-7.42309e-11
-6.1047e-12
4.32031e-11
2.61469e-06
-1.36439e-11
2.6464e-11
2.61472e-06
2.02313e-11
-6.12415e-11
-6.58643e-12
3.4779e-11
2.16569e-06
-1.10292e-11
2.01309e-11
2.16571e-06
1.55424e-11
-4.44135e-11
-4.51339e-12
2.42853e-11
1.77628e-06
-6.09946e-12
1.49093e-11
1.7763e-06
5.63877e-12
-2.87977e-11
4.58693e-13
1.38918e-11
1.43357e-06
-1.53205e-12
1.17552e-11
1.43359e-06
-2.72716e-12
-2.04204e-11
4.25545e-12
8.66882e-12
1.11796e-06
2.24095e-13
1.00931e-11
1.11797e-06
-2.52685e-12
-1.87654e-11
2.30063e-12
8.66898e-12
4.57649e-07
4.03626e-12
4.57651e-07
-7.6857e-12
3.64522e-12
6.5268e-07
-3.44505e-13
6.86692e-12
6.52682e-07
3.2599e-12
-1.31248e-11
-2.91571e-12
6.25821e-12
1.44267e-06
1.70592e-12
1.49697e-11
1.44268e-06
3.49551e-12
-2.78262e-11
-5.18282e-12
1.28112e-11
1.84827e-06
7.16582e-12
1.74526e-11
1.84829e-06
-6.30482e-12
-2.97105e-11
-8.31024e-13
1.22257e-11
2.28265e-06
1.31139e-11
2.23447e-11
2.28267e-06
-1.81373e-11
-4.12852e-11
5.05368e-12
1.894e-11
2.77514e-06
1.63145e-11
3.03579e-11
2.77517e-06
-2.38933e-11
-6.50241e-11
7.60764e-12
3.46681e-11
3.34256e-06
1.51648e-11
4.02434e-11
3.34259e-06
-2.22328e-11
-9.06573e-11
7.09239e-12
5.04226e-11
4.00074e-06
1.04728e-11
4.77375e-11
4.00077e-06
-1.53496e-11
-1.10804e-10
4.89654e-12
6.3077e-11
4.76667e-06
4.56365e-12
5.09618e-11
4.7667e-06
-7.1564e-12
-1.21843e-10
2.60484e-12
7.09062e-11
5.65939e-06
-9.79093e-13
5.24744e-11
5.65942e-06
2.02211e-13
-1.26558e-10
7.83575e-13
7.40968e-11
6.69973e-06
-4.90242e-12
5.53247e-11
6.69976e-06
5.3642e-12
-1.285e-10
-4.56724e-13
7.31797e-11
7.90988e-06
-6.83419e-12
6.24297e-11
7.90992e-06
7.98588e-12
-1.29569e-10
-1.14385e-12
6.71328e-11
9.31292e-06
-6.95776e-12
8.31261e-11
9.31297e-06
8.25953e-12
-1.29295e-10
-1.29022e-12
4.61595e-11
1.09324e-05
-5.59294e-12
1.12148e-10
1.09325e-05
6.4545e-12
-1.25519e-10
-8.48064e-13
1.33648e-11
1.27936e-05
-3.17637e-12
1.40497e-10
1.27936e-05
3.45537e-12
-1.14051e-10
-2.67412e-13
-2.64404e-11
1.49148e-05
-4.15003e-14
1.65332e-10
1.49148e-05
4.08172e-14
-9.72207e-11
6.55317e-15
-6.80971e-11
1.49148e-05
3.12032e-12
1.6549e-10
1.49148e-05
-3.3759e-12
-9.70643e-11
2.55002e-13
-6.84084e-11
1.27936e-05
5.53422e-12
1.40342e-10
1.27936e-05
-6.36548e-12
-1.13602e-10
8.26744e-13
-2.67302e-11
1.09324e-05
6.85783e-12
1.11984e-10
1.09324e-05
-8.15482e-12
-1.25157e-10
1.29103e-12
1.3177e-11
9.31291e-06
6.73942e-12
8.30639e-11
9.31295e-06
-7.86592e-12
-1.2888e-10
1.12126e-12
4.58151e-11
7.90988e-06
4.8165e-12
6.23079e-11
7.90992e-06
-5.24716e-12
-1.29197e-10
4.2798e-13
6.68817e-11
6.69971e-06
8.68539e-13
5.50606e-11
6.69975e-06
-8.79465e-14
-1.28327e-10
-7.82477e-13
7.32654e-11
5.65937e-06
-4.70012e-12
5.23502e-11
5.6594e-06
7.32446e-12
-1.26215e-10
-2.62519e-12
7.38614e-11
4.76662e-06
-1.0651e-11
5.09077e-11
4.76665e-06
1.56356e-11
-1.21679e-10
-4.9838e-12
7.0767e-11
4.00063e-06
-1.54464e-11
4.77751e-11
4.00066e-06
2.26662e-11
-1.1085e-10
-7.21773e-12
6.30709e-11
3.34242e-06
-1.67681e-11
4.0447e-11
3.34245e-06
2.44981e-11
-9.08978e-11
-7.72878e-12
5.04531e-11
2.77499e-06
-1.35426e-11
3.02887e-11
2.77502e-06
1.8737e-11
-6.49567e-11
-5.19458e-12
3.46722e-11
2.28253e-06
-7.44854e-12
2.19475e-11
2.28255e-06
6.646e-12
-4.07007e-11
8.00081e-13
1.87587e-11
1.8482e-06
-1.8013e-12
1.71869e-11
1.84822e-06
-3.37644e-12
-2.90534e-11
5.17316e-12
1.18722e-11
1.44263e-06
3.7437e-13
1.46878e-11
1.44264e-06
-3.26944e-12
-2.7289e-11
2.8924e-12
1.2596e-11
6.52664e-07
6.97166e-12
6.52666e-07
-1.30806e-11
6.10206e-12
8.58833e-07
-5.13243e-13
1.05158e-11
8.58836e-07
3.98754e-12
-1.9864e-11
-3.47354e-12
9.34784e-12
1.76082e-06
1.92336e-12
1.99622e-11
1.76083e-06
4.15888e-12
-3.70113e-11
-6.05932e-12
1.69818e-11
2.25976e-06
8.36209e-12
2.36272e-11
2.25978e-06
-7.11253e-12
-3.93296e-11
-1.21368e-12
1.56572e-11
2.78872e-06
1.53805e-11
3.05302e-11
2.78875e-06
-2.09082e-11
-5.46011e-11
5.5643e-12
2.40698e-11
3.38709e-06
1.91788e-11
4.20681e-11
3.38712e-06
-2.77171e-11
-8.80286e-11
8.57325e-12
4.59641e-11
4.07598e-06
1.78524e-11
5.62779e-11
4.07601e-06
-2.58783e-11
-1.23878e-10
8.05596e-12
6.76139e-11
4.87474e-06
1.23369e-11
6.69923e-11
4.87477e-06
-1.78807e-11
-1.52041e-10
5.56811e-12
8.50647e-11
5.80397e-06
5.36763e-12
7.16887e-11
5.80401e-06
-8.31408e-12
-1.67262e-10
2.96157e-12
9.56081e-11
6.88671e-06
-1.16836e-12
7.4049e-11
6.88674e-06
2.92216e-13
-1.7391e-10
8.84397e-13
9.98803e-11
8.14817e-06
-5.79978e-12
7.79565e-11
8.14821e-06
6.32845e-12
-1.76652e-10
-5.22432e-13
9.87015e-11
9.61527e-06
-8.0812e-12
8.78505e-11
9.61531e-06
9.40057e-12
-1.79161e-10
-1.3098e-12
9.13e-11
1.1316e-05
-8.22963e-12
1.15626e-10
1.13161e-05
9.74428e-12
-1.8108e-10
-1.50064e-12
6.54395e-11
1.32791e-05
-6.57792e-12
1.54997e-10
1.32792e-05
7.60543e-12
-1.79927e-10
-1.01121e-12
2.49226e-11
1.55353e-05
-3.69694e-12
1.9256e-10
1.55354e-05
4.03814e-12
-1.68789e-10
-3.27164e-13
-2.37628e-11
1.81081e-05
-4.80646e-14
2.25229e-10
1.81082e-05
4.74835e-14
-1.50263e-10
7.71317e-15
-7.49442e-11
1.81081e-05
3.6315e-12
2.25443e-10
1.81082e-05
-3.94454e-12
-1.50051e-10
3.12419e-13
-7.53671e-11
1.55353e-05
6.50848e-12
1.92335e-10
1.55354e-05
-7.50004e-12
-1.68183e-10
9.86218e-13
-2.41373e-11
1.32791e-05
8.11198e-12
1.54763e-10
1.32791e-05
-9.62129e-12
-1.7945e-10
1.50217e-12
2.46929e-11
1.1316e-05
7.96904e-12
1.15529e-10
1.13161e-05
-9.25921e-12
-1.80538e-10
1.28396e-12
6.50073e-11
9.61526e-06
5.69703e-12
8.7681e-11
9.61531e-06
-6.19064e-12
-1.78672e-10
4.9038e-13
9.098e-11
8.14815e-06
1.03829e-12
7.76024e-11
8.14819e-06
-1.56442e-13
-1.76442e-10
-8.84045e-13
9.88379e-11
6.88668e-06
-5.5302e-12
7.38937e-11
6.88672e-06
8.51301e-12
-1.73456e-10
-2.98379e-12
9.95581e-11
5.8039e-06
-1.25486e-11
7.16154e-11
5.80394e-06
1.82187e-11
-1.67075e-10
-5.66915e-12
9.54536e-11
4.87461e-06
-1.81889e-11
6.70782e-11
4.87465e-06
2.63903e-11
-1.52151e-10
-8.19886e-12
8.50669e-11
4.07581e-06
-1.97131e-11
5.6579e-11
4.07584e-06
2.84255e-11
-1.24256e-10
-8.71095e-12
6.76808e-11
3.38691e-06
-1.58869e-11
4.19815e-11
3.38694e-06
2.16083e-11
-8.79489e-11
-5.72164e-12
4.59733e-11
2.78858e-06
-8.69503e-12
2.99711e-11
2.7886e-06
7.51404e-12
-5.37774e-11
1.1781e-12
2.38146e-11
2.25967e-06
-2.04011e-12
2.32401e-11
2.2597e-06
-4.01415e-12
-3.8412e-11
6.04893e-12
1.51802e-11
1.76077e-06
5.42338e-13
1.95546e-11
1.76078e-06
-3.99256e-12
-3.6263e-11
3.44703e-12
1.6701e-11
8.58814e-07
1.06591e-11
8.58816e-07
-1.97824e-11
9.11323e-12
1.08403e-06
-7.01755e-13
1.49862e-11
1.08403e-06
4.74472e-12
-2.80406e-11
-4.04069e-12
1.30518e-11
2.09542e-06
2.1365e-12
2.52255e-11
2.09542e-06
4.84933e-12
-4.66297e-11
-6.95858e-12
2.13118e-11
2.69598e-06
9.55143e-12
3.03454e-11
2.696e-06
-7.84628e-12
-4.96105e-11
-1.66335e-12
1.92053e-11
3.32791e-06
1.76431e-11
3.96278e-11
3.32794e-06
-2.35663e-11
-6.90923e-11
5.96614e-12
2.94623e-11
4.04087e-06
2.20586e-11
5.52065e-11
4.0409e-06
-3.14697e-11
-1.13382e-10
9.45241e-12
5.81806e-11
4.86092e-06
2.05691e-11
7.43576e-11
4.86095e-06
-2.94926e-11
-1.60607e-10
8.95913e-12
8.62693e-11
5.81129e-06
1.42269e-11
8.87338e-11
5.81133e-06
-2.04011e-11
-1.97729e-10
6.20323e-12
1.09018e-10
6.91656e-06
6.17985e-12
9.51503e-11
6.9166e-06
-9.45547e-12
-2.17704e-10
3.29374e-12
1.22599e-10
8.20408e-06
-1.37276e-12
9.86559e-11
8.20412e-06
4.12157e-13
-2.26815e-10
9.70436e-13
1.28187e-10
9.70382e-06
-6.73138e-12
1.03848e-10
9.70387e-06
7.33657e-12
-2.30909e-10
-5.97719e-13
1.2707e-10
1.14478e-05
-9.37349e-12
1.17337e-10
1.14478e-05
1.08677e-11
-2.35908e-10
-1.48281e-12
1.18557e-10
1.34692e-05
-9.54936e-12
1.53097e-10
1.34693e-05
1.12938e-11
-2.41825e-10
-1.72789e-12
8.87085e-11
1.58024e-05
-7.60721e-12
2.03852e-10
1.58025e-05
8.82831e-12
-2.4575e-10
-1.20187e-12
4.18871e-11
1.84839e-05
-4.23659e-12
2.51631e-10
1.8484e-05
4.65976e-12
-2.37795e-10
-4.06611e-13
-1.38258e-11
2.15427e-05
-5.44504e-14
2.9286e-10
2.15427e-05
5.40883e-14
-2.20156e-10
8.78902e-15
-7.26738e-11
2.15426e-05
4.16169e-12
2.93136e-10
2.15427e-05
-4.55159e-12
-2.19883e-10
3.89228e-13
-7.32195e-11
1.84839e-05
7.52656e-12
2.51325e-10
1.84839e-05
-8.70579e-12
-2.37018e-10
1.17298e-12
-1.42862e-11
1.58024e-05
9.41333e-12
2.03534e-10
1.58024e-05
-1.1152e-11
-2.45151e-10
1.73025e-12
4.16241e-11
1.34692e-05
9.24322e-12
1.52955e-10
1.34693e-05
-1.07046e-11
-2.41152e-10
1.45403e-12
8.81938e-11
1.14477e-05
6.6113e-12
1.17115e-10
1.14478e-05
-7.17744e-12
-2.35285e-10
5.62304e-13
1.18156e-10
9.7038e-06
1.22217e-12
1.03395e-10
9.70384e-06
-2.54304e-13
-2.3067e-10
-9.70439e-13
1.27272e-10
8.20404e-06
-6.36928e-12
9.84682e-11
8.20409e-06
9.68618e-12
-2.26246e-10
-3.31807e-12
1.27771e-10
6.91648e-06
-1.44739e-11
9.50587e-11
6.91651e-06
2.07925e-11
-2.17502e-10
-6.31753e-12
1.22435e-10
5.81114e-06
-2.09623e-11
8.88808e-11
5.81118e-06
3.00848e-11
-1.97923e-10
-9.11954e-12
1.09035e-10
4.86071e-06
-2.26756e-11
7.47706e-11
4.86075e-06
3.22828e-11
-1.61158e-10
-9.60559e-12
8.63926e-11
4.04065e-06
-1.82279e-11
5.51019e-11
4.04068e-06
2.43666e-11
-1.13295e-10
-6.13897e-12
5.8201e-11
3.32774e-06
-9.93562e-12
3.88972e-11
3.32777e-06
8.30858e-12
-6.8008e-11
1.62374e-12
2.91221e-11
2.69588e-06
-2.27617e-12
2.98202e-11
2.6959e-06
-4.67758e-12
-4.84147e-11
6.94765e-12
1.86055e-11
2.09535e-06
7.27401e-13
2.46773e-11
2.09536e-06
-4.743e-12
-4.56554e-11
4.01185e-12
2.09684e-11
1.084e-06
1.51689e-11
1.08401e-06
-2.79074e-11
1.27247e-11
1.33742e-06
-9.08957e-13
2.03828e-11
1.33742e-06
5.5539e-12
-3.78083e-11
-4.64072e-12
1.74186e-11
2.45928e-06
2.35899e-12
3.07625e-11
2.45929e-06
5.58347e-12
-5.6697e-11
-7.91071e-12
2.58146e-11
3.17183e-06
1.07736e-11
3.75225e-11
3.17185e-06
-8.52038e-12
-6.04479e-11
-2.20538e-12
2.28495e-11
3.91837e-06
1.99666e-11
4.95606e-11
3.9184e-06
-2.61755e-11
-8.46593e-11
6.25837e-12
3.50949e-11
4.75838e-06
2.5032e-11
6.97037e-11
4.75842e-06
-3.52421e-11
-1.40947e-10
1.02578e-11
7.12497e-11
5.72351e-06
2.33877e-11
9.44825e-11
5.72355e-06
-3.31655e-11
-2.00732e-10
9.81919e-12
1.06275e-10
6.84141e-06
1.61926e-11
1.13023e-10
6.84145e-06
-2.29727e-11
-2.47738e-10
6.81366e-12
1.34745e-10
8.14105e-06
7.02029e-12
1.21437e-10
8.14109e-06
-1.06055e-11
-2.73031e-10
3.60629e-12
1.51652e-10
9.6546e-06
-1.59985e-12
1.26284e-10
9.65465e-06
5.71437e-13
-2.85144e-10
1.03982e-12
1.58897e-10
1.14173e-05
-7.72481e-12
1.32985e-10
1.14173e-05
8.42174e-12
-2.91273e-10
-6.88191e-13
1.583e-10
1.34666e-05
-1.07486e-11
1.50989e-10
1.34667e-05
1.24329e-11
-3.0014e-10
-1.67096e-12
1.49132e-10
1.58419e-05
-1.09548e-11
1.95805e-10
1.5842e-05
1.2954e-11
-3.12224e-10
-1.97987e-12
1.16393e-10
1.85833e-05
-8.70913e-12
2.59135e-10
1.85833e-05
1.01566e-11
-3.24257e-10
-1.42508e-12
6.51085e-11
2.17337e-05
-4.81931e-12
3.18378e-10
2.17338e-05
5.3476e-12
-3.23008e-10
-5.09059e-13
4.64273e-12
2.53282e-05
-6.13743e-14
3.69255e-10
2.53283e-05
6.13324e-14
-3.09528e-10
9.81297e-15
-5.96872e-11
2.53282e-05
4.73409e-12
3.69603e-10
2.53283e-05
-5.22361e-12
-3.09188e-10
4.88705e-13
-6.03708e-11
2.17336e-05
8.61642e-12
3.17979e-10
2.17337e-05
-1.00158e-11
-3.22047e-10
1.392e-12
4.09528e-12
1.85832e-05
1.07992e-11
2.58718e-10
1.85833e-05
-1.27923e-11
-3.2353e-10
1.98322e-12
6.48218e-11
1.58419e-05
1.0599e-11
1.95608e-10
1.5842e-05
-1.22471e-11
-3.11415e-10
1.63952e-12
1.15803e-10
1.34666e-05
7.58631e-12
1.50712e-10
1.34667e-05
-8.24025e-12
-2.99368e-10
6.49366e-13
1.48637e-10
1.14172e-05
1.4272e-12
1.3242e-10
1.14173e-05
-3.90311e-13
-2.91012e-10
-1.03994e-12
1.58586e-10
9.65455e-06
-7.23838e-12
1.26063e-10
9.6546e-06
1.08697e-11
-2.84454e-10
-3.63274e-12
1.58383e-10
8.14094e-06
-1.64778e-11
1.21329e-10
8.14099e-06
2.34202e-11
-2.72826e-10
-6.94114e-12
1.51487e-10
6.84123e-06
-2.38413e-11
1.13244e-10
6.84127e-06
3.38423e-11
-2.48041e-10
-9.99774e-12
1.34788e-10
5.72327e-06
-2.57364e-11
9.50216e-11
5.72331e-06
3.61643e-11
-2.0149e-10
-1.04261e-11
1.06474e-10
4.75813e-06
-2.06329e-11
6.95796e-11
4.75816e-06
2.70787e-11
-1.4086e-10
-6.44614e-12
7.12907e-11
3.91816e-06
-1.12118e-11
4.86451e-11
3.9182e-06
9.04596e-12
-8.32965e-11
2.16206e-12
3.46662e-11
3.1717e-06
-2.52411e-12
3.68427e-11
3.17173e-06
-5.38227e-12
-5.89557e-11
7.89951e-12
2.21271e-11
2.4592e-06
9.28221e-13
3.00592e-11
2.45921e-06
-5.54318e-12
-5.54869e-11
4.6106e-12
2.54155e-11
1.33739e-06
2.06036e-11
1.33739e-06
-3.7607e-11
1.69852e-11
1.62752e-06
-1.12936e-12
2.68187e-11
1.62752e-06
6.4212e-12
-4.9322e-11
-5.28523e-12
2.24898e-11
2.86242e-06
2.60248e-12
3.6592e-11
2.86243e-06
6.36706e-12
-6.72599e-11
-8.93308e-12
3.05183e-11
3.69881e-06
1.20513e-11
4.51334e-11
3.69884e-06
-9.13216e-12
-7.17497e-11
-2.86504e-12
2.65227e-11
4.57421e-06
2.23828e-11
6.02935e-11
4.57424e-06
-2.87463e-11
-1.01171e-10
6.41957e-12
4.08717e-11
5.55686e-06
2.81368e-11
8.55505e-11
5.5569e-06
-3.90588e-11
-1.70575e-10
1.09762e-11
8.50337e-11
6.68455e-06
2.63433e-11
1.16673e-10
6.68459e-06
-3.69266e-11
-2.44126e-10
1.06303e-11
1.27486e-10
7.9899e-06
1.8258e-11
1.39902e-10
7.98995e-06
-2.5616e-11
-3.01937e-10
7.39591e-12
1.62075e-10
9.50688e-06
7.89717e-12
1.50638e-10
9.50693e-06
-1.17688e-11
-3.33095e-10
3.89548e-12
1.82528e-10
1.12731e-05
-1.85648e-12
1.56978e-10
1.12731e-05
7.82065e-13
-3.48739e-10
1.08738e-12
1.9181e-10
1.33296e-05
-8.79834e-12
1.65426e-10
1.33296e-05
9.60793e-12
-3.57691e-10
-7.99558e-13
1.92279e-10
1.57201e-05
-1.22309e-11
1.88836e-10
1.57202e-05
1.41267e-11
-3.72054e-10
-1.88051e-12
1.83194e-10
1.84906e-05
-1.24705e-11
2.43962e-10
1.84907e-05
1.47543e-11
-3.92854e-10
-2.26156e-12
1.48859e-10
2.16878e-05
-9.90263e-12
3.21296e-10
2.16879e-05
1.16118e-11
-4.16589e-10
-1.68343e-12
9.52764e-11
2.53618e-05
-5.45455e-12
3.93775e-10
2.53619e-05
6.11303e-12
-4.26219e-10
-6.3638e-13
3.24607e-11
2.95545e-05
-6.89444e-14
4.55805e-10
2.95546e-05
6.92819e-14
-4.20825e-10
1.08245e-14
-3.49306e-11
2.95544e-05
5.35798e-12
4.56239e-10
2.95546e-05
-5.97178e-12
-4.2041e-10
6.12744e-13
-3.5772e-11
2.53617e-05
9.79681e-12
3.93274e-10
2.53618e-05
-1.14513e-11
-4.25065e-10
1.64586e-12
3.18256e-11
2.16877e-05
1.22939e-11
3.20762e-10
2.16878e-05
-1.45715e-11
-4.15725e-10
2.26609e-12
9.49763e-11
1.84906e-05
1.20603e-11
2.437e-10
1.84906e-05
-1.3917e-11
-3.91905e-10
1.84673e-12
1.48199e-10
1.57201e-05
8.63999e-12
1.885e-10
1.57202e-05
-9.40276e-12
-3.71129e-10
7.57312e-13
1.82607e-10
1.33295e-05
1.65989e-12
1.64725e-10
1.33296e-05
-5.76056e-13
-3.57413e-10
-1.08749e-12
1.92681e-10
1.1273e-05
-8.14638e-12
1.56724e-10
1.12731e-05
1.20686e-11
-3.47926e-10
-3.92394e-12
1.91193e-10
9.50675e-06
-1.85853e-11
1.50517e-10
9.5068e-06
2.61232e-11
-3.32901e-10
-7.53662e-12
1.8237e-10
7.98969e-06
-2.68624e-11
1.40211e-10
7.98973e-06
3.76939e-11
-3.02378e-10
-1.08279e-11
1.62155e-10
6.68426e-06
-2.89348e-11
1.17353e-10
6.6843e-06
4.00962e-11
-2.45127e-10
-1.11596e-11
1.27782e-10
5.55656e-06
-2.31353e-11
8.54033e-11
5.5566e-06
2.97567e-11
-1.70499e-10
-6.62175e-12
8.51078e-11
4.57396e-06
-1.25471e-11
5.91732e-11
4.574e-06
9.72456e-12
-9.95146e-11
2.8184e-12
4.03599e-11
3.69866e-06
-2.79652e-12
4.42841e-11
3.69869e-06
-6.13324e-12
-6.99444e-11
8.92208e-12
2.56779e-11
2.86232e-06
1.13891e-12
3.57189e-11
2.86233e-06
-6.39923e-12
-6.58081e-11
5.25531e-12
3.00743e-11
1.62748e-06
2.70738e-11
1.62748e-06
-4.90343e-11
2.19374e-11
1.96182e-06
-1.34955e-12
3.4399e-11
1.96182e-06
7.33617e-12
-6.27059e-11
-5.97721e-12
2.8284e-11
3.31413e-06
2.88122e-12
4.27526e-11
3.31414e-06
7.19454e-12
-7.83856e-11
-1.00343e-11
3.54513e-11
4.28758e-06
1.34007e-11
5.31283e-11
4.28761e-06
-9.67187e-12
-8.34305e-11
-3.66833e-12
3.01897e-11
5.30838e-06
2.49082e-11
7.17715e-11
5.30842e-06
-3.12592e-11
-1.18424e-10
6.41403e-12
4.66445e-11
6.45224e-06
3.13896e-11
1.02707e-10
6.45229e-06
-4.29052e-11
-2.02043e-10
1.15763e-11
9.93475e-11
7.76337e-06
2.94511e-11
1.40918e-10
7.76341e-06
-4.07696e-11
-2.90595e-10
1.13708e-11
1.49719e-10
9.28001e-06
2.0433e-11
1.69442e-10
9.28005e-06
-2.83269e-11
-3.60124e-10
7.93591e-12
1.90732e-10
1.10418e-05
8.81168e-12
1.82771e-10
1.10418e-05
-1.29366e-11
-3.97653e-10
4.15147e-12
2.1497e-10
1.30923e-05
-2.1499e-12
1.90826e-10
1.30924e-05
1.0592e-12
-4.17329e-10
1.10515e-12
2.26563e-10
1.54794e-05
-9.96622e-12
2.01195e-10
1.54795e-05
1.09158e-11
-4.29955e-10
-9.38204e-13
2.28777e-10
1.82539e-05
-1.38385e-11
2.30845e-10
1.82539e-05
1.59733e-11
-4.51645e-10
-2.11734e-12
2.2077e-10
2.14689e-05
-1.41148e-11
2.97679e-10
2.1469e-05
1.67163e-11
-4.84068e-10
-2.57604e-12
1.86349e-10
2.51787e-05
-1.12024e-11
3.90741e-10
2.51788e-05
1.32091e-11
-5.23584e-10
-1.97738e-12
1.32823e-10
2.94415e-05
-6.15011e-12
4.78857e-10
2.94416e-05
6.96542e-12
-5.48913e-10
-7.90157e-13
7.00776e-11
3.43068e-05
-7.72557e-14
5.5403e-10
3.43069e-05
7.79863e-14
-5.56116e-10
1.18608e-14
2.14858e-12
3.43067e-05
6.04095e-12
5.54567e-10
3.43069e-05
-6.80538e-12
-5.5562e-10
7.62985e-13
1.12334e-12
2.94414e-05
1.10822e-11
4.78247e-10
2.94416e-05
-1.30274e-11
-5.47559e-10
1.93505e-12
6.93553e-11
2.51786e-05
1.39154e-11
3.90073e-10
2.51787e-05
-1.65109e-11
-5.22575e-10
2.58194e-12
1.32519e-10
2.14688e-05
1.3645e-11
2.97342e-10
2.14689e-05
-1.57383e-11
-4.82973e-10
2.08159e-12
1.85623e-10
1.82538e-05
9.78624e-12
2.30446e-10
1.82539e-05
-1.06854e-11
-4.50568e-10
8.92607e-13
2.20093e-10
1.54793e-05
1.92716e-12
2.00381e-10
1.54794e-05
-8.26372e-13
-4.29666e-10
-1.10521e-12
2.29276e-10
1.30922e-05
-9.09499e-12
1.90541e-10
1.30923e-05
1.32745e-11
-4.16393e-10
-4.18177e-12
2.25841e-10
1.10416e-05
-2.08067e-11
1.82641e-10
1.10417e-05
2.88979e-11
-3.97487e-10
-8.08991e-12
2.14829e-10
9.27975e-06
-3.00418e-11
1.69853e-10
9.27979e-06
4.16342e-11
-3.60735e-10
-1.15886e-11
1.90868e-10
7.76303e-06
-3.22885e-11
1.41755e-10
7.76308e-06
4.40651e-11
-2.91877e-10
-1.17746e-11
1.50132e-10
6.45189e-06
-2.57524e-11
1.02532e-10
6.45194e-06
3.23818e-11
-2.01987e-10
-6.62984e-12
9.94703e-11
5.30809e-06
-1.39588e-11
7.042e-11
5.30813e-06
1.03353e-11
-1.16462e-10
3.61889e-12
4.60649e-11
4.2874e-06
-3.10867e-12
5.20966e-11
4.28743e-06
-6.92429e-12
-8.1298e-11
1.00244e-11
2.92229e-11
3.31401e-06
1.34579e-12
4.16946e-11
3.31402e-06
-7.30106e-12
-7.66889e-11
5.94957e-12
3.49766e-11
1.96177e-06
3.46818e-11
1.96178e-06
-6.23135e-11
2.76028e-11
2.34729e-06
-1.54531e-12
4.32072e-11
2.34729e-06
8.2724e-12
-7.80133e-11
-6.71449e-12
3.47706e-11
3.82393e-06
3.21571e-12
4.93092e-11
3.82394e-06
8.04531e-12
-9.01577e-11
-1.12144e-11
4.06328e-11
4.94904e-06
1.48382e-11
6.14359e-11
4.94907e-06
-1.01296e-11
-9.54133e-11
-4.64164e-12
3.38446e-11
6.134e-06
2.75514e-11
8.38826e-11
6.13404e-06
-3.36753e-11
-1.3611e-10
6.19393e-12
5.22165e-11
7.46067e-06
3.47942e-11
1.21096e-10
7.46072e-06
-4.67374e-11
-2.34979e-10
1.20104e-11
1.13897e-10
8.97967e-06
3.27123e-11
1.67145e-10
8.97972e-06
-4.46599e-11
-3.39799e-10
1.20049e-11
1.72705e-10
1.07355e-05
2.27168e-11
2.01618e-10
1.07355e-05
-3.10812e-11
-4.21946e-10
8.41014e-12
2.20389e-10
1.27741e-05
9.75948e-12
2.17818e-10
1.27741e-05
-1.40892e-11
-4.66293e-10
4.35863e-12
2.4858e-10
1.51461e-05
-2.48854e-12
2.27798e-10
1.51462e-05
1.42177e-12
-4.90429e-10
1.08261e-12
2.62705e-10
1.79068e-05
-1.12408e-11
2.40285e-10
1.79069e-05
1.23647e-11
-5.07593e-10
-1.11132e-12
2.67329e-10
2.11149e-05
-1.55864e-11
2.76931e-10
2.1115e-05
1.79934e-11
-5.3859e-10
-2.38728e-12
2.61622e-10
2.48321e-05
-1.59026e-11
3.5682e-10
2.48322e-05
1.88595e-11
-5.85837e-10
-2.9281e-12
2.28967e-10
2.91209e-05
-1.26207e-11
4.67527e-10
2.9121e-05
1.49631e-11
-6.45516e-10
-2.30916e-12
1.77963e-10
3.40486e-05
-6.9128e-12
5.74238e-10
3.40487e-05
7.91287e-12
-6.92024e-10
-9.71656e-13
1.17812e-10
3.96732e-05
-8.64006e-14
6.64929e-10
3.96734e-05
8.74792e-14
-7.16758e-10
1.29618e-14
5.19061e-11
3.96732e-05
6.78967e-12
6.65597e-10
3.96734e-05
-7.73248e-12
-7.16173e-10
9.40781e-13
5.0663e-11
3.40485e-05
1.24847e-11
5.73514e-10
3.40486e-05
-1.47588e-11
-6.90466e-10
2.26205e-12
1.17005e-10
2.91208e-05
1.56784e-11
4.66707e-10
2.91209e-05
-1.863e-11
-6.44352e-10
2.93582e-12
1.77666e-10
2.4832e-05
1.53678e-11
3.56403e-10
2.48321e-05
-1.77316e-11
-5.84591e-10
2.35005e-12
2.28178e-10
2.11149e-05
1.10371e-11
2.76462e-10
2.11149e-05
-1.21075e-11
-5.3736e-10
1.06249e-12
2.60864e-10
1.79067e-05
2.23715e-12
2.39412e-10
1.79068e-05
-1.15988e-12
-5.07296e-10
-1.08265e-12
2.67872e-10
1.5146e-05
-1.00803e-11
2.27483e-10
1.51461e-05
1.4468e-11
-4.89375e-10
-4.39052e-12
2.61878e-10
1.27739e-05
-2.3142e-11
2.17685e-10
1.27739e-05
3.17205e-11
-4.66176e-10
-8.57736e-12
2.48469e-10
1.07352e-05
-3.33817e-11
2.02147e-10
1.07352e-05
4.56296e-11
-4.22766e-10
-1.22439e-11
2.20602e-10
8.97927e-06
-3.58022e-11
1.68156e-10
8.97932e-06
4.80277e-11
-3.41403e-10
-1.22234e-11
1.73259e-10
7.46026e-06
-2.8494e-11
1.20886e-10
7.46031e-06
3.49152e-11
-2.34955e-10
-6.42193e-12
1.14086e-10
6.13367e-06
-1.54637e-11
8.23076e-11
6.13371e-06
1.08685e-11
-1.33834e-10
4.59003e-12
5.15535e-11
4.94882e-06
-3.48251e-12
6.01815e-11
4.94885e-06
-7.73413e-12
-9.2943e-11
1.12073e-11
3.27872e-11
3.82379e-06
1.52501e-12
4.80496e-11
3.8238e-06
-8.22321e-12
-8.82132e-11
6.69179e-12
4.0143e-11
2.34723e-06
4.35088e-11
2.34724e-06
-7.75003e-11
3.39561e-11
2.79079e-06
-1.67885e-12
5.32909e-11
2.7908e-06
9.19039e-12
-9.51864e-11
-7.49537e-12
4.18438e-11
4.40244e-06
3.63502e-12
5.63707e-11
4.40245e-06
8.8749e-12
-1.03097e-10
-1.24579e-11
4.6475e-11
5.69504e-06
1.6384e-11
6.99877e-11
5.69508e-06
-1.05022e-11
-1.07638e-10
-5.80836e-12
3.74961e-11
7.0651e-06
3.03184e-11
9.64695e-11
7.06515e-06
-3.5942e-11