/*--------------------------------*- C++ -*----------------------------------*\
  =========                 |
  \\      /  F ield         | OpenFOAM: The Open Source CFD Toolbox
   \\    /   O peration     | Website:  https://openfoam.org
    \\  /    A nd           | Version:  6
     \\/     M anipulation  |
\*---------------------------------------------------------------------------*/
FoamFile
{
    version     2.0;
    format      ascii;
    class       volVectorField;
    location    "80";
    object      U;
}
// * * * * * * * * * * * * * * * * * * * * * * * * * * * * * * * * * * * * * //

dimensions      [0 1 -1 0 0 0 0];

internalField   nonuniform List<vector> 
2880
(
(0.0159749 -4.15257e-11 1.02879e-11)
(0.0159749 2.97964e-10 -2.26924e-11)
(0.015975 -2.62022e-10 1.17365e-11)
(0.0391855 1.31193e-10 5.12247e-11)
(0.0391858 3.04771e-09 -9.73954e-11)
(0.0391866 -3.17679e-09 4.62743e-11)
(0.045524 2.5143e-09 6.90717e-11)
(0.0455249 -1.54795e-10 -1.39267e-10)
(0.045526 -2.34639e-09 7.0049e-11)
(0.0509384 6.39859e-09 8.24507e-11)
(0.0509397 -9.11265e-09 -1.97713e-10)
(0.0509408 2.72906e-09 1.15218e-10)
(0.0556114 9.52712e-09 8.5716e-11)
(0.0556127 -1.48304e-08 -2.22396e-10)
(0.0556138 5.32129e-09 1.36564e-10)
(0.0597301 1.04006e-08 8.74605e-11)
(0.0597314 -1.63252e-08 -2.48127e-10)
(0.0597323 5.94385e-09 1.60527e-10)
(0.0634165 8.27362e-09 8.44343e-11)
(0.0634179 -1.27605e-08 -2.5754e-10)
(0.0634186 4.50635e-09 1.73059e-10)
(0.0667529 4.73408e-09 7.86413e-11)
(0.0667543 -7.48529e-09 -2.55465e-10)
(0.0667549 2.76523e-09 1.77012e-10)
(0.0697959 8.5284e-10 7.47719e-11)
(0.0697972 -1.99285e-09 -2.40614e-10)
(0.0697977 1.14617e-09 1.65874e-10)
(0.0725694 -2.40749e-09 7.51701e-11)
(0.0725705 2.43728e-09 -2.22051e-10)
(0.0725711 -2.63409e-11 1.46908e-10)
(0.0750609 -4.30304e-09 8.19377e-11)
(0.0750618 5.08779e-09 -1.97311e-10)
(0.0750624 -7.81118e-10 1.15411e-10)
(0.0772277 -4.9971e-09 1.07665e-10)
(0.0772282 6.12093e-09 -1.6789e-10)
(0.0772291 -1.11727e-09 6.02221e-11)
(0.0789599 -4.45117e-09 1.23357e-10)
(0.07896 5.40667e-09 -1.21421e-10)
(0.078961 -9.47502e-10 -1.93635e-12)
(0.0801747 -3.18902e-09 1.42453e-10)
(0.0801744 3.60333e-09 -8.25746e-11)
(0.0801756 -4.05382e-10 -5.9823e-11)
(0.080867 -1.12273e-09 1.50289e-10)
(0.0808664 1.19667e-09 -4.73438e-11)
(0.0808676 -6.839e-11 -1.02876e-10)
(0.0808669 1.06416e-09 1.50415e-10)
(0.0808663 -1.13581e-09 -4.72076e-11)
(0.0808675 7.38017e-11 -1.03137e-10)
(0.0801745 3.16798e-09 1.42345e-10)
(0.0801742 -3.54801e-09 -8.21019e-11)
(0.0801753 3.7816e-10 -6.01939e-11)
(0.0789597 4.39613e-09 1.2319e-10)
(0.0789598 -5.33469e-09 -1.2093e-10)
(0.0789608 9.3569e-10 -2.25951e-12)
(0.0772276 4.91722e-09 1.07662e-10)
(0.0772281 -6.0404e-09 -1.67109e-10)
(0.077229 1.11917e-09 5.94475e-11)
(0.0750611 4.25584e-09 8.17812e-11)
(0.075062 -4.99545e-09 -1.96742e-10)
(0.0750626 7.37717e-10 1.14937e-10)
(0.0725694 2.33882e-09 7.48224e-11)
(0.0725705 -2.36304e-09 -2.21452e-10)
(0.0725711 2.32875e-11 1.46644e-10)
(0.0697957 -9.24633e-10 7.39633e-11)
(0.069797 2.08177e-09 -2.39852e-10)
(0.0697975 -1.1578e-09 1.65876e-10)
(0.0667517 -4.83208e-09 7.87282e-11)
(0.0667531 7.62458e-09 -2.54333e-10)
(0.0667537 -2.79249e-09 1.756e-10)
(0.0634137 -8.37445e-09 8.3828e-11)
(0.0634151 1.29833e-08 -2.56531e-10)
(0.0634158 -4.60738e-09 1.72696e-10)
(0.0597255 -1.06243e-08 8.75104e-11)
(0.0597269 1.66362e-08 -2.47918e-10)
(0.0597277 -6.01018e-09 1.6042e-10)
(0.055606 -9.82962e-09 8.53347e-11)
(0.0556073 1.52553e-08 -2.21867e-10)
(0.0556083 -5.42562e-09 1.36562e-10)
(0.0509337 -6.60677e-09 8.22649e-11)
(0.0509349 9.41923e-09 -1.97035e-10)
(0.050936 -2.81281e-09 1.14778e-10)
(0.0455211 -2.63022e-09 6.92461e-11)
(0.0455221 2.53891e-10 -1.38472e-10)
(0.0455231 2.37378e-09 6.92444e-11)
(0.0391839 -1.19592e-10 5.1181e-11)
(0.0391842 -3.03213e-09 -9.65513e-11)
(0.039185 3.14912e-09 4.53645e-11)
(0.0159744 7.21718e-11 1.17188e-11)
(0.0159744 -3.3485e-10 -2.32537e-11)
(0.0159746 2.62168e-10 1.15315e-11)
(0.0443238 -2.14639e-10 1.02506e-10)
(0.0443237 9.19525e-10 -2.08548e-10)
(0.0443241 -7.18807e-10 1.05983e-10)
(0.104172 -4.97369e-11 3.37781e-10)
(0.104173 7.47577e-09 -6.35795e-10)
(0.104174 -7.41706e-09 2.9753e-10)
(0.116488 5.55277e-09 3.51187e-10)
(0.11649 1.24201e-10 -6.45094e-10)
(0.116491 -5.6411e-09 2.93474e-10)
(0.125981 1.43899e-08 3.90019e-10)
(0.125982 -1.9636e-08 -8.14364e-10)
(0.125984 5.28283e-09 4.24429e-10)
(0.13372 2.10709e-08 4.33196e-10)
(0.133721 -3.16932e-08 -1.01163e-09)
(0.133723 1.06615e-08 5.78481e-10)
(0.140272 2.25938e-08 4.74024e-10)
(0.140274 -3.43784e-08 -1.17378e-09)
(0.140276 1.18185e-08 6.99819e-10)
(0.145962 1.76778e-08 4.75416e-10)
(0.145964 -2.64545e-08 -1.22205e-09)
(0.145965 8.80452e-09 7.46657e-10)
(0.150989 9.95841e-09 4.36851e-10)
(0.150991 -1.52658e-08 -1.17029e-09)
(0.150992 5.3284e-09 7.33595e-10)
(0.155485 1.78715e-09 3.92299e-10)
(0.155486 -3.95936e-09 -1.06075e-09)
(0.155487 2.18304e-09 6.68423e-10)
(0.159514 -4.88988e-09 3.66185e-10)
(0.159515 4.93923e-09 -9.4216e-10)
(0.159516 -4.36326e-11 5.75926e-10)
(0.163082 -8.69651e-09 3.68798e-10)
(0.163083 1.01312e-08 -8.17773e-10)
(0.163084 -1.42788e-09 4.48875e-10)
(0.166148 -1.00157e-08 4.4568e-10)
(0.166149 1.20846e-08 -6.90648e-10)
(0.16615 -2.05525e-09 2.44874e-10)
(0.168625 -8.86667e-09 5.22317e-10)
(0.168625 1.05916e-08 -5.38838e-10)
(0.168627 -1.70854e-09 1.64837e-11)
(0.170447 -6.32923e-09 5.83329e-10)
(0.170446 7.02737e-09 -3.89746e-10)
(0.170448 -6.7988e-10 -1.93516e-10)
(0.17148 -2.22121e-09 6.03162e-10)
(0.171479 2.3274e-09 -2.51226e-10)
(0.17148 -9.50301e-11 -3.51823e-10)
(0.171479 2.10571e-09 6.03711e-10)
(0.171479 -2.2128e-09 -2.5065e-10)
(0.17148 1.10805e-10 -3.52937e-10)
(0.170446 6.28384e-09 5.82791e-10)
(0.170446 -6.9201e-09 -3.87819e-10)
(0.170448 6.31403e-10 -1.9489e-10)
(0.168625 8.75615e-09 5.21579e-10)
(0.168625 -1.04555e-08 -5.36923e-10)
(0.168626 1.69238e-09 1.53457e-11)
(0.166148 9.85668e-09 4.45445e-10)
(0.166148 -1.19312e-08 -6.87979e-10)
(0.16615 2.06558e-09 2.42492e-10)
(0.163082 8.59573e-09 3.68061e-10)
(0.163084 -9.95212e-09 -8.15118e-10)
(0.163085 1.35151e-09 4.46974e-10)
(0.159514 4.75615e-09 3.63989e-10)
(0.159515 -4.79644e-09 -9.40432e-10)
(0.159516 3.73567e-11 5.76408e-10)
(0.155484 -1.9386e-09 3.90895e-10)
(0.155486 4.13151e-09 -1.05736e-09)
(0.155487 -2.19475e-09 6.6639e-10)
(0.150987 -1.01778e-08 4.3636e-10)
(0.150989 1.55397e-08 -1.16768e-09)
(0.15099 -5.36257e-09 7.31241e-10)
(0.145958 -1.79106e-08 4.74467e-10)
(0.14596 2.69317e-08 -1.22103e-09)
(0.145961 -9.01867e-09 7.46467e-10)
(0.140265 -2.30901e-08 4.75661e-10)
(0.140267 3.50549e-08 -1.17541e-09)
(0.140268 -1.19619e-08 6.99734e-10)
(0.133711 -2.17464e-08 4.31576e-10)
(0.133713 3.26259e-08 -1.01023e-09)
(0.133714 -1.08794e-08 5.78692e-10)
(0.125972 -1.48698e-08 3.84948e-10)
(0.125974 2.03322e-08 -8.06396e-10)
(0.125976 -5.46299e-09 4.215e-10)
(0.116483 -5.81842e-09 3.47663e-10)
(0.116484 1.14023e-10 -6.34784e-10)
(0.116486 5.69851e-09 2.87205e-10)
(0.104169 6.33838e-11 3.33553e-10)
(0.104169 -7.41899e-09 -6.25929e-10)
(0.104171 7.34957e-09 2.92259e-10)
(0.0443226 2.84994e-10 1.0512e-10)
(0.0443225 -1.004e-09 -2.08765e-10)
(0.0443229 7.17918e-10 1.03492e-10)
(0.0671183 -4.33041e-10 2.85807e-10)
(0.0671182 1.50151e-09 -5.61586e-10)
(0.0671188 -1.08571e-09 2.75431e-10)
(0.141328 -3.27522e-10 7.3562e-10)
(0.141328 9.62933e-09 -1.37114e-09)
(0.14133 -9.2875e-09 6.33847e-10)
(0.156213 6.82212e-09 7.398e-10)
(0.156215 5.14054e-10 -1.31037e-09)
(0.156217 -7.28826e-09 5.69236e-10)
(0.166844 1.79617e-08 8.09907e-10)
(0.166846 -2.38485e-08 -1.59069e-09)
(0.166848 5.9349e-09 7.80702e-10)
(0.175343 2.62388e-08 9.17844e-10)
(0.175345 -3.86745e-08 -2.05214e-09)
(0.175347 1.24859e-08 1.13417e-09)
(0.182474 2.80225e-08 1.0224e-09)
(0.182476 -4.18972e-08 -2.41034e-09)
(0.182478 1.39167e-08 1.3879e-09)
(0.188633 2.18372e-08 1.0322e-09)
(0.188635 -3.21427e-08 -2.51392e-09)
(0.188636 1.03391e-08 1.48179e-09)
(0.194054 1.22465e-08 9.45188e-10)
(0.194055 -1.84569e-08 -2.3839e-09)
(0.194056 6.23598e-09 1.4393e-09)
(0.198888 2.18543e-09 8.39137e-10)
(0.19889 -4.71953e-09 -2.13736e-09)
(0.19889 2.54763e-09 1.29838e-09)
(0.203212 -5.97801e-09 7.68769e-10)
(0.203213 6.02397e-09 -1.87628e-09)
(0.203214 -3.88167e-11 1.10754e-09)
(0.207033 -1.06095e-08 7.55828e-10)
(0.207035 1.22548e-08 -1.6217e-09)
(0.207036 -1.63663e-09 8.65807e-10)
(0.210311 -1.21912e-08 8.88844e-10)
(0.210312 1.45835e-08 -1.37314e-09)
(0.210313 -2.37515e-09 4.84182e-10)
(0.21297 -1.07875e-08 1.03633e-09)
(0.21297 1.28007e-08 -1.10222e-09)
(0.212972 -1.99271e-09 6.58437e-11)
(0.214951 -7.63015e-09 1.1383e-09)
(0.214951 8.4236e-09 -8.23538e-10)
(0.214952 -7.70477e-10 -3.147e-10)
(0.216072 -2.67919e-09 1.16505e-09)
(0.216072 2.7886e-09 -5.61348e-10)
(0.216074 -9.53799e-11 -6.03579e-10)
(0.216072 2.54064e-09 1.16614e-09)
(0.216072 -2.65216e-09 -5.60244e-10)
(0.216073 1.16174e-10 -6.05757e-10)
(0.21495 7.5736e-09 1.13716e-09)
(0.21495 -8.29306e-09 -8.19833e-10)
(0.214952 7.13347e-10 -3.17237e-10)
(0.21297 1.06531e-08 1.03486e-09)
(0.21297 -1.26373e-08 -1.09865e-09)
(0.212972 1.97551e-09 6.38092e-11)
(0.210311 1.19987e-08 8.88328e-10)
(0.210311 -1.44e-08 -1.3682e-09)
(0.210313 2.39023e-09 4.79831e-10)
(0.207034 1.04841e-08 7.54348e-10)
(0.207035 -1.20378e-08 -1.61684e-09)
(0.207036 1.5476e-09 8.62346e-10)
(0.203211 5.81533e-09 7.64921e-10)
(0.203213 -5.8518e-09 -1.87316e-09)
(0.203214 3.2815e-11 1.1082e-09)
(0.198887 -2.37238e-09 8.36288e-10)
(0.198889 4.92909e-09 -2.13126e-09)
(0.19889 -2.55899e-09 1.29486e-09)
(0.194051 -1.25194e-08 9.44289e-10)
(0.194053 1.87906e-08 -2.37938e-09)
(0.194054 -6.27204e-09 1.43496e-09)
(0.188628 -2.21342e-08 1.03182e-09)
(0.18863 3.27337e-08 -2.5131e-09)
(0.188631 -1.05965e-08 1.48113e-09)
(0.182466 -2.86435e-08 1.02684e-09)
(0.182468 4.27347e-08 -2.41497e-09)
(0.18247 -1.40877e-08 1.38813e-09)
(0.175333 -2.70824e-08 9.15378e-10)
(0.175335 3.98262e-08 -2.04948e-09)
(0.175337 -1.27436e-08 1.1342e-09)
(0.166835 -1.85682e-08 7.97329e-10)
(0.166837 2.47168e-08 -1.57175e-09)
(0.166839 -6.14929e-09 7.74565e-10)
(0.156207 -7.15749e-09 7.30719e-10)
(0.156208 -2.06933e-10 -1.28543e-09)
(0.156211 7.35708e-09 5.5491e-10)
(0.141324 3.31596e-10 7.24016e-10)
(0.141324 -9.54269e-09 -1.34716e-09)
(0.141326 9.20345e-09 6.22903e-10)
(0.0671166 5.24687e-10 2.91593e-10)
(0.0671165 -1.60933e-09 -5.60626e-10)
(0.0671171 1.08317e-09 2.68717e-10)
(0.0852695 -6.65849e-10 5.52536e-10)
(0.0852694 2.0351e-09 -1.06588e-09)
(0.0852701 -1.38668e-09 5.13188e-10)
(0.162463 -5.53215e-10 1.13756e-09)
(0.162463 1.06431e-08 -2.11616e-09)
(0.162465 -1.00719e-08 9.75423e-10)
(0.179409 7.3507e-09 1.1385e-09)
(0.17941 8.52312e-10 -1.96181e-09)
(0.179413 -8.14895e-09 8.21152e-10)
(0.19099 1.96191e-08 1.25093e-09)
(0.190992 -2.54691e-08 -2.35369e-09)
(0.190994 5.90446e-09 1.10265e-09)
(0.200148 2.87333e-08 1.45083e-09)
(0.20015 -4.16886e-08 -3.14775e-09)
(0.200152 1.30119e-08 1.69686e-09)
(0.207797 3.07049e-08 1.64605e-09)
(0.207799 -4.53023e-08 -3.75776e-09)
(0.2078 1.46455e-08 2.11189e-09)
(0.214384 2.3927e-08 1.67691e-09)
(0.214386 -3.47844e-08 -3.94674e-09)
(0.214387 1.08964e-08 2.27009e-09)
(0.220172 1.34023e-08 1.54038e-09)
(0.220174 -1.99397e-08 -3.73975e-09)
(0.220175 6.56698e-09 2.20021e-09)
(0.225325 2.37583e-09 1.36613e-09)
(0.225327 -5.03708e-09 -3.34743e-09)
(0.225328 2.67679e-09 1.98162e-09)
(0.229928 -6.55933e-09 1.24341e-09)
(0.229929 6.60407e-09 -2.9295e-09)
(0.22993 -3.63796e-11 1.68617e-09)
(0.233991 -1.16267e-08 1.21106e-09)
(0.233992 1.33489e-08 -2.53937e-09)
(0.233993 -1.71219e-09 1.32819e-09)
(0.23747 -1.33505e-08 1.39943e-09)
(0.237471 1.5873e-08 -2.17072e-09)
(0.237472 -2.50318e-09 7.71115e-10)
(0.240288 -1.18249e-08 1.63044e-09)
(0.240288 1.39971e-08 -1.79239e-09)
(0.24029 -2.14911e-09 1.61869e-10)
(0.242383 -8.2545e-09 1.77158e-09)
(0.242383 9.11142e-09 -1.38282e-09)
(0.242385 -8.31103e-10 -3.8871e-10)
(0.243568 -2.90336e-09 1.80058e-09)
(0.243568 3.01696e-09 -9.90506e-10)
(0.24357 -9.77574e-11 -8.09931e-10)
(0.243568 2.75404e-09 1.80229e-09)
(0.243568 -2.86967e-09 -9.88803e-10)
(0.243569 1.2103e-10 -8.13319e-10)
(0.242383 8.19215e-09 1.76968e-09)
(0.242382 -8.96775e-09 -1.37712e-09)
(0.242384 7.68998e-10 -3.92459e-10)
(0.240287 1.16779e-08 1.62807e-09)
(0.240288 -1.38187e-08 -1.78701e-09)
(0.240289 2.13133e-09 1.5898e-10)
(0.237469 1.31408e-08 1.39847e-09)
(0.23747 -1.56741e-08 -2.16347e-09)
(0.237471 2.52109e-09 7.64965e-10)
(0.23399 1.14877e-08 1.20869e-09)
(0.233992 -1.31114e-08 -2.53202e-09)
(0.233993 1.61706e-09 1.32315e-09)
(0.229927 6.38053e-09 1.23747e-09)
(0.229929 -6.4161e-09 -2.92524e-09)
(0.22993 3.16402e-11 1.68774e-09)
(0.225324 -2.58157e-09 1.36242e-09)
(0.225326 5.26782e-09 -3.33825e-09)
(0.225327 -2.68872e-09 1.97571e-09)
(0.220169 -1.3702e-08 1.53882e-09)
(0.220171 2.03062e-08 -3.73405e-09)
(0.220172 -6.60506e-09 2.19506e-09)
(0.214379 -2.42597e-08 1.67772e-09)
(0.214381 3.54339e-08 -3.94743e-09)
(0.214382 -1.11708e-08 2.26954e-09)
(0.207788 -3.13901e-08 1.65409e-09)
(0.20779 4.62194e-08 -3.76685e-09)
(0.207791 -1.48253e-08 2.11281e-09)
(0.200137 -2.96589e-08 1.4474e-09)
(0.200139 4.29408e-08 -3.14418e-09)
(0.200141 -1.32817e-08 1.69695e-09)
(0.19098 -2.02877e-08 1.2294e-09)
(0.190982 2.64153e-08 -2.32186e-09)
(0.190984 -6.1284e-09 1.09272e-09)
(0.179402 -7.71988e-09 1.1222e-09)
(0.179404 -5.09318e-10 -1.92009e-09)
(0.179406 8.22124e-09 7.98229e-10)
(0.162458 5.45362e-10 1.11718e-09)
(0.162459 -1.05368e-08 -2.07639e-09)
(0.16246 9.98298e-09 9.58826e-10)
(0.0852675 7.65564e-10 5.61746e-10)
(0.0852674 -2.14992e-09 -1.06278e-09)
(0.0852681 1.38259e-09 5.00464e-10)
(0.0999538 -8.93088e-10 8.93101e-10)
(0.0999537 2.52072e-09 -1.69895e-09)
(0.0999544 -1.64357e-09 8.0562e-10)
(0.176644 -7.33592e-10 1.56532e-09)
(0.176644 1.11815e-08 -2.90559e-09)
(0.176646 -1.04273e-08 1.33525e-09)
(0.195406 7.58674e-09 1.58337e-09)
(0.195408 1.15507e-09 -2.6632e-09)
(0.19541 -8.68428e-09 1.07677e-09)
(0.207862 2.04605e-08 1.75423e-09)
(0.207863 -2.59935e-08 -3.18521e-09)
(0.207866 5.59139e-09 1.43087e-09)
(0.217615 3.00715e-08 2.06934e-09)
(0.217617 -4.30078e-08 -4.37829e-09)
(0.217619 1.29971e-08 2.30901e-09)
(0.22573 3.21904e-08 2.37495e-09)
(0.225731 -4.69398e-08 -5.28698e-09)
(0.225733 1.48018e-08 2.91248e-09)
(0.232703 2.5111e-08 2.43236e-09)
(0.232704 -3.61103e-08 -5.5824e-09)
(0.232706 1.10426e-08 3.15055e-09)
(0.238819 1.40591e-08 2.24077e-09)
(0.238821 -2.06785e-08 -5.29191e-09)
(0.238822 6.65205e-09 3.05231e-09)
(0.244258 2.47161e-09 1.99284e-09)
(0.24426 -5.15477e-09 -4.73961e-09)
(0.244261 2.70016e-09 2.74731e-09)
(0.24911 -6.91948e-09 1.8092e-09)
(0.249112 6.97407e-09 -4.14738e-09)
(0.249113 -4.53022e-11 2.33833e-09)
(0.253388 -1.22508e-08 1.75666e-09)
(0.253389 1.40032e-08 -3.61273e-09)
(0.253391 -1.74144e-09 1.85589e-09)
(0.257047 -1.40614e-08 2.00362e-09)
(0.257048 1.66428e-08 -3.12516e-09)
(0.25705 -2.56047e-09 1.12131e-09)
(0.260005 -1.24711e-08 2.32254e-09)
(0.260006 1.47639e-08 -2.64389e-09)
(0.260007 -2.26786e-09 3.2124e-10)
(0.262197 -8.55387e-09 2.49489e-09)
(0.262197 9.48341e-09 -2.10007e-09)
(0.262199 -9.0171e-10 -3.94732e-10)
(0.263435 -3.01578e-09 2.52687e-09)
(0.263435 3.14156e-09 -1.57953e-09)
(0.263437 -1.08718e-10 -9.47131e-10)
(0.263435 2.86144e-09 2.52927e-09)
(0.263435 -2.98871e-09 -1.57716e-09)
(0.263437 1.33223e-10 -9.51876e-10)
(0.262196 8.48844e-09 2.49205e-09)
(0.262196 -9.33149e-09 -2.09214e-09)
(0.262198 8.36088e-10 -3.99742e-10)
(0.260005 1.23163e-08 2.31908e-09)
(0.260005 -1.45762e-08 -2.63657e-09)
(0.260007 2.2498e-09 3.17565e-10)
(0.257047 1.38416e-08 2.00204e-09)
(0.257047 -1.64351e-08 -3.11545e-09)
(0.257049 2.58049e-09 1.11337e-09)
(0.253388 1.21029e-08 1.75325e-09)
(0.253389 -1.37535e-08 -3.60274e-09)
(0.25339 1.64355e-09 1.84925e-09)
(0.249109 6.73057e-09 1.80094e-09)
(0.249111 -6.77656e-09 -4.14208e-09)
(0.249112 4.18614e-11 2.34109e-09)
(0.244257 -2.689e-09 1.98821e-09)
(0.244259 5.39895e-09 -4.72711e-09)
(0.24426 -2.71259e-09 2.73877e-09)
(0.238816 -1.43746e-08 2.23851e-09)
(0.238818 2.10651e-08 -5.28527e-09)
(0.238819 -6.69129e-09 3.04658e-09)
(0.232697 -2.54671e-08 2.43496e-09)
(0.232698 3.67942e-08 -5.58542e-09)
(0.2327 -1.13234e-08 3.15026e-09)
(0.22572 -3.29142e-08 2.38741e-09)
(0.225722 4.79023e-08 -5.30206e-09)
(0.225724 -1.49838e-08 2.91479e-09)
(0.217604 -3.10424e-08 2.06493e-09)
(0.217606 4.43107e-08 -4.37395e-09)
(0.217608 -1.3268e-08 2.3093e-09)
(0.207851 -2.11637e-08 1.7226e-09)
(0.207853 2.6978e-08 -3.13849e-09)
(0.207855 -5.81514e-09 1.41634e-09)
(0.195399 -7.97498e-09 1.5584e-09)
(0.1954 -7.89769e-10 -2.60264e-09)
(0.195402 8.75652e-09 1.04477e-09)
(0.176639 7.13081e-10 1.53449e-09)
(0.176639 -1.10606e-08 -2.84798e-09)
(0.17664 1.03387e-08 1.31293e-09)
(0.0999515 9.9218e-10 9.06289e-10)
(0.0999514 -2.63266e-09 -1.69263e-09)
(0.0999521 1.63846e-09 7.85463e-10)
(0.11239 -1.10623e-09 1.31101e-09)
(0.11239 2.96866e-09 -2.4668e-09)
(0.112391 -1.87593e-09 1.15541e-09)
(0.187262 -8.76676e-10 2.0222e-09)
(0.187263 1.14719e-08 -3.74344e-09)
(0.187264 -1.05726e-08 1.71411e-09)
(0.207678 7.68063e-09 2.07851e-09)
(0.207679 1.43815e-09 -3.42809e-09)
(0.207681 -9.05924e-09 1.34549e-09)
(0.220972 2.08661e-08 2.32609e-09)
(0.220974 -2.59184e-08 -4.10591e-09)
(0.220976 5.11332e-09 1.77968e-09)
(0.231278 3.07822e-08 2.77837e-09)
(0.23128 -4.33998e-08 -5.75961e-09)
(0.231282 1.26812e-08 2.98142e-09)
(0.239812 3.30218e-08 3.21554e-09)
(0.239814 -4.76103e-08 -7.0108e-09)
(0.239816 1.46438e-08 3.79601e-09)
(0.247127 2.57981e-08 3.30388e-09)
(0.247128 -3.67143e-08 -7.42918e-09)
(0.24713 1.09624e-08 4.1261e-09)
(0.253531 1.44397e-08 3.05035e-09)
(0.253533 -2.10047e-08 -7.04745e-09)
(0.253534 6.59975e-09 3.99863e-09)
(0.259217 2.51223e-09 2.72104e-09)
(0.259219 -5.15467e-09 -6.3217e-09)
(0.25922 2.66038e-09 3.60143e-09)
(0.264284 -7.16074e-09 2.46855e-09)
(0.264285 7.23876e-09 -5.5396e-09)
(0.264287 -6.80846e-11 3.07127e-09)
(0.268746 -1.26613e-08 2.40012e-09)
(0.268747 1.44256e-08 -4.85851e-09)
(0.268748 -1.75264e-09 2.45813e-09)
(0.272558 -1.45273e-08 2.70994e-09)
(0.272559 1.71364e-08 -4.26035e-09)
(0.27256 -2.5871e-09 1.55007e-09)
(0.275634 -1.29027e-08 3.12018e-09)
(0.275634 1.5302e-08 -3.68813e-09)
(0.275636 -2.37295e-09 5.67798e-10)
(0.277905 -8.74924e-09 3.32852e-09)
(0.277906 9.76686e-09 -3.02631e-09)
(0.277907 -9.88409e-10 -3.02075e-10)
(0.279188 -3.05932e-09 3.34498e-09)
(0.279188 3.20737e-09 -2.36524e-09)
(0.27919 -1.30102e-10 -9.79431e-10)
(0.279187 2.90344e-09 3.34815e-09)
(0.279188 -3.05216e-09 -2.36211e-09)
(0.279189 1.55019e-10 -9.8569e-10)
(0.277905 8.68132e-09 3.32454e-09)
(0.277905 -9.60875e-09 -3.01591e-09)
(0.277907 9.20202e-10 -3.08366e-10)
(0.275633 1.2743e-08 3.1154e-09)
(0.275634 -1.51084e-08 -3.67875e-09)
(0.275635 2.35482e-09 5.63465e-10)
(0.272557 1.43011e-08 2.70756e-09)
(0.272558 -1.69237e-08 -4.24804e-09)
(0.27256 2.6089e-09 1.54043e-09)
(0.268746 1.25071e-08 2.39554e-09)
(0.268747 -1.41687e-08 -4.84542e-09)
(0.268748 1.65412e-09 2.44959e-09)
(0.264283 6.96517e-09 2.45771e-09)
(0.264285 -7.03527e-09 -5.53342e-09)
(0.264286 6.57612e-11 3.07564e-09)
(0.259216 -2.73752e-09 2.71547e-09)
(0.259218 5.40776e-09 -6.30559e-09)
(0.259219 -2.67304e-09 3.58997e-09)
(0.253528 -1.47658e-08 3.04736e-09)
(0.253529 2.1404e-08 -7.04014e-09)
(0.25353 -6.63908e-09 3.99253e-09)
(0.24712 -2.61714e-08 3.30879e-09)
(0.247122 3.74196e-08 -7.43538e-09)
(0.247123 -1.12445e-08 4.12633e-09)
(0.239802 -3.37711e-08 3.23313e-09)
(0.239804 4.86006e-08 -7.03348e-09)
(0.239806 -1.48252e-08 3.80056e-09)
(0.231266 -3.1779e-08 2.77296e-09)
(0.231267 4.47274e-08 -5.75473e-09)
(0.231269 -1.2948e-08 2.98216e-09)
(0.220961 -2.15894e-08 2.28344e-09)
(0.220962 2.69207e-08 -4.04257e-09)
(0.220965 -5.33205e-09 1.75978e-09)
(0.207669 -8.08045e-09 2.04346e-09)
(0.207671 -1.05726e-09 -3.34664e-09)
(0.207673 9.12937e-09 1.30393e-09)
(0.187257 8.42895e-10 1.97951e-09)
(0.187257 -1.13391e-08 -3.66628e-09)
(0.187258 1.04872e-08 1.68601e-09)
(0.112388 1.19922e-09 1.32826e-09)
(0.112388 -3.07205e-09 -2.45591e-09)
(0.112388 1.87058e-09 1.12643e-09)
(0.123524 -1.3011e-09 1.81911e-09)
(0.123524 3.38697e-09 -3.39135e-09)
(0.123525 -2.09641e-09 1.5716e-09)
(0.195787 -9.84715e-10 2.50371e-09)
(0.195787 1.1603e-08 -4.62157e-09)
(0.195789 -1.05939e-08 2.10836e-09)
(0.21766 7.6952e-09 2.61473e-09)
(0.217661 1.70739e-09 -4.24252e-09)
(0.217664 -9.34202e-09 1.62253e-09)
(0.231776 2.09937e-08 2.95924e-09)
(0.231777 -2.54472e-08 -5.10542e-09)
(0.23178 4.51601e-09 2.14595e-09)
(0.242614 3.10843e-08 3.57057e-09)
(0.242616 -4.31772e-08 -7.27585e-09)
(0.242618 1.21581e-08 3.70557e-09)
(0.251543 3.34247e-08 4.15876e-09)
(0.251545 -4.76417e-08 -8.90822e-09)
(0.251547 1.42741e-08 4.75051e-09)
(0.259173 2.6159e-08 4.28273e-09)
(0.259174 -3.68413e-08 -9.46557e-09)
(0.259176 1.07301e-08 5.18394e-09)
(0.265838 1.46375e-08 3.96256e-09)
(0.26584 -2.10556e-08 -8.9875e-09)
(0.265841 6.45388e-09 5.02688e-09)
(0.271747 2.51389e-09 3.54663e-09)
(0.271749 -5.07002e-09 -8.08032e-09)
(0.27175 2.57461e-09 4.53475e-09)
(0.277005 -7.32761e-09 3.21839e-09)
(0.277006 7.44379e-09 -7.1011e-09)
(0.277007 -1.05824e-10 3.883e-09)
(0.281629 -1.29365e-08 3.14134e-09)
(0.281631 1.47062e-08 -6.27832e-09)
(0.281632 -1.75753e-09 3.13662e-09)
(0.285575 -1.48371e-08 3.52077e-09)
(0.285576 1.74598e-08 -5.58607e-09)
(0.285578 -2.59984e-09 2.06486e-09)
(0.288754 -1.31976e-08 4.02735e-09)
(0.288754 1.56948e-08 -4.94477e-09)
(0.288756 -2.46994e-09 9.17219e-10)
(0.291094 -8.87856e-09 4.27234e-09)
(0.291094 9.9958e-09 -4.18295e-09)
(0.291096 -1.087e-09 -8.91999e-11)
(0.292414 -3.0859e-09 4.27647e-09)
(0.292414 3.26601e-09 -3.39498e-09)
(0.292416 -1.61577e-10 -8.81048e-10)
(0.292413 2.92933e-09 4.2805e-09)
(0.292414 -3.10919e-09 -3.39101e-09)
(0.292416 1.86368e-10 -8.88985e-10)
(0.291093 8.80853e-09 4.26704e-09)
(0.291094 -9.83296e-09 -4.16989e-09)
(0.291096 1.01689e-09 -9.67914e-11)
(0.288753 1.30346e-08 4.02096e-09)
(0.288754 -1.54975e-08 -4.93321e-09)
(0.288755 2.4519e-09 9.12397e-10)
(0.285574 1.46068e-08 3.51737e-09)
(0.285575 -1.72443e-08 -5.57106e-09)
(0.285577 2.62321e-09 2.05362e-09)
(0.281629 1.27776e-08 3.1355e-09)
(0.28163 -1.44453e-08 -6.26201e-09)
(0.281631 1.65991e-09 3.12613e-09)
(0.277004 7.12764e-09 3.20453e-09)
(0.277005 -7.23664e-09 -7.09422e-09)
(0.277006 1.04402e-10 3.88958e-09)
(0.271746 -2.74476e-09 3.54005e-09)
(0.271748 5.329e-09 -8.06045e-09)
(0.271749 -2.58724e-09 4.52019e-09)
(0.265835 -1.49711e-08 3.95891e-09)
(0.265837 2.14626e-08 -8.97988e-09)
(0.265838 -6.49235e-09 5.02062e-09)
(0.259166 -2.65454e-08 4.29052e-09)
(0.259168 3.75597e-08 -9.47589e-09)
(0.259169 -1.10104e-08 5.18502e-09)
(0.251533 -3.41913e-08 4.18223e-09)
(0.251534 4.86491e-08 -8.94027e-09)
(0.251536 -1.44534e-08 4.75832e-09)
(0.242601 -3.20951e-08 3.56409e-09)
(0.242603 4.4513e-08 -7.27078e-09)
(0.242605 -1.24177e-08 3.7072e-09)
(0.231764 -2.17283e-08 2.90469e-09)
(0.231765 2.64542e-08 -5.02414e-09)
(0.231768 -4.72681e-09 2.12032e-09)
(0.217651 -8.10222e-09 2.56844e-09)
(0.217653 -1.31487e-09 -4.1389e-09)
(0.217655 9.40876e-09 1.57144e-09)
(0.195781 9.36946e-10 2.44782e-09)
(0.195781 -1.14599e-08 -4.52376e-09)
(0.195783 1.05138e-08 2.07496e-09)
(0.123521 1.38435e-09 1.8403e-09)
(0.123521 -3.47865e-09 -3.37428e-09)
(0.123522 2.09177e-09 1.53233e-09)
(0.133908 -1.46982e-09 2.43083e-09)
(0.133908 3.77157e-09 -4.49287e-09)
(0.133909 -2.30905e-09 2.06092e-09)
(0.203005 -1.05587e-09 3.01025e-09)
(0.203005 1.16103e-08 -5.54083e-09)
(0.203007 -1.05288e-08 2.51852e-09)
(0.226115 7.6638e-09 3.18587e-09)
(0.226116 1.96354e-09 -5.09601e-09)
(0.226118 -9.56649e-09 1.90359e-09)
(0.241032 2.09254e-08 3.64659e-09)
(0.241034 -2.46823e-08 -6.17294e-09)
(0.241036 3.82021e-09 2.52601e-09)
(0.252396 3.10892e-08 4.43985e-09)
(0.252398 -4.24933e-08 -8.91521e-09)
(0.2524 1.14701e-08 4.47576e-09)
(0.261709 3.35123e-08 5.20302e-09)
(0.261711 -4.71939e-08 -1.09703e-08)
(0.261712 1.37394e-08 5.76865e-09)
(0.269639 2.62787e-08 5.37041e-09)
(0.26964 -3.66103e-08 -1.1683e-08)
(0.269641 1.03799e-08 6.31402e-09)
(0.276549 1.46988e-08 4.97954e-09)
(0.276551 -2.08973e-08 -1.1104e-08)
(0.276552 6.23462e-09 6.12689e-09)
(0.282664 2.48398e-09 4.46807e-09)
(0.282665 -4.91586e-09 -1.00083e-08)
(0.282666 2.45053e-09 5.54159e-09)
(0.288096 -7.44315e-09 4.05723e-09)
(0.288097 7.61307e-09 -8.82898e-09)
(0.288098 -1.59369e-10 4.77211e-09)
(0.292868 -1.31165e-08 3.98079e-09)
(0.292869 1.48909e-08 -7.87691e-09)
(0.29287 -1.76197e-09 3.89564e-09)
(0.296934 -1.50363e-08 4.44024e-09)
(0.296935 1.76668e-08 -7.11402e-09)
(0.296937 -2.60711e-09 2.67321e-09)
(0.300205 -1.33956e-08 5.05119e-09)
(0.300205 1.59811e-08 -6.43436e-09)
(0.300207 -2.5576e-09 1.3829e-09)
(0.302605 -8.96126e-09 5.34006e-09)
(0.302606 1.01848e-08 -5.59771e-09)
(0.302608 -1.19254e-09 2.57882e-10)
(0.303958 -3.10058e-09 5.33146e-09)
(0.303958 3.31927e-09 -4.6938e-09)
(0.30396 -1.99763e-10 -6.37086e-10)
(0.303957 2.9439e-09 5.33649e-09)
(0.303958 -3.16146e-09 -4.68892e-09)
(0.30396 2.24111e-10 -6.46921e-10)
(0.302604 8.88936e-09 5.3333e-09)
(0.302605 -1.00184e-08 -5.58181e-09)
(0.302607 1.12114e-09 2.48975e-10)
(0.300204 1.32304e-08 5.04293e-09)
(0.300204 -1.57817e-08 -6.42051e-09)
(0.300206 2.53976e-09 1.37777e-09)
(0.296933 1.48036e-08 4.43561e-09)
(0.296934 -1.74503e-08 -7.09622e-09)
(0.296936 2.63188e-09 2.66051e-09)
(0.292867 1.29539e-08 3.97361e-09)
(0.292868 -1.46286e-08 -7.85702e-09)
(0.292869 1.66646e-09 3.88292e-09)
(0.288095 7.24038e-09 4.03971e-09)
(0.288096 -7.40393e-09 -8.8216e-09)
(0.288097 1.58641e-10 4.78174e-09)
(0.282662 -2.71886e-09 4.46047e-09)
(0.282664 5.1786e-09 -9.98453e-09)
(0.282665 -2.46297e-09 5.52379e-09)
(0.276545 -1.50378e-08 4.97532e-09)
(0.276547 2.13082e-08 -1.10965e-08)
(0.276548 -6.27143e-09 6.12077e-09)
(0.269631 -2.66757e-08 5.38163e-09)
(0.269633 3.73356e-08 -1.16985e-08)
(0.269634 -1.06562e-08 6.31644e-09)
(0.261698 -3.42908e-08 5.23307e-09)
(0.2617 4.8211e-08 -1.10134e-08)
(0.261701 -1.39159e-08 5.78071e-09)
(0.252383 -3.21053e-08 4.43218e-09)
(0.252384 4.38257e-08 -8.91044e-09)
(0.252386 -1.17202e-08 4.47889e-09)
(0.24102 -2.16649e-08 3.57891e-09)
(0.241021 2.56849e-08 -6.07262e-09)
(0.241023 -4.02098e-09 2.49481e-09)
(0.226105 -8.07524e-09 3.12731e-09)
(0.226107 -1.56205e-09 -4.9689e-09)
(0.226109 9.62903e-09 1.84282e-09)
(0.202998 9.93116e-10 2.93987e-09)
(0.202998 -1.1458e-08 -5.42169e-09)
(0.203 1.04557e-08 2.48062e-09)
(0.133905 1.5411e-09 2.45578e-09)
(0.133905 -3.85016e-09 -4.46782e-09)
(0.133906 2.30627e-09 2.00991e-09)
(0.143792 -1.59869e-09 3.15652e-09)
(0.143792 4.10707e-09 -5.784e-09)
(0.143793 -2.51241e-09 2.6256e-09)
(0.209382 -1.08447e-09 3.54459e-09)
(0.209382 1.15028e-08 -6.50397e-09)
(0.209384 -1.03916e-08 2.94455e-09)
(0.233494 7.60753e-09 3.78654e-09)
(0.233495 2.20152e-09 -5.98135e-09)
(0.233497 -9.74854e-09 2.18685e-09)
(0.249183 2.07101e-08 4.38516e-09)
(0.249184 -2.3684e-08 -7.29701e-09)
(0.249187 3.03708e-09 2.91135e-09)
(0.261072 3.08604e-08 5.385e-09)
(0.261074 -4.14311e-08 -1.0667e-08)
(0.261076 1.06367e-08 5.28255e-09)
(0.270766 3.33475e-08 6.34915e-09)
(0.270767 -4.63514e-08 -1.31894e-08)
(0.270769 1.30615e-08 6.84208e-09)
(0.278988 2.62035e-08 6.57144e-09)
(0.27899 -3.60831e-08 -1.40746e-08)
(0.278991 9.9274e-09 7.50507e-09)
(0.286134 1.46478e-08 6.10339e-09)
(0.286135 -2.05636e-08 -1.33902e-08)
(0.286136 5.95137e-09 7.28978e-09)
(0.292443 2.4258e-09 5.48885e-09)
(0.292445 -4.69891e-09 -1.2099e-08)
(0.292446 2.29158e-09 6.61184e-09)
(0.298039 -7.52058e-09 4.98616e-09)
(0.29804 7.76059e-09 -1.07198e-08)
(0.298041 -2.29446e-10 5.73404e-09)
(0.302947 -1.32239e-08 4.919e-09)
(0.302948 1.50057e-08 -9.65707e-09)
(0.30295 -1.76909e-09 4.73744e-09)
(0.307125 -1.51506e-08 5.47192e-09)
(0.307126 1.7788e-08 -8.85386e-09)
(0.307128 -2.61356e-09 3.38121e-09)
(0.310479 -1.3519e-08 6.20008e-09)
(0.31048 1.61788e-08 -8.17347e-09)
(0.310482 -2.63137e-09 1.97306e-09)
(0.312934 -9.00808e-09 6.54596e-09)
(0.312935 1.03398e-08 -7.29624e-09)
(0.312937 -1.3002e-09 7.50568e-10)
(0.314316 -3.10619e-09 6.52734e-09)
(0.314317 3.36737e-09 -6.29132e-09)
(0.314318 -2.42043e-10 -2.35298e-10)
(0.314315 2.94983e-09 6.53358e-09)
(0.314316 -3.20914e-09 -6.28544e-09)
(0.314318 2.65779e-10 -2.47327e-10)
(0.312933 8.93446e-09 6.5376e-09)
(0.312934 -1.01709e-08 -7.27737e-09)
(0.312936 1.22813e-09 7.40348e-10)
(0.310478 1.33526e-08 6.18965e-09)
(0.310479 -1.59785e-08 -8.15713e-09)
(0.310481 2.61382e-09 1.96773e-09)
(0.307124 1.49167e-08 5.46585e-09)
(0.307125 -1.75717e-08 -8.83317e-09)
(0.307126 2.63959e-09 3.36717e-09)
(0.302946 1.30586e-08 4.91041e-09)
(0.302948 -1.4744e-08 -9.63355e-09)
(0.302949 1.67671e-09 4.72255e-09)
(0.298037 7.3162e-09 4.9658e-09)
(0.298039 -7.55071e-09 -1.0712e-08)
(0.29804 2.29219e-10 5.74603e-09)
(0.292441 -2.66353e-09 5.48025e-09)
(0.292443 4.96379e-09 -1.20713e-08)
(0.292444 -2.30377e-09 6.59072e-09)
(0.28613 -1.49909e-08 6.09874e-09)
(0.286131 2.09755e-08 -1.33835e-08)
(0.286132 -5.98585e-09 7.28414e-09)
(0.27898 -2.6609e-08 6.58669e-09)
(0.278982 3.68107e-08 -1.40967e-08)
(0.278983 -1.01981e-08 7.50948e-09)
(0.270754 -3.41339e-08 6.38655e-09)
(0.270756 4.73728e-08 -1.32455e-08)
(0.270757 -1.32347e-08 6.8594e-09)
(0.261058 -3.18753e-08 5.37588e-09)
(0.26106 4.27511e-08 -1.06631e-08)
(0.261062 -1.08757e-08 5.28801e-09)
(0.24917 -2.14499e-08 4.30257e-09)
(0.249171 2.46751e-08 -7.17676e-09)
(0.249173 -3.22617e-09 2.87556e-09)
(0.233484 -8.02158e-09 3.71466e-09)
(0.233485 -1.79307e-09 -5.82956e-09)
(0.233487 9.80652e-09 2.1164e-09)
(0.209375 1.00535e-09 3.45839e-09)
(0.209375 -1.13417e-08 -6.36317e-09)
(0.209376 1.03273e-08 2.90333e-09)
(0.143789 1.65733e-09 3.18516e-09)
(0.143789 -4.17307e-09 -5.74948e-09)
(0.14379 2.51268e-09 2.56162e-09)
(0.153264 -1.66954e-09 4.0046e-09)
(0.153264 4.37383e-09 -7.27145e-09)
(0.153265 -2.70515e-09 3.26387e-09)
(0.215217 -1.06179e-09 4.11053e-09)
(0.215217 1.12737e-08 -7.51577e-09)
(0.215219 -1.01844e-08 3.38745e-09)
(0.240094 7.54402e-09 4.4154e-09)
(0.240095 2.40896e-09 -6.89263e-09)
(0.240097 -9.89335e-09 2.46776e-09)
(0.256506 2.03821e-08 5.16948e-09)
(0.256507 -2.24945e-08 -8.46089e-09)