/*--------------------------------*- C++ -*----------------------------------*\
  =========                 |
  \\      /  F ield         | OpenFOAM: The Open Source CFD Toolbox
   \\    /   O peration     | Website:  https://openfoam.org
    \\  /    A nd           | Version:  6
     \\/     M anipulation  |
\*---------------------------------------------------------------------------*/
FoamFile
{
    version     2.0;
    format      ascii;
    class       volVectorField;
    location    "13";
    object      wallShearStress;
}
// * * * * * * * * * * * * * * * * * * * * * * * * * * * * * * * * * * * * * //

dimensions      [0 2 -2 0 0 0 0];

internalField   uniform (0 0 0);

boundaryField
{
    inlet
    {
        type            calculated;
        value           uniform (0 0 0);
    }
    outlet
    {
        type            calculated;
        value           uniform (0 0 0);
    }
    roughCylinder
    {
        type            calculated;
        value           nonuniform List<vector> 
5120
(
(-0.000100442 -0.000114609 -5.71156e-05)
(-0.000134045 -0.000217786 -6.20861e-05)
(-0.000217137 -0.000381831 -1.195e-05)
(-0.000260494 -0.000455978 3.62646e-05)
(-0.000312347 -0.000517195 8.09544e-05)
(-0.000357717 -0.000548675 0.000118833)
(-0.00039897 -0.000563286 0.000149109)
(-0.00043126 -0.000561635 0.000170348)
(-0.000458415 -0.000554344 0.000185473)
(-0.000480444 -0.000545207 0.000196208)
(-0.000499116 -0.000538038 0.000204808)
(-0.000512998 -0.00053128 0.000210879)
(-0.00052261 -0.000526004 0.000214096)
(-0.000531885 -0.000524581 0.00021554)
(-0.000540161 -0.000525441 0.000214891)
(-0.000547139 -0.00052748 0.00021201)
(-0.000554442 -0.000531643 0.000207575)
(-0.000562586 -0.000538259 0.000201876)
(-0.000563682 -0.000539755 0.000192465)
(-0.000561022 -0.000538598 0.000180917)
(-0.000561279 -0.000540535 0.000169471)
(-0.000555555 -0.000537504 0.0001558)
(-0.000549148 -0.00053354 0.000141653)
(-0.00054122 -0.00052756 0.000127168)
(-0.000558544 -0.000545117 0.000117684)
(-0.00056552 -0.000554071 0.000105173)
(-0.000559873 -0.000550231 8.99645e-05)
(-0.000555985 -0.00054839 7.49029e-05)
(-0.000551465 -0.000545308 5.94055e-05)
(-0.000546362 -0.000541603 4.32862e-05)
(-0.000543105 -0.000539395 2.66688e-05)
(-0.000541734 -0.000538609 9.06555e-06)
(-9.25763e-05 -9.3171e-05 -4.291e-05)
(-0.000150606 -0.000219375 -6.91181e-05)
(-0.000232462 -0.000373347 -2.01173e-05)
(-0.000277767 -0.000450246 2.76562e-05)
(-0.000331688 -0.000514151 7.23075e-05)
(-0.000378895 -0.00054863 0.000110703)
(-0.000421652 -0.000565435 0.000141435)
(-0.000455863 -0.000566469 0.000163289)
(-0.000484651 -0.000561393 0.000178981)
(-0.000508822 -0.000554618 0.000190831)
(-0.000530994 -0.000550451 0.000201279)
(-0.000547276 -0.000544354 0.000208792)
(-0.000559417 -0.000539141 0.000213227)
(-0.000569884 -0.000537463 0.000215197)
(-0.000579047 -0.000538074 0.00021487)
(-0.000586074 -0.000539503 0.000212026)
(-0.000593571 -0.000543346 0.000207671)
(-0.000601653 -0.000549423 0.000201926)
(-0.000603657 -0.00055162 0.000192928)
(-0.00060262 -0.000552002 0.000182)
(-0.000601836 -0.000553156 0.000170349)
(-0.00059813 -0.000552294 0.000157375)
(-0.00059044 -0.000547654 0.000143046)
(-0.000581241 -0.000541035 0.000128446)
(-0.000598002 -0.000557258 0.000118628)
(-0.000607839 -0.000568587 0.000106508)
(-0.000600836 -0.000563897 9.1043e-05)
(-0.000598019 -0.000563336 7.60346e-05)
(-0.000593394 -0.00056048 6.03695e-05)
(-0.000588705 -0.000557518 4.40817e-05)
(-0.000585993 -0.000556027 2.72119e-05)
(-0.000584828 -0.000555548 9.25529e-06)
(-0.000123188 -0.000107124 -4.22979e-05)
(-0.000154688 -0.000200063 -7.03752e-05)
(-0.000245108 -0.00035631 -2.83925e-05)
(-0.000294028 -0.000438252 1.78884e-05)
(-0.000350082 -0.000505111 6.22414e-05)
(-0.000399602 -0.00054339 0.000101199)
(-0.000444772 -0.00056379 0.000132684)
(-0.0004807 -0.000567483 0.000155253)
(-0.000512216 -0.000566065 0.00017218)
(-0.000539457 -0.000562747 0.000185681)
(-0.000562174 -0.000558514 0.000196841)
(-0.000580094 -0.000552931 0.000205311)
(-0.000594452 -0.00054759 0.000210723)
(-0.000607098 -0.000545923 0.00021356)
(-0.000617521 -0.000546466 0.000213689)
(-0.000625287 -0.000547735 0.000211167)
(-0.00063207 -0.000550385 0.00020665)
(-0.000640656 -0.000556377 0.000201126)
(-0.000643356 -0.000558979 0.000192506)
(-0.000643736 -0.000560575 0.000182165)
(-0.000642592 -0.000561603 0.00017061)
(-0.000641766 -0.000563443 0.000158525)
(-0.000634212 -0.000559559 0.00014443)
(-0.000624602 -0.000553221 0.000129944)
(-0.000641298 -0.000568618 0.000119916)
(-0.000654749 -0.000582668 0.000108223)
(-0.000646037 -0.000577001 9.24277e-05)
(-0.000644286 -0.000577648 7.74125e-05)
(-0.000639491 -0.000575006 6.15296e-05)
(-0.000634861 -0.000572448 4.49954e-05)
(-0.000631884 -0.000570928 2.77909e-05)
(-0.000630432 -0.000570318 9.44996e-06)
(-0.00011152 -8.26977e-05 -2.43679e-05)
(-0.000168737 -0.000192363 -7.61525e-05)
(-0.000257552 -0.000337538 -3.70786e-05)
(-0.000307874 -0.000421057 7.2908e-06)
(-0.000365754 -0.000490606 5.10254e-05)
(-0.000417503 -0.000532663 9.03315e-05)
(-0.000464436 -0.000556047 0.000122249)
(-0.000503252 -0.000564124 0.00014592)
(-0.000537425 -0.00056649 0.000164213)
(-0.000566299 -0.000565307 0.000179022)
(-0.000592913 -0.000564479 0.000192101)
(-0.000613963 -0.000560794 0.000201938)
(-0.000632026 -0.000557206 0.00020878)
(-0.000646607 -0.000554773 0.000212311)
(-0.000657781 -0.000554298 0.000212747)
(-0.000665508 -0.000554573 0.000210308)
(-0.000672787 -0.000556944 0.000206068)
(-0.000681084 -0.000562102 0.000200549)
(-0.000684927 -0.000565374 0.000192432)
(-0.00068634 -0.000567744 0.000182542)
(-0.000685714 -0.000569361 0.000171322)
(-0.00068686 -0.000572901 0.000159813)
(-0.000677821 -0.000568465 0.000145614)
(-0.000667718 -0.000562403 0.000131266)
(-0.000682916 -0.000575872 0.000120841)
(-0.000699286 -0.00059175 0.000109464)
(-0.000689128 -0.000585556 9.34685e-05)
(-0.000688699 -0.000587582 7.85255e-05)
(-0.000683804 -0.000585271 6.24904e-05)
(-0.000679873 -0.000583688 4.58079e-05)
(-0.000677368 -0.000582817 2.83397e-05)
(-0.000676172 -0.000582576 9.64289e-06)
(-0.000148926 -9.23893e-05 -1.42144e-05)
(-0.000166647 -0.000166297 -7.46524e-05)
(-0.000263661 -0.000310073 -4.4849e-05)
(-0.000317556 -0.00039752 -3.71194e-06)
(-0.000377369 -0.000470037 3.88177e-05)
(-0.000431525 -0.000516185 7.81897e-05)
(-0.000481813 -0.00054458 0.000110755)
(-0.000523336 -0.000556869 0.000135459)
(-0.000560447 -0.000563328 0.000155287)
(-0.000593574 -0.000566833 0.000172276)
(-0.000621469 -0.000566822 0.000186483)
(-0.000644447 -0.000563952 0.00019732)
(-0.000664086 -0.000560501 0.000204815)
(-0.000681431 -0.000558548 0.000209342)
(-0.000694392 -0.000557415 0.000210483)
(-0.000703425 -0.000557368 0.000208623)
(-0.000710466 -0.000558821 0.00020453)
(-0.000719295 -0.000563751 0.000199349)
(-0.000723861 -0.000567221 0.000191656)
(-0.000726063 -0.000570081 0.000182218)
(-0.000726807 -0.000572857 0.000171586)
(-0.000730119 -0.000578126 0.000160709)
(-0.000721782 -0.000575055 0.000146941)
(-0.00071238 -0.000570274 0.000132959)
(-0.000726845 -0.000582622 0.0001223)
(-0.000745945 -0.000599939 0.000111133)
(-0.000734328 -0.000593379 9.48975e-05)
(-0.000734938 -0.000596472 7.99271e-05)
(-0.000729938 -0.000594529 6.36866e-05)
(-0.000726211 -0.000593476 4.676e-05)
(-0.000723229 -0.000592529 2.89381e-05)
(-0.000721741 -0.000592264 9.84589e-06)
(-0.000120355 -6.11486e-05 2.55934e-06)
(-0.000170043 -0.000147228 -7.56218e-05)
(-0.000268466 -0.000281797 -5.2098e-05)
(-0.0003231 -0.000369169 -1.4805e-05)
(-0.000384413 -0.000444153 2.57971e-05)
(-0.000441416 -0.00049497 6.49156e-05)
(-0.000493846 -0.000527051 9.76748e-05)
(-0.000538985 -0.000544585 0.000123547)
(-0.000580062 -0.000556017 0.000145164)
(-0.0006147 -0.000561385 0.000163507)
(-0.000646775 -0.00056487 0.000179651)
(-0.00067361 -0.000564534 0.000192112)
(-0.000697303 -0.000563327 0.000201085)
(-0.000716833 -0.00056174 0.000206445)
(-0.000731537 -0.00056018 0.000208309)
(-0.000741206 -0.000558866 0.000206929)
(-0.000749497 -0.000559924 0.00020345)
(-0.000758229 -0.000563878 0.000198454)
(-0.000763584 -0.000567517 0.000191232)
(-0.000766424 -0.000570679 0.000182226)
(-0.000768963 -0.000574764 0.000172255)
(-0.00077326 -0.000580755 0.000161734)
(-0.000764097 -0.000577862 0.000148105)
(-0.000755321 -0.000574366 0.000134497)
(-0.00076758 -0.000584774 0.000123453)
(-0.000788047 -0.000602525 0.00011235)
(-0.000775548 -0.000596405 9.60411e-05)
(-0.000777316 -0.000600809 8.11129e-05)
(-0.000772283 -0.000599496 6.47294e-05)
(-0.000769355 -0.000599586 4.76454e-05)
(-0.000766681 -0.000599297 2.95308e-05)
(-0.000765453 -0.000599492 1.00553e-05)
(-0.000124226 -5.03504e-05 1.65471e-05)
(-0.000169998 -0.00012543 -7.43365e-05)
(-0.000265776 -0.000247647 -5.80972e-05)
(-0.000322916 -0.000335642 -2.5485e-05)
(-0.000385556 -0.000412895 1.21838e-05)
(-0.000444826 -0.000467839 5.03927e-05)
(-0.000501503 -0.000505918 8.34869e-05)
(-0.000550585 -0.000528831 0.000110492)
(-0.000594687 -0.000544039 0.000133602)
(-0.000634989 -0.000554728 0.000154276)
(-0.000669549 -0.000559887 0.000171831)
(-0.000698648 -0.000560679 0.000185484)
(-0.0007235 -0.000559488 0.000195211)
(-0.000745134 -0.000558461 0.000201509)
(-0.00076193 -0.000557303 0.000204317)
(-0.000774379 -0.000556696 0.000204087)
(-0.000783855 -0.000557225 0.000201316)
(-0.000793648 -0.000560843 0.000196973)
(-0.000799289 -0.000564023 0.000190176)
(-0.000802799 -0.000567411 0.00018169)
(-0.000807238 -0.000572764 0.000172452)
(-0.000812882 -0.000579829 0.000162447)
(-0.000805531 -0.000579224 0.000149531)
(-0.000798234 -0.000577648 0.000136434)
(-0.000809142 -0.000587025 0.000125166)
(-0.000830156 -0.000604631 0.000113972)
(-0.000816571 -0.00059895 9.75194e-05)
(-0.00081878 -0.000604139 8.25063e-05)
(-0.000813526 -0.000603393 6.59267e-05)
(-0.000810508 -0.000603966 4.85893e-05)
(-0.000807067 -0.000603529 3.01152e-05)
(-0.00080544 -0.000603646 1.02526e-05)
(-0.00012543 -3.86079e-05 3.04777e-05)
(-0.000154306 -9.52436e-05 -6.54927e-05)
(-0.000259503 -0.000212885 -6.3019e-05)
(-0.00031653 -0.000297896 -3.5207e-05)
(-0.000379824 -0.000376624 -1.61048e-06)
(-0.000442431 -0.000436835 3.50142e-05)
(-0.000501614 -0.000479179 6.7884e-05)
(-0.000554685 -0.000507388 9.58244e-05)
(-0.000604453 -0.000528476 0.000120786)
(-0.000646714 -0.000540844 0.00014273)
(-0.000685728 -0.000549179 0.00016205)
(-0.000719229 -0.000552761 0.000177433)
(-0.000748876 -0.000554417 0.000188991)
(-0.000773256 -0.000554479 0.000196564)
(-0.000791958 -0.000553704 0.000200413)
(-0.000805294 -0.000552713 0.000200952)
(-0.000817115 -0.0005539 0.000199293)
(-0.000827306 -0.000556881 0.000195512)
(-0.000833403 -0.000559726 0.000189278)
(-0.000837731 -0.000563386 0.000181423)
(-0.000843651 -0.000569594 0.000172856)
(-0.000849617 -0.000577007 0.000163201)
(-0.000841983 -0.000577124 0.000150605)
(-0.000835659 -0.000576934 0.000137922)
(-0.00084372 -0.000584344 0.000126278)
(-0.000863801 -0.000600685 0.000114876)
(-0.000849989 -0.00059599 9.84707e-05)
(-0.000852659 -0.000601832 8.3449e-05)
(-0.000847298 -0.000601673 6.67679e-05)
(-0.000844798 -0.000603088 4.9304e-05)
(-0.000841588 -0.000603241 3.05934e-05)
(-0.000840294 -0.000603817 1.04228e-05)
(-0.000137924 -2.95151e-05 4.89088e-05)
(-0.00016595 -8.37542e-05 -6.73303e-05)
(-0.000246999 -0.000175932 -6.58338e-05)
(-0.000303655 -0.000257086 -4.33788e-05)
(-0.000366697 -0.000336008 -1.49764e-05)
(-0.000430574 -0.000399497 1.89253e-05)
(-0.000494495 -0.00044836 5.12921e-05)
(-0.000552927 -0.000482906 8.00938e-05)
(-0.000605691 -0.000507149 0.000106164)
(-0.00065496 -0.000525043 0.000130223)
(-0.000697947 -0.000535709 0.000151073)
(-0.000734512 -0.000540779 0.000167837)
(-0.000765404 -0.000542589 0.000180411)
(-0.000791815 -0.000543375 0.000189233)
(-0.000812708 -0.000543383 0.000194381)
(-0.000829412 -0.000543902 0.000196468)
(-0.000842569 -0.000545233 0.000195798)
(-0.000853816 -0.000548286 0.000192879)
(-0.000859995 -0.00055081 0.000187278)
(-0.000865224 -0.000554826 0.000180187)
(-0.000872163 -0.000561481 0.000172285)
(-0.000879198 -0.000569578 0.000163215)
(-0.000874032 -0.000572004 0.000151457)
(-0.000869408 -0.000573519 0.000139306)
(-0.000875896 -0.00058002 0.000127528)
(-0.000894665 -0.000594947 0.000115892)
(-0.000880487 -0.000591103 9.95045e-05)
(-0.00088306 -0.000597154 8.44091e-05)
(-0.000877543 -0.000597541 6.76222e-05)
(-0.000874655 -0.000599122 4.99793e-05)
(-0.000870542 -0.000599098 3.10074e-05)
(-0.000868761 -0.000599542 1.05612e-05)
(-0.000142631 -1.71297e-05 6.73262e-05)
(-0.000141651 -5.69224e-05 -5.43477e-05)
(-0.000230962 -0.000140208 -6.6365e-05)
(-0.000283239 -0.000213733 -4.87749e-05)
(-0.000344812 -0.000290944 -2.69785e-05)
(-0.000411611 -0.000359144 2.93678e-06)
(-0.000477843 -0.000412408 3.38756e-05)
(-0.000539954 -0.000451791 6.28038e-05)
(-0.000600218 -0.000482773 9.03006e-05)
(-0.000652212 -0.000502335 0.000115378)
(-0.000699986 -0.000515641 0.000137721)
(-0.000741502 -0.000523321 0.000156189)
(-0.000778279 -0.000528409 0.000170892)
(-0.000808544 -0.000531046 0.000181531)
(-0.000832201 -0.000532175 0.00018828)
(-0.000849865 -0.000532657 0.000191502)
(-0.000865363 -0.000534884 0.000192184)
(-0.000876834 -0.00053767 0.00019006)
(-0.000883107 -0.000540071 0.000185205)
(-0.00088922 -0.000544456 0.000178931)
(-0.000896574 -0.000551163 0.00017162)
(-0.000903938 -0.000559339 0.00016304)
(-0.000898631 -0.000562169 0.000151679)
(-0.000894626 -0.000564548 0.000139941)
(-0.000898003 -0.000569344 0.000127921)
(-0.000914079 -0.000582126 0.000116019)
(-0.000900367 -0.000579613 9.98611e-05)
(-0.00090262 -0.000585689 8.47839e-05)
(-0.000896969 -0.000586627 6.80124e-05)
(-0.000894255 -0.000588743 5.03508e-05)
(-0.00089032 -0.000589313 3.12729e-05)
(-0.000888821 -0.000590152 1.06584e-05)
(-0.000152362 -4.22362e-06 9.06142e-05)
(-0.000143284 -4.41853e-05 -5.12371e-05)
(-0.000206326 -0.000104136 -6.23604e-05)
(-0.000256791 -0.000170408 -5.08276e-05)
(-0.000315465 -0.000243595 -3.66192e-05)
(-0.000380548 -0.00031236 -1.21389e-05)
(-0.000450883 -0.000371645 1.6277e-05)
(-0.000519494 -0.000418244 4.48428e-05)
(-0.000582286 -0.000451884 7.2557e-05)
(-0.000642474 -0.000477241 9.91898e-05)
(-0.00069594 -0.000493412 0.000123066)
(-0.000741929 -0.00050274 0.000143102)
(-0.000780472 -0.000507834 0.000159036)
(-0.000812948 -0.000511126 0.000171209)
(-0.000838931 -0.000513153 0.000179616)
(-0.000860517 -0.000515545 0.000184805)
(-0.000877332 -0.000518183 0.000186781)
(-0.000889705 -0.000521356 0.000185784)
(-0.000896048 -0.000523836 0.000181835)
(-0.000902976 -0.000528587 0.00017648)
(-0.000910252 -0.000535092 0.000169791)
(-0.000918642 -0.000543594 0.000161933)
(-0.000915828 -0.000548253 0.000151488)
(-0.000912961 -0.000551723 0.000140289)
(-0.000914628 -0.000555942 0.000128297)
(-0.00092799 -0.000566822 0.000116179)
(-0.000914169 -0.000565213 0.000100188)
(-0.000915506 -0.000570949 8.50855e-05)
(-0.000909499 -0.000572313 6.83336e-05)
(-0.000905867 -0.000574272 5.06181e-05)
(-0.000900796 -0.00057463 3.14289e-05)
(-0.000898673 -0.000575279 1.07072e-05)
(-0.000156863 9.552e-06 0.000113447)
(-0.000142394 -3.1583e-05 -4.65324e-05)
(-0.000184155 -7.47047e-05 -5.68288e-05)
(-0.00022428 -0.000128213 -4.90226e-05)
(-0.000276826 -0.00019363 -4.2434e-05)
(-0.000342616 -0.000264316 -2.52075e-05)
(-0.000413274 -0.000326545 -7.10844e-07)
(-0.000483728 -0.000376798 2.60968e-05)
(-0.00055555 -0.000418367 5.38722e-05)
(-0.000619139 -0.000446005 8.08359e-05)
(-0.000678004 -0.000464904 0.000105906)
(-0.000729751 -0.000476474 0.000127691)
(-0.000775596 -0.000484511 0.000145986)
(-0.000813245 -0.000489692 0.000160328)
(-0.00084295 -0.000493191 0.000170783)
(-0.000865308 -0.0004956 0.000177455)
(-0.000884109 -0.000499163 0.000181062)
(-0.000896618 -0.000502475 0.000181197)
(-0.000903157 -0.000505287 0.000178304)
(-0.000910641 -0.000510321 0.000173896)
(-0.000917404 -0.000516451 0.000167822)
(-0.000925697 -0.000524457 0.000160539)
(-0.000921865 -0.000528699 0.00015046)
(-0.000918495 -0.000532238 0.000139625)
(-0.00091684 -0.000535185 0.000127564)
(-0.000926391 -0.000543776 0.000115253)
(-0.000913139 -0.000543409 9.96416e-05)
(-0.000913144 -0.000548603 8.46146e-05)
(-0.000906708 -0.000550368 6.80324e-05)
(-0.000902726 -0.000552576 5.04651e-05)
(-0.0008977 -0.00055354 3.13644e-05)
(-0.000895633 -0.000554477 1.06884e-05)
(-0.000151766 2.23122e-05 0.000130348)
(-0.000139152 -1.96891e-05 -4.07395e-05)
(-0.00015257 -4.77699e-05 -4.66875e-05)
(-0.000187929 -8.97973e-05 -4.31458e-05)
(-0.000233332 -0.000145382 -4.36679e-05)
(-0.000290736 -0.000210245 -3.44096e-05)
(-0.00036289 -0.000276084 -1.58626e-05)
(-0.000440018 -0.000333863 7.8939e-06)
(-0.000512595 -0.000377354 3.40647e-05)
(-0.000585139 -0.000411701 6.12348e-05)
(-0.00065113 -0.000434739 8.73542e-05)
(-0.000709219 -0.000448971 0.0001109)
(-0.000757924 -0.000456837 0.000130833)
(-0.000798212 -0.000461867 0.000146985)
(-0.000830197 -0.000465445 0.000159317)
(-0.000856746 -0.000469415 0.00016821)
(-0.000876513 -0.000473381 0.000173335)
(-0.000889675 -0.000477384 0.000174896)
(-0.000896405 -0.00048073 0.000173234)
(-0.000904116 -0.000485942 0.000169834)
(-0.000910051 -0.000491617 0.000164435)
(-0.000918738 -0.00049925 0.000157896)
(-0.000916637 -0.000504683 0.000148741)
(-0.000913306 -0.000508781 0.000138448)
(-0.000909825 -0.000511714 0.000126608)
(-0.000915815 -0.000518829 0.000114226)
(-0.000902095 -0.000519016 9.8904e-05)
(-0.000900224 -0.000523585 8.39421e-05)
(-0.000892942 -0.000525513 6.75452e-05)
(-0.000887375 -0.000527347 5.01183e-05)
(-0.000880808 -0.000527968 3.11251e-05)
(-0.00087796 -0.000528671 1.05991e-05)
(-0.000139291 3.13446e-05 0.000137366)
(-0.000136642 -9.48913e-06 -3.52672e-05)
(-0.000125879 -2.90095e-05 -3.66433e-05)
(-0.000148906 -5.70051e-05 -3.35795e-05)
(-0.000181991 -9.83714e-05 -3.86921e-05)
(-0.000236616 -0.00015932 -3.91357e-05)
(-0.00030315 -0.00022321 -2.79434e-05)
(-0.00037732 -0.000281467 -8.99138e-06)
(-0.000460075 -0.000334198 1.4561e-05)
(-0.000535759 -0.000371447 4.04765e-05)
(-0.00060753 -0.00039826 6.68419e-05)
(-0.000671648 -0.00041553 9.1736e-05)
(-0.000728862 -0.000427168 0.000114186)
(-0.00077577 -0.000434248 0.000132992)
(-0.000812583 -0.000439128 0.000147829)
(-0.000839632 -0.000442355 0.000158443)
(-0.000860825 -0.000446731 0.000165358)
(-0.000873955 -0.000450859 0.000168316)
(-0.000880866 -0.000454696 0.000167925)
(-0.000888255 -0.000460024 0.000165483)
(-0.000893044 -0.000465327 0.000160767)
(-0.000900413 -0.000471897 0.000154766)
(-0.000895732 -0.000476094 0.000145914)
(-0.000890383 -0.00047967 0.000135963)
(-0.000883274 -0.000481823 0.000124225)
(-0.000884824 -0.000487315 0.000111846)
(-0.000871105 -0.00048819 9.70244e-05)
(-0.000866921 -0.000491966 8.22564e-05)
(-0.000858693 -0.000493916 6.62293e-05)
(-0.000852167 -0.00049575 4.91979e-05)
(-0.000845465 -0.000496841 3.0574e-05)
(-0.000842356 -0.000497623 1.04077e-05)
(-0.000122117 3.58525e-05 0.000134455)
(-0.000138404 -7.081e-07 -3.13034e-05)
(-0.000113598 -1.84778e-05 -3.04107e-05)
(-0.000103443 -3.01383e-05 -2.05127e-05)
(-0.00013275 -5.9494e-05 -2.92785e-05)
(-0.000168079 -0.00010426 -3.59524e-05)
(-0.000230671 -0.000165742 -3.44864e-05)
(-0.000309894 -0.000230133 -2.32008e-05)
(-0.000388714 -0.000282167 -4.04235e-06)
(-0.000473965 -0.000327372 1.98002e-05)
(-0.000553404 -0.000359614 4.59033e-05)
(-0.000624991 -0.00038131 7.20071e-05)
(-0.000685188 -0.000394054 9.60302e-05)
(-0.000734701 -0.000401679 0.000116842)
(-0.000773311 -0.000406411 0.000133714)
(-0.00080468 -0.000411098 0.000146786)
(-0.000826495 -0.000415562 0.000155413)
(-0.000839966 -0.000420047 0.000159927)
(-0.000846846 -0.000424229 0.000160821)
(-0.000853424 -0.00042946 0.000159325)
(-0.000856815 -0.000434242 0.000155319)
(-0.000863219 -0.00044004 0.000150029)
(-0.000859316 -0.000444796 0.000142149)
(-0.000852941 -0.000448462 0.000132767)
(-0.000843799 -0.000450935 0.000121423)
(-0.000841237 -0.000455273 0.000109135)
(-0.000826244 -0.00045611 9.47044e-05)
(-0.000819298 -0.000458982 8.01439e-05)
(-0.000809566 -0.000460601 6.4522e-05)
(-0.000800777 -0.000461713 4.79175e-05)
(-0.000791963 -0.00046206 2.97201e-05)
(-0.00078782 -0.000462423 1.01005e-05)
(-0.000104942 3.55003e-05 0.000121664)
(-0.00013579 6.1266e-06 -2.70998e-05)
(-0.000108975 -1.23743e-05 -2.56243e-05)
(-7.64859e-05 -1.5946e-05 -1.07272e-05)
(-7.2139e-05 -2.45623e-05 -1.39304e-05)
(-0.000109366 -6.10047e-05 -2.8228e-05)
(-0.000155639 -0.000110478 -3.50007e-05)
(-0.000221057 -0.000167149 -3.1913e-05)
(-0.000311374 -0.000229865 -2.00705e-05)
(-0.000397257 -0.000277097 1.43318e-07)
(-0.000482424 -0.000314238 2.50454e-05)
(-0.000559243 -0.00033982 5.15354e-05)
(-0.000627832 -0.000357791 7.74617e-05)
(-0.000683747 -0.000368967 0.000100688)
(-0.000727649 -0.000376253 0.00012015)
(-0.000758597 -0.000380596 0.000134879)
(-0.000781006 -0.00038541 0.000145264)
(-0.000794084 -0.000389984 0.000151217)
(-0.000800736 -0.000394388 0.00015336)
(-0.000805907 -0.000399213 0.000152686)
(-0.000807634 -0.000403299 0.00014931)
(-0.000810998 -0.00040754 0.000144398)
(-0.000802709 -0.000410242 0.000136696)
(-0.000792571 -0.000412629 0.000127568)
(-0.000779376 -0.000414236 0.000116466)
(-0.00077194 -0.000416989 0.000104356)
(-0.000755873 -0.000417508 9.05442e-05)
(-0.000745915 -0.00041919 7.64025e-05)
(-0.000734681 -0.00042017 6.14705e-05)
(-0.000724417 -0.000420804 4.56749e-05)
(-0.000715467 -0.000421323 2.83249e-05)
(-0.000710978 -0.000421546 9.61271e-06)
(-8.79064e-05 3.08987e-05 9.91311e-05)
(-0.000120893 9.09037e-06 -2.19404e-05)
(-0.000103383 -8.66924e-06 -2.02747e-05)
(-6.66055e-05 -9.38727e-06 -3.4118e-06)
(-4.39802e-05 -9.3902e-06 -4.11407e-06)
(-3.85356e-05 -1.80267e-05 -1.05672e-05)
(-7.40565e-05 -5.36763e-05 -2.54925e-05)
(-0.000140737 -0.000112392 -3.63621e-05)
(-0.000214689 -0.000165893 -3.12743e-05)
(-0.000311281 -0.000223138 -1.6367e-05)
(-0.000402842 -0.000266244 6.4968e-06)
(-0.00048677 -0.000297726 3.30692e-05)
(-0.000556427 -0.000317621 5.96365e-05)
(-0.000613194 -0.000330455 8.39695e-05)
(-0.000656431 -0.000338383 0.000104544)
(-0.00069063 -0.000345275 0.00012117)
(-0.000712815 -0.000350725 0.000132934)
(-0.000725458 -0.000355699 0.00014018)
(-0.000731199 -0.000360082 0.000143356)
(-0.00073425 -0.000364227 0.000143323)
(-0.00073384 -0.00036734 0.00014047)
(-0.000734563 -0.000370403 0.000136076)
(-0.000726491 -0.000373249 0.000129417)
(-0.00071492 -0.000375394 0.000120963)
(-0.000699943 -0.000376993 0.00011048)
(-0.000688595 -0.000378491 9.87046e-05)
(-0.00067068 -0.000377936 8.54525e-05)
(-0.000657732 -0.000378245 7.18033e-05)
(-0.0006447 -0.000378131 5.76595e-05)
(-0.000631899 -0.000377449 4.2777e-05)
(-0.000620393 -0.000376509 2.64032e-05)
(-0.000614595 -0.000375896 8.92669e-06)
(-7.87865e-05 2.58331e-05 7.83507e-05)
(-0.000110726 9.38662e-06 -1.90174e-05)
(-9.70137e-05 -6.44527e-06 -1.47731e-05)
(-5.70992e-05 -5.15695e-06 3.39829e-06)
(-2.88589e-05 -2.15477e-06 4.02973e-06)
(-1.38013e-05 -4.8552e-06 -1.19886e-06)
(-1.34264e-05 -1.30583e-05 -9.78331e-06)
(-3.89236e-05 -3.73041e-05 -2.16588e-05)
(-0.000128859 -0.00010814 -3.79081e-05)
(-0.000215792 -0.000162307 -2.75575e-05)
(-0.000310922 -0.000211354 -7.26173e-06)
(-0.000396411 -0.000246951 1.80081e-05)
(-0.000472512 -0.00027354 4.45299e-05)
(-0.000533249 -0.000290986 6.93369e-05)
(-0.000580701 -0.000303065 9.09858e-05)
(-0.000612242 -0.000310241 0.000107959)
(-0.000633355 -0.000316441 0.00012055)
(-0.000644523 -0.000321606 0.000128617)
(-0.000648913 -0.000325919 0.000132549)
(-0.0006495 -0.00032931 0.000132918)
(-0.000647084 -0.000331529 0.000130469)
(-0.000643499 -0.000332691 0.000126197)
(-0.000629448 -0.000332409 0.000119423)
(-0.000612766 -0.000332089 0.000111036)
(-0.000593571 -0.000331773 0.000100908)
(-0.000577452 -0.000330996 8.95699e-05)
(-0.000557426 -0.000328656 7.71333e-05)
(-0.000541649 -0.000327163 6.43597e-05)
(-0.000526936 -0.000325497 5.14752e-05)
(-0.000512789 -0.000323698 3.81328e-05)
(-0.000501647 -0.000322638 2.34808e-05)
(-0.000495851 -0.000321757 7.91029e-06)
(-6.38889e-05 1.94557e-05 5.36979e-05)
(-0.000107632 1.00922e-05 -1.79977e-05)
(-9.16492e-05 -3.62819e-06 -1.11305e-05)
(-4.97661e-05 -4.76768e-07 8.33276e-06)
(-1.59709e-05 6.7009e-06 1.00323e-05)
(8.02784e-06 8.93956e-06 4.17149e-06)
(1.53665e-05 7.1392e-06 -4.15968e-06)
(1.98108e-06 -4.97895e-06 -1.49689e-05)
(-2.65839e-05 -2.5212e-05 -1.79915e-05)
(-0.000127748 -0.000101056 -2.90337e-05)
(-0.000219342 -0.000154896 -1.21643e-05)
(-0.000306838 -0.000197279 1.04647e-05)
(-0.000377423 -0.000225313 3.42461e-05)
(-0.000434958 -0.000244936 5.67464e-05)
(-0.000477321 -0.000257501 7.63287e-05)
(-0.000510335 -0.000267944 9.29811e-05)
(-0.000529914 -0.00027513 0.000105387)
(-0.000539309 -0.000280534 0.000113609)
(-0.000541209 -0.000284282 0.00011767)
(-0.000538411 -0.000286412 0.000117955)
(-0.000532977 -0.000287114 0.000115531)
(-0.000526033 -0.000286713 0.000111486)
(-0.000512897 -0.000286541 0.000105848)
(-0.000495555 -0.000285605 9.82628e-05)
(-0.000475908 -0.000284732 8.91467e-05)
(-0.000457478 -0.000282408 7.86644e-05)
(-0.000436283 -0.000278337 6.71971e-05)
(-0.00041863 -0.00027506 5.54881e-05)
(-0.000402875 -0.000271759 4.40841e-05)
(-0.000386828 -0.000268006 3.24549e-05)
(-0.000373249 -0.000264653 1.97315e-05)
(-0.0003663 -0.000262503 6.58462e-06)
(-5.61926e-05 1.77097e-05 4.28387e-05)
(-0.000101048 1.14395e-05 -1.63339e-05)
(-8.77249e-05 -6.26975e-07 -1.00857e-05)
(-4.60431e-05 4.38248e-06 8.57583e-06)
(-9.70531e-06 1.00372e-05 4.72915e-06)
(1.8114e-05 1.198e-05 1.13377e-06)
(2.17926e-05 1.29931e-05 4.55925e-06)
(1.40579e-05 1.19091e-05 -1.18272e-06)
(-6.16871e-06 -4.55793e-06 -1.01819e-05)
(-4.63391e-05 -3.67033e-05 -1.10254e-05)
(-0.000127536 -9.46186e-05 -3.49716e-06)
(-0.000202702 -0.000138427 1.2917e-05)
(-0.000274567 -0.00017426 3.11525e-05)
(-0.000331315 -0.000198514 4.87402e-05)
(-0.000376452 -0.000216308 6.53731e-05)
(-0.000403976 -0.000226472 7.90914e-05)
(-0.000420611 -0.000233928 9.00819e-05)
(-0.000427274 -0.000239041 9.76148e-05)
(-0.000426619 -0.000242161 0.000101323)
(-0.00042106 -0.000243211 0.000101233)
(-0.000414012 -0.000242974 9.87893e-05)
(-0.000403132 -0.000240358 9.44887e-05)
(-0.000383175 -0.000235562 8.80593e-05)
(-0.000360613 -0.000230521 8.01566e-05)
(-0.000337543 -0.000226181 7.15472e-05)
(-0.000315298 -0.000220174 6.19536e-05)
(-0.000292023 -0.000212744 5.17017e-05)
(-0.000273111 -0.000206924 4.17213e-05)
(-0.00025639 -0.000201117 3.25505e-05)
(-0.000240417 -0.000195713 2.36726e-05)
(-0.000228632 -0.000192234 1.42005e-05)
(-0.000222656 -0.000189949 4.68019e-06)
(-4.68336e-05 1.52693e-05 3.41544e-05)
(-9.29976e-05 1.1799e-05 -1.40989e-05)
(-8.25552e-05 1.08741e-06 -8.4339e-06)
(-3.90555e-05 3.4746e-06 7.30605e-06)
(6.83865e-06 5.40911e-06 6.88474e-06)
(1.66921e-05 8.45321e-06 1.24779e-05)
(1.9895e-05 1.02628e-05 1.69364e-05)
(1.62312e-05 8.48299e-06 1.92179e-05)
(5.7869e-06 2.09626e-06 1.70438e-05)
(-1.04898e-05 -1.0764e-05 1.19009e-05)
(-5.44446e-05 -4.84811e-05 1.95508e-05)
(-0.00011401 -9.06848e-05 2.71333e-05)
(-0.000165348 -0.000121049 3.41761e-05)
(-0.000212966 -0.000145211 4.2856e-05)
(-0.000247687 -0.000160607 5.17345e-05)
(-0.000276226 -0.000173885 6.16304e-05)
(-0.000291141 -0.000181855 6.98682e-05)
(-0.000295243 -0.000186326 7.5683e-05)
(-0.000290955 -0.000187754 7.80242e-05)
(-0.000281711 -0.00018658 7.67453e-05)
(-0.000271284 -0.000183793 7.35009e-05)
(-0.000258139 -0.000178971 6.90255e-05)
(-0.000242195 -0.000174843 6.39327e-05)
(-0.00022263 -0.000169437 5.71852e-05)
(-0.000202305 -0.000164476 5.03391e-05)
(-0.000182013 -0.000157362 4.28365e-05)
(-0.00016105 -0.000148602 3.44716e-05)
(-0.000143508 -0.000141137 2.65641e-05)
(-0.000128525 -0.000133957 2.00435e-05)
(-0.000112986 -0.00012615 1.39356e-05)
(-0.00010011 -0.000119344 7.76829e-06)
(-9.32647e-05 -0.000114941 2.41801e-06)
(-3.80937e-05 1.2918e-05 2.61693e-05)
(-8.49103e-05 1.13438e-05 -1.30241e-05)
(-7.84921e-05 3.5724e-06 -6.63631e-06)
(-3.54628e-05 4.57259e-06 1.07239e-05)
(-4.24848e-06 1.08385e-05 1.53727e-05)
(8.14372e-06 1.3168e-05 2.00076e-05)
(2.15306e-05 1.56137e-05 2.8589e-05)
(2.87013e-05 1.10471e-05 3.2696e-05)
(2.83217e-05 3.98261e-06 3.49516e-05)
(2.05399e-05 -4.30187e-06 3.45791e-05)
(5.71545e-06 -1.34281e-05 2.85244e-05)
(-1.15523e-05 -2.46116e-05 2.28107e-05)
(-5.59908e-05 -6.77219e-05 3.685e-05)
(-9.9247e-05 -9.39784e-05 3.79313e-05)
(-0.000138912 -0.000115249 4.13618e-05)
(-0.000160432 -0.000125113 4.45885e-05)
(-0.000171596 -0.000131215 4.88612e-05)
(-0.000172831 -0.000133995 5.22154e-05)
(-0.000166378 -0.000133902 5.29581e-05)
(-0.000156254 -0.000131453 5.06373e-05)
(-0.000146754 -0.000128093 4.72007e-05)
(-0.000133092 -0.000120951 4.22162e-05)
(-0.000112265 -0.000109631 3.50887e-05)
(-8.93676e-05 -9.66092e-05 2.70936e-05)
(-6.88071e-05 -8.58339e-05 2.08814e-05)
(-4.83222e-05 -7.15403e-05 1.46962e-05)
(-2.96978e-05 -5.52965e-05 8.26004e-06)
(-1.70172e-05 -4.29804e-05 3.96248e-06)
(-7.47871e-06 -2.93922e-05 1.51952e-06)
(-1.11871e-06 -1.84465e-05 1.88845e-07)
(2.5247e-06 -1.52494e-05 -2.94277e-07)
(5.92966e-06 -2.13676e-05 -2.58775e-07)
(-2.28651e-05 1.27387e-05 2.15825e-05)
(-7.06812e-05 1.23838e-05 -1.40577e-05)
(-7.75895e-05 8.30295e-06 -1.19464e-05)
(-4.79567e-05 1.17001e-05 5.37717e-06)
(-2.65716e-05 2.44748e-05 1.55797e-05)
(-1.27714e-05 3.56306e-05 1.53023e-05)
(5.5826e-06 3.51111e-05 1.48557e-05)
(1.91728e-05 2.31416e-05 1.4542e-05)
(3.11644e-05 1.80625e-05 1.98449e-05)
(4.33255e-05 1.26309e-05 2.94386e-05)
(4.00965e-05 3.74511e-06 3.13518e-05)
(3.33076e-05 -4.6866e-06 3.10188e-05)
(1.60445e-05 -1.27337e-05 2.13725e-05)
(1.20743e-06 -2.13091e-05 1.52123e-05)
(-1.20988e-05 -2.69182e-05 1.11605e-05)
(-3.4743e-05 -5.02384e-05 1.57884e-05)
(-4.6895e-05 -5.97472e-05 1.74971e-05)
(-4.74997e-05 -6.10249e-05 1.79062e-05)
(-3.95009e-05 -5.64816e-05 1.58061e-05)
(-2.88849e-05 -4.84474e-05 1.16203e-05)
(-1.88164e-05 -3.69671e-05 6.97963e-06)
(-9.10596e-06 -2.2558e-05 2.60378e-06)
(-3.73526e-06 -1.90534e-05 -1.80546e-08)
(1.87654e-06 -1.48868e-05 -2.33604e-06)
(8.23171e-06 -1.15082e-05 -4.07188e-06)
(1.13641e-05 -5.0097e-06 -3.81163e-06)