/*--------------------------------*- C++ -*----------------------------------*\
  =========                 |
  \\      /  F ield         | OpenFOAM: The Open Source CFD Toolbox
   \\    /   O peration     | Website:  https://openfoam.org
    \\  /    A nd           | Version:  6
     \\/     M anipulation  |
\*---------------------------------------------------------------------------*/
FoamFile
{
    version     2.0;
    format      ascii;
    class       volScalarField;
    location    "1.4";
    object      k;
}
// * * * * * * * * * * * * * * * * * * * * * * * * * * * * * * * * * * * * * //

dimensions      [0 2 -2 0 0 0 0];

internalField   nonuniform List<scalar> 
63280
(
0.000588408
0.000604928
0.000618865
0.00063123
0.000639104
0.000645633
0.000647118
0.000643714
0.00063371
0.00061932
0.00060303
0.000583901
0.000563338
0.00054098
0.000516114
0.000493296
0.000468409
0.000492423
0.000497613
0.000503264
0.000505799
0.000508063
0.000507339
0.000505436
0.00049946
0.000492288
0.000482816
0.00047293
0.00046312
0.000452684
0.000444438
0.000434603
0.000427148
0.000416686
0.000416001
0.00041864
0.000421117
0.000423095
0.000424169
0.000424984
0.000424529
0.000421689
0.000417367
0.000411295
0.000404752
0.000396767
0.000388079
0.000379473
0.000371003
0.000364017
0.000358034
0.00035404
0.000357758
0.000361415
0.000365264
0.000368372
0.000371606
0.000373619
0.000374268
0.000372687
0.000369672
0.000365011
0.000360123
0.000353857
0.00034776
0.000340864
0.000333873
0.000327767
0.00030389
0.000306744
0.000310016
0.000312335
0.000313814
0.000315002
0.00031478
0.000314709
0.000312722
0.000310557
0.000306433
0.000302496
0.000298197
0.00029455
0.000292201
0.000289388
0.000288373
0.000260799
0.000262043
0.000263868
0.000265336
0.000266652
0.000266857
0.000266902
0.000266155
0.000266071
0.000265483
0.000265199
0.000263293
0.000261465
0.000257804
0.000255437
0.000252074
0.00025078
0.000224557
0.000226191
0.000228507
0.000231106
0.000233403
0.000234754
0.000235194
0.000234568
0.000234289
0.00023404
0.000234998
0.000235649
0.000236656
0.000236071
0.000235408
0.00023309
0.000231467
0.000194658
0.000196041
0.000197877
0.00019925
0.000200723
0.000200778
0.000200333
0.000198716
0.000197009
0.000195894
0.000195371
0.000196146
0.00019739
0.000198881
0.000200563
0.000201317
0.000202483
0.000169385
0.000170721
0.000172201
0.000173661
0.000175311
0.000176526
0.000177342
0.000176882
0.000175897
0.000174346
0.000173301
0.00017256
0.000172889
0.00017326
0.000174512
0.000175155
0.000176685
0.000148489
0.000149925
0.00015151
0.000152369
0.000153466
0.000153809
0.000153886
0.000153039
0.000151532
0.000149681
0.000148153
0.000147012
0.000146992
0.000147239
0.000148521
0.000149474
0.000151246
0.000128647
0.000129509
0.000130387
0.000130949
0.000131716
0.000132431
0.000133542
0.000134251
0.000134849
0.00013426
0.000133555
0.000131972
0.000130976
0.000130023
0.000130028
0.000130128
0.000131146
0.000111573
0.000112474
0.000112966
0.000113613
0.000114235
0.000115076
0.000116297
0.000117485
0.000118455
0.000118463
0.000117626
0.000115813
0.00011389
0.000112103
0.000111333
0.000110944
0.000111625
9.70939e-05
9.73487e-05
9.74515e-05
9.75235e-05
9.77133e-05
9.79826e-05
9.85871e-05
9.91817e-05
0.000100149
0.000100647
0.000101197
0.000100805
0.000100284
9.92154e-05
9.85012e-05
9.77609e-05
9.77886e-05
8.32525e-05
8.32318e-05
8.32745e-05
8.34511e-05
8.38351e-05
8.43677e-05
8.50442e-05
8.56968e-05
8.6529e-05
8.73318e-05
8.83063e-05
8.90719e-05
8.96977e-05
8.98707e-05
8.99459e-05
8.95563e-05
8.95632e-05
6.97172e-05
6.91967e-05
6.90915e-05
6.93602e-05
6.98854e-05
7.04384e-05
7.10001e-05
7.14107e-05
7.19845e-05
7.24303e-05
7.32453e-05
7.38245e-05
7.4691e-05
7.52228e-05
7.58683e-05
7.61868e-05
7.67517e-05
5.59851e-05
5.55185e-05
5.59449e-05
5.69744e-05
5.82081e-05
5.92901e-05
6.01088e-05
6.06151e-05
6.10526e-05
6.13875e-05
6.18805e-05
6.23012e-05
6.28319e-05
6.32244e-05
6.36391e-05
6.38872e-05
6.43388e-05
4.4267e-05
4.39271e-05
4.44179e-05
4.54682e-05
4.66499e-05
4.7565e-05
4.81273e-05
4.8415e-05
4.86304e-05
4.88505e-05
4.91697e-05
4.95128e-05
4.99446e-05
5.02676e-05
5.06983e-05
5.09045e-05
5.13735e-05
3.32622e-05
3.32722e-05
3.36534e-05
3.43824e-05
3.53253e-05
3.62594e-05
3.70522e-05
3.75961e-05
3.79741e-05
3.82594e-05
3.85377e-05
3.88221e-05
3.91177e-05
3.92951e-05
3.94977e-05
3.95947e-05
3.98216e-05
2.46029e-05
2.44841e-05
2.40438e-05
2.35349e-05
2.31413e-05
2.30159e-05
2.31336e-05
2.34827e-05
2.3848e-05
2.42499e-05
2.45909e-05
2.49637e-05
2.54124e-05
2.58637e-05
2.62488e-05
2.65781e-05
2.67588e-05
2.69311e-05
1.91709e-05
1.82446e-05
1.69074e-05
1.5556e-05
1.44866e-05
1.36977e-05
1.32215e-05
1.28529e-05
1.27619e-05
1.26538e-05
1.27413e-05
1.28893e-05
1.28452e-05
1.32989e-05
1.32529e-05
1.34237e-05
1.36915e-05
1.36919e-05
3.93051e-05
3.82832e-05
3.69388e-05
3.71691e-05
3.79831e-05
3.80703e-05
3.76429e-05
3.79355e-05
3.84334e-05
3.94092e-05
3.63885e-05
3.7034e-05
3.58602e-05
3.66509e-05
3.73514e-05
3.81409e-05
3.88026e-05
3.91265e-05
0.00107911
0.00108335
0.00108691
0.00109096
0.00109427
0.00109797
0.00110124
0.00110416
0.00110736
0.00110946
0.00111134
0.00111242
0.00111213
0.0011126
0.0011103
0.00111046
0.00110575
0.00106319
0.00106544
0.00106856
0.00107108
0.00107427
0.00107677
0.0010798
0.00108222
0.00108497
0.0010879
0.00108964
0.00109191
0.00109127
0.00109217
0.00108987
0.00109016
0.00108779
0.00104543
0.00104737
0.00104919
0.00105135
0.00105337
0.00105544
0.00105795
0.00105966
0.00106179
0.00106323
0.00106484
0.00106667
0.00106759
0.00106882
0.00106846
0.00106803
0.00106705
0.0010226
0.00102416
0.001026
0.00102863
0.00103083
0.00103328
0.00103577
0.00103898
0.00104221
0.00104548
0.00104719
0.00104891
0.00104926
0.00104966
0.00104997
0.00104921
0.00104934
0.000998147
0.000999908
0.00100276
0.00100671
0.00100972
0.00101332
0.00101513
0.00101839
0.00102102
0.00102529
0.0010281
0.00103021
0.00103079
0.00102939
0.00102926
0.00102713
0.00102783
0.000977336
0.000978078
0.000979781
0.00098203
0.000985618
0.00098853
0.000991368
0.00099241
0.000993743
0.000994659
0.00099761
0.000999526
0.00100315
0.00100351
0.00100501
0.00100348
0.00100397
0.000950581
0.000950945
0.000951995
0.000954433
0.000958659
0.000963255
0.000967757
0.000969756
0.000970897
0.000970216
0.000971164
0.000972057
0.000975731
0.000978049
0.000981693
0.000982355
0.000984122
0.000922046
0.000923488
0.000926205
0.00092862
0.000933166
0.000937146
0.000941349
0.0009438
0.000943793
0.000943238
0.000941923
0.000942198
0.000944255
0.000946751
0.000951153
0.000953506
0.000957244
0.000893093
0.00089536
0.000897879
0.000900014
0.000903285
0.000906836
0.000911641
0.000915106
0.000917317
0.000916957
0.000916065
0.000914409
0.000915055
0.000915735
0.000919255
0.000921171
0.000925555
0.000861719
0.000864917
0.000869407
0.000872213
0.000876068
0.000879569
0.000883991
0.000887859
0.000889967
0.000889411
0.000887739
0.000884704
0.000883883
0.000883114
0.000885709
0.000887388
0.000891832
0.000831078
0.00083371
0.000836921
0.000838963
0.00084106
0.000842426
0.000845487
0.00084858
0.000853545
0.000856036
0.000858468
0.000857231
0.000856064
0.000853593
0.000853508
0.000853104
0.000856056
0.000796487
0.00079956
0.000801541
0.000803385
0.000804773
0.000806065
0.000809096
0.000813737
0.000820607
0.000826872
0.000831604
0.000831992
0.000829464
0.000824056
0.000820581
0.000817361
0.000818681
0.000762879
0.00076481
0.000766131
0.000766805
0.000767625
0.00076835
0.000770533
0.000772665
0.000777236
0.000780887
0.000786066
0.000788302
0.000789666
0.000787785
0.000786258
0.000783422
0.000784045
0.000722888
0.000722902
0.000722765
0.000722838
0.00072377
0.000725415
0.000728007
0.000730434
0.000733684
0.000736767
0.000741049
0.000745143
0.00074945
0.000751984
0.000754366
0.000753839
0.000755017
0.000677701
0.000674099
0.000672144
0.000672348
0.000674676
0.000677917
0.000681791
0.000684697
0.000688301
0.000690702
0.000695006
0.000698161
0.000702942
0.000706214
0.000710066
0.000711766
0.000714743
0.000616972
0.000609345
0.000607333
0.000610706
0.000617403
0.000624586
0.000630786
0.000634873
0.000638163
0.000640397
0.000643559
0.000646464
0.000650319
0.000653526
0.000656941
0.000658838
0.000661896
0.000551046
0.000543897
0.000543188
0.000548584
0.00055742
0.000566004
0.000572421
0.000576311
0.000578881
0.00058084
0.000583238
0.000585815
0.000589225
0.000591927
0.00059547
0.00059707
0.000600401
0.000469022
0.000466263
0.000466661
0.000470929
0.000478308
0.000486678
0.000494466
0.000500224
0.000504289
0.000507241
0.000510019
0.000512918
0.000516268
0.00051869
0.000521154
0.000522334
0.000524356
0.000397872
0.000397951
0.000394065
0.00038832
0.000383093
0.000380673
0.0003812
0.000384795
0.000388925
0.00039345
0.000397058
0.000400736
0.000405319
0.00041039
0.000415066
0.000419291
0.000421707
0.000423696
0.000339813
0.00033332
0.000319393
0.000302134
0.000286539
0.000273824
0.000265799
0.000259612
0.000258256
0.000256468
0.000257823
0.000260355
0.000259364
0.000266502
0.000266512
0.000268724
0.000273286
0.000274205
0.000136146
0.000135021
0.000132939
0.000132747
0.000132899
0.000132977
0.000133672
0.000134355
0.000134324
0.000133006
0.000131892
0.000131158
0.000131237
0.000132745
0.000133673
0.000134669
0.000135428
0.000135317
0.00112363
0.00112822
0.00113218
0.00113712
0.00114147
0.00114641
0.00115148
0.00115614
0.00116181
0.00116623
0.00117051
0.00117464
0.00117656
0.00118051
0.00118012
0.00118431
0.00118115
0.00110881
0.00111112
0.00111457
0.00111757
0.00112161
0.00112505
0.00112956
0.00113364
0.00113794
0.00114335
0.0011471
0.0011529
0.00115446
0.00115887
0.00115817
0.00116129
0.00116051
0.00109158
0.00109369
0.00109558
0.00109818
0.00110085
0.0011035
0.00110744
0.00111051
0.00111439
0.00111762
0.00112086
0.00112527
0.00112834
0.00113269
0.00113485
0.00113701
0.00113813
0.00106926
0.00107049
0.00107198
0.00107487
0.00107752
0.00108057
0.00108372
0.0010879
0.00109241
0.00109784
0.00110152
0.00110575
0.00110837
0.00111089
0.00111381
0.00111505
0.00111803
0.00104435
0.00104589
0.00104825
0.00105289
0.00105631
0.00106142
0.00106408
0.00106869
0.00107229
0.00107858
0.00108387
0.00108877
0.00109258
0.00109284
0.00109504
0.00109356
0.00109607
0.00102598
0.00102651
0.00102796
0.00102983
0.00103389
0.00103768
0.00104221
0.00104463
0.00104726
0.00104876
0.00105337
0.00105657
0.00106325
0.00106569
0.00107016
0.0010701
0.00107266
0.00100062
0.0010006
0.00100093
0.00100246
0.00100657
0.0010117
0.00101818
0.00102205
0.00102527
0.00102528
0.00102708
0.00102787
0.00103301
0.00103653
0.00104292
0.00104544
0.00105021
0.000973117
0.000974207
0.000977067
0.000979008
0.000983977
0.000988979
0.000995052
0.00100037
0.00100245
0.0010037
0.00100311
0.00100323
0.00100588
0.00100839
0.00101452
0.00101787
0.00102399
0.000946127
0.000948029
0.000950577
0.000952359
0.000955668
0.000959265
0.000965321
0.000970805
0.000975603
0.000977346
0.000978144
0.000976759
0.000978002
0.000978463
0.000983332
0.000985766
0.00099226
0.000915958
0.000918576
0.000923653
0.000926761
0.000931265
0.000935687
0.000941668
0.000948219
0.000953788
0.000956177
0.000957116
0.000954602
0.000954163
0.000952439
0.000955384
0.000956755
0.000962612
0.000890144
0.000892466
0.000896071
0.000898337
0.000900813
0.000901925
0.000905249
0.000908481
0.000915391
0.000919893
0.000925496
0.000926513
0.000927178
0.000924977
0.000925494
0.000924523
0.000928543
0.000859067
0.000862145
0.000864354
0.000866118
0.000867446
0.000867946
0.000870414
0.000874895
0.000883451
0.000892898
0.000902635
0.000907932
0.000909634
0.000905604
0.000902655
0.000897864
0.000898945
0.000830493
0.000832744
0.000834612
0.000835463
0.000836456
0.000836879
0.000839319
0.000841218
0.000846816
0.000851572
0.000859471
0.000864618
0.000869244
0.000869345
0.000869584
0.000866564
0.000868134
0.000796186
0.000796157
0.000795643
0.000794851
0.000794846
0.000795534
0.000797854
0.000800078
0.0008037
0.000806994
0.000812029
0.000817056
0.000823135
0.000827097
0.000831877
0.000832242
0.000835323
0.000760599
0.000756295
0.00075265
0.000750897
0.000752055
0.000755117
0.000760087
0.000764064
0.000769293
0.000772527
0.000778084
0.00078192
0.000787819
0.000791909
0.000797195
0.000799276
0.000803545
0.000711677
0.000699605
0.000691411
0.000689441
0.000693367
0.00070021
0.00070786
0.000713656
0.000718695
0.000721946
0.000726172
0.000729867
0.00073498
0.000739401
0.000744681
0.000747506
0.000752289
0.000654416
0.000642333
0.000634773
0.000634668
0.000641604
0.000651775
0.000661629
0.000668975
0.000674278
0.000677974
0.00068141
0.0006846
0.000688788
0.000692183
0.000697113
0.000699233
0.00070378
0.000576201
0.00056969
0.000564803
0.00056389
0.000567822
0.000574979
0.000583652
0.00059127
0.000597282
0.000601723
0.000605637
0.000609399
0.000614116
0.000618057
0.0006224
0.00062471
0.000628018
0.000520127
0.000523383
0.000523715
0.000520812
0.000515903
0.000511868
0.000510189
0.000512597
0.000516686
0.000521809
0.000525771
0.000528965
0.000532544
0.000537096
0.000541903
0.000547434
0.000551079
0.000554246
0.000475057
0.000482577
0.000482568
0.000473728
0.000460493
0.000445157
0.000433822
0.000423399
0.000421867
0.0004185
0.000420732
0.000424708
0.000422209
0.000431334
0.000432812
0.000434034
0.000440643
0.000444881
0.000190987
0.000190383
0.000188062
0.00018734
0.00018728
0.000187282
0.000188289
0.000189279
0.000189552
0.000188085
0.000186713
0.000185585
0.000185665
0.000187356
0.000188342
0.00018937
0.000190247
0.000190034
0.00111605
0.00111979
0.00112292
0.00112732
0.00113142
0.00113615
0.00114169
0.00114669
0.00115366
0.00115978
0.00116563
0.00117239
0.00117615
0.00118339
0.00118501
0.00119334
0.00119243
0.00110409
0.00110595
0.00110893
0.00111162
0.00111564
0.0011191
0.00112396
0.00112895
0.00113389
0.0011411
0.00114599
0.0011546
0.0011578
0.00116521
0.00116599
0.00117154
0.00117239
0.00108945
0.00109127
0.00109268
0.00109493
0.00109764
0.00109995
0.0011043
0.00110789
0.00111263
0.00111723
0.00112127
0.00112765
0.00113218
0.00113904
0.00114342
0.00114791
0.00115103
0.00106899
0.00106949
0.00107004
0.00107242
0.00107485
0.0010778
0.00108087
0.0010852
0.00108999
0.00109672
0.0011016
0.00110756
0.00111202
0.00111606
0.00112117
0.00112408
0.00112967
0.00104413
0.00104538
0.00104663
0.0010513
0.00105447
0.00106028
0.00106333
0.00106859
0.00107243
0.00107955
0.00108645
0.00109313
0.00109985
0.00110148
0.00110576
0.00110495
0.00110883
0.00102804
0.00102837
0.00102932
0.00103034
0.00103406
0.0010379
0.0010433
0.00104671
0.00105032
0.00105192
0.00105743
0.00106099
0.00106973
0.0010738
0.00108067
0.00108203
0.00108642
0.0010037
0.00100341
0.00100309
0.00100339
0.00100667
0.00101127
0.0010187
0.00102384
0.00102885
0.00102952
0.00103201
0.00103223
0.00103797
0.00104191
0.00105016
0.00105408
0.00106143
0.000976206
0.000976932
0.000979786
0.000981079
0.000985567
0.000990695
0.000997307
0.00100473
0.0010086
0.00101137
0.00101179
0.0010114
0.0010144
0.00101634
0.00102348
0.00102744
0.00103545
0.00094999
0.000951322
0.000953778
0.00095509
0.000958059
0.000961084
0.000967234
0.000973817
0.000980465
0.000983987
0.000986448
0.000985299
0.000986933
0.00098677
0.000992378
0.000994964
0.001003
0.000919617
0.0009214
0.000926515
0.000929769
0.000934235
0.000938794
0.000945042
0.00095285
0.000960932
0.000965643
0.000969209
0.000967541
0.000967671
0.000965055
0.000967994
0.00096881
0.000975681
0.000895886
0.000897556
0.000901122
0.000903436
0.000906168
0.00090697
0.000910228
0.000912967
0.000920693
0.000926281
0.000933998
0.000936942
0.000939272
0.000937309
0.000938367
0.000936732
0.000941503
0.000865488
0.000868105
0.00087052
0.000872172
0.000873619
0.000873573
0.000875267
0.000878648
0.000887136
0.000897605
0.000910324
0.000919336
0.000925167
0.00092312
0.000921406
0.000915628
0.00091642
0.00083826
0.000840337
0.00084248
0.000843368
0.000844414
0.000844365
0.000846824
0.000848284
0.000854207
0.000859347
0.000868649
0.000875868
0.000883096
0.000884928
0.000886964
0.000883841
0.000886039
0.000805708
0.00080566
0.000805043
0.000803673
0.000802839
0.000802426
0.000804216
0.000806041
0.000809855
0.000813257
0.00081871
0.000824149
0.000831362
0.000835994
0.000842568
0.000843566
0.000848161
0.000774071
0.00076981
0.000765278
0.00076183
0.000761348
0.000763327
0.000768486
0.000773004
0.000779389
0.000783452
0.000789966
0.000794532
0.000801212
0.000805834
0.000812315
0.000814706
0.000820202
0.000731944
0.000718904
0.000707017
0.000700243
0.000700305
0.000705119
0.00071277
0.000719499
0.000725938
0.000730225
0.000735367
0.000739655
0.000745552
0.000750576
0.00075726
0.000760769
0.000767102
0.000677579
0.000664599
0.000653013
0.000647611
0.000650586
0.000659544
0.000670628
0.000680263
0.000687893
0.000693488
0.000698135
0.000702068
0.000706722
0.000710475
0.000716336
0.000718924
0.000724546
0.000601679
0.000594341
0.000587076
0.00058261
0.000582962
0.000587441
0.00059505
0.000602992
0.000610018
0.000615508
0.000620249
0.000624376
0.000629537
0.000634044
0.000639474
0.000642558
0.000647078
0.000550323
0.000555298
0.000559716
0.000561588
0.000560437
0.000557969
0.000555991
0.00055745
0.000561234
0.000566453
0.000570994
0.000574328
0.000577126
0.000580809
0.000584513
0.000589846
0.000593709
0.000597794
0.000523435
0.0005389
0.000549552
0.000549713
0.00054193
0.000527048
0.000514965
0.000500641
0.000499234
0.000493584
0.000496531
0.000501596
0.000498136
0.000508474
0.000511533
0.00051122
0.000518183
0.000525623
0.00024289
0.000243483
0.000241324
0.000240019
0.000239637
0.000239377
0.000240347
0.000241495
0.000242386
0.000240985
0.000239596
0.000238101
0.000237697
0.000239334
0.000240308
0.000241329
0.000242432
0.000242392
0.00109792
0.00110058
0.00110261
0.001106
0.00110938
0.0011132
0.00111848
0.00112294
0.00112997
0.00113692
0.00114325
0.00115164
0.00115633
0.00116582
0.00116864
0.00118011
0.00118109
0.00108758
0.00108889
0.0010911
0.0010931
0.00109664
0.0010996
0.00110399
0.00110918
0.00111382
0.00112193
0.00112696
0.00113731
0.00114141
0.00115105
0.00115298
0.00116034
0.00116249
0.00107493
0.0010763
0.00107705
0.00107853
0.00108097
0.00108249
0.00108649
0.00109003
0.00109477
0.00110025
0.00110431
0.00111182
0.00111696
0.00112538
0.00113135
0.00113769
0.00114253
0.00105604
0.00105575
0.00105519
0.00105668
0.00105855
0.00106106
0.00106362
0.00106758
0.00107187
0.00107907
0.00108446
0.00109131
0.00109705
0.00110195
0.00110858
0.00111264
0.00112029
0.00103076
0.0010318
0.00103174
0.00103591
0.00103846
0.00104435
0.00104746
0.00105286
0.00105643
0.00106336
0.00107096
0.00107835
0.00108738
0.00109021
0.00109624
0.00109621
0.00110115
0.00101618
0.00101644
0.00101689
0.00101687
0.0010197
0.00102297
0.0010285
0.00103252
0.00103695
0.00103836
0.00104421
0.00104743
0.0010572
0.00106237
0.00107105
0.00107368
0.00107974
0.000992627
0.000992216
0.000991487
0.000990518
0.000992557
0.000995871
0.00100329
0.00100908
0.0010156
0.00101696
0.0010202
0.00101967
0.00102532
0.00102903
0.00103829
0.00104304
0.00105245
0.000964848
0.000965264
0.000968009
0.000968694
0.00097213
0.000976734
0.000982815
0.000991417
0.000996845
0.00100085
0.00100263
0.00100166
0.00100476
0.00100581
0.00101323
0.00101738
0.00102676
0.000939457
0.000940064
0.000942285
0.000943097
0.000945483
0.000947593
0.000952926
0.000959739
0.000967579
0.000972542
0.000976725
0.000975944
0.00097791
0.000976895
0.00098264
0.000985027
0.000993962
0.000908982
0.000909793
0.000914416
0.000917665
0.000921703
0.000925852
0.000931499
0.000939287
0.000948974
0.000955464
0.000961585
0.000961168
0.000962153
0.000958865
0.000961512
0.000961505
0.00096883
0.000886789
0.000887613
0.000890735
0.000892879
0.000895731
0.000896192
0.000899134
0.000900964
0.000908597
0.000914564
0.000923546
0.000928116
0.000932144
0.00093055
0.000932134
0.000929813
0.000934875
0.000856826
0.000858655
0.000861089
0.000862597
0.000864192
0.000863815
0.000864725
0.000866481
0.000873689
0.000883521
0.000897461
0.000909016
0.000918745
0.000919272
0.000919488
0.000913459
0.000913954
0.000830443
0.000832025
0.000834185
0.000835042
0.000836073
0.000835447
0.00083762
0.000838462
0.000844083
0.000849059
0.000858695
0.000867162
0.000876511
0.000879959
0.000883894
0.000881006
0.000883561
0.000799328
0.000799274
0.000798757
0.000797117
0.00079565
0.000794088
0.00079505
0.00079618
0.000799825
0.000803086
0.000808565
0.000813915
0.000821722
0.000826478
0.000834242
0.000835715
0.000841359
0.000770895
0.000767355
0.000762671
0.000758012
0.000755738
0.000755945
0.000760327
0.00076474
0.000771598
0.000776256
0.000783269
0.000788385
0.000795538
0.00080033
0.00080762
0.000810174
0.000816515
0.000735663
0.000724119
0.000710797
0.000700265
0.000696035
0.000697506
0.000703646
0.000710261
0.000717383
0.000722434
0.000728191
0.000732832
0.000739139
0.000744253
0.000751766
0.000755665
0.000763015
0.000685669
0.000674268
0.000661133
0.000651524
0.000649689
0.000655342
0.000665489
0.000675892
0.000684951
0.000692103
0.000697831
0.000702516
0.0007074
0.000711181
0.000717407
0.000720203
0.000726391
0.000617149
0.000610444
0.000602948
0.000596874
0.000594603
0.000596153
0.00060149
0.000608371
0.000615284
0.000621067
0.000626177
0.000630265
0.000635217
0.000639482
0.000645132
0.000648302
0.000653466
0.00057074
0.000576904
0.000585389
0.000592951
0.000597517
0.000598816
0.00059842
0.000599492
0.000603168
0.00060806
0.000612992
0.000616708
0.000618906
0.000621899
0.000624194
0.000628462
0.000631564
0.000636032
0.00056538
0.000585444
0.000604475
0.000612901
0.000611496
0.00059831
0.000587109
0.000568991
0.000568181
0.000559788
0.000563434
0.000569278
0.00056511
0.000576348
0.000581246
0.00057989
0.000586128
0.000596621
0.000293375
0.000295758
0.000294391
0.000292566
0.000291662
0.000290946
0.000291641
0.000292617
0.000294279
0.000293188
0.000292191
0.000290363
0.000289227
0.000290566
0.000291381
0.000292283
0.000293613
0.000293993
0.00107782
0.00107938
0.00108031
0.00108251
0.00108501
0.00108757
0.00109213
0.00109559
0.00110174
0.00110879
0.00111474
0.00112381
0.00112865
0.00113939
0.0011426
0.00115601
0.00115829
0.00106813
0.00106891
0.00107031
0.00107143
0.00107428
0.00107652
0.00107991
0.0010848
0.00108848
0.00109674
0.00110113
0.00111225
0.00111654
0.00112753
0.00113025
0.00113876
0.00114174
0.00105697
0.00105786
0.00105798
0.00105846
0.00106048
0.00106107
0.0010642
0.00106731
0.00107132
0.00107727
0.0010808
0.00108874
0.00109382
0.00110287
0.00110971
0.00111728
0.00112344
0.00103939
0.00103847
0.00103683
0.00103723
0.00103833
0.00104022
0.00104204
0.00104537
0.0010486
0.00105557
0.00106092
0.00106794
0.0010744
0.00107963
0.00108709
0.00109172
0.00110078
0.00101341
0.00101439
0.00101311
0.00101644
0.00101817
0.00102367
0.00102659
0.00103181
0.00103486
0.00104087
0.00104843
0.00105554
0.0010661
0.0010699
0.00107727
0.00107803
0.00108378
0.000999719
0.00100008
0.00100022
0.000999216
0.00100087
0.00100314
0.0010082
0.00101236
0.00101748
0.0010186
0.00102444
0.00102686
0.0010367
0.00104237
0.00105223
0.00105587
0.00106338
0.000976901
0.000976495
0.000975679
0.000973672
0.000974377
0.00097597
0.000982542
0.000988305
0.000995971
0.000998014
0.00100209
0.00100095
0.00100599
0.00100896
0.00101843
0.0010234
0.00103418
0.000948781
0.000948974
0.000951581
0.000951901
0.000954086
0.000957795
0.000962591
0.000971311
0.000977973
0.000982872
0.000986254
0.000984905
0.000987898
0.000987945
0.000994994
0.000998855
0.00100899
0.000924531
0.000924377
0.000926259
0.000926653
0.000928394
0.000929541
0.000933462
0.000939667
0.000948019
0.000953962
0.000959838
0.000959635
0.000961999
0.000960121
0.000965468
0.000967326
0.000976498
0.000894253
0.000894151
0.000897906
0.000901021
0.000904521
0.000907987
0.000912566
0.000919258
0.000929513
0.000937086
0.000945422
0.000946553
0.000948712
0.000945143
0.000947377
0.000946376
0.000953535
0.000873345
0.000873362
0.000875801
0.000877596
0.000880463
0.000880639
0.000883166
0.000883906
0.00089073
0.000896456
0.000905917
0.000911657
0.00091737
0.000916362
0.000918497
0.000915582
0.000920447
0.000843949
0.0008449
0.000847155
0.000848524
0.000850284
0.000849813
0.000850184
0.000850273
0.000855534
0.000863524
0.000877027
0.000889655
0.000902518
0.000905864
0.000908528
0.00090307
0.000903407
0.00081844
0.000819401
0.000821388
0.000822208
0.000823264
0.000822118
0.000823763
0.000823885
0.000828717
0.000833114
0.000842233
0.000851029
0.000861892
0.00086675
0.000872533
0.000870286
0.000872998
0.0007889
0.000788891
0.000788655
0.000787101
0.000785361
0.000782842
0.000782827
0.000783041
0.000786163
0.000789049
0.000794248
0.000799124
0.000807066
0.000811558
0.000819868
0.000821631
0.00082776
0.000763438
0.000761255
0.000757214
0.0007521
0.000748336
0.000746496
0.000749264
0.000752875
0.000759435
0.000764299
0.000771347
0.000776721
0.000784112
0.000788802
0.000796458
0.000799037
0.000805694
0.000735265
0.000727061
0.000714564
0.000702035
0.000694075
0.000691659
0.000695076
0.000700478
0.000707379
0.000712735
0.000718739
0.000723492
0.000729921
0.000734775
0.000742501
0.000746494
0.000754159
0.0006923
0.000683934
0.000671486
0.000659598
0.000653524
0.000654899
0.000662358
0.000671873
0.00068114
0.000689095
0.000695525
0.000700828
0.000705821
0.000709419
0.000715501
0.000718206
0.000724298
0.000635672
0.000630116
0.000623811
0.000618076
0.00061495
0.000614634
0.000617737
0.000622958
0.000628992
0.00063437
0.000639419
0.000643169
0.00064756
0.000651032
0.000656195
0.000658723
0.000663765
0.000593961
0.000600684
0.000612438
0.000625239
0.000636058
0.000642336
0.000645287
0.000646957
0.000651325
0.000656012
0.000661327
0.000665694
0.000667565
0.000670399
0.000671694
0.000674842
0.000676636
0.000681124
0.000608248
0.000629629
0.000653963
0.000668574
0.000673287
0.00066214
0.000653145
0.000631276
0.000631561
0.000620183
0.000624436
0.000631041
0.000626121
0.00063814
0.000645085
0.000643494
0.000648499
0.000661849
0.000343082
0.000347548
0.000347679
0.000345621
0.000344037
0.000342623
0.000342902
0.000343282
0.000345702
0.000344998
0.000344825
0.000342915
0.000340988
0.000341856
0.000342321
0.000342936
0.000344387
0.000345383
0.00105797
0.00105856
0.00105857
0.00105959
0.00106127
0.00106253
0.00106615
0.00106853
0.00107319
0.00107978
0.00108481
0.00109377
0.00109818
0.00110929
0.00111222
0.00112639
0.00112926
0.00104824
0.0010486
0.00104933
0.00104956
0.00105164
0.00105321
0.00105537
0.00105969
0.00106203
0.00106991
0.00107317
0.00108421
0.00108813
0.00109963
0.00110274
0.0011118
0.00111511
0.0010382
0.00103865
0.00103836
0.0010378
0.00103933
0.00103913
0.0010411
0.00104362
0.00104638
0.0010524
0.00105513
0.00106294
0.00106753
0.00107642
0.00108346
0.00109159
0.00109859
0.00102168
0.00102041
0.00101795
0.00101723
0.00101747
0.00101871
0.0010197
0.00102236
0.00102427
0.00103047
0.00103538
0.00104199
0.0010487
0.00105386
0.00106157
0.00106625
0.001076
0.000994961
0.000996005
0.000993866
0.000996201
0.000997043
0.00100184
0.00100439
0.00100926
0.00101181
0.00101649
0.00102351
0.00102954
0.00104072
0.00104521
0.00105346
0.00105497
0.00106134
0.000981635
0.000982238
0.000982387
0.00098071
0.000981171
0.000982246
0.000986385
0.000990178
0.000995825
0.000996678
0.00100235
0.00100379
0.00101294
0.00101853
0.00102893
0.00103323
0.00104191
0.000959618
0.00095928
0.000958708
0.000956108
0.000955688
0.000955497
0.000960612
0.000965657
0.000973973
0.000976603
0.000981605
0.000980225
0.000984459
0.000986364
0.00099539
0.001
0.0010114
0.00093131
0.000931337
0.000933802
0.000934099
0.000935173
0.000937907
0.00094107
0.000948868
0.000956281
0.000961659
0.000966719
0.000965393
0.000968233
0.000967353
0.000973587
0.000976725
0.000986942
0.000908578
0.000907726
0.000909208
0.000909334
0.000910511
0.000910899
0.000913211
0.000918104
0.000926273
0.000932611
0.00093999
0.000940597
0.000943535
0.000941039
0.000945647
0.000946721
0.000955544
0.000878881
0.000878056
0.00088077
0.000883619
0.000886649
0.00088942
0.000892865
0.000897756
0.00090753
0.000915355
0.000925286
0.000928041
0.000931653
0.000928329
0.000930253
0.000928281
0.000934741
0.000859127
0.000858537
0.000860252
0.000861596
0.000864398
0.000864417
0.000866574
0.000866283
0.000871824
0.000876778
0.000886012
0.000892333
0.000899558
0.0008994
0.000902194
0.000898952
0.000903253
0.000830657
0.000830835
0.00083277
0.000834014
0.000835956
0.000835603
0.000835807
0.000834597
0.000837797
0.000843307
0.000855048
0.000867187
0.000881922
0.000887847
0.000893175
0.000889092
0.000889592
0.000806361
0.000806746
0.000808467
0.000809288
0.000810492
0.000809067
0.000810096
0.000809488
0.000813208
0.000816724
0.000824729
0.000832955
0.000844546
0.000850482
0.000857874
0.000856665
0.000859485
0.00077882
0.00077896
0.000779169
0.000778052
0.000776483
0.000773419
0.000772472
0.000771673
0.000773967
0.000776263
0.000780954
0.0007851
0.000792789
0.000796796
0.00080505
0.000806918
0.000812969
0.000756426
0.000756091
0.00075346
0.000748793
0.000744227
0.000740558
0.000741204
0.000743379
0.000748879
0.000753434
0.00076006
0.000765309
0.000772683
0.000777114
0.000784697
0.000787194
0.000793614
0.000735606
0.00073173
0.000721929
0.000709421
0.000699061
0.000693066
0.000693111
0.00069638
0.000702135
0.000707208
0.000713034
0.000717638
0.000723942
0.000728367
0.000735765
0.000739604
0.000746887
0.000702695
0.000697757
0.000687509
0.000675341
0.000666527
0.000663867
0.000667773
0.00067508
0.000683389
0.000691199
0.000697782
0.000703377
0.000708382
0.000711722
0.000717305
0.000719704
0.000725084
0.00066038
0.000655862
0.000651195
0.000646947
0.000644503
0.000643867
0.000645705
0.000649598
0.000654717
0.000659403
0.000664215
0.000667501
0.0006713
0.000673815
0.000678194
0.000679631
0.000683933
0.000621541
0.000628179
0.000641899
0.000658301
0.000674441
0.000685591
0.000692974
0.000696129
0.000702226
0.000707297
0.000713261
0.000718704
0.000720554
0.000723811
0.000724842
0.000727453
0.000727922
0.000732441
0.000649817
0.000669876
0.000696424
0.000714422
0.00072419
0.000714664
0.000709021
0.000683375
0.00068518
0.000670744
0.000675256
0.000682931
0.000677005
0.000689541
0.000698723
0.00069774
0.000701248
0.000717377
0.000392105
0.000398497
0.000400659
0.000398887
0.000396636
0.000394243
0.000394041
0.000393385
0.000396391
0.000395906
0.000396845
0.000395308
0.000392719
0.000393098
0.000393073
0.000393185
0.000394541