/*--------------------------------*- C++ -*----------------------------------*\
  =========                 |
  \\      /  F ield         | OpenFOAM: The Open Source CFD Toolbox
   \\    /   O peration     | Website:  https://openfoam.org
    \\  /    A nd           | Version:  6
     \\/     M anipulation  |
\*---------------------------------------------------------------------------*/
FoamFile
{
    version     2.0;
    format      ascii;
    class       volVectorField;
    location    "1.4";
    object      U;
}
// * * * * * * * * * * * * * * * * * * * * * * * * * * * * * * * * * * * * * //

dimensions      [0 1 -1 0 0 0 0];

internalField   nonuniform List<vector> 
63280
(
(0.117514 0.00133475 1.46694e-06)
(0.117798 0.000740688 1.0561e-06)
(0.118015 0.000124833 4.8044e-07)
(0.11818 -0.000505165 -3.01687e-07)
(0.118262 -0.00114194 -1.26101e-06)
(0.118295 -0.00177512 -2.33098e-06)
(0.118245 -0.00239066 -3.4147e-06)
(0.118098 -0.00298404 -4.53448e-06)
(0.11784 -0.00354994 -5.38195e-06)
(0.117475 -0.00407933 -6.07333e-06)
(0.117052 -0.00455435 -6.67627e-06)
(0.116563 -0.00496428 -6.85779e-06)
(0.116016 -0.00530418 -7.03781e-06)
(0.115432 -0.00557709 -6.89643e-06)
(0.114764 -0.00578145 -6.55844e-06)
(0.114121 -0.00591688 -5.78229e-06)
(0.113406 -0.00597729 -5.02587e-06)
(0.115337 0.00127268 5.00718e-07)
(0.115455 0.000720297 1.87096e-07)
(0.115554 0.000150386 -3.03647e-07)
(0.115589 -0.000428993 -7.68486e-07)
(0.115586 -0.00100819 -1.28435e-06)
(0.115516 -0.0015771 -1.92794e-06)
(0.115401 -0.00212534 -2.50203e-06)
(0.115205 -0.00264769 -3.03239e-06)
(0.114962 -0.00314078 -3.46423e-06)
(0.114663 -0.00360059 -3.44151e-06)
(0.114312 -0.00401841 -3.16039e-06)
(0.113947 -0.00438328 -2.50105e-06)
(0.113538 -0.00468521 -1.97427e-06)
(0.113174 -0.00492019 -1.47032e-06)
(0.112771 -0.00508919 -1.19592e-06)
(0.112425 -0.00519808 -8.72609e-07)
(0.112018 -0.00525109 -4.42169e-07)
(0.113213 0.00102367 -7.21885e-07)
(0.113271 0.000533205 -8.62199e-07)
(0.113306 2.90368e-05 -1.12935e-06)
(0.113318 -0.000480352 -1.43342e-06)
(0.113293 -0.000986783 -1.77189e-06)
(0.113241 -0.00148301 -2.13598e-06)
(0.113148 -0.00196319 -2.14717e-06)
(0.112982 -0.00242134 -2.21161e-06)
(0.112769 -0.00285311 -2.33022e-06)
(0.112501 -0.00325271 -2.54421e-06)
(0.112206 -0.00361852 -2.74879e-06)
(0.111872 -0.00394599 -2.4552e-06)
(0.111494 -0.00423192 -2.03614e-06)
(0.111111 -0.00446718 -1.38701e-06)
(0.110719 -0.0046447 -8.37363e-07)
(0.110369 -0.00475961 -5.06124e-07)
(0.110062 -0.0048153 -2.75028e-07)
(0.110963 0.000947177 -7.35792e-07)
(0.111067 0.000496949 -1.11543e-06)
(0.111163 3.76638e-05 -1.34935e-06)
(0.11125 -0.00042463 -1.50807e-06)
(0.111305 -0.000881697 -1.83159e-06)
(0.111352 -0.00132588 -2.4224e-06)
(0.111367 -0.00175369 -2.91657e-06)
(0.111336 -0.00216264 -3.12221e-06)
(0.111227 -0.0025512 -2.93353e-06)
(0.111047 -0.00291089 -2.46965e-06)
(0.110793 -0.0032357 -2.09776e-06)
(0.110514 -0.00351865 -1.72993e-06)
(0.110187 -0.00376079 -1.38973e-06)
(0.109851 -0.0039627 -1.16579e-06)
(0.109498 -0.00412493 -7.0055e-07)
(0.109129 -0.00424368 -3.50429e-07)
(0.108797 -0.0043173 2.31716e-08)
(0.108744 0.000735665 -2.08052e-06)
(0.108864 0.000328468 -2.48424e-06)
(0.108986 -8.23285e-05 -2.75504e-06)
(0.109074 -0.000493055 -2.45299e-06)
(0.1091 -0.000899534 -2.32238e-06)
(0.109102 -0.00129251 -2.32028e-06)
(0.109045 -0.00166074 -2.58687e-06)
(0.108985 -0.00199803 -2.89612e-06)
(0.10886 -0.00230886 -2.83039e-06)
(0.1087 -0.00259856 -2.18029e-06)
(0.108449 -0.00287053 -1.17511e-06)
(0.108166 -0.00312065 -3.0877e-07)
(0.107865 -0.00334 3.65792e-07)
(0.107579 -0.0035213 3.61376e-07)
(0.10736 -0.00366182 4.00846e-07)
(0.107136 -0.0037615 2.35958e-07)
(0.106988 -0.00382485 2.31411e-07)
(0.106464 0.00063271 -1.19129e-06)
(0.106513 0.000268694 -1.73988e-06)
(0.106586 -8.93109e-05 -2.33845e-06)
(0.106644 -0.000438074 -2.57705e-06)
(0.106678 -0.000779021 -2.28868e-06)
(0.106645 -0.00110995 -1.7249e-06)
(0.106577 -0.0014262 -1.19171e-06)
(0.106467 -0.00171895 -1.05933e-06)
(0.106376 -0.00198536 -1.43605e-06)
(0.106275 -0.00223072 -1.84078e-06)
(0.106181 -0.0024653 -1.80538e-06)
(0.106013 -0.00269529 -1.42202e-06)
(0.105822 -0.00291582 -6.00079e-07)
(0.105544 -0.00311341 -1.43733e-08)
(0.105305 -0.00327469 3.18183e-07)
(0.105045 -0.00338862 4.1727e-07)
(0.104876 -0.00345649 3.51045e-07)
(0.104058 0.000490199 -1.45149e-06)
(0.104144 0.000150687 -2.32169e-06)
(0.104274 -0.000174883 -3.38521e-06)
(0.104423 -0.000482381 -4.03892e-06)
(0.104547 -0.000776907 -3.87318e-06)
(0.104599 -0.00106702 -2.99452e-06)
(0.104573 -0.00135183 -1.67309e-06)
(0.104464 -0.00162355 -7.39975e-07)
(0.104355 -0.00187066 -5.12368e-07)
(0.104257 -0.00208638 -9.62143e-07)
(0.10423 -0.00227283 -1.56156e-06)
(0.104207 -0.00243753 -1.98715e-06)
(0.104196 -0.00258969 -1.72038e-06)
(0.104101 -0.00273024 -1.18191e-06)
(0.103976 -0.00285637 -4.20917e-07)
(0.103764 -0.00295905 1.76847e-07)
(0.103572 -0.00303316 6.36591e-07)
(0.101634 0.000353263 -2.34027e-06)
(0.101738 4.8377e-05 -2.83375e-06)
(0.101862 -0.00022853 -3.29787e-06)
(0.101954 -0.000470553 -3.63821e-06)
(0.102027 -0.000686387 -3.26401e-06)
(0.101993 -0.000894385 -2.15497e-06)
(0.101883 -0.0011099 -8.35564e-07)
(0.101684 -0.00133807 4.33472e-07)
(0.101459 -0.00157077 5.60046e-07)
(0.101284 -0.00179436 2.11265e-07)
(0.101169 -0.00199669 -5.53455e-07)
(0.101155 -0.00217205 -1.36467e-06)
(0.1012 -0.00231988 -1.47839e-06)
(0.10126 -0.00244157 -1.52282e-06)
(0.101334 -0.00253946 -9.5853e-07)
(0.101347 -0.00261436 -4.89117e-07)
(0.101369 -0.00266733 4.9304e-08)
(0.0991622 0.000242047 -2.70515e-06)
(0.0992857 -2.86547e-05 -2.87691e-06)
(0.0994127 -0.000266585 -3.23032e-06)
(0.099531 -0.000465224 -3.81455e-06)
(0.0996494 -0.00063566 -4.10675e-06)
(0.0997211 -0.000800963 -3.75055e-06)
(0.0997319 -0.0009824 -2.44984e-06)
(0.0996216 -0.00118571 -7.54356e-07)
(0.0994367 -0.00140194 4.18418e-07)
(0.0992075 -0.0016133 8.03754e-07)
(0.0990172 -0.00180314 4.9372e-07)
(0.0988759 -0.00196275 -1.67772e-07)
(0.0988286 -0.00209137 -6.18673e-07)
(0.0988114 -0.00219237 -8.48032e-07)
(0.09886 -0.00227038 -6.45687e-07)
(0.0988835 -0.00232809 -4.70278e-07)
(0.0989605 -0.0023678 -5.6e-08)
(0.0967217 8.97831e-05 -4.08545e-06)
(0.0968844 -0.000145495 -3.97615e-06)
(0.0970338 -0.000340363 -3.69078e-06)
(0.0971103 -0.000489533 -3.65901e-06)
(0.0971706 -0.000603369 -3.61222e-06)
(0.0971502 -0.000702506 -2.8326e-06)
(0.0970599 -0.000811924 -1.50452e-06)
(0.096863 -0.000950195 4.03087e-07)
(0.0965817 -0.00112156 1.75866e-06)
(0.0962714 -0.00131416 2.11732e-06)
(0.0960079 -0.00150635 1.80846e-06)
(0.0958122 -0.00167933 8.59515e-07)
(0.0957426 -0.00182144 2.94735e-08)
(0.0957327 -0.0019298 -6.42894e-07)
(0.0958212 -0.00200796 -7.89472e-07)
(0.095906 -0.00206065 -7.34477e-07)
(0.0960518 -0.00209392 -4.01643e-07)
(0.0939076 -4.05026e-06 -3.32428e-06)
(0.0940136 -0.00018997 -3.17117e-06)
(0.0941069 -0.000330968 -2.7663e-06)
(0.094165 -0.000426432 -2.61528e-06)
(0.0942347 -0.000491577 -2.8697e-06)
(0.0943032 -0.000550283 -3.27091e-06)
(0.094393 -0.000632015 -3.27408e-06)
(0.0944235 -0.000754777 -2.6764e-06)
(0.094392 -0.00092025 -1.27053e-06)
(0.0942154 -0.00111453 1.84226e-07)
(0.0939879 -0.00131177 1.40403e-06)
(0.0936895 -0.00148748 1.98683e-06)
(0.0934553 -0.00162732 1.68048e-06)
(0.0932731 -0.00172829 1.09668e-06)
(0.0932075 -0.00179632 5.78732e-07)
(0.0931901 -0.00183752 1.09228e-07)
(0.0932702 -0.00185765 1.18576e-07)
(0.0910315 -0.0001286 -3.17679e-06)
(0.0911533 -0.000297452 -2.88488e-06)
(0.0912326 -0.000422293 -2.46944e-06)
(0.0913174 -0.000505775 -2.66449e-06)
(0.0914087 -0.0005607 -3.12813e-06)
(0.0915215 -0.000601921 -4.16963e-06)
(0.0916588 -0.000641815 -4.87698e-06)
(0.0917511 -0.000693706 -4.5125e-06)
(0.0917487 -0.000769401 -2.71261e-06)
(0.0915739 -0.000874732 5.40223e-08)
(0.091251 -0.00100564 2.83757e-06)
(0.0908154 -0.00114825 4.5535e-06)
(0.0903962 -0.0012847 4.63067e-06)
(0.0900577 -0.00140033 3.30385e-06)
(0.0898883 -0.0014878 1.88516e-06)
(0.0898175 -0.00154542 7.62017e-07)
(0.0898838 -0.00157518 7.11745e-07)
(0.0880479 -0.000191409 -2.24856e-06)
(0.0880693 -0.000325413 -1.89575e-06)
(0.0880652 -0.000412505 -1.75749e-06)
(0.0880531 -0.000458138 -2.05086e-06)
(0.0880564 -0.00047398 -2.35745e-06)
(0.0880751 -0.000475113 -2.645e-06)
(0.0881382 -0.000475451 -2.6313e-06)
(0.0882028 -0.000486759 -2.61154e-06)
(0.0882864 -0.000521543 -2.03572e-06)
(0.0882854 -0.000592325 -1.09788e-06)
(0.0882337 -0.000704646 3.52344e-07)
(0.088039 -0.000850767 1.78087e-06)
(0.0877997 -0.00100984 2.37568e-06)
(0.0875131 -0.00115668 2.29306e-06)
(0.0872875 -0.00127269 1.70569e-06)
(0.0871006 -0.00135098 9.65443e-07)
(0.0870254 -0.00139655 1.08421e-06)
(0.0847223 -0.000269823 -1.3309e-06)
(0.0847262 -0.00038475 -1.46906e-06)
(0.0847501 -0.000451865 -1.98982e-06)
(0.0847968 -0.000481185 -2.63509e-06)
(0.0848707 -0.000490539 -3.0092e-06)
(0.0849661 -0.000497158 -3.04466e-06)
(0.085081 -0.000507532 -2.74641e-06)
(0.0851968 -0.000523214 -2.57271e-06)
(0.0853357 -0.000545784 -2.51036e-06)
(0.0854667 -0.000580426 -2.51968e-06)
(0.085597 -0.000634141 -2.27553e-06)
(0.0856692 -0.00070916 -1.59921e-06)
(0.0856834 -0.000801544 -7.14422e-07)
(0.085615 -0.000900726 7.8467e-08)
(0.0855182 -0.000993008 8.29632e-07)
(0.085373 -0.00106819 8.95763e-07)
(0.0852846 -0.00112314 1.09859e-06)
(0.0806741 -0.000329316 8.24099e-07)
(0.0805857 -0.000434733 -9.88623e-07)
(0.0806035 -0.000478224 -2.90148e-06)
(0.0806847 -0.000473461 -4.22377e-06)
(0.0807838 -0.000446366 -4.45082e-06)
(0.0808593 -0.000420792 -3.80033e-06)
(0.0809185 -0.00040869 -2.73305e-06)
(0.0809565 -0.000412989 -2.1485e-06)
(0.0810265 -0.000434324 -1.78524e-06)
(0.0810951 -0.000474053 -1.82065e-06)
(0.0812221 -0.00053261 -1.63063e-06)
(0.0813176 -0.000605285 -1.33627e-06)
(0.0814411 -0.000685098 -1.0093e-06)
(0.081514 -0.000764094 -4.48786e-07)
(0.0815953 -0.00083378 -4.67097e-08)
(0.0816428 -0.000889834 9.17854e-08)
(0.0817299 -0.000931809 3.33378e-07)
(0.075878 -0.000367861 4.07072e-07)
(0.0759882 -0.000494256 -4.76849e-06)
(0.076319 -0.000527162 -8.17781e-06)
(0.076718 -0.000486746 -8.9055e-06)
(0.0770652 -0.000418302 -7.52464e-06)
(0.0773083 -0.000363868 -5.38551e-06)
(0.0774584 -0.000340183 -3.47864e-06)
(0.0775369 -0.000343973 -2.43264e-06)
(0.0775989 -0.000366806 -1.9667e-06)
(0.0776443 -0.000402905 -1.92844e-06)
(0.0777077 -0.000446403 -1.78378e-06)
(0.0777469 -0.000494733 -1.4509e-06)
(0.0777875 -0.000548098 -9.66822e-07)
(0.0778004 -0.000603424 -3.42699e-07)
(0.0778197 -0.000658875 1.96252e-07)
(0.0778332 -0.000708166 2.85424e-07)
(0.0778996 -0.00074576 4.88865e-07)
(0.0706205 -0.000555875 -1.00306e-06)
(0.0708074 -0.000693864 -7.39963e-06)
(0.0712149 -0.000680935 -1.12044e-05)
(0.071654 -0.000567458 -1.12457e-05)
(0.0719766 -0.000432631 -8.43309e-06)
(0.0721256 -0.000335004 -4.80692e-06)
(0.0721504 -0.000288244 -2.03028e-06)
(0.0721205 -0.000278716 -7.73382e-07)
(0.0721023 -0.000292776 -5.57746e-07)
(0.0721163 -0.00031841 -8.48653e-07)
(0.0721663 -0.000350481 -9.54377e-07)
(0.0722205 -0.000383666 -9.18383e-07)
(0.0722819 -0.000418221 -5.19566e-07)
(0.0723173 -0.000455675 -1.58728e-07)
(0.0723777 -0.000496176 3.26033e-07)
(0.0724148 -0.000534272 3.13812e-07)
(0.0725233 -0.000565192 3.26049e-07)
(0.0648531 -0.000579631 -6.54224e-06)
(0.0651749 -0.000712712 -9.95065e-06)
(0.0656112 -0.00065877 -1.14442e-05)
(0.066076 -0.000482507 -1.05074e-05)
(0.0664979 -0.00028705 -8.20362e-06)
(0.0668305 -0.0001549 -5.66418e-06)
(0.0670656 -0.000108166 -3.81026e-06)
(0.0671996 -0.00012131 -2.63637e-06)
(0.0672724 -0.000165602 -2.07323e-06)
(0.0673112 -0.000211815 -1.91912e-06)
(0.0673313 -0.000247138 -1.49899e-06)
(0.0673319 -0.000268708 -9.85529e-07)
(0.0673096 -0.000287253 3.60251e-08)
(0.0672533 -0.000311356 8.48763e-07)
(0.0672232 -0.000344617 1.12409e-06)
(0.0672038 -0.000381311 9.81704e-07)
(0.067249 -0.000408663 8.09175e-07)
(0.0574529 -0.000589088 -2.82993e-07)
(0.0572471 -0.000801765 -1.51921e-07)
(0.0569394 -0.000864008 -9.99366e-07)
(0.0566654 -0.00077612 -1.82651e-06)
(0.0564911 -0.000613684 -1.66617e-06)
(0.0564583 -0.000447552 -1.38973e-06)
(0.0565452 -0.000329977 -1.22638e-06)
(0.0567328 -0.000247289 -1.19415e-06)
(0.0569337 -0.000193887 -1.36461e-06)
(0.0571583 -0.000172067 -1.93902e-06)
(0.0573855 -0.000150949 -2.80709e-06)
(0.0576239 -0.000147615 -3.13087e-06)
(0.057857 -0.00013394 -2.58255e-06)
(0.0580267 -0.000123624 -1.33649e-06)
(0.05812 -0.00014253 4.02726e-08)
(0.0581776 -0.000172794 8.78877e-07)
(0.0582048 -0.000204001 9.26925e-07)
(0.0582672 -0.000238719 6.43122e-07)
(0.0523501 -0.000323009 6.99994e-06)
(0.0509086 -0.000466506 1.42272e-05)
(0.0492841 -0.000485806 1.64884e-05)
(0.0477952 -0.000396934 1.36159e-05)
(0.0466436 -0.000269042 7.21786e-06)
(0.0458557 -0.000159771 1.00618e-06)
(0.0453819 -0.000117716 -2.39783e-06)
(0.0450405 -0.000128467 -3.13372e-06)
(0.0448516 -0.000156953 -3.0979e-06)
(0.0447032 -0.000180136 -3.76629e-06)
(0.0446642 -0.000170417 -4.2541e-06)
(0.0446684 -0.000145378 -3.92904e-06)
(0.0446143 -9.23554e-05 -5.77825e-06)
(0.0447751 -3.63528e-05 -4.8834e-06)
(0.044661 -1.09655e-05 -4.91769e-06)
(0.0447041 -7.76664e-06 -8.1796e-06)
(0.044756 -1.59056e-05 -5.94758e-06)
(0.0446557 -3.52057e-05 -5.4141e-06)
(0.0649649 0.000394948 1.54828e-05)
(0.0643786 0.000187198 1.27802e-05)
(0.0636492 2.02623e-05 5.38395e-06)
(0.0631886 -8.66776e-06 9.65173e-07)
(0.0629895 8.15733e-05 3.03293e-06)
(0.0629262 0.000187059 6.07529e-06)
(0.0629375 0.000213682 5.5069e-06)
(0.0629337 0.00014711 3.11338e-06)
(0.0628045 6.05212e-05 1.69095e-06)
(0.062535 9.55468e-06 3.75584e-07)
(0.0622668 -3.70506e-06 -1.76941e-06)
(0.0621073 1.36195e-05 -6.05075e-06)
(0.0621744 3.50867e-05 -1.07489e-05)
(0.0624564 5.68766e-05 -1.28603e-05)
(0.062803 7.56378e-05 -1.39005e-05)
(0.0631932 7.71735e-05 -1.48551e-05)
(0.0635507 7.1269e-05 -1.43264e-05)
(0.0638275 6.94196e-05 -1.43632e-05)
(0.194626 0.00291482 -1.45543e-05)
(0.194798 0.00209022 -1.37685e-05)
(0.194913 0.00122656 -1.25417e-05)
(0.194978 0.000332168 -1.08219e-05)
(0.194993 -0.000584227 -9.21166e-06)
(0.194959 -0.00150975 -7.65545e-06)
(0.194876 -0.00242584 -4.89787e-06)
(0.194734 -0.00332486 -1.52489e-06)
(0.194547 -0.0042008 1.71918e-06)
(0.194288 -0.00504445 3.31803e-06)
(0.193962 -0.00583451 3.76573e-06)
(0.193585 -0.00655247 4.37196e-06)
(0.193144 -0.0071853 4.56783e-06)
(0.192674 -0.00773008 5.16761e-06)
(0.192138 -0.00818434 5.00505e-06)
(0.191599 -0.00854242 5.1492e-06)
(0.191007 -0.00879725 4.36922e-06)
(0.193152 0.00276992 -7.86633e-06)
(0.193261 0.00200437 -7.11458e-06)
(0.193331 0.00120196 -6.36816e-06)
(0.19336 0.000372917 -5.2608e-06)
(0.193348 -0.00047055 -4.12779e-06)
(0.193285 -0.00131571 -2.97533e-06)
(0.193176 -0.00214854 -1.24955e-06)
(0.193023 -0.00295809 6.68373e-07)
(0.192822 -0.00373718 1.99965e-06)
(0.192581 -0.00448102 3.35177e-06)
(0.192277 -0.00518125 4.18148e-06)
(0.191944 -0.00582382 5.49255e-06)
(0.191559 -0.00639301 6.11483e-06)
(0.191182 -0.00687485 6.78764e-06)
(0.190777 -0.00726605 6.85966e-06)
(0.190395 -0.00756794 7.18032e-06)
(0.189989 -0.007788 7.53645e-06)
(0.191509 0.00237755 -5.01117e-06)
(0.191571 0.00168783 -4.68371e-06)
(0.191606 0.00096587 -4.5319e-06)
(0.191613 0.000222828 -4.18954e-06)
(0.191586 -0.000528903 -3.96891e-06)
(0.191516 -0.00127728 -3.92816e-06)
(0.191413 -0.00201275 -2.72803e-06)
(0.191259 -0.00272849 -1.2394e-06)
(0.191064 -0.00341796 6.38767e-08)
(0.19082 -0.00407253 8.4825e-07)
(0.190531 -0.00468721 1.27391e-06)
(0.190213 -0.00525686 2.35026e-06)
(0.18985 -0.00577753 3.2052e-06)
(0.189475 -0.00623729 4.20363e-06)
(0.189087 -0.00662308 4.74539e-06)
(0.188717 -0.00692223 4.85486e-06)
(0.188377 -0.00713317 4.77843e-06)
(0.189527 0.00221501 -5.0365e-06)
(0.189613 0.00157405 -5.7193e-06)
(0.189694 0.000908387 -6.16023e-06)
(0.189766 0.000226986 -6.25658e-06)
(0.189809 -0.000459574 -6.40431e-06)
(0.189824 -0.00113894 -6.73165e-06)
(0.189807 -0.00180273 -6.40773e-06)
(0.189756 -0.00244526 -5.34362e-06)
(0.189652 -0.00306615 -3.70385e-06)
(0.189486 -0.00365834 -1.81158e-06)
(0.189246 -0.00421337 -3.86405e-07)
(0.188962 -0.00471851 8.76409e-07)
(0.188634 -0.00517 1.97362e-06)
(0.188281 -0.0055667 2.57235e-06)
(0.187918 -0.00590939 3.3862e-06)
(0.187537 -0.00619341 3.65953e-06)
(0.18718 -0.00641294 3.94483e-06)
(0.187428 0.00186111 -6.42806e-06)
(0.18754 0.00126821 -6.8525e-06)
(0.187644 0.000661042 -7.18199e-06)
(0.187742 4.83278e-05 -6.38937e-06)
(0.187791 -0.000567432 -5.81901e-06)
(0.187801 -0.00117859 -5.14847e-06)
(0.18775 -0.00176876 -4.71994e-06)
(0.18767 -0.00232137 -4.22581e-06)
(0.187545 -0.00283375 -3.34625e-06)
(0.187383 -0.00331225 -1.7939e-06)
(0.187158 -0.00376805 1.51968e-07)
(0.186881 -0.00420273 1.65309e-06)
(0.186577 -0.00460681 2.90635e-06)
(0.186255 -0.00496652 2.73911e-06)
(0.185977 -0.0052714 2.67087e-06)
(0.185706 -0.00551811 2.18953e-06)
(0.185483 -0.00570823 2.03868e-06)
(0.185209 0.00165518 -3.25162e-06)
(0.185265 0.00111185 -3.97416e-06)
(0.185325 0.000567146 -4.98661e-06)
(0.185382 3.47608e-05 -5.51039e-06)
(0.185424 -0.000485885 -5.07208e-06)
(0.185417 -0.000999268 -4.07987e-06)
(0.185365 -0.00150549 -2.98081e-06)
(0.185264 -0.00199074 -2.31553e-06)
(0.185145 -0.00244003 -2.45037e-06)
(0.185009 -0.002851 -2.79405e-06)
(0.184872 -0.00323675 -2.4515e-06)
(0.184686 -0.00361639 -1.71203e-06)
(0.184475 -0.00399534 -2.81516e-07)
(0.184198 -0.00436207 6.64457e-07)
(0.183921 -0.00469261 1.03605e-06)
(0.183635 -0.00496398 8.97138e-07)
(0.183403 -0.00516492 4.84714e-07)
(0.182737 0.00140649 -3.35632e-06)
(0.182826 0.000889241 -5.15193e-06)
(0.182936 0.000375261 -7.38387e-06)
(0.183062 -0.000112745 -8.99606e-06)
(0.183184 -0.000572383 -9.14175e-06)
(0.183262 -0.00101878 -7.82682e-06)
(0.183273 -0.00146281 -5.29308e-06)
(0.183196 -0.00190337 -3.09629e-06)
(0.183077 -0.00232393 -2.02915e-06)
(0.182941 -0.00270558 -2.32772e-06)
(0.182844 -0.00304018 -3.042e-06)
(0.182763 -0.00333551 -3.71516e-06)
(0.182704 -0.00360842 -3.18188e-06)
(0.182595 -0.00387061 -2.13319e-06)
(0.182449 -0.00412217 -7.45613e-07)
(0.182232 -0.00435156 2.50645e-07)
(0.182004 -0.00454374 1.04282e-06)
(0.180099 0.00115027 -5.10532e-06)
(0.18022 0.000668912 -5.99618e-06)
(0.180347 0.000205226 -6.81255e-06)
(0.180446 -0.000207104 -7.44237e-06)
(0.18052 -0.00056079 -6.84279e-06)
(0.180523 -0.000878604 -4.84118e-06)
(0.180447 -0.00119632 -2.43145e-06)
(0.180293 -0.00154052 2.08233e-07)
(0.180071 -0.00191292 9.03795e-07)
(0.17985 -0.00229377 3.68462e-07)
(0.179672 -0.00265646 -1.2064e-06)
(0.179576 -0.00298126 -3.26317e-06)
(0.179569 -0.00326183 -4.04109e-06)
(0.179598 -0.00350088 -4.54043e-06)
(0.179653 -0.00370452 -3.80165e-06)
(0.179665 -0.00387767 -3.04796e-06)
(0.179661 -0.00402085 -2.02927e-06)
(0.177359 0.000922392 -4.67912e-06)
(0.177519 0.000484744 -5.64452e-06)
(0.17768 7.27986e-05 -6.86642e-06)
(0.177818 -0.000280266 -8.39107e-06)
(0.177936 -0.000567777 -9.37242e-06)
(0.178012 -0.000815508 -9.14914e-06)
(0.178035 -0.00106695 -6.99895e-06)
(0.177965 -0.00135606 -3.59149e-06)
(0.177802 -0.0016905 -7.29949e-07)
(0.177566 -0.00205069 7.12445e-07)
(0.177321 -0.00240267 6.09068e-07)
(0.17711 -0.00271762 -6.36655e-07)
(0.176989 -0.0029809 -1.78278e-06)
(0.176929 -0.0031928 -2.63176e-06)
(0.176944 -0.00336119 -2.56281e-06)
(0.176964 -0.00349601 -2.4476e-06)
(0.177018 -0.0036038 -1.86778e-06)
(0.174568 0.000626218 -7.83395e-06)
(0.174775 0.000232311 -8.35316e-06)
(0.174967 -0.000120576 -8.33988e-06)
(0.175093 -0.000405314 -8.29593e-06)
(0.175158 -0.000616291 -8.07543e-06)
(0.175146 -0.000772309 -6.59709e-06)
(0.175058 -0.000912822 -4.25855e-06)
(0.174887 -0.00108493 -8.27113e-07)
(0.174631 -0.00132095 2.0193e-06)
(0.174309 -0.00162286 3.05219e-06)
(0.173993 -0.00196164 2.62633e-06)
(0.173722 -0.0022963 6.81433e-07)
(0.173567 -0.00259085 -1.3862e-06)
(0.173503 -0.00282718 -3.2515e-06)
(0.173545 -0.00300424 -4.04571e-06)
(0.173622 -0.00313232 -4.28864e-06)
(0.173752 -0.00322472 -3.74876e-06)
(0.171363 0.000402002 -5.10021e-06)
(0.171507 7.38634e-05 -5.58795e-06)
(0.171646 -0.000197285 -5.65491e-06)
(0.171757 -0.000394369 -5.91829e-06)
(0.171852 -0.000521414 -6.6556e-06)
(0.171927 -0.000602821 -7.53115e-06)
(0.172003 -0.000684284 -7.58447e-06)
(0.172034 -0.000812895 -6.4585e-06)
(0.172004 -0.0010206 -3.80485e-06)
(0.171848 -0.00131165 -1.02831e-06)
(0.171606 -0.00165557 1.20713e-06)
(0.171288 -0.00200358 2.31762e-06)
(0.170987 -0.00230953 1.74707e-06)
(0.170738 -0.00254795 3.5781e-07)
(0.170601 -0.00271696 -9.47737e-07)
(0.170542 -0.00282909 -2.18115e-06)
(0.170587 -0.00289999 -2.36791e-06)
(0.168027 0.000162326 -5.81824e-06)
(0.168183 -0.000142904 -5.93876e-06)
(0.168324 -0.000387765 -5.71375e-06)
(0.16845 -0.000562959 -6.36702e-06)
(0.168571 -0.000676601 -7.35749e-06)
(0.168686 -0.000747072 -8.994e-06)
(0.168794 -0.000793798 -1.00085e-05)
(0.168857 -0.00084275 -9.39538e-06)
(0.168841 -0.000923042 -6.601e-06)
(0.168684 -0.00105966 -2.33085e-06)
(0.168383 -0.00126156 2.13864e-06)
(0.167956 -0.00151455 5.20183e-06)
(0.167495 -0.00178536 5.77153e-06)
(0.167074 -0.00203673 3.75845e-06)
(0.166795 -0.00224153 1.24664e-06)
(0.166642 -0.00238981 -1.06664e-06)
(0.166647 -0.0024844 -1.60682e-06)
(0.164484 5.92033e-07 -3.03183e-06)
(0.164551 -0.000251157 -2.79574e-06)
(0.164592 -0.000436164 -2.83355e-06)
(0.164603 -0.000552226 -3.70859e-06)
(0.164605 -0.000608389 -4.87161e-06)
(0.164613 -0.000621494 -6.16402e-06)
(0.164664 -0.000611763 -6.67982e-06)
(0.16473 -0.00059863 -6.65085e-06)
(0.164808 -0.00060563 -5.377e-06)
(0.164822 -0.000662686 -3.46318e-06)
(0.164766 -0.00079642 -9.85497e-07)
(0.164588 -0.00101478 1.41071e-06)
(0.164321 -0.00129569 2.34002e-06)
(0.163987 -0.00159448 1.82816e-06)
(0.163677 -0.00186191 4.44323e-07)
(0.163407 -0.00206506 -1.40588e-06)
(0.163252 -0.0021964 -1.75782e-06)
(0.160527 -0.000168721 -1.81972e-06)
(0.160563 -0.000391751 -2.03614e-06)
(0.160616 -0.000545076 -3.13017e-06)
(0.160679 -0.000632551 -4.92763e-06)
(0.16076 -0.000671119 -6.65765e-06)
(0.160866 -0.000683783 -7.67615e-06)
(0.160997 -0.000685787 -7.37889e-06)
(0.161137 -0.000686182 -6.4793e-06)
(0.161288 -0.000692489 -5.34134e-06)
(0.161428 -0.00071743 -4.40119e-06)
(0.161554 -0.00077895 -3.57225e-06)
(0.161632 -0.000890501 -2.65392e-06)
(0.16165 -0.00105252 -1.83345e-06)
(0.161581 -0.00124904 -1.51582e-06)
(0.161466 -0.00145106 -1.15358e-06)
(0.161295 -0.00162965 -1.70686e-06)
(0.161152 -0.00176653 -1.73035e-06)
(0.155651 -0.000271914 4.60192e-06)
(0.155519 -0.000493767 1.75473e-06)
(0.155511 -0.000631533 -2.36348e-06)
(0.155584 -0.000684 -6.57001e-06)
(0.155688 -0.000673643 -9.3707e-06)
(0.155782 -0.00063324 -1.02322e-05)
(0.155869 -0.000589383 -9.17335e-06)
(0.155935 -0.000558181 -7.70943e-06)
(0.156008 -0.000550788 -6.02282e-06)
(0.15608 -0.000578282 -4.97158e-06)
(0.156191 -0.000649483 -4.06735e-06)
(0.156307 -0.000764061 -3.44175e-06)
(0.156439 -0.000911567 -3.30749e-06)
(0.156546 -0.00107513 -3.24401e-06)
(0.156644 -0.00123335 -3.30348e-06)
(0.156708 -0.00136946 -3.74227e-06)
(0.156791 -0.00147489 -3.61934e-06)
(0.149788 -0.00030421 6.94525e-06)
(0.149778 -0.000607522 -2.18925e-06)
(0.150061 -0.000781131 -1.10216e-05)
(0.150501 -0.000807386 -1.66429e-05)
(0.15095 -0.000729826 -1.8009e-05)
(0.151315 -0.000619159 -1.60118e-05)
(0.151567 -0.000528516 -1.2154e-05)
(0.151711 -0.000478851 -8.43397e-06)
(0.151793 -0.000471624 -5.44022e-06)
(0.151836 -0.000503371 -3.67558e-06)
(0.151879 -0.000566724 -2.63144e-06)
(0.151912 -0.000653939 -2.08161e-06)
(0.151947 -0.000759129 -1.94429e-06)
(0.151968 -0.000874415 -1.98799e-06)
(0.151995 -0.000992798 -1.95832e-06)
(0.152014 -0.0011035 -2.53348e-06)
(0.152076 -0.00119498 -2.56731e-06)
(0.143021 -0.000533185 5.44143e-06)
(0.143079 -0.000983757 -7.09311e-06)
(0.143446 -0.00119014 -1.80433e-05)
(0.143947 -0.00113529 -2.36191e-05)
(0.144399 -0.000921495 -2.29976e-05)
(0.144688 -0.000684043 -1.82531e-05)
(0.144813 -0.000506882 -1.23021e-05)
(0.14483 -0.000409307 -7.5216e-06)
(0.144808 -0.000381165 -4.49349e-06)
(0.1448 -0.000402355 -3.23922e-06)
(0.14483 -0.000456299 -2.66597e-06)
(0.144885 -0.000526858 -2.71328e-06)
(0.144951 -0.000603907 -2.77019e-06)
(0.145005 -0.000684166 -3.03764e-06)
(0.14507 -0.000767538 -2.89265e-06)
(0.145125 -0.000848671 -3.38064e-06)
(0.145229 -0.000920224 -3.61316e-06)
(0.135297 -0.000611193 -4.61245e-06)
(0.135637 -0.00113243 -1.51721e-05)
(0.136117 -0.00133348 -2.29708e-05)
(0.13668 -0.00118723 -2.5136e-05)
(0.137255 -0.000834643 -2.25628e-05)
(0.137766 -0.000472715 -1.71234e-05)
(0.138161 -0.000232442 -1.17092e-05)
(0.13841 -0.000137842 -7.32261e-06)
(0.138537 -0.000155866 -4.24956e-06)
(0.138588 -0.000230543 -3.00152e-06)
(0.138599 -0.00031593 -2.05112e-06)
(0.138591 -0.000383687 -1.95574e-06)
(0.138568 -0.000433499 -1.54021e-06)
(0.138517 -0.00047975 -8.05314e-07)
(0.138475 -0.00053725 -6.23807e-07)
(0.138448 -0.000607207 -1.18575e-06)
(0.138479 -0.000673964 -1.30101e-06)
(0.125385 -0.000634591 4.0884e-06)
(0.125214 -0.00120264 3.4248e-07)
(0.124836 -0.00160871 -5.81064e-06)
(0.124354 -0.00169962 -1.1879e-05)
(0.123947 -0.00149664 -1.39511e-05)
(0.123753 -0.00113645 -1.23112e-05)
(0.123783 -0.000784751 -8.10751e-06)
(0.123995 -0.000512334 -3.71475e-06)
(0.124283 -0.000335457 -5.93177e-07)
(0.124594 -0.000256581 -1.11639e-07)
(0.124911 -0.000226895 -2.46841e-06)
(0.125225 -0.000233754 -4.65118e-06)
(0.125539 -0.000231951 -6.08688e-06)
(0.125815 -0.000213545 -5.92183e-06)
(0.125999 -0.000220425 -3.92461e-06)
(0.126113 -0.000260692 -2.3892e-06)
(0.126179 -0.000319599 -2.53331e-06)
(0.126255 -0.00039384 -2.9351e-06)
(0.117504 -0.000217278 6.51151e-07)
(0.115857 -0.000629459 1.90889e-05)
(0.113707 -0.000887317 2.72721e-05)
(0.111439 -0.000902392 2.16638e-05)
(0.109458 -0.000719523 5.88508e-06)
(0.107949 -0.00046265 -1.02857e-05)
(0.107002 -0.000273997 -1.78553e-05)
(0.106416 -0.000202969 -1.45417e-05)
(0.10611 -0.000217009 -7.84584e-06)
(0.105882 -0.000271282 -5.81896e-06)
(0.105782 -0.00030804 -6.46338e-06)
(0.105756 -0.000312261 -6.73678e-06)
(0.105714 -0.000252215 -1.05726e-05)
(0.10586 -0.000141655 -8.78504e-06)
(0.105908 -4.94261e-05 -6.20546e-06)
(0.105933 -1.03098e-05 -1.18542e-05)
(0.10601 -1.8359e-05 -1.0233e-05)
(0.106033 -6.45435e-05 -8.04786e-06)
(0.090527 0.000575424 2.79007e-05)
(0.089992 0.000329161 1.83352e-05)
(0.0891589 9.14257e-05 -3.79668e-06)
(0.0885136 9.07378e-06 -1.8708e-05)
(0.0882426 9.34332e-05 -1.47241e-05)
(0.0882375 0.000225319 -1.10428e-06)
(0.0882901 0.000273578 7.13744e-06)
(0.0882697 0.000201917 7.3676e-06)
(0.0881213 9.20182e-05 6.18803e-06)
(0.0878301 1.84688e-05 3.71337e-06)
(0.0874806 -7.93555e-06 -8.29806e-07)
(0.0871986 5.89875e-06 -8.28917e-06)
(0.0870958 2.97988e-05 -1.57559e-05)
(0.0871838 5.81306e-05 -1.7901e-05)
(0.0873867 8.5613e-05 -1.72419e-05)
(0.0876414 9.20198e-05 -1.67997e-05)
(0.0878647 8.54511e-05 -1.47111e-05)
(0.088012 8.06701e-05 -1.44681e-05)
(0.234106 0.00387036 -1.28949e-06)
(0.234345 0.00299343 -1.76964e-06)
(0.234522 0.00206811 -2.32403e-06)
(0.234641 0.00110233 -2.98468e-06)
(0.234704 0.000103976 -4.12032e-06)
(0.234705 -0.000914017 -5.67527e-06)
(0.234649 -0.00193306 -6.58424e-06)
(0.234523 -0.00294377 -7.6144e-06)
(0.234338 -0.00393912 -8.68711e-06)
(0.234078 -0.00491097 -1.01929e-05)
(0.233736 -0.00583973 -1.23253e-05)
(0.233329 -0.0067045 -1.38582e-05)
(0.232845 -0.00748797 -1.55911e-05)
(0.232316 -0.00818146 -1.67755e-05)
(0.231717 -0.00878017 -1.81367e-05)
(0.231099 -0.00927591 -1.84191e-05)
(0.230438 -0.00966095 -1.87772e-05)
(0.232437 0.00365231 -4.15829e-07)
(0.232595 0.002841 -5.774e-07)
(0.232706 0.00198252 -1.15808e-06)
(0.232773 0.00108664 -1.74044e-06)
(0.232794 0.00016556 -2.40307e-06)
(0.232762 -0.000768559 -3.44169e-06)
(0.232675 -0.00170087 -4.33031e-06)
(0.232536 -0.00261774 -5.14055e-06)
(0.23234 -0.00350935 -6.41973e-06)
(0.232099 -0.00436943 -7.13409e-06)
(0.231789 -0.00519096 -7.83881e-06)
(0.231441 -0.00596107 -7.49816e-06)
(0.231038 -0.0066637 -7.39493e-06)
(0.230625 -0.00728076 -7.09268e-06)
(0.230182 -0.00780423 -7.43754e-06)
(0.229743 -0.00823105 -7.7647e-06)
(0.229283 -0.00856712 -7.90468e-06)
(0.230588 0.00318875 1.37031e-06)
(0.23069 0.00245513 1.14482e-06)
(0.230762 0.00167855 3.82498e-07)
(0.230803 0.000869988 -5.28546e-07)
(0.230809 4.24867e-05 -1.47415e-06)
(0.230765 -0.000789646 -2.99835e-06)
(0.230681 -0.00161491 -3.81593e-06)
(0.230547 -0.00242596 -4.40973e-06)
(0.230362 -0.00321614 -4.9661e-06)
(0.230127 -0.00397601 -5.50203e-06)
(0.22983 -0.00469876 -6.5072e-06)
(0.229497 -0.00537814 -6.78318e-06)
(0.229114 -0.00601055 -7.0277e-06)
(0.228711 -0.00658474 -6.7195e-06)
(0.228295 -0.00708645 -6.34894e-06)
(0.227889 -0.00749958 -6.20356e-06)
(0.227506 -0.0078181 -6.30311e-06)
(0.228398 0.00296718 8.56601e-07)
(0.228514 0.00228379 -4.60352e-07)
(0.228624 0.00156506 -2.12714e-06)
(0.228729 0.000821634 -3.58208e-06)
(0.228808 6.4052e-05 -4.81689e-06)
(0.22885 -0.000695253 -6.27516e-06)
(0.228851 -0.00144489 -7.52394e-06)
(0.228812 -0.00217574 -8.45706e-06)
(0.228721 -0.00288654 -8.80045e-06)
(0.228571 -0.00357244 -8.24115e-06)
(0.228343 -0.00422636 -7.65135e-06)
(0.228055 -0.00483455 -7.06203e-06)
(0.227716 -0.00538961 -6.49365e-06)
(0.227338 -0.00588817 -6.5649e-06)
(0.226945 -0.00633005 -6.40553e-06)
(0.226533 -0.00671099 -6.51347e-06)
(0.226136 -0.00702392 -6.39373e-06)
(0.226081 0.00254924 -1.54919e-06)
(0.226215 0.00191119 -2.56342e-06)
(0.226338 0.00124765 -4.38407e-06)
(0.226464 0.000573362 -5.34552e-06)
(0.226555 -0.00010783 -6.11035e-06)
(0.226603 -0.000791426 -6.42834e-06)
(0.226585 -0.00146399 -6.82135e-06)
(0.22652 -0.00210581 -7.54086e-06)
(0.226408 -0.00270645 -8.38972e-06)
(0.226255 -0.00326716 -8.64887e-06)
(0.226049 -0.00380002 -7.88453e-06)
(0.225781 -0.00431244 -6.79967e-06)
(0.22548 -0.0047995 -5.09418e-06)
(0.225147 -0.00524788 -4.7429e-06)
(0.224839 -0.00564345 -4.61242e-06)
(0.22454 -0.00597913 -5.10463e-06)
(0.224275 -0.00625328 -5.63087e-06)
(0.223657 0.00228527 4.08786e-07)
(0.223743 0.00169572 -1.99342e-08)
(0.223821 0.00109053 -1.6561e-06)
(0.223898 0.000493668 -3.76878e-06)
(0.223968 -8.84626e-05 -5.1693e-06)
(0.224001 -0.00066253 -5.62712e-06)