/*--------------------------------*- C++ -*----------------------------------*\
  =========                 |
  \\      /  F ield         | OpenFOAM: The Open Source CFD Toolbox
   \\    /   O peration     | Website:  https://openfoam.org
    \\  /    A nd           | Version:  6
     \\/     M anipulation  |
\*---------------------------------------------------------------------------*/
FoamFile
{
    version     2.0;
    format      ascii;
    class       volScalarField;
    location    "20";
    object      omega;
}
// * * * * * * * * * * * * * * * * * * * * * * * * * * * * * * * * * * * * * //

dimensions      [0 0 -1 0 0 0 0];

internalField   nonuniform List<scalar> 
2160
(
423.147
423.147
423.147
843.917
843.917
843.917
843.917
843.917
843.917
843.917
843.917
843.917
843.917
843.917
843.917
843.917
843.917
843.917
843.917
843.917
843.917
843.917
843.917
843.917
843.917
843.917
843.917
843.917
843.917
843.917
843.917
843.917
843.917
843.917
843.917
843.917
843.917
843.917
843.917
843.917
843.917
843.917
843.917
843.917
843.917
843.917
843.917
843.917
843.917
843.917
843.917
843.917
843.917
843.917
843.917
843.917
843.917
843.917
843.917
843.917
843.917
843.917
843.917
843.917
843.917
843.917
843.917
843.917
843.917
843.917
843.917
843.917
843.917
843.917
843.917
843.917
843.917
843.917
843.917
843.917
843.917
843.917
843.917
843.917
843.917
843.917
843.917
423.147
423.147
423.147
6.88601
6.88603
6.88603
230.411
230.414
230.413
242.405
242.406
242.406
250.209
250.209
250.209
256.014
256.013
256.013
260.485
260.484
260.484
263.902
263.901
263.901
266.453
266.452
266.452
268.268
268.267
268.267
269.367
269.366
269.366
269.78
269.78
269.78
269.577
269.577
269.576
268.963
268.963
268.963
268.351
268.351
268.351
268.056
268.054
268.054
268.058
268.056
268.056
268.355
268.355
268.355
268.968
268.968
268.968
269.58
269.58
269.58
269.78
269.779
269.779
269.361
269.36
269.36
268.257
268.256
268.256
266.438
266.437
266.437
263.882
263.881
263.881
260.46
260.459
260.459
255.984
255.984
255.984
250.177
250.177
250.177
242.373
242.374
242.374
230.384
230.386
230.386
6.88408
6.8841
6.8841
9.01471
9.01472
9.01472
103.409
103.412
103.412
111.045
111.047
111.047
115.729
115.73
115.73
119.21
119.209
119.209
121.964
121.962
121.962
124.173
124.171
124.171
125.965
125.964
125.964
127.439
127.438
127.438
128.615
128.614
128.614
129.509
129.508
129.508
130.153
130.153
130.153
130.535
130.535
130.535
130.715
130.715
130.715
130.775
130.776
130.776
130.775
130.775
130.775
130.714
130.714
130.714
130.533
130.533
130.533
130.149
130.149
130.149
129.503
129.502
129.502
128.607
128.606
128.606
127.429
127.428
127.428
125.953
125.952
125.952
124.16
124.158
124.158
121.948
121.947
121.947
119.193
119.192
119.192
115.711
115.712
115.712
111.028
111.03
111.03
103.393
103.397
103.396
9.01237
9.01238
9.01238
10.5025
10.5025
10.5025
58.7556
58.7589
58.7589
63.7586
63.7609
63.7609
67.1153
67.1161
67.1161
69.5896
69.589
69.5889
71.5427
71.5412
71.5412
73.1161
73.1145
73.1144
74.4114
74.4097
74.4098
75.5116
75.51
75.5099
76.4346
76.4331
76.4331
77.1944
77.1933
77.1933
77.8193
77.8182
77.8183
78.2628
78.2622
78.2622
78.5154
78.5153
78.5154
78.6079
78.6087
78.6087
78.6072
78.608
78.608
78.5137
78.5136
78.5138
78.2603
78.2597
78.2597
77.8154
77.8143
77.8144
77.1888
77.1878
77.1877
76.4281
76.4268
76.4267
75.5039
75.5023
75.5022
74.4027
74.4011
74.4011
73.1064
73.1047
73.1047
71.5319
71.5304
71.5304
69.5779
69.5773
69.5772
67.1033
67.1041
67.1041
63.7472
63.7496
63.7495
58.745
58.7484
58.7482
10.4999
10.4999
10.4999
11.7345
11.7345
11.7345
38.4949
38.4976
38.4976
41.4608
41.463
41.463
43.9729
43.9736
43.9737
45.8623
45.8618
45.8618
47.3509
47.3495
47.3494
48.5436
48.5421
48.542
49.5231
49.5216
49.5216
50.3607
50.3592
50.3591
51.0738
51.0724
51.0722
51.6733
51.6721
51.6721
52.1878
52.1865
52.1865
52.5682
52.5672
52.5672
52.7891
52.7888
52.7888
52.8678
52.8682
52.8682
52.8671
52.8675
52.8675
52.7876
52.7873
52.7873
52.566
52.5649
52.5649
52.1846
52.1832
52.1833
51.6688
51.6676
51.6676
51.0687
51.0672
51.0672
50.3548
50.3533
50.3531
49.5165
49.515
49.515
48.5364
48.5348
48.5348
47.343
47.3416
47.3415
45.8539
45.8533
45.8533
43.9644
43.9651
43.9652
41.4527
41.4549
41.4549
38.487
38.4897
38.4897
11.7317
11.7317
11.7317
12.8259
12.8259
12.8259
27.7436
27.7455
27.7456
29.1231
29.125
29.1249
30.9736
30.9743
30.9743
32.4568
32.4563
32.4563
33.6391
33.6379
33.6378
34.5843
34.5829
34.5828
35.3554
35.354
35.354
36.0133
36.0119
36.0118
36.5755
36.574
36.574
37.0506
37.0494
37.0493
37.467
37.4656
37.4656
37.7797
37.7784
37.7784
37.9606
37.96
37.9599
38.0222
38.0224
38.0223
38.0216
38.0218
38.0217
37.9593
37.9587
37.9587
37.7778
37.7765
37.7765
37.4644
37.4629
37.4629
37.047
37.0457
37.0457
36.5715
36.57
36.5699
36.0087
36.0072
36.0071
35.3503
35.3489
35.3489
34.5787
34.5773
34.5773
33.6332
33.6319
33.6319
32.4505
32.45
32.45
30.9673
30.968
30.9681
29.117
29.1189
29.1189
27.7373
27.7393
27.7393
12.8229
12.8229
12.8229
13.8492
13.8492
13.8492
21.4207
21.4219
21.422
21.6004
21.6016
21.6017
22.8823
22.8829
22.8829
24.0434
24.043
24.043
25.0008
24.9997
24.9997
25.7722
25.7709
25.7709
26.3989
26.3976
26.3976
26.9302
26.9289
26.9288
27.3842
27.3828
27.3827
27.7675
27.7664
27.7662
28.1074
28.106
28.106
28.3645
28.3632
28.3632
28.5118
28.511
28.5109
28.5595
28.5594
28.5593
28.559
28.5589
28.5588
28.5107
28.5099
28.5098
28.363
28.3616
28.3616
28.1052
28.1038
28.1038
27.7645
27.7633
27.7633
27.3809
27.3795
27.3795
26.9265
26.9252
26.9251
26.3948
26.3936
26.3935
25.7679
25.7665
25.7666
24.9963
24.9952
24.9952
24.0387
24.0383
24.0383
22.8776
22.8782
22.8782
21.5957
21.5969
21.597
21.4155
21.4167
21.4168
13.846
13.846
13.846
14.8234
14.8234
14.8234
17.4293
17.4298
17.4299
16.7193
16.72
16.72
17.502
17.5024
17.5024
18.3836
18.3832
18.3832
19.1586
19.1576
19.1576
19.798
19.7968
19.7968
20.319
20.3179
20.3179
20.7579
20.7567
20.7567
21.1326
21.1313
21.1313
21.4482
21.4471
21.4471
21.7297
21.7284
21.7283
21.9437
21.9423
21.9423
22.0647
22.0638
22.0637
22.102
22.1017
22.1016
22.1016
22.1013
22.1011
22.0638
22.0629
22.0628
21.9424
21.9411
21.941
21.7279
21.7266
21.7265
21.4458
21.4447
21.4446
21.1299
21.1286
21.1286
20.7548
20.7537
20.7536
20.3158
20.3147
20.3147
19.7946
19.7935
19.7934
19.1551
19.1541
19.1541
18.38
18.3797
18.3796
17.4984
17.4987
17.4987
16.7155
16.7162
16.7162
17.4248
17.4254
17.4254
14.8199
14.8199
14.8199
15.7427
15.7427
15.7427
14.7585
14.7586
14.7586
13.4135
13.4136
13.4136
13.7651
13.7652
13.7651
14.3926
14.3923
14.3922
15.007
15.0062
15.0061
15.5378
15.5368
15.5368
15.9771
15.9761
15.9761
16.3455
16.3445
16.3445
16.6607
16.6596
16.6596
16.926
16.925
16.925
17.1627
17.1615
17.1614
17.3435
17.3422
17.3421
17.4445
17.4436
17.4435
17.4742
17.4738
17.4737
17.4739
17.4734
17.4733
17.4437
17.4428
17.4427
17.3424
17.3411
17.3411
17.1611
17.1599
17.1599
16.924
16.923
16.923
16.6585
16.6574
16.6574
16.343
16.3421
16.342
15.9744
15.9735
15.9735
15.5352
15.5341
15.5341
15.0044
15.0035
15.0035
14.3899
14.3896
14.3896
13.7623
13.7624
13.7623
13.4103
13.4105
13.4105
14.7546
14.7547
14.7547
15.7391
15.7391
15.7391
16.6004
16.6004
16.6004
12.8767
12.8764
12.8764
11.1009
11.1006
11.1005
11.0923
11.0921
11.092
11.4865
11.4862
11.4861
11.9516
11.9509
11.9508
12.3859
12.3851
12.3851
12.7575
12.7567
12.7567
13.0701
13.0693
13.0693
13.3391
13.3382
13.3382
13.5665
13.5657
13.5656
13.7685
13.7675
13.7674
13.9238
13.9227
13.9226
14.0098
14.0089
14.0088
14.0341
14.0336
14.0335
14.0338
14.0333
14.0332
14.0091
14.0083
14.0081
13.9229
13.9218
13.9217
13.7672
13.7662
13.7661
13.5648
13.564
13.5639
13.3372
13.3363
13.3363
13.068
13.0672
13.0672
12.7553
12.7546
12.7546
12.3838
12.383
12.383
11.9496
11.9489
11.9488
11.4845
11.4842
11.4841
11.0901
11.09
11.0898
11.0982
11.0979
11.0978
12.8731
12.8728
12.8727
16.5966
16.5966
16.5966
17.3954
17.3954
17.3954
11.5042
11.5036
11.5035
9.44014
9.43947
9.43929
9.1411
9.1407
9.1405
9.32365
9.32331
9.32317
9.64634
9.64582
9.64574
9.98959
9.98893
9.9889
10.3011
10.3005
10.3005
10.5669
10.5663
10.5663
10.7989
10.7983
10.7983
10.9973
10.9967
10.9966
11.1721
11.1713
11.1712
11.3078
11.3069
11.3067
11.3826
11.3819
11.3817
11.4032
11.4028
11.4026
11.403
11.4025
11.4024
11.3821
11.3813
11.3812
11.307
11.3061
11.3059
11.171
11.1702
11.1701
10.9959
10.9952
10.9952
10.7973
10.7967
10.7967
10.5651
10.5646
10.5646
10.2993
10.2987
10.2987
9.98796
9.9873
9.98727
9.64488
9.64436
9.64429
9.32224
9.3219
9.32176
9.13944
9.13904
9.13884
9.43783
9.43717
9.43699
11.5008
11.5002
11.5001
17.3914
17.3914
17.3914
18.1271
18.1271
18.1271
10.487
10.4861
10.486
8.22107
8.22007
8.21984
7.69463
7.69397
7.69373
7.68991
7.68951
7.68935
7.87682
7.87643
7.87635
8.13068
8.13021
8.13018
8.38527
8.38484
8.38483
8.60966
8.60938
8.60938
8.81068
8.81032
8.81032
8.98618
8.98575
8.98573
9.13943
9.13882
9.13875
9.2599
9.25914
9.25903
9.32665
9.32602
9.3259
9.34495
9.34455
9.34445
9.34472
9.34432
9.34422
9.32617
9.32554
9.32542
9.2592
9.25845
9.25833
9.13846
9.13785
9.13779
8.98498
8.98454
8.98452
8.80929
8.80894
8.80893
8.60822
8.60796
8.60794
8.38388
8.38345
8.38345
8.12944
8.12897
8.12894
7.8758
7.87541
7.87533
7.68896
7.68856
7.6884
7.69338
7.69272
7.69249
8.21906
8.21806
8.21783
10.4838
10.4829
10.4828
18.1229
18.1229
18.1229
18.7959
18.7959
18.7959
9.73212
9.73102
9.73086
7.3093
7.30805
7.30778
6.60817
6.60728
6.60701
6.44288
6.4424
6.44223
6.50259
6.50231
6.50223
6.66769
6.6674
6.66738
6.86563
6.86541
6.86538
7.05117
7.05111
7.05112
7.22466
7.22456
7.22456
7.38134
7.38112
7.38111
7.51704
7.51664
7.5166
7.62563
7.62508
7.62499
7.68674
7.68625
7.68616
7.70396
7.70365
7.70359
7.70376
7.70346
7.7034
7.68633
7.68584
7.68576
7.62501
7.62446
7.62438
7.51619
7.5158
7.51576
7.38033
7.38012
7.3801
7.22345
7.22336
7.22337
7.04998
7.04992
7.04994
6.86453
6.86429
6.86429
6.66677
6.66648
6.66646
6.50194
6.50165
6.50158
6.44232
6.44185
6.44167
6.60728
6.60638
6.60611
7.30755
7.30631
7.30603
9.72909
9.728
9.72784
18.7915
18.7915
18.7916
19.4047
19.4046
19.4047
9.18009
9.17888
9.17865
6.61671
6.61528
6.61495
5.7815
5.78043
5.78012
5.48294
5.48239
5.4822
5.42696
5.42676
5.4267
5.50481
5.5047
5.50469
5.64493
5.64487
5.64488
5.79217
5.79224
5.79235
5.93961
5.93969
5.93979
6.07968
6.07966
6.0797
6.20056
6.2004
6.20039
6.29973
6.2994
6.29935
6.35703
6.35671
6.35667
6.37431
6.37413
6.37412
6.37415
6.37397
6.37396
6.35667
6.35635
6.35631
6.29917
6.29885
6.29881
6.19982
6.19966
6.19966
6.07884
6.07883
6.07886
5.93857
5.93865
5.93875
5.7912
5.79128
5.7914
5.64409
5.64403
5.64404
5.50416
5.50406
5.50405
5.42661
5.42642
5.42636
5.48272
5.48217
5.48198
5.78092
5.77985
5.77954
6.61519
6.61377
6.61344
9.1772
9.176
9.17578
19.4001
19.4001
19.4001
19.9578
19.9578
19.9578
8.79005
8.78879
8.78851
6.08428
6.08274
6.08236
5.14346
5.14225
5.14191
4.73755
4.73693
4.73674
4.58017
4.58003
4.57999
4.57461
4.57463
4.57467
4.65575
4.6558
4.65588
4.76388
4.76412
4.76428
4.88522
4.88549
4.88567
5.00929
5.00944
5.00956
5.11687
5.11691
5.11698
5.20825
5.20814
5.20815
5.26301
5.26289
5.2629
5.28082
5.28082
5.28085
5.28069
5.28069
5.28072
5.26269
5.26258
5.26259
5.20776
5.20766
5.20766
5.11624
5.11628
5.11635
5.00862
5.00877
5.00889
4.88432
4.8846
4.88477
4.76312
4.76337
4.76354
4.65513
4.65518
4.65526
4.57419
4.57421
4.57425
4.58008
4.57995
4.57991
4.73763
4.73701
4.73682
5.14317
5.14196
5.14162
6.08298
6.08144
6.08106
8.7873
8.78605
8.78577
19.9532
19.9532
19.9532
20.4607
20.4606
20.4607
8.53203
8.53076
8.53042
5.67192
5.6703
5.66988
4.64285
4.64156
4.64119
4.15242
4.15175
4.15156
3.90972
3.90963
3.90962
3.82765
3.82779
3.82788
3.84996
3.85015
3.85028
3.91783
3.91822
3.91844
4.01191
4.01236
4.0126
4.11913
4.11946
4.11965
4.21379
4.21403
4.21419
4.29647
4.29658
4.29668
4.34807
4.34817
4.34827
4.36578
4.36597
4.36611
4.36567
4.36587
4.366
4.3478
4.3479
4.348
4.29605
4.29615
4.29625
4.21326
4.2135
4.21366
4.11862
4.11895
4.11914
4.01114
4.0116
4.01184
3.91727
3.91766
3.91788
3.84953
3.84972
3.84986
3.82741
3.82755
3.82764
3.90985
3.90977
3.90976
4.15276
4.1521
4.15191
4.64283
4.64154
4.64118
5.67085
5.66924
5.66881
8.52944
8.52817
8.52783
20.4558
20.4558
20.4558
20.9178
20.9178
20.9178
8.38293
8.38166
8.38127
5.35206
5.3504
5.34994
4.24285
4.24154
4.24116
3.6863
3.6856
3.68543
3.37487
3.37484
3.37484
3.22625
3.22649
3.22663
3.19237
3.19268
3.19285
3.21942
3.21993
3.22019
3.28458
3.28518
3.28548
3.37294
3.37344
3.37369
3.45406
3.45449
3.45473
3.52542
3.52576
3.52597
3.57136
3.5717
3.5719
3.58754
3.58796
3.58819
3.58745
3.58787
3.5881
3.57111
3.57145
3.57166
3.52505
3.52539
3.52561
3.45363
3.45406
3.4543
3.3726
3.37309
3.37335
3.28396
3.28456
3.28486
3.21904
3.21955
3.21981
3.1921
3.19241
3.19259
3.22616
3.22641
3.22654
3.37519
3.37516
3.37517
3.68688
3.68618
3.68602
4.24311
4.2418
4.24142
5.35124
5.34958
5.34912
8.3805
8.37923
8.37885
20.9128
20.9128
20.9129
21.3328
21.3328
21.3329
8.32448
8.32319
8.32275
5.10568
5.10401
5.10352
3.91763
3.91633
3.91596
3.30754
3.30686
3.30672
2.94362
2.94362
2.94367
2.74081
2.74114
2.74131
2.65637
2.65679
2.65699
2.64366
2.64424
2.64453
2.6786
2.67929
2.67963
2.74545
2.74607
2.74638
2.81158
2.81217
2.81248
2.87101
2.87154
2.87185
2.90919
2.90974
2.91005
2.92237
2.92298
2.92332
2.92228
2.9229
2.92324
2.90897
2.90953
2.90984
2.87071
2.87125
2.87155
2.81126
2.81185
2.81216
2.74526
2.74589
2.74619
2.67812
2.67882
2.67915
2.64344
2.64402
2.64431
2.65623
2.65664
2.65685
2.74084
2.74117
2.74134
2.94409
2.94409
2.94414
3.30834
3.30766
3.30752
3.91816
3.91687
3.91649
5.10515
5.10347
5.10298
8.32224
8.32096
8.32052
21.3277
21.3277
21.3277
21.7078
21.7078
21.7078
8.34154
8.34022
8.33973
4.92002
4.91835
4.91783
3.64969
3.64843
3.64806
2.99327
2.99268
2.99255
2.59137
2.59142
2.59151
2.34781
2.34819
2.34839
2.22131
2.22179
2.22202
2.17221
2.17283
2.17312
2.17686
2.1776
2.17795
2.21972
2.22042
2.22076
2.26894
2.26964
2.26999
2.31628
2.31694
2.31729
2.34716
2.34783
2.34822
2.35786
2.35858
2.35899
2.35779
2.35851
2.35892
2.34698
2.34766
2.34804
2.31605
2.3167
2.31706
2.26872
2.26942
2.26977
2.21969
2.22039
2.22073
2.17653
2.17727
2.17762
2.17213
2.17274
2.17304
2.22126
2.22174
2.22197
2.34791
2.3483
2.3485
2.59194
2.592
2.59209
2.99425
2.99367
2.99354
3.65049
3.64923
3.64887
4.91979
4.91811
4.91759
8.33952
8.3382
8.33771
21.7025
21.7025
21.7026
22.0429
22.0429
22.0429
8.41983
8.41846
8.41791
4.78666
4.78498
4.78445
3.42824
3.42704
3.42668
2.7297
2.72919
2.72909
2.30061
2.30069
2.30081
2.029
2.0294
2.02962
1.87088
1.87138
1.87162
1.7913
1.7919
1.79218
1.76759
1.7683
1.76863
1.78518
1.78588
1.78622
1.8157
1.81643
1.81679
1.8496
1.85032
1.8507
1.87381
1.87453
1.87493
1.88292
1.88368
1.88409
1.88287
1.88363
1.88404
1.87367
1.8744
1.87479
1.84944
1.85015
1.85053
1.81558
1.81631
1.81667
1.78528
1.78599
1.78632
1.76741
1.76812
1.76845
1.79131
1.79191
1.7922
1.87089
1.87139
1.87164
2.02916
2.02957
2.02979
2.30126
2.30135
2.30147
2.73083
2.73033
2.73023
3.4293
3.4281
3.42774
4.78674
4.78505
4.78451
8.41803
8.41665
8.41611
22.0375
22.0375
22.0375
22.3361
22.3361
22.3361
8.54252
8.54109
8.5405
4.69963
4.69793
4.69737
3.24898
3.24781
3.24746
2.50952
2.50905
2.50897
2.06012
2.06021
2.06034
1.77134
1.77173
1.77196
1.5926
1.59309
1.59332
1.49036
1.4909
1.49115
1.4425
1.44312
1.4434
1.43561
1.43625
1.43655
1.44667
1.44734
1.44767
1.46613
1.46682
1.46718
1.48294
1.48364
1.48402
1.49019
1.49092
1.4913
1.49015
1.49088
1.49127
1.48284
1.48354
1.48391
1.46603
1.46672
1.46707
1.44665
1.44732
1.44766
1.43583
1.43646
1.43676
1.44245
1.44306
1.44335
1.49044
1.49098
1.49123
1.59265
1.59313
1.59337
1.77154
1.77194
1.77217
2.06083
2.06092
2.06106
2.51078
2.51031
2.51023
3.25025
3.24908
3.24873
4.69998
4.69826
4.6977
8.54088
8.53945
8.53886
22.3306
22.3306
22.3306
22.5821
22.582
22.5821
8.68734
8.68589
8.68527
4.65318
4.65143
4.65084
3.11164
3.11046
3.11009
2.33087
2.33038
2.33029
1.86519
1.86524
1.86536
1.56757
1.56792
1.56813
1.37818
1.37862
1.37883
1.26172
1.26217
1.26238
1.19569
1.19617
1.19639
1.16763
1.16813
1.16837
1.16031
1.16086
1.16113
1.16548
1.16606
1.16636
1.17453
1.17513
1.17544
1.17957
1.18019
1.18052
1.17955
1.18017
1.18049
1.17446
1.17506
1.17538
1.16543
1.16602
1.16631
1.16037
1.16091
1.16118
1.16791
1.16842
1.16865
1.19574
1.19623
1.19645
1.26185
1.2623
1.2625
1.37825
1.37868
1.3789
1.5678
1.56815
1.56836
1.86595
1.866
1.86613
2.33222
2.33173
2.33164
3.11308
3.1119
3.11154
4.65372
4.65195
4.65135
8.68576
8.68431
8.6837
22.5766
22.5766
22.5766
22.77
22.77
22.77
8.82557
8.8241
8.82346
4.63855
4.63671
4.63608
3.01761
3.01636
3.01596
2.19786
2.19731
2.1972
1.71855
1.71854
1.71863
1.41752
1.41781
1.418
1.22488
1.22524
1.22543
1.10157
1.10192
1.10208
1.02397
1.02431
1.02447
0.980217
0.980563
0.980732
0.957963
0.958351
0.958546
0.950929
0.951365
0.951586
0.952928
0.953393
0.95363
0.955737
0.956218
0.956462
0.955724
0.956205
0.95645
0.952889
0.953354
0.953591
0.950925
0.951361
0.951582
0.958077
0.958465
0.958659
0.980534
0.980879
0.981047
1.0241
1.02444
1.0246
1.10171
1.10206
1.10223
1.22494
1.22531
1.2255
1.41777
1.41806
1.41825
1.71935
1.71935
1.71944
2.19929
2.19874
2.19863
3.01918
3.01793
3.01754
4.63918
4.63732
4.63669
8.82396
8.82249
8.82185
22.7646
22.7646
22.7646
22.8811
22.881
22.8811
8.91887
8.91739
8.91672
4.64038
4.63844
4.63777
2.96807
2.96673
2.9663
2.12105
2.12043
2.12028
1.63246
1.63242
1.63246
1.33072
1.33095
1.33112
1.13836
1.13868
1.13885
1.01297
1.01326
1.01339
0.92984
0.930088
0.930205
0.877372
0.877603
0.877721
0.846162
0.846426
0.846565
0.831492
0.831809
0.831971
0.828871
0.829223
0.829399
0.830098
0.830466
0.830649
0.830091
0.830458
0.830641
0.828848
0.829201
0.829377
0.831513
0.831831
0.831992
0.846305
0.846568
0.846706
0.877698
0.877928
0.878046
0.930019
0.930264
0.93038
1.01312
1.0134
1.01353
1.13843
1.13874
1.13891
1.33098
1.33121
1.33139
1.63329
1.63326
1.63331
2.12255
2.12193
2.12179
2.96974
2.9684
2.96797
4.64105
4.63909
4.63842
8.91719
8.91571
8.91504
22.8756
22.8756
22.8757
)
;

boundaryField
{
    freeSurface
    {
        type            slip;
    }
    inlet
    {
        type            cyclic;
    }
    outlet
    {
        type            cyclic;
    }
    sidewalls
    {
        type            omegaWallFunction;
        Cmu             0.09;
        kappa           0.41;
        E               9.8;
        beta1           0.075;
        blended         false;
        value           nonuniform List<scalar> 
144
(
423.147
6.88601
9.01471
10.5025
11.7345
12.8259
13.8492
14.8234
15.7427
16.6004
17.3954
18.1271
18.7959
19.4047
19.9578
20.4607
20.9178
21.3328
21.7078
22.0429
22.3361
22.5821
22.77
22.8811
423.147
6.88603
9.01472
10.5025
11.7345
12.8259
13.8492
14.8234
15.7427
16.6004
17.3954
18.1271
18.7959
19.4046
19.9578
20.4606
20.9178
21.3328
21.7078
22.0429
22.3361
22.582
22.77
22.881
423.147
6.88603
9.01472
10.5025
11.7345
12.8259
13.8492
14.8234
15.7427
16.6004
17.3954
18.1271
18.7959
19.4047
19.9578
20.4607
20.9178
21.3329
21.7078
22.0429
22.3361
22.5821
22.77
22.8811
423.147
6.88408
9.01237
10.4999
11.7317
12.8229
13.846
14.8199
15.7391
16.5966
17.3914
18.1229
18.7915
19.4001
19.9532
20.4558
20.9128
21.3277
21.7025
22.0375
22.3306
22.5766
22.7646
22.8756
423.147
6.8841
9.01238
10.4999
11.7317
12.8229
13.846
14.8199
15.7391
16.5966
17.3914
18.1229
18.7915
19.4001
19.9532
20.4558
20.9128
21.3277
21.7025
22.0375
22.3306
22.5766
22.7646
22.8756
423.147
6.8841
9.01238
10.4999
11.7317
12.8229
13.846
14.8199
15.7391
16.5966
17.3914
18.1229
18.7916
19.4001
19.9532
20.4558
20.9129
21.3277
21.7026
22.0375
22.3306
22.5766
22.7646
22.8757
)
;
    }
    noSlipWalls
    {
        type            omegaWallFunction;
        Cmu             0.09;
        kappa           0.41;
        E               9.8;
        beta1           0.075;
        blended         false;
        value           nonuniform List<scalar> 
90
(
423.147
843.917
843.917
843.917
843.917
843.917
843.917
843.917
843.917
843.917
843.917
843.917
843.917
843.917
843.917
843.917
843.917
843.917
843.917
843.917
843.917
843.917
843.917
843.917
843.917
843.917
843.917
843.917
843.917
423.147
423.147
843.917
843.917
843.917
843.917
843.917
843.917
843.917
843.917
843.917
843.917
843.917
843.917
843.917
843.917
843.917
843.917
843.917
843.917
843.917
843.917
843.917
843.917
843.917
843.917
843.917
843.917
843.917
843.917
423.147
423.147
843.917
843.917
843.917
843.917
843.917
843.917
843.917
843.917
843.917
843.917
843.917
843.917
843.917
843.917
843.917
843.917
843.917
843.917
843.917
843.917
843.917
843.917
843.917
843.917
843.917
843.917
843.917
843.917
423.147
)
;
    }
}


// ************************************************************************* //
