/*--------------------------------*- C++ -*----------------------------------*\
  =========                 |
  \\      /  F ield         | OpenFOAM: The Open Source CFD Toolbox
   \\    /   O peration     | Website:  https://openfoam.org
    \\  /    A nd           | Version:  6
     \\/     M anipulation  |
\*---------------------------------------------------------------------------*/
FoamFile
{
    version     2.0;
    format      ascii;
    class       volScalarField;
    location    "20";
    object      p;
}
// * * * * * * * * * * * * * * * * * * * * * * * * * * * * * * * * * * * * * //

dimensions      [0 2 -2 0 0 0 0];

internalField   nonuniform List<scalar> 
2160
(
-3.40782e-18
-2.56325e-08
4.21813e-10
1.27132e-10
-2.60214e-08
1.7044e-10
-5.01541e-10
-2.63464e-08
4.53858e-10
-4.62634e-09
-2.07288e-08
-1.46298e-09
-1.03504e-08
-1.12978e-08
-5.36097e-09
-1.49207e-08
-2.92248e-09
-9.56492e-09
-1.94055e-08
4.77139e-09
-1.32706e-08
-2.24788e-08
9.63637e-09
-1.58448e-08
-2.49085e-08
1.37789e-08
-1.75854e-08
-2.44487e-08
1.36813e-08
-1.72981e-08
-2.20336e-08
1.03684e-08
-1.6254e-08
-1.94486e-08
3.82276e-09
-1.22796e-08
-1.48979e-08
-4.75725e-09
-8.02594e-09
-9.73929e-09
-1.38421e-08
-4.10073e-09
-6.80848e-09
-1.44668e-08
-4.83784e-09
-6.70518e-09
-1.43846e-08
-4.76785e-09
-9.46062e-09
-1.36577e-08
-3.8369e-09
-1.45442e-08
-4.56013e-09
-7.828e-09
-1.88085e-08
3.56179e-09
-1.18896e-08
-2.10115e-08
9.13281e-09
-1.54182e-08
-2.36356e-08
1.38197e-08
-1.75448e-08
-2.36442e-08
1.47962e-08
-1.8532e-08
-2.15563e-08
9.95091e-09
-1.58204e-08
-1.89251e-08
4.55789e-09
-1.31557e-08
-1.53295e-08
-2.58498e-09
-9.70958e-09
-1.01261e-08
-1.27624e-08
-4.76415e-09
-5.20309e-09
-2.07433e-08
-1.74549e-09
-1.33535e-09
-2.6528e-08
1.32452e-10
-1.24574e-09
-2.64665e-08
-6.17134e-11
-1.72657e-09
-2.62712e-08
2.04312e-10
-3.17857e-11
-2.56308e-08
4.2245e-10
1.06307e-10
-2.60074e-08
1.72314e-10
-5.23609e-10
-2.63222e-08
4.46829e-10
-4.63811e-09
-2.07101e-08
-1.47082e-09
-1.03459e-08
-1.13034e-08
-5.36178e-09
-1.491e-08
-2.92881e-09
-9.56858e-09
-1.939e-08
4.75693e-09
-1.32705e-08
-2.24634e-08
9.62474e-09
-1.58436e-08
-2.48918e-08
1.37668e-08
-1.75859e-08
-2.44414e-08
1.36763e-08
-1.72999e-08
-2.20352e-08
1.03657e-08
-1.62496e-08
-1.94666e-08
3.84315e-09
-1.22813e-08
-1.49269e-08
-4.73227e-09
-8.02276e-09
-9.7842e-09
-1.37879e-08
-4.10968e-09
-6.85004e-09
-1.44089e-08
-4.8547e-09
-6.74669e-09
-1.43265e-08
-4.78484e-09
-9.50609e-09
-1.36036e-08
-3.84636e-09
-1.45734e-08
-4.53529e-09
-7.82491e-09
-1.88276e-08
3.58273e-09
-1.18917e-08
-2.10157e-08
9.13858e-09
-1.54198e-08
-2.36284e-08
1.3813e-08
-1.75446e-08
-2.36317e-08
1.47786e-08
-1.85264e-08
-2.15432e-08
9.93824e-09
-1.58206e-08
-1.89117e-08
4.54693e-09
-1.31578e-08
-1.53141e-08
-2.60159e-09
-9.70769e-09
-1.01265e-08
-1.27513e-08
-4.77476e-09
-5.21088e-09
-2.07323e-08
-1.74858e-09
-1.35462e-09
-2.65032e-08
1.26893e-10
-1.26257e-09
-2.64519e-08
-5.96794e-11
-1.72922e-09
-2.62681e-08
2.04016e-10
-8.87951e-11
-2.56292e-08
4.24964e-10
6.32306e-11
-2.60125e-08
2.07932e-10
-5.68379e-10
-2.63016e-08
4.60747e-10
-4.664e-09
-2.06794e-08
-1.47659e-09
-1.03401e-08
-1.13069e-08
-5.36827e-09
-1.48915e-08
-2.92026e-09
-9.59397e-09
-1.93633e-08
4.74864e-09
-1.32861e-08
-2.24285e-08
9.61687e-09
-1.58579e-08
-2.48523e-08
1.37494e-08
-1.7597e-08
-2.44104e-08
1.36603e-08
-1.73132e-08
-2.20123e-08
1.03375e-08
-1.62429e-08
-1.94593e-08
3.84371e-09
-1.22864e-08
-1.49219e-08
-4.74344e-09
-8.01759e-09
-9.80484e-09
-1.37474e-08
-4.12795e-09
-6.86797e-09
-1.4372e-08
-4.87452e-09
-6.7646e-09
-1.42895e-08
-4.8047e-09
-9.5284e-09
-1.35632e-08
-3.8659e-09
-1.45693e-08
-4.54673e-09
-7.81993e-09
-1.88233e-08
3.58514e-09
-1.18983e-08
-2.10018e-08
9.13193e-09
-1.54265e-08
-2.3601e-08
1.37922e-08
-1.75493e-08
-2.3603e-08
1.47471e-08
-1.85222e-08
-2.15173e-08
9.9275e-09
-1.58348e-08
-1.8886e-08
4.54696e-09
-1.31828e-08
-1.52846e-08
-2.61769e-09
-9.71939e-09
-1.01329e-08
-1.27154e-08
-4.80383e-09
-5.22754e-09
-2.07198e-08
-1.7439e-09
-1.39295e-09
-2.64823e-08
1.44174e-10
-1.29532e-09
-2.64556e-08
-2.35778e-11
-1.73556e-09
-2.62625e-08
2.05184e-10
-1.70993e-10
-2.56274e-08
4.31039e-10
-6.95022e-13
-2.60822e-08
3.18736e-10
-6.29017e-10
-2.6335e-08
5.3992e-10
-4.70288e-09
-2.06474e-08
-1.4697e-09
-1.03385e-08
-1.13013e-08
-5.38244e-09
-1.48789e-08
-2.86388e-09
-9.66032e-09
-1.93405e-08
4.78486e-09
-1.33403e-08
-2.23863e-08
9.64932e-09
-1.59095e-08
-2.48038e-08
1.37652e-08
-1.76412e-08
-2.43708e-08
1.36747e-08
-1.73645e-08
-2.19786e-08
1.03151e-08
-1.62522e-08
-1.94441e-08
3.86454e-09
-1.23175e-08
-1.4904e-08
-4.75895e-09
-8.0218e-09
-9.81824e-09
-1.36956e-08
-4.16344e-09
-6.87631e-09
-1.43632e-08
-4.87709e-09
-6.77295e-09
-1.42808e-08
-4.80726e-09
-9.54505e-09
-1.35117e-08
-3.9038e-09
-1.45532e-08
-4.56276e-09
-7.82447e-09
-1.88143e-08
3.61023e-09
-1.19323e-08
-2.09875e-08
9.14976e-09
-1.54579e-08
-2.35703e-08
1.3795e-08
-1.75794e-08
-2.35754e-08
1.47366e-08
-1.85371e-08
-2.14906e-08
9.95371e-09
-1.58863e-08
-1.88635e-08
4.59748e-09
-1.32544e-08
-1.52526e-08
-2.60709e-09
-9.75904e-09
-1.0153e-08
-1.26383e-08
-4.85969e-09
-5.25021e-09
-2.07212e-08
-1.71872e-09
-1.44238e-09
-2.65172e-08
2.28808e-10
-1.33895e-09
-2.65232e-08
8.79176e-11
-1.74709e-09
-2.62552e-08
2.09995e-10
-2.68844e-10
-2.56272e-08
4.42083e-10
-8.90392e-11
-2.62353e-08
5.26675e-10
-6.97496e-10
-2.64651e-08
7.2062e-10
-4.7466e-09
-2.06339e-08
-1.43674e-09
-1.03484e-08
-1.12831e-08
-5.39994e-09
-1.48903e-08
-2.73486e-09
-9.7742e-09
-1.93366e-08
4.89613e-09
-1.34481e-08
-2.23537e-08
9.74905e-09
-1.60073e-08
-2.47629e-08
1.38473e-08
-1.77339e-08
-2.43454e-08
1.37575e-08
-1.74686e-08
-2.19522e-08
1.03367e-08
-1.62974e-08
-1.94419e-08
3.95359e-09
-1.24014e-08
-1.48986e-08
-4.72981e-09
-8.05892e-09
-9.85128e-09
-1.35907e-08
-4.23127e-09
-6.89324e-09
-1.43616e-08
-4.86569e-09
-6.78978e-09
-1.42793e-08
-4.79599e-09
-9.58307e-09
-1.34073e-08
-3.97524e-09
-1.45508e-08
-4.53443e-09
-7.86218e-09
-1.8822e-08
3.70651e-09
-1.2021e-08
-2.09892e-08
9.22908e-09
-1.55345e-08
-2.35509e-08
1.38583e-08
-1.76574e-08
-2.35661e-08
1.47813e-08
-1.8588e-08
-2.14765e-08
1.00439e-08
-1.59889e-08
-1.88619e-08
4.72601e-09
-1.33826e-08
-1.52345e-08
-2.54495e-09
-9.83517e-09
-1.01924e-08
-1.25173e-08
-4.93958e-09
-5.27155e-09
-2.07546e-08
-1.66143e-09
-1.49392e-09
-2.66518e-08
4.16661e-10
-1.39418e-09
-2.6675e-08
2.95969e-10
-1.76379e-09
-2.62484e-08
2.20525e-10
-3.75902e-10
-2.56314e-08
4.58299e-10
-1.74308e-10
-2.64433e-08
7.74839e-10
-7.86748e-10
-2.66702e-08
9.92893e-10
-4.79483e-09
-2.0656e-08
-1.36263e-09
-1.03775e-08
-1.1248e-08
-5.41691e-09
-1.49352e-08
-2.51837e-09
-9.94113e-09
-1.93593e-08
5.10553e-09
-1.36245e-08
-2.23399e-08
9.93317e-09
-1.61589e-08
-2.47354e-08
1.40228e-08
-1.7896e-08
-2.43466e-08
1.39314e-08
-1.76352e-08
-2.19489e-08
1.04305e-08
-1.63904e-08
-1.94679e-08
4.14715e-09
-1.25591e-08
-1.49181e-08
-4.61265e-09
-8.15966e-09
-9.92237e-09
-1.33922e-08
-4.35332e-09
-6.93326e-09
-1.43302e-08
-4.86289e-09
-6.82971e-09
-1.42482e-08
-4.79344e-09
-9.66094e-09
-1.32097e-08
-4.102e-09
-1.45746e-08
-4.41832e-09
-7.96376e-09
-1.8862e-08
3.91077e-09
-1.21855e-08
-2.10144e-08
9.39651e-09
-1.56752e-08
-2.3551e-08
1.40117e-08
-1.78044e-08
-2.35796e-08
1.49117e-08
-1.87007e-08
-2.14857e-08
1.02181e-08
-1.61516e-08
-1.88886e-08
4.95228e-09
-1.35796e-08
-1.52383e-08
-2.40838e-09
-9.96277e-09
-1.02567e-08
-1.23547e-08
-5.03518e-09
-5.29545e-09
-2.08326e-08
-1.55649e-09
-1.55974e-09
-2.68656e-08
6.9852e-10
-1.43578e-09
-2.68833e-08
5.46987e-10
-1.78405e-09
-2.6245e-08
2.37392e-10
-4.85594e-10
-2.56428e-08
4.79947e-10
-2.17744e-10
-2.66898e-08
1.01114e-09
-8.6069e-10
-2.69429e-08
1.31178e-09
-4.85547e-09
-2.07147e-08
-1.24145e-09
-1.04226e-08
-1.11881e-08
-5.44398e-09
-1.50054e-08
-2.20655e-09
-1.01773e-08
-1.94062e-08
5.43284e-09
-1.38914e-08
-2.23485e-08
1.02277e-08
-1.63884e-08
-2.4727e-08
1.43302e-08
-1.81612e-08
-2.43761e-08
1.42215e-08
-1.78872e-08
-2.19808e-08
1.06186e-08
-1.65413e-08
-1.95359e-08
4.47635e-09
-1.2808e-08
-1.49764e-08
-4.36286e-09
-8.3544e-09
-1.00452e-08
-1.30592e-08
-4.55713e-09
-7.01521e-09
-1.42247e-08
-4.89439e-09
-6.91182e-09
-1.41434e-08
-4.82502e-09
-9.79228e-09
-1.2878e-08
-4.31144e-09
-1.46387e-08
-4.16966e-09
-8.15969e-09
-1.8948e-08
4.25427e-09
-1.24433e-08
-2.10712e-08
9.67759e-09
-1.58972e-08
-2.35809e-08
1.42879e-08
-1.8043e-08
-2.36216e-08
1.51632e-08
-1.89053e-08
-2.15231e-08
1.05011e-08
-1.63948e-08
-1.89452e-08
5.29781e-09
-1.38654e-08
-1.52596e-08
-2.17868e-09
-1.01668e-08
-1.03423e-08
-1.21524e-08
-5.14762e-09
-5.33064e-09
-2.09498e-08
-1.40077e-09
-1.6053e-09
-2.71509e-08
1.03132e-09
-1.42805e-09
-2.71307e-08
7.8954e-10
-1.80552e-09
-2.62472e-08
2.60142e-10
-5.94189e-10
-2.56646e-08
5.1015e-10
-2.56528e-10
-2.69244e-08
1.22514e-09
-8.688e-10
-2.72661e-08
1.61251e-09
-4.9195e-09
-2.07972e-08
-1.09453e-09
-1.04801e-08
-1.1091e-08
-5.49637e-09
-1.50953e-08
-1.79305e-09
-1.04943e-08
-1.9482e-08
5.89123e-09
-1.42563e-08
-2.23787e-08
1.06514e-08
-1.6716e-08
-2.47434e-08
1.47839e-08
-1.85397e-08
-2.44366e-08
1.46803e-08
-1.82747e-08
-2.20443e-08
1.0936e-08
-1.67882e-08
-1.96573e-08
4.97746e-09
-1.31737e-08
-1.5094e-08
-3.93101e-09
-8.67196e-09
-1.02385e-08
-1.25477e-08
-4.86845e-09
-7.15791e-09
-1.39963e-08
-4.99021e-09
-7.05498e-09
-1.39162e-08
-4.92075e-09
-9.99551e-09
-1.23683e-08
-4.62912e-09
-1.47636e-08
-3.73894e-09
-8.47879e-09
-1.90912e-08
4.77361e-09
-1.28199e-08
-2.11667e-08
1.01078e-08
-1.62291e-08
-2.36467e-08
1.47333e-08
-1.84144e-08
-2.36985e-08
1.55283e-08
-1.9188e-08
-2.15886e-08
1.0909e-08
-1.67347e-08
-1.90463e-08
5.77607e-09
-1.42385e-08
-1.52978e-08
-1.84429e-09
-1.04595e-08
-1.04438e-08
-1.19085e-08
-5.2845e-09
-5.36221e-09
-2.10868e-08
-1.22822e-09
-1.58119e-09
-2.74888e-08
1.34852e-09
-1.40529e-09
-2.73675e-08
1.00673e-09
-1.82782e-09
-2.62561e-08
2.89556e-10
-6.99542e-10
-2.56995e-08
5.55923e-10
-3.13189e-10
-2.70694e-08
1.3656e-09
-8.60698e-10
-2.7561e-08
1.86576e-09
-4.99017e-09
-2.08539e-08
-9.69497e-10
-1.05652e-08
-1.09343e-08
-5.58008e-09
-1.52211e-08
-1.27176e-09
-1.08828e-08
-1.95991e-08
6.4893e-09
-1.4715e-08
-2.24333e-08
1.11954e-08
-1.71316e-08
-2.47813e-08
1.53347e-08
-1.89852e-08
-2.45286e-08
1.53271e-08
-1.88169e-08
-2.21383e-08
1.144e-08
-1.71908e-08
-1.9835e-08
5.70821e-09
-1.3711e-08
-1.52929e-08
-3.2563e-09
-9.15126e-09
-1.0524e-08
-1.18107e-08
-5.3126e-09
-7.3836e-09
-1.35979e-08
-5.17562e-09
-7.28143e-09
-1.35195e-08
-5.10606e-09
-1.02924e-08
-1.16336e-08
-5.08007e-09
-1.49715e-08
-3.06522e-09
-8.95998e-09
-1.92943e-08
5.52662e-09
-1.33704e-08
-2.13058e-08
1.07299e-08
-1.6709e-08
-2.37512e-08
1.53579e-08
-1.89259e-08
-2.38072e-08
1.59619e-08
-1.95055e-08
-2.16839e-08
1.14316e-08
-1.71587e-08
-1.91954e-08
6.39104e-09
-1.46994e-08
-1.53705e-08
-1.39387e-09
-1.08314e-08
-1.05721e-08
-1.16096e-08
-5.44968e-09
-5.39759e-09
-2.11896e-08
-1.08592e-09
-1.53598e-09
-2.78015e-08
1.61949e-09
-1.38936e-09
-2.75217e-08
1.1475e-09
-1.85129e-09
-2.62745e-08
3.31685e-10
-8.01812e-10
-2.57443e-08
6.18156e-10
-3.96943e-10
-2.71326e-08
1.45182e-09
-8.82243e-10
-2.77675e-08
2.06012e-09
-5.10054e-09
-2.08203e-08
-8.98191e-10
-1.07012e-08
-1.06781e-08
-5.7111e-09
-1.53895e-08
-6.32613e-10
-1.13462e-08
-1.97577e-08
7.21769e-09
-1.52582e-08
-2.25126e-08
1.18356e-08
-1.76125e-08
-2.48339e-08
1.59441e-08
-1.94668e-08
-2.46541e-08
1.60862e-08
-1.94334e-08
-2.22721e-08
1.2142e-08
-1.77509e-08
-2.00486e-08
6.71058e-09
-1.44869e-08
-1.55783e-08
-2.25381e-09
-9.87176e-09
-1.09209e-08
-1.07867e-08
-5.93237e-09
-7.71611e-09
-1.29763e-08
-5.48036e-09
-7.61495e-09
-1.29001e-08
-5.41078e-09
-1.07018e-08
-1.06125e-08
-5.7066e-09
-1.52674e-08
-2.06349e-09
-9.68268e-09
-1.95357e-08
6.55415e-09
-1.41597e-08
-2.14917e-08
1.15448e-08
-1.73344e-08
-2.38943e-08
1.60817e-08
-1.94963e-08
-2.3937e-08
1.64656e-08
-1.98704e-08
-2.1809e-08
1.20456e-08
-1.76435e-08
-1.93839e-08
7.14146e-09
-1.52555e-08
-1.54949e-08
-8.1213e-10
-1.12814e-08
-1.07483e-08
-1.1224e-08
-5.65422e-09
-5.47854e-09
-2.11908e-08
-9.99381e-10
-1.51732e-09
-2.80285e-08
1.83167e-09
-1.39513e-09
-2.75931e-08
1.22778e-09
-1.87749e-09
-2.63024e-08
3.88895e-10
-9.0375e-10
-2.57949e-08
6.87352e-10
-4.97702e-10
-2.71983e-08
1.55775e-09
-9.73299e-10
-2.78194e-08
2.17172e-09
-5.2898e-09
-2.06148e-08
-9.23153e-10
-1.09079e-08
-1.02572e-08
-5.93458e-09
-1.56001e-08
1.30423e-10
-1.18907e-08
-1.9958e-08
8.05229e-09
-1.58612e-08
-2.26127e-08
1.25499e-08
-1.81417e-08
-2.48963e-08
1.66055e-08
-1.99851e-08
-2.48052e-08
1.68968e-08
-2.00701e-08
-2.24488e-08
1.2971e-08
-1.83924e-08
-2.03229e-08
7.95837e-09
-1.54464e-08
-1.59114e-08
-8.90683e-10
-1.09106e-08
-1.14311e-08
-9.38021e-09
-6.82037e-09
-8.17248e-09
-1.20341e-08
-5.98539e-09
-8.07259e-09
-1.19607e-08
-5.91599e-09
-1.12258e-08
-9.21026e-09
-6.60032e-09
-1.56127e-08
-7.00867e-10
-1.07234e-08
-1.98399e-08
7.82828e-09
-1.51321e-08
-2.17229e-08
1.2488e-08
-1.80412e-08
-2.40661e-08
1.68489e-08
-2.00793e-08
-2.4071e-08
1.7041e-08
-2.03012e-08
-2.19591e-08
1.27319e-08
-1.81738e-08
-1.96125e-08
8.00235e-09
-1.58811e-08
-1.56702e-08
-8.7713e-11
-1.18232e-08
-1.09897e-08
-1.06914e-08
-5.94035e-09
-5.64322e-09
-2.10058e-08
-1.01536e-09
-1.56728e-09
-2.81027e-08
1.95943e-09
-1.41804e-09
-2.76653e-08
1.32744e-09
-1.90541e-09
-2.63355e-08
4.52474e-10
-1.00977e-09
-2.58469e-08
7.55103e-10
-6.00198e-10
-2.72859e-08
1.68458e-09
-1.15326e-09
-2.76473e-08
2.15232e-09
-5.59404e-09
-2.01232e-08
-1.1224e-09
-1.1213e-08
-9.5755e-09
-6.31842e-09
-1.58584e-08
1.02208e-09
-1.25155e-08
-2.01934e-08
8.98e-09
-1.65174e-08
-2.27259e-08
1.33263e-08
-1.87169e-08
-2.49551e-08
1.72785e-08
-2.0515e-08
-2.49614e-08
1.77264e-08
-2.07157e-08
-2.26548e-08
1.38606e-08
-1.9062e-08
-2.06981e-08
9.37169e-09
-1.64668e-08
-1.6333e-08
7.70914e-10
-1.21579e-08
-1.20147e-08
-7.5685e-09
-8.03738e-09
-8.7378e-09
-1.06168e-08
-6.8555e-09
-8.6394e-09
-1.05465e-08
-6.78677e-09
-1.1825e-08
-7.40327e-09
-7.82127e-09
-1.60477e-08
9.60568e-10
-1.19732e-08
-2.02473e-08
9.26855e-09
-1.6166e-08
-2.19846e-08
1.34886e-08
-1.87732e-08
-2.42456e-08
1.7642e-08
-2.06795e-08
-2.42015e-08
1.76317e-08
-2.07495e-08
-2.21243e-08
1.34806e-08
-1.87501e-08
-1.98771e-08
8.94717e-09
-1.65536e-08
-1.59009e-08
7.85799e-10
-1.24588e-08
-1.13241e-08
-9.91833e-09
-6.37377e-09
-5.92718e-09
-2.05193e-08
-1.21359e-09
-1.70706e-09
-2.79532e-08
1.95287e-09
-1.44342e-09
-2.77568e-08
1.44852e-09
-1.93421e-09
-2.63687e-08
5.16062e-10
-1.12092e-09
-2.58913e-08
8.12224e-10
-7.01351e-10
-2.7367e-08
1.79773e-09
-1.44282e-09
-2.71944e-08
1.9658e-09
-6.06273e-09
-1.9219e-08
-1.57252e-09
-1.16504e-08
-8.5094e-09
-6.95194e-09
-1.61654e-08
2.05091e-09
-1.32281e-08
-2.04501e-08
9.96833e-09
-1.72088e-08
-2.28496e-08
1.41179e-08
-1.92955e-08
-2.49743e-08
1.78745e-08
-2.10068e-08
-2.50856e-08
1.84834e-08
-2.13166e-08
-2.28591e-08
1.47531e-08
-1.97333e-08
-2.11121e-08
1.08408e-08
-1.75036e-08
-1.68873e-08
2.60835e-09
-1.34407e-08
-1.26829e-08
-5.46414e-09
-9.46239e-09
-9.31027e-09
-8.74664e-09
-8.17029e-09
-9.21319e-09
-8.67985e-09
-8.10295e-09
-1.25093e-08
-5.30305e-09
-9.25059e-09
-1.6616e-08
2.79728e-09
-1.3259e-08
-2.06939e-08
1.07663e-08
-1.72176e-08
-2.22514e-08
1.44797e-08
-1.94891e-08
-2.4394e-08
1.83677e-08
-2.12432e-08
-2.42863e-08
1.81465e-08
-2.11675e-08
-2.22894e-08
1.42451e-08
-1.93409e-08
-2.01632e-08
9.94391e-09
-1.72555e-08
-1.6188e-08
1.8159e-09
-1.31953e-08
-1.17843e-08
-8.78152e-09
-7.04483e-09
-6.38031e-09
-1.96058e-08
-1.67003e-09
-1.95885e-09
-2.75209e-08
1.77431e-09
-1.46959e-09
-2.78372e-08
1.55619e-09
-1.964e-09
-2.63935e-08
5.70956e-10
-1.23374e-09
-2.59129e-08
8.42776e-10
-8.07525e-10
-2.73913e-08
1.84924e-09
-1.85522e-09
-2.64295e-08
1.59152e-09
-6.74301e-09
-1.77866e-08
-2.34254e-09
-1.22374e-08
-6.91291e-09
-7.96313e-09
-1.65181e-08
3.23064e-09
-1.40457e-08
-2.07018e-08
1.09476e-08
-1.78928e-08
-2.29465e-08
1.48316e-08
-1.9825e-08
-2.48505e-08
1.82394e-08
-2.14114e-08
-2.50651e-08
1.89867e-08
-2.18052e-08
-2.299e-08
1.55168e-08
-2.0347e-08
-2.14968e-08
1.22262e-08
-1.84847e-08
-1.74564e-08
4.42339e-09
-1.46841e-08
-1.34117e-08
-3.24878e-09
-1.09399e-08
-9.87145e-09
-6.69098e-09
-9.68658e-09
-9.77415e-09
-6.62757e-09
-9.62317e-09
-1.32537e-08
-3.09115e-09
-1.07343e-08
-1.72014e-08
4.60811e-09
-1.45005e-08
-2.11042e-08
1.21819e-08
-1.82221e-08
-2.24475e-08
1.53312e-08
-2.01349e-08
-2.43965e-08
1.88396e-08
-2.16995e-08
-2.42119e-08
1.84345e-08
-2.15177e-08
-2.24226e-08
1.49278e-08
-1.9882e-08
-2.04473e-08
1.09241e-08
-1.79422e-08
-1.65292e-08
3.01352e-09
-1.40462e-08
-1.23835e-08
-7.13253e-09
-8.0872e-09
-7.04952e-09
-1.8151e-08
-2.45302e-09
-2.33706e-09
-2.67714e-08
1.40221e-09
-1.50398e-09
-2.7855e-08
1.60361e-09
-1.99542e-09
-2.63964e-08
6.02799e-10
-1.35029e-09
-2.58939e-08
8.2762e-10
-9.28414e-10
-2.73014e-08
1.78908e-09
-2.388e-09
-2.53471e-08
1.01554e-09
-7.63565e-09
-1.57472e-08
-3.51005e-09
-1.29781e-08
-4.61852e-09
-9.50739e-09
-1.69334e-08
4.57037e-09
-1.4959e-08
-2.08918e-08
1.18091e-08
-1.85187e-08
-2.28971e-08
1.53035e-08
-2.02624e-08
-2.44586e-08
1.81303e-08
-2.16109e-08
-2.47456e-08
1.89388e-08
-2.20374e-08
-2.29057e-08
1.58936e-08
-2.07863e-08
-2.17176e-08
1.32996e-08
-1.93173e-08
-1.7905e-08
6.05789e-09
-1.58604e-08
-1.40811e-08
-1.16459e-09
-1.23448e-08
-1.03366e-08
-4.69599e-09
-1.12498e-08
-1.02404e-08
-4.63539e-09
-1.11908e-08
-1.39388e-08
-1.00906e-09
-1.2146e-08
-1.76789e-08
6.23658e-09
-1.56616e-08
-2.13473e-08
1.32812e-08
-1.90767e-08
-2.24228e-08
1.57835e-08
-2.0601e-08
-2.40982e-08
1.87576e-08
-2.19023e-08
-2.38627e-08
1.82535e-08
-2.16722e-08
-2.24183e-08
1.53641e-08
-2.03146e-08
-2.06702e-08
1.17803e-08
-1.8566e-08
-1.69448e-08
4.3828e-09
-1.49938e-08
-1.31276e-08
-4.79988e-09
-9.65721e-09
-7.93261e-09
-1.60776e-08
-3.64214e-09
-2.83913e-09
-2.5695e-08
8.22718e-10
-1.55518e-09
-2.77517e-08
1.54405e-09
-2.03316e-09
-2.63588e-08
5.94323e-10
-1.48938e-09
-2.58021e-08
7.4863e-10
-1.08331e-09
-2.70446e-08
1.58189e-09
-3.02294e-09
-2.39585e-08
2.22088e-10
-8.68369e-09
-1.30946e-08
-5.14117e-09
-1.40258e-08
-1.52017e-09
-1.1544e-08
-1.74652e-08
6.03228e-09
-1.5865e-08
-2.09426e-08
1.23894e-08
-1.90018e-08
-2.25782e-08
1.52746e-08
-2.04726e-08
-2.37027e-08
1.72292e-08
-2.13831e-08
-2.39975e-08
1.79317e-08
-2.17346e-08
-2.24242e-08
1.54761e-08
-2.08249e-08
-2.15636e-08
1.36454e-08
-1.97961e-08
-1.82365e-08
7.62241e-09
-1.70772e-08
-1.46881e-08
7.81074e-10
-1.36667e-08
-1.09051e-08
-2.50855e-09
-1.29293e-08
-1.0814e-08
-2.4494e-09
-1.28717e-08
-1.45636e-08
9.35875e-10
-1.34735e-08
-1.80123e-08
7.77182e-09
-1.68664e-08
-2.12183e-08
1.36488e-08
-1.95706e-08
-2.20006e-08
1.54269e-08
-2.06535e-08
-2.33678e-08
1.77226e-08
-2.15831e-08
-2.31521e-08
1.72871e-08
-2.14009e-08
-2.2144e-08
1.52984e-08
-2.05151e-08
-2.07487e-08
1.235e-08
-1.90477e-08
-1.74848e-08
5.87783e-09
-1.59296e-08
-1.41775e-08
-1.67862e-09
-1.17077e-08
-8.97324e-09
-1.33811e-08
-5.30042e-09
-3.44544e-09
-2.42987e-08
2.19832e-11
-1.63684e-09
-2.7473e-08
1.34641e-09
-2.09668e-09
-2.62525e-08
5.36917e-10
-1.6649e-09
-2.56103e-08
5.91069e-10
-1.29013e-09
-2.65853e-08
1.21661e-09
-3.74034e-09
-2.23007e-08
-7.78229e-10
-9.94143e-09
-9.9854e-09
-7.02745e-09
-1.54312e-08
2.045e-09
-1.37268e-08
-1.80449e-08
7.467e-09
-1.66954e-08
-2.0782e-08
1.24909e-08
-1.92181e-08
-2.19019e-08
1.44198e-08
-2.02195e-08
-2.24554e-08
1.51761e-08
-2.04977e-08
-2.26377e-08
1.548e-08
-2.05959e-08
-2.13448e-08
1.37244e-08
-2.01233e-08
-2.08112e-08
1.26824e-08
-1.95644e-08
-1.87336e-08
9.35314e-09
-1.83009e-08
-1.53183e-08
3.03434e-09
-1.5256e-08
-1.21581e-08
7.01615e-10
-1.49073e-08
-1.20722e-08
7.59937e-10
-1.48531e-08
-1.52147e-08
3.19013e-09
-1.50654e-08
-1.84878e-08
9.47017e-09
-1.80998e-08
-2.04852e-08
1.27106e-08
-1.93626e-08
-2.09781e-08
1.37265e-08
-1.99608e-08
-2.2036e-08
1.52816e-08
-2.04585e-08
-2.19572e-08
1.518e-08
-2.04721e-08
-2.15088e-08
1.44031e-08
-2.0246e-08
-2.06095e-08
1.24363e-08
-1.92638e-08
-1.80678e-08
7.34244e-09
-1.67916e-08
-1.55857e-08
1.90495e-09
-1.38981e-08
-1.02249e-08
-1.0221e-08
-7.21362e-09
-4.13383e-09
-2.26167e-08
-9.87909e-10
-1.78093e-09
-2.69781e-08
9.81792e-10
-2.18208e-09
-2.60234e-08
3.90063e-10
-1.86579e-09
-2.52841e-08
3.26355e-10
-1.55336e-09
-2.5927e-08
6.86086e-10
-4.50186e-09
-2.04868e-08
-1.91298e-09
-1.13313e-08
-6.83223e-09
-8.86525e-09
-1.64282e-08
4.37296e-09
-1.50803e-08
-1.85224e-08
8.5939e-09
-1.73284e-08
-2.03353e-08
1.19489e-08
-1.908e-08
-2.07671e-08
1.24191e-08
-1.9287e-08
-2.05884e-08
1.16329e-08
-1.87485e-08
-2.04392e-08
1.11234e-08
-1.83908e-08
-1.94202e-08
1.00359e-08
-1.83265e-08
-1.91627e-08
9.73375e-09
-1.82422e-08
-1.82873e-08
8.948e-09
-1.83329e-08
-1.6169e-08
5.61552e-09
-1.69792e-08
-1.39373e-08
4.38656e-09
-1.68647e-08
-1.38602e-08
4.44505e-09
-1.68119e-08
-1.60925e-08
5.77206e-09
-1.67835e-08
-1.80603e-08
9.0725e-09
-1.81413e-08
-1.88519e-08
9.7864e-09
-1.80674e-08
-1.91061e-08
1.00843e-08
-1.81736e-08
-1.99195e-08
1.10064e-08
-1.82849e-08
-2.0149e-08
1.15989e-08
-1.86845e-08
-2.04093e-08
1.23519e-08
-1.92861e-08
-2.01749e-08
1.18735e-08
-1.91263e-08
-1.85415e-08
8.49411e-09
-1.74561e-08
-1.65883e-08
4.26744e-09
-1.52679e-08
-1.16064e-08
-7.01312e-09
-9.0745e-09
-4.86157e-09
-2.07621e-08
-2.13244e-09
-1.96251e-09
-2.62801e-08
4.52782e-10
-2.267e-09
-2.5661e-08
1.12713e-10
-2.05383e-09
-2.48332e-08
-6.10607e-11
-1.83082e-09
-2.51432e-08
4.5707e-11
-5.20877e-09
-1.88019e-08
-2.99324e-09
-1.24433e-08
-4.42512e-09
-1.02512e-08
-1.67557e-08
5.07391e-09
-1.54609e-08
-1.88844e-08
9.61338e-09
-1.79821e-08
-1.95544e-08
1.06988e-08
-1.8574e-08
-1.90757e-08
9.09664e-09
-1.76015e-08
-1.80413e-08
6.44815e-09
-1.60476e-08
-1.73029e-08
4.67918e-09
-1.50421e-08
-1.64255e-08
3.94256e-09
-1.51933e-08
-1.6305e-08
4.19075e-09
-1.55337e-08
-1.56503e-08
4.29934e-09
-1.62872e-08
-1.52395e-08
4.38144e-09
-1.66644e-08
-1.33614e-08
3.56921e-09
-1.66686e-08
-1.33049e-08
3.62562e-09
-1.66043e-08
-1.51826e-08
4.53255e-09
-1.64648e-08
-1.54426e-08
4.43035e-09
-1.61034e-08
-1.60171e-08
4.26249e-09
-1.53725e-08
-1.61625e-08
4.03475e-09
-1.50499e-08
-1.69215e-08
4.68505e-09
-1.49527e-08
-1.76649e-08
6.39314e-09
-1.59527e-08
-1.87425e-08
8.975e-09
-1.75709e-08
-1.93973e-08
1.05906e-08
-1.86124e-08
-1.89015e-08
9.52632e-09
-1.81236e-08
-1.69293e-08
5.02133e-09
-1.56688e-08
-1.27124e-08
-4.54295e-09
-1.04791e-08
-5.53118e-09
-1.90231e-08
-3.22187e-09
-2.1526e-09
-2.54601e-08
-1.85568e-10
-2.34533e-09
-2.5187e-08
-2.85549e-10
-2.20297e-09
-2.43282e-08
-5.24874e-10
-2.07482e-09
-2.43611e-08
-6.16444e-10
-5.78165e-09
-1.74292e-08
-3.90839e-09
-1.31965e-08
-2.81717e-09
-1.1193e-08
-1.74714e-08
6.60129e-09
-1.63109e-08
-1.92357e-08
1.06692e-08
-1.86872e-08
-1.8457e-08
8.82912e-09
-1.77716e-08
-1.68439e-08
4.63134e-09
-1.53297e-08
-1.49358e-08
-9.95547e-11
-1.2546e-08
-1.33768e-08
-3.44352e-09
-1.08104e-08
-1.24838e-08
-4.43512e-09
-1.07354e-08
-1.21549e-08
-4.05625e-09
-1.14194e-08
-1.15234e-08
-3.56902e-09
-1.25328e-08
-1.10631e-08
-3.07349e-09
-1.33355e-08
-9.28252e-09
-3.83408e-09
-1.33531e-08
-9.2389e-09
-3.78068e-09
-1.32831e-08
-1.09935e-08
-2.93177e-09
-1.31585e-08
-1.1332e-08
-3.43326e-09
-1.23576e-08
-1.19001e-08
-3.97109e-09
-1.12558e-08
-1.22692e-08
-4.30277e-09
-1.05992e-08
-1.31453e-08
-3.32667e-09
-1.07147e-08
-1.46021e-08
-1.59705e-10
-1.24501e-08
-1.65201e-08
4.46346e-09
-1.528e-08
-1.82928e-08
8.67584e-09
-1.7792e-08
-1.92458e-08
1.05784e-08
-1.88262e-08
-1.76495e-08
6.58904e-09
-1.65264e-08
-1.34622e-08
-2.86418e-09
-1.14347e-08
-6.06539e-09
-1.75902e-08
-4.14265e-09
-2.31486e-09
-2.4645e-08
-8.44362e-10
-2.40222e-09
-2.46648e-08
-7.55259e-10
-2.28999e-09
-2.38789e-08
-9.76392e-10
-2.23831e-09
-2.3721e-08
-1.2016e-09
-6.21219e-09
-1.63745e-08
-4.64821e-09
-1.38922e-08
-1.41307e-09
-1.20128e-08
-1.85693e-08
8.86251e-09
-1.75591e-08
-1.93703e-08
1.12604e-08
-1.91439e-08
-1.71492e-08
6.61912e-09
-1.68596e-08
-1.41992e-08
-3.96218e-10
-1.29163e-08
-1.14264e-08
-7.10897e-09
-8.96084e-09
-9.06048e-09
-1.20315e-08
-6.47569e-09
-7.93589e-09
-1.3816e-08
-5.8665e-09
-7.10875e-09
-1.39947e-08
-6.51001e-09
-6.36849e-09
-1.35715e-08
-7.66599e-09
-5.68312e-09
-1.33112e-08
-8.45877e-09
-4.0317e-09
-1.3993e-08
-8.50606e-09
-3.98888e-09
-1.39419e-08
-8.44374e-09
-5.56669e-09
-1.3182e-08
-8.33446e-09
-6.19014e-09
-1.343e-08
-7.50269e-09
-6.88462e-09
-1.38928e-08
-6.34859e-09
-7.76431e-09
-1.36557e-08
-5.73187e-09
-8.95595e-09
-1.18423e-08
-6.35782e-09
-1.11357e-08
-7.17709e-09
-8.85495e-09
-1.38763e-08
-6.08987e-10
-1.28411e-08
-1.69705e-08
6.42045e-09
-1.68575e-08
-1.93676e-08
1.11616e-08
-1.92785e-08
-1.87394e-08
8.87858e-09
-1.77748e-08
-1.41513e-08
-1.39519e-09
-1.22597e-08
-6.45816e-09
-1.64786e-08
-4.88313e-09
-2.4097e-09
-2.39744e-08
-1.42601e-09
-2.41855e-09
-2.42004e-08
-1.21168e-09
-2.29153e-09
-2.36071e-08
-1.31886e-09
-2.26441e-09
-2.337e-08
-1.61616e-09
-6.41969e-09
-1.57562e-08
-5.16036e-09
-1.43625e-08
-4.44526e-10
-1.2614e-08
-1.92678e-08
1.03414e-08
-1.84232e-08
-1.93455e-08
1.15345e-08
-1.94564e-08
-1.58091e-08
4.47998e-09
-1.60592e-08
-1.15857e-08
-5.17762e-09
-1.07423e-08
-8.05189e-09
-1.34575e-08
-5.93562e-09
-5.1779e-09
-1.94918e-08
-2.84388e-09
-3.60653e-09
-2.222e-08
-1.75363e-09
-2.17187e-09
-2.34582e-08
-1.95805e-09
-1.07442e-09
-2.36811e-08
-2.81386e-09
-2.02903e-10
-2.38257e-08
-3.39182e-09
1.29106e-09
-2.44055e-08
-3.474e-09
1.3334e-09
-2.43545e-08
-3.42151e-09
-3.26725e-11
-2.37076e-08
-3.3269e-09
-9.05854e-10
-2.35311e-08
-2.66644e-09
-1.98619e-09
-2.33153e-08
-1.81462e-09
-3.46593e-09
-2.20439e-08
-1.62169e-09
-5.14152e-09
-1.92847e-08
-2.70249e-09
-7.81373e-09
-1.35426e-08
-5.78717e-09
-1.12613e-08
-5.43387e-09
-1.06268e-08
-1.56193e-08
4.25102e-09
-1.60309e-08
-1.9335e-08
1.14284e-08
-1.95888e-08
-1.94306e-08
1.03891e-08
-1.86427e-08
-1.46132e-08
-3.68037e-10
-1.2865e-08
-6.63273e-09
-1.58106e-08
-5.39488e-09
-2.3837e-09
-2.35947e-08
-1.83927e-09
-2.36927e-09
-2.39142e-08
-1.5601e-09
-2.19408e-09
-2.35832e-08
-1.49853e-09
-2.13439e-09
-2.33664e-08
-1.81873e-09
-6.4027e-09
-1.55835e-08
-5.4297e-09
-1.46369e-08
1.12851e-10
-1.29889e-08
-1.97366e-08
1.13154e-08
-1.89993e-08
-1.93766e-08
1.19336e-08
-1.97734e-08
-1.48958e-08
3.08754e-09
-1.55749e-08
-9.61203e-09
-8.78316e-09
-9.18779e-09
-5.48605e-09
-1.81683e-08
-3.77882e-09
-2.48204e-09
-2.45426e-08
-4.65133e-10
-6.03522e-10
-2.78759e-08
9.09721e-10
1.37281e-09
-3.01068e-08
1.1509e-09
2.97987e-09
-3.1339e-08
8.14294e-10
4.1048e-09
-3.20168e-08
5.27982e-10
5.46903e-09
-3.25215e-08
4.0629e-10
5.51343e-09
-3.24688e-08
4.46161e-10
4.30234e-09
-3.18983e-08
5.50926e-10
3.13834e-09
-3.11784e-08
9.47289e-10
1.51594e-09
-2.99108e-08
1.27208e-09
-4.86485e-10
-2.76794e-08
1.0302e-09
-2.45204e-09
-2.43481e-08
-3.24411e-10
-5.28028e-09
-1.82627e-08
-3.60282e-09
-9.26378e-09
-9.0701e-09
-9.02595e-09
-1.46689e-08
2.84729e-09
-1.55841e-08
-1.93808e-08
1.18135e-08
-1.99276e-08
-1.98973e-08
1.13853e-08
-1.922e-08
-1.488e-08
2.35237e-10
-1.32441e-08
-6.59095e-09
-1.55995e-08
-5.66587e-09
-2.21785e-09
-2.35669e-08
-2.04412e-09
-2.23672e-09
-2.38777e-08
-1.74736e-09
-2.05231e-09
-2.37137e-08
-1.54751e-09
-1.95265e-09
-2.35351e-08
-1.87391e-09
-6.29892e-09
-1.56344e-08
-5.53162e-09
-1.4786e-08
3.85899e-10
-1.31771e-08
-2.00976e-08
1.19866e-08
-1.93713e-08
-1.96287e-08
1.24498e-08
-2.00846e-08
-1.45848e-08
2.68719e-09
-1.53983e-08
-8.5864e-09
-1.05835e-08
-8.38525e-09
-4.1402e-09
-2.06041e-08
-2.6892e-09
-1.23077e-09
-2.68403e-08
5.8016e-10
7.10205e-10
-3.02739e-08
1.98611e-09
2.92884e-09
-3.30003e-08
2.47518e-09
4.93638e-09
-3.50619e-08
2.58153e-09
6.30894e-09
-3.62126e-08
2.53365e-09
7.60078e-09
-3.66894e-08
2.38399e-09
7.64375e-09
-3.66317e-08
2.41473e-09
6.4984e-09
-3.60855e-08
2.54653e-09
5.08574e-09
-3.48925e-08
2.70594e-09
3.05066e-09
-3.27838e-08
2.59023e-09
8.09752e-10
-3.0056e-08
2.09414e-09
-1.18601e-09
-2.66573e-08
7.06118e-10
-3.9404e-09
-2.07038e-08
-2.51904e-09
-8.28154e-09
-1.09015e-08
-8.24538e-09
-1.43661e-08
2.39585e-09
-1.54082e-08
-1.95651e-08
1.23145e-08
-2.02034e-08
-2.02446e-08
1.20665e-08
-1.95849e-08
-1.50256e-08
5.38709e-10
-1.34361e-08
-6.47358e-09
-1.56269e-08
-5.77118e-09
-2.01431e-09
-2.37198e-08
-2.10246e-09
-2.07215e-09
-2.40006e-08
-1.80314e-09
)
;

boundaryField
{
    freeSurface
    {
        type            slip;
    }
    inlet
    {
        type            cyclic;
    }
    outlet
    {
        type            cyclic;
    }
    sidewalls
    {
        type            zeroGradient;
    }
    noSlipWalls
    {
        type            zeroGradient;
    }
}


// ************************************************************************* //
