/*--------------------------------*- C++ -*----------------------------------*\
  =========                 |
  \\      /  F ield         | OpenFOAM: The Open Source CFD Toolbox
   \\    /   O peration     | Website:  https://openfoam.org
    \\  /    A nd           | Version:  6
     \\/     M anipulation  |
\*---------------------------------------------------------------------------*/
FoamFile
{
    version     2.0;
    format      ascii;
    class       volScalarField;
    location    "20";
    object      yPlus;
}
// * * * * * * * * * * * * * * * * * * * * * * * * * * * * * * * * * * * * * //

dimensions      [0 0 0 0 0 0 0];

internalField   uniform 0;

boundaryField
{
    freeSurface
    {
        type            calculated;
        value           uniform 0;
    }
    inlet
    {
        type            cyclic;
    }
    outlet
    {
        type            cyclic;
    }
    sidewalls
    {
        type            calculated;
        value           nonuniform List<scalar> 
144
(
8.67903
28.5043
37.3157
43.4741
48.5737
53.0912
57.327
61.3592
65.1644
68.7145
72.0051
75.0335
77.8019
80.3215
82.6111
84.6922
86.5844
88.3023
89.8543
91.2413
92.455
93.4732
94.2514
94.7111
8.67906
28.5044
37.3158
43.4742
48.5737
53.0911
57.3269
61.3591
65.1644
68.7145
72.0051
75.0335
77.8018
80.3215
82.611
84.6922
86.5843
88.3022
89.8542
91.2413
92.4549
93.4732
94.2514
94.711
8.67905
28.5044
37.3158
43.4742
48.5737
53.0912
57.3269
61.3591
65.1644
68.7145
72.0051
75.0335
77.8019
80.3215
82.6111
84.6922
86.5844
88.3023
89.8543
91.2413
92.455
93.4732
94.2515
94.7111
8.67559
28.4963
37.3061
43.4634
48.5621
53.0787
57.3136
61.3449
65.1493
68.6986
71.9884
75.0161
77.7838
80.3028
82.5919
84.6723
86.5639
88.2811
89.8325
91.2191
92.4324
93.4505
94.2289
94.6887
8.67562
28.4964
37.3061
43.4634
48.562
53.0786
57.3135
61.3448
65.1493
68.6986
71.9884
75.0161
77.7838
80.3028
82.5918
84.6723
86.5638
88.2811
89.8325
91.219
92.4324
93.4505
94.2288
94.6887
8.67561
28.4964
37.3061
43.4634
48.5621
53.0787
57.3135
61.3448
65.1493
68.6986
71.9884
75.0162
77.7839
80.3029
82.5919
84.6724
86.5639
88.2812
89.8326
91.2191
92.4324
93.4506
94.2289
94.6887
)
;
    }
    noSlipWalls
    {
        type            calculated;
        value           nonuniform List<scalar> 
90
(
0.460637
0.90339
1.11989
1.32488
1.53135
1.74548
1.9706
2.21113
2.47449
2.76244
3.07406
3.40342
3.70689
3.92629
4.02561
4.02502
3.9249
3.70499
3.40115
3.07162
2.76029
2.47253
2.20941
1.96909
1.74411
1.53014
1.32387
1.11911
0.902753
0.460454
0.460638
0.90334
1.11985
1.32487
1.53136
1.74551
1.97065
2.21117
2.47455
2.7625
3.07411
3.40346
3.70691
3.9263
4.02564
4.02505
3.92491
3.70501
3.40118
3.07166
2.76034
2.47258
2.20946
1.96913
1.74415
1.53015
1.32386
1.11907
0.902702
0.460456
0.460638
0.903335
1.11985
1.32487
1.53137
1.74554
1.97068
2.21121
2.47461
2.76259
3.07421
3.40362
3.70711
3.9265
4.02582
4.02523
3.92511
3.70521
3.40135
3.07177
2.76043
2.47264
2.20949
1.96916
1.74417
1.53016
1.32386
1.11906
0.902698
0.460456
)
;
    }
}


// ************************************************************************* //
