/*--------------------------------*- C++ -*----------------------------------*\
  =========                 |
  \\      /  F ield         | OpenFOAM: The Open Source CFD Toolbox
   \\    /   O peration     | Website:  https://openfoam.org
    \\  /    A nd           | Version:  6
     \\/     M anipulation  |
\*---------------------------------------------------------------------------*/
FoamFile
{
    version     2.0;
    format      ascii;
    class       volScalarField;
    location    "21";
    object      yPlus;
}
// * * * * * * * * * * * * * * * * * * * * * * * * * * * * * * * * * * * * * //

dimensions      [0 0 0 0 0 0 0];

internalField   uniform 0;

boundaryField
{
    inlet
    {
        type            calculated;
        value           uniform 0;
    }
    outlet
    {
        type            calculated;
        value           uniform 0;
    }
    roughCylinder
    {
        type            calculated;
        value           nonuniform List<scalar> 
5120
(
43.4928
51.3126
57.541
63.6672
68.956
73.246
76.6836
79.4622
81.7369
83.6421
85.2974
86.7796
88.1261
89.3709
90.5448
91.6783
92.802
93.9443
95.1285
96.3719
97.684
99.0674
100.519
102.031
103.595
105.197
106.821
108.444
110.027
111.499
112.713
113.429
42.7806
50.316
56.3451
62.3311
67.5463
71.8008
75.2196
77.9893
80.2634
82.1751
83.8394
85.3259
86.6642
87.8952
89.0511
90.1633
91.2635
92.3807
93.5392
94.7554
96.0388
97.392
98.8115
100.291
101.82
103.386
104.973
106.558
108.102
109.539
110.722
111.419
41.9918
49.2791
55.1209
60.967
66.1088
70.3323
73.7405
76.5121
78.7974
80.7252
82.403
83.8939
85.228
86.4481
87.5878
88.6803
89.7586
90.8524
91.985
93.1741
94.4294
95.7529
97.1418
98.5883
100.083
101.613
103.162
104.71
106.217
107.618
108.771
109.449
41.1831
48.2349
53.8895
59.5921
64.6596
68.8544
72.2556
75.0334
77.3364
79.2878
80.9851
82.4859
83.8226
85.0339
86.1606
87.2362
88.2944
89.3654
90.4748
91.6389
92.867
94.1617
95.5197
96.9343
98.3949
99.8894
101.402
102.913
104.382
105.748
106.871
107.53
40.317
47.1467
52.6122
58.1673
63.1619
67.3376
70.7471
73.549
75.8852
77.8697
79.591
81.1043
82.4454
83.6539
84.7706
85.8314
86.8718
87.9235
89.0097
90.1492
91.3515
92.6188
93.9478
95.3314
96.7599
98.2198
99.6974
101.171
102.604
103.935
105.029
105.669
39.4534
46.0611
51.3314
56.7331
61.6549
65.8166
69.2393
72.0662
74.4348
76.4532
78.2018
79.7338
81.088
82.3013
83.413
84.4635
85.4895
86.5223
87.5894
88.7074
89.8853
91.1261
92.4266
93.7792
95.1747
96.6018
98.0437
99.4817
100.879
102.176
103.241
103.862
38.5189
44.9116
49.9787
55.217
60.0639
64.2217
67.6775
70.5539
72.9769
75.0433
76.8282
78.3851
79.7537
80.9759
82.0883
83.1323
84.1464
85.1656
86.2135
87.3099
88.4652
89.6813
90.955
92.2798
93.6452
95.0383
96.4466
97.8485
99.2113
100.475
101.512
102.115
37.5942
43.7674
48.6226
53.6892
58.4612
62.6233
66.1193
69.0432
71.5127
73.6233
75.4456
77.0314
78.4257
79.6652
80.7882
81.8319
82.8405
83.8467
84.8809
85.9603
87.0946
88.2869
89.5342
90.829
92.1623
93.5255
94.8984
96.2669
97.5944
98.8248
99.833
100.418
36.5635
42.5201
47.1478
52.0221
56.7066
60.8774
64.4361
67.4436
69.9983
72.1803
74.058
75.6882
77.1119
78.3731
79.5085
80.5607
81.5668
82.5683
83.5889
84.6509
85.766
86.9365
88.1596
89.4292
90.735
92.0632
93.4048
94.7376
96.0312
97.2297
98.2113
98.7769
35.5343
41.2672
45.6603
50.3321
54.9275
59.1196
62.7559
65.846
68.4704
70.7163
72.6499
74.3224
75.7873
77.0805
78.2413
79.305
80.3192
81.318
82.3324
83.3836
84.4818
85.6313
86.8297
88.0697
89.3429
90.6444
91.9496
93.2488
94.5084
95.6737
96.6265
97.1741
34.3208
39.8373
43.9746
48.4076
52.8802
57.0809
60.8143
64.0414
66.8078
69.1683
71.1893
72.9386
74.4556
75.7898
76.9772
78.0651
79.0884
80.0935
81.1026
82.142
83.2255
84.3564
85.5326
86.7494
87.9973
89.2608
90.5351
91.7993
93.0242
94.1586
95.0854
95.6125
33.0645
38.3729
42.2501
46.4327
50.7783
55.0078
58.8704
62.2414
65.122
67.5884
69.7051
71.5179
73.098
74.4819
75.7142
76.8256
77.8709
78.8819
79.8939
80.9305
82.0021
83.1151
84.2682
85.4551
86.6683
87.9076
89.1445
90.3751
91.5666
92.6667
93.5641
94.0726
31.5191
36.6236
40.2036
44.0719
48.2168
52.4181
56.4067
60.0021
63.1412
65.809
68.0673
70.0143
71.6846
73.1421
74.4214
75.5812
76.6506
77.6826
78.6987
79.7288
80.7905
81.8885
83.0221
84.1882
85.3787
86.5771
87.7842
88.979
90.1341
91.2051
92.0754
92.562
29.8528
34.7725
38.0588
41.5914
45.5151
49.7256
53.9174
57.7632
61.0918
63.9555
66.4062
68.4627
70.2376
71.7681
73.1207
74.318
75.4274
76.4756
77.5054
78.5436
79.6
80.6837
81.7957
82.9312
84.0843
85.2606
86.4271
87.5879
88.71
89.7428
90.5841
91.0501
27.6633
32.418
35.3734
38.4965
42.0899
46.1176
50.3811
54.5858
58.4498
61.7099
64.3994
66.7013
68.6309
70.2991
71.7313
73.0142
74.169
75.2603
76.3087
77.3457
78.3977
79.4705
80.5656
81.6821
82.814
83.947
85.0835
86.2062
87.2891
88.2954
89.1067
89.5497
25.1322
29.7843
32.4128
34.9786
37.993
42.037
46.7569
51.4183
55.5235
59.172
62.3137
64.841
66.9859
68.7686
70.3245
71.6667
72.8872
74.0071
75.0808
76.1431
77.1987
78.2615
79.3365
80.4214
81.5126
82.6211
83.7136
84.8007
85.8496
86.8095
87.5926
88.0101
21.3953
26.0713
28.4397
30.8082
33.8842
36.8856
40.7559
45.8891
51.4357
55.9857
59.5426
62.5742
64.9789
67.0313
68.7274
70.2159
71.5148
72.7128
73.8296
74.8946
75.9514
77.0085
78.0687
79.1348
80.2038
81.2706
82.3283
83.3735
84.381
85.3171
86.0641
86.457
17.0185
22.004
24.1303
24.857
23.7145
27.9773
34.9123
41.0286
46.0658
51.5145
56.3682
59.9118
62.8778
65.1555
67.0844
68.6808
70.0923
71.3356
72.4892
73.6071
74.6818
75.7334
76.7745
77.8071
78.8313
79.8614
80.8746
81.8797
82.8444
83.726
84.4428
84.8025
7.61357
12.4996
13.715
13.5073
6.05215
8.94026
16.7221
27.3583
38.983
46.3418
51.733
56.6378
60.0176
62.8668
65.0683
66.926
68.4717
69.8562
71.0994
72.2221
73.3028
74.3553
75.3831
76.395
77.3926
78.3915
79.3518
80.3107
81.2369
82.0871
82.7648
83.096
7.62434
10.1537
12.2478
13.5112
13.1153
11.6549
4.7741
21.7447
21.6911
35.5952
46.0272
51.6703
56.8369
60.2082
62.9116
64.9982
66.762
68.2219
69.5126
70.7366
71.8604
72.913
73.9217
74.8954
75.8386
76.7694
77.6961
78.6012
79.4616
80.2577
80.8906
81.1747
10.7132
15.4511
17.1751
18.638
19.6516
18.2698
11.1951
21.8468
25.4855
21.9552
32.0952
46.1498
51.7149
56.6495
59.9883
62.6082
64.6218
66.3537
67.8339
69.0632
70.1958
71.2585
72.2552
73.2027
74.1133
75.0431
75.8666
76.7245
77.5596
78.2895
78.8901
79.1364
19.2301
23.5166
25.1398
25.5611
24.8683
23.0702
20.5805
17.2856
23.307
26.6297
28.1493
32.4478
46.4372
52.1538
56.6803
59.8252
62.3216
64.1955
65.7337
67.1652
68.3931
69.4658
70.4393
71.3377
72.1682
72.9579
73.7827
74.5498
75.2677
75.9688
76.4857
76.6573
21.6991
26.6656
29.3303
31.2486
32.3169
32.3908
31.1474
28.3717
24.0691
22.4452
26.468
18.3642
31.6195
45.0953
51.5101
56.0139
59.0344
61.5029
63.4765
64.8966
66.1297
67.225
68.1907
69.0489
69.8373
70.7007
71.3058
72.0382
72.7642
73.3074
73.8103
73.922
22.7572
27.8331
30.7394
33.0656
34.7762
35.8569
36.2708
35.8492
34.0557
29.8046
24.5948
13.8838
15.3385
34.9132
45.476
51.1951
55.4727
58.2197
60.2304
62.1211
63.5784
64.7072
65.6324
66.4143
67.0606
67.6243
68.2981
68.8394
69.3398
69.9202
70.2585
70.2339
22.3521
27.5732
30.6556
33.2298
35.2552
36.7222
37.6354
37.9961
37.7274
36.4077
32.5264
24.8109
21.84
9.69119
33.5438
44.1414
49.4157
53.6794
56.8541
58.5789
59.9876
61.1485
62.0831
62.7871
63.3502
64.1756
64.3717
64.9426
65.5353
65.8092
66.1456
65.9933
20.9306
26.2894
29.4692
32.1836
34.404
36.1293
37.383
38.2054
38.6307
38.5876
37.5688
33.9474
29.9026
24.4483
35.513
33.5185
43.024
47.8439
50.6866
53.8003
55.8459
57.0961
57.9258
58.4658
58.7401
58.894
59.2345
59.299
59.4179
59.8655
59.8102
59.4535
18.9664
24.4201
27.6273
30.392
32.7044
34.5783
36.0416
37.1518
37.99
38.6207
38.956
38.3678
35.136
26.2734
32.1765
33.4937
30.8919
39.1457
45.865
47.4119
48.9363
50.1852
51.0607
51.5407
51.2975
52.2865
51.5275
52.0087
52.5403
53.5987
53.1397
52.2739
16.7188
22.1561
25.2901
28.0019
30.3099
32.2507
33.8661
35.2116
36.3702
37.4257
38.404
39.1313
38.8302
35.9983
28.541
32.0696
24.5806
25.0236
30.8892
37.6771
41.9941
43.09
44.0714
43.1637
43.1582
43.0393
41.5534
40.2918
39.8213
40.4027
37.2746
37.7447
14.4484
19.7299
22.6872
25.2458
27.4567
29.3794
31.0719
32.5967
34.0287
35.4494
36.896
38.2918
39.3483
39.3158
35.7755
25.5108
30.2759
21.999
17.6091
21.4702
20.9034
30.7276
23.301
31.8507
14.0254
20.5303
12.0503
13.872
18.2755
37.696
36.7794
41.3426
12.4459
17.4467
20.1499
22.4816
24.5257
26.3601
28.0539
29.6725
31.2815
32.9476
34.7194
36.5642
38.3072
39.5546
39.2589
35.7804
29.8909
30.6373
29.0453
9.53941
24.9573
38.5619
28.1258
38.5312
22.5078
17.0446
9.2122
18.6093
36.866
42.8144
38.5746
42.518
10.9008
15.5487
17.98
20.0656
21.9182
23.6291
25.2711
26.9048
28.5823
30.3511
32.2578
34.3136
36.4412
38.383
39.5783
39.1967
34.6657
34.2312
26.0967
20.3795
24.9998
32.7363
31.2113
37.7666
26.8455
33.4612
33.3756
35.1427
27.3402
44.2424
30.2294
29.738
9.76278
14.163
16.3639
18.2425
19.9335
21.5319
23.1044
24.6981
26.3494
28.0919
29.9649
32.0062
34.2194
36.4887
38.4581
39.5409
38.6286
36.0564
31.5609
30.9236
28.614
27.8531
34.9078
31.5147
38.1928
35.9711
38.5196
39.0783
37.8994
29.4957
40.0958
39.9271
9.15577
13.3633
15.4028
17.1473
18.7406
20.2681
21.7804
23.3065
24.8679
26.4905
28.2106
30.0773
32.1362
34.3829
36.6656
38.5939
39.4695
39.2485
37.9897
38.1986
37.6606
38.5452
37.9966
39.5677
43.4299
41.0468
43.1954
43.2585
42.8161
37.6967
44.0926
43.8879
8.9764
13.0947
15.0629
16.7588
18.3242
19.8289
21.3036
22.761
24.2128
25.6806
27.1998
28.8184
30.5942
32.577
34.7582
36.9768
38.8072
39.951
40.1785
40.6762
40.8542
41.573
41.4831
42.3047
44.3951
43.0317
43.7371
43.4842
43.4951
41.115
44.2303
44.3427
9.15055
13.2587
15.2291
16.9455
18.5379
20.0577
21.5187
22.9234
24.2795
25.6065
26.9363
28.3108
29.7821
31.4117
33.2532
35.2999
37.3804
39.2256
40.4043
41.259
41.7315
42.3107
42.31
42.6135
43.9129
43.3082
43.1382
42.6765
42.7958
41.379
43.0741
43.4083
9.58169
13.7319
15.753
17.5359
19.1916
20.7545
22.2264
23.604
24.8938
26.1153
27.2975
28.4752
29.6894
30.9918
32.444
34.0995
35.9434
37.8517
39.4607
40.6726
41.4052
41.8949
41.8436
41.7725
42.4885
42.2868
41.5864
41.0145
41.1691
40.2575
41.2201
41.6954
10.2141
14.4364
16.5318
18.4015
20.1361
21.7548
23.2521
24.6234
25.877
27.0336
28.1195
29.1629
30.1928
31.2456
32.3701
33.6237
35.0481
36.6268
38.1641
39.4513
40.298
40.7218
40.5709
40.2938
40.5749
40.4812
39.5791
39.0575
39.2706
38.7312
39.368
39.9018
10.9945
15.3165
17.4987
19.4619
21.2771
22.953
24.4807
25.8581
27.0976
28.2222
29.2569
30.2237
31.1412
32.0307
32.9237
33.8631
34.8946
36.0413
37.2302
38.3057
39.0593
39.3767
39.1514
38.7712
38.7364
38.5872
37.7211
37.3583
37.6484
37.4486
37.9864
38.5361
11.833
16.3233
18.6009
20.6576
22.5501
24.2802
25.8396
27.2309
28.4718
29.5883
30.6045
31.5381
32.3994
33.1986
33.9518
34.6841
35.4278
36.2097
37.0119
37.7493
38.2683
38.4284
38.1398
37.6991
37.4314
37.1667
36.4455
36.2549
36.6207
36.7168
37.2779
37.8331
12.8129
17.4253
19.7966
21.944
23.9095
25.6907
27.2822
28.6926
29.9457
31.0703
32.0897
33.0182
33.861
34.6208
35.3032
35.9192
36.4849
37.0171
37.5151
37.9378
38.1926
38.1719
37.8084
37.3101
36.8668
36.4922
35.9161
35.8501
36.2742
36.6095
37.2423
37.81
13.5945
14.0145
14.4996
14.89
15.2677
15.5684
15.8307
16.0341
16.1973
16.3123
16.3901
16.4291
16.4333
16.4039
16.345
16.2593
16.1488
16.0188
15.8802
15.7626
15.7578
15.8712
16.0077
16.1362
16.2453
16.3297
16.3871
16.4149
16.409
16.3683
16.2886
16.1716
16.0064
15.8008
15.5366
15.2337
14.8542
14.4622
13.976
13.5558
18.3333
18.7695
19.2744
19.6828
20.0787
20.4007
20.6857
20.9137
21.1027
21.2452
21.351
21.4187
21.4512
21.4485
21.4128
21.346
21.2491
21.1261
20.9872
20.8638
20.858
20.9766
21.1132
21.2345
21.3298
21.395
21.429
21.43
21.3956
21.3259
21.2182
21.0735
20.8824
20.6521
20.365
20.0408
19.6432
19.2331
18.727
18.2906
20.783
21.2445
21.7793
22.2133
22.6375
22.99
23.3094
23.5746
23.8039
23.9897
24.1401
24.2542
24.3337
24.3772
24.3849
24.3575
24.2954
24.2009
24.0833
23.9724
23.9667
24.0725
24.1877
24.2802
24.3406
24.3662
24.3567
24.3113
24.2297
24.1135
23.9608
23.7728
23.5412
23.2736
22.952
22.5972
22.1711
21.7355
21.1994
20.7376
22.9911
23.4718
24.0294
24.483
24.9315
25.3113
25.6626
25.9634
26.2317
26.4602
26.655
26.815
26.9413
27.0313
27.0836
27.0974
27.0722
27.01
26.9196
26.8306
26.8257
26.9093
26.997
27.0572
27.0803
27.0646
27.0103
26.9181
26.7896
26.6273
26.4301
26.1992
25.9285
25.6252
25.2716
24.8896
24.4391
23.9838
23.4248
22.9437
24.9957
25.4806
26.0459
26.5059
26.9662
27.3612
27.7326
28.0579
28.3541
28.6151
28.8458
29.0434
29.2082
29.3367
29.4264
29.4753
29.4824
29.4489
29.3845
29.3179
29.3136
29.375
29.4364
29.4675
29.4584
29.4075
29.3155
29.1849
29.0178
28.8177
28.5846
28.3209
28.0223
27.6945
27.3208
26.9235
26.4613
25.9996
25.4328
24.9474
26.7961
27.269
27.8283
28.2827
28.7434
29.1435
29.5256
29.8681
30.1868
30.4746
30.7353
30.965
31.1626
31.324
31.4457
31.5249
31.5595
31.5512
31.509
31.4603
31.4566
31.5001
31.5392
31.5451
31.5083
31.427
31.303
31.1393
30.9393
30.7071
30.4439
30.1535
29.8322
29.4872
29.1028
28.7005
28.238
27.782
27.2216
26.7483
28.3927
28.8425
29.3881
29.8314
30.288
30.6907
31.083
31.4421
31.782
32.0948
32.383
32.6416
32.8688
33.0596
33.2097
33.3152
33.3739
33.3865
33.362
33.3261
33.3228
33.3536
33.3748
33.3597
33.299
33.1912
33.0388
32.8457
32.616
32.3548
32.0641
31.7488
31.4062
31.0448
30.6503
30.2455
29.7872
29.3426
28.796
28.3461
29.8016
30.2243
30.7558
31.1893
31.6446
32.0543
32.4584
32.835
33.1957
33.5322
33.8458
34.1311
34.3849
34.6017
34.7767
34.905
34.9837
35.0132
35.0021
34.9746
34.9714
34.9939
35.0019
34.9699
34.889
34.7584
34.5812
34.362
34.1057
33.8178
33.5016
33.1625
32.7993
32.4205
32.014
31.6025
31.1459
30.7113
30.1792
29.7568
31.0524
31.4497
31.9709
32.3999
32.8582
33.277
33.6943
34.088
34.4681
34.8262
35.1626
35.4714
35.7484
35.9876
36.1836
36.3308
36.4257
36.4683
36.4666
36.4443
36.4411
36.4586
36.4572
36.4121
36.315
36.1655
35.9673
35.7256
35.4461
35.1347
34.7957
34.435
34.0524
33.6563
33.2371
32.8164
32.3569
31.9272
31.406
31.0095
32.176
32.5511
33.066
33.4943
33.9572
34.3857
34.8151
35.2243
35.6214
35.9983
36.3541
36.6827
36.9791
37.2369
37.45
37.6124
37.72
37.7722
37.7769
37.7573
37.7542
37.769
37.7612
37.7065
37.5966
37.432
37.2166
36.9563
36.6574
36.3262
35.9678
35.5882
35.1886
34.7772
34.3458
33.9156
33.4517
33.0231
32.5084
32.135
33.1943
33.5485
34.0592
34.4874
34.9546
35.3916
35.8316
36.2539
36.6654
37.058
37.4299
37.7745
38.0866
38.3593
38.5858
38.76
38.8773
38.9367
38.9457
38.9277
38.9246
38.9378
38.9258
38.8638
38.7443
38.5679
38.339
38.0639
37.7492
37.4018
37.0273
36.6321
36.218
35.7934
35.3514
34.9129
34.4449
34.0167
33.5069
33.155
34.1182
34.4504
34.9559
35.3833
35.8537
36.2978
36.7467
37.1799
37.6034
38.0087
38.3937
38.7513
39.0758
39.3602
39.5974
39.7808
39.9057
39.9711
39.9841
39.9681
39.9649
39.9763
39.9602
39.8923
39.7652
39.5795
39.34
39.0531
38.7258
38.3654
37.9779
37.5697
37.1436
36.708
36.2572
35.8116
35.3406
34.9135
34.4097
34.0808
34.9492
35.2569
35.7551
36.1806
36.6533
37.1033
37.5597
38.0022
38.4356
38.8515
39.2469
39.615
39.9495
40.2432
40.4888
40.6798
40.8113
40.8825
40.9005
40.888
40.885
40.8928
40.8717
40.7981
40.6643
40.471
40.2229
39.9267
39.5895
39.2185
38.8202
38.4014
37.9654
37.5204
37.062
36.6106
36.1374
35.7127
35.2168
34.9138
35.6856
35.9649
36.4533
36.8758
37.3501
37.8054
38.2685
38.7192
39.1613
39.5862
39.9904
40.367
40.7095
41.0106
41.2631
41.4604
41.5981
41.6756
41.7001
41.6931
41.6902
41.6927
41.6651
41.5851
41.4451
41.2453
40.9904
40.6866
40.3413
39.9617
39.5544
39.1265
38.6815
38.2281
37.7629
37.3061
36.8316
36.4105
35.9255
35.653
36.3272
36.5711
37.0461
37.4644
37.9396
38.4001
38.8698
39.3285
39.7786
40.2116
40.6235
41.0073
41.3566
41.6639
41.9222
42.1254
42.2693
42.3537
42.3862
42.3861
42.3834
42.3792
42.3436
42.2566
42.1103
41.9047
41.6438
41.3337
40.9815
40.5945
40.1793
39.743
39.2896
38.8279
38.3559
37.8939
37.4188
37.0023
36.5325
36.2981
36.8742
37.0719
37.5284
37.9408
38.4163
38.8821
39.3587
39.8254
40.2836
40.7245
41.1437
41.5342
41.8894
42.2022
42.4659
42.6747
42.8248
42.9167
42.9579
42.965
42.9626
42.9513
42.9071
42.8126
42.66
42.4489
42.1825
41.8668
41.5084
41.1145
40.6916
40.247
39.7852
39.3149
38.8357
38.3682
37.8927
37.4833
37.0342
36.8502
37.3303
37.4638
37.8941
38.2972
38.7723
39.2433
39.7272
40.2027
40.6694
41.1184
41.5448
41.9419
42.3029
42.621
42.8898
43.104
43.2605
43.3599
43.4095
43.4234
43.4212
43.4036
43.351
43.2489
43.0901
42.8734
42.6019
42.2808
41.9163
41.5156
41.085
40.6318
40.1607
39.6811
39.1939
38.7205
38.2458
37.8464
37.4265
37.3126
37.7
37.7425
38.1317
38.5234
38.9959
39.4727
39.9642
40.449
40.9249
41.3826
41.8168
42.2205
42.5875
42.9109
43.1849
43.4044
43.5671
43.674
43.7312
43.7509
43.7489
43.7258
43.6658
43.5566
43.3916
43.1695
42.8929
42.5662
42.1957
41.7878
41.349
40.8862
40.4052
39.9152
39.4192
38.939
38.4664
38.0793
37.7042
37.6895
37.9904
37.9086
38.2345
38.6053
39.074
39.5556
40.0553
40.55
41.0358
41.5029
41.9455
42.3565
42.7298
43.0588
43.3381
43.5632
43.7319
43.8454
43.9095
43.9341
43.9324
43.9049
43.8384
43.7228
43.552
43.3245
43.0424
42.7101
42.3329
41.9173
41.4694
40.9964
40.5043
40.0027
39.4966
39.0095
38.5387
38.1713
37.8622
37.9795
38.1974
37.9604
38.1978
38.5331
38.9921
39.4781
39.9854
40.4903
40.9864
41.4635
41.9151
42.3341
42.7143
43.0495
43.3345
43.5651
43.7396
43.8593
43.9291
43.9576
43.9563
43.9254
43.8536
43.7323
43.556
43.3232
43.0357
42.6971
42.3129
41.8888
41.4313
40.947
40.4427
39.9283
39.4111
38.9147
38.4484
38.1117
37.8891
38.1633
38.2973
37.8892
38.0183
38.3022
38.7422
39.23
39.7434
40.2581
40.7642
41.2514
41.7121
42.1395
42.5269
42.8686
43.1594
43.3956
43.5757
43.7006
43.7754
43.8072
43.8063
43.7728
43.6968
43.5706
43.3894
43.1515
42.8584
42.5136
42.122
41.6892
41.2215
40.7256
40.2087
39.6808
39.151
38.6448
38.1877
37.8898
37.7624
38.1929
38.2468
37.6762
37.6908
37.912
38.3225
38.8055
39.3258
39.849
40.3648
40.8612
41.3309
41.7663
42.1607
42.5086
42.8051
43.0464
43.2312
43.3607
43.4393
43.4737
43.4733
43.438
43.359
43.2291
43.0436
42.8012
42.503
42.1522
41.7536
41.3125
40.835
40.3282
39.7986
39.2572
38.7123
38.1988
37.7542
37.4956
37.4511
38.005
37.9887
37.2943
37.2139
37.3755
37.7539
38.2268
38.7496
39.2791
39.8019
40.3056
40.7822
41.2239
41.6242
41.9771
42.2779
42.5232
42.7114
42.8439
42.925
42.9612
42.9611
42.925
42.8443
42.7122
42.5241
42.2784
41.9762
41.6208
41.2165
40.7686
40.2833
39.7669
39.2266
38.6717
38.1153
37.5988
37.1666
36.9375
36.9447
37.5639
37.5332
36.7567
36.6104
36.7246
37.0737
37.5334
38.0539
38.5879
39.1146
39.6226
40.1029
40.5481
40.9513
41.3067
41.6094
41.8562
42.0454
42.1786
42.2601
42.2966
42.297
42.2611
42.1805
42.0483
41.8596
41.6127
41.3089
40.951
40.5434
40.0916
39.6014
39.0792
38.5323
37.9689
37.4091
36.8984
36.4844
36.2866
36.3373
37.0066
36.8888
36.0951
35.9298
36.0224
36.3548
36.8035
37.3194
37.8525
38.3784
38.8858
39.3652
39.8094
40.2114
40.5652
40.8661
41.1106
41.2973
41.4278
41.5066
41.5416
41.5421
41.5081
41.4304
41.3011
41.115
40.8704
40.5682
40.2114
39.8044
39.3526
38.862
38.3386
37.7906
37.2264
36.6713
36.1727
35.7812
35.6171
35.7153
36.4553
36.2054
35.4372
35.2858
35.3791
35.7064
36.1478
36.6567
37.1842
37.7042
38.2055
38.679
39.1169
39.5123
39.8595
40.1537
40.3912
40.5706
40.6937
40.7658
40.7965
40.7968
40.767
40.6958
40.5736
40.3945
40.1564
39.8603
39.5093
39.1079
38.6613
38.1758
37.6579
37.1154
36.5598
36.0181
35.5393
35.1751
35.0478
35.1913
35.9957
35.8296
35.0564
34.8997
34.9792
35.2903
35.7139
36.2053
36.7165
37.2223
37.7107
38.1716
38.5975
38.9812
39.3166
39.599
39.8248
39.9923
40.1032
40.164
40.1871
40.1876
40.166
40.1067
39.9972
39.8307
39.6049
39.3213
38.9831
38.5948
38.1619
37.6908
37.1883
36.6631
36.1262
35.6036
35.1425
34.7897
34.663
34.7798
35.525
35.6288
34.9244
34.8069
34.8998
35.2079
35.6174
36.0884
36.5764
37.0609
37.5287
37.97
38.3767
38.7418
39.0596
39.3248
39.5336
39.6842
39.7778
39.8216
39.832
39.8322
39.8226
39.7797
39.6867
39.5363
39.3267
39.0597
38.7387
38.3688
37.9554
37.5055
37.0267
36.5288
36.0241
35.5354
35.1084
34.7858
34.6829
34.8035
35.5281
35.9178
35.2335
35.1256
35.213
35.5059
35.8916
36.3339
36.7915
37.2489
37.6912
38.1086
38.4927
38.8364
39.1339
39.38
39.5706
39.7035
39.7793
39.8048
39.8001
39.8012
39.8082
39.785
39.7113
39.5799
39.3901
39.1442
38.8459
38.5001
38.1129
37.6913
37.2439
36.7809
36.3177
35.8705
35.4832
35.1948
35.1205
35.2544
35.9821
36.4208
35.8015
35.7307
35.8264
36.1093
36.471
36.8822
37.3095
37.7371
38.151
38.5413
38.8998
39.2198
39.4952
39.7212
39.8938
40.0102
40.0707
40.0809
40.0632
40.0672
40.0922
40.0886
40.0343
39.9235
39.7562
39.5346
39.2629
38.9459
38.5893
38.2
37.7864
37.3582
36.9302
36.5182
36.1574
35.877
35.7864
35.8637
36.4897
37.0818
36.4963
36.4473
36.5462
36.8189
37.1598
37.5468
37.9489
38.3512
38.7402
39.1065
39.442
39.7405
39.9962
40.2045
40.3612
40.4639
40.5123
40.5119
40.485
40.4893
40.5242
40.5324
40.4913
40.3957
40.2454
40.043
39.7924
39.4983
39.1663
38.8029
38.4162
38.0159
37.6162
37.2323
36.8968
36.6317
36.5428
36.6
37.1888
37.6874
37.1252
37.0759
37.153
37.3971
37.7059
38.0643
38.44
38.8186
39.1863
39.5333
39.8518
40.1352
40.3777
40.5745
40.7216
40.8165
40.8587
40.8538
40.8245
40.831
40.8716
40.8868
40.8541
40.768
40.6288
40.4389
40.2018
39.9222
39.6056
39.2584
38.8885
38.5053
38.1234
37.7574
37.4408
37.1903
37.1126
37.1728
37.7657
43.4967
51.318
57.5476
63.6746
68.9638
73.2539
76.6912
79.4695
81.744
83.6493
85.3051
86.7876
88.1342
89.3788
90.5526
91.6862
92.8099
93.9521
95.1362
96.3795
97.6915
99.0745
100.525
102.037
103.599
105.2
106.821
108.441
110.021
111.49
112.7
113.414
42.7907
50.3262
56.3557
62.3416
67.5566
71.8109
75.2297
77.9996
80.2738
82.1853
83.849
85.3348
86.6728
87.9037
89.0596
90.1717
91.2717
92.3888
93.5473
94.7635
96.0467
97.3995
98.8189
100.297
101.825
103.389
104.973
106.555
108.096
109.529
110.709
111.404
41.9972
49.2857
55.1286
60.9756
66.1179
70.3415
73.7493
76.5202
78.8048
80.7323
82.4105
83.9021
85.2367
86.4569
87.5963
88.689
89.7675
90.8612
91.9937
93.1827
94.4378
95.761
97.1491
98.595
100.088
101.616
103.163
104.707
106.211
107.608
108.757
109.433
41.1933
48.2457
53.9008
59.6035
64.6707
68.8651
72.2662
75.0446
77.3484
79.3003
80.9972
82.4969
83.8327
85.0435
86.1701
87.2455
88.3034
89.3744
90.4839
91.648
92.876
94.1704
95.528
96.9414
98.4005
99.8931
101.403
102.91
104.377
105.738
106.856
107.513
40.325
47.1555
52.6221
58.1781
63.1733
67.3491
70.7584
73.5593
75.894
77.8771
79.5981
81.112
82.4541
83.6632
84.7799
85.8409
86.8817
87.9334
89.0196
90.1588
91.3611
92.6281
93.9566
95.3394
96.7659
98.2244
99.6983
101.168
102.598
103.924
105.013
105.652
39.463
46.0717
51.3429
56.7447
61.6662
65.8271
69.2495
72.0769
74.4471
76.4671
78.2164
79.7477
81.1006
82.3127
83.4237
84.4739
85.4994
86.532
87.5994
88.7177
89.8955
91.1363
92.4363
93.7885
95.1825
96.6063
98.0454
99.4795
100.873
102.165
103.224
103.845
38.5304
44.9236
49.9918
55.231
60.0788
64.2372
67.6931
70.5686
72.9894
75.053
76.8361
78.3926
79.7621
80.9852
82.0984
83.1429
84.1575
85.177
86.2248
87.3208
88.4761
89.6919
90.9651
92.2885
93.6524
95.0442
96.4479
97.8459
99.2053
100.464
101.494
102.096
37.603
43.7776
48.6339
53.7009
58.4724
62.6332
66.1278
69.0516
71.5229
73.6365
75.461
77.0474
78.4407
79.6787
80.8005
81.8435
82.8512
83.8573
84.8918
85.9721
87.1063
88.2986
89.5458
90.8402
92.1722
93.5304
94.9011
96.2651
97.5889
98.8139
99.8151
100.399
36.5789
42.536
47.1649
52.0406
56.7262
60.8981
64.4579
67.4655
70.018
72.1959
74.0697
75.6976
77.1212
78.3834
79.5197
80.5725
81.5794
82.5815
83.602
84.6633
85.7785
86.9489
88.1713
89.4394
90.743
92.0712
93.407
94.7346
96.0258
97.218
98.1919
98.7568
35.5423
41.2769
45.6715
50.3441
54.9392
59.1294
62.7627
65.8507
68.4758
70.7249
72.6626
74.3382
75.8032
77.0949
78.2546
79.3176
80.3309
81.3295
82.3444
83.3971
84.4955
85.6453
86.844
88.0839
89.3566
90.6501
91.953
93.2484
94.5029
95.6625
96.6063
97.1528
34.3404
39.8572
43.996
48.4303
52.9042
57.1068
60.8428
64.0719
66.8375
69.1946
71.2101
72.953
74.4683
75.8038
76.9916
78.0792
79.1034
80.1092
81.118
82.1564
83.2402
84.3711
85.5466
86.7617
88.0063
89.2708
90.5394
91.7959
93.0187
94.1462
95.0629
95.5901
33.0715
38.3817
42.2614
46.4467
50.7937
55.0212
58.8788
62.2445
65.1227
67.5891
69.7097
71.5304
73.1127
74.4937
75.7253
76.8383
77.8834
78.8944
79.9076
80.9463
82.0186
83.1321
84.2861
85.4735
86.6872
87.9159
89.1488
90.376
91.562
92.6547
93.5412
94.0485
31.5424
36.6461
40.2266
44.0939
48.2374
52.4418
56.4367
60.038
63.1791
65.8482
68.1036
70.0384
71.7027
73.1637
74.4438
75.6001
76.6691
77.7015
78.7168
79.7458
80.8081
81.9065
83.0394
84.2035
85.3895
86.5901
87.7907
88.9756
90.1295
91.1914
92.0496
92.5367
29.8545
34.7784
38.0719
41.6183
45.5569
49.765
53.943
57.7749
61.0975
63.9525
66.3976
68.4664
70.2498
71.7744
73.1241
74.3275
75.4394
76.489
77.5217
78.5628
79.6203
80.7048
81.8186
82.9554
84.1103
85.2729
86.4323
87.5892
88.7058
89.7308
90.5566
91.0231
27.6806
32.4305
35.3754
38.468
42.0217
46.0709
50.3796
54.6152
58.4818
61.7512
64.4552
66.7433
68.6563
70.3299
71.7681
73.0428
74.1938
75.2841
76.3298
77.3658
78.4188
79.4932
80.588
81.7023
82.829
83.9633
85.093
86.2049
87.2861
88.2804
89.0762
89.5201
25.0847
29.7541
32.4277
35.1224
38.3311
42.3124
46.887
51.4567
55.5606
59.1951
62.2955
64.8229
66.9908
68.7685
70.3131
71.6668
72.896
74.0206
75.1013
76.1674
77.2246
78.2883
79.3661
80.4534
81.5475
82.6404
83.7199
84.8007
85.8458
86.7986
87.5586
87.9799
21.2864
25.9782
28.2599
30.2559
32.6294
35.9855
40.4604
45.9087
51.4396
55.979
59.6052
62.6581
65.0213
67.0702
68.7846
70.2618
71.5505
72.7447
73.8543
74.9182
75.9772
77.0375
78.0989
79.163
80.2274
81.2897
82.3403
83.3767
84.3804
85.3002
86.0263
86.4207
16.1431
21.2241
23.6803
25.3251
27.3766
30.6261
35.8547
41.17
46.1833
51.6737
56.3795
59.8216
62.8468
65.1438
67.0494
68.6622
70.0932
71.3467
72.5154
73.6392
74.7161
75.7689
76.8137
77.85
78.878
79.8938
80.8825
81.8757
82.8431
83.7156
84.399
84.7675
5.82649
10.8322
11.7241
12.7246
10.8817
10.5083
14.3792
24.2953
38.6527
46.1
51.7455
56.8747
60.1325
62.9217
65.1544
66.9997
68.5248
69.9022
71.1295
72.2496
73.3343
74.3922
75.4248
76.4359
77.4306
78.4102
79.3656
80.3214
81.2376
82.0726
82.7141
83.0494
3.53245
6.81988
7.26655
3.85011
16.4511
12.4581
18.0585
21.5085
22.6836
36.2741
46.1706
51.2225
56.6209
60.1369
62.8293
64.9444
66.7508
68.2271
69.5468
70.7815
71.9076
72.963
73.9755
74.955
75.905
76.8288
77.7026
78.5923
79.4683
80.2431
80.8325
81.132
11.8519
16.1568
17.1291
16.6053
14.6812
10.3468
9.81939
20.236
5.17235
16.4781
32.8302
47.2319
52.1378
56.7993
60.1292
62.7314
64.6975
66.422
67.8713
69.0937
70.2349
71.3043
72.3142
73.2639
74.1733
75.0509
75.884
76.7426
77.5538
78.2915
78.814
79.0776
20.1653
24.6757
26.63
27.4663
27.0288
25.3261
22.5979
17.7163
20.7299
17.7875
26.5986
30.353
45.5737
51.7333
56.4759
59.6983
62.3024
64.1965
65.7878
67.2346
68.4613
69.5432
70.5173
71.4257
72.2728
73.0722
73.7694
74.541
75.301
75.9336
76.3966
76.5923
22.3182
27.2939
29.9906
31.9544
33.0721
33.1815
32.036
29.5832
25.5427
21.9513
21.5073
26.7812
30.0258
46.0179
51.7615
56.2438
59.1302
61.5989
63.5084
64.9219
66.1805
67.2796
68.2761
69.1457
69.9357
70.6791
71.3522
72.0634
72.7247
73.3567
73.6823
73.8573
22.9885
28.0716
30.983
33.2947
34.9479
35.8944
36.0388
35.1412
32.7109
28.896
30.9197
26.2164
22.368
31.362
45.1895
50.8665
55.4803
58.232
60.3597
62.2529
63.6842
64.8426
65.7531
66.5575
67.2436
67.8387
68.1692
68.8381
69.4489
69.827
70.0747
70.0893
22.3527
27.5738
30.6448
33.1876
35.1463
36.4887
37.1792
37.1471
36.1844
33.7612
30.8308
34.697
28.5962
27.2916
31.6178
44.6981
49.4254
53.7939
56.7988
58.5562
60.0586
61.2165
62.2041
62.9535
63.5386
64.1155
64.6292
65.0403
65.3684
65.9162
65.8535
65.9492
20.8693
26.2222
29.3876
32.0739
34.2428
35.8812
36.9892
37.5694
37.5968
36.9028
34.7548
31.8382
26.7916
29.3776
26.898
30.3514
43.4318
47.8934
51.1372
54.1548
56.0266
57.3843
58.1247
58.7422
59.1128
59.2294
58.5211
59.2509
59.7752
59.5498
59.2239
58.88
18.8885
24.3349
27.5299
30.2745
32.5539
34.3755
35.7584
36.742
37.3761
37.6824
37.5392
36.2927
33.0154
28.191
28.0656
23.8285
26.7183
38.9552
45.2793
47.0627
49.0972
50.3199
51.2623
51.7349
51.9289
52.6142
53.9012
53.2641
51.8143
52.5424
51.6251
52.3201
16.6578
22.0858
25.2099
27.9089
30.1985
32.1136
33.6928
34.9875
36.0701
37.0061
37.7973
38.2879
37.8499
34.1266
30.94
20.0623
29.8057
24.6026
30.7984
39.4051
41.9423
44.1132
44.3144
44.4914
43.8065
41.8
37.2438
38.4773
40.7096
39.184
34.269
34.3969
14.4105
19.6806
22.6286
25.1772
27.377
29.287
30.9652
32.4734
33.8862
35.2802
36.6854
38.0154
38.981
38.6744
35.3623
25.324
27.7229
17.1514
26.7291
21.3896
29.7316
29.0804
31.4602
23.8184
33.2655
29.116
31.2822
31.5938
30.6609
13.6578
6.20491
22.528
12.4329
17.4238
20.1201
22.4449
24.4824
26.3112
28.0009
29.6176
31.2282
32.8993
34.6788
36.5311
38.273
39.4618
39.2397
35.9606
28.2629
19.1408
26.7951
21.7929
37.1432
36.2719
35.9755
28.2754
41.0053
31.984
37.4526
38.4581
44.7627
24.4552
5.73627
34.1088
10.9064
15.5483
17.9761
20.0587
21.9089
23.6186
25.2614
26.8986
28.5837
30.3663
32.2949
34.3814
36.5419
38.4961
39.721
39.4368
35.8673
30.5721
20.1938
27.9141
30.8455
31.2514
32.3307
27.4325
36.9334
34.8579
20.1784
36.7439
40.512
32.4326
33.7505
33.199
9.77707
14.1758
16.3767
18.2557
19.9478
21.548
23.1233
24.7211
26.3789
28.1328
30.0256
32.0981
34.3511
36.6538
38.6465
39.7456
39.2712
37.1025
32.4886
30.2707
26.914
26.2174
26.3485
31.3812
32.6655
33.5139
32.823
37.4531
38.9811
39.248
44.5369
40.3489
9.17478
13.3835
15.4246
17.1716
18.7676
20.298
21.8129
23.3417
24.9068
26.5358
28.268
30.1553
32.244
34.5216
36.8182
38.7218
39.6847
39.6087
38.6215
36.1888
36.5601
35.1617
38.1652
39.5189
40.8399
40.6188
41.1252
42.565
43.0757
42.7876
46.2896
44.0311
8.99833
13.1192
15.0898
16.7889
18.3574
19.8642
21.3401
22.7979
24.2499
25.7191
27.2423
28.8691
30.6576
32.6544
34.8378
37.0207
38.8232
39.9089
40.2684
39.4991
39.9459
39.547
41.4076
41.902
42.6283
42.5055
42.8542
43.0617
43.0795
42.9215
45.6952
44.4504
9.17625
13.2877
15.261
16.9804
18.5753
20.0962
21.5567
22.9599
24.3137
25.6386
26.9667
28.3403
29.8109
31.4373
33.2644
35.2661
37.2745
38.9998
40.2208
40.4961
40.9727
40.9905
42.0562
42.328
42.5696
42.3693