/*--------------------------------*- C++ -*----------------------------------*\
  =========                 |
  \\      /  F ield         | OpenFOAM: The Open Source CFD Toolbox
   \\    /   O peration     | Website:  https://openfoam.org
    \\  /    A nd           | Version:  6
     \\/     M anipulation  |
\*---------------------------------------------------------------------------*/
FoamFile
{
    version     2.0;
    format      ascii;
    class       volScalarField;
    location    "21";
    object      yPlus;
}
// * * * * * * * * * * * * * * * * * * * * * * * * * * * * * * * * * * * * * //

dimensions      [0 0 0 0 0 0 0];

internalField   uniform 0;

boundaryField
{
    inlet
    {
        type            calculated;
        value           uniform 0;
    }
    outlet
    {
        type            calculated;
        value           uniform 0;
    }
    roughCylinder
    {
        type            calculated;
        value           nonuniform List<scalar> 
5120
(
43.4918
51.3111
57.5393
63.6655
68.9541
73.2439
76.6811
79.4594
81.7342
83.6397
85.2955
86.778
88.1246
89.3693
90.5432
91.6768
92.8005
93.9427
95.1268
96.3701
97.6821
99.0652
100.516
102.028
103.591
105.192
106.815
108.437
110.019
111.491
112.708
113.426
42.7728
50.3093
56.3394
62.3261
67.5422
71.7976
75.2173
77.9878
80.2624
82.174
83.8379
85.324
86.6624
87.8935
89.0495
90.1617
91.2619
92.3791
93.5376
94.7537
96.0369
97.3899
98.8095
100.288
101.816
103.381
104.966
106.55
108.094
109.531
110.717
111.417
41.9921
49.2786
55.1203
60.9664
66.1081
70.3311
73.7387
76.5094
78.7944
80.7223
82.4006
83.8921
85.2265
86.4466
87.5862
88.6788
89.7572
90.8509
91.9834
93.1726
94.4277
95.751
97.1394
98.5854
100.079
101.608
103.156
104.702
106.209
107.609
108.766
109.447
41.1718
48.2251
53.8804
59.5838
64.6522
68.8482
72.2509
75.0304
77.3347
79.2866
80.9838
82.4842
83.8207
85.0321
86.1589
87.2346
88.2929
89.3639
90.4734
91.6374
92.8653
94.1598
95.5177
96.9314
98.3912
99.8843
101.396
102.905
104.373
105.738
106.865
107.528
40.3198
47.1482
52.6138
58.1692
63.1639
67.3391
70.7474
73.5477
75.8826
77.8665
79.588
81.1018
82.4435
83.6524
84.7691
85.8299
86.8705
87.9222
89.0084
90.1478
91.3501
92.6172
93.9457
95.3286
96.7552
98.2148
99.6907
101.162
102.595
103.925
105.023
105.667
39.4363
46.0455
51.3161
56.7181
61.6407
65.804
69.2293
72.0592
74.4304
76.4504
78.2
79.7321
81.086
82.2991
83.411
84.462
85.4879
86.5208
87.5881
88.7062
89.8841
91.1247
92.4249
93.7774
95.1719
96.5968
98.037
99.4725
100.869
102.165
103.235
103.861
38.5254
44.9166
49.9842
55.2237
60.0715
64.229
67.6827
70.5559
72.9761
75.0408
76.825
78.3818
79.7512
80.9742
82.087
83.1308
84.1452
85.1645
86.2125
87.3088
88.464
89.68
90.9533
92.2766
93.6402
95.033
96.4391
97.8398
99.201
100.464
101.506
102.113
37.568
43.7423
48.5966
53.6624
58.4344
62.5983
66.0985
69.0282
71.503
73.6172
75.4418
77.0288
78.4232
79.662
80.7854
81.8301
82.8388
83.8452
84.8797
85.9597
87.0939
88.2861
89.5331
90.8282
92.161
93.5202
94.8915
96.2569
97.5834
98.8131
99.8272
100.418
36.5738
42.5293
47.1588
52.0363
56.7236
60.8951
64.4509
67.4526
70.0015
72.1797
74.055
75.6841
77.1085
78.3719
79.5077
80.5592
81.5657
82.5676
83.5883
84.65
85.7651
86.9356
88.1584
89.4258
90.7292
92.058
93.3965
94.7278
96.0194
97.2172
98.2047
98.7765
35.4972
41.2294
45.6192
50.2873
54.8805
59.0738
62.7161
65.8162
68.4505
70.7035
72.6425
74.3184
75.7838
77.0748
78.2362
79.3022
80.3171
81.3163
82.3313
83.3835
84.482
85.6316
86.8296
88.0704
89.3437
90.6387
91.9426
93.2386
94.4953
95.6596
96.6203
97.1753
34.33
39.8468
43.9885
48.4281
52.9076
57.1125
60.8433
64.0616
66.8183
69.1721
71.1876
72.9329
74.4505
75.79
76.9784
78.0641
79.0875
80.0931
81.1024
82.1415
83.225
84.3558
85.5321
86.7461
87.9901
89.2555
90.5256
91.7883
93.0108
94.1437
95.0784
95.6142
33.0166
38.3224
42.1931
46.368
50.7071
54.9345
58.804
62.1897
65.0854
67.5628
69.6896
71.5108
73.0936
74.4716
75.7035
76.8203
77.8678
78.8797
79.8928
80.9309
82.0034
83.1168
84.2694
85.4578
86.6719
87.901
89.1381
90.3637
91.5507
92.6498
93.558
94.0762
31.5163
36.6212
40.2064
44.0837
48.2405
52.454
56.4441
60.0303
63.1587
65.82
68.0703
70.009
71.6768
73.1443
74.4277
75.5824
76.6502
77.6825
78.6989
79.7287
80.7905
81.8885
83.0228
84.1854
85.371
86.5731
87.7722
88.9659
90.1186
91.1869
92.0685
92.5673
29.7927
34.7116
37.9928
41.5199
45.4367
49.6341
53.8296
57.6939
61.04
63.9127
66.3754
68.445
70.2281
71.7509
73.0996
74.3066
75.4218
76.4725
77.5045
78.5448
79.6026
80.6876
81.7988
82.9366
84.0905
85.2519
86.4215
87.5756
88.6895
89.7216
90.5772
91.0574
27.6211
32.3724
35.3211
38.4299
42.0171
46.098
50.3887
54.5871
58.4481
61.717
64.4056
66.7023
68.6266
70.3043
71.7462
73.0211
74.1705
75.2609
76.3088
77.3461
78.3986
79.4716
80.5683
81.6811
82.8079
83.9461
85.0693
86.1913
87.271
88.2725
89.0997
89.5607
25.0269
29.692
32.3522
35.0061
38.1259
42.0183
46.6773
51.3698
55.4952
59.1327
62.2747
64.8036
66.9545
68.7366
70.286
71.6421
72.8755
74.0019
75.0807
76.1452
77.2028
78.2681
79.3425
80.4302
81.5206
82.6081
83.7083
84.7865
85.823
86.7827
87.5852
88.0241
21.2128
25.9106
28.193
30.277
32.9423
36.6235
40.685
45.7335
51.2952
55.9114
59.5047
62.571
64.9951
67.0492
68.7564
70.2351
71.5224
72.7156
73.8288
74.8955
75.954
77.0116
78.0743
79.1374
80.2028
81.274
82.3122
83.3583
84.3564
85.2871
86.0569
86.4775
16.3134
21.2961
23.74
24.9025
25.4984
26.8619
34.1776
41.1411
46.2631
51.6111
56.4129
59.879
62.79
65.0803
67.0128
68.6301
70.0655
71.3239
72.4902
73.6107
74.6876
75.7434
76.7851
77.821
78.8407
79.8436
80.8671
81.8606
82.8108
83.6892
84.434
84.8254
7.18953
11.4513
12.5709
15.631
16.9326
16.9636
18.8196
24.6664
38.1416
45.8764
51.4351
56.5474
60.0852
62.93
65.1278
66.9711
68.4959
69.8673
71.097
72.2227
73.3074
74.3617
75.3934
76.4042
77.4001
78.3955
79.337
80.2986
81.1993
82.0483
82.7573
83.133
5.40728
9.02332
8.55933
6.85996
4.79142
10.596
14.2927
22.8479
20.4942
35.997
46.4078
51.7158
56.5785
59.997
62.7588
64.89
66.6998
68.1907
69.514
70.7427
71.8686
72.9282
73.9395
74.9182
75.8532
76.7535
77.6794
78.5729
79.4174
80.2021
80.8791
81.2111
11.7659
16.4843
18.0646
18.5743
17.7511
16.3699
11.7709
18.747
18.2773
20.1679
32.9899
46.1432
52.0474
56.872
60.1291
62.7186
64.6886
66.3914
67.8302
69.0616
70.2024
71.27
72.2733
73.2234
74.1315
75.03
75.8625
76.7199
77.5004
78.2395
78.883
79.2045
19.8262
24.2747
26.1605
26.9444
26.5873
25.1579
23.0065
16.7409
22.2859
16.5267
17.5054
29.3098
44.7735
51.3813
56.2996
59.5655
62.1729
64.1105
65.732
67.1757
68.4051
69.49
70.4691
71.3782
72.1989
72.9624
73.739
74.5098
75.1952
75.871
76.4659
76.7175
22.0447
27.0319
29.7385
31.7247
32.8821
33.0503
31.9865
29.4846
24.5508
24.7588
23.5234
26.6595
34.0525
46.1178
51.8727
56.3317
59.2191
61.6154
63.467
64.8852
66.1358
67.2464
68.2223
69.0914
69.8718
70.6262
71.3425
72.0438
72.6831
73.2411
73.8018
74.0439
22.8314
27.9286
30.8639
33.2296
34.9873
36.1184
36.5786
36.2025
34.4466
30.2083
22.9153
27.4169
13.1951
31.2874
44.5347
50.4499
55.0935
57.9841
60.223
62.1455
63.5988
64.748
65.6839
66.4964
67.1319
67.677
68.1782
68.791
69.1697
69.7064
70.2252
70.3511
22.2561
27.4905
30.5878
33.1851
35.2419
36.75
37.7165
38.143
37.9372
36.6027
32.8926
28.3839
18.8914
32.6819
33.3534
45.0877
49.9144
54.0065
56.789
58.5178
59.9819
61.1957
62.1355
62.8699
63.4401
63.9268
64.564
64.9609
65.4799
65.6676
66.1
66.1879
20.7791
26.1473
29.335
32.063
34.304
36.0579
37.3481
38.214
38.6891
38.7206
37.881
34.5812
25.7467
24.7959
10.7984
31.0383
42.55
47.1664
50.7117
53.9116
55.8828
57.1681
58.0102
58.6601
58.9032
59.0199
58.8759
59.2573
58.8854
59.1605
59.8339
59.7611
18.7923
24.2459
27.4522
30.2209
32.5449
34.4394
35.9332
37.0838
37.9695
38.6523
39.0647
38.6468
35.6281
28.0413
2.26024
12.2817
27.1149
39.4008
45.085
46.9966
48.9033
50.2899
51.1097
51.5278
51.8543
51.523
52.5417
52.0685
53.1222
52.1951
52.5528
52.3382
16.5589
21.9765
25.0965
27.8015
30.1119
32.0645
33.7012
35.0777
36.2773
37.3835
38.4193
39.2093
39.031
35.6021
25.5217
25.3374
30.3503
27.4225
31.719
38.7038
42.2438
43.175
43.9412
44.1736
43.6352
42.2674
40.8785
39.8599
38.5869
35.8801
39.5704
42.4552
14.3554
19.6032
22.5386
25.0832
27.2893
29.2155
30.9186
32.4607
33.9187
35.375
36.8611
38.2929
39.3413
39.0535
35.4903
29.0415
34.6039
26.9662
7.31217
16.8148
21.8954
24.3639
22.6029
21.8065
24.3763
27.7559
22.5155
17.5838
21.3821
16.6804
44.0033
45.8633
12.4386
17.4117
20.0987
22.4202
24.4599
26.2949
27.9931
29.6193
31.2403
32.9264
34.7197
36.5802
38.3135
39.4432
39.0059
34.0392
31.8409
26.3739
19.9078
8.31239
19.9865
29.5939
13.9183
10.7139
27.9973
41.2978
27.3873
10.1012
32.9061
17.2991
41.1456
41.026
10.9442
15.5836
18.0124
20.0994
21.9558
23.6719
25.3202
26.9615
28.6483
30.4309
32.3533
34.424
36.5509
38.4385
39.5251
38.6674
35.0229
30.388
25.9322
20.7102
31.4474
20.491
25.2545
22.9281
36.4087
34.2108
34.0812
31.3745
40.2352
31.4718
29.4869
27.6948
9.83302
14.2402
16.4487
18.337
20.0386
21.6471
23.2295
24.8333
26.4956
28.2519
30.1427
32.2069
34.4422
36.7133
38.6542
39.6249
39.2376
36.9971
34.3325
31.2925
29.6025
29.8358
30.9051
31.6282
31.8106
37.552
35.6094
38.6668
34.93
42.6667
40.6715
39.4277
9.23418
13.4573
15.5091
17.267
18.8729
20.4122
21.9357
23.4732
25.0471
26.6841
28.4228
30.3139
32.4022
34.675
36.9682
38.8708
39.9327
39.7184
39.1635
38.5729
36.2621
38.044
39.5963
40.1858
39.0316
42.8395
40.8366
42.7409
39.1371
44.9699
44.4436
43.4924
9.05289
13.19
15.1713
16.8801
18.4571
19.9722
21.4569
22.9251
24.3887
25.8704
27.4063
29.0454
30.8451
32.852
35.0479
37.2529
39.1112
40.1443
40.7018
40.8757
40.2076
40.9052
41.9346
42.2781
41.7508
43.4195
42.2305
43.0134
41.3368
44.5979
44.5089
43.8448
9.22109
13.3486
15.3307
17.0577
18.6592
20.187
21.6562
23.0702
24.4369
25.776
27.1193
28.5084
29.9947
31.6368
33.4809
35.5045
37.548
39.2672
40.5772
41.3246
41.3612
41.5816
42.2932
42.4765
42.0671
42.7682
42.1334
42.2135
41.5017
43.2319
43.2844
42.9544
9.64515
13.8144
15.8454
17.6363
19.2983
20.8668
22.3451
23.7305
25.0295
26.2611
27.4538
28.6417
29.8647
31.1715
32.617
34.2418
36.0257
37.8118
39.4382
40.6169
41.1288
41.2974
41.7426
41.7416
41.2181
41.3692
40.928
40.6506
40.341
41.2425
41.3436
41.265
10.2694
14.5098
16.6135
18.489
20.2278
21.8507
23.3532
24.7313
25.9928
27.1576
28.252
29.3028
30.3386
31.3933
32.5102
33.7377
35.1083
36.5906
38.088
39.3533
40.1057
40.3552
40.6342
40.4643
39.8095
39.6599
39.2382
38.8175
38.6881
39.2087
39.3882
39.4876
11.0414
15.38
17.569
19.5362
21.3543
23.0334
24.5657
25.949
27.1951
28.3265
29.3683
30.3414
31.2641
32.1565
33.0459
33.9698
34.9667
36.0535
37.1998
38.2612
39.0035
39.2975
39.446
39.1553
38.4545
38.1189
37.6789
37.2526
37.2333
37.6111
37.9188
38.1518
11.8737
16.3772
18.6598
20.7194
22.6141
24.3469
25.9102
27.3064
28.5527
29.6748
30.6972
31.6362
32.5032
33.3073
34.0619
34.7899
35.519
36.2745
37.0573
37.8026
38.3625
38.5927
38.6083
38.2339
37.5381
37.0857
36.6364
36.2668
36.3371
36.7052
37.1537
37.4853
12.8448
17.4691
19.8449
21.9946
23.9618
25.7452
27.3399
28.7543
30.0116
31.1407
32.1656
33.0993
33.9478
34.7143
35.4022
36.0223
36.5884
37.1184
37.6216
38.0738
38.3966
38.4826
38.3532
37.9063
37.2216
36.6942
36.2472
35.9511
36.1006
36.5202
37.0891
37.4937
13.6463
14.067
14.552
14.9417
15.3185
15.6177
15.8785
16.0801
16.2416
16.3547
16.4306
16.4676
16.4697
16.4382
16.3771
16.2892
16.1765
16.0441
15.9028
15.7811
15.7689
15.8785
16.0128
16.1394
16.2469
16.3298
16.3858
16.4125
16.4059
16.3645
16.2845
16.1678
16.0033
15.7992
15.5366
15.2368
14.8605
14.4737
13.9927
13.5794
18.3921
18.8285
19.3331
19.7404
20.135
20.4554
20.7388
20.965
21.1522
21.2928
21.3965
21.4622
21.4925
21.4875
21.4494
21.3802
21.2809
21.1553
21.0132
20.8851
20.871
20.9852
21.1192
21.2385
21.332
21.3956
21.4283
21.4283
21.3933
21.3233
21.2155
21.0716
20.8818
20.6536
20.3692
20.049
19.6559
19.2523
18.7528
18.3251
20.8468
21.3083
21.8426
22.2754
22.6983
23.0492
23.3669
23.6304
23.8578
24.0416
24.1899
24.3018
24.379
24.4201
24.4252
24.3952
24.3303
24.2329
24.1118
23.996
23.9817
24.0827
24.195
24.2852
24.3435
24.3673
24.3562
24.3097
24.2274
24.1107
23.9582
23.771
23.541
23.2756
22.957
22.6067
22.1856
21.757
21.2281
20.7758
23.0597
23.5402
24.0972
24.5494
24.9967
25.3748
25.7245
26.0235
26.2899
26.5163
26.709
26.8666
26.9904
27.0778
27.1273
27.1383
27.11
27.0445
26.9503
26.856
26.8429
26.9216
27.0059
27.0633
27.0841
27.0663
27.0101
26.9167
26.7872
26.6243
26.4273
26.1972
25.9279
25.6271
25.2767
24.8994
24.4542
24.0063
23.4548
22.9837
25.0683
25.5528
26.1175
26.5761
27.0351
27.4285
27.7982
28.1217
28.4159
28.6748
28.9032
29.0985
29.2606
29.3864
29.4731
29.5189
29.5226
29.4855
29.417
29.3448
29.3333
29.3892
29.447
29.475
29.4634
29.41
29.3162
29.1838
29.0155
28.8147
28.5815
28.3186
28.0213
27.696
27.3257
26.9334
26.4767
26.0226
25.4638
24.9888
26.8719
27.3443
27.9027
28.3558
28.8152
29.2137
29.5941
29.9348
30.2517
30.5372
30.7956
31.0228
31.2177
31.3761
31.4949
31.5707
31.6019
31.5897
31.5432
31.4888
31.4783
31.5164
31.5514
31.5541
31.5145
31.4306
31.3045
31.1391
30.9377
30.7047
30.4413
30.1515
29.8315
29.4889
29.108
28.7107
28.2539
27.8058
27.2538
26.7914
28.4711
28.9202
29.4649
29.9068
30.3623
30.7634
31.1541
31.5113
31.8494
32.1599
32.4457
32.7018
32.9262
33.1139
33.2609
33.363
33.4179
33.4266
33.3977
33.3562
33.3463
33.3718
33.3889
33.3704
33.3066
33.1963
33.0416
32.8467
32.6157
32.3535
32.0626
31.7478
31.4066
31.0474
30.6563
30.2562
29.8038
29.3674
28.8299
28.3917
29.8821
30.304
30.8346
31.2668
31.7208
32.129
32.5318
32.9065
33.2653
33.5996
33.9107
34.1933
34.4443
34.6581
34.8298
34.9546
35.0296
35.055
35.0394
35.0063
34.9967
35.0138
35.0176
34.9821
34.8982
34.765
34.5854
34.3643
34.1066
33.8179
33.5016
33.163
32.8012
32.4247
32.0216
31.6148
31.1638
30.7378
30.2153
29.8053
31.1348
31.5312
32.0516
32.4792
32.9365
33.3539
33.7697
34.1615
34.5396
34.8956
35.2294
35.5355
35.8095
36.0457
36.2384
36.382
36.4732
36.5117
36.5054
36.4775
36.4679
36.4801
36.4744
36.4259
36.3257
36.1735
35.973
35.7295
35.4486
35.1366
34.7975
34.4373
34.0563
33.6628
33.2469
32.8311
32.3775
31.9561
31.4446
31.0612
32.2606
32.6346
33.1486
33.5757
34.0373
34.4644
34.8923
35.2996
35.6948
36.0695
36.4227
36.7485
37.042
37.2966
37.5062
37.6651
37.7689
37.8172
37.8172
37.792
37.7825
37.7918
37.7799
37.7217
37.6089
37.4416
37.224
36.9619
36.6618
36.33
35.9717
35.5929
35.1949
34.7862
34.3584
33.9334
33.4755
33.0553
32.5503
32.1903
33.2813
33.6341
34.1438
34.5705
35.0365
35.472
35.9104
36.3309
36.7404
37.1307
37.4999
37.8418
38.151
38.4204
38.6435
38.8141
38.9275
38.983
38.9874
38.9638
38.9543
38.9621
38.9459
38.8805
38.7581
38.5792
38.3482
38.0714
37.7556
37.4079
37.0337
36.6394
36.2273
35.8056
35.3676
34.9344
34.4728
34.0531
33.5531
33.2152
34.2079
34.5383
35.0425
35.4682
35.9373
36.3798
36.8271
37.2583
37.6797
38.0827
38.465
38.8198
39.1413
39.4225
39.6562
39.8361
39.9572
40.0185
40.027
40.0054
39.9959
40.0019
39.9817
39.9105
39.7804
39.5924
39.3508
39.0625
38.7345
38.3738
37.9869
37.5802
37.1564
36.724
36.2775
35.8377
35.3731
34.9549
34.4611
34.146
35.0421
35.347
35.8438
36.2672
36.7385
37.1867
37.6414
38.0818
38.5131
38.9265
39.3194
39.6846
40.016
40.3064
40.5487
40.736
40.8638
40.9309
40.9444
40.9264
40.9171
40.9196
40.8945
40.8176
40.681
40.4855
40.2357
39.9383
39.6005
39.2297
38.8324
38.4154
37.982
37.5408
37.0872
36.6419
36.1757
35.7601
35.2743
34.9849
35.7822
36.0577
36.544
36.9641
37.4366
37.8899
38.3512
38.7998
39.2396
39.6621
40.0636
40.4374
40.7768
41.0745
41.3236
41.5174
41.6513
41.7247
41.7447
41.7324
41.7234
41.7206
41.689
41.6058
41.4632
41.2615
41.005
40.7004
40.3548
39.9759
39.5701
39.1444
38.7028
38.2537
37.7939
37.3438
36.8768
36.4649
35.9902
35.7315
36.4281
36.6669
37.1389
37.5543
38.0273
38.4857
38.9533
39.4098
39.8576
40.2881
40.6973
41.0784
41.4245
41.7284
41.9833
42.1829
42.3229
42.4033
42.4313
42.426
42.4175
42.4081
42.3685
42.2784
42.1298
41.9224
41.6603
41.3498
40.9979
40.6121
40.1989
39.7656
39.3163
38.8598
38.3939
37.9393
37.472
37.0656
36.6057
36.3843
36.9812
37.1714
37.6236
38.0321
38.5052
38.9684
39.4427
39.9073
40.3632
40.8015
41.218
41.6056
41.9577
42.2672
42.5274
42.7325
42.8788
42.9667
43.0033
43.0053
42.9973
42.981
42.9329
42.8355
42.6807
42.468
42.201
41.8853
41.5278
41.1357
40.7158
40.275
39.8182
39.3541
38.882
38.4228
37.9564
37.5572
37.1184
36.9454
37.4442
37.5675
37.9915
38.39
38.8619
39.3303
39.8118
40.2848
40.7491
41.1956
41.6194
42.0135
42.3714
42.6862
42.9515
43.162
43.3146
43.41
43.455
43.4639
43.4564
43.4338
43.3776
43.2727
43.1119
42.8941
42.6223
42.3018
41.939
41.5409
41.1141
40.6659
40.2012
39.7292
39.2504
38.7869
38.3223
37.934
37.524
37.4171
37.8226
37.8512
38.232
38.6174
39.0863
39.5598
40.049
40.5313
41.0047
41.4599
41.8914
42.2923
42.6561
42.9763
43.2467
43.4626
43.6214
43.724
43.7767
43.7915
43.7844
43.7566
43.693
43.5813
43.4146
43.1917
42.9153
42.59
42.2219
41.8177
41.3838
40.9276
40.4545
39.9738
39.4884
39.0206
38.5604
38.1869
37.8203
37.8063
38.1201
38.0213
38.3371
38.7006
39.1647
39.643
40.1401
40.6324
41.1157
41.5803
42.0202
42.4284
42.7986
43.1243
43.4
43.6214
43.7863
43.8955
43.955
43.9747
43.968
43.9361
43.8662
43.7482
43.576
43.3483
43.0671
42.7368
42.3631
41.9523
41.511
41.0461
40.5639
40.0744
39.5822
39.1114
38.658
38.3079
38.0063
38.118
38.3327
38.0753
38.301
38.6286
39.0828
39.5653
40.0702
40.5727
41.0665
41.5411
41.9901
42.4062
42.7833
43.1153
43.3967
43.6235
43.7941
43.9094
43.9746
43.9985
43.9922
43.9569
43.8819
43.7585
43.5813
43.3487
43.0627
42.7271
42.3474
41.9296
41.4801
41.0062
40.5147
40.0163
39.5181
39.0459
38.6044
38.2908
38.0783
38.3446
38.4301
38.0005
38.118
38.3953
38.8314
39.3166
39.8279
40.3407
40.8447
41.3295
41.7878
42.2123
42.5966
42.9349
43.2221
43.4545
43.6305
43.7511
43.8212
43.8484
43.8425
43.8049
43.7258
43.5978
43.416
43.1789
42.8881
42.5471
42.1611
41.7361
41.2784
40.7955
40.295
39.788
39.2849
38.8119
38.3899
38.1269
38.0195
38.4493
38.3605
37.7746
37.7823
38.0002
38.4092
38.8914
39.4106
39.9324
40.4463
40.9406
41.4077
41.8401
42.2315
42.5759
42.8687
43.1062
43.2869
43.4119
43.4859
43.5156
43.5103
43.4709
43.3889
43.2575
43.0721
42.8311
42.5358
42.19
41.7982
41.3664
40.9013
40.4103
39.9017
39.3875
38.8794
38.4105
38.0144
37.8071
37.8003
38.37
38.0812
37.378
37.2956
37.4578
37.8376
38.3115
38.8345
39.3635
39.8848
40.3865
40.8606
41.2994
41.6964
42.0458
42.3428
42.5842
42.7683
42.8964
42.9727
43.0041
42.9993
42.9592
42.8759
42.7427
42.555
42.3115
42.0133
41.6639
41.2678
40.8312
40.3604
39.8637
39.3492
38.8305
38.3196
37.8586
37.4903
37.3354
37.415
38.0998
37.5986
36.8249
36.6842
36.8033
37.1565
37.6185
38.1403
38.674
39.1995
39.7053
40.183
40.6251
41.0249
41.3766
41.6756
41.9183
42.1036
42.2323
42.3092
42.3411
42.3366
42.297
42.2144
42.0818
41.8945
41.6509
41.3523
41.0018
40.6043
40.1656
39.6924
39.1925
38.675
38.1521
37.6421
37.1905
36.8436
36.7228
36.8485
37.5883
36.972
36.1771
36.0142
36.1082
36.4421
36.8915
37.4073
37.9398
38.4637
38.9687
39.4453
39.8863
40.2848
40.6351
40.9323
41.1731
41.356
41.4823
41.5568
41.5872
41.5831
41.5457
41.4666
41.338
41.1546
40.9147
40.6195
40.2721
39.8774
39.4411
38.9701
38.4722
37.9565
37.4348
36.9291
36.4865
36.1521
36.0451
36.1768
36.9144
36.3098
35.5281
35.3715
35.4615
35.7878
36.2286
36.7372
37.2638
37.7825
38.2819
38.7529
39.188
39.5806
39.9247
40.2157
40.45
40.6262
40.7457
40.814
40.8402
40.836
40.803
40.7311
40.6106
40.4353
40.2034
39.9157
39.5756
39.1878
38.7582
38.2938
37.802
37.2927
36.7777
36.2809
35.85
35.5294
35.4386
35.5857
36.3465
35.876
35.1005
34.9469
35.0306
35.3464
35.7738
36.2682
36.7809
37.287
37.7745
38.234
38.6579
39.0393
39.3724
39.6524
39.8758
40.0409
40.1491
40.2065
40.2251
40.2204
40.1949
40.135
40.0276
39.8654
39.6462
39.3712
39.0437
38.6685
38.2514
37.7992
37.3202
36.8236
36.3226
35.8398
35.4219
35.1109
35.0242
35.1653
35.9128
35.7254
34.9856
34.8517
34.9368
35.243
35.653
36.126
36.6158
37.1011
37.569
38.0098
38.4158
38.7799
39.0965
39.3605
39.5683
39.7177
39.81
39.8514
39.8574
39.8511
39.8369
39.7938
39.7038
39.5585
39.356
39.0977
38.7872
38.429
38.0293
37.5945
37.1327
36.6537
36.1707
35.7032
35.2947
34.9839
34.8839
34.9932
35.6861
35.9624
35.2525
35.1351
35.2185
35.5113
35.8985
36.3431
36.8022
37.2602
37.7025
38.1196
38.5029
38.8459
39.1425
39.3877
39.5777
39.7101
39.7852
39.8088
39.7988
39.79
39.7906
39.7668
39.6958
39.5691
39.3856
39.147
38.857
38.5205
38.1432
37.7318
37.2945
36.841
36.3855
35.9434
35.5548
35.2548
35.1536
35.2426
35.8986
36.2497
35.6714
35.6335
35.7544
36.0562
36.4319
36.8539
37.2871
37.7182
38.1335
38.5241
38.8822
39.2012
39.4754
39.7
39.8712
39.9861
40.0446
40.0514
40.0252
40.0126
40.0271
40.0202
39.9659
39.8563
39.691
39.472
39.2032
38.8893
38.5358
38.1492
37.7376
37.3107
36.882
36.4672
36.0993
35.808
35.7016
35.7637
36.3792
37.0307
36.4233
36.3587
36.4478
36.7169
37.058
37.4467
37.8512
38.2563
38.6479
39.0166
39.3543
39.6544
39.9113
40.1202
40.2772
40.3796
40.4268
40.4232
40.3874
40.3728
40.3966
40.4005
40.3576
40.2609
40.11
39.9072
39.6564
39.3622
39.03
38.6664
38.2794
37.8784
37.4775
37.0918
36.7532
36.4844
36.3899
36.4432
37.0261
37.6149
37.02
36.955
37.026
37.2717
37.585
37.9487
38.3295
38.7128
39.0843
39.4343
39.7549
40.0394
40.2822
40.4784
40.6242
40.7169
40.7558
40.7453
40.7038
40.6867
40.7127
40.721
40.6836
40.5936
40.4507
40.2572
40.0168
39.7339
39.414
39.0633
38.6898
38.3026
37.9155
37.5433
37.2178
36.9576
36.8653
36.9112
37.4757
43.5049
51.3246
57.5532
63.6794
68.9681
73.2577
76.6947
79.4727
81.7472
83.6523
85.3079
86.7904
88.1373
89.3825
90.5567
91.6908
92.8151
93.9579
95.1427
96.3869
97.6998
99.0839
100.536
102.049
103.614
105.216
106.841
108.464
110.048
111.522
112.74
113.456
42.7875
50.324
56.3539
62.3402
67.5557
71.8105
75.2297
77.9999
80.2745
82.1864
83.8509
85.3374
86.6759
87.9071
89.0635
90.1762
91.2768
92.3946
93.5538
94.7709
96.055
97.409
98.8297
100.31
101.84
103.406
104.992
106.578
108.124
109.562
110.75
111.447
42.0065
49.2933
55.1353
60.9815
66.123
70.346
73.7532
76.5237
78.8081
80.7355
82.4133
83.9047
85.2394
86.46
87.6001
88.6933
89.7724
90.8667
92
93.1899
94.4461
95.7705
97.1603
98.6074
100.103
101.633
103.183
104.73
106.24
107.642
108.8
109.477
41.1881
48.2414
53.8966
59.5996
64.6673
68.8625
72.2645
75.0435
77.3478
79.3002
80.998
82.499
83.8356
85.0468
86.1737
87.2497
88.3083
89.38
90.4902
91.6552
92.8842
94.1798
95.539
96.9541
98.4155
99.91
101.424
102.933
104.406
105.771
106.901
107.559
40.3352
47.1641
52.6301
58.1854
63.18
67.3549
70.763
73.5628
75.8972
77.8802
79.6009
81.1142
82.4561
83.6657
84.7832
85.8448
86.8862
87.9385
89.0256
90.1658
91.3692
92.6376
93.9674
95.3516
96.7806
98.2417
99.7193
101.192
102.628
103.96
105.059
105.699
39.4559
46.0649
51.3358
56.7374
61.659
65.8211
69.245
72.0741
74.4453
76.466
78.2163
79.7491
81.1032
82.3158
83.4271
84.478
85.5041
86.5375
87.6056
88.7247
89.9037
91.1455
92.4472
93.801
95.1975
96.6239
98.0663
99.5036
100.903
102.2
103.272
103.894
38.541
44.9332
50.0014
55.2408
60.0884
64.2457
67.6996
70.5727
72.9921
75.0555
76.8383
78.3941
79.7632
80.987
82.1012
83.146
84.1613
85.1815
86.2304
87.3276
88.4841
89.7015
90.9761
92.301
93.667
95.0616
96.4699
97.8706
99.2361
100.501
101.544
102.147
37.5938
43.7679
48.6227
53.6883
58.459
62.6207
66.1182
69.0457
71.5197
73.6345
75.4601
77.0482
78.4433
79.6817
80.8033
81.8473
82.8559
83.8628
84.8979
85.9788
87.1143
88.3078
89.5567
90.8533
92.188
93.5486
94.9225
96.2893
97.6199
98.8504
99.8679
100.452
36.5895
42.5466
47.1768
52.0544
56.7414
60.9129
64.4694
67.4718
70.0204
72.1972
74.0708
75.6981
77.1208
78.3837
79.5218
80.5751
81.5823
82.5851
83.607
84.6699
85.7864
86.9585
88.1825
89.4519
90.7578
92.0884
93.4296
94.7607
96.0574
97.2572
98.2464
98.8126
35.5312
41.2638
45.6547
50.3229
54.9143
59.104
62.7419
65.8381
68.4698
70.7219
72.6608
74.3379
75.8054
77.0984
78.2569
79.3208
80.3356
81.3352
82.3505
83.4036
84.5033
85.6543
86.8548
88.0972
89.3722
90.6694
91.9759
93.2727
94.5357
95.7011
96.6648
97.2109
34.3501
39.8686
44.0115
48.452
52.932
57.137
60.8676
64.0856
66.8419
69.1951
71.21
72.9537
74.4675
75.8018
76.9924
78.0809
79.105
80.1113
81.122
82.1626
83.248
84.3807
85.558
86.7742
88.0208
89.2878
90.5626
91.824
93.0519
94.188
95.1244
95.6521
33.0588
38.3655
42.2375
46.4113
50.7458
54.9672
58.8324
62.2154
65.1084
67.5827
69.7062
71.5261
73.1114
74.4976
75.7279
76.841
77.8879
78.9004
79.9136
80.9525
82.0261
83.1411
84.2969
85.4871
86.7034
87.9363
89.1737
90.3993
91.5955
92.6961
93.6075
94.1137
31.5501
36.6577
40.247
44.1306
48.295
52.5125
56.4971
60.0727
63.1937
65.852
68.1036
70.0424
71.7066
73.1605
74.4419
75.5998
76.6687
77.7015
78.7196
79.7514
80.8158
81.9162
83.0511
84.2162
85.404
86.607
87.8147
89.0057
90.1642
91.2361
92.1205
92.608
29.8419
34.7606
38.0405
41.5587
45.4565
49.6357
53.8314
57.7074
61.0607
63.9341
66.389
68.4545
70.2368
71.7745
73.1273
74.3307
75.4443
76.4956
77.5275
78.5685
79.6274
80.714
81.8296
82.9692
84.1268
85.2941
86.4602
87.6113
88.7402
89.7751
90.6342
91.0971
27.6851
32.4397
35.3997
38.5335
42.1609
46.27
50.5424
54.6991
58.5249
61.7711
64.4609
66.7541
68.6747
70.3317
71.763
73.0381
74.1892
75.2803
76.3306
77.3709
78.4267
79.5031
80.6002
81.7155
82.8434
83.9805
85.1191
86.2365
87.3231
88.3291
89.1595
89.6038
25.0772
29.7472
32.4053
35.0349
38.0921
41.9277
46.5854
51.3117
55.4749
59.1469
62.2735
64.8022
66.955
68.7554
70.3152
71.6716
72.9025
74.0285
75.1071
76.1723
77.2312
78.2982
79.3778
80.4675
81.5641
82.6621
83.7518
84.8231
85.8801
86.8468
87.6524
88.0662
21.29
25.9647
28.2442
30.3164
32.9982
36.7329
40.9371
46.0579
51.5322
56.0253
59.6251
62.6696
65.0666
67.0883
68.7774
70.2494
71.5379
72.734
73.8512
74.9227
75.9859
77.0479
78.1117
79.1772
80.2412
81.3078
82.3716
83.4078
84.4193
85.353
86.1281
86.5229
16.1956
21.3794
23.9128
25.671
26.9521
27.6578
34.9149
40.9482
46.0197
51.6263
56.3568
59.8285
62.7803
65.105
67.0482
68.6682
70.1013
71.3566
72.5217
73.6427
74.7216
75.7798
76.8272
77.865
78.8947
79.9154
80.9196
81.8999
82.8746
83.7691
84.517
84.8722
5.67228
10.5734
11.327
11.4491
16.6725
20.7408
16.8597
25.6634
38.8991
45.9671
51.7259
56.797
60.2099
62.9687
65.137
66.9735
68.4991
69.8797
71.1195
72.2535
73.345
74.405
75.4394
76.4515
77.4432
78.4295
79.4069
80.3496
81.2788
82.1297
82.8456
83.1798
7.10832
9.91151
10.2021
11.3752
11.5358
15.985
12.2337
13.9337
19.5533
37.0525
46.3782
51.5242
56.5413
60.0589
62.8409
64.9495
66.753
68.2352
69.552
70.7818
71.9117
72.975
73.9924
74.9718
75.9209
76.8491
77.7513
78.6157
79.4924
80.3045
80.9851
81.2631
11.4715
15.9537
16.8918
16.265
16.629
19.0688
18.98
18.0281
15.424
16.0794
32.6745
46.6398
52.2862
56.8959
60.0322
62.6631
64.6513
66.3834
67.8535
69.099
70.2494
71.3247
72.3332
73.2825
74.1838
75.0708
75.9406
76.7745
77.5962
78.3524
79.0003
79.2567
20.1668
24.6207
26.5597
27.3888
26.847
25.2033
23.9199
20.8242
16.7805
18.9068
24.6424
30.5089
45.073
51.5497
56.6228
59.7067
62.2671
64.1806
65.778
67.225
68.4648
69.5557
70.5422
71.4464
72.2846
73.0901
73.854
74.5393
75.3059
76.0067
76.6071
76.7657
22.3763
27.3681
30.0943
32.1154
33.3312
33.5685
32.6014
30.411
25.8209
20.7212
22.1594
28.4423
34.1987
46.2947
51.1914
55.9931
59.0348
61.5438
63.493
64.9403
66.2009
67.3218
68.3085
69.171
69.9435
70.6906
71.4174
72.1389
72.7632
73.4236
73.9729
74.1259
23.1531
28.2486
31.1929
33.5611
35.3051
36.3935
36.7599
36.1987
34.1394
29.3253
26.8067
23.9649
4.44561
31.7835
46.531
50.9646
55.2995
58.1122
60.29
62.2085
63.6925
64.8558
65.7997
66.5885
67.2412
67.8582
68.393
68.7244
69.399
69.9118
70.4221
70.3577
22.504
27.7386
30.8423
33.442
35.4919
36.9772
37.892
38.2178
37.8417
36.267
32.3187
27.1755
16.46
19.3927
28.7177
43.4061
49.1824
53.7651
56.8248
58.6327
60.0829
61.3153
62.2871
62.9917
63.5524
64.0536
64.5862
65.2794
65.3828
66.0058
66.346
66.3661
20.9693
26.338
29.5305
32.2601
34.4972
36.2383
37.5018
38.3207
38.7256
38.6635
37.6331
34.5346
27.284
21.4579
21.4918
32.8106
42.6909
47.371
50.9288
53.9803
56.0621
57.394
58.2287
58.7995
59.0344
59.3142
59.3386
58.7952
59.515
59.6101
60.0547
59.4766
18.932
24.3924
27.607
30.382
32.7094
34.6048
36.095
37.233
38.0913
38.7229
39.0488
38.5115
35.0294
25.3656
33.2956
34.534
31.1477
39.4764
45.1922
47.5246
49.0053
50.5223
51.5594
51.758
52.1249
51.7878
52.2568
53.8183
51.701
52.818
52.2989
52.405
16.6563
22.0921
25.2265
27.9432
30.2634
32.2271
33.8787
35.2734
36.4922
37.6116
38.6346
39.3422
38.8999
34.8909
30.2427
34.0511
28.771
25.3888
33.0977
38.1762
42.2669
44.0352
44.2485
44.5247
43.1321
43.0395
41.2548
39.7218
38.7665
38.737
39.1993
37.8554
14.3823
19.6545
22.6061
25.1632
27.3807
29.3216
31.0465
32.6194
34.1141
35.6068
37.1211
38.5383
39.4483
38.8307
33.9195
32.4692
23.6901
34.3504
36.5042
26.1724
20.2755
25.6821
26.7963
22.9134
27.2738
15.8977
19.866
23.9719
18.806
15.9834
35.1694
10.4931
12.3958
17.3847
20.0797
22.4066
24.4528
26.2991
28.0168
29.6734
31.335
33.0638
34.9002
36.7869
38.4903
39.4819
38.6716
34.9161
28.7197
27.158
29.9763
31.0444
19.9842
9.95042
31.8093
16.3571
33.3542
7.96781
19.7064
33.0985
34.7669
24.9748
9.94069
27.6392
10.8697
15.5086
17.9332
20.0145
21.8679
23.5863
25.2439
26.9024
28.6156
30.4309
32.3922
34.5023
36.6581
38.5626
39.6803
39.474
37.4907
30.2756
29.4205
32.7726
15.2589
24.2065
30.6886
25.6197
37.423
30.5083
32.5076
31.1689
33.576
31.9762
31.6855
30.9764
9.75209
14.1473
16.3446
18.2217
19.915
21.5196
23.1023
24.7106
26.3819
28.1522
30.0626
32.1514
34.4167
36.735
38.7806
40.1227
40.2745
38.4514
33.5521
30.9202
28.9036
27.6491
27.8846
31.8536
31.9866
37.2827
37.6302
32.6238
41.5816
40.1858
41.9833
38.6589
9.16401
13.3716
15.4111
17.1577
18.7553
20.2888
21.8081
23.342
24.9131
26.5495
28.2907
30.1883
32.2904
34.5955
36.9681
39.0797
40.4108
40.5244
38.5401
37.6973
38.5256
36.9303
38.3812
39.8456
39.2917
42.6972
42.9697
39.7887
44.8318
43.9659
44.9448
42.3121
9.00187
13.1247
15.0962
16.797
18.3683
19.8786
21.358
22.8192
24.2747
25.7479
27.276
28.9096
30.7095
32.7298
34.9705
37.2882
39.2945
40.5051
40.3978
40.4763
41.1404
40.6198
41.6863
42.2725
41.6058
43.2419
43.563
41.7741
44.5661
44.0849
44.6269
42.8948
9.19126
13.3072
15.2834
17.0067
18.6058
20.1307
21.5949
23.0012
24.3579
25.6858
27.0177
28.3968
29.8768
31.5213
33.3871
35.4692
37.5952
39.4035
40.4164
41.1106
41.8113
41.7409
42.3741
42.6433
41.9838
42.637
42.8539
41.8348
43.3335
42.8843
43.3473
42.3721
9.63584
13.7957