/*--------------------------------*- C++ -*----------------------------------*\
  =========                 |
  \\      /  F ield         | OpenFOAM: The Open Source CFD Toolbox
   \\    /   O peration     | Website:  https://openfoam.org
    \\  /    A nd           | Version:  6
     \\/     M anipulation  |
\*---------------------------------------------------------------------------*/
FoamFile
{
    version     2.0;
    format      ascii;
    class       volScalarField;
    location    "18";
    object      yPlus;
}
// * * * * * * * * * * * * * * * * * * * * * * * * * * * * * * * * * * * * * //

dimensions      [0 0 0 0 0 0 0];

internalField   uniform 0;

boundaryField
{
    inlet
    {
        type            calculated;
        value           uniform 0;
    }
    outlet
    {
        type            calculated;
        value           uniform 0;
    }
    roughCylinder
    {
        type            calculated;
        value           nonuniform List<scalar> 
5120
(
76.6454
60.318
52.4505
55.5849
61.583
66.6636
70.8819
74.4178
77.4242
80.0498
82.424
84.6097
86.6523
88.5939
90.4573
92.2868
94.1114
95.9886
97.9328
99.9568
102.069
104.27
106.552
108.905
111.311
113.745
116.171
118.535
120.763
122.748
124.302
125.171
93.885
61.4847
51.8809
54.0997
59.9107
64.9497
69.1472
72.6655
75.6612
78.2955
80.6618
82.8186
84.8251
86.7107
88.5202
90.2822
92.0576
93.8583
95.726
97.6793
99.721
101.847
104.053
106.326
108.649
111
113.342
115.626
117.778
119.694
121.195
122.033
76.6821
59.2577
50.855
52.6704
58.2665
63.2304
67.384
70.9017
73.9229
76.5581
78.92
81.0633
83.0266
84.8722
86.6232
88.3351
90.0268
91.7706
93.5784
95.4594
97.423
99.4706
101.595
103.787
106.03
108.298
110.559
112.762
114.839
116.688
118.136
118.942
93.2119
61.2016
50.3723
51.1173
56.4995
61.4429
65.6163
69.1538
72.1774
74.8399
77.2077
79.3292
81.2702
83.0657
84.7735
86.4175
88.0766
89.7488
91.4794
93.2933
95.1927
97.1715
99.2245
101.341
103.504
105.692
107.871
109.996
111.999
113.782
115.178
115.954
89.0266
59.1174
49.263
49.6676
54.8007
59.6857
63.8233
67.3698
70.4572
73.1369
75.5055
77.6317
79.5439
81.3172
82.9743
84.5885
86.1609
87.7839
89.4688
91.2185
93.0429
94.9474
96.924
98.9632
101.05
103.161
105.264
107.313
109.245
110.965
112.31
113.056
74.4951
58.2661
48.3988
48.0044
52.9021
57.7817
61.9888
65.6098
68.701
71.4199
73.8189
75.9323
77.8482
79.5851
81.2206
82.7667
84.332
85.895
87.5034
89.1918
90.9632
92.808
94.7218
96.6941
98.7073
100.742
102.769
104.746
106.607
108.266
109.562
110.279
87.4506
60.0162
48.2963
46.5864
51.1026
55.9553
60.1358
63.7464
66.9431
69.705
72.1101
74.2558
76.1556
77.9021
79.498
81.0478
82.5242
84.0462
85.6285
87.2646
88.9649
90.7395
92.5812
94.4795
96.4233
98.3878
100.344
102.249
104.044
105.644
106.893
107.581
72.384
58.527
47.7393
44.9602
48.9978
53.8225
58.1269
61.9107
65.1132
67.9223
70.3978
72.5432
74.4777
76.1992
77.8098
79.2903
80.7948
82.2765
83.7819
85.3623
87.0229
88.7496
90.5381
92.3795
94.2554
96.1491
98.0342
99.8721
101.603
103.144
104.347
105.007
79.9285
58.1844
47.101
43.4171
46.9791
51.8262
56.1386
59.8522
63.2199
66.1266
68.6158
70.8351
72.7667
74.534
76.1112
77.6452
79.0612
80.5096
82.0158
83.5606
85.1537
86.8131
88.5329
90.3028
92.1148
93.9441
95.763
97.5334
99.202
100.689
101.848
102.479
74.7502
59.1383
46.7479
41.6086
44.458
49.218
53.7159
57.8122
61.2093
64.1727
66.8012
69.0374
71.0504
72.8015
74.4379
75.8898
77.3755
78.8126
80.2408
81.7344
83.3047
84.9313
86.6102
88.3342
90.0836
91.8458
93.5973
95.3049
96.912
98.3434
99.4586
100.063
73.508
57.5002
46.5428
40.1009
42.0039
46.8301
51.4494
55.3392
59.0091
62.1844
64.8403
67.2194
69.2449
71.0974
72.699
74.2703
75.6602
77.0647
78.5274
80.008
81.5129
83.0722
84.6827
86.3348
88.0248
89.7274
91.4171
93.059
94.6069
95.9866
97.0595
97.6343
78.783
56.9663
45.3602
38.2265
38.7462
43.2337
48.095
52.8569
56.6245
59.8751
62.8016
65.2236
67.4085
69.2516
70.9838
72.4459
73.9593
75.3928
76.7697
78.1981
79.7003
81.2458
82.8309
84.4504
86.0826
87.7208
89.345
90.9275
92.4158
93.7417
94.7713
95.3195
76.0812
57.0355
44.8583
36.0098
35.3808
39.9726
45.271
49.4644
53.775
57.494
60.4754
63.173
65.3917
67.4301
69.1148
70.7984
72.2046
73.5984
75.056
76.5035
77.9401
79.4144
80.9278
82.4713
84.0479
85.6308
87.1972
88.7141
90.1445
91.4202
92.4091
92.9275
64.9598
54.3048
44.5198
34.639
30.37
33.9119
39.5316
46.0555
50.5922
54.4439
57.9933
60.7813
63.3096
65.3422
67.2795
68.8017
70.4091
71.8948
73.2515
74.6393
76.1004
77.5879
79.0968
80.6272
82.1515
83.6717
85.1723
86.6338
88.0059
89.2279
90.1735
90.6654
47.1111
47.074
41.3908
31.9107
25.7828
28.3474
35.4704
40.0861
46.2299
51.2388
54.9079
58.2779
60.8771
63.2864
65.1407
67.055
68.5332
69.9588
71.4638
72.9205
74.3124
75.7179
77.147
78.5885
80.06
81.5291
82.9752
84.3684
85.683
86.8562
87.7608
88.2213
24.6371
35.8223
35.0848
28.9513
12.6117
8.17673
19.7705
34.6817
40.9423
46.4195
51.5079
55.0783
58.3331
60.7315
63.0714
64.7204
66.525
68.1449
69.5191
70.8954
72.351
73.8105
75.2653
76.7261
78.1508
79.5564
80.9346
82.2763
83.5319
84.6497
85.5106
85.9453
5.05853
19.1536
19.6797
13.8263
7.16721
15.8074
7.83364
10.3711
31.9938
41.0135
46.5815
51.6496
55.0515
58.2409
60.4153
62.7772
64.4047
65.917
67.5485
69.0752
70.4508
71.8046
73.161
74.5044
75.8772
77.2365
78.5627
79.8285
81.0246
82.0932
82.9123
83.3106
7.28422
10.165
12.9165
13.7966
3.98513
15.9473
16.8074
5.90651
5.40322
30.6232
40.932
46.5115
51.6026
54.7496
57.9239
59.7983
61.9888
63.8795
65.3183
66.718
68.2194
69.6945
71.1284
72.5432
73.8762
75.167
76.4191
77.6387
78.7737
79.7833
80.5555
80.9296
3.81358
9.94332
12.5345
14.1605
15.7058
17.1621
17.9689
18.352
18.2313
22.0993
28.6371
40.8817
46.2884
51.4175
54.2194
57.5154
59.4113
61.0921
62.9888
64.686
66.0822
67.4014
68.69
69.9367
71.2148
72.4651
73.6669
74.7939
75.8632
76.8214
77.549
77.8772
3.28087
11.1353
8.93818
11.1993
18.2164
11.1702
11.2888
11.0631
10.0082
6.0591
18.2301
28.3668
40.7279
45.7094
50.9427
53.2
56.2142
58.6511
60.2188
61.689
63.3243
64.8892
66.3602
67.7659
69.0156
70.1858
71.3004
72.3917
73.3961
74.2881
74.964
75.2716
6.67815
15.9691
19.4974
20.2108
16.9279
21.7377
21.3848
21.759
22.3966
20.8631
20.9264
10.4839
28.3293
40.4537
44.6835
50.3642
52.7324
54.7365
57.2081
59.2777
60.7499
62.0534
63.2767
64.4085
65.5939
66.7329
67.7996
68.7629
69.6885
70.5241
71.1492
71.391
8.01685
18.4066
23.28
26.7733
28.6811
27.6439
17.7016
25.6486
18.5393
25.267
12.889
13.3146
2.81141
27.0174
39.7972
42.5935
47.8648
51.5671
53.3621
54.9828
56.9489
58.7621
60.3621
61.8733
63.0546
64.0919
65.0447
65.9987
66.8556
67.6136
68.1804
68.4123
7.89139
18.287
24.0167
28.211
30.797
31.9043
31.7803
25.2747
24.7011
20.8493
18.829
24.2722
20.6379
22.9983
22.8344
39.0902
42.164
44.9528
48.9198
51.9176
53.5658
54.8692
56.0898
56.9774
58.0724
59.0964
60.0108
60.7578
61.5073
62.2011
62.7048
62.8245
7.46968
17.1375
23.1949
27.9133
31.3725
33.4074
33.6189
32.8166
27.3271
10.1128
23.0772
19.644
23.9132
10.7985
15.5375
12.6997
33.0033
40.3669
42.6245
44.4643
47.3949
49.971
51.8356
53.8509
55.0175
55.9026
56.6443
57.4607
58.1462
58.746
59.1812
59.3288
6.71418
15.5929
21.5707
26.268
29.8451
32.4342
34.0627
34.1143
33.0671
29.0332
21.6714
28.6402
4.8378
17.6696
13.7898
12.6039
5.83431
23.0717
33.831
40.3007
42.2703
43.3438
44.8856
45.1582
46.1689
47.0915
47.8314
48.2046
48.7146
49.2243
49.5866
49.4651
5.9925
14.3603
20.007
24.4922
28.0033
30.6693
32.4619
33.4718
33.2721
32.2127
29.2821
15.1093
29.218
22.9976
18.9829
16.2448
15.4446
7.25805
14.3463
19.0251
28.5904
35.2407
37.8321
41.2252
42.5299
43.2706
43.616
44.4738
44.9264
45.379
45.5356
45.7154
5.24372
13.2401
18.2713
22.2692
25.463
28.0347
30.02
31.2681
31.8521
31.7297
30.8454
31.8856
23.4308
25.1954
14.0538
15.021
4.31703
23.8423
17.5721
5.20058
25.9353
28.1336
10.2744
12.1288
16.2086
15.83
18.2897
14.876
14.5894
14.8539
17.088
12.9608
4.62824
12.2661
16.0887
19.1851
21.8449
24.1838
26.1401
27.6403
28.6038
29.252
30.1786
29.5997
31.3533
26.7217
17.2634
20.266
22.7335
13.1633
25.3391
19.0945
5.58049
17.7657
26.9181
4.76853
28.1838
20.7342
28.7029
8.44843
22.2522
8.75873
31.1023
8.01918
4.26999
12.4221
13.6713
15.3168
17.0521
18.8928
20.7422
22.4427
23.9867
25.4935
26.8594
29.1604
29.8576
31.4005
30.2829
17.5188
4.58537
12.2362
5.07421
15.0674
26.4206
8.00558
21.333
27.2206
18.679
10.2917
4.94879
28.9611
11.8508
30.7568
21.4058
30.4484
3.99365
11.2908
12.1489
12.5932
13.1554
14.0165
15.3252
17.0801
19.0861
21.2322
23.6475
25.5482
28.2427
30.0253
31.1829
32.8232
26.3083
4.20802
17.9434
12.6825
18.5519
18.2659
13.035
28.1678
24.2535
4.16319
19.195
5.19272
31.6006
20.0076
31.9011
7.33636
3.77603
11.3406
11.621
11.8483
11.9982
12.2132
13.0515
14.6593
16.6358
18.7145
20.7655
23.3141
25.3971
27.8354
30.3234
31.1787
32.3957
31.1067
20.2573
20.616
24.1232
8.24809
16.0209
29.2138
12.6561
23.9587
9.29885
29.015
21.4472
10.0025
33.0543
31.0854
3.56618
11.3843
11.6152
11.7475
11.8506
12.1281
13.3122
15.1506
16.9963
18.6499
20.2837
21.7231
23.6724
25.6189
27.5736
30.2721
31.7289
32.2827
32.6702
29.0989
21.5153
12.0156
19.2217
8.12092
31.7437
30.6608
9.67561
30.3163
29.3293
23.7999
21.0108
23.8204
2.46111
9.1764
11.3719
11.4892
11.4958
11.9893
13.8138
15.9992
17.924
19.5313
20.8504
22.1703
23.2374
24.4977
26.1236
27.6599
29.8503
31.8313
32.5016
32.4491
32.3504
30.4034
26.4223
23.7902
21.2322
19.2873
18.36
19.197
18.2629
17.4735
18.0548
19.046
2.22897
8.46636
10.78
11.6901
11.6298
13.1795
15.544
17.6837
19.4144
20.8251
22.0417
22.9998
23.9327
24.7123
25.4187
26.603
27.9565
29.5943
31.4677
32.604
32.3529
32.0036
31.3954
31.0304
30.7487
30.4866
30.1856
29.651
29.3386
29.3408
29.4659
29.4873
2.87271
9.71042
11.528
11.7725
12.8627
15.246
17.5463
19.4588
21.0399
22.365
23.4624
24.4213
25.1318
25.6928
26.18
26.4922
27.1038
28.1818
29.457
30.7473
31.7338
31.9319
31.4137
30.5244
29.3546
28.141
26.9016
26.1609
25.5551
25.3695
25.5579
25.8464
3.7132
11.2558
11.5577
13.0929
15.4594
17.7586
19.739
21.4178
22.8446
24.0619
25.1121
25.9605
26.6555
27.135
27.3764
27.5526
27.6309
27.7999
28.4085
29.3303
30.1075
30.5179
30.4074
29.9516
29.1912
28.218
27.1181
26.1757
25.6562
25.5955
25.807
26.0267
3.85048
11.5099
13.5148
15.805
18.0033
19.9805
21.7317
23.2722
24.6278
25.8188
26.8474
27.7222
28.3811
28.8236
29.0651
29.047
28.898
28.7346
28.6203
28.7351
29.1012
29.4412
29.3717
28.8185
27.7751
26.3936
24.8661
23.688
23.0455
23.047
23.4479
23.8838
4.29233
12.4228
15.618
18.1224
20.2084
22.0272
23.6534
25.1166
26.4347
27.6148
28.6596
29.5343
30.2259
30.6937
30.9053
30.9052
30.6822
30.2813
29.8453
29.4745
29.2044
29.0042
28.7246
28.1983
27.3282
26.1616
24.8708
23.7896
23.2889
23.4457
23.9366
24.3925
5.54549
14.6394
17.8377
20.1704
22.0878
23.8083
25.3921
26.8489
28.1877
29.4068
30.4926
31.4225
32.1508
32.6542
32.9261
32.9319
32.6974
32.2635
31.66
30.969
30.2941
29.6717
29.0238
28.2352
27.1894
25.8903
24.4811
23.3485
22.8462
23.0742
23.6914
24.2625
6.72438
16.1766
19.4487
21.7973
23.7306
25.4657
27.0634
28.547
29.929
31.2005
32.3434
33.3213
34.1078
34.6736
34.993
35.0674
34.8851
34.4451
33.7902
32.9716
32.0429
31.0648
30.0631
29.0053
27.8303
26.5303
25.2249
24.1982
23.81
24.1296
24.7947
25.374
8.08331
9.42808
10.7429
11.4006
11.5868
11.4579
11.585
11.8031
11.462
11.7653
11.3838
11.3757
11.5066
11.2877
10.4264
9.95303
9.52503
9.22601
9.02864
8.93292
8.9332
9.02943
9.22744
9.52689
9.95613
10.4287
11.2935
11.4971
11.5759
11.3741
11.9698
11.8597
11.5356
11.3786
11.7888
11.5854
11.4441
10.7257
9.40432
8.06227
17.4672
18.2592
18.9081
19.2602
19.5388
19.68
19.793
19.8092
19.7883
19.7395
19.6544
19.5491
19.4311
19.2969
19.1461
19.0473
18.9538
18.8889
18.8438
18.8221
18.8222
18.844
18.8892
18.954
19.0479
19.1463
19.2978
19.4315
19.5548
19.6525
19.7394
19.8047
19.7994
19.7785
19.6832
19.5347
19.2569
18.898
18.2469
17.4517
20.6817
21.2884
21.792
22.0659
22.2985
22.3974
22.4721
22.4658
22.4474
22.3892
22.3277
22.2473
22.1689
22.0868
22.0126
21.9513
21.8985
21.86
21.8329
21.8192
21.8193
21.833
21.8601
21.8986
21.9515
22.0127
22.0871
22.1692
22.2475
22.3277
22.3891
22.4485
22.465
22.4703
22.3962
22.2959
22.0624
21.7855
21.2805
20.6689
22.9512
23.4707
23.9247
24.1921
24.4249
24.5447
24.6463
24.6832
24.7103
24.7055
24.7006
24.682
24.6649
24.6442
24.6248
24.6089
24.5951
24.5857
24.5786
24.5744
24.5745
24.5786
24.5857
24.595
24.6087
24.6246
24.6439
24.6647
24.6816
24.7003
24.7051
24.7101
24.6828
24.6456
24.5437
24.4231
24.1897
23.9202
23.4655
22.9414
24.849
25.3369
25.7822
26.0651
26.3211
26.481
26.6275
26.723
26.8124
26.8743
26.9348
26.9827
27.0287
27.0687
27.1045
27.1371
27.164
27.186
27.2003
27.2068
27.2066
27.2002
27.1858
27.1636
27.1365
27.1038
27.068
27.028
26.9819
26.9341
26.8735
26.8118
26.7223
26.6268
26.4801
26.3199
26.0634
25.7792
25.3331
24.8418
26.5808
27.0479
27.5034
27.8068
28.1019
28.3122
28.5196
28.6786
28.8362
28.967
29.0963
29.2117
29.3225
29.4239
29.5163
29.5984
29.6675
29.7217
29.7581
29.7752
29.7751
29.7578
29.7211
29.6666
29.5975
29.5151
29.4225
29.3211
29.2102
29.0948
28.9655
28.835
28.6774
28.5185
28.3111
28.1009
27.8054
27.5014
27.045
26.5759
28.1994
28.6512
29.1352
29.4659
29.8141
30.0752
30.3446
30.5649
30.7881
30.9842
31.1788
31.3576
31.5298
31.6883
31.8336
31.9619
32.0696
32.1535
32.21
32.2365
32.2364
32.2094
32.1526
32.0682
31.9601
31.8316
31.6861
31.5274
31.3552
31.1764
30.9819
30.786
30.5629
30.3429
30.0734
29.8127
29.4644
29.1335
28.649
28.1962
29.7241
30.1691
30.6934
31.0543
31.4532
31.7611
32.0864
32.362
32.6436
32.8977
33.1502
33.3853
33.6113
33.8201
34.0112
34.1794
34.3204
34.4295
34.5027
34.5368
34.5366
34.5019
34.4282
34.3184
34.1769
34.0084
33.8169
33.6079
33.3818
33.1468
32.8942
32.6404
32.359
32.0838
31.7585
31.4511
31.0522
30.6916
30.1669
29.7218
31.1591
31.6005
32.1672
32.5527
32.9967
33.3445
33.7176
34.0403
34.3712
34.6748
34.976
35.2584
35.5292
35.7798
36.0085
36.2092
36.3769
36.5063
36.5925
36.6324
36.6321
36.5915
36.5045
36.3745
36.206
36.0048
35.7756
35.5248
35.2538
34.9714
34.6702
34.3668
34.0362
33.7138
33.3409
32.9937
32.5497
32.1647
31.5979
31.1567
32.4871
32.9261
33.5287
33.9347
34.4156
34.7965
35.2085
35.5702
35.9413
36.2851
36.6258
36.9463
37.253
37.5364
37.7947
38.0204
38.2087
38.3533
38.4494
38.4936
38.4931
38.4481
38.3511
38.2057
38.0166
37.7902
37.5314
37.2476
36.9407
36.62
36.2794
35.9358
35.5649
35.2035
34.7919
34.4114
33.9308
33.5254
32.9227
32.4842
33.6812
34.1157
34.749
35.1714
35.6819
36.0901
36.5332
36.9268
37.3298
37.7061
38.0776
38.4279
38.7621
39.0705
39.3506
39.5948
39.7979
39.9533
40.0563
40.1033
40.1029
40.0548
39.9508
39.7943
39.5904
39.3454
39.0647
38.7559
38.4214
38.071
37.6993
37.3232
36.9203
36.5272
36.0843
35.6767
35.1665
34.7445
34.1115
33.6772
34.712
35.1389
35.8011
36.2364
36.7727
37.2037
37.6728
38.0926
38.5217
38.9237
39.3197
39.6929
40.0477
40.3746
40.6702
40.9274
41.1404
41.303
41.4104
41.4592
41.4587
41.4087
41.3001
41.1364
40.9225
40.6645
40.368
40.0406
39.6855
39.3119
38.9159
38.514
38.0849
37.6656
37.1966
36.7662
36.2303
35.7954
35.1334
34.7068
35.5467
35.9721
36.6612
37.1113
37.6712
38.1239
38.6165
39.0594
39.511
39.9348
40.3507
40.7422
41.113
41.4537
41.7607
42.0268
42.2465
42.4138
42.5239
42.5737
42.5731
42.5221
42.4107
42.2422
42.0214
41.7543
41.4465
41.1053
40.734
40.3421
39.9261
39.5023
39.0507
38.6081
38.1157
37.6636
37.1037
36.6544
35.9653
35.5402
36.1637
36.5969
37.3149
37.7845
38.3692
38.8451
39.361
39.8266
40.2995
40.7432
41.1767
41.584
41.968
42.3198
42.6355
42.9083
43.1326
43.303
43.4149
43.4654
43.4647
43.413
43.2997
43.128
42.9025
42.6287
42.3121
41.9596
41.575
41.1672
40.7335
40.2898
39.817
39.3515
38.8358
38.3602
37.7757
37.3066
36.5886
36.1557
36.553
36.998
37.7553
38.2488
38.8637
39.3657
39.9075
40.397
40.8915
41.3549
41.8054
42.2275
42.6237
42.985
43.308
43.5862
43.8143
43.987
44.1003
44.1513
44.1507
44.0982
43.9835
43.8094
43.5801
43.3008
42.9767
42.6145
42.2178
41.7952
41.3443
40.8808
40.3862
39.8968
39.3552
38.8535
38.2387
37.7456
36.9883
36.5432
36.6917
37.1721
37.9729
38.5013
39.1511
39.6845
40.2552
40.771
41.2889
41.7728
42.2408
42.6775
43.0854
43.456
43.7859
44.0689
44.3004
44.4753
44.5898
44.6414
44.6407
44.5876
44.4716
44.2952
44.0625
43.7782
43.4472
43.0757
42.6671
42.2298
41.7614
41.2772
40.7592
40.2434
39.6727
39.1396
38.4899
37.9616
37.1607
36.6801
36.5738
37.107
37.9591
38.5341
39.2235
39.7948
40.3976
40.9432
41.4862
41.9923
42.4785
42.9305
43.3504
43.7303
44.0672
44.3551
44.5899
44.767
44.8829
44.9352
44.9345
44.8806
44.763
44.5844
44.3483
44.059
43.721
43.3401
42.9193
42.4668
41.98
41.4736
40.9304
40.3847
39.7819
39.2106
38.5212
37.9464
37.094
36.5604
36.1981
36.7823
37.7013
38.3302
39.0671
39.6811
40.3202
40.8987
41.4691
41.9992
42.505
42.9732
43.4058
43.7957
44.1399
44.4333
44.6718
44.8513
44.9689
45.0222
45.0213
44.9664
44.8473
44.6661
44.4261
44.1313
43.7859
43.3949
42.9613
42.4924
41.9861
41.4556
40.8849
40.3063
39.667
39.053
38.3162
37.6872
36.7677
36.1833
35.564
36.1917
37.1747
37.8698
38.6589
39.3212
40.0002
40.6146
41.215
41.771
42.2981
42.7839
43.2305
43.6315
43.9841
44.2836
44.5266
44.7092
44.8289
44.8833
44.8824
44.8262
44.7049
44.5205
44.276
43.975
43.6211
43.219
42.7714
42.2848
41.757
41.2005
40.5999
39.9853
39.3063
38.6439
37.8546
37.1592
36.1762
35.5484
34.6921
35.3402
36.3634
37.1246
37.9727
38.6882
39.4099
40.0632
40.6956
41.2798
41.8301
42.3354
42.7978
43.2113
43.5736
43.8807
44.1292
44.3158
44.438
44.4941
44.4931
44.4353
44.3112
44.1228
43.8726
43.5641
43.2004
42.7856
42.3222
41.816
41.2651
40.6805
40.0477
39.3943
38.6724
37.957
37.1088
36.3478
35.3245
34.6772
33.6361
34.2493
35.2786
36.085
36.9845
37.7583
38.5235
39.2175
39.8833
40.4974
41.0726
41.5992
42.0791
42.5071
42.8809
43.197
43.4523
43.644
43.7697
43.8276
43.8266
43.7667
43.6391
43.4456
43.1885
42.8708
42.4955
42.0663
41.5854
41.0578
40.4821
39.8674
39.2015
38.5073
37.7421
36.9684
36.0694
35.2633
34.2348
33.6227
32.4563
32.9654
33.9544
34.7687
35.6974
36.519
37.3275
38.0603
38.7587
39.4026
40.0032
40.5522
41.051
41.4948
41.8817
42.2083
42.4717
42.6694
42.7993
42.8596
42.8586
42.7962
42.6643
42.4646
42.1993
41.8711
41.4827
41.0376
40.5379
39.9879
39.3868
38.7425
38.0438
37.3111
36.503
35.6818
34.7538
33.9405
32.9529
32.4457
31.1982
31.547
32.445
33.2213
34.1463
34.9914
35.8325
36.5967
37.3229
37.9929
38.6169
39.1872
39.7046
40.1646
40.5651
40.9029
41.1754
41.38
41.5144
41.5775
41.5764
41.5113
41.3746
41.1681
40.8937
40.5541
40.1521
39.6907
39.1723
38.6012
37.9767
37.3065
36.5804
35.8165
34.976
34.1319
33.2079
32.4335
31.5372
31.1902
29.8752
30.0452
30.8137
31.5099
32.3935
33.2283
34.0794
34.8651
35.6098
36.2989
36.941
37.5287
38.062
38.5364
38.9496
39.2982
39.5794
39.7907
39.93
39.9958
39.9946
39.9265
39.7851
39.5717
39.2885
38.9381
38.5234
38.0476
37.5133
36.925
36.2826
35.5934
34.8492
34.0641
33.2141
32.3806
31.4987
30.8048
30.0384
29.8716
28.4778
28.4983
29.1292
29.7249
30.5403
31.3367
32.1722
32.9586
33.708
34.405
35.0561
35.6542
36.198
36.6827
37.1055
37.4624
37.7508
37.9676
38.1109
38.179
38.1778
38.1073
37.9618
37.7426
37.4522
37.0935
36.6693
36.1832
35.6385
35.0398
34.3884
33.6918
32.9431
32.1578
31.3237
30.529
29.7156
29.1224
28.494
28.4769
27.0216
26.9606
27.4764
27.9816
28.7211
29.4638
30.2641
31.0316
31.7732
32.4661
33.1169
33.7168
34.264
34.7529
35.1802
35.5416
35.8339
36.0541
36.1999
36.2696
36.2684
36.1961
36.048
35.8254
35.5309
35.1675
34.7388
34.2485
33.7005
33.1
32.4494
31.7569
31.0161
30.25
29.4511
28.7104
27.973
27.4703
26.9571
27.0209
25.6191
25.5622
26.0012
26.4547
27.1309
27.8256
28.5849
29.3235
30.0441
30.7225
31.363
31.9559
32.4984
32.9844
33.4097
33.7703
34.0622
34.2824
34.4284
34.4984
34.4969
34.4242
34.2757
34.0531
33.7589
33.3964
32.9694
32.4821
31.9387
31.3453
30.7049
30.0271
29.3074
28.5703
27.8125
27.1196
26.4453
25.9935
25.5565
25.6133
24.5551
24.5562
24.9616
25.4021
26.0359
26.6952
27.4137
28.1166
28.8046
29.4585
30.0785
30.6549
31.1833
31.6577
32.0735
32.4262
32.712
32.9277
33.0708
33.1394
33.1379
33.0663
32.9204
32.7019
32.4136
32.0588
31.6411
31.1653
30.6356
30.0588
29.4385
28.7851
28.0981
27.3963
26.6793
26.0215
25.3893
24.9511
24.5458
24.5497
24.1686
24.225
24.6195
25.0554
25.6532
26.2756
26.9456
27.6025
28.2502
28.8701
29.4599
30.0094
30.514
30.9674
31.365
31.7026
31.9762
32.1828
32.3196
32.3851
32.3835
32.3148
32.1749
31.9654
31.6891
31.3492
30.9493
30.4943
29.9886
29.4383
28.8484
28.2287
27.5819
26.9266
26.2585
25.6382
25.0424
24.6093
24.2157
24.1645
24.5191
24.5871
24.9727
25.3849
25.9429
26.5165
27.1317
27.7375
28.3401
28.9192
29.4715
29.987
30.4608
30.8869
31.2608
31.5784
31.8359
32.0301
32.1587
32.2199
32.2182
32.1537
32.0219
31.8246
31.5643
31.2443
30.8681
30.4403
29.9652
29.449
28.8966
28.3177
27.7161
27.1117
26.4992
25.9279
25.3733
24.9627
24.5811
24.5125
25.2269
25.2856
25.6653
26.0483
26.5724
27.1016
27.6736
28.2383
28.8027
29.3455
29.8638
30.3478
30.793
31.1936
31.5453
31.8439
32.0861
32.2687
32.3894
32.4464
32.4447
32.3842
32.2603
32.0746
31.8295
31.5283
31.1744
30.7719
30.3254
29.8406
29.322
28.7796
28.2162
27.6531
27.0836
26.558
26.0376
25.6589
25.283
25.2289
25.8523
25.8855
26.2668
26.6238
27.1293
27.6292
28.1782
28.7182
29.2603
29.7809
30.2789
30.7439
31.1718
31.557
31.8952
32.1825
32.4154
32.5909
32.7068
32.7614
32.7596
32.7016
32.5824
32.4037
32.1679
31.878
31.5377
31.1507
30.7214
30.2557
29.7574
29.2372
28.6962
28.1577
27.6112
27.1143
26.6132
26.2606
25.8842
25.8547
77.1722
61.2611
52.9024
55.6132
61.5833
66.6633
70.8802
74.4158
77.4225
80.0489
82.424
84.6101
86.6518
88.5936
90.4569
92.2864
94.1109
95.9884
97.9327
99.9568
102.069
104.27
106.552
108.905
111.311
113.746
116.171
118.536
120.765
122.75
124.305
125.174
93.6066
61.4888
51.9049
54.1086
59.9133
64.9529
69.1513
72.6694
75.6643
78.2972
80.6618
82.8175
84.8248
86.7102
88.5197
90.2818
92.0573
93.8579
95.7256
97.679
99.721
101.847
104.053
106.326
108.65
111.001
113.343
115.627
117.779
119.696
121.198
122.035
95.2187
62.1274
51.5029
52.7048
58.2703
63.2322
67.3826
70.8989
73.9201
76.5561
78.9194
81.0642
83.0263
84.872
86.6229
88.3348
90.0264
91.7704
93.5784
95.4596
97.4225
99.4706
101.596
103.788
106.031
108.299
110.56
112.764
114.841
116.69
118.139
118.945
76.1081
58.8358
50.0066
51.1189
56.5011
61.4446
65.6206
69.1594
72.1824
74.8435
77.2092
79.328
81.2699
83.0653
84.7732
86.4171
88.0763
89.7485
91.4789
93.2929
95.1929
97.172
99.225
101.342
103.505
105.693
107.873
109.998
112.001
113.785
115.181
115.957
91.8841
60.9664
49.6882
49.6736
54.8042
59.6885
63.8217
67.3654
70.4525
73.133
75.5034
77.6329
79.544
81.3171
82.9741
84.5881
86.1606
87.7838
89.4689
91.2189
93.0429
94.9474
96.9245
98.9641
101.051
103.163
105.265
107.315
109.247
110.967
112.313
113.059
83.5537
58.43
48.6292
48.0634
52.9046
57.7832
61.9941
65.6177
68.7084
71.4261
73.8231
75.9313
77.8478
79.5848
81.2204
82.7667
84.3317
85.8948
87.5029
89.1913
90.9636
92.8086
94.7227
96.6946
98.7082
100.744
102.771
104.748
106.61
108.268
109.565
110.282
96.8219
59.8567
47.9302
46.5828
51.1107
55.9581
60.1325
63.7386
66.9358
69.6985
72.1047
74.2569
76.1562
77.9023
79.4978
81.0474
82.5241
84.0463
85.629
87.2655
88.9649
90.7396
92.5807
94.4808
96.4246
98.3895
100.345
102.251
104.047
105.647
106.897
107.585
89.2617
59.7544
47.4124
44.868
48.9874
53.8217
58.1343
61.9236
65.1244
67.9319
70.4065
72.5431
74.4772
76.1989
77.8099
79.2908
80.7948
82.2762
83.7814
85.3616
87.0235
88.7506
90.5403
92.3804
94.2568
96.1513
98.0372
99.8745
101.605
103.147
104.351
105.011
74.3683
58.7133
47.2289
43.4406
46.9828
51.8276
56.1308
59.8372
63.2081
66.1169
68.6052
70.8355
72.768
74.5349
76.1114
77.6448
79.0613
80.5102
82.0169
83.5621
85.154
86.8135
88.5322
90.3046
92.1166
93.9458
95.7647
97.5363
99.2052
100.692
101.852
102.484
67.1661
56.9785
46.4126
41.6302
44.4646
49.2173
53.7292
57.8367
61.2283
64.1875
66.818
69.0397
71.0501
72.8012
74.4382
75.8906
77.3759
78.8122
80.2399
81.7335
83.3056
84.9326
86.6135
88.3352
90.0854
91.8488
93.6015
95.3078
96.9157
98.347
99.463
100.067
78.143
57.2664
46.1683
40.0435
42.0108
46.8421
51.4423
55.3134
58.9899
62.1708
64.8212
67.2179
69.2471
71.0992
72.7
74.2705
75.6605
77.066
78.5296
80.0105
81.5136
83.0732
84.6822
86.3373
88.0271
89.7295
91.4188
93.0628
94.6106
95.991
97.0639
97.6395
66.8456
55.6383
45.297
38.2507
38.7555
43.2335
48.1144
52.9026
56.6585
59.8981
62.8327
65.231
67.409
69.2515
70.9841
72.4468
73.9602
75.3924
76.7685
78.1967
79.7016
81.2472
82.8342
84.452
86.0852
87.7243
89.3506
90.9309
92.4204
93.7462
94.7766
95.3248
76.4401
57.8675
45.5966
36.3478
35.4261
39.9772
45.264
49.4166
53.7419
57.475
60.4402
63.1667
65.3942
67.4334
69.1172
70.8001
72.2054
73.6007
75.0594
76.5078
77.9416
79.4167
80.9292
82.4744
84.051
85.6338
87.1989
88.7192
90.1495
91.426
92.4148
92.934
65.7502
55.1468
45.2441
35.0849
30.5852
34.0579
39.6013
46.1486
50.6537
54.4798
58.0517
60.7988
63.313
65.3425
67.2796
68.8015
70.4105
71.8947
73.2504
74.637
76.1023
77.5892
79.0994
80.6298
82.1551
83.6766
85.18
86.6381
88.0114
89.2333
90.1801
90.6723
47.8417
47.6905
41.9142
32.2555
25.8137
27.9979
35.3834
40.0236
46.1941
51.2165
54.8382
58.2626
60.8787
63.2913
65.1456
67.0606
68.5353
69.962
71.4677
72.9274
74.3147
75.7218
77.1509
78.5929
80.0644
81.5331
82.9772
84.3755
85.6896
86.8638
87.7679
88.2297
25.343
36.3578
35.5572
29.467
13.2817
11.949
20.2543
34.5647
40.9127
46.4441
51.629
55.1121
58.3404
60.7325
63.0707
64.7165
66.5264
68.1455
69.5201
70.8916
72.3537
73.8122
75.268
76.7294
78.1555
79.5632
80.9458
82.2816
83.5388
84.6566
85.5191
85.9538
5.5146
19.613
20.0832
11.3023
7.58968
15.8813
6.21449
15.6792
32.6208
41.1903
46.4209
51.6222
55.0573
58.2494
60.4239
62.7909
64.4094
65.9216
67.5508
69.0861
70.4543
71.8101
73.1669
74.5113
75.8837
77.2417
78.5643
79.8384
81.0333
82.1034
82.9214
83.3217
6.4075
7.03242
6.33065
7.23432
4.99281
15.9862
16.6971
17.4313
21.8832
29.5856
41.2045
46.5775
51.5988
54.7478
57.9225
59.786
61.9888
63.8805
65.3249
66.7116
68.2235
69.6978
71.1311
72.5466
73.8823
75.1767
76.436
77.6452
78.7827
79.7917
80.5666
80.9406
11.4251
2.86081
11.8564
14.0142
16.0345
17.0871
6.2391
3.56305
6.32944
10.3489
28.5236
40.7442
46.3441
51.4443
54.2338
57.5442
59.4219
61.0995
62.9866
64.7035
66.0872
67.4082
68.7038
69.9481
71.2245
72.4721
73.6669
74.8081
75.8752
76.8355
77.5609
77.8925
9.28184
10.9602
6.24366
1.30629
13.4271
19.3961
19.864
20.1921
19.9019
10.3878
9.37066
29.3484
40.6643
45.671
50.9412
53.1729
56.2111
58.6513
60.2332
61.6773
63.3307
64.8958
66.3519
67.7687
69.0232
70.1998
71.3278
72.3995
73.4077
74.2985
74.979
75.2856
6.76598
16.0113
19.8055
20.5764
16.7343
16.9308
18.2049
15.8679
23.0525
21.059
20.2503
22.9201
28.0032
40.6123
44.7082
50.4162
52.7474
54.7506
57.2083
59.309
60.7576
62.062
63.3147
64.4279
65.6091
66.7426
67.7944
68.7847
69.7056
70.5446
71.1654
71.4134
8.00153
18.3876
23.2133
26.7262
28.6438
27.0034
17.1936
26.04
19.6511
6.47742
14.9823
10.1428
18.8981
26.4414
39.7976
42.553
47.8747
51.5639
53.3512
54.9539
56.9586
58.7736
60.3473
61.8741
63.065
64.1128
65.0935
66.0071
66.8709
67.6264
68.2013
68.4305
7.85278
18.2812
24.0278
28.2163
30.7964
31.9296
31.7559
25.17
19.4995
26.9015
24.8695
5.36354
21.6551
8.74875
23.1555
39.1248
42.2035
44.9873
49.0451
51.9921
53.579
54.8844
56.0836
57.0104
58.0962
59.1108
59.9894
60.7952
61.5338
62.2341
62.7276
62.8594
7.47772
17.1581
23.214
27.9317
31.3866
33.4136
33.618
32.7895
26.7953
22.7919
2.87384
25.7623
4.12418
21.3038
3.19538
13.7399
32.416
40.2725
42.2667
44.3562
47.4107
49.9803
52.0441
53.8533
55.0354
55.9386
56.745
57.4648
58.167
58.7574
59.2138
59.3551
6.70382
15.5908
21.5719
26.2697
29.8469
32.4341
34.0576
34.1053
33.0671
28.4737
4.71936
18.1403
22.3963
24.6163
21.8517
22.2555
16.9405
24.1665
34.3903
40.5506
42.2972
43.4122
44.3575
45.2262
46.209
47.1036
47.7554
48.2958
48.7642
49.3091
49.623
49.529
5.9873
14.3695
20.0195
24.5045
28.0134
30.6761
32.4646
33.4679
33.2758
32.1383
31.3683
14.4904
29.4301
16.1718
9.13517
23.5526
3.28735
24.8467
24.0002
18.4259
28.6324
35.1103
38.9581
41.0466
42.615
43.3965
43.8853
44.4118
44.9017
45.3149
45.5985
45.7615
5.23831
13.2418
18.2711
22.2704
25.4652
28.0365
30.0198
31.2645
31.8363
31.724
30.5414
31.9429
22.874
30.1079
17.4072
21.5589
24.892
14.5865
24.8648
7.78314
25.9944
28.0532
6.78586
16.1098
14.551
15.8757
17.6956
15.4055
16.9229
15.4342
17.226
13.4373
4.6313
12.2822
16.0865
19.1798
21.8403
24.1791
26.1345
27.6321
28.5918
29.2388
30.1133
29.4711
31.4159
27.7167
11.3541
15.8558
17.7273
25.4966
4.72766
25.2508
6.3269
17.6321
15.5281
27.7719
20.3409
8.09164
29.4696
21.6116
30.7155
22.3328
31.2688
8.18361
4.3573
11.9471
13.6638
15.2986
17.0328
18.8751
20.7257
22.4259
23.9671
25.4655
26.8792
29.1819
29.7908
31.3664
30.8132
17.2531
2.2729
14.8381
16.3924
20.578
26.284
8.82069
20.6287
18.2914
10.3021
28.0424
19.6957
8.38745
21.9231
7.03165
21.6672
31.9855
4.01562
11.5283
12.1363
12.5648
13.1223
13.9828
15.2944
17.0522
19.06
21.2064
23.6021
25.4995
28.2375
29.9621
31.1555
32.8379
25.5711
21.5962
28.3095
7.61965
13.6298
24.0546
10.5147
24.2205
6.61248
28.9656
24.6292
25.32
9.00644
20.2336
32.1067
27.312
3.69725
11.728
11.6139
11.8376
11.9846
12.1973
13.0364
14.6456
16.6218
18.6998
20.7503
23.3004
25.3584
27.8261
30.2451
31.1666
32.4267
29.9924
20.5137
15.6644
14.2251
5.21619
30.1635
18.0497
25.0137
31.5648
4.8562
32.5697
25.5784
15.8369
32.0334
22.2501
3.5547
11.3608
11.6379
11.7403
11.8515
12.1212
13.3086
15.1497
16.9958
18.6475
20.2802
21.7119
23.6689
25.5979
27.5735
30.2306
31.7512
32.3477
32.7497
29.063
22.3166
8.06064
27.2595
7.30149
18.0206
25.2769
10.5677
4.41846
32.2074
26.4339
4.43711
16.6173
2.45003
9.14956
11.3513
11.6903
11.6401
12.0031
13.8204
16.005
17.9279
19.534
20.852
22.1738
23.2318
24.4922
26.1122
27.6608
29.819
31.855
32.4917
32.551
32.121
31.2063
26.8328
23.6591
19.5925
17.933
18.3879
18.9316
18.8681
17.7894
19.4675
19.1429
2.23129
8.47101
10.7788
11.3978
11.8727
13.1861
15.5575
17.6951
19.4229
20.8317
22.0471
23.0038
23.9412
24.7191
25.4186
26.5945
27.9574
29.5822
31.461
32.6029
32.4169
31.7979
31.3204
31.0422
30.8193
30.4998
30.2054
29.7866
29.3607
29.2988
29.4674
29.5303
2.88173
9.73536
11.5775
11.5045
12.8787
15.2751
17.566
19.4718
21.049
22.3725
23.4698
24.4295
25.1379
25.6996
26.1904
26.5019
27.1067
28.1837
29.4571
30.7454
31.7416
31.9765
31.441
30.5007
29.3341
28.1414
26.9833