/*--------------------------------*- C++ -*----------------------------------*\
  =========                 |
  \\      /  F ield         | OpenFOAM: The Open Source CFD Toolbox
   \\    /   O peration     | Website:  https://openfoam.org
    \\  /    A nd           | Version:  6
     \\/     M anipulation  |
\*---------------------------------------------------------------------------*/
FoamFile
{
    version     2.0;
    format      ascii;
    class       volScalarField;
    location    "80";
    object      k;
}
// * * * * * * * * * * * * * * * * * * * * * * * * * * * * * * * * * * * * * //

dimensions      [0 2 -2 0 0 0 0];

internalField   nonuniform List<scalar> 
720
(
3.42245e-05
3.42246e-05
3.42255e-05
2.1793e-05
2.17932e-05
2.1794e-05
3.69533e-05
3.69539e-05
3.69553e-05
5.47597e-05
5.47611e-05
5.47628e-05
7.54218e-05
7.5425e-05
7.54259e-05
0.000100061
0.000100067
0.000100067
0.000130146
0.000130155
0.000130153
0.000167688
0.000167701
0.000167697
0.000215746
0.000215765
0.000215756
0.00027862
0.000278647
0.000278632
0.000104383
0.000104383
0.000104384
0.000370181
0.000370183
0.000370192
0.000504988
0.000504993
0.000505003
0.000615312
0.000615319
0.000615328
0.000706041
0.000706054
0.000706057
0.000783355
0.00078337
0.000783369
0.000850517
0.000850535
0.00085053
0.000909367
0.000909385
0.000909378
0.00096117
0.000961187
0.000961178
0.00100651
0.00100652
0.00100651
0.000143857
0.000143857
0.000143859
0.000512083
0.000512086
0.000512094
0.000619546
0.000619551
0.00061956
0.000716534
0.000716543
0.00071655
0.000796929
0.00079694
0.000796943
0.000866052
0.000866067
0.000866066
0.000926904
0.000926922
0.000926916
0.000981266
0.000981284
0.000981276
0.00103048
0.00103049
0.00103048
0.00107531
0.00107533
0.00107532
0.000183077
0.000183077
0.000183079
0.000568691
0.000568695
0.000568704
0.000648313
0.00064832
0.000648329
0.000740936
0.000740945
0.000740953
0.000819357
0.000819371
0.000819373
0.000887144
0.000887161
0.000887159
0.000946955
0.000946975
0.000946968
0.00100047
0.00100049
0.00100048
0.00104901
0.00104903
0.00104901
0.00109333
0.00109335
0.00109333
0.000223274
0.000223274
0.000223277
0.000619454
0.000619459
0.00061947
0.00066208
0.000662089
0.000662099
0.000747816
0.000747828
0.000747835
0.000823986
0.000824001
0.000824002
0.000890691
0.00089071
0.000890707
0.00094985
0.000949871
0.000949863
0.00100292
0.00100294
0.00100292
0.00105111
0.00105113
0.00105112
0.00109517
0.00109519
0.00109517
0.000265296
0.000265296
0.000265299
0.000673875
0.000673881
0.000673894
0.000674817
0.000674828
0.00067484
0.000749526
0.000749541
0.000749548
0.000822095
0.000822113
0.000822114
0.000887272
0.000887293
0.000887289
0.000945649
0.000945672
0.000945662
0.000998257
0.000998279
0.000998266
0.00104616
0.00104618
0.00104617
0.00109002
0.00109004
0.00109002
0.000309661
0.000309661
0.000309665
0.000730913
0.000730921
0.000730935
0.00069158
0.000691594
0.000691607
0.000750523
0.000750541
0.000750548
0.000817382
0.000817402
0.000817402
0.000880147
0.000880169
0.000880165
0.000937355
0.000937378
0.000937367
0.000989331
0.000989354
0.000989339
0.00103687
0.0010369
0.00103688
0.00108051
0.00108054
0.00108052
0.000356464
0.000356465
0.000356469
0.000786805
0.000786815
0.000786831
0.000714398
0.000714415
0.000714429
0.000753282
0.000753304
0.000753311
0.000811682
0.000811704
0.000811705
0.000870714
0.000870737
0.000870732
0.000926113
0.000926137
0.000926125
0.000977139
0.000977163
0.000977146
0.00102416
0.00102419
0.00102417
0.0010675
0.00106752
0.0010675
0.000405274
0.000405274
0.000405279
0.000837352
0.000837364
0.000837382
0.000743444
0.000743465
0.000743481
0.000759512
0.000759537
0.000759545
0.000806316
0.00080634
0.00080634
0.000859825
0.000859849
0.000859843
0.000912481
0.000912506
0.000912492
0.000962068
0.000962091
0.000962073
0.00100832
0.00100834
0.00100832
0.00105122
0.00105124
0.00105122
0.00045512
0.000455121
0.000455126
0.00087884
0.000878855
0.000878875
0.000777403
0.00077743
0.000777447
0.000770297
0.000770326
0.000770336
0.000802433
0.000802459
0.000802459
0.0008482
0.000848224
0.000848218
0.000896832
0.000896856
0.000896841
0.000944273
0.000944296
0.000944276
0.00098937
0.000989392
0.000989368
0.00103163
0.00103166
0.00103163
0.000504648
0.000504649
0.000504656
0.000908547
0.000908564
0.000908586
0.000813754
0.000813787
0.000813806
0.000785951
0.000785986
0.000785997
0.000801036
0.000801064
0.000801065
0.000836563
0.000836587
0.00083658
0.000879513
0.000879536
0.000879519
0.000923833
0.000923854
0.000923833
0.000967234
0.000967254
0.000967227
0.00100856
0.00100858
0.00100855
0.000552423
0.000552425
0.000552432
0.000925056
0.000925076
0.000925099
0.000849114
0.000849152
0.000849172
0.00080582
0.00080586
0.000805872
0.000802828
0.000802858
0.000802859
0.000825654
0.000825677
0.000825669
0.000860923
0.000860943
0.000860924
0.000900829
0.000900848
0.000900824
0.000941778
0.000941795
0.000941766
0.000981742
0.000981759
0.000981728
0.000597294
0.000597296
0.000597304
0.000928457
0.000928482
0.000928505
0.000879679
0.000879723
0.000879745
0.000828171
0.000828217
0.000828231
0.000807973
0.000808006
0.000808008
0.000816138
0.000816159
0.00081615
0.00084153
0.000841546
0.000841526
0.000875397
0.000875412
0.000875386
0.000912874
0.000912886
0.000912855
0.000950882
0.000950893
0.00095086
0.000638681
0.000638683
0.000638692
0.000920411
0.000920439
0.000920462
0.000901786
0.000901836
0.000901859
0.000850259
0.000850311
0.000850327
0.000815839
0.000815873
0.000815877
0.000808429
0.000808448
0.000808438
0.000821834
0.000821846
0.000821824
0.000847761
0.000847769
0.000847743
0.000880442
0.000880448
0.000880416
0.00091568
0.000915685
0.000915651
0.000676648
0.000676651
0.00067666
0.000904013
0.000904045
0.000904069
0.000912554
0.00091261
0.000912635
0.000868597
0.000868654
0.000868673
0.000824807
0.000824843
0.000824849
0.000802434
0.00080245
0.000802439
0.000802258
0.000802264
0.000802241
0.000818233
0.000818235
0.000818206
0.000844496
0.000844495
0.000844461
0.000875883
0.000875881
0.000875845
0.000711752
0.000711755
0.000711765
0.000883383
0.000883419
0.000883441
0.000910518
0.000910579
0.000910605
0.000879456
0.000879517
0.000879538
0.000832263
0.000832302
0.000832309
0.000797296
0.00079731
0.000797298
0.000782958
0.000782957
0.000782932
0.000787172
0.000787167
0.000787135
0.000805183
0.000805174
0.000805137
0.000831343
0.000831334
0.000831294
0.000744727
0.00074473
0.00074474
0.000862928
0.000862966
0.000862988
0.00089607
0.000896133
0.000896161
0.000879545
0.000879609
0.000879633
0.000834832
0.000834872
0.000834882
0.000791224
0.000791236
0.000791224
0.00076358
0.000763573
0.000763545
0.000754879
0.000754868
0.000754832
0.000762808
0.000762794
0.000762752
0.000782099
0.000782085
0.000782041
0.000776159
0.000776163
0.000776172
0.000846449
0.000846488
0.000846509
0.000871532
0.000871596
0.000871626
0.000866776
0.000866841
0.000866869
0.000828899
0.000828939
0.000828951
0.000781533
0.000781543
0.000781532
0.000743056
0.000743046
0.000743015
0.000721436
0.00072142
0.00072138
0.000717834
0.000717815
0.00071777
0.000728481
0.000728462
0.000728415
0.000806276
0.000806279
0.000806289
0.000836411
0.000836448
0.000836469
0.000840762
0.000840825
0.000840856
0.000840908
0.000840972
0.000841003
0.00081139
0.000811429
0.000811444
0.00076501
0.000765018
0.000765008
0.00071957
0.000719557
0.000719524
0.000686558
0.000686538
0.000686493
0.00067085
0.000670827
0.000670778
0.000671222
0.0006712
0.000671149
0.000834874
0.000834876
0.000834887
0.000833636
0.000833672
0.000833692
0.000808355
0.000808416
0.000808449
0.000803898
0.000803959
0.000803993
0.00078072
0.000780755
0.000780776
0.000738689
0.000738697
0.000738689
0.000690873
0.000690858
0.000690825
0.000649591
0.000649569
0.000649522
0.000622551
0.000622527
0.000622475
0.000611602
0.000611578
0.000611525
0.000861321
0.000861323
0.000861333
0.000837404
0.000837437
0.000837459
0.000778691
0.000778749
0.000778783
0.000759863
0.000759921
0.000759958
0.000737767
0.0007378
0.000737824
0.000701076
0.000701083
0.000701078
0.000655172
0.000655158
0.000655126
0.000609925
0.000609904
0.000609857
0.000573897
0.000573875
0.000573823
0.00055165
0.000551628
0.000551574
0.000884545
0.000884547
0.000884557
0.000845694
0.000845724
0.000845747
0.000755089
0.000755145
0.00075518
0.00071473
0.000714785
0.000714825
0.000686839
0.000686869
0.000686898
0.000653869
0.000653876
0.000653876
0.000612795
0.000612784
0.000612756
0.000568119
0.0005681
0.000568057
0.000526701
0.000526682
0.000526633
0.000494578
0.00049456
0.00049451
0.000902928
0.00090293
0.000902941
0.000855413
0.00085544
0.000855465
0.000739283
0.000739337
0.000739373
0.000675795
0.000675849
0.000675892
0.000636744
0.000636774
0.000636808
0.000604317
0.000604323
0.000604331
0.000568827
0.000568819
0.000568797
0.000528021
0.000528007
0.000527969
0.000484997
0.000484983
0.00048494
0.000445719
0.000445706
0.000445663
0.000914046
0.000914047
0.000914058
0.000862605
0.00086263
0.000862656
0.000731471
0.000731524
0.000731562
0.000651473
0.000651527
0.000651571
0.000601941
0.000601971
0.00060201
0.000567888
0.000567895
0.000567909
0.000536284
0.000536279
0.000536264
0.000499577
0.000499567
0.000499535
0.000457173
0.000457163
0.000457126
0.00041416
0.000414151
0.000414115
)
;

boundaryField
{
    freeSurface
    {
        type            slip;
    }
    inlet
    {
        type            cyclic;
    }
    outlet
    {
        type            cyclic;
    }
    sidewalls
    {
        type            kqRWallFunction;
        value           nonuniform List<scalar> 
72
(
3.42245e-05
0.000104383
0.000143857
0.000183077
0.000223274
0.000265296
0.000309661
0.000356464
0.000405274
0.00045512
0.000504648
0.000552423
0.000597294
0.000638681
0.000676648
0.000711752
0.000744727
0.000776159
0.000806276
0.000834874
0.000861321
0.000884545
0.000902928
0.000914046
3.42246e-05
0.000104383
0.000143857
0.000183077
0.000223274
0.000265296
0.000309661
0.000356465
0.000405274
0.000455121
0.000504649
0.000552425
0.000597296
0.000638683
0.000676651
0.000711755
0.00074473
0.000776163
0.000806279
0.000834876
0.000861323
0.000884547
0.00090293
0.000914047
3.42255e-05
0.000104384
0.000143859
0.000183079
0.000223277
0.000265299
0.000309665
0.000356469
0.000405279
0.000455126
0.000504656
0.000552432
0.000597304
0.000638692
0.00067666
0.000711765
0.00074474
0.000776172
0.000806289
0.000834887
0.000861333
0.000884557
0.000902941
0.000914058
)
;
    }
    noSlipWalls
    {
        type            kqRWallFunction;
        value           nonuniform List<scalar> 
30
(
3.42245e-05
2.1793e-05
3.69533e-05
5.47597e-05
7.54218e-05
0.000100061
0.000130146
0.000167688
0.000215746
0.00027862
3.42246e-05
2.17932e-05
3.69539e-05
5.47611e-05
7.5425e-05
0.000100067
0.000130155
0.000167701
0.000215765
0.000278647
3.42255e-05
2.1794e-05
3.69553e-05
5.47628e-05
7.54259e-05
0.000100067
0.000130153
0.000167697
0.000215756
0.000278632
)
;
    }
    procBoundary0to1
    {
        type            processor;
        value           nonuniform List<scalar> 
72
(
0.000362091
0.000362121
0.000362102
0.00104558
0.00104559
0.00104559
0.00111621
0.00111622
0.00111621
0.00113388
0.00113389
0.00113388
0.00113552
0.00113554
0.00113552
0.00113023
0.00113024
0.00113023
0.00112058
0.00112059
0.00112058
0.00110738
0.0011074
0.00110738
0.00109085
0.00109087
0.00109084
0.00107089
0.00107091
0.00107088
0.00104728
0.0010473
0.00104727
0.00101968
0.0010197
0.00101967
0.000987702
0.000987713
0.000987681
0.000950898
0.000950903
0.00095087
0.000908828
0.000908828
0.000908792
0.000861105
0.000861099
0.000861061
0.00080748
0.000807469
0.000807427
0.000747982
0.000747966
0.000747922
0.000683112
0.000683092
0.000683046
0.000614117
0.000614097
0.000614048
0.00054339
0.000543371
0.000543321
0.000475072
0.000475056
0.000475009
0.000416108
0.000416096
0.000416055
0.000377928
0.000377921
0.000377887
)
;
    }
}


// ************************************************************************* //
