/*--------------------------------*- C++ -*----------------------------------*\
  =========                 |
  \\      /  F ield         | OpenFOAM: The Open Source CFD Toolbox
   \\    /   O peration     | Website:  https://openfoam.org
    \\  /    A nd           | Version:  6
     \\/     M anipulation  |
\*---------------------------------------------------------------------------*/
FoamFile
{
    version     2.0;
    format      ascii;
    class       volScalarField;
    location    "80";
    object      nut;
}
// * * * * * * * * * * * * * * * * * * * * * * * * * * * * * * * * * * * * * //

dimensions      [0 2 -1 0 0 0 0];

internalField   nonuniform List<scalar> 
720
(
8.06794e-08
8.06795e-08
8.06816e-08
2.58236e-08
2.58238e-08
2.58248e-08
4.37878e-08
4.37885e-08
4.37902e-08
6.48875e-08
6.48892e-08
6.48912e-08
8.93711e-08
8.93749e-08
8.93759e-08
1.18567e-07
1.18574e-07
1.18574e-07
1.54216e-07
1.54227e-07
1.54225e-07
1.98702e-07
1.98718e-07
1.98712e-07
2.55649e-07
2.55671e-07
2.55661e-07
3.30151e-07
3.30183e-07
3.30166e-07
1.33096e-05
1.33096e-05
1.33097e-05
1.63226e-06
1.63226e-06
1.6323e-06
2.11334e-06
2.11336e-06
2.1134e-06
2.50366e-06
2.50369e-06
2.50372e-06
2.8166e-06
2.81665e-06
2.81666e-06
3.07822e-06
3.07828e-06
3.07828e-06
3.30245e-06
3.30252e-06
3.3025e-06
3.49731e-06
3.49738e-06
3.49735e-06
3.66844e-06
3.6685e-06
3.66847e-06
3.81905e-06
3.8191e-06
3.81907e-06
1.56249e-05
1.56249e-05
1.5625e-05
5.08141e-06
5.08143e-06
5.0815e-06
5.66739e-06
5.66743e-06
5.6675e-06
6.28682e-06
6.28689e-06
6.28694e-06
6.79217e-06
6.79227e-06
6.79229e-06
7.21791e-06
7.21804e-06
7.21803e-06
7.58652e-06
7.58667e-06
7.58663e-06
7.9119e-06
7.91204e-06
7.91198e-06
8.20441e-06
8.20455e-06
8.20448e-06
8.47084e-06
8.47098e-06
8.4709e-06
1.76266e-05
1.76266e-05
1.76267e-05
9.96986e-06
9.96992e-06
9.97005e-06
1.03e-05
1.03001e-05
1.03003e-05
1.11524e-05
1.11526e-05
1.11526e-05
1.18912e-05
1.18914e-05
1.18915e-05
1.25238e-05
1.25241e-05
1.25241e-05
1.30749e-05
1.30753e-05
1.30752e-05
1.35627e-05
1.3563e-05
1.35629e-05
1.40014e-05
1.40017e-05
1.40016e-05
1.4401e-05
1.44013e-05
1.44011e-05
1.94658e-05
1.94658e-05
1.94659e-05
1.65794e-05
1.65795e-05
1.65798e-05
1.61363e-05
1.61365e-05
1.61367e-05
1.71067e-05
1.71069e-05
1.71071e-05
1.80648e-05
1.80651e-05
1.80652e-05
1.89175e-05
1.8918e-05
1.89179e-05
1.96732e-05
1.96738e-05
1.96737e-05
2.03481e-05
2.03487e-05
2.03485e-05
2.09579e-05
2.09584e-05
2.09582e-05
2.15142e-05
2.15147e-05
2.15145e-05
2.12186e-05
2.12186e-05
2.12188e-05
2.4957e-05
2.49572e-05
2.49575e-05
2.33821e-05
2.33824e-05
2.33827e-05
2.42635e-05
2.4264e-05
2.42642e-05
2.53795e-05
2.53802e-05
2.53802e-05
2.64438e-05
2.64447e-05
2.64446e-05
2.74168e-05
2.74179e-05
2.74176e-05
2.83004e-05
2.83014e-05
2.83011e-05
2.91063e-05
2.91073e-05
2.91068e-05
2.98454e-05
2.98463e-05
2.98458e-05
2.29243e-05
2.29243e-05
2.29244e-05
3.49012e-05
3.49015e-05
3.4902e-05
3.22848e-05
3.22854e-05
3.22859e-05
3.28167e-05
3.28176e-05
3.28179e-05
3.3971e-05
3.39722e-05
3.39722e-05
3.52068e-05
3.52082e-05
3.5208e-05
3.6394e-05
3.63956e-05
3.63952e-05
3.75014e-05
3.75029e-05
3.75024e-05
3.8527e-05
3.85285e-05
3.85278e-05
3.94761e-05
3.94775e-05
3.94768e-05
2.45958e-05
2.45958e-05
2.45959e-05
4.59752e-05
4.59757e-05
4.59764e-05
4.30462e-05
4.30472e-05
4.3048e-05
4.30137e-05
4.3015e-05
4.30155e-05
4.40293e-05
4.40311e-05
4.40311e-05
4.53535e-05
4.53557e-05
4.53554e-05
4.67274e-05
4.67298e-05
4.67291e-05
4.80612e-05
4.80635e-05
4.80627e-05
4.93257e-05
4.9328e-05
4.9327e-05
5.05115e-05
5.05136e-05
5.05126e-05
2.62257e-05
2.62257e-05
2.62258e-05
5.7567e-05
5.75678e-05
5.75688e-05
5.57273e-05
5.57291e-05
5.57302e-05
5.51194e-05
5.51216e-05
5.51223e-05
5.57899e-05
5.57924e-05
5.57925e-05
5.70702e-05
5.70733e-05
5.70729e-05
5.85682e-05
5.85715e-05
5.85706e-05
6.01109e-05
6.0114e-05
6.01129e-05
6.16238e-05
6.16269e-05
6.16255e-05
6.30691e-05
6.3072e-05
6.30706e-05
2.77917e-05
2.77917e-05
2.77919e-05
6.89661e-05
6.89673e-05
6.89686e-05
7.01703e-05
7.01733e-05
7.01748e-05
6.93586e-05
6.93622e-05
6.93633e-05
6.95195e-05
6.95232e-05
6.95233e-05
7.05801e-05
7.05841e-05
7.05836e-05
7.20956e-05
7.20999e-05
7.20987e-05
7.37985e-05
7.38026e-05
7.38011e-05
7.55525e-05
7.55565e-05
7.55546e-05
7.72717e-05
7.72755e-05
7.72735e-05
2.92649e-05
2.92649e-05
2.92651e-05
7.94507e-05
7.94524e-05
7.9454e-05
8.59609e-05
8.59657e-05
8.59677e-05
8.58335e-05
8.58393e-05
8.58408e-05
8.54847e-05
8.54898e-05
8.54901e-05
8.61383e-05
8.61435e-05
8.61427e-05
8.75173e-05
8.75227e-05
8.7521e-05
8.929e-05
8.92949e-05
8.92929e-05
9.12511e-05
9.12558e-05
9.12533e-05
9.32427e-05
9.32473e-05
9.32446e-05
3.06188e-05
3.06188e-05
3.0619e-05
8.83859e-05
8.83884e-05
8.83904e-05
0.000102444
0.000102452
0.000102454
0.000104432
0.000104441
0.000104443
0.000103894
0.000103901
0.000103901
0.000104015
0.000104021
0.00010402
0.000105069
0.000105075
0.000105073
0.00010677
0.000106775
0.000106773
0.000108866
0.00010887
0.000108867
0.000111103
0.000111107
0.000111104
3.1838e-05
3.18381e-05
3.18383e-05
9.5326e-05
9.53294e-05
9.53318e-05
0.000118787
0.000118798
0.000118801
0.000124754
0.000124767
0.00012477
0.00012481
0.00012482
0.000124821
0.000124456
0.000124463
0.000124462
0.000125007
0.000125013
0.00012501
0.000126443
0.000126448
0.000126445
0.000128549
0.000128553
0.000128549
0.000130966
0.00013097
0.000130965
3.29226e-05
3.29227e-05
3.29229e-05
0.000100094
0.000100099
0.000100101
0.000134075
0.00013409
0.000134093
0.000146082
0.000146102
0.000146105
0.000148049
0.000148063
0.000148064
0.000147616
0.000147623
0.000147622
0.000147583
0.000147588
0.000147584
0.000148534
0.000148537
0.000148532
0.000150466
0.000150467
0.000150461
0.000152941
0.000152943
0.000152936
3.3887e-05
3.38871e-05
3.38873e-05
0.00010281
0.000102815
0.000102818
0.000147422
0.000147441
0.000147445
0.000167417
0.000167443
0.000167447
0.000173081
0.000173101
0.000173102
0.000173452
0.00017346
0.000173458
0.000172995
0.000172996
0.00017299
0.000173272
0.000173271
0.000173263
0.000174785
0.000174782
0.000174773
0.000177129
0.000177126
0.000177116
3.47549e-05
3.4755e-05
3.47552e-05
0.000103845
0.000103852
0.000103854
0.000158091
0.000158114
0.000158119
0.000187564
0.000187598
0.000187603
0.000198982
0.000199008
0.00019901
0.000201601
0.000201608
0.000201605
0.00020129
0.000201285
0.000201277
0.000200856
0.000200847
0.000200836
0.000201682
0.00020167
0.000201656
0.000203619
0.000203606
0.000203591
3.55509e-05
3.5551e-05
3.55512e-05
0.000103716
0.000103723
0.000103726
0.000165601
0.000165629
0.000165634
0.000205266
0.000205308
0.000205314
0.000224448
0.00022448
0.000224483
0.000231252
0.000231258
0.000231254
0.00023223
0.000232216
0.000232204
0.000231374
0.000231352
0.000231336
0.000231297
0.000231268
0.000231249
0.000232473
0.000232444
0.000232423
3.62934e-05
3.62935e-05
3.62937e-05
0.000102949
0.000102957
0.00010296
0.000169813
0.000169844
0.00016985
0.000219353
0.000219402
0.000219409
0.000247885
0.000247924
0.000247928
0.000261078
0.000261082
0.000261076
0.00026511
0.000265083
0.000265065
0.000264653
0.00026461
0.000264587
0.000263652
0.000263599
0.000263573
0.000263677
0.000263622
0.000263592
3.69908e-05
3.69909e-05
3.69911e-05
0.00010198
0.000101988
0.000101991
0.000170966
0.000170999
0.000171005
0.000228908
0.000228964
0.000228972
0.000267566
0.00026761
0.000267615
0.000289238
0.000289241
0.000289232
0.000298585
0.000298541
0.000298517
0.000300019
0.000299948
0.000299918
0.000298476
0.000298388
0.000298354
0.000297016
0.000296922
0.000296884
3.76411e-05
3.76412e-05
3.76414e-05
0.000101106
0.000101114
0.000101117
0.000169656
0.000169689
0.000169697
0.000233452
0.000233512
0.000233522
0.000281847
0.000281895
0.000281902
0.000313504
0.000313506
0.000313493
0.000330563
0.000330501
0.000330471
0.000336014
0.000335909
0.000335872
0.000334893
0.000334763
0.00033472
0.000331829
0.000331688
0.00033164
3.82327e-05
3.82327e-05
3.82329e-05
0.000100488
0.000100495
0.000100498
0.000166742
0.000166776
0.000166784
0.000233134
0.000233199
0.000233211
0.000289492
0.000289544
0.000289554
0.000331542
0.000331544
0.000331529
0.000358287
0.000358209
0.000358173
0.000370159
0.000370022
0.000369976
0.000371018
0.000370847
0.000370797
0.000366619
0.00036643
0.000366372
3.87447e-05
3.87447e-05
3.87449e-05
0.000100166
0.000100172
0.000100176
0.000163204
0.000163239
0.000163248
0.000228947
0.000229017
0.000229031
0.000290209
0.000290269
0.000290282
0.00034153
0.000341535
0.000341521
0.000378797
0.000378713
0.000378672
0.000399051
0.000398894
0.000398842
0.00040368
0.000403483
0.000403426
0.00039863
0.00039841
0.000398346
3.91452e-05
3.91453e-05
3.91455e-05
0.000100086
0.000100092
0.000100095
0.000160004
0.000160039
0.000160049
0.000222911
0.000222986
0.000223002
0.000285541
0.000285612
0.000285629
0.00034341
0.000343421
0.000343412
0.000390162
0.000390086
0.000390043
0.000419236
0.00041908
0.000419024
0.000428756
0.00042856
0.000428501
0.000423872
0.000423655
0.00042359
3.93855e-05
3.93855e-05
3.93857e-05
0.000100124
0.000100129
0.000100133
0.000158009
0.000158044
0.000158055
0.000218111
0.00021819
0.000218207
0.000279921
0.000280003
0.000280022
0.000340816
0.000340836
0.000340835
0.000393581
0.000393522
0.000393478
0.000429026
0.000428885
0.000428828
0.000442537
0.00044236
0.000442301
0.000438164
0.000437974
0.000437911
)
;

boundaryField
{
    freeSurface
    {
        type            slip;
    }
    inlet
    {
        type            cyclic;
    }
    outlet
    {
        type            cyclic;
    }
    sidewalls
    {
        type            nutkWallFunction;
        Cmu             0.09;
        kappa           0.41;
        E               9.8;
        value           nonuniform List<scalar> 
72
(
4.64225e-07
1.30971e-06
1.63807e-06
1.91668e-06
2.16896e-06
2.4065e-06
2.63521e-06
2.85722e-06
3.07185e-06
3.27649e-06
3.46767e-06
3.64231e-06
3.79876e-06
3.9373e-06
4.06002e-06
4.17009e-06
4.27075e-06
4.36439e-06
4.45213e-06
4.53377e-06
4.60788e-06
4.67191e-06
4.72193e-06
4.75191e-06
4.64225e-07
1.30971e-06
1.63807e-06
1.91668e-06
2.16896e-06
2.4065e-06
2.63521e-06
2.85722e-06
3.07186e-06
3.27649e-06
3.46767e-06
3.64231e-06
3.79876e-06
3.93731e-06
4.06003e-06
4.1701e-06
4.27076e-06
4.3644e-06
4.45214e-06
4.53378e-06
4.60788e-06
4.67192e-06
4.72194e-06
4.75191e-06
4.64241e-07
1.30973e-06
1.63809e-06
1.91669e-06
2.16898e-06
2.40652e-06
2.63523e-06
2.85724e-06
3.07188e-06
3.27651e-06
3.46769e-06
3.64234e-06
3.79879e-06
3.93733e-06
4.06006e-06
4.17013e-06
4.27079e-06
4.36443e-06
4.45217e-06
4.5338e-06
4.60791e-06
4.67194e-06
4.72197e-06
4.75194e-06
)
;
    }
    noSlipWalls
    {
        type            nutkWallFunction;
        Cmu             0.09;
        kappa           0.41;
        E               9.8;
        value           uniform 0;
    }
    procBoundary0to1
    {
        type            processor;
        value           nonuniform List<scalar> 
72
(
4.29059e-07
4.29096e-07
4.29072e-07
3.95116e-06
3.95121e-06
3.95118e-06
8.71596e-06
8.71606e-06
8.716e-06
1.47683e-05
1.47685e-05
1.47684e-05
2.20258e-05
2.20262e-05
2.2026e-05
3.05271e-05
3.05278e-05
3.05274e-05
4.03568e-05
4.03578e-05
4.03572e-05
5.16216e-05
5.16231e-05
5.16223e-05
6.44388e-05
6.44409e-05
6.44398e-05
7.89275e-05
7.89304e-05
7.89288e-05
9.52022e-05
9.52059e-05
9.52036e-05
0.000113366
0.00011337
0.000113367
0.000133505
0.000133508
0.000133504
0.000155681
0.000155683
0.000155677
0.000179929
0.000179928
0.000179918
0.00020625
0.000206241
0.000206227
0.000234593
0.000234569
0.000234549
0.000264819
0.000264771
0.000264743
0.000296604
0.00029652
0.000296482
0.000329241
0.00032911
0.00032906
0.000361307
0.000361125
0.000361065
0.000390288
0.000390069
0.000390001
0.00041261
0.000412389
0.00041232
0.000424803
0.00042461
0.000424544
)
;
    }
}


// ************************************************************************* //
