/*--------------------------------*- C++ -*----------------------------------*\
  =========                 |
  \\      /  F ield         | OpenFOAM: The Open Source CFD Toolbox
   \\    /   O peration     | Website:  https://openfoam.org
    \\  /    A nd           | Version:  6
     \\/     M anipulation  |
\*---------------------------------------------------------------------------*/
FoamFile
{
    version     2.0;
    format      ascii;
    class       volVectorField;
    location    "6";
    object      wallShearStress;
}
// * * * * * * * * * * * * * * * * * * * * * * * * * * * * * * * * * * * * * //

dimensions      [0 2 -2 0 0 0 0];

internalField   uniform (0 0 0);

boundaryField
{
    inlet
    {
        type            calculated;
        value           uniform (0 0 0);
    }
    outlet
    {
        type            calculated;
        value           uniform (0 0 0);
    }
    roughCylinder
    {
        type            calculated;
        value           nonuniform List<vector> 
5120
(
(-0.000531196 -0.000756853 -0.000399814)
(-0.000397949 -0.000577589 -3.82174e-05)
(-0.000360431 -0.000559101 3.97632e-06)
(-0.000401181 -0.00062516 5.29718e-05)
(-0.000470351 -0.000704727 0.000109649)
(-0.000543086 -0.000765147 0.000163051)
(-0.000616026 -0.000804344 0.000209768)
(-0.000684664 -0.000824578 0.000248473)
(-0.000746832 -0.000830545 0.000278578)
(-0.000803036 -0.000831207 0.000301559)
(-0.000853817 -0.000832397 0.000319206)
(-0.000895747 -0.000834735 0.000330374)
(-0.000931411 -0.000841756 0.000335778)
(-0.000961621 -0.000853055 0.000336425)
(-0.000987746 -0.000868188 0.000333519)
(-0.00101121 -0.000886147 0.000328093)
(-0.00103372 -0.000906281 0.000321045)
(-0.00105638 -0.000927913 0.000312852)
(-0.00108008 -0.00095086 0.000303799)
(-0.00110515 -0.000974956 0.000293932)
(-0.00113164 -0.00100012 0.000283209)
(-0.00115949 -0.0010263 0.000271536)
(-0.00118856 -0.00105338 0.000258785)
(-0.00121864 -0.0010812 0.000244778)
(-0.0012495 -0.00110949 0.00022924)
(-0.00128078 -0.00113793 0.00021179)
(-0.00131206 -0.00116606 0.000191862)
(-0.00134269 -0.00119326 0.000168705)
(-0.00137172 -0.00121868 0.00014119)
(-0.00139774 -0.00124107 0.000108167)
(-0.00141805 -0.00125881 6.79284e-05)
(-0.00142911 -0.00126912 2.27327e-05)
(-0.000582407 -0.000755375 -0.000399176)
(-0.000432253 -0.000573967 -4.23053e-05)
(-0.000385346 -0.000548375 -2.15625e-06)
(-0.000422981 -0.000609236 4.38684e-05)
(-0.000493648 -0.000689042 9.85867e-05)
(-0.000568227 -0.000750889 0.000150772)
(-0.000643016 -0.000791918 0.000196661)
(-0.000714207 -0.000814895 0.000235011)
(-0.000780132 -0.000825122 0.000265679)
(-0.000840662 -0.000829809 0.00029002)
(-0.000895007 -0.000832949 0.000309053)
(-0.000940183 -0.000834534 0.000321296)
(-0.000977274 -0.000840266 0.000327223)
(-0.00100912 -0.000850718 0.000328189)
(-0.00103656 -0.000865103 0.000325441)
(-0.00106145 -0.00088267 0.000320166)
(-0.00108518 -0.000902403 0.000313198)
(-0.00110925 -0.00092387 0.000305166)
(-0.00113425 -0.000946575 0.000296285)
(-0.0011606 -0.0009704 0.000286641)
(-0.00118843 -0.000995289 0.000276207)
(-0.00121766 -0.00102116 0.000264882)
(-0.00124811 -0.0010479 0.000252528)
(-0.00127959 -0.00107533 0.000238958)
(-0.00131182 -0.00110321 0.000223891)
(-0.00134447 -0.00113122 0.000206945)
(-0.00137707 -0.0011589 0.000187555)
(-0.00140896 -0.00118566 0.000164978)
(-0.00143916 -0.00121065 0.000138107)
(-0.0014662 -0.00123266 0.000105819)
(-0.00148731 -0.00125009 6.64455e-05)
(-0.00149882 -0.00126021 2.22265e-05)
(-0.000631455 -0.000734102 -0.000382426)
(-0.000465806 -0.000564586 -4.62264e-05)
(-0.000411774 -0.000533299 -9.00405e-06)
(-0.000443251 -0.000586564 3.38593e-05)
(-0.000514515 -0.000665636 8.64031e-05)
(-0.000591068 -0.000729043 0.000137294)
(-0.00066821 -0.000772688 0.00018249)
(-0.000742525 -0.000799325 0.00022086)
(-0.000812328 -0.00081392 0.000252375)
(-0.000877042 -0.000822373 0.00027802)
(-0.00093494 -0.000827523 0.000298051)
(-0.000983736 -0.000829738 0.000311415)
(-0.00102259 -0.000833781 0.000317831)
(-0.0010557 -0.000842968 0.000319014)
(-0.00108473 -0.000856608 0.000316531)
(-0.0011109 -0.00087345 0.000311404)
(-0.0011361 -0.000892776 0.000304634)
(-0.00116132 -0.000913686 0.00029674)
(-0.00118761 -0.000935965 0.00028808)
(-0.00121531 -0.000959394 0.000278725)
(-0.00124446 -0.000983837 0.000268631)
(-0.00127501 -0.00100922 0.0002577)
(-0.0013068 -0.00103542 0.000245788)
(-0.0013396 -0.00106228 0.000232698)
(-0.00137313 -0.00108954 0.000218146)
(-0.00140705 -0.00111691 0.000201743)
(-0.00144088 -0.00114394 0.00018293)
(-0.00147394 -0.00117006 0.000160977)
(-0.00150523 -0.00119444 0.000134798)
(-0.00153321 -0.00121592 0.000103299)
(-0.00155505 -0.00123292 6.48559e-05)
(-0.00156696 -0.00124277 2.16851e-05)
(-0.000566501 -0.000594035 -0.000293019)
(-0.000483911 -0.000527354 -4.928e-05)
(-0.000429914 -0.000506629 -1.63564e-05)
(-0.000459714 -0.000558189 2.34879e-05)
(-0.000531766 -0.000636887 7.3628e-05)
(-0.000610043 -0.000701729 0.000123023)
(-0.000689374 -0.000747924 0.000167396)
(-0.000766765 -0.000778367 0.000205793)
(-0.000840589 -0.000797559 0.000238256)
(-0.000909255 -0.000809578 0.000265147)
(-0.000970619 -0.000816648 0.000286111)
(-0.00102296 -0.000820192 0.000300447)
(-0.0010646 -0.000822869 0.000307528)
(-0.00109953 -0.00083104 0.000309214)
(-0.00112993 -0.000843479 0.000306944)
(-0.00115769 -0.000859632 0.000302101)
(-0.0011841 -0.000878174 0.000295513)
(-0.00121084 -0.000898661 0.00028791)
(-0.00123846 -0.00092043 0.000279538)
(-0.0012674 -0.000943272 0.000270503)
(-0.00129781 -0.000967119 0.000260791)
(-0.00132962 -0.000991872 0.000250297)
(-0.00136264 -0.0010174 0.000238862)
(-0.00139665 -0.00104353 0.000226285)
(-0.00143137 -0.00107003 0.000212274)
(-0.00146644 -0.0010966 0.000196437)
(-0.00150136 -0.00112283 0.00017822)
(-0.00153547 -0.00114816 0.000156907)
(-0.00156771 -0.00117179 0.000131432)
(-0.00159652 -0.0011926 0.000100737)
(-0.00161901 -0.00120908 6.32417e-05)
(-0.00163126 -0.00121862 2.11363e-05)
(-0.000696698 -0.000653526 -0.000302916)
(-0.000523629 -0.000514196 -5.48615e-05)
(-0.000452302 -0.000483362 -2.35399e-05)
(-0.000471891 -0.000525156 1.29721e-05)
(-0.000543037 -0.000601824 6.02793e-05)
(-0.000623007 -0.000668044 0.00010787)
(-0.00070506 -0.000717439 0.000151337)
(-0.000786105 -0.000752246 0.000189794)
(-0.000863633 -0.000775617 0.000223033)
(-0.000936007 -0.00079093 0.000251048)
(-0.00100114 -0.00080019 0.000273075)
(-0.00105666 -0.000804791 0.000288137)
(-0.00110269 -0.000808056 0.000296394)
(-0.0011392 -0.000814013 0.000298526)
(-0.0011715 -0.000825496 0.000296711)
(-0.00120066 -0.000840488 0.000292156)
(-0.00122877 -0.000858397 0.00028595)
(-0.00125664 -0.000878 0.000278613)
(-0.00128548 -0.000899038 0.000270578)
(-0.00131571 -0.00092123 0.00026195)
(-0.00134736 -0.000944368 0.000252685)
(-0.00138034 -0.00096834 0.000242676)
(-0.0014145 -0.000993035 0.000231763)
(-0.0014496 -0.00101828 0.000219735)
(-0.00148536 -0.00104386 0.000206292)
(-0.00152142 -0.00106947 0.000191043)
(-0.00155729 -0.00109473 0.000173439)
(-0.00159228 -0.00111911 0.000152778)
(-0.00162534 -0.00114185 0.000128022)
(-0.00165487 -0.00116186 9.81434e-05)
(-0.00167791 -0.00117773 6.161e-05)
(-0.00169044 -0.00118688 2.05828e-05)
(-0.00061125 -0.000510529 -0.000219731)
(-0.000526442 -0.000465055 -5.63783e-05)
(-0.000462242 -0.000447487 -3.04248e-05)
(-0.000479046 -0.0004883 2.53346e-06)
(-0.000549453 -0.000563436 4.67325e-05)
(-0.000630983 -0.000630916 9.22475e-05)
(-0.000715294 -0.000682951 0.000134522)
(-0.000799224 -0.000721212 0.000172719)
(-0.000880601 -0.000748604 0.000206619)
(-0.000956855 -0.000767122 0.000235664)
(-0.0010253 -0.000778134 0.000258625)
(-0.00108491 -0.000784337 0.000274697)
(-0.00113423 -0.000788048 0.000283776)
(-0.00117483 -0.00079327 0.000286947)
(-0.00120872 -0.000802689 0.000285628)
(-0.00123987 -0.000816709 0.000281614)
(-0.00126921 -0.000833347 0.000275753)
(-0.00129877 -0.000852234 0.0002689)
(-0.00132904 -0.000872496 0.000261321)
(-0.00136043 -0.000893801 0.000253147)
(-0.00139319 -0.000916042 0.000244379)
(-0.00142726 -0.000939097 0.000234909)
(-0.00146244 -0.000962813 0.000224561)
(-0.0014985 -0.000987027 0.000213113)
(-0.00153516 -0.00101153 0.000200263)
(-0.00157206 -0.00103604 0.000185622)
(-0.00160871 -0.00106019 0.000168641)
(-0.00164446 -0.00108348 0.00014864)
(-0.0016782 -0.0011052 0.000124606)
(-0.00170831 -0.00112429 9.55461e-05)
(-0.0017318 -0.00113944 5.99784e-05)
(-0.00174454 -0.00114818 2.00306e-05)
(-0.00072836 -0.000543273 -0.000208395)
(-0.000558151 -0.000439145 -6.16968e-05)
(-0.000474165 -0.000415286 -3.7106e-05)
(-0.000479902 -0.000447867 -7.70832e-06)
(-0.000548001 -0.000520197 3.28558e-05)
(-0.000630453 -0.000588449 7.58061e-05)
(-0.000717309 -0.000643448 0.000116625)
(-0.000805227 -0.000686019 0.000154537)
(-0.000890337 -0.000717015 0.00018884)
(-0.000970097 -0.000738177 0.000218648)
(-0.00104285 -0.000751573 0.000242726)
(-0.00110576 -0.000758683 0.000259691)
(-0.00115958 -0.000763552 0.000269883)
(-0.00120368 -0.000768362 0.000273955)
(-0.00124128 -0.000776602 0.000273662)
(-0.00127404 -0.000788486 0.000270212)
(-0.00130555 -0.000804147 0.000265034)
(-0.00133631 -0.000821754 0.000258651)
(-0.00136775 -0.000840916 0.000251576)
(-0.00140043 -0.000861287 0.000243971)
(-0.00143434 -0.000882547 0.000235792)
(-0.0014694 -0.000904538 0.000226921)
(-0.00150548 -0.000927139 0.000217187)
(-0.00154235 -0.000950189 0.000206362)
(-0.00157974 -0.00097348 0.000194136)
(-0.00161729 -0.000996747 0.00018012)
(-0.00165456 -0.00101966 0.000163778)
(-0.00169086 -0.00104173 0.000144448)
(-0.00172512 -0.00106231 0.000121148)
(-0.00175569 -0.00108039 9.29185e-05)
(-0.00177954 -0.00109475 5.83316e-05)
(-0.00179239 -0.00110303 1.94747e-05)
(-0.000693051 -0.000454037 -0.000157763)
(-0.000552845 -0.000391832 -6.16977e-05)
(-0.000478599 -0.000377664 -4.32753e-05)
(-0.000475966 -0.000406345 -1.77188e-05)
(-0.000540126 -0.000475136 1.8976e-05)
(-0.000623442 -0.000544084 5.90318e-05)
(-0.000712301 -0.000601444 9.8012e-05)
(-0.000802372 -0.000646552 0.000135021)
(-0.00089112 -0.000680841 0.000169433)
(-0.000975411 -0.000705151 0.000199996)
(-0.00105151 -0.000720062 0.00022486)
(-0.00111942 -0.000729135 0.000243154)
(-0.00117661 -0.000734272 0.000254327)
(-0.00122546 -0.000739682 0.000259671)
(-0.00126639 -0.000746951 0.000260344)
(-0.00130295 -0.000757755 0.000258023)
(-0.00133593 -0.000771333 0.000253518)
(-0.00136872 -0.000787663 0.000247882)
(-0.00140184 -0.000805671 0.000241506)
(-0.00143565 -0.00082478 0.000234539)
(-0.00147054 -0.000844816 0.000227006)
(-0.00150651 -0.000865619 0.000218803)
(-0.00154337 -0.000886998 0.000209736)
(-0.00158089 -0.00090879 0.000199571)
(-0.00161882 -0.00093079 0.000187994)
(-0.00165686 -0.000952757 0.000174623)
(-0.00169454 -0.000974349 0.000158928)
(-0.00173124 -0.000995137 0.000140272)
(-0.00176585 -0.00101447 0.000117701)
(-0.00179674 -0.00103144 9.03001e-05)
(-0.0018208 -0.00104494 5.6694e-05)
(-0.00183369 -0.00105279 1.89249e-05)
(-0.000769009 -0.000440025 -0.000138069)
(-0.000554765 -0.000354395 -6.24967e-05)
(-0.000471022 -0.000334294 -4.80551e-05)
(-0.000462409 -0.000361096 -2.69733e-05)
(-0.000522283 -0.000426312 5.18004e-06)
(-0.000604927 -0.000494722 4.16435e-05)
(-0.000695311 -0.00055404 7.82138e-05)
(-0.000789658 -0.000603287 0.000114187)
(-0.000882532 -0.000641006 0.000148404)
(-0.000970144 -0.000667396 0.000179219)
(-0.00105171 -0.000685084 0.000205163)
(-0.00112297 -0.00069488 0.000224421)
(-0.0011857 -0.000701509 0.00023717)
(-0.00123801 -0.000706629 0.00024368)
(-0.00128351 -0.000713832 0.000245727)
(-0.00132284 -0.000723342 0.000244432)
(-0.00135946 -0.00073593 0.00024111)
(-0.00139409 -0.000750582 0.000236345)
(-0.00142862 -0.000767028 0.000230781)
(-0.00146391 -0.000784883 0.000224644)
(-0.00149997 -0.000803683 0.000217906)
(-0.00153675 -0.000823176 0.000210452)
(-0.00157419 -0.00084321 0.000202111)
(-0.00161213 -0.000863623 0.000192645)
(-0.00165034 -0.000884214 0.000181742)
(-0.00168855 -0.000904745 0.000169026)
(-0.00172636 -0.000924919 0.000153987)
(-0.00176318 -0.000944314 0.000136012)
(-0.00179796 -0.000962355 0.000114187)
(-0.00182904 -0.000978183 8.76338e-05)
(-0.00185319 -0.000990785 5.50328e-05)
(-0.00186588 -0.000998114 1.83683e-05)
(-0.000650318 -0.000328978 -8.39829e-05)
(-0.000554069 -0.000311761 -6.35053e-05)
(-0.000467803 -0.000298232 -5.33948e-05)
(-0.000444813 -0.000317455 -3.56971e-05)
(-0.000496717 -0.000376632 -8.12688e-06)
(-0.000578623 -0.000444566 2.43227e-05)
(-0.000670639 -0.000505843 5.80145e-05)
(-0.000765891 -0.000556519 9.2027e-05)
(-0.000861752 -0.000596736 0.00012543)
(-0.00095512 -0.000626729 0.000156573)
(-0.00103996 -0.000645582 0.00018299)
(-0.00111771 -0.000657843 0.000203762)
(-0.00118396 -0.00066455 0.000217756)
(-0.00124206 -0.000670539 0.000226063)
(-0.00129094 -0.000676898 0.000229453)
(-0.00133467 -0.000685919 0.00022965)
(-0.00137329 -0.000696767 0.000227382)
(-0.00141078 -0.000710329 0.000223837)
(-0.00144766 -0.000725676 0.000219395)
(-0.00148425 -0.000742106 0.000214201)
(-0.00152118 -0.000759455 0.000208339)
(-0.00155866 -0.000777529 0.00020173)
(-0.00159653 -0.000796116 0.000194185)
(-0.00163468 -0.000815036 0.00018547)
(-0.00167294 -0.000834112 0.000175277)
(-0.0017111 -0.000853121 0.000163247)
(-0.0017488 -0.000871784 0.000148885)
(-0.00178554 -0.000889739 0.000131615)
(-0.00182024 -0.000906421 0.000110557)
(-0.00185127 -0.00092105 8.48787e-05)
(-0.00187532 -0.000932711 5.33171e-05)
(-0.00188775 -0.000939455 1.7795e-05)
(-0.000621278 -0.000273878 -4.96336e-05)
(-0.00052095 -0.000256534 -6.30434e-05)
(-0.0004428 -0.000253252 -5.60834e-05)
(-0.000415256 -0.000270801 -4.26642e-05)
(-0.000459771 -0.00032456 -2.03183e-05)
(-0.000538243 -0.000389945 7.22253e-06)
(-0.000629445 -0.000451351 3.70463e-05)
(-0.000729215 -0.000506072 6.86956e-05)
(-0.000830125 -0.000550136 0.000100912)
(-0.000926109 -0.000581604 0.000131474)
(-0.00101827 -0.000604036 0.000158783)
(-0.00109932 -0.000616677 0.000180404)
(-0.00117274 -0.000625278 0.000196335)
(-0.00123455 -0.00063076 0.000206197)
(-0.00128914 -0.000637272 0.000211549)
(-0.00133569 -0.000644829 0.000213185)
(-0.00137877 -0.000655039 0.00021259)
(-0.00141826 -0.000666942 0.000210294)
(-0.00145633 -0.000680479 0.000206955)
(-0.00149438 -0.000695474 0.000202887)
(-0.00153241 -0.000711402 0.000198073)
(-0.00157045 -0.00072796 0.000192414)
(-0.00160855 -0.000744989 0.000185748)
(-0.00164668 -0.000762323 0.000177849)
(-0.00168471 -0.000779784 0.000168418)
(-0.00172251 -0.000797169 0.00015711)
(-0.00175982 -0.000814244 0.000143464)
(-0.00179613 -0.000830647 0.000126934)
(-0.0018305 -0.000845915 0.00010669)
(-0.0018613 -0.000859322 8.19433e-05)
(-0.0018851 -0.000870002 5.14911e-05)
(-0.00189714 -0.000876117 1.71857e-05)
(-0.000610153 -0.000229348 -2.92136e-05)
(-0.000503637 -0.000220805 -6.22138e-05)
(-0.000424111 -0.000216329 -5.90812e-05)
(-0.000381994 -0.000227426 -4.85256e-05)
(-0.00041364 -0.000272691 -3.09806e-05)
(-0.000488754 -0.000335477 -8.88475e-06)
(-0.000581531 -0.000398546 1.64347e-05)
(-0.000680174 -0.000453347 4.45532e-05)
(-0.000782396 -0.00049884 7.45176e-05)
(-0.000886241 -0.000535118 0.000104607)
(-0.000981007 -0.000558276 0.000131764)
(-0.00107084 -0.000574275 0.000154937)
(-0.00114789 -0.000582638 0.000172221)
(-0.00121714 -0.000589245 0.000184377)
(-0.00127536 -0.000594604 0.000191548)
(-0.00132769 -0.00060186 0.000195337)
(-0.0013728 -0.000610074 0.000196266)
(-0.0014156 -0.000620754 0.000195629)
(-0.00145668 -0.000633175 0.000193841)
(-0.00149607 -0.000646558 0.000191037)
(-0.00153479 -0.000660811 0.000187356)
(-0.00157326 -0.00067576 0.000182749)
(-0.00161143 -0.000691168 0.00017704)
(-0.00164932 -0.00070685 0.00017001)
(-0.00168689 -0.000722647 0.000161376)
(-0.00172413 -0.000738388 0.000150821)
(-0.00176078 -0.000753827 0.000137908)
(-0.00179652 -0.000768697 0.000122139)
(-0.00183032 -0.000782517 0.000102725)
(-0.00186062 -0.000794656 7.89309e-05)
(-0.00188399 -0.000804319 4.96184e-05)
(-0.00189558 -0.000809804 1.65631e-05)
(-0.000517972 -0.000164733 -6.82051e-06)
(-0.000446631 -0.000172036 -5.74328e-05)
(-0.000383132 -0.000173824 -5.88887e-05)
(-0.000340036 -0.000184714 -5.23492e-05)
(-0.000357612 -0.000221005 -3.93525e-05)
(-0.00042445 -0.000277851 -2.32137e-05)
(-0.00051148 -0.000337604 -3.50574e-06)
(-0.000614851 -0.000396475 2.01802e-05)
(-0.000723969 -0.000447071 4.72871e-05)
(-0.000828287 -0.00048384 7.54329e-05)
(-0.000933279 -0.000512206 0.0001029)
(-0.00102581 -0.000528232 0.000126531)
(-0.00111239 -0.000539261 0.000145972)
(-0.00118552 -0.000545019 0.000159984)
(-0.00125124 -0.000550757 0.000169747)
(-0.00130643 -0.000556112 0.0001755)
(-0.00135733 -0.00056376 0.000178754)
(-0.00140261 -0.000572641 0.000179894)
(-0.0014446 -0.000582877 0.000179588)
(-0.00148552 -0.000594619 0.000178267)
(-0.00152534 -0.000607309 0.000175934)
(-0.00156411 -0.00062059 0.000172501)
(-0.00160212 -0.000634301 0.000167835)
(-0.0016395 -0.000648286 0.000161738)
(-0.0016763 -0.000662379 0.000153947)
(-0.00171258 -0.000676402 0.000144174)
(-0.00174826 -0.000690183 0.000132025)
(-0.00178299 -0.00070343 0.000117044)
(-0.00181596 -0.000715793 9.85078e-05)
(-0.0018456 -0.000726668 7.57263e-05)
(-0.00186837 -0.000735312 4.76306e-05)
(-0.00187935 -0.000740135 1.59044e-05)
(-0.000442956 -0.000117921 6.37798e-06)
(-0.000397397 -0.000134873 -5.36212e-05)
(-0.000339767 -0.000137393 -5.78338e-05)
(-0.000289952 -0.000144145 -5.34165e-05)
(-0.000292419 -0.000170484 -4.41875e-05)
(-0.00035 -0.000220575 -3.43643e-05)
(-0.000439719 -0.00028217 -2.14666e-05)
(-0.000538056 -0.00033887 -3.44292e-06)
(-0.000644413 -0.000388933 1.93454e-05)
(-0.00076045 -0.000433113 4.54023e-05)
(-0.000865812 -0.000461479 7.15266e-05)
(-0.000970511 -0.000482662 9.63097e-05)
(-0.00106029 -0.000493235 0.000116957)
(-0.00114323 -0.000500788 0.000133643)
(-0.00121252 -0.000504959 0.000145642)
(-0.00127548 -0.000510263 0.00015426)
(-0.00132839 -0.000515529 0.000159598)
(-0.00137747 -0.000522947 0.000162945)
(-0.00142348 -0.000532079 0.000164739)
(-0.0014659 -0.000542056 0.000165083)
(-0.00150617 -0.000552884 0.000164175)
(-0.00154509 -0.000564433 0.000162023)
(-0.00158277 -0.000576446 0.000158477)
(-0.00161941 -0.00058873 0.000153361)
(-0.0016552 -0.000601131 0.000146439)
(-0.00169037 -0.000613506 0.000137467)
(-0.00172482 -0.000625656 0.000126087)
(-0.00175848 -0.00063738 0.000111908)
(-0.00179037 -0.000648291 9.42496e-05)
(-0.00181907 -0.000657892 7.24862e-05)
(-0.00184105 -0.000665521 4.56241e-05)
(-0.0018514 -0.000669735 1.52425e-05)
(-0.000314797 -7.02689e-05 1.82601e-05)
(-0.000320358 -9.26558e-05 -4.87193e-05)
(-0.000285051 -0.00010379 -5.57551e-05)
(-0.000239029 -0.000109688 -5.30723e-05)
(-0.000220746 -0.000122757 -4.44941e-05)
(-0.000264531 -0.000162565 -4.0561e-05)
(-0.000337168 -0.000213556 -3.44571e-05)
(-0.000441645 -0.00027527 -2.41131e-05)
(-0.000558624 -0.000333084 -7.41571e-06)
(-0.000669211 -0.000375386 1.45875e-05)
(-0.000789802 -0.000412321 3.94513e-05)
(-0.000894931 -0.000433098 6.37221e-05)
(-0.000997622 -0.000448086 8.62608e-05)
(-0.00108395 -0.000454656 0.000104833)
(-0.00116329 -0.000459926 0.000119923)
(-0.00122866 -0.000462897 0.000130971)
(-0.001289 -0.000467723 0.000139297)
(-0.0013412 -0.000473237 0.000145016)
(-0.00138758 -0.000479784 0.000148716)
(-0.00143151 -0.000487939 0.000150938)
(-0.00147291 -0.000497129 0.000151705)
(-0.00151186 -0.000506954 0.000150961)
(-0.00154891 -0.000517239 0.000148615)
(-0.00158449 -0.000527829 0.000144533)
(-0.00161891 -0.00053856 0.000138514)
(-0.00165246 -0.000549258 0.000130359)
(-0.00168533 -0.000559804 0.000119776)
(-0.00171734 -0.000569947 0.000106418)
(-0.00174788 -0.000579447 8.96902e-05)
(-0.00177548 -0.000587823 6.90167e-05)
(-0.0017965 -0.000594468 4.34792e-05)
(-0.001806 -0.000598067 1.45369e-05)
(-0.000174047 -3.05687e-05 1.97282e-05)
(-0.000218839 -5.44701e-05 -3.94405e-05)
(-0.000209104 -6.92481e-05 -4.99976e-05)
(-0.000176358 -7.62214e-05 -4.82807e-05)
(-0.00014751 -7.93401e-05 -3.92291e-05)
(-0.00016528 -0.000100909 -3.73315e-05)
(-0.000250003 -0.000158252 -4.30773e-05)
(-0.000337865 -0.000211459 -4.06396e-05)
(-0.000443428 -0.000265212 -3.05847e-05)
(-0.000574525 -0.00032106 -1.45585e-05)
(-0.000688868 -0.000355951 6.90759e-06)
(-0.000811659 -0.000385604 3.07301e-05)
(-0.000915385 -0.00040009 5.36719e-05)
(-0.00101478 -0.000410178 7.47331e-05)
(-0.00109665 -0.000413728 9.21505e-05)
(-0.00117242 -0.000417438 0.000106577)
(-0.00123435 -0.000419643 0.000117468)
(-0.00129066 -0.000423556 0.000125897)
(-0.00134241 -0.000429172 0.00013226)
(-0.00138804 -0.000435517 0.000136566)
(-0.00142955 -0.000442743 0.000139055)
(-0.00146826 -0.000450818 0.000139809)
(-0.00150454 -0.000459454 0.000138732)
(-0.00153883 -0.000468426 0.000135717)
(-0.00157163 -0.000477574 0.000130614)
(-0.00160351 -0.000486766 0.000123286)
(-0.00163456 -0.00049581 0.000113488)
(-0.00166504 -0.000504574 0.000100959)
(-0.00169399 -0.000512734 8.51486e-05)
(-0.0017202 -0.000519923 6.55544e-05)
(-0.00174009 -0.000525625 4.13427e-05)
(-0.00174875 -0.000528689 1.3838e-05)
(-5.72398e-05 -6.78773e-06 1.29881e-05)
(-0.000115596 -2.60958e-05 -2.47513e-05)
(-0.000126592 -3.77778e-05 -3.93876e-05)
(-0.000114228 -4.6452e-05 -4.21493e-05)
(-6.89851e-05 -3.71994e-05 -2.61768e-05)
(-6.58495e-05 -4.17609e-05 -2.19538e-05)
(-8.08107e-05 -5.305e-05 -2.14771e-05)
(-0.000216322 -0.000137441 -4.44351e-05)
(-0.000337448 -0.000204268 -4.95318e-05)
(-0.000445782 -0.000251788 -3.92088e-05)
(-0.000586909 -0.000303508 -2.34134e-05)
(-0.000703465 -0.000331475 -2.07572e-06)
(-0.000825466 -0.000354203 2.10977e-05)
(-0.000925864 -0.000363558 4.32946e-05)
(-0.0010212 -0.000370086 6.36166e-05)
(-0.0010977 -0.000371369 8.05552e-05)
(-0.00116895 -0.000373776 9.48195e-05)
(-0.00122902 -0.000376015 0.000106092)
(-0.00127997 -0.000378786 0.0001147)
(-0.00132687 -0.000383268 0.000121221)
(-0.00136953 -0.000388953 0.000125682)
(-0.00140792 -0.000395387 0.000128046)
(-0.00144299 -0.000402405 0.000128287)
(-0.0014756 -0.000409833 0.000126374)
(-0.00150634 -0.000417481 0.000122202)
(-0.00153587 -0.000425171 0.000115698)
(-0.00156468 -0.000432795 0.000106709)
(-0.00159281 -0.000440132 9.50231e-05)
(-0.00161987 -0.000447035 8.01969e-05)
(-0.00164454 -0.000453133 6.17791e-05)
(-0.00166312 -0.000457964 3.90151e-05)
(-0.00167069 -0.000460497 1.30771e-05)
(-9.53294e-06 6.13738e-07 1.16409e-05)
(-2.77149e-05 -5.12293e-06 -6.2826e-06)
(-3.58239e-05 -8.49209e-06 -1.76513e-05)
(-3.34908e-05 -1.33301e-05 -2.05754e-05)
(-4.6363e-05 -2.84475e-05 -2.91408e-05)
(-5.25846e-05 -3.91018e-05 -2.82462e-05)
(-6.87863e-05 -5.22115e-05 -2.91798e-05)
(-0.000112051 -7.7091e-05 -3.65016e-05)
(-0.000179899 -0.000112127 -4.46742e-05)
(-0.000337156 -0.000193093 -5.83077e-05)
(-0.000449745 -0.000235466 -4.79527e-05)
(-0.000596197 -0.0002814 -3.20266e-05)
(-0.000712434 -0.0003031 -1.04357e-05)
(-0.000830907 -0.000319797 1.24565e-05)
(-0.000925468 -0.000324932 3.43246e-05)
(-0.00101579 -0.00032891 5.43444e-05)
(-0.00108714 -0.000328944 7.12179e-05)
(-0.00115106 -0.000329853 8.53927e-05)
(-0.00120907 -0.000332281 9.70462e-05)
(-0.00125784 -0.000335201 0.000105969)
(-0.00129996 -0.000339015 0.000112366)
(-0.00133758 -0.000343856 0.000116386)
(-0.00137135 -0.000349434 0.000117992)
(-0.00140205 -0.000355475 0.000117185)
(-0.00143054 -0.000361804 0.000113932)
(-0.00145786 -0.000368259 0.000108252)
(-0.00148428 -0.000374646 0.000100045)
(-0.00151048 -0.000380865 8.92097e-05)
(-0.00153548 -0.000386646 7.53382e-05)
(-0.00155833 -0.000391734 5.80654e-05)
(-0.00157544 -0.000395771 3.67297e-05)
(-0.00158205 -0.000397897 1.23348e-05)
(5.27072e-06 5.15411e-06 2.10676e-05)
(2.55049e-06 2.54067e-06 -1.51079e-06)
(-1.90519e-06 -4.50622e-07 -1.19396e-05)
(-8.38043e-06 -8.62022e-06 -2.08048e-05)
(-1.48651e-05 -1.85379e-05 -2.52197e-05)
(-2.26838e-05 -2.87652e-05 -2.6575e-05)
(-3.50558e-05 -3.76021e-05 -2.81182e-05)
(-5.63902e-05 -4.86815e-05 -3.1523e-05)
(-0.000100113 -6.82796e-05 -3.97547e-05)
(-0.000146734 -8.67335e-05 -4.23609e-05)
(-0.000335926 -0.000177536 -6.5114e-05)
(-0.000453413 -0.000216123 -5.4739e-05)
(-0.000600253 -0.000255437 -3.84144e-05)
(-0.000712758 -0.000271523 -1.65572e-05)
(-0.000825945 -0.000283578 6.18682e-06)
(-0.000912748 -0.000285549 2.78898e-05)
(-0.000995661 -0.000287481 4.76923e-05)
(-0.00106378 -0.000287637 6.46863e-05)
(-0.00111866 -0.000287334 7.86053e-05)
(-0.00116786 -0.000288675 8.98433e-05)
(-0.00121105 -0.000291338 9.8358e-05)
(-0.00124784 -0.000294856 0.000104074)
(-0.00127966 -0.00029911 0.000107021)
(-0.00130795 -0.000303913 0.000107308)
(-0.00133365 -0.000309052 0.000104959)
(-0.00135782 -0.000314292 0.000100071)
(-0.00138134 -0.00031955 9.26666e-05)
(-0.00140442 -0.000324584 8.26914e-05)
(-0.00142699 -0.000329351 6.98718e-05)
(-0.00144788 -0.000333565 5.38861e-05)
(-0.00146334 -0.000336899 3.41548e-05)
(-0.00146857 -0.000338599 1.14952e-05)
(8.00201e-06 9.43325e-06 2.86049e-05)
(1.79188e-05 8.0744e-06 -1.94524e-06)
(2.06182e-05 4.64756e-06 -1.17224e-05)
(2.33088e-05 -3.65243e-06 -1.92986e-05)
(1.37463e-05 -9.7336e-06 -1.59528e-05)
(7.04501e-06 -1.4721e-05 -1.51082e-05)
(-2.10237e-06 -1.81377e-05 -1.51606e-05)
(-1.39611e-05 -2.12999e-05 -1.7574e-05)
(-5.04529e-05 -4.21462e-05 -3.46913e-05)
(-6.03121e-05 -3.83712e-05 -2.73922e-05)
(-0.000136801 -7.27288e-05 -4.21041e-05)
(-0.000339068 -0.000161411 -7.04569e-05)
(-0.00045612 -0.000195361 -5.83385e-05)
(-0.000598214 -0.000227436 -4.16482e-05)
(-0.000702623 -0.000238384 -1.95496e-05)
(-0.000808627 -0.000246967 3.05353e-06)
(-0.000887879 -0.000247349 2.45755e-05)
(-0.000958509 -0.000247163 4.39211e-05)
(-0.00102252 -0.000247861 6.07272e-05)
(-0.00107367 -0.000248397 7.43689e-05)
(-0.00111518 -0.000249608 8.4803e-05)
(-0.00115038 -0.000251949 9.21638e-05)
(-0.00118027 -0.000255186 9.64463e-05)
(-0.00120599 -0.000258996 9.77862e-05)
(-0.00122881 -0.000263199 9.62972e-05)
(-0.00125036 -0.000267588 9.21926e-05)
(-0.001271 -0.00027196 8.5548e-05)
(-0.00129197 -0.000276236 7.64467e-05)
(-0.0013121 -0.000280185 6.46269e-05)
(-0.00133079 -0.000283636 4.98649e-05)
(-0.00134451 -0.000286378 3.16809e-05)
(-0.00134875 -0.000287809 1.06944e-05)
(1.59826e-05 1.2417e-05 3.3682e-05)
(2.9355e-05 1.07607e-05 -3.85713e-06)
(3.51422e-05 7.30829e-06 -1.24543e-05)
(4.86396e-05 6.64254e-07 -2.13964e-05)
(4.72716e-05 -9.73447e-06 -2.25823e-05)
(4.00126e-05 -1.79891e-05 -2.12167e-05)
(2.87162e-05 -2.46732e-05 -1.95353e-05)
(1.02282e-05 -2.55567e-05 -1.79574e-05)
(-1.3225e-05 -2.72763e-05 -2.3601e-05)
(-4.78173e-05 -3.41803e-05 -3.48695e-05)
(-9.56118e-05 -5.32383e-05 -4.65901e-05)
(-0.000124693 -5.93529e-05 -3.96237e-05)
(-0.000337783 -0.000143682 -7.06622e-05)
(-0.000451794 -0.000172518 -5.82739e-05)
(-0.000586465 -0.000198353 -4.12889e-05)
(-0.000679408 -0.00020506 -1.90578e-05)
(-0.000773959 -0.000210672 3.26694e-06)
(-0.000848817 -0.000211569 2.43777e-05)
(-0.000905389 -0.000210119 4.28306e-05)
(-0.000955094 -0.000209833 5.83568e-05)
(-0.000997399 -0.000210731 7.06797e-05)
(-0.00103107 -0.000212384 7.95565e-05)
(-0.00105805 -0.000214798 8.50044e-05)
(-0.00108056 -0.00021781 8.72905e-05)
(-0.00109983 -0.000221223 8.65876e-05)
(-0.0011174 -0.000224732 8.31852e-05)
(-0.00113451 -0.000228307 7.73236e-05)
(-0.0011515 -0.000231659 6.91007e-05)
(-0.00116868 -0.000234879 5.84315e-05)
(-0.00118506 -0.000237718 4.51137e-05)
(-0.00119681 -0.000239957 2.87433e-05)
(-0.00119943 -0.000241052 9.73272e-06)
(2.50904e-05 1.34838e-05 3.61732e-05)
(5.19249e-05 1.43951e-05 -5.94783e-06)
(7.14559e-05 1.10175e-05 -2.02315e-05)
(8.06859e-05 2.21269e-06 -2.67083e-05)
(7.28582e-05 -7.70952e-06 -2.6122e-05)
(4.27184e-05 -1.13029e-05 -1.67052e-05)
(5.141e-05 -2.42235e-05 -2.11172e-05)
(4.32579e-05 -3.2885e-05 -1.94841e-05)
(1.20799e-05 -2.03962e-05 -1.06088e-05)
(-8.27336e-06 -1.67896e-05 -1.4828e-05)
(-2.94313e-05 -1.81461e-05 -2.14556e-05)
(-6.58007e-05 -3.1444e-05 -3.10234e-05)
(-0.00013812 -5.73174e-05 -4.33833e-05)
(-0.00033461 -0.000126452 -6.85958e-05)
(-0.000438045 -0.000148844 -5.4476e-05)
(-0.00056299 -0.000169548 -3.7248e-05)
(-0.000645115 -0.000174075 -1.52322e-05)
(-0.000719827 -0.00017635 6.48167e-06)
(-0.000788483 -0.000178261 2.65872e-05)
(-0.000840324 -0.000178615 4.38847e-05)
(-0.000879013 -0.000178838 5.76574e-05)
(-0.000909895 -0.000180003 6.78392e-05)
(-0.000934249 -0.000182013 7.43599e-05)
(-0.000953581 -0.000184533 7.74885e-05)
(-0.000969502 -0.000187444 7.74881e-05)
(-0.000984347 -0.000190524 7.47866e-05)
(-0.000998366 -0.000193576 6.96471e-05)
(-0.00101348 -0.000196568 6.2341e-05)
(-0.00102807 -0.000199287 5.27314e-05)
(-0.00104201 -0.000201633 4.07291e-05)
(-0.00105189 -0.000203494 2.60363e-05)
(-0.00105367 -0.000204445 8.85397e-06)
(3.34937e-05 1.39321e-05 3.84223e-05)
(7.19663e-05 1.66655e-05 -5.47644e-06)
(0.000100022 1.3997e-05 -2.24061e-05)
(0.000116829 4.9463e-06 -3.27982e-05)
(0.000122446 -7.78583e-06 -3.83476e-05)
(0.000117361 -2.11098e-05 -3.9014e-05)
(8.87752e-05 -2.76546e-05 -3.12036e-05)
(4.44458e-05 -2.18535e-05 -1.6693e-05)
(4.90601e-05 -3.94648e-05 -1.9651e-05)
(9.40254e-06 -1.69726e-05 -6.74944e-06)
(-1.11961e-05 -1.67414e-05 -1.46368e-05)
(-5.3728e-05 -2.49431e-05 -3.69736e-05)
(-0.000102632 -4.18014e-05 -4.74179e-05)
(-0.000138735 -5.09134e-05 -4.17009e-05)
(-0.000323669 -0.000108798 -6.25564e-05)
(-0.000410246 -0.000124713 -4.69279e-05)
(-0.000518893 -0.00014061 -2.93595e-05)
(-0.000596761 -0.000146168 -8.52712e-06)
(-0.000650596 -0.000146565 1.17345e-05)
(-0.000696936 -0.000147024 2.9575e-05)
(-0.000736117 -0.000148228 4.43146e-05)
(-0.00076459 -0.00014959 5.53342e-05)
(-0.000784901 -0.000151387 6.24815e-05)
(-0.000800204 -0.000153545 6.61725e-05)
(-0.000811913 -0.000156015 6.67042e-05)
(-0.000821931 -0.000158435 6.45396e-05)
(-0.000831922 -0.000160929 6.01555e-05)
(-0.000842031 -0.000163123 5.37581e-05)
(-0.000853222 -0.000165325 4.54586e-05)
(-0.000864604 -0.000167298 3.51347e-05)
(-0.000872283 -0.000168816 2.25438e-05)
(-0.000872193 -0.000169439 7.69421e-06)
(4.01939e-05 1.40634e-05 4.09228e-05)
(7.73123e-05 1.59522e-05 -4.25157e-06)
(0.00011007 1.46029e-05 -2.13649e-05)