/*--------------------------------*- C++ -*----------------------------------*\
  =========                 |
  \\      /  F ield         | OpenFOAM: The Open Source CFD Toolbox
   \\    /   O peration     | Website:  https://openfoam.org
    \\  /    A nd           | Version:  6
     \\/     M anipulation  |
\*---------------------------------------------------------------------------*/
FoamFile
{
    version     2.0;
    format      ascii;
    class       volScalarField;
    location    "6";
    object      yPlus;
}
// * * * * * * * * * * * * * * * * * * * * * * * * * * * * * * * * * * * * * //

dimensions      [0 0 0 0 0 0 0];

internalField   uniform 0;

boundaryField
{
    inlet
    {
        type            calculated;
        value           uniform 0;
    }
    outlet
    {
        type            calculated;
        value           uniform 0;
    }
    roughCylinder
    {
        type            calculated;
        value           nonuniform List<scalar> 
5120
(
94.1814
61.0091
53.0818
56.4982
62.5224
67.6144
71.8346
75.3569
78.3485
80.9807
83.3576
85.5422
87.5939
89.5291
91.3993
93.2231
95.0576
96.9237
98.8619
100.881
102.984
105.169
107.429
109.753
112.122
114.514
116.894
119.21
121.391
123.333
124.853
125.701
95.5182
61.4924
52.452
55.1062
60.9484
65.9653
70.1327
73.6334
76.6286
79.2563
81.6201
83.7816
85.7791
87.6749
89.4748
91.2425
93.001
94.8095
96.676
98.6189
100.645
102.752
104.931
107.171
109.457
111.765
114.059
116.294
118.398
120.272
121.738
122.554
95.8219
61.9297
52.0633
53.6777
59.2718
64.245
68.4087
71.9197
74.9175
77.5548
79.9169
82.0423
84.0146
85.8425
87.5993
89.2961
91.0022
92.7282
94.5228
96.396
98.3479
100.377
102.477
104.636
106.838
109.06
111.271
113.424
115.452
117.258
118.671
119.456
78.2973
60.0269
50.9086
52.2244
57.6579
62.5767
66.7033
70.2058
73.2351
75.8857
78.2329
80.3582
82.2728
84.0783
85.7661
87.4178
89.0461
90.7251
92.4556
94.255
96.1331
98.0873
100.11
102.189
104.31
106.45
108.579
110.653
112.606
114.345
115.705
116.459
93.6409
61.8851
50.8093
50.7907
55.91
60.7931
64.9493
68.5089
71.5575
74.2227
76.5918
78.6793
80.5983
82.3371
83.9991
85.583
87.1764
88.7747
90.4361
92.1737
93.9849
95.8673
97.8148
99.8169
101.859
103.919
105.969
107.965
109.845
111.521
112.83
113.554
76.2417
59.3334
49.6208
49.3445
54.2416
59.1004
63.2415
66.7853
69.8807
72.5864
74.9365
77.0569
78.9237
80.6676
82.2662
83.825
85.3396
86.9059
88.5173
90.1875
91.9303
93.7444
95.6204
97.5487
99.5149
101.498
103.471
105.393
107.203
108.815
110.076
110.77
90.4682
61.1723
49.3618
47.8248
52.3859
57.2048
61.3982
65.0591
68.198
70.9108
73.3229
75.4
77.3098
78.995
80.5954
82.0905
83.5961
85.0866
86.6304
88.248
89.933
91.6816
93.4895
95.3466
97.239
99.1471
101.045
102.893
104.636
106.188
107.401
108.067
83.2263
59.3674
48.8347
46.4697
50.5997
55.4258
59.6485
63.2694
66.4561
69.2608
71.6428
73.804
75.6566
77.3876
78.9344
80.4362
81.8615
83.3378
84.852
86.4102
88.0324
89.7195
91.4625
93.251
95.0727
96.9089
98.7345
100.514
102.189
103.683
104.849
105.487
93.4296
59.5672
47.674
44.7835
48.5409
53.3042
57.5833
61.4129
64.7054
67.4975
70.0104
72.1134
74.0628
75.7348
77.3223
78.7651
80.2184
81.6283
83.0741
84.5903
86.1654
87.7941
89.4739
91.1962
92.9484
94.7132
96.4676
98.1761
99.788
101.226
102.347
102.956
78.4348
60.2447
47.9865
43.4536
46.4884
51.2799
55.6946
59.4564
62.7797
65.7656
68.2229
70.4926
72.3728
74.1426
75.6765
77.1695
78.5387
79.9558
81.402
82.8694
84.387
85.9607
87.5809
89.2391
90.9237
92.6206
94.305
95.9483
97.4971
98.8786
99.9553
100.536
77.9232
57.7777
46.5856
41.5758
44.0447
48.7156
53.1527
57.2838
60.8598
63.7882
66.5037
68.683
70.7432
72.4468
74.0752
75.4992
76.9429
78.3061
79.6764
81.112
82.5947
84.1166
85.6782
87.2734
88.8917
90.5178
92.1334
93.707
95.1936
96.5217
97.5544
98.106
82.0612
59.2091
47.0774
40.1375
41.4103
46.1049
50.9379
54.9765
58.5327
61.872
64.4736
66.9642
68.9297
70.8125
72.3767
73.9157
75.2628
76.6517
78.0622
79.4606
80.8895
82.3621
83.8693
85.4037
86.9571
88.5183
90.0664
91.5779
93.0027
94.2752
95.2645
95.7887
75.9723
56.5363
45.7975
38.4545
38.3422
42.6782
47.3693
52.1161
56.276
59.4435
62.5629
64.8977
67.1857
68.9819
70.7303
72.1763
73.6614
75.0162
76.3329
77.7097
79.1184
80.5465
81.9989
83.4732
84.9615
86.4519
87.9319
89.3719
90.7358
91.9562
92.9024
93.3963
74.2925
56.8897
45.5519
36.4782
34.6062
38.649
44.4396
49.0574
53.0648
57.1696
60.0374
62.9698
65.1098
67.2273
68.8792
70.5452
71.9141
73.3141
74.7304
76.0864
77.4432
78.8274
80.2304
81.6467
83.0719
84.5001
85.9131
87.2945
88.5972
89.7622
90.665
91.1322
62.9827
53.9759
45.0098
35.1797
30.0286
33.2768
38.2143
44.5768
50.1403
53.745
57.7547
60.3875
63.1341
65.1157
67.1131
68.6354
70.2353
71.6331
72.9219
74.2657
75.6225
76.9703
78.3211
79.6784
81.0382
82.3925
83.7355
85.0414
86.282
87.3955
88.2546
88.6898
44.6516
46.1598
41.285
32.295
24.282
24.4685
33.64
39.467
44.653
50.7957
54.1584
58.0642
60.5381
63.1266
64.952
66.8758
68.3239
69.7878
71.268
72.6155
73.9184
75.2266
76.5329
77.8338
79.1307
80.4249
81.7006
82.9516
84.1306
85.1874
86.002
86.4111
21.7584
34.3537
34.3226
28.4635
14.212
6.90756
11.7257
30.2339
40.1773
44.6578
51.1504
54.3692
58.1336
60.4669
62.9578
64.6332
66.4654
67.9794
69.269
70.6098
71.9414
73.223
74.4771
75.7176
76.9453
78.1574
79.358
80.5229
81.6363
82.64
83.4096
83.7815
3.25373
15.6442
15.2103
10.9723
15.6709
15.683
16.5053
20.5687
25.5159
40.4307
44.6787
51.3079
54.4353
58.0555
60.2052
62.6329
64.2391
65.8423
67.4739
68.8591
70.1272
71.3708
72.5851
73.7685
74.9314
76.0854
77.2164
78.3325
79.3823
80.326
81.0488
81.3958
12.6127
9.17244
7.51986
14.2971
15.4301
16.5581
17.2852
17.6366
20.2292
20.5628
40.2025
44.5963
51.2287
54.2532
57.8015
59.7516
62.0381
63.7874
65.1076
66.4816
67.8231
69.0529
70.2104
71.3275
72.4115
73.466
74.5102
75.5187
76.4943
77.381
78.0543
78.3546
11.2248
10.4668
8.48017
15.164
8.59334
8.57393
8.23824
8.10657
19.3542
11.0704
18.9667
40.2477
44.6186
51.071
53.8439
57.3483
59.2313
61.0983
63.0341
64.529
65.7818
66.97
68.0927
69.1494
70.1636
71.1641
72.1345
73.1073
74.0168
74.8374
75.46
75.7387
1.02349
11.2475
10.3546
16.4049
17.9837
19.1858
20.8475
20.8794
21.0556
20.5507
20.9086
16.7848
39.9032
44.3233
50.6986
53.1267
56.3964
58.6062
59.9878
61.4415
62.8478
64.0431
65.096
66.0718
66.987
67.8526
68.7132
69.5333
70.3507
71.1066
71.6703
71.8828
6.15892
14.9861
18.8722
21.0609
19.4584
8.9918
19.3808
24.7399
15.2859
14.7933
9.87674
12.9502
18.908
39.7552
43.7011
50.0858
52.4149
54.8286
57.3892
59.1409
60.4002
61.54
62.5662
63.4758
64.3127
65.137
65.9193
66.7387
67.4896
68.1705
68.6793
68.8796
7.07972
17.0707
22.0649
25.755
28.3109
29.5695
24.8995
13.9343
26.5784
11.4782
18.4977
23.3101
21.8418
19.0642
39.2944
42.3754
48.4087
51.5542
53.0427
54.615
56.2016
57.3932
58.3194
59.1148
59.8098
60.4207
61.0446
61.6095
62.2299
62.832
63.2616
63.3516
6.36317
15.7971
21.5748
25.9041
28.8505
30.3933
31.3947
30.2099
17.6949
2.00802
20.502
18.9811
22.6375
22.1089
18.0606
38.6285
41.2377
45.265
49.2574
51.7515
53.0454
54.1417
55.0607
55.7851
56.3905
57.0076
57.5559
58.2253
58.7907
59.3088
59.6836
59.7939
5.84812
13.9856
19.6489
24.1595
27.7865
30.547
31.9226
31.8205
32.2393
22.6255
30.2478
28.7523
24.8233
21.9831
22.0475
11.8366
35.512
40.4587
42.3251
43.7219
45.835
47.1267
47.8632
48.379
48.7179
48.8989
49.1518
49.268
49.6125
50.0062
50.2583
50.1088
5.74935
12.9826
17.8945
21.9958
25.3629
28.0879
30.2551
31.7551
30.9624
31.2448
23.1471
25.2321
12.3334
24.667
22.8055
12.5911
25.8812
25.1476
34.1835
40.0509
41.427
42.3926
43.1932
43.652
43.9597
44.2914
44.5221
45.2403
45.5559
45.9261
46.0312
46.168
5.35764
12.5483
16.3757
20.0056
23.2208
25.9809
28.1291
29.495
30.8652
30.212
30.4251
20.3459
10.1218
28.4954
13.0282
16.8326
11.2212
18.4068
18.0351
15.7482
22.0614
25.1718
25.3466
25.0435
22.9841
22.7602
21.759
18.2801
17.5404
17.5148
19.1273
15.4034
5.2732
12.7719
14.6002
17.3382
20.1084
22.6677
24.9425
26.8982
27.9816
29.2682
28.7895
29.4667
16.4092
25.0374
14.2742
26.1741
17.0759
15.6662
4.93471
18.4284
7.69333
26.5207
27.9006
28.0596
20.4283
28.8042
29.1015
10.4201
22.9245
10.539
31.5893
9.51306
4.92761
12.2914
13.0633
14.8363
16.9467
19.1643
21.3156
23.2496
25.2001
26.4251
27.8469
27.2545
28.375
19.9935
29.2563
20.4425
15.2631
18.9577
6.4473
2.41963
20.1817
5.68385
19.3945
8.03294
20.7845
2.45521
6.03874
29.1403
7.86059
30.242
23.0141
31.4155
4.66852
12.7605
12.1074
12.7372
13.8912
15.4144
17.2599
19.3565
21.328
23.4252
24.797
26.4795
25.5195
23.2259
9.78226
20.0291
11.5664
21.9648
25.7849
26.0508
12.9461
26.7321
28.5722
30.02
24.9477
18.6243
27.5014
30.3457
18.3858
8.64993
21.5971
20.1329
4.60385
12.1503
12.0062
12.0607
12.4263
13.1455
14.255
15.7581
17.7911
19.8347
22.0564
23.492
25.6407
26.0315
23.5286
13.1397
23.443
9.56039
26.5638
14.3555
25.0234
29.2376
15.626
27.6963
20.4097
17.3782
24.6469
31.6472
25.9339
13.4109
22.7049
9.51513
4.30676
11.7374
11.9172
11.7584
11.8198
12.1063
12.6352
13.4898
14.6925
16.5638
18.5824
20.9746
22.5038
24.668
26.295
23.8562
13.1682
22.7593
28.8459
23.8655
26.6831
18.2206
8.53798
20.0791
19.9505
12.1402
20.4288
6.07427
23.7907
11.9803
23.6371
25.6705
4.04271
11.1062
11.6769
11.6335
11.8531
12.2517
12.6595
12.9936
13.4899
14.2875
15.8903
17.8074
20.4598
22.4742
24.4857
27.4322
28.9207
23.3827
19.8527
14.2271
12.5499
12.001
15.752
17.1514
19.7573
21.7485
22.2822
24.3493
23.3219
24.3433
24.0722
23.8667
3.99505
11.2831
11.9914
11.557
11.7802
12.2421
12.7402
13.1668
13.4214
13.6971
14.1788
15.5765
17.3654
20.0915
22.8512
24.6628
26.5614
29.2782
30.2895
30.8004
30.9653
31.28
31.2467
31.3678
31.4434
31.5891
31.7231
31.8732
31.9504
32.0874
31.9903
32.114
4.01545
11.6066
11.5539
11.6674
12.1821
12.7828
13.2355
13.535
13.7925
13.9578
14.1397
14.4357
15.7421
17.6004
20.1621
23.4764
25.9655
26.9967
27.9383
28.3377
28.5396
28.5782
28.7123
28.8655
29.1532
29.4116
29.6839
29.9189
30.0177
30.1264
30.161
30.117
3.89131
11.9179
11.6039
11.9808
12.6229
13.2699
13.782
14.1136
14.2685
14.3883
14.505
14.7291
14.9711
16.0943
18.0479
20.2442
23.1402
25.9535
27.6894
28.7287
29.1875
29.3933
29.3753
29.4148
29.4911
29.6328
29.8047
30.0121
30.1484
30.2288
30.2663
30.2132
4.0037
11.5554
11.7052
12.4416
13.3511
14.116
14.6306
14.9248
15.0768
15.113
15.149
15.2449
15.5902
16.0355
17.0705
19.1058
21.1351
23.0873
24.8851
26.0723
26.7799
27.1329
27.401
27.6752
28.0024
28.3288
28.6735
28.9727
29.1584
29.3023
29.3083
29.2899
4.00825
11.3707
12.2435
13.223
14.2099
15.0092
15.5678
15.8967
16.0378
16.0853
16.0862
16.1372
16.2832
16.7347
17.434
18.4074
20.267
22.3169
24.0932
25.4779
26.4184
27.0748
27.5358
27.9638
28.384
28.8013
29.1934
29.5439
29.8109
29.9595
30.0315
29.9902
4.14201
11.6799
12.7631
14.0163
15.1765
16.0736
16.6831
17.048
17.2281
17.2786
17.2942
17.3294
17.4693
17.7521
18.3416
19.3193
20.3574
21.7864
23.3486
24.739
25.8579
26.7138
27.4377
28.0924
28.7143
29.2921
29.8293
30.2793
30.6096
30.8252
30.9011
30.9033
4.22529
11.8096
13.397
14.9598
16.2499
17.2057
17.8701
18.2944
18.5308
18.6481
18.6994
18.7643
18.9063
19.2036
19.6898
20.4272
21.6099
22.888
24.2431
25.5482
26.7006
27.6935
28.5465
29.3287
30.0642
30.7479
31.367
31.8946
32.3033
32.5639
32.6919
32.6983
4.3745
4.57478
4.49077
5.25577
5.78725
6.65805
7.56993
8.6464
9.66634
10.5691
11.1846
11.425
11.2307
10.5363
9.49762
8.78658
7.93739
7.3046
6.84843
6.53283
6.511
6.87188
7.35655
7.97723
8.85825
9.54824
10.4581
11.071
11.1707
10.8686
10.1905
9.30304
8.26848
7.28388
6.34499
5.64838
4.96326
4.43533
4.59941
4.16554
11.9126
12.3897
11.862
12.9735
13.3274
13.9969
14.4261
14.8935
15.1834
15.3979
15.4535
15.4048
15.2499
15.0473
14.8737
14.7974
14.7195
14.702
14.6044
14.367
14.3075
14.5893
14.6867
14.6987
14.7843
14.8795
15.0354
15.2288
15.3462
15.3829
15.2687
15.0637
14.6958
14.2908
13.7189
13.2434
12.606
11.6901
12.6343
11.5084
14.1811
14.5962
14.9981
15.6633
16.0277
16.5038
16.7782
17.0602
17.1968
17.3001
17.3069
17.2781
17.2033
17.1263
17.0697
17.0477
17.0441
17.0407
16.8743
16.4512
16.4056
16.8922
17.0475
17.0424
17.0448
17.0751
17.1215
17.1971
17.2422
17.2672
17.2101
17.1158
16.9066
16.6634
16.276
15.8981
15.3864
14.7677
14.4559
13.9389
15.99
16.4424
16.9742
17.4266
17.8043
18.1591
18.4116
18.6406
18.7816
18.895
18.9483
18.9823
18.9987
19.0301
19.1007
19.2292
19.4113
19.5748
19.5361
19.2076
19.1832
19.5586
19.5759
19.3992
19.2114
19.0877
19.0126
18.9804
18.9418
18.9015
18.809
18.6934
18.5014
18.2794
17.967
17.6292
17.2014
16.7303
16.215
15.7533
17.3888
17.813
18.3395
18.7329
19.1333
19.4569
19.744
19.9781
20.1654
20.3149
20.4327
20.5395
20.6561
20.8096
21.0359
21.356
21.7625
22.1609
22.3624
22.262
22.2459
22.3642
22.1345
21.7163
21.3049
20.9904
20.7651
20.6122
20.4808
20.3654
20.22
20.057
19.8362
19.5881
19.2705
18.9319
18.5118
18.0947
17.5633
17.1243
18.4144
18.8208
19.3669
19.7618
20.1947
20.5307
20.8588
21.119
21.3569
21.5527
21.7396
21.9263
22.1449
22.4208
22.7942
23.2857
23.882
24.4776
24.8804
24.9729
24.9563
24.8593
24.4227
23.8031
23.2014
22.7159
22.3465
22.0717
21.844
21.6475
21.4404
21.2262
20.964
20.6832
20.3337
19.9768
19.5289
19.1133
18.5594
18.1333
19.1456
19.5638
20.1488
20.5659
21.0377
21.402
21.7725
22.071
22.3619
22.6135
22.8728
23.1437
23.4634
23.8554
24.3592
24.9912
25.7307
26.4676
27.0148
27.24
27.2206
26.9741
26.389
25.6255
24.879
24.2516
23.7526
23.362
23.0365
22.7563
22.4814
22.211
21.8997
21.5803
21.1909
20.8063
20.3194
19.8838
19.2888
18.8545
19.64
20.0901
20.7234
21.1767
21.6941
22.098
22.5154
22.8612
23.2078
23.5211
23.8541
24.209
24.6249
25.1222
25.7359
26.4756
27.3132
28.1386
28.7755
29.0809
29.0586
28.7198
28.0423
27.1887
26.3416
25.6039
24.9942
24.4982
24.0787
23.7155
23.3708
23.0406
22.6758
22.3102
21.8749
21.4516
20.9189
20.4481
19.8028
19.3398
19.9504
20.4458
21.1363
21.6389
22.208
22.6605
23.1279
23.5253
23.9274
24.3021
24.7049
25.1381
25.6395
26.226
26.9252
27.7388
28.6318
29.4978
30.1746
30.5181
30.4941
30.1089
29.3899
28.4947
27.5894
26.7748
26.0777
25.492
24.9883
24.5485
24.1369
23.7477
23.3297
22.914
22.4297
21.9581
21.3737
20.8528
20.1506
19.641
20.1324
20.6876
21.4397
22.0007
22.6251
23.1298
23.6471
24.0948
24.5479
24.978
25.4414
25.941
26.5116
27.1656
27.9224
28.7753
29.6838
30.5479
31.2225
31.5722
31.5473
31.1518
30.4343
29.5402
28.617
27.76
27.0032
26.3492
25.7772
25.2728
24.8028
24.3609
23.894
23.4299
22.8963
22.3731
21.7325
21.1531
20.3878
19.8192
20.2506
20.8658
21.684
22.3042
22.9852
23.5405
24.1045
24.5968
25.0928
25.5674
26.0776
26.6262
27.2444
27.9398
28.7236
29.5814
30.4696
31.2967
31.9367
32.2697
32.245
31.8651
31.1832
30.3259
29.421
28.5562
27.7705
27.0745
26.4555
25.9038
25.3889
24.9049
24.3969
23.8904
23.31
22.7378
22.0376
21.4021
20.5638
19.9461
20.3608
21.0293
21.9107
22.5889
23.323
23.9257
24.5304
25.0591
25.5871
26.0919
26.6319
27.2079
27.8488
28.5563
29.3357
30.1662
31.0037
31.7667
32.3494
32.6511
32.6275
32.2805
31.6581
30.8657
30.0104
29.171
28.3885
27.6798
27.0388
26.4612
25.918
25.4061
24.867
24.3264
23.7049
23.0872
22.3317
21.6398
20.7361
20.0689
20.5262
21.2188
22.1648
22.8903
23.677
24.3187
24.96
25.5142
26.0639
26.5829
27.1349
27.7154
28.3529
29.0435
29.7881
30.5628
31.3253
32.0052
32.5164
32.7784
32.7569
32.4533
31.9059
31.1987
30.4186
29.6344
28.8859
28.1943
27.5572
26.9761
26.4223
25.8976
25.338
24.773
24.1153
23.4594
22.6522
21.9112
20.9514
20.2458
20.7754
21.4934
22.4847
23.2498
24.0844
24.7591
25.4316
26.0038
26.5647
27.0863
27.6337
28.1993
28.8099
29.4584
30.143
30.8394
31.5093
32.0946
32.5276
32.7465
32.7279
32.4729
32.0086
31.3993
30.7135
30.0083
29.3201
28.6706
28.061
27.4951
26.9472
26.4208
25.8515
25.2679
24.5812
23.8921
23.0391
22.262
21.2559
20.5384
21.2054
21.8892
22.9159
23.7096
24.579
25.2897
25.9827
26.575
27.1376
27.659
28.1902
28.7305
29.2984
29.8891
30.4977
31.1027
31.6719
32.1592
32.5137
32.6902
32.6751
32.4695
32.0898
31.5829
31.0008
30.3885
29.7768
29.1855
28.6186
28.0784
27.547
27.0216
26.4522
25.8482
25.1442
24.418
23.5372
22.7303
21.7005
21.0169
21.8464
22.469
23.4873
24.3072
25.1918
25.9409
26.6497
27.2648
27.8306
28.3538
28.8693
29.3832
29.9065
30.4371
30.9684
31.4831
31.9554
32.3514
32.6343
32.7729
32.7619
32.6018
32.3001
31.8898
31.4078
30.8877
30.3543
29.8236
29.3008
28.7872
28.2707
27.7448
27.1726
26.5489
25.8296
25.07
24.1765
23.3499
22.3346
21.7184
22.6348
23.2985
24.2045
25.0653
25.9391
26.7255
27.4517
28.0916
28.6704
29.2019
29.7133
30.2101
30.701
31.1831
31.6511
32.091
32.4839
32.8056
33.0311
33.1398
33.1325
33.0095
32.7716
32.4404
32.0411
31.5977
31.1282
30.646
30.1554
29.6589
29.1464
28.613
28.0286
27.3836
26.6488
25.8579
24.9778
24.1179
23.2194
22.5641
23.7196
24.2486
25.1202
25.9393
26.83
27.6255
28.383
29.0451
29.6495
30.1987
30.7212
31.2168
31.694
32.1486
32.5767
32.9669
33.3058
33.5767
33.7631
33.8517
33.8473
33.7502
33.5564
33.28
32.9372
32.5449
32.1161
31.6618
31.1848
30.6894
30.166
29.6158
29.0075
28.3435
27.5798
26.7858
25.8904
25.0807
24.2129
23.7021
24.9267
25.3233
26.1378
26.9203
27.8083
28.6173
29.3989
30.0901
30.7236
31.3023
31.8476
32.358
32.8393
33.2874
33.6983
34.0636
34.3733
34.6158
34.7799
34.8573
34.855
34.7731
34.6049
34.3595
34.0479
33.6819
33.2708
32.8231
32.3422
31.8324
31.287
30.7086
30.0729
29.3824
28.5975
27.7935
26.9031
26.1332
25.321
24.9425
26.1439
26.4353
27.2004
27.9478
28.8303
29.6483
30.4512
31.1702
31.8379
32.4513
33.0266
33.5612
34.0588
34.5147
34.9253
35.2837
35.582
35.8123
35.9664
36.0388
36.0378
35.9633
35.8075
35.5763
35.2774
34.9192
34.5091
34.0541
33.5577
33.0241
32.4495
31.8372
31.1695
30.4526
29.6496
28.8375
27.9555
27.2198
26.4562
26.1795
27.2868
27.5255
28.2565
28.9817
29.8572
30.6844
31.5052
32.2518
32.9525
33.6003
34.2069
34.7685
35.2867
35.7571
36.176
36.5372
36.8346
37.0618
37.2132
37.2844
37.2843
37.2128
37.0615
36.8346
36.5379
36.1777
35.7603
35.2914
34.775
34.2151
33.6102
32.9643
32.2654
31.5215
30.7034
29.8813
29.0087
28.2927
27.5617
27.3368
28.33
28.5592
29.2897
30.0061
30.8845
31.7204
32.5576
33.3264
34.0556
34.7329
35.3674
35.9536
36.4919
36.9776
37.407
37.7746
38.0754
38.304
38.4558
38.5277
38.5283
38.4577
38.3072
38.0803
37.7815
37.4158
36.9887
36.5055
35.9697
35.3859
34.754
34.0793
33.353
32.5872
31.7547
30.9219
30.0499
29.3359
28.612
28.3831
29.2882
29.5422
30.2981
31.0228
31.9127
32.76
33.6123
34.3991
35.1511
35.8521
36.509
37.1151
37.6698
38.1685
38.6073
38.9815
39.2863
39.5174
39.6708
39.744
39.7452
39.6748
39.5241
39.2959
38.9941
38.623
38.1873
37.6918
37.1402
36.5373
35.8835
35.1859
34.4368
33.6537
32.8053
31.9629
31.0764
30.3563
29.6017
29.3505
30.1833
30.4825
31.2804
32.0265
32.936
33.7981
34.666
35.4717
36.2436
36.9635
37.6377
38.2589
38.8261
39.3345
39.7805
40.1596
40.4678
40.701
40.8559
40.9301
40.932
40.8618
40.7108
40.4816
40.1774
39.8023
39.3603
38.8559
38.2924
37.6749
37.0042
36.2876
35.519
34.7167
33.8525
32.9945
32.0882
31.3459
30.5483
30.2529
31.0319
31.3833
32.2341
33.012
33.949
34.8311
35.7169
36.5409
37.3301
38.0659
38.7538
39.3865
39.9627
40.4781
40.9291
41.3116
41.622
41.8567
42.0125
42.0876
42.09
42.02
41.8691
41.6394
41.334
40.9563
40.5099
39.9991
39.427
38.7984
38.1142
37.3819
36.5961
35.7755
34.8934
34.0151
33.081
32.306
31.4561
31.1063
31.8239
32.2316
33.1412
33.9581
34.929
35.8359
36.7424
37.5857
38.3921
39.1428
39.8431
40.4857
41.0696
41.5905
42.0454
42.4305
42.7425
42.9782
43.1349
43.2104
43.2132
43.1436
42.9927
42.7629
42.4565
42.0769
41.6272
41.1111
40.5317
39.8934
39.1969
38.4498
37.6466
36.8067
35.9038
35.0005
34.0324
33.2177
32.309
31.9009
32.541
33.0066
33.975
34.8354
35.8438
36.7793
37.7095
38.5738
39.3986
40.1648
40.8777
41.5304
42.1221
42.6487
43.1077
43.4956
43.8093
44.046
44.2034
44.2794
44.2825
44.2131
44.0622
43.8318
43.5241
43.1422
42.6888
42.1673
41.5804
40.9321
40.2229
39.4604
38.6388
37.7778
36.8513
35.9193
34.9138
34.0557
33.0878
32.624
33.1523
33.6762
34.699
35.6053
36.6521
37.6192
38.5752
39.4626
40.3073
41.0903
41.8174
42.4815
43.0822
43.6158
44.0799
44.4716
44.7879
45.0263
45.1846
45.2611
45.2644
45.1949
45.0435
44.8118
44.502
44.1166
43.6582
43.13
42.5342
41.8744
41.1512
40.3716
39.53
38.6457
37.6932
36.7295
35.6848
34.7809
33.7569
33.2367
33.6291
34.2054
35.2803
36.2303
37.3154
38.3142
39.2969
40.208
41.0734
41.8743
42.6164
43.2931
43.9041
44.4459
44.9165
45.313
45.6328
45.8738
46.0335
46.1105
46.1139
46.0442
45.8916
45.6578
45.3446
44.9546
44.49
43.9536
43.3474
42.6752
41.9369
41.1393
40.2768
39.3684
38.3883
37.3924
36.3097
35.3623
34.2877
33.7136
33.9487
34.5706
35.688
36.6766
37.7959
38.8243
39.8328
40.7668
41.6523
42.4709
43.2282
43.9179
44.5398
45.0908
45.5686
45.9708
46.2951
46.539
46.7006
46.7782
46.7817
46.7114
46.5572
46.3205
46.0031
45.6074
45.1356
44.5901
43.973
43.2876
42.534
41.7185
40.8357
39.904
38.8976
37.872
36.7549
35.7692
34.6504
34.0329
34.1086
34.7627
35.9121
36.9294
38.0746
39.1262
40.1553
41.1078
42.0099
42.843
43.6132
44.3142
44.9459
45.5049
45.9896
46.3972
46.7255
46.9724
47.1358
47.214
47.2175
47.1467
46.9908
46.7512
46.4299
46.0288
45.5503
44.9967
44.3701
43.6734
42.9069
42.0768
41.1775
40.2272
39.2004
38.1516
37.0089
35.9936
34.8446
34.1903
34.1397
34.8114
35.9804
37.0141
38.1747
39.2397
40.2808
41.244
42.1557
42.9976
43.7755
44.4832
45.1208
45.6849
46.1738
46.5848
46.9158
47.1644
47.329
47.4075
47.4111
47.3399
47.183
46.9416
46.6176
46.2132
45.7305
45.172
44.5394
43.8359
43.0618
42.2231
41.3142
40.3534
39.3147
38.253
37.0952
36.0639
34.8953
34.225
97.3816
62.5022
53.4064
56.5248
62.5271
67.6166
71.8346
75.3558
78.3463
80.9776
83.3545
85.5389
87.5905
89.5257
91.3959
93.2197
95.0547
96.921
98.8593
100.879
102.982
105.168
107.428
109.752
112.122
114.514
116.894
119.211
121.393
123.335
124.855
125.703
94.9551
60.6058
52.0049
55.0723
60.95
65.9642
70.1306
73.6301
76.6249
79.2531
81.6163
83.7779
85.7753
87.6712
89.4712
91.2393
92.9978
94.8065
96.6735
98.6164
100.643
102.75
104.93
107.171
109.457
111.765
114.06
116.295
118.4
120.273
121.74
122.556
96.0436
61.7883
51.8326
53.6576
59.2761
64.2451
68.4061
71.9163
74.9139
77.55
79.9125
82.038
84.0104
85.8384
87.5956
89.2923
90.9989
92.7255
94.5201
96.3939
98.346
100.376
102.475
104.635
106.837
109.06
111.272
113.425
115.453
117.26
118.673
119.458
94.0204
60.3306
50.5398
52.1622
57.6498
62.5694
66.6978
70.2006
73.229
75.8806
78.2275
80.3531
82.2679
84.0736
85.7614
87.4141
89.0423
90.7213
92.4526
94.2522
96.1312
98.0858
100.108
102.188
104.309
106.45
108.579
110.654
112.607
114.346
115.707
116.461
78.4728
60.646
50.5584
50.7702
55.9127
60.7913
64.9431
68.501
71.5508
74.2153
76.5854
78.6733
80.5927
82.3319
83.9948
85.5782
87.1724
88.7716
90.4329
92.1713
93.9825
95.8654
97.8134
99.816
101.859
103.919
105.969
107.965
109.846
111.522
112.832
113.556
89.2911
59.4243
49.2562
49.2518
54.2219
59.0847
63.2312
66.7784
69.8726
72.5793
74.9289
77.05
78.9172
80.6617
82.2598
83.8203
85.335
86.9013
88.5138
90.184
91.9278
93.7421
95.6191
97.5479
99.514
101.498
103.471
105.393
107.203
108.817
110.077
110.772
79.2829
60.7655
49.4056
47.8431
52.3879
57.2027
61.3891
65.0453
68.1865
70.8993
73.3138
75.3915
77.302
78.988
80.5906
82.0846
83.5912
85.0829
86.6264
88.2451
89.93
91.6792
93.4877
95.3453
97.2381
99.1471
101.045
102.894
104.636
106.189
107.403
108.069
69.1433
57.4904
48.2626
46.3607
50.5683
55.3985
59.6307
63.2597
66.4459
69.2522
71.6325
73.7946
75.6479
77.3802
78.9255
80.4301
81.8559
83.3319
84.8476
86.406
88.0293
89.7169
91.4602
93.2492
95.0714
96.9081
98.7345
100.514
102.19
103.684
104.851
105.489
84.6434
59.3111
47.9426
44.8124
48.5382
53.3006
57.5702
61.3915
64.6869
67.4794
69.9973
72.1015
74.0524
75.7249
77.3164
78.7575
80.2119
81.6237
83.0693
84.5866
86.1616
87.7911
89.4714
91.1944
92.9471
94.7128
96.4667
98.1761
99.7888
101.227
102.349
102.958
69.5644
57.6001
47.3957
43.3439
46.4388
51.2372
55.6666
59.4435
62.7666
65.7557
68.2093
70.4799
72.361
74.1332
75.6642
77.1612
78.5318
79.9481
81.396
82.8639
84.383
85.9571
87.578
89.2365
90.922
92.6184
94.3046
95.9483
97.4971
98.879
99.9561
100.537
87.4948
59.7236
46.9345
41.6066
44.0366
48.7055
53.132
57.2478
60.8299
63.7594
66.4844
68.6664
70.7292
72.433
74.0676
75.4895
76.9334
78.3
79.6707
81.107
82.5897
84.1125
85.6748
87.2706
88.8895
90.517
92.1321
93.7062
95.1936
96.5217
97.5552
98.1072
70.6855
58.4376
47.1858
40.1609
41.362
46.0462
50.8936
54.9624
58.5178
61.8614
64.4553
66.9471
68.913
70.7998
72.3605
73.9045
75.2551
76.6416
78.0531
79.4536
80.8842
82.3574
83.8654
85.4006
86.9545
88.5148
90.0655
91.5766
93.0018
94.2748
95.2649
95.7895
76.9647
56.984
45.8918
38.4077
38.2997
42.6374
47.3323
52.0483
56.2216
59.3941
62.5335
64.8735
67.1671
68.963
70.7189
72.163
73.6462
75.0081
76.3272
77.703
79.1118
80.541
81.9942
83.4692
84.9582
86.4508
87.9293
89.3706
90.7346
91.9558
92.9019
93.3971
74.5684
56.9954
45.5028
36.3504
34.4757
38.5678
44.3589
49.0461
53.0513
57.1618
60.0117
62.9461
65.0857
67.2096
68.8592
70.531
71.908
73.3006
74.7156
76.077
77.4363
78.8212
80.2252
81.6424
83.0683
84.4949
85.9112
87.2923
88.5955
89.761
90.6646
91.1326
62.8556
53.9374
44.9662
35.0712
29.9226
33.0958
38.1392
44.4205
50.0308
53.6535
57.7089
60.3506
63.1084
65.0897
67.0943
68.6161
70.2083
71.6224
72.9188
74.2569
75.6136
76.9629
78.3147
79.6728
81.0333
82.391
83.7315
85.0387
86.2799
87.3942
88.2534
88.6898
44.3774
46.0605
41.2572
32.2755
24.0971
24.5753
33.3515
39.5084
44.6515
50.7917
54.1132
58.0293
60.5019
63.1015
64.9285
66.858
68.3251
69.77
71.2417
72.6029
73.9093
75.2186
76.526
77.8279
79.1257
80.417
81.6977
82.9484
84.128
85.1846
86.0011
86.4107
21.3813
34.272
34.2687
28.3975
11.1745
17.3998
12.8034
29.6124
39.9079
44.4782
51.0855
54.3091
58.0962
60.4292
62.9269
64.6055
66.4169
67.9647
69.2752
70.5986
71.9296
73.2131
74.4685
75.71
76.9383
78.1557
79.3518
80.5184
81.6329
82.6373
83.4071
83.7809
12.0047
15.4459
14.8831
8.80542
6.37784
15.8074
16.5756
20.4637
25.2045
40.3596
44.547
51.2487
54.3751
58.0187
60.1746
62.6079
64.2532
65.8184
67.4228
68.8417
70.1152
71.3603
72.5759
73.7606
74.9249
76.0732
77.2124
78.3277
79.3785
80.3214
81.047
81.3944
6.22584
9.41683
12.8539
14.0422
15.3707
16.4355
17.1723
18.0583
12.3466
20.5289
40.1628
44.4756
51.1719
54.1924
57.7561
59.7148
61.9614
63.7675
65.139
66.4678
67.8072
69.0393
70.1987
71.3169
72.4011
73.4649
74.5004
75.5114
76.4887
77.3764
78.0496
78.353
8.39615
7.38243
8.38766
9.75608
16.9107
17.9844
18.8558
19.3658
5.876
20.4011
17.9327
40.1393
44.4904
51.0143
53.7896
57.3051
59.2515
61.0626
62.9339
64.5032
65.7658
66.9562
68.0804
69.1385
70.1551
71.1444
72.1301
73.1006
74.011
74.83
75.457
75.736
3.07491
12.0754
14.7605
10.6789
10.2584
14.0093
13.1666
13.4829
21.8702
20.3612
20.8282
15.9949
39.8166
44.1991
50.6424
53.0801
56.2968
58.583
60.0632
61.4257
62.8256
64.0238
65.0793
66.0565
66.9709
67.8538
68.6963
69.5217
70.3419
71.0992
71.6622
71.8797
6.14892
15.2411
19.885
21.2048
20.0064
9.53632
7.54268
9.32677
17.6822
15.0595
10.9391
12.7563
18.2294
39.6729
43.5643
50.0008
52.4186
54.7656
57.2317
59.1002
60.3786
61.5215
62.5494
63.4607
64.3023
65.1032
65.9166
66.7289
67.48
68.1581
68.6747
68.875
7.04522
16.9958
21.9095
25.7719
28.3532
29.911
25.9181
10.3502
14.2264
12.5876
24.2335
21.7975
21.7455
18.3475
39.23
42.3029
48.2608
51.5281
53.0963
54.5957
56.1681
57.364
58.2937
59.091
59.7818
60.4287
61.0119
61.5907
62.2161
62.8206
63.246
63.346
6.3768
15.7979
21.631
25.9693
28.953
30.4049
31.3526
30.9278
18.7045
20.7554
28.2464
25.0576
21.8239
22.0288
17.3947
38.4242
41.3148
45.1567
49.2728
51.6882
53.0137
54.1152
55.0368
55.7635
56.3808
56.9422
57.5614
58.2056
58.7738
59.2821
59.6783
59.7858
5.88421
13.9734
19.6144
24.1275
27.7623
30.5991
32.0293
31.8512
32.203
22.6229
23.6394
19.4661
25.7054
22.4553
22.0246
12.2912
34.7622
40.3258
41.5705
43.682
45.7854
47.072
47.8147
48.3304
48.6481
48.9277
49.0658
49.2457
49.5837
50.0006
50.2191
50.0954
5.80399
13.0592
17.9237
21.992
25.3469
28.0477
30.2169
31.7352
31.0679
31.2467
22.5615
12.7801
12.8
14.3181
22.5901
21.9785
8.26912
25.806
36.5967
39.9032
41.29
42.4069
43.2074
43.6799
43.9922
44.1311
44.6613
45.152
45.47
45.809
46.0342
46.1561
5.42233
12.5026
16.3623
19.9417
23.1351
25.9034
28.073
29.4891
30.8707
30.3493
30.5902
21.2263
2.31994
14.1752
25.2364
23.5654
22.3309
24.3847
26.6702
17.1806
22.9127
23.9003
24.1247
23.6649
22.8468
22.8705
19.884
18.0774
19.1197
17.4609
18.8619
15.29
5.23564
12.0244
14.4461
17.1766
19.9198
22.4792
24.7788
26.7773
27.9486
29.2792
28.9118
29.613
17.2968
23.3136
19.4809
22.1016
4.81433
15.2031
14.2804
25.3498
25.9732
20.8176
21.3233
21.8866
7.7772
28.6249
6.95202
22.4562
31.0504
22.8435
31.712
9.49115
4.79985
11.4782
12.8612
14.593
16.655
18.8602
21.04
23.0401
25.0715
26.4019
27.8856
27.4293
28.5876
9.43142
29.3541
20.1861
2.21042
24.5384
2.16866
17.6815
5.19324
27.5152
6.44438
28.9671
7.51231
28.8142
21.8121
5.99176
21.2695
6.8871
23.0743
31.5649
4.74203
11.9254
12.0284
12.5811
13.6466
15.1127
16.9402
19.0619
21.1036
23.2907
24.7839
26.5504
25.9758
27.335
15.0042
13.4529
25.1481
9.9352
15.8286
14.5504
26.6803
20.1474
23.2325
21.4308
24.3961
16.8505
25.9611
18.3574
33.3169
19.5358
20.811
21.5213
4.41773
12.4668
11.7666
11.9555
12.3328
13.0068
14.053
15.5048
17.5305
19.6226
21.9266
23.4875
25.6116
25.0519
22.9927
9.49753
22.6054
8.29386
11.1946
15.9797
8.35205
24.7588
16.8896
26.0964
26.3862
23.9559
19.1822
5.62018
28.9986
14.4515
18.917
20.0673
4.29003
11.7375
11.5752
11.6947
11.8586
12.1706
12.6628
13.4254
14.526
16.3431
18.393
20.863
22.5461
25.061
26.575
25.0159
13.4409
27.1432
6.02527
26.5904
11.4861
30.637
21.1085
10.3408
5.60197
16.7992
5.76364
27.216
19.3865
30.2266
3.73421
13.49
4.08883
11.3293
11.5636
11.7091
11.9335
12.3646
12.7986
13.1226
13.5457
14.2227
15.7327
17.6658
20.3948
22.4339
24.5867
27.3434
28.9831
24.4639
19.4296
14.4645
11.944
13.4105
15.0822
18.1716
20.8084
21.372
23.7063
23.2809
23.4411
24.3308
25.3875
24.4753
3.99425
12.172
11.6768
11.7325
11.9327
12.3947
12.8926
13.3189
13.5755
13.8132
14.1887
15.4697
17.2235
20.0332
22.7978
24.7211
26.6394
29.2679
30.3125
30.8605
30.9952
31.266
31.2741
31.3318
31.4203
31.5819
31.5985
31.7823
32.0191
31.882
31.9417
32.1889
3.96285
11.4697
11.516
11.6649
12.3121
12.9726
13.4411
13.7307
13.9683
14.1306
14.2994
14.5195
15.7399
17.525
20.1529
23.4623
25.9565
26.9855
27.972
28.3211
28.5403
28.5594
28.6503
28.8483
29.1039
29.3808
29.622
29.8797
29.9746
30.1272
30.1459
30.0148