/*--------------------------------*- C++ -*----------------------------------*\
  =========                 |
  \\      /  F ield         | OpenFOAM: The Open Source CFD Toolbox
   \\    /   O peration     | Website:  https://openfoam.org
    \\  /    A nd           | Version:  6
     \\/     M anipulation  |
\*---------------------------------------------------------------------------*/
FoamFile
{
    version     2.0;
    format      ascii;
    class       volScalarField;
    location    "80";
    object      k;
}
// * * * * * * * * * * * * * * * * * * * * * * * * * * * * * * * * * * * * * //

dimensions      [0 2 -2 0 0 0 0];

internalField   nonuniform List<scalar> 
720
(
0.000278563
0.000278589
0.000278574
0.000215706
0.000215724
0.000215715
0.00016765
0.000167663
0.000167659
0.0001301
0.000130109
0.000130107
0.000100008
0.000100014
0.000100014
7.53743e-05
7.53774e-05
7.53782e-05
5.47265e-05
5.4728e-05
5.47297e-05
3.69355e-05
3.6936e-05
3.69375e-05
2.17856e-05
2.17857e-05
2.17865e-05
3.4211e-05
3.4211e-05
3.42119e-05
0.00100648
0.00100649
0.00100648
0.00096114
0.000961157
0.000961148
0.000909324
0.000909341
0.000909335
0.000850437
0.000850455
0.00085045
0.00078322
0.000783236
0.000783235
0.00070587
0.000705881
0.000705884
0.000615143
0.000615151
0.00061516
0.000504859
0.000504864
0.000504874
0.000370103
0.000370104
0.000370113
0.000104361
0.000104361
0.000104362
0.00107528
0.0010753
0.00107529
0.00103045
0.00103047
0.00103046
0.000981227
0.000981245
0.000981237
0.000926832
0.000926849
0.000926844
0.000865932
0.000865948
0.000865946
0.000796776
0.000796788
0.00079679
0.000716386
0.000716394
0.000716402
0.000619432
0.000619437
0.000619447
0.000512012
0.000512014
0.000512023
0.000143831
0.000143831
0.000143832
0.0010933
0.00109332
0.0010933
0.00104898
0.001049
0.00104899
0.00100044
0.00100046
0.00100045
0.000946885
0.000946904
0.000946898
0.000887027
0.000887044
0.000887041
0.000819207
0.00081922
0.000819222
0.000740789
0.000740798
0.000740806
0.0006482
0.000648207
0.000648217
0.000568621
0.000568624
0.000568633
0.000183046
0.000183046
0.000183048
0.00109514
0.00109516
0.00109515
0.00105108
0.0010511
0.00105109
0.00100288
0.0010029
0.00100289
0.000949781
0.000949801
0.000949793
0.000890575
0.000890593
0.00089059
0.000823836
0.000823851
0.000823853
0.000747669
0.000747681
0.000747688
0.000661969
0.000661977
0.000661987
0.000619383
0.000619387
0.000619398
0.000223239
0.000223239
0.000223242
0.00108999
0.00109002
0.00109
0.00104614
0.00104616
0.00104614
0.000998221
0.000998243
0.000998229
0.000945582
0.000945604
0.000945595
0.000887158
0.000887178
0.000887174
0.000821947
0.000821964
0.000821965
0.000749379
0.000749394
0.000749401
0.000674706
0.000674717
0.000674728
0.000673802
0.000673808
0.00067382
0.000265255
0.000265256
0.000265259
0.00108049
0.00108051
0.00108049
0.00103685
0.00103687
0.00103685
0.000989298
0.00098932
0.000989305
0.000937291
0.000937314
0.000937303
0.000880035
0.000880057
0.000880053
0.000817234
0.000817253
0.000817254
0.000750376
0.000750393
0.000750401
0.000691469
0.000691483
0.000691495
0.000730835
0.000730842
0.000730857
0.000309615
0.000309615
0.000309619
0.00106748
0.0010675
0.00106748
0.00102414
0.00102416
0.00102414
0.000977109
0.000977132
0.000977116
0.000926054
0.000926077
0.000926065
0.000870605
0.000870628
0.000870623
0.000811535
0.000811557
0.000811557
0.000753134
0.000753155
0.000753163
0.000714285
0.000714302
0.000714316
0.00078672
0.000786729
0.000786746
0.000356413
0.000356413
0.000356417
0.0010512
0.00105122
0.0010512
0.0010083
0.00100832
0.0010083
0.000962043
0.000962066
0.000962047
0.000912428
0.000912452
0.000912438
0.000859721
0.000859745
0.000859739
0.000806169
0.000806193
0.000806193
0.000759361
0.000759386
0.000759395
0.000743328
0.000743349
0.000743365
0.000837258
0.000837269
0.000837287
0.000405215
0.000405216
0.000405221
0.00103162
0.00103164
0.00103161
0.000989355
0.000989377
0.000989352
0.000944254
0.000944277
0.000944256
0.000896787
0.00089681
0.000896795
0.000848101
0.000848126
0.000848119
0.000802286
0.000802312
0.000802312
0.000770142
0.000770172
0.000770181
0.000777282
0.000777308
0.000777326
0.000878737
0.000878751
0.000878771
0.000455054
0.000455055
0.00045506
0.00100855
0.00100857
0.00100854
0.000967224
0.000967243
0.000967217
0.000923822
0.000923842
0.00092382
0.000879477
0.000879499
0.000879482
0.00083647
0.000836494
0.000836486
0.000800887
0.000800915
0.000800915
0.000785791
0.000785825
0.000785836
0.000813626
0.000813658
0.000813677
0.000908434
0.000908451
0.000908473
0.000504574
0.000504575
0.000504581
0.000981735
0.000981751
0.00098172
0.000941773
0.00094179
0.000941761
0.000900826
0.000900845
0.000900821
0.000860897
0.000860916
0.000860898
0.000825565
0.000825588
0.000825579
0.000802674
0.000802705
0.000802706
0.000805651
0.000805691
0.000805704
0.000848977
0.000849015
0.000849036
0.000924936
0.000924956
0.000924979
0.000552339
0.000552341
0.000552348
0.00095088
0.000950891
0.000950858
0.000912876
0.000912887
0.000912857
0.000875405
0.000875419
0.000875394
0.000841515
0.000841531
0.00084151
0.000816053
0.000816074
0.000816064
0.000807813
0.000807845
0.000807848
0.000827992
0.000828038
0.000828052
0.000879534
0.000879578
0.0008796
0.000928332
0.000928356
0.000928379
0.000597201
0.000597203
0.000597211
0.000915685
0.00091569
0.000915655
0.000880452
0.000880457
0.000880425
0.00084778
0.000847789
0.000847762
0.00082183
0.000821841
0.000821819
0.000808344
0.000808362
0.000808352
0.000815668
0.000815703
0.000815706
0.000850069
0.000850121
0.000850137
0.000901633
0.000901683
0.000901707
0.000920283
0.00092031
0.000920334
0.000638577
0.00063858
0.000638588
0.000875895
0.000875894
0.000875857
0.000844515
0.000844513
0.000844479
0.000818264
0.000818266
0.000818237
0.000802263
0.000802268
0.000802244
0.000802344
0.00080236
0.000802349
0.000824623
0.00082466
0.000824665
0.000868396
0.000868453
0.000868472
0.000912397
0.000912452
0.000912477
0.000903884
0.000903916
0.000903939
0.000676534
0.000676537
0.000676546
0.000831364
0.000831355
0.000831315
0.00080521
0.000805202
0.000805164
0.000787213
0.000787208
0.000787176
0.000782966
0.000782965
0.000782939
0.000797197
0.000797211
0.000797199
0.000832064
0.000832104
0.00083211
0.000879243
0.000879305
0.000879327
0.000910357
0.000910417
0.000910444
0.000883254
0.000883289
0.000883312
0.000711628
0.000711631
0.00071164
0.000782129
0.000782115
0.000782071
0.000762843
0.000762829
0.000762787
0.000754926
0.000754915
0.000754879
0.000763584
0.000763578
0.000763549
0.00079111
0.000791122
0.00079111
0.000834617
0.000834658
0.000834667
0.000879324
0.000879388
0.000879413
0.000895907
0.00089597
0.000895998
0.000862798
0.000862835
0.000862857
0.000744592
0.000744596
0.000744605
0.00072852
0.0007285
0.000728453
0.000717874
0.000717855
0.00071781
0.000721483
0.000721467
0.000721426
0.000743048
0.000743037
0.000743006
0.000781397
0.000781407
0.000781396
0.000828667
0.000828707
0.000828719
0.000866547
0.000866613
0.00086664
0.000871368
0.000871433
0.000871463
0.000846318
0.000846356
0.000846377
0.000776015
0.000776018
0.000776028
0.000671268
0.000671245
0.000671195
0.000670888
0.000670866
0.000670816
0.000686593
0.000686573
0.000686528
0.000719537
0.000719524
0.00071949
0.000764846
0.000764855
0.000764845
0.000811139
0.000811178
0.000811194
0.000840672
0.000840736
0.000840767
0.000840598
0.000840661
0.000840693
0.000836276
0.000836314
0.000836335
0.000806122
0.000806126
0.000806136
0.000611648
0.000611624
0.000611571
0.000622578
0.000622555
0.000622503
0.0006496
0.000649578
0.000649531
0.000690802
0.000690788
0.000690753
0.000738492
0.0007385
0.000738492
0.000780449
0.000780486
0.000780506
0.000803655
0.000803717
0.000803751
0.000808192
0.000808253
0.000808286
0.000833499
0.000833534
0.000833555
0.000834712
0.000834715
0.000834725
0.000551687
0.000551665
0.000551612
0.000573901
0.000573879
0.000573827
0.000609893
0.000609872
0.000609825
0.00065505
0.000655036
0.000655004
0.000700839
0.000700846
0.000700841
0.000737476
0.000737509
0.000737534
0.000759616
0.000759675
0.000759712
0.000778532
0.00077859
0.000778624
0.000837267
0.0008373
0.000837321
0.000861153
0.000861156
0.000861166
0.000494595
0.000494577
0.000494527
0.000526668
0.000526649
0.0005266
0.000568032
0.000568014
0.00056797
0.000612612
0.000612601
0.000612573
0.000653587
0.000653593
0.000653593
0.000686528
0.000686558
0.000686588
0.000714486
0.000714541
0.000714581
0.000754941
0.000754996
0.000755032
0.00084556
0.000845589
0.000845612
0.000884374
0.000884376
0.000884387
0.000445706
0.000445693
0.00044565
0.00048492
0.000484906
0.000484863
0.000527873
0.000527859
0.000527821
0.000568579
0.000568571
0.000568549
0.000603988
0.000603994
0.000604001
0.000636418
0.000636448
0.000636483
0.000675562
0.000675617
0.00067566
0.000739152
0.000739206
0.000739243
0.000855285
0.000855311
0.000855337
0.000902758
0.00090276
0.000902771
0.000414118
0.00041411
0.000414074
0.000457059
0.00045705
0.000457013
0.000499381
0.000499371
0.000499338
0.000535986
0.000535981
0.000535965
0.000567525
0.000567532
0.000567546
0.000601608
0.000601639
0.000601678
0.000651254
0.000651309
0.000651354
0.000731357
0.00073141
0.000731448
0.000862482
0.000862506
0.000862533
0.000913877
0.000913878
0.000913889
)
;

boundaryField
{
    freeSurface
    {
        type            slip;
    }
    inlet
    {
        type            cyclic;
    }
    outlet
    {
        type            cyclic;
    }
    sidewalls
    {
        type            kqRWallFunction;
        value           nonuniform List<scalar> 
72
(
3.4211e-05
0.000104361
0.000143831
0.000183046
0.000223239
0.000265255
0.000309615
0.000356413
0.000405215
0.000455054
0.000504574
0.000552339
0.000597201
0.000638577
0.000676534
0.000711628
0.000744592
0.000776015
0.000806122
0.000834712
0.000861153
0.000884374
0.000902758
0.000913877
3.4211e-05
0.000104361
0.000143831
0.000183046
0.000223239
0.000265256
0.000309615
0.000356413
0.000405216
0.000455055
0.000504575
0.000552341
0.000597203
0.00063858
0.000676537
0.000711631
0.000744596
0.000776018
0.000806126
0.000834715
0.000861156
0.000884376
0.00090276
0.000913878
3.42119e-05
0.000104362
0.000143832
0.000183048
0.000223242
0.000265259
0.000309619
0.000356417
0.000405221
0.00045506
0.000504581
0.000552348
0.000597211
0.000638588
0.000676546
0.00071164
0.000744605
0.000776028
0.000806136
0.000834725
0.000861166
0.000884387
0.000902771
0.000913889
)
;
    }
    noSlipWalls
    {
        type            kqRWallFunction;
        value           nonuniform List<scalar> 
30
(
0.000278563
0.000215706
0.00016765
0.0001301
0.000100008
7.53743e-05
5.47265e-05
3.69355e-05
2.17856e-05
3.4211e-05
0.000278589
0.000215724
0.000167663
0.000130109
0.000100014
7.53774e-05
5.4728e-05
3.6936e-05
2.17857e-05
3.4211e-05
0.000278574
0.000215715
0.000167659
0.000130107
0.000100014
7.53782e-05
5.47297e-05
3.69375e-05
2.17865e-05
3.42119e-05
)
;
    }
    procBoundary2to1
    {
        type            processor;
        value           nonuniform List<scalar> 
72
(
0.000361934
0.000361964
0.000361944
0.00104553
0.00104554
0.00104553
0.00111615
0.00111616
0.00111615
0.00113382
0.00113384
0.00113382
0.00113546
0.00113548
0.00113547
0.00113017
0.00113019
0.00113017
0.00112052
0.00112054
0.00112052
0.00110733
0.00110735
0.00110733
0.00109079
0.00109081
0.00109079
0.00107084
0.00107085
0.00107083
0.00104723
0.00104724
0.00104722
0.00101963
0.00101965
0.00101962
0.000987652
0.000987662
0.000987631
0.000950849
0.000950854
0.00095082
0.00090878
0.00090878
0.000908744
0.000861059
0.000861053
0.000861015
0.000807437
0.000807425
0.000807384
0.000747943
0.000747927
0.000747883
0.000683076
0.000683057
0.00068301
0.000614085
0.000614064
0.000614015
0.000543357
0.000543337
0.000543288
0.000475032
0.000475015
0.000474969
0.000416052
0.000416041
0.000416
0.000377857
0.00037785
0.000377816
)
;
    }
}


// ************************************************************************* //
