/*--------------------------------*- C++ -*----------------------------------*\
  =========                 |
  \\      /  F ield         | OpenFOAM: The Open Source CFD Toolbox
   \\    /   O peration     | Website:  https://openfoam.org
    \\  /    A nd           | Version:  6
     \\/     M anipulation  |
\*---------------------------------------------------------------------------*/
FoamFile
{
    version     2.0;
    format      ascii;
    class       volScalarField;
    location    "80";
    object      nut;
}
// * * * * * * * * * * * * * * * * * * * * * * * * * * * * * * * * * * * * * //

dimensions      [0 2 -1 0 0 0 0];

internalField   nonuniform List<scalar> 
720
(
3.30083e-07
3.30114e-07
3.30096e-07
2.556e-07
2.55623e-07
2.55612e-07
1.98657e-07
1.98673e-07
1.98667e-07
1.54162e-07
1.54173e-07
1.5417e-07
1.18505e-07
1.18512e-07
1.18511e-07
8.93148e-08
8.93185e-08
8.93195e-08
6.48482e-08
6.48499e-08
6.48519e-08
4.37667e-08
4.37674e-08
4.37691e-08
2.58148e-08
2.5815e-08
2.58159e-08
8.06475e-08
8.06476e-08
8.06497e-08
3.81898e-06
3.81904e-06
3.819e-06
3.66837e-06
3.66843e-06
3.6684e-06
3.4972e-06
3.49727e-06
3.49724e-06
3.30222e-06
3.30228e-06
3.30227e-06
3.07781e-06
3.07786e-06
3.07786e-06
2.81605e-06
2.81609e-06
2.8161e-06
2.5031e-06
2.50313e-06
2.50317e-06
2.1129e-06
2.11292e-06
2.11296e-06
1.63198e-06
1.63199e-06
1.63202e-06
1.33082e-05
1.33082e-05
1.33083e-05
8.47082e-06
8.47095e-06
8.47088e-06
8.2044e-06
8.20454e-06
8.20447e-06
7.91183e-06
7.91197e-06
7.91192e-06
7.58626e-06
7.5864e-06
7.58636e-06
7.21735e-06
7.21747e-06
7.21747e-06
6.79139e-06
6.79149e-06
6.7915e-06
6.28603e-06
6.2861e-06
6.28615e-06
5.66679e-06
5.66684e-06
5.66691e-06
5.08108e-06
5.0811e-06
5.08117e-06
1.56235e-05
1.56235e-05
1.56236e-05
1.44011e-05
1.44014e-05
1.44013e-05
1.40016e-05
1.40019e-05
1.40018e-05
1.35628e-05
1.35631e-05
1.3563e-05
1.30748e-05
1.30751e-05
1.3075e-05
1.25232e-05
1.25235e-05
1.25234e-05
1.18903e-05
1.18905e-05
1.18905e-05
1.11514e-05
1.11516e-05
1.11517e-05
1.02994e-05
1.02995e-05
1.02996e-05
9.9697e-06
9.96974e-06
9.96987e-06
1.76251e-05
1.76251e-05
1.76252e-05
2.15147e-05
2.15152e-05
2.15149e-05
2.09584e-05
2.0959e-05
2.09587e-05
2.03486e-05
2.03492e-05
2.0349e-05
1.96733e-05
1.96739e-05
1.96738e-05
1.89169e-05
1.89174e-05
1.89173e-05
1.80637e-05
1.80641e-05
1.80641e-05
1.71056e-05
1.71059e-05
1.7106e-05
1.61358e-05
1.6136e-05
1.61362e-05
1.65798e-05
1.65799e-05
1.65801e-05
1.94642e-05
1.94642e-05
1.94643e-05
2.98464e-05
2.98473e-05
2.98469e-05
2.91075e-05
2.91084e-05
2.9108e-05
2.83016e-05
2.83025e-05
2.83022e-05
2.74174e-05
2.74184e-05
2.74181e-05
2.64434e-05
2.64443e-05
2.64442e-05
2.53784e-05
2.53791e-05
2.53791e-05
2.42625e-05
2.4263e-05
2.42632e-05
2.3382e-05
2.33823e-05
2.33826e-05
2.49582e-05
2.49583e-05
2.49587e-05
2.1217e-05
2.1217e-05
2.12171e-05
3.94779e-05
3.94793e-05
3.94786e-05
3.85291e-05
3.85306e-05
3.85299e-05
3.75034e-05
3.75049e-05
3.75044e-05
3.63953e-05
3.63969e-05
3.63965e-05
3.52068e-05
3.52082e-05
3.5208e-05
3.397e-05
3.39711e-05
3.39712e-05
3.28158e-05
3.28167e-05
3.2817e-05
3.22855e-05
3.22861e-05
3.22866e-05
3.49036e-05
3.49038e-05
3.49044e-05
2.29226e-05
2.29226e-05
2.29227e-05
5.05145e-05
5.05165e-05
5.05155e-05
4.93291e-05
4.93313e-05
4.93303e-05
4.80646e-05
4.80668e-05
4.8066e-05
4.67298e-05
4.67321e-05
4.67315e-05
4.53541e-05
4.53562e-05
4.53559e-05
4.40283e-05
4.403e-05
4.403e-05
4.30129e-05
4.30143e-05
4.30147e-05
4.30479e-05
4.30489e-05
4.30497e-05
4.5979e-05
4.59794e-05
4.59802e-05
2.4594e-05
2.4594e-05
2.45941e-05
6.30734e-05
6.30763e-05
6.30749e-05
6.16287e-05
6.16317e-05
6.16304e-05
6.01158e-05
6.01189e-05
6.01178e-05
5.85719e-05
5.85752e-05
5.85743e-05
5.70712e-05
5.70742e-05
5.70738e-05
5.57885e-05
5.5791e-05
5.57911e-05
5.51186e-05
5.51208e-05
5.51215e-05
5.57302e-05
5.5732e-05
5.57331e-05
5.75722e-05
5.7573e-05
5.7574e-05
2.62238e-05
2.62238e-05
2.62239e-05
7.72779e-05
7.72816e-05
7.72796e-05
7.55595e-05
7.55634e-05
7.55615e-05
7.38056e-05
7.38096e-05
7.38081e-05
7.21009e-05
7.21052e-05
7.2104e-05
7.05813e-05
7.05854e-05
7.05848e-05
6.95171e-05
6.95208e-05
6.95209e-05
6.93572e-05
6.93608e-05
6.93618e-05
7.01745e-05
7.01774e-05
7.0179e-05
6.89728e-05
6.89739e-05
6.89752e-05
2.77897e-05
2.77897e-05
2.77899e-05
9.32513e-05
9.32558e-05
9.32531e-05
9.12606e-05
9.12653e-05
9.12627e-05
8.92998e-05
8.93047e-05
8.93026e-05
8.75246e-05
8.75298e-05
8.75281e-05
8.61392e-05
8.61444e-05
8.61436e-05
8.548e-05
8.54852e-05
8.54854e-05
8.58306e-05
8.58363e-05
8.58378e-05
8.59663e-05
8.5971e-05
8.5973e-05
7.94586e-05
7.94602e-05
7.94619e-05
2.92627e-05
2.92627e-05
2.92629e-05
0.000111114
0.000111119
0.000111115
0.000108878
0.000108883
0.00010888
0.000106783
0.000106788
0.000106785
0.000105079
0.000105084
0.000105082
0.000104014
0.00010402
0.000104019
0.000103884
0.000103892
0.000103892
0.000104426
0.000104435
0.000104437
0.00010245
0.000102458
0.00010246
8.83949e-05
8.83972e-05
8.83993e-05
3.06165e-05
3.06165e-05
3.06167e-05
0.000130982
0.000130986
0.000130981
0.000128566
0.00012857
0.000128565
0.00012646
0.000126465
0.000126461
0.000125018
0.000125024
0.000125021
0.000124451
0.000124458
0.000124457
0.000124793
0.000124803
0.000124804
0.000124743
0.000124756
0.000124759
0.000118794
0.000118805
0.000118807
9.53356e-05
9.5339e-05
9.53413e-05
3.18356e-05
3.18356e-05
3.18358e-05
0.000152962
0.000152964
0.000152957
0.000150486
0.000150488
0.000150481
0.000148555
0.000148558
0.000148553
0.000147595
0.000147599
0.000147595
0.000147604
0.000147611
0.000147609
0.000148019
0.000148034
0.000148035
0.000146063
0.000146083
0.000146086
0.000134081
0.000134096
0.000134099
0.000100104
0.000100108
0.000100111
3.29199e-05
3.292e-05
3.29202e-05
0.000177156
0.000177153
0.000177143
0.000174811
0.000174808
0.000174798
0.000173296
0.000173295
0.000173288
0.000173004
0.000173005
0.000172999
0.000173427
0.000173434
0.000173432
0.000173033
0.000173053
0.000173054
0.000167387
0.000167414
0.000167418
0.000147427
0.000147445
0.00014745
0.00010282
0.000102825
0.000102828
3.38842e-05
3.38842e-05
3.38845e-05
0.000203655
0.000203642
0.000203627
0.000201713
0.000201701
0.000201687
0.000200883
0.000200874
0.000200863
0.000201293
0.000201288
0.00020128
0.000201554
0.000201561
0.000201558
0.000198909
0.000198934
0.000198937
0.00018752
0.000187554
0.000187559
0.000158093
0.000158116
0.000158121
0.000103855
0.000103861
0.000103864
3.47519e-05
3.4752e-05
3.47522e-05
0.00023252
0.00023249
0.000232469
0.000231332
0.000231304
0.000231284
0.000231403
0.00023138
0.000231364
0.000232221
0.000232206
0.000232194
0.000231174
0.00023118
0.000231176
0.000224341
0.000224374
0.000224377
0.000205204
0.000205247
0.000205253
0.000165599
0.000165626
0.000165632
0.000103724
0.000103732
0.000103734
3.55477e-05
3.55478e-05
3.5548e-05
0.000263735
0.000263679
0.00026365
0.00026369
0.000263637
0.00026361
0.000264678
0.000264634
0.000264612
0.000265079
0.000265051
0.000265034
0.000260957
0.000260962
0.000260955
0.000247738
0.000247777
0.00024778
0.00021927
0.00021932
0.000219327
0.000169806
0.000169836
0.000169842
0.000102956
0.000102964
0.000102967
3.629e-05
3.62901e-05
3.62903e-05
0.000297085
0.000296991
0.000296952
0.000298512
0.000298424
0.00029839
0.000300034
0.000299962
0.000299932
0.000298521
0.000298476
0.000298453
0.000289064
0.000289068
0.000289057
0.000267372
0.000267416
0.000267421
0.000228802
0.000228858
0.000228867
0.000170952
0.000170985
0.000170991
0.000101986
0.000101994
0.000101996
3.69873e-05
3.69874e-05
3.69876e-05
0.000331904
0.000331762
0.000331714
0.000334919
0.000334789
0.000334746
0.000336009
0.000335903
0.000335866
0.000330454
0.000330391
0.00033036
0.000313267
0.000313269
0.000313256
0.000281601
0.000281649
0.000281657
0.000233321
0.000233382
0.000233392
0.000169635
0.000169669
0.000169677
0.000101111
0.000101118
0.000101121
3.76375e-05
3.76375e-05
3.76378e-05
0.000366686
0.000366497
0.00036644
0.000371024
0.000370853
0.000370802
0.000370123
0.000369985
0.000369939
0.000358121
0.000358042
0.000358005
0.000331237
0.000331239
0.000331223
0.000289195
0.000289248
0.000289258
0.000232981
0.000233047
0.000233059
0.000166716
0.000166751
0.000166759
0.000100491
0.000100498
0.000100501
3.82289e-05
3.8229e-05
3.82292e-05
0.00039867
0.00039845
0.000398387
0.000403652
0.000403454
0.000403398
0.000398973
0.000398815
0.000398763
0.000378567
0.000378481
0.00037844
0.000341154
0.000341159
0.000341145
0.000289865
0.000289925
0.000289939
0.000228778
0.000228849
0.000228863
0.000163177
0.000163212
0.000163222
0.000100169
0.000100175
0.000100179
3.87409e-05
3.8741e-05
3.87412e-05
0.00042386
0.000423644
0.00042358
0.000428684
0.000428488
0.000428429
0.00041911
0.000418951
0.000418896
0.000389866
0.000389788
0.000389744
0.000342971
0.000342982
0.000342972
0.000285162
0.000285234
0.00028525
0.000222735
0.000222811
0.000222827
0.000159979
0.000160015
0.000160025
0.00010009
0.000100095
0.000100099
3.91415e-05
3.91416e-05
3.91418e-05
0.000438099
0.000437911
0.000437849
0.000442428
0.000442251
0.000442193
0.000428859
0.000428716
0.000428659
0.000393235
0.000393173
0.000393129
0.000340334
0.000340354
0.000340353
0.000279523
0.000279606
0.000279625
0.000217935
0.000218016
0.000218033
0.000157988
0.000158024
0.000158035
0.000100129
0.000100134
0.000100138
3.93818e-05
3.93819e-05
3.93821e-05
)
;

boundaryField
{
    freeSurface
    {
        type            slip;
    }
    inlet
    {
        type            cyclic;
    }
    outlet
    {
        type            cyclic;
    }
    sidewalls
    {
        type            nutkWallFunction;
        Cmu             0.09;
        kappa           0.41;
        E               9.8;
        value           nonuniform List<scalar> 
72
(
4.6399e-07
1.30951e-06
1.63787e-06
1.91647e-06
2.16875e-06
2.40629e-06
2.63498e-06
2.85698e-06
3.0716e-06
3.27623e-06
3.46739e-06
3.64201e-06
3.79844e-06
3.93696e-06
4.05966e-06
4.16971e-06
4.27034e-06
4.36396e-06
4.45169e-06
4.53331e-06
4.60741e-06
4.67144e-06
4.72147e-06
4.75145e-06
4.63991e-07
1.30951e-06
1.63787e-06
1.91647e-06
2.16875e-06
2.40629e-06
2.63498e-06
2.85698e-06
3.07161e-06
3.27623e-06
3.46739e-06
3.64202e-06
3.79845e-06
3.93697e-06
4.05967e-06
4.16972e-06
4.27035e-06
4.36397e-06
4.4517e-06
4.53332e-06
4.60742e-06
4.67145e-06
4.72148e-06
4.75146e-06
4.64006e-07
1.30952e-06
1.63789e-06
1.91649e-06
2.16876e-06
2.4063e-06
2.635e-06
2.857e-06
3.07163e-06
3.27625e-06
3.46742e-06
3.64204e-06
3.79847e-06
3.93699e-06
4.0597e-06
4.16975e-06
4.27038e-06
4.364e-06
4.45173e-06
4.53335e-06
4.60745e-06
4.67148e-06
4.72151e-06
4.75149e-06
)
;
    }
    noSlipWalls
    {
        type            nutkWallFunction;
        Cmu             0.09;
        kappa           0.41;
        E               9.8;
        value           uniform 0;
    }
    procBoundary2to1
    {
        type            processor;
        value           nonuniform List<scalar> 
72
(
4.28874e-07
4.28909e-07
4.28886e-07
3.951e-06
3.95104e-06
3.95101e-06
8.71573e-06
8.71583e-06
8.71577e-06
1.47681e-05
1.47683e-05
1.47682e-05
2.20258e-05
2.20262e-05
2.20259e-05
3.05274e-05
3.0528e-05
3.05277e-05
4.03575e-05
4.03585e-05
4.03579e-05
5.16229e-05
5.16244e-05
5.16236e-05
6.44408e-05
6.44429e-05
6.44418e-05
7.89304e-05
7.89333e-05
7.89317e-05
9.52062e-05
9.52098e-05
9.52075e-05
0.000113371
0.000113375
0.000113372
0.000133511
0.000133514
0.00013351
0.000155688
0.00015569
0.000155684
0.000179937
0.000179935
0.000179926
0.000206257
0.000206248
0.000206234
0.000234598
0.000234574
0.000234554
0.000264817
0.000264769
0.000264741
0.000296589
0.000296506
0.000296467
0.000329204
0.000329074
0.000329024
0.000361236
0.000361054
0.000360994
0.000390168
0.000389949
0.000389881
0.000412431
0.000412211
0.000412142
0.000424576
0.000424384
0.000424318
)
;
    }
}


// ************************************************************************* //
