/*--------------------------------*- C++ -*----------------------------------*\
  =========                 |
  \\      /  F ield         | OpenFOAM: The Open Source CFD Toolbox
   \\    /   O peration     | Website:  https://openfoam.org
    \\  /    A nd           | Version:  6
     \\/     M anipulation  |
\*---------------------------------------------------------------------------*/
FoamFile
{
    version     2.0;
    format      ascii;
    class       volScalarField;
    location    "1.6";
    object      omega;
}
// * * * * * * * * * * * * * * * * * * * * * * * * * * * * * * * * * * * * * //

dimensions      [0 0 -1 0 0 0 0];

internalField   nonuniform List<scalar> 
63552
(
843.917
843.917
843.917
843.917
1076.85
843.917
1153.8
843.917
843.917
1022.75
843.917
843.917
1076.77
1005.64
647.286
843.917
843.917
843.917
843.917
1018.57
1001.7
843.917
1018.95
1116.3
1017.38
843.917
1026.09
1096.17
1004.61
730.085
843.917
843.917
843.917
843.917
843.917
843.917
843.917
1052.53
1131.34
1004.94
1095.56
1213.56
1009.95
598.092
843.917
843.917
843.917
843.917
843.917
843.917
843.917
1021.44
843.917
996.124
1199.55
1335.29
1075.67
589.348
843.917
843.917
843.917
843.917
843.917
1124.28
992.523
843.917
843.917
1232.49
1109.97
1330.69
658.435
843.917
843.917
843.917
843.917
843.917
843.917
843.917
843.917
843.917
1149.54
1179.4
843.917
671.674
843.917
843.917
843.917
843.917
843.917
1016.69
843.917
1022.72
843.917
1147.49
843.917
1057.49
643.298
843.917
843.917
843.917
843.917
998.631
843.917
843.917
843.917
843.917
843.917
1181.92
606.175
843.917
843.917
843.917
843.917
843.917
1021.34
1002.75
1132.44
843.917
843.917
843.917
503.897
843.917
843.917
843.917
843.917
843.917
843.917
843.917
1031.38
843.917
992.491
1127.1
589.758
843.917
843.917
843.917
843.917
843.917
843.917
843.917
843.917
843.917
1068.03
843.917
513.219
843.917
843.917
843.917
843.917
843.917
843.917
843.917
843.917
1004.58
843.917
449.911
843.917
843.917
843.917
843.917
843.917
843.917
843.917
1022.07
843.917
1026.53
480
843.917
843.917
843.917
843.917
843.917
843.917
843.917
843.917
843.917
843.917
438.094
843.917
843.917
843.917
843.917
843.917
843.917
843.917
843.917
843.917
843.917
457.771
843.917
843.917
843.917
843.917
843.917
843.917
843.917
843.917
843.917
843.917
449.494
843.917
843.917
843.917
843.917
843.917
843.917
843.917
843.917
843.917
843.917
450.21
843.917
843.917
843.917
843.917
843.917
843.917
843.917
843.917
843.917
843.917
449.677
843.917
843.917
843.917
843.917
843.917
843.917
843.917
843.917
843.917
448.772
843.917
843.917
843.917
843.917
843.917
843.917
843.917
843.917
843.917
448.531
258.391
259.93
257.35
265.496
266.872
252.744
263.902
250.61
248.858
261.662
257.712
264.502
260.609
211.451
130.752
251.66
255.885
251.857
255.354
256.334
257.9
243.97
249.234
257.101
256.076
256.783
270.552
255.345
210.377
128.74
252.487
239.223
247.684
246.65
242.146
240.176
241.891
246.038
255.641
264.547
271.379
266.411
211.603
129.067
236.235
235.014
245.87
239.899
233.687
236.476
238.856
241.816
240.949
257.749
270.63
260.358
213.398
125.484
252.784
237.037
228.484
228.736
229.402
244.502
236.723
237.997
247.61
273.076
252.864
219.946
126.42
213.371
220.326
205.733
215.603
219.276
226.385
227.948
238.175
247.689
263.206
245.982
200.406
123.817
240.778
222.041
220.643
202.519
212.514
224.91
224.694
240.233
241.053
262.087
235.051
209.441
123.406
221.771
212.064
214.11
204.006
215.875
216.705
230.487
244.075
245.948
227.437
207.878
120.846
216.491
207.618
195.181
209.454
196.529
216.522
227.951
253.71
241.305
229.677
195.215
119.63
216.602
210.196
201.755
183.445
202.211
195.3
217.895
241.94
241.643
234.384
205.343
117.53
214.428
205.412
198.922
200.604
182.525
192.383
211.523
231.165
238.105
234.229
192.298
117.092
205.863
197.605
187.875
195.563
195.304
199.784
228.038
239.692
226.715
192.7
113.517
203.957
196.59
191.918
183.376
187.068
204.391
219.897
242.674
217.693
195.938
114.413
203.347
195.814
189.849
190.14
190.791
194.493
217.352
229.922
216.667
186.83
114.024
202.415
194.967
189.188
185.675
188.372
199.868
213.842
227.087
215.041
185.422
112.853
201.835
194.477
188.849
186.692
188.269
195.884
212.964
223.217
212.584
179.16
113.665
201.305
193.944
188.298
185.919
187.972
196.656
211.828
221.776
209.831
180.528
112.294
200.935
193.639
188.059
185.736
187.689
196.094
211.349
220.628
208.447
178.414
112.47
193.386
187.835
185.544
187.567
195.935
210.985
220.013
207.621
178.014
112.082
193.27
187.733
185.45
187.49
195.828
210.811
219.725
207.185
177.619
111.925
117.961
121.822
119.609
121.907
120.593
117.605
115.957
114.588
113.915
116.362
123.107
129.59
125.38
114.927
142.606
115.984
120.049
117.399
119.674
117.963
116.052
113.9
112.98
113.426
115.815
123.074
129.62
123.906
115.106
142.253
118.772
115.153
118.284
116.307
112.977
111.739
112.294
111.975
114.573
122.814
128.949
124.95
115.1
144.591
116.608
115.901
117.321
113.529
110.962
110.812
110.479
111.109
113.91
122.187
128.299
122.886
115.103
144.155
117.319
113.89
110.626
109.165
108.254
109.092
109.816
112.811
120.396
127.967
122.533
115.121
146.04
109.827
110.53
108.433
107.017
106.619
107.429
108.449
112.785
120.865
126.743
121.058
114.333
145.589
118.757
113.877
111.702
107.348
105.631
105.227
106.656
111.416
119.076
126.019
120.145
114.76
147.083
111.797
109.183
107.718
105.453
104.106
104.922
110.196
119.942
124.447
118.387
114.178
146.647
112.658
109.377
105.147
104.546
102.161
103.096
108.571
119.015
123.323
118.725
113.787
147.817
111.804
110.201
107.471
101.494
102.686
101.662
107.376
118.038
123.389
118.357
114.106
147.486
112.671
109.11
105.868
105.692
99.8493
101.147
105.641
116.379
122.196
117.828
113.31
148.221
109.753
106.715
101.851
102.706
101.844
104.423
115.401
122.097
116.705
113.289
148.167
109.376
106.124
104.076
99.8648
100.035
104.893
113.437
121.275
115.557
113.233
148.3
109.474
106.374
103.083
102.072
101.536
103.174
113.233
119.543
114.993
112.499
148.248
109.426
106.207
103.296
100.579
100.532
104.665
112.408
118.621
114.418
112.041
148.353
109.414
106.24
103.25
101.277
100.914
103.527
112.325
117.712
113.572
111.195
148.152
109.404
106.19
103.197
100.987
100.77
103.973
112.086
117.373
113.014
111.593
148.248
109.394
106.188
103.2
101.046
100.781
103.82
112.021
117.076
112.657
111.217
148.101
106.166
103.177
101.015
100.773
103.822
111.952
116.918
112.447
111.196
148.071
106.157
103.167
101.006
100.765
103.807
111.921
116.842
112.327
111.132
147.99
71.6129
73.2294
72.9975
74.1988
74.6719
74.3941
74.2001
74.0744
74.1026
74.7184
78.9229
83.2358
82.4551
87.9791
162.972
71.9525
73.331
72.9701
74.2215
74.3301
73.9591
73.8986
73.7744
73.9313
74.8252
79.1712
83.1976
82.2237
88.9508
163.341
73.198
72.7963
73.9701
73.8866
73.3737
73.4176
73.5695
73.6224
74.3232
78.6815
82.7713
82.1233
88.5777
166.123
73.0635
73.3388
73.9469
73.5283
73.2921
73.44
73.2263
73.4437
74.4411
78.853
82.6702
81.7355
89.0689
166.377
73.4533
73.2698
73.1902
73.0375
72.877
72.8202
73.0129
73.9625
78.2251
82.2927
81.5921
89.0967
168.636
72.9731
73.289
73.4925
73.1863
73.027
72.7403
72.7841
74.0014
78.5289
82.1385
81.3186
89.3732
168.841
74.7194
74.3875
74.1026
73.5316
72.8918
72.232
72.2067
73.4158
77.8883
81.7202
81.0699
89.5915
170.625
73.7905
73.7983
73.4709
73.1414
72.2962
71.9928
73.2583
78.1775
81.4977
80.6995
89.7136
170.838
74.7373
74.2092
73.4799
72.7889
71.996
71.4996
72.7422
77.5797
81.1157
80.6983
89.9908
172.159
74.2107
74.4533
74.083
72.8326
72.1953
71.6344
72.6352
77.5527
81.073
80.4786
90.1229
172.432
75.1582
74.5035
73.7093
73.5982
71.8395
71.4454
72.1972
77.0259
80.6318
80.3289
90.3008
173.378
74.7036
74.2954
72.816
72.4545
71.6943
72.1707
76.7995
80.4832
80.1162
90.441
173.694
74.8747
74.0686
73.596
71.9026
71.2703
72.0972
76.3102
80.086
79.8649
90.5727
174.32
74.9271
74.3577
73.2948
72.5458
71.8129
71.886
76.3188
79.6915
79.656
90.613
174.567
75.0857
74.3601
73.5065
72.1266
71.4115
72.2312
76.1034
79.3673
79.4736
90.6555
174.923
75.1445
74.4572
73.5094
72.4329
71.6815
71.9425
76.0948
79.1182
79.2096
90.6417
175.147
75.2226
74.4991
73.5569
72.3438
71.5863
72.1053
76.0435
79.0089
79.0831
90.8188
175.292
75.2718
74.5462
73.589
72.3997
71.63
72.0649
76.0348
78.9162
78.9865
90.8253
175.427
74.5676
73.6043
72.4008
71.6301
72.0741
76.0206
78.8653
78.9295
90.8793
175.465
74.5793
73.6114
72.4052
71.6312
72.0721
76.0142
78.8407
78.8959
90.901
175.458
50.1434
50.8763
51.2754
52.1635
53.0686
53.805
54.6264
55.2364
55.75
55.7848
57.867
60.3068
61.3358
73.6298
178.229
50.5924
51.2823
51.6762
52.6027
53.3752
54.0204
54.8403
55.3847
55.7826
55.8806
58.0184
60.3258
61.5189
74.9545
178.965
51.3181
51.7115
52.5404
53.2469
53.9078
54.7525
55.3238
55.7096
55.7002
57.7444
60.0612
61.2937
74.3972
181.983
51.5392
52.1288
52.8662
53.5403
54.2556
55.0465
55.4655
55.7559
55.8009
57.8814
60.0591
61.3303
75.0294
182.652
52.2816
52.841
53.5613
54.2549
54.9551
55.3764
55.6285
55.6027
57.6042
59.8211
61.2363
75.0803
185.147
52.5594
53.2004
53.9741
54.6327
55.285
55.575
55.6895
55.6664
57.7351
59.8018
61.2371
75.445
185.815
52.9065
53.5226
54.1339
54.7244
55.2571
55.4719
55.5307
55.453
57.4665
59.5836
61.1723
75.7041
187.814
53.6058
54.3217
54.9271
55.536
55.6864
55.6138
55.4857
57.5629
59.5393
61.1382
75.9713
188.506
54.015
54.5451
55.0861
55.501
55.6206
55.4893
55.3134
57.3129
59.3669
61.1421
76.2774
190.038
53.9582
54.7239
55.3331
55.7592
55.8225
55.6512
55.3664
57.3429
59.3229
61.1125
76.509
190.734
54.4383
54.9225
55.3636
55.8903
55.7877
55.5673
55.2334
57.142
59.1469
61.1028
76.779
191.863
55.0089
55.6413
55.888
55.9929
55.698
55.2894
57.1052
59.0694
61.0868
76.9937
192.52
55.2447
55.6472
56.1192
55.9296
55.5987
55.2129
56.9569
58.913
61.0461
77.2084
193.312
55.2765
55.8195
56.1113
56.1287
55.7834
55.2307
56.9674
58.7962
61.0085
77.3835
193.856
55.4365
55.8867
56.2383
56.0583
55.6488
55.2756
56.8956
58.6799
60.9764
77.5449
194.377
55.5002
55.9711
56.2695
56.1747
55.7796
55.2252
56.8876
58.6024
60.9229
77.6722
194.759
55.5759
56.0261
56.3259
56.1738
55.7343
55.2622
56.8698
58.5588
60.9078
77.8098
195.087
55.6273
56.0753
56.3615
56.2087
55.7643
55.2541
56.8642
58.5259
60.8948
77.8983
195.291
56.1031
56.3833
56.2195
55.7651
55.2554
56.8574
58.5064
60.8875
77.9725
195.425
56.118
56.3939
56.2261
55.7667
55.2539
56.8538
58.4969
60.8822
78.0171
195.456
37.3576
37.8537
38.338
39.0751
39.9213
40.8593
41.9289
42.9053
43.7861
43.8689
44.8677
46.1586
48.1472
62.5474
190.231
37.6855
38.2069
38.7161
39.4853
40.3016
41.2077
42.2515
43.1687
43.9012
43.9269
44.9132
46.1878
48.4747
64.0204
191.278
38.248
38.7356
39.4492
40.2314
41.1387
42.185
43.1037
43.8551
43.8479
44.7586
46.0034
48.2847
63.43
194.461
38.4995
39.0582
39.7828
40.5752
41.4884
42.492
43.3431
43.971
43.9082
44.7969
46.0024
48.4182
64.0391
195.49
39.163
39.8191
40.5839
41.4709
42.4459
43.2858
43.9086
43.8142
44.6476
45.8525
48.3865
64.1244
198.141
39.4077
40.0975
40.8928
41.7831
42.7259
43.5073
44.0247
43.8674
44.6763
45.8374
48.4602
64.4783
199.204
39.54
40.2229
40.9558
41.7991
42.7017
43.4598
43.9562
43.7715
44.5367
45.7158
48.4807
64.7544
201.352
40.408
41.1689
42.0283
42.9379
43.6567
44.0664
43.8164
44.5517
45.6903
48.5368
65.0483
202.428
40.5645
41.2752
42.103
42.943
43.6253
44.0052
43.7336
44.4286
45.5974
48.5835
65.352
204.122
40.6707
41.4305
42.2734
43.1333
43.7898
44.1108
43.7754
44.4285
45.5652
48.634
65.6236
205.152
40.8626
41.5564
42.3492
43.1726
43.7816
44.0594
43.7057
44.3286
45.4867
48.6821
65.9025
206.46
41.6405
42.4892
43.2807
43.903
44.1406
43.7348
44.3112
45.4483
48.7297
66.1474
207.375
41.7879
42.5554
43.3556
43.9105
44.1048
43.6829
44.2385
45.3847
48.7652
66.3838
208.352
41.8336
42.6451
43.4138
43.9965
44.1717
43.7009
44.2273
45.344
48.7989
66.5911
209.088
41.9344
42.7135
43.4829
44.0078
44.1326
43.6815
44.1832
45.2989
48.8275
66.7771
209.776
41.989
42.7722
43.5206
44.054
44.1811
43.6769
44.1667
45.2702
48.8473
66.9323
210.302
42.0406
42.8154
43.5598
44.0749
44.1669
43.6716
44.147
45.2494
48.8695
67.0669
210.729
42.0798
42.8525
43.5899
44.0965
44.1799
43.6674
44.1358
45.2353
48.8863
67.1728
211.038
42.8747
43.6076
44.1072
44.1803
43.663
44.1265
45.2262
48.8977
67.2535
211.221
42.8867
43.6169
44.113
44.181
43.6602
44.1215
45.2214
48.9027
67.3048
211.288
28.7593
29.1543
29.5485
30.1448
30.778
31.5951
32.4631
33.4169
34.3006
34.6506
35.2361
36.1447
38.9462
53.5454
199.854
28.9912
29.4133
29.8298
30.4435
31.072
31.8752
32.7227
33.6402
34.4167
34.6866
35.2245
36.1895
39.328
55.1306
201.162
29.4337
29.823
30.4049
31.0092
31.8015
32.6399
33.5521
34.342
34.6107
35.0975
36.0337
39.1978
54.6308
204.475
29.6286
30.0503
30.649
31.2631
32.051
32.8667
33.745
34.4484
34.6435
35.0782
36.0314
39.3532
55.2046
205.822
30.0981
30.6599
31.2433
32.011
32.8096
33.6755
34.3752
34.5635
34.9599
35.9229
39.3764
55.3596
208.605
30.268
30.8463
31.4496
32.2215
33.0028
33.8384
34.4699
34.5912
34.937
35.9048
39.4776
55.7126
209.997
30.3403
30.9031
31.4705
32.2109
32.9679
33.787
34.4016
34.5134
34.8285
35.8267
39.5462
56.018
212.29
31.0404
31.6204
32.3718
33.1271
33.9213
34.4807
34.5327
34.8021
35.8043
39.6377
56.3354
213.665
31.1085
31.6691
32.3965
33.1177
33.8877
34.4209
34.4617
34.707
35.7487
39.7195
56.6559
215.523
31.2108
31.7787
32.5092
33.2365
33.992
34.4831
34.4723
34.6779
35.7271
39.8066
56.9566
216.802
31.2884
31.8391
32.5533
33.2506
33.978
34.4369
34.4114
34.5989
35.6872
39.8875
57.2522
218.278
31.9106
32.6322
33.3288
34.0486
34.4808
34.4132
34.5673
35.668
39.9666
57.5221
219.394
31.9805
32.6801
33.3573
34.052
34.4516
34.3668
34.5063
35.6401
40.0374
57.7758
220.526
32.0256
32.7284
33.4026
34.0944
34.4765
34.3624
34.4776
35.6243
40.103
58.0017
221.425
32.0766
32.7711
33.4362
34.1071
34.4587
34.3321
34.4351
35.6057
40.1596
58.2016
222.238
32.1153
32.8061
33.4633
34.1266
34.4702
34.3231
34.4103
35.5942
40.2073
58.3709
222.884
32.1443
32.832
33.4838
34.1399
34.4643
34.3066
34.3852
35.5844
40.2467
58.5122
223.404
32.1697
32.8547
33.5028
34.1517
34.4663
34.2981
34.3688
35.5783
40.2768
58.625
223.776
32.868
33.5132
34.1574
34.4646
34.2902
34.3564
35.5739
40.2969
58.7103
224.011
32.8756
33.5191
34.1607
34.4638
34.2861
34.3498
35.5714
40.3067
58.7647
224.101
22.5982
22.9093
23.1836
23.6409
24.0516
24.6784
25.2218
25.9818
26.5436
27.0745
27.461
28.625
32.383
46.9936
208.189
22.7586
23.0846
23.3731
23.8339
24.2443
24.8561
25.3854
26.1152
26.6173
27.0883
27.4364
28.7175
32.8034
48.6741
209.705
23.0868
23.3536
23.7958
24.1893
24.7902
25.3086
26.0314
26.5328
27.0016
27.3006
28.5724
32.7368
48.3225
213.15
23.2182
23.5019
23.9507
24.3501
24.94
25.4463
26.1416
26.5962
27.0063
27.2625
28.5888
32.9088
48.8829
214.746
23.5168
23.9445
24.3219
24.8978
25.3907
26.0752
26.5197
26.9247
27.1442
28.5096
32.9835
49.1262
217.672
23.6279
24.0601
24.4482
25.0199
25.504
26.1633
26.5719
26.9226
27.1024
28.5045
33.1113
49.5035
219.311
23.6632
24.0823
24.4476
24.9999
25.4664
26.1127
26.5046
26.8469
26.9981
28.4586
33.2201
49.8548
221.758
24.1658
24.5385
25.0911
25.556
26.1806
26.5439
26.8374
26.955
28.4511
33.342
50.2099
223.357
24.1969
24.5572
25.0934
25.5371
26.1451
26.4874
26.7691
26.8654
28.4254
33.4572
50.5641
225.372
24.2612
24.6231
25.1553
25.6007
26.1933
26.5138
26.7537
26.823
28.4214
33.574
50.9001
226.846
24.2958
24.6487
25.1719
25.5994
26.1732
26.4712
26.6958
26.7501
28.4089
33.684
51.2245
228.47
24.695
25.2134
25.6398
26.2019
26.4854
26.677
26.7102
28.4086
33.7895
51.5236
229.748
24.7246
25.2345
25.6474
26.1945
26.4574
26.632
26.6539
28.4043
33.8861
51.8006
231.009
24.7549
25.2592
25.6702
26.2085
26.4606
26.6119
26.6191
28.4064
33.9743
52.0476
232.035
24.7783
25.2783
25.6823
26.209
26.4444
26.5799
26.5791
28.4062
34.0512
52.2645
232.953
24.8008
25.2956
25.6956
26.2135
26.441
26.5618
26.5517
28.4085
34.1164
52.4483
233.69
24.8151
25.3074
25.7033
26.2153
26.4334
26.5423
26.5266
28.41
34.1692
52.5999
234.28
24.8299
25.319
25.7121
26.2186
26.4297
26.5295
26.5089
28.4118
34.2094
52.7201
234.707
25.3249
25.7162
26.219
26.4256
26.5197
26.496
28.4127
34.2363
52.8106
234.973
25.3285
25.7188
26.2196
26.4236
26.5145
26.489
28.4128
34.2498
52.8682
235.078
18.0133
18.2427
18.4245
18.7536
19.0022
19.4523
19.7455
20.3104
20.5555
21.1483
21.4339
23.1885
27.9266
42.9252
215.73
18.1203
18.3545
18.5441
18.8685
19.1182
19.5507
19.8373
20.3709
20.5925
21.1483
21.4361
23.3533
28.3936
44.671
217.387
18.347
18.5225
18.836
19.0749
19.4994
19.7777
20.305
20.5215
21.0655
21.2967
23.2338
28.3949
44.4864
221.001
18.4293
18.6138
18.9257
19.1682
19.578
19.8513
20.3507
20.5489
21.0499
21.2721
23.2854
28.5933
45.059
222.778
18.6137
18.9136
19.1428
19.5428
19.8071
20.2973
20.4879
20.9786
21.1638
23.2487
28.7221
45.3957
225.866
18.6817
18.9796
19.2141
19.6042
19.8651
20.3305
20.5075
20.9553
21.13
23.2736
28.8853
45.818
227.695
18.6954
18.9844
19.2056
19.5835
19.8336
20.288
20.4553
20.8912
21.0426
23.2698
29.0371
46.2265
230.297
19.0309
19.2559
19.6272
19.8768
20.3103
20.4672
20.8635
21.0057
23.2927
29.1951
46.6302
232.077
19.0428
19.2597
19.62
19.8577
20.2781
20.4242
20.8058
20.9359
23.305
29.3473
47.0291
234.237
19.0775
19.2953
19.648
19.8861
20.2903
20.4285
20.7762
20.8997
23.3305
29.497
47.4076
235.873
19.0925
19.3041
19.6496
19.8781
20.2686
20.3959
20.7266
20.8459
23.3512
29.6388
47.7693
237.627
19.3287
19.6672
19.8944
20.272
20.3938
20.6978
20.8135
23.3779
29.7729
48.103
239.042
19.34
19.6722
19.8923
20.2586
20.3714
20.6579
20.7737
23.4014
29.8959
48.4094
240.413
19.3555
19.6818
19.9002
20.2568
20.3649
20.6317
20.7468
23.4262
30.0071
48.682
241.547
19.3652
19.6873
19.9016
20.2492
20.3506
20.6021
20.7191
23.4477
30.1043
48.9201
242.553
19.376
19.6935
19.9054
20.2454
20.3428
20.5809
20.6989
23.4675
30.1867
49.1214
243.365
19.3821
19.6969
19.9065
20.2409
20.3345
20.5616
20.6814
23.4836
30.2533
49.2864
244.013
19.3901
19.7017
19.9093
20.2388
20.3292
20.5478
20.6686
23.496
30.3039
49.4167
244.481
19.703
19.9096
20.2361
20.3245
20.5377
20.6591
23.5041
30.338
49.5145
244.773
19.7041
19.9101
20.2349
20.3221
20.5324
20.6539
23.5079
30.3553
49.577
244.885
14.5171
14.6706
14.8006
15.017
15.1817
15.48
15.6599
16.0595
16.2046
16.7995
17.27
19.6728
25.2123
40.9936
222.765
14.5859
14.7393
14.8727
15.0823
15.2485
15.5313
15.7111
16.0843
16.2319
16.8084
17.3339
19.9085
25.729
42.8026
224.514
14.7286
14.8538
15.0564
15.2167
15.493
15.6681
16.0338
16.1785
16.7324
17.2041
19.8392
25.8008
42.7659
228.314
14.7777
14.9071
15.1051
15.2673
15.5302
15.7049
16.0468
16.1918
16.7144
17.2169
19.9283
26.0321
43.3682
230.227
14.9016
15.0924
15.2478
15.5036
15.6738
16.0069
16.151
16.6574
17.1369
19.9469
26.215
43.7899
233.477
14.9402
15.1273
15.285
15.5304
15.7002
16.0128
16.1572
16.6295
17.1298
20.0099
26.4182
44.2643
235.459
14.9435
15.1247
15.2756
15.5129
15.6778
15.9806
16.1243
16.5809
17.0781
20.0552
26.614
44.7298
238.205
15.1486
15.3009
15.5304
15.6954
15.9813
16.1254
16.5501
17.0642
20.1162
26.8105
45.1833
240.135
15.1511
15.2988
15.5207
15.6804
15.956
16.099
16.5067
17.0303
20.1713
27.0007
45.6281
242.424
15.1684
15.316
15.5307
15.6903
15.9526
16.0957
16.4764
17.0163
20.2322
27.1849
46.049
244.197
15.1736
15.3173
15.5261
15.6815
15.9338
16.0757
16.4387
16.9948
20.2895
27.3591
46.4484
246.064
15.3282
15.5311
15.6856
15.9276
16.0696
16.411
16.9837
20.3472
27.5223
46.8162
247.594
15.3313
15.5291
15.6806
15.9142
16.0552
16.3801
16.9705
20.4006
27.6717
47.1519
249.061
15.3372
15.5307
15.6811
15.9072
16.0479
16.3563
16.9628
20.4508
27.806
47.45
250.285
15.3402
15.5301
15.6787
15.8981
16.0379
16.3328
16.9551
20.4952
27.9233
47.7092
251.364
15.3442
15.5308
15.678
15.892
16.0312
16.3144
16.95
20.5338
28.0224
47.9277
252.24
15.3461
15.5305
15.6767
15.8863
16.0248
16.2987
16.9457
20.5653
28.1026
48.1063
252.936
15.3502
15.532
15.6767
15.8827
16.0204
16.2869
16.9425
20.5893
28.1634
48.2469
253.437
15.5312
15.6755
15.8792
16.0166
16.2784
16.9397
20.6052
28.2046
48.3526
253.747
15.531
15.675
15.8775
16.0146
16.2739
16.9378
20.6129
28.2257
48.421
253.862
11.8027
11.8956
12.0025
12.1311
12.2679
12.4494
12.6182
12.893
13.1192
13.7103
14.6352
17.6272
23.7952
40.6508
229.43
11.8459
11.9378
12.0449
12.1689
12.3064
12.479
12.6511
12.9119
13.1559
13.7487
14.7721
17.9179
24.3574
42.5193
231.235
11.927
12.0298
12.1487
12.2832
12.4502
12.6198
12.8715
13.1152
13.6735
14.6644
17.9099
24.4955
42.5986
235.231
11.9557
12.0592
12.1745
12.3091
12.4681
12.6386
12.8766
13.1287
13.6696
14.7163
18.0313
24.7588
43.2336
237.247
12.0526
12.1635
12.2951
12.449
12.6181
12.8483
13.1049
13.6239
14.6772
18.1043
24.9899
43.7245
240.659
12.0728
12.1811
12.3127
12.4601
12.629
12.8476
13.1093
13.6058
14.7003
18.2049
25.2311
44.2455
242.765
12.0717
12.1764
12.305
12.4473
12.6147
12.8261
13.0926
13.5716
14.6917
18.2956
25.4665
44.7598
245.648
12.188
12.3162
12.4535
12.6204
12.8225
13.0926
13.55
14.7071
18.3938
25.6989
45.2562
247.705
12.1868
12.3127
12.4453
12.6104
12.8061
13.08
13.5215
14.7129
18.4882
25.9235
45.7407
250.114
12.1951
12.3199
12.4479
12.6122
12.8007
13.0773
13.5006
14.728
18.5829
26.139
46.1975
252.003
12.1962
12.3185
12.4427
12.6053
12.7885
13.0677
13.4768
14.7405
18.6734
26.3425
46.6293
253.973
12.3221
12.4429
12.6047
12.7826
13.0635
13.4582
14.7564
18.7601
26.5319
47.0259
255.603
12.3216
12.4395
12.5999
12.7737
13.0562
13.4392
14.7711
18.8406
26.7049
47.3869
257.155
12.3229
12.4383
12.598
12.7682
13.0516
13.4239
14.7864
18.9141
26.8598
47.7064
258.457
12.3227
12.4362
12.595
12.762
13.0462
13.4096
14.8001
18.9791
26.9949
47.9837
259.602
12.3234
12.4352
12.5932
12.7577
13.0421
13.3981
14.8126
19.0347
27.1089
48.2168
260.532
12.3234
12.434
12.5915
12.7539
13.0384
13.3886
14.8227
19.0801
27.201
48.407
261.269
12.3254
12.4344
12.5908
12.7513
13.0356
13.3813
14.8304
19.1145
27.2709
48.5568
261.799
12.4332
12.5894
12.7488
13.0332
13.3758
14.8351
19.1374
27.3184
48.6699
262.123
12.4326
12.5886
12.7474
13.0317
13.3727
14.837
19.1488
27.3429
48.7445
262.236
9.66365
9.71977
9.81198
9.8897
10.0174
10.1356
10.3266
10.5472
10.9076
11.5561
13.0267
16.5105
23.22
41.3228
235.887
9.69069
9.7467
9.83768
9.91435
10.042
10.1594
10.3548
10.5771
10.9608
11.6372
13.224
16.8404
23.8204
43.2424
237.729
9.73737
9.8256
9.89871
10.0242
10.1373
10.3305
10.5441
10.9273
11.5597
13.1554
16.893
24.016
43.4076
241.932
9.75421
9.84129
9.9133
10.0376
10.149
10.3425
10.5549
10.9453
11.5809
13.2345
17.0417
24.307
44.0696
244.033
9.83535
9.90487
10.0277
10.1364
10.3295
10.5372
10.9333
11.5461
13.2427
17.1611
24.5776
44.6129
247.608
9.84503
9.91392
10.0356
10.1427
10.3346
10.5409
10.9399
11.5469
13.2937
17.2954
24.8515
45.1707
249.825
9.84256
9.90976
10.03
10.135
10.3266
10.5304
10.9344
11.5288
13.3268
17.4244
25.12
45.7232
252.844
9.91538
10.0344
10.1382
10.3285
10.5312
10.9368
11.5241
13.3727
17.5555
25.3826
46.2533
255.017
9.91374
10.0315
10.1336
10.3231
10.5247
10.9333
11.5134
13.4145
17.683
25.636
46.7693
257.54
9.91782
10.0341
10.1348
10.323
10.5242
10.9336
11.5085
13.4596
17.8072
25.8779
47.2544
259.539
9.91788
10.0325
10.1318
10.3192
10.5203
10.931
11.5021
13.5029
17.9258
26.1058
47.7119
261.606
10.0332
10.1316
10.3181
10.5193
10.9301
11.4984
13.5457
18.0376
26.3172
48.1313
263.329
10.0319
10.1295
10.3154
10.5169
10.9278
11.4947
13.5859
18.1408
26.51
48.5122
264.962
10.0315
10.1286
10.314
10.5159
10.9263
11.4924
13.6233
18.2343
26.6821
48.8489
266.339
10.0304
10.1273
10.3122
10.5146
10.9244
11.4904
13.6568
18.3166
26.8319
49.1404
267.545
10.0301
10.1267
10.3111
10.5138
10.9228
11.4891
13.6857
18.3867
26.9582
49.3852
268.527
10.0295
10.1261
10.3102
10.5131
10.9213
11.4881
13.7093
18.4437
27.0602
49.5847
269.303
10.0306
10.1264
10.3099
10.5127
10.9201
11.4872
13.7271
18.4869
27.1376
49.742
269.86
10.1257
10.309
10.5119
10.9188
11.4862
13.7388
18.5159
27.1904
49.8616
270.196
10.1253
10.3084
10.5113
10.918
11.4853
13.7444
18.5304
27.2178
49.9417
270.308
7.9569
7.99993
8.07554
8.13918
8.25512
8.36566
8.5706
8.81623
9.28339
10.1028
12.076
15.9456
23.1468
42.5584
242.367
7.97486
8.01872
8.09342
8.15877
8.27559
8.39142
8.60266
8.86319
9.3546
10.2321
12.3131
16.3027
23.7776
44.5203
244.245
8.01108
8.08353
8.14663
8.26115
8.37438
8.58215
8.83714
9.32334
10.1589
12.297
16.4105
24.0214
44.7506
248.662
8.02145
8.09265
8.15641
8.27013
8.38585
8.59446
8.85737
9.34686
10.2072
12.3947
16.5831
24.3357
45.433
250.846
8.08795
8.15076
8.26354
8.37895
8.5871
8.85007
9.34207
10.1907
12.4482
16.7405
24.6376
46.0163
254.59
8.09271
8.15617
8.26799
8.38502
8.59253
8.86115
9.3521
10.2134
12.5261
16.9044
24.9387
46.6029
256.917
8.09047
8.15368
8.26487
8.38236
8.59004
8.86106
9.35361
10.2174
12.5957
17.0651
25.234
47.1857
260.072
8.1569
8.26735
8.3861
8.59303
8.86862
9.35953
10.2338
12.671
17.2244
25.5214
47.7425
262.361
8.15616
8.26616
8.38548
8.59247
8.87148
9.36215
10.2456
12.7439
17.3793
25.7983
48.2839
265
8.15871
8.26783
8.38789
8.59439
8.87733
9.36623
10.2611
12.8167
17.5287
26.0619
48.7921
267.107
8.15917
8.26747
8.38803
8.59461
8.88117
9.36872
10.2756
12.8868
17.6706
26.3097
49.2706
269.273
8.26806
8.38937
8.59595
8.88595
9.37153
10.291
12.9538
17.8035
26.5392
49.7088
271.09
8.26765
8.38969
8.59651
8.88971
9.37347
10.3055
13.0162
17.9258
26.748
50.1062
272.804
8.26764
8.39044
8.5975
8.8935
9.37529
10.3196
13.0732
18.0359
26.9342
50.4572
274.257
8.26724
8.3908
8.59819
8.89661
9.37659
10.3323
13.1238
18.1327
27.0961
50.7607
275.525
8.26719
8.39137
8.59902
8.89939
9.37765
10.3435
13.1671
18.2149
27.2325
51.0153
276.559
8.26708
8.39187
8.59975
8.9016
9.37838
10.3527
13.2024
18.2816
27.3426
51.2227
277.375
8.26791
8.39278
8.60054
8.90327
9.3788
10.3597
13.2291
18.3322
27.4263
51.3864
277.959
8.39279
8.6006
8.90398
9.37872
10.3639
13.2468
18.3662
27.4834
51.5114
278.31
8.39265
8.60047
8.90414
9.37849
10.3658
13.2555
18.3833
27.5133
51.5965
278.42
6.5829
6.6263
6.68734
6.75793
6.86329
6.99803
7.21138
7.52992
8.07588
9.18023
11.5475
15.7163
23.3708
44.0895
249.085
6.59656
6.64124
6.70305
6.77678
6.88574
7.02876
7.25291
7.59266
8.16865
9.35111
11.8072
16.0921
24.025
46.0874
251.004
6.63505
6.69492
6.76725
6.87384
7.01563
7.2353
7.57376
8.13539
9.30062
11.8464
16.2477
24.3096
46.372
255.64
6.64222
6.70192
6.77554
6.88326
7.02884
7.25261
7.60076
8.16742
9.36757
11.9606
16.4423
24.6437
47.0706
257.914
6.69886
6.77253
6.87989
7.02688
7.25056
7.60319
8.16736
9.38079
12.0526
16.6302
24.9706
47.6872
261.829
6.70224
6.77691
6.88491
7.03438
7.2603
7.61972
8.18364
9.42375
12.1563
16.8199
25.2941
48.2984
264.271
6.70117
6.77646
6.88475
7.03619
7.26348
7.62823
8.19146
9.45522
12.2565
17.0065
25.6114
48.9074
267.567
6.77928
6.88821
7.0417
7.27081
7.6411
8.20342
9.49403
12.3582
17.1899
25.9193
49.4875
269.977
6.78001
6.88954
7.04484
7.27573
7.65097
8.21278
9.53072
12.4576
17.3675
26.2156
50.0515
272.733
6.78251
6.89247
7.04938
7.28203
7.66184
8.223
9.5687
12.5546
17.538
26.4972
50.5802
274.954
6.78401
6.8943
7.05268
7.28723
7.67123
8.23204
9.60555
12.6475
17.6993
26.7615
51.0779
277.22
6.89645
7.05627
7.29269
7.68034
8.24087
9.64138
12.7352
17.8499
27.006
51.5331
279.135
6.89794
7.05919
7.29748
7.68833
8.24881
9.67516
12.8165
17.988
27.2282
51.9459
280.933
6.89946
7.062
7.30203
7.69554
8.25608
9.70639
12.8901
18.1121
27.4262
52.3101
282.462
6.90057
7.06434
7.30597
7.70168
8.26241
9.73435
12.9551
18.2208
27.5982
52.6248
283.795
6.90165
7.06646
7.30946
7.70686
8.26782
9.75849
13.0106
18.3131
27.743
52.8887
284.884
6.90252
7.06824
7.31235
7.71098
8.27218
9.77828
13.0556
18.388
27.8599
53.1035
285.742
6.90372
7.06989
7.31465
7.71404
8.27538
9.79326
13.0898
18.4447
27.9488
53.2732
286.356
7.07065
7.31589
7.7158
8.27725
9.80307
13.1125
18.4829
28.0096
53.4032
286.722
7.07091
7.31635
7.71652
8.27799
9.80777
13.1238
18.5022
28.0415
53.4926
286.832
5.46914
5.51529
5.57144
5.65252
5.76007
5.92287
6.16035
6.55361
7.20534
8.64346
11.2911
15.7018
23.7835
45.7946
256.172
5.48135
5.52922
5.58804
5.67326
5.78745
5.96
6.21382
6.62909
7.32554
8.84023
11.5631
16.0905
24.4561
47.8258
258.136
5.52418
5.58158
5.66569
5.77815
5.94983
6.20003
6.61581
7.29133
8.83106
11.6527
16.2866
24.7756
48.16
262.999
5.53029
5.58878
5.6745
5.79018
5.9657
6.22404
6.64608
7.33598
8.9094
11.7845
16.5015
25.1272
48.8737
265.368
5.58768
5.67397
5.79032
5.968
6.22806
6.65569
7.344
8.95665
11.9075
16.7139
25.4746
49.5208
269.459
5.5915
5.67897
5.79763
5.97786
6.24355
6.67529
7.37068
9.01996
12.0352
16.9256
25.8172
50.1553
272.023
5.59215
5.68072
5.80081
5.98365
6.25292
6.68934
7.38906
9.07877
12.161
17.1339
26.1529
50.7891
275.461
5.68447
5.80656
5.99173
6.26565
6.70554
7.41165
9.14069
12.286
17.3374
26.4784
51.3917
277.997
5.68703
5.81083
5.99841
6.27637
6.71964
7.43224
9.20147
12.4079
17.5341
26.7912
51.9776
280.875
5.69052
5.81599
6.00567
6.28771
6.73364
7.45337
9.2617
12.5257
17.7222
27.0881
52.5264
283.212
5.69347
5.8204
6.01212
6.29802
6.7463
7.47348
9.31992
12.6379
17.8999
27.3667
53.0429
285.583
5.82475
6.01841
6.30795
6.75809
7.49289
9.37549
12.7432
18.0652
27.624
53.5153
287.598
5.82851
6.02405
6.31696
6.7686
7.51101
9.42741
12.8404
18.2165
27.8578
53.9433
289.485
5.83199
6.02923
6.32516
6.77793
7.52767
9.47486
12.9281
18.3523
28.066
54.321
291.093
5.83491
6.03372
6.3323
6.78592
7.54251
9.51703
13.0053
18.4712
28.2467
54.6472
292.493
5.83746
6.03762
6.3384
6.79261
7.55531
9.5532
13.071
18.5719
28.3988
54.9206
293.639
5.83952
6.04083
6.34336
6.79793
7.56578
9.58274
13.1243
18.6535
28.5217
55.1431
294.541
5.84138
6.04343
6.34714
6.80187
7.57368
9.60514
13.1648
18.7154
28.6151
55.3188
295.186
6.04497
6.34947
6.80431
7.57877
9.62001
13.1918
18.7571
28.6791
55.4536
295.57
6.04564
6.3505
6.8054
7.58116
9.62732
13.2053
18.7782
28.7127
55.5469
295.681
4.5589
4.60663
4.66793
4.75713
4.88056
5.06558
5.34835
5.80125
6.63767
8.37114
11.215
15.8334
24.3309
47.6323
263.685
4.57128
4.62153
4.68683
4.78158
4.91353
5.11051
5.41258
5.8898
6.78577
8.57976
11.4942
16.2313
25.0184
49.6959
265.7
4.61749
4.68201
4.77572
4.90708
5.10282
5.40439
5.87832
6.76363
8.61853
11.6262
16.4608
25.3685
50.0785
270.794
4.62401
4.69032
4.78647
4.92187
5.12258
5.4331
5.91172
6.82028
8.70898
11.7767
16.6946
25.7361
50.8076
273.266
4.69135
4.78842
4.9257
5.12885
5.44381
5.92577
6.84565
8.78663
11.9248
16.9272
26.101
51.4841
277.535
4.69636
4.79522
4.9355
5.14221
5.46373
5.9483
6.88621
8.87134
12.0741
17.1577