/*--------------------------------*- C++ -*----------------------------------*\
  =========                 |
  \\      /  F ield         | OpenFOAM: The Open Source CFD Toolbox
   \\    /   O peration     | Website:  https://openfoam.org
    \\  /    A nd           | Version:  6
     \\/     M anipulation  |
\*---------------------------------------------------------------------------*/
FoamFile
{
    version     2.0;
    format      ascii;
    class       volVectorField;
    location    "1.6";
    object      U;
}
// * * * * * * * * * * * * * * * * * * * * * * * * * * * * * * * * * * * * * //

dimensions      [0 1 -1 0 0 0 0];

internalField   nonuniform List<vector> 
63552
(
(0.130973 -0.0930796 -0.000139673)
(0.134972 -0.104505 -5.05658e-05)
(0.1355 -0.11555 0.00022528)
(0.137626 -0.128965 2.83266e-05)
(0.140032 -0.144143 0.000228856)
(0.142582 -0.1605 -0.000168508)
(0.145662 -0.178626 0.000212944)
(0.150361 -0.197841 -0.000396878)
(0.154834 -0.219232 -3.62313e-05)
(0.162472 -0.241396 -0.000346805)
(0.16973 -0.269389 0.000294649)
(0.18072 -0.303754 -0.00141597)
(0.200198 -0.338953 -0.00370459)
(0.238004 -0.344719 -0.0074791)
(0.204793 -0.263328 -0.00882395)
(0.120254 -0.0935875 0.00132903)
(0.125851 -0.105815 8.86503e-05)
(0.125197 -0.116688 0.000329476)
(0.128246 -0.130754 4.00554e-05)
(0.130018 -0.145941 0.000230647)
(0.132005 -0.162245 -0.00013077)
(0.134132 -0.180177 0.000115023)
(0.138248 -0.199151 -0.000350864)
(0.141599 -0.220105 -0.000455608)
(0.147556 -0.242047 -0.00056199)
(0.153159 -0.269651 -0.000654236)
(0.161665 -0.302911 -0.00175581)
(0.179383 -0.336696 -0.00426188)
(0.214891 -0.341821 -0.00785897)
(0.187748 -0.262243 -0.00796976)
(0.115095 -0.105074 0.000909405)
(0.113628 -0.115915 0.000667255)
(0.118347 -0.130791 -6.13051e-05)
(0.118616 -0.145479 3.3266e-05)
(0.120128 -0.161801 -5.89565e-05)
(0.122234 -0.179848 -0.000575838)
(0.125202 -0.19823 -0.000390054)
(0.127491 -0.218961 -0.000145058)
(0.132043 -0.240411 -0.00027998)
(0.13569 -0.267078 -0.000713889)
(0.141823 -0.299468 -0.00198357)
(0.157273 -0.33167 -0.00457645)
(0.19101 -0.337479 -0.00805633)
(0.170378 -0.260077 -0.00708125)
(0.104026 -0.103847 -0.000202405)
(0.103577 -0.115137 -0.000434801)
(0.108176 -0.130194 0.00019468)
(0.106745 -0.144352 0.000299283)
(0.108326 -0.160815 -0.00030084)
(0.11002 -0.178571 -0.000432203)
(0.112181 -0.196634 -0.00104903)
(0.11336 -0.21674 -0.000428694)
(0.116352 -0.237729 -9.1886e-05)
(0.118384 -0.263549 -0.000596134)
(0.122447 -0.294835 -0.0021496)
(0.136116 -0.325759 -0.00386231)
(0.167317 -0.331488 -0.00881093)
(0.15265 -0.255398 -0.00903393)
(0.0958769 -0.114999 0.00024298)
(0.0955499 -0.127973 0.000717861)
(0.093093 -0.141571 0.0014151)
(0.0958536 -0.158374 0.000147572)
(0.0971352 -0.175851 -0.000310239)
(0.098897 -0.193509 -0.000685266)
(0.0988437 -0.212973 -0.000642485)
(0.100549 -0.233387 -0.000711105)
(0.100894 -0.258286 -0.0006928)
(0.102812 -0.288192 -0.00168282)
(0.114509 -0.317912 -0.00369764)
(0.143906 -0.323545 -0.00807317)
(0.134292 -0.248985 -0.00975067)
(0.0795283 -0.110599 0.00132966)
(0.0814637 -0.124515 0.00106499)
(0.079011 -0.137561 0.000768184)
(0.0828995 -0.15462 0.00115608)
(0.0841467 -0.171953 -7.12716e-05)
(0.0851363 -0.189211 -0.000291304)
(0.0843778 -0.20786 -0.000774668)
(0.0848166 -0.227449 -0.00105097)
(0.0835693 -0.251441 -0.000767969)
(0.0834311 -0.280206 -0.00171588)
(0.0934868 -0.308235 -0.00409702)
(0.121009 -0.314327 -0.00753754)
(0.116065 -0.241051 -0.00937736)
(0.0739871 -0.10956 -0.000242918)
(0.0707463 -0.121108 7.4864e-05)
(0.0699878 -0.134735 -0.000652337)
(0.0694622 -0.149318 0.000205941)
(0.0711714 -0.166617 0.000329635)
(0.0714325 -0.18344 -0.00043261)
(0.0698444 -0.201301 -0.000673959)
(0.069291 -0.220071 -0.000912557)
(0.0664065 -0.242959 -0.00103552)
(0.0643767 -0.270189 -0.00165374)
(0.0725732 -0.296816 -0.00402353)
(0.0985793 -0.302649 -0.00924659)
(0.0984378 -0.231649 -0.0091001)
(0.062186 -0.117651 -0.000318543)
(0.0595241 -0.130242 -0.000178825)
(0.0594568 -0.144749 -0.000595814)
(0.0580031 -0.159853 -0.000419861)
(0.0577333 -0.176223 0.000231486)
(0.0553788 -0.193349 -0.000687811)
(0.0538924 -0.211216 -0.000867136)
(0.0497445 -0.232696 -0.00161139)
(0.045685 -0.258742 -0.00156476)
(0.0526284 -0.283652 -0.00495374)
(0.0769305 -0.289166 -0.00869764)
(0.0814076 -0.220768 -0.00901046)
(0.0519213 -0.112504 -8.9494e-05)
(0.0487923 -0.124559 -0.000198975)
(0.0467328 -0.137667 0.00013009)
(0.0461436 -0.152749 -0.000153333)
(0.0435932 -0.167312 -0.000185504)
(0.0412431 -0.18388 -0.000164145)
(0.0390003 -0.200947 -0.00120723)
(0.0337961 -0.220741 -0.00140916)
(0.0277798 -0.245422 -0.00217199)
(0.0333116 -0.26829 -0.00532733)
(0.0560708 -0.274088 -0.00873483)
(0.0652228 -0.208159 -0.0096522)
(0.0436741 -0.107104 -0.000387131)
(0.0396785 -0.118305 -0.000538214)
(0.0363048 -0.130286 -0.000636353)
(0.0325223 -0.143299 0.000183944)
(0.0311937 -0.157857 -0.000384441)
(0.0268656 -0.172781 2.97077e-05)
(0.0246555 -0.189075 -0.00108577)
(0.018209 -0.207652 -0.0010338)
(0.010751 -0.230221 -0.00263491)
(0.0151031 -0.25128 -0.00574729)
(0.0364498 -0.256725 -0.00926173)
(0.0498714 -0.194592 -0.00953792)
(0.0350668 -0.100347 -0.000354869)
(0.0304582 -0.110736 -0.000504503)
(0.0266879 -0.121907 -0.00078676)
(0.0224906 -0.133984 -0.000924605)
(0.0180355 -0.146455 -0.000390443)
(0.0138884 -0.160568 -0.00113311)
(0.0106946 -0.175714 -0.000560974)
(0.00341914 -0.192962 -0.00125209)
(-0.00509521 -0.213563 -0.00274486)
(-0.00201587 -0.232591 -0.00567606)
(0.0179039 -0.237952 -0.008665)
(0.0355211 -0.180008 -0.00736818)
(0.0220049 -0.10224 -0.000560543)
(0.0172332 -0.112269 -0.000654611)
(0.0119795 -0.123096 -0.000782869)
(0.00773745 -0.1348 -0.00120427)
(0.00208299 -0.14726 -0.00111739)
(-0.00288655 -0.160841 -0.000946201)
(-0.0105074 -0.176779 -0.00137777)
(-0.0199511 -0.19536 -0.00294344)
(-0.0180795 -0.212662 -0.00561641)
(0.000654537 -0.217504 -0.00921984)
(0.0228999 -0.16323 -0.00780942)
(0.0141093 -0.0927546 -0.000621195)
(0.00873499 -0.101748 -0.000788068)
(0.00274117 -0.111364 -0.000912905)
(-0.00289429 -0.121543 -0.000954874)
(-0.00919577 -0.132796 -0.0011838)
(-0.014554 -0.145041 -0.00153343)
(-0.0233709 -0.159279 -0.00160212)
(-0.0332664 -0.175825 -0.00314482)
(-0.0326638 -0.191187 -0.00583671)
(-0.014784 -0.195562 -0.00951709)
(0.0113672 -0.14599 -0.00988743)
(0.00699998 -0.0823739 -0.000653854)
(0.00103642 -0.0902399 -0.000825952)
(-0.00547264 -0.0986859 -0.00100984)
(-0.011594 -0.10766 -0.00127622)
(-0.0188799 -0.117366 -0.00137066)
(-0.0256669 -0.127928 -0.00144174)
(-0.0350664 -0.140539 -0.00190826)
(-0.0455484 -0.155126 -0.00300037)
(-0.0456832 -0.168413 -0.00610899)
(-0.0287109 -0.172278 -0.00943138)
(0.000798081 -0.127893 -0.00911671)
(0.000667807 -0.0711694 -0.000691986)
(-0.00579931 -0.0778881 -0.000859793)
(-0.0128854 -0.0850727 -0.00101147)
(-0.0196503 -0.0926989 -0.00119504)
(-0.0274364 -0.101007 -0.00143581)
(-0.0347887 -0.110022 -0.001829)
(-0.045341 -0.120737 -0.00207741)
(-0.0564724 -0.133268 -0.00317918)
(-0.0570104 -0.144487 -0.00636867)
(-0.0406725 -0.14794 -0.00962427)
(-0.00807417 -0.109378 -0.0101429)
(-0.00471375 -0.0592595 -0.000723619)
(-0.0116046 -0.0647979 -0.000899613)
(-0.0191165 -0.0707239 -0.00107214)
(-0.0264027 -0.0769956 -0.00128297)
(-0.03477 -0.0838025 -0.00144005)
(-0.0428128 -0.0912094 -0.00171611)
(-0.0540626 -0.100062 -0.00223885)
(-0.0658818 -0.110413 -0.0034118)
(-0.0667457 -0.119649 -0.00632796)
(-0.0509661 -0.122449 -0.00957492)
(-0.0155946 -0.0902494 -0.0101537)
(-0.00915257 -0.0467387 -0.000749438)
(-0.0163704 -0.0510697 -0.000930136)
(-0.0242387 -0.0556972 -0.00110322)
(-0.0318854 -0.0606053 -0.00131517)
(-0.0406599 -0.0659362 -0.00150855)
(-0.0492271 -0.07171 -0.00183757)
(-0.0611269 -0.0786227 -0.00232057)
(-0.0735098 -0.0867255 -0.00361411)
(-0.0748229 -0.0939496 -0.00659576)
(-0.0591202 -0.0960444 -0.0103243)
(-0.0215788 -0.0706382 -0.0104208)
(-0.0125075 -0.0337371 -0.00077215)
(-0.0199932 -0.036844 -0.000955415)
(-0.0281246 -0.0401655 -0.00113367)
(-0.0360874 -0.0436775 -0.00135049)
(-0.0451691 -0.0474908 -0.00153853)
(-0.0540921 -0.0516297 -0.00187112)
(-0.0664791 -0.056594 -0.00239978)
(-0.0792656 -0.0624041 -0.00375325)
(-0.0808836 -0.0675595 -0.00684507)
(-0.0653245 -0.0690762 -0.0104148)
(-0.0260888 -0.0506831 -0.0106291)
(-0.0224477 -0.0222502 -0.000976324)
(-0.0307526 -0.0242478 -0.00115877)
(-0.0389107 -0.0263593 -0.00137988)
(-0.0481955 -0.0286567 -0.00157269)
(-0.0573716 -0.0311367 -0.00191895)
(-0.0700819 -0.0341278 -0.00246229)
(-0.0831348 -0.0376335 -0.00386383)
(-0.0849478 -0.0407143 -0.00705773)
(-0.069438 -0.0416227 -0.0107447)
(-0.0290648 -0.0304521 -0.0107998)
(-0.0236774 -0.00744819 -0.000991394)
(-0.0320719 -0.00811525 -0.00117791)
(-0.040329 -0.00881921 -0.0014043)
(-0.0497147 -0.00958612 -0.00160122)
(-0.0590115 -0.0104117 -0.00196057)
(-0.0718991 -0.0114132 -0.00251888)
(-0.0850809 -0.0125871 -0.00394983)
(-0.0869874 -0.0136079 -0.00721629)
(-0.0714826 -0.013908 -0.0109747)
(-0.0305171 -0.0101389 -0.0109746)
(0.185127 -0.114403 -0.00119062)
(0.183403 -0.125539 -0.000706403)
(0.181989 -0.138329 -0.000683074)
(0.180935 -0.152481 -0.000374956)
(0.18022 -0.16852 -0.000437144)
(0.181285 -0.186352 -0.000421235)
(0.18227 -0.205463 -0.000730533)
(0.185805 -0.225488 -0.000918529)
(0.188696 -0.246968 -0.00143014)
(0.195563 -0.267757 -0.0018928)
(0.203161 -0.292551 -0.00205406)
(0.213946 -0.319141 -0.00359035)
(0.228258 -0.350339 -0.00837417)
(0.258226 -0.363994 -0.0163117)
(0.220748 -0.296388 -0.0167894)
(0.179685 -0.116764 -0.00180739)
(0.175927 -0.127277 -0.00107844)
(0.174068 -0.140281 -0.00102068)
(0.171942 -0.154115 -0.000616811)
(0.170239 -0.169931 -0.00069555)
(0.170158 -0.18727 -0.000728108)
(0.170567 -0.206217 -0.000967177)
(0.172284 -0.225242 -0.00118151)
(0.173862 -0.246048 -0.00159767)
(0.179413 -0.266663 -0.00214294)
(0.185311 -0.290814 -0.00216926)
(0.193725 -0.317114 -0.00391369)
(0.20621 -0.347206 -0.00874602)
(0.233897 -0.36072 -0.0169673)
(0.202416 -0.29449 -0.017816)
(0.168874 -0.127675 -0.00128167)
(0.166179 -0.14062 -0.00105436)
(0.162376 -0.153774 -0.000791781)
(0.159938 -0.169474 -0.000948919)
(0.158899 -0.186393 -0.0010402)
(0.157714 -0.204482 -0.00105529)
(0.158334 -0.223087 -0.00137807)
(0.158657 -0.243352 -0.00186018)
(0.162519 -0.26337 -0.00241695)
(0.166782 -0.286959 -0.00240852)
(0.172934 -0.312796 -0.00415441)
(0.18346 -0.341827 -0.00903961)
(0.208885 -0.355619 -0.0172992)
(0.183712 -0.291803 -0.019088)
(0.161677 -0.127537 -0.0007077)
(0.157777 -0.140008 -0.00061927)
(0.152818 -0.152837 -0.0011543)
(0.149702 -0.168301 -0.00148505)
(0.147461 -0.184571 -0.00135351)
(0.145005 -0.201949 -0.00141644)
(0.144328 -0.219831 -0.00150365)
(0.143479 -0.239451 -0.00203287)
(0.146002 -0.259077 -0.00269925)
(0.148474 -0.281762 -0.0027312)
(0.152358 -0.306906 -0.0044618)
(0.161092 -0.334715 -0.00953591)
(0.184199 -0.348804 -0.0175814)
(0.164332 -0.286587 -0.0196065)
(0.147607 -0.137678 -0.00118918)
(0.143856 -0.151304 -0.00161193)
(0.140279 -0.166533 -0.00209739)
(0.135974 -0.181647 -0.00196943)
(0.132148 -0.198235 -0.00184672)
(0.12996 -0.215141 -0.00189304)
(0.128111 -0.234156 -0.00221771)
(0.129182 -0.253108 -0.00277557)
(0.130074 -0.274985 -0.00298756)
(0.131852 -0.299325 -0.00484378)
(0.139076 -0.325946 -0.0100665)
(0.159682 -0.340029 -0.0179889)
(0.144828 -0.279354 -0.0201192)
(0.141946 -0.136689 -0.00138923)
(0.135674 -0.149102 -0.00164378)
(0.131204 -0.163779 -0.00164849)
(0.124942 -0.177827 -0.00239352)
(0.119495 -0.193339 -0.00224101)
(0.11621 -0.209528 -0.00233777)
(0.112937 -0.22745 -0.00248332)
(0.112607 -0.245624 -0.00292664)
(0.11196 -0.266584 -0.00322848)
(0.111837 -0.290067 -0.00517071)
(0.11729 -0.315264 -0.010391)
(0.135765 -0.329637 -0.0185511)
(0.125479 -0.27043 -0.0208816)
(0.130894 -0.131906 -0.000446407)
(0.12584 -0.144845 -0.000894045)
(0.119431 -0.158309 -0.000994691)
(0.114147 -0.172859 -0.00189005)
(0.107007 -0.18723 -0.00245863)
(0.102359 -0.202462 -0.00265698)
(0.0978938 -0.219435 -0.00282857)
(0.0961867 -0.236629 -0.00318031)
(0.0941569 -0.256634 -0.00340114)
(0.0921296 -0.279073 -0.00546475)
(0.0961797 -0.302855 -0.0107664)
(0.112301 -0.316975 -0.0186292)
(0.106556 -0.25988 -0.0217299)
(0.115484 -0.139314 -0.000896361)
(0.108711 -0.152299 -0.00135543)
(0.101816 -0.165555 -0.00177759)
(0.094973 -0.179882 -0.00235658)
(0.08909 -0.194144 -0.00304765)
(0.0834234 -0.210047 -0.00321489)
(0.0804434 -0.226235 -0.00346161)
(0.0768005 -0.245061 -0.0035285)
(0.0732299 -0.266413 -0.00576916)
(0.0756488 -0.288604 -0.0110187)
(0.0896883 -0.302475 -0.018959)
(0.0883167 -0.247716 -0.0224729)
(0.106032 -0.133013 -0.000950353)
(0.0985644 -0.145254 -0.00136594)
(0.0913615 -0.158051 -0.00214553)
(0.0825762 -0.170879 -0.00267474)
(0.0765089 -0.184749 -0.00313957)
(0.0693158 -0.199283 -0.00366986)
(0.0650593 -0.214383 -0.00368004)
(0.0599568 -0.231907 -0.00376827)
(0.0549631 -0.252035 -0.00591739)
(0.0559354 -0.272697 -0.011287)
(0.0681257 -0.286205 -0.0193776)
(0.070968 -0.234084 -0.0231404)
(0.096389 -0.12544 -0.00094626)
(0.0880448 -0.136791 -0.00127892)
(0.0802251 -0.148721 -0.00176424)
(0.0719952 -0.161387 -0.00275777)
(0.0638492 -0.173596 -0.00325402)
(0.0563492 -0.187455 -0.00390454)
(0.0504752 -0.201153 -0.0040603)
(0.0441686 -0.217403 -0.00410284)
(0.0375626 -0.236085 -0.00606748)
(0.0372448 -0.255117 -0.011539)
(0.0476291 -0.26793 -0.0195475)
(0.0544903 -0.218886 -0.0238646)
(0.0873216 -0.116975 -0.00103334)
(0.0783563 -0.127464 -0.0014383)
(0.069553 -0.138345 -0.0018464)
(0.0601983 -0.149782 -0.00233406)
(0.05254 -0.161648 -0.00325245)
(0.0435949 -0.17409 -0.003726)
(0.0368203 -0.18666 -0.00444547)
(0.0292351 -0.201475 -0.00436688)
(0.0211698 -0.218611 -0.00626388)
(0.0196712 -0.235983 -0.0118249)
(0.0285242 -0.248115 -0.0200294)
(0.0391806 -0.202547 -0.0252075)
(0.0691358 -0.117043 -0.00149907)
(0.0597753 -0.126967 -0.0019916)
(0.0500001 -0.13745 -0.00254417)
(0.0408914 -0.147925 -0.0030807)
(0.031468 -0.159353 -0.00376504)
(0.0244146 -0.170947 -0.00452727)
(0.0154752 -0.184234 -0.0046413)
(0.00606155 -0.199724 -0.00646331)
(0.00348602 -0.215377 -0.0121171)
(0.0108912 -0.226535 -0.020288)
(0.0252517 -0.185191 -0.0261493)
(0.0606409 -0.105723 -0.00157736)
(0.0506593 -0.114571 -0.00203336)
(0.0401207 -0.12393 -0.00254732)
(0.0308114 -0.133446 -0.0032493)
(0.0206419 -0.143591 -0.00388689)
(0.0125009 -0.153819 -0.0044876)
(0.00289561 -0.165733 -0.00481218)
(-0.00780126 -0.17949 -0.00665169)
(-0.0112654 -0.193394 -0.0123584)
(-0.00506462 -0.203491 -0.0204077)
(0.012503 -0.1659 -0.0256968)
(0.0529723 -0.0935166 -0.00165485)
(0.0424195 -0.101272 -0.00212457)
(0.0313642 -0.109455 -0.00263094)
(0.0211955 -0.117746 -0.00322118)
(0.0105234 -0.126676 -0.00386025)
(0.00218684 -0.135741 -0.00461753)
(-0.00840405 -0.146115 -0.00495034)
(-0.0200783 -0.158124 -0.00691835)
(-0.0244629 -0.1702 -0.0125727)
(-0.0193284 -0.179242 -0.020701)
(0.00115091 -0.146105 -0.0264458)
(0.0461731 -0.080541 -0.00171972)
(0.035171 -0.0871632 -0.00219475)
(0.0236136 -0.0941579 -0.0027182)
(0.0130619 -0.101241 -0.00336118)
(0.00180007 -0.108847 -0.00395674)
(-0.00736081 -0.116561 -0.00456744)
(-0.018351 -0.125463 -0.00503756)
(-0.0307644 -0.135685 -0.00712373)
(-0.0360142 -0.14593 -0.0127814)
(-0.0317387 -0.153673 -0.0208575)
(-0.00870948 -0.124967 -0.0263834)
(0.0403944 -0.0668746 -0.00177702)
(0.0289864 -0.0723326 -0.00225482)
(0.0170192 -0.0780958 -0.00277517)
(0.00594842 -0.0839393 -0.00340788)
(-0.0057117 -0.0902121 -0.00402696)
(-0.0151833 -0.096573 -0.00469439)
(-0.0268621 -0.103913 -0.00510599)
(-0.0398069 -0.112339 -0.00726418)
(-0.0457543 -0.120734 -0.0130384)
(-0.0421432 -0.127213 -0.0212451)
(-0.016995 -0.103311 -0.0267253)
(0.0356552 -0.052637 -0.00182345)
(0.0239318 -0.0569057 -0.00230813)
(0.0116252 -0.0614128 -0.00283417)
(0.000239789 -0.0659766 -0.00347279)
(-0.0117889 -0.0708891 -0.00407759)
(-0.0217111 -0.0758641 -0.00472732)
(-0.033803 -0.0816127 -0.00517091)
(-0.0472095 -0.0882119 -0.00734975)
(-0.0536155 -0.0947502 -0.0132311)
(-0.0506441 -0.099842 -0.0212854)
(-0.0236669 -0.0809397 -0.0268804)
(0.032054 -0.0379337 -0.00186061)
(0.0200848 -0.0409953 -0.00234768)
(0.00753185 -0.0442308 -0.00287603)
(-0.00413786 -0.047507 -0.00352133)
(-0.0164314 -0.0510293 -0.00412821)
(-0.0266144 -0.0545911 -0.00478463)
(-0.0390999 -0.0587258 -0.00522584)
(-0.0528366 -0.0634685 -0.00741686)
(-0.0596178 -0.068136 -0.0133618)
(-0.0570209 -0.071836 -0.0214818)
(-0.0286443 -0.0581249 -0.0270503)
(0.0174804 -0.0247382 -0.00237659)
(0.00476283 -0.0266854 -0.00290796)
(-0.00708469 -0.0286534 -0.00355731)
(-0.0195537 -0.0307781 -0.00416209)
(-0.029931 -0.0329169 -0.00482628)
(-0.0426738 -0.0354079 -0.00527326)
(-0.0566336 -0.0382762 -0.00746825)
(-0.0636574 -0.0410732 -0.0134603)
(-0.0612986 -0.0433204 -0.0216174)
(-0.0319539 -0.0349845 -0.027195)
(0.0161724 -0.00827851 -0.00239369)
(0.00337133 -0.00892907 -0.00292737)
(-0.00856684 -0.00958556 -0.00358194)
(-0.0211244 -0.0102959 -0.00418637)
(-0.0315941 -0.0110071 -0.00485863)
(-0.0444817 -0.0118413 -0.0053092)
(-0.0585511 -0.0128036 -0.00750538)
(-0.0656974 -0.0137339 -0.0135373)
(-0.0634303 -0.014491 -0.0217485)
(-0.0335725 -0.0116713 -0.0272896)
(0.222286 -0.117749 -2.06699e-05)
(0.219393 -0.128844 7.43853e-05)
(0.217155 -0.141329 0.000138969)
(0.214866 -0.15512 2.32943e-05)
(0.212685 -0.170552 -0.000193491)
(0.21143 -0.187362 -0.000547153)
(0.210419 -0.205807 -0.00111404)
(0.211169 -0.224758 -0.00192157)
(0.212262 -0.245491 -0.00282074)
(0.217377 -0.265572 -0.00414074)
(0.22411 -0.288988 -0.00460978)
(0.234377 -0.312616 -0.00721622)
(0.244296 -0.340997 -0.0140227)
(0.267444 -0.35981 -0.0262121)
(0.234808 -0.317216 -0.0337246)
(0.21558 -0.118814 -0.000208811)
(0.211795 -0.129732 -5.33266e-05)
(0.209003 -0.142159 -8.40201e-06)
(0.205676 -0.155702 -0.000112106)
(0.202596 -0.170897 -0.000379836)
(0.200361 -0.187421 -0.000774974)
(0.198216 -0.205433 -0.00139513)
(0.19764 -0.223955 -0.00226758)
(0.197477 -0.24419 -0.00320497)
(0.201201 -0.264011 -0.00452424)
(0.206362 -0.286915 -0.00515595)
(0.214363 -0.310456 -0.00776024)
(0.222479 -0.338005 -0.0146279)
(0.243252 -0.356388 -0.0271536)
(0.215929 -0.31507 -0.0351943)
(0.203893 -0.128988 -0.000197542)
(0.200484 -0.141237 -0.00018672)
(0.19614 -0.15448 -0.000277586)
(0.192277 -0.169435 -0.000520743)
(0.189042 -0.185598 -0.000974939)
(0.185573 -0.203152 -0.00168936)
(0.183663 -0.221241 -0.00255559)
(0.182231 -0.240996 -0.00352441)
(0.184487 -0.260473 -0.00484911)
(0.188084 -0.282874 -0.0055325)
(0.193907 -0.306151 -0.00816235)
(0.200243 -0.332746 -0.0151196)
(0.218452 -0.351093 -0.0277412)
(0.196375 -0.31151 -0.0365573)
(0.195872 -0.127749 -0.000237354)
(0.191543 -0.139716 -0.000308885)
(0.186597 -0.152718 -0.000404688)
(0.182068 -0.16737 -0.000634297)
(0.177671 -0.183058 -0.00119503)
(0.172918 -0.200064 -0.00194365)
(0.169741 -0.217597 -0.00284636)
(0.167026 -0.236725 -0.00388288)
(0.167866 -0.255744 -0.00520598)
(0.169911 -0.277489 -0.00588365)
(0.173599 -0.300352 -0.00860147)
(0.178254 -0.325871 -0.0155982)
(0.194005 -0.34426 -0.0283121)
(0.176267 -0.305693 -0.0379781)
(0.182453 -0.137304 -0.000386247)
(0.177206 -0.150067 -0.000553425)
(0.171768 -0.164282 -0.000880383)
(0.166104 -0.17943 -0.00145847)
(0.160138 -0.195815 -0.00219281)
(0.1557 -0.212733 -0.00311349)
(0.151742 -0.231162 -0.00420767)
(0.15117 -0.24959 -0.00556375)
(0.151698 -0.27058 -0.00623343)
(0.153397 -0.292854 -0.0090105)
(0.156516 -0.317183 -0.0161631)
(0.169775 -0.335575 -0.028801)
(0.156119 -0.297974 -0.0392524)
(0.174032 -0.134193 -0.00054036)
(0.167742 -0.146508 -0.000807085)
(0.161214 -0.160145 -0.00124647)
(0.154511 -0.174714 -0.00179156)
(0.147462 -0.190421 -0.00248982)
(0.141863 -0.20664 -0.00337977)
(0.136643 -0.224282 -0.00450795)
(0.13472 -0.242021 -0.0058857)
(0.133753 -0.262134 -0.00658718)
(0.133526 -0.283679 -0.00941144)
(0.135122 -0.306768 -0.0166658)
(0.14601 -0.325004 -0.0293515)
(0.136103 -0.288352 -0.0403571)
(0.16402 -0.12997 -0.000671035)
(0.157467 -0.141866 -0.00097153)
(0.150065 -0.154897 -0.00145842)
(0.142795 -0.168868 -0.00207478)
(0.134804 -0.183863 -0.00279558)
(0.128152 -0.199348 -0.00367618)
(0.121733 -0.216134 -0.00478388)
(0.118522 -0.23305 -0.00616587)
(0.116125 -0.252191 -0.00693054)
(0.11408 -0.272859 -0.0097845)
(0.114312 -0.294579 -0.0171742)
(0.122848 -0.312512 -0.0298585)
(0.11649 -0.276871 -0.0413464)
(0.147629 -0.136245 -0.00110632)
(0.139502 -0.148641 -0.00157077)
(0.131184 -0.161871 -0.00223532)
(0.122427 -0.176117 -0.00302836)
(0.114804 -0.190788 -0.00395989)
(0.107278 -0.206648 -0.00507994)
(0.102796 -0.222627 -0.00646015)
(0.0990018 -0.240739 -0.00726362)
(0.0952826 -0.260368 -0.0101366)
(0.0941012 -0.280723 -0.0176546)
(0.100514 -0.29818 -0.0302676)
(0.0975763 -0.263672 -0.0422715)
(0.137978 -0.129689 -0.0011959)
(0.129122 -0.141379 -0.00174607)
(0.120124 -0.153871 -0.00241103)
(0.110401 -0.167229 -0.00321458)
(0.101887 -0.181019 -0.0042463)
(0.0932679 -0.195894 -0.00537357)
(0.0875918 -0.210865 -0.00676361)
(0.0824738 -0.227831 -0.00752631)
(0.077203 -0.246291 -0.0104965)
(0.0747675 -0.265226 -0.0181345)
(0.0791821 -0.281961 -0.0307432)
(0.0795317 -0.248869 -0.0430865)
(0.128642 -0.122173 -0.00133883)
(0.118973 -0.133079 -0.00188898)
(0.109188 -0.144725 -0.00260259)
(0.098996 -0.157213 -0.00344618)
(0.089406 -0.170016 -0.00449185)
(0.0799487 -0.183834 -0.00568304)
(0.0731089 -0.197753 -0.00705685)
(0.0667784 -0.213462 -0.00780673)
(0.060034 -0.230685 -0.0108377)
(0.0564038 -0.248143 -0.0185483)
(0.0589724 -0.263984 -0.0311136)
(0.0624786 -0.23258 -0.043762)
(0.119721 -0.113759 -0.00144891)
(0.109428 -0.123828 -0.00201977)
(0.098882 -0.134551 -0.00274035)
(0.0877277 -0.14604 -0.00364058)
(0.0776651 -0.157879 -0.00470015)
(0.0672051 -0.170563 -0.00597664)
(0.0594855 -0.183349 -0.00731679)
(0.0519787 -0.19774 -0.00809411)
(0.0438603 -0.213612 -0.0111305)
(0.0391818 -0.229542 -0.0189092)
(0.0401099 -0.244321 -0.0314897)
(0.0465658 -0.214798 -0.0443167)
(0.100414 -0.113629 -0.00215269)
(0.0892033 -0.123391 -0.00287091)
(0.0774794 -0.133839 -0.00377397)
(0.066469 -0.144569 -0.00489662)
(0.0553234 -0.1561 -0.00615739)
(0.0468746 -0.1677 -0.0075879)
(0.038261 -0.180734 -0.00835915)
(0.0288942 -0.195139 -0.0114097)
(0.0232683 -0.209474 -0.0192562)
(0.0227201 -0.223061 -0.0318607)
(0.0319836 -0.195801 -0.0450313)
(0.092111 -0.102561 -0.00227352)
(0.0803005 -0.11129 -0.00300651)
(0.0678723 -0.120645 -0.00391694)
(0.056314 -0.130264 -0.00504034)
(0.0444533 -0.140553 -0.00633845)
(0.0352114 -0.150906 -0.00780641)
(0.025713 -0.16254 -0.00860566)
(0.0152074 -0.175397 -0.0116519)
(0.00874794 -0.188091 -0.0195817)
(0.00689633 -0.20041 -0.032156)
(0.0187365 -0.175633 -0.0456799)
(0.0846189 -0.0906725 -0.00238135)
(0.0722391 -0.0983362 -0.00312551)
(0.059265 -0.106526 -0.00404582)
(0.0470479 -0.114954 -0.00518705)
(0.0345905 -0.123983 -0.00649424)
(0.0248061 -0.133076 -0.0079786)
(0.014464 -0.143245 -0.00884068)
(0.00301282 -0.154492 -0.0118853)
(-0.00425408 -0.165541 -0.0198653)
(-0.00720674 -0.176457 -0.0324398)
(0.00693526 -0.154385 -0.0460499)
(0.0779871 -0.0780553 -0.00247724)
(0.0651445 -0.0846058 -0.00323025)
(0.0516692 -0.0916127 -0.00415771)
(0.0389635 -0.0988093 -0.00530502)
(0.0259643 -0.106512 -0.00662477)
(0.0155686 -0.114275 -0.00812999)
(0.00458771 -0.122967 -0.00901793)
(-0.00762751 -0.132548 -0.0121033)
(-0.0156257 -0.141935 -0.0201197)
(-0.0195229 -0.151323 -0.0326394)
(-0.00331868 -0.132177 -0.046507)
(0.0723402 -0.0647887 -0.00255794)
(0.0590922 -0.0701951 -0.00331822)
(0.0452082 -0.0759712 -0.0042534)
(0.0320428 -0.08191 -0.00541424)
(0.0185899 -0.0882647 -0.00673534)
(0.00777247 -0.0946556 -0.00823931)
(-0.0038041 -0.101827 -0.00916008)
(-0.0166313 -0.109724 -0.0122835)
(-0.0252414 -0.117415 -0.0203334)
(-0.0298931 -0.125226 -0.0328646)
(-0.0119648 -0.1092 -0.0467901)
(0.0677231 -0.050981 -0.0026231)
(0.0541531 -0.0552136 -0.0033919)
(0.0399247 -0.0597355 -0.00433303)
(0.026414 -0.0643751 -0.00549966)
(0.0126081 -0.0693494 -0.00682645)
(0.00139747 -0.0743555 -0.00833743)
(-0.0106428 -0.0799645 -0.00926655)
(-0.0239431 -0.0861501 -0.0124221)
(-0.0330089 -0.0921347 -0.0205359)
(-0.0382983 -0.0983038 -0.0330845)
(-0.0189027 -0.0855752 -0.0470719)
(0.0642054 -0.0367345 -0.0026734)
(0.0503878 -0.0397721 -0.00344631)
(0.0359097 -0.0430179 -0.00439093)
(0.0221303 -0.0463501 -0.00556626)
(0.00804666 -0.0499205 -0.00689513)
(-0.00343662 -0.0535009 -0.00840956)
(-0.0158482 -0.0575333 -0.00934569)
(-0.0294973 -0.0619802 -0.0125159)
(-0.0389216 -0.0662513 -0.0206804)
(-0.0446483 -0.0707191 -0.0332192)
(-0.0241114 -0.0614521 -0.0472451)
(0.0478412 -0.0239991 -0.00348296)
(0.0331957 -0.0259536 -0.00443057)
(0.0192378 -0.0279557 -0.00561097)
(0.00497538 -0.0301078 -0.00694003)
(-0.00669216 -0.032261 -0.00846062)
(-0.0193588 -0.0346866 -0.00939927)
(-0.0332356 -0.0373739 -0.0125749)
(-0.0428985 -0.0399329 -0.0207783)
(-0.0489 -0.0426498 -0.0333446)
(-0.0275656 -0.0369849 -0.047361)
(0.0465584 -0.00803158 -0.00350165)
(0.0318296 -0.00868446 -0.00445056)
(0.0177821 -0.00935258 -0.00563518)
(0.00342987 -0.0100723 -0.00696403)
(-0.00832746 -0.0107884 -0.00849027)
(-0.0211311 -0.0115994 -0.00942887)
(-0.0351184 -0.0124999 -0.0126026)
(-0.0449058 -0.0133509 -0.0208309)
(-0.0510274 -0.014267 -0.033425)
(-0.0292634 -0.0123412 -0.0474014)
(0.245364 -0.114843 -0.000208123)
(0.242944 -0.125494 -2.35906e-05)
(0.240615 -0.137256 4.62648e-05)
(0.238224 -0.150253 -7.63338e-06)
(0.235663 -0.164751 -0.000258865)
(0.233523 -0.180631 -0.000736269)
(0.231481 -0.198289 -0.00153215)
(0.230823 -0.216813 -0.00272888)
(0.230764 -0.237252 -0.00426841)
(0.234549 -0.25736 -0.00642803)
(0.240672 -0.280601 -0.00770173)
(0.250855 -0.303155 -0.0110144)
(0.25802 -0.329094 -0.0193899)
(0.275699 -0.348491 -0.0353202)
(0.252905 -0.331266 -0.0513809)
(0.238279 -0.115462 -0.000306432)
(0.235195 -0.125963 -0.000198731)
(0.232217 -0.137607 -0.000161157)
(0.228997 -0.150434 -0.000212707)
(0.225609 -0.164742 -0.000523928)
(0.222543 -0.180411 -0.00105286)
(0.219411 -0.197758 -0.00190026)
(0.21756 -0.215979 -0.00315579)
(0.216271 -0.235997 -0.00477143)
(0.218693 -0.255861 -0.00696293)
(0.223306 -0.278622 -0.0083536)
(0.231275 -0.301074 -0.0117184)
(0.23666 -0.326331 -0.0201564)
(0.251971 -0.345111 -0.0364504)
(0.233363 -0.328659 -0.0534134)
(0.227202 -0.124914 -0.00029796)
(0.223556 -0.136369 -0.000319781)
(0.219536 -0.148961 -0.000447814)
(0.215344 -0.16303 -0.000815337)
(0.211308 -0.178412 -0.00137808)
(0.207032 -0.195422 -0.00229322)
(0.203948 -0.213298 -0.00354184)
(0.201381 -0.232882 -0.0051784)
(0.20236 -0.252432 -0.00741023)
(0.205427 -0.27471 -0.00885503)
(0.211299 -0.29697 -0.0122905)
(0.215025 -0.32138 -0.0208696)
(0.227708 -0.3399 -0.0372936)
(0.213088 -0.324552 -0.0552562)
(0.219155 -0.123446 -0.000411217)
(0.214776 -0.134666 -0.000497689)
(0.210036 -0.146989 -0.000677525)
(0.205038 -0.160748 -0.00108324)
(0.199986 -0.175763 -0.00172697)
(0.194594 -0.192342 -0.0026563)
(0.190314 -0.209757 -0.00395149)
(0.186503 -0.228775 -0.00562379)
(0.186079 -0.247876 -0.00786913)
(0.187633 -0.26952 -0.00934249)
(0.191432 -0.2914 -0.0128822)
(0.193588 -0.314826 -0.0215434)
(0.203832 -0.333272 -0.038117)
(0.1923 -0.318233 -0.0570996)
(0.205881 -0.132134 -0.000660297)
(0.200446 -0.144135 -0.000913943)
(0.194564 -0.157501 -0.00133079)
(0.188508 -0.17209 -0.00204871)
(0.182027 -0.188145 -0.00301611)
(0.176599 -0.205021 -0.00432652)
(0.171567 -0.223401 -0.00605646)
(0.169769 -0.24193 -0.0083468)
(0.169825 -0.262832 -0.00981747)
(0.171675 -0.28418 -0.013419)
(0.172373 -0.306512 -0.022252)
(0.18018 -0.324856 -0.0388573)
(0.171455 -0.309977 -0.0587192)
(0.197005 -0.128874 -0.000782876)
(0.190805 -0.140488 -0.00110623)
(0.184016 -0.153378 -0.00159994)
(0.177018 -0.16745 -0.00232119)
(0.169534 -0.182893 -0.00335736)
(0.162991 -0.199127 -0.00469574)
(0.156767 -0.216782 -0.00647406)
(0.153656 -0.234635 -0.00879483)
(0.15226 -0.254669 -0.0102855)
(0.152208 -0.275335 -0.0139657)
(0.151525 -0.296499 -0.0229516)
(0.157001 -0.314629 -0.0396185)
(0.15079 -0.299796 -0.0601587)
(0.187947 -0.124767 -0.00086952)
(0.181064 -0.135943 -0.00124382)
(0.173473 -0.148305 -0.00182202)
(0.165607 -0.161773 -0.00261008)
(0.157161 -0.176538 -0.00367118)
(0.149555 -0.192059 -0.00508156)
(0.142166 -0.208906 -0.00687736)
(0.137804 -0.225968 -0.00919996)
(0.135013 -0.245045 -0.010733)
(0.133172 -0.264882 -0.0144729)
(0.131196 -0.28479 -0.0236132)
(0.134433 -0.302571 -0.0403945)
(0.130574 -0.287736 -0.0614958)
(0.171532 -0.130488 -0.00139151)
(0.163158 -0.142259 -0.00199871)
(0.154408 -0.155066 -0.00285638)
(0.145057 -0.169071 -0.00398939)
(0.136431 -0.183795 -0.00541616)
(0.127943 -0.199748 -0.00728147)
(0.122362 -0.215916 -0.00960096)
(0.118259 -0.233954 -0.0111772)
(0.114725 -0.252811 -0.0149634)
(0.111501 -0.271442 -0.0242759)
(0.112666 -0.288692 -0.0410709)
(0.111058 -0.273928 -0.0627493)
(0.162208 -0.124139 -0.00154198)
(0.15309 -0.135253 -0.00220365)
(0.143532 -0.147335 -0.00308022)
(0.133306 -0.160513 -0.0042544)
(0.123729 -0.174352 -0.00576908)
(0.114185 -0.189345 -0.00764549)
(0.107464 -0.204536 -0.0100084)
(0.102096 -0.221446 -0.0115487)
(0.097016 -0.239191 -0.015456)
(0.0926457 -0.256486 -0.0249008)
(0.0918605 -0.273011 -0.0417573)
(0.0924169 -0.258466 -0.0639271)
(0.153223 -0.11691 -0.0016907)
(0.14337 -0.127301 -0.002375)
(0.133033 -0.13858 -0.00330031)
(0.122013 -0.15087 -0.00450871)
(0.111531 -0.163761 -0.00607186)
(0.101048 -0.177683 -0.00800581)
(0.0932465 -0.191838 -0.0103852)
(0.0866976 -0.207519 -0.0119119)
(0.0801851 -0.224071 -0.0159125)
(0.0747333 -0.239994 -0.0254635)
(0.0721674 -0.255629 -0.0423861)
(0.0748105 -0.241458 -0.0649868)
(0.144649 -0.108822 -0.00184581)
(0.134122 -0.11843 -0.00255263)
(0.123056 -0.128844 -0.00348223)
(0.111271 -0.140163 -0.00474755)
(0.099983 -0.152052 -0.00634509)
(0.0886013 -0.164857 -0.00836275)
(0.0798493 -0.177874 -0.0107276)
(0.0721805 -0.19227 -0.0122758)
(0.064344 -0.20752 -0.016313)
(0.0579452 -0.222013 -0.0259707)
(0.0537589 -0.2366 -0.0429574)
(0.05837 -0.222945 -0.0659368)
(0.125455 -0.108667 -0.00271691)