/*--------------------------------*- C++ -*----------------------------------*\
  =========                 |
  \\      /  F ield         | OpenFOAM: The Open Source CFD Toolbox
   \\    /   O peration     | Website:  https://openfoam.org
    \\  /    A nd           | Version:  6
     \\/     M anipulation  |
\*---------------------------------------------------------------------------*/
FoamFile
{
    version     2.0;
    format      ascii;
    class       volScalarField;
    location    "36";
    object      yPlus;
}
// * * * * * * * * * * * * * * * * * * * * * * * * * * * * * * * * * * * * * //

dimensions      [0 0 0 0 0 0 0];

internalField   uniform 0;

boundaryField
{
    inlet
    {
        type            calculated;
        value           uniform 0;
    }
    outlet
    {
        type            calculated;
        value           uniform 0;
    }
    roughCylinder
    {
        type            calculated;
        value           nonuniform List<scalar> 
5120
(
75.7533
59.9152
52.5045
55.5856
61.5695
66.6494
70.8677
74.4039
77.4105
80.0367
82.412
84.5982
86.6397
88.5814
90.4444
92.2736
94.0978
95.9747
97.9184
99.942
102.054
104.253
106.535
108.887
111.293
113.726
116.15
118.514
120.742
122.725
124.279
125.148
91.8814
59.8137
51.3299
54.0633
59.8989
64.9379
69.1361
72.6547
75.6509
78.2851
80.6498
82.8054
84.8129
86.6981
88.5073
90.2691
92.0441
93.8444
95.7115
97.6643
99.7054
101.831
104.036
106.308
108.631
110.981
113.322
115.605
117.756
119.672
121.173
122.01
92.438
60.3829
50.8396
52.6388
58.2491
63.2137
67.3677
70.886
73.9076
76.5429
78.9065
81.0517
83.0138
84.8594
86.6102
88.3218
90.0132
91.7567
93.564
95.4445
97.407
99.4545
101.579
103.77
106.012
108.279
110.539
112.742
114.818
116.666
118.114
118.919
92.9955
60.5004
50.0831
51.0778
56.4831
61.4281
65.6039
69.1426
72.1669
74.8303
77.1966
79.3153
81.2575
83.0528
84.7606
86.4042
88.063
89.7348
91.4648
93.2783
95.1773
97.1555
99.2083
101.324
103.486
105.673
107.852
109.976
111.978
113.761
115.156
115.931
86.6065
58.9575
49.3993
49.6666
54.7831
59.6694
63.806
67.3524
70.4401
73.1192
75.4895
77.6198
79.5309
81.304
82.961
84.5749
86.1472
87.7698
89.4543
91.2035
93.0274
94.931
96.907
98.946
101.032
103.143
105.244
107.293
109.224
110.943
112.288
113.033
79.4921
59.3724
48.543
48.0085
52.8828
57.7633
61.9748
65.5984
68.6904
71.4114
73.8098
75.9179
77.8348
79.572
81.2074
82.7534
84.3181
85.8809
87.4887
89.1768
90.9477
92.7922
94.7052
96.6766
98.6892
100.723
102.75
104.726
106.587
108.244
109.541
110.257
91.0448
60.788
48.3907
46.595
51.0886
55.9411
60.1188
63.7272
66.9244
69.6845
72.0898
74.243
76.1424
77.8885
79.4842
81.0339
82.5103
84.032
85.6139
87.2496
88.9493
90.723
92.5637
94.4624
96.4052
98.3692
100.324
102.229
104.024
105.622
106.872
107.559
78.6829
60.6947
48.1104
44.9525
48.9693
53.798
58.1093
61.8989
65.1024
67.9151
70.3925
72.529
74.4635
76.1856
77.7964
79.2769
80.7807
82.2621
83.7671
85.3471
87.0072
88.7337
90.5224
92.362
94.2374
96.1306
98.0152
99.8521
101.582
103.123
104.326
104.986
70.852
58.7764
47.7749
43.5667
46.9738
51.8133
56.1226
59.8315
63.2
66.1035
68.5892
70.8203
72.7533
74.5201
76.0971
77.6308
79.0469
80.4951
82.001
83.5454
85.138
86.7964
88.5148
90.2862
92.0967
93.9255
95.7439
97.5135
99.1815
100.667
101.826
102.458
69.2736
56.8394
46.3428
41.6731
44.4568
49.2013
53.7002
57.8025
61.1988
64.1665
66.8026
69.0247
71.0355
72.7872
74.4239
75.8759
77.3612
78.798
80.2256
81.7188
83.2887
84.9153
86.5946
88.3158
90.0655
91.8272
93.5781
95.2849
96.8915
98.3224
99.437
100.041
74.2661
57.6479
46.6641
40.2035
41.9987
46.798
51.4262
55.3136
58.9873
62.1592
64.8037
67.201
69.2309
71.083
72.6845
74.2556
75.6454
77.0497
78.5123
79.9924
81.4968
83.055
84.6639
86.3181
88.0061
89.7083
91.3975
93.0384
94.5859
95.965
97.0374
97.6119
75.3604
55.951
45.3083
38.3507
38.7867
43.2714
48.0977
52.8547
56.6152
59.8692
62.8144
65.2145
67.393
69.2365
70.969
72.4313
73.9445
75.3777
76.7541
78.1819
79.6837
81.2293
82.8146
84.431
86.0643
87.7016
89.3253
90.9073
92.3951
93.72
94.7495
95.297
75.5789
57.1136
45.2821
36.3273
35.4012
39.8334
45.2106
49.4246
53.7496
57.4677
60.4213
63.1476
65.3765
67.4153
69.0998
70.7835
72.1892
73.5828
75.0403
76.4876
77.9236
79.3966
80.9089
82.4544
84.0286
85.6115
87.1768
88.6933
90.1232
91.3984
92.3866
92.9048
65.4969
54.904
45.1616
35.1108
30.5745
34.2257
39.6035
46.0722
50.5852
54.4359
58.0286
60.7796
63.2941
65.3263
67.2639
68.7859
70.3937
71.8792
73.2351
74.6222
76.083
77.5707
79.0794
80.6067
82.1328
83.652
85.1523
86.6132
87.9844
89.2058
90.1508
90.6428
47.4871
47.5609
41.9238
32.372
25.9136
27.6006
35.3135
40.0203
46.2013
51.2151
54.8169
58.2402
60.8596
63.2706
65.1251
67.0399
68.5171
69.9424
71.4475
72.9039
74.2951
75.699
77.127
78.5715
80.0397
81.509
82.9543
84.3468
85.6609
86.8329
87.7378
88.1976
25.5123
36.3248
35.5401
29.4552
13.2667
12.9394
20.0634
34.7224
40.9335
46.4012
51.6007
55.0907
58.3183
60.7148
63.0551
64.7033
66.5089
68.1287
69.5017
70.8772
72.3325
73.7929
75.2492
76.7034
78.1313
79.5359
80.914
82.2551
83.5099
84.6269
85.4872
85.9216
6.33468
19.6496
20.0429
13.8715
7.8417
15.9813
6.90656
10.1346
31.9664
41.0066
46.3804
51.5909
55.0312
58.2238
60.3981
62.7611
64.3873
65.8993
67.5313
69.0579
70.4324
71.7832
73.1336
74.4878
75.8558
77.2152
78.5407
79.8057
81.0012
82.0688
82.8876
83.2857
10.8165
3.15256
12.2629
13.8019
4.32762
15.9469
16.7665
5.77528
5.33447
30.5446
41.1922
46.5416
51.5857
54.7316
57.9074
59.7808
61.9724
63.8626
65.2995
66.6979
68.1993
69.6773
71.1226
72.5169
73.8552
75.1456
76.3976
77.6167
78.7507
79.7592
80.5311
80.9052
3.83857
9.80563
12.4199
14.1277
15.6959
17.2208
17.9798
18.333
18.2251
22.1267
28.6576
40.8357
46.2711
51.3993
54.1995
57.4965
59.3913
61.0719
62.9703
64.6677
66.0621
67.3752
68.6399
69.9209
71.1919
72.4419
73.6432
74.7692
75.8378
76.7947
77.5222
77.8502
9.24613
11.0033
6.1258
10.7367
18.326
12.8539
11.7014
10.6891
9.90403
7.39588
22.3855
28.1287
40.6918
45.6887
50.9265
53.183
56.1979
58.6339
60.1977
61.6659
63.3017
64.8732
66.3866
67.7336
68.9922
70.1631
71.2776
72.3687
73.3717
74.2624
74.9382
75.2458
6.76886
15.9908
19.8169
20.427
17.1241
17.7232
23.182
15.7223
23.2136
20.889
20.283
10.7072
28.3161
40.4345
44.6596
50.342
52.708
54.7116
57.1873
59.2577
60.7271
62.0195
63.1628
64.3952
65.5689
66.7068
67.7731
68.7352
69.6595
70.4935
71.1187
71.3604
8.01918
18.382
23.1919
26.7022
28.6204
27.0115
17.5421
3.56348
19.9743
24.7525
13.3716
13.3943
3.1024
27.0036
39.7822
42.5711
47.8464
51.5497
53.337
54.9544
56.9217
58.7464
60.4938
61.8275
63.0274
64.0666
65.0202
65.9741
66.8293
67.5857
68.1524
68.3846
7.82274
18.2555
24.0083
28.2013
30.78
31.8995
31.7374
24.8485
22.0568
27.5958
19.4885
24.4754
20.626
22.9949
22.7904
39.081
42.1384
44.9185
48.8947
51.8941
53.5384
54.8264
55.7626
56.9778
58.0422
59.0666
59.9793
60.7248
61.4718
62.1627
62.6668
62.7868
7.47379
17.1441
23.1943
27.9084
31.3641
33.3984
33.6038
32.808
26.9693
18.1523
17.2579
21.8564
24.0715
11.04
15.5229
12.3717
32.9519
40.3454
42.589
44.4225
47.3555
49.9406
52.3239
53.7576
54.9874
55.8715
56.6167
57.4339
58.1174
58.7148
59.1503
59.2987
6.69489
15.5747
21.5514
26.2466
29.8214
32.4056
34.0283
34.0683
32.975
28.1907
9.44708
17.8537
26.5894
17.0352
13.7366
14.1876
5.99129
22.9958
33.7859
40.2708
42.2352
43.3101
43.8929
45.2437
46.1187
47.0519
47.7888
48.1588
48.6615
49.165
49.5293
49.4083
5.98523
14.3637
20.0067
24.4872
27.9928
30.6528
32.4378
33.4377
33.2494
32.2249
30.4662
13.5701
28.1517
27.7704
18.0846
23.7756
15.0401
7.06932
14.2641
18.8765
28.4915
35.0869
39.1623
40.8783
42.5075
43.2356
43.5845
44.4453
44.895
45.3445
45.5017
45.6843
5.23883
13.2398
18.2595
22.2543
25.4466
28.0156
29.9965
31.2395
31.8044
31.6512
30.821
32.0376
22.8674
25.2089
28.3516
24.5106
3.33557
23.7485
17.5648
4.99951
25.9153
28.0402
5.54615
13.6462
15.9039
15.6127
18.1459
14.6839
14.3389
14.5516
16.849
12.6483
4.64165
12.3109
16.0909
19.1788
21.8366
24.1715
26.1223
27.6153
28.5744
29.2291
30.011
29.4381
31.3725
26.6404
22.2269
12.8124
23.053
12.0649
25.321
18.9888
5.477
17.7515
26.8056
6.79025
28.1991
20.616
28.6858
8.3598
22.2067
8.54983
31.0761
7.82434
4.41117
12.1986
13.6813
15.31
17.0473
18.8873
20.7317
22.4253
23.9589
25.4475
26.8674
29.1491
29.7823
31.3417
30.1403
16.9948
18.818
26.2665
6.16323
13.7449
25.9121
7.28212
20.9522
28.6208
19.1771
5.03415
4.97672
29.0423
11.8551
30.7521
21.4007
30.4439
3.97945
11.4495
12.1362
12.5676
13.1387
14.0045
15.3108
17.0607
19.0629
21.2086
23.604
25.4984
28.2197
29.9798
31.0773
32.7985
26.0253
29.3968
27.8825
24.9268
12.0024
18.3479
11.7295
24.4799
29.9671
16.7329
19.3522
7.94153
31.6381
20.0601
31.9029
7.49759
3.70407
11.5581
11.8033
11.8691
11.9872
12.2006
13.0344
14.639
16.6138
18.6886
20.7383
23.2906
25.349
27.8119
30.2866
31.1356
32.3196
31.3356
20.7691
18.424
11.0807
29.9615
10.139
22.0176
13.9791
30.6641
13.6846
5.33392
21.6778
10.2034
33.0622
31.1047
3.55955
11.3714
11.6198
11.7425
11.8551
12.1193
13.2956
15.1309
16.9763
18.6313
20.2653
21.6988
23.6604
25.5788
27.5561
30.2391
31.7159
32.2212
32.6501
29.202
21.1481
25.9269
31.0514
31.7189
15.2967
31.3938
32.4895
30.7238
29.3733
23.8631
21.0819
23.8696
2.46048
9.17328
11.3694
11.6576
11.7617
11.9875
13.797
15.9803
17.904
19.5094
20.8292
22.1536
23.2138
24.4879
26.0926
27.6341
29.8188
31.8126
32.4656
32.4987
32.1442
29.6496
28.0635
24.2018
20.1803
19.9667
19.406
18.9689
18.2903
17.5795
18.1349
19.1173
2.22457
8.45523
10.7606
11.5324
11.7431
13.1636
15.5245
17.6638
19.3933
20.8035
22.0191
22.9762
23.9155
24.6913
25.4071
26.5863
27.9352
29.5648
31.4384
32.5415
32.4822
31.8552
31.2715
30.9709
30.7625
30.4623
30.0875
29.697
29.3269
29.3225
29.4484
29.4745
2.87412
9.70536
11.4012
11.8271
12.8402
15.2292
17.5266
19.4368
21.016
22.3397
23.4375
24.3983
25.1083
25.6743
26.1622
26.4779
27.0908
28.1625
29.427
30.7156
31.6569
32.0374
31.4238
30.4974
29.3456
28.1857
27.0058
26.1416
25.53
25.3521
25.5425
25.8381
3.7251
11.2852
11.5942
13.1007
15.4421
17.7362
19.7149
21.3918
22.8168
24.033
25.0828
25.9316
26.6296
27.1109
27.3553
27.5347
27.6142
27.7848
28.3906
29.3071
30.0842
30.4557
30.4021
29.9231
29.1584
28.1924
27.0876
26.1721
25.629
25.5628
25.7785
26.006
3.83752
11.8082
13.5141
15.7787
17.9784
19.9552
21.7041
23.2422
24.5958
25.7855
26.814
27.6899
28.3499
28.7952
29.0401
29.0253
28.8809
28.7196
28.6038
28.715
29.083
29.4238
29.3411
28.7877
27.7502
26.3891
24.8897
23.6756
23.0149
23.0155
23.4231
23.8672
4.27889
12.3875
15.5909
18.0958
20.1799
21.997
23.6212
25.0821
26.3982
27.577
28.6214
29.4965
30.19
30.6599
30.8742
30.8782
30.6587
30.2621
29.8309
29.4603
29.1864
28.9876
28.7105
28.1746
27.3045
26.1442
24.8518
23.7755
23.2584
23.4095
23.9061
24.3691
5.53419
14.6185
17.8112
20.1411
22.0569
23.7752
25.3562
26.8102
28.1469
29.3645
30.4498
31.3802
32.1096
32.6149
32.8898
32.8993
32.6696
32.2403
31.6401
30.9537
30.2807
29.6571
29.0093
28.2177
27.1709
25.8777
24.4786
23.3312
22.8133
23.0378
23.6613
24.2388
6.70822
16.1513
19.4196
21.7654
23.6962
25.4285
27.0232
28.504
29.8838
31.1537
32.2959
33.2741
34.0616
34.629
34.9507
35.0291
34.8507
34.4159
33.7668
32.9521
32.0277
31.0526
30.0512
28.9918
27.8159
26.5183
25.2098
24.178
23.7759
24.0904
24.7608
25.3455
8.04297
9.38467
10.7273
11.5309
11.5624
11.5868
11.9129
11.5942
11.8159
11.6378
11.6785
11.661
11.661
11.2166
10.4079
9.92584
9.50271
9.20446
9.00794
8.91245
8.91241
9.00782
9.20427
9.50244
9.92526
10.4077
11.2145
11.6675
11.4645
11.4426
11.4669
11.8039
11.51
11.5258
11.5456
11.5661
11.3732
10.7011
9.38199
8.04165
17.4264
18.2226
18.8767
19.2432
19.5085
19.6608
19.759
19.7709
19.7727
19.7093
19.6316
19.5195
19.4043
19.259
19.1143
19.0128
18.9202
18.8549
18.8098
18.788
18.7879
18.8097
18.8547
18.92
19.0124
19.1141
19.2582
19.4044
19.5182
19.6219
19.6983
19.7698
19.7694
19.7564
19.6593
19.507
19.2287
18.8727
18.2216
17.4253
20.6392
21.2509
21.7547
22.0322
22.2627
22.3632
22.4345
22.4289
22.4117
22.3526
22.2906
22.2094
22.1308
22.0478
21.9738
21.9118
21.8589
21.8201
21.7929
21.779
21.779
21.7928
21.8199
21.8586
21.9115
21.9735
22.0473
22.1304
22.2087
22.2895
22.3511
22.4104
22.429
22.4343
22.3627
22.2613
22.0299
21.7534
21.25
20.6381
22.9082
23.4319
23.8846
24.1538
24.3853
24.5054
24.6057
24.6426
24.6689
24.6634
24.6577
24.6385
24.6208
24.5995
24.5796
24.5631
24.5489
24.5391
24.5317
24.5274
24.5274
24.5316
24.5389
24.5486
24.5627
24.5791
24.5989
24.6202
24.6378
24.657
24.6627
24.668
24.642
24.605
24.5047
24.3842
24.1528
23.8835
23.4309
22.9072
24.8055
25.2961
25.7399
26.0235
26.2781
26.4376
26.5828
26.6776
26.7659
26.8268
26.8862
26.9332
26.9782
27.0175
27.0525
27.0843
27.1108
27.1323
27.1463
27.1525
27.1525
27.1462
27.1321
27.1104
27.0839
27.0519
27.0169
26.9776
26.9324
26.8854
26.8259
26.765
26.6767
26.5819
26.4368
26.2772
26.0226
25.739
25.2951
24.8048
26.5365
27.0044
27.4585
27.7616
28.0552
28.2645
28.4705
28.6284
28.7847
28.9143
29.0424
29.1566
29.2664
29.3669
29.4585
29.5399
29.6083
29.6621
29.6981
29.7151
29.715
29.698
29.6617
29.6079
29.5394
29.4579
29.3662
29.2656
29.1558
29.0414
28.9133
28.7838
28.6274
28.4696
28.2636
28.0543
27.7607
27.4577
27.0035
26.5359
28.1534
28.6049
29.0873
29.417
29.7637
30.0235
30.2915
30.5104
30.7323
30.927
31.1203
31.2981
31.469
31.6267
31.771
31.8985
32.0057
32.0891
32.1453
32.1717
32.1717
32.1451
32.0888
32.0051
31.8979
31.7702
31.6259
31.4681
31.2971
31.1193
30.926
30.7313
30.5094
30.2905
30.0225
29.7628
29.4162
29.0865
28.6041
28.1528
29.6759
30.1198
30.6425
31.0021
31.3993
31.7058
32.0297
32.304
32.584
32.8368
33.088
33.3219
33.5467
33.7545
33.9448
34.1122
34.2526
34.3614
34.4343
34.4685
34.4684
34.4341
34.361
34.252
34.1114
33.9439
33.7536
33.5457
33.3208
33.0868
32.8357
32.5829
32.3028
32.0287
31.7049
31.3983
31.0012
30.6418
30.119
29.6754
31.1086
31.5487
32.1136
32.4977
32.9402
33.2863
33.658
33.9792
34.3087
34.6108
34.9107
35.1918
35.4616
35.7111
35.939
36.1389
36.3062
36.4352
36.5212
36.5612
36.5611
36.5209
36.4347
36.3055
36.1381
35.9381
35.7101
35.4604
35.1906
34.9094
34.6095
34.3074
33.9779
33.6567
33.2851
32.9391
32.4967
32.1128
31.5479
31.1081
32.4346
32.872
33.4729
33.8775
34.3566
34.736
35.1464
35.5067
35.8763
36.2188
36.558
36.8774
37.1829
37.4653
37.7227
37.9478
38.1356
38.2798
38.3759
38.42
38.4199
38.3755
38.2793
38.1348
37.9469
37.7216
37.4642
37.1816
36.876
36.5566
36.2174
35.8748
35.5053
35.1451
34.7348
34.3555
33.8763
33.4721
32.8712
32.434
33.627
34.0602
34.6916
35.1123
35.6212
36.0278
36.4693
36.8614
37.263
37.6378
38.008
38.3571
38.6901
38.9975
39.2767
39.5205
39.7229
39.8781
39.9812
40.0283
40.0282
39.9808
39.8776
39.7221
39.5194
39.2756
38.9963
38.6888
38.3556
38.0065
37.6362
37.2614
36.8598
36.4678
36.0263
35.6199
35.1111
34.6905
34.0592
33.6263
34.6567
35.0821
35.7423
36.1761
36.7106
37.14
37.6075
38.0256
38.4534
38.854
39.2486
39.6206
39.9744
40.3003
40.5951
40.8517
41.0642
41.2267
41.3341
41.3832
41.383
41.3338
41.2261
41.0634
40.8506
40.5939
40.2989
39.9728
39.6191
39.247
38.8523
38.4518
38.024
37.6059
37.1384
36.7091
36.1747
35.7411
35.081
34.6558
35.4909
35.9147
36.6018
37.05
37.6083
38.0592
38.5502
38.9916
39.4419
39.8641
40.2787
40.669
41.0388
41.3785
41.6848
41.9503
42.1697
42.3368
42.4471
42.4971
42.497
42.4467
42.3361
42.1689
41.9493
41.6835
41.3771
41.0372
40.6674
40.277
39.8624
39.44
38.9898
38.5486
38.0576
37.6068
37.0485
36.6005
35.9134
35.49
36.1082
36.5392
37.2552
37.7229
38.3058
38.7801
39.2943
39.7584
40.2297
40.672
41.1042
41.5104
41.8934
42.2442
42.5593
42.8315
43.0556
43.2258
43.3379
43.3887
43.3886
43.3376
43.2253
43.0547
42.8304
42.558
42.2428
41.8919
41.5087
41.1024
40.6701
40.2279
39.7566
39.2925
38.7783
38.3041
37.7213
37.2536
36.538
36.1069
36.4979
36.9409
37.6959
38.1874
38.8005
39.3007
39.8408
40.3286
40.8218
41.2837
41.733
42.154
42.5491
42.9096
43.232
43.5097
43.7376
43.9102
44.0237
44.075
44.0749
44.0233
43.9096
43.7366
43.5086
43.2307
42.9081
42.5474
42.1521
41.7311
41.2818
40.8198
40.3267
39.8388
39.2988
38.7987
38.1856
37.6943
36.9395
36.4967
36.6382
37.1162
37.9143
38.4408
39.0885
39.62
40.189
40.7033
41.2196
41.7021
42.1689
42.6045
43.0114
43.3812
43.7105
43.9932
44.2243
44.3993
44.5141
44.566
44.5659
44.5137
44.3986
44.2235
43.9921
43.7092
43.3797
43.0097
42.6027
42.167
41.7001
41.2175
40.7012
40.187
39.6181
39.0866
38.439
37.9127
37.1146
36.6367
36.5227
37.0531
37.9024
38.475
39.1623
39.7316
40.3327
40.8766
41.418
41.9227
42.4077
42.8586
43.2775
43.6567
43.9929
44.2806
44.5151
44.6923
44.8085
44.8612
44.8611
44.8081
44.6916
44.5143
44.2794
43.9916
43.6551
43.2758
42.8567
42.4058
41.9207
41.4159
40.8744
40.3305
39.7295
39.1602
38.4731
37.9007
37.0514
36.5213
36.1508
36.7315
37.6474
38.2736
39.008
39.6199
40.2572
40.8338
41.4027
41.9313
42.4359
42.903
43.3347
43.7238
44.0675
44.3605
44.5988
44.7786
44.8964
44.9501
44.95
44.896
44.7778
44.5979
44.3593
44.0661
43.7222
43.3329
42.901
42.4338
41.9292
41.4005
40.8317
40.255
39.6177
39.006
38.2716
37.6456
36.7298
36.1492
35.5207
36.1454
37.1246
37.8168
38.6029
39.2631
39.9398
40.5524
41.151
41.7056
42.2314
42.716
43.1617
43.5619
43.9139
44.2132
44.456
44.6389
44.7587
44.8137
44.8136
44.7583
44.6381
44.455
44.2119
43.9125
43.5602
43.1599
42.714
42.2292
41.7034
41.1488
40.5501
39.9376
39.2608
38.6008
37.8147
37.1228
36.1437
35.5193
34.6557
35.2988
36.3186
37.0759
37.921
38.6338
39.3532
40.0044
40.6349
41.2174
41.7664
42.2705
42.7319
43.1447
43.5064
43.8132
44.0615
44.2483
44.3709
44.4275
44.4273
44.3705
44.2476
44.0606
43.8119
43.505
43.1429
42.7301
42.2685
41.7643
41.2152
40.6327
40.0021
39.3509
38.6315
37.9189
37.074
36.3167
35.2973
34.654
33.6049
34.215
35.2396
36.0424
36.9381
37.7087
38.4713
39.1629
39.8266
40.4389
41.0125
41.5379
42.0167
42.4438
42.8171
43.1327
43.388
43.5798
43.7058
43.7644
43.7642
43.7054
43.5791
43.387
43.1315
42.8155
42.4421
42.0148
41.5358
41.0104
40.4367
39.8243
39.1607
38.4689
37.7066
36.9362
36.0405
35.2382
34.2133
33.6041
32.4326
32.9377
33.9227
34.7327
35.6575
36.4754
37.2804
38.0107
38.7066
39.3485
39.9473
40.4949
40.9924
41.4353
41.8215
42.1477
42.4109
42.6088
42.7391
42.8001
42.7999
42.7387
42.6081
42.4099
42.1463
41.8199
41.4335
40.9904
40.4927
39.9451
39.3463
38.7043
38.0084
37.2783
36.4734
35.6556
34.7311
33.9212
32.9366
32.4313
31.181
31.5266
32.4207
33.1925
34.1133
34.9542
35.7915
36.5524
37.2758
37.9434
38.5653
39.1339
39.6499
40.1088
40.5086
40.8459
41.1182
41.3228
41.4578
41.5215
41.5213
41.4572
41.322
41.117
40.8445
40.507
40.1069
39.6478
39.1318
38.5631
37.9411
37.2735
36.5501
35.7895
34.9522
34.1115
33.1907
32.4191
31.5247
31.1791
29.8639
30.0305
30.7954
31.4873
32.3664
33.1969
34.0436
34.8256
35.5669
36.2534
36.893
37.4787
38.0104
38.4836
38.8958
39.2438
39.5247
39.7361
39.8758
39.9422
39.942
39.8753
39.7352
39.5236
39.2424
38.8941
38.4817
38.0082
37.4765
36.8906
36.2508
35.5645
34.8231
34.0412
33.1947
32.3642
31.4851
30.7932
30.0279
29.8604
28.47
28.4866
29.1148
29.7061
30.5172
31.3089
32.1399
32.9219
33.6676
34.3613
35.0097
35.6055
36.1473
36.6307
37.0523
37.4085
37.6966
37.9135
38.0571
38.1259
38.1257
38.0565
37.9126
37.6953
37.407
37.0504
36.6286
36.1451
35.6029
35.007
34.3585
33.6648
32.9191
32.1371
31.3062
30.5144
29.7032
29.1116
28.4836
28.4651
27.0109
26.9485
27.4609
27.962
28.697
29.4348
30.2304
30.9934
31.7308
32.4202
33.0678
33.6653
34.2103
34.6977
35.1237
35.4844
35.7763
35.9966
36.1427
36.2131
36.2129
36.1421
35.9955
35.7749
35.4826
35.1217
34.6953
34.2077
33.6624
33.0648
32.417
31.7276
30.99
30.2272
29.4316
28.6939
27.9591
27.458
26.9463
27.0093
25.6024
25.5436
25.9785
26.4277
27.0991
27.7888
28.5433
29.2772
29.9937
30.6684
31.3057
31.896
32.4364
32.9207
33.3449
33.7047
33.9962
34.2164
34.3629
34.4337
34.4334
34.3622
34.2154
33.9947
33.7027
33.3426
32.9181
32.4335
31.8929
31.3024
30.6651
29.9902
29.2738
28.5401
27.7858
27.0962
26.4249
25.9762
25.5405
25.6016
24.531
24.5231
24.9264
25.3611
25.9905
26.6447
27.3586
28.057
28.7411
29.3913
30.0085
30.5824
31.1089
31.5818
31.9966
32.3487
32.6344
32.8503
32.9938
33.0635
33.0631
32.9931
32.849
32.6326
32.3465
31.994
31.5789
31.1057
30.5789
30.0048
29.3874
28.737
28.0531
27.3547
26.641
25.9867
25.3577
24.9228
24.5201
24.527
24.1293
24.1792
24.5711
25.0019
25.5955
26.2131
26.8786
27.5311
28.1752
28.792
29.379
29.9263
30.4291
30.8813
31.2781
31.6152
31.8888
32.0957
32.2332
32.2998
32.2995
32.2324
32.0943
31.887
31.613
31.2754
30.8783
30.4258
29.9227
29.3753
28.7881
28.1713
27.5274
26.8751
26.2099
25.5927
24.9995
24.5691
24.1776
24.128
24.476
24.5397
24.9213
25.3286
25.8818
26.4503
27.0606
27.6622
28.2611
28.8371
29.3866
29.8999
30.372
30.7969
31.1701
31.4873
31.7448
31.9394
32.0688
32.1311
32.1309
32.068
31.9382
31.7432
31.4852
31.1676
30.7942
30.369
29.8967
29.3834
28.8338
28.2578
27.6591
27.0577
26.448
25.8795
25.3273
24.9191
24.5391
24.4721
25.1909
25.2446
25.6191
25.9962
26.5146
27.0379
27.6049
28.1651
28.7257
29.265
29.7806
30.2622
30.7055
31.1048
31.4556
31.7539
31.9962
32.1792
32.3006
32.3589
32.3585
32.2998
32.178
31.9945
31.7519
31.4532
31.102
30.7025
30.2589
29.777
29.2615
28.7223
28.1619
27.6019
27.0354
26.5129
25.9951
25.6192
25.2451
25.1936
25.8215
25.8483
26.2238
26.5741
27.0734
27.5675
28.1114
28.6469
29.1849
29.7021
30.1971
30.6596
31.0858
31.4696
31.807
32.0938
32.3267
32.5027
32.6194
32.6751
32.6748
32.6187
32.5017
32.3253
32.092
31.8049
31.4672
31.0832
30.657
30.1944
29.6994
29.1824
28.6446
28.1095
27.5661
27.0725
26.5742
26.2248
25.8505
25.8244
74.4917
59.0353
52.0564
55.5443
61.5696
66.6491
70.8674
74.4036
77.4107
80.0374
82.4126
84.5987
86.6403
88.5819
90.4448
92.274
94.0982
95.9752
97.9188
99.9427
102.054
104.254
106.535
108.887
111.293
113.727
116.151
118.515
120.743
122.726
124.281
125.149
92.517
60.8726
51.7688
54.0974
59.9023
64.9401
69.1375
72.656
75.6518
78.2852
80.6501
82.8059
84.8132
86.6985
88.5078
90.2697
92.0447
93.8447
95.7119
97.6645
99.7059
101.832
104.037
106.308
108.632
110.981
113.323
115.606
117.757
119.673
121.174
122.011
91.5967
59.651
50.621
52.6274
58.2483
63.2126
67.3667
70.885
73.907
76.5435
78.9072
81.0522
83.0145
84.86
86.6106
88.3222
90.0136
91.7572
93.5644
95.4453
97.4075
99.455
101.579
103.77
106.012
108.28
110.539
112.742
114.818
116.667
118.115
118.921
93.5195
60.8756
50.1847
51.0834
56.4847
61.4296
65.6051
69.1443
72.1686
74.8306
77.1967
79.3157
81.2578
83.0532
84.7611
86.4049
88.0637
89.7352
91.4654
93.2783
95.1779
97.1564
99.2093
101.324
103.487
105.673
107.852
109.977
111.979
113.762
115.157
115.933
85.5415
59.2137
49.568
49.6828
54.7821
59.6679
63.8053
67.351
70.4383
73.1194
75.4904
77.6204
79.5317
81.3048
82.9615
84.5753
86.1474
87.7704
89.4547
91.2046
93.0277
94.9314
96.9074
98.9465
101.033
103.143
105.245
107.294
109.224
110.944
112.289
113.034
100.638
60.618
48.6332
48.0232
52.8851
57.7661
61.9756
65.5999
68.6936
71.4124
73.8099
75.9184
77.8351
79.5723
81.208
82.7541
84.319
85.8813
87.4894
89.1766
90.9484
92.7928
94.7061
96.677
98.6897
100.724
102.751
104.726
106.588
108.245
109.541
110.258
81.9589
60.2123
48.3284
46.6357
51.0911
55.9383
60.1188
63.7268
66.9213
69.6838
72.0908
74.2437
76.1434
77.8896
79.485
81.0344
82.5105
84.0327
85.6143
87.2511
88.9496
90.7236
92.5642
94.4629
96.4056
98.3696
100.324
102.23
104.025
105.624
106.873
107.56
89.5496
60.6608
47.6741
44.8762
48.9696
53.8032
58.1098
61.8986
65.1067
67.9174
70.3928
72.5296
74.4639
76.1859
77.7969
79.2777
80.7818
82.2626
83.7679
85.3466
87.008
88.7342
90.5228
92.3629
94.2383
96.1314
98.0164
99.8525
101.583
103.123
104.327
104.987
73.0659
58.8248
47.4614
43.481
46.9578
51.8009
56.1185
59.8321
63.1957
66.1014
68.5903
70.8215
72.7546
74.5215
76.0981
77.6314
79.0472
80.4959
82.0013
83.5474
85.1384
86.7973
88.5159
90.2858
92.0972
93.9255
95.7435
97.5143
99.1823
100.669
101.828
102.459
77.8195
58.5589
46.9851
41.767
44.4628
49.2093
53.7046
57.8016
61.2052
64.1715
66.8037
69.0256
71.0361
72.7875
74.4245
75.8768
77.3624
78.7985
80.2268
81.7177
83.2895
84.9153
86.5946
88.3174
90.066
91.828
93.5798
95.2853
96.8923
98.3232
99.4382
100.042
81.8573
58.9239
46.8457
40.2266
41.9984
46.797
51.4211
55.3158
58.9813
62.1554
64.8052
67.2029
69.2328
71.0852
72.686
74.2564
75.6458
77.0506
78.5123
79.9952
81.4973
83.0564
84.6651
86.3175
88.0069
89.7087
91.3966
93.0397
94.5867
95.9663
97.0386
97.6135
68.8273
54.9883
45.2677
38.389
38.7732
43.2337
48.0977
52.8548
56.6287
59.8798
62.8173
65.216
67.3941
69.2368
70.9697
72.4324
73.9457
75.3783
76.7557
78.18
79.6845
81.2293
82.8157
84.4333
86.0651
87.7034
89.3283
90.9077
92.3959
93.7208
94.7511
95.2986
75.2093
57.1837
45.4138
36.4215
35.4657
39.9699
45.2364
49.4361
53.7373
57.459
60.4229
63.1506
65.3791
67.4186
69.1021
70.7846
72.1901
73.584
75.0399
76.4916
77.9242
79.398
80.9075
82.4535
84.0294
85.6115
87.1755
88.6946
90.124
91.3996
92.3878
92.9064
65.5477
54.9676
45.2051
35.143
30.5531
33.861
39.5475
46.0574
50.6137
54.4593
58.0352
60.7826
63.2967
65.3264
67.2641
68.787
70.3945
71.8797
73.2376
74.6191
76.084
77.5712
79.0854
80.6095
82.1337
83.6538
85.1563
86.6132
87.9852
89.2066
90.1529
90.6445
47.9479
47.7292
42.0224
32.479
25.9955
28.6308
35.4561
40.0953
46.1935
51.1976
54.8184
58.2448
60.8624
63.2755
65.1292
67.0419
68.5191
69.9441
71.4462
72.9099
74.2959
75.7
77.1195
78.5704
80.0405
81.5087
82.9514
84.3485
85.6618
86.835
87.7386
88.1997
25.1369
36.4368
35.6972
29.6756
13.9562
8.92568
19.8997
34.5896
40.8894
46.4244
51.6116
55.0945
58.3223
60.7145
63.0541
64.7039
66.5088
68.1287
69.5058
70.8717
72.3337
73.7942
75.2615
76.7071
78.1327
79.5385
80.9202
82.2547
83.5108
84.6277
85.4893
85.9242
6.25246
19.6687
20.2428
11.8227
7.53935
15.846
7.72663
11.7081
32.4514
41.1526
46.3947
51.6009
55.0388
58.2322
60.4053
62.7652
64.3912
65.9026
67.5285
69.0674
70.4337
71.7846
73.1242
74.4857
75.8565
77.2142
78.5352
79.8081
81.0022
82.0713
82.8887
83.2886
9.28675
4.0243
12.6135
6.16699
4.751
15.9741
16.7376
17.2153
21.8612
29.5579
41.1854
46.5584
51.5791
54.7272
57.9042
59.7796
61.9709
63.8609
65.3063
66.6883
68.2005
69.6781
71.1286
72.523
73.8572
75.1496
76.4081
77.6156
78.7518
79.7598
80.534
80.9078
12.0973
5.69409
11.9142
14.2993
16.0511
17.0887
6.29165
3.76905
6.38321
10.3304
28.4831
40.7162
46.3202
51.4245
54.2118
57.5044
59.3973
61.0787
62.9641
64.6838
66.0645
67.3794
68.6553
69.9164
71.1926
72.4397
73.6325
74.7728
75.8389
76.7983
77.5231
77.8544
4.46013
11.165
1.88633
12.8519
13.847
19.3522
19.8363
19.746
19.8966
10.3993
9.30529
29.3219
40.6418
45.6451
50.9204
53.1789
56.1953
58.6284
60.2109
61.648
63.3025
64.8707
66.3414
67.7443
68.9947
70.1696
71.2968
72.3658
73.3729
74.2625
74.9423
75.2489
6.65001
16.0466
20.0777
20.6109
16.8122
15.2252
17.8641
23.0804
22.3926
21.0541
20.2469
22.91
27.959
40.5884
44.6798
50.3545
52.7141
54.7248
57.1737
59.2878
60.7322
62.0307
63.2709
64.3856
65.5704
66.7022
67.7513
68.7412
69.6609
70.499
71.1191
71.3667
8.00051
18.3442
23.115
26.6442
28.5859
26.907
17.1268
17.9994
21.1497
6.40487
14.9651
10.1274
18.881
26.3903
39.7707
42.5686
47.8668
51.5368
53.3571
54.916
56.921
58.7377
60.3156
61.8488
63.0294
64.0778
65.058
65.9674
66.8305
67.5848
68.1591
68.3885
7.82361
18.2806
24.0429
28.225
30.7901
31.918
31.7223
24.3648
14.4889
26.6415
25.8116
5.93365
21.7075
8.65795
23.0905
39.0618
42.0102
44.9489
48.893
51.9622
53.549
54.8479
56.044
56.9485
58.0469
59.0568
59.9314
60.7364
61.473
62.1726
62.6652
62.7967
7.47125
17.141
23.1887
27.9047
31.3625
33.3938
33.5954
32.8108
27.0879
25.0968
24.3037
27.4018
6.33327
21.3491
3.02389
13.3899
33.5896
40.2548
42.5746
44.3122
47.3525
49.9275
51.9905
53.8294
54.9856
55.8944
56.7012
57.4163
58.1189
58.7077
59.1638
59.3061
6.69629
15.5839
21.5633
26.2585
29.8318
32.4149
34.0403
34.0844
33.0467
28.5159
13.9744
23.4067
27.7215
23.5642
21.8428
21.7428
24.8968
23.9639
33.5676
40.4797
42.2571
43.3457
44.3053
45.1029
46.1292
47.0161
47.6591
48.196
48.6614
49.2062
49.5191
49.4239
5.99318
14.372
20.0162
24.4981
28.0044
30.6637
32.4456
33.4429
33.2329
32.072
29.8533
14.2775
26.0364
15.7008
8.95525
23.4341
22.7547
24.5743
19.538
18.2908
28.494
35.0718
38.7553
41.0704
42.5509
43.343
43.8361
44.3504
44.844
45.2542
45.5389
45.7059
5.23922
13.2402
18.2668
22.265
25.4585
28.0276
30.0095
31.2522
31.8259
31.698
30.8974
31.928
22.9208
30.0305
16.4871
20.598
18.0131
15.0761
24.4762
7.87834
25.9705
28.0931
11.187
15.2803
14.0124
15.378
17.1857
14.8831
16.4418
14.9033
16.7485
12.8017
4.63953
12.2788
16.0964
19.1912
21.8511
24.1861
26.1356
27.6276
28.5805
29.2273
30.0459
29.4872
31.2994
27.7434
7.77161
24.1026
16.3755
25.0045
6.57009
25.2265
6.26331
17.5093
15.7919
27.8163
20.2239
8.32317
29.4849
21.4986
30.6725
22.2276
31.2247
7.77573
4.33136
11.8044
13.659
15.3122
17.0542
18.8961
20.7418
22.4352
23.9703
25.4581
26.8502
29.1406
29.8046
31.3372
31.2601
17.5746
26.8173
26.9049
15.3942
20.011
26.5879
9.2555
20.6105
19.4592
6.58551
28.8237
20.3526
7.783
21.9084
7.02392
21.6581
31.9796
4.0078
12.0836
12.1342
12.5533
13.134
14.0027
15.3108
17.0616
19.062
21.2078
23.6105
25.4997
28.2104
29.9307
31.0549
32.8044
25.9712
9.82541
21.8604
27.9703
18.0694
25.5634
9.77408
8.14426
26.31
18.6605
30.7
25.7167
9.20991
20.3167
32.1164
27.3585
3.77043
11.2932
11.5586
11.7979
11.9726
12.1936
13.0288
14.6342
16.6106
18.6855
20.7357
23.288
25.3549
27.8281
30.2221
31.111
32.4186
30.6416
21.2364
29.8658
22.4205
22.53
26.7396
31.5888
24.2734
14.5418
6.64762
1.56718
25.7239
16.0381
32.0653
22.3552
3.55449
11.3645
11.6507
11.752
11.8609
12.118
13.2926
15.1279
16.9731
18.628
20.2612
21.697
23.6511
25.5757
27.5755
30.2353
31.6903
32.3209
32.6019
30.0748
22.037
28.3856
12.7399
29.2294
22.7957
25.321
14.4679
30.4111
32.3016
26.5118
5.38415
16.8078
2.45576
9.1631
11.356
11.4795
11.5955
11.989
13.7935
15.9769
17.9014
19.5076
20.8278
22.15
23.215
24.4811
26.0894
27.6386
29.8201
31.7986
32.4243
32.4978
31.9047
30.7716
27.2914
23.9587
20.3033
17.8421
18.317
19.1605
19.0383
17.9427
19.6016
19.2793
2.22131
8.44659
10.7548
11.4022
11.6322
13.1603
15.5229
17.6621
19.3918
20.8019
22.0179
22.9769
23.9137
24.6936
25.4027
26.581
27.9384
29.5661
31.4346
32.5439
32.5088
31.6684
31.3591
30.9874
30.7197
30.5298
30.1673
29.6646
29.3214
29.2706
29.4406
29.5088
2.86917
9.70764
11.5668
11.7829
12.8499
15.228
17.5255
19.4358
21.015
22.339
23.4366
24.3965
25.1078
25.6726
26.1639
26.4794
27.0885
28.1636
29.422
30.7267
31.6639
32.0635
31.4876
30.5269
29.3579
28.0727