/*--------------------------------*- C++ -*----------------------------------*\
  =========                 |
  \\      /  F ield         | OpenFOAM: The Open Source CFD Toolbox
   \\    /   O peration     | Website:  https://openfoam.org
    \\  /    A nd           | Version:  6
     \\/     M anipulation  |
\*---------------------------------------------------------------------------*/
FoamFile
{
    version     2.0;
    format      ascii;
    class       volScalarField;
    location    "14";
    object      yPlus;
}
// * * * * * * * * * * * * * * * * * * * * * * * * * * * * * * * * * * * * * //

dimensions      [0 0 0 0 0 0 0];

internalField   uniform 0;

boundaryField
{
    inlet
    {
        type            calculated;
        value           uniform 0;
    }
    outlet
    {
        type            calculated;
        value           uniform 0;
    }
    roughCylinder
    {
        type            calculated;
        value           nonuniform List<scalar> 
5120
(
43.5628
51.3846
57.6163
63.7447
69.0338
73.3229
76.7589
79.5357
81.809
83.7136
85.3693
86.852
88.1991
89.4445
90.619
91.7534
92.878
94.0211
95.2063
96.4509
97.7643
99.1487
100.601
102.114
103.678
105.28
106.903
108.523
110.103
111.571
112.782
113.494
42.8459
50.3852
56.419
62.4079
67.6242
71.8788
75.2971
78.0661
80.3395
82.2506
83.9144
85.4004
86.7387
87.9701
89.1266
90.2394
91.3404
92.4587
93.6183
94.8356
96.1202
97.4745
98.8954
100.376
101.905
103.47
105.056
106.638
108.179
109.611
110.792
111.484
42.0693
49.3577
55.2026
61.0505
66.1922
70.4142
73.8201
76.5893
78.8727
80.7996
82.4775
83.969
85.3038
86.5243
87.6645
88.758
89.8373
90.9318
92.0654
93.2558
94.5123
95.837
97.2267
98.6739
100.169
101.698
103.247
104.792
106.295
107.691
108.841
109.514
41.2479
48.3045
53.9639
59.67
64.739
68.9343
72.3356
75.1136
77.4167
79.3682
81.0651
82.565
83.9009
85.1122
86.2393
87.3152
88.3739
89.4461
90.5567
91.7219
92.9512
94.2472
95.6065
97.0218
98.483
99.977
101.489
102.996
104.461
105.821
106.941
107.595
40.4025
47.2333
52.7024
58.2595
63.2539
67.4274
70.8338
73.6324
75.9658
77.9482
79.6687
81.1821
82.524
83.7331
84.8501
85.9118
86.9535
88.0059
89.093
90.2338
91.4375
92.7061
94.0361
95.4204
96.8489
98.3085
99.7847
101.255
102.684
104.009
105.099
105.734
39.5193
46.1313
51.4065
56.8117
61.7353
65.8978
69.3214
72.1493
74.519
76.5383
78.2872
79.8186
81.1714
82.3838
83.4956
84.5463
85.5722
86.606
87.6745
88.7937
89.9729
91.2151
92.5169
93.8711
95.267
96.6932
98.1337
99.5678
100.96
102.251
103.312
103.928
38.6113
45.0065
50.0788
55.3207
60.1682
64.3237
67.7754
70.6472
73.066
75.1289
76.9114
78.467
79.8359
81.0586
82.1712
83.2158
84.2315
85.2515
86.3002
87.3979
88.5547
89.7723
91.0471
92.3722
93.7377
95.1308
96.5373
97.9365
99.2947
100.55
101.583
102.18
37.6647
43.841
48.7001
53.7693
58.5425
62.7051
66.2022
69.128
71.5996
73.7119
75.5351
77.1213
78.5147
79.7527
80.8755
81.9193
82.9271
83.9341
84.9698
86.0507
87.1863
88.38
89.6289
90.9257
92.2604
93.6213
94.9937
96.3573
97.6785
98.9016
99.9061
100.484
36.6615
42.6233
47.2594
52.141
56.8288
60.9982
64.5517
67.5525
70.1007
72.2775
74.1513
75.7778
77.2
78.4616
79.5965
80.6483
81.656
82.6585
83.6799
84.743
85.8598
87.0322
88.2564
89.5259
90.8311
92.1606
93.4999
94.8297
96.1187
97.3073
98.284
98.8434
35.6143
41.3483
45.743
50.4148
55.009
59.2003
62.8378
65.9308
68.5582
70.8059
72.7403
74.4149
75.8807
77.1724
78.3331
79.3979
80.4112
81.4104
82.4261
83.4792
84.5789
85.7299
86.9304
88.173
89.4487
90.7456
92.0515
93.3455
94.5958
95.7522
96.7017
97.2399
34.4246
39.9491
44.1002
48.5474
53.0296
57.2317
60.9584
64.1748
66.9308
69.2841
71.3004
73.0429
74.5543
75.8878
77.074
78.1588
79.1831
80.1893
81.1992
82.2398
83.3253
84.4583
85.6358
86.8521
88.0986
89.3642
90.6371
91.8974
93.1168
94.2398
95.16
95.6798
33.1609
38.4675
42.343
46.5203
50.8589
55.0838
58.948
62.3241
65.2095
67.677
69.792
71.6083
73.1933
74.5759
75.808
76.9239
77.9693
78.9807
79.9944
81.0331
82.1065
83.2213
84.377
85.5674
86.7843
88.0173
89.2558
90.4802
91.659
92.7477
93.6423
94.1385
31.626
36.7416
40.3423
44.2369
48.405
52.6176
56.5977
60.1742
63.2946
65.9512
68.2057
70.1429
71.8003
73.2554
74.5335
75.6851
76.753
77.7855
78.8024
79.834
80.8983
81.9988
83.1339
84.2991
85.4873
86.6894
87.8942
89.084
90.2336
91.2898
92.1528
92.6304
29.9808
34.8972
38.1792
41.7003
45.6061
49.7962
53.9879
57.8449
61.1843
64.0488
66.4898
68.547
70.333
71.8625
73.212
74.4194
75.5327
76.5828
77.6152
78.6556
79.714
80.8
81.9154
83.0556
84.2139
85.3816
86.5514
87.7042
88.8093
89.8268
90.6658
91.1162
27.7544
32.5171
35.4918
38.6436
42.2751
46.3695
50.645
54.8176
58.6408
61.8768
64.5666
66.8618
68.769
70.432
71.8674
73.1354
74.2831
75.3729
76.4208
77.4608
78.5163
79.5921
80.6891
81.8047
82.9342
84.0706
85.2049
86.3221
87.3976
88.3836
89.1879
89.6202
25.3089
29.9719
32.6285
35.2573
38.3383
42.2227
46.8448
51.5092
55.6515
59.3149
62.4268
64.9305
67.0864
68.8663
70.4083
71.7662
72.9989
74.1246
75.2047
76.2682
77.3255
78.3918
79.471
80.5617
81.6594
82.7578
83.8556
84.9325
85.9589
86.9004
87.6785
88.0757
21.3185
25.9946
28.2964
30.3948
33.0319
36.6029
40.9909
46.2152
51.6569
56.1153
59.6873
62.7512
65.1361
67.183
68.8971
70.3661
71.6478
72.8401
73.9519
75.0227
76.0852
77.1454
78.2086
79.2743
80.3424
81.4079
82.4665
83.5056
84.5004
85.4071
86.1512
86.5308
16.6674
21.8519
24.2718
26.0077
27.6607
30.5418
35.524
41.1218
46.317
51.9207
56.6683
60.0732
63.0076
65.2686
67.156
68.7701
70.2078
71.4644
72.6337
73.7512
74.8262
75.8831
76.9296
77.9694
79.0008
80.0222
81.0404
82.0331
82.9697
83.8273
84.5348
84.8659
5.47549
11.5244
12.9264
11.7782
8.36919
2.62313
14.3269
27.4535
39.16
46.0281
51.6425
56.7609
60.1793
63.0306
65.2852
67.1246
68.6358
70.0091
71.2359
72.3677
73.4583
74.5139
75.5467
76.5593
77.5591
78.5429
79.5161
80.4668
81.3706
82.1783
82.8583
83.1752
8.88002
11.1093
11.4384
10.8414
8.11259
16.7475
17.4673
20.4482
19.2626
37.1633
46.7198
52.0075
57.0097
60.3458
62.9559
65.0569
66.8787
68.3609
69.6869
70.9102
72.0306
73.091
74.1071
75.0902
76.043
76.9716
77.8954
78.7877
79.6115
80.3732
80.9933
81.2354
11.0633
15.6182
17.1076
17.6507
16.3604
14.0324
19.3269
18.9989
0.757724
18.3831
34.2995
46.4705
52.0028
56.8588
60.2918
62.9054
64.8388
66.5564
67.9959
69.2342
70.3842
71.4505
72.4548
73.4055
74.3211
75.2023
76.0722
76.916
77.7157
78.3834
78.9903
79.2216
19.1342
23.616
25.4917
26.3055
26.1241
24.9181
23.2805
17.8035
20.4462
25.8113
16.9364
31.939
46.1222
52.141
56.6088
59.7781
62.4345
64.3433
65.9556
67.3894
68.6058
69.6881
70.6739
71.5848
72.4339
73.235
74.0368
74.7972
75.4579
76.0994
76.6077
76.7183
22.0216
26.9857
29.6937
31.7105
32.9415
33.2271
32.2663
29.9522
25.0018
23.8872
14.4437
15.9914
33.4478
46.0016
52.0582
56.5764
59.361
61.8114
63.6837
65.1079
66.3729
67.4758
68.4499
69.3204
70.114
70.8535
71.5801
72.2818
72.9645
73.4063
73.9175
74.0086
22.8041
27.9009
30.8434
33.2295
35.0227
36.2026
36.7181
36.3883
34.7016
30.3594
26.3769
18.8735
18.4451
31.9122
44.8659
50.7469
55.559
58.37
60.5584
62.4494
63.8735
65.006
65.9585
66.7572
67.4449
68.0309
68.658
69.222
69.6067
70.0518
70.4166
70.2985
22.3281
27.5534
30.6506
33.2537
35.3221
36.8453
37.8261
38.2635
38.0705
36.7872
33.1826
25.6098
26.8597
32.7809
34.6831
45.3655
49.9778
54.2734
57.107
58.8443
60.3315
61.5239
62.4493
63.2023
63.7686
64.3012
64.7695
65.2649
65.8405
65.8817
66.2518
66.0436
20.8778
26.2386
29.4269
32.1588
34.4051
36.1636
37.4554
38.3157
38.7743
38.7697
37.8581
34.4811
28.516
33.2136
36.0768
33.7187
43.187
47.8071
51.3804
54.4123
56.3323
57.5361
58.4349
59.0085
59.3802
59.4734
59.8426
60.0613
59.8949
59.7622
60.0349
59.3853
18.9231
24.3733
27.5838
30.3573
32.6844
34.5787
36.0691
37.2119
38.0842
38.7427
39.1032
38.5768
35.0431
27.1653
30.5252
10.3599
29.7154
40.8567
45.5055
47.6339
49.4487
50.9112
51.6177
52.2242
52.1381
52.5127
52.1699
52.5856
53.1313
52.8767
53.1568
51.7555
16.6659
22.0988
25.2333
27.9499
30.2674
32.2235
33.8612
35.2372
36.4331
37.5286
38.541
39.2712
38.8842
35.2752
27.8354
22.6285
5.25704
22.9471
33.986
39.2395
42.9351
43.9388
44.4892
44.7849
44.1066
42.7838
42.8386
41.395
41.8471
35.8405
37.2774
34.2102
14.4086
19.6817
22.6355
25.1941
27.4099
29.3435
31.0541
32.6052
34.072
35.5339
37.0228
38.4456
39.4464
39.0824
35.0864
27.3335
20.8485
6.73724
9.39144
24.1177
23.2595
25.2353
25.2461
25.1383
21.8028
22.6185
13.8328
31.3778
21.9407
27.1485
36.2501
31.3082
12.4398
17.4343
20.1343
22.4651
24.5118
26.3536
28.0599
29.6964
31.3286
33.0243
34.8325
36.7122
38.4536
39.5587
38.9525
34.332
30.9475
27.3148
21.4484
32.6858
16.748
27.336
30.6548
23.7548
34.8037
24.1765
7.79068
41.0197
27.3052
30.8184
38.2335
29.5041
10.9306
15.5829
18.0155
20.1024
21.9571
23.6713
25.3184
26.9587
28.6446
30.4258
32.3522
34.4346
36.5759
38.4555
39.4328
38.5421
34.5669
30.4926
25.1887
29.8932
23.3137
30.386
17.6089
31.9963
28.0837
35.1155
31.567
39.0144
35.3094
33.8238
31.5284
32.5769
9.8172
14.2303
16.4368
18.3183
20.01
21.6065
23.1752
24.7638
26.41
28.1508
30.0301
32.0886
34.3236
36.589
38.4756
39.3371
38.4786
36.0493
33.0485
29.3417
28.0631
27.9517
29.8546
30.967
35.514
35.7666
38.098
36.4393
35.9749
41.3828
39.4505
41.5224
9.21317
13.4379
15.4838
17.2295
18.8184
20.3364
21.8355
23.3467
24.8938
26.5057
28.2222
30.0962
32.1758
34.4481
36.7335
38.6002
39.4749
39.3893
38.5164
38.0014
37.0117
37.8608
39.5511
39.2952
42.2057
41.9103
43.3551
42.4627
40.6503
44.5535
43.8579
43.9026
9.01508
13.1491
15.1201
16.8114
18.365
19.8519
21.3056
22.7418
24.1746
25.6271
27.1365
28.7537
30.5406
32.5505
34.7706
37.0212
38.8967
40.0847
40.4844
40.7746
40.5821
41.323
42.0176
41.9396
43.3098
43.2408
43.7666
43.2852
42.0812
44.0428
44.2996
43.7798
9.15606
13.2748
15.2416
16.9454
18.5178
20.0131
21.448
22.8282
24.1631
25.4731
26.79
28.1572
29.6299
31.2743
33.1497
35.2502
37.4083
39.3096
40.5619
41.3676
41.585
42.1465
42.4775
42.3863
42.9571
43.0496
43.1285
42.728
41.8353
42.6685
43.5161
42.8088
9.54513
13.7003
15.7115
17.4746
19.1037
20.637
22.0801
23.4323
24.7009
25.9051
27.0731
28.24
29.4485
30.7538
32.2229
33.9161
35.8259
37.8022
39.4849
40.7108
41.3001
41.8052
41.9877
41.7921
41.822
41.8451
41.7307
41.3553
40.5237
40.8478
41.9202
41.197
10.1294
14.3517
16.4322
18.2771
19.9816
21.5693
23.038
24.3851
25.6188
26.7586
27.8302
28.8611
29.8815
30.9298
32.0584
33.3302
34.7951
36.4314
38.0425
39.3894
40.1981
40.7308
40.8674
40.5817
40.2915
40.1831
40.0102
39.6835
38.8845
39.1324
40.1637
39.5795
10.8593
15.1766
17.3403
19.2762
21.0608
22.7068
24.2085
25.5644
26.7862
27.8955
28.9165
29.8707
30.7775
31.6596
32.5506
33.497
34.5509
35.7398
36.9962
38.157
38.9671
39.4826
39.5967
39.2831
38.8535
38.6364
38.4728
38.252
37.5861
37.9038
38.7764
38.41
11.6539
16.131
18.3876
20.4166
22.2798
23.9828
25.5194
26.8921
28.1177
29.2205
30.2242
31.146
31.9974
32.7894
33.5394
34.2744
35.0328
35.8484
36.7126
37.5476
38.1841
38.588
38.6485
38.3362
37.8731
37.6003
37.468
37.3768
36.9145
37.3203
38.0448
37.9003
12.5885
17.186
19.5359
21.6563
23.5945
25.3515
26.9231
28.3176
29.5573
30.6697
31.6778
32.5962
33.4307
34.1848
34.8656
35.4844
36.0628
36.6256
37.1829
37.7062
38.1046
38.3332
38.2982
37.9756
37.5186
37.2254
37.12
37.1409
36.9006
37.3836
38.0133
38.0544
13.3341
13.7325
14.205
14.5894
14.9679
15.274
15.5442
15.757
15.931
16.0571
16.1463
16.1964
16.2116
16.1924
16.1431
16.0659
15.9628
15.839
15.7052
15.5917
15.5936
15.708
15.8411
15.9636
16.0648
16.14
16.1871
16.2041
16.1867
16.1344
16.0429
15.9144
15.738
15.5228
15.2499
14.9407
14.5595
14.1727
13.698
13.2993
18.0553
18.4689
18.9609
19.363
19.7592
20.0859
20.3786
20.616
20.8156
20.9695
21.0868
21.1659
21.2097
21.2176
21.1919
21.134
21.0449
20.9282
20.794
20.6746
20.6758
20.7952
20.928
21.0427
21.1296
21.1851
21.2084
21.1983
21.1522
21.0709
20.9515
20.7955
20.5938
20.3542
20.0591
19.7297
19.3309
18.9265
18.432
18.0178
20.4834
20.9225
21.4449
21.8728
22.2974
22.6543
22.981
23.2555
23.4952
23.6921
23.8542
23.9797
24.0706
24.1249
24.1427
24.1245
24.0703
23.9822
23.8693
23.7625
23.7632
23.8691
23.9799
24.0654
24.1168
24.1322
24.1116
24.0548
23.9615
23.8339
23.6698
23.471
23.2294
22.9531
22.6243
22.2652
21.8382
21.408
20.883
20.4429
22.6661
23.1258
23.6722
24.1206
24.5699
24.954
25.3126
25.6225
25.9012
26.1407
26.3472
26.5186
26.6564
26.7575
26.8201
26.8433
26.8262
26.7704
26.6848
26.5998
26.5999
26.6832
26.766
26.8185
26.8321
26.8057
26.7399
26.6361
26.4956
26.322
26.1135
25.8723
25.5921
25.2806
24.9206
24.5347
24.0834
23.633
23.0841
22.6233
24.6456
25.1117
25.6676
26.1236
26.5853
26.985
27.3637
27.6981
28.0048
28.2767
28.519
28.7282
28.9047
29.0445
29.1448
29.2033
29.2185
29.1916
29.132
29.0691
29.0687
29.1292
29.1854
29.2083
29.1894
29.1272
29.0233
28.8805
28.7013
28.4898
28.2455
27.972
27.6641
27.3286
26.9489
26.548
26.0849
25.6273
25.0693
24.602
26.424
26.8806
27.4321
27.8839
28.3467
28.7519
29.1415
29.4928
29.822
30.1206
30.3929
30.6343
30.8437
31.0164
31.1491
31.2379
31.281
31.2791
31.2418
31.1967
31.1957
31.238
31.2715
31.2691
31.2217
31.1288
30.9924
30.8163
30.604
30.3602
30.0861
29.786
29.456
29.1041
28.714
28.3082
27.8446
27.3919
26.8389
26.3812
28.0028
28.4385
28.9779
29.4196
29.8788
30.2867
30.6863
31.0542
31.4042
31.7277
32.0274
32.2979
32.537
32.7394
32.9004
33.0158
33.0829
33.1021
33.0824
33.0498
33.0486
33.0778
33.0931
33.0694
32.9978
32.8778
32.7128
32.5069
32.2648
31.9918
31.6903
31.3655
31.0149
30.6469
30.2473
29.8396
29.3803
28.9385
28.3982
27.9618
29.3978
29.8083
30.3346
30.7671
31.2249
31.6399
32.0512
32.4365
32.807
33.1543
33.4794
33.7767
34.0424
34.2709
34.4569
34.5951
34.6823
34.7184
34.7118
34.6875
34.6859
34.7065
34.7084
34.6673
34.5752
34.4322
34.2419
34.0097
33.7407
33.4411
33.1141
32.7658
32.3946
32.0096
31.5987
31.1847
30.7277
30.2959
29.7694
29.3587
30.6378
31.0239
31.5406
31.9687
32.4298
32.8541
33.2785
33.6809
34.0708
34.4398
34.7877
35.1083
35.3973
35.6482
35.8553
36.0124
36.1157
36.1648
36.1674
36.148
36.1462
36.1615
36.1537
36.0993
35.9906
35.8285
35.6169
35.362
35.0697
34.7466
34.3969
34.0268
33.6365
33.2345
32.811
32.3882
31.9284
31.5018
30.9856
30.5996
31.7532
32.1176
32.6282
33.0562
33.5221
33.9561
34.393
34.8108
35.218
35.6059
35.9731
36.3135
36.6219
36.8914
37.1154
37.2875
37.4033
37.4618
37.4706
37.4536
37.4517
37.464
37.4499
37.3855
37.2641
37.0865
36.8577
36.584
36.2722
35.9292
35.5601
35.1713
34.764
34.3465
33.9109
33.4785
33.0143
32.5882
32.0785
31.7142
32.7654
33.1095
33.6162
34.0446
34.5152
34.9581
35.4057
35.837
36.2587
36.6622
37.0455
37.4021
37.726
38.0101
38.2474
38.4312
38.5563
38.6216
38.6343
38.6184
38.6163
38.6273
38.6087
38.5371
38.406
38.2167
37.9742
37.6857
37.3581
36.9988
36.6137
36.2092
35.7873
35.3566
34.9102
34.4691
34.0005
33.5742
33.0686
32.7244
33.6865
34.0088
34.5106
34.9386
35.4129
35.8632
36.3201
36.7628
37.1965
37.6129
38.0092
38.3786
38.7149
39.0105
39.258
39.4506
39.5829
39.6534
39.6694
39.6548
39.6525
39.6618
39.6395
39.5624
39.4237
39.2252
38.9723
38.6721
38.332
37.9598
37.5615
37.1441
36.7101
36.2683
35.8127
35.3641
34.8917
34.4656
33.9647
33.6417
34.5188
34.8161
35.311
35.7375
36.2145
36.6713
37.1361
37.5883
38.0322
38.4593
38.8661
39.2459
39.5919
39.8964
40.152
40.3515
40.4896
40.5652
40.5851
40.573
40.5706
40.5768
40.5501
40.4676
40.3228
40.117
39.8559
39.5466
39.1966
38.8139
38.405
37.9769
37.5328
37.0812
36.6177
36.1627
35.6872
35.2623
34.7679
34.4687
35.2619
35.5296
36.0145
36.4382
36.9173
37.3799
37.8518
38.3127
38.7655
39.2017
39.6174
40.0056
40.3592
40.6707
40.9325
41.1377
41.2812
41.3619
41.3873
41.3798
41.377
41.3782
41.3457
41.2576
41.1071
40.8954
40.6278
40.3112
39.9535
39.5624
39.1445
38.7073
38.2541
37.7938
37.3229
36.8618
36.3842
35.9611
35.4758
35.2049
35.9165
36.1466
36.6173
37.0369
37.5173
37.9855
38.4646
38.9338
39.395
39.8396
40.263
40.6583
41.0183
41.3354
41.6025
41.8125
41.9612
42.0479
42.0801
42.0786
42.0755
42.0701
42.0303
41.9359
41.78
41.5631
41.2901
40.9677
40.6035
40.2051
39.7795
39.3338
38.8721
38.4033
37.9251
37.4579
36.9783
36.5586
36.0859
35.8505
36.4838
36.6638
37.115
37.5284
38.0095
38.4835
38.97
39.4479
39.9177
40.3703
40.8011
41.2028
41.5684
41.8907
42.1622
42.3769
42.5308
42.6239
42.6637
42.6686
42.665
42.6526
42.6049
42.5038
42.3423
42.1205
41.8427
41.5152
41.1452
40.7403
40.3073
39.8534
39.3832
38.9055
38.4195
37.946
37.4647
37.0501
36.5947
36.4072
36.9702
37.0796
37.5019
37.906
38.3868
38.8668
39.3614
39.8485
40.3272
40.7883
41.2266
41.6347
42.0058
42.3327
42.6086
42.8278
42.9869
43.0865
43.1339
43.1448
43.1408
43.1218
43.066
42.9581
42.7911
42.5645
42.2822
41.9499
41.5745
41.1631
40.7226
40.2602
39.7808
39.2935
38.7992
38.3189
37.8371
37.4297
37.0015
36.883
37.3844
37.3937
37.7703
38.1612
38.6393
39.1256
39.6286
40.1259
40.6144
41.0846
41.5309
41.9457
42.3224
42.6541
42.9345
43.1582
43.3226
43.4284
43.4826
43.4986
43.4944
43.4696
43.4065
43.292
43.1195
42.8882
42.6014
42.2643
41.8831
41.465
41.0166
40.545
40.0558
39.5581
39.0548
38.5677
38.0874
37.6917
37.3084
37.2896
37.7323
37.6065
37.9136
38.2811
38.7557
39.2476
39.7598
40.268
40.7674
41.2475
41.7024
42.1247
42.5076
42.8445
43.1295
43.3579
43.5273
43.6389
43.6991
43.7194
43.7148
43.6852
43.6157
43.4952
43.3174
43.0815
42.7899
42.4476
42.0604
41.635
41.178
40.6964
40.1965
39.6879
39.1752
38.682
38.2046
37.832
37.5184
37.6359
38.0097
37.7184
37.9306
38.2599
38.7244
39.2223
39.7436
40.2635
40.7741
41.2651
41.7295
42.1599
42.5495
42.8922
43.1822
43.4153
43.5896
43.7064
43.7716
43.7952
43.7904
43.757
43.6822
43.5562
43.3735
43.1328
42.8363
42.4884
42.0947
41.6615
41.1954
40.7033
40.1921
39.672
39.1504
38.6514
38.1842
37.8501
37.6317
37.9158
38.1855
37.7202
37.8214
38.0983
38.5441
39.0452
39.5748
40.106
40.628
41.1299
41.6039
42.0427
42.4395
42.7881
43.0833
43.3211
43.4999
43.6211
43.6903
43.7166
43.7116
43.6752
43.5962
43.4657
43.2785
43.0333
42.7319
42.3785
41.9782
41.5371
41.0617
40.5595
40.0377
39.5073
38.9783
38.477
38.0289
37.7466
37.6367
38.0903
38.1831
37.5799
37.5803
37.801
38.2214
38.7205
39.2589
39.8
40.3325
40.8443
41.3274
41.774
42.1773
42.5315
42.8312
43.0731
43.2556
43.3803
43.4524
43.4805
43.4754
43.4371
43.3551
43.2213
43.0306
42.7817
42.4762
42.1178
41.7116
41.2636
40.7803
40.2693
39.7385
39.1998
38.6644
38.1678
37.748
37.526
37.5248
38.1327
38.0112
37.3
37.2188
37.3893
37.7843
38.2773
38.8207
39.3697
39.91
40.4293
40.919
41.3711
41.7792
42.1371
42.44
42.6843
42.8688
42.9951
43.0686
43.0976
43.0925
43.0534
42.9702
42.835
42.6427
42.392
42.0842
41.723
41.3133
40.8611
40.3729
39.8567
39.3208
38.7781
38.2414
37.7541
37.3626
37.1924
37.2719
37.9844
37.6232
36.8728
36.7568
36.9003
37.2782
37.7646
38.3089
38.8631
39.4074
39.93
40.422
40.876
41.2851
41.6435
41.9463
42.1902
42.3739
42.4994
42.572
42.6005
42.5954
42.5571
42.4752
42.3414
42.1505
41.9011
41.5944
41.234
40.8249
40.373
39.8847
39.3682
38.8322
38.2894
37.7574
37.2825
36.913
36.7744
36.8889
37.6372
37.1315
36.3926
36.2808
36.4184
36.7886
37.268
37.8081
38.3599
38.901
39.4203
39.9086
40.3584
40.7632
41.1171
41.4153
41.6544
41.8334
41.9542
42.0227
42.0488
42.044
42.0085
41.9312
41.8026
41.6173
41.3734
41.0725
40.718
40.3149
39.8689
39.3868
38.8765
38.3471
37.811
37.2884
36.8263
36.4703
36.3433
36.4584
37.1977
36.7589
36.031
35.9252
36.0567
36.4162
36.8827
37.4102
37.9504
38.4805
38.9892
39.467
39.9067
40.3014
40.6454
40.934
41.1639
41.3337
41.4456
41.5062
41.5273
41.5228
41.4929
41.424
41.3051
41.1297
40.8961
40.6059
40.2624
39.8707
39.4365
38.9668
38.4695
37.954
37.4334
36.9287
36.486
36.1489
36.0385
36.1603
36.9036
36.6408
35.9087
35.7943
35.9105
36.2511
36.6968
37.2029
37.7225
38.2342
38.7258
39.1874
39.6116
39.9914
40.321
40.5958
40.8123
40.9691
41.0683
41.1173
41.1307
41.1269
41.1062
41.0504
40.9455
40.7844
40.5654
40.2901
39.9621
39.5863
39.1684
38.7155
38.2356
37.7385
37.2385
36.7557
36.3363
36.0217
35.9315
36.0664
36.8124
36.8441
36.1152
35.9935
36.0857
36.3967
36.8082
37.2792
37.7646
38.2471
38.7123
39.15
39.552
39.9112
40.2217
40.4787
40.6783
40.8191
40.9026
40.9364
40.9386
40.9356
40.9276
40.889
40.8018
40.6586
40.4581
40.202
39.8941
39.539
39.1426
38.7116
38.2544
37.7806
37.3056
36.8469
36.4493
36.1517
36.0703
36.196
36.9079
36.9475
36.3311
36.2745
36.3971
36.7139
37.1143
37.5648
38.0271
38.4864
38.9287
39.3444
39.7254
40.0649
40.3571
40.5973
40.7816
40.908
40.9777
40.9979
40.9898
40.9905
41.0004
40.9825
40.9161
40.7941
40.6156
40.3826
40.0986
39.7684
39.397
38.9907
38.557
38.1041
37.6452
37.1934
36.787
36.4562
36.3081
36.3226
36.8722
37.5797
36.9623
36.9016
37.0017
37.2905
37.6566
38.0712
38.5011
38.9306
39.3456
39.7358
40.0934
40.4112
40.6837
40.9058
41.074
41.1856
41.241
41.2464
41.2237
41.2221
41.2448
41.2422
41.1912
41.085
40.9232
40.7081
40.4434
40.1336
39.7841
39.4011
38.9921
38.5659
38.1359
37.716
37.3373
37.024
36.8831
36.8835
37.4107
38.0999
37.4652
37.3905
37.4784
37.7526
38.1024
38.5026
38.9196
39.3371
39.7405
40.1198
40.4667
40.7746
41.038
41.2518
41.4125
41.5177
41.5672
41.5666
41.5379
41.5379
41.5707
41.579
41.5387
41.4433
41.2931
41.0899
40.8377
40.5407
40.2041
39.834
39.4378
39.0246
38.6073
38.2008
37.8357
37.5353
37.4062
37.4255
37.9842
38.1692
37.6937
37.7222
37.8701
38.1762
38.538
38.9378
39.3465
39.7513
40.1398
40.5034
40.8347
41.1275
41.3767
41.5776
41.7268
41.8216
41.8619
41.853
41.8161
41.8108
41.8454
41.8575
41.8222
41.7328
41.5892
41.3938
41.15
40.862
40.5349
40.1745
39.788
39.3836
38.9738
38.5713
38.2047
37.8914
37.7328
37.6959
38.1638
43.5513
51.3751
57.608
63.737
69.0264
73.3155
76.7513
79.5277
81.8005
83.7047
85.36
86.8422
88.1888
89.4336
90.6075
91.7411
92.865
94.0073
95.1916
96.4352
97.7475
99.1308
100.582
102.094
103.657
105.258
106.881
108.502
110.086
111.554
112.775
113.487
42.8453
50.3836
56.4166
62.4046
67.6198
71.8732
75.2905
78.0589
80.3318
82.2424
83.9057
85.391
86.7287
87.9593
89.1152
90.2274
91.3276
92.4449
93.6035
94.8198
96.1032
97.4562
98.8758
100.355
101.883
103.447
105.033
106.616
108.161
109.594
110.786
111.478
42.0554
49.3466
55.1929
61.042
66.1844
70.4068
73.813
76.582
78.8648
80.7911
82.4684
83.9594
85.2935
86.5137
87.6531
88.7457
89.824
90.9177
92.0503
93.2396
94.4949
95.8182
97.2064
98.6524
100.146
101.675
103.223
104.768
106.277
107.673
108.835
109.508
41.2518
48.3071
53.9659
59.6707
64.738
68.9313
72.3309
75.1076
77.4101
79.3611
81.0574
82.5566
83.8915
85.1018
86.2279
87.3031
88.361
89.4321
90.5415
91.7056
92.9335
94.2281
95.5858
96.9996
98.4593
99.9523
101.464
102.971
104.443
105.803
106.936
107.589
40.3871
47.2207
52.6912
58.2496
63.245
67.4195
70.8269
73.6258
75.9588
77.9405
79.6601
81.1728
82.514
83.7226
84.8392
85.8998
86.9402
87.9916
89.0778
90.2172
91.4195
92.6865
94.0148
95.3974
96.8245
98.283
99.7592
101.23
102.665
103.99
105.095
105.729
39.5272
46.139
51.4141
56.8185
61.74
65.8998
69.3202
72.1458
74.5144
76.533
78.2813
79.8117
81.1636
82.3745
83.4846
84.5342
85.5594
86.592
87.6591
88.7769
89.9545
91.1951
92.4952
93.8474
95.2419
96.6662
98.1067
99.5403
100.941
102.231
103.308
103.922
38.5974
44.9946
50.0674
55.3098
60.158
64.3149
67.7684
70.6415
73.0602
75.1221
76.9035
78.4582
79.826
81.0481
82.1608
83.2046
84.2185
85.2373
86.2848
87.381
88.5361
89.7518
91.0247
92.3479
93.7114
95.1031
96.5095
97.9088
99.2742
100.53
101.58
102.176
37.6755
43.8535
48.7145
53.7845
58.5563
62.7154
66.2078
69.1292
71.5982
73.7095
75.5319
77.1169
78.5094
79.7458
80.8658
81.9075
82.9146
83.9202
84.9542
86.0334
87.1672
88.3591
89.6059
90.9005
92.233
93.5916
94.964
96.3263
97.6577
98.8798
99.904
100.48
36.6533
42.6153
47.25
52.1299
56.8167
60.987
64.5437
67.5476
70.0967
72.2724
74.1445
75.7699
77.1902
78.4506
79.5863
80.6383
81.6438
82.6446
83.6644
84.7259
85.8408
87.0106
88.2327
89.4999
90.8029
92.1302
93.4695
94.7988
96.0967
97.2843
98.2827
98.8397
35.6281
41.3664
45.7664
50.4427
55.0382
59.226
62.8557
65.9402
68.5622
70.8079
72.7413
74.4143
75.8795
77.1698
78.3266
79.387
80.399
81.3967
82.4106
83.4615
84.5589
85.7079
86.9058
88.1456
89.4189
90.7132
92.0183
93.3098
94.5731
95.7281
96.7022
97.2375
34.4264
39.9486
44.0948
48.5355
53.0124
57.2139
60.9458
64.1695
66.9291
69.2814
71.2953
73.0361
74.5449
75.8759
77.0625
78.1499
79.1723
80.1761
81.1839
82.2224
83.3056
84.4356
85.6105
86.8241
88.0675
89.3306
90.6027
91.8617
93.0933
94.2125
95.1616
95.6778
33.1786
38.4932
42.3799
46.5704
50.9179
55.1413
58.9919
62.35
65.2233
67.686
69.7993
71.6136
73.1977
74.5801
75.8084
76.916
77.9582
78.9677
79.979
81.015
82.0855
83.1978
84.3504
85.5372
86.7511
87.9803
89.2175
90.437
91.6331
92.72
93.646
94.1385
31.6461
36.7555
40.3446
44.2212
48.3712
52.577
56.5681
60.1637
63.2951
65.9526
68.204
70.138
71.7921
73.2423
74.5183
75.6758
76.7439
77.7735
78.7875
79.8165
80.8779
81.9747
83.1065
84.2685
85.4526
86.6506
87.8542
89.0421
90.2085
91.2563
92.1594
92.6308
29.9999
34.9288
38.2329
41.7888
45.7298
49.9315
54.0968
57.9094
61.2179
64.0691
66.5052
68.5617
70.3454
71.8756
73.2252
74.419
75.5242
76.5708
77.6002
78.6373
79.692
80.7747
81.8863
83.0216
84.1762
85.3384
86.5058
87.6507
88.7788
89.7946
90.674
91.1191
27.8143
32.5665
35.5186
38.6222
42.1892
46.2459
50.5485
54.7806
58.6405
61.8874
64.5767
66.8605
68.7639
70.4198
71.8446
73.1223
74.275
75.3627
76.4069
77.4431
78.4947
79.5662
80.6588
81.7706
82.8946
84.0246
85.158
86.2714
87.3698
88.342
89.2007
89.6235
25.3147
29.9887
32.6819
35.3974
38.6097
42.582
47.1549
51.69
55.7403
59.3553
62.4445
64.9599
67.1111
68.8903
70.4426
71.7812
72.9964
74.1147
75.1901
76.2496
77.3026
78.3639
79.4388
80.5231
81.6154
82.7063
83.7992
84.8624
85.922
86.8581
87.6943
88.0823
21.4817
26.1514
28.4208
30.4167
32.8567
36.2514
40.6243
46.0281
51.6099
56.1388
59.7396
62.7567
65.1372
67.1781
68.8634
70.3441
71.6396
72.8319
73.9394
75.0046
76.0617
77.1169
78.174
79.2348
80.296
81.3514
82.41
83.4447
84.4678
85.3551
86.1717
86.5371
16.6674
21.8063
24.2569
26.0697
27.8423
30.8331
36.3583
41.8421
46.6846
52.0346
56.6653
60.1423
63.0596
65.3065
67.2234
68.8127
70.2169
71.4591
72.6204
73.7324
74.8026
75.8523
76.8937
77.9252
78.9482
79.9584
80.9664
81.9323
82.9244
83.7665
84.5617
84.8777
5.69878
11.4376
12.6533
11.9221
11.0334
11.9214
15.0109
26.0884
38.5389
45.9561
51.8007
56.7279
60.1766
63.0469
65.2406
67.0883
68.6276
70.0022
71.2233
72.3487
73.4311
74.4803
75.5057
76.5111
77.503
78.4707
79.4461
80.3966
81.3287
82.1129
82.8924
83.1821
7.76566
1.99232
9.11927
14.3314
10.9108
12.6387
9.07813
21.3927
21.0381
37.7535
46.7103
52.3521
57.175
60.4129
63.0784
65.1504
66.9061
68.3648
69.6792
70.8918
72.007
73.0578
74.0657
75.0395
75.9774
76.8872
77.7923
78.628
79.5543
80.2761
81.0346
81.2549
11.5605
15.7919
16.556
16.1218
14.6202
18.5364
20.416
20.7518
24.3199
17.1881
34.2105
45.7552
51.8845
56.9334
60.2467
62.8429
64.834
66.5485
67.9759
69.2116
70.3505
71.4057
72.4041
73.3429
74.2524
75.1089
75.9814
76.8403
77.6552
78.2966
79.0522
79.2274
19.979
24.4683
26.3744
27.1138
26.6104
24.8724
24.0151
18.7923
18.2391
24.3501
18.042
34.8127
46.7538
52.2484
56.8414
59.9966
62.4998
64.365
65.9654
67.3736
68.5831
69.6553
70.623
71.5259
72.345
73.1054
73.8828
74.5242
75.3809
75.9292
76.6614
76.7391
22.4937
27.4631
30.1548
32.1056
33.1915
33.2052
31.7906
29.3214
27.1441
21.7287
1.55923
12.1102
33.067
46.4979
52.0911
56.4217
59.3487
61.7933
63.6325
65.073
66.3282
67.4055
68.3844
69.2335
70.0345
70.7463
71.4514
72.1997
72.8579
73.273
74.0408
74.025
23.3094
28.4038
31.3455
33.7049
35.4373
36.5182
36.8923
36.3596
34.331
30.8226
24.4754
23.0509
18.2232
31.1715
45.3026
51.403
55.7551
58.4234
60.6124
62.4442
63.8502
64.9847
65.8888
66.6874
67.3011
67.7619
68.4059
68.7286
69.4886
69.7245
70.4716
70.2733
22.7448
27.9738
31.0801
33.684
35.7444
37.2563
38.2358
38.7086
38.6354
37.6937
34.4199
28.5548
22.9367
28.2757
33.4609
44.7469
49.8022
54.1821
56.9512
58.7701
60.275
61.3953
62.3631
63.0733
63.7236
64.3006
64.5822
65.1535
65.5857
65.5946
66.481
66.1579
21.2056
26.5708
29.7675
32.5027
34.7479
36.5031
37.7949
38.6694
39.1745
39.277
38.521
35.3704
29.0561
31.9916
31.0051
34.2447
43.9528
47.9298
51.5282
54.4627
56.2887
57.5839
58.3374
58.9431
59.0536
58.6582
59.3435
59.0992
59.6422
59.0802
60.0238
59.1386
19.1411
24.6038
27.8251
30.6056
32.9355
34.8287
36.3142
37.4495
38.3089
38.9333
39.1719
38.2803
34.1678
32.1219
20.2019
27.083
27.8717
40.0962
44.9963
47.3477
49.5161
50.6255
51.6534
52.0432
52.5947
53.9739
52.0925
52.0694
52.1863
51.5594
52.945
53.0899
16.824
22.2705
25.4164
28.1411
30.4614
32.4131
34.0368
35.3864
36.5396
37.569
38.4731
38.9977
38.1956
34.2979
26.493
26.5772
26.6049
21.9799
34.0027
40.2965
42.4319
44.2837
44.8516
44.7762
42.6016
38.9233
41.9611
41.3166
40.188
35.3061
37.8618
34.026
14.5142
19.8035
22.7708
25.3411
27.5636
29.4965
31.1953
32.7188
34.1359
35.5174
36.8843
38.1491
38.9912
38.3757
35.1395
27.2952
20.4677
5.41106
5.27318
17.2621
26.5759
27.885
27.2932
26.5679
29.0189
31.9766
21.6499
10.583
34.1746
11.3766
19.836
32.0734
12.5005
17.5097
20.2236
22.5681
24.6254
26.472
28.1745
29.7939
31.3909
33.028
34.7437
36.4965
38.1172
39.2358
39.1183
36.1781
28.7702
21.8348
15.8603
16.3904
33.4369
21.1809
30.3028
30.9594
16.0064
37.4342
23.7993
15.3641
33.8939
19.2626
16.5448
40.1399
10.9613
15.6215
18.0658
20.1657
22.0323
23.7552
25.4053
27.0399
28.7072
30.4524
32.3198
34.3209
36.3815
38.2568
39.5317
39.4808
36.736
29.6662
30.6845
28.4421
35.653
25.5257
34.2597
31.1619
27.9985
21.3498
36.8796
25.6998
30.6383
36.6864
28.8491
27.2707
9.82724
14.2445
16.4604
18.3535
20.0567
21.6633
23.2393
24.8304
26.4718
28.1968
30.0445
32.0542
34.2341
36.4824
38.4915
39.7513
39.6419
37.504
33.1515
29.4354
28.966
31.1365
27.2928
29.3502
34.4024
32.7104
34.1954
36.2856
41.3911
40.644
41.5136
36.1919
9.21439
13.4405
15.4939
17.2496
18.849
20.3771
21.8848
23.4023
24.9523
26.5615
28.2678
30.1218
32.1732
34.4242
36.7427
38.7662
39.9573
39.976
37.9891
36.8573
36.2635
32.9913
36.1954
38.0289
41.2195
41.3278
40.1197
41.4499
44.4792
43.2153
44.8424
42.0328
9.01509
13.1493
15.1269
16.8273
18.3905
19.8865
21.3482
22.791
24.2289
25.6849
27.1952
28.8101
30.5907
32.5927
34.8137
37.0956
39.0461
40.1958
40.0736
40.035
40.1335
37.7813
40.4397
41.0911
42.7527
43.295
42.1373
42.5309
44.1777
43.16
44.9996
43.2057
9.16077
13.28
15.2529
16.9647
18.5452
20.0475
21.4885
22.874
24.2139
25.5292
26.8518
28.225
29.7033
31.352
33.229
35.3247
37.4611
39.2686
40.2693
40.9153
41.2545
39.9243
41.5303
41.7992
42.6556
43.1633
42.4121
42.4729