/*--------------------------------*- C++ -*----------------------------------*\
  =========                 |
  \\      /  F ield         | OpenFOAM: The Open Source CFD Toolbox
   \\    /   O peration     | Website:  https://openfoam.org
    \\  /    A nd           | Version:  6
     \\/     M anipulation  |
\*---------------------------------------------------------------------------*/
FoamFile
{
    version     2.0;
    format      ascii;
    class       volScalarField;
    location    "14";
    object      yPlus;
}
// * * * * * * * * * * * * * * * * * * * * * * * * * * * * * * * * * * * * * //

dimensions      [0 0 0 0 0 0 0];

internalField   uniform 0;

boundaryField
{
    inlet
    {
        type            calculated;
        value           uniform 0;
    }
    outlet
    {
        type            calculated;
        value           uniform 0;
    }
    roughCylinder
    {
        type            calculated;
        value           nonuniform List<scalar> 
5120
(
43.5499
51.3736
57.6063
63.7351
69.0244
73.3138
76.75
79.527
81.8003
83.7047
85.3601
86.8422
88.1887
89.4336
90.6076
91.7413
92.8651
94.0076
95.192
96.4356
97.7478
99.131
100.582
102.093
103.656
105.256
106.876
108.496
110.074
111.547
112.755
113.477
42.8443
50.3821
56.4151
62.4033
67.619
71.8727
75.2901
78.0583
80.331
82.2414
83.9047
85.3905
86.7286
87.9594
89.1153
90.2276
91.3279
92.4453
93.6039
94.8203
96.1036
97.4566
98.8758
100.354
101.881
103.445
105.028
106.61
108.149
109.587
110.764
111.468
42.0506
49.3422
55.1887
61.0378
66.1803
70.4031
73.8099
76.5798
78.8637
80.7908
82.4685
83.9594
85.2934
86.5136
87.6532
88.7458
89.8242
90.9182
92.0509
93.2402
94.4955
95.8187
97.2069
98.6524
100.145
101.672
103.219
104.763
106.264
107.666
108.813
109.497
41.2535
48.3074
53.9657
59.6705
64.7382
68.9318
72.3313
75.1076
77.4094
79.3598
81.0559
82.5554
83.891
85.1016
86.2279
87.3034
88.3617
89.4327
90.5422
91.7064
92.9344
94.2288
95.5864
96.9996
98.4583
99.95
101.459
102.966
104.429
105.796
106.912
107.579
40.3771
47.2119
52.6827
58.2415
63.2374
67.4127
70.8211
73.6215
75.9561
77.9392
79.6598
81.1727
82.5137
83.7225
84.8393
85.9
86.9404
87.9922
89.0786
90.2181
91.4205
92.6873
94.0155
95.3979
96.8235
98.2812
99.7547
101.224
102.651
103.984
105.07
105.718
39.532
46.1415
51.4158
56.8198
61.7414
65.9011
69.3214
72.1462
74.5134
76.5311
78.2791
79.8099
81.1626
82.3736
83.4841
84.5343
85.5602
86.5928
87.66
88.778
89.9558
91.1965
92.4962
93.8479
95.2414
96.6649
98.1022
99.5355
100.926
102.225
103.281
103.912
38.5814
44.9799
50.0532
55.2963
60.1456
64.3038
67.7591
70.6344
73.0559
75.12
76.9024
78.4571
79.8248
81.0479
82.1611
83.2048
84.2186
85.2379
86.2859
87.3823
88.5376
89.7532
91.026
92.3488
93.7114
95.1018
96.5056
97.904
99.2584
100.524
101.551
102.165
37.6821
43.8576
48.7172
53.7865
58.5579
62.7169
66.2088
69.129
71.596
73.7057
75.5282
77.1147
78.5084
79.7444
80.8644
81.9072
82.9154
83.9212
84.9553
86.0351
87.1691
88.3612
89.6077
90.9015
92.233
93.5907
94.9596
96.3216
97.6407
98.8744
99.8721
100.469
36.6307
42.5938
47.2288
52.1097
56.7982
60.9707
64.5299
67.5371
70.0903
72.2695
74.1427
75.7669
77.1866
78.4491
79.5865
80.6384
81.6437
82.6452
83.666
84.7276
85.8428
87.0128
88.2348
89.5019
90.8043
92.1298
93.4656
94.795
96.0781
97.2797
98.2493
98.8299
35.6339
41.3696
45.7681
50.4432
55.0379
59.2254
62.8548
65.9381
68.5576
70.8009
72.735
74.4116
75.8794
77.1685
78.3242
79.3861
80.3996
81.3979
82.4117
83.4637
84.5617
85.711
86.9086
88.1476
89.4189
90.7137
92.0144
93.3055
94.5538
95.7248
96.6639
97.2277
34.3959
39.9188
44.0648
48.5064
52.9855
57.1902
60.9255
64.1535
66.9189
69.2767
71.2921
73.03
74.5368
75.8711
77.0618
78.1494
79.1718
80.1767
81.1862
82.2248
83.3084
84.4388
85.6138
86.8273
88.0704
89.3311
90.5992
91.8592
93.0716
94.21
95.1219
95.6684
33.181
38.4927
42.3777
46.5664
50.9128
55.1359
58.9873
62.3456
65.2159
67.675
69.7892
71.6096
73.1989
74.5801
75.805
76.9143
77.9586
78.9689
79.98
81.0182
82.0898
83.2024
84.3548
85.5407
86.7519
87.9825
89.2145
90.434
91.6093
92.7205
93.5989
94.1296
31.6023
36.7119
40.2998
44.1764
48.3288
52.5385
56.5341
60.1346
63.2752
65.9426
68.1979
70.1282
71.7788
73.2317
74.5151
75.6737
76.7422
77.7739
78.7911
79.8198
80.8817
81.9796
83.1115
84.2735
85.4582
86.6528
87.8517
89.0421
90.1826
91.2572
92.1094
92.6227
29.9945
34.9211
38.2239
41.7782
45.7179
49.9203
54.0882
57.9051
61.2099
64.0536
66.4884
68.5519
70.3434
71.8765
73.2207
74.4167
75.5247
76.5722
77.6009
78.6417
79.6986
80.7814
81.8928
83.0273
84.1777
85.3432
86.5041
87.6503
88.7486
89.8004
90.6153
91.1117
27.7431
32.4953
35.4426
38.5414
42.1076
46.1665
50.4802
54.7197
58.5977
61.8667
64.5677
66.8526
68.7521
70.4043
71.8379
73.117
74.2709
75.3624
76.4125
77.4479
78.4997
79.5735
80.6666
81.778
82.9036
84.0297
85.1566
86.2735
87.3391
88.3487
89.1372
89.6173
25.2781
29.9547
32.6524
35.3755
38.5962
42.5852
47.1379
51.6792
55.7228
59.3222
62.4076
64.9236
67.0849
68.8815
70.4336
71.7778
72.9975
74.1168
75.1897
76.2554
77.3127
78.3739
79.4485
80.5319
81.6185
82.7149
83.8006
84.8682
85.8814
86.8736
87.6179
88.079
21.3325
26.015
28.2693
30.2297
32.6231
35.9354
40.4904
45.9402
51.5621
56.1334
59.7454
62.7817
65.1577
67.1736
68.8555
70.3332
71.6307
72.8298
73.9489
75.0125
76.0688
77.1282
78.186
79.2459
80.3088
81.3614
82.4097
83.4466
84.4288
85.372
86.0888
86.5346
16.2843
21.434
23.9883
25.9045
27.8413
31.2584
35.9098
41.559
46.4735
51.8603
56.551
60
62.9395
65.2456
67.1969
68.8067
70.2192
71.4625
72.6172
73.7396
74.8176
75.8669
76.9082
77.9387
78.9549
79.9727
80.9742
81.9537
82.8691
83.7965
84.4585
84.8836
6.56908
11.4559
12.2465
11.8993
10.1596
8.6024
16.1267
26.4776
39.0786
46.3234
51.8796
56.9128
60.3315
63.1122
65.2414
67.0662
68.6093
69.9969
71.2413
72.3634
73.4432
74.4992
75.5241
76.5278
77.5191
78.4891
79.4468
80.3916
81.2751
82.1499
82.781
83.1864
1.90656
11.7181
15.3288
15.9529
14.0918
14.4412
15.5176
21.8456
18.2581
36.4408
46.7039
51.8209
56.7502
60.1769
63.0033
65.1411
66.9114
68.3718
69.67
70.8993
72.0284
73.0785
74.0887
75.06
75.9912
76.9118
77.8132
78.6848
79.476
80.3323
80.8858
81.2798
11.7669
15.9754
16.9755
16.5976
14.9653
18.0877
21.0082
21.1156
21.5632
20.6068
31.8246
46.5713
52.4443
57.1954
60.26
62.7883
64.7962
66.5369
68.0109
69.2422
70.3738
71.4409
72.4333
73.3684
74.2694
75.139
75.9832
76.8159
77.579
78.374
78.8985
79.2448
19.9253
24.4382
26.3407
27.2053
26.7918
24.931
22.3907
21.7176
25.3797
25.8503
26.043
31.1473
45.5054
51.6475
56.7082
59.9914
62.5088
64.3826
65.9485
67.3793
68.6135
69.6833
70.6608
71.558
72.3726
73.1586
73.9301
74.6501
75.2526
76.0425
76.4311
76.8056
22.2332
27.2074
29.9055
31.8845
33.0282
33.144
31.8905
28.999
25.645
24.0337
28.0913
29.664
34.6098
46.6609
51.9031
56.264
59.2788
61.7721
63.7036
65.1411
66.376
67.4776
68.4353
69.2739
70.0382
70.7727
71.4587
72.1438
72.7644
73.4328
73.8127
74.0749
22.8346
27.9276
30.8516
33.1999
34.9292
36.005
36.3409
35.6872
33.312
28.2416
26.9649
24.2954
10.4251
31.8746
45.6012
51.3483
55.7306
58.4755
60.5931
62.4442
63.8993
65.0199
65.9537
66.7381
67.3635
67.9302
68.5092
68.9712
69.2203
69.9956
70.0879
70.4459
22.2195
27.4365
30.5139
33.0902
35.1269
36.6149
37.5537
37.9269
37.6238
36.1647
32.2166
27.7736
20.1329
32.8035
32.6407
44.7252
49.79
54.1808
57.1481
58.9504
60.374
61.5529
62.4594
63.1426
63.6282
64.1578
64.6132
65.0698
65.5586
65.9336
66.0966
66.3025
20.69
26.0396
29.209
31.9205
34.1482
35.8926
37.1779
38.044
38.5311
38.6035
37.8367
34.9114
25.9733
25.6024
17.5762
30.8415
43.6245
48.1932
51.5305
54.4066
56.3907
57.6077
58.4503
59.006
59.2505
59.3694
59.5802
59.4867
58.9224
59.932
59.342
59.6432
18.7296
24.1622
27.353
30.1086
32.4222
34.3091
35.8002
36.9544
37.8515
38.5557
39.0073
38.702
35.8343
29.1079
21.4764
27.5857
28.3241
40.5963
46.448
48.1327
49.6621
51.0436
51.7103
52.1982
51.7045
51.9297
52.4618
52.2224
53.1324
52.1588
52.1062
53.4979
16.5061
21.9185
25.0338
27.7329
30.0364
31.9831
33.6173
34.9984
36.2115
37.3408
38.4094
39.2491
39.2045
36.1412
29.4383
31.5415
26.7865
25.0232
31.7068
39.2249
42.8323
43.9716
44.703
44.5674
44.0044
42.8669
41.2624
40.1214
38.4673
40.2449
37.8498
36.3283
14.2816
19.5348
22.4717
25.0144
27.2157
29.1361
30.835
32.3761
33.8362
35.2962
36.7911
38.2346
39.2876
39.0382
35.2684
34.3134
27.2413
25.8036
29.6208
26.4656
24.5481
29.6067
24.1233
26.657
13.839
15.5578
28.9452
16.5648
22.0774
14.0265
14.4626
32.8402
12.338
17.3141
20.0001
22.3178
24.3522
26.1815
27.8745
29.4956
31.1101
32.7854
34.5704
36.4295
38.1667
39.2926
38.7486
34.12
26.844
24.2351
33.0185
23.3875
16.4809
35.5062
20.4057
31.0466
10.3405
33.0339
35.258
16.9776
33.0681
18.6985
25.8375
40.058
10.8518
15.4878
17.9092
19.9862
21.8322
23.5377
25.1749
26.8026
28.4719
30.2318
32.1333
34.1946
36.3404
38.2953
39.4784
38.6808
35.0476
26.8522
26.2503
32.082
20.8542
33.1525
13.1088
33.8883
24.7249
29.6661
38.6867
33.7273
29.5801
35.3426
31.6743
31.872
9.76116
14.1608
16.3594
18.2349
19.9219
21.5141
23.0776
24.6586
26.2935
28.0182
29.8772
31.9177
34.1559
36.4845
38.5477
39.69
39.2327
36.7997
30.7939
34.6276
28.5669
26.1281
28.9194
30.1763
37.2561
37.3566
35.2974
39.3906
35.2055
39.2884
39.573
36.9188
9.17713
13.393
15.4348
17.1785
18.7666
20.2841
21.7819
23.2898
24.8311
26.4339
28.1387
30.0018
32.0816
34.3901
36.7843
38.845
39.9508
39.8171
37.444
36.0484
36.7398
37.1911
39.3568
38.5525
43.2243
42.9378
41.7721
43.7018
40.6694
42.4924
42.9312
42.4286
8.99598
13.1253
15.0957
16.7883
18.3439
19.8327
21.2872
22.7226
24.1528
25.6013
27.1056
28.7186
30.5066
32.5337
34.8039
37.1422
39.0839
40.1661
39.8701
39.5617
40.0847
40.8081
41.9152
41.4034
43.9743
43.6384
43.1166
43.8942
41.8556
42.7705
43.2803
43.3171
9.14906
13.2662
15.235
16.9422
18.5181
20.0161
21.4528
22.8338
24.1687
25.4781
26.7943
28.1615
29.637
31.2909
33.1867
35.3155
37.466
39.2434
40.1299
40.6295
41.0064
41.6417
42.3042
41.9639
43.4326
43.1748
42.803
42.9614
41.5933
42.175
42.5316
42.669
9.54667
13.7023
15.7164
17.4835
19.1163
20.6523
22.0973
23.451
24.721
25.9267
27.0969
28.2671
29.4809
30.7943
32.2751
33.9781
35.8679
37.75
39.2261
40.2922
40.8575
41.4197
41.8099
41.5307
42.1678
41.8852
41.5255
41.3493
40.3842
40.8578
40.9843
41.1895
10.1372
14.3609
16.4446
18.2931
20.0004
21.59
23.06
24.4085
25.6439
26.7863
27.8616
28.8977
29.9253
30.9831
32.1232
33.4047
34.8618
36.4487
37.9489
39.2133
39.9664
40.5094
40.7372
40.4432
40.5673
40.2223
39.8527
39.5678
38.9367
39.3289
39.3554
39.6563
10.8708
15.1901
17.3567
19.2953
21.0817
22.7286
24.2308
25.5874
26.8108
27.9228
28.9478
29.908
30.8227
31.7153
32.619
33.5788
34.6393
35.8158
37.0269
38.1526
38.9208
39.4105
39.5344
39.234
39.074
38.6906
38.3474
38.1043
37.7662
38.1084
38.15
38.543
11.6668
16.146
18.4048
20.4356
22.2997
24.0029
25.5392
26.9121
28.1388
29.2442
30.2517
31.1793
32.0385
32.8407
33.6035
34.3541
35.1272
35.951
36.8076
37.6367
38.2515
38.6167
38.647
38.3418
38.0439
37.6558
37.3651
37.2234
37.1299
37.4636
37.5922
38.0458
12.5998
17.1995
19.5512
21.673
23.6115
25.3681
26.939
28.3332
29.5737
30.6884
31.7002
32.6238
33.4653
34.2288
34.9213
35.5552
36.1509
36.7299
37.2964
37.8269
38.2173
38.4101
38.3346
38.0078
37.6428
37.2672
37.0346
36.999
37.0958
37.4543
37.6931
38.173
13.4003
13.8008
14.275
14.66
15.0387
15.3442
15.6136
15.8251
15.9974
16.1218
16.2091
16.2571
16.2702
16.2486
16.1969
16.1171
16.0112
15.8839
15.7454
15.6231
15.6061
15.7119
15.8409
15.9609
16.0603
16.134
16.1798
16.1958
16.1775
16.1244
16.0325
15.904
15.728
15.5137
15.2424
14.9358
14.5573
14.1741
13.7029
13.3074
18.128
18.5436
19.0372
19.4397
19.8359
20.1618
20.4534
20.6893
20.8873
21.0392
21.1545
21.2314
21.2731
21.2786
21.2505
21.19
21.0981
20.978
20.839
20.7103
20.6912
20.8014
20.93
21.0421
21.127
21.1808
21.2027
21.1913
21.1441
21.0619
20.9419
20.7858
20.5844
20.3458
20.0524
19.7256
19.3297
18.9291
18.4385
18.0279
20.5612
21.0024
21.5262
21.9544
22.3787
22.7345
23.0599
23.3326
23.5704
23.7652
23.9251
24.0482
24.137
24.1889
24.2043
24.1835
24.1265
24.035
23.9174
23.8014
23.7826
23.8793
23.9858
24.0685
24.1177
24.1312
24.1089
24.0505
23.9558
23.827
23.6621
23.4629
23.2214
22.9458
22.6184
22.2617
21.8377
21.4114
20.8905
20.4545
22.7491
23.2108
23.7583
24.2065
24.6552
25.0378
25.3947
25.7026
25.9791
26.2163
26.4205
26.5894
26.7249
26.8236
26.8838
26.9044
26.8846
26.8255
26.735
26.6409
26.624
26.698
26.7763
26.8258
26.8372
26.8086
26.7408
26.6351
26.4931
26.3179
26.1083
25.8663
25.5858
25.2748
24.9158
24.532
24.0835
23.637
23.0923
22.6358
24.7333
25.2011
25.7576
26.213
26.6737
27.0715
27.4482
27.7803
28.0845
28.3538
28.5937
28.8004
28.9745
29.1119
29.2098
29.2657
29.2783
29.2481
29.1835
29.1118
29.0968
29.1483
29.1997
29.2196
29.198
29.1335
29.0276
28.8826
28.7015
28.4883
28.2426
27.968
27.6595
27.324
26.945
26.5458
26.0851
25.6312
25.0774
24.6146
26.5152
26.9732
27.5249
27.9756
28.4371
28.8402
29.2274
29.5759
29.9024
30.1984
30.4681
30.707
30.914
31.0846
31.2148
31.3014
31.3418
31.3366
31.2943
31.2406
31.2272
31.2607
31.2893
31.2836
31.2337
31.1383
30.9996
30.8213
30.6069
30.3612
30.0854
29.7838
29.453
29.1005
28.7107
28.3062
27.8448
27.3954
26.8464
26.3932
28.0963
28.5332
29.0724
29.5127
29.9702
30.3757
30.7726
31.1375
31.4847
31.8056
32.1027
32.3708
32.6077
32.8079
32.9669
33.0801
33.1446
33.1605
33.1361
33.0953
33.0828
33.1038
33.1142
33.0871
33.0128
32.8905
32.7229
32.5147
32.2704
31.9954
31.6919
31.3655
31.0134
30.6447
30.245
29.8381
29.3805
28.9415
28.4049
27.973
29.4926
29.9041
30.4301
30.8609
31.3166
31.7286
32.1374
32.5195
32.8873
33.2319
33.5546
33.8495
34.1132
34.3398
34.5238
34.6601
34.745
34.778
34.7669
34.7348
34.7227
34.7353
34.7323
34.688
34.5932
34.4478
34.2551
34.0204
33.7492
33.4474
33.1183
32.7682
32.3955
32.0093
31.598
31.1843
30.7283
30.2988
29.7757
29.3694
30.7329
31.12
31.6363
32.0623
32.5213
32.9425
33.3641
33.7634
34.1508
34.5172
34.8626
35.1811
35.4683
35.7176
35.9228
36.0783
36.1795
36.2259
36.2241
36.1973
36.1853
36.1929
36.1805
36.123
36.0117
35.8472
35.6332
35.3758
35.0812
34.7558
34.4039
34.032
33.64
33.2367
32.8123
32.3896
31.9305
31.5056
30.9925
30.6109
31.8474
32.2131
32.7234
33.1493
33.613
34.044
34.4779
34.893
35.2974
35.6828
36.0479
36.3864
36.693
36.9611
37.1837
37.3543
37.4684
37.5244
37.5291
37.5049
37.4929
37.4979
37.4793
37.412
37.2882
37.1083
36.8772
36.6011
36.2869
35.9415
35.5701
35.1793
34.7702
34.3513
33.9148
33.4822
33.0187
32.5942
32.0874
31.7277
32.8586
33.2041
33.7106
34.1369
34.6052
35.0451
35.4901
35.9185
36.3376
36.7387
37.1201
37.4749
37.7974
38.0803
38.3164
38.499
38.6226
38.6856
38.6946
38.6717
38.6597
38.6634
38.6407
38.5665
38.4331
38.2415
37.9968
37.7059
37.376
37.0144
36.6269
36.2203
35.7967
35.3646
34.9172
34.4759
34.0079
33.5832
33.0804
32.7412
33.7777
34.1019
34.6039
35.0299
35.502
35.9495
36.4037
36.8435
37.2748
37.689
38.0835
38.4514
38.7864
39.081
39.3276
39.5192
39.6503
39.7188
39.7313
39.7098
39.6979
39.7003
39.6741
39.5945
39.4537
39.2532
38.9981
38.6956
38.3532
37.9786
37.578
37.1585
36.7228
36.2794
35.823
35.3743
34.9027
34.4785
33.9807
33.6632
34.6074
34.9074
35.4028
35.8275
36.3026
36.7565
37.2188
37.6682
38.1099
38.5348
38.9401
39.3184
39.6634
39.9672
40.222
40.4207
40.5578
40.6316
40.6482
40.6297
40.6179
40.6175
40.5873
40.5026
40.3558
40.148
39.8849
39.5734
39.2212
38.8361
38.4249
37.9947
37.5489
37.0959
36.6316
36.1766
35.7023
35.2798
34.7891
34.4964
35.3473
35.6184
36.1044
36.5267
37.0039
37.4639
37.9335
38.3917
38.8424
39.2766
39.6909
40.0778
40.4305
40.7415
41.0028
41.2073
41.35
41.4292
41.4514
41.4377
41.4264
41.4214
41.3856
41.2954
41.1431
40.9296
40.66
40.3413
39.9814
39.588
39.1679
38.7285
38.2737
37.8121
37.3408
36.88
36.4038
35.9841
35.5034
35.2403
35.998
36.2324
36.7051
37.1235
37.6024
38.0682
38.545
39.0118
39.471
39.9137
40.3358
40.7299
41.0893
41.4061
41.6727
41.8825
42.0304
42.1157
42.1448
42.1376
42.1269
42.1159
42.0731
41.9767
41.8191
41.6004
41.3256
41.0011
40.6347
40.234
39.8062
39.3585
38.8953
38.4255
37.9471
37.4807
37.0033
36.5881
36.1218
35.8962
36.5608
36.7456
37.2001
37.6128
38.0929
38.5648
39.0492
39.5248
39.9925
40.4435
40.8731
41.2739
41.639
41.9608
42.2322
42.4468
42.6001
42.6919
42.7289
42.7287
42.7186
42.7011
42.6505
42.5475
42.3844
42.161
41.8814
41.5519
41.1798
40.7727
40.3375
39.8817
39.41
38.9316
38.4457
37.9739
37.4959
37.0873
36.6408
36.466
37.0433
37.1573
37.5834
37.9879
38.468
38.9463
39.439
39.924
40.4009
40.8605
41.2976
41.7048
42.0756
42.4023
42.6782
42.8975
43.0562
43.1547
43.1995
43.206
43.1964
43.1729
43.1145
43.0048
42.8363
42.6083
42.3242
41.9899
41.6123
41.1987
40.7561
40.2918
39.8111
39.3235
38.8299
38.3522
37.8753
37.4765
37.0605
36.9578
37.4558
37.4682
37.8485
38.2401
38.7183
39.2031
39.7045
40.2
40.6868
41.1556
41.6007
42.0149
42.3914
42.7231
43.0036
43.2276
43.3917
43.4967
43.5487
43.561
43.5519
43.5232
43.4578
43.3417
43.1677
42.9351
42.6465
42.3073
41.9241
41.5037
41.0531
40.5797
40.0894
39.5917
39.0898
38.6065
38.1331
37.7492
37.3812
37.3812
37.8055
37.6794
37.9891
38.3573
38.8322
39.3231
39.834
40.3406
40.8384
41.3173
41.7713
42.1929
42.5757
42.9128
43.1982
43.427
43.5964
43.7074
43.7658
43.783
43.7743
43.7414
43.6698
43.5478
43.3687
43.1313
42.838
42.4937
42.1042
41.6765
41.2173
40.7339
40.2328
39.7243
39.2138
38.7257
38.2575
37.8993
37.6039
37.7415
38.0842
37.7898
38.0035
38.3331
38.7983
39.2957
39.8161
40.3346
40.844
41.3339
41.7974
42.2273
42.617
42.96
43.2506
43.4843
43.6589
43.7753
43.8392
43.8604
43.8521
43.8158
43.7391
43.6119
43.4279
43.1858
42.8875
42.5375
42.1413
41.7055
41.2368
40.7428
40.2305
39.7109
39.1919
38.6993
38.243
37.9253
37.7274
38.0323
38.2527
37.7864
37.8902
38.1681
38.6151
39.1162
39.6457
40.1758
40.6968
41.1979
41.6713
42.1098
42.5067
42.8558
43.1518
43.3904
43.5698
43.6911
43.7594
43.7837
43.7758
43.7369
43.6562
43.5246
43.3362
43.0895
42.7862
42.4303
42.0272
41.5831
41.105
40.6002
40.077
39.5467
39.0206
38.5258
38.0889
37.8231
37.7336
38.2055
38.2463
37.6408
37.6441
37.8673
38.2901
38.7902
39.329
39.8695
40.4013
40.9124
41.395
41.8414
42.2451
42.6
42.9007
43.1437
43.3271
43.4522
43.5238
43.5504
43.5428
43.5022
43.4188
43.284
43.092
42.8415
42.5338
42.1727
41.7633
41.3117
40.8247
40.3104
39.7771
39.2373
38.7031
38.2108
37.7993
37.5897
37.603
38.2202
38.0573
37.3502
37.2759
37.4522
37.8512
38.3462
38.8905
39.4397
39.9797
40.4985
40.9878
41.4401
41.8486
42.2074
42.5116
42.7573
42.9431
43.0702
43.1436
43.1713
43.1641
43.123
43.0385
42.9023
42.7087
42.4562
42.146
41.7814
41.3678
40.9111
40.4181
39.8972
39.3569
38.8108
38.2725
37.7858
37.3982
37.2345
37.3215
38.0348
37.6732
36.928
36.8199
36.9691
37.351
37.8387
38.3833
38.9372
39.4807
40.0027
40.4943
40.9482
41.358
41.7175
42.0218
42.2675
42.4529
42.5795
42.6522
42.6798
42.6728
42.6325
42.5493
42.4146
42.2224
41.9708
41.6612
41.2968
40.8828
40.4251
39.9306
39.4074
38.8648
38.3156
37.7787
37.3013
36.9331
36.7994
36.9222
37.6754
37.1492
36.4353
36.3419
36.4898
36.8658
37.3472
37.8874
38.4388
38.979
39.4972
39.985
40.435
40.8404
41.1957
41.4957
41.7372
41.9184
42.0409
42.11
42.1353
42.1285
42.091
42.0125
41.883
41.6962
41.45
41.1456
40.7864
40.3772
39.9241
39.4341
38.9151
38.3769
37.832
37.3023
36.8364
36.4832
36.3676
36.5065
37.2798
36.7227
36.0405
35.9659
36.1174
36.4887
36.9607
37.4903
38.0312
38.5612
39.0693
39.5471
39.9871
40.3829
40.7288
41.0198
41.2525
41.4253
41.5396
41.6016
41.6223
41.6155
41.5833
41.5134
41.3937
41.217
40.9811
40.6873
40.3388
39.9407
39.4986
39.0199
38.5125
37.9863
37.4543
36.9383
36.486
36.1442
36.0345
36.1673
36.9256
36.5359
35.8871
35.8261
35.9726
36.3296
36.7815
37.2891
37.8081
38.3187
38.8087
39.2695
39.6934
40.0739
40.4053
40.6827
40.9024
41.0628
41.1652
41.2162
41.2293
41.2226
41.1992
41.1424
41.0372
40.8754
40.6548
40.3767
40.0445
39.6632
39.2387
38.778
38.2894
37.7828
37.2721
36.7767
36.342
36.0115
35.903
36.0199
36.7442
36.6886
36.0371
35.966
36.093
36.4253
36.849
37.327
37.8168
38.302
38.7689
39.2082
39.6122
39.974
40.2878
40.5487
40.753
40.8987
40.9868
41.0241
41.0268
41.0201
41.0084
40.968
40.8801
40.7359
40.5335
40.2747
39.9627
39.6028
39.2009
38.7638
38.3003
37.8202
37.3384
36.8705
36.459
36.1415
36.0319
36.123
36.7946
37.0295
36.4086
36.3445
36.4573
36.7653
37.1577
37.6022
38.0602
38.5165
38.9569
39.3718
39.7529
40.0933
40.3874
40.6303
40.8179
40.9479
41.0209
41.0434
41.0339
41.0277
41.031
41.0095
40.9404
40.8154
40.6331
40.3955
40.1065
39.7707
39.3942
38.9838
38.5478
38.096
37.643
37.2037
36.8142
36.5055
36.3857
36.4339
37.0273
37.4815
36.8602
36.7965
36.9038
37.2
37.575
37.9984
38.4361
38.8723
39.293
39.6886
40.0509
40.3734
40.6504
40.8771
41.0496
41.1656
41.225
41.2334
41.2108
41.2023
41.2175
41.2098
41.1543
41.0431
40.8755
40.6537
40.3814
40.0636
39.7057
39.3146
38.8981
38.4662
38.0327
37.6131
37.2386
36.9372
36.8147
36.8489
37.4179
37.687
37.1857
37.198
37.348
37.6635
38.0414
38.4575
38.8828
39.3037
39.7076
40.0856
40.4304
40.736
40.9969
41.2085
41.3673
41.4706
41.5182
41.5154
41.4827
41.4742
41.5002
41.5039
41.4596
41.3604
41.206
40.9986
40.7421
40.4409
40.1006
39.7273
39.3288
38.9141
38.496
38.0883
37.72
37.4125
37.2683
37.2559
37.7562
38.1749
37.6761
37.6876
37.8233
38.1205
38.4757
38.8703
39.2745
39.6755
40.0604
40.4206
40.7486
41.0385
41.2848
41.4829
41.6293
41.7213
41.7584
41.7453
41.7023
41.6875
41.7136
41.7186
41.676
41.5794
41.4283
41.2254
40.9743
40.6798
40.3477
39.9841
39.5972
39.1965
38.7956
38.4093
38.0689
37.7924
37.6818
37.7009
38.2309
43.5636
51.3853
57.617
63.745
69.0338
73.3224
76.758
79.5343
81.8071
83.7113
85.3666
86.8488
88.1954
89.4402
90.6144
91.7486
92.8729
94.0158
95.2008
96.4451
97.7582
99.1425
100.595
102.108
103.673
105.275
106.9
108.523
110.107
111.582
112.797
113.513
42.8461
50.3844
56.4174
62.4057
67.6216
71.8758
75.2937
78.0626
80.3359
82.2468
83.9105
85.3963
86.7348
87.9662
89.1224
90.2349
91.3355
92.4533
93.6127
94.8297
96.114
97.468
98.8886
100.369
101.899
103.465
105.052
106.638
108.184
109.623
110.807
111.504
42.0655
49.3556
55.2014
61.0498
66.192
70.4142
73.8202
76.5892
78.872
80.7981
82.4755
83.9664
85.3003
86.5199
87.6595
88.7528
89.8317
90.9261
92.0594
93.2494
94.5057
95.8302
97.2195
98.6672
100.162
101.693
103.243
104.791
106.3
107.703
108.857
109.535
41.2546
48.3087
53.9667
59.6712
64.7387
68.9324
72.3323
75.1092
77.4121
79.3638
81.0607
82.5603
83.8963
85.108
86.235
87.3104
88.3688
89.4403
90.5505
91.7153
92.9443
94.2399
95.599
97.0142
98.4756
99.9706
101.484
102.995
104.466
105.835
106.959
107.617
40.3929
47.2264
52.697
58.2555
63.2511
67.4262
70.8342
73.6337
75.9668
77.9482
79.6675
81.1804
82.5213
83.7288
84.8449
85.9063
86.9475
87.9996
89.0865
90.2268
91.4302
92.6984
94.0282
95.4124
96.8406
98.3016
99.7793
101.254
102.689
104.023
105.118
105.757
39.5329
46.1426
51.4164
56.8197
61.7408
65.9002
69.3202
72.1453
74.5137
76.5333
78.2827
79.8134
81.1662
82.3794
83.4913
84.5412
85.5666
86.5998
87.6677
88.7863
89.9651
91.207
92.5085
93.8623
95.2588
96.6856
98.128
99.5661
100.965
102.266
103.331
103.952
38.598
44.9955
50.0687
55.3116
60.1607
64.3188
67.774
70.6488
73.0686
75.1302
76.9108
78.4658
79.8339
81.0545
82.1657
83.21
84.225
85.2446
86.293
87.3903
88.5466
89.7636
91.0382
92.363
93.7281
95.1223
96.5311
97.9344
99.299
100.565
101.603
102.206
37.6837
43.8593
48.7186
53.7872
58.5581
62.7164
66.2075
69.1273
71.5953
73.7075
75.5318
77.117
78.5094
79.7482
80.8712
81.9137
82.921
83.9273
84.9622
86.0424
87.1774
88.3708
89.6193
90.9158
92.2505
93.612
94.9863
96.3543
97.6832
98.9184
99.9273
100.511
36.6486
42.6111
47.2459
52.1263
56.8142
60.9864
64.5456
67.5526
70.1041
72.2798
74.1501
75.776
77.1979
78.4572
79.5903
80.6424
81.649
82.6509
83.6717
84.7345
85.8508
87.0224
88.2462
89.5151
90.8203
92.1505
93.4916
94.8258
96.1225
97.3244
98.3075
98.8717
35.638
41.374
45.7725
50.4474
55.0417
59.2281
62.8558
65.9377
68.5575
70.8037
72.7402
74.4136
75.8773
77.169
78.3294
79.3915
80.404
81.4024
82.4172
83.4695
84.5685
85.7193
86.9191
88.1614
89.4367
90.7342
92.0416
93.3404
94.6004
95.7729
96.726
97.2714
34.4169
39.9394
44.0852
48.5257
53.0034
57.2072
60.9429
64.1713
66.9352
69.2885
71.2996
73.04
74.5508
75.8819
77.0662
78.1525
79.1755
80.1807
81.1899
82.2299
83.3148
84.4469
85.624
86.8393
88.0851
89.352
90.6259
91.891
93.1206
94.2588
95.1879
95.7124
33.1905
38.5032
42.3889
46.5783
50.9248
55.1461
58.9933
62.347
65.2152
67.6761
69.7925
71.6084
73.1926
74.5755
75.806
76.9162
77.9607
78.971
79.9834
81.0215
82.0941
83.2088
84.3636
85.5535
86.7693
88.0025
89.242
90.4717
91.6624
92.7729
93.6705
94.1756
31.6329
36.7419
40.3294
44.2039
48.3532
52.5614
56.5583
60.1612
63.3014
65.9646
68.216
70.1487
71.799
73.2468
74.5228
75.6785
76.7443
77.7755
78.7916
79.8221
80.8858
81.9852
83.1199
84.2837
85.4707
86.6735
87.8796
89.0747
90.2378
91.3121
92.1864
92.6691
30.015
34.9435
38.2485
41.8053
45.7466
49.945
54.1021
57.9067
61.204
64.0457
66.4761
68.5317
70.3259
71.8646
73.213
74.4096
75.5215
76.5703
77.6009
78.6414
79.6991
80.7853
81.8992
83.0386
84.1945
85.3621
86.5307
87.6906
88.8102
89.8587
90.6998
91.1603
27.8072
32.5563
35.5029
38.5983
42.1571
46.2149
50.5328
54.7787
58.6534
61.9141
64.6189
66.9096
68.7914
70.4259
71.8519
73.1282
74.273
75.3604
76.408
77.4458
78.5005
79.5752
80.6726
81.786
82.9132
84.05
85.1862
86.3076
87.4035
88.4122
89.2295
89.6657
25.3246
30.0086
32.709
35.4371
38.6646
42.633
47.163
51.6649
55.6988
59.3017
62.36
64.856
67.0409
68.8604
70.4137
71.7534
72.9828
74.1078
75.185
76.25
77.3077
78.3748
79.4513
80.5406
81.6339
82.7318
83.8245
84.9107
85.9546
86.9397
87.722
88.1306
21.5627
26.1778
28.4267
30.3886
32.7774
36.1576
40.6506
46.1527
51.716
56.2243
59.8679
62.9148
65.2348
67.2007
68.8737
70.3553
71.6355
72.8229
73.9354
75.003
76.0645
77.1234
78.1887
79.2513
80.3146
81.3808
82.442
83.4827
84.5078
85.4472
86.2035
86.5854
16.5675
21.9995
24.4383
26.2632
28.0699
31.1708
36.5001
41.4325
46.3721
51.8581
56.4312
59.853
62.8634
65.2243
67.1704
68.7566
70.1832
71.4412
72.6065
73.727
74.8039
75.8641
76.9056
77.9427
78.9668
79.9866
80.9928
81.9979
82.9597
83.8752
84.5918
84.9372
6.88091
11.5163
11.0642
10.9537
11.5127
12.3962
15.0187
25.9165
39.4638
46.4226
52.248
57.2002
60.4504
63.1252
65.2429
67.0967
68.6175
69.9812
71.2104
72.3403
73.4304
74.4842
75.5225
76.5305
77.5195
78.5065
79.4815
80.4295
81.3752
82.2374
82.9314
83.2399
5.92223
9.15773
7.86761
9.48124
14.9798
15.5186
21.8728
24.5411
22.2532
37.3406
46.0678
51.5385
56.6896
60.1954
62.999
65.0587
66.8401
68.3284
69.6507
70.8768
72.0005
73.0697
74.0779
75.0555
75.9966
76.9216
77.8231
78.7311
79.5994
80.4334
81.0682
81.3324
11.2738
16.1206
17.7505
16.5407
13.1832
13.515
20.9781
20.4982
2.11594
15.0549
35.6361
47.2614
52.6026
57.153
60.1807
62.8096
64.8
66.5021
67.947
69.1919
70.3462
71.4109
72.4247
73.3675
74.2595
75.1512
76.0169
76.8514
77.7063
78.472
79.1054
79.3057
19.4035
23.754
25.4883
26.3367
25.8823
23.6996
20.3663
14.3812
12.3475
12.4518
17.4509
32.7564
45.5357
51.7155
56.7814
59.8599
62.376
64.2958
65.9092
67.3411
68.5588
69.6621
70.6387
71.5393
72.3678
73.1638
73.9256
74.702
75.4484
76.1866
76.7117
76.8469
22.0362
27.0341
29.7516
31.7585
32.9572
33.1885
32.2115
29.7092
25.0693
21.3967
14.9734
13.5275
34.8054
46.5274
51.5657
56.2271
59.2459
61.6867
63.5773
65.034
66.3179
67.4261
68.4125
69.262
70.0046
70.771
71.4801
72.1613
72.9285
73.537
74.1144
74.1526
22.8126
27.9168
30.854
33.2263
35
36.1572
36.6388
36.2281
34.2994
29.4506
25.1737
18.9229
10.3779
33.4879
45.9816
51.1274
55.477
58.2903
60.4895
62.3747
63.788
64.973
65.9189
66.6961
67.3425
67.9347
68.4766
69.0448
69.5837
70.2243
70.6038
70.4508
22.1635
27.3894
30.4743
33.0654
35.1291
36.6644
37.6834
38.192
38.1207
37.0632
33.6836
28.9515
16.8305
3.89823
31.2654
44.2035
49.558
53.9246
56.881
58.7059
60.2332
61.4737
62.4074
63.0809
63.5483
64.1162
64.5899
65.0244
65.8057
66.0855
66.5816
66.3947
20.632
25.9806
29.1439
31.8508
34.0799
35.8341
37.1399
38.0407
38.5832
38.7578
38.25
35.669
30.3733
19.7308
9.75423
31.6057
43.1437
47.7304
51.1698
54.2801
56.1593
57.5104
58.4146
58.9202
59.1881
59.4048
59.4863
59.7121
59.6938
60.4114
60.5755
59.5119
18.6395
24.0675
27.2466
29.9888
32.2888
34.1622
35.6385
36.7743
37.6421
38.2875
38.595
37.9458
34.5616
32.952
24.8315
14.2534
28.7458
39.4522
45.5644
47.5218
49.1832
50.9747
51.6185
51.775
51.6561
51.7487
52.3506
52.259
53.7554
53.7488
52.9412
53.1454
16.4387
21.8356
24.9355
27.6184
29.9043
31.8295
33.4364
34.7818
35.9436
36.9909
37.9075
38.4152
37.6032
34.1998
29.0483
21.6657
33.8542
26.5719
30.8389
39.1602
42.5428
44.3217
44.7331
44.405
44.0627
43.1257
41.171
42.0679
39.1047
41.5151
41.9274
36.378
14.236
19.4718
22.395
24.9246
27.1119
29.0156
30.6929
32.2055
33.6274
35.0297
36.4207
37.6702
38.3706
37.4325
34.1384
26.5331
27.7428
33.9815
24.097
23.0881
22.2473
27.1656
26.3296
21.0015
20.7837
14.3359
32.2484
44.9514
31.3508
44.3884
24.3183
25.0138
12.3115
17.2726
19.949
22.2583
24.2841
26.1033
27.7834
29.387
30.9778
32.6217
34.3515
36.1083
37.668
38.5717
38.2744
35.1519
28.3919
24.7287
25.0411
29.092
17.9371
27.0283
9.56492
29.6974
16.2143
12.5619
34.9648
36.2654
31.9294
45.456
24.6919
34.8354
10.8397
15.4617
17.8769
19.9496
21.7916
23.4927
25.1241
26.7434
28.3999
30.1417
32.0106
34.014
36.0593
37.8685
39.042
38.9294
36.3615
29.8709
24.213
32.7665
23.7566
33.6463
21.552
3.6212
33.8545
28.1728
38.8076
30.042
32.4647
38.3159
39.5222
30.6916
9.75717
14.1466
16.3419
18.2159
19.902
21.4933
23.0549
24.6321
26.2601
27.9729
29.8108
31.8144
33.9881
36.2188
38.2107
39.4824
39.5559
38.0534
33.1551
27.6024
33.4033
29.3876
29.3762
32.8794
31.1738
38.1347
33.5404
39.764
37.6388
35.0154
36.9129
39.0882
9.18214
13.3911
15.4316
17.1755
18.7646
20.2832
21.781
23.2871
24.8236
26.4168
28.1058
29.9431
31.9789
34.2174
36.5376
38.6077
39.9833
40.3684
39.0007
36.8405
35.0434
34.0912
38.1995
41.2029
38.7307
43.5704
40.8277
44.278
42.0363
41.9666
38.5134
43.2218
9.01157
13.1372
15.1081
16.8026
18.3606
19.8514
21.3067
22.7408
24.167
25.6085
27.1018
28.6973
30.4569
32.4393
34.6548
36.9755
39.0814
40.5275
40.7687
40.301
38.959
38.8647
41.3364
43.0196
41.4925
44.0598
42.6708
44.2245
42.6105
43.3703
40.5106
43.9235
9.17742
13.294
15.2649
16.9753
18.5546
20.055
21.4925
22.8722
24.2037
25.5074
26.8157
28.1716
29.6302
31.259
33.1244
35.2396
37.4782
39.4891
40.7336
41.1719
40.5666
40.5371
42.0149
42.9996
42.058
43.2863
42.3832
43.1255
41.9734
42.8818