/*--------------------------------*- C++ -*----------------------------------*\
  =========                 |
  \\      /  F ield         | OpenFOAM: The Open Source CFD Toolbox
   \\    /   O peration     | Website:  https://openfoam.org
    \\  /    A nd           | Version:  6
     \\/     M anipulation  |
\*---------------------------------------------------------------------------*/
FoamFile
{
    version     2.0;
    format      ascii;
    class       volVectorField;
    location    "38";
    object      wallShearStress;
}
// * * * * * * * * * * * * * * * * * * * * * * * * * * * * * * * * * * * * * //

dimensions      [0 2 -2 0 0 0 0];

internalField   uniform (0 0 0);

boundaryField
{
    inlet
    {
        type            calculated;
        value           uniform (0 0 0);
    }
    outlet
    {
        type            calculated;
        value           uniform (0 0 0);
    }
    roughCylinder
    {
        type            calculated;
        value           nonuniform List<vector> 
3840
(
(-0.000270396 -0.000396653 -0.000163071)
(-0.000326801 -0.000510049 -2.21878e-05)
(-0.000375979 -0.000631488 4.17344e-05)
(-0.000451039 -0.000734897 0.000123639)
(-0.000539053 -0.000808893 0.000206065)
(-0.000630337 -0.000849241 0.000278188)
(-0.000715226 -0.000859991 0.000334885)
(-0.000788969 -0.000852482 0.000374719)
(-0.000852037 -0.000846074 0.000401988)
(-0.000900638 -0.000844689 0.000416294)
(-0.000939342 -0.000852358 0.000419641)
(-0.000971521 -0.000867519 0.000414187)
(-0.00100025 -0.000888565 0.000402484)
(-0.00102844 -0.000914008 0.000386596)
(-0.00105812 -0.000942904 0.000367955)
(-0.00109042 -0.000974742 0.000347214)
(-0.00112567 -0.00100921 0.000324462)
(-0.00116369 -0.00104596 0.00029937)
(-0.00120398 -0.00108449 0.000271397)
(-0.00124565 -0.00112392 0.000239576)
(-0.00128775 -0.00116319 0.00020264)
(-0.00132796 -0.00119999 0.000158259)
(-0.00136292 -0.00123163 0.000102804)
(-0.00138492 -0.00125165 3.5783e-05)
(-0.000289941 -0.000384351 -0.000155703)
(-0.00034973 -0.000494634 -2.60883e-05)
(-0.000401512 -0.000615641 3.32321e-05)
(-0.000478898 -0.000720258 0.000111633)
(-0.000568833 -0.000796837 0.000192085)
(-0.000662076 -0.000840142 0.000263129)
(-0.000749971 -0.000855 0.000319799)
(-0.000828649 -0.000853624 0.000361667)
(-0.000896655 -0.000850419 0.000391473)
(-0.000949242 -0.000847814 0.000407291)
(-0.000989919 -0.000854146 0.000411286)
(-0.00102404 -0.000868651 0.000406151)
(-0.00105466 -0.000889489 0.000394677)
(-0.00108476 -0.00091495 0.000379013)
(-0.00111644 -0.000943965 0.00036066)
(-0.00115084 -0.000975931 0.000340298)
(-0.00118828 -0.00101049 0.000318025)
(-0.00122855 -0.00104728 0.000293506)
(-0.00127113 -0.0010858 0.000266199)
(-0.00131506 -0.00112515 0.000235107)
(-0.00135937 -0.00116429 0.000198986)
(-0.00140158 -0.00120091 0.000155492)
(-0.00143827 -0.00123237 0.000101039)
(-0.00146132 -0.00125224 3.51789e-05)
(-0.00030952 -0.000366606 -0.000142754)
(-0.000371989 -0.00047353 -3.05669e-05)
(-0.000426163 -0.000592993 2.39284e-05)
(-0.000505395 -0.000698116 9.84213e-05)
(-0.000597134 -0.000777134 0.000176602)
(-0.000692716 -0.000824155 0.000246701)
(-0.000784326 -0.000844269 0.000304008)
(-0.000867904 -0.000848832 0.000347991)
(-0.000940456 -0.000848541 0.000379674)
(-0.000997736 -0.000845961 0.000397172)
(-0.00104052 -0.000850606 0.000401806)
(-0.00107667 -0.000864255 0.000397008)
(-0.00110929 -0.000884666 0.000385835)
(-0.00114141 -0.000909943 0.000370479)
(-0.00117516 -0.000938859 0.000352489)
(-0.0012117 -0.00097073 0.000332583)
(-0.00125136 -0.00100516 0.000310873)
(-0.0012939 -0.00104173 0.000287009)
(-0.00133876 -0.00107997 0.000260448)
(-0.00138494 -0.00111897 0.000230166)
(-0.00143143 -0.00115771 0.000194942)
(-0.00147558 -0.00119387 0.000152428)
(-0.00151397 -0.00122495 9.90837e-05)
(-0.00153802 -0.00124452 3.45098e-05)
(-0.000327052 -0.000344619 -0.000126127)
(-0.000391392 -0.000447526 -3.5224e-05)
(-0.000447407 -0.000564509 1.41819e-05)
(-0.000527899 -0.000669605 8.44389e-05)
(-0.000621358 -0.000751025 0.00016004)
(-0.000719594 -0.00080235 0.000229161)
(-0.000815226 -0.000828332 0.000287312)
(-0.000903643 -0.000838606 0.000333336)
(-0.000980884 -0.0008414 0.000366767)
(-0.00104325 -0.000840147 0.000386124)
(-0.00108881 -0.000842599 0.000391409)
(-0.00112711 -0.000855181 0.000387061)
(-0.00116187 -0.000874976 0.000376273)
(-0.00119609 -0.000899895 0.000361301)
(-0.00123196 -0.000928558 0.000343764)
(-0.00127066 -0.000960163 0.00032439)
(-0.00131251 -0.000994259 0.00030331)
(-0.00135726 -0.00103043 0.000280164)
(-0.00140432 -0.00106817 0.000254409)
(-0.0014526 -0.00110659 0.000224986)
(-0.00150115 -0.00114471 0.00019071)
(-0.00154712 -0.00118021 0.000149223)
(-0.00158708 -0.00121071 9.70372e-05)
(-0.00161206 -0.00122987 3.38116e-05)
(-0.000341333 -0.000318649 -0.000107434)
(-0.000406993 -0.000417054 -3.97005e-05)
(-0.000464153 -0.000530593 4.33589e-06)
(-0.000545277 -0.000635053 6.99692e-05)
(-0.000640383 -0.0007188 0.00014261)
(-0.000741585 -0.000774808 0.000210594)
(-0.000841432 -0.000806828 0.000269503)
(-0.000934606 -0.000822471 0.000317385)
(-0.00101658 -0.000828364 0.000352586)
(-0.00108358 -0.000828617 0.000373517)
(-0.00113367 -0.000829558 0.000379957)
(-0.00117435 -0.000840881 0.000376323)
(-0.00121142 -0.000859793 0.000366017)
(-0.00124783 -0.000884161 0.000351554)
(-0.00128583 -0.000912352 0.000334548)
(-0.00132665 -0.000943487 0.000315788)
(-0.00137063 -0.00097704 0.000295411)
(-0.00141748 -0.00101258 0.000273046)
(-0.00146661 -0.00104958 0.000248154)
(-0.00151686 -0.00108718 0.000219636)
(-0.0015673 -0.00112445 0.000186346)
(-0.00161491 -0.00115907 0.000145923)
(-0.00165631 -0.0011888 9.49321e-05)
(-0.0016821 -0.00120742 3.30948e-05)
(-0.000352659 -0.00029044 -8.8094e-05)
(-0.000418607 -0.000383432 -4.38504e-05)
(-0.000476113 -0.000492724 -5.37112e-06)
(-0.000557262 -0.000595972 5.52712e-05)
(-0.00065384 -0.000681831 0.000124526)
(-0.000758065 -0.000742497 0.000191087)
(-0.000862142 -0.000780268 0.000250496)
(-0.000960098 -0.000800862 0.000300006)
(-0.00104694 -0.000809748 0.000336964)
(-0.00111878 -0.000811571 0.000359379)
(-0.00117458 -0.000812554 0.000367537)
(-0.001218 -0.000821569 0.0003647)
(-0.00125752 -0.000839359 0.000355046)
(-0.00129622 -0.000862849 0.000341202)
(-0.00133641 -0.000890378 0.000324851)
(-0.00137935 -0.000920826 0.000306799)
(-0.00142538 -0.000953621 0.000287203)
(-0.00147421 -0.000988284 0.000265685)
(-0.00152524 -0.00102432 0.00024171)
(-0.00157725 -0.00106085 0.000214138)
(-0.00162939 -0.00109703 0.000181871)
(-0.00167842 -0.00113055 0.000142542)
(-0.00172109 -0.00115933 9.27749e-05)
(-0.00174757 -0.00117731 3.23631e-05)
(-0.000359127 -0.000259738 -6.86662e-05)
(-0.00042503 -0.000347082 -4.74235e-05)
(-0.000482058 -0.000451265 -1.47406e-05)
(-0.000562462 -0.000552612 4.04267e-05)
(-0.000660171 -0.000640257 0.000105752)
(-0.00076746 -0.00070552 0.000170493)
(-0.000875977 -0.000748874 0.000230083)
(-0.000978883 -0.000774107 0.000280953)
(-0.0010708 -0.000785917 0.000319634)
(-0.00114783 -0.0007894 0.000343684)
(-0.00120917 -0.000791098 0.000353574)
(-0.00125725 -0.000798185 0.000352052)
(-0.00129951 -0.000814239 0.00034329)
(-0.00134072 -0.000836672 0.00033025)
(-0.00138312 -0.000863233 0.000314666)
(-0.00142813 -0.000892768 0.000297423)
(-0.00147613 -0.000924592 0.000278698)
(-0.0015268 -0.000958188 0.0002581)
(-0.00157956 -0.000993055 0.0002351)
(-0.00163313 -0.00102833 0.000208517)
(-0.00168674 -0.00106322 0.000177305)
(-0.00173696 -0.00109543 0.000139095)
(-0.00178073 -0.00112309 9.05775e-05)
(-0.00180776 -0.00114031 3.16197e-05)
(-0.000362228 -0.000228753 -5.01442e-05)
(-0.000426505 -0.000309485 -5.05055e-05)
(-0.000482019 -0.000407806 -2.35711e-05)
(-0.000560821 -0.000506448 2.5744e-05)
(-0.000659101 -0.000595282 8.65531e-05)
(-0.000769142 -0.000664662 0.000148914)
(-0.000881896 -0.000713063 0.000208174)
(-0.000989898 -0.000742635 0.000260077)
(-0.00108724 -0.000757376 0.000300423)
(-0.00116987 -0.000762632 0.000326322)
(-0.00123675 -0.000765099 0.000337976)
(-0.0012905 -0.000771434 0.000338187)
(-0.00133651 -0.000785354 0.00033068)
(-0.00138033 -0.000805946 0.000318601)
(-0.00142507 -0.000831356 0.000303972)
(-0.00147216 -0.000859772 0.000287662)
(-0.00152201 -0.000890407 0.000269904)
(-0.00157434 -0.000922728 0.000250298)
(-0.00162859 -0.000956212 0.000228332)
(-0.00168342 -0.000990037 0.000202776)
(-0.00173822 -0.00102354 0.000172655)
(-0.00178935 -0.00105437 0.00013559)
(-0.001834 -0.00108079 8.83424e-05)
(-0.00186142 -0.00109726 3.08674e-05)
(-0.000358284 -0.000196068 -3.2589e-05)
(-0.00042121 -0.000270253 -5.2594e-05)
(-0.00047435 -0.000361953 -3.16764e-05)
(-0.000550492 -0.000457047 1.13302e-05)
(-0.000648557 -0.000546308 6.69444e-05)
(-0.000761109 -0.000619429 0.000126226)
(-0.000878363 -0.000672799 0.000184609)
(-0.000991773 -0.000706627 0.000237172)
(-0.00109489 -0.000724296 0.000279062)
(-0.00118347 -0.000731369 0.000306951)
(-0.00125639 -0.000734796 0.000320668)
(-0.00131574 -0.000740878 0.000322787)
(-0.00136664 -0.000753355 0.000316947)
(-0.00141427 -0.000772286 0.000306314)
(-0.00146134 -0.000795961 0.0002928)
(-0.00151044 -0.000822943 0.000277554)
(-0.00156204 -0.000852242 0.000260877)
(-0.00161584 -0.000883198 0.00024235)
(-0.00167133 -0.000915263 0.000221485)
(-0.0017271 -0.000947604 0.000196991)
(-0.00178261 -0.000979503 0.00016796)
(-0.00183418 -0.00100877 0.00013204)
(-0.0018794 -0.00103383 8.60764e-05)
(-0.00190688 -0.00104941 3.01057e-05)
(-0.000351663 -0.000164844 -1.68917e-05)
(-0.000410411 -0.000231634 -5.44617e-05)
(-0.00045997 -0.000316051 -3.86481e-05)
(-0.000532333 -0.000406402 -2.25866e-06)
(-0.000629192 -0.000495081 4.74007e-05)
(-0.000743523 -0.000571133 0.00010276)
(-0.000864679 -0.000628744 0.000159463)
(-0.000983543 -0.000666615 0.000212181)
(-0.00109291 -0.000687292 0.000255456)
(-0.00118804 -0.000696323 0.000285463)
(-0.00126717 -0.000700588 0.000301473)
(-0.00133234 -0.000706511 0.000305777)
(-0.00138821 -0.000717931 0.000301877)
(-0.00143961 -0.000735319 0.000292893)
(-0.00148966 -0.000757265 0.00028081)
(-0.00154092 -0.000782649 0.000266859)
(-0.00159402 -0.000810363 0.000251394)
(-0.00164884 -0.000839693 0.000234025)
(-0.00170499 -0.000870079 0.000214307)
(-0.00176104 -0.000900639 0.000190893)
(-0.00181687 -0.000930699 0.000162999)
(-0.00186849 -0.000958205 0.000128284)
(-0.00191395 -0.000981751 8.36714e-05)
(-0.00194133 -0.000996339 2.92986e-05)
(-0.000334866 -0.000133986 -2.98838e-06)
(-0.000392245 -0.000191612 -5.371e-05)
(-0.000436811 -0.000268693 -4.47714e-05)
(-0.000503965 -0.000353458 -1.50903e-05)
(-0.000598176 -0.000440401 2.80562e-05)
(-0.000713624 -0.000518733 7.85028e-05)
(-0.000839117 -0.000580795 0.000132701)
(-0.000963861 -0.000622888 0.000185008)
(-0.00107987 -0.000646689 0.000229408)
(-0.00118185 -0.000657611 0.000261524)
(-0.001268 -0.000662885 0.000280154)
(-0.00133945 -0.000668693 0.000286996)
(-0.00140047 -0.000679048 0.000285326)
(-0.0014559 -0.00069491 0.000278263)
(-0.00150888 -0.000715066 0.000267834)
(-0.00156217 -0.000738652 0.000255369)
(-0.00161664 -0.000764556 0.000241279)
(-0.00167224 -0.00079202 0.000225186)
(-0.00172874 -0.000820476 0.000206706)
(-0.00178478 -0.000849069 0.000184445)
(-0.00184057 -0.000877124 0.000157753)
(-0.00189181 -0.000902724 0.000124305)
(-0.00193723 -0.000924656 8.11211e-05)
(-0.00196424 -0.000938161 2.84434e-05)
(-0.0003132 -0.000105936 5.25997e-06)
(-0.000370432 -0.000156403 -5.01975e-05)
(-0.00040823 -0.000222797 -4.89734e-05)
(-0.000468044 -0.000301091 -2.64262e-05)
(-0.000557929 -0.000384996 9.56132e-06)
(-0.000673101 -0.000464448 5.40932e-05)
(-0.000801408 -0.000529843 0.000104632)
(-0.000931744 -0.000575985 0.000155724)
(-0.00105486 -0.000603135 0.000200899)
(-0.00116464 -0.000616281 0.000235186)
(-0.00125797 -0.000622309 0.000256564)
(-0.00133605 -0.000627872 0.000266259)
(-0.00140273 -0.000637166 0.000267203)
(-0.0014623 -0.000651324 0.000262345)
(-0.00151838 -0.000669597 0.00025385)
(-0.00157375 -0.000691241 0.000243096)
(-0.00162941 -0.000715131 0.000230547)
(-0.0016855 -0.000740529 0.000215855)
(-0.00174195 -0.000766858 0.000198707)
(-0.00179737 -0.000793247 0.000177648)
(-0.00185269 -0.000819156 0.000152221)
(-0.00190309 -0.000842742 0.000120104)
(-0.00194809 -0.000862949 7.84221e-05)
(-0.00197453 -0.000875322 2.75406e-05)
(-0.000281792 -7.73022e-05 1.25068e-05)
(-0.000340577 -0.000123856 -4.82878e-05)
(-0.000370835 -0.000178994 -5.06507e-05)
(-0.000421238 -0.000248627 -3.51262e-05)
(-0.000504509 -0.000327257 -7.31448e-06)
(-0.000617976 -0.00040654 2.99574e-05)
(-0.000749895 -0.000475756 7.56118e-05)
(-0.000886254 -0.000526332 0.000124542)
(-0.0010168 -0.000557125 0.000169952)
(-0.00113432 -0.000572394 0.000206169)
(-0.00123586 -0.00057943 0.000230553)
(-0.0013213 -0.000584738 0.000243469)
(-0.00139385 -0.000592748 0.000247369)
(-0.00145808 -0.000605135 0.000245115)
(-0.00151733 -0.00062133 0.000238843)
(-0.00157462 -0.000640798 0.000230018)
(-0.0016313 -0.000662512 0.000219202)
(-0.00168755 -0.000685693 0.000206046)
(-0.00174358 -0.000709773 0.000190334)
(-0.00179814 -0.00073394 0.000170563)
(-0.00185248 -0.000757587 0.000146448)
(-0.00190155 -0.000779085 0.000115714)
(-0.0019458 -0.000797519 7.55965e-05)
(-0.00197135 -0.000808712 2.65969e-05)
(-0.000245621 -5.10852e-05 1.86072e-05)
(-0.000305197 -9.47889e-05 -4.73687e-05)
(-0.000328978 -0.000140035 -5.0773e-05)
(-0.000368817 -0.000199763 -4.12142e-05)
(-0.000443253 -0.000271325 -2.17764e-05)
(-0.000552664 -0.000348505 7.1767e-06)
(-0.000684658 -0.000419276 4.63383e-05)
(-0.000826146 -0.000474037 9.18221e-05)
(-0.000964426 -0.00050892 0.000136719)
(-0.00109114 -0.000527149 0.000174749)
(-0.00120105 -0.000535108 0.00020214)
(-0.00129408 -0.000539954 0.000218525)
(-0.00137323 -0.000546633 0.000225814)
(-0.00144217 -0.000556974 0.000226507)
(-0.00150484 -0.000570958 0.000222807)
(-0.00156422 -0.000588156 0.000216202)
(-0.00162169 -0.000607537 0.000207311)
(-0.00167774 -0.000628385 0.000195827)
(-0.00173282 -0.000650091 0.000181636)
(-0.00178562 -0.000671836 0.000163171)
(-0.0018386 -0.000693213 0.000140426)
(-0.00188579 -0.000712589 0.000111124)
(-0.00192889 -0.000729218 7.26355e-05)
(-0.00195334 -0.000739248 2.56115e-05)
(-0.000201673 -2.82139e-05 2.2725e-05)
(-0.00026006 -6.7687e-05 -4.52409e-05)
(-0.000278357 -0.00010394 -4.90569e-05)
(-0.000306707 -0.000152486 -4.4009e-05)
(-0.000369079 -0.000214387 -3.2596e-05)
(-0.000471746 -0.000287306 -1.30511e-05)
(-0.000605728 -0.000360702 1.79773e-05)
(-0.000752271 -0.000419936 5.8429e-05)
(-0.000898206 -0.00045938 0.000101771)
(-0.00103309 -0.000480419 0.000140913)
(-0.00115221 -0.000489799 0.000171312)
(-0.0012538 -0.000494442 0.00019147)
(-0.00133966 -0.000499556 0.000202462)
(-0.00141398 -0.000507812 0.000206545)
(-0.00148012 -0.000519386 0.000205751)
(-0.00154129 -0.000534076 0.00020161)
(-0.00159936 -0.000551025 0.000194864)
(-0.00165482 -0.000569474 0.00018519)
(-0.00170858 -0.00058882 0.000172627)
(-0.00175955 -0.000608321 0.000155559)
(-0.00181044 -0.000627369 0.000134198)
(-0.00185526 -0.000644678 0.000106372)
(-0.0018968 -0.000659499 6.95605e-05)
(-0.00191979 -0.000668378 2.45897e-05)
(-0.00015552 -1.06957e-05 2.47029e-05)
(-0.000211907 -4.5208e-05 -4.2495e-05)
(-0.000227276 -7.43051e-05 -4.67922e-05)
(-0.000245021 -0.000112164 -4.43349e-05)
(-0.0002934 -0.000162885 -3.93447e-05)
(-0.000385275 -0.000228641 -2.94344e-05)
(-0.000512242 -0.000299253 -8.21435e-06)
(-0.000662107 -0.000362649 2.53717e-05)
(-0.000815576 -0.000407405 6.56631e-05)
(-0.000960826 -0.000433056 0.000105329)
(-0.00108945 -0.000444371 0.000138423)
(-0.00119945 -0.000448837 0.000162352)
(-0.00129284 -0.000452589 0.000177411)
(-0.00137242 -0.00045852 0.000185193)
(-0.00144226 -0.000467594 0.000187671)
(-0.00150552 -0.000479796 0.00018633)
(-0.0015639 -0.000494242 0.000181938)
(-0.00161832 -0.000510281 0.000174208)
(-0.00167006 -0.00052723 0.00016334)
(-0.0017179 -0.00054432 0.000147642)
(-0.0017665 -0.000561205 0.000127728)
(-0.00180818 -0.000576467 0.000101411)
(-0.00184783 -0.000589565 6.63449e-05)
(-0.00186915 -0.000597375 2.35252e-05)
(-0.000102951 2.37466e-06 2.43969e-05)
(-0.000153856 -2.49444e-05 -3.70882e-05)
(-0.000167192 -4.68566e-05 -4.23819e-05)
(-0.000175598 -7.36744e-05 -4.09318e-05)
(-0.000207093 -0.00011002 -3.98142e-05)
(-0.000283401 -0.000165072 -3.87386e-05)
(-0.000411117 -0.000237767 -2.95783e-05)
(-0.000561445 -0.000304209 -5.57163e-06)
(-0.000721127 -0.000354877 2.99613e-05)
(-0.000873673 -0.000384757 6.86891e-05)
(-0.00101153 -0.000398787 0.000103821)
(-0.00113091 -0.000403921 0.000131472)
(-0.00123158 -0.000406364 0.000150694)
(-0.00131721 -0.000410223 0.000162559)
(-0.00139077 -0.000416736 0.000168627)
(-0.00145552 -0.000426259 0.000170309)
(-0.00151393 -0.000438206 0.000168492)
(-0.00156685 -0.000451886 0.000162842)
(-0.00161625 -0.0004666 0.000153771)
(-0.0016612 -0.000481677 0.000139546)
(-0.00170645 -0.00049636 0.000121052)
(-0.00174474 -0.000509791 9.6296e-05)
(-0.00178188 -0.000521196 6.30118e-05)
(-0.00180113 -0.000528 2.24228e-05)
(-5.55013e-05 9.1371e-06 2.2279e-05)
(-0.0001006 -1.21475e-05 -3.11022e-05)
(-0.000116815 -2.8093e-05 -3.74337e-05)
(-0.000125253 -4.89841e-05 -3.55904e-05)
(-0.000151866 -7.34133e-05 -3.54232e-05)
(-0.000212829 -0.000113208 -4.30374e-05)
(-0.000296126 -0.000169529 -4.56655e-05)
(-0.000444882 -0.00024143 -3.1308e-05)
(-0.00060926 -0.000297858 -3.67639e-06)
(-0.000772051 -0.000335242 3.24177e-05)
(-0.00091977 -0.000353595 6.84829e-05)
(-0.00104772 -0.000359982 9.92529e-05)
(-0.00115644 -0.000361884 0.000122666)
(-0.00124743 -0.000363674 0.000138697)
(-0.00132474 -0.000367751 0.000148638)
(-0.00139145 -0.000374842 0.000153679)
(-0.00144954 -0.000384352 0.000154635)
(-0.00150039 -0.000395784 0.000151173)
(-0.0015465 -0.000408306 0.000143928)
(-0.0015868 -0.000421229 0.000131098)
(-0.00162878 -0.000434054 0.000114096)
(-0.0016625 -0.000445649 9.09128e-05)
(-0.00169705 -0.000455572 5.95072e-05)
(-0.00171403 -0.000461519 2.12665e-05)
(-1.31257e-05 1.09128e-05 1.72182e-05)
(-3.83924e-05 -3.15978e-07 -2.1608e-05)
(-5.28853e-05 -8.67103e-06 -3.58722e-05)
(-4.36461e-05 -2.34261e-05 -3.62637e-05)
(-3.99901e-05 -3.59864e-05 -2.80213e-05)
(-8.12636e-05 -8.11961e-05 -2.33358e-05)
(-0.000209706 -0.000121396 -2.42724e-05)
(-0.000325542 -0.000173354 -4.84334e-05)
(-0.000491932 -0.000241033 -3.24511e-05)
(-0.000658161 -0.000283929 -1.67266e-06)
(-0.000813447 -0.000307919 3.34966e-05)
(-0.000950534 -0.00031724 6.6468e-05)
(-0.00106617 -0.000319195 9.35992e-05)
(-0.00116351 -0.000319787 0.000113901)
(-0.00124446 -0.00032171 0.000127883)
(-0.00131195 -0.000326328 0.000136388)
(-0.00136926 -0.000333564 0.000140288)
(-0.00141751 -0.000342956 0.000139117)
(-0.00146018 -0.000353599 0.000133788)
(-0.0014964 -0.000364922 0.000122459)
(-0.00153382 -0.000375888 0.000106884)
(-0.00156325 -0.000386029 8.53548e-05)
(-0.00159431 -0.000394489 5.5861e-05)
(-0.00160859 -0.000399657 2.00632e-05)
(1.06991e-05 1.00657e-05 1.30358e-05)
(4.97111e-07 1.82781e-06 -1.55576e-05)
(-1.51932e-05 -9.27578e-06 -3.02369e-05)
(-3.01754e-05 -2.71701e-05 -4.01308e-05)
(-4.0068e-05 -3.67552e-05 -3.50865e-05)
(-4.6693e-05 -4.08949e-05 -3.672e-05)
(-7.08571e-05 -7.01658e-05 -2.67562e-05)
(-0.000215419 -0.00011388 -3.43043e-05)
(-0.000358825 -0.000172015 -5.40184e-05)
(-0.000533662 -0.000231289 -3.09479e-05)
(-0.000695779 -0.000261901 6.8013e-07)
(-0.00084 -0.000275342 3.41519e-05)
(-0.000963351 -0.000279047 6.43216e-05)
(-0.00106507 -0.000278806 8.84373e-05)
(-0.00114913 -0.000279068 0.00010646)
(-0.00121819 -0.000281878 0.000118667)
(-0.00127426 -0.000287125 0.000125626)
(-0.00131919 -0.000294723 0.000126786)
(-0.00135718 -0.000303596 0.00012333)
(-0.00138731 -0.000313202 0.000113374)
(-0.00142034 -0.00032272 9.92859e-05)
(-0.00144384 -0.000331264 7.9406e-05)
(-0.00147168 -0.000338569 5.19773e-05)
(-0.00148316 -0.000343146 1.87815e-05)
(3.11878e-05 8.83564e-06 2.15352e-05)
(2.9599e-05 3.81889e-06 -5.62752e-06)
(2.07497e-05 -1.27767e-06 -3.79772e-06)
(-1.07063e-06 4.01448e-06 -4.01948e-06)
(-1.28518e-05 4.41178e-06 -1.63972e-05)
(-4.0122e-05 -5.23981e-06 -4.24724e-05)
(-4.99432e-05 -3.7968e-05 -5.33938e-05)
(-7.50052e-05 -5.47723e-05 -2.9502e-05)
(-0.00025245 -0.000113442 -5.04311e-05)
(-0.000394915 -0.000167236 -5.35298e-05)
(-0.000565743 -0.000214017 -2.74675e-05)
(-0.000718197 -0.000233707 3.80472e-06)
(-0.000846145 -0.000240233 3.55063e-05)
(-0.000953781 -0.000241039 6.2916e-05)
(-0.00104079 -0.000240488 8.47888e-05)
(-0.00110904 -0.000241654 0.000100504)
(-0.00116318 -0.000245295 0.000110538)
(-0.00120415 -0.000251452 0.00011403)
(-0.00123762 -0.000259004 0.000112491)
(-0.00126242 -0.00026742 0.000103993)
(-0.00129008 -0.000275601 9.13223e-05)
(-0.0013087 -0.000282962 7.32183e-05)
(-0.00133223 -0.000289075 4.79074e-05)
(-0.00134049 -0.000293143 1.74339e-05)
(4.36148e-05 1.47847e-05 3.22132e-05)
(5.05944e-05 7.7735e-06 -8.86833e-06)
(4.86042e-05 3.52209e-07 -1.19576e-05)
(3.5408e-05 -1.1397e-05 -1.41238e-05)
(2.17505e-05 -1.74516e-05 -1.37602e-05)
(5.8484e-06 -1.38734e-05 -1.00977e-05)
(-2.82767e-05 2.80944e-06 -3.53249e-05)
(-3.72741e-05 -2.4571e-05 -4.28841e-05)
(-0.000110614 -7.1404e-05 -3.6726e-05)
(-0.000301356 -0.000109036 -4.75962e-05)
(-0.000434683 -0.000160158 -5.3526e-05)
(-0.000586894 -0.000191914 -2.35125e-05)
(-0.000721275 -0.000203549 8.64019e-06)
(-0.000830385 -0.000205877 3.79537e-05)
(-0.000918583 -0.000205391 6.31129e-05)
(-0.000987575 -0.000206187 8.23093e-05)
(-0.00103914 -0.000208752 9.53115e-05)
(-0.00107536 -0.000213828 0.000101034)
(-0.00110279 -0.000220172 0.000101239)
(-0.00112051 -0.000227246 9.40441e-05)
(-0.00114257 -0.000234397 8.2783e-05)
(-0.00115439 -0.000240128 6.64489e-05)
(-0.0011742 -0.000245326 4.34957e-05)
(-0.00117927 -0.000249058 1.59663e-05)
(5.54555e-05 1.59302e-05 3.55651e-05)
(6.97912e-05 9.46006e-06 -1.10492e-05)
(7.36841e-05 2.75578e-06 -1.75913e-05)
(7.08516e-05 -8.00061e-06 -2.05039e-05)
(6.29641e-05 -1.76399e-05 -2.049e-05)
(4.69704e-05 -2.14666e-05 -1.61695e-05)
(1.40443e-05 -1.96052e-05 -1.95749e-05)
(-2.9147e-05 -1.42306e-05 -4.72125e-05)
(-6.21181e-05 -4.30954e-05 -5.43133e-05)
(-0.000139433 -8.8245e-05 -4.59636e-05)
(-0.000300435 -0.000118287 -4.54594e-05)
(-0.000451943 -0.000146455 -4.3155e-05)
(-0.000584817 -0.000165849 -1.52229e-05)
(-0.000698383 -0.000172875 1.46075e-05)
(-0.000787998 -0.000173925 4.22329e-05)
(-0.000853049 -0.000174493 6.41454e-05)
(-0.000901076 -0.000176571 7.9803e-05)
(-0.00093183 -0.000180939 8.75456e-05)
(-0.00095388 -0.000186612 8.94405e-05)
(-0.000965309 -0.000192545 8.3577e-05)
(-0.000981977 -0.00019901 7.37081e-05)
(-0.000989121 -0.000203391 5.93347e-05)
(-0.00100418 -0.000207473 3.88448e-05)
(-0.0010058 -0.000210874 1.44083e-05)
(6.58067e-05 1.39814e-05 3.59033e-05)
(8.52684e-05 7.60143e-06 -1.11419e-05)
(9.31806e-05 7.98371e-07 -1.91702e-05)
(9.43995e-05 -1.01008e-05 -2.34206e-05)
(8.94483e-05 -2.08135e-05 -2.43101e-05)
(7.79233e-05 -2.86917e-05 -2.1724e-05)
(5.66088e-05 -2.82834e-05 -1.55128e-05)
(2.36197e-05 -2.35342e-05 -2.41691e-05)
(-3.57485e-05 -2.5479e-05 -4.93348e-05)
(-6.23212e-05 -5.51036e-05 -4.35391e-05)
(-0.000166995 -6.78982e-05 -3.1692e-05)
(-0.000314395 -9.23707e-05 -5.2551e-05)
(-0.000451631 -0.000128202 -3.42774e-05)
(-0.000560557 -0.000140757 -6.19424e-06)
(-0.000647295 -0.000144144 2.26188e-05)
(-0.00071199 -0.000146391 4.67368e-05)
(-0.000755636 -0.000148648 6.45073e-05)
(-0.00078021 -0.00015254 7.39259e-05)
(-0.000795217 -0.000157629 7.71289e-05)
(-0.000799449 -0.000161953 7.24337e-05)
(-0.000809436 -0.000167856 6.37987e-05)
(-0.000809593 -0.000169605 5.13994e-05)
(-0.000820761 -0.00017243 3.37356e-05)
(-0.000819381 -0.00017577 1.26747e-05)
(7.09605e-05 1.23507e-05 3.60199e-05)
(9.44564e-05 6.18761e-06 -1.07872e-05)
(0.000105581 -2.2698e-07 -2.01814e-05)
(0.000109554 -1.12578e-05 -2.56111e-05)
(0.000107175 -2.30435e-05 -2.72999e-05)
(9.86508e-05 -3.2993e-05 -2.52424e-05)
(8.29272e-05 -3.97864e-05 -2.04818e-05)
(5.67193e-05 -3.54607e-05 -1.26736e-05)
(9.93807e-06 -3.29111e-05 -1.25504e-05)
(-5.64049e-05 1.17296e-05 -2.67234e-05)
(-6.44002e-05 -2.03298e-05 -3.07409e-05)
(-0.000257663 -5.24463e-05 -4.71996e-05)
(-0.000310704 -7.97037e-05 -4.49674e-05)
(-0.000422857 -0.000108923 -2.27495e-05)
(-0.000508384 -0.000116319 5.44431e-06)
(-0.00056337 -0.000119463 3.01395e-05)
(-0.000601541 -0.000122526 4.92143e-05)
(-0.000619252 -0.000125882 5.97407e-05)
(-0.000628768 -0.000131144 6.40523e-05)
(-0.000626969 -0.000133279 6.05166e-05)
(-0.000632776 -0.000139547 5.32722e-05)
(-0.000631976 -0.000139637 4.31701e-05)
(-0.000638704 -0.000140904 2.83915e-05)
(-0.000633443 -0.000144142 1.08282e-05)
(7.07502e-05 9.85061e-06 3.50923e-05)
(9.66067e-05 4.68943e-06 -9.17209e-06)
(0.000109138 -6.91238e-07 -1.94954e-05)
(0.000115929 -1.11351e-05 -2.60481e-05)
(0.000116623 -2.34799e-05 -2.87933e-05)
(0.000111519 -3.50927e-05 -2.76316e-05)
(0.000100126 -4.39995e-05 -2.27473e-05)
(8.10759e-05 -4.74286e-05 -1.42299e-05)
(4.698e-05 -3.73217e-05 1.90838e-06)
(-3.24701e-05 1.58437e-06 -2.45949e-05)
(-4.31896e-05 2.52541e-06 -6.84821e-05)
(-0.00010634 -0.000152974 -6.03765e-05)
(-0.0002561 -4.65862e-05 -9.11379e-06)
(-0.000290067 -7.46826e-05 -3.38431e-05)
(-0.000366525 -8.83178e-05 -8.41422e-06)
(-0.000420804 -9.4105e-05 1.57103e-05)
(-0.000452719 -9.84448e-05 3.48209e-05)
(-0.000463137 -0.000100862 4.58171e-05)
(-0.000465644 -0.000106371 5.06324e-05)
(-0.000456702 -0.000105029 4.80487e-05)
(-0.000456495 -0.000111852 4.15633e-05)
(-0.000441902 -0.000106536 3.37198e-05)
(-0.000442762 -0.000103586 2.2618e-05)
(-0.000435868 -0.000104447 8.81244e-06)
(6.50705e-05 6.90098e-06 3.25017e-05)
(9.19634e-05 2.80538e-06 -6.73381e-06)
(0.000105235 -1.50418e-06 -1.68164e-05)
(0.000113405 -1.02848e-05 -2.38591e-05)
(0.00011744 -2.18552e-05 -2.78251e-05)
(0.000116308 -3.39401e-05 -2.82108e-05)
(0.00010972 -4.42268e-05 -2.49778e-05)
(9.61636e-05 -5.03314e-05 -1.84433e-05)
(7.19198e-05 -4.58612e-05 -9.37556e-06)
(1.94085e-05 -3.51811e-05 -2.4703e-05)
(-6.7334e-05 -4.31484e-05 -5.92102e-05)
(-3.91921e-05 -4.58089e-05 -5.50096e-05)
(-0.000101836 -0.000111331 -4.16611e-05)
(-0.000169065 -5.18284e-05 -1.1583e-05)
(-0.000239809 -5.90373e-05 -1.80868e-05)
(-0.000276062 -6.41153e-05 2.94963e-06)
(-0.000301349 -7.29445e-05 2.09087e-05)
(-0.000303533 -6.89596e-05 3.14133e-05)
(-0.000303657 -8.01039e-05 3.63674e-05)
(-0.000294367 -6.94568e-05 3.51667e-05)
(-0.000289586 -8.30631e-05 3.04736e-05)
(-0.000303093 -6.3052e-05 2.6543e-05)
(-0.000311672 -4.97405e-05 1.70448e-05)
(-0.000317222 -5.58429e-05 6.42663e-06)
(5.63327e-05 4.04224e-06 2.88305e-05)
(8.27853e-05 5.24603e-07 -4.45491e-06)
(9.61024e-05 -3.10911e-06 -1.32464e-05)
(0.00010498 -1.03955e-05 -1.97163e-05)
(0.000110845 -2.00885e-05 -2.4141e-05)
(0.000113627 -3.13153e-05 -2.59736e-05)
(0.000112035 -4.20193e-05 -2.4739e-05)
(0.000104796 -4.99309e-05 -2.0591e-05)
(8.86988e-05 -5.29499e-05 -1.43625e-05)
(5.8012e-05 -4.87787e-05 -8.61761e-06)
(3.82806e-05 -5.03809e-05 5.74831e-07)
(-5.50311e-05 3.83213e-05 -2.84893e-05)
(-3.74376e-05 -1.40664e-05 -4.64016e-05)
(-7.63132e-05 -8.99648e-06 -2.18355e-05)
(-0.000134951 -3.10951e-05 -2.29635e-05)
(-0.00018877 -3.39143e-05 -6.08334e-06)
(-0.000184458 -4.52342e-05 9.83227e-06)
(-0.000212013 -3.59877e-05 1.84187e-05)
(-0.000173945 -5.26553e-05 2.34949e-05)
(-0.000180608 -3.5396e-05 2.20074e-05)
(-0.000153582 -4.8442e-05 1.71395e-05)
(-0.000154732 -5.56716e-05 1.21197e-05)
(-0.000177837 -5.66942e-05 9.23774e-06)
(-0.000152836 -8.72005e-05 5.35947e-06)
(4.70104e-05 2.1207e-06 2.51759e-05)
(7.16519e-05 -1.47793e-06 -3.15105e-06)
(8.41729e-05 -5.07674e-06 -1.02207e-05)
(9.30108e-05 -1.13527e-05 -1.53924e-05)
(9.9684e-05 -1.94457e-05 -1.92965e-05)
(0.000104839 -2.88423e-05 -2.16604e-05)
(0.000107535 -3.86569e-05 -2.19656e-05)
(0.000105967 -4.69324e-05 -2.01129e-05)
(9.75856e-05 -5.22362e-05 -1.63184e-05)
(7.81518e-05 -5.30855e-05 -1.16007e-05)
(4.70689e-05 -4.07672e-05 -1.02255e-05)
(-1.48385e-05 -4.67074e-05 4.93531e-06)
(-5.80324e-05 9.5539e-05 -2.05408e-05)
(-2.19362e-05 -5.32206e-06 -2.51856e-05)
(-3.23661e-05 -1.04972e-05 -1.45343e-05)
(-7.52708e-05 -4.83482e-05 -1.23204e-05)
(-6.77445e-05 -2.17243e-05 -1.05596e-06)
(-8.9101e-05 -6.8022e-05 4.77614e-06)
(-4.64203e-05 -1.88119e-05 7.88804e-06)
(-8.34746e-05 -5.62963e-05 9.79911e-06)
(-3.54077e-05 -1.66657e-05 3.58012e-06)
(-6.32998e-05 -5.05343e-05 1.48562e-06)
(-8.48614e-05 -8.12139e-05 1.00872e-05)
(-6.35168e-05 -6.68693e-05 8.76679e-06)
(3.78179e-05 9.92702e-07 2.14807e-05)
(6.00213e-05 -3.00424e-06 -2.69769e-06)
(7.13193e-05 -7.00178e-06 -8.17006e-06)
(7.96914e-05 -1.28692e-05 -1.19112e-05)
(8.66301e-05 -1.99383e-05 -1.47562e-05)
(9.29184e-05 -2.77152e-05 -1.68038e-05)
(9.84297e-05 -3.58888e-05 -1.78006e-05)
(0.00010111 -4.33525e-05 -1.75355e-05)
(9.89882e-05 -4.92667e-05 -1.61274e-05)
(8.86295e-05 -5.2302e-05 -1.34772e-05)
(6.60621e-05 -5.00906e-05 -1.24245e-05)
(3.35295e-05 -3.99336e-05 -1.05735e-05)
(-4.21797e-05 -2.50902e-05 -2.52189e-05)
(-1.2211e-05 -9.06716e-06 -3.79566e-05)
(-2.05264e-05 -1.28592e-05 -2.45467e-05)
(-3.87456e-05 -3.64032e-05 -2.29674e-05)
(-2.47968e-05 -1.92194e-05 -7.66187e-06)
(-3.58275e-05 -4.27274e-05 1.35652e-06)
(-1.50683e-05 -1.61321e-05 7.37437e-07)
(-1.85139e-05 -3.3409e-05 5.47331e-06)
(-1.19654e-05 -3.01083e-05 8.53683e-06)
(-2.12885e-05 -1.37214e-06 6.31429e-06)
(-2.4666e-05 -2.75752e-05 1.1841e-05)
(-2.98543e-05 1.03671e-05 7.60248e-06)
(3.03823e-05 1.4727e-07 1.81009e-05)
(4.9851e-05 -4.4494e-06 -2.77155e-06)
(5.97362e-05 -9.04873e-06 -6.91714e-06)
(6.74032e-05 -1.48966e-05 -9.38211e-06)
(7.4259e-05 -2.14155e-05 -1.11067e-05)
(8.10178e-05 -2.8112e-05 -1.24604e-05)
(8.76209e-05 -3.46418e-05 -1.34865e-05)
(9.28931e-05 -4.08445e-05 -1.40619e-05)
(9.49196e-05 -4.61294e-05 -1.41455e-05)
(9.14765e-05 -5.02335e-05 -1.37687e-05)
(7.83442e-05 -5.12944e-05 -1.37594e-05)
(5.54379e-05 -4.64919e-05 -1.47134e-05)
(1.62734e-05 -3.36093e-05 -2.38956e-05)
(8.28089e-06 -1.71977e-05 -3.44793e-05)
(-2.33435e-06 -1.20504e-05 -3.06373e-05)
(-1.39677e-05 1.51429e-05 -2.76721e-05)
(-5.26279e-06 -1.16024e-05 -1.65059e-05)