/*--------------------------------*- C++ -*----------------------------------*\
  =========                 |
  \\      /  F ield         | OpenFOAM: The Open Source CFD Toolbox
   \\    /   O peration     | Website:  https://openfoam.org
    \\  /    A nd           | Version:  6
     \\/     M anipulation  |
\*---------------------------------------------------------------------------*/
FoamFile
{
    version     2.0;
    format      ascii;
    class       volScalarField;
    location    "25";
    object      yPlus;
}
// * * * * * * * * * * * * * * * * * * * * * * * * * * * * * * * * * * * * * //

dimensions      [0 0 0 0 0 0 0];

internalField   uniform 0;

boundaryField
{
    inlet
    {
        type            calculated;
        value           uniform 0;
    }
    outlet
    {
        type            calculated;
        value           uniform 0;
    }
    roughCylinder
    {
        type            calculated;
        value           nonuniform List<scalar> 
5120
(
79.4149
60.6158
52.2925
55.5514
61.5712
66.6518
70.8701
74.4059
77.4124
80.0387
82.414
84.6002
86.6417
88.5833
90.4463
92.2756
94.0997
95.9766
97.9203
99.9438
102.056
104.255
106.537
108.889
111.295
113.728
116.152
118.516
120.744
122.728
124.282
125.151
79.5394
61.0691
51.8911
54.0882
59.9003
64.9394
69.1376
72.6568
75.6532
78.2872
80.6519
82.8075
84.8148
86.7
88.5092
90.271
92.046
93.8463
95.7135
97.6663
99.7074
101.833
104.038
106.31
108.633
110.983
113.324
115.608
117.759
119.675
121.175
122.013
76.8574
59.428
50.7956
52.632
58.2533
63.218
67.3717
70.8892
73.9099
76.5452
78.9087
81.0537
83.0158
84.8614
86.6122
88.3238
90.0152
91.7586
93.5659
95.4465
97.4094
99.4564
101.581
103.772
106.014
108.281
110.541
112.744
114.82
116.669
118.116
118.922
78.8506
60.7969
50.5595
51.1409
56.4904
61.4328
65.6066
69.1449
72.1697
74.8327
77.1987
79.3174
81.2595
83.0548
84.7625
86.4062
88.065
89.7368
91.4669
93.2804
95.1793
97.1578
99.2107
101.326
103.488
105.675
107.854
109.978
111.981
113.763
115.159
115.934
72.1192
58.3452
49.4239
49.6646
54.7885
59.6739
63.8109
67.3567
70.4427
73.1215
75.4918
77.6219
79.533
81.306
82.9631
84.577
86.1492
87.7719
89.4563
91.2056
93.0294
94.9333
96.9093
98.9483
101.035
103.145
105.247
107.295
109.226
110.946
112.291
113.036
86.0849
58.6236
48.5838
48.0604
52.8935
57.7715
61.9783
65.5998
68.6929
71.4137
73.8119
75.92
77.8369
79.574
81.2094
82.7554
84.3202
85.883
87.4908
89.1789
90.9498
92.7944
94.708
96.6788
98.6914
100.726
102.752
104.728
106.589
108.247
109.543
110.259
74.0319
58.8503
48.3318
46.6388
51.0971
55.9425
60.1221
63.732
66.9269
69.6865
72.0919
74.245
76.1445
77.8905
79.4864
81.036
82.5124
84.0341
85.6161
87.2517
88.9514
90.7252
92.5656
94.4647
96.4074
98.3718
100.327
102.231
104.026
105.625
106.874
107.562
81.7733
58.0372
47.3129
44.8804
48.9751
53.807
58.1131
61.8985
65.1039
67.9172
70.3945
72.5311
74.4656
76.1878
77.7984
79.2791
80.783
82.2643
83.7693
85.3493
87.0094
88.7361
90.5251
92.3642
94.2396
96.1332
98.0173
99.8546
101.585
103.125
104.328
104.988
69.0989
57.5957
47.2982
43.4837
46.971
51.8127
56.1243
59.8371
63.2028
66.1054
68.5913
70.8225
72.7556
74.5223
76.0994
77.633
79.0491
80.4974
82.0033
83.5477
85.1402
86.7986
88.5161
90.288
92.0989
93.9277
95.7465
97.516
99.184
100.67
101.829
102.46
84.5898
58.7522
46.6941
41.6962
44.4537
49.1981
53.6987
57.7983
61.199
64.1686
66.8047
69.027
71.0377
72.7896
74.4262
75.8785
77.3638
78.8002
80.228
81.7212
83.2911
84.9179
86.5989
88.3188
90.0677
91.8298
93.5807
95.2874
96.8939
98.3248
99.4398
100.044
81.9616
58.7384
46.6505
40.1413
42.0012
46.8224
51.4383
55.3248
58.9922
62.1619
64.8064
67.2036
69.2336
71.0856
72.6871
74.2578
75.6477
77.0522
78.5148
79.9949
81.4991
83.0569
84.663
86.3198
88.0088
89.7109
91.4
93.0414
94.5887
95.9679
97.0406
97.6151
71.248
54.5635
44.8561
38.2248
38.7382
43.2034
48.0724
52.8412
56.6135
59.8714
62.8173
65.2175
67.396
69.2395
70.9718
72.4344
73.9476
75.3803
76.7567
78.1845
79.6864
81.2327
82.8231
84.4345
86.0667
87.7042
89.3283
90.9102
92.398
93.7229
94.7527
95.3002
74.278
56.3867
44.9532
36.2186
35.413
39.9898
45.2657
49.4536
53.7602
57.4735
60.4258
63.1514
65.3795
67.4183
69.103
70.786
72.1917
73.5856
75.0431
76.4902
77.9261
79.3981
80.9023
82.456
84.0316
85.6142
87.1799
88.6963
90.1265
91.4017
92.3899
92.908
65.0133
54.5456
44.9434
35.0187
30.5163
33.82
39.5093
46.0379
50.5816
54.4377
58.0316
60.7835
63.2991
65.3305
67.2674
68.7899
70.3973
71.8824
73.2382
74.6252
76.0861
77.5752
79.0959
80.6108
82.1353
83.6548
85.1552
86.6162
87.9878
89.2091
90.1541
90.6461
47.4825
47.4269
41.8152
32.3673
25.949
28.7353
35.5079
40.1135
46.225
51.2283
54.8274
58.2473
60.8638
63.2743
65.1291
67.0428
68.5201
69.9454
71.4505
72.9069
74.2979
75.6999
77.1109
78.5728
80.0431
81.512
82.9574
84.3501
85.6643
86.8367
87.7412
88.2013
25.3439
36.1899
35.4662
29.42
13.8675
7.27499
19.7361
34.5161
40.9208
46.4041
51.5997
55.0932
58.3223
60.7202
63.0593
64.7082
66.513
68.1325
69.5054
70.8807
72.336
73.7986
75.2768
76.7088
78.134
79.5391
80.9172
82.2583
83.5133
84.6304
85.491
85.9254
11.199
19.2626
19.6853
13.1001
8.19396
15.8758
8.13921
12.5061
32.0337
41.0236
46.4056
51.6071
55.0462
58.2307
60.404
62.7653
64.3917
65.9032
67.5348
69.0611
70.4357
71.7841
73.1078
74.4879
75.8597
77.2186
78.5442
79.8095
81.0052
82.073
82.8919
83.29
11.5756
8.10869
9.07266
14.27
4.24081
15.9524
16.8595
6.8341
5.44675
30.6175
41.2328
46.5428
51.573
54.7345
57.9119
59.7858
61.9762
63.8665
65.304
66.7024
68.2034
69.6834
71.1578
72.5249
73.8583
75.1492
76.4011
77.6203
78.7545
79.7632
80.5353
80.9094
11.9448
9.18158
12.4369
14.2241
16.0076
17.1924
17.9811
18.3385
18.2293
22.0014
27.9738
40.8383
46.3256
51.4181
54.2097
57.5043
59.3987
61.0784
62.974
64.671
66.0659
67.3773
68.614
69.9189
71.1965
72.446
73.6473
74.7738
75.8427
76.7999
77.5274
77.8555
2.44915
11.4893
2.30214
12.8554
13.1371
12.1859
11.8215
10.3603
10.0502
6.0451
17.7982
28.3391
40.6532
45.6808
50.931
53.1867
56.2005
58.6366
60.2051
61.6724
63.3069
64.8797
66.4128
67.7459
68.9956
70.1672
71.2816
72.3725
73.3761
74.267
74.9428
75.2506
6.72012
16.0472
20.0802
20.6245
16.7498
8.19495
16.3354
23.0621
22.0218
21.4629
20.9791
10.5877
28.3232
40.5165
44.6777
50.3573
52.7233
54.7234
57.1896
59.2609
60.7316
62.0215
63.162
64.3888
65.5749
66.7122
67.7782
68.7412
69.6657
70.5001
71.1257
71.3673
7.99347
18.3454
23.1165
26.645
28.6018
27.207
16.9959
17.6138
11.005
18.2193
14.5797
12.1647
7.08512
26.3065
39.7929
42.5763
47.8393
51.5484
53.3403
54.9639
56.9291
58.7577
60.4798
61.8493
63.0313
64.0714
65.0246
65.9782
66.8351
67.5915
68.1577
68.3899
7.85667
18.2965
24.0535
28.2346
30.7993
31.9318
31.7585
24.4451
25.2423
21.7466
10.9639
18.1097
22.7961
17.0776
23.055
39.0944
42.1842
44.9503
48.9585
51.8989
53.5436
54.8343
55.825
56.956
58.051
59.0736
59.9864
60.7328
61.479
62.1707
62.6767
62.7965
7.47406
17.1427
23.1902
27.9062
31.3631
33.3865
33.5864
32.7977
27.2997
14.5104
18.3623
12.5845
17.9141
15.4797
5.89874
12.6211
32.9265
40.2712
42.3599
44.4371
47.3663
49.8894
52.2293
53.8161
54.9921
55.8809
56.6217
57.4385
58.1274
58.7228
59.1578
59.3044
6.70322
15.5904
21.5702
26.2655
29.8387
32.4228
34.0455
34.0864
32.9612
28.5139
20.9661
3.62742
5.03755
11.0662
16.1679
12.6378
5.50204
23.8685
34.201
40.2189
42.2858
43.65
44.1215
45.1521
46.1329
47.0482
47.7971
48.1788
48.6621
49.1905
49.5431
49.4347
5.99293
14.3713
20.0173
24.5005
28.008
30.6681
32.4509
33.4477
33.2605
32.1816
29.2022
14.4773
29.1273
22.5098
11.5864
16.8613
14.5039
24.5448
22.5856
20.1984
27.7137
33.8427
38.6521
40.9491
42.5608
43.3042
43.6496
44.3572
44.9542
45.2415
45.5752
45.5855
5.24265
13.2406
18.2702
22.2698
25.4643
28.0341
30.0159
31.2592
31.8229
31.696
30.8502
31.9407
23.3687
11.8716
24.7337
14.5325
24.9638
23.2046
16.2044
25.2553
21.5635
9.54748
10.6009
17.3576
14.1368
15.6172
16.2252
16.7571
14.3809
16.9257
14.7673
15.3392
4.63482
12.2515
16.0934
19.193
21.8553
24.1919
26.1423
27.6341
28.593
29.233
30.1055
29.4884
31.3158
26.8793
20.9906
20.7799
21.6206
25.69
19.1134
4.44426
26.4648
7.70496
19.1581
27.9991
20.2457
7.36155
21.158
30.0281
8.42107
31.0342
22.5162
31.4435
4.29239
11.6488
13.6456
15.3163
17.0611
18.904
20.7498
22.4438
23.9766
25.4688
26.8544
29.1659
29.8313
31.3792
30.0248
17.6406
29.2394
14.993
9.77211
26.7742
19.8478
27.1306
10.0662
18.7489
10.3296
29.1216
30.1452
21.2009
29.632
22.7818
11.8355
22.672
4.05642
11.658
12.1494
12.5623
13.1416
14.0105
15.3184
17.0692
19.0721
21.217
23.6151
25.502
28.2104
30.0093
31.1245
32.7597
25.9672
23.8825
5.51221
22.074
14.2899
20.075
6.57151
23.3062
4.00161
23.9209
18.1206
8.95024
31.9994
21.0422
31.7299
12.7243
3.62887
11.3043
11.9157
11.8295
11.9803
12.1995
13.0348
14.6407
16.6171
18.6952
20.7498
23.3031
25.3756
27.8083
30.3194
31.1899
32.3739
30.1466
20.42
23.065
14.8984
17.1448
20.4432
30.8629
18.4581
31.304
32.8748
20.9398
28.0002
20.4233
14.7492
7.54762
3.55854
11.3751
11.526
11.7439
11.8581
12.1204
13.2968
15.1327
16.9783
18.6325
20.2679
21.7061
23.6604
25.6036
27.5547
30.2379
31.7498
32.2898
32.6269
29.0449
22.4609
5.78285
22.7071
13.068
12.5569
31.7022
27.3748
18.7718
34.5461
29.3864
26.6675
29.5727
2.45585
9.16424
11.3699
11.5697
11.5858
11.9907
13.7982
15.9818
17.9066
19.5136
20.8323
22.155
23.2235
24.4876
26.1126
27.656
29.8257
31.8379
32.4899
32.4545
32.1034
31.3009
26.7279
23.7525
20.1841
19.7635
18.4248
17.9958
19.7279
18.3176
18.371
19.758
2.22191
8.44953
10.7636
11.5121
11.5509
13.1572
15.527
17.6664
19.3963
20.8065
22.0241
22.9835
23.9191
24.702
25.411
26.5921
27.9494
29.5745
31.4384
32.5824
32.4078
31.7997
31.4283
31.0005
30.8239
30.5308
30.0922
29.7487
29.3821
29.2463
29.3495
29.4018
2.87226
9.69899
11.4334
11.5134
12.8462
15.2289
17.5284
19.44
21.0199
22.3442
23.4414
24.4015
25.1145
25.6779
26.1699
26.4875
27.0983
28.1733
29.4398
30.7188
31.7167
31.9659
31.4355
30.5482
29.3305
28.1692
27.0147
26.1396
25.5197
25.3444
25.5445
25.8362
3.72325
11.2793
11.583
13.0974
15.4431
17.7407
19.7196
21.3965
22.8216
24.038
25.0884
25.9382
26.635
27.1181
27.3616
27.5401
27.6229
27.7925
28.3995
29.315
30.0779
30.5121
30.4257
29.93
29.1723
28.2109
27.097
26.1636
25.6386
25.5728
25.7825
26.007
3.84255
11.8172
13.5239
15.7854
17.9826
19.9591
21.7088
23.2476
24.6015
25.7915
26.82
27.6956
28.3565
28.8013
29.0468
29.0331
28.8866
28.7271
28.6097
28.7276
29.0902
29.4188
29.3699
28.8094
27.7513
26.3852
24.8869
23.6739
23.0093
23.0086
23.4151
23.862
4.28032
12.3903
15.5938
18.0999
20.1854
22.0033
23.6278
25.0888
26.405
27.5839
28.6285
29.504
30.1971
30.6674
30.8817
30.885
30.6668
30.2688
29.8385
29.463
29.196
29.0002
28.7148
28.177
27.3032
26.1451
24.85
23.7663
23.2537
23.4058
23.9014
24.3622
5.53779
14.6249
17.8178
20.1474
22.0632
23.7818
25.3633
26.8177
28.1546
29.3724
30.4578
31.3881
32.1179
32.6231
32.898
32.9075
32.677
32.2478
31.6467
30.9621
30.2844
29.6624
29.0192
28.2224
27.1707
25.8738
24.4711
23.3227
22.8046
23.0297
23.6524
24.2302
6.7126
16.1577
19.426
21.7722
23.7037
25.4365
27.0316
28.5126
29.8926
31.1626
32.3049
33.2832
34.0706
34.6381
34.9599
35.0378
34.8596
34.4241
33.7746
32.9581
32.0346
31.0578
30.0542
28.9931
27.8124
26.5129
25.2037
24.1691
23.7674
24.0824
24.753
25.3381
8.03935
9.37989
10.6941
11.2791
11.2413
11.8062
11.3887
11.5398
11.8218
11.5983
11.5827
11.661
11.6596
11.2093
10.4043
9.92328
9.50134
9.20403
9.00842
8.91373
8.91449
9.01076
9.2082
9.50715
9.93277
10.4119
11.2422
11.3357
11.8003
11.7486
11.4528
11.5017
11.7992
11.9552
11.7214
11.7036
11.3745
10.7032
9.38801
8.04771
17.4233
18.2203
18.8711
19.2236
19.4961
19.6613
19.7511
19.7708
19.7703
19.7026
19.6232
19.5182
19.4046
19.2582
19.1144
19.0134
18.9213
18.8564
18.8118
18.7905
18.7909
18.8131
18.8587
18.9242
19.0178
19.1185
19.2651
19.4065
19.5289
19.6419
19.7065
19.7668
19.7884
19.7698
19.6622
19.5171
19.2343
18.8789
18.2286
17.433
20.636
21.2486
21.7514
22.0282
22.2589
22.3616
22.4329
22.428
22.4095
22.3506
22.2889
22.2084
22.1306
22.0478
21.9743
21.9128
21.8603
21.822
21.7953
21.7819
21.7824
21.7967
21.8243
21.8635
21.9169
21.979
22.0535
22.1371
22.2155
22.2972
22.3587
22.4178
22.4373
22.4422
22.3695
22.2693
22.0372
21.7611
21.2574
20.646
22.9047
23.4292
23.8813
24.151
24.3823
24.5032
24.6036
24.6409
24.6671
24.6622
24.6567
24.6379
24.6207
24.5998
24.5804
24.5644
24.5507
24.5415
24.5346
24.5308
24.5313
24.5361
24.5439
24.5541
24.5687
24.5855
24.6057
24.6273
24.6452
24.6648
24.6707
24.6763
24.6504
24.6135
24.513
24.3928
24.161
23.8919
23.4387
22.9151
24.8021
25.2933
25.7368
26.0209
26.2755
26.4355
26.5808
26.676
26.7645
26.8258
26.8856
26.933
26.9785
27.0182
27.0536
27.0861
27.1131
27.1351
27.1496
27.1564
27.157
27.1512
27.1376
27.1166
27.0904
27.0589
27.0242
26.9853
26.9405
26.8938
26.8346
26.7739
26.6857
26.5911
26.4459
26.2864
26.0315
25.7478
25.3035
24.8129
26.5333
27.0017
27.4557
27.7592
28.0529
28.2627
28.4688
28.627
28.7837
28.9136
29.0421
29.1567
29.2671
29.368
29.46
29.5419
29.6108
29.6651
29.7018
29.7193
29.7199
29.7034
29.6677
29.6143
29.5463
29.4652
29.3741
29.2739
29.1643
29.0503
28.9225
28.7931
28.6369
28.4792
28.2733
28.064
27.7702
27.467
27.0125
26.5444
28.1507
28.6025
29.085
29.415
29.7619
30.022
30.2902
30.5095
30.7317
30.9268
31.1205
31.2986
31.4699
31.628
31.7728
31.9008
32.0085
32.0924
32.1492
32.1763
32.1769
32.1508
32.0951
32.0121
31.9053
31.7781
31.6341
31.4767
31.3061
31.1286
30.9355
30.741
30.5193
30.3005
30.0326
29.7727
29.426
29.0962
28.6135
28.1617
29.6738
30.1179
30.6408
31.0005
31.3981
31.7047
32.0288
32.3033
32.5838
32.8369
33.0884
33.3227
33.5479
33.7562
33.9469
34.1147
34.2557
34.365
34.4385
34.4734
34.4739
34.4402
34.3677
34.2593
34.1192
33.9522
33.7623
33.5548
33.3302
33.0966
32.8456
32.593
32.3131
32.039
31.7152
31.4087
31.0113
30.6517
30.1287
29.6846
31.1071
31.5472
32.1123
32.4965
32.9392
33.2857
33.6575
33.979
34.3088
34.6112
34.9115
35.193
35.4632
35.7131
35.9414
36.1419
36.3096
36.4391
36.5257
36.5663
36.5669
36.5274
36.4417
36.313
36.1462
35.9466
35.719
35.4699
35.2004
34.9195
34.6197
34.3179
33.9885
33.6673
33.2959
32.9497
32.507
32.123
31.5578
31.1175
32.4336
32.8711
33.4721
33.8767
34.3561
34.7356
35.1463
35.5068
35.8767
36.2195
36.5592
36.8787
37.1847
37.4676
37.7254
37.951
38.1393
38.2841
38.3806
38.4255
38.4261
38.3822
38.2866
38.1427
37.9553
37.7305
37.4734
37.1912
36.886
36.5669
36.2279
35.8856
35.5161
35.156
34.7457
34.3662
33.887
33.4824
32.8813
32.4436
33.6266
34.0597
34.6912
35.112
35.621
36.0278
36.4696
36.8618
37.2638
37.6388
38.0094
38.3589
38.6923
39.0001
39.2797
39.5239
39.7269
39.8826
39.9862
40.034
40.0346
39.9877
39.885
39.7302
39.528
39.2847
39.0057
38.6986
38.3659
38.017
37.647
37.2723
36.8708
36.4789
36.0375
35.6308
35.1218
34.7009
34.0694
33.6361
34.6567
35.0821
35.7423
36.1761
36.7108
37.1403
37.6081
38.0265
38.4545
38.8554
39.2503
39.6226
39.9768
40.3031
40.5985
40.8554
41.0685
41.2315
41.3395
41.3891
41.3895
41.3409
41.2337
41.0716
40.8594
40.6031
40.3085
39.9828
39.6294
39.2575
38.8632
38.4628
38.0351
37.6171
37.1496
36.7202
36.1856
35.7516
35.0912
34.6656
35.4914
35.9151
36.6021
37.0504
37.6088
38.0599
38.5511
38.9927
39.4432
39.8658
40.2806
40.6714
41.0415
41.3816
41.6883
41.9544
42.1742
42.3418
42.4525
42.5032
42.5037
42.4539
42.3439
42.1771
41.958
41.6927
41.3867
41.0472
40.6778
40.2875
39.8732
39.451
39.001
38.5597
38.0687
37.6178
37.0594
36.6112
35.9237
35.4999
36.1089
36.54
37.2558
37.7236
38.3067
38.781
39.2955
39.7597
40.2313
40.674
41.1065
41.5129
41.8964
42.2476
42.5631
42.8357
43.0603
43.2311
43.3436
43.3949
43.3954
43.3448
43.2331
43.0629
42.8391
42.5671
42.2523
41.9018
41.5189
41.1129
40.6809
40.2388
39.7675
39.3036
38.7894
38.3152
37.7321
37.2643
36.5483
36.1168
36.499
36.942
37.6968
38.1884
38.8016
39.3018
39.8421
40.3303
40.8236
41.2859
41.7354
42.1567
42.5522
42.9131
43.2359
43.514
43.7423
43.9155
44.0295
44.0813
44.0817
44.0306
43.9173
43.7448
43.5172
43.2398
42.9176
42.5572
42.1623
41.7416
41.2924
40.8306
40.3376
39.8498
39.3097
38.8096
38.1964
37.7047
36.9496
36.5064
36.6395
37.1174
37.9156
38.442
39.0898
39.6214
40.1906
40.705
41.2216
41.7044
42.1715
42.6074
43.0147
43.3849
43.7146
43.9977
44.2293
44.4046
44.5199
44.5723
44.5727
44.5209
44.4063
44.2316
44.0006
43.7181
43.3889
43.0193
42.6126
42.1771
41.7105
41.2281
40.7118
40.1977
39.6287
39.0972
38.4494
37.9229
37.1244
36.6464
36.5245
37.0546
37.9038
38.4764
39.1636
39.7331
40.3342
40.8784
41.4201
41.9251
42.4105
42.8616
43.2809
43.6604
43.9971
44.2851
44.5201
44.6977
44.8143
44.8675
44.8678
44.8152
44.6992
44.5222
44.2877
44.0003
43.6641
43.2851
42.8663
42.4156
41.9307
41.4261
40.8848
40.3409
39.7399
39.1706
38.4832
37.9106
37.061
36.5303
36.1525
36.7332
37.6489
38.275
39.0095
39.6215
40.2589
40.8358
41.4048
41.9338
42.4386
42.906
43.3381
43.7276
44.0716
44.365
44.6038
44.7838
44.9021
44.9562
44.9566
44.9029
44.7852
44.6056
44.3674
44.0745
43.7309
43.3419
42.9103
42.4434
41.939
41.4104
40.8417
40.2651
39.6277
39.0159
38.2814
37.655
36.7388
36.1579
35.5232
36.1472
37.1263
37.8183
38.6044
39.2646
39.9415
40.5543
41.1531
41.708
42.234
42.7191
43.1651
43.5656
43.918
44.2176
44.4608
44.644
44.7642
44.8196
44.8199
44.765
44.6452
44.4625
44.2197
43.9205
43.5686
43.1686
42.723
42.2384
41.7127
41.1582
40.5597
39.9471
39.2704
38.6103
37.8239
37.1317
36.1521
35.5274
34.6577
35.3012
36.3203
37.0776
37.9226
38.6352
39.3548
40.0061
40.637
41.2198
41.7689
42.2734
42.7351
43.1482
43.5103
43.8174
44.0661
44.2532
44.3761
44.4331
44.4334
44.3769
44.2543
44.0675
43.8192
43.5126
43.1509
42.7382
42.2769
41.7729
41.2241
40.6417
40.0111
39.36
38.6405
37.9277
37.0826
36.3249
35.305
34.6616
33.6083
34.2173
35.2419
36.0442
36.9398
37.7103
38.4728
39.1646
39.8284
40.441
41.0149
41.5405
42.0197
42.4471
42.8207
43.1367
43.3922
43.5844
43.7107
43.7697
43.7699
43.7113
43.5853
43.3935
43.1383
42.8227
42.4495
42.0225
41.5438
41.0184
40.4449
39.8326
39.1691
38.4773
37.7148
36.9441
36.0481
35.2454
34.2201
33.6102
32.4363
32.9408
33.9252
34.7348
35.6594
36.4769
37.2819
38.0121
38.7082
39.3503
39.9494
40.4972
40.995
41.4381
41.8247
42.1511
42.4148
42.613
42.7435
42.8049
42.8051
42.7441
42.6138
42.4159
42.1526
41.8264
41.4402
40.9974
40.4999
39.9525
39.3538
38.7119
38.0159
37.2858
36.4805
35.6624
34.7375
33.927
32.942
32.4366
31.1846
31.5296
32.4233
33.1948
34.1153
34.9558
35.7929
36.5536
37.277
37.9448
38.5669
39.1358
39.652
40.1112
40.5112
40.8489
41.1214
41.3263
41.4615
41.5256
41.5258
41.462
41.327
41.1223
40.85
40.5127
40.1129
39.654
39.1381
38.5696
37.9476
37.28
36.5566
35.7956
34.958
34.1167
33.1954
32.4233
31.5284
31.1832
29.8653
30.0331
30.7979
31.4893
32.3682
33.1982
34.0446
34.8263
35.5677
36.2541
36.894
37.4799
38.0118
38.4853
38.8978
39.2461
39.5273
39.7389
39.8788
39.9456
39.9457
39.8791
39.7394
39.5279
39.2469
38.8988
38.4866
38.0134
37.4818
36.896
36.2563
35.5699
34.8282
34.046
33.1987
32.3677
31.4877
30.7951
30.0295
29.8616
28.4705
28.4883
29.1166
29.7076
30.5185
31.3098
32.1405
32.9223
33.6677
34.3613
35.0099
35.6059
36.148
36.6315
37.0533
37.4099
37.6982
37.9153
38.0593
38.1283
38.1284
38.0594
37.9156
37.6985
37.4104
37.0539
36.6323
36.1489
35.6069
35.0109
34.3624
33.6684
32.9224
32.1396
31.3078
30.5153
29.7032
29.1109
28.4817
28.4636
27.0129
26.9508
27.4627
27.9635
28.698
29.4354
30.2304
30.993
31.7301
32.4196
33.0673
33.6649
34.2101
34.6977
35.124
35.4849
35.7771
35.9975
36.1439
36.2145
36.2146
36.1439
35.9975
35.777
35.4848
35.124
34.6977
34.2101
33.6647
33.0671
32.4192
31.7294
30.9911
30.2273
29.4308
28.6922
27.9561
27.4547
26.9413
27.0052
25.6059
25.5461
25.9807
26.4293
27.1
27.7892
28.5432
29.2765
29.9926
30.6673
31.3046
31.895
32.4356
32.9202
33.3446
33.7046
33.9963
34.2167
34.3632
34.4343
34.4342
34.3631
34.2163
33.9958
33.7038
33.3438
32.9193
32.4347
31.8939
31.3034
30.6657
29.9903
29.2731
28.5383
27.7829
27.0921
26.4198
25.9699
25.5342
25.5936
24.5344
24.5263
24.9294
25.3632
25.9922
26.6457
27.359
28.0568
28.7404
29.3905
30.0078
30.5817
31.1084
31.5815
31.9964
32.3486
32.6344
32.8504
32.994
33.0638
33.0637
32.9936
32.8494
32.6331
32.3469
31.9944
31.5793
31.1059
30.5789
30.0046
29.3869
28.7359
28.0509
27.3514
26.6365
25.981
25.351
24.9147
24.5119
24.5172
24.134
24.1836
24.5753
25.0053
25.5983
26.215
26.8799
27.5317
28.1755
28.7921
29.3792
29.9265
30.4294
30.8816
31.2786
31.6158
31.8894
32.0962
32.2339
32.3005
32.3003
32.2331
32.0949
31.8875
31.6132
31.2756
30.8783
30.4257
29.9224
29.3747
28.7871
28.1699
27.5252
26.8718
26.2053
25.5868
24.9927
24.561
24.1693
24.1186
24.4829
24.5456
24.9268
25.3333
25.8856
26.4532
27.0628
27.6639
28.2626
28.8385
29.3881
29.9012
30.3734
30.7983
31.1715
31.4887
31.7461
31.9408
32.07
32.1323
32.1321
32.0692
31.9391
31.7439
31.4858
31.168
30.7943
30.369
29.8965
29.3829
28.8329
28.2566
27.6574
27.0552
26.4444
25.8746
25.3214
24.912
24.5315
24.4637
25.1988
25.2515
25.6253
26.0014
26.5188
27.0412
27.6077
28.1677
28.7281
29.2673
29.7828
30.2645
30.7079
31.1071
31.458
31.7561
31.9982
32.1812
32.3024
32.3606
32.3603
32.3013
32.1792
31.9955
31.7527
31.4539
31.1025
30.7027
30.2589
29.7769
29.2611
28.7215
28.1607
27.6002
27.0329
26.5093
25.9904
25.6133
25.2383
25.1856
25.8297
25.8554
26.2298
26.579
27.0774
27.571
28.1145
28.6498
29.1877
29.7048
30.1999
30.6624
31.0884
31.4723
31.8096
32.0963
32.3292
32.5051
32.6216
32.6772
32.6769
32.6205
32.5032
32.3266
32.0931
31.8058
31.468
31.0838
30.6574
30.1946
29.6994
29.182
28.6439
28.1084
27.5644
27.0701
26.5707
26.2199
25.8447
25.8168
79.1851
61.4691
52.6148
55.5847
61.5758
66.6534
70.8695
74.4046
77.4114
80.0379
82.4129
84.5987
86.6402
88.5816
90.4445
92.2737
94.0978
95.9748
97.9185
99.9424
102.054
104.254
106.535
108.887
111.293
113.727
116.151
118.515
120.743
122.727
124.281
125.15
92.4821
59.8381
51.1507
54.0417
59.9011
64.9401
69.139
72.6579
75.653
78.2859
80.6504
82.806
84.8131
86.6982
88.5075
90.2692
92.0443
93.8444
95.7116
97.6642
99.7059
101.831
104.037
106.308
108.632
110.981
113.323
115.606
117.758
119.673
121.174
122.011
94.1031
61.2599
50.9779
52.6381
58.2566
63.2194
67.3706
70.8868
73.9079
76.5442
78.9076
81.0523
83.0143
84.8598
86.6103
88.3218
90.0131
91.7568
93.564
95.4449
97.407
99.4545
101.578
103.77
106.012
108.28
110.539
112.743
114.818
116.667
118.115
118.921
90.4757
59.5105
49.9213
51.0874
56.4884
61.4312
65.6069
69.1465
72.1705
74.8315
77.1971
79.3158
81.2577
83.0529
84.7607
86.4044
88.0632
89.7347
91.4649
93.278
95.1776
97.156
99.2093
101.324
103.487
105.673
107.852
109.977
111.979
113.762
115.158
115.933
91.1436
60.1748
49.3835
49.629
54.7888
59.6751
63.8103
67.3538
70.4392
73.12
75.4907
77.6205
79.5315
81.3044
82.9611
84.5748
86.1469
87.7699
89.4543
91.2041
93.0273
94.931
96.9065
98.9465
101.033
103.143
105.245
107.294
109.224
110.944
112.289
113.035
85.6492
58.6709
48.6772
48.0721
52.8956
57.771
61.9782
65.6015
68.6954
71.4133
73.8101
75.9183
77.8349
79.5718
81.2074
82.7535
84.3185
85.8807
87.4888
89.1761
90.9481
92.7927
94.7066
96.6766
98.6897
100.724
102.751
104.726
106.588
108.246
109.542
110.258
86.6471
58.7353
47.8971
46.5527
51.0898
55.9402
60.1212
63.7293
66.9216
69.6839
72.0909
74.2435
76.143
77.889
79.4844
81.0337
82.5098
84.0321
85.6138
87.2505
88.9491
90.7228
92.5628
94.4629
96.4056
98.3696
100.324
102.23
104.025
105.624
106.873
107.56
77.4268
60.3583
48.1369
44.976
48.9866
53.8155
58.1165
61.9006
65.1088
67.9183
70.3927
72.5291
74.4633
76.1852
77.7962
79.277
80.7814
82.2619
83.7673
85.346
87.0075
88.7342
90.5232
92.362
94.2378
96.1314
98.0164
99.8525
101.583
103.124
104.327
104.987
67.2846
57.4498
47.4434
43.537
46.9681
51.7978
56.1164
59.8334
63.1944
66.1005
68.5897
70.821
72.7539
74.5208
76.0973
77.6307
79.046
80.4953
82.0007
83.5468
85.1378
86.7963
88.5145
90.2862
92.0967
93.9255
95.7435
97.5143
99.1823
100.669
101.828
102.459
85.4407
58.7114
46.5147
41.672
44.4697
49.2305
53.7163
57.8031
61.2077
64.1724
66.8032
69.0246
71.0352
72.7865
74.4236
75.876
77.3622
78.7976
80.226
81.717
83.289
84.9154
86.5948
88.316
90.066
91.828
93.5798
95.2853
96.8923
98.3232
99.4382
100.042
73.2986
56.677
46.2348
40.1184
41.9859
46.7668
51.4053
55.3148
58.9774
62.1524
64.8034
67.2015
69.2314
71.084
72.6849
74.2554
75.6439
77.0499
78.5116
79.9945
81.4965
83.055
84.6642
86.3181
88.0064
89.7083
91.3966
93.0393
94.5867
95.9659
97.0386
97.6135
79.4505
57.2321
45.5549
38.3606
38.7815
43.3081
48.1301
52.8546
56.6303
59.8802
62.8166
65.2148
67.3933
69.2357
70.9686
72.4314
73.9463
75.3773
76.7548
78.1792
79.6839
81.2293
82.8147
84.4312
86.0645
87.7029
89.3278
90.9073
92.3959
93.7208
94.7507
95.2986
77.0896
57.8042
45.4645
36.3555
35.4242
39.7998
45.1695
49.4304
53.7321
57.4548
60.4199
63.1482
65.3763
67.4166
69.1006
70.7833
72.1864
73.5831
75.0391
76.4908
77.9234
79.3965
80.9078
82.4545
84.0287
85.6109
87.1751
88.6941
90.124
91.3996
92.3874
92.906
65.5341
54.9367
45.1087
35.0751
30.5444
34.2515
39.6739
46.065
50.6122
54.4572
58.0326
60.7804
63.2955
65.3253
67.263
68.7859
70.3974
71.8787
73.2365
74.618
76.0831
77.5711
79.0828
80.6064
82.133
83.6532
85.1558
86.6128
87.9852
89.2062
90.1525
90.6445
47.3726
47.4608
41.8254
32.3295
26.0028
27.8046
35.2336
40.0494
46.1836
51.1915
54.8161
58.2425
60.8603
63.2729
65.1269
67.0402
68.5117
69.9425
71.4453
72.9089
74.2948
75.6981
77.1199
78.5722
80.0397
81.5079
82.9507
84.348
85.6613
86.8346
87.7382
88.1993
25.4567
36.2071
35.4228
29.3922
13.2104
10.1393
20.2251
34.6764
40.8887
46.4223
51.6022
55.0884
58.3158
60.7118
63.0526
64.7021
66.5157
68.1281
69.5043
70.8705
72.3324
73.794
75.2609
76.7024
78.1314
79.5376
80.9196
82.2542
83.5104
84.6272
85.4889
85.9237
6.68224
19.4619
19.813
12.6543
8.27096
15.8816
6.74376
11.0699
32.4343
41.1278
46.4007
51.6009
55.0437
58.2315
60.4028
62.764
64.3787
65.8997
67.5272
69.066
70.4323
71.7817
73.1167
74.4887
75.8553
77.213
78.5342
79.8072
81.0015
82.0705
82.8879
83.2879
12.3099
10.827
7.48806
6.72372
4.99576
15.9847
16.71
17.1795
21.8575
29.5648
41.1092
46.5426
51.562
54.7201
57.9013
59.7753
61.9815
63.8605
65.3044
66.6867
68.1989
69.6785
71.143
72.5158
73.8555
75.1482
76.4071
77.6147
78.751
79.7592
80.5333
80.9072
7.79373
9.02552
12.6778
14.0395
15.7902
17.0964
6.34743
3.48608
6.24309
10.2698
28.9702
40.732
46.3198
51.4219
54.2092
57.5055
59.3812
61.0755
62.9622
64.6817
66.0624
67.374
68.6183
69.921
71.1907
72.4381
73.6312
74.7717
75.8379
76.7971
77.5219
77.853
5.49639
11.586
13.0825
4.72252
6.46625
18.8252
19.4961
20.2749
19.8594
9.7298
22.6757
29.2309
40.6754
45.6552
50.9153
53.1693
56.2079
58.6257
60.2096
61.646
63.3006
64.8739
66.4033
67.7327
68.993
70.1674
71.295
72.3646
73.3717
74.2614
74.9411
75.2481
6.64005
16.0389
19.8821
20.7181
16.9483
16.8622
10.4331
17.388
22.8574
20.954
19.9684
22.8513
27.7312
40.4946
44.6803
50.3594
52.6909
54.7238
57.1651
59.2843
60.7284
62.0178
63.1557
64.396
65.5659
66.7
67.7498
68.7395
69.6591
70.4974
71.1175
71.3644
7.9821
18.3325
23.105
26.6371
28.5965
27.0438
17.3611
22.0019
13.245
24.1627
13.2773
9.69067
18.7278
26.8925
39.7103
42.5477
47.8973
51.5292
53.3671
54.9143
56.9192
58.7497
60.4853
61.8215
63.0298
64.0746
65.055
65.9661
66.8294
67.5827
68.1571
68.3876
7.88354
18.3139
24.0724
28.2526
30.8149
31.923
31.7505
24.6078
19.2733
27.1864
19.3441
24.2026
21.3723
22.8114
23.7117
39.0829
41.9236
44.9378
48.8887
51.9534
53.5417
54.8303
55.7855
56.9872
58.0352
59.0525
59.9293
60.7326
61.4696
62.1702
62.6627
62.7928
7.47401
17.1403
23.185
27.9006
31.3596
33.3922
33.5945
32.7865
26.7405
15.3975
16.6361
20.5264
23.7081
21.9098
22.2586
13.1547
33.8079
40.3355
42.3554
44.3174
47.3491
49.878
52.2917
53.743
54.9938
55.89
56.6978
57.4187
58.1183
58.7068
59.1622
59.3025
6.70138
15.593
21.5733
26.2682
29.8411
32.4237
34.044
34.0834
33.0457
28.4734
9.09864
27.8654
2.85436
19.6101
22.4275
21.7295
25.238
22.6919
35.0985
40.4156
42.2877
43.6418
43.9591
45.2243
46.0933
47.0176
47.6501
48.1729
48.6571
49.1841
49.5117
49.4336
5.99053
14.3674
20.0123
24.4946
28.0024
30.6639
32.4506
33.4522
33.2549
32.2204
30.5279
15.0043
28.8082
17.9828
24.1269
23.5689
13.5511
16.7099
26.2548
19.2131
27.6709
33.8342
38.8403
41.0429
42.6086
43.2345
43.8904
44.4125
44.8901
45.3197
45.6001
45.5773
5.23687
13.2321
18.2653
22.2641
25.4583
28.029
30.0112
31.2545
31.821
31.6757
30.8216
31.9782
23.2221
18.9128
27.2223
20.3376
7.98535
16.1559
23.3863
25.4828
21.6376
9.39296
13.2565
11.555
13.9331
17.2405
15.2608
14.7989
14.349
14.7084
14.5548
15.4006
4.62419
12.2634
16.0911
19.1903
21.8504
24.1869
26.1388
27.632
28.5902
29.2316
30.0217
29.4475
31.3638
26.7378
10.6107
24.2368
16.9285
21.1534
25.3834
17.1537
26.7945
7.43972
26.4022
19.5912
6.15284
28.8503
21.378
7.40941
22.271
8.30165
22.6556
31.2863
4.26565
12.4114
13.6695
15.3199
17.0587
18.8998
20.745
22.438
23.9683
25.4612
26.8693
29.1545
29.7648
31.4149
30.956
17.3285
14.8047
19.3203
15.8413
13.9412
20.3851
27.3711
9.87496
5.86959
27.4102
19.2299
10.8328
30.4273
12.4477
30.5832
12.2532
20.8974
3.98302
11.2733
12.1409
12.5834
13.1461
14.0082
15.3137
17.0624
19.0635
21.2014
23.6011
25.4872
28.224
29.9277
31.1286
32.8382
25.5159
15.0241
26.1932
13.8941
13.9808
22.705
7.77321
16.9432
29.0294
23.6875
31.3006
25.9189
9.07931
19.2457
31.9416
26.2482
3.69579
11.5358
11.6279
11.8474
11.9909
12.1991
13.0279
14.6308
16.606
18.6853
20.7306
23.2882
25.3389
27.8165
30.216
31.1382
32.4734
30.2453
20.8838
9.68558
10.1084
29.4807
27.5026
23.8115
12.8931
31.662
23.9373
19.9522
31.8394
24.4961
15.9036
30.5676
3.5637
11.3794
11.6518
11.753
11.8576
12.117
13.2884
15.1228
16.9692
18.6235
20.2614
21.6916
23.6563
25.5796
27.5713
30.2251
31.7202
32.3586
32.6749
29.4947
22.795
6.47052
22.4411
22.7253
11.786
9.66907
31.2914
7.04049
4.53518
32.2502
15.3588
23.7906
2.45689
9.16473
11.3618
11.6945
11.769
11.9816
13.7861
15.9711
17.8973
19.5055
20.8245
22.151
23.2099
24.4777
26.0904
27.6451
29.8073
31.8106
32.4507
32.5131
32.0258
31.4806
26.9606
22.8163
20.5459
19.0082
19.2748
19.1053
19.0965
19.2532
18.4508
19.0315
2.22038
8.44577
10.7589
11.4001
11.6993
13.1604
15.5163
17.657
19.3882
20.7994
22.0174
22.9751
23.9162
24.6954
25.405
26.5816
27.9481
29.5644
31.4253
32.5589
32.437
31.7307
31.3662
31.0423
30.7538
30.5221
30.0303
29.7179
29.422
29.2431
29.4656
29.4549
2.87274
9.71535
11.5687
11.5286
12.8238
15.2185
17.5193
19.4314
21.0122
22.3373
23.4353
24.397
25.1071
25.673
26.164
26.4813
27.0884
28.1685
29.4327
30.7137
31.7087
31.9905
31.4517
30.4484
29.3407