/*--------------------------------*- C++ -*----------------------------------*\
  =========                 |
  \\      /  F ield         | OpenFOAM: The Open Source CFD Toolbox
   \\    /   O peration     | Website:  https://openfoam.org
    \\  /    A nd           | Version:  6
     \\/     M anipulation  |
\*---------------------------------------------------------------------------*/
FoamFile
{
    version     2.0;
    format      ascii;
    class       volScalarField;
    location    "15";
    object      omega;
}
// * * * * * * * * * * * * * * * * * * * * * * * * * * * * * * * * * * * * * //

dimensions      [0 0 -1 0 0 0 0];

internalField   nonuniform List<scalar> 
380496
(
843.917
843.917
843.917
843.917
843.917
843.917
843.917
843.917
843.917
843.917
843.917
843.917
843.917
843.917
843.917
843.917
843.917
843.917
843.917
843.917
843.917
843.917
843.917
843.917
843.917
843.917
843.917
843.917
843.917
843.917
843.917
843.917
843.917
843.917
843.917
843.917
843.917
843.917
843.917
843.917
843.917
843.917
843.917
843.917
843.917
843.917
843.917
843.917
843.917
843.917
843.917
843.917
843.917
843.917
843.917
843.917
843.917
843.917
843.917
843.917
843.917
843.917
843.917
843.917
843.917
843.917
843.917
843.917
843.917
843.917
843.917
843.917
843.917
843.917
843.917
843.917
843.917
843.917
843.917
843.917
843.917
843.917
843.917
843.917
843.917
843.917
843.917
843.917
843.917
843.917
843.917
843.917
843.917
843.917
843.917
843.917
843.917
843.917
843.917
843.917
843.917
843.917
843.917
843.917
843.917
843.917
843.917
843.917
843.917
843.917
843.917
843.917
843.917
843.917
843.917
843.917
843.917
843.917
843.917
843.917
843.917
843.917
843.917
843.917
843.917
843.917
843.917
843.917
843.917
843.917
843.917
843.917
843.917
843.917
843.917
843.917
843.917
843.917
843.917
843.917
843.917
843.917
843.917
843.917
843.917
843.917
843.917
843.917
843.917
843.917
843.917
843.917
843.917
843.917
843.917
843.917
843.917
843.917
843.917
843.917
843.917
843.917
843.917
843.917
843.917
843.917
843.917
843.917
843.917
843.917
843.917
843.917
843.917
843.917
843.917
843.917
843.917
843.917
843.917
843.917
843.917
843.917
843.917
843.917
843.917
843.917
843.917
843.917
843.917
843.917
843.917
843.917
843.917
843.917
843.917
843.917
843.917
843.917
843.917
843.917
843.917
843.917
843.917
843.917
843.917
843.917
843.917
843.917
843.917
843.917
843.917
843.917
843.917
843.917
843.917
843.917
843.917
843.917
843.917
843.917
843.917
843.917
843.917
843.917
843.917
843.917
843.917
843.917
843.917
843.917
843.917
843.917
843.917
843.917
843.917
843.917
843.917
843.917
843.917
843.917
843.917
843.917
843.917
843.917
843.917
843.917
843.917
843.917
843.917
843.917
843.917
843.917
843.917
843.917
843.917
843.917
843.917
843.917
843.917
843.917
843.917
843.917
843.917
843.917
843.917
843.917
843.917
843.917
843.917
843.917
843.917
843.917
843.917
843.917
843.917
843.917
843.917
843.917
843.917
843.917
843.917
843.917
843.917
843.917
843.917
843.917
843.917
843.917
843.917
843.917
843.917
843.917
843.917
843.917
843.917
843.917
843.917
843.917
843.917
843.917
843.917
843.917
843.917
843.917
843.917
843.917
843.917
843.917
843.917
843.917
843.917
843.917
843.917
843.917
843.917
843.917
843.917
843.917
843.917
843.917
843.917
843.917
843.917
843.917
843.917
843.917
843.917
843.917
843.917
843.917
843.917
843.917
843.917
843.917
843.917
843.917
843.917
843.917
843.917
843.917
843.917
843.917
843.917
843.917
843.917
843.917
843.917
843.917
843.917
843.917
843.917
843.917
843.917
843.917
843.917
843.917
843.917
843.917
843.917
843.917
843.917
843.917
843.917
843.917
843.917
843.917
843.917
843.917
843.917
843.917
843.917
843.917
843.917
843.917
843.917
843.917
843.917
843.917
843.917
843.917
843.917
843.917
843.917
843.917
843.917
843.917
843.917
843.917
843.917
843.917
843.917
843.917
843.917
843.917
843.917
843.917
843.917
843.917
843.917
843.917
843.917
843.917
843.917
843.917
843.917
843.917
843.917
843.917
843.917
843.917
843.917
843.917
843.917
843.917
843.917
843.917
843.917
843.917
843.917
843.917
843.917
843.917
843.917
843.917
843.917
843.917
843.917
843.917
843.917
843.917
843.917
843.917
843.917
843.917
843.917
843.917
843.917
843.917
843.917
843.917
843.917
843.917
843.917
843.917
843.917
843.917
843.917
843.917
843.917
843.917
843.917
843.917
843.917
843.917
843.917
843.917
843.917
843.917
843.917
843.917
843.917
843.917
843.917
843.917
843.917
843.917
843.917
843.917
843.917
843.917
843.917
843.917
843.917
843.917
843.917
843.917
843.917
843.917
843.917
843.917
843.917
843.917
843.917
843.917
843.917
843.917
843.917
843.917
843.917
843.917
843.917
843.917
843.917
843.917
843.917
843.917
843.917
843.917
843.917
843.917
843.917
843.917
843.917
843.917
843.917
843.917
843.917
843.917
843.917
843.917
843.917
843.917
843.917
843.917
843.917
843.917
843.917
843.917
843.917
843.917
843.917
843.917
843.917
843.917
843.917
843.917
843.917
843.917
843.917
843.917
843.917
843.917
843.917
843.917
843.917
843.917
843.917
843.917
843.917
843.917
843.917
843.917
843.917
843.917
843.917
843.917
843.917
843.917
843.917
843.917
843.917
843.917
843.917
843.917
843.917
843.917
843.917
843.917
843.917
843.917
843.917
843.917
843.917
843.917
843.917
843.917
843.917
843.917
843.917
843.917
843.917
843.917
843.917
843.917
843.917
843.917
843.917
843.917
843.917
843.917
843.917
843.917
843.917
843.917
843.917
843.917
843.917
843.917
843.917
843.917
843.917
843.917
843.917
843.917
843.917
843.917
843.917
843.917
843.917
843.917
843.917
843.917
843.917
843.917
843.917
843.917
843.917
843.917
843.917
843.917
843.917
843.917
843.917
843.917
843.917
843.917
843.917
843.917
843.917
843.917
843.917
843.917
843.917
843.917
843.917
843.917
843.917
843.917
843.917
843.917
843.917
843.917
843.917
843.917
843.917
843.917
843.917
843.917
843.917
843.917
843.917
843.917
843.917
843.917
843.917
843.917
843.917
843.917
843.917
843.917
843.917
843.917
843.917
843.917
843.917
843.917
843.917
843.917
843.917
843.917
843.917
843.917
843.917
843.917
843.917
843.917
843.917
843.917
843.917
843.917
843.917
843.917
843.917
843.917
843.917
843.917
843.917
843.917
843.917
843.917
843.917
843.917
843.917
843.917
843.917
843.917
843.917
843.917
843.917
843.917
843.917
843.917
843.917
843.917
843.917
843.917
843.917
843.917
843.917
843.917
423.923
423.923
423.923
423.923
423.923
423.923
423.923
423.923
423.923
423.923
423.923
423.923
423.923
423.923
423.923
423.923
423.923
423.923
423.923
423.923
423.923
423.923
423.923
423.923
423.923
423.923
423.923
423.923
423.923
423.923
423.923
423.923
423.923
423.923
423.923
281.629
267.584
268.723
269.801
269.898
269.739
269.63
269.562
269.532
269.506
269.5
269.49
269.495
269.494
269.504
269.508
269.523
269.531
269.549
269.561
269.583
269.598
269.625
269.643
269.676
269.697
269.737
269.759
269.807
269.827
269.88
269.898
269.95
269.969
270.003
281.467
267.57
268.645
269.678
269.747
269.586
269.469
269.406
269.37
269.352
269.342
269.342
269.344
269.354
269.364
269.379
269.395
269.415
269.436
269.46
269.486
269.516
269.546
269.582
269.615
269.66
269.694
269.75
269.778
269.848
269.861
269.951
269.924
270.054
269.897
281.132
267.395
268.471
269.47
269.514
269.346
269.226
269.165
269.13
269.118
269.112
269.12
269.129
269.149
269.166
269.194
269.217
269.254
269.281
269.326
269.358
269.411
269.448
269.511
269.552
269.624
269.669
269.75
269.797
269.883
269.93
270.02
270.051
270.161
270.102
280.564
267.016
268.173
269.147
269.158
268.977
268.853
268.795
268.764
268.76
268.761
268.78
268.796
268.829
268.854
268.898
268.93
268.983
269.021
269.084
269.128
269.201
269.251
269.334
269.391
269.485
269.546
269.65
269.713
269.828
269.885
270.013
270.041
270.208
270.118
280.147
266.78
267.826
268.731
268.722
268.537
268.414
268.357
268.33
268.331
268.338
268.365
268.389
268.432
268.468
268.523
268.567
268.634
268.685
268.764
268.823
268.914
268.981
269.085
269.159
269.277
269.357
269.487
269.57
269.713
269.79
269.95
269.999
270.207
270.131
279.34
266.188
267.271
268.131
268.09
267.895
267.774
267.723
267.705
267.717
267.737
267.776
267.814
267.871
267.921
267.992
268.051
268.135
268.203
268.301
268.377
268.489
268.575
268.702
268.796
268.938
269.039
269.196
269.301
269.472
269.574
269.763
269.837
270.08
270.021
278.499
265.57
266.59
267.38
267.312
267.111
266.992
266.947
266.938
266.959
266.991
267.042
267.094
267.164
267.229
267.314
267.39
267.49
267.576
267.691
267.788
267.92
268.027
268.176
268.293
268.459
268.585
268.767
268.898
269.097
269.225
269.447
269.544
269.831
269.783
277.443
264.751
265.705
266.419
266.323
266.118
266.005
265.968
265.972
266.005
266.05
266.115
266.182
266.266
266.347
266.448
266.541
266.658
266.762
266.897
267.014
267.166
267.295
267.466
267.607
267.797
267.947
268.156
268.312
268.539
268.694
268.946
269.07
269.395
269.361
276.189
263.731
264.627
265.263
265.136
264.928
264.825
264.802
264.821
264.87
264.933
265.014
265.098
265.198
265.296
265.414
265.525
265.66
265.784
265.937
266.075
266.248
266.399
266.592
266.756
266.969
267.144
267.378
267.559
267.813
267.994
268.276
268.423
268.786
268.765
274.955
262.703
263.449
263.995
263.848
263.643
263.549
263.536
263.568
263.629
263.705
263.798
263.896
264.009
264.122
264.254
264.38
264.53
264.672
264.842
264.998
265.189
265.36
265.573
265.758
265.993
266.19
266.446
266.65
266.929
267.132
267.44
267.61
268.004
267.994
273.277
261.258
261.954
262.422
262.247
262.047
261.973
261.983
262.038
262.122
262.22
262.333
262.45
262.582
262.713
262.862
263.008
263.176
263.336
263.525
263.701
263.912
264.105
264.338
264.545
264.802
265.021
265.3
265.527
265.829
266.055
266.389
266.58
267.005
267.005
271.661
259.85
260.312
260.676
260.486
260.297
260.237
260.26
260.33
260.426
260.538
260.664
260.795
260.94
261.086
261.249
261.411
261.594
261.772
261.977
262.172
262.401
262.613
262.866
263.094
263.371
263.612
263.913
264.162
264.486
264.735
265.092
265.304
265.758
265.766
269.373
257.803
258.186
258.472
258.265
258.097
258.071
258.129
258.232
258.358
258.497
258.646
258.801
258.966
259.133
259.315
259.498
259.699
259.898
260.123
260.339
260.588
260.822
261.096
261.346
261.645
261.909
262.232
262.504
262.851
263.122
263.503
263.735
264.218
264.234
267.102
255.734
255.824
256.003
255.789
255.645
255.644
255.725
255.849
255.994
256.152
256.318
256.49
256.671
256.857
257.054
257.255
257.473
257.691
257.933
258.17
258.438
258.693
258.987
259.26
259.579
259.865
260.21
260.505
260.874
261.167
261.571
261.824
262.333
262.356
264.032
252.897
252.815
252.918
252.707
252.607
252.657
252.784
252.947
253.128
253.316
253.509
253.707
253.911
254.119
254.337
254.56
254.798
255.039
255.301
255.561
255.849
256.128
256.443
256.74
257.081
257.391
257.758
258.076
258.469
258.785
259.212
259.486
260.022
260.053
260.551
249.612
249.24
249.27
249.077
249.029
249.128
249.303
249.503
249.72
249.936
250.157
250.378
250.605
250.834
251.073
251.317
251.574
251.836
252.117
252.4
252.707
253.01
253.345
253.666
254.028
254.363
254.751
255.095
255.508
255.849
256.298
256.595
257.155
257.193
256.376
245.606
244.856
244.805
244.643
244.665
244.824
245.049
245.286
245.536
245.777
246.024
246.263
246.511
246.756
247.014
247.274
247.55
247.83
248.13
248.433
248.758
249.084
249.438
249.783
250.165
250.526
250.936
251.305
251.745
252.11
252.589
252.91
253.501
253.555
249.996
239.624
238.825
238.826
238.728
238.848
239.093
239.395
239.688
239.99
240.264
240.546
240.806
241.08
241.34
241.621
241.894
242.191
242.486
242.807
243.128
243.477
243.825
244.207
244.581
244.997
245.389
245.837
246.239
246.715
247.115
247.626
247.987
248.599
248.699
240.797
231.46
230.49
230.66
230.734
230.987
231.303
231.637
231.937
232.236
232.498
232.771
233.018
233.288
233.539
233.822
234.092
234.397
234.694
235.027
235.366
235.757
236.145
236.574
236.995
237.456
237.905
238.394
238.858
239.38
239.847
240.405
240.844
241.487
241.712
214.295
212.13
212.39
213.32
213.96
214.703
215.435
216.12
216.734
217.319
217.853
218.382
218.877
219.383
219.862
220.364
220.843
221.353
221.842
222.366
222.871
223.412
223.935
224.492
225.032
225.602
226.157
226.735
227.301
227.878
228.448
229.013
229.58
230.085
230.804
9.02162
7.66423
7.59254
7.56072
7.61473
7.6884
7.7825
7.87723
7.982
8.07845
8.1803
8.27126
8.36727
8.45229
8.54377
8.62468
8.71392
8.79251
8.88168
8.95921
9.05006
9.1267
9.22071
9.29557
9.39453
9.46542
9.57181
9.63469
9.75239
9.80048
9.93585
9.957
10.121
10.088
10.2993
135.248
128.879
128.552
129.045
129.242
129.234
129.181
129.13
129.092
129.063
129.042
129.028
129.018
129.013
129.011
129.013
129.017
129.023
129.032
129.043
129.056
129.073
129.09
129.112
129.134
129.164
129.191
129.23
129.261
129.314
129.347
129.42
129.45
129.556
129.579
135.076
128.679
128.313
128.782
128.966
128.953
128.896
128.844
128.805
128.776
128.756
128.744
128.737
128.735
128.736
128.741
128.75
128.761
128.774
128.791
128.81
128.831
128.856
128.883
128.915
128.947
128.988
129.023
129.078
129.114
129.188
129.219
129.315
129.345
129.438
134.794
128.386
128.005
128.46
128.634
128.617
128.558
128.505
128.466
128.44
128.423
128.414
128.411
128.414
128.421
128.432
128.447
128.465
128.487
128.51
128.539
128.568
128.603
128.639
128.682
128.724
128.777
128.825
128.887
128.945
129.015
129.088
129.151
129.27
129.27
134.361
127.975
127.613
128.064
128.228
128.204
128.141
128.088
128.051
128.027
128.014
128.01
128.013
128.022
128.035
128.053
128.075
128.1
128.129
128.161
128.197
128.235
128.28
128.324
128.377
128.428
128.491
128.548
128.623
128.685
128.772
128.841
128.933
129.028
129.083
134.043
127.65
127.238
127.653
127.8
127.768
127.702
127.647
127.609
127.587
127.575
127.574
127.58
127.593
127.611
127.634
127.661
127.692
127.727
127.766
127.81
127.856
127.908
127.961
128.023
128.083
128.156
128.222
128.308
128.38
128.477
128.558
128.657
128.77
128.823
133.489
127.122
126.721
127.122
127.255
127.214
127.144
127.09
127.054
127.036
127.029
127.034
127.046
127.066
127.091
127.121
127.156
127.195
127.238
127.285
127.337
127.392
127.453
127.515
127.587
127.656
127.739
127.815
127.909
127.991
128.097
128.189
128.293
128.42
128.472
132.924
126.585
126.16
126.529
126.641
126.59
126.516
126.46
126.426
126.411
126.409
126.418
126.436
126.461
126.492
126.529
126.57
126.616
126.667
126.722
126.782
126.845
126.915
126.986
127.066
127.145
127.237
127.322
127.426
127.518
127.633
127.734
127.847
127.985
128.043
132.248
125.943
125.496
125.831
125.921
125.859
125.78
125.724
125.692
125.681
125.684
125.699
125.722
125.754
125.792
125.835
125.884
125.937
125.995
126.058
126.126
126.197
126.275
126.355
126.444
126.532
126.632
126.727
126.839
126.941
127.064
127.176
127.293
127.444
127.501
131.463
125.209
124.747
125.046
125.111
125.036
124.953
124.898
124.87
124.865
124.874
124.896
124.927
124.966
125.011
125.062
125.118
125.179
125.245
125.316
125.391
125.471
125.557
125.646
125.743
125.84
125.949
126.053
126.174
126.284
126.415
126.536
126.659
126.822
126.879
130.701
124.496
123.979
124.226
124.263
124.177
124.091
124.037
124.012
124.01
124.024
124.051
124.088
124.132
124.183
124.24
124.302
124.37
124.442
124.519
124.602
124.689
124.782
124.879
124.983
125.088
125.204
125.316
125.444
125.563
125.7
125.831
125.958
126.132
126.188
129.711
123.569
123.042
123.253
123.263
123.164
123.077
123.027
123.009
123.016
123.04
123.076
123.121
123.174
123.233
123.298
123.368
123.444
123.524
123.609
123.7
123.795
123.896
124
124.113
124.226
124.35
124.471
124.606
124.733
124.877
125.016
125.148
125.334
125.388
128.745
122.677
122.06
122.199
122.175
122.064
121.975
121.927
121.913
121.925
121.954
121.996
122.047
122.107
122.172
122.243
122.319
122.401
122.488
122.58
122.678
122.78
122.889
123.001
123.121
123.242
123.374
123.502
123.645
123.78
123.931
124.079
124.215
124.412
124.464
127.448
121.46
120.821
120.916
120.862
120.74
120.654
120.615
120.614
120.638
120.679
120.732
120.794
120.864
120.938
121.019
121.104
121.195
121.29
121.391
121.497
121.608
121.725
121.846
121.974
122.104
122.244
122.381
122.532
122.676
122.834
122.991
123.132
123.341
123.391
126.136
120.247
119.484
119.491
119.397
119.265
119.18
119.148
119.154
119.187
119.237
119.299
119.37
119.447
119.53
119.618
119.711
119.81
119.913
120.022
120.136
120.256
120.381
120.51
120.647
120.786
120.934
121.08
121.239
121.392
121.558
121.724
121.87
122.091
122.138
124.43
118.648
117.81
117.753
117.625
117.486
117.411
117.394
117.417
117.466
117.531
117.607
117.69
117.778
117.872
117.971
118.074
118.182
118.295
118.414
118.537
118.666
118.801
118.94
119.086
119.234
119.392
119.548
119.716
119.878
120.052
120.228
120.38
120.615
120.659
122.481
116.821
115.841
115.7
115.534
115.392
115.328
115.327
115.367
115.433
115.513
115.603
115.698
115.799
115.903
116.012
116.125
116.243
116.366
116.493
116.626
116.764
116.908
117.057
117.213
117.371
117.538
117.703
117.881
118.053
118.236
118.422
118.581
118.829
118.87
120.129
114.623
113.442
113.184
112.972
112.83
112.783
112.804
112.861
112.944
113.038
113.14
113.245
113.356
113.469
113.586
113.706
113.832
113.963
114.099
114.24
114.387
114.54
114.698
114.863
115.032
115.209
115.385
115.573
115.757
115.952
116.15
116.322
116.586
116.631
116.507
111.184
110.004
109.758
109.544
109.42
109.396
109.441
109.518
109.618
109.724
109.838
109.951
110.071
110.191
110.318
110.446
110.581
110.72
110.867
111.019
111.178
111.343
111.516
111.697
111.882
112.078
112.273
112.481
112.684
112.899
113.115
113.308
113.585
113.652
111.045
106.318
104.833
104.497
104.269
104.17
104.171
104.24
104.334
104.455
104.577
104.714
104.847
104.994
105.138
105.296
105.452
105.622
105.792
105.978
106.164
106.36
106.559
106.767
106.98
107.2
107.427
107.656
107.896
108.133
108.383
108.632
108.871
109.17
109.316
95.7371
95.7824
94.6634
94.3727
94.167
94.1431
94.26
94.4605
94.6971
94.9604
95.2272
95.5048
95.7779
96.0586
96.3334
96.6158
96.8929
97.1781
97.4589
97.7483
98.035
98.3303
98.6239
98.9252
99.2256
99.5324
99.8384
100.149
100.459
100.771
101.083
101.388
101.712
101.971
102.389
11.4423
9.87675
9.8428
9.88834
10.0058
10.1306
10.2685
10.3986
10.5354
10.6582
10.785
10.8966
11.0131
11.1151
11.2241
11.3197
11.4247
11.5163
11.6203
11.7098
11.8149
11.9028
12.0109
12.0964
12.2095
12.2903
12.4113
12.4831
12.6163
12.6719
12.8239
12.8518
13.0323
13.0115
13.2291
79.7825
77.2363
76.6744
76.7669
76.8922
76.9352
76.9273
76.9034
76.8757
76.8523
76.8311
76.8157
76.802
76.7936
76.7859
76.783
76.7799
76.7812
76.7816
76.7868
76.79
76.7989
76.8042
76.8175
76.8243
76.8433
76.8508
76.8772
76.8842
76.9212
76.9256
76.9791
76.9766
77.0542
77.0462
79.595
77.0489
76.4705
76.5476
76.6647
76.7021
76.6914
76.6644
76.636
76.6108
76.5905
76.5745
76.5629
76.5546
76.5499
76.5476
76.5482
76.5506
76.5555
76.5617
76.5705
76.5798
76.5929
76.6043
76.6233
76.6351
76.6628
76.6719
76.7134
76.7147
76.7771
76.7641
76.8532
76.8209
76.9431
79.3539
76.8067
76.2186
76.2867
76.398
76.4312
76.418
76.3891
76.36
76.3346
76.3153
76.3001
76.2908
76.2841
76.2828
76.2825
76.2875
76.292
76.3026
76.3107
76.3265
76.3376
76.3587
76.3724
76.3991
76.4156
76.4482
76.4683
76.5059
76.5327
76.5714
76.6142
76.6392
76.722
76.7048
79.0384
76.4931
75.9091
75.9764
76.084
76.1129
76.0965
76.0656
76.036
76.0108
75.993
75.9794
75.9729
75.9685
75.9709
75.9734
75.9829
75.9903
76.006
76.0174
76.0387
76.0533
76.0805
76.0979
76.1314
76.1512
76.192
76.2134
76.2631
76.2852
76.3449
76.3688
76.4342
76.4674
76.5318
78.7525
76.218
75.6164
75.6641
75.7585
75.7794
75.7577
75.7233
75.6915
75.6652
75.6471
75.6339
75.6284
75.6255
75.6299
75.6344
75.6466
75.6567
75.6756
75.6901
75.7153
75.7333
75.765
75.786
75.8248
75.848
75.895
75.9197
75.9761
76.0019
76.0679
76.0973
76.1659
76.2112
76.2694
78.3535
75.8242
75.227
75.2707
75.3579
75.3721
75.3458
75.3088
75.2761
75.2502
75.2335
75.2224
75.2196
75.2197
75.2274
75.2355
75.2514
75.2653
75.2884
75.3068
75.3366
75.3587
75.3955
75.4205
75.4647
75.4922
75.5445
75.5739
75.6352
75.6662
75.7359
75.7717
75.8416
75.8946
75.9514
77.928
75.4142
74.8115
74.8409
74.9146
74.9192
74.8863
74.8455
74.8108
74.7845
74.7683
74.7588
74.7579
74.7605
74.7708
74.7819
74.8009
74.8182
74.8447
74.8669
74.9004
74.9266
74.9673
74.9968
75.0451
75.0771
75.134
75.1675
75.2341
75.2684
75.3444
75.3822
75.4596
75.5126
75.5794
77.4333
74.9365
74.3309
74.3454
74.4043
74.3978
74.3577
74.3129
74.2763
74.2499
74.2347
74.227
74.2282
74.2337
74.2468
74.2612
74.2835
74.3044
74.3344
74.3605
74.3978
74.4281
74.4728
74.5064
74.5591
74.5953
74.6566
74.6944
74.7653
74.8041
74.8836
74.9264
75.0057
75.0647
75.131
76.8736
74.4023
73.7985
73.7989
73.8414
73.8222
73.7741
73.7253
73.6873
73.6615
73.6479
73.6428
73.6469
73.6557
73.6722
73.6903
73.716
73.7408
73.7744
73.8045
73.8456
73.8799
73.9286
73.9664
74.0231
74.0636
74.129
74.171
74.246
74.2889
74.3724
74.4192
74.5017
74.5648
74.6334
76.3104
73.8743
73.2586
73.2339
73.2554
73.2223
73.1662
73.1132
73.0735
73.0478
73.0352
73.0321
73.0384
73.0498
73.0689
73.0901
73.1187
73.1468
73.1835
73.217
73.2614
73.2994
73.3514
73.393
73.4533
73.4975
73.5667
73.6124
73.691
73.7376
73.8244
73.8751
73.9598
74.0273
74.0966
75.627
73.2228
72.6139
72.5759
72.5792
72.5319
72.4675
72.4111
72.3712
72.3473
72.3376
72.3381
72.3481
72.3636
72.3866
72.4118
72.4442
72.4765
72.5169
72.5545
72.6026
72.6447
72.7006
72.7463
72.8104
72.8587
72.9318
72.9815
73.064
73.1145
73.2048
73.2595
73.3467
73.4188
73.4889
74.9228
72.5724
71.9392
71.8627
71.8364
71.7711
71.6974
71.637
71.596
71.573
71.5652
71.5683
71.5812
71.5999
71.626
71.6547
71.6904
71.7262
71.77
71.8114
71.863
71.9089
71.9684
72.0181
72.086
72.1383
72.2152
72.2688
72.3552
72.4095
72.5034
72.5621
72.6518
72.7286
72.7993
74.0388
71.7344
71.1047
71.0098
70.9606
70.8788
70.797
70.7344
70.6949
70.6754
70.672
70.6801
70.6978
70.7216
70.7523
70.7859
70.8259
70.8665
70.9145
70.9605
71.0163
71.0669
71.1305
71.1848
71.2569
71.3137
71.3949
71.453
71.5436
71.6022
71.7
71.7632
71.8558
71.9377
72.0092
73.1016
70.8709
70.2029
70.0568
69.9695
69.8661
69.7748
69.7094
69.6707
69.6542
69.6546
69.6671
69.6893
69.7178
69.7529
69.7912
69.8355
69.8807
69.9328
69.9836
70.0434
70.0988
70.1667
70.2256
70.3021
70.3636
70.4493
70.512
70.6071
70.6702
70.7723
70.84
70.9358
71.0233
71.0952
71.9316
69.7753
69.0899
68.9083
68.7878
68.6646
68.5659
68.5002
68.4652
68.4541
68.4606
68.4793
68.5075
68.542
68.5826
68.6265
68.6758
68.7264
68.7833
68.8394
68.9038
68.9645
69.037
69.1013
69.1824
69.2491
69.3396
69.4073
69.5074
69.5753
69.6823
69.755
69.8546
69.9485
70.0216
70.575
68.5117
67.7778
67.5405
67.378
67.2322
67.1256
67.0597
67.0289
67.0235
67.0366
67.0619
67.0965
67.137
67.1833
67.2327
67.287
67.3428
67.4042
67.4654
67.5341
67.6
67.6768
67.7465
67.8321
67.9043
67.9995
68.0726
68.1778
68.2509
68.3632
68.4408
68.5452
68.6448
68.7196
68.9305
66.9871
66.1747
65.8552
65.635
65.4621
65.3479
65.2828
65.2565
65.2561
65.2745
65.3039
65.3426
65.3863
65.4358
65.488
65.5452
65.604
65.6685
65.7335
65.8057
65.8763
65.9569
66.032
66.122
66.2
66.3006
66.3793
66.4915
66.5689
66.6906
66.7711
66.8858
66.9913
67.0723
66.5752
64.6695
63.8501
63.5261
63.2868
63.099
62.9771
62.9074
62.8781
62.8745
62.8906
62.9173
62.9547
62.9971
63.0474
63.1005
63.1608
63.223
63.2924
63.3628
63.4415
63.5192
63.6079
63.6909
63.7907
63.8773
63.9891
64.0769
64.2014
64.2881
64.4231
64.5121
64.6422
64.7533
64.8529
63.0741
61.5354
60.4577
59.9522
59.6023
59.3583
59.2098
59.1293
59.0994
59.1017
59.1297
59.1718
59.2293
59.2933
59.369
59.4478
59.5369
59.6275
59.7275
59.8289
59.9403
60.0468
60.1626
60.2729
60.3954
60.5098
60.6413
60.7575
60.9001
61.0137
61.1678
61.2795
61.4353
61.5591
61.7034
55.4844
57.2196
56.1488
55.3608
54.7617
54.3508
54.1128
53.9895
53.9531
53.9649
54.0193
54.0915
54.1883
54.2895
54.4084
54.5253
54.6572
54.7838
54.9245
55.0578
55.2054
55.345
55.4985
55.6442
55.8024
55.9542
56.1156
56.2731
56.4366
56.5976
56.7655
56.9195
57.1088
57.2243
57.4892
13.0137
11.4078
11.4216
11.5514
11.7368
11.9111
12.0869
12.2436
12.4016
12.5392
12.6789
12.7992
12.9241
13.0313
13.1461
13.2447
13.3539
13.4472
13.5543
13.6447
13.7523
13.8405
13.9507
14.0362
14.1513
14.232
14.3548
14.4268
14.5613
14.6183
14.7703
14.8028
14.9793
14.9735
15.1759
52.8625
51.8612
51.4544
51.3871
51.4237
51.4582
51.467
51.4611
51.4455
51.43
51.4128
51.3995
51.3858
51.3766
51.3669
51.3616
51.3552
51.3532
51.3493
51.3503
51.3481
51.3521
51.3506
51.358
51.3562
51.3679
51.3649
51.3818
51.3765
51.4007
51.3912
51.4262
51.4103
51.4595
51.4384
52.6912
51.7
51.2905
51.2154
51.2473
51.2766
51.2835
51.274
51.258
51.2398
51.2234
51.2082
51.1963
51.1859
51.1785
51.1724
51.1689
51.1663
51.1662
51.1661
51.1691
51.1705
51.1771
51.1786
51.1904
51.1894
51.2093
51.2023
51.2349
51.2166
51.2681
51.2321
51.3093
51.2463
51.3631
52.4925
51.5063
51.094
51.0138
51.0421
51.0681
51.0728
51.061
51.0437
51.0242
51.0077
50.992
50.9809
50.9703
50.9648
50.9586
50.9581
50.9551
50.959
50.9582
50.9661
50.9668
50.9786
50.9803
50.9958
50.9987
51.0174
51.0224
51.0424
51.0533
51.0695
51.0947
51.0958
51.1497
51.1228
52.255
51.2695
50.8586
50.7784
50.8056
50.8294
50.8317
50.8177
50.7992
50.7785
50.7622
50.7462
50.7364
50.7261
50.7228
50.7171
50.7195
50.7172
50.7244
50.7246
50.7362
50.738
50.754
50.7566
50.7774
50.7801
50.8062
50.8081
50.8407
50.8408
50.8809
50.8788
50.926
50.9205
50.9818
52.0124
51.0413
50.6281
50.5396
50.5586
50.5758
50.5732
50.5554
50.5343
50.5116
50.4941
50.4774
50.4676
50.4573
50.4548
50.4497
50.4533
50.4519
50.4608
50.462
50.4759
50.4788
50.4976
50.5012
50.5254
50.5289
50.5591
50.5617
50.5987
50.6
50.6436
50.6454
50.6922
50.6978
50.7485
51.7113
50.7438
50.3343
50.2457
50.2617
50.275
50.2684
50.2475
50.2241
50.2003
50.1822
50.1656
50.1563
50.147
50.1457
50.142
50.1474
50.1476
50.1588
50.1617
50.1782
50.1827
50.2046
50.2099
50.2374
50.2428
50.2762
50.2812
50.3208
50.3254
50.3704
50.3767
50.4233
50.4344
50.4833
51.3809
50.4248
50.0173
49.9241
49.933
49.9393
49.9269
49.9017
49.8752
49.8495
49.8303
49.8135
49.8044
49.7957
49.7953
49.7928
49.7994
49.8012
49.8139
49.8186
49.8368
49.8433
49.8671
49.8745
49.9042
49.9116
49.9477
49.9541
49.9975
50.0024
50.0528
50.0575
50.1115
50.1184
50.178
51.0013
50.0571
49.6537
49.5565
49.5576
49.556
49.5368
49.5068
49.4768
49.4492
49.4289
49.4119
49.403
49.3952
49.3958
49.3946
49.4027
49.4062
49.4206
49.4271
49.4473
49.4558
49.4818
49.4912
49.5233
49.5326
49.5714
49.5798
49.6257
49.6329
49.6853
49.6928
49.7479
49.7582
49.8174
50.5804
49.6502
49.2541
49.154
49.147
49.1365
49.1097
49.0744
49.0408
49.0113
48.9901
48.9732
48.9648
48.9582
48.9598
48.9603
48.9699
48.9752
48.9913
48.9998
49.0218
49.0323
49.0603
49.0718
49.1061
49.1175
49.1586
49.169
49.2175
49.2263
49.2815
49.2905
49.3483
49.3597
49.4219
50.1474
49.2386
48.8457
48.7371
48.7178
48.6963
48.6611
48.6202
48.583
48.5518
48.5296
48.5128
48.5048
48.4992
48.5019
48.5039
48.5147
48.5217
48.5394
48.5497
48.5735
48.5859
48.6158
48.6292
48.6654
48.6788
48.7221
48.7343
48.785
48.7957
48.8531
48.8638
48.9235
48.9366
49.0003
49.6404
48.7496
48.368
48.2584
48.2304
48.1986
48.1548
48.1081
48.0672
48.0343
48.0115
47.9953
47.9881
47.984
47.988
47.9919
48.0044
48.0134
48.0328
48.0452
48.0709
48.0854
48.1172
48.1327
48.1712
48.1865
48.2321
48.2463
48.2994
48.312
48.3717
48.3842
48.446
48.4609
48.5264
49.0986
48.2405
47.8589
47.7337
47.6867
47.6393
47.5849
47.5318
47.4874
47.453
47.4298
47.4144
47.4081
47.4056
47.4112
47.417
47.4312
47.4424
47.4636
47.4782
47.5058
47.5225
47.5565
47.5742
47.6148
47.6323
47.6803
47.6965
47.7521
47.7666
47.8288
47.8433
47.9072
47.924
47.9912
48.4419
47.6137
47.2452
47.1172
47.0581
46.9974
46.9327
46.8731
46.8251
46.7895
46.7662
46.7519
46.7469
46.7464
46.7537
46.7619
46.778
46.7917
46.8148
46.832
46.8616
46.8809
46.917
46.9372
46.9802
47.0001
47.0506
47.0692
47.1275
47.1441
47.209
47.2256
47.2919
47.3109
47.3801
47.7237
46.9425
46.5698
46.4189
46.3339
46.2532
46.176
46.1095
46.0583
46.022
45.9994
45.9867
45.9836
45.9857
45.9953
46.0063
46.0246
46.0412
46.0666
46.0867
46.1186
46.1407
46.1792
46.2022
46.2477
46.2703
46.3236
46.3446
46.4059
46.4248
46.4927
46.5116
46.5806
46.6019
46.6732
46.8461
46.1178
45.7529
45.5894
45.483
45.3831
45.2933
45.2196
45.1652
45.1281
45.1061
45.095
45.0937
45.0983
45.1098
45.1236
45.1439
45.1634
45.1908
45.2138
45.2477
45.2729
45.3135
45.3395
45.3874
45.4128
45.4688
45.4925
45.5568
45.5781
45.6494
45.6705
45.7428
45.7665
45.8409
45.8228
45.1591
44.7867
44.5959
44.4585
44.3345
44.2301
44.1482
44.0904
44.0524
44.0312
44.0217
44.0224
44.0292
44.0427
44.0589
44.081
44.103
44.1319
44.1577
44.193
44.2211
44.2632
44.2923
44.342
44.3706
44.4289
44.4555
44.5228
44.5467
44.6215
44.6448
44.721
44.7465
44.825
44.5801
44.0027
43.6097
43.3739
43.1915
43.0354
42.9133
42.8212
42.759
42.718
42.6959
42.6849
42.685
42.6907
42.7037
42.7194
42.741
42.7633
42.792
42.8191
42.8547
42.8852
42.9281
42.9603
43.0115
43.0437
43.1044
43.1344
43.2057
43.232
43.3125
43.3377
43.42
43.4486
43.5331
43.0293
42.4148
41.9894
41.732
41.5218
41.3376
41.1938
41.0821
41.0055
40.9499
40.9178
40.8959
40.8896
40.888
40.8978
40.9097
40.931
40.9528
40.9833
41.0126
41.0513
41.0861
41.1332
41.1711
41.2271
41.2658
41.3315
41.3686
41.4454
41.4791
41.5658
41.5975
41.6882
41.721
41.817
40.8417
40.5277
39.911
39.4664
39.1191
38.8445
38.6469
38.5012
38.4083
38.3432
38.3124
38.2932
38.298
38.3057
38.3321
38.357
38.3978
38.4349
38.486
38.5325
38.5927
38.6452
38.7093
38.7642
38.8326
38.8892
38.9638
39.0201
39.1033
39.1563
39.2487
39.2977
39.3966
39.4433
39.5524
37.8608
40.6877
39.8746
38.922
38.1202
37.5035
37.0664
36.7531
36.5459
36.3987
36.3121
36.251
36.2285
36.2137
36.2272
36.2391
36.2745
36.3028
36.3522
36.3915
36.4503
36.4982
36.5638
36.6192
36.6893
36.752
36.8248
36.894
36.9689
37.0423
37.1228
37.1908
37.2919
37.3332
37.4894
14.2727
12.6916
12.7711
12.9832
13.2349
13.455
13.6642
13.842
14.0158
14.1623
14.3094
14.4327
14.5608
14.6679
14.7837
14.8803
14.9891
15.0795
15.1854
15.2721
15.3778
15.462
15.57
15.6513
15.7638
15.8407
15.9604
16.0294
16.1598
16.2158
16.3614
16.3973
16.5627
16.5691
16.7531
37.6238
37.2104
36.9819
36.8892
36.8741
36.8853
36.8928
36.8941
36.8868
36.8781
36.8659
36.8558
36.8442
36.8359
36.8262
36.8204
36.8128
36.8094
36.8034
36.8024
36.7973
36.7987
36.7937
36.7979
36.792
36.7993
36.7919
36.8027
36.7929
36.8082
36.7951