/*--------------------------------*- C++ -*----------------------------------*\
  =========                 |
  \\      /  F ield         | OpenFOAM: The Open Source CFD Toolbox
   \\    /   O peration     | Website:  https://openfoam.org
    \\  /    A nd           | Version:  6
     \\/     M anipulation  |
\*---------------------------------------------------------------------------*/
FoamFile
{
    version     2.0;
    format      ascii;
    class       volVectorField;
    location    "15";
    object      wallShearStress;
}
// * * * * * * * * * * * * * * * * * * * * * * * * * * * * * * * * * * * * * //

dimensions      [0 2 -2 0 0 0 0];

internalField   uniform (0 0 0);

boundaryField
{
    inlet
    {
        type            calculated;
        value           uniform (0 0 0);
    }
    outlet
    {
        type            calculated;
        value           uniform (0 0 0);
    }
    roughCylinder
    {
        type            calculated;
        value           nonuniform List<vector> 
5120
(
(-8.99283e-05 -0.000102389 -5.09388e-05)
(-0.000130225 -0.000211292 -6.00914e-05)
(-0.000217903 -0.000381838 -1.10642e-05)
(-0.000262077 -0.00045663 3.70868e-05)
(-0.000315422 -0.000519792 8.19156e-05)
(-0.00036205 -0.000552891 0.000120032)
(-0.00040402 -0.000568332 0.000150518)
(-0.000436429 -0.000566787 0.000171833)
(-0.000462623 -0.000558462 0.000186687)
(-0.000482603 -0.000547295 0.000196827)
(-0.000499087 -0.000538084 0.000204871)
(-0.000513117 -0.000531552 0.000211254)
(-0.000523114 -0.000526562 0.000214672)
(-0.000529888 -0.000522647 0.000215088)
(-0.000534691 -0.000520232 0.000213084)
(-0.000538182 -0.000519145 0.000208932)
(-0.000542364 -0.000520702 0.000203457)
(-0.000547202 -0.000524601 0.000196748)
(-0.000543611 -0.000521826 0.000185919)
(-0.000540598 -0.000520088 0.000174508)
(-0.000545817 -0.000526531 0.00016502)
(-0.000551693 -0.000533783 0.000154939)
(-0.000554684 -0.000538609 0.000143395)
(-0.000549483 -0.000535222 0.000129203)
(-0.000563769 -0.000550041 0.000118689)
(-0.00054926 -0.000538715 0.00010221)
(-0.00056358 -0.000553613 9.05343e-05)
(-0.000556138 -0.000548179 7.49231e-05)
(-0.000548557 -0.00054233 5.8982e-05)
(-0.000545659 -0.000540702 4.31549e-05)
(-0.000542921 -0.00053898 2.66123e-05)
(-0.000541654 -0.000538339 9.05343e-06)
(-0.000112485 -0.000112897 -5.20514e-05)
(-0.00014219 -0.000207139 -6.51382e-05)
(-0.000232718 -0.00037256 -1.90331e-05)
(-0.000279384 -0.000450784 2.86532e-05)
(-0.000334891 -0.000516485 7.33839e-05)
(-0.000383041 -0.000551909 0.000111805)
(-0.000426373 -0.000569311 0.000142574)
(-0.00046046 -0.000570213 0.000164345)
(-0.000488077 -0.000564025 0.000179707)
(-0.000510645 -0.000555902 0.000191208)
(-0.00053148 -0.000550699 0.000201489)
(-0.000548509 -0.000545433 0.000209499)
(-0.000560419 -0.000540014 0.000213882)
(-0.000567642 -0.000535381 0.000214655)
(-0.000573031 -0.000532666 0.000213008)
(-0.000576887 -0.000531385 0.000209112)
(-0.000582327 -0.000533664 0.000204124)
(-0.000587511 -0.000537552 0.000197514)
(-0.000584976 -0.000535951 0.000187206)
(-0.000581568 -0.000534084 0.000175859)
(-0.000587981 -0.000541282 0.000166664)
(-0.000593419 -0.000547911 0.000156387)
(-0.000597324 -0.000553533 0.000145037)
(-0.000592404 -0.000550799 0.00013094)
(-0.000603529 -0.000562212 0.000119568)
(-0.000590999 -0.000553461 0.000103599)
(-0.000605039 -0.000567539 9.16511e-05)
(-0.000597622 -0.000562555 7.59737e-05)
(-0.000590413 -0.000557517 5.99435e-05)
(-0.000587834 -0.000556435 4.39269e-05)
(-0.000585741 -0.000555523 2.71457e-05)
(-0.000584923 -0.000555391 9.24759e-06)
(-0.000100884 -8.76237e-05 -3.46518e-05)
(-0.000150481 -0.000194553 -6.82663e-05)
(-0.000245687 -0.000356162 -2.73905e-05)
(-0.0002956 -0.000438609 1.90161e-05)
(-0.000353014 -0.000506605 6.33537e-05)
(-0.000403489 -0.000545698 0.000102211)
(-0.000448937 -0.00056629 0.000133528)
(-0.000484505 -0.000569687 0.00015589)
(-0.000515057 -0.000567559 0.000172591)
(-0.000540949 -0.000563294 0.000185889)
(-0.000563059 -0.000558825 0.000197149)
(-0.000581799 -0.00055415 0.000206077)
(-0.000595131 -0.000548003 0.00021116)
(-0.000603973 -0.000543177 0.000212738)
(-0.000610552 -0.000540546 0.000211661)
(-0.000615718 -0.000539712 0.000208362)
(-0.000621128 -0.000541411 0.000203438)
(-0.000627202 -0.000545689 0.000197175)
(-0.000625382 -0.000544839 0.000187325)
(-0.000622165 -0.000543366 0.000176301)
(-0.000629727 -0.000551204 0.000167443)
(-0.000635842 -0.000558207 0.000157361)
(-0.000642845 -0.000566409 0.000146723)
(-0.00063988 -0.000565807 0.000133066)
(-0.000646849 -0.000573299 0.000120729)
(-0.000638363 -0.000568775 0.000105536)
(-0.000651142 -0.00058119 9.31246e-05)
(-0.000644136 -0.000577039 7.737e-05)
(-0.000637029 -0.000572579 6.11532e-05)
(-0.000634477 -0.000571782 4.48617e-05)
(-0.000631993 -0.000570714 2.77343e-05)
(-0.000630996 -0.000570505 9.45064e-06)
(-0.000137226 -0.000101693 -3.01224e-05)
(-0.000160106 -0.000182536 -7.20982e-05)
(-0.000257401 -0.000336589 -3.58588e-05)
(-0.000309298 -0.000421067 8.56346e-06)
(-0.000368505 -0.000491479 5.21975e-05)
(-0.000420676 -0.000533541 9.11831e-05)
(-0.000467758 -0.000557 0.000122802)
(-0.000506345 -0.000565055 0.000146274)
(-0.000539669 -0.00056696 0.000164404)
(-0.000567981 -0.000565706 0.000179288)
(-0.000594619 -0.000565248 0.000192647)
(-0.000616457 -0.000562443 0.000202865)
(-0.000633053 -0.000557794 0.000209263)
(-0.000643674 -0.000552325 0.000211614)
(-0.000651091 -0.000548958 0.000210989)
(-0.000656509 -0.000547417 0.000207902)
(-0.000663094 -0.000549389 0.00020344)
(-0.000669249 -0.000553255 0.000197277)
(-0.000668827 -0.000553604 0.000188055)
(-0.000665893 -0.000552566 0.000177354)
(-0.000673574 -0.000560151 0.000168554)
(-0.000679462 -0.00056672 0.000158453)
(-0.000687697 -0.000575661 0.000148056)
(-0.000685689 -0.000576197 0.00013464)
(-0.00068835 -0.000580146 0.0001215)
(-0.000683232 -0.000578907 0.000106951)
(-0.000694773 -0.000589878 9.41925e-05)
(-0.000688031 -0.000586437 7.84055e-05)
(-0.000681439 -0.000582938 6.2114e-05)
(-0.000679283 -0.000582786 4.56425e-05)
(-0.000677459 -0.000582516 2.82759e-05)
(-0.00067682 -0.000582715 9.64555e-06)
(-0.000115169 -7.15146e-05 -1.12461e-05)
(-0.000163191 -0.000162923 -7.28939e-05)
(-0.000264071 -0.000310002 -4.36912e-05)
(-0.000318973 -0.00039746 -2.35025e-06)
(-0.000379543 -0.000469926 4.00132e-05)
(-0.000434226 -0.000516141 7.89979e-05)
(-0.000484598 -0.000544542 0.000111189)
(-0.000525836 -0.000556819 0.000135665)
(-0.000562705 -0.000563502 0.00015552)
(-0.000595557 -0.000567196 0.000172663)
(-0.000623714 -0.000567744 0.000187161)
(-0.000647134 -0.000565473 0.000198208)
(-0.000664971 -0.000560853 0.000205199)
(-0.000678459 -0.000556155 0.000208697)
(-0.000687796 -0.000552379 0.000208905)
(-0.00069486 -0.000550875 0.00020652)
(-0.00070121 -0.000551894 0.000202171)
(-0.000708077 -0.000555759 0.000196393)
(-0.000708671 -0.000556811 0.000187735)
(-0.000706436 -0.000556488 0.000177534)
(-0.000714432 -0.000564043 0.000168954)
(-0.000721291 -0.000571154 0.000159198)
(-0.000732626 -0.000582234 0.000149454)
(-0.000733296 -0.000585221 0.000136591)
(-0.000731638 -0.000586087 0.000122722)
(-0.000731492 -0.000589085 0.000108951)
(-0.000740814 -0.000598016 9.56824e-05)
(-0.000734788 -0.00059565 7.9842e-05)
(-0.000728267 -0.000592737 6.33547e-05)
(-0.000726211 -0.000592989 4.6612e-05)
(-0.000723913 -0.000592565 2.88899e-05)
(-0.000723035 -0.000592738 9.85732e-06)
(-0.000121212 -6.17751e-05 2.25475e-06)
(-0.000166674 -0.0001443 -7.37585e-05)
(-0.000268811 -0.00028171 -5.09842e-05)
(-0.000324484 -0.000369024 -1.33992e-05)
(-0.000386544 -0.000443852 2.70705e-05)
(-0.000443575 -0.000494094 6.57146e-05)
(-0.000496066 -0.000526168 9.80689e-05)
(-0.000541459 -0.000544258 0.000123832)
(-0.000582438 -0.000556027 0.000145513)
(-0.000617407 -0.00056209 0.000164144)
(-0.000649989 -0.000566285 0.000180582)
(-0.000677121 -0.000566443 0.000193167)
(-0.000699122 -0.000564285 0.000201708)
(-0.000715166 -0.000560409 0.000206235)
(-0.000726456 -0.000556434 0.000207288)
(-0.000733935 -0.0005535 0.000205318)
(-0.00074146 -0.000554066 0.000201524)
(-0.000748466 -0.000557284 0.000196005)
(-0.000750719 -0.000559381 0.000188073)
(-0.000749084 -0.000559633 0.000178333)
(-0.00075677 -0.00056671 0.000169851)
(-0.000763639 -0.000573561 0.000160228)
(-0.000775598 -0.000584682 0.000150611)
(-0.000777149 -0.000588612 0.000137983)
(-0.000771684 -0.000587397 0.000123638)
(-0.000775124 -0.000593367 0.000110443)
(-0.000782318 -0.000600791 9.68054e-05)
(-0.000776769 -0.000599455 8.09511e-05)
(-0.000770799 -0.0005977 6.43861e-05)
(-0.000769188 -0.000598798 4.7459e-05)
(-0.000767465 -0.000599204 2.94768e-05)
(-0.000766759 -0.000599714 1.00664e-05)
(-0.000125436 -5.11055e-05 1.61319e-05)
(-0.000164381 -0.000121523 -7.14698e-05)
(-0.000266515 -0.000247924 -5.68548e-05)
(-0.000324604 -0.000335784 -2.40792e-05)
(-0.00038746 -0.000412283 1.35033e-05)
(-0.000447083 -0.000466965 5.13006e-05)
(-0.000504048 -0.000505222 8.4057e-05)
(-0.000553233 -0.000528469 0.000110944)
(-0.000597825 -0.000544471 0.000134246)
(-0.000638464 -0.000555736 0.000155163)
(-0.000673343 -0.000561376 0.000172896)
(-0.000702422 -0.000562431 0.000186552)
(-0.000725703 -0.000560492 0.000195915)
(-0.000744263 -0.000557621 0.000201544)
(-0.000757865 -0.00055431 0.000203633)
(-0.000768108 -0.000552077 0.000202804)
(-0.000776144 -0.000551658 0.000199549)
(-0.000784201 -0.000554587 0.000194695)
(-0.000787598 -0.000557012 0.000187418)
(-0.000786746 -0.00055787 0.000178266)
(-0.000794679 -0.000564978 0.000170133)
(-0.00080259 -0.000572435 0.000160954)
(-0.000816934 -0.000584999 0.000151869)
(-0.00082089 -0.00059108 0.000139763)
(-0.000812193 -0.0005886 0.000125071)
(-0.000819899 -0.00059777 0.000112453)
(-0.00082401 -0.000603317 9.83038e-05)
(-0.000819152 -0.000603198 8.23958e-05)
(-0.000812908 -0.000602028 6.5621e-05)
(-0.000811215 -0.000603632 4.8427e-05)
(-0.000808737 -0.000603886 3.00885e-05)
(-0.000807642 -0.000604284 1.02749e-05)
(-0.000133803 -4.17232e-05 3.1515e-05)
(-0.000162147 -0.000100407 -6.82417e-05)
(-0.000262098 -0.00021459 -6.20992e-05)
(-0.000319001 -0.000298765 -3.39284e-05)
(-0.000382567 -0.000376833 -2.60431e-07)
(-0.000445075 -0.000436303 3.60552e-05)
(-0.000504392 -0.00047861 6.86322e-05)
(-0.000558191 -0.00050762 9.65903e-05)
(-0.000608283 -0.000529184 0.000121702)
(-0.000651076 -0.000542168 0.000143882)
(-0.000690515 -0.00055099 0.000163349)
(-0.000724063 -0.000554883 0.000178736)
(-0.000752561 -0.000556148 0.000190061)
(-0.000774333 -0.000554787 0.000197111)
(-0.000789948 -0.000552041 0.000200276)
(-0.000800593 -0.000549183 0.000200095)
(-0.000810456 -0.00054914 0.000197848)
(-0.000819318 -0.00055167 0.000193664)
(-0.000824644 -0.000554842 0.000187288)
(-0.000824576 -0.000556237 0.00017877)
(-0.000832227 -0.000563042 0.000170921)
(-0.000839923 -0.000570218 0.00016195)
(-0.00085354 -0.000582025 0.000152829)
(-0.000857167 -0.000588253 0.0001408)
(-0.000846015 -0.000585197 0.000125967)
(-0.000855939 -0.00059565 0.000113666)
(-0.000857391 -0.000599818 9.91903e-05)
(-0.000852873 -0.000600503 8.32766e-05)
(-0.000846954 -0.000600287 6.64502e-05)
(-0.000845523 -0.000602562 4.91142e-05)
(-0.00084337 -0.000603426 3.05656e-05)
(-0.000842373 -0.000604074 1.04434e-05)
(-0.000136357 -2.98891e-05 4.67611e-05)
(-0.000157978 -8.02801e-05 -6.34717e-05)
(-0.000249811 -0.000177656 -6.48523e-05)
(-0.000307143 -0.00025874 -4.22586e-05)
(-0.000370042 -0.000336734 -1.36674e-05)
(-0.000434265 -0.000399913 2.00999e-05)
(-0.000498691 -0.000448963 5.23423e-05)
(-0.000557307 -0.000483639 8.1153e-05)
(-0.000610728 -0.000508465 0.000107431)
(-0.000660364 -0.000526666 0.000131654)
(-0.000703422 -0.000537464 0.000152531)
(-0.000739799 -0.00054266 0.000169231)
(-0.000769677 -0.000544213 0.000181607)
(-0.000793814 -0.000543904 0.000189988)
(-0.000811831 -0.000542247 0.000194499)
(-0.000825693 -0.000540985 0.000195852)
(-0.000836161 -0.000540727 0.000194461)
(-0.000846412 -0.0005435 0.000191243)
(-0.000852896 -0.000546995 0.000185722)
(-0.000853631 -0.000548953 0.000177969)
(-0.000861488 -0.000555787 0.000170629)
(-0.000869797 -0.000563165 0.000162123)
(-0.000884559 -0.000575381 0.000153382)
(-0.000889647 -0.000582852 0.00014176)
(-0.000877185 -0.00058008 0.000126973)
(-0.000889927 -0.000591959 0.000115045)
(-0.000888304 -0.000594697 0.00010021)
(-0.000884492 -0.000596364 8.4301e-05)
(-0.000878126 -0.00059656 6.73395e-05)
(-0.000876515 -0.000599166 4.98221e-05)
(-0.00087347 -0.00059979 3.10147e-05)
(-0.000871965 -0.000600277 1.05953e-05)
(-0.000149332 -1.92946e-05 6.7735e-05)
(-0.00014785 -6.00248e-05 -5.58935e-05)
(-0.000236095 -0.000143035 -6.59768e-05)
(-0.000288291 -0.000216403 -4.81604e-05)
(-0.000350091 -0.00029321 -2.58998e-05)
(-0.000416747 -0.000360719 4.15644e-06)
(-0.000482981 -0.000413633 3.51065e-05)
(-0.000545849 -0.000453459 6.41955e-05)
(-0.000606291 -0.000484403 9.18582e-05)
(-0.000658531 -0.000504022 0.000117052)
(-0.000706536 -0.000517494 0.000139427)
(-0.000748077 -0.000525419 0.00015787)
(-0.000784214 -0.000530504 0.000172457)
(-0.000812541 -0.000532357 0.000182717)
(-0.000833317 -0.000532022 0.00018882)
(-0.00084764 -0.000530654 0.000191222)
(-0.000860164 -0.000531259 0.000191175)
(-0.000871302 -0.000534072 0.000188912)
(-0.000879408 -0.000538233 0.000184418)
(-0.000880945 -0.000540771 0.000177473)
(-0.000888422 -0.000547286 0.000170564)
(-0.000896199 -0.000554125 0.000162332)
(-0.000908952 -0.000564728 0.000153466)
(-0.000912361 -0.000571379 0.00014182)
(-0.00089896 -0.000569134 0.000127224)
(-0.00091196 -0.000580543 0.000115428)
(-0.000907832 -0.000582454 0.000100462)
(-0.000904127 -0.000584622 8.46209e-05)
(-0.000897868 -0.000585602 6.7715e-05)
(-0.000896307 -0.000588669 5.01678e-05)
(-0.000893393 -0.000589762 3.12791e-05)
(-0.000891856 -0.00059043 1.06907e-05)
(-0.000159291 -6.55403e-06 9.07084e-05)
(-0.000147216 -4.59175e-05 -5.15089e-05)
(-0.000216218 -0.000108794 -6.35634e-05)
(-0.000264578 -0.000174447 -5.11047e-05)
(-0.000322165 -0.000246687 -3.59454e-05)
(-0.000387507 -0.000315232 -1.10413e-05)
(-0.000458303 -0.000374465 1.76582e-05)
(-0.000526722 -0.000420531 4.64692e-05)
(-0.000589886 -0.000454087 7.44388e-05)
(-0.000650276 -0.000479258 0.000101204)
(-0.00070357 -0.000495178 0.000125036)
(-0.000749223 -0.000504465 0.000144962)
(-0.000786917 -0.000509468 0.00016071)
(-0.000817522 -0.000512183 0.000172486)
(-0.000840924 -0.000513192 0.000180299)
(-0.00085933 -0.00051413 0.000184736)
(-0.000872972 -0.000515175 0.000186)
(-0.000885547 -0.000518516 0.000184989)
(-0.000894389 -0.000522879 0.000181484)
(-0.000896525 -0.000525905 0.000175442)
(-0.00090381 -0.000532276 0.000169135)
(-0.000911576 -0.000538935 0.000161402)
(-0.000924355 -0.000549247 0.000152891)
(-0.000928342 -0.000556505 0.000141666)
(-0.00091505 -0.000555398 0.000127421)
(-0.000928936 -0.000566638 0.000115866)
(-0.000921967 -0.000567738 0.000100758)
(-0.000918572 -0.000570505 8.4996e-05)
(-0.000911521 -0.000571733 6.80787e-05)
(-0.000909374 -0.000574847 5.04737e-05)
(-0.00090532 -0.000575628 3.1479e-05)
(-0.000903099 -0.000576089 1.07571e-05)
(-0.000164674 7.61291e-06 0.000114289)
(-0.00014486 -3.25988e-05 -4.61555e-05)
(-0.000195338 -7.90037e-05 -5.87759e-05)
(-0.000232942 -0.000132106 -4.9746e-05)
(-0.000286094 -0.000198124 -4.24292e-05)
(-0.000351549 -0.000268351 -2.44183e-05)
(-0.000421924 -0.00032994 6.30317e-07)
(-0.000492919 -0.0003801 2.79063e-05)
(-0.000564572 -0.000420936 5.60143e-05)
(-0.000628038 -0.000447981 8.31212e-05)
(-0.000686994 -0.00046667 0.000108213)
(-0.000738633 -0.00047825 0.000129922)
(-0.000783834 -0.000486337 0.000148033)
(-0.000819792 -0.000491251 0.000161971)
(-0.000846823 -0.000493994 0.000171808)
(-0.000865781 -0.000495128 0.000177725)
(-0.000881693 -0.000497352 0.000180722)
(-0.000895099 -0.000500963 0.000180975)
(-0.000905118 -0.00050586 0.000178665)
(-0.000907893 -0.000509453 0.000173611)
(-0.000914306 -0.00051539 0.000167842)
(-0.000920909 -0.000521269 0.000160452)
(-0.000930375 -0.000529452 0.000151801)
(-0.000931246 -0.0005352 0.000140504)
(-0.000917661 -0.000534919 0.000126637)
(-0.000929758 -0.00054427 0.000115103)
(-0.00092049 -0.000545133 0.00010009)
(-0.000916595 -0.000547983 8.44824e-05)
(-0.000909193 -0.00054978 6.77725e-05)
(-0.000906618 -0.000553045 5.0296e-05)
(-0.000902425 -0.000554198 3.14158e-05)
(-0.000900028 -0.000554829 1.07403e-05)
(-0.000164111 2.16079e-05 0.000135144)
(-0.000142142 -2.07243e-05 -4.06056e-05)
(-0.000171649 -5.363e-05 -5.11166e-05)
(-0.000202432 -9.57431e-05 -4.53816e-05)
(-0.000244317 -0.00015035 -4.44031e-05)
(-0.000301879 -0.000215451 -3.4188e-05)
(-0.000374303 -0.000281111 -1.47593e-05)
(-0.000450739 -0.000337718 9.74079e-06)
(-0.000523414 -0.00038053 3.64338e-05)
(-0.000596127 -0.000414269 6.39033e-05)
(-0.000661789 -0.000436636 9.00579e-05)
(-0.000719247 -0.00045042 0.000113457)
(-0.000766732 -0.000457982 0.000133051)
(-0.000805043 -0.000462825 0.00014868)
(-0.000834793 -0.000466123 0.000160435)
(-0.000858538 -0.000469492 0.000168689)
(-0.0008758 -0.000472467 0.000173343)
(-0.000890395 -0.000476704 0.000175128)
(-0.000900522 -0.000481663 0.000173978)
(-0.000903367 -0.000485582 0.000169956)
(-0.000908861 -0.000491204 0.000164858)
(-0.000914554 -0.000496577 0.000157974)
(-0.000923072 -0.000504269 0.000149709)
(-0.000923696 -0.000510487 0.000138914)
(-0.000910704 -0.000511427 0.000125552)
(-0.000921934 -0.000519932 0.000114239)
(-0.00090994 -0.000520495 9.93356e-05)
(-0.000905592 -0.000523518 8.38964e-05)
(-0.00089688 -0.000525398 6.73489e-05)
(-0.000893057 -0.000528424 4.99928e-05)
(-0.000887347 -0.000529187 3.12328e-05)
(-0.00088399 -0.000529557 1.06742e-05)
(-0.000151783 3.21658e-05 0.000144531)
(-0.000141171 -1.03797e-05 -3.57765e-05)
(-0.000141934 -3.27431e-05 -4.04592e-05)
(-0.000158752 -6.01121e-05 -3.50101e-05)
(-0.000195338 -0.00010396 -4.03405e-05)
(-0.000249132 -0.000164918 -3.95894e-05)
(-0.000315322 -0.000228316 -2.71966e-05)
(-0.000390236 -0.000286403 -7.2598e-06)
(-0.000472693 -0.000337935 1.70741e-05)
(-0.000548013 -0.000374072 4.34029e-05)
(-0.000619778 -0.000400288 6.99202e-05)
(-0.000683512 -0.000417157 9.47229e-05)
(-0.000739774 -0.000428587 0.000116846)
(-0.000784876 -0.000435692 0.000135106)
(-0.000819325 -0.000440338 0.000149326)
(-0.00084353 -0.000443026 0.000159287)
(-0.00086288 -0.00044662 0.000165845)
(-0.000877902 -0.000450896 0.000169066)
(-0.000888484 -0.000456196 0.000169238)
(-0.000891385 -0.000460579 0.000166331)
(-0.000895231 -0.00046589 0.000161851)
(-0.000898863 -0.000470601 0.000155354)
(-0.000902866 -0.000476278 0.000146984)
(-0.000898992 -0.000480806 0.000136139)
(-0.000885312 -0.000482041 0.000123157)
(-0.000892944 -0.000488445 0.00011191)
(-0.000878719 -0.000489022 9.7368e-05)
(-0.000873001 -0.000491695 8.21803e-05)
(-0.000863313 -0.00049378 6.60423e-05)
(-0.000858427 -0.000496636 4.90457e-05)
(-0.000852271 -0.00049763 3.06869e-05)
(-0.000848634 -0.00049816 1.04919e-05)
(-0.000134789 3.76176e-05 0.000142765)
(-0.000144514 -1.45228e-06 -3.2201e-05)
(-0.000116819 -1.8843e-05 -3.06639e-05)
(-0.000132256 -3.78987e-05 -2.59823e-05)
(-0.000146726 -6.44817e-05 -3.17141e-05)
(-0.000182171 -0.000110353 -3.75031e-05)
(-0.000245597 -0.000172393 -3.46567e-05)
(-0.000324005 -0.000235411 -2.17702e-05)
(-0.000403113 -0.000286617 -1.51179e-06)
(-0.0004887 -0.000330957 2.30216e-05)
(-0.000567648 -0.000362123 4.93745e-05)
(-0.000638244 -0.000382939 7.53494e-05)
(-0.000696658 -0.000395013 9.88889e-05)
(-0.000743938 -0.000402408 0.000119019)
(-0.000780823 -0.000407297 0.000135313)
(-0.00081037 -0.000411961 0.000147873)
(-0.000831034 -0.000415766 0.00015622)
(-0.000846735 -0.000420249 0.000161015)
(-0.000856575 -0.000425269 0.000162399)
(-0.000858641 -0.000429606 0.000160554)
(-0.000860678 -0.00043463 0.000156781)
(-0.000862287 -0.000438927 0.000150806)
(-0.000864553 -0.000444369 0.000142927)
(-0.000859715 -0.000449269 0.000132666)
(-0.000846412 -0.000451236 0.000120219)
(-0.000851751 -0.000456463 0.00010927)
(-0.000834715 -0.000456905 9.50852e-05)
(-0.000827572 -0.000459339 8.01779e-05)
(-0.000816026 -0.000461056 6.44376e-05)
(-0.000809143 -0.0004632 4.78226e-05)
(-0.000801043 -0.000463567 2.9916e-05)
(-0.000796052 -0.000463627 1.02191e-05)
(-0.000116242 3.76872e-05 0.0001298)
(-0.00014123 5.8184e-06 -2.76854e-05)
(-0.000112582 -1.22192e-05 -2.60734e-05)
(-8.07486e-05 -1.64157e-05 -1.1837e-05)
(-9.07637e-05 -3.02293e-05 -1.76785e-05)
(-0.000124538 -6.69902e-05 -3.09239e-05)
(-0.000169614 -0.000116229 -3.58973e-05)
(-0.000237341 -0.000173853 -3.11632e-05)
(-0.000327608 -0.000235194 -1.76747e-05)
(-0.000413017 -0.000280949 3.49724e-06)
(-0.000498099 -0.000317143 2.87813e-05)
(-0.000574152 -0.0003419 5.5192e-05)
(-0.000641453 -0.000359398 8.06935e-05)
(-0.000695686 -0.000370514 0.00010329)
(-0.00073766 -0.000377739 0.000122091)
(-0.000766718 -0.000381815 0.000136246)
(-0.000788786 -0.000386064 0.000146433)
(-0.000804221 -0.000390385 0.000152664)
(-0.000813673 -0.000395345 0.000155384)
(-0.000814998 -0.000399679 0.000154663)
(-0.000814597 -0.00040415 0.000151496)
(-0.000813112 -0.00040769 0.000145851)
(-0.000809538 -0.000411135 0.000137802)
(-0.000798957 -0.000413984 0.000127434)
(-0.00078392 -0.000415237 0.000115297)
(-0.000783945 -0.000417916 0.000104452)
(-0.000764643 -0.000418099 9.09229e-05)
(-0.000755139 -0.000419596 7.64451e-05)
(-0.000742035 -0.000420746 6.14331e-05)
(-0.000733481 -0.000422151 4.55653e-05)
(-0.0007247 -0.00042242 2.85355e-05)
(-0.000719531 -0.000422573 9.75032e-06)
(-0.000100268 3.41415e-05 0.00010995)
(-0.000133797 1.02008e-05 -2.36955e-05)
(-0.000107437 -8.0948e-06 -2.11662e-05)
(-7.11497e-05 -9.63838e-06 -4.85747e-06)
(-4.89068e-05 -1.01548e-05 -5.50658e-06)
(-4.21023e-05 -1.86396e-05 -1.12801e-05)
(-9.08104e-05 -6.15555e-05 -2.83941e-05)
(-0.000156608 -0.000118783 -3.6038e-05)
(-0.000231983 -0.000172249 -2.91913e-05)
(-0.000329229 -0.000228436 -1.30716e-05)
(-0.00042004 -0.000269972 1.0321e-05)
(-0.000502718 -0.000300175 3.68297e-05)
(-0.000570178 -0.000319039 6.28442e-05)
(-0.000624697 -0.000331403 8.64141e-05)
(-0.000666882 -0.00033958 0.000106395)
(-0.00070069 -0.000346629 0.000122639)
(-0.000723285 -0.000351546 0.000134272)
(-0.000738548 -0.000356153 0.000141846)
(-0.000746126 -0.00036054 0.000145595)
(-0.00074539 -0.000364223 0.000145768)
(-0.000742191 -0.000367938 0.000143167)
(-0.000737465 -0.000370657 0.000137874)
(-0.000731891 -0.000374019 0.000130384)
(-0.000720268 -0.000376955 0.000120711)
(-0.000705221 -0.000378046 0.00010916)
(-0.000702359 -0.000379501 9.88082e-05)
(-0.000680602 -0.000378923 8.59629e-05)
(-0.000669105 -0.000379501 7.20026e-05)
(-0.000654019 -0.000379521 5.77802e-05)
(-0.000643178 -0.000379651 4.27671e-05)
(-0.000632281 -0.000378795 2.67445e-05)
(-0.000625438 -0.000378047 9.11631e-06)
(-8.74663e-05 2.86397e-05 8.67603e-05)
(-0.000123298 1.1405e-05 -2.05207e-05)
(-0.000101433 -5.64155e-06 -1.60753e-05)
(-6.19229e-05 -5.20637e-06 1.64375e-06)
(-3.40683e-05 -2.73572e-06 2.01645e-06)
(-1.98805e-05 -6.39044e-06 -3.18077e-06)
(-2.42919e-05 -1.85829e-05 -1.28018e-05)
(-5.62046e-05 -4.78007e-05 -2.48602e-05)
(-0.00014646 -0.000115823 -3.61314e-05)
(-0.000233303 -0.000168195 -2.4617e-05)
(-0.000328616 -0.000215941 -3.83427e-06)
(-0.000413114 -0.000250196 2.14382e-05)
(-0.000487962 -0.000275992 4.76039e-05)
(-0.000547491 -0.000293222 7.18735e-05)
(-0.000593593 -0.000305077 9.29379e-05)
(-0.000624261 -0.000311836 0.000109442)
(-0.000646491 -0.00031753 0.00012198)
(-0.000660194 -0.000322128 0.000130387)
(-0.000666397 -0.000326392 0.000135127)
(-0.000664097 -0.00032976 0.000136205)
(-0.000657943 -0.000332663 0.00013404)
(-0.000649587 -0.000334338 0.000128896)
(-0.000637025 -0.000334954 0.000120953)
(-0.000619276 -0.00033492 0.000111099)
(-0.000601328 -0.00033392 9.97945e-05)
(-0.00059212 -0.000332049 8.96261e-05)
(-0.000568322 -0.000330199 7.78145e-05)
(-0.000553798 -0.000328827 6.46385e-05)
(-0.00053706 -0.000327268 5.17012e-05)
(-0.000524484 -0.000326012 3.81529e-05)
(-0.000513093 -0.000324579 2.38459e-05)
(-0.000506531 -0.000323847 8.12331e-06)
(-7.49567e-05 2.3086e-05 6.39223e-05)
(-0.000108726 1.10147e-05 -1.7803e-05)
(-9.57065e-05 -3.4e-06 -1.22202e-05)
(-5.39495e-05 -1.21207e-06 7.0356e-06)
(-2.09017e-05 4.87226e-06 9.08053e-06)
(1.19101e-06 6.36397e-06 3.93947e-06)
(8.27711e-06 3.54094e-06 -5.45575e-06)
(-5.97838e-06 -1.09034e-05 -1.60585e-05)
(-4.0925e-05 -3.57261e-05 -2.09521e-05)
(-0.000144691 -0.000108928 -2.75467e-05)
(-0.00023655 -0.000160541 -1.00833e-05)
(-0.000323444 -0.000201241 1.28499e-05)
(-0.000392077 -0.000227778 3.64588e-05)
(-0.000447661 -0.000246513 5.85373e-05)
(-0.00048978 -0.000259185 7.78222e-05)
(-0.000523916 -0.000269865 9.43779e-05)
(-0.000545211 -0.000276617 0.000106813)
(-0.000557603 -0.000281636 0.000115513)
(-0.000560571 -0.000284975 0.000120491)
(-0.000554762 -0.000286995 0.000121834)
(-0.000544883 -0.000288473 0.000119775)
(-0.000532469 -0.000288514 0.000114586)
(-0.000519072 -0.000289008 0.000107312)
(-0.000501378 -0.00028859 9.8415e-05)
(-0.000483596 -0.000286817 8.79693e-05)
(-0.000472949 -0.00028384 7.87266e-05)
(-0.000448003 -0.000280595 6.8101e-05)
(-0.00043225 -0.00027786 5.60102e-05)
(-0.00041443 -0.000274556 4.45315e-05)
(-0.000400325 -0.000271639 3.26771e-05)
(-0.000387319 -0.000268557 2.03e-05)
(-0.000379094 -0.000266342 6.86398e-06)
(-6.04323e-05 1.87748e-05 4.53544e-05)
(-0.000103347 1.20272e-05 -1.66193e-05)
(-9.09857e-05 -4.37575e-07 -1.03024e-05)
(-4.92649e-05 3.6113e-06 8.6769e-06)
(-1.42751e-05 1.04874e-05 6.61151e-06)
(1.38398e-05 1.19779e-05 8.47611e-07)
(1.96635e-05 1.26084e-05 2.02815e-06)
(1.21011e-05 9.80701e-06 -5.12386e-06)
(-1.12555e-05 -9.28208e-06 -1.34e-05)
(-5.58637e-05 -4.24567e-05 -1.26132e-05)
(-0.000142783 -0.000100928 -4.15429e-06)
(-0.000218681 -0.000143273 1.32199e-05)
(-0.000290292 -0.000178007 3.21084e-05)
(-0.000346777 -0.000201918 5.01038e-05)
(-0.000391134 -0.000219178 6.67583e-05)
(-0.000418294 -0.000228594 8.02936e-05)
(-0.000437132 -0.000235787 9.14036e-05)
(-0.00044662 -0.000240465 9.94009e-05)
(-0.000447668 -0.000243482 0.000104416)
(-0.000440039 -0.000244898 0.000106017)
(-0.000427397 -0.000245198 0.000103917)
(-0.000412105 -0.000243803 9.85361e-05)
(-0.000391411 -0.000239907 9.0229e-05)
(-0.000368849 -0.00023542 8.12283e-05)
(-0.000347578 -0.000230121 7.11386e-05)
(-0.000331021 -0.000222455 6.21682e-05)
(-0.000305031 -0.000216592 5.30191e-05)
(-0.000286635 -0.000210606 4.24689e-05)
(-0.000268079 -0.000204735 3.31915e-05)
(-0.000253197 -0.000199782 2.40288e-05)
(-0.000240741 -0.000195739 1.47733e-05)
(-0.00023383 -0.000193595 4.9607e-06)
(-5.14911e-05 1.66057e-05 3.60573e-05)
(-9.57889e-05 1.26331e-05 -1.45287e-05)
(-8.5795e-05 1.4192e-06 -8.45385e-06)
(-4.334e-05 4.69693e-06 7.85582e-06)
(5.58405e-07 7.4051e-06 5.08835e-06)
(1.5425e-05 8.55328e-06 8.25446e-06)
(1.7505e-05 1.03292e-05 1.31064e-05)
(1.25388e-05 8.94804e-06 1.44595e-05)
(1.33433e-06 1.32429e-06 1.13825e-05)
(-1.71203e-05 -1.39859e-05 8.31865e-06)
(-6.51423e-05 -5.1633e-05 1.50101e-05)
(-0.000128564 -9.49726e-05 2.46771e-05)
(-0.000179667 -0.000124381 3.34321e-05)
(-0.000225766 -0.000147511 4.30605e-05)
(-0.000260589 -0.000162999 5.26014e-05)
(-0.000291532 -0.000177031 6.30336e-05)
(-0.000308868 -0.000185011 7.14603e-05)
(-0.000316678 -0.000189725 7.79074e-05)
(-0.000313662 -0.000190829 8.15738e-05)
(-0.000301549 -0.000189531 8.20563e-05)
(-0.000285041 -0.000187091 7.90858e-05)
(-0.000265846 -0.0001824 7.29453e-05)
(-0.000248154 -0.000178574 6.57789e-05)
(-0.000228543 -0.000173612 5.84777e-05)
(-0.000210136 -0.000167991 5.02871e-05)
(-0.000196981 -0.000160386 4.31944e-05)
(-0.000172989 -0.000153039 3.58571e-05)
(-0.000156613 -0.00014608 2.76828e-05)
(-0.000139807 -0.000138673 2.09013e-05)
(-0.000125894 -0.000132232 1.4695e-05)
(-0.000113513 -0.000126143 8.65612e-06)
(-0.000105678 -0.000121634 2.77298e-06)
(-4.43599e-05 1.4222e-05 2.79755e-05)
(-8.82794e-05 1.20636e-05 -1.30789e-05)
(-8.05094e-05 3.25148e-06 -5.43462e-06)
(-3.66114e-05 4.32957e-06 1.07747e-05)
(-3.09692e-06 8.796e-06 1.32925e-05)
(8.26732e-06 1.12103e-05 1.87857e-05)
(1.74641e-05 1.1351e-05 2.43272e-05)
(2.24917e-05 7.78521e-06 2.9123e-05)
(2.06655e-05 1.8719e-06 3.18047e-05)
(1.31752e-05 -6.76266e-06 3.41675e-05)
(-2.86127e-06 -1.59722e-05 2.58824e-05)
(-2.3419e-05 -3.214e-05 2.53285e-05)
(-7.1764e-05 -7.27154e-05 3.6391e-05)
(-0.000115537 -9.90601e-05 3.89757e-05)
(-0.000154126 -0.000119764 4.30554e-05)
(-0.000174519 -0.000128426 4.61713e-05)
(-0.000188027 -0.000134965 5.06069e-05)
(-0.000192364 -0.000137976 5.42819e-05)
(-0.000188509 -0.000138317 5.66264e-05)
(-0.000176465 -0.000136228 5.63835e-05)
(-0.000159522 -0.00013224 5.27472e-05)
(-0.000141341 -0.000126306 4.64458e-05)
(-0.000118934 -0.000115393 3.75326e-05)
(-9.7795e-05 -0.00010451 3.03708e-05)
(-7.69789e-05 -9.28652e-05 2.27028e-05)
(-6.14232e-05 -7.73816e-05 1.61769e-05)
(-4.0332e-05 -6.43551e-05 1.03791e-05)
(-2.61016e-05 -5.06945e-05 5.534e-06)
(-1.41548e-05 -3.78368e-05 2.46299e-06)
(-6.05578e-06 -2.64149e-05 8.09514e-07)
(-1.13003e-06 -1.8364e-05 1.66538e-08)
(7.43798e-07 -1.59003e-05 -9.48571e-08)
(-3.33137e-05 1.38215e-05 2.21347e-05)
(-7.92645e-05 1.32073e-05 -1.39494e-05)
(-7.91238e-05 7.70997e-06 -8.12169e-06)
(-4.4595e-05 1.11453e-05 9.03101e-06)
(-1.82603e-05 1.78413e-05 1.29832e-05)
(-8.08045e-06 2.33638e-05 1.38204e-05)
(6.5504e-06 2.16981e-05 1.51105e-05)
(2.02733e-05 1.91226e-05 1.96627e-05)
(3.01472e-05 1.40416e-05 2.49749e-05)
(3.90999e-05 8.26178e-06 3.38545e-05)
(3.13403e-05 1.49293e-07 3.12089e-05)
(2.53465e-05 -8.65987e-06 3.19068e-05)
(1.14646e-05 -2.05141e-05 2.77526e-05)
(-5.25297e-06 -2.40096e-05 1.58963e-05)
(-1.8116e-05 -2.95845e-05 1.24271e-05)
(-4.74034e-05 -5.77036e-05 1.90211e-05)
(-6.21154e-05 -6.74929e-05 2.10779e-05)
(-6.69302e-05 -7.08537e-05 2.22692e-05)
(-6.01037e-05 -6.67485e-05 2.11256e-05)
(-4.51986e-05 -5.74945e-05 1.71933e-05)
(-2.87591e-05 -4.61018e-05 1.14538e-05)
(-1.2181e-05 -2.7354e-05 4.33008e-06)
(-4.66372e-06 -1.9766e-05 4.84879e-07)
(1.16037e-06 -2.27701e-05 -2.06376e-06)
(6.12515e-06 -1.12998e-05 -3.3656e-06)
(7.54145e-06 -8.52655e-06 -4.02577e-06)