/*--------------------------------*- C++ -*----------------------------------*\
  =========                 |
  \\      /  F ield         | OpenFOAM: The Open Source CFD Toolbox
   \\    /   O peration     | Website:  https://openfoam.org
    \\  /    A nd           | Version:  6
     \\/     M anipulation  |
\*---------------------------------------------------------------------------*/
FoamFile
{
    version     2.0;
    format      ascii;
    class       volScalarField;
    location    "15";
    object      yPlus;
}
// * * * * * * * * * * * * * * * * * * * * * * * * * * * * * * * * * * * * * //

dimensions      [0 0 0 0 0 0 0];

internalField   uniform 0;

boundaryField
{
    inlet
    {
        type            calculated;
        value           uniform 0;
    }
    outlet
    {
        type            calculated;
        value           uniform 0;
    }
    roughCylinder
    {
        type            calculated;
        value           nonuniform List<scalar> 
5120
(
12.2658
19.0362
34.1043
38.2485
41.8632
43.6429
44.8382
45.258
45.4719
45.3903
45.2181
45.1521
45.0198
44.7566
44.4526
44.1352
43.9706
43.9316
43.1269
42.4062
42.4942
42.6524
42.559
41.7142
42.6411
41.035
42.0115
41.0885
40.1886
39.7498
39.3777
39.198
14.641
19.1208
33.6766
37.9687
41.5932
43.3625
44.5419
44.9947
45.1613
45.123
45.1973
45.2302
45.1802
44.9091
44.6213
44.3096
44.2269
44.1827
43.4906
42.751
42.9038
42.9875
42.9576
42.1687
42.7479
41.3957
42.2747
41.3972
40.574
40.1805
39.8793
39.7448
9.61424
18.5603
32.9839
37.5951
41.2402
43.1191
44.3552
44.7744
45.0245
45.091
45.0865
45.1165
45.0253
44.8447
44.6203
44.3902
44.266
44.2625
43.6424
42.9368
43.1446
43.2556
43.4586
42.8558
43.0511
42.0868
42.8022
41.9963
41.2209
40.8454
40.5284
40.3859
15.5187
18.3475
32.4079
37.1914
40.895
42.8048
44.024
44.5535
44.8449
44.9214
45.1436
45.2757
45.296
45.1311
44.9157
44.6588
44.5864
44.5485
44.0418
43.3697
43.5468
43.6129
43.881
43.3708
43.2198
42.5536
43.1302
42.3812
41.6825
41.3541
41.1019
40.9926
7.28442
17.4152
31.455
36.6515
40.4206
42.472
43.8394
44.4003
44.7891
45.0607
45.2116
45.2959
45.2532
45.1561
44.9905
44.8081
44.6699
44.6481
44.2136
43.6036
43.7734
43.891
44.3575
44.0572
43.5995
43.3155
43.7039
43.039
42.3793
42.0748
41.8037
41.6851
8.05774
16.7876
30.6432
36.03
39.9498
42.129
43.5018
44.2306
44.7501
44.98
45.3052
45.5039
45.616
45.5554
45.381
45.128
45.0208
44.9654
44.6373
44.0744
44.1968
44.297
44.7775
44.5495
43.8578
43.8345
44.0687
43.4708
42.8857
42.632
42.4183
42.3257
10.7169
15.6003
29.3191
35.2332
39.3158
41.6852
43.3104
44.1415
44.7203
45.1933
45.4771
45.6252
45.654
45.6241
45.4823
45.3062
45.1312
45.0947
44.8279
44.3229
44.4466
44.6071
45.2267
45.1768
44.3279
44.6129
44.6674
44.1629
43.6099
43.3857
43.1519
43.0489
12.3129
14.572
28.159
34.2746
38.6361
41.2765
42.9393
43.9505
44.7423
45.1297
45.5406
45.8156
46.0369
46.0669
45.9232
45.6571
45.5162
45.4624
45.2867
44.83
44.93
45.0822
45.6562
45.6183
44.6781
45.1263
45.0488
44.6133
44.1324
43.9624
43.7795
43.6995
12.7578
13.4879
26.3784
33.1012
37.7405
40.6217
42.6535
43.8546
44.6418
45.3101
45.7315
45.9778
46.0914
46.1164
45.9987
45.8394
45.6565
45.6343
45.5036
45.1011
45.2194
45.4244
46.0829
46.1757
45.2246
45.873
45.6552
45.3124
44.8587
44.7193
44.5158
44.4245
14.9083
12.0057
24.6899
31.5801
36.6649
40.0209
42.1419
43.5101
44.6195
45.1835
45.701
46.0747
46.4126
46.5368
46.4514
46.2049
46.072
46.0496
45.9947
45.6481
45.7568
45.9517
46.5122
46.5519
45.6217
46.3205
46.0169
45.7367
45.3532
45.2671
45.1118
45.0429
17.3553
11.7416
22.3935
29.8803
35.295
38.925
41.5818
43.2925
44.3341
45.2404
45.8314
46.2114
46.4176
46.5087
46.4495
46.3581
46.2204
46.2411
46.2156
45.9218
46.0479
46.2801
46.8872
47.0275
46.1892
46.9921
46.5989
46.4032
46.0459
45.9852
45.8092
45.728
19.9949
10.8279
20.0706
27.3994
33.4676
37.8884
40.7167
42.5868
44.1506
44.9589
45.6417
46.1391
46.6061
46.8506
46.8773
46.708
46.6371
46.6673
46.7062
46.4766
46.5937
46.8097
47.2801
47.3134
46.5547
47.309
46.879
46.7327
46.4432
46.4294
46.3035
46.2475
22.5059
11.3126
17.468
25.1629
31.2652
35.8635
39.5407
42.06
43.4861
44.7812
45.624
46.1906
46.5003
46.6798
46.7234
46.7644
46.7265
46.8102
46.8666
46.684
46.8084
47.0403
47.5412
47.67
47.0607
47.851
47.3804
47.3058
47.0455
47.0471
46.9005
46.8298
23.4165
11.9547
14.1763
20.7087
28.0203
33.9746
37.8675
40.5487
42.9439
44.1619
45.1635
45.8665
46.5085
46.9099
47.0897
47.0344
47.0698
47.1669
47.2823
47.1692
47.2863
47.4942
47.8364
47.825
47.3033
47.9874
47.5226
47.4802
47.2882
47.3332
47.2443
47.2092
23.1033
13.0936
11.1278
18.6066
24.3487
29.7526
35.2906
39.3391
41.4225
43.5094
44.8179
45.7316
46.2274
46.5467
46.7246
46.9314
47.013
47.166
47.2914
47.2193
47.351
47.5669
47.953
48.0534
47.7125
48.3893
47.9263
47.9416
47.7838
47.8302
47.7155
47.6543
21.5273
13.6114
9.73704
6.12145
17.6474
26.3883
31.5859
35.741
40.1033
42.0965
43.7972
44.9379
45.9445
46.6081
47.0121
47.0933
47.2468
47.4132
47.5955
47.5982
47.7312
47.914
48.1041
48.0245
47.7441
48.216
47.8053
47.8285
47.7337
47.8109
47.7657
47.7651
19.2657
13.553
5.89035
8.26015
6.91723
11.5146
24.8351
32.9628
36.2058
40.3921
42.7086
44.3624
45.2415
45.8485
46.2365
46.6915
46.9264
47.1662
47.3422
47.362
47.4989
47.6579
47.9399
48.0268
47.9486
48.3826
48.0244
48.0925
48.0374
48.101
48.0156
47.9585
16.6538
12.895
10.0446
10.781
10.4722
6.05949
14.2631
19.4698
33.0993
36.818
40.4025
42.5456
44.3613
45.5296
46.3299
46.595
46.909
47.1662
47.4135
47.5252
47.6834
47.8043
47.7885
47.6264
47.5071
47.5518
47.259
47.2489
47.2225
47.2838
47.2769
47.3287
13.9449
11.458
10.7921
10.0758
10.5499
10.9126
10.9048
13.1005
15.1344
32.3982
37.5098
41.0153
42.6624
43.8378
44.5707
45.4543
45.9213
46.2957
46.4987
46.5622
46.6781
46.692
46.8792
46.9799
47.0805
47.0846
46.9311
46.9712
46.9895
47.0191
46.9295
46.8447
11.6744
11.4629
8.24391
8.08058
8.73123
8.46184
7.65821
11.788
13.8035
19.2635
31.8452
36.5911
40.421
42.6331
44.2142
44.7035
45.2546
45.6378
45.9482
46.1482
46.315
46.2926
45.8797
45.5585
45.316
44.4392
44.2543
43.913
43.7756
43.6498
43.6128
43.7378
11.0834
11.4439
11.2401
9.67919
12.1233
6.80401
8.9945
7.1472
5.53143
12.5479
24.551
33.3313
36.1296
38.41
39.6466
41.5216
42.4498
43.0653
43.1886
43.0932
42.9971
42.5031
42.5784
42.6867
42.8014
42.0121
42.1616
41.9592
41.8846
41.7042
41.37
40.975
11.2057
11.2254
6.03709
11.0639
2.79801
5.40205
2.61014
9.66482
5.19722
13.3429
11.7261
14.9807
28.7253
34.2902
38.4102
39.0009
39.9299
40.4375
40.7693
40.9776
40.9971
40.5869
38.7095
37.2377
35.1811
30.4657
28.5994
24.5722
20.5299
15.7427
12.063
11.0653
7.03686
11.7146
8.10404
7.55705
11.3361
13.1665
11.5744
8.60626
2.85775
13.6218
6.55512
13.5855
15.6122
8.67313
11.954
24.4683
28.3798
30.1135
29.0454
26.2729
22.7489
14.0689
11.0685
18.5994
11.8104
11.4299
11.6742
18.478
7.42876
12.6097
11.4194
8.34415
6.37184
11.4954
9.11295
8.63544
16.9181
22.454
25.1093
25.7356
23.7129
16.7846
16.4228
5.17305
3.53918
14.7002
8.78325
5.56683
16.8145
16.9638
1.73147
8.88977
12.7318
1.5023
12.0298
5.563
8.34349
14.5235
7.88054
14.3723
1.92177
8.49084
19.6298
13.5162
8.15918
11.821
11.7396
9.04317
15.9138
23.1799
27.2626
28.8734
28.7818
27.8887
25.4695
18.0367
10.4688
16.2586
6.7432
6.56286
12.3217
7.27954
15.232
15.7725
16.7468
17.2186
9.70525
10.56
19.1213
10.9479
16.5147
19.4054
22.028
23.3945
25.2113
24.6998
7.87593
14.1927
14.7887
12.7986
15.6023
21.5421
26.3414
29.082
30.09
29.6711
27.7847
25.4804
24.2188
24.3848
22.0182
18.0199
12.9046
11.2636
11.1312
11.628
15.7262
19.1964
21.1732
23.0324
25.6805
26.6541
26.827
27.0636
27.2009
27.2222
27.1875
27.2427
6.49781
15.1526
17.5533
17.729
18.7193
21.9074
25.6059
28.4916
30.0833
30.3815
29.1536
25.458
22.5217
23.8136
24.928
25.2723
25.339
24.663
24.5932
25.1586
25.2245
25.5066
25.6622
26.1545
25.7284
26.9595
27.1474
27.5103
27.7283
27.6913
27.6627
27.5582
5.26327
14.8903
18.6278
20.5987
21.8538
23.589
25.7583
27.7005
28.7246
28.0291
24.7619
18.5602
16.9114
20.742
22.6193
23.8418
24.0855
24.0821
24.1516
24.1519
24.4502
24.7443
24.9525
25.316
25.2946
25.8365
25.125
24.7743
24.3857
23.9299
23.5359
23.229
4.11999
13.0975
17.4163
20.4888
22.5251
24.0418
25.3202
26.1926
26.0993
24.1879
19.9944
11.9548
5.03719
6.63576
4.88662
15.6424
19.6521
20.7954
21.0577
20.8364
20.1409
19.5198
19.4546
19.9031
19.61
20.5198
20.6314
21.0309
21.3225
21.4983
21.6377
21.703
3.52855
11.4047
14.3539
17.8198
20.5841
22.4443
23.528
23.8177
22.9089
20.4432
14.4566
8.86488
10.7992
12.8374
14.1193
11.581
11.1563
12.2429
13.4947
14.2591
15.1894
16.321
17.6089
18.7508
19.7095
20.4669
20.7569
21.0266
21.112
21.0505
20.9559
20.8734
2.48069
8.24628
11.4348
13.579
16.5605
18.7245
19.7885
19.5809
17.8737
13.4969
7.25314
5.67277
9.74163
9.98048
11.5226
15.5976
16.5452
16.9623
17.146
17.4281
17.6182
17.7568
18.0359
18.4235
18.6025
19.0169
19.2112
19.4546
19.6286
19.7017
19.7581
19.7882
0.355866
4.1224
3.24464
8.03657
11.0105
11.5896
11.5001
11.0772
9.84325
8.15187
5.09633
10.7033
11.5745
11.8536
11.6626
11.5275
11.919
13.3127
14.3291
14.9996
15.5949
16.2465
16.9941
17.6766
18.2776
18.8034
19.1257
19.4278
19.6712
19.836
19.9433
19.9838
1.87389
6.28479
6.65722
6.35996
6.35345
6.26929
4.70351
7.22998
7.33695
2.60353
8.67108
10.9848
11.4313
11.5962
12.2853
13.6644
14.6316
15.0641
15.4876
15.9678
16.4395
16.9028
17.4028
17.9239
18.4448
19.0117
19.477
19.8649
20.1592
20.3458
20.4683
20.5226
2.54942
8.19882
9.86274
11.0107
11.543
11.8549
11.967
11.6032
11.5192
12.1513
11.6958
11.504
11.5835
12.1723
12.7096
12.9656
13.523
14.3629
15.1244
15.7798
16.4418
17.1578
17.8881
18.5748
19.226
19.8033
20.2742
20.6617
20.9586
21.1544
21.2724
21.3222
2.23972
7.71285
9.26948
10.5011
11.5401
11.8664
11.9067
11.5353
11.4733
11.1317
11.4917
11.8868
12.661
13.1565
13.6293
14.3655
15.0293
15.5891
16.1736
16.8045
17.4529
18.1021
18.7655
19.4228
20.0723
20.6909
21.2213
21.65
21.9679
22.1697
22.2854
22.3344
2.30645
8.04179
9.49277
10.5768
11.4865
11.7191
11.7982
11.7461
11.5374
11.703
12.3169
13.1358
13.5346
13.9266
14.4178
14.8475
15.3974
16.0736
16.7767
17.4811
18.2117
18.9787
19.7557
20.5043
21.2185
21.8698
22.4364
22.8957
23.2363
23.4508
23.5656
23.6137
2.43215
8.46824
9.84257
10.6562
11.2579
11.5037
11.5654
11.4962
11.58
12.4536
13.3602
13.9144
14.4464
14.9639
15.4346
15.9998
16.5992
17.2202
17.8941
18.6205
19.3857
20.1782
20.9893
21.7876
22.557
23.2622
23.8784
24.3739
24.7379
24.9637
25.0787
25.1265
2.40982
8.43281
9.86643
10.5332
10.8828
10.9833
11.2766
11.5669
12.6505
13.592
14.2882
14.9225
15.4859
15.9917
16.5118
17.0309
17.6159
18.2878
19.0248
19.8126
20.6472
21.5186
22.4074
23.2791
24.112
24.8701
25.534
26.0663
26.4571
26.6984
26.8171
26.866
2.49465
8.74653
10.3096
11.0628
11.5441
11.5986
11.8708
12.8097
13.6857
14.4511
15.2316
15.9371
16.5645
17.1472
17.7016
18.2931
18.9323
19.6297
20.3978
21.2329
22.1225
23.0515
24.0015
24.9389
25.8376
26.6558
27.372
27.9447
28.3642
28.6225
28.7472
28.7982
2.74757
9.67446
11.2083
11.5174
11.5908
11.6959
12.5676
13.5549
14.5599
15.5308
16.359
17.0854
17.7473
18.3644
18.976
19.6019
20.2796
21.0315
21.8594
22.7572
23.7143
24.714
25.7345
26.7415
27.7055
28.583
29.351
29.9654
30.4155
30.693
30.8264
30.8809
2.82117
2.96171
3.17694
3.33766
3.45623
3.54708
3.63127
3.70738
3.82736
3.93868
4.01752
4.10894
4.15424
4.18465
4.22999
4.29927
4.22865
4.18815
4.18517
4.21709
4.28424
4.36532
4.32087
4.29849
4.30039
4.30276
4.28955
4.21741
4.121
4.04106
3.92946
3.83623
3.73602
3.63367
3.53987
3.49748
3.45846
3.32972
3.15175
2.96581
9.73188
10.1026
10.6678
11.0606
11.305
11.4186
11.4839
11.4713
11.4962
11.4613
11.354
11.2414
11.0463
10.823
10.5996
10.3867
10.2384
10.1765
10.1719
10.2217
10.3252
10.479
10.6824
10.9091
11.1428
11.3636
11.4351
11.4035
11.5481
11.5956
11.573
11.5868
11.3939
11.3312
11.3453
11.5192
11.5033
11.2547
10.8081
10.3323
11.4306
11.4795
11.4612
11.4689
11.6227
11.5309
11.734
11.8458
11.9835
12.0798
12.1393
12.1772
12.1742
12.1567
12.1298
12.0937
12.1022
12.1383
12.1761
12.2121
12.246
12.2789
12.347
12.4133
12.4678
12.5046
12.5212
12.4925
12.4341
12.3653
12.2633
12.1547
12.0171
11.8913
11.6785
11.6068
11.5932
11.5468
11.474
11.477
11.6075
11.5213
11.5511
11.8574
12.0763
12.3204
12.5863
12.7994
13.0051
13.1734
13.3185
13.4481
13.5655
13.6826
13.7878
13.8791
13.9647
14.0435
14.105
14.1468
14.1689
14.1705
14.1587
14.1314
14.0875
14.0376
13.9702
13.8795
13.7562
13.6093
13.4325
13.2356
13.0069
12.7756
12.4893
12.2087
11.9851
11.6888
11.6371
11.5481
11.6053
11.9901
12.3161
12.7337
13.0808
13.4222
13.7341
14.0068
14.2555
14.4804
14.695
14.904
15.0989
15.28
15.4437
15.5865
15.7089
15.8093
15.8835
15.9297
15.9481
15.9387
15.9031
15.8418
15.7551
15.6451
15.5154
15.3696
15.1996
15.0055
14.7777
14.5239
14.2356
13.9286
13.5828
13.2074
12.8421
12.4168
12.0743
11.6438
12.4742
12.9049
13.3964
13.8389
14.2454
14.6155
14.9512
15.2557
15.5444
15.8208
16.0868
16.3364
16.5703
16.7858
16.9804
17.1504
17.2938
17.4082
17.4904
17.5393
17.5549
17.5375
17.488
17.4073
17.2966
17.1575
16.991
16.7984
16.5861
16.3521
16.0913
15.8041
15.4818
15.1356
14.7507
14.3421
13.8988
13.4388
12.9294
12.4882
13.536
14.0175
14.5379
14.9803
15.397
15.7723
16.125
16.4584
16.7824
17.0891
17.3821
17.6583
17.9178
18.1575
18.3742
18.564
18.7233
18.8489
18.9376
18.9884
19.0013
18.9768
18.9157
18.8193
18.6892
18.5277
18.3365
18.1175
17.872
17.6015
17.3092
16.9941
16.6487
16.2812
15.8735
15.4538
14.9745
14.5209
13.9316
13.5147
14.6272
15.1371
15.6248
16.0607
16.4707
16.8551
17.2262
17.5812
17.9228
18.2492
18.5624
18.8597
19.1401
19.3999
19.6353
19.8415
20.0143
20.1495
20.2439
20.2964
20.3072
20.2767
20.2056
20.0957
19.9492
19.7686
19.5566
19.3156
19.0473
18.7533
18.434
18.0921
17.7247
17.3392
16.9165
16.49
15.9967
15.5539
14.9411
14.5571
15.6743
16.1683
16.6253
17.055
17.4657
17.8612
18.2415
18.6083
18.9634
19.3058
19.6359
19.9511
20.2492
20.5261
20.7772
20.9974
21.1814
21.3248
21.4241
21.4781
21.4875
21.4525
21.3737
21.253
21.0931
20.897
20.6679
20.4086
20.1215
19.8087
19.4709
19.1103
18.7241
18.3203
17.885
17.4478
16.9516
16.507
15.909
15.5203
16.6553
17.0861
17.5491
17.9699
18.3864
18.7836
19.1714
19.5475
19.9142
20.27
20.6143
20.9443
21.2569
21.5477
21.8116
22.0428
22.2359
22.3858
22.4889
22.5444
22.5532
22.5154
22.4316
22.3034
22.1338
21.926
21.6838
21.4104
21.1087
20.781
20.4286
20.0537
19.6548
19.2377
18.7925
18.3414
17.8458
17.3839
16.8228
16.3823
17.5362
17.9167
18.4019
18.808
19.2316
19.6299
20.0256
20.4095
20.7864
21.1531
21.5088
21.8505
22.1744
22.4759
22.7494
22.989
23.1888
23.3434
23.4492
23.5056
23.5147
23.4764
23.3904
23.2583
23.0828
22.8676
22.6166
22.3334
22.0211
21.6825
21.3192
20.9335
20.5244
20.0973
19.6443
19.1832
18.6847
18.2072
17.6592
17.1991
18.3137
18.68
19.1768
19.5777
20.0093
20.4111
20.8147
21.2061
21.5918
21.9673
22.3321
22.6825
23.0148
23.324
23.6043
23.8498
24.0541
24.2116
24.3185
24.3749
24.3851
24.3487
24.2639
24.1314
23.954
23.7355
23.4799
23.191
22.8723
22.5265
22.1556
21.762
21.3451
20.9098
20.449
19.9791
19.4722
18.9857
18.4264
17.9676
19.0041
19.3752
19.8835
20.2906
20.7312
21.1403
21.5523
21.9515
22.345
22.728
23.0999
23.4569
23.7952
24.1096
24.3944
24.6434
24.8502
25.0087
25.1147
25.1691
25.1814
25.1501
25.07
24.9409
24.7654
24.5473
24.2909
24.0001
23.6783
23.3287
22.9531
22.5541
22.131
21.6887
21.2195
20.74
20.2199
19.7227
19.1419
18.6817
19.6221
20.0128
20.5388
20.9615
21.4143
21.8342
22.2559
22.6637
23.0649
23.4546
23.8323
24.1943
24.5367
24.8545
25.1419
25.3928
25.6004
25.7582
25.8611
25.9106
25.9262
25.9039
25.8322
25.7097
25.5393
25.3249
25.0708
24.7811
24.4593
24.1084
23.7304
23.3277
22.8996
22.4507
21.9725
21.4811
20.9443
20.4322
19.824
19.3566
20.1992
20.6125
21.1654
21.6104
22.08
22.5139
22.9472
23.3646
23.7737
24.1699
24.5528
24.9187
25.2641
25.584
25.8728
26.1243
26.3319
26.4883
26.5885
26.6364
26.6552
26.6416
26.5791
26.465
26.3017
26.0933
25.8439
25.5576
25.2379
24.8877
24.5089
24.1037
23.6712
23.2156
22.7278
22.2225
21.6673
21.1356
20.4999
20.0146
20.7744
21.2053
21.7921
22.2626
22.7538
23.2038
23.6503
24.0783
24.4958
24.8985
25.2862
25.6556
26.0032
26.3244
26.6139
26.8657
27.073
27.229
27.3297
27.3816
27.4043
27.3951
27.3402
27.2347
27.0795
26.8783
26.6351
26.3537
26.0375
25.6893
25.3107
24.9038
24.4672
24.0047
23.5067
22.9868
22.4124
21.8599
21.1956
20.6939
21.3809
21.8309
22.4495
22.9468
23.4612
23.9289
24.3892
24.8286
25.2547
25.664
26.0563
26.4288
26.7783
27.1005
27.3904
27.6423
27.8496
28.0061
28.1088
28.1678
28.1942
28.1879
28.1399
28.0429
27.8963
27.7031
27.4669
27.1913
26.8794
26.5338
26.156
25.7476
25.3071
24.8377
24.3296
23.7954
23.2029
22.6297
21.939
21.4206
22.0517
22.5223
23.1669
23.6895
24.2252
24.7106
25.1845
25.6351
26.0696
26.4853
26.8821
27.2575
27.6086
27.9318
28.2222
28.4744
28.6822
28.8394
28.9434
29.0049
29.0353
29.0353
28.9958
28.908
28.7704
28.5854
28.3563
28.0868
27.7795
27.4368
27.0598
26.65
26.2059
25.7299
25.2124
24.6649
24.0563
23.4633
22.7502
22.2129
22.8103
23.2993
23.9645
24.5084
25.0616
25.5629
26.0491
26.5101
26.9525
27.3741
27.775
28.1531
28.5058
28.8297
29.1207
29.3738
29.5828
29.742
29.8486
29.9126
29.947
29.9528
29.921
29.8414
29.7121
29.5348
29.3127
29.049
28.7462
28.4062
28.0299
27.6188
27.1711
26.689
26.1632
25.6038
24.9812
24.3703
23.6371
23.0812
23.6615
24.166
24.8479
25.4084
25.975
26.4894
26.9862
27.4562
27.9055
28.3323
28.7368
29.1171
29.4712
29.7959
30.0875
30.3417
30.5528
30.7153
30.8263
30.894
30.9322
30.943
30.9172
30.8443
30.7221
30.5516
30.3358
30.0773
29.7785
29.4407
29.0651
28.6526
28.2014
27.7136
27.1802
26.6112
25.9768
25.3498
24.5975
24.0233
24.5946
25.1124
25.808
26.3811
26.9575
27.4824
27.9881
28.4656
28.9207
29.352
29.7593
30.1414
30.4964
30.8216
31.1137
31.3689
31.5822
31.7489
31.8653
31.9376
31.9798
31.995
31.9737
31.9063
31.7899
31.6255
31.4151
31.1614
30.866
30.5305
30.1553
29.7414
29.2871
28.7942
28.2542
27.6774
27.0329
26.3911
25.62
25.0273
25.5863
26.116
26.8236
27.4064
27.9905
28.5239
29.037
29.5206
29.9806
30.4152
30.8247
31.2081
31.5636
31.889
32.1813
32.4372
32.6526
32.8229
32.9448
33.0222
33.0691
33.0881
33.0707
33.0078
32.8965
32.7372
32.532
32.2827
31.9906
31.6571
31.2825
30.8674
30.4103
29.9128
29.3674
28.7839
28.1299
27.4743
26.6851
26.0748
26.6066
27.1468
27.8655
28.4563
29.0471
29.588
30.1071
30.596
31.0596
31.4969
31.908
32.292
32.6475
32.9726
33.265
33.5213
33.7383
33.9118
34.0386
34.1219
34.1734
34.1962
34.182
34.1228
34.0159
33.8615
33.6611
33.4159
33.1271
32.7958
32.4219
32.0061
31.5468
31.0454
30.4951
29.9052
29.2425
28.5753
27.7698
27.1436
27.6173
28.1679
28.898
29.4964
30.0942
30.6419
31.1665
31.6596
32.1264
32.5655
32.9775
33.3618
33.717
34.0417
34.3338
34.5905
34.8089
34.9856
35.1174
35.207
35.2634
35.2893
35.2772
35.2208
35.1177
34.9676
34.7716
34.5304
34.2451
33.916
33.5433
33.1272
32.6661
32.1615
31.6064
31.0103
30.3405
29.6632
28.8414
28.1997
28.5809
29.1417
29.8841
30.4905
31.0958
31.6496
32.1791
32.6758
33.1449
33.5854
33.9978
34.3818
34.7365
35.0606
35.3523
35.6093
35.8294
36.0096
36.1473
36.2444
36.3059
36.334
36.3228
36.2678
36.1674
36.0211
35.8291
35.592
35.3102
34.9838
34.6128
34.1971
33.7352
33.2283
32.6693
32.068
31.3916
30.705
29.8674
29.2114
29.4585
30.0291
30.7843
31.3992
32.0118
32.5718
33.1056
33.6054
34.0765
34.518
34.9307
35.3143
35.6682
35.9916
36.2827
36.5401
36.7615
36.9449
37.0884
37.193
37.2608
37.2909
37.2798
37.2257
37.1273
36.9841
36.7959
36.5626
36.2844
35.9608
35.5918
35.1769
34.7145
34.2055
33.6431
33.0364
32.3531
31.6567
30.8034
30.1336
30.2116
30.7914
31.5589
32.1828
32.8029
33.3686
33.9069
34.4098
34.8828
35.3253
35.7383
36.1216
36.4749
36.7974
37.0881
37.3455
37.5678
37.7533
37.9004
38.0094
38.0816
38.1145
38.1058
38.0542
37.959
37.8195
37.6355
37.4065
37.1322
36.8121
36.4457
36.0324
35.5703
35.0603
34.4951
33.8842
33.1944
32.4893
31.6218
30.9406
30.8049
31.3938
32.1739
32.808
33.436
34.0076
34.5503
35.0564
35.5315
35.9751
36.3884
36.7716
37.1244
37.4463
37.7364
37.9935
38.2161
38.4025
38.5512
38.6626
38.7374
38.7732
38.7675
38.7195
38.6281
38.493
38.3133
38.0884
37.8179
37.5009
37.1369
36.7248
36.263
35.7516
35.1836
34.568
33.8714
33.1577
32.2781
31.587
31.2116
31.8103
32.6037
33.2495
33.8866
34.4649
35.0125
35.5223
35.9997
36.4449
36.859
37.2423
37.595
37.9165
38.2062
38.4631
38.6857
38.8728
39.0225
39.1354
39.2123
39.2505
39.2478
39.2034
39.1159
38.9849
38.8093
38.5885
38.3217
38.0079
37.6462
37.2357
36.7743
36.262
35.6917
35.072
34.3695
33.6486
32.7595
32.0612
31.4505
32.0574
32.8622
33.5191
34.1646
34.7488
35.3006
35.8132
36.2926
36.7387
37.1532
37.5364
37.8886
38.2095
38.4985
38.7548
38.9773
39.1644
39.3147
39.4286
39.5068
39.5467
39.5463
39.5045
39.42
39.2922
39.1199
38.9022
38.6383
38.327
37.9672
37.5577
37.0964
36.5832
36.0109
35.3876
34.68
33.9531
33.0574
32.3545
31.5544
32.1667
32.9788
33.6441
34.2965
34.8854
35.4405
35.9554
36.4362
36.8832
37.2978
37.6809
38.0325
38.3528
38.6412
38.8969
39.1189
39.3058
39.4563
39.5706
39.6494
39.6904
39.6914
39.6513
39.569
39.4433
39.2735
39.0581
38.7963
38.4869
38.1284
37.7198
37.2585
36.7446
36.1708
35.5445
34.8328
34.1015
33.2015
32.4962
31.593
32.2067
33.0215
33.6904
34.3458
34.937
35.4935
36.0095
36.4908
36.9379
37.3525
37.7352
38.0864
38.406
38.6937
38.9488
39.1704
39.3571
39.5075
39.622
39.7011
39.7426
39.7444
39.7053
39.6243
39.5001
39.3317
39.1179
38.8576
38.5495
38.1922
37.7844
37.3237
36.8099
36.2356
35.6084
34.8952
34.1619
33.2603
32.5541
4.79602
18.8306
34.1819
38.1953
41.6297
43.2177
44.3158
44.692
44.925
45.0106
45.0681
45.1695
45.2367
45.3468
45.4683
45.4898
45.1979
44.4732
43.9277
44.5835
43.0115
42.4155
41.0818
41.4844
43.9011
41.4662
41.5119
40.7063
40.2485
39.597
39.178
38.9865
14.8434
18.9754
33.5937
37.8044
41.2854
42.9884
44.1144
44.5888
44.9111
44.9763
45.1239
45.2641
45.4899
45.6627
45.7574
45.6237
45.2276
44.5654
44.128
44.4784
43.0903
42.5638
41.4011
41.7715
44.0273
41.8352
41.791
41.0751
40.6816
40.0919
39.7651
39.5994
14.9208
17.9581
32.8123
37.3016
40.8645
42.7005
44.0079
44.592
44.9544
45.1553
45.275
45.3854
45.5154
45.6744
45.7211
45.5469
45.1033
44.5131
44.2088
44.3204
43.2152
42.8271
41.9152
42.3061
44.3645
42.4459
42.3106
41.6416
41.2589
40.6114
40.3026
40.1539
15.8821
17.8493
32.052
36.8241
40.4839
42.4785
43.7896
44.4223
44.9056
45.0829
45.2913
45.4606
45.7454
45.9498
45.9639
45.671
45.2
44.7579
44.4867
44.3795
43.4434
43.0192
42.3214
42.6427
44.535
42.8813
42.6605
42.0918
41.7671
41.1921
40.961
40.8326
16.5589
15.8757
31.0466
36.2017
40.0128
42.1018
43.586
44.3756
44.8802
45.228
45.4707
45.6519
45.8034
45.9211
45.8644
45.593
45.1832
44.8386
44.6248
44.4
43.7012
43.3227
42.8944
43.2133
44.9091
43.5428
43.2366
42.7195
42.3966
41.7791
41.5554
41.4413
16.1498
16.3517
30.0992
35.5727
39.5166
41.838
43.3501
44.1469
44.8147
45.1471
45.4586
45.6683
45.9583
46.1432
46.108
45.7967
45.4137
45.197
44.9589
44.64
44.044
43.5628
43.3565
43.5904
45.0985
44.0087
43.6375
43.2178
42.9518
42.4202
42.2577
42.1601
10.2179
13.3405
28.7495
34.7029
38.9306
41.3455
43.0341
44.0741
44.7555
45.2648
45.6386
45.895
46.0498
46.119
46.021
45.7887
45.5218
45.3557
45.1371
44.8142
44.3825
43.9203
43.9605
44.1854
45.4955
44.6922
44.25
43.8817
43.6117
43.0524
42.8848
42.7988
11.8969
13.8656
27.401
33.7676
38.1745
40.9622
42.7808
43.7957
44.6766
45.1829
45.6035
45.8501
46.1414
46.3263
46.3257
46.1191
45.8802
45.7837
45.5262
45.1919
44.7883
44.2299
44.457
44.594
45.6953
45.1545
44.6786
44.3958
44.187
43.7238
43.6051
43.5337
12.5574
10.6938
25.6116
32.4301
37.3307
40.2535
42.2683
43.6598
44.5661
45.2498
45.7469
46.0944
46.2847
46.3533
46.2919
46.1796
46.0667
45.9719
45.7348
45.4563
45.1568
44.6622
45.0707
45.2001
46.1178
45.8296
45.3012
45.0657
44.8473
44.3673
44.2299
44.1679
14.2537
10.1603
23.6264
30.9462
36.0306
39.558
41.904
43.2488
44.4018
45.1074
45.661
45.9731
46.3058
46.5458
46.6522
46.6023
46.4867
46.4186
46.1586
45.8973
45.5742
45.0367
45.5559
45.6024
46.3117
46.2375
45.713
45.5457
45.3968
45.0179
44.9281
44.8797
16.3734
5.36887
21.087
28.7635
34.7103
38.4128
40.9867
42.9218
44.1348
45.0514
45.699
46.1858
46.4706
46.6013
46.6284
46.6511
46.6553
46.5721
46.3531
46.1634
45.919
45.5221
46.1326
46.1814
46.7487
46.8602
46.304
46.1788
46.0123
45.6217
45.4994
45.458
18.7332
14.1012
18.1063
26.473
32.3337
37.043
40.2897
42.1431
43.7351
44.7279
45.4922
45.9271
46.3545
46.7055
46.9633
47.0748
47.0461
46.979
46.7624
46.5899
46.3028
45.9135
46.5382
46.5132
46.8945
47.1405
46.6262
46.5491
46.4616
46.1793
46.1115
46.0852
20.4083
8.20063
14.9321
22.8988
30.2821
35.0073
38.514
41.4186
43.1149
44.4243
45.3178
46.0298
46.4685
46.7038
46.8372
46.9781
47.074
47.0095
46.8604
46.7617
46.5622
46.379
47.0071
47.0045
47.3048
47.6456
47.1211
47.0814
46.966
46.6638
46.5598
46.5374
21.1512
11.3349
12.2629
19.5653
25.6085
32.2598
37.0961
39.7414
42.1869
43.6888
44.8581
45.5308
46.1253
46.6318
47.0553
47.3094
47.34
47.3014
47.1772
47.092
46.8571
46.6912
47.2444
47.1849
47.3415
47.7355
47.2959
47.2878
47.2662
47.0931
47.0492
47.047
20.1672
11.8882
4.42141
12.456
22.7693
28.1981
33.1865
38.1749
40.7671
42.8896
44.2542
45.384
46.0908
46.4883
46.7415
46.973
47.1517
47.1383
47.097
47.0941
46.9887
47.0683
47.5837
47.5741
47.706
48.1021
47.6738
47.697
47.6244
47.3976
47.3201
47.3125
18.3792
11.6305
11.0878
9.0465
8.71999
22.0742
30.3241
34.1541
38.6666
41.2044
43.2453
44.3946
45.34
46.1124
46.7532
47.1632
47.2659
47.2937
47.2927
47.3048
47.1831
47.2429
47.5806
47.5098
47.5188
47.8554
47.5561
47.5848
47.6242
47.5868
47.5796
47.5991
16.0925
11.2272
10.3893
10.051
10.2673
13.0847
16.5862
30.1482
34.9799
39.3013
41.7113
43.7197
44.927
45.6221
46.0495
46.388
46.6983
46.7991
46.8986
47.0009
47.063
47.389
47.6886
47.7062
47.7445
47.9927
47.7351
47.7788
47.7245
47.5403
47.4737
47.4689
13.3877
11.1436
10.7105
6.44821
5.20853
3.54632
6.95141
13.351
29.2088
34.9615
39.4536
41.6453
43.3466
44.6437
45.6632
46.3378
46.5572
46.7175
46.8708
47.0025
47.065
47.2505
47.2111
47.1022
46.9679
46.9675
46.8726
46.832
46.9026
47.0393
47.0902
47.1318
11.4514
11.0985
4.79518
5.55906
10.9885
10.9695
11.2892
7.15362
14.4277
30.1825
35.5547
39.8649
42.113
43.3536
44.0777
44.5747
45.1325
45.4326
45.6855
45.8943
46.1883
46.6713
46.6716
46.7113
46.679
46.5272
46.519
46.4577
46.3384
46.0624
45.9355
45.8728
11.2917
9.00467
10.3214
4.15252
9.68883
8.47264
12.042
6.35202
7.23261
12.793
30.4652
35.0403
38.4916
40.9802
42.7929
44.024
44.4328
44.7842
45.097
45.3582
45.6383
45.7116
44.9694
44.6201
44.1558
43.2226
43.375
42.8513
42.8529
43.2584
43.3547
43.4558
11.1917
8.06255
9.30977
8.90477
8.95665
9.77803
13.0232
8.26054
5.84828
6.70734
20.6559
30.9296
35.425
37.5481
38.7747
39.4491
40.5716
41.2221
41.5836
41.7743
42.2238
42.698
42.2802
42.275
42.1065
41.1044
41.3934
40.8264
39.967
38.8827
38.0978
37.3688
6.59579
8.63284
10.1418
11.2068
8.10454
7.45245
10.1836
10.908
13.5437
8.50846
8.54755
8.03419
20.4636
29.2351
34.3236
37.7353
38.4679
39.014
39.4076
39.7188
40.0468
38.9742
35.9667
33.4568
30.6117
23.7299
22.1592
12.3718
19.9293
7.1424
20.4404
9.51635
3.30841
4.17791
7.46295
9.56996
16.6877
20.7534
21.1101
17.4194
11.6172
8.48385
8.00168
9.12551
9.06942
11.9225
9.37218
10.4984
18.8839
21.8046
21.1963
17.5794
11.7627
18.3611
19.7425
6.42316
7.31707
8.18287
13.2691
11.5162
11.4051
5.54254
8.09183
16.4899
6.20493
11.4282
8.92228
8.9945
15.9726
22.585
25.9812
27.1487
27.1241
24.7312
17.7531
11.922
9.73441
10.8124
8.40082
9.10424
2.51925
15.4924
16.0786
5.42699
14.9932
10.2632
12.1907
1.54563
13.719
15.6219
15.9013
4.66839
7.04685
4.60248
11.7107
12.1292
7.15952
13.1663
12.8057
11.6874
14.7092
20.2955
24.8833
27.505
28.279
27.6521
26.7102
23.5079
17.2462
14.1803
1.94161
9.93796
11.6937
16.1714
11.5856
7.65732
9.49032
8.668
13.1214
11.0298
12.4972
16.7397
20.9268
22.9241
24.4048
26.2682
26.5435
26.7095
6.5704
14.9132
17.0733
17.351
18.2015
20.8793
24.1798
26.9136
28.5236
29.1029
28.3506
25.1916
23.1794
24.2908
25.8302
22.0995
19.0331
16.6942
15.91
17.638
20.1585
22.336
23.3865
24.8254
26.4743
26.7657
26.6988
27.0383
27.2129
27.1049
27.2124
27.1594
5.79859
15.5032
19.1432
21.096
22.2773
23.6938
25.4847
27.3044
28.6542
29.1162
27.9254
23.8488
21.0158
22.531
23.8515
24.385
24.821
24.9029
24.9172
24.9642
25.0004
25.1423
25.4987
26.0544
26.2314
26.7347
26.9335
27.2135
27.2777
27.1811
27.0812
26.8648
4.7926
14.3141
18.6273
21.5951
23.5401
24.8909
25.936
26.6567
26.5825
24.7524
19.9845
8.143
1.62115
14.7795
21.1847
22.3282
23.5928
23.8207
23.804
23.8194
23.7794
23.742
23.9177
24.3594
24.5472
23.9733
23.4796
23.1836
22.9533
22.5558
22.2585
22.1627
3.67409
11.7156
15.658
19.162
21.7533
23.4471
24.3603
24.4553
23.3437
20.4525
13.8991
11.6791
11.6202
4.59842
5.91196
8.01125
15.4708
18.1521
18.8965
18.5621
17.6411
17.0719
17.5378
18.6267
19.066
19.457
20.0524
20.6543
21.1474
21.4005
21.5863
21.6354
3.06459
9.8984
12.2868
15.504
18.3135
20.1384
20.8836
20.4048
18.2151
13.2064
4.16314
8.1268
7.40242
13.6894
15.284
15.8537
13.9229
13.5889
14.1339
14.979
16.0874
17.2737
18.2933
19.0879
19.6228
19.9109
20.1943
20.332
20.3978
20.2832
20.1613
20.1618
2.48056
8.11809
10.4223
11.7233
13.606
14.7991
14.8068
13.4701
6.51617
5.17386
2.31829
10.8385
12.596
10.256
10.0496
11.8798
15.346
16.6099
17.0247
17.1115
16.9927
16.9306
17.2422
17.7916
18.117
18.3886
18.7273
18.9962
19.2684
19.3965
19.4942
19.5394
2.38023
7.68675
9.48301
10.8415
11.4781
11.5587
11.5606
10.8092
8.6962
7.29821
10.08
10.9774
10.8814
11.5809
12.8591
13.2947
12.6742
13.2135
14.0171
14.7258
15.4187
16.1981
16.9374
17.5631
18.1018
18.5145
18.8883
19.188
19.466
19.6226
19.7103
19.7658
2.8387
8.63511
10.4548
11.4891
12.1566
12.8398
13.0878
12.8072
12.2407
11.6672
11.4754
11.4943
11.5334
11.7165
11.9085
12.8533
14.314
15.0587
15.5394
15.9394
16.2993
16.6698
17.1535
17.736
18.3082
18.8361
19.3124
19.6903
19.989
20.1688
20.2828
20.3366
2.62144
8.35795
10.2805
11.5541
12.7613
13.6349
13.8553
13.3508
11.9307
11.4713
11.5189
11.5145
12.1482
12.8201
13.417
13.6822
13.7764
14.3118
14.9736
15.648
16.3497
17.0798
17.8028
18.477
19.1004
19.6415
20.1133
20.484
20.773
20.945
21.0423
21.092
2.64024
8.44016
10.1989
11.5219
12.4014
13.0453
13.0851
12.4755
11.9097
11.5155
11.7863
12.616
13.0902
13.3605
13.6989
14.3126
15.0514
15.6301
16.1818
16.7526
17.3376
17.9463
18.6004
19.2729
19.926
20.5231
21.0435
21.4506
21.7431
21.9147