/*--------------------------------*- C++ -*----------------------------------*\
  =========                 |
  \\      /  F ield         | OpenFOAM: The Open Source CFD Toolbox
   \\    /   O peration     | Website:  https://openfoam.org
    \\  /    A nd           | Version:  6
     \\/     M anipulation  |
\*---------------------------------------------------------------------------*/
FoamFile
{
    version     2.0;
    format      ascii;
    class       volScalarField;
    location    "3";
    object      p;
}
// * * * * * * * * * * * * * * * * * * * * * * * * * * * * * * * * * * * * * //

dimensions      [0 2 -2 0 0 0 0];

internalField   nonuniform List<scalar> 
380496
(
0.0122819
0.0126591
0.0123959
0.0123227
0.0122648
0.0122008
0.0121397
0.0120778
0.0120147
0.0119514
0.0118878
0.0118243
0.0117608
0.0116973
0.0116335
0.011569
0.0115037
0.011437
0.0113689
0.0112986
0.0112261
0.0111507
0.0110722
0.0109898
0.0109032
0.0108115
0.0107142
0.0106104
0.0104999
0.0103814
0.0102559
0.0101199
0.00998145
0.00982364
0.00968755
0.0122546
0.0126232
0.0123728
0.0123049
0.0122505
0.0121885
0.012128
0.0120653
0.0120009
0.0119353
0.011869
0.0118021
0.0117347
0.0116667
0.0115979
0.011528
0.0114566
0.0113833
0.011308
0.0112302
0.0111496
0.0110659
0.0109786
0.0108872
0.0107915
0.0106905
0.0105841
0.0104713
0.0103522
0.010225
0.0100917
0.0099461
0.00980099
0.00962472
0.00948723
0.0122233
0.0125863
0.0123484
0.0122864
0.0122356
0.0121753
0.0121148
0.0120508
0.0119842
0.0119157
0.0118459
0.011775
0.0117031
0.0116301
0.0115557
0.0114795
0.0114013
0.0113205
0.0112371
0.0111506
0.0110608
0.0109673
0.0108698
0.0107679
0.0106613
0.0105494
0.0104319
0.0103079
0.0101778
0.0100397
0.00989643
0.00974071
0.00958847
0.00940372
0.009265
0.0121839
0.0125462
0.012323
0.0122685
0.0122224
0.0121646
0.0121045
0.0120398
0.0119715
0.0119006
0.0118279
0.0117536
0.0116778
0.0116005
0.0115213
0.0114398
0.0113558
0.0112688
0.0111787
0.011085
0.0109878
0.0108864
0.0107811
0.0106711
0.0105564
0.0104363
0.0103109
0.0101791
0.0100416
0.00989612
0.00974611
0.00958329
0.00942432
0.00923124
0.00908155
0.0121473
0.0125029
0.012298
0.0122518
0.0122103
0.0121547
0.0120946
0.0120287
0.0119582
0.0118845
0.0118086
0.0117307
0.011651
0.0115692
0.0114852
0.0113984
0.0113086
0.0112153
0.0111184
0.0110175
0.0109126
0.0108034
0.01069
0.0105718
0.0104488
0.0103205
0.010187
0.0100473
0.00990221
0.00974953
0.00959326
0.00942437
0.00926264
0.00906494
0.00892405
0.012097
0.0124567
0.0122725
0.0122359
0.0122002
0.0121472
0.0120874
0.0120204
0.011948
0.0118717
0.0117929
0.0117116
0.0116283
0.0115426
0.0114542
0.0113626
0.0112677
0.0111687
0.0110658
0.0109586
0.0108472
0.0107313
0.0106111
0.0104861
0.0103564
0.0102215
0.0100815
0.00993568
0.00978485
0.00962664
0.0094655
0.00929149
0.00912613
0.00892169
0.0087801
0.0120439
0.0124077
0.0122477
0.012222
0.0121923
0.0121416
0.0120817
0.0120131
0.0119383
0.0118593
0.0117773
0.0116927
0.0116059
0.0115164
0.011424
0.011328
0.0112282
0.0111241
0.0110156
0.0109026
0.0107851
0.010663
0.0105365
0.0104052
0.0102693
0.0101283
0.00998245
0.00983097
0.0096749
0.0095118
0.00934663
0.00916878
0.00900204
0.00879458
0.00865896
0.01198
0.0123568
0.0122245
0.0122109
0.0121877
0.0121391
0.0120788
0.0120086
0.0119315
0.0118497
0.0117648
0.0116772
0.0115871
0.0114942
0.011398
0.011298
0.0111938
0.011085
0.0109716
0.0108534
0.0107306
0.0106031
0.0104712
0.0103345
0.0101934
0.0100474
0.00989676
0.00974069
0.0095804
0.00941334
0.00924471
0.00906339
0.0088939
0.00868248
0.00854386
0.0119053
0.012306
0.0122034
0.0122028
0.0121865
0.0121394
0.0120782
0.0120061
0.0119263
0.0118416
0.0117539
0.0116634
0.0115706
0.0114747
0.0113755
0.0112722
0.0111644
0.0110517
0.0109343
0.0108118
0.0106847
0.0105527
0.0104164
0.0102754
0.01013
0.00997983
0.00982527
0.00966549
0.00950182
0.00933167
0.00916055
0.00897701
0.00880674
0.00859413
0.00845886
0.0118298
0.0122622
0.0121882
0.0121998
0.0121891
0.0121425
0.0120801
0.0120058
0.0119236
0.0118364
0.0117462
0.0116533
0.0115581
0.0114598
0.011358
0.0112519
0.0111412
0.0110254
0.0109046
0.0107787
0.010648
0.0105125
0.0103726
0.0102281
0.0100793
0.00992586
0.0097682
0.00960553
0.0094392
0.00926665
0.00909346
0.00890795
0.0087361
0.00852143
0.00838424
0.0117337
0.0122187
0.0121743
0.0121995
0.0121947
0.0121482
0.012084
0.0120072
0.0119221
0.0118322
0.0117395
0.0116443
0.011547
0.0114467
0.0113428
0.0112344
0.0111213
0.0110029
0.0108794
0.0107507
0.0106171
0.0104787
0.0103359
0.0101885
0.0100369
0.00988075
0.0097205
0.00955542
0.00938694
0.00921248
0.00903778
0.00885103
0.00867881
0.00846373
0.00832904
0.0116343
0.0121844
0.0121666
0.0122044
0.0122039
0.012156
0.0120896
0.0120101
0.0119223
0.0118299
0.0117349
0.0116378
0.0115387
0.0114366
0.0113309
0.0112207
0.0111056
0.0109851
0.0108593
0.0107282
0.0105922
0.0104513
0.010306
0.0101561
0.010002
0.00984348
0.00968102
0.00951391
0.00934362
0.00916758
0.00899156
0.00880367
0.0086304
0.00841431
0.00827742
0.0115065
0.0121552
0.0121616
0.0122134
0.0122169
0.0121666
0.0120972
0.0120146
0.0119237
0.0118286
0.0117313
0.0116323
0.0115315
0.0114279
0.0113208
0.0112092
0.0110926
0.0109704
0.010843
0.0107101
0.0105723
0.0104294
0.010282
0.0101301
0.00997397
0.00981346
0.00964916
0.00948036
0.00930861
0.00913135
0.00895443
0.00876594
0.00859258
0.00837669
0.00824142
0.0113711
0.0121392
0.0121621
0.0122266
0.0122318
0.0121781
0.0121057
0.0120199
0.0119262
0.0118286
0.0117294
0.0116287
0.0115267
0.011422
0.0113138
0.0112011
0.0110834
0.0109601
0.0108313
0.010697
0.0105574
0.0104128
0.0102635
0.0101096
0.0099516
0.0097893
0.00962335
0.00945309
0.0092801
0.00910187
0.00892421
0.00873525
0.0085613
0.00834515
0.00820781
0.0112058
0.0121369
0.0121686
0.0122464
0.0122517
0.0121928
0.0121163
0.0120267
0.0119298
0.0118296
0.0117283
0.0116259
0.0115227
0.011417
0.0113081
0.0111946
0.0110762
0.0109522
0.0108226
0.0106872
0.0105465
0.0104005
0.0102497
0.0100942
0.0099346
0.00977077
0.00960342
0.00943195
0.00925799
0.00907908
0.00890101
0.00871207
0.00853842
0.0083232
0.00818751
0.0110209
0.0121501
0.0121771
0.0122671
0.0122707
0.0122068
0.0121268
0.0120339
0.0119341
0.0118314
0.0117284
0.0116247
0.0115206
0.0114142
0.011305
0.0111914
0.0110728
0.0109486
0.0108184
0.0106822
0.0105402
0.0103927
0.0102401
0.0100829
0.00992167
0.00975637
0.00958772
0.00941522
0.00924047
0.00906112
0.00888279
0.00869404
0.00852019
0.00830543
0.00816789
0.0108159
0.0121874
0.0121964
0.012298
0.0122957
0.012224
0.012139
0.0120422
0.0119394
0.0118342
0.0117292
0.0116239
0.0115191
0.0114123
0.0113031
0.0111897
0.0110711
0.0109469
0.0108164
0.0106796
0.0105366
0.0103878
0.0102338
0.0100752
0.00991254
0.00974602
0.00957633
0.00940305
0.00922775
0.00904821
0.00886992
0.00868196
0.00850892
0.00829689
0.00816191
0.0105735
0.0122402
0.0122114
0.0123246
0.0123168
0.0122397
0.0121511
0.0120506
0.0119448
0.0118369
0.0117302
0.0116238
0.0115188
0.0114124
0.0113042
0.0111919
0.0110744
0.0109505
0.0108195
0.0106816
0.0105369
0.0103862
0.0102303
0.0100699
0.00990585
0.00973827
0.0095677
0.00939388
0.00921819
0.00903869
0.00886044
0.0086734
0.00849988
0.00828957
0.00814977
0.0103365
0.0123214
0.0122427
0.0123632
0.0123432
0.0122571
0.0121635
0.0120596
0.0119512
0.0118409
0.0117326
0.0116255
0.0115212
0.011416
0.0113092
0.0111973
0.0110795
0.0109545
0.010822
0.0106827
0.0105365
0.0103847
0.0102277
0.0100664
0.00990149
0.00973328
0.00956221
0.00938809
0.00921225
0.00903291
0.00885509
0.00866959
0.00849776
0.00829477
0.00815498
0.0100731
0.0124003
0.0122586
0.0123908
0.0123638
0.0122738
0.0121772
0.0120699
0.0119585
0.0118463
0.0117377
0.0116313
0.0115283
0.0114239
0.0113177
0.0112055
0.0110873
0.010961
0.0108272
0.010686
0.0105381
0.0103846
0.0102262
0.0100641
0.00989865
0.00973005
0.00955873
0.00938454
0.0092086
0.00902957
0.00885183
0.00866773
0.00849391
0.00829422
0.00813044
0.00984117
0.0124946
0.0122948
0.0124335
0.0123947
0.0122969
0.0121956
0.0120859
0.0119739
0.0118617
0.0117529
0.0116456
0.0115407
0.0114333
0.0113233
0.011207
0.0110852
0.0109567
0.010822
0.0106813
0.0105343
0.010382
0.0102243
0.0100625
0.00989729
0.00972872
0.00955753
0.00938335
0.00920764
0.00902874
0.00885189
0.00866872
0.00850145
0.00831019
0.0081982
0.0122812
0.0126573
0.0123959
0.0123228
0.0122648
0.0122008
0.0121397
0.0120777
0.0120147
0.0119513
0.0118878
0.0118243
0.0117608
0.0116972
0.0116334
0.011569
0.0115037
0.011437
0.0113689
0.0112986
0.0112261
0.0111508
0.0110723
0.0109899
0.0109033
0.0108115
0.0107143
0.0106105
0.0105
0.0103815
0.0102561
0.0101201
0.00998165
0.0098239
0.00968783
0.0122537
0.0126215
0.0123728
0.012305
0.0122505
0.0121885
0.012128
0.0120653
0.0120009
0.0119353
0.011869
0.0118021
0.0117347
0.0116667
0.0115979
0.011528
0.0114566
0.0113833
0.011308
0.0112302
0.0111497
0.0110659
0.0109786
0.0108873
0.0107915
0.0106906
0.0105842
0.0104714
0.0103523
0.0102251
0.0100919
0.0099463
0.00980118
0.009625
0.00948754
0.0122223
0.0125847
0.0123484
0.0122865
0.0122356
0.0121753
0.0121147
0.0120508
0.0119842
0.0119157
0.0118459
0.011775
0.0117031
0.01163
0.0115557
0.0114795
0.0114013
0.0113205
0.0112371
0.0111506
0.0110608
0.0109673
0.0108699
0.010768
0.0106614
0.0105495
0.010432
0.010308
0.0101779
0.0100398
0.00989656
0.00974088
0.00958862
0.00940396
0.00926523
0.012183
0.0125446
0.012323
0.0122686
0.0122224
0.0121646
0.0121045
0.0120398
0.0119715
0.0119006
0.0118279
0.0117536
0.0116778
0.0116005
0.0115213
0.0114398
0.0113558
0.0112688
0.0111787
0.0110851
0.0109878
0.0108865
0.0107811
0.0106711
0.0105564
0.0104364
0.0103109
0.0101792
0.0100417
0.00989624
0.00974624
0.00958345
0.00942447
0.00923147
0.00908177
0.0121462
0.0125013
0.012298
0.0122518
0.0122103
0.0121547
0.0120946
0.0120287
0.0119582
0.0118845
0.0118086
0.0117307
0.011651
0.0115692
0.0114852
0.0113985
0.0113087
0.0112153
0.0111184
0.0110175
0.0109127
0.0108035
0.01069
0.0105718
0.0104489
0.0103206
0.0101871
0.0100474
0.0099023
0.00974964
0.00959338
0.00942452
0.00926277
0.00906514
0.00892426
0.012096
0.0124551
0.0122725
0.012236
0.0122002
0.0121472
0.0120874
0.0120204
0.011948
0.0118717
0.0117928
0.0117116
0.0116283
0.0115426
0.0114542
0.0113627
0.0112677
0.0111688
0.0110659
0.0109587
0.0108473
0.0107314
0.0106111
0.0104861
0.0103564
0.0102215
0.0100816
0.00993576
0.00978493
0.00962674
0.0094656
0.00929162
0.00912624
0.00892188
0.00878026
0.0120428
0.0124062
0.0122476
0.012222
0.0121923
0.0121416
0.0120817
0.0120131
0.0119383
0.0118592
0.0117773
0.0116927
0.0116059
0.0115164
0.011424
0.011328
0.0112282
0.0111241
0.0110157
0.0109026
0.0107852
0.0106631
0.0105365
0.0104052
0.0102693
0.0101283
0.00998252
0.00983104
0.00967497
0.00951189
0.00934672
0.00916889
0.00900213
0.00879475
0.00865909
0.0119788
0.0123554
0.0122245
0.0122109
0.0121877
0.0121391
0.0120788
0.0120086
0.0119315
0.0118497
0.0117648
0.0116771
0.0115871
0.0114942
0.011398
0.011298
0.0111939
0.011085
0.0109717
0.0108534
0.0107307
0.0106032
0.0104712
0.0103346
0.0101935
0.0100474
0.00989681
0.00974075
0.00958046
0.00941341
0.00924478
0.00906348
0.00889397
0.00868262
0.00854395
0.0119041
0.0123046
0.0122034
0.0122029
0.0121865
0.0121394
0.0120782
0.0120061
0.0119263
0.0118416
0.0117539
0.0116634
0.0115706
0.0114747
0.0113755
0.0112722
0.0111644
0.0110518
0.0109343
0.0108118
0.0106847
0.0105528
0.0104164
0.0102754
0.0101301
0.00997988
0.00982532
0.00966555
0.00950187
0.00933174
0.00916061
0.00897709
0.0088068
0.00859426
0.00845895
0.0118285
0.0122609
0.0121882
0.0121999
0.0121891
0.0121425
0.0120801
0.0120058
0.0119236
0.0118364
0.0117462
0.0116533
0.0115581
0.0114598
0.0113581
0.011252
0.0111413
0.0110254
0.0109046
0.0107787
0.010648
0.0105125
0.0103726
0.0102281
0.0100794
0.0099259
0.00976824
0.00960557
0.00943925
0.0092667
0.00909351
0.00890802
0.00873615
0.00852154
0.0083843
0.0117325
0.0122175
0.0121742
0.0121996
0.0121948
0.0121481
0.012084
0.0120072
0.0119221
0.0118322
0.0117395
0.0116443
0.011547
0.0114467
0.0113428
0.0112345
0.0111214
0.011003
0.0108795
0.0107507
0.0106172
0.0104788
0.010336
0.0101886
0.010037
0.00988078
0.00972053
0.00955546
0.00938697
0.00921252
0.00903782
0.00885109
0.00867886
0.00846383
0.00832909
0.0116329
0.0121833
0.0121666
0.0122044
0.0122039
0.012156
0.0120895
0.0120101
0.0119223
0.0118299
0.0117349
0.0116378
0.0115387
0.0114366
0.011331
0.0112208
0.0111057
0.0109851
0.0108594
0.0107283
0.0105923
0.0104514
0.010306
0.0101561
0.010002
0.0098435
0.00968105
0.00951394
0.00934365
0.00916762
0.0089916
0.00880373
0.00863044
0.00841439
0.00827746
0.0115053
0.0121542
0.0121616
0.0122135
0.0122169
0.0121666
0.0120972
0.0120146
0.0119237
0.0118286
0.0117313
0.0116323
0.0115315
0.011428
0.0113209
0.0112093
0.0110926
0.0109705
0.0108431
0.0107102
0.0105723
0.0104294
0.010282
0.0101301
0.00997398
0.00981348
0.00964918
0.00948038
0.00930863
0.00913138
0.00895446
0.00876599
0.00859261
0.00837677
0.00824146
0.0113698
0.0121382
0.0121621
0.0122266
0.0122318
0.0121781
0.0121057
0.0120199
0.0119262
0.0118286
0.0117294
0.0116288
0.0115268
0.011422
0.0113139
0.0112012
0.0110834
0.0109601
0.0108314
0.010697
0.0105575
0.0104128
0.0102635
0.0101096
0.00995161
0.00978931
0.00962336
0.00945311
0.00928012
0.0091019
0.00892424
0.00873529
0.00856133
0.00834522
0.00820784
0.0112047
0.012136
0.0121685
0.0122464
0.0122517
0.0121928
0.0121163
0.0120267
0.0119298
0.0118296
0.0117283
0.011626
0.0115228
0.0114171
0.0113081
0.0111947
0.0110762
0.0109522
0.0108226
0.0106873
0.0105465
0.0104005
0.0102497
0.0100942
0.0099346
0.00977078
0.00960343
0.00943197
0.00925801
0.00907911
0.00890104
0.00871211
0.00853845
0.00832327
0.00818754
0.0110197
0.0121493
0.012177
0.0122671
0.0122707
0.0122068
0.0121268
0.0120339
0.0119341
0.0118315
0.0117284
0.0116248
0.0115207
0.0114144
0.0113051
0.0111915
0.0110728
0.0109486
0.0108184
0.0106822
0.0105402
0.0103926
0.0102401
0.0100829
0.00992167
0.00975637
0.00958773
0.00941524
0.00924049
0.00906114
0.00888281
0.00869407
0.00852022
0.0083055
0.00816791
0.0108148
0.0121868
0.0121963
0.012298
0.0122957
0.012224
0.012139
0.0120422
0.0119395
0.0118343
0.0117293
0.0116241
0.0115192
0.0114124
0.0113032
0.0111897
0.0110712
0.0109469
0.0108164
0.0106796
0.0105366
0.0103878
0.0102338
0.0100752
0.00991253
0.00974603
0.00957634
0.00940306
0.00922777
0.00904823
0.00886995
0.008682
0.00850895
0.00829696
0.00816194
0.0105727
0.0122396
0.0122112
0.0123245
0.0123168
0.0122396
0.0121511
0.0120507
0.0119449
0.011837
0.0117304
0.011624
0.011519
0.0114125
0.0113043
0.0111919
0.0110743
0.0109505
0.0108195
0.0106816
0.0105368
0.0103861
0.0102302
0.0100699
0.00990584
0.00973827
0.0095677
0.00939389
0.00921821
0.00903871
0.00886046
0.00867344
0.0084999
0.00828964
0.0081498
0.0103341
0.012321
0.0122425
0.0123631
0.0123432
0.0122571
0.0121636
0.0120598
0.0119514
0.0118412
0.0117329
0.0116256
0.0115213
0.011416
0.0113091
0.0111972
0.0110793
0.0109544
0.0108219
0.0106826
0.0105365
0.0103846
0.0102276
0.0100664
0.00990149
0.00973329
0.00956222
0.00938811
0.00921226
0.00903294
0.00885512
0.00866963
0.00849779
0.00829482
0.00815497
0.0100684
0.0124008
0.0122586
0.012391
0.012364
0.012274
0.0121774
0.0120701
0.0119586
0.0118464
0.0117377
0.0116312
0.0115282
0.0114237
0.0113175
0.0112053
0.0110871
0.0109609
0.0108271
0.010686
0.010538
0.0103846
0.0102262
0.0100641
0.00989866
0.00973006
0.00955875
0.00938457
0.00920862
0.0090296
0.00885186
0.00866776
0.00849393
0.00829428
0.00813039
0.00985009
0.0124974
0.0122951
0.0124332
0.0123943
0.0122965
0.0121951
0.0120853
0.0119729
0.0118603
0.0117512
0.0116438
0.0115391
0.011432
0.0113223
0.0112064
0.0110849
0.0109566
0.0108219
0.0106811
0.0105342
0.0103819
0.0102242
0.0100624
0.00989722
0.00972868
0.00955749
0.00938332
0.0092076
0.00902868
0.00885182
0.00866863
0.00850136
0.00831007
0.00819786
0.0122843
0.0126544
0.0123958
0.0123229
0.0122649
0.0122008
0.0121397
0.0120777
0.0120147
0.0119513
0.0118878
0.0118243
0.0117608
0.0116972
0.0116334
0.011569
0.0115037
0.011437
0.0113689
0.0112986
0.0112261
0.0111508
0.0110723
0.0109899
0.0109033
0.0108115
0.0107143
0.0106105
0.0105
0.0103815
0.0102561
0.0101201
0.00998163
0.00982389
0.00968789
0.0122567
0.0126186
0.0123727
0.0123051
0.0122506
0.0121885
0.012128
0.0120653
0.0120009
0.0119353
0.011869
0.0118021
0.0117347
0.0116667
0.0115979
0.011528
0.0114566
0.0113833
0.0113081
0.0112302
0.0111497
0.0110659
0.0109787
0.0108873
0.0107915
0.0106906
0.0105842
0.0104715
0.0103524
0.0102251
0.0100919
0.00994632
0.00980119
0.00962503
0.00948758
0.0122253
0.0125819
0.0123482
0.0122866
0.0122356
0.0121753
0.0121147
0.0120508
0.0119842
0.0119157
0.0118459
0.0117749
0.0117031
0.01163
0.0115556
0.0114795
0.0114013
0.0113205
0.0112371
0.0111506
0.0110608
0.0109673
0.0108699
0.010768
0.0106614
0.0105495
0.010432
0.010308
0.0101779
0.0100398
0.00989655
0.00974087
0.00958861
0.00940397
0.00926524
0.012186
0.0125418
0.0123229
0.0122687
0.0122224
0.0121646
0.0121045
0.0120398
0.0119715
0.0119006
0.0118279
0.0117536
0.0116778
0.0116005
0.0115213
0.0114398
0.0113559
0.0112688
0.0111788
0.0110851
0.0109878
0.0108865
0.0107812
0.0106712
0.0105565
0.0104364
0.010311
0.0101792
0.0100417
0.00989627
0.00974626
0.00958347
0.00942449
0.00923149
0.00908178
0.012149
0.0124987
0.0122979
0.0122519
0.0122103
0.0121547
0.0120946
0.0120287
0.0119582
0.0118845
0.0118086
0.0117307
0.011651
0.0115692
0.0114853
0.0113985
0.0113087
0.0112154
0.0111185
0.0110176
0.0109127
0.0108035
0.0106901
0.0105718
0.0104489
0.0103206
0.0101871
0.0100474
0.00990231
0.00974965
0.00959338
0.00942453
0.00926278
0.00906518
0.00892432
0.0120988
0.0124526
0.0122724
0.0122361
0.0122003
0.0121472
0.0120874
0.0120204
0.011948
0.0118717
0.0117928
0.0117116
0.0116283
0.0115426
0.0114542
0.0113627
0.0112677
0.0111688
0.0110659
0.0109587
0.0108473
0.0107314
0.0106112
0.0104862
0.0103565
0.0102216
0.0100816
0.00993579
0.00978495
0.00962677
0.00946562
0.00929164
0.00912625
0.00892193
0.00878032
0.0120455
0.0124038
0.0122475
0.0122221
0.0121924
0.0121416
0.0120816
0.0120131
0.0119383
0.0118592
0.0117772
0.0116927
0.0116059
0.0115164
0.011424
0.011328
0.0112282
0.0111241
0.0110157
0.0109027
0.0107852
0.0106631
0.0105366
0.0104052
0.0102693
0.0101283
0.00998254
0.00983106
0.00967499
0.00951191
0.00934673
0.00916892
0.00900214
0.00879481
0.00865918
0.0119815
0.012353
0.0122244
0.012211
0.0121878
0.0121391
0.0120788
0.0120086
0.0119315
0.0118497
0.0117648
0.0116771
0.0115871
0.0114942
0.0113981
0.011298
0.0111939
0.0110851
0.0109717
0.0108535
0.0107307
0.0106032
0.0104713
0.0103346
0.0101935
0.0100475
0.00989683
0.00974078
0.00958048
0.00941344
0.00924479
0.00906351
0.00889399
0.00868268
0.00854403
0.0119067
0.0123023
0.0122032
0.012203
0.0121865
0.0121394
0.0120782
0.012006
0.0119262
0.0118416
0.0117539
0.0116634
0.0115706
0.0114747
0.0113756
0.0112722
0.0111645
0.0110518
0.0109344
0.0108119
0.0106848
0.0105528
0.0104165
0.0102755
0.0101301
0.00997991
0.00982534
0.00966557
0.00950188
0.00933176
0.00916063
0.00897712
0.00880682
0.00859433
0.00845905
0.0118309
0.0122588
0.0121881
0.0121999
0.0121891
0.0121425
0.0120801
0.0120058
0.0119235
0.0118364
0.0117461
0.0116533
0.0115581
0.0114598
0.0113581
0.011252
0.0111413
0.0110255
0.0109047
0.0107788
0.0106481
0.0105126
0.0103727
0.0102282
0.0100794
0.00992593
0.00976826
0.00960559
0.00943926
0.00926673
0.00909352
0.00890806
0.00873617
0.00852161
0.00838439
0.0117348
0.0122154
0.0121741
0.0121996
0.0121948
0.0121481
0.0120839
0.0120072
0.0119221
0.0118322
0.0117395
0.0116443
0.011547
0.0114467
0.0113428
0.0112345
0.0111214
0.011003
0.0108795
0.0107508
0.0106172
0.0104788
0.010336
0.0101886
0.010037
0.0098808
0.00972055
0.00955548
0.00938699
0.00921255
0.00903784
0.00885113
0.00867888
0.00846391
0.00832921
0.0116351
0.0121814
0.0121664
0.0122045
0.0122039
0.0121559
0.0120895
0.0120101
0.0119223
0.0118299
0.0117349
0.0116379
0.0115387
0.0114367
0.011331
0.0112208
0.0111057
0.0109852
0.0108594
0.0107283
0.0105923
0.0104514
0.010306
0.0101561
0.010002
0.00984352
0.00968106
0.00951395
0.00934366
0.00916764
0.00899161
0.00880376
0.00863046
0.00841448
0.00827755
0.0115074
0.0121524
0.0121615
0.0122135
0.0122169
0.0121666
0.0120972
0.0120145
0.0119237
0.0118286
0.0117313
0.0116323
0.0115316
0.0114281
0.011321
0.0112093
0.0110927
0.0109706
0.0108431
0.0107102
0.0105723
0.0104294
0.010282
0.0101301
0.00997398
0.00981348
0.00964918
0.0094804
0.00930864
0.00913141
0.00895448
0.00876603
0.00859263
0.00837686
0.00824158
0.0113716
0.0121366
0.0121619
0.0122265
0.0122318
0.012178
0.0121056
0.0120199
0.0119262
0.0118286
0.0117295
0.0116288
0.0115268
0.0114221
0.011314
0.0112013
0.0110835
0.0109602
0.0108314
0.0106971
0.0105575
0.0104128
0.0102635
0.0101096
0.0099516
0.00978931
0.00962336
0.00945312
0.00928013
0.00910193
0.00892426
0.00873533
0.00856135
0.00834531
0.00820793
0.0112064
0.0121345
0.0121684
0.0122464
0.0122517
0.0121928
0.0121162
0.0120267
0.0119298
0.0118296
0.0117284
0.0116261
0.0115229
0.0114172
0.0113083
0.0111948
0.0110763
0.0109523
0.0108226
0.0106873
0.0105465
0.0104005
0.0102497
0.0100942
0.00993459
0.00977078
0.00960343
0.00943198
0.00925802
0.00907913
0.00890106
0.00871215
0.00853847
0.00832337
0.00818765
0.0110212
0.012148
0.0121768
0.012267
0.0122707
0.0122067
0.0121267
0.0120338
0.0119341
0.0118315
0.0117286
0.0116249
0.0115209
0.0114145
0.0113053
0.0111916
0.0110729
0.0109487
0.0108184
0.0106822
0.0105402
0.0103926
0.0102401
0.0100829
0.00992165
0.00975636
0.00958772
0.00941525
0.0092405
0.00906117
0.00888283
0.00869412
0.00852024
0.00830559
0.008168
0.0108161
0.0121857
0.0121961
0.0122978
0.0122956
0.0122239
0.012139
0.0120422
0.0119396
0.0118345
0.0117295
0.0116243
0.0115195
0.0114127
0.0113034
0.0111898
0.0110712
0.0109469
0.0108163
0.0106795
0.0105365
0.0103877
0.0102338
0.0100752
0.00991251
0.00974602
0.00957633
0.00940308
0.00922778
0.00904826
0.00886997
0.00868205
0.00850897
0.00829708
0.00816206
0.0105737
0.0122386
0.012211
0.0123243
0.0123167
0.0122396
0.0121511
0.0120508
0.0119451
0.0118373
0.0117307
0.0116243
0.0115193
0.0114127
0.0113044
0.0111919
0.0110742
0.0109504
0.0108193
0.0106814
0.0105367
0.0103861
0.0102302
0.0100699
0.00990582
0.00973826
0.0095677
0.0093939
0.00921822
0.00903874
0.00886048
0.00867349
0.00849992
0.00828975
0.00814987
0.0103337
0.0123205
0.0122421
0.0123629
0.0123431
0.0122572
0.0121639
0.0120602
0.0119519
0.0118417
0.0117333
0.011626
0.0115215
0.011416
0.011309
0.011197
0.0110791
0.0109541
0.0108217
0.0106824
0.0105364
0.0103846
0.0102276
0.0100663
0.00990148
0.00973329
0.00956223
0.00938813
0.00921229
0.00903297
0.00885515
0.00866968
0.00849782
0.0082949
0.00815494
0.0100637
0.0124018
0.0122587
0.0123911
0.0123643
0.0122745
0.012178
0.0120707
0.0119591
0.0118467
0.0117378
0.0116311
0.0115279
0.0114233
0.011317
0.0112049
0.0110868
0.0109606
0.0108269
0.0106859
0.0105379
0.0103846
0.0102262
0.0100641
0.00989867
0.00973006
0.00955877
0.0093846
0.00920866
0.00902964
0.0088519
0.0086678
0.00849397
0.00829436
0.00813011
0.00985762
0.0124998
0.0122959
0.0124336
0.0123945
0.0122968
0.0121953
0.0120853
0.0119727
0.0118598
0.0117503
0.0116427
0.011538
0.011431
0.0113216
0.011206
0.0110846
0.0109564
0.0108218
0.0106811
0.0105341
0.0103818
0.0102242
0.0100624
0.00989722
0.00972869
0.00955753
0.00938336
0.00920764
0.00902873
0.00885185
0.00866866
0.00850138
0.00831012
0.0081979
0.012288
0.0126505
0.0123956
0.012323
0.012265
0.0122009
0.0121397
0.0120777
0.0120147
0.0119513
0.0118878
0.0118243
0.0117608
0.0116972
0.0116334
0.011569
0.0115037
0.011437
0.0113689
0.0112986
0.0112262
0.0111508
0.0110723
0.0109899
0.0109033
0.0108115
0.0107143
0.0106105
0.0105
0.0103815
0.0102561
0.0101201
0.00998165
0.00982394
0.0096881
0.0122603
0.0126149
0.0123725
0.0123052
0.0122507
0.0121886
0.012128
0.0120653
0.0120009
0.0119353
0.011869
0.0118021
0.0117347
0.0116667
0.0115979
0.011528
0.0114566
0.0113834
0.0113081
0.0112303
0.0111497
0.0110659
0.0109787
0.0108873
0.0107916
0.0106907
0.0105843
0.0104715
0.0103524
0.0102252
0.0100919
0.00994639
0.00980125
0.00962514
0.00948779
0.0122288
0.0125782
0.012348
0.0122866
0.0122357
0.0121754
0.0121147
0.0120508
0.0119842
0.0119156
0.0118458
0.0117749
0.0117031
0.01163
0.0115556
0.0114795
0.0114013
0.0113205
0.0112371
0.0111506
0.0110608
0.0109673
0.0108699
0.010768
0.0106614
0.0105495
0.010432
0.010308
0.0101779
0.0100398
0.00989656
0.0097409
0.00958862
0.00940403
0.00926536
0.0121894
0.0125382
0.0123227
0.0122688
0.0122225
0.0121646
0.0121045
0.0120398
0.0119715
0.0119006
0.0118279
0.0117535
0.0116778
0.0116005
0.0115213
0.0114398
0.0113559
0.0112689
0.0111788
0.0110851
0.0109879
0.0108866
0.0107812
0.0106712
0.0105565
0.0104364
0.010311
0.0101792
0.0100417
0.00989631
0.0097463
0.00958353
0.00942453
0.00923157
0.00908191
0.0121524
0.0124952
0.0122977
0.0122519
0.0122104
0.0121547
0.0120946
0.0120287
0.0119582
0.0118845
0.0118086
0.0117306
0.011651
0.0115692
0.0114852
0.0113985
0.0113087
0.0112154
0.0111185
0.0110176
0.0109127
0.0108036
0.0106901
0.0105719
0.0104489
0.0103206
0.0101871
0.0100474
0.00990233
0.00974968
0.0095934
0.00942458
0.0092628
0.00906525
0.00892452
0.0121021
0.0124492
0.0122722
0.0122361
0.0122003
0.0121472
0.0120874
0.0120204
0.011948
0.0118717
0.0117928
0.0117116
0.0116283
0.0115426
0.0114542
0.0113627
0.0112677
0.0111688
0.0110659
0.0109588
0.0108474
0.0107315
0.0106112
0.0104862
0.0103565
0.0102216
0.0100817
0.00993582
0.00978497
0.0096268
0.00946564
0.00929169
0.00912627
0.00892201
0.0087805
0.0120487
0.0124004
0.0122473
0.0122221
0.0121924
0.0121416
0.0120816
0.0120131
0.0119383
0.0118592
0.0117772
0.0116927
0.0116059
0.0115164
0.011424
0.0113281
0.0112283
0.0111242
0.0110157
0.0109027
0.0107852
0.0106631
0.0105366
0.0104053
0.0102694
0.0101284
0.00998256
0.00983109
0.009675
0.00951194
0.00934674
0.00916896
0.00900216
0.0087949
0.00865942
0.0119845
0.0123498
0.0122242
0.012211
0.0121878
0.0121391
0.0120788
0.0120086
0.0119315
0.0118497
0.0117648
0.0116771
0.0115871
0.0114942
0.0113981
0.0112981
0.0111939
0.0110851
0.0109717
0.0108535
0.0107308
0.0106033
0.0104713
0.0103347
0.0101935
0.0100475
0.00989685
0.0097408
0.00958049
0.00941346
0.0092448
0.00906355
0.008894
0.00868276
0.00854423
0.0119097
0.0122992
0.0122031
0.012203
0.0121865
0.0121394
0.0120782
0.012006
0.0119262
0.0118416
0.0117538
0.0116634
0.0115706
0.0114747
0.0113756
0.0112723
0.0111645
0.0110519
0.0109344
0.010812
0.0106848
0.0105529
0.0104165
0.0102755
0.0101301
0.00997993
0.00982535
0.00966559
0.00950189
0.00933178
0.00916063
0.00897716
0.00880683
0.00859442
0.00845929
0.0118337
0.0122558
0.0121879
0.0121999
0.0121891
0.0121425
0.01208
0.0120058
0.0119235
0.0118364
0.0117461
0.0116533
0.0115581
0.0114599
0.0113581
0.0112521
0.0111414
0.0110256
0.0109048
0.0107788
0.0106481
0.0105126
0.0103727
0.0102282
0.0100794
0.00992594
0.00976826
0.0096056
0.00943926
0.00926674
0.00909352
0.00890809
0.00873617
0.0085217
0.0083846
0.0117376
0.0122126
0.012174
0.0121996
0.0121948
0.0121481
0.0120839
0.0120071
0.011922
0.0118322
0.0117394
0.0116443
0.011547
0.0114467
0.0113429
0.0112346
0.0111215
0.0110031
0.0108796
0.0107508
0.0106173
0.0104789
0.010336
0.0101886
0.010037
0.0098808
0.00972054
0.00955548
0.00938698
0.00921256
0.00903784
0.00885116
0.00867888
0.008464
0.00832945
0.0116376
0.0121788
0.0121663
0.0122044
0.0122039
0.0121559
0.0120895
0.01201
0.0119222
0.0118299
0.0117349
0.0116379
0.0115388
0.0114367
0.0113311
0.0112209
0.0111058
0.0109853
0.0108595
0.0107284
0.0105924
0.0104514
0.010306
0.0101561
0.010002
0.00984351
0.00968104
0.00951395
0.00934365
0.00916764
0.00899161
0.00880379
0.00863046
0.00841456
0.00827776
0.0115099
0.0121498
0.0121613
0.0122134
0.0122169
0.0121665
0.0120972
0.0120145
0.0119236
0.0118285
0.0117313
0.0116323
0.0115316
0.0114281
0.0113211
0.0112094
0.0110928
0.0109707
0.0108432
0.0107103
0.0105724
0.0104295
0.010282
0.0101301
0.00997397
0.00981347
0.00964916
0.00948039
0.00930863
0.00913141
0.00895448
0.00876606
0.00859263
0.00837695
0.00824182
0.0113739
0.0121343
0.0121618
0.0122265
0.0122317
0.012178
0.0121056
0.0120198
0.0119261
0.0118286
0.0117295
0.0116289
0.0115269
0.0114222
0.0113141
0.0112014
0.0110836
0.0109603
0.0108315
0.0106971
0.0105575
0.0104128
0.0102635
0.0101096
0.00995157
0.00978929
0.00962333
0.0094531
0.00928011
0.00910193
0.00892425
0.00873536
0.00856136
0.0083454
0.00820814
0.0112085
0.0121324
0.0121683
0.0122463
0.0122516
0.0121927
0.0121162
0.0120267
0.0119298
0.0118296
0.0117284
0.0116262
0.011523
0.0114174
0.0113084
0.011195
0.0110765
0.0109524
0.0108227
0.0106873
0.0105465
0.0104005
0.0102496
0.0100941
0.00993454
0.00977074
0.00960339
0.00943196
0.009258
0.00907914
0.00890105
0.00871218
0.00853847
0.00832346
0.00818789
0.0110231
0.0121461
0.0121767
0.0122669
0.0122706
0.0122066
0.0121266
0.0120338
0.0119341
0.0118316
0.0117287
0.0116251
0.0115211
0.0114148
0.0113055
0.0111918
0.0110731
0.0109487
0.0108185
0.0106822
0.0105401
0.0103925
0.01024
0.0100828
0.00992158
0.00975632
0.00958768
0.00941522
0.00924048
0.00906117
0.00888282
0.00869415
0.00852024
0.00830569
0.00816821
0.0108177
0.0121842
0.012196
0.0122976
0.0122954
0.0122238
0.0121389
0.0120422
0.0119397
0.0118346
0.0117298
0.0116247
0.0115199
0.011413
0.0113036
0.01119
0.0110713
0.0109469
0.0108162
0.0106794
0.0105364
0.0103876
0.0102337
0.0100751
0.00991244
0.00974597
0.0095763
0.00940306
0.00922776
0.00904827
0.00886997
0.00868209
0.00850898
0.00829718
0.0081623
0.0105751
0.0122373
0.0122107
0.0123239
0.0123164
0.0122394
0.0121511
0.012051
0.0119454
0.0118378
0.0117313
0.0116249
0.0115198
0.011413
0.0113045
0.0111919
0.0110741
0.0109501
0.0108191
0.0106812
0.0105365
0.0103859
0.01023
0.0100698
0.00990575
0.00973821
0.00956766
0.00939388
0.0092182
0.00903875
0.00886048
0.00867352
0.00849993
0.00828985
0.00815004
0.0103342
0.0123197
0.0122418
0.0123624
0.0123429
0.0122572
0.0121641
0.0120607
0.0119526
0.0118425
0.011734
0.0116265
0.0115218
0.011416
0.0113088
0.0111966
0.0110787
0.0109537
0.0108214
0.0106822
0.0105362
0.0103844
0.0102275
0.0100663
0.00990142
0.00973326
0.0095622
0.00938812
0.00921229
0.00903298
0.00885516
0.00866971
0.00849782
0.00829494
0.00815492
0.0100615
0.0124029
0.0122587
0.012391
0.0123646
0.0122752
0.012179
0.0120718
0.0119601
0.0118473
0.0117381
0.0116311
0.0115276
0.0114228
0.0113164
0.0112042
0.0110862