/*--------------------------------*- C++ -*----------------------------------*\
  =========                 |
  \\      /  F ield         | OpenFOAM: The Open Source CFD Toolbox
   \\    /   O peration     | Website:  https://openfoam.org
    \\  /    A nd           | Version:  6
     \\/     M anipulation  |
\*---------------------------------------------------------------------------*/
FoamFile
{
    version     2.0;
    format      ascii;
    class       volVectorField;
    location    "3";
    object      wallShearStress;
}
// * * * * * * * * * * * * * * * * * * * * * * * * * * * * * * * * * * * * * //

dimensions      [0 2 -2 0 0 0 0];

internalField   uniform (0 0 0);

boundaryField
{
    inlet
    {
        type            calculated;
        value           uniform (0 0 0);
    }
    outlet
    {
        type            calculated;
        value           uniform (0 0 0);
    }
    roughCylinder
    {
        type            calculated;
        value           nonuniform List<vector> 
3840
(
(-0.000439035 -0.000638085 -0.000266781)
(-0.000364976 -0.000548597 -1.57686e-05)
(-0.000403362 -0.000630185 4.95007e-05)
(-0.00049842 -0.000736995 0.000122742)
(-0.000596774 -0.000806553 0.000190473)
(-0.000691069 -0.000841558 0.00024575)
(-0.000774928 -0.000849935 0.000286197)
(-0.000848162 -0.000850576 0.000314719)
(-0.000908366 -0.000853022 0.000332463)
(-0.000956405 -0.00086238 0.000340119)
(-0.000995593 -0.000879262 0.000339686)
(-0.00102872 -0.000902022 0.000333839)
(-0.00105945 -0.000928857 0.000324752)
(-0.00109075 -0.000958578 0.000313782)
(-0.00112412 -0.000990553 0.000301413)
(-0.00116012 -0.00102461 0.000287694)
(-0.00119868 -0.00106055 0.000272403)
(-0.00123948 -0.0010981 0.000255148)
(-0.00128206 -0.00113676 0.000235226)
(-0.00132571 -0.00117572 0.000211483)
(-0.00136924 -0.00121383 0.000181961)
(-0.00141056 -0.00124917 0.000144009)
(-0.00144529 -0.00127878 9.36712e-05)
(-0.00146629 -0.00129718 3.22229e-05)
(-0.000420804 -0.000557123 -0.000232941)
(-0.000388646 -0.000534554 -2.07628e-05)
(-0.000426504 -0.000615455 4.15745e-05)
(-0.000524078 -0.000722311 0.000112029)
(-0.000625044 -0.000793895 0.000178262)
(-0.000722746 -0.000832293 0.00023289)
(-0.000811567 -0.000846209 0.000274157)
(-0.000889975 -0.000850928 0.000304472)
(-0.000955121 -0.000853755 0.000323985)
(-0.0010051 -0.000861501 0.000332269)
(-0.00104598 -0.000877158 0.000332009)
(-0.00108081 -0.000899183 0.000326277)
(-0.00111326 -0.000925548 0.000317291)
(-0.00114618 -0.000954822 0.000306444)
(-0.00118128 -0.000986422 0.000294322)
(-0.00121905 -0.00102004 0.000280951)
(-0.00125944 -0.00105551 0.000266106)
(-0.00130209 -0.00109249 0.000249367)
(-0.00134652 -0.00113052 0.000230014)
(-0.00139202 -0.00116884 0.00020689)
(-0.00143737 -0.00120632 0.000178063)
(-0.00148042 -0.00124109 0.000140937)
(-0.00151665 -0.00127025 9.16529e-05)
(-0.00153857 -0.00128839 3.1514e-05)
(-0.000551259 -0.000655072 -0.000275055)
(-0.000412802 -0.000520831 -2.50325e-05)
(-0.000448849 -0.000593502 3.29215e-05)
(-0.000548063 -0.000700426 0.000100103)
(-0.00065202 -0.000774664 0.000164991)
(-0.000753621 -0.000817168 0.000219437)
(-0.000847526 -0.000836604 0.000261832)
(-0.000931395 -0.000845738 0.000293777)
(-0.00100118 -0.00084975 0.000314793)
(-0.00105305 -0.000855036 0.000323476)
(-0.00109582 -0.000869533 0.000323497)
(-0.00113248 -0.000890639 0.000317952)
(-0.00116659 -0.000916243 0.00030911)
(-0.00120126 -0.000944953 0.000298495)
(-0.00123802 -0.000975895 0.000286664)
(-0.00127748 -0.00100882 0.000273692)
(-0.00131955 -0.00104349 0.000259336)
(-0.00136392 -0.00107963 0.00024316)
(-0.00141007 -0.00111676 0.000224423)
(-0.00145729 -0.00115416 0.000201964)
(-0.00150436 -0.00119075 0.000173879)
(-0.00154906 -0.00122472 0.000137637)
(-0.00158673 -0.00125328 8.9488e-05)
(-0.00160951 -0.00127101 3.07546e-05)
(-0.000551825 -0.000589434 -0.000242648)
(-0.000437754 -0.000502808 -3.00381e-05)
(-0.000467924 -0.000566804 2.35318e-05)
(-0.000568323 -0.000672906 8.74927e-05)
(-0.000674935 -0.000749489 0.000150809)
(-0.000780671 -0.000796654 0.000205175)
(-0.000879922 -0.000821874 0.000248852)
(-0.000968438 -0.000834616 0.000282153)
(-0.00104302 -0.000840812 0.000304553)
(-0.0010986 -0.000844541 0.000314017)
(-0.00114302 -0.000857369 0.000314387)
(-0.00118143 -0.000877237 0.000309051)
(-0.00121735 -0.000901991 0.000300467)
(-0.00125357 -0.000929805 0.000290106)
(-0.001292 -0.000959972 0.000278657)
(-0.00133311 -0.000992049 0.00026616)
(-0.00137683 -0.00102581 0.000252363)
(-0.00142278 -0.00106091 0.000236798)
(-0.00147049 -0.00109693 0.000218706)
(-0.00151924 -0.00113319 0.000196929)
(-0.00156784 -0.00116867 0.0001696)
(-0.001614 -0.00120163 0.000134259)
(-0.00165292 -0.00122936 8.72669e-05)
(-0.00167649 -0.00124659 2.99759e-05)
(-0.000514219 -0.000494121 -0.000191269)
(-0.000456172 -0.000471581 -3.64231e-05)
(-0.000482145 -0.000535098 1.41319e-05)
(-0.000583304 -0.000639554 7.44758e-05)
(-0.000693207 -0.000719066 0.000135997)
(-0.000803229 -0.000771057 0.000190118)
(-0.000907196 -0.000801323 0.000234802)
(-0.00100134 -0.000818379 0.000269718)
(-0.00107969 -0.000825807 0.000293006)
(-0.00113979 -0.000829032 0.000303576)
(-0.00118657 -0.000840065 0.000304582)
(-0.00122707 -0.00085861 0.00029962)
(-0.00126468 -0.000882188 0.000291364)
(-0.00130274 -0.000909133 0.000281422)
(-0.00134272 -0.000938287 0.000270419)
(-0.00138529 -0.000969276 0.000258451)
(-0.00143038 -0.00100183 0.000245248)
(-0.00147771 -0.00103566 0.000230328)
(-0.00152676 -0.00107034 0.000212908)
(-0.00157685 -0.00110524 0.00019183)
(-0.00162679 -0.0011394 0.000165267)
(-0.00167428 -0.00117118 0.000130836)
(-0.00171443 -0.00119797 8.50213e-05)
(-0.00173871 -0.00121459 2.91894e-05)
(-0.00065291 -0.000556967 -0.000209802)
(-0.00047395 -0.000446055 -4.11992e-05)
(-0.000492477 -0.000499583 4.77806e-06)
(-0.000593304 -0.000602353 6.10162e-05)
(-0.000705584 -0.000683903 0.000120362)
(-0.000819667 -0.000740298 0.00017399)
(-0.00092926 -0.000776034 0.000219712)
(-0.00102743 -0.000795779 0.000255727)
(-0.00111102 -0.000805402 0.000280254)
(-0.00117669 -0.000809599 0.000292264)
(-0.00122633 -0.000818027 0.000293976)
(-0.00126873 -0.000834849 0.000289518)
(-0.00130839 -0.000857121 0.000281776)
(-0.00134793 -0.000882711 0.00027229)
(-0.00138946 -0.000910708 0.000261853)
(-0.00143349 -0.000940487 0.000250519)
(-0.00147998 -0.000971746 0.000238002)
(-0.00152851 -0.00100414 0.000223778)
(-0.00157871 -0.00103729 0.000207057)
(-0.00162991 -0.00107062 0.000186687)
(-0.00168098 -0.00110324 0.000160891)
(-0.0017296 -0.00113361 0.000127371)
(-0.00177072 -0.00115922 8.2741e-05)
(-0.00179562 -0.00117514 2.83914e-05)
(-0.000621332 -0.000472704 -0.000168325)
(-0.000487035 -0.000413361 -4.60198e-05)
(-0.000496659 -0.000460709 -4.78667e-06)
(-0.000595918 -0.000560522 4.71413e-05)
(-0.000711261 -0.000644763 0.000103987)
(-0.000829891 -0.000705804 0.000156909)
(-0.000943515 -0.000745276 0.000203048)
(-0.00104797 -0.00076916 0.000240568)
(-0.00113582 -0.000779992 0.000266144)
(-0.00120616 -0.000784872 0.000279326)
(-0.00126112 -0.000792251 0.000282366)
(-0.00130622 -0.000806772 0.000278734)
(-0.00134775 -0.000827358 0.000271616)
(-0.00138935 -0.000851705 0.000262832)
(-0.00143237 -0.000878312 0.000253066)
(-0.00147762 -0.000906615 0.000242431)
(-0.0015251 -0.000936274 0.000230633)
(-0.00157459 -0.000967022 0.000217143)
(-0.00162566 -0.000998452 0.000201142)
(-0.00167774 -0.00103004 0.000181492)
(-0.00172976 -0.00106098 0.000156468)
(-0.00177939 -0.0010898 0.000123868)
(-0.00182154 -0.0011142 8.04416e-05)
(-0.00184699 -0.00112934 2.75878e-05)
(-0.000599423 -0.000405672 -0.000130951)
(-0.000495105 -0.000375902 -5.1743e-05)
(-0.000495176 -0.000420206 -1.38283e-05)
(-0.000592399 -0.000516666 3.31905e-05)
(-0.000709033 -0.000601981 8.6866e-05)
(-0.000830732 -0.000666266 0.00013841)
(-0.000950871 -0.0007111 0.0001851)
(-0.00105905 -0.000736881 0.000223341)
(-0.00115311 -0.00075011 0.000250458)
(-0.00122945 -0.000756356 0.000265177)
(-0.00128931 -0.000763095 0.000269536)
(-0.0013381 -0.000775272 0.000267026)
(-0.00138221 -0.000793663 0.000260847)
(-0.00142532 -0.000816033 0.000252826)
(-0.00146981 -0.000841074 0.000243888)
(-0.00151635 -0.000867845 0.000234096)
(-0.00156492 -0.000895912 0.00022314)
(-0.0016152 -0.000924897 0.000210441)
(-0.00166692 -0.000954478 0.000195189)
(-0.00171961 -0.000984172 0.00017626)
(-0.0017723 -0.00101325 0.000152003)
(-0.00182268 -0.00104034 0.000120316)
(-0.00186549 -0.00106327 7.80992e-05)
(-0.00189135 -0.00107755 2.67697e-05)
(-0.000538239 -0.000321047 -9.42832e-05)
(-0.000488629 -0.000332633 -5.53361e-05)
(-0.000486 -0.000376878 -2.25299e-05)
(-0.000578337 -0.000468267 1.9012e-05)
(-0.000696969 -0.000555343 6.89402e-05)
(-0.000823738 -0.000624252 0.000118861)
(-0.000946746 -0.000671365 0.000165014)
(-0.00106261 -0.000701563 0.000204504)
(-0.00116159 -0.000716068 0.000232861)
(-0.00124303 -0.000722881 0.000249088)
(-0.00130878 -0.000729717 0.000255136)
(-0.00136282 -0.000740855 0.000254208)
(-0.00141016 -0.000757023 0.000249279)
(-0.00145601 -0.000777641 0.000242465)
(-0.00150203 -0.000800827 0.000234524)
(-0.0015495 -0.000825744 0.000225656)
(-0.00159858 -0.000851902 0.000215571)
(-0.00164927 -0.000879004 0.000203702)
(-0.00170128 -0.000906651 0.000189212)
(-0.0017543 -0.000934383 0.000171008)
(-0.00180746 -0.000961514 0.00014751)
(-0.00185851 -0.000986768 0.000116738)
(-0.00190215 -0.00100824 7.57494e-05)
(-0.00192838 -0.00102163 2.59512e-05)
(-0.000629591 -0.000327712 -9.0523e-05)
(-0.000480903 -0.00029501 -5.8111e-05)
(-0.000469502 -0.000332165 -3.04444e-05)
(-0.000557603 -0.000419791 5.02349e-06)
(-0.000675743 -0.00050664 5.04317e-05)
(-0.000803251 -0.000576761 9.75682e-05)
(-0.00093447 -0.000629747 0.000143479)
(-0.00105377 -0.000661204 0.000183104)
(-0.0011603 -0.000678402 0.000213123)
(-0.00124902 -0.000686737 0.000231422)
(-0.00132009 -0.000693143 0.000239287)
(-0.0013783 -0.000702753 0.00023998)
(-0.00142993 -0.000717494 0.000236719)
(-0.00147783 -0.000735861 0.000231201)
(-0.00152545 -0.000757007 0.000224484)
(-0.00157405 -0.000780084 0.000216763)
(-0.00162382 -0.000804424 0.000207717)
(-0.00167461 -0.000829548 0.000196739)
(-0.00172651 -0.000855151 0.000183037)
(-0.0017794 -0.000880794 0.000165558)
(-0.00183268 -0.000905848 0.000142828)
(-0.00188414 -0.000929155 0.000112997)
(-0.00192817 -0.000948929 7.32832e-05)
(-0.00195454 -0.000961333 2.50931e-05)
(-0.000553838 -0.00025208 -6.27904e-05)
(-0.000465894 -0.000254306 -6.01333e-05)
(-0.000445276 -0.000287373 -3.78985e-05)
(-0.000522637 -0.000366678 -8.54531e-06)
(-0.000640386 -0.000453351 3.13981e-05)
(-0.000774448 -0.000528738 7.54291e-05)
(-0.000906373 -0.000582343 0.000119381)
(-0.00103555 -0.000619035 0.000159751)
(-0.00114779 -0.000637508 0.000190953)
(-0.0012424 -0.000646234 0.000211164)
(-0.00132056 -0.000652856 0.000221424)
(-0.00138507 -0.000661827 0.000224404)
(-0.00143999 -0.00067449 0.000222903)
(-0.00149131 -0.000691189 0.00021914)
(-0.00154082 -0.000710391 0.000213909)
(-0.00159003 -0.000731303 0.000207442)
(-0.00163961 -0.000753371 0.000199462)
(-0.00168998 -0.000776282 0.000189422)
(-0.00174129 -0.000799648 0.000176532)
(-0.00179371 -0.000823085 0.000159805)
(-0.00184686 -0.000846041 0.000137876)
(-0.00189864 -0.00086746 0.000109046)
(-0.00194338 -0.00088577 7.06988e-05)
(-0.0019699 -0.000897197 2.41972e-05)
(-0.000574437 -0.0002258 -4.87534e-05)
(-0.00044468 -0.00021503 -6.24814e-05)
(-0.00041081 -0.000241949 -4.36112e-05)
(-0.000481862 -0.000315991 -2.11075e-05)
(-0.000596837 -0.00040076 1.25062e-05)
(-0.000726751 -0.000474142 5.16686e-05)
(-0.000869831 -0.000535139 9.39681e-05)
(-0.00100151 -0.00057243 0.000133484)
(-0.00112323 -0.000594143 0.000166238)
(-0.00122714 -0.000604636 0.000188966)
(-0.00131159 -0.000610611 0.000201728)
(-0.00138081 -0.00061782 0.000207066)
(-0.0014411 -0.000629106 0.000207974)
(-0.00149452 -0.000643339 0.000206055)
(-0.00154543 -0.000660246 0.000202493)
(-0.00159557 -0.000679093 0.000197525)
(-0.00164545 -0.000699141 0.000190829)
(-0.00169532 -0.000719854 0.000181822)
(-0.0017458 -0.000740967 0.000169789)
(-0.00179737 -0.000762133 0.000153824)
(-0.00184994 -0.000782873 0.000132701)
(-0.00190152 -0.000802242 0.000104889)
(-0.00194611 -0.000818742 6.79536e-05)
(-0.00197245 -0.000829045 2.32446e-05)
(-0.000471037 -0.000157629 -3.05465e-05)
(-0.000414868 -0.000178262 -6.23781e-05)
(-0.000371933 -0.000199402 -4.84729e-05)
(-0.000422733 -0.000260338 -3.18347e-05)
(-0.000532566 -0.000341498 -5.75799e-06)
(-0.000672604 -0.000422026 2.78171e-05)
(-0.000811903 -0.000481224 6.60465e-05)
(-0.000956946 -0.000525581 0.000105252)
(-0.00108522 -0.000548757 0.000138807)
(-0.00119583 -0.000559436 0.000163671)
(-0.00128932 -0.000565681 0.000179584)
(-0.00136666 -0.000572264 0.000188143)
(-0.00143057 -0.000581076 0.000191581)
(-0.00148822 -0.000593514 0.000192142)
(-0.00154131 -0.000608331 0.000190621)
(-0.00159165 -0.000624772 0.000187265)
(-0.00164056 -0.000642306 0.000181848)
(-0.00168918 -0.000660631 0.0001739)
(-0.00173824 -0.000679376 0.000162735)
(-0.00178856 -0.000698231 0.000147543)
(-0.00184039 -0.000716796 0.000127259)
(-0.00189187 -0.000734225 0.000100523)
(-0.00193695 -0.000749215 6.50983e-05)
(-0.00196335 -0.000758515 2.22596e-05)
(-0.000376222 -0.000105583 -1.49162e-05)
(-0.000365324 -0.000138077 -6.05158e-05)
(-0.00032031 -0.000156627 -5.0866e-05)
(-0.000361628 -0.000210449 -4.0489e-05)
(-0.000465824 -0.000287675 -2.26965e-05)
(-0.000591585 -0.000360334 3.63088e-06)
(-0.000747771 -0.000430346 3.7616e-05)
(-0.000892486 -0.000474241 7.42441e-05)
(-0.0010327 -0.000501841 0.000108731)
(-0.00115567 -0.000515145 0.000136367)
(-0.00125654 -0.000520482 0.00015543)
(-0.00133924 -0.000524833 0.00016721)
(-0.00141022 -0.000532199 0.000174048)
(-0.00147012 -0.000541802 0.000177198)
(-0.00152436 -0.000554011 0.000177896)
(-0.0015754 -0.000568241 0.000176443)
(-0.00162427 -0.000583721 0.000172573)
(-0.00167169 -0.00059982 0.000165783)
(-0.00171913 -0.000616302 0.000155517)
(-0.00176784 -0.000632879 0.000141092)
(-0.00181841 -0.000649191 0.000121623)
(-0.00186909 -0.000664487 9.59603e-05)
(-0.00191352 -0.000677565 6.20789e-05)
(-0.00193934 -0.000685648 2.12145e-05)
(-0.000355592 -8.15764e-05 -8.2616e-06)
(-0.000313234 -0.00010597 -5.76456e-05)
(-0.000267443 -0.00011977 -5.18723e-05)
(-0.000279068 -0.000155105 -4.42541e-05)
(-0.000367934 -0.000222066 -3.52051e-05)
(-0.000512591 -0.000306539 -1.89541e-05)
(-0.000654358 -0.000369591 8.13847e-06)
(-0.000818439 -0.000424379 4.21301e-05)
(-0.000965761 -0.000454159 7.63235e-05)
(-0.00109565 -0.000467756 0.000105905)
(-0.00120818 -0.000473896 0.00012874)
(-0.00130139 -0.000477752 0.000144716)
(-0.00137606 -0.000482083 0.000154962)
(-0.0014412 -0.000489744 0.00016146)
(-0.00149805 -0.000499765 0.000164858)
(-0.0015488 -0.000511465 0.000165417)
(-0.00159565 -0.000524315 0.000163024)
(-0.00164089 -0.000538045 0.000157382)
(-0.00168596 -0.000552216 0.000147995)
(-0.00173257 -0.000566548 0.000134326)
(-0.00178182 -0.000580736 0.0001157)
(-0.0018321 -0.000594129 9.11806e-05)
(-0.0018769 -0.000605694 5.89544e-05)
(-0.00190284 -0.000612825 2.01446e-05)
(-0.00026805 -5.08462e-05 -1.34109e-06)
(-0.000252934 -7.72498e-05 -5.39374e-05)
(-0.000199007 -8.32715e-05 -4.79594e-05)
(-0.000201342 -0.000108543 -4.37194e-05)
(-0.000284164 -0.00016985 -4.48484e-05)
(-0.000391069 -0.000233735 -3.67858e-05)
(-0.000563691 -0.000316475 -1.96332e-05)
(-0.000719637 -0.000368102 8.91177e-06)
(-0.000881859 -0.000404841 4.21539e-05)
(-0.00102829 -0.000423226 7.39665e-05)
(-0.0011489 -0.00042867 0.000100258)
(-0.00124776 -0.000430082 0.000120217)
(-0.00133185 -0.000433195 0.000134905)
(-0.00139914 -0.000437707 0.000144791)
(-0.00145663 -0.000444875 0.000150989)
(-0.00150773 -0.000454344 0.00015386)
(-0.00155427 -0.000465317 0.000153265)
(-0.00159751 -0.000476984 0.000148858)
(-0.00164014 -0.000489097 0.000140368)
(-0.00168439 -0.000501333 0.00012743)
(-0.00173167 -0.000513368 0.000109599)
(-0.00178053 -0.000524637 8.61948e-05)
(-0.00182423 -0.000534264 5.56513e-05)
(-0.00184906 -0.000540106 1.90042e-05)
(-0.000140343 -2.23324e-05 6.81446e-06)
(-0.000170026 -4.72445e-05 -4.63096e-05)
(-0.000146656 -5.8944e-05 -4.61035e-05)
(-9.45668e-05 -5.06175e-05 -2.8779e-05)
(-0.000142394 -8.65228e-05 -3.45852e-05)
(-0.000299807 -0.000181066 -5.11905e-05)
(-0.000427923 -0.000242824 -4.25871e-05)
(-0.000616795 -0.000315169 -2.26671e-05)
(-0.00078486 -0.000355267 7.47723e-06)
(-0.000937008 -0.000374916 3.99994e-05)
(-0.00107257 -0.000383002 6.98973e-05)
(-0.00118476 -0.000384848 9.46329e-05)
(-0.00127154 -0.000384575 0.000113438)
(-0.00134515 -0.000387264 0.000127488)
(-0.00140571 -0.000392366 0.00013703)
(-0.00145589 -0.000399381 0.000142281)
(-0.00149894 -0.000407791 0.000143281)
(-0.00153893 -0.000417335 0.000140049)
(-0.00157808 -0.000427386 0.000132388)
(-0.00161936 -0.000437629 0.000120147)
(-0.00166481 -0.00044775 0.000103149)
(-0.00171311 -0.000457266 8.096e-05)
(-0.00175715 -0.000465439 5.22333e-05)
(-0.00178241 -0.000470475 1.78438e-05)
(-2.78278e-05 -2.82043e-06 9.15034e-06)
(-6.87239e-05 -1.76211e-05 -2.70568e-05)
(-4.9055e-05 -1.96462e-05 -2.42974e-05)
(-7.06042e-05 -4.16754e-05 -3.38881e-05)
(-9.16016e-05 -6.12813e-05 -3.41939e-05)
(-9.93586e-05 -6.31406e-05 -2.74018e-05)
(-0.000325858 -0.00018798 -6.03492e-05)
(-0.000479982 -0.000248097 -4.98353e-05)
(-0.000669481 -0.000302248 -2.56169e-05)
(-0.000843402 -0.000330987 6.29371e-06)
(-0.000986038 -0.000339518 3.88372e-05)
(-0.00110301 -0.000339579 6.76469e-05)
(-0.00120231 -0.000339244 9.15365e-05)
(-0.00127729 -0.000338871 0.000109565)
(-0.00133738 -0.000341158 0.000122343)
(-0.0013872 -0.000346164 0.000130193)
(-0.00142981 -0.000353147 0.000133173)
(-0.00146687 -0.000361002 0.000131171)
(-0.00150283 -0.000369416 0.000124348)
(-0.00154098 -0.000377916 0.000112759)
(-0.00158378 -0.000386135 9.6519e-05)
(-0.00162999 -0.000393643 7.54914e-05)
(-0.00167244 -0.000399942 4.86075e-05)
(-0.0016959 -0.000403672 1.65944e-05)
(5.78587e-06 3.95487e-06 1.29165e-05)
(-6.61242e-06 -1.8271e-06 -9.1016e-06)
(-1.73278e-05 -1.08722e-05 -1.94942e-05)
(-2.54367e-05 -2.13716e-05 -2.19748e-05)
(-5.13458e-05 -4.37752e-05 -3.34299e-05)
(-5.56668e-05 -4.12458e-05 -2.54343e-05)
(-0.00010017 -6.09611e-05 -3.06825e-05)
(-0.000360385 -0.000188878 -6.92856e-05)
(-0.000543124 -0.000246586 -5.50288e-05)
(-0.000720077 -0.00027997 -2.57595e-05)
(-0.000882582 -0.000295516 8.00508e-06)
(-0.00101589 -0.000298504 4.08304e-05)
(-0.00111464 -0.000295081 6.88581e-05)
(-0.00119677 -0.000293713 9.14145e-05)
(-0.00126023 -0.000294531 0.000107917)
(-0.00130837 -0.000297552 0.000118353)
(-0.00134537 -0.000302257 0.000122866)
(-0.00137801 -0.000308455 0.000121956)
(-0.00140921 -0.000315234 0.000115828)
(-0.00144354 -0.000322151 0.000104842)
(-0.00148407 -0.000328813 8.94263e-05)
(-0.00152978 -0.000334862 6.97182e-05)
(-0.00157274 -0.000339895 4.48497e-05)
(-0.00159708 -0.000343012 1.533e-05)
(9.63477e-06 9.07217e-06 2.06514e-05)
(1.76268e-05 2.53156e-06 -7.00477e-06)
(1.7339e-05 -6.72887e-06 -1.6867e-05)
(6.80729e-06 -1.98827e-05 -2.31315e-05)
(-1.07069e-05 -3.1351e-05 -2.8407e-05)
(-4.03037e-05 -4.26446e-05 -3.61072e-05)
(-5.56279e-05 -3.9077e-05 -2.85889e-05)
(-0.000162718 -8.72815e-05 -5.07108e-05)
(-0.000404543 -0.000184578 -7.43612e-05)
(-0.000606784 -0.000235015 -5.46415e-05)
(-0.00077117 -0.000253208 -2.10151e-05)
(-0.00090627 -0.000256435 1.4433e-05)
(-0.00102169 -0.00025574 4.68913e-05)
(-0.00110315 -0.000252199 7.33355e-05)
(-0.00116409 -0.000250824 9.30511e-05)
(-0.00121032 -0.000252377 0.000106025)
(-0.00124708 -0.000256447 0.000112531)
(-0.00127585 -0.00026154 0.00011271)
(-0.00130328 -0.000267273 0.000107295)
(-0.00133377 -0.000272935 9.68498e-05)
(-0.00137103 -0.000278089 8.216e-05)
(-0.00141378 -0.000282372 6.36761e-05)
(-0.00145448 -0.000285711 4.08433e-05)
(-0.00147631 -0.000287613 1.39522e-05)
(1.24272e-05 1.24398e-05 2.42397e-05)
(3.16192e-05 6.55841e-06 -9.37287e-06)
(3.83917e-05 -2.14643e-06 -1.6223e-05)
(3.49951e-05 -1.24803e-05 -1.76191e-05)
(2.00513e-05 -1.73524e-05 -1.58057e-05)
(1.00889e-06 -1.85312e-05 -1.69697e-05)
(-4.07206e-05 -3.78045e-05 -4.07604e-05)
(-0.000112162 -6.40649e-05 -5.79509e-05)
(-0.000238318 -0.000109648 -7.02258e-05)
(-0.000449657 -0.000174144 -7.16935e-05)
(-0.000645183 -0.000209153 -4.56355e-05)
(-0.000799952 -0.000219821 -9.69536e-06)
(-0.000907737 -0.000217159 2.56058e-05)
(-0.000996692 -0.000214565 5.58215e-05)
(-0.00106087 -0.000213046 7.89604e-05)
(-0.00110497 -0.000213669 9.43535e-05)
(-0.00113312 -0.000215967 0.000101989)
(-0.00115603 -0.000219996 0.000102981)
(-0.00117736 -0.000224599 9.80312e-05)
(-0.00120337 -0.000229201 8.80935e-05)
(-0.00123795 -0.00023327 7.42546e-05)
(-0.00128062 -0.000236599 5.72639e-05)
(-0.00132213 -0.000239038 3.66934e-05)
(-0.00134525 -0.000240566 1.25653e-05)
(2.52344e-05 1.17695e-05 2.36878e-05)
(5.90012e-05 8.12551e-06 -1.3919e-05)
(6.44713e-05 -1.6622e-06 -2.10831e-05)
(7.83927e-05 -1.5556e-05 -2.82704e-05)
(7.18912e-05 -2.89712e-05 -2.95704e-05)
(4.0034e-05 -3.27313e-05 -2.5875e-05)
(-1.19562e-06 -1.78012e-05 -1.91564e-05)
(-3.23299e-05 -2.00669e-05 -2.7615e-05)
(-0.000116834 -5.29756e-05 -5.30475e-05)
(-0.000332464 -0.000125329 -8.2452e-05)
(-0.000514072 -0.000164418 -6.43085e-05)
(-0.000665767 -0.00017939 -2.96657e-05)
(-0.000796443 -0.000184202 6.84339e-06)
(-0.000880756 -0.00018121 3.95644e-05)
(-0.000939209 -0.000178814 6.49965e-05)
(-0.000978215 -0.000178816 8.21704e-05)
(-0.00100693 -0.000181572 9.14944e-05)
(-0.00102573 -0.000185258 9.3279e-05)
(-0.00104303 -0.000189432 8.88462e-05)
(-0.00106461 -0.000193287 7.93339e-05)
(-0.00109549 -0.000196358 6.62453e-05)
(-0.00113386 -0.000198294 5.05751e-05)
(-0.00117228 -0.000199431 3.22679e-05)
(-0.00119231 -0.000199991 1.10468e-05)
(4.69256e-05 1.40729e-05 2.91725e-05)
(0.000103468 8.9454e-06 -1.95428e-05)
(0.000130076 -4.02873e-06 -3.44207e-05)
(0.000130315 -1.967e-05 -3.92365e-05)
(9.25509e-05 -2.71961e-05 -3.16923e-05)
(5.63494e-05 -2.90643e-05 -2.28337e-05)
(3.54003e-05 -3.59251e-05 -2.47063e-05)
(-1.57362e-05 -2.12733e-05 -3.4143e-05)
(-5.51591e-05 -2.24963e-05 -3.72478e-05)
(-0.00010637 -3.71253e-05 -3.90282e-05)
(-0.000376662 -0.000117393 -7.2199e-05)
(-0.000550051 -0.000145813 -4.53032e-05)
(-0.00066034 -0.00014982 -8.73264e-06)
(-0.00075239 -0.00015079 2.51269e-05)
(-0.000813647 -0.000150285 5.24721e-05)
(-0.000851124 -0.000150959 7.12501e-05)
(-0.000867384 -0.000152451 8.07577e-05)
(-0.000877901 -0.000155421 8.27209e-05)
(-0.000888048 -0.00015885 7.84575e-05)
(-0.000904832 -0.000162117 6.94283e-05)
(-0.00093272 -0.000164653 5.73352e-05)
(-0.000971944 -0.000166435 4.34633e-05)
(-0.00101129 -0.000167311 2.77018e-05)
(-0.0010327 -0.000167838 9.52497e-06)
(5.95312e-05 1.37266e-05 3.03494e-05)
(0.00012116 7.62749e-06 -1.87712e-05)
(0.000153173 -4.55174e-06 -3.49843e-05)
(0.000162307 -2.09001e-05 -4.32202e-05)
(0.000153789 -3.70663e-05 -4.62257e-05)
(0.000109413 -4.21284e-05 -3.79363e-05)
(3.34921e-05 -2.17393e-05 -1.52087e-05)
(1.13289e-05 -2.36398e-05 -1.82832e-05)
(-2.12003e-05 -8.79536e-06 -2.10866e-05)
(-0.000113666 -3.4914e-05 -5.8828e-05)
(-0.000223292 -6.66158e-05 -6.07224e-05)
(-0.000396923 -0.000103821 -4.97856e-05)
(-0.000542067 -0.000121938 -1.99608e-05)
(-0.000622462 -0.000124151 1.34157e-05)
(-0.000672867 -0.000124175 4.07866e-05)
(-0.000700164 -0.000124944 5.95292e-05)
(-0.000718935 -0.000128055 6.99679e-05)
(-0.000727708 -0.000131532 7.23843e-05)
(-0.000734038 -0.000134855 6.84005e-05)
(-0.000746421 -0.0001378 5.97811e-05)
(-0.00077009 -0.00013978 4.85724e-05)
(-0.000803064 -0.000140726 3.61739e-05)
(-0.000838066 -0.000140912 2.29046e-05)
(-0.000855834 -0.000140825 7.87992e-06)
(6.87482e-05 1.11934e-05 2.9066e-05)
(0.000127726 3.42622e-06 -1.75579e-05)
(0.00016368 -7.90954e-06 -3.34692e-05)
(0.000180154 -2.35098e-05 -4.272e-05)
(0.000170599 -3.83633e-05 -4.55295e-05)
(0.000145676 -4.98704e-05 -4.41774e-05)
(9.56412e-05 -5.03225e-05 -3.34875e-05)
(3.63182e-05 -3.39782e-05 -1.72127e-05)
(-7.59647e-06 -1.53777e-05 -2.13077e-05)
(-7.31567e-05 -1.67866e-05 -4.92731e-05)
(-0.000124544 -3.31741e-05 -4.46102e-05)
(-0.000288001 -7.21664e-05 -4.99046e-05)
(-0.000389167 -8.82566e-05 -2.43717e-05)
(-0.00048085 -9.78114e-05 5.03724e-06)
(-0.000535444 -0.000101885 3.13156e-05)
(-0.000563841 -0.000105102 5.00084e-05)
(-0.000564837 -0.000106437 5.88783e-05)
(-0.000560412 -0.000108658 6.02323e-05)
(-0.000559562 -0.000110986 5.61808e-05)
(-0.000566416 -0.000113589 4.82102e-05)
(-0.000587939 -0.000115464 3.84991e-05)
(-0.000622344 -0.000117556 2.84026e-05)
(-0.00065916 -0.000118492 1.80112e-05)
(-0.00067976 -0.000119398 6.25559e-06)
(7.57842e-05 6.24309e-06 2.61462e-05)
(0.000129542 -3.97539e-06 -1.4891e-05)
(0.000161354 -1.46076e-05 -2.76989e-05)
(0.000177027 -2.762e-05 -3.58011e-05)
(0.000178755 -4.23307e-05 -4.05198e-05)
(0.000159212 -5.36579e-05 -3.95812e-05)
(0.000127143 -6.00254e-05 -3.46658e-05)
(4.95857e-05 -3.63595e-05 -1.51209e-05)
(1.59029e-05 -3.29004e-05 -1.33382e-05)
(-3.41005e-05 -8.94018e-06 -2.5128e-05)
(-7.76199e-05 -1.51391e-05 -3.25935e-05)
(-9.23129e-05 -2.14015e-05 -2.0313e-05)
(-0.000283846 -6.35433e-05 -2.46827e-05)
(-0.000351035 -7.40771e-05 1.08199e-07)
(-0.000386443 -7.85644e-05 2.27705e-05)
(-0.000394865 -8.1087e-05 3.81323e-05)
(-0.000407798 -8.52245e-05 4.72136e-05)
(-0.000407188 -8.83914e-05 4.88775e-05)
(-0.000404617 -9.05418e-05 4.49711e-05)
(-0.000407298 -9.25263e-05 3.77652e-05)
(-0.000424974 -9.45496e-05 2.92259e-05)
(-0.000450314 -9.59249e-05 2.09292e-05)
(-0.000480629 -9.72046e-05 1.30453e-05)
(-0.000488456 -9.70605e-05 4.47989e-06)
(7.60238e-05 7.44502e-07 2.34371e-05)
(0.000131727 -1.03145e-05 -1.14955e-05)
(0.000162516 -2.025e-05 -2.26097e-05)
(0.000177547 -3.1815e-05 -3.02807e-05)
(0.000177558 -4.4589e-05 -3.42128e-05)
(0.000164729 -5.64536e-05 -3.35911e-05)
(0.000135287 -6.19843e-05 -2.7907e-05)
(9.83028e-05 -6.37057e-05 -1.95468e-05)
(3.25592e-05 -3.76611e-05 -3.44013e-06)
(-1.32411e-05 -1.65121e-05 -8.10137e-06)
(-3.30098e-05 -4.58767e-06 -1.35836e-05)
(-8.28339e-05 -1.85246e-05 -2.01736e-05)
(-9.48834e-05 -2.08599e-05 -9.75288e-06)
(-0.000204797 -4.59885e-05 -1.04008e-06)
(-0.000250248 -5.64529e-05 1.67827e-05)
(-0.000276117 -6.21453e-05 3.07639e-05)
(-0.000250653 -6.13586e-05 3.36017e-05)
(-0.00023601 -5.9631e-05 3.28282e-05)
(-0.000222044 -6.03872e-05 2.8386e-05)
(-0.000224995 -5.98395e-05 2.32766e-05)
(-0.000234528 -6.39512e-05 1.711e-05)
(-0.000268462 -6.72879e-05 1.26935e-05)
(-0.000294463 -7.1536e-05 7.94047e-06)
(-0.000329881 -7.51102e-05 3.16456e-06)
(7.24683e-05 -2.27797e-06 2.36137e-05)
(0.000125371 -1.28469e-05 -8.3111e-06)
(0.000153895 -2.17479e-05 -1.84136e-05)
(0.000167807 -3.20777e-05 -2.53986e-05)
(0.000171034 -4.42972e-05 -2.93151e-05)
(0.000161094 -5.60641e-05 -2.79169e-05)
(0.000141581 -6.39988e-05 -2.23034e-05)
(0.000102395 -6.14716e-05 -1.30823e-05)
(3.08854e-05 -2.87899e-05 3.17367e-09)
(1.0699e-05 -3.91377e-05 1.0117e-05)
(-1.77265e-05 -4.66129e-06 -3.03921e-06)
(-7.22429e-05 -1.72273e-05 -1.52789e-05)
(-0.000103024 -2.62636e-05 -9.91845e-06)
(-8.36669e-05 -2.14098e-05 7.10887e-07)
(-0.000118606 -3.05915e-05 1.06742e-05)
(-0.000158803 -4.1602e-05 2.20101e-05)
(-0.000118235 -3.55327e-05 1.93533e-05)
(-6.74321e-05 -2.24814e-05 1.14769e-05)
(-0.000120266 -4.39865e-05 1.87902e-05)
(-0.000146995 -5.3819e-05 1.77482e-05)
(-0.000129975 -4.76588e-05 1.03949e-05)
(-7.27208e-05 -2.42917e-05 3.46395e-06)
(-0.000158895 -4.87391e-05 4.23289e-06)
(-8.13148e-05 -2.29481e-05 7.73533e-07)
(6.87251e-05 -4.01398e-06 2.46115e-05)
(0.000122737 -1.47403e-05 -6.4257e-06)
(0.000148095 -2.29508e-05 -1.59905e-05)
(0.000159488 -3.23509e-05 -2.21738e-05)
(0.000160355 -4.31871e-05 -2.50479e-05)
(0.000153608 -5.46479e-05 -2.31402e-05)
(0.00013681 -6.18388e-05 -1.66882e-05)
(0.000113163 -6.51596e-05 -8.69793e-06)
(6.82462e-05 -5.60115e-05 2.90231e-06)
(1.53555e-05 -2.41115e-05 8.57256e-06)
(-5.35009e-06 -1.08718e-05 7.37165e-06)
(-3.1227e-05 -1.25421e-05 8.97261e-07)
(-6.40609e-05 -2.17394e-05 -5.79231e-07)
(-4.32e-05 -1.37479e-05 2.81957e-06)
(-9.08997e-05 -3.06466e-05 1.27857e-05)
(-6.28804e-05 -2.44415e-05 1.23702e-05)
(-4.2218e-05 -1.80513e-05 9.79599e-06)
(-3.85837e-05 -1.92099e-05 9.33616e-06)
(-6.1876e-05 -3.30681e-05 1.35825e-05)
(-3.56106e-05 -2.07993e-05 5.62535e-06)
(-6.80035e-05 -3.61144e-05 6.22037e-06)
(-4.27388e-05 -2.14536e-05 1.83178e-06)
(-0.000111406 -4.98363e-05 2.28044e-06)
(-0.000114832 -5.06809e-05 6.89763e-07)
(6.25723e-05 -5.07011e-06 2.51372e-05)
(0.000114706 -1.53105e-05 -4.65658e-06)
(0.000137462 -2.2907e-05 -1.39504e-05)
(0.000147083 -3.16529e-05 -1.93759e-05)
(0.000148207 -4.18737e-05 -2.14321e-05)
(0.000143182 -5.23071e-05 -1.88744e-05)
(0.000132293 -6.01326e-05 -1.23913e-05)
(0.00011132 -6.22053e-05 -4.29125e-06)
(7.71956e-05 -5.81549e-05 5.77735e-06)
(4.53821e-05 -5.47813e-05 2.03832e-05)
(6.26812e-06 -1.77416e-05 1.38489e-05)
(-7.48685e-06 -1.40594e-05 1.57189e-05)
(-2.21932e-05 -1.44691e-05 1.00746e-05)
(-4.05797e-05 -1.97015e-05 1.21222e-05)
(-2.33454e-05 -1.24942e-05 7.36217e-06)
(-4.40083e-05 -2.93775e-05 1.7782e-05)
(-1.81656e-05 -1.49451e-05 8.89474e-06)
(-3.13673e-05 -3.04475e-05 1.6986e-05)
(-2.80995e-05 -3.05223e-05 1.29544e-05)
(-2.51169e-05 -3.21253e-05 7.25935e-06)
(-3.23295e-05 -3.57319e-05 2.65076e-06)
(-1.9482e-05 -1.86904e-05 -1.13198e-07)
(-3.83892e-05 -3.11002e-05 -4.4752e-07)
(-4.24793e-05 -3.23949e-05 -2.16562e-07)
(5.92391e-05 -5.39833e-06 2.7607e-05)
(0.000109354 -1.48766e-05 -3.4105e-06)
(0.000128921 -2.19005e-05 -1.27567e-05)
(0.000136142 -3.02172e-05 -1.74447e-05)
(0.00013561 -3.96469e-05 -1.83275e-05)
(0.000131779 -4.90561e-05 -1.51563e-05)
(0.000124982 -5.66419e-05 -8.83537e-06)
(0.000111941 -6.03116e-05 -1.26509e-06)
(8.38315e-05 -5.79332e-05 7.55807e-06)
(3.48167e-05 -3.48695e-05 1.28376e-05)
(2.83962e-05 -4.44835e-05 3.28869e-05)
(8.09435e-06 -2.07628e-05 2.72988e-05)
(-6.84692e-07 -1.66171e-05 2.74409e-05)
(-9.41323e-06 -1.74357e-05 2.50837e-05)
(-5.68212e-06 -9.58757e-06 1.11476e-05)
(-7.73731e-06 -2.07473e-05 2.03889e-05)
(-3.30366e-06 -2.31907e-05 2.06433e-05)