/*--------------------------------*- C++ -*----------------------------------*\
  =========                 |
  \\      /  F ield         | OpenFOAM: The Open Source CFD Toolbox
   \\    /   O peration     | Website:  https://openfoam.org
    \\  /    A nd           | Version:  6
     \\/     M anipulation  |
\*---------------------------------------------------------------------------*/
FoamFile
{
    version     2.0;
    format      ascii;
    class       volScalarField;
    location    "27";
    object      yPlus;
}
// * * * * * * * * * * * * * * * * * * * * * * * * * * * * * * * * * * * * * //

dimensions      [0 0 0 0 0 0 0];

internalField   uniform 0;

boundaryField
{
    inlet
    {
        type            calculated;
        value           uniform 0;
    }
    outlet
    {
        type            calculated;
        value           uniform 0;
    }
    roughCylinder
    {
        type            calculated;
        value           nonuniform List<scalar> 
3840
(
64.3029
50.0537
53.687
62.0088
68.43
73.5406
77.6558
81.1173
84.1751
86.9555
89.5843
92.105
94.6167
97.2156
99.9583
102.865
105.951
109.195
112.564
115.993
119.375
122.537
125.166
126.771
65.9921
49.8308
52.2738
60.3321
66.6966
71.7928
75.8895
79.3351
82.367
85.1224
87.6601
90.1006
92.5302
95.0292
97.6657
100.479
103.458
106.593
109.845
113.157
116.424
119.48
122.021
123.57
60.9756
49.4197
50.8275
58.6568
64.9548
70.0022
74.1164
77.5853
80.6185
83.2872
85.78
88.142
90.4759
92.8893
95.4386
98.1386
101.009
104.03
107.171
110.368
113.521
116.472
118.926
120.421
76.8516
49.1521
49.4016
56.9059
63.1624
68.2483
72.3801
75.8487
78.8455
81.5267
83.9371
86.2251
88.4915
90.8107
93.2545
95.8713
98.6426
101.561
104.588
107.672
110.715
113.562
115.93
117.371
71.9843
48.6758
47.8939
55.1598
61.3943
66.4391
70.6094
74.1233
77.1632
79.7613
82.147
84.3771
86.5528
88.7994
91.1733
93.68
96.3496
99.1593
102.083
105.059
107.995
110.744
113.03
114.419
59.9719
48.0587
46.4511
53.3081
59.5055
64.6509
68.8783
72.4148
75.4002
78.0615
80.3894
82.5572
84.6911
86.8549
89.1253
91.5659
94.1479
96.8673
99.6849
102.555
105.388
108.039
110.246
111.584
76.6465
47.3846
44.8822
51.4274
57.6717
62.7781
67.0556
70.6505
73.7527
76.3291
78.6654
80.8098
82.8598
84.9679
87.1933
89.5271
92.0146
94.6304
97.3551
100.126
102.859
105.42
107.549
108.839
60.5621
46.5603
43.2953
49.3953
55.586
60.8741
65.263
68.931
71.9439
74.6423
76.9531
79.0532
81.1004
83.1435
85.2646
87.554
89.9682
92.5087
95.1338
97.8071
100.444
102.914
104.969
106.211
68.7665
45.8502
41.6539
47.2201
53.5736
58.8371
63.2997
67.0306
70.2829
72.8969
75.2412
77.3666
79.3414
81.3487
83.4604
85.6448
87.9706
90.4106
92.9528
95.5343
98.0802
100.466
102.45
103.645
62.7652
45.2793
39.8922
44.8504
51.0806
56.661
61.3256
65.2435
68.3459
71.161
73.5235
75.6112
77.6287
79.5983
81.6005
83.7686
86.0388
88.4206
90.8695
93.36
95.8152
98.1164
100.03
101.179
54.4511
44.1219
37.9976
42.0353
48.6567
54.2568
59.0732
63.0467
66.5964
69.3353
71.7587
73.9344
75.8859
77.834
79.8749
81.9357
84.1206
86.4011
88.7759
91.1809
93.5504
95.7723
97.6199
98.7221
58.5791
42.8276
35.7778
38.9972
45.2708
51.5002
56.6915
61.099
64.3994
67.4576
69.9713
72.1149
74.1609
76.1088
78.0212
80.1007
82.2521
84.4949
86.7813
89.0994
91.3819
93.5219
95.3006
96.3577
61.0761
42.308
33.3649
34.6848
41.9668
48.2777
53.8611
58.3162
62.4451
65.4498
68.0583
70.3786
72.3768
74.3129
76.3335
78.2967
80.3608
82.4975
84.7188
86.9581
89.1581
91.222
92.9377
93.9494
57.3358
40.6411
30.3881
30.2041
36.188
44.2012
50.5763
56.0298
59.7441
63.2854
66.1103
68.41
70.5617
72.5553
74.4103
76.4421
78.5052
80.631
82.7674
84.9221
87.0381
89.0214
90.6687
91.6359
50.5523
39.441
27.3078
20.7178
30.7849
38.7871
46.4454
52.0253
57.3923
60.922
63.8976
66.507
68.6513
70.6383
72.7091
74.6047
76.5691
78.5769
80.6587
82.7401
84.7763
86.686
88.2725
89.1937
32.6704
33.396
23.4018
11.0188
10.3684
30.3879
40.6916
48.9791
53.6306
58.2139
61.6489
64.2627
66.636
68.768
70.6008
72.6396
74.6536
76.6904
78.6882
80.6854
82.6375
84.4659
85.9825
86.8589
14.8391
13.0243
5.51234
7.42646
5.84942
17.9417
33.0323
41.922
50.527
55.1403
58.8625
62.0274
64.4635
66.5908
68.8185
70.6808
72.5676
74.4582
76.4142
78.3436
80.2159
81.9713
83.4286
84.2565
5.1086
11.9026
14.4221
16.498
17.6416
7.64515
23.7732
36.4799
43.9974
51.3462
56.0441
59.2613
62.0756
64.4904
66.3354
68.4619
70.483
72.4694
74.3384
76.1793
77.9652
79.6352
81.0186
81.7997
4.91214
6.41274
10.4648
10.5966
19.0669
19.2893
19.6902
11.261
39.3194
46.5786
52.134
56.4435
59.396
61.8108
64.3821
66.2513
68.0807
69.8611
71.7057
73.4847
75.1869
76.7822
78.1063
78.8344
10.1212
11.9284
7.24003
19.3429
20.8171
21.3445
11.9444
11.8613
20.5194
40.4146
47.9864
52.5203
56.3287
59.2926
61.1769
63.5347
65.6616
67.6576
69.404
71.0833
72.6933
74.1944
75.436
76.1131
11.2245
20.5222
22.9144
18.3415
18.7485
24.4972
7.25085
21.7882
23.1919
28.5035
41.5782
48.7157
52.5783
55.6133
58.9331
60.857
62.6385
64.3104
66.068
67.6947
69.2113
70.6336
71.816
72.4314
11.6699
21.8436
26.666
29.2046
24.1784
17.9336
26.9675
24.3696
15.0398
14.0405
33.3038
41.6454
48.2216
52.3346
54.2434
57.1673
59.6179
61.7483
63.3696
64.8739
66.2889
67.6022
68.6862
69.2447
11.7008
22.1933
27.9383
31.053
31.9763
25.7548
26.4079
2.77912
10.9463
16.9317
9.41887
35.4542
41.6498
46.3389
51.5777
53.5997
55.3397
56.8579
58.6028
60.078
61.382
62.6125
63.6448
64.1218
11.6726
20.408
26.8161
31.3995
33.2894
32.947
24.5096
26.8052
24.3846
25.5236
14.9631
10.5852
33.3935
41.4969
43.1478
47.7543
51.0554
53.7928
55.2626
56.5681
57.7612
58.8563
59.7587
60.1802
11.3006
18.6094
25.0559
29.7541
32.822
33.4965
32.6819
22.0797
22.6077
27.1972
8.76001
13.6517
23.954
27.577
40.2299
42.2228
44.1757
44.9764
47.0014
48.3835
49.4173
50.4557
51.3526
51.6336
8.67627
16.786
23.1131
27.812
30.9772
32.8061
32.2874
31.7634
19.8593
6.32218
16.1767
19.5852
25.04
12.926
12.9498
29.5444
35.3511
41.5522
42.7885
43.7361
44.796
45.5939
46.2876
46.4708
7.44249
15.3563
20.9897
25.2151
28.3906
30.3458
31.3774
30.3406
31.3367
20.6059
29.8614
16.006
6.75756
19.2314
24.8115
6.48955
19.7582
11.6999
18.7008
22.2775
21.5701
22.453
23.6058
24.9265
5.06612
13.4708
18.0174
21.5599
24.4619
26.7319
27.9579
29.3209
29.0721
31.6309
21.9715
2.96236
22.3704
10.6976
25.9321
25.9747
26.8153
19.6687
6.12565
29.1405
9.7759
23.8125
24.3706
31.5212
4.96143
12.2
14.7527
16.8925
19.1887
21.4506
23.6719
25.4292
28.302
29.0962
32.105
22.8333
30.0616
17.878
22.057
19.1991
26.8525
5.7476
21.9826
10.5682
22.3214
30.7514
31.0939
8.59699
3.85973
11.5518
12.4864
13.0699
14.1823
16.2806
18.8508
22.0205
24.6057
28.3636
29.7741
32.4872
24.3295
8.27357
16.6508
23.9685
11.2893
19.2824
31.2009
29.4549
24.7459
30.4218
31.4329
18.114
3.40217
11.5834
11.7094
11.8918
12.3581
14.0941
16.724
19.266
22.5352
25.0937
28.8601
30.5804
32.6155
27.0214
7.85767
2.984
16.4774
18.9453
26.0209
32.5443
28.5481
9.66693
20.8171
34.1072
2.99637
11.4653
11.6041
11.7393
12.3785
14.6053
17.0172
19.2917
21.1363
23.8247
26.0222
29.4705
31.3199
32.4088
30.7248
18.8689
20.5226
24.5374
32.8641
29.2127
20.6171
32.2648
10.5442
27.2855
1.98331
9.45569
11.5548
11.4899
12.6551
15.444
18.0175
19.961
21.7941
23.1008
25.1053
26.973
30.0066
31.8542
32.211
32.3435
27.539
22.5891
18.3622
14.8392
12.2782
13.8802
11.8766
11.659
2.38643
10.1009
11.6505
11.5373
14.1911
17.1715
19.465
21.2916
22.6414
23.9858
24.8247
26.2169
27.8437
30.2488
32.2036
31.9423
31.3349
30.8292
30.4886
30.2969
29.8678
29.5924
29.5444
29.7284
3.31221
11.4141
11.6004
13.2726
16.3647
19.0173
21.1059
22.7388
24.1237
25.0414
25.8704
26.2829
27.1549
28.5543
30.2793
31.7159
31.4244
30.3991
28.7929
27.0884
25.6782
24.8097
24.5987
24.7808
3.51554
11.3976
12.9436
15.9205
18.7121
21.0182
22.8876
24.4373
25.6501
26.6419
27.1488
27.478
27.531
27.9351
29.0495
29.9915
30.2547
29.8886
28.9027
27.6546
26.4106
25.7619
25.7578
26.0397
3.94753
12.0117
15.5958
18.4153
20.827
22.9049
24.6727
26.1642
27.4232
28.3045
28.8818
28.983
28.855
28.6168
28.6126
29.1174
29.2886
28.779
27.3977
25.461
23.6184
22.6182
22.6841
23.1677
5.8141
14.9137
18.1055
20.5914
22.7987
24.7549
26.4681
27.9686
29.2119
30.1766
30.7057
30.8655
30.5849
30.0513
29.5305
29.1189
28.7898
28.2058
27.0384
25.4371
23.8847
23.1467
23.423
24.0358
7.95193
16.9639
20.0699
22.4297
24.5567
26.4851
28.2206
29.7639
31.087
32.0727
32.698
32.8646
32.6161
31.9806
31.0903
30.2018
29.3261
28.3191
26.8981
25.0598
23.3061
22.4653
22.8319
23.5789
10.3604
18.8241
21.7617
24.0781
26.2103
28.1639
29.9546
31.5749
32.9568
34.0373
34.7152
34.9846
34.7831
34.137
33.1408
31.9002
30.5677
29.1631
27.563
25.7777
24.1956
23.5441
24.0334
24.84
11.6449
13.0914
15.0796
16.3854
17.3297
17.6912
17.668
17.2514
16.6413
15.8668
15.0726
14.2608
13.5149
12.8336
12.2579
11.8049
11.6802
11.4952
11.0936
10.899
10.9005
11.0981
11.4456
11.5417
11.8124
12.2706
12.8487
13.5335
14.2829
15.099
15.8975
16.6767
17.2911
17.7114
17.7383
17.3772
16.4359
15.122
13.1442
11.4743
20.0396
20.8419
21.4325
21.7224
21.9096
21.9173
21.892
21.7787
21.6699
21.5281
21.4072
21.2787
21.1678
21.0612
20.9708
20.8914
20.8273
20.7774
20.7446
20.7269
20.7275
20.7463
20.7801
20.831
20.8965
20.977
21.0683
21.1761
21.288
21.4176
21.5394
21.6826
21.7923
21.9071
21.9336
21.9275
21.742
21.4526
20.8647
20.0628
22.8451
23.3729
23.7787
24.0096
24.195
24.2764
24.3432
24.3497
24.3488
24.3143
24.2796
24.2344
24.193
24.1512
24.1147
24.0834
24.0573
24.0381
24.0242
24.0163
24.017
24.0262
24.0413
24.0618
24.0891
24.1216
24.1593
24.2022
24.2445
24.2908
24.3262
24.3616
24.363
24.3575
24.2908
24.2108
24.025
23.7961
23.3893
22.8655
25.1515
25.6247
26.05
26.3197
26.5607
26.7091
26.8441
26.9315
27.0126
27.0666
27.1165
27.154
27.1901
27.2214
27.25
27.2761
27.2976
27.3149
27.326
27.3302
27.331
27.328
27.3186
27.3026
27.2824
27.2578
27.2303
27.2003
27.1652
27.1287
27.0798
27.0266
26.946
26.8595
26.7247
26.5773
26.3359
26.0677
25.6411
25.1705
27.3033
27.7489
28.202
28.4992
28.7989
29.0132
29.2281
29.3956
29.5634
29.7043
29.8425
29.9662
30.0851
30.1937
30.2934
30.3814
30.4554
30.5128
30.5512
30.5686
30.5694
30.5535
30.5168
30.4607
30.3884
30.3017
30.2033
30.0958
29.9781
29.8556
29.7183
29.5782
29.4109
29.2442
29.0298
28.816
28.5163
28.2198
27.7661
27.3214
29.3012
29.7347
30.2353
30.5745
30.9452
31.2256
31.5204
31.7662
32.0171
32.2406
32.462
32.6664
32.8627
33.0436
33.2091
33.3545
33.4763
33.5703
33.633
33.6618
33.6626
33.6356
33.5745
33.482
33.3618
33.2178
33.0536
32.8741
32.6789
32.4756
32.2551
32.0324
31.7823
31.5371
31.2427
30.9626
30.592
30.253
29.7521
29.3187
31.1612
31.595
32.1541
32.5305
32.9654
33.3032
33.6661
33.9788
34.2992
34.5922
34.8824
35.1537
35.4135
35.6532
35.8717
36.0629
36.2224
36.3448
36.4259
36.4626
36.4635
36.4286
36.349
36.2282
36.0704
35.8807
35.6636
35.4252
35.1666
34.8965
34.6072
34.315
33.9952
33.6832
33.3207
32.9831
32.5485
32.1719
31.6125
31.1782
32.852
33.2879
33.8945
34.3016
34.7856
35.1697
35.5848
35.9501
36.3241
36.6711
37.0135
37.3354
37.6423
37.9255
38.1825
38.4068
38.5929
38.7352
38.829
38.871
38.8719
38.8317
38.7395
38.5989
38.4143
38.1918
37.9361
37.6544
37.3485
37.0278
36.6863
36.3403
35.9671
35.6021
35.1875
34.8036
34.3195
33.9121
33.3051
32.8687
34.3088
34.7337
35.3844
35.8113
36.3353
36.7539
37.2093
37.6146
38.029
38.4157
38.7965
39.1548
39.4951
39.8083
40.0915
40.3374
40.5408
40.6959
40.7978
40.8432
40.844
40.8004
40.7002
40.5469
40.3451
40.1006
39.8189
39.5072
39.1681
38.8109
38.4313
38.0453
37.6316
37.2269
36.7718
36.3532
35.8292
35.402
34.7509
34.3251
35.4403
35.8706
36.5535
37.0041
37.5594
38.0098
38.4975
38.9362
39.3823
39.8005
40.21
40.5951
40.9591
41.2931
41.5935
41.8535
42.0676
42.2303
42.3369
42.3842
42.3851
42.3396
42.2347
42.0737
41.8611
41.6027
41.3038
40.9712
40.6085
40.2245
39.816
39.3987
38.9533
38.5151
38.0276
37.5773
37.0219
36.5709
35.8876
35.4562
36.2061
36.6367
37.3675
37.8415
38.4342
38.9155
39.4367
39.9066
40.3823
40.8281
41.2622
41.6694
42.0523
42.4019
42.715
42.9848
43.2062
43.3738
43.4835
43.5322
43.5331
43.4861
43.3782
43.2122
42.9924
42.7241
42.4126
42.0643
41.6828
41.2768
40.8435
40.3987
39.9236
39.4542
38.9334
38.4521
37.8593
37.3849
36.6535
36.2217
36.5474
37.0161
37.7959
38.3118
38.946
39.4669
40.0245
40.5286
41.035
41.5085
41.9666
42.3945
42.7943
43.1578
43.4816
43.7594
43.9867
44.1583
44.2705
44.3205
44.3214
44.2731
44.1626
43.9927
43.7671
43.4908
43.1685
42.8064
42.4079
41.9812
41.5241
41.0514
40.5457
40.0421
39.4848
38.9639
38.3296
37.8132
37.0327
36.563
36.4449
36.9714
37.8211
38.3931
39.0801
39.6494
40.2495
40.7928
41.3329
41.8363
42.3194
42.7684
43.1852
43.5623
43.8964
44.1819
44.4146
44.59
44.7048
44.7564
44.7573
44.7074
44.5944
44.4206
44.1896
43.9056
43.573
43.1975
42.782
42.3342
41.852
41.3494
40.8101
40.2672
39.6674
39.098
38.4109
37.8384
36.9879
36.4601
35.8692
36.4619
37.4009
38.0474
38.7991
39.4263
40.0763
40.6641
41.242
41.7783
42.2888
42.7606
43.1957
43.5871
43.9322
44.2261
44.4648
44.6446
44.7623
44.8157
44.8167
44.765
44.649
44.4709
44.2339
43.9417
43.598
43.208
42.7743
42.3038
41.7943
41.2589
40.6816
40.0942
39.4445
38.8174
38.0653
37.4182
36.4782
35.884
34.8355
35.478
36.4808
37.2199
38.0444
38.7407
39.4454
40.084
40.7037
41.2768
41.8176
42.3149
42.7706
43.1787
43.5367
43.8405
44.0866
44.2717
44.3932
44.4491
44.4501
44.396
44.2763
44.0929
43.8484
43.5463
43.1899
42.7832
42.3289
41.8328
41.2931
40.7209
40.1018
39.4637
38.7592
38.0628
37.2379
36.498
35.4937
34.8494
33.4544
34.0471
35.0658
35.8651
36.7594
37.5307
38.2929
38.9854
39.6493
40.2623
40.8364
41.3624
41.8417
42.2692
42.643
42.9591
43.2147
43.4069
43.5334
43.5923
43.5932
43.5362
43.4117
43.2213
42.9674
42.6529
42.2808
41.8548
41.3769
40.8522
40.2791
39.6669
39.0037
38.3116
37.5495
36.7779
35.8828
35.0821
34.0614
33.4653
31.8438
32.279
33.2261
34.0194
34.9417
35.768
36.5849
37.3259
38.0317
38.6832
39.2905
39.8461
40.3506
40.7997
41.1912
41.522
41.7891
41.99
42.1226
42.1851
42.1861
42.1255
41.9949
41.7959
41.5306
41.2017
40.8118
40.3642
39.8611
39.3069
38.7005
38.05
37.3447
36.6039
35.7867
34.9596
34.0358
33.2405
32.2899
31.8499
30.0979
30.3045
31.0964
31.8043
32.6902
33.5205
34.3623
35.1369
35.8718
36.552
37.1858
37.7663
38.2933
38.7624
39.1714
39.5168
39.7958
40.0059
40.1449
40.2115
40.2125
40.1481
40.0111
39.8029
39.5258
39.1823
38.7751
38.3075
37.7819
37.2027
36.5698
35.8903
35.1558
34.3809
33.5383
32.7064
31.8183
31.1067
30.3103
30.0962
28.2082
28.2211
28.8318
29.4106
30.2082
30.9894
31.8116
32.5872
33.3277
34.0174
34.6627
35.2563
35.7966
36.2789
36.7
37.0562
37.3444
37.5619
37.7063
37.7761
37.7772
37.7096
37.5673
37.3518
37.0656
36.7113
36.292
35.8113
35.2724
34.6799
34.0354
33.346
32.6051
31.8289
31.0052
30.2218
29.421
28.8383
28.2217
28.202
26.217
26.1588
26.6242
27.0975
27.7962
28.5077
29.2798
30.0261
30.7511
31.431
32.0713
32.6635
33.2048
33.6896
34.1141
34.4741
34.766
34.9866
35.1336
35.2052
35.2064
35.1369
34.9922
34.7736
34.4838
34.1258
33.703
33.2197
32.6799
32.0888
31.449
30.7691
30.0434
29.2957
28.5215
27.8072
27.1049
26.6265
26.1558
26.2052
24.5127
24.5097
24.8922
25.3297
25.9552
26.614
27.3307
28.0347
28.7233
29.377
29.9967
30.5728
31.1014
31.5763
31.9931
32.3472
32.6346
32.8524
32.9976
33.0687
33.0699
33.0011
32.858
32.6423
32.3568
32.0047
31.5896
31.1162
30.5888
30.0136
29.3943
28.7403
28.0504
27.3445
26.625
25.963
25.3329
24.8901
24.5017
24.4952
23.8165
23.9019
24.2468
24.6822
25.2527
25.8654
26.5184
27.1651
27.8017
28.4137
28.9962
29.5401
30.0403
30.4906
30.8862
31.2228
31.4961
31.7034
31.8416
31.9092
31.9104
31.8448
31.7085
31.5032
31.2316
30.8968
30.5028
30.0537
29.5547
29.0114
28.4291
27.8167
27.1789
26.5297
25.8736
25.2568
24.6819
24.2407
23.89
23.7957
24.34
24.4479
24.777
25.1864
25.7053
26.2584
26.8423
27.4267
28.0071
28.5683
29.1038
29.6053
30.0669
30.483
30.8489
31.1604
31.4136
31.6053
31.7331
31.7953
31.7962
31.7358
31.6096
31.4195
31.1677
30.8577
30.493
30.078
29.6172
29.1163
28.5808
28.0193
27.4379
26.8518
26.2649
25.708
25.1848
24.77
24.4365
24.319
25.2043
25.2997
25.6218
26
26.4847
26.9936
27.5371
28.082
28.6251
29.1505
29.6525
30.1227
30.5561
30.9469
31.2908
31.5834
31.8215
32.0016
32.1215
32.1796
32.1805
32.124
32.0056
31.8268
31.5901
31.2986
30.9558
30.566
30.1333
29.6633
29.1612
28.6356
28.0915
27.5451
26.9989
26.4861
25.9964
25.6125
25.2841
25.1806
64.2158
50.1465
53.7112
62.0137
68.4324
73.5433
77.6569
81.1176
84.1766
86.9568
89.5857
92.1069
94.6184
97.2178
99.9603
102.867
105.953
109.197
112.567
115.996
119.378
122.54
125.169
126.774
62.5439
49.2885
52.2289
60.3325
66.6932
71.7911
75.8895
79.3376
82.3683
85.1245
87.6625
90.1025
92.5325
95.0312
97.6679
100.481
103.461
106.595
109.848
113.16
116.427
119.483
122.024
123.574
63.2518
49.1437
50.8406
58.6597
64.9562
70.006
74.118
77.5846
80.6198
83.2882
85.7809
88.144
90.4777
92.8914
95.4407
98.1406
101.011
104.033
107.174
110.371
113.524
116.475
118.929
120.424
62.2679
48.4086
49.3316
56.9054
63.1587
68.244
72.378
75.8516
78.847
81.5288
83.94
86.2269
88.4935
90.8128
93.2568
95.8737
98.6454
101.563
104.591
107.675
110.718
113.565
115.933
117.374
62.1056
48.3066
47.9408
55.1598
61.3942
66.4447
70.6138
74.1221
77.1641
79.7622
82.1471
84.3791
86.5551
88.8013
91.1754
93.682
96.3514
99.162
102.086
105.062
107.998
110.747
113.033
114.422
60.4014
47.1934
46.3404
53.3061
59.5029
64.6444
68.8722
72.4177
75.402
78.0637
80.3932
82.559
84.6922
86.8571
89.1275
91.5684
94.1512
96.87
99.6875
102.558
105.391
108.043
110.249
111.587
60.8918
47.2694
44.9356
51.4244
57.6717
62.7858
67.0657
70.65
73.7529
76.3298
78.6643
80.8114
82.863
84.9695
87.1953
89.5289
92.0156
94.6326
97.3577
100.129
102.862
105.423
107.553
108.842
56.7364
45.6858
43.2234
49.3935
55.5806
60.8656
65.2495
68.9317
71.9461
74.6443
76.9578
79.0552
81.1005
83.1459
85.2668
87.5566
89.9722
92.5119
95.1364
97.8101
100.447
102.918
104.972
106.214
60.1383
46.3714
41.7376
47.2249
53.5883
58.8491
63.3192
67.0336
70.2824
72.8975
75.239
77.3675
79.3449
81.35
83.4621
85.6463
87.9707
90.412
92.9554
95.5373
98.0835
100.469
102.454
103.648
69.8649
45.5159
39.9469
44.8522
51.0521
56.646
61.2999
65.2379
68.3476
71.162
73.5285
75.6133
77.6285
79.6005
81.6025
83.771
86.0434
88.4241
90.8721
93.363
95.8186
98.12
100.034
101.182
59.6779
44.6868
38.0277
42.0461
48.7132
54.2788
59.1069
63.0561
66.595
69.3354
71.7553
73.9352
75.8882
77.835
79.8763
81.937
84.1195
86.4013
88.7785
91.1839
93.5538
95.7751
97.6231
98.7252
61.825
43.4652
35.8787
39.0211
45.187
51.4698
56.6441
61.0819
64.3993
67.4573
69.9763
72.1148
74.1624
76.1107
78.0229
80.1027
82.2573
84.4996
86.7834
89.1024
91.3848
93.5256
95.3039
96.3609
57.6928
41.8775
33.3008
34.6213
42.0702
48.3068
53.9153
58.3363
62.4425
65.4489
68.0529
70.3822
72.3754
74.3134
76.3347
78.2981
80.3588
82.4957
84.7213
86.9607
89.1619
91.2249
92.9409
93.9527
53.2659
40.4903
30.6222
30.3911
36.0788
44.1647
50.5039
55.9926
59.741
63.2833
66.1152
68.4038
70.5673
72.5572
74.4115
76.4433
78.5102
80.6377
82.7694
84.9254
87.0411
89.0251
90.6719
91.6392
50.3551
39.6206
27.533
20.8966
30.9622
38.83
46.493
52.0597
57.3877
60.9202
63.8924
66.517
68.6437
70.6377
72.71
74.6059
76.5665
78.572
80.6611
82.7425
84.78
86.689
88.2759
89.1966
32.521
33.4706
23.5708
7.15019
8.58746
30.2853
40.6655
48.924
53.6232
58.2088
61.6458
64.2487
66.6477
68.7704
70.6014
72.6403
74.6587
76.7004
78.69
80.6893
82.6404
84.4702
85.9859
86.8619
8.83834
13.374
12.2199
6.09311
7.59704
13.2446
32.7884
41.9173
50.513
55.1359
58.8726
62.0397
64.4477
66.5882
68.8189
70.6806
72.5635
74.4481
76.4165
78.3457
80.2203
81.9745
83.4327
84.2595
4.99707
7.43368
8.26018
16.7884
17.7472
18.6225
5.86532
36.5142
43.9957
51.3428
56.0178
59.2551
62.0941
64.4939
66.3355
68.4641
70.4886
72.4857
74.3402
76.1845
77.9683
79.6404
81.0215
81.8031
10.832
7.24763
4.80463
10.3889
10.2122
8.9152
8.49579
11.1646
39.3263
46.5668
52.1417
56.4241
59.3778
61.8059
64.3812
66.2472
68.0771
69.8414
71.708
73.4862
75.1925
76.7858
78.1119
78.8374
7.42789
11.9955
15.9868
20.2069
3.47747
21.2211
20.8381
20.9734
19.7213
40.3269
48.0823
52.5861
56.3288
59.2958
61.1769
63.5396
65.6569
67.6854
69.4059
71.0911
72.6967
74.2013
75.4387
76.1173
11.3464
20.6183
23.1996
18.9148
10.2107
24.3969
5.76114
21.9252
14.317
29.256
41.1191
48.5802
52.6341
55.6115
58.93
60.8503
62.6626
64.2755
66.0706
67.6955
69.2194
70.638
71.824
72.4346
11.887
21.9176
26.6662
29.2213
24.6998
25.5202
14.6249
24.9185
14.638
2.45018
34.6026
41.7934
48.0052
52.3201
54.2446
57.1662
59.5516
61.7916
63.3718
64.8862
66.2929
67.6125
68.6904
69.2509
11.9729
22.2795
28.0701
31.2125
32.0841
26.1831
26.8527
4.95108
25.0212
22.5374
25.6137
35.7741
42.2332
46.3866
51.5677
53.6112
55.4553
56.8075
58.6075
60.0794
61.3961
62.6183
63.6547
64.1271
11.5706
20.4897
26.898
31.4826
33.4111
33.0375
24.5561
23.3273
16.9009
20.473
22.5371
4.14121
32.3141
41.3339
43.1641
47.701
50.9107
53.8416
55.2623
56.5877
57.7656
58.8752
59.7734
60.1908
11.4049
18.662
25.1274
29.8424
32.9054
33.5983
32.8027
21.6501
5.33247
17.8017
23.9887
22.6876
18.3359
28.3811
40.1721
42.3782
44.2144
44.9371
47.0327
48.3867
49.4491
50.4637
51.3506
51.6344
8.87068
16.8249
23.1544
27.865
31.0514
32.8828
32.3687
31.9273
20.0106
22.9602
8.50855
24.103
18.3044
25.6474
13.502
28.7343
35.4496
41.4956
42.6661
43.8584
44.7956
45.6448
46.3702
46.6139
7.25129
15.3563
21.0229
25.2669
28.4514
30.4217
31.4607
30.3996
31.5604
20.3253
10.2767
7.95487
12.3665
4.82644
25.5166
15.3297
26.7152
14.2851
20.3913
20.6502
21.7634
22.4837
23.8831
23.658
5.35497
13.5127
18.0476
21.6023
24.5209
26.7989
28.0309
29.4123
29.0865
31.6449
21.5841
29.1652
10.4429
26.3995
18.6739
20.7809
10.0959
27.8069
28.2907
22.3574
9.16077
23.9797
11.5013
11.4456
4.80934
12.1614
14.76
16.9329
19.2488
21.5229
23.7484
25.4938
28.4023
29.2049
32.2209
22.9425
11.0986
23.1732
4.55967
13.7473
27.1268
20.4964
7.31257
29.5881
22.7891
31.878
22.9644
23.2191
3.91792
11.5288
12.4982
13.0967
14.2273
16.3372
18.9112
22.0921
24.6561
28.418
29.8403
32.5703
23.8645
9.60373
24.5823
0.977153
9.8973
18.5923
26.5285
4.78468
32.6377
20.453
25.7069
26.5016
3.31507
11.262
11.6747
11.896
12.3737
14.115
16.7499
19.2929
22.5892
25.1578
28.9234
30.6224
32.6916
26.8016
11.2546
21.5744
2.13796
13.1977
22.668
32.2702
27.7796
18.4957
33.1168
14.8953
2.98546
11.2403
11.6246
11.7552
12.3915
14.6177
17.0258
19.3076
21.1488
23.8484
26.059
29.505
31.333
32.5379
30.3274
18.7216
16.4932
29.7154
30.4198
26.5509
13.9801
30.6081
32.5482
27.8608
2.01225
9.52884
11.4925
11.7227
12.66
15.4467
18.021
19.9624
21.8055
23.1184
25.1281
26.9969
30.024
31.8862
32.3218
32.3457
27.8693
23.5605
17.9305
14.2097
13.2343
12.6554
12.7364
11.9332
2.38644
10.1015
11.5342
11.5061
14.189
17.1689
19.4618
21.2919
22.6395
23.9864
24.8308
26.2276
27.8606
30.2745
32.2205
32.0134
31.4339
30.8857
30.508
30.4072
29.964
29.6308
29.7114
29.7607
3.30766
11.4077
11.6947
13.2762
16.3563
19.0086
21.0996
22.7331
24.1221
25.0419
25.8722
26.2868
27.1621
28.5771
30.308
31.7334
31.5135
30.5432
28.8727
27.1795
25.8324
24.9203
24.7089
24.8778
3.48411
11.3218
12.91
15.8998
18.6977
21.0069
22.878
24.43
25.6426
26.6355
27.144
27.4754
27.5322
27.9444
29.0667
30.0333
30.3028
29.9631
28.9581
27.7331
26.4918
25.8275
25.8401
26.124
3.93553
11.9952
15.5768
18.3989
20.8122
22.8915
24.6613
26.1538
27.4147
28.2971
28.8752
28.9772
28.851
28.6176
28.621
29.137
29.3355
28.8459
27.4496
25.5236
23.7042
22.7006
22.763
23.2274
5.79526
14.8917
18.0869
20.5743
22.7829
24.7404
26.4548
27.9567
29.2003
30.1656
30.6954
30.8562
30.5771
30.0463
29.5303
29.129
28.8145
28.2469
27.0763
25.4768
23.9317
23.1917
23.4603
24.0873
7.92554
16.9402
20.0486
22.4111
24.5396
26.4693
28.2059
29.7499
31.074
32.0605
32.6861
32.8531
32.6051
31.9714
31.0839
30.2025
29.3376
28.3443
26.9242
25.0926
23.3471
22.5083
22.8735
23.6182
10.3352
18.8036
21.7451
24.0617
26.1935
28.1473
29.9386
31.5595
32.9417
34.0224
34.7008
34.9706
34.7696
34.1246
33.1303
31.8937
30.5692
29.1742
27.5791
25.7961
24.2198
23.5716
24.0564
24.8715
63.8581
64.3053
68.0593
75.1719
73.629
67.1481
65.7913
61.658
55.2276
63.8571
36.5234
43.0374
14.7973
24.9092
10.2047
17.2529
12.9908
14.3017
13.4945
13.4122
13.4076
13.5516
13.9335
14.6155
12.7573
19.6428
14.9771
35.5039
12.0927
26.1426
56.642
56.8028
55.1785
56.8355
56.905
63.6666
57.2925
73.8397
68.3385
65.2192
49.6335
47.8702
46.7032
44.8267
43.264
41.2027
40.1267
38.1359
37.3868
35.5444
33.9005
33.4926
32.8914
31.9673
31.9639
31.0845
30.989
30.5544
30.4012
30.2731
30.2732
30.3957
30.5855
30.879
31.3369
31.5548
32.431
32.4925
33.5897
34.1455
35.0526
37.24
38.1302
40.266
40.7568
43.5931
44.3099
46.7444
47.5713
49.9059
54.2342
52.7015
52.2129
50.7557
50.19
48.8618
48.2604
47.0855
46.4581
45.4866
44.9058
44.0502
43.5357
42.9023
42.3961
42.0052
41.6209
41.384
41.1868
41.0861
41.0858
41.1884
41.3757
41.643
41.962
42.4453
42.8646
43.5258
44.0709
44.9191
45.5134
46.473
47.0657
48.2259
48.8392
50.1753
50.7449
52.2375
52.6807
54.2669
62.6741
61.1774
60.6575
59.219
58.5684
57.2496
56.5429
55.3838
54.6708
53.6898
53.0117
52.2317
51.6279
51.0264
50.5381
50.0952
49.7618
49.4868
49.307
49.204
49.2039
49.3063
49.4886
49.7559
50.103
50.5302
51.0259
51.6243
52.2432
53.0174
53.6882
54.6596
55.38
56.5474
57.2558
58.5765
59.226
60.6609
61.1741
62.673
69.081
67.5361
66.9363
65.476
64.755
63.438
62.6606
61.5165
60.7354
59.7765
59.0448
58.2656
57.6307
57.0215
56.5153
56.0777
55.7227
55.4559
55.2682
55.1672
55.1672
55.2683
55.4545
55.7245
56.0746
56.5156
57.0218
57.6293
58.2669
59.0466
59.777
60.7353
61.5146
62.6586
63.4347
64.7542
65.4741
66.9372
67.5331
69.0828
74.1754
72.5903
71.9147
70.4439
69.6494
68.3426
67.4979
66.3707
65.5377
64.5871
63.821
63.0417
62.3865
61.7737
61.2573
60.812
60.4563
60.181
59.9943
59.8924
59.8923
59.994
60.1811
60.4552
60.8121
61.2569
61.7725
62.3858
63.0429
63.8215
64.5864
65.5353
66.3694
67.4972
68.3431
69.6496
70.444
71.9143
72.5884
74.1752
78.2436
76.6413
75.888
74.4248
73.5653
72.275
71.3803
70.2646
69.399
68.452
67.6671
66.8851
66.2183
65.6017
65.0789
64.6307
64.2696
63.9941
63.8045
63.7027
63.7027
63.8044
63.9936
64.2695
64.6301
65.0781
65.6014
66.2179
66.8846
67.6665
68.451
69.398
70.2637
71.3791
72.2741
73.5637
74.4236
75.8862
76.6399
78.2421
81.6663
80.0533
79.2431
77.7851
76.8816
75.5974
74.672
73.5573
72.6715
71.7215
70.9227
70.1363
69.4595
68.838
68.3085
67.8557
67.4905
67.2105
67.0189
66.9151
66.915
67.0187
67.2103
67.4901
67.8551
68.308
68.8373
69.4588
70.1356
70.9219
71.7205
72.6702
73.5561
74.6705
75.5963
76.88
77.7841
79.2411
80.0524
81.664
84.7095
83.0674
82.2265
80.7565
79.8285
78.5375
77.5924
76.4718
75.57
74.614
73.8022
73.0091
72.3223
71.6941
71.1571
70.6982
70.3273
70.0429
69.8468
69.7398
69.7398
69.8466
70.0425
70.3269
70.6977
71.1565
71.6935
72.3216
73.0082
73.8012
74.6128
75.5687
76.4704
77.5909
78.536
79.8269
80.7549
82.2249
83.0657
84.7078
87.5269
85.8282
84.9806
83.4833
82.5403
81.2346
80.2723
79.1415
78.2235
77.2582
76.4327
75.6304
74.9325
74.2957
73.7499
73.2837
72.906
72.6155
72.4146
72.3033
72.3032
72.4144
72.6152
72.9055
73.2831
73.7493
74.2949
74.9316
75.6294
76.4315
77.257
78.2221
79.1402
80.2706
81.2331
82.5384
83.4817
84.9786
85.8267
87.5248
90.1728
88.4356
87.5705
86.0507
85.0877
83.7663
82.7848
81.6404
80.7053
79.7272
78.887
78.0731
77.3629
76.7159
76.1602
75.6855
75.3002
75.0032
74.7965
74.6802
74.6801
74.7963
75.0029
75.2997
75.6849
76.1595
76.7151
77.362
78.072
78.886
79.726
80.7039
81.6389
82.7832
83.7647
85.0859
86.049
87.5685
88.434
90.1706
92.741
90.9407
90.0797
88.5187
87.5486
86.1993
85.2047
84.04
83.0897
82.0958
81.2409
80.4137
79.6907
79.0326
78.4665
77.9829
77.5896
77.2858
77.0732
76.9515
76.9514
77.073
77.2855
77.5891
77.9823
78.4658
79.0317
79.6897
80.4126
81.2397
82.0945
83.0884
84.0385
85.2031
86.1977
87.5468
88.5169
90.0779
90.9388
92.7391
95.3085
93.4413
92.5863
90.9835
90.004
88.628
87.6172
86.4332
85.4653
84.4557
83.5846
82.744
82.0074
81.3378
80.7611
80.2683
79.867
79.5563
79.3378
79.2109
79.2108
79.3376
79.556
79.8665
80.2678
80.7604
81.3371
82.0064
82.7429
83.5835
84.4544
85.4639
86.4317
87.6156
88.6264
90.0022
90.9817
92.5843
93.4396
95.3062
97.9563
96.0281
95.1733
93.5307
92.5385
91.1353
90.1064
88.9016
87.915
86.8881
86.0001
85.1447
84.3939
83.7121
83.1241
82.6218
82.2121
81.8945
81.6701
81.538
81.5378
81.6699
81.8942
82.2116
82.6212
83.1234
83.7113
84.393
85.1437
85.999
86.8869
87.9137
88.9002
90.1048
91.1337
92.5367
93.5289
95.1714
96.026
97.9543
100.75
98.756
97.9015
96.2147
95.2086
93.7751
92.7265
91.4983
90.4914
89.4451
88.5384
87.6667
86.9004
86.2051
85.6049
85.0922
84.6737
84.3488
84.1184
83.9812
83.9811
84.1182
84.3485
84.6732
85.0917
85.6042
86.2043
86.8995
87.6658
88.5375
89.4438
90.49
91.4969
92.7246
93.7732
95.2067
96.2128
97.8991
98.7541
100.748
103.721
101.649
100.799
99.0612
98.041
96.5725
95.5024
94.2475
93.2182
92.1499
91.2228
90.3331
89.5493
88.8395
88.2259
87.7021
87.274
86.9414
86.7046
86.5623
86.5623
86.7046
86.9409
87.2736
87.7013
88.2251
88.8386
89.5485
90.3319
91.222
92.1486
93.2169
94.2462
95.5006
96.5707
98.0392
99.0594
100.796
101.647
103.719
106.866
104.718
103.863
102.076
101.036
99.532
98.4361
97.1535
96.0984
95.0067
94.0567
93.1467
92.3446
91.6181
90.9903
90.4542
90.0155
89.6749
89.4317
89.2846
89.2842
89.4313
89.6745
90.0151
90.4534
90.9895
91.6172
92.3433
93.1459
94.0555
95.0054
96.0967
97.1518
98.4344
99.5302
101.034
102.074
103.861
104.716
106.864
110.171
107.944
107.084
105.244
104.181
102.64
101.516
100.203
99.1205
98.0033
97.029
96.0974
95.2748
94.531
93.8874
93.3383
92.8889
92.5397
92.2899
92.1375
92.1372
92.2895
92.5393
92.8885
93.3379
93.8866
94.5303
95.274
96.0966
97.0278
98.0021
99.1189
100.202
101.514
102.638
104.179
105.242
107.082
107.941
110.169
113.6
111.294
110.425
108.533
107.444
105.865
104.71
103.367
102.254
101.111
100.11
99.1561
98.3118
97.5496
96.8898
96.3267
95.8659
95.5073
95.2508
95.0934
95.0934
95.2505
95.5069
95.8655
96.3259
96.889
97.5488
98.3107
99.155
100.109
101.109
102.253
103.365
104.709
105.863
107.442
108.531
110.422
111.291
113.598
117.091
114.704
113.825
111.881
110.765
109.148
107.961
106.586
105.443
104.272
103.245
102.267
101.401
100.62
99.9431
99.3661
98.8936
98.5256
98.2624
98.1003
98.0999
98.262
98.5252
98.8928
99.3654
99.9424
100.619
101.4
102.266
103.243
104.271
105.441
106.585
107.959
109.146
110.763
111.879
113.822