/*--------------------------------*- C++ -*----------------------------------*\
  =========                 |
  \\      /  F ield         | OpenFOAM: The Open Source CFD Toolbox
   \\    /   O peration     | Website:  https://openfoam.org
    \\  /    A nd           | Version:  6
     \\/     M anipulation  |
\*---------------------------------------------------------------------------*/
FoamFile
{
    version     2.0;
    format      ascii;
    class       volVectorField;
    location    "22";
    object      wallShearStress;
}
// * * * * * * * * * * * * * * * * * * * * * * * * * * * * * * * * * * * * * //

dimensions      [0 2 -2 0 0 0 0];

internalField   uniform (0 0 0);

boundaryField
{
    inlet
    {
        type            calculated;
        value           uniform (0 0 0);
    }
    outlet
    {
        type            calculated;
        value           uniform (0 0 0);
    }
    roughCylinder
    {
        type            calculated;
        value           nonuniform List<vector> 
5120
(
(-9.12082e-05 -0.000104703 -5.16454e-05)
(-0.00015782 -0.000252475 -6.81126e-05)
(-0.000238611 -0.000411262 -1.01447e-05)
(-0.000284404 -0.000486514 4.03952e-05)
(-0.00033858 -0.000547838 8.65264e-05)
(-0.000384751 -0.000577373 0.000125017)
(-0.000425773 -0.000589131 0.000155146)
(-0.000456644 -0.000583958 0.000175378)
(-0.000481594 -0.00057311 0.000188851)
(-0.00050235 -0.000563114 0.000198935)
(-0.000521121 -0.00055609 0.000207754)
(-0.00053417 -0.000548712 0.000213439)
(-0.000546465 -0.000546052 0.000217297)
(-0.000557938 -0.000546666 0.000219041)
(-0.000567308 -0.000548744 0.000218181)
(-0.000572521 -0.000549791 0.000214054)
(-0.000571504 -0.000547303 0.000206266)
(-0.00056634 -0.000542307 0.00019596)
(-0.000572732 -0.000548831 0.000188283)
(-0.000564419 -0.000542495 0.000175027)
(-0.000564286 -0.000543853 0.000163777)
(-0.000570344 -0.000551252 0.000153388)
(-0.000564276 -0.000547499 0.000139285)
(-0.000568821 -0.000553269 0.000127519)
(-0.000597983 -0.000582467 0.00012005)
(-0.000581939 -0.000569324 0.000103149)
(-0.000579451 -0.00056869 8.86327e-05)
(-0.000581496 -0.000572216 7.43828e-05)
(-0.000576314 -0.000568817 5.88054e-05)
(-0.000572644 -0.000566569 4.29845e-05)
(-0.000568994 -0.000563901 2.64457e-05)
(-0.000568018 -0.000563553 8.98045e-06)
(-0.000136365 -0.000138386 -6.37571e-05)
(-0.000169839 -0.000244372 -7.28127e-05)
(-0.000255207 -0.000402055 -1.83502e-05)
(-0.000303939 -0.000481515 3.17796e-05)
(-0.00036078 -0.0005463 7.81621e-05)
(-0.000409404 -0.000579502 0.000117538)
(-0.000451979 -0.000593225 0.000148179)
(-0.000484632 -0.000590421 0.000168862)
(-0.000513008 -0.000584007 0.000183688)
(-0.000536934 -0.000577164 0.000195434)
(-0.000556974 -0.000570476 0.000205295)
(-0.000571808 -0.000562686 0.000212077)
(-0.000583488 -0.000557392 0.000215881)
(-0.000595547 -0.000557195 0.000217805)
(-0.000605341 -0.000558769 0.000217072)
(-0.00061102 -0.000559816 0.000213184)
(-0.000610303 -0.000557576 0.000205721)
(-0.000606132 -0.000553633 0.000195992)
(-0.000613003 -0.000560321 0.000188428)
(-0.000605279 -0.000555046 0.000175671)
(-0.000607661 -0.000558718 0.000165205)
(-0.000615116 -0.000567096 0.000155041)
(-0.000610067 -0.000564669 0.000141247)
(-0.000614526 -0.00057032 0.000129384)
(-0.000645626 -0.000599914 0.000121813)
(-0.000628322 -0.000586525 0.000104743)
(-0.00062639 -0.000586631 9.01991e-05)
(-0.000627757 -0.000589478 7.56551e-05)
(-0.000622183 -0.00058607 5.98354e-05)
(-0.000618056 -0.000583678 4.37529e-05)
(-0.000614066 -0.000580923 2.69325e-05)
(-0.000612937 -0.000580521 9.145e-06)
(-0.000146973 -0.000129519 -5.19785e-05)
(-0.000183989 -0.000235535 -7.81421e-05)
(-0.000272692 -0.000389135 -2.71966e-05)
(-0.000324236 -0.000472385 2.20846e-05)
(-0.000382827 -0.000539261 6.8501e-05)
(-0.000433158 -0.000575168 0.000108481)
(-0.000477965 -0.000592079 0.000139812)
(-0.000513172 -0.000592959 0.000161435)
(-0.000543537 -0.000589444 0.000177386)
(-0.000569566 -0.000584808 0.000190515)
(-0.000592877 -0.00058072 0.000201979)
(-0.000610266 -0.000574015 0.000210026)
(-0.000625192 -0.000569287 0.000215091)
(-0.000638268 -0.000568558 0.000217417)
(-0.000648888 -0.000569713 0.000216927)
(-0.000654678 -0.000570267 0.000213135)
(-0.000654123 -0.000568018 0.000205913)
(-0.00065112 -0.000565157 0.000196747)
(-0.000658031 -0.00057158 0.000189162)
(-0.000650499 -0.000566922 0.000176749)
(-0.000654105 -0.000571515 0.000166629)
(-0.000660906 -0.000578993 0.00015619)
(-0.000655222 -0.000576388 0.000142387)
(-0.000659256 -0.000581599 0.000130459)
(-0.000691427 -0.000610616 0.000122704)
(-0.00067282 -0.000597122 0.000105586)
(-0.000672514 -0.000598872 9.12637e-05)
(-0.000674976 -0.000602694 7.67276e-05)
(-0.000670609 -0.000600759 6.08574e-05)
(-0.000667423 -0.000599539 4.46136e-05)
(-0.000663924 -0.000597497 2.75134e-05)
(-0.000663139 -0.000597517 9.34918e-06)
(-0.000116572 -8.81323e-05 -2.74507e-05)
(-0.000193482 -0.000218919 -8.14871e-05)
(-0.000286698 -0.000369175 -3.60594e-05)
(-0.000340851 -0.000455545 1.14681e-05)
(-0.000401881 -0.000525736 5.76099e-05)
(-0.000455259 -0.000566268 9.82543e-05)
(-0.000502539 -0.00058686 0.000130242)
(-0.000540366 -0.000591774 0.000152973)
(-0.000574809 -0.000593509 0.000170919)
(-0.000604736 -0.000592874 0.000186132)
(-0.00062958 -0.000589517 0.00019862)
(-0.000648784 -0.000583421 0.000207516)
(-0.000664325 -0.000577294 0.000212988)
(-0.000677843 -0.000574759 0.000215547)
(-0.00068891 -0.000575128 0.000215212)
(-0.000695399 -0.000575496 0.000211745)
(-0.000695489 -0.000573543 0.000204952)
(-0.000693468 -0.000571473 0.000196316)
(-0.000700479 -0.000577684 0.000188841)
(-0.00069467 -0.0005748 0.000177222)
(-0.000701442 -0.000581783 0.00016792)
(-0.000708542 -0.000589287 0.000157487)
(-0.000703495 -0.000587656 0.000143967)
(-0.000708997 -0.000594032 0.000132319)
(-0.000742148 -0.000622374 0.000124311)
(-0.000722455 -0.000609124 0.000107112)
(-0.000723115 -0.000611841 9.2822e-05)
(-0.000724645 -0.000614888 7.79929e-05)
(-0.000719868 -0.000612997 6.18857e-05)
(-0.000716272 -0.000611757 4.53882e-05)
(-0.000712346 -0.000609631 2.80035e-05)
(-0.000711352 -0.000609586 9.51526e-06)
(-0.000165602 -0.000105779 -1.97994e-05)
(-0.00020424 -0.000202865 -8.52845e-05)
(-0.000299201 -0.000346103 -4.46824e-05)
(-0.000355861 -0.000435084 4.05247e-07)
(-0.000418426 -0.000507514 4.58601e-05)
(-0.000473687 -0.00055125 8.66655e-05)
(-0.000523994 -0.000576382 0.000119282)
(-0.000565743 -0.000586878 0.000143521)
(-0.000602829 -0.000592294 0.000163114)
(-0.000634527 -0.000593649 0.000179785)
(-0.000662926 -0.000593109 0.000193958)
(-0.000685256 -0.000588862 0.000204123)
(-0.000704893 -0.000584972 0.000211071)
(-0.000721142 -0.000582297 0.00021456)
(-0.00073331 -0.000581712 0.000214641)
(-0.000739814 -0.00058121 0.000211295)
(-0.000740215 -0.000579063 0.000204808)
(-0.0007394 -0.000577799 0.000196733)
(-0.000746473 -0.000583722 0.000189376)
(-0.000741971 -0.000582083 0.000178364)
(-0.000750022 -0.000589707 0.000169353)
(-0.000755297 -0.000595652 0.000158514)
(-0.000749197 -0.000593665 0.00014499)
(-0.000755718 -0.000600729 0.000133588)
(-0.000788323 -0.000627216 0.000125183)
(-0.000767719 -0.000614508 0.000108029)
(-0.000769995 -0.000618678 9.39358e-05)
(-0.000772302 -0.000622432 7.90814e-05)
(-0.000768919 -0.000622077 6.29263e-05)
(-0.00076645 -0.000622123 4.62686e-05)
(-0.000763053 -0.000620747 2.85976e-05)
(-0.000762441 -0.000621151 9.72491e-06)
(-0.000162077 -8.57668e-05 -1.61029e-06)
(-0.000206995 -0.000179159 -8.54982e-05)
(-0.000306486 -0.000316705 -5.23645e-05)
(-0.00036505 -0.000407026 -1.08711e-05)
(-0.000429759 -0.000482549 3.31107e-05)
(-0.000488858 -0.000531864 7.39806e-05)
(-0.000542713 -0.00056215 0.00010722)
(-0.000587687 -0.000577411 0.000132815)
(-0.000629137 -0.000587985 0.00015452)
(-0.000665622 -0.0005939 0.000173465)
(-0.000696313 -0.000594839 0.000188988)
(-0.000720946 -0.000591658 0.000200256)
(-0.000741251 -0.000587157 0.000207618)
(-0.000758993 -0.000584022 0.000211692)
(-0.000772316 -0.000582236 0.000212284)
(-0.000779691 -0.000580893 0.000209398)
(-0.00078079 -0.000578819 0.000203423)
(-0.000781061 -0.000578141 0.000195949)
(-0.000788411 -0.000583889 0.000188885)
(-0.000786249 -0.000584071 0.000178752)
(-0.000796859 -0.000593196 0.00017036)
(-0.000801978 -0.000599049 0.000159571)
(-0.000796792 -0.000598276 0.000146453)
(-0.000805892 -0.000607096 0.000135525)
(-0.000838133 -0.000632001 0.000126746)
(-0.00081707 -0.000620304 0.000109631)
(-0.000820286 -0.000625322 9.55601e-05)
(-0.000821366 -0.000628439 8.04174e-05)
(-0.000817488 -0.000628268 6.40184e-05)
(-0.000814535 -0.000628459 4.7096e-05)
(-0.000810598 -0.000627097 2.91224e-05)
(-0.000809712 -0.000627498 9.90364e-06)
(-0.000138032 -5.92634e-05 1.28756e-05)
(-0.000214187 -0.000159426 -8.71916e-05)
(-0.000311294 -0.000285726 -5.9438e-05)
(-0.000371507 -0.00037642 -2.20988e-05)
(-0.000437491 -0.00045411 1.9695e-05)
(-0.000498667 -0.000507152 6.00281e-05)
(-0.000556011 -0.000542575 9.37255e-05)
(-0.000606026 -0.000564236 0.000120985)
(-0.000651062 -0.000578878 0.000144529)
(-0.000689468 -0.000586544 0.00016491)
(-0.000724036 -0.00059031 0.000182145)
(-0.00075257 -0.000589542 0.000194992)
(-0.000777632 -0.000587711 0.000203994)
(-0.000798645 -0.000585732 0.000209177)
(-0.000814296 -0.000584063 0.000210601)
(-0.000822316 -0.000581593 0.000208216)
(-0.000823894 -0.000578786 0.00020275)
(-0.000825644 -0.000578535 0.000195953)
(-0.00083341 -0.000583994 0.000189228)
(-0.000832964 -0.000585318 0.000179774)
(-0.000843926 -0.000594261 0.000171512)
(-0.000847094 -0.000598979 0.000160498)
(-0.00084101 -0.000598266 0.000147514)
(-0.000851542 -0.000608006 0.000136915)
(-0.000881666 -0.000630448 0.000127642)
(-0.000860298 -0.000620164 0.000110687)
(-0.000864701 -0.000626394 9.67664e-05)
(-0.00086596 -0.00063007 8.156e-05)
(-0.000863266 -0.000631392 6.5089e-05)
(-0.000861338 -0.000632934 4.79957e-05)
(-0.000857828 -0.000632394 2.9728e-05)
(-0.000857257 -0.00063327 1.01178e-05)
(-0.000150858 -5.08746e-05 2.87894e-05)
(-0.000214295 -0.000134763 -8.48947e-05)
(-0.00030965 -0.000250638 -6.52682e-05)
(-0.000370233 -0.000339317 -3.26376e-05)
(-0.000437523 -0.000419171 5.72184e-06)
(-0.000502977 -0.000478257 4.50673e-05)
(-0.000564733 -0.000519648 7.91895e-05)
(-0.000618408 -0.000546113 0.000107725)
(-0.000668085 -0.000565421 0.000133174)
(-0.00071247 -0.000577933 0.000155818)
(-0.000750595 -0.000583896 0.000174658)
(-0.000782005 -0.000584541 0.000188869)
(-0.00080817 -0.000582587 0.000198663)
(-0.000830534 -0.000580549 0.00020458)
(-0.000847276 -0.000578595 0.00020665)
(-0.000857112 -0.000576438 0.000205177)
(-0.000860314 -0.000573742 0.000200598)
(-0.0008639 -0.000574018 0.000194732)
(-0.00087234 -0.000579257 0.000188573)
(-0.000874172 -0.000581879 0.000179986)
(-0.000886411 -0.000591325 0.00017215)
(-0.000889657 -0.000596483 0.000161415)
(-0.000884948 -0.000597447 0.000148989)
(-0.000897785 -0.000608625 0.000138822)
(-0.000926185 -0.000629225 0.000129137)
(-0.00090482 -0.000620663 0.000112318)
(-0.00090942 -0.000627439 9.8354e-05)
(-0.000909009 -0.00063035 8.28417e-05)
(-0.000905503 -0.000631615 6.61151e-05)
(-0.000902737 -0.000633071 4.87566e-05)
(-0.000898439 -0.00063242 3.02047e-05)
(-0.000897447 -0.000633202 1.02793e-05)
(-0.000166628 -4.15621e-05 4.7568e-05)
(-0.000214469 -0.000111884 -8.16328e-05)
(-0.000304628 -0.000215081 -7.00315e-05)
(-0.000365013 -0.000300742 -4.2258e-05)
(-0.000432497 -0.000381584 -8.26178e-06)
(-0.000499596 -0.000444229 2.92041e-05)
(-0.000564822 -0.000490713 6.32873e-05)
(-0.000624443 -0.000523731 9.32035e-05)
(-0.000678915 -0.000547404 0.00012034)
(-0.000725812 -0.000561568 0.0001443)
(-0.00076817 -0.000570088 0.000164762)
(-0.00080429 -0.000573425 0.000180738)
(-0.00083596 -0.000574527 0.000192474)
(-0.000862175 -0.000574244 0.000199887)
(-0.00088151 -0.000573198 0.000203129)
(-0.0008918 -0.000570688 0.000202347)
(-0.000896433 -0.000568393 0.000198741)
(-0.000902032 -0.00056946 0.000193939)
(-0.000911221 -0.000574582 0.000188428)
(-0.000914624 -0.000577882 0.000180548)
(-0.000926081 -0.000586537 0.000172783)
(-0.000927703 -0.000591011 0.000162066)
(-0.000922204 -0.000592048 0.000149852)
(-0.000935558 -0.000603206 0.000139879)
(-0.000960429 -0.000620913 0.000129676)
(-0.000939103 -0.000613933 0.00011309)
(-0.000943975 -0.000621183 9.91935e-05)
(-0.000943381 -0.000624408 8.36372e-05)
(-0.000940964 -0.000626869 6.68903e-05)
(-0.000939225 -0.000629503 4.94351e-05)
(-0.000935441 -0.000629653 3.06748e-05)
(-0.000934761 -0.000630847 1.04471e-05)
(-0.000196067 -3.25926e-05 7.4296e-05)
(-0.000216315 -9.14468e-05 -7.77593e-05)
(-0.000293614 -0.000177935 -7.2557e-05)
(-0.0003507 -0.000257551 -4.98024e-05)
(-0.000417467 -0.000337968 -2.1553e-05)
(-0.000488325 -0.000405983 1.29569e-05)
(-0.000558427 -0.000458757 4.66171e-05)
(-0.000621948 -0.000496329 7.73101e-05)
(-0.000681286 -0.000524076 0.000105835)
(-0.000735371 -0.000543107 0.000131784)
(-0.000782796 -0.000554303 0.000153946)
(-0.000822516 -0.000559157 0.000171427)
(-0.0008557 -0.000560408 0.000184254)
(-0.000883363 -0.000560381 0.000192747)
(-0.000903825 -0.00055955 0.000197014)
(-0.000916529 -0.000558224 0.000197573)
(-0.000923032 -0.00055683 0.000195198)
(-0.000930471 -0.000558655 0.000191541)
(-0.000940177 -0.000563574 0.000186753)
(-0.000945277 -0.000567587 0.000179707)
(-0.00095689 -0.000576139 0.000172339)
(-0.000959134 -0.000581333 0.000162146)
(-0.000955712 -0.000584128 0.000150653)
(-0.000970511 -0.000595721 0.000141024)
(-0.00099301 -0.000611501 0.000130521)
(-0.000972364 -0.000606452 0.000114215)
(-0.00097677 -0.000613675 0.000100272)
(-0.000974255 -0.000616163 8.44927e-05)
(-0.000970782 -0.000618391 6.75634e-05)
(-0.000967884 -0.000620744 4.99288e-05)
(-0.00096304 -0.000620653 3.09809e-05)
(-0.000961833 -0.000621681 1.05501e-05)
(-0.000212635 -1.81386e-05 0.00010064)
(-0.00021535 -7.16772e-05 -7.21637e-05)
(-0.000280168 -0.000142621 -7.28134e-05)
(-0.000332459 -0.000214954 -5.50316e-05)
(-0.000396783 -0.000292995 -3.34605e-05)
(-0.000467247 -0.000362925 -3.10163e-06)
(-0.000539774 -0.00042004 2.91034e-05)
(-0.000609785 -0.000464175 6.02216e-05)
(-0.000675299 -0.000496773 8.99078e-05)
(-0.000732805 -0.000517494 0.000116925)
(-0.000784814 -0.000530661 0.000140478)
(-0.000830028 -0.000538027 0.000159714)
(-0.000869529 -0.000542419 0.000174657)
(-0.000901869 -0.000544627 0.000185054)
(-0.000925661 -0.0005454 0.000191002)
(-0.000939218 -0.000544408 0.00019274)
(-0.000947655 -0.000544049 0.000191744)
(-0.000956949 -0.000546683 0.000189319)
(-0.000967306 -0.000551538 0.000185354)
(-0.000973352 -0.000555823 0.000179035)
(-0.000983535 -0.000563461 0.000171847)
(-0.000984435 -0.00056818 0.000161895)
(-0.000980135 -0.000570838 0.00015069)
(-0.000993989 -0.000581328 0.000141142)
(-0.00101229 -0.000594273 0.000130275)
(-0.000991858 -0.00059077 0.000114321)
(-0.000995672 -0.000597893 0.000100465)
(-0.000992504 -0.000600534 8.47262e-05)
(-0.000989741 -0.000603625 6.78624e-05)
(-0.000987599 -0.000606913 5.02518e-05)
(-0.000983295 -0.000607629 3.12346e-05)
(-0.000982279 -0.000608957 1.06433e-05)
(-0.000228374 -1.39916e-06 0.000130346)
(-0.000216715 -5.42606e-05 -6.68873e-05)
(-0.000262388 -0.000109085 -7.00997e-05)
(-0.00030524 -0.000170757 -5.64687e-05)
(-0.000364569 -0.000243323 -4.24921e-05)
(-0.000436433 -0.000316125 -1.79927e-05)
(-0.000513226 -0.00037899 1.16897e-05)
(-0.000586707 -0.00042741 4.22172e-05)
(-0.000656998 -0.000463858 7.23076e-05)
(-0.00072283 -0.00048963 0.00010078)
(-0.00078172 -0.000505834 0.00012602)
(-0.000831532 -0.00051441 0.000146819)
(-0.000873024 -0.000518731 0.000162994)
(-0.000906896 -0.000521181 0.000174734)
(-0.000932128 -0.000522544 0.000182154)
(-0.000949075 -0.000523468 0.000185779)
(-0.000959843 -0.000524471 0.000186408)
(-0.000970822 -0.000527887 0.000185334)
(-0.00098135 -0.000532529 0.000182255)
(-0.000988131 -0.000537041 0.00017677)
(-0.000997838 -0.000544452 0.000170101)
(-0.000999368 -0.000549785 0.000160837)
(-0.000997283 -0.000553977 0.000150454)
(-0.00101125 -0.000563968 0.000141185)
(-0.00102675 -0.000575132 0.000130222)
(-0.00100707 -0.000573471 0.000114681)
(-0.00100956 -0.000580096 0.000100817)
(-0.00100414 -0.000582078 8.4964e-05)
(-0.000999887 -0.000584737 6.80147e-05)
(-0.000996083 -0.000587517 5.03515e-05)
(-0.000990208 -0.000587788 3.12848e-05)
(-0.000988457 -0.00058885 1.06573e-05)
(-0.000236012 1.66119e-05 0.000157773)
(-0.000220066 -3.85807e-05 -6.17875e-05)
(-0.00024317 -7.9716e-05 -6.49685e-05)
(-0.000276033 -0.000130324 -5.46397e-05)
(-0.000328282 -0.000195237 -4.81763e-05)
(-0.000394927 -0.000265776 -3.0587e-05)
(-0.000471028 -0.000330696 -5.01422e-06)
(-0.000550467 -0.00038538 2.37904e-05)
(-0.000627899 -0.000427561 5.36584e-05)
(-0.00069804 -0.0004558 8.25271e-05)
(-0.000762007 -0.000473944 0.000108875)
(-0.000818443 -0.000484712 0.000131465)
(-0.000867271 -0.000491617 0.000149885)
(-0.000906962 -0.000496061 0.000163844)
(-0.00093632 -0.000499227 0.000173304)
(-0.000954425 -0.00050084 0.000178571)
(-0.000967428 -0.000503178 0.000180989)
(-0.000979849 -0.000507294 0.000181348)
(-0.000990703 -0.000511933 0.000179297)
(-0.000997577 -0.00051645 0.000174614)
(-0.00100555 -0.000523104 0.000168334)
(-0.00100541 -0.000527807 0.000159429)
(-0.00100167 -0.000531338 0.000149309)
(-0.00101299 -0.000539331 0.000140024)
(-0.0010239 -0.000547887 0.000128907)
(-0.00100391 -0.00054745 0.000113808)
(-0.00100475 -0.000553533 0.000100067)
(-0.000998134 -0.000555668 8.43691e-05)
(-0.000993942 -0.000558863 6.76029e-05)
(-0.000990397 -0.000562379 5.01433e-05)
(-0.000984965 -0.000563466 3.12114e-05)
(-0.0009832 -0.00056474 1.06367e-05)
(-0.00023668 3.3644e-05 0.000180651)
(-0.000226868 -2.41745e-05 -5.73855e-05)
(-0.000223081 -5.51582e-05 -5.79191e-05)
(-0.000239822 -9.2282e-05 -4.8408e-05)
(-0.000280469 -0.000145521 -4.8361e-05)
(-0.000343717 -0.000213487 -3.94425e-05)
(-0.000421349 -0.000281697 -1.9815e-05)
(-0.000502034 -0.000339533 5.82309e-06)
(-0.000583091 -0.000385397 3.4159e-05)
(-0.000662058 -0.000419472 6.31359e-05)
(-0.000734587 -0.000441997 9.06705e-05)
(-0.000796865 -0.000454558 0.000114894)
(-0.00084868 -0.000461102 0.000134912)
(-0.000890147 -0.000465083 0.000150477)
(-0.000921308 -0.000468171 0.000161752)
(-0.000943631 -0.000471417 0.000169259)
(-0.000958981 -0.000474992 0.00017353)
(-0.000972573 -0.000479784 0.00017542)
(-0.000982986 -0.000484225 0.000174429)
(-0.000989495 -0.000488695 0.000170635)
(-0.000996485 -0.000495131 0.000165025)
(-0.000996398 -0.000500144 0.000156853)
(-0.000994329 -0.000504909 0.000147556)
(-0.00100459 -0.00051217 0.000138558)
(-0.00101233 -0.00051951 0.000127618)
(-0.000992458 -0.000520461 0.000113043)
(-0.00099101 -0.000525969 9.93597e-05)
(-0.000981712 -0.000527623 8.36905e-05)
(-0.000975408 -0.000530186 6.69713e-05)
(-0.000969498 -0.00053298 4.96519e-05)
(-0.000961862 -0.000533396 3.088e-05)
(-0.000958982 -0.000534266 1.05154e-05)
(-0.000227968 4.67716e-05 0.000192647)
(-0.000233392 -1.03542e-05 -5.27303e-05)
(-0.000201251 -3.5413e-05 -4.93456e-05)
(-0.000205305 -6.13813e-05 -3.96678e-05)
(-0.000234193 -0.000102511 -4.4261e-05)
(-0.000284005 -0.000160856 -4.32681e-05)
(-0.000354036 -0.000225783 -3.09784e-05)
(-0.000438211 -0.000288256 -1.05536e-05)
(-0.000526187 -0.000340318 1.49474e-05)
(-0.000609531 -0.000377832 4.27008e-05)
(-0.000687017 -0.000403161 7.03349e-05)
(-0.000756743 -0.000419129 9.60023e-05)
(-0.000816987 -0.000428832 0.000118383)
(-0.000865569 -0.000434981 0.000136562)
(-0.000901823 -0.000439423 0.000150386)
(-0.000925388 -0.000442376 0.000159814)
(-0.000942782 -0.000446505 0.000166)
(-0.000957095 -0.000451538 0.000169398)
(-0.000967225 -0.000456062 0.000169583)
(-0.000972851 -0.000460542 0.000166692)
(-0.000977636 -0.000466463 0.000161643)
(-0.000975048 -0.00047063 0.00015384)
(-0.000970004 -0.000474285 0.00014468)
(-0.000976026 -0.000479501 0.00013564)
(-0.000978628 -0.000484946 0.000124858)
(-0.000957466 -0.000486342 0.000110802)
(-0.000953126 -0.000491064 9.72834e-05)
(-0.000942059 -0.000492798 8.1916e-05)
(-0.000935014 -0.00049543 6.55349e-05)
(-0.000928768 -0.000498562 4.86711e-05)
(-0.000921289 -0.000499675 3.03207e-05)
(-0.000918252 -0.000500696 1.03259e-05)
(-0.000211608 5.39126e-05 0.000190744)
(-0.000236471 2.40738e-06 -4.75615e-05)
(-0.000185343 -2.14505e-05 -4.15866e-05)
(-0.000165399 -3.60741e-05 -2.79939e-05)
(-0.000176916 -6.19573e-05 -3.36672e-05)
(-0.000218462 -0.000110558 -4.07849e-05)
(-0.000284308 -0.000173066 -3.77294e-05)
(-0.000363589 -0.000234728 -2.40632e-05)
(-0.000451918 -0.000289103 -3.0838e-06)
(-0.00054366 -0.000333065 2.24577e-05)
(-0.000630703 -0.00036439 4.99269e-05)
(-0.000706473 -0.000383467 7.65693e-05)
(-0.000769881 -0.000394233 0.000100484)
(-0.000820142 -0.000400305 0.000120493)
(-0.00085827 -0.000404569 0.000136357)
(-0.000886714 -0.000408964 0.000148299)
(-0.000906215 -0.000413575 0.000156431)
(-0.000921006 -0.000418702 0.000161362)
(-0.000929903 -0.000422966 0.000162666)
(-0.000934031 -0.000427325 0.000160708)
(-0.000937046 -0.000433031 0.000156419)
(-0.000933527 -0.000437207 0.000149302)
(-0.00092916 -0.000441529 0.000140861)
(-0.000933365 -0.000446122 0.000132182)
(-0.000932262 -0.000450651 0.000121847)
(-0.000910167 -0.000452749 0.0001084)
(-0.000902636 -0.000456688 9.50137e-05)
(-0.000888391 -0.000457913 7.98343e-05)
(-0.000878549 -0.000459567 6.36872e-05)
(-0.000869031 -0.000461393 4.7233e-05)
(-0.00085875 -0.000461514 2.93772e-05)
(-0.000854048 -0.000461823 9.98638e-06)
(-0.000191636 5.51078e-05 0.000176032)
(-0.000231898 1.26467e-05 -4.18515e-05)
(-0.000161902 -1.10775e-05 -3.20465e-05)
(-0.000129611 -1.88801e-05 -1.64577e-05)
(-0.000131723 -3.35181e-05 -2.18637e-05)
(-0.000151077 -6.56795e-05 -3.21664e-05)
(-0.000197664 -0.000115068 -3.6651e-05)
(-0.000275145 -0.000176835 -3.25377e-05)
(-0.000367828 -0.00023613 -1.84376e-05)
(-0.000462281 -0.000283456 3.39919e-06)
(-0.000553022 -0.000318062 2.94069e-05)
(-0.000636377 -0.000342009 5.65247e-05)
(-0.000707923 -0.000357359 8.22124e-05)
(-0.000765576 -0.000367049 0.000104694)
(-0.000808977 -0.000373456 0.000123072)
(-0.000837747 -0.000377552 0.000136788)
(-0.00085857 -0.000382345 0.000146749)
(-0.000873243 -0.000387302 0.000153135)
(-0.000881126 -0.000391503 0.000155641)
(-0.000883412 -0.000395697 0.000154599)
(-0.000883386 -0.000400715 0.000150865)
(-0.000876269 -0.00040389 0.000143981)
(-0.000867389 -0.000406404 0.000135429)
(-0.000865706 -0.00040865 0.000126625)
(-0.000858529 -0.000411207 0.000116633)
(-0.000834043 -0.000412754 0.000103803)
(-0.000822292 -0.000415241 9.06422e-05)
(-0.000805838 -0.000416105 7.59963e-05)
(-0.000794548 -0.000417211 6.04809e-05)
(-0.000784388 -0.000418834 4.49134e-05)
(-0.00077416 -0.000419274 2.79738e-05)
(-0.000769363 -0.000419637 9.50558e-06)
(-0.000171355 5.16455e-05 0.000152126)
(-0.000222783 1.95096e-05 -3.64884e-05)
(-0.000151778 -5.12915e-06 -2.54886e-05)
(-8.78853e-05 -7.52914e-06 -5.76066e-06)
(-6.35566e-05 -9.30249e-06 -6.46952e-06)
(-8.42742e-05 -2.8678e-05 -1.81559e-05)
(-0.000123685 -6.85103e-05 -3.0816e-05)
(-0.000182834 -0.00011971 -3.52624e-05)
(-0.000268328 -0.000176746 -2.91242e-05)
(-0.000369204 -0.000230206 -1.26353e-05)
(-0.000469475 -0.000272099 1.13197e-05)
(-0.000557107 -0.000299806 3.82661e-05)
(-0.000630267 -0.000317312 6.46091e-05)
(-0.000687559 -0.000327938 8.80176e-05)
(-0.000731057 -0.000335155 0.000107585)
(-0.000764176 -0.000341605 0.000123269)
(-0.000786154 -0.000347031 0.000134757)
(-0.000800353 -0.000352001 0.000142405)
(-0.000806035 -0.000355808 0.000145868)
(-0.00080563 -0.000359522 0.00014561)
(-0.000802568 -0.000363818 0.000142452)
(-0.00079328 -0.000366551 0.00013603)
(-0.000784454 -0.000369175 0.00012807)
(-0.000781056 -0.000371022 0.000119805)
(-0.000770273 -0.00037261 0.000110561)
(-0.00074412 -0.000373593 9.84625e-05)
(-0.000729094 -0.000374898 8.56168e-05)
(-0.000709513 -0.000374585 7.14321e-05)
(-0.000695261 -0.000374116 5.65157e-05)
(-0.000681278 -0.000373586 4.18173e-05)
(-0.000667794 -0.000372326 2.59522e-05)
(-0.000660911 -0.000371522 8.78539e-06)
(-0.000154076 4.59582e-05 0.000124943)
(-0.000207907 2.26295e-05 -3.16644e-05)
(-0.000119218 -1.38498e-06 -1.63849e-05)
(-7.94031e-05 -3.26803e-06 5.17349e-07)
(-4.83212e-05 -1.66314e-06 1.06982e-06)
(-3.22745e-05 -6.25467e-06 -4.13653e-06)
(-3.10189e-05 -1.63181e-05 -1.04767e-05)
(-8.82351e-05 -6.18677e-05 -2.92714e-05)
(-0.000170487 -0.000118971 -3.44011e-05)
(-0.000268053 -0.00017328 -2.36584e-05)
(-0.0003672 -0.00021752 -2.58196e-06)
(-0.000460747 -0.000251448 2.32801e-05)
(-0.000539622 -0.000274588 4.96338e-05)
(-0.000602638 -0.000290182 7.3786e-05)
(-0.00064979 -0.000300657 9.43105e-05)
(-0.000680596 -0.000307089 0.00011036)
(-0.000702089 -0.000312912 0.000122687)
(-0.000714773 -0.000317792 0.000131162)
(-0.000718658 -0.000321568 0.000135515)
(-0.000715729 -0.000324934 0.000135971)
(-0.000708837 -0.000328157 0.000133123)
(-0.000695353 -0.000329435 0.000126632)
(-0.000680976 -0.000329374 0.000118206)
(-0.000670465 -0.000328063 0.00010967)
(-0.000652862 -0.000326653 0.000100838)
(-0.000623615 -0.000325665 8.94807e-05)
(-0.000603578 -0.000324315 7.70077e-05)
(-0.000581967 -0.000322644 6.3801e-05)
(-0.000566063 -0.00032075 5.01063e-05)
(-0.000551876 -0.000319495 3.70547e-05)
(-0.000539164 -0.000318315 2.30175e-05)
(-0.000532669 -0.000317528 7.782e-06)
(-0.00013672 3.92367e-05 9.63019e-05)
(-0.000192884 2.33278e-05 -2.84745e-05)
(-0.000113738 5.20227e-07 -1.24737e-05)
(-7.18001e-05 -1.20826e-07 6.00727e-06)
(-3.57938e-05 3.93775e-06 7.9706e-06)
(-1.21626e-05 3.34862e-06 3.86635e-06)
(-2.57691e-06 -8.96005e-07 -3.90171e-06)
(-1.65728e-05 -1.59154e-05 -1.58338e-05)
(-6.95131e-05 -5.33466e-05 -2.7412e-05)
(-0.000166107 -0.000113063 -2.61675e-05)
(-0.000270311 -0.000165662 -8.61533e-06)
(-0.000360394 -0.000202392 1.4961e-05)
(-0.000435498 -0.000227963 3.90938e-05)
(-0.00049328 -0.000244643 6.09123e-05)
(-0.000537001 -0.00025625 7.96565e-05)
(-0.000570834 -0.00026587 9.54978e-05)
(-0.000591872 -0.000272582 0.000107703)
(-0.000602901 -0.00027756 0.000116362)
(-0.00060353 -0.000280677 0.000120949)
(-0.000596777 -0.000282966 0.00012164)
(-0.000585504 -0.000284616 0.000118816)
(-0.000568849 -0.000284506 0.000112291)
(-0.000554931 -0.000284174 0.000104403)
(-0.000544344 -0.000282649 9.67691e-05)
(-0.000525325 -0.000280217 8.913e-05)
(-0.000494907 -0.000277705 7.87597e-05)
(-0.000473336 -0.000274919 6.70715e-05)
(-0.000449895 -0.000271345 5.48902e-05)
(-0.000432241 -0.0002675 4.25443e-05)
(-0.000414779 -0.000263278 3.1119e-05)
(-0.000398916 -0.000259421 1.91322e-05)
(-0.000390287 -0.000256925 6.41076e-06)
(-0.000114597 3.28469e-05 6.99562e-05)
(-0.000174814 2.38506e-05 -2.58977e-05)
(-0.000108967 2.91445e-06 -1.04066e-05)
(-6.62791e-05 3.73972e-06 9.44822e-06)
(-2.67537e-05 1.10683e-05 1.18454e-05)
(3.01752e-06 1.3381e-05 5.27479e-06)
(1.65778e-05 1.27668e-05 -8.72112e-07)
(1.02027e-05 6.32301e-06 -6.72596e-06)
(-1.41176e-05 -1.09648e-05 -1.25003e-05)
(-7.96824e-05 -5.55277e-05 -1.51553e-05)
(-0.000162952 -0.000104747 -2.40819e-06)
(-0.000250582 -0.00014848 1.64414e-05)
(-0.000324213 -0.000179714 3.5601e-05)
(-0.000384021 -0.000202164 5.33473e-05)
(-0.000428716 -0.000217471 6.89645e-05)
(-0.000456564 -0.000226266 8.17372e-05)
(-0.000474971 -0.000232974 9.24272e-05)
(-0.000483041 -0.000237441 0.000100328)
(-0.000481501 -0.000240232 0.000104902)
(-0.000472249 -0.000241836 0.000105752)
(-0.000457342 -0.000241982 0.000102726)
(-0.000437529 -0.000240042 9.57431e-05)
(-0.000418357 -0.000236005 8.7029e-05)
(-0.000400804 -0.000229999 7.89513e-05)
(-0.000375123 -0.00022266 7.14815e-05)
(-0.000342082 -0.000216566 6.19549e-05)
(-0.000316147 -0.000209389 5.104e-05)
(-0.000292028 -0.00020322 4.06846e-05)
(-0.000273511 -0.000197001 3.07017e-05)
(-0.000257629 -0.000191859 2.21714e-05)
(-0.000244645 -0.000188363 1.35709e-05)
(-0.000237592 -0.000186061 4.53068e-06)
(-8.54843e-05 2.59372e-05 4.76282e-05)
(-0.000156005 2.42572e-05 -2.3324e-05)
(-0.000103846 5.11269e-06 -9.42011e-06)
(-6.25496e-05 6.49181e-06 1.02547e-05)
(-2.06788e-05 1.29095e-05 8.10827e-06)
(1.071e-05 1.12404e-05 1.71679e-06)
(1.59223e-05 1.10229e-05 8.28731e-06)
(1.03859e-05 9.7893e-06 1.0078e-05)
(-1.34563e-06 1.20928e-06 8.83981e-06)
(-2.61279e-05 -1.81202e-05 8.80988e-06)
(-8.70423e-05 -6.18124e-05 1.88084e-05)
(-0.000146692 -9.85771e-05 2.89827e-05)
(-0.000204117 -0.000128572 3.85816e-05)
(-0.000250753 -0.000149369 4.71054e-05)
(-0.000287942 -0.000164227 5.55355e-05)
(-0.000318988 -0.000176656 6.45655e-05)
(-0.000336447 -0.000183939 7.23789e-05)
(-0.000342749 -0.000188065 7.85733e-05)
(-0.00033762 -0.000189218 8.19555e-05)
(-0.000323951 -0.000188409 8.18943e-05)
(-0.000304242 -0.00018546 7.78706e-05)
(-0.000281381 -0.000180528 7.01955e-05)
(-0.000265448 -0.000176379 6.25302e-05)
(-0.000251753 -0.000170758 5.61831e-05)
(-0.000230332 -0.000163311 5.05645e-05)
(-0.000199476 -0.000155492 4.24711e-05)
(-0.000176945 -0.000147591 3.35242e-05)
(-0.000154374 -0.000139329 2.52715e-05)
(-0.00013765 -0.000131577 1.80771e-05)
(-0.000121178 -0.00012287 1.21728e-05)
(-0.000105714 -0.000114842 6.92633e-06)
(-9.82593e-05 -0.000110388 2.238e-06)
(-5.37625e-05 1.69825e-05 2.81456e-05)
(-0.00013226 2.21201e-05 -2.01836e-05)
(-9.80908e-05 6.10737e-06 -7.62114e-06)
(-6.02618e-05 7.19389e-06 1.17101e-05)
(-1.30112e-05 7.76355e-06 1.02984e-05)
(4.85125e-06 8.39449e-06 1.38528e-05)
(1.18221e-05 7.9399e-06 2.23983e-05)
(1.66797e-05 5.42322e-06 3.02857e-05)
(1.40776e-05 -2.83085e-07 3.36134e-05)
(5.64145e-06 -8.61785e-06 3.4035e-05)
(-1.09562e-05 -2.36159e-05 3.68042e-05)
(-4.10991e-05 -4.88977e-05 4.05106e-05)
(-8.53754e-05 -7.95773e-05 4.38443e-05)
(-0.000131572 -0.0001047 4.4801e-05)
(-0.000169833 -0.000122404 4.62211e-05)
(-0.000192003 -0.000130384 4.77367e-05)
(-0.000205857 -0.00013582 5.11042e-05)
(-0.000208979 -0.000138016 5.43325e-05)
(-0.00020278 -0.00013803 5.63626e-05)
(-0.000188578 -0.000136058 5.56966e-05)
(-0.000168244 -0.000131301 5.10486e-05)
(-0.000146641 -0.00012479 4.30876e-05)
(-0.00012721 -0.000114975 3.449e-05)
(-0.000110213 -0.00010297 2.78749e-05)
(-8.49252e-05 -8.66082e-05 2.13747e-05)