/*--------------------------------*- C++ -*----------------------------------*\
  =========                 |
  \\      /  F ield         | OpenFOAM: The Open Source CFD Toolbox
   \\    /   O peration     | Website:  https://openfoam.org
    \\  /    A nd           | Version:  6
     \\/     M anipulation  |
\*---------------------------------------------------------------------------*/
FoamFile
{
    version     2.0;
    format      ascii;
    class       volScalarField;
    location    "22";
    object      yPlus;
}
// * * * * * * * * * * * * * * * * * * * * * * * * * * * * * * * * * * * * * //

dimensions      [0 0 0 0 0 0 0];

internalField   uniform 0;

boundaryField
{
    inlet
    {
        type            calculated;
        value           uniform 0;
    }
    outlet
    {
        type            calculated;
        value           uniform 0;
    }
    roughCylinder
    {
        type            calculated;
        value           nonuniform List<scalar> 
5120
(
6.51628
22.2899
35.2249
39.0956
42.3247
43.731
44.6607
44.9061
45.0228
45.0457
45.1409
45.0539
45.1817
45.4127
45.5834
45.4651
44.8437
43.8958
44.0443
42.8743
42.4671
42.6268
41.7171
41.7621
43.9904
42.2621
41.7429
41.6575
40.9844
40.4783
40.0285
39.8706
17.1566
21.9464
34.7511
38.8159
42.1207
43.6415
44.5752
44.846
45.0963
45.1968
45.2092
45.1071
45.0957
45.3075
45.4594
45.3541
44.7664
43.9329
44.0817
43.0136
42.8196
43.0569
42.2634
42.2788
44.505
42.7612
42.303
42.153
41.479
40.9599
40.504
40.3404
16.9581
21.8727
34.4088
38.6774
41.9535
43.4883
44.4812
44.814
45.0179
45.0927
45.2273
45.1936
45.3371
45.5634
45.722
45.5889
45.0119
44.2884
44.399
43.3854
43.274
43.4173
42.601
42.5664
44.7212
42.9684
42.6502
42.5803
42.0286
41.6044
41.2061
41.0753
7.85678
21.2323
33.7907
38.2978
41.6974
43.4072
44.4464
44.808
45.1547
45.3595
45.4323
45.3889
45.3931
45.572
45.7035
45.5867
45.0535
44.4118
44.4945
43.6451
43.752
43.8849
43.1429
43.2028
45.291
43.545
43.3033
43.1617
42.6057
42.1722
41.7624
41.6233
16.4944
20.9407
33.2868
38.0715
41.5117
43.2469
44.3674
44.8597
45.1985
45.3432
45.5302
45.5732
45.7406
45.9632
46.1016
45.9362
45.4069
44.8481
44.9002
44.1634
44.3309
44.3083
43.5184
43.6367
45.5672
43.8447
43.7222
43.6368
43.2016
42.8657
42.5112
42.4049
14.9521
19.8712
32.4353
37.514
41.1391
43.1238
44.3542
44.884
45.355
45.6777
45.8453
45.8861
45.9365
46.0998
46.1893
46.0314
45.5305
45.0369
45.0779
44.5139
44.8261
44.7803
44.0802
44.3575
46.1674
44.4949
44.4393
44.2815
43.8384
43.4928
43.124
43.0084
10.9521
19.5261
31.6681
37.0909
40.8545
42.9043
44.235
44.9563
45.469
45.7138
45.9779
46.1249
46.3489
46.5796
46.6789
46.4461
45.9444
45.528
45.5637
45.1134
45.4173
45.2412
44.5134
44.872
46.4747
44.8652
44.8972
44.7815
44.4534
44.2084
43.8968
43.8158
12.4653
18.4762
30.5204
36.2557
40.2776
42.6708
44.1921
44.9636
45.5899
46.0523
46.3482
46.496
46.6127
46.7723
46.807
46.5922
46.1182
45.7683
45.8056
45.4973
45.8605
45.7068
45.1115
45.6222
47.0889
45.5746
45.6521
45.4701
45.1317
44.8727
44.5445
44.4542
13.9823
17.5774
29.3628
35.501
39.7739
42.2934
43.9434
44.9705
45.7018
46.0849
46.4487
46.7125
47.0119
47.2556
47.3174
47.029
46.5733
46.2999
46.3467
46.1258
46.4298
46.2017
45.605
46.1599
47.4088
45.9885
46.1226
45.9745
45.7425
45.5843
45.3197
45.2654
17.4155
17.0123
27.8323
34.2238
38.8334
41.8265
43.786
44.8866
45.7144
46.35
46.8004
47.067
47.2561
47.4188
47.4155
47.1815
46.7758
46.5711
46.6214
46.4979
46.8137
46.6551
46.2286
46.89
48.0169
46.7243
46.8816
46.6767
46.4321
46.2543
45.9671
45.9031
20.089
16.4014
26.2514
32.9808
37.9433
41.1315
43.2645
44.7122
45.736
46.307
46.7913
47.1781
47.5639
47.8382
47.8969
47.6115
47.253
47.1155
47.1806
47.1124
47.3613
47.1663
46.7445
47.3875
48.3138
47.1281
47.317
47.1432
46.9966
46.9183
46.7068
46.6786
23.4274
16.2825
24.3361
31.075
36.3776
40.2253
42.8578
44.4306
45.5482
46.415
47.0509
47.4479
47.7179
47.9039
47.9104
47.7323
47.4497
47.3767
47.4406
47.4275
47.6827
47.5786
47.3474
48.0495
48.8824
47.842
48.0377
47.8186
47.6563
47.5508
47.3035
47.2631
26.5586
16.6525
22.3844
29.1946
34.8852
38.9527
41.8171
43.8987
45.3637
46.2109
46.8561
47.3819
47.8712
48.2138
48.3311
48.1268
47.9151
47.8966
47.9771
47.9943
48.2028
48.0719
47.8224
48.4413
49.0963
48.1587
48.3621
48.1776
48.1042
48.0983
47.943
47.9397
29.4027
17.7005
20.456
26.496
32.2886
37.2513
40.9318
43.2244
44.8158
46.0516
46.9555
47.516
47.8862
48.1194
48.1927
48.1514
48.0378
48.0805
48.1531
48.1943
48.4204
48.3806
48.3247
48.9762
49.5674
48.7809
48.9857
48.773
48.6822
48.6425
48.4361
48.4125
31.1185
19.1174
18.4566
23.8984
29.9832
34.9397
38.8526
41.9958
44.2171
45.5312
46.4617
47.2132
47.8487
48.3096
48.5394
48.4619
48.4233
48.5109
48.6051
48.6662
48.8685
48.7949
48.6856
49.2108
49.651
48.952
49.1468
48.9784
48.9666
49.0309
48.9327
48.9559
31.338
20.5653
17.2425
20.2097
25.5455
31.7711
37.0717
40.4932
42.9353
44.8686
46.2672
47.1163
47.666
48.0047
48.1958
48.3405
48.4085
48.5541
48.6423
48.7188
48.954
48.9637
49.0433
49.6063
50.0041
49.4588
49.6545
49.4744
49.4365
49.4384
49.2744
49.2534
30.214
21.4314
15.2271
16.6771
22.2157
27.3976
32.5235
37.7373
41.4674
43.6784
45.1843
46.4061
47.3499
48.0368
48.4564
48.5449
48.689
48.8752
48.9962
49.0974
49.3187
49.2801
49.2445
49.5989
49.8168
49.3533
49.4932
49.3752
49.4055
49.527
49.4986
49.5458
28.0972
21.8243
14.7815
10.3811
11.774
20.2888
28.9858
34.119
38.3607
41.9075
44.3957
45.8218
46.7498
47.3208
47.7173
48.1321
48.4092
48.6627
48.7776
48.8829
49.1194
49.1492
49.3153
49.7432
49.9483
49.6463
49.8045
49.6927
49.68
49.679
49.5331
49.4887
25.7453
21.3349
11.5101
11.3327
10.8732
5.77209
11.3241
26.5402
34.7023
39.1006
41.9566
44.2753
45.8798
47.0355
47.7993
48.1046
48.4573
48.7524
48.9314
49.089
49.3101
49.2731
49.2155
49.264
49.1547
48.8848
48.8624
48.8023
48.8039
48.9446
49.0116
49.0769
23.0087
20.5961
11.0493
11.0788
10.8533
5.15363
11.4317
15.5212
23.9761
34.2356
39.9079
42.6068
44.3433
45.3697
46.1238
46.964
47.5082
47.9054
48.0738
48.1999
48.3522
48.3017
48.4843
48.6803
48.6469
48.576
48.6323
48.6049
48.5391
48.4181
48.2135
48.0634
20.0251
19.4143
8.98099
11.572
8.7147
7.78966
6.48455
5.59919
13.1362
26.311
33.6479
39.1004
42.2053
44.372
45.7729
46.3317
46.9282
47.3477
47.6369
47.8732
48.0012
47.8767
47.5927
46.9932
46.1867
45.9307
45.3901
45.2613
44.9539
44.974
45.1898
45.267
16.5264
18.446
4.26173
9.13032
9.68555
9.03725
12.53
11.8289
13.487
16.5737
30.1701
34.9292
38.27
40.077
41.4543
43.1778
44.162
44.7862
44.9975
45.014
44.7509
44.2577
44.3351
44.0597
43.6456
43.7246
43.4986
43.4548
43.0696
42.2847
41.2448
40.7292
11.6011
16.7564
10.4824
12.3256
9.93129
9.77361
9.11404
12.6794
12.4359
12.9819
17.0598
23.8274
31.4783
36.8119
40.1123
40.8406
41.732
42.2465
42.6697
42.9424
42.6604
42.1793
40.4654
37.7118
33.6533
31.279
26.0217
22.15
14.6828
8.5682
20.4171
21.8089
10.0476
15.3978
7.10131
9.19709
9.23434
13.5654
13.8092
14.4358
9.91481
14.1276
8.52608
9.70837
6.95578
13.9148
16.8812
26.6787
30.1734
31.7194
31.4098
29.3209
24.5634
16.264
17.8848
13.9737
14.0526
19.8696
9.9251
14.7515
17.9377
11.957
17.9375
11.5417
2.34013
13.6081
8.95918
8.64994
13.3703
18.6706
21.9061
23.1436
21.6081
16.8323
11.4417
8.38674
14.1247
14.6473
9.35639
4.37279
13.4243
14.5674
10.3981
9.50357
16.9609
11.4759
6.10596
16.7192
17.6955
13.9826
8.73877
14.7929
17.8982
9.40233
10.1786
3.0928
6.99286
11.6358
11.2569
5.39729
11.9074
21.2385
26.4246
28.5796
29.1675
29.1053
26.824
18.5918
9.08561
10.0303
5.84663
13.7653
11.7992
16.4977
12.8656
8.38915
16.6552
6.17245
17.3497
2.94794
6.45533
13.3789
18.1417
21.2477
23.0748
24.1344
24.9907
26.4374
9.84848
14.1738
12.7334
10.6868
11.4541
19.0928
25.727
29.4865
31.1752
31.2945
29.2777
25.7734
24.1901
23.5195
22.0395
19.3709
15.1858
11.9705
11.5468
13.13
17.5958
20.3965
22.4991
24.235
25.8556
27.2163
27.5009
27.5801
27.4061
27.4596
27.2974
26.919
9.07898
16.1874
17.1725
16.4102
15.0877
18.2426
23.7036
28.2617
31.0718
32.0336
30.6085
26.2037
22.758
23.9872
24.6316
25.6972
25.9117
25.9615
25.8237
26.0077
25.9783
26.2427
26.8425
27.3876
27.8761
27.6201
28.0901
28.2639
27.9755
27.6904
27.284
27.0921
7.04034
16.0866
19.1026
20.2861
20.0126
20.7749
23.6247
27.0773
29.518
29.8456
26.842
20.6021
18.6344
21.3853
22.9029
25.2129
25.6744
25.6156
25.6612
25.7597
26.0465
26.384
26.7581
27.1149
27.3157
26.599
25.6825
24.9795
23.9901
22.9835
21.9791
21.3974
5.06829
14.44
18.5001
21.0779
22.2949
22.9991
24.2273
25.8416
26.6852
25.4272
20.5232
11.5502
4.80694
8.33316
6.98502
18.1395
21.9553
23.627
24.11
23.9064
23.2093
22.3748
21.8636
21.9244
22.0975
21.4975
20.9885
20.9707
20.8393
20.6132
20.4067
20.2818
3.53928
11.4676
15.6862
19.1654
21.4829
22.7829
23.5362
23.8967
23.2828
20.9543
14.867
3.65268
10.106
13.9174
15.7057
13.0641
14.4695
16.5526
17.7637
18.2366
18.4636
18.8323
19.4932
20.2472
20.9589
21.3116
21.3941
21.3359
21.1144
20.717
20.3093
20.0541
3.19065
9.98608
11.5591
14.9487
18.0297
20.0168
20.9117
20.7272
19.2276
15.5464
8.43019
9.14792
11.3712
11.1715
12.1005
16.6023
18.1314
18.7325
19.1588
19.5142
19.7621
19.8494
19.9631
20.2148
20.4415
20.2782
20.0071
19.9818
19.9166
19.7229
19.5021
19.3657
1.59719
5.17602
6.85884
9.76501
11.4219
13.2446
14.1756
13.5311
11.3564
4.45564
9.46428
7.71875
10.9392
12.1782
14.1372
14.3175
15.7232
17.1051
17.9363
18.2991
18.418
18.5769
18.9054
19.3437
19.7214
19.8754
19.912
19.9514
19.9061
19.7555
19.5767
19.4543
1.30533
4.49878
2.70647
7.93474
3.8687
5.79293
6.40201
5.51358
4.33608
6.58014
10.571
11.5328
11.6038
12.7152
13.465
15.2887
16.4475
17.2385
17.827
18.2485
18.5359
18.7683
19.0499
19.4285
19.8234
20.1125
20.3088
20.4697
20.51
20.4308
20.2988
20.2004
2.32498
7.82871
9.35357
10.4755
11.3215
11.622
11.6351
11.5584
11.6953
11.6464
11.4766
11.5385
12.6483
13.6871
14.9558
15.699
16.5064
17.2832
17.902
18.381
18.8102
19.2481
19.7176
20.197
20.6334
20.9754
21.1991
21.3573
21.3829
21.2954
21.1561
21.0487
2.05989
7.2587
8.74896
10.1313
11.4483
12.0483
12.5867
12.7607
12.3736
11.8737
12.0292
12.9894
13.8918
14.7636
15.5002
16.4652
17.3686
18.1242
18.752
19.2818
19.753
20.2059
20.6728
21.1657
21.6354
22.0275
22.3114
22.5018
22.5415
22.4566
22.3107
22.1947
1.90306
6.98706
8.40431
9.68059
10.9809
11.7268
12.1354
12.1977
12.0863
12.396
13.2252
14.0952
14.9475
15.7783
16.6916
17.5074
18.2729
18.9921
19.6433
20.2347
20.7989
21.3613
21.9255
22.48
22.9897
23.4157
23.7253
23.9293
23.9707
23.8779
23.7152
23.5853
1.96287
7.3224
8.67408
9.65098
10.6394
11.5134
11.7907
11.9604
12.343
13.1674
14.2242
15.2663
16.1388
16.9682
17.7688
18.5985
19.4139
20.1745
20.8757
21.5312
22.1646
22.7965
23.4318
24.0527
24.6201
25.096
25.4409
25.658
25.6989
25.5937
25.4088
25.2622
2.03556
7.60469
9.12875
10.0233
10.6938
11.2517
11.5303
12.036
13.1414
14.4363
15.5976
16.5359
17.3951
18.2464
19.1029
19.9396
20.751
21.5374
22.2969
23.0348
23.7625
24.4872
25.2055
25.8951
26.5188
27.0389
27.415
27.644
27.6833
27.564
27.3554
27.1918
2.17536
8.12526
9.62989
10.4928
11.1106
11.5642
12.2753
13.5402
14.7872
15.8784
16.8601
17.813
18.7405
19.6372
20.5161
21.3888
22.253
23.1012
23.9325
24.7521
25.5669
26.3781
27.1779
27.9397
28.6247
29.1936
29.6037
29.8459
29.8849
29.7519
29.5199
29.3399
2.39014
2.52773
2.78847
2.96772
3.14874
3.30285
3.45369
3.57597
3.69874
3.86919
4.04228
4.19295
4.3983
4.55704
4.60308
4.66261
4.74432
4.85987
4.89541
4.90223
4.86213
4.81082
4.77939
4.75492
4.7261
4.66428
4.59721
4.5304
4.43546
4.30159
4.18567
4.03159
3.91763
3.76358
3.66796
3.56362
3.44906
3.22921
2.97568
2.62029
8.5585
8.76578
9.22604
9.58876
10.0049
10.352
10.6557
10.8597
10.9923
11.1021
11.117
11.0261
10.949
10.8683
10.8325
10.8795
10.9862
11.1564
11.3893
11.5637
11.5238
11.6804
11.7377
11.6695
11.6753
11.6195
11.5808
11.5797
11.7039
11.7661
11.6462
11.5457
11.5536
11.408
11.4088
11.5447
11.4752
11.0626
10.5318
9.64431
10.7543
10.9695
11.2378
11.3709
11.5464
11.5046
11.5128
11.7087
11.9738
12.1878
12.3426
12.4411
12.5353
12.6169
12.7138
12.8309
12.9523
13.0773
13.226
13.3754
13.4932
13.5875
13.6526
13.6852
13.6925
13.664
13.6072
13.5259
13.4128
13.2585
13.077
12.8578
12.6227
12.3334
12.0618
11.7407
11.6221
11.484
11.5699
11.1527
11.437
11.4797
11.6132
11.5803
11.9408
12.2709
12.6386
12.9892
13.2975
13.556
13.7898
14.0102
14.2296
14.4351
14.6292
14.8131
14.9817
15.1328
15.2652
15.3769
15.4683
15.5406
15.5868
15.6039
15.583
15.5228
15.4234
15.2839
15.1013
14.8753
14.6018
14.2861
13.9242
13.5079
13.071
12.5918
12.1768
11.7503
11.5748
11.5523
11.5025
11.8337
12.2038
12.6599
13.1729
13.6462
14.0777
14.448
14.7859
15.1007
15.4088
15.696
15.9733
16.2324
16.4734
16.6934
16.89
17.0602
17.2013
17.3115
17.3886
17.432
17.4489
17.4375
17.391
17.3053
17.1749
16.9996
16.7772
16.5071
16.1849
15.8134
15.3883
14.9044
14.3822
13.806
13.2166
12.6065
12.0097
11.7579
12.3797
12.9498
13.5156
14.1085
14.6486
15.129
15.5572
15.9427
16.319
16.6659
17.0057
17.3237
17.6293
17.915
18.1802
18.4207
18.6332
18.8143
18.9608
19.0704
19.1414
19.1739
19.1687
19.1253
19.0478
18.9325
18.7758
18.5729
18.3215
18.0209
17.6683
17.2639
16.8052
16.2897
15.7274
15.1103
14.4502
13.7709
12.9785
12.4152
13.6872
14.423
14.9895
15.6032
16.101
16.5657
16.9925
17.3887
17.7749
18.1344
18.4887
18.8239
19.1475
19.4519
19.7348
19.9909
20.2157
20.405
20.555
20.6634
20.7287
20.7513
20.732
20.6706
20.5666
20.4206
20.2348
20.0053
19.7292
19.4038
19.027
18.5986
18.1172
17.5827
16.9987
16.3681
15.6811
14.9969
14.1296
13.5481
15.1436
15.9124
16.4137
17.0051
17.4558
17.9144
18.3306
18.7251
19.1124
19.4798
19.8446
20.1946
20.5341
20.8557
21.1549
21.4254
21.6615
21.8582
22.0114
22.1186
22.1789
22.1928
22.1612
22.0842
21.9619
21.7946
21.5825
21.3267
21.0268
20.6795
20.2826
19.8348
19.3354
18.7863
18.1882
17.5501
16.8575
16.1678
15.3368
14.677
16.6044
17.2567
17.7304
18.2801
18.7068
19.1514
19.5549
19.9476
20.3359
20.7122
21.0876
21.4526
21.8079
22.1458
22.4607
22.7448
22.9915
23.195
23.3511
23.4575
23.5137
23.5207
23.479
23.389
23.2514
23.067
22.8366
22.5607
22.2391
21.8722
21.4579
20.9943
20.4806
19.9196
19.3111
18.6666
17.9748
17.2776
16.5013
15.7883
17.9464
18.4415
18.9404
19.436
19.8535
20.2795
20.6765
21.0695
21.461
21.8472
22.234
22.6136
22.9841
23.3376
23.667
23.9637
24.22
24.4293
24.5875
24.6932
24.7464
24.7483
24.6994
24.5999
24.4506
24.2529
24.0081
23.7172
23.3808
22.9987
22.57
22.094
21.5689
20.9987
20.3819
19.7327
19.0389
18.3428
17.5876
16.8861
19.108
19.5201
20.0429
20.4858
20.904
21.313
21.7096
22.1044
22.5015
22.8981
23.2964
23.6901
24.075
24.4431
24.7859
25.094
25.3583
25.5714
25.7299
25.8344
25.8857
25.8853
25.8327
25.7276
25.5708
25.364
25.109
24.8074
24.4601
24.0679
23.6297
23.1454
22.6123
22.0352
21.4115
20.759
20.0593
19.3704
18.6041
17.954
20.1244
20.5131
21.0373
21.4468
21.8677
22.2662
22.6662
23.0649
23.4696
23.8769
24.2871
24.6943
25.093
25.4747
25.8301
26.1481
26.4181
26.6312
26.7865
26.8888
26.9401
26.9412
26.8894
26.7834
26.6239
26.4126
26.1517
25.8433
25.4891
25.09
24.6459
24.1566
23.6189
23.0374
22.4085
21.7523
21.0464
20.3593
19.5816
18.9528
21.0349
21.4175
21.9369
22.3326
22.7564
23.1527
23.5587
23.9642
24.3785
24.7974
25.2201
25.6408
26.0531
26.448
26.8151
27.1417
27.4136
27.6212
27.7691
27.8666
27.921
27.9292
27.884
27.7826
27.6252
27.4139
27.1512
26.8398
26.482
26.0791
25.6313
25.1388
24.5985
24.0137
23.3802
22.7193
22.0066
21.3154
20.5297
19.8995
21.8621
22.2382
22.7609
23.1556
23.5853
23.987
24.4022
24.8182
25.2443
25.6762
26.1125
26.5472
26.9733
27.3815
27.7601
28.0939
28.3645
28.5646
28.704
28.796
28.8512
28.8705
28.8373
28.7455
28.5948
28.3874
28.1264
27.8152
27.4562
27.0515
26.6016
26.107
25.5645
24.9764
24.3379
23.671
22.9497
22.251
21.4545
20.821
22.619
22.9941
23.5287
23.9327
24.373
24.7867
25.2148
25.6447
26.0852
26.532
26.9833
27.433
27.8737
28.2957
28.6859
29.0266
29.2954
29.4885
29.6204
29.7078
29.7637
29.793
29.7748
29.6966
29.556
29.3554
29.0986
28.7895
28.431
28.0257
27.5743
27.0775
26.5322
25.9398
25.2949
24.6197
23.8876
23.1783
22.3675
21.7308
23.32
23.7135
24.2615
24.6849
25.1397
25.571
26.0155
26.4627
26.9201
27.3838
27.8517
28.3174
28.7736
29.2101
29.6127
29.9612
30.2303
30.4187
30.545
30.6291
30.686
30.7231
30.7219
30.6595
30.531
30.3392
30.0881
29.7821
29.4247
29.0189
28.5655
28.0657
27.5159
26.9174
26.264
25.5778
24.8317
24.1079
23.2793
22.6341
23.9966
24.4191
24.9842
25.4323
25.9062
26.3584
26.8225
27.2894
27.7657
28.2479
28.7334
29.2165
29.689
30.1406
30.5564
30.9146
31.1876
31.3743
31.4975
31.58
31.6387
31.6825
31.6981
31.6519
31.5369
31.3549
31.1103
30.8077
30.4514
30.0443
29.5878
29.0833
28.5269
27.9199
27.255
26.5541
25.7903
25.0465
24.1954
23.5331
24.6829
25.1281
25.7179
26.1914
26.6882
27.163
27.6488
28.1368
28.6333
29.1349
29.6391
30.1396
30.6289
31.0962
31.526
31.8958
32.1768
32.3653
32.488
32.5701
32.631
32.6813
32.712
32.6822
32.5814
32.41
32.1722
31.8731
31.5173
31.1079
30.647
30.1354
29.5702
28.952
28.2726
27.553
26.767
25.9975
25.117
24.4288
25.3906
25.8545
26.4727
26.9719
27.4934
27.9918
28.5
29.0096
29.5266
30.0477
30.5702
31.0883
31.5942
32.0771
32.5214
32.9043
33.197
33.3909
33.515
33.5979
33.6612
33.7175
33.7616
33.7481
33.6624
33.5022
33.2716
32.976
32.6201
32.2077
31.7408
31.2205
30.6442
30.0125
29.3154
28.5738
27.7614
26.9609
26.0442
25.3216
26.1166
26.6004
27.2479
27.7733
28.3198
28.8419
29.3723
29.9029
30.4398
30.9794
31.5196
32.0543
32.576
33.0738
33.5325
33.9296
34.2371
34.4399
34.5675
34.652
34.7179
34.7793
34.8348
34.8378
34.7675
34.6194
34.3965
34.1045
33.7484
33.3325
32.8587
32.3287
31.7401
31.093
30.3767
29.6109
28.7694
27.9347
26.9767
26.2133
26.8482
27.3542
28.0314
28.5832
29.1544
29.6996
30.2512
30.8016
31.3568
31.9136
32.4697
33.0194
33.5553
34.0669
34.5395
34.9515
35.2762
35.4926
35.6263
35.7132
35.7812
35.8474
35.9123
35.9309
35.8762
35.7402
35.5258
35.238
34.8823
34.4631
33.9827
33.443
32.8418
32.1792
31.4435
30.6537
29.7824
28.9126
27.9115
27.1048
27.5639
28.094
28.801
29.3789
29.9741
30.5412
31.1127
31.6812
32.2527
32.8245
33.3942
33.9565
34.5046
35.0285
35.5137
35.9407
36.2839
36.5208
36.6651
36.7559
36.8263
36.8964
36.9689
37.0011
36.9605
36.8368
36.6311
36.3486
35.9944
35.5731
35.0874
34.5391
33.9266
33.2496
32.4964
31.6842
30.785
29.882
28.8395
27.9906
28.2341
28.7887
29.5249
30.1286
30.7464
31.334
31.9234
32.5079
33.0935
33.6777
34.2587
34.8314
35.3896
35.9235
36.4204
36.8618
37.2249
37.4888
37.6513
37.7507
37.8247
37.8982
37.9764
38.0177
37.9883
37.8755
37.679
37.4027
37.0517
36.6303
36.1414
35.5867
34.965
34.2763
33.5085
32.6773
31.7541
30.8222
29.7435
28.8577
28.8274
29.4043
30.1679
30.7963
31.4352
32.0408
32.6458
33.2438
33.8408
34.435
35.0246
35.6053
36.1709
36.713
37.2196
37.6749
38.058
38.3508
38.5462
38.6642
38.7467
38.8248
38.9054
38.9494
38.926
38.8214
38.6331
38.3638
38.0176
37.5982
37.1085
36.5504
35.9223
35.2246
34.4457
33.5991
32.6565
31.701
30.5927
29.6769
29.3074
29.9016
30.6893
31.3413
31.9994
32.6212
33.2394
33.8486
34.4549
35.0566
35.6526
36.2388
36.8097
37.3578
37.8725
38.3401
38.7424
39.0632
39.2979
39.4536
39.5586
39.6467
39.7238
39.7634
39.7399
39.6395
39.4577
39.1952
38.8549
38.4395
37.9516
37.3926
36.7612
36.0576
35.2705
34.4123
33.4546
32.4808
31.3489
30.4099
29.6309
30.2385
31.048
31.7237
32.4013
33.0385
33.6686
34.2874
34.9011
35.5086
36.109
36.6989
37.2733
37.8256
38.3467
38.8251
39.2457
39.5935
39.8595
40.0533
40.1957
40.3039
40.3815
40.4183
40.394
40.2961
40.1195
39.8636
39.5297
39.1197
38.6353
38.0776
37.4451
36.738
35.9452
35.0784
34.1094
33.1221
31.9723
31.0163
29.7609
30.3761
31.2039
31.9045
32.6038
33.2579
33.9004
34.5288
35.1496
35.7624
36.3666
36.9593
37.5363
38.0919
38.6186
39.1068
39.5448
39.9201
40.2221
40.4478
40.6143
40.739
40.8274
40.87
40.8507
40.7587
40.5892
40.3409
40.0143
39.6104
39.1304
38.575
37.9423
37.2327
36.4349
35.5609
34.583
33.5847
32.4216
31.4536
29.6747
30.2922
31.1338
31.8601
32.5855
33.2609
33.918
34.5574
35.1863
35.8048
36.413
37.0084
37.5876
38.1457
38.6761
39.1715
39.6227
40.0208
40.3581
40.627
40.8297
40.9787
41.0797
41.1256
41.1073
41.0173
40.8517
40.6085
40.2873
39.8883
39.4119
38.8583
38.2255
37.5136
36.7121
35.8329
34.8498
33.8459
32.6775
31.7068
29.3718
29.9883
30.8384
31.5888
32.3441
33.0474
33.724
34.3775
35.0166
35.6424
36.2554
36.8543
37.436
37.9961
38.5293
39.0293
39.4889
39.9013
40.2622
40.5667
40.8115
40.9945
41.1132
41.1658
41.1495
41.0611
40.8978
40.6579
40.3402
39.9445
39.4703
38.9176
38.2841
37.5697
36.7645
35.8809
34.8942
33.8867
32.717
31.7469
28.8979
29.51
30.3628
31.1316
31.9152
32.6514
33.3543
34.0258
34.6778
35.3129
35.9325
36.5361
37.121
37.6838
38.2197
38.7231
39.1874
39.6071
39.978
40.2962
40.5585
40.7614
40.8992
40.9681
40.9646
40.886
40.7305
40.497
40.1845
39.7928
39.3215
38.7702
38.137
37.4213
36.6142
35.7287
34.7418
33.7346
32.5689
31.6046
28.398
29.0033
29.853
30.6306
31.432
32.1945
32.9225
33.6121
34.276
34.9195
35.5449
36.152
36.7395
37.304
37.8413
38.3461
38.8126
39.2351
39.6099
39.933
40.2017
40.412
40.5584
40.6362
40.6419
40.5725
40.4255
40.1998
39.8944
39.5086
39.0419
38.4939
37.8627
37.1478
36.3408
35.4558
34.4716
33.4681
32.3102
31.3556
28.0914
28.6907
29.5341
30.3116
31.1166
31.8886
32.6278
33.3263
33.9955
34.6421
35.2693
35.877
36.4644
37.0284
37.5653
38.0699
38.5365
38.9597
39.336
39.6613
39.9329
40.1471
40.298
40.3811
40.3925
40.3289
40.188
39.9681
39.6681
39.287
38.8243
38.2796
37.6508
36.9375
36.1317
35.248
34.266
33.2652
32.1125
31.1637
12.9563
20.868
34.514
38.619
41.9581
43.538
44.608
44.9758
45.2627
45.3857
45.4526
45.5012
45.4095
45.0438
44.3978
43.893
43.8953
43.4486
42.8458
42.1083
42.455
42.7544
42.3459
42.6901
43.0466
42.5009
41.3195
40.956
40.5909
40.0328
39.4403
39.3485
10.4825
20.7649
33.9938
38.235
41.6596
43.3408
44.483
45
45.3549
45.4552
45.6448
45.6348
45.4771
45.0683
44.4513
44.0612
44.0777
43.7117
43.1915
42.4558
42.7639
43.1172
42.7538
42.8756
43.4048
42.744
41.6563
41.2609
41.0035
40.4523
39.8999
39.821
5.30758
19.7572
33.4343
37.9791
41.443
43.2169
44.4628
44.9611
45.308
45.5025
45.5619
45.5344
45.4154
45.0846
44.5866
44.2435
44.2488
43.9058
43.3712
42.6324
42.9459
43.2608
43.0265
43.0901
43.8557
43.1765
42.2529
41.848
41.6954
41.1512
40.6227
40.5439
5.13292
19.4708
32.7937
37.4882
41.0682
42.9799
44.2453
44.8746
45.3704
45.5302
45.7483
45.7915
45.6959
45.3671
44.8754
44.5654
44.5441
44.2711
43.7558
43.098
43.4234
43.6015
43.4822
43.4689
44.235
43.4873
42.6587
42.2338
42.1666
41.6465
41.1637
41.0952
13.4543
18.3373
31.9227
37.0731
40.7697
42.7695
44.194
44.8811
45.3212
45.6265
45.7776
45.7892
45.7296
45.4958
45.1286
44.8341
44.7952
44.5337
43.9957
43.4203
43.7234
43.7713
43.8208
43.8561
44.7177
44.0023
43.3171
42.8924
42.8998
42.3962
41.9366
41.8636
16.032
17.4275
31.0346
36.3934
40.2508
42.4791
43.9225
44.6977
45.3747
45.6646
45.9581
46.1033
46.1257
45.9155
45.5276
45.2335
45.1547
44.9376
44.4415
44.0164
44.2676
44.1756
44.3491
44.3709
45.0896
44.3758
43.7633
43.3372
43.4012
42.9411
42.53
42.4664
10.2277
16.207
29.7655
35.6853
39.7916
42.1247
43.7836
44.7536
45.3494
45.792
46.0727
46.1673
46.1741
46.0313
45.773
45.5137
45.429
45.2095
44.7343
44.428
44.5979
44.4377
44.7544
44.8549
45.5754
44.9585
44.4546
44.0443
44.152
43.7194
43.3302
43.2602
11.2336
14.5789
28.4569
34.6642
38.9961
41.7051
43.4565
44.4464
45.3414
45.807
46.1956
46.4375
46.572
46.4791
46.1988
45.9395
45.8177
45.626
45.2331
45.0762
45.1532
44.9538
45.3439
45.436
45.9384
45.3778
44.9192
44.5248
44.6626
44.2887
43.9497
43.8904
12.1324
13.5715
26.6651
33.4618
38.2266
41.0833
43.0975
44.4644
45.2898
45.8972
46.3173
46.5141
46.5844
46.5182
46.368
46.1854
46.085
45.9025
45.5684
45.4923
45.477
45.3235
45.7904
45.9525
46.4245
46.0038
45.6221
45.2557
45.4107
45.0689
44.7499
44.6836
14.2325
11.8959
24.7279
31.8558
36.9079
40.3579
42.6353
43.949
45.1196
45.8041
46.3188
46.6601
46.909
46.944
46.7926
46.6086
46.4833
46.3382
46.1038
46.117
46.0229
45.9329
46.3993
46.5275
46.7715
46.4248
46.0697
45.7288
45.8955
45.6188
45.3517
45.2986
16.1023
10.5173
22.2034
29.8376
35.5822
39.2391
41.8207
43.7643
44.9311
45.7744
46.3673
46.7047
46.8637
46.8865
46.8549
46.7873
46.7217
46.6147
46.4445
46.4652
46.3151
46.3483
46.8294
47.0118
47.2409
47.0453
46.7493
46.4432
46.6091
46.3608
46.1117
46.0524
18.3874
9.8581
19.6564
27.367
33.2819
37.872
41.0471
42.8755
44.4737
45.4688
46.1872
46.6679
47.0621
47.2551
47.2622
47.186
47.1104
47.0538
46.9694
47.0163
46.8394
46.9779
47.4006
47.5116
47.5445
47.4002
47.1225
46.8434
47.0079
46.823
46.6276
46.5846
20.1714
7.03201
15.8746
23.9449
31.0057
35.7923
39.3138
42.2329
43.9494
45.2071
46.0766
46.6356
46.9294
47.0667
47.1672
47.2433
47.2709
47.2777
47.2402
47.2424
47.0656
47.3294
47.7317
47.89
47.9502
47.9415
47.7208
47.4789
47.6315
47.4654
47.2863
47.2385
20.7818
9.87016
12.3277
20.288
26.6993
33.0708
37.8653
40.5292
42.9725
44.5049
45.6155
46.3456
46.9518
47.3405
47.5234
47.5678
47.5884
47.6433
47.6671
47.675
47.5355
47.8755
48.1889
48.2405
48.1562
48.1557
47.957
47.739
47.8905
47.7862
47.6622
47.6359
19.8886
6.5818
8.94511
13.4386
22.8292
28.8561
33.9213
38.9868
41.6738
43.7672
45.1642
46.1362
46.6764
46.9788
47.2227
47.4482
47.5944
47.7165
47.7695
47.7358
47.6513
48.0681
48.3607
48.479
48.4772
48.583
48.455
48.2748
48.4069
48.3085
48.1966
48.1649
17.6278
10.7098
5.6849
6.36496
11.2203
22.3955
31.0213
34.8402
39.482
42.1788
44.1459
45.3897
46.3982
47.0888
47.4993
47.6768
47.807
47.9608
48.0607
48.0595
48.0621
48.4896
48.674
48.6417
48.5192
48.5472
48.4434
48.2814
48.4004
48.3617
48.3038
48.2978
15.2009
7.4543
4.1086
7.92149
10.9967
13.2746
16.5368
31.523
36.1195
40.3291
42.898
44.73
45.7463
46.3668
46.8248
47.2565
47.5547
47.7862
47.9109
47.9023
47.9679
48.3539
48.5043
48.5996
48.6463
48.742
48.7511
48.6237
48.7172
48.67
48.614
48.6003
11.9869
9.08557
8.32187
10.7469
10.4762
3.89666
5.28974
17.3008
29.7085
36.1798
40.5652
42.99
44.8467
46.0754
46.8682
47.236
47.5059
47.7548
47.9402
48.0339
48.2099
48.5386
48.5697
48.4238
48.3097
48.1663
48.1625
47.9993
48.0362
48.026
48.0113
48.0202
11.0688
6.68842
10.0391
10.35
10.8352
11.1437
4.99136
11.704
9.46909
31.0938
37.2571
41.2825
43.2533
44.489
45.3135
46.1085
46.6431
47.0104
47.2296
47.3422
47.503
47.5876
47.507
47.6382
47.8016
47.6886
47.8929
47.7701
47.7741
47.7428
47.7052
47.697
10.8882
10.1198
4.43095
9.19909
8.97703
11.9944
11.7795
11.8225
7.09237
14.5748
31.6285
37.042
40.9547
43.2622
44.7864
45.4318
45.9014
46.2722
46.5889
46.8943
47.1532
47.1555
46.9632
46.5594
46.37
45.6059
45.6073
45.2304
44.9931
44.8663
44.7925
44.764
12.3269
7.24268
8.58853
11.4152
11.9152
5.50245
6.60935
13.0664
7.84621
8.71176
24.6424
33.4626
36.8356
39.2739
40.7433
42.3858
43.4173
44.0299
44.3652
44.5932
44.5615
43.8232
43.1227
43.4165
43.6436
42.9901
43.4524
43.1526
42.8677
42.6912
42.5063
42.4067
10.1884
6.53318
7.27414
9.5555
11.4344
11.3231
9.41524
12.7136
6.8176
13.362
11.503
14.5616
29.1588
34.9322
38.8536
39.8592
40.644
41.1913
41.6596
42.1991
42.2426
41.5789
40.9754
39.0962
37.8141
34.1295
32.2801
29.3676
26.062
22.9485
20.2948
18.4034
7.10758
4.01721
3.99411
10.7849
15.1479
22.4164
24.2959
20.1229
11.2042
6.00762
8.51164
14.0078
16.0142
13.2766
16.6793
26.6283
30.7385
32.4343
32.5914
31.7995
29.4779
23.6093
13.6941
14.3857
19.1456
4.68612
12.6957
15.356
14.1175
13.9225
13.0062
17.5103
5.50485
11.6905
11.5219
10.4956
11.7754
17.6925
22.7364
25.1116
26.0226
24.0811
12.3057
10.9839
4.98633
9.48737
9.10385
11.9843
9.76895
15.1008
7.2011
7.19172
10.6389
17.3297
4.09588
12.3629
8.8352
17.0141
14.9779
15.1574
19.1559
7.90796
19.5548
13.3128
7.92234
15.1239
16.7134
16.825
16.8979
18.7261
21.476
23.8245
25.0641
24.4068
24.4243
20.391
12.9512
7.61028
10.4791
16.5887
15.9093
11.6026
7.45904
8.54591
14.2381
8.09724
9.85467
1.77171
16.089
11.138
14.7139
18.7117
21.2951
22.5392
23.7631
23.5997
7.95635
17.5387
20.913
22.7904
23.7373
24.4917
25.4248
26.423
27.0731
27.0804
25.6338
23.6046
24.5179
26.1435
23.9614
21.153
16.6196
12.4583
11.5021
11.927
14.2931
17.2874
20.7888
23.7656
24.9581
27.1252
27.7785
27.7434
27.5343
27.4757
27.219
27.1284
6.92302
17.1703
21.3667
24.2099
26.0708
27.2013
27.8521
28.2101
28.1823
27.5301
26.1844
24.2675
23.9678
25.3577
25.8983
26.257
26.3806
26.3495
26.1231
26.3918
26.6562
27.0993
27.4268
27.746
28.0213
27.7161
27.752
27.9511
27.8144
27.5938
27.2421
26.9993
5.70465
15.4473
19.8242
22.9909
25.2285
26.6774
27.3297
27.1914
26.103
23.45
19.2695
14.6796
17.3195
22.0257
24.2865
25.676
26.0194
25.8435
25.8582
25.8428
26.0758
26.6057
26.9503
27.0973
27.3856
26.8559
26.1523
25.3681
24.2235
23.2579
22.3736
21.8115
4.58847
13.1426
17.1719
20.2848
22.5379
23.9399
24.3333
23.4862
21.0288
15.2882
10.0497
2.93791
4.35241
4.017
12.6421
16.6537
21.2474
23.3857
24.0345
24.1284
23.7878
23.1916
22.2408
21.567
21.8275
21.1605
20.5414
20.281
19.9793
19.7583
19.5446
19.3769
4.07933
11.6418
14.7845
17.3313
19.1963
20.2231
20.1225
18.5104
15.3384
4.59087
8.29698
7.90373
12.1426
14.8276
16.1546
14.3742
13.8983
15.4164
16.8368
17.4161
17.6947
18.093
18.7986
19.7117
20.3902
20.8867
21.0912
20.9724
20.6586
20.3228
19.9762
19.7042
3.8859
11.1907
13.1314
15.037
16.4605
17.1487
16.834
15.3023
12.7196
11.2533
9.83684
11.545
11.465
11.4077
12.845
17.1571
18.8992
19.2986
19.3741
19.5883
19.8196
19.9347
19.8711
19.8268
19.9632
19.7268
19.4615
19.209
18.9241
18.6567
18.4141
18.2177
3.52989
10.4175
12.3306
14.0965
15.4823
16.2834
16.3796
15.7372
14.3571
12.2922
11.6148
11.4864
11.5697
12.6182
13.1644
12.2879
13.6858
15.6743
16.9334
17.4866
17.6809
17.7582
17.9511
18.355
18.7596
19.0065
19.1734
19.1991
19.0966
18.9214
18.7242
18.5564
3.32138
10.0134
12.0989
13.9945
15.5766
16.6115
16.9243
16.3668
14.8509
12.443
11.585
11.6028
12.4106
13.1802
14.52
16.2346
16.8614
17.0078
17.3026
17.6992
18.0871
18.403
18.6638
18.9127
19.189
19.3169
19.4139
19.4245
19.3264
19.1521
18.9424
18.7792
3.23992
9.73599
11.9037
13.8784
15.5361
16.5805
16.7671
16.0033
14.2177
12.4325
11.9807
12.776
13.4507
13.9974
14.2156
14.4218
15.4285
16.5833
17.3674
17.8527
18.1774
18.4942
18.8654
19.2682
19.6322
19.9042
20.0996
20.1534
20.061
19.8667
19.6378
19.4684
3.34356
9.79659
11.5318
13.1383
14.5347
15.2744
15.1185
14.0686
12.4718
11.8178
12.8197
13.5722
14.1461
14.897
15.865
16.7402
17.1918
17.561
18.0394
18.5473
19.0378
19.4861
19.8808
20.2418
20.575
20.7966
20.9355
20.9488
20.8176
20.5811
20.313
20.1295
3.71532