/*--------------------------------*- C++ -*----------------------------------*\
  =========                 |
  \\      /  F ield         | OpenFOAM: The Open Source CFD Toolbox
   \\    /   O peration     | Website:  https://openfoam.org
    \\  /    A nd           | Version:  6
     \\/     M anipulation  |
\*---------------------------------------------------------------------------*/
FoamFile
{
    version     2.0;
    format      ascii;
    class       volScalarField;
    location    "23";
    object      p;
}
// * * * * * * * * * * * * * * * * * * * * * * * * * * * * * * * * * * * * * //

dimensions      [0 2 -2 0 0 0 0];

internalField   nonuniform List<scalar> 
380496
(
0.0142019
0.0146758
0.0142759
0.0141752
0.0140638
0.0139494
0.0138409
0.0137321
0.0136239
0.0135165
0.0134103
0.0133054
0.013202
0.0131
0.0129992
0.0128997
0.012801
0.0127029
0.0126049
0.0125065
0.0124073
0.0123067
0.012204
0.0120986
0.0119899
0.0118771
0.0117595
0.0116364
0.0115076
0.0113715
0.01123
0.0110788
0.0109279
0.0107585
0.0106186
0.0141775
0.0146441
0.0142564
0.0141599
0.0140517
0.013939
0.0138306
0.013721
0.0136108
0.013501
0.0133916
0.0132829
0.0131752
0.0130683
0.0129623
0.0128568
0.0127518
0.0126467
0.0125414
0.0124352
0.0123278
0.0122185
0.012107
0.0119924
0.0118744
0.0117521
0.0116253
0.0114928
0.011355
0.0112096
0.0110596
0.010897
0.0107371
0.0105433
0.0103931
0.0141497
0.0146115
0.014235
0.0141433
0.0140382
0.0139266
0.0138178
0.0137065
0.0135938
0.0134805
0.0133671
0.0132538
0.0131408
0.0130282
0.0129158
0.0128034
0.0126909
0.0125778
0.0124638
0.0123484
0.0122312
0.0121116
0.0119893
0.0118635
0.0117339
0.0115997
0.0114608
0.0113161
0.0111664
0.0110091
0.0108483
0.010675
0.0105084
0.0103064
0.0101595
0.014114
0.014576
0.0142133
0.0141281
0.014027
0.0139174
0.0138087
0.0136962
0.0135813
0.0134653
0.0133484
0.0132312
0.0131138
0.0129963
0.0128786
0.0127605
0.0126417
0.012522
0.0124009
0.012278
0.0121531
0.0120254
0.0118948
0.0117605
0.0116223
0.0114795
0.0113321
0.0111791
0.0110213
0.010856
0.0106878
0.0105063
0.0103329
0.0101203
0.00996771
0.0140816
0.0145382
0.0141919
0.0141138
0.0140168
0.0139089
0.0137997
0.0136856
0.0135682
0.013449
0.0133283
0.0132069
0.0130848
0.0129621
0.0128388
0.0127146
0.0125894
0.0124627
0.0123343
0.0122038
0.0120708
0.0119348
0.0117956
0.0116525
0.0115054
0.0113536
0.0111974
0.0110356
0.0108693
0.0106958
0.0105203
0.0103316
0.0101532
0.00993505
0.00978198
0.0140359
0.0144978
0.0141703
0.0141008
0.0140088
0.0139028
0.0137935
0.0136778
0.0135581
0.0134359
0.0133118
0.0131864
0.0130601
0.0129328
0.0128045
0.012675
0.012544
0.0124114
0.0122766
0.0121395
0.0119997
0.0118566
0.0117102
0.0115599
0.0114056
0.0112467
0.0110834
0.0109149
0.0107422
0.0105626
0.0103815
0.0101874
0.0100046
0.00978105
0.00962548
0.0139876
0.0144553
0.0141494
0.0140897
0.014003
0.0138987
0.0137888
0.0136714
0.013549
0.0134236
0.0132959
0.0131666
0.0130359
0.012904
0.0127708
0.012636
0.0124996
0.012361
0.0122202
0.0120767
0.0119303
0.0117805
0.0116273
0.0114701
0.0113089
0.0111433
0.0109734
0.0107985
0.0106198
0.0104347
0.0102486
0.0100499
0.00986382
0.00963669
0.00948076
0.0139291
0.014412
0.0141304
0.0140816
0.0140004
0.0138974
0.0137867
0.0136673
0.0135423
0.0134137
0.0132826
0.0131496
0.013015
0.0128789
0.0127412
0.0126017
0.0124603
0.0123166
0.0121703
0.0120213
0.0118691
0.0117135
0.0115544
0.0113914
0.0112245
0.0110532
0.010878
0.010698
0.0105147
0.0103251
0.0101353
0.00993299
0.00974454
0.00951437
0.00935816
0.0138594
0.0143688
0.0141131
0.0140765
0.014001
0.013899
0.0137871
0.0136655
0.0135377
0.0134061
0.0132717
0.0131352
0.012997
0.0128571
0.0127154
0.0125718
0.012426
0.0122778
0.0121268
0.011973
0.0118159
0.0116553
0.0114912
0.0113233
0.0111515
0.0109756
0.0107959
0.0106117
0.0104244
0.0102314
0.0100386
0.00983352
0.00964345
0.00941099
0.00925523
0.0137894
0.0143337
0.0141016
0.0140761
0.014005
0.0139029
0.0137895
0.0136655
0.013535
0.0134006
0.0132633
0.0131239
0.0129826
0.0128396
0.0126946
0.0125475
0.0123981
0.0122462
0.0120914
0.0119336
0.0117725
0.011608
0.0114399
0.011268
0.0110925
0.0109129
0.0107298
0.0105424
0.0103523
0.0101567
0.00996186
0.00975479
0.00956377
0.00932943
0.0091745
0.0136976
0.0142986
0.0140907
0.0140784
0.0140119
0.0139092
0.0137938
0.0136673
0.0135341
0.0133968
0.0132568
0.0131146
0.0129705
0.0128245
0.0126765
0.0125264
0.0123738
0.0122186
0.0120604
0.0118992
0.0117347
0.0115667
0.0113952
0.01122
0.0110412
0.0108586
0.0106726
0.0104826
0.0102902
0.0100925
0.00989601
0.00968739
0.00949588
0.00926001
0.00910652
0.0136042
0.0142748
0.0140864
0.0140859
0.014022
0.0139174
0.0137995
0.0136702
0.0135342
0.0133943
0.0132517
0.013107
0.0129604
0.0128119
0.0126613
0.0125085
0.0123532
0.0121952
0.0120342
0.0118701
0.0117026
0.0115318
0.0113574
0.0111795
0.010998
0.0108129
0.0106246
0.0104325
0.0102383
0.010039
0.00984143
0.00963166
0.00944004
0.00920278
0.00905114
0.01348
0.0142553
0.0140835
0.0140968
0.0140352
0.0139278
0.013807
0.0136746
0.0135357
0.0133932
0.0132482
0.0131012
0.0129523
0.0128015
0.0126486
0.0124935
0.0123358
0.0121754
0.012012
0.0118454
0.0116755
0.0115023
0.0113255
0.0111452
0.0109615
0.0107744
0.0105842
0.0103905
0.0101949
0.0099944
0.00979604
0.00958551
0.00939411
0.00915585
0.00900663
0.0133502
0.014252
0.0140871
0.0141124
0.0140504
0.013939
0.0138149
0.0136793
0.0135377
0.0133928
0.0132456
0.0130965
0.0129456
0.0127929
0.0126381
0.0124811
0.0123214
0.012159
0.0119935
0.011825
0.011653
0.0114777
0.011299
0.0111169
0.0109314
0.0107427
0.010551
0.010356
0.0101593
0.00995803
0.00975914
0.00954812
0.00935698
0.00911788
0.0089709
0.0131879
0.0142609
0.0140943
0.0141329
0.0140692
0.0139527
0.0138245
0.0136855
0.0135409
0.0133936
0.0132443
0.0130934
0.0129408
0.0127864
0.01263
0.0124713
0.01231
0.0121459
0.0119787
0.0118085
0.0116349
0.011458
0.0112777
0.0110941
0.0109072
0.0107172
0.0105243
0.0103284
0.0101309
0.00992912
0.00972995
0.0095189
0.00932822
0.00908937
0.00894485
0.0130071
0.0142898
0.0141059
0.0141556
0.0140873
0.013965
0.013833
0.0136907
0.0135437
0.0133944
0.0132434
0.0130909
0.0129369
0.0127812
0.0126235
0.0124634
0.0123008
0.0121354
0.0119669
0.0117954
0.0116205
0.0114423
0.0112608
0.011076
0.010888
0.010697
0.0105033
0.0103067
0.0101087
0.00990656
0.00970717
0.00949626
0.00930535
0.00906682
0.00892183
0.0128037
0.0143387
0.0141241
0.0141854
0.0141098
0.0139803
0.0138435
0.0136977
0.0135481
0.0133968
0.0132442
0.0130904
0.0129351
0.0127782
0.0126194
0.0124583
0.0122946
0.0121282
0.0119587
0.0117861
0.0116102
0.011431
0.0112486
0.0110629
0.0108741
0.0106824
0.0104881
0.010291
0.0100927
0.0098905
0.00969116
0.00948102
0.00929042
0.00905502
0.00891017
0.0125639
0.0144105
0.0141415
0.0142113
0.0141272
0.0139917
0.0138514
0.0137029
0.0135514
0.0133986
0.0132449
0.01309
0.0129339
0.0127762
0.0126166
0.0124547
0.0122903
0.012123
0.0119528
0.0117794
0.0116029
0.0114229
0.0112399
0.0110535
0.0108643
0.010672
0.0104774
0.0102799
0.0100814
0.00987923
0.00967978
0.00947037
0.00927807
0.00904462
0.00888944
0.0123198
0.0144984
0.0141697
0.0142479
0.0141519
0.0140086
0.0138635
0.0137117
0.0135579
0.0134035
0.0132485
0.0130926
0.0129357
0.0127772
0.0126169
0.0124543
0.0122893
0.0121215
0.0119508
0.0117768
0.0115998
0.0114193
0.0112359
0.011049
0.0108595
0.0106668
0.0104721
0.0102744
0.0100759
0.00987387
0.00967481
0.00946678
0.00927574
0.00904948
0.00889608
0.0120539
0.0146016
0.0141929
0.0142766
0.0141696
0.0140208
0.0138725
0.0137185
0.0135632
0.0134077
0.0132518
0.0130952
0.0129377
0.0127787
0.0126179
0.0124549
0.0122895
0.0121213
0.0119503
0.0117759
0.0115986
0.0114179
0.0112342
0.0110471
0.0108574
0.0106645
0.0104697
0.0102719
0.0100735
0.00987155
0.00967247
0.00946545
0.00927132
0.00904844
0.00886304
0.011803
0.0147095
0.0142391
0.0143206
0.0141987
0.0140414
0.0138877
0.01373
0.0135722
0.013415
0.0132578
0.0131003
0.012942
0.0127825
0.0126213
0.0124579
0.0122923
0.0121238
0.0119526
0.0117781
0.0116007
0.0114198
0.0112361
0.0110489
0.0108593
0.0106663
0.0104716
0.0102738
0.0100756
0.00987381
0.00967539
0.00946923
0.00928027
0.00906462
0.00892635
0.014205
0.0146686
0.014276
0.0141756
0.0140639
0.0139494
0.0138409
0.0137321
0.0136239
0.0135165
0.0134103
0.0133054
0.013202
0.0130999
0.0129992
0.0128997
0.012801
0.0127029
0.0126049
0.0125065
0.0124073
0.0123067
0.012204
0.0120987
0.0119899
0.0118771
0.0117596
0.0116364
0.0115076
0.0113716
0.0112301
0.0110789
0.0109279
0.0107586
0.0106187
0.0141804
0.0146371
0.0142564
0.0141603
0.0140518
0.013939
0.0138306
0.013721
0.0136108
0.013501
0.0133916
0.013283
0.0131752
0.0130683
0.0129623
0.0128568
0.0127518
0.0126468
0.0125414
0.0124352
0.0123278
0.0122186
0.012107
0.0119924
0.0118744
0.0117521
0.0116253
0.0114929
0.0113551
0.0112097
0.0110597
0.0108971
0.0107372
0.0105434
0.0103932
0.0141525
0.0146046
0.014235
0.0141437
0.0140383
0.0139267
0.0138178
0.0137065
0.0135938
0.0134805
0.0133671
0.0132538
0.0131408
0.0130282
0.0129158
0.0128034
0.0126909
0.0125778
0.0124638
0.0123484
0.0122312
0.0121116
0.0119893
0.0118635
0.0117339
0.0115997
0.0114609
0.0113162
0.0111664
0.0110092
0.0108484
0.010675
0.0105085
0.0103065
0.0101596
0.0141169
0.0145693
0.0142133
0.0141285
0.0140272
0.0139175
0.0138087
0.0136962
0.0135813
0.0134653
0.0133484
0.0132312
0.0131139
0.0129963
0.0128786
0.0127605
0.0126417
0.012522
0.0124009
0.0122781
0.0121531
0.0120255
0.0118948
0.0117605
0.0116224
0.0114796
0.0113322
0.0111792
0.0110214
0.0108561
0.0106879
0.0105064
0.0103331
0.0101205
0.00996781
0.0140841
0.0145316
0.0141919
0.0141141
0.0140169
0.0139089
0.0137997
0.0136856
0.0135682
0.013449
0.0133283
0.0132069
0.0130848
0.0129621
0.0128388
0.0127146
0.0125894
0.0124627
0.0123344
0.0122038
0.0120708
0.0119348
0.0117956
0.0116525
0.0115054
0.0113537
0.0111974
0.0110356
0.0108694
0.0106959
0.0105203
0.0103317
0.0101533
0.00993518
0.00978207
0.0140384
0.0144913
0.0141703
0.0141011
0.0140089
0.0139028
0.0137935
0.0136778
0.0135581
0.0134359
0.0133118
0.0131864
0.0130601
0.0129328
0.0128045
0.012675
0.012544
0.0124114
0.0122767
0.0121395
0.0119997
0.0118567
0.0117102
0.0115599
0.0114056
0.0112467
0.0110835
0.0109149
0.0107423
0.0105627
0.0103816
0.0101875
0.0100047
0.00978119
0.00962559
0.0139899
0.014449
0.0141494
0.01409
0.0140031
0.0138987
0.0137888
0.0136714
0.013549
0.0134236
0.0132959
0.0131666
0.0130359
0.012904
0.0127708
0.0126361
0.0124996
0.0123611
0.0122202
0.0120767
0.0119303
0.0117806
0.0116273
0.0114701
0.011309
0.0111433
0.0109735
0.0107986
0.0106199
0.0104348
0.0102487
0.01005
0.00986394
0.00963683
0.00948086
0.0139313
0.0144059
0.0141305
0.0140819
0.0140005
0.0138975
0.0137867
0.0136673
0.0135423
0.0134137
0.0132826
0.0131496
0.013015
0.0128789
0.0127412
0.0126017
0.0124603
0.0123166
0.0121704
0.0120213
0.0118691
0.0117136
0.0115545
0.0113914
0.0112245
0.0110533
0.0108781
0.0106981
0.0105148
0.0103252
0.0101354
0.00993311
0.00974467
0.00951452
0.00935825
0.0138615
0.0143629
0.0141132
0.0140768
0.0140011
0.013899
0.0137871
0.0136655
0.0135377
0.0134061
0.0132717
0.0131352
0.012997
0.0128571
0.0127155
0.0125718
0.012426
0.0122778
0.0121269
0.011973
0.0118159
0.0116554
0.0114913
0.0113233
0.0111515
0.0109756
0.010796
0.0106118
0.0104245
0.0102315
0.0100387
0.00983364
0.00964358
0.00941113
0.00925532
0.0137913
0.014328
0.0141016
0.0140764
0.0140051
0.0139029
0.0137895
0.0136655
0.013535
0.0134006
0.0132633
0.0131239
0.0129826
0.0128396
0.0126946
0.0125475
0.0123981
0.0122462
0.0120914
0.0119336
0.0117726
0.0116081
0.01144
0.0112681
0.0110925
0.010913
0.0107299
0.0105425
0.0103524
0.0101568
0.00996197
0.00975491
0.0095639
0.00932959
0.00917459
0.0136994
0.0142931
0.0140908
0.0140787
0.0140119
0.0139092
0.0137938
0.0136673
0.013534
0.0133968
0.0132568
0.0131146
0.0129705
0.0128245
0.0126765
0.0125264
0.0123738
0.0122186
0.0120605
0.0118993
0.0117347
0.0115668
0.0113953
0.0112201
0.0110413
0.0108587
0.0106727
0.0104827
0.0102903
0.0100926
0.00989612
0.00968751
0.00949601
0.00926016
0.0091066
0.0136057
0.0142696
0.0140864
0.0140861
0.0140221
0.0139173
0.0137995
0.0136702
0.0135341
0.0133943
0.0132517
0.013107
0.0129604
0.0128119
0.0126613
0.0125085
0.0123532
0.0121952
0.0120342
0.0118701
0.0117027
0.0115318
0.0113575
0.0111795
0.010998
0.010813
0.0106247
0.0104326
0.0102384
0.0100391
0.00984154
0.00963179
0.00944017
0.00920294
0.00905122
0.0134815
0.0142503
0.0140836
0.014097
0.0140352
0.0139278
0.013807
0.0136746
0.0135357
0.0133932
0.0132482
0.0131012
0.0129523
0.0128015
0.0126486
0.0124935
0.0123358
0.0121754
0.012012
0.0118455
0.0116756
0.0115023
0.0113255
0.0111453
0.0109616
0.0107745
0.0105843
0.0103906
0.010195
0.00999451
0.00979616
0.00958563
0.00939424
0.00915601
0.0090067
0.0133514
0.0142473
0.0140871
0.0141126
0.0140504
0.013939
0.0138148
0.0136793
0.0135376
0.0133927
0.0132455
0.0130965
0.0129456
0.0127929
0.0126381
0.0124811
0.0123214
0.012159
0.0119936
0.011825
0.011653
0.0114778
0.011299
0.011117
0.0109315
0.0107428
0.0105511
0.0103561
0.0101594
0.00995815
0.00975926
0.00954826
0.00935711
0.00911804
0.00897097
0.013189
0.0142565
0.0140943
0.0141331
0.0140692
0.0139526
0.0138244
0.0136854
0.0135409
0.0133936
0.0132443
0.0130934
0.0129408
0.0127864
0.01263
0.0124713
0.01231
0.0121459
0.0119788
0.0118085
0.0116349
0.011458
0.0112777
0.0110941
0.0109073
0.0107172
0.0105244
0.0103285
0.010131
0.00992924
0.00973009
0.00951905
0.00932837
0.00908956
0.00894493
0.013008
0.0142857
0.0141058
0.0141556
0.0140872
0.0139649
0.0138329
0.0136907
0.0135437
0.0133944
0.0132434
0.0130909
0.0129369
0.0127812
0.0126235
0.0124634
0.0123008
0.0121354
0.011967
0.0117954
0.0116205
0.0114424
0.0112608
0.011076
0.0108881
0.0106971
0.0105035
0.0103068
0.0101088
0.00990671
0.00970733
0.00949643
0.00930551
0.00906702
0.00892191
0.0128043
0.014335
0.0141239
0.0141854
0.0141097
0.0139802
0.0138435
0.0136977
0.0135481
0.0133968
0.0132442
0.0130904
0.0129352
0.0127783
0.0126195
0.0124583
0.0122947
0.0121282
0.0119588
0.0117861
0.0116103
0.0114311
0.0112487
0.011063
0.0108743
0.0106825
0.0104883
0.0102912
0.0100929
0.00989067
0.00969134
0.00948121
0.00929061
0.00905526
0.0089103
0.0125646
0.0144071
0.0141413
0.0142112
0.0141271
0.0139916
0.0138514
0.0137029
0.0135514
0.0133987
0.0132449
0.0130901
0.012934
0.0127763
0.0126167
0.0124548
0.0122904
0.0121231
0.011953
0.0117796
0.011603
0.0114231
0.01124
0.0110537
0.0108644
0.0106721
0.0104775
0.0102801
0.0100816
0.00987942
0.00967998
0.00947057
0.00927828
0.00904485
0.00888957
0.0123188
0.0144958
0.0141694
0.0142478
0.0141519
0.0140086
0.0138637
0.0137119
0.0135581
0.0134037
0.0132487
0.0130928
0.0129358
0.0127773
0.012617
0.0124545
0.0122895
0.0121216
0.0119509
0.0117769
0.0115999
0.0114195
0.011236
0.0110492
0.0108596
0.010667
0.0104722
0.0102745
0.0100761
0.00987404
0.00967499
0.00946696
0.00927594
0.0090497
0.00889629
0.0120511
0.0146007
0.0141931
0.014277
0.01417
0.014021
0.0138727
0.0137187
0.0135633
0.0134078
0.0132519
0.0130953
0.0129378
0.0127787
0.012618
0.012455
0.0122896
0.0121213
0.0119503
0.011776
0.0115987
0.0114179
0.0112342
0.0110471
0.0108574
0.0106645
0.0104697
0.0102719
0.0100735
0.0098716
0.00967253
0.0094655
0.00927139
0.00904845
0.00886311
0.0118173
0.0147128
0.0142386
0.0143195
0.0141975
0.0140402
0.0138867
0.0137292
0.0135715
0.0134143
0.0132572
0.0130997
0.0129415
0.012782
0.0126209
0.0124575
0.0122919
0.0121234
0.0119522
0.0117777
0.0116003
0.0114195
0.0112357
0.0110486
0.0108589
0.010666
0.0104712
0.0102734
0.0100752
0.00987342
0.00967499
0.00946882
0.00927985
0.00906418
0.00892571
0.0142134
0.0146633
0.0142759
0.0141757
0.014064
0.0139494
0.0138409
0.0137322
0.0136239
0.0135165
0.0134103
0.0133054
0.013202
0.0130999
0.0129992
0.0128997
0.012801
0.0127029
0.0126049
0.0125065
0.0124073
0.0123067
0.012204
0.0120987
0.0119899
0.0118771
0.0117596
0.0116364
0.0115076
0.0113716
0.0112301
0.0110789
0.010928
0.0107586
0.0106188
0.0141886
0.0146318
0.0142563
0.0141603
0.0140519
0.013939
0.0138306
0.013721
0.0136109
0.013501
0.0133916
0.013283
0.0131752
0.0130683
0.0129623
0.0128568
0.0127518
0.0126468
0.0125414
0.0124352
0.0123278
0.0122186
0.012107
0.0119925
0.0118745
0.0117522
0.0116254
0.0114929
0.0113551
0.0112098
0.0110597
0.0108972
0.0107373
0.0105435
0.0103933
0.0141606
0.0145994
0.0142349
0.0141438
0.0140383
0.0139267
0.0138178
0.0137065
0.0135938
0.0134805
0.0133671
0.0132538
0.0131408
0.0130282
0.0129158
0.0128034
0.0126909
0.0125778
0.0124638
0.0123484
0.0122312
0.0121116
0.0119893
0.0118635
0.0117339
0.0115997
0.0114609
0.0113162
0.0111664
0.0110092
0.0108484
0.010675
0.0105085
0.0103066
0.0101597
0.0141249
0.0145641
0.0142132
0.0141286
0.0140272
0.0139175
0.0138087
0.0136962
0.0135813
0.0134653
0.0133484
0.0132312
0.0131139
0.0129964
0.0128786
0.0127605
0.0126418
0.012522
0.0124009
0.0122781
0.0121531
0.0120255
0.0118948
0.0117605
0.0116224
0.0114796
0.0113323
0.0111792
0.0110214
0.0108562
0.010688
0.0105064
0.0103331
0.0101205
0.00996791
0.0140919
0.0145266
0.0141918
0.0141142
0.014017
0.0139089
0.0137997
0.0136856
0.0135682
0.013449
0.0133283
0.0132069
0.0130848
0.0129621
0.0128388
0.0127146
0.0125894
0.0124627
0.0123344
0.0122038
0.0120708
0.0119348
0.0117956
0.0116525
0.0115055
0.0113537
0.0111975
0.0110357
0.0108694
0.0106959
0.0105204
0.0103318
0.0101534
0.00993521
0.00978216
0.0140461
0.0144864
0.0141702
0.0141012
0.014009
0.0139029
0.0137935
0.0136778
0.0135581
0.0134359
0.0133118
0.0131864
0.0130601
0.0129328
0.0128045
0.012675
0.0125441
0.0124114
0.0122767
0.0121396
0.0119997
0.0118567
0.0117103
0.01156
0.0114057
0.0112468
0.0110835
0.010915
0.0107423
0.0105628
0.0103817
0.0101875
0.0100048
0.00978125
0.00962569
0.0139974
0.0144442
0.0141493
0.01409
0.0140031
0.0138987
0.0137888
0.0136714
0.013549
0.0134236
0.0132959
0.0131666
0.0130359
0.012904
0.0127708
0.0126361
0.0124996
0.0123611
0.0122202
0.0120768
0.0119303
0.0117806
0.0116273
0.0114701
0.011309
0.0111434
0.0109735
0.0107986
0.01062
0.0104348
0.0102487
0.01005
0.009864
0.00963687
0.00948096
0.0139386
0.0144013
0.0141304
0.014082
0.0140005
0.0138975
0.0137867
0.0136673
0.0135423
0.0134137
0.0132826
0.0131496
0.013015
0.0128789
0.0127412
0.0126017
0.0124603
0.0123166
0.0121704
0.0120213
0.0118692
0.0117136
0.0115545
0.0113915
0.0112246
0.0110534
0.0108782
0.0106982
0.0105148
0.0103253
0.0101355
0.00993317
0.00974474
0.00951457
0.00935837
0.0138686
0.0143584
0.0141131
0.0140769
0.0140011
0.013899
0.0137871
0.0136655
0.0135377
0.013406
0.0132717
0.0131352
0.012997
0.0128571
0.0127155
0.0125718
0.012426
0.0122778
0.0121269
0.011973
0.0118159
0.0116554
0.0114913
0.0113233
0.0111516
0.0109757
0.010796
0.0106118
0.0104246
0.0102315
0.0100388
0.00983369
0.00964364
0.00941119
0.00925543
0.0137982
0.0143236
0.0141015
0.0140765
0.0140052
0.0139029
0.0137895
0.0136655
0.013535
0.0134006
0.0132633
0.0131239
0.0129826
0.0128396
0.0126946
0.0125475
0.0123981
0.0122462
0.0120914
0.0119336
0.0117726
0.0116081
0.01144
0.0112681
0.0110926
0.010913
0.0107299
0.0105426
0.0103525
0.0101569
0.00996202
0.00975497
0.00956396
0.00932964
0.0091747
0.0137062
0.0142888
0.0140907
0.0140787
0.014012
0.0139092
0.0137938
0.0136673
0.013534
0.0133968
0.0132568
0.0131146
0.0129705
0.0128245
0.0126765
0.0125264
0.0123738
0.0122186
0.0120605
0.0118993
0.0117347
0.0115668
0.0113953
0.0112201
0.0110413
0.0108587
0.0106727
0.0104827
0.0102903
0.0100926
0.00989617
0.00968757
0.00949607
0.00926021
0.00910671
0.0136122
0.0142655
0.0140863
0.0140862
0.0140221
0.0139173
0.0137994
0.0136701
0.0135341
0.0133943
0.0132517
0.013107
0.0129604
0.0128119
0.0126613
0.0125085
0.0123532
0.0121952
0.0120342
0.0118701
0.0117027
0.0115319
0.0113575
0.0111795
0.0109981
0.010813
0.0106247
0.0104327
0.0102384
0.0100392
0.00984159
0.00963184
0.00944023
0.009203
0.00905133
0.0134879
0.0142464
0.0140835
0.0140971
0.0140352
0.0139278
0.013807
0.0136746
0.0135357
0.0133932
0.0132481
0.0131011
0.0129522
0.0128015
0.0126486
0.0124935
0.0123358
0.0121754
0.012012
0.0118455
0.0116756
0.0115023
0.0113255
0.0111453
0.0109616
0.0107745
0.0105843
0.0103906
0.010195
0.00999456
0.00979621
0.00958569
0.00939431
0.00915608
0.00900682
0.0133574
0.0142436
0.0140871
0.0141126
0.0140504
0.013939
0.0138148
0.0136792
0.0135376
0.0133927
0.0132455
0.0130964
0.0129456
0.0127929
0.0126381
0.012481
0.0123214
0.012159
0.0119935
0.011825
0.0116531
0.0114778
0.0112991
0.011117
0.0109315
0.0107428
0.0105511
0.0103562
0.0101595
0.00995821
0.00975932
0.00954832
0.00935719
0.00911812
0.00897109
0.0131948
0.014253
0.0140942
0.0141331
0.0140691
0.0139525
0.0138244
0.0136853
0.0135408
0.0133935
0.0132443
0.0130933
0.0129408
0.0127864
0.01263
0.0124712
0.01231
0.0121459
0.0119788
0.0118085
0.0116349
0.0114581
0.0112778
0.0110942
0.0109073
0.0107173
0.0105245
0.0103286
0.0101311
0.00992931
0.00973016
0.00951912
0.00932846
0.00908965
0.00894507
0.0130135
0.0142825
0.0141057
0.0141556
0.0140872
0.0139648
0.0138328
0.0136906
0.0135436
0.0133943
0.0132433
0.0130909
0.0129369
0.0127812
0.0126235
0.0124634
0.0123008
0.0121354
0.011967
0.0117954
0.0116206
0.0114424
0.0112609
0.0110761
0.0108882
0.0106972
0.0105035
0.0103069
0.0101089
0.0099068
0.00970742
0.00949653
0.00930562
0.00906713
0.00892207
0.0128094
0.0143321
0.0141238
0.0141853
0.0141096
0.01398
0.0138434
0.0136976
0.013548
0.0133967
0.0132442
0.0130904
0.0129352
0.0127783
0.0126195
0.0124584
0.0122948
0.0121283
0.0119588
0.0117862
0.0116104
0.0114312
0.0112488
0.0110631
0.0108744
0.0106826
0.0104884
0.0102913
0.010093
0.00989079
0.00969147
0.00948134
0.00929075
0.00905541
0.0089105
0.0125693
0.0144045
0.0141411
0.0142111
0.014127
0.0139915
0.0138513
0.0137029
0.0135514
0.0133987
0.013245
0.0130902
0.0129341
0.0127764
0.0126168
0.0124549
0.0122905
0.0121232
0.0119531
0.0117797
0.0116031
0.0114232
0.0112401
0.0110538
0.0108646
0.0106722
0.0104777
0.0102802
0.0100817
0.00987956
0.00968012
0.00947071
0.00927843
0.00904499
0.00888974
0.0123224
0.014494
0.0141692
0.0142478
0.014152
0.0140087
0.0138638
0.013712
0.0135582
0.0134038
0.0132488
0.0130929
0.012936
0.0127775
0.0126172
0.0124546
0.0122896
0.0121217
0.011951
0.011777
0.0116
0.0114196
0.0112361
0.0110493
0.0108597
0.0106671
0.0104723
0.0102746
0.0100762
0.00987415
0.00967511
0.00946707
0.00927608
0.00904982
0.0088965
0.0120532
0.0146008
0.0141934
0.0142775
0.0141704
0.0140213
0.013873
0.0137188
0.0135634
0.0134079
0.013252
0.0130954
0.0129378
0.0127788
0.012618
0.012455
0.0122896
0.0121214
0.0119503
0.011776
0.0115987
0.0114179
0.0112342
0.0110471
0.0108574
0.0106645
0.0104697
0.0102719
0.0100735
0.00987159
0.00967252
0.00946549
0.0092714
0.00904839
0.00886298
0.0118256
0.0147149
0.0142386
0.014319
0.0141969
0.0140397
0.0138862
0.0137287
0.0135711
0.013414
0.0132569
0.0130995
0.0129413
0.0127818
0.0126206
0.0124573
0.0122917
0.0121232
0.011952
0.0117776
0.0116002
0.0114193
0.0112356
0.0110484
0.0108587
0.0106658
0.0104711
0.0102733
0.010075
0.00987324
0.00967479
0.00946864
0.00927965
0.009064
0.00892543
0.0142185
0.0146581
0.0142755
0.0141755
0.014064
0.0139494
0.0138409
0.0137322
0.0136239
0.0135165
0.0134103
0.0133054
0.013202
0.0130999
0.0129992
0.0128997
0.012801
0.0127029
0.0126049
0.0125065
0.0124073
0.0123067
0.012204
0.0120986
0.0119899
0.0118771
0.0117596
0.0116364
0.0115076
0.0113716
0.0112301
0.0110789
0.0109279
0.0107586
0.0106189
0.0141936
0.0146267
0.014256
0.0141602
0.0140519
0.0139391
0.0138307
0.013721
0.0136109
0.013501
0.0133916
0.013283
0.0131752
0.0130683
0.0129623
0.0128569
0.0127518
0.0126468
0.0125414
0.0124353
0.0123279
0.0122186
0.0121071
0.0119925
0.0118745
0.0117522
0.0116254
0.0114929
0.0113552
0.0112098
0.0110598
0.0108972
0.0107373
0.0105436
0.0103934
0.0141655
0.0145944
0.0142346
0.0141437
0.0140383
0.0139267
0.0138178
0.0137065
0.0135938
0.0134805
0.0133671
0.0132538
0.0131408
0.0130282
0.0129158
0.0128034
0.0126909
0.0125778
0.0124638
0.0123484
0.0122312
0.0121116
0.0119893
0.0118635
0.0117339
0.0115997
0.0114608
0.0113162
0.0111664
0.0110092
0.0108484
0.010675
0.0105085
0.0103066
0.0101597
0.0141298
0.0145591
0.0142129
0.0141285
0.0140272
0.0139175
0.0138087
0.0136962
0.0135813
0.0134653
0.0133484
0.0132312
0.0131139
0.0129963
0.0128786
0.0127605
0.0126418
0.012522
0.0124009
0.0122781
0.0121531
0.0120255
0.0118948
0.0117606
0.0116224
0.0114796
0.0113323
0.0111792
0.0110214
0.0108562
0.010688
0.0105065
0.0103332
0.0101206
0.009968
0.0140967
0.0145217
0.0141915
0.0141141
0.014017
0.0139089
0.0137997
0.0136856
0.0135682
0.0134489
0.0133283
0.0132069
0.0130847
0.0129621
0.0128388
0.0127146
0.0125894
0.0124627
0.0123344
0.0122038
0.0120708
0.0119348
0.0117956
0.0116525
0.0115054
0.0113537
0.0111975
0.0110357
0.0108694
0.010696
0.0105204
0.0103318
0.0101534
0.00993523
0.00978224
0.0140508
0.0144816
0.01417
0.0141011
0.014009
0.0139029
0.0137935
0.0136778
0.0135581
0.0134359
0.0133118
0.0131864
0.0130601
0.0129328
0.0128045
0.012675
0.0125441
0.0124114
0.0122767
0.0121396
0.0119997
0.0118567
0.0117103
0.01156
0.0114057
0.0112468
0.0110836
0.010915
0.0107423
0.0105628
0.0103817
0.0101876
0.0100048
0.00978129
0.0096258
0.014002
0.0144395
0.0141491
0.01409
0.0140031
0.0138987
0.0137888
0.0136714
0.013549
0.0134235
0.0132959
0.0131666
0.0130359
0.012904
0.0127708
0.0126361
0.0124996
0.0123611
0.0122202
0.0120768
0.0119303
0.0117806
0.0116273
0.0114701
0.011309
0.0111434
0.0109735
0.0107986
0.01062
0.0104348
0.0102488
0.01005
0.009864
0.00963691
0.00948107
0.0139432
0.0143967
0.0141301
0.0140819
0.0140005
0.0138975
0.0137867
0.0136673
0.0135422
0.0134137
0.0132825
0.0131496
0.013015
0.0128789
0.0127412
0.0126017
0.0124603
0.0123166
0.0121704
0.0120213
0.0118692
0.0117136
0.0115545
0.0113915
0.0112246
0.0110534
0.0108782
0.0106982
0.0105148
0.0103253
0.0101355
0.0099332
0.00974475
0.00951462
0.00935849
0.013873
0.0143539
0.0141128
0.0140768
0.0140011
0.013899
0.0137871
0.0136655
0.0135377
0.013406
0.0132716
0.0131352
0.012997
0.0128571
0.0127154
0.0125718
0.012426
0.0122778
0.0121269
0.011973
0.0118159
0.0116554
0.0114913
0.0113233
0.0111516
0.0109757
0.010796
0.0106118
0.0104246
0.0102315
0.0100388
0.00983372
0.00964365
0.00941123
0.00925556
0.0138025
0.0143193
0.0141013
0.0140764
0.0140052
0.0139029
0.0137894
0.0136655
0.013535
0.0134006
0.0132633
0.0131239
0.0129826
0.0128396
0.0126946
0.0125475
0.0123981
0.0122462
0.0120914
0.0119336
0.0117726
0.0116081
0.01144
0.0112681
0.0110926
0.010913
0.0107299
0.0105426
0.0103525
0.0101569
0.00996203
0.009755
0.00956398
0.00932969
0.00917484
0.0137104
0.0142846
0.0140905
0.0140787
0.014012
0.0139092
0.0137938
0.0136673
0.013534
0.0133968
0.0132567
0.0131146
0.0129704
0.0128245
0.0126765
0.0125264
0.0123738
0.0122186
0.0120605
0.0118993
0.0117347
0.0115668
0.0113953
0.0112201
0.0110413
0.0108587
0.0106727
0.0104827
0.0102903
0.0100926
0.00989618
0.00968759
0.00949608
0.00926026
0.00910686
0.0136163
0.0142614
0.0140861
0.0140861
0.0140221
0.0139173
0.0137994
0.0136701
0.0135341
0.0133942
0.0132516
0.0131069
0.0129603
0.0128118
0.0126613
0.0125085
0.0123532
0.0121952
0.0120342
0.0118701
0.0117027
0.0115319
0.0113575
0.0111795
0.0109981
0.010813
0.0106247
0.0104327
0.0102384
0.0100392
0.0098416
0.00963187
0.00944024
0.00920305
0.00905149
0.0134919
0.0142424
0.0140834
0.014097
0.0140352
0.0139278
0.0138069
0.0136745
0.0135356
0.0133931
0.0132481
0.0131011
0.0129522
0.0128014
0.0126486
0.0124935
0.0123358
0.0121754
0.012012
0.0118455
0.0116755
0.0115023
0.0113255
0.0111453
0.0109616
0.0107745
0.0105843
0.0103907
0.010195
0.00999458
0.00979622
0.00958572
0.00939432
0.00915613
0.00900699
0.0133612
0.0142398
0.0140869
0.0141125
0.0140504
0.0139389
0.0138147
0.0136792
0.0135375
0.0133926
0.0132454
0.0130964
0.0129455
0.0127928
0.0126381
0.012481
0.0123214
0.012159
0.0119935
0.011825
0.011653
0.0114778
0.0112991
0.011117
0.0109315
0.0107428
0.0105511
0.0103562
0.0101595
0.00995823
0.00975934
0.00954836
0.0093572
0.00911818
0.00897128
0.0131985
0.0142495
0.0140941
0.014133
0.0140691
0.0139525
0.0138243
0.0136853
0.0135407
0.0133935
0.0132442
0.0130933
0.0129407
0.0127863
0.0126299
0.0124712
0.0123099
0.0121459
0.0119787
0.0118085
0.0116349
0.0114581
0.0112778
0.0110942
0.0109073
0.0107173
0.0105245
0.0103286
0.0101311
0.00992935
0.00973018
0.00951917
0.00932848
0.00908973
0.00894528
0.0130169
0.0142792
0.0141056
0.0141554
0.0140871
0.0139647
0.0138327
0.0136905
0.0135435
0.0133942
0.0132432
0.0130908
0.0129369
0.0127811
0.0126234
0.0124634
0.0123008
0.0121354
0.011967
0.0117954
0.0116206
0.0114424
0.0112609
0.0110761
0.0108882
0.0106972
0.0105036
0.010307
0.0101089
0.00990685
0.00970746
0.00949659
0.00930566
0.00906723
0.00892229
0.0128126
0.0143292
0.0141236
0.0141851
0.0141095
0.0139799
0.0138432
0.0136975
0.0135479
0.0133967
0.0132441
0.0130903
0.0129352
0.0127783
0.0126195
0.0124584
0.0122948
0.0121283
0.0119589
0.0117862
0.0116104
0.0114312
0.0112488
0.0110631
0.0108744
0.0106827
0.0104884
0.0102913
0.010093
0.00989086
0.00969153
0.00948142
0.00929082
0.00905552
0.00891075
0.0125723
0.0144019
0.014141
0.0142109
0.014127
0.0139914
0.0138513
0.0137029
0.0135514
0.0133987
0.013245
0.0130902
0.0129341
0.0127764
0.0126168
0.0124549
0.0122905
0.0121233
0.0119531
0.0117797
0.0116032
0.0114233
0.0112402
0.0110538
0.0108646
0.0106723
0.0104777
0.0102803
0.0100818
0.00987963
0.00968019
0.00947079
0.0092785
0.0090451
0.00888995
0.0123249
0.0144925
0.0141693
0.0142477
0.014152
0.0140088
0.0138639
0.0137121
0.0135583
0.0134039
0.0132489
0.013093
0.012936
0.0127775
0.0126172
0.0124546
0.0122897
0.0121218
0.0119511
0.0117771
0.0116001
0.0114196
0.0112362
0.0110493
0.0108598
0.0106671
0.0104724
0.0102747
0.0100762
0.0098742
0.00967516
0.00946712
0.00927612
0.00904989
0.00889664
0.0120551
0.0146013
0.0141938
0.0142777
0.0141706
0.0140214
0.013873
0.0137189
0.0135634
0.0134079
0.013252
0.0130953
0.0129378
0.0127787
0.012618
0.012455
0.0122896
0.0121213
0.0119503
0.0117759
0.0115986
0.0114179
0.0112342
0.0110471
0.0108574
0.0106645
0.0104697
0.0102718
0.0100735
0.00987154
0.00967246
0.00946542
0.00927133
0.00904829
0.00886248
0.0118242
0.0147162
0.0142392
0.014319
0.0141969
0.0140396
0.0138861
0.0137287
0.013571
0.0134139
0.0132569
0.0130994
0.0129412
0.0127817
0.0126206
0.0124573
0.0122917
0.0121232
0.011952
0.0117776
0.0116002
0.0114193
0.0112356
0.0110484
0.0108587
0.0106658
0.0104711