/*--------------------------------*- C++ -*----------------------------------*\
  =========                 |
  \\      /  F ield         | OpenFOAM: The Open Source CFD Toolbox
   \\    /   O peration     | Website:  https://openfoam.org
    \\  /    A nd           | Version:  6
     \\/     M anipulation  |
\*---------------------------------------------------------------------------*/
FoamFile
{
    version     2.0;
    format      ascii;
    class       volVectorField;
    location    "23";
    object      wallShearStress;
}
// * * * * * * * * * * * * * * * * * * * * * * * * * * * * * * * * * * * * * //

dimensions      [0 2 -2 0 0 0 0];

internalField   uniform (0 0 0);

boundaryField
{
    inlet
    {
        type            calculated;
        value           uniform (0 0 0);
    }
    outlet
    {
        type            calculated;
        value           uniform (0 0 0);
    }
    roughCylinder
    {
        type            calculated;
        value           nonuniform List<vector> 
3840
(
(-0.000270632 -0.000396797 -0.000163012)
(-0.000326989 -0.000510213 -2.23362e-05)
(-0.000376131 -0.000631767 4.16021e-05)
(-0.000451217 -0.000735295 0.000123568)
(-0.000539274 -0.000809393 0.000206051)
(-0.000630608 -0.000849806 0.000278218)
(-0.00071555 -0.000860599 0.000334957)
(-0.000789337 -0.000853108 0.000374819)
(-0.000852433 -0.000846696 0.00040211)
(-0.000901069 -0.0008453 0.000416443)
(-0.000939783 -0.000852948 0.00041981)
(-0.000971957 -0.000868088 0.000414372)
(-0.00100067 -0.000889115 0.000402677)
(-0.00102885 -0.000914533 0.000386796)
(-0.00105851 -0.000943404 0.000368158)
(-0.00109077 -0.000975215 0.000347418)
(-0.00112597 -0.00100964 0.000324654)
(-0.00116395 -0.00104636 0.000299562)
(-0.00120417 -0.00108483 0.000271552)
(-0.00124584 -0.00112426 0.000239748)
(-0.0012878 -0.00116341 0.00020275)
(-0.00132812 -0.0012003 0.00015837)
(-0.00136289 -0.00123177 0.00010295)
(-0.00138486 -0.00125177 3.57943e-05)
(-0.00029011 -0.000384416 -0.000155632)
(-0.000349882 -0.000494737 -2.6208e-05)
(-0.000401637 -0.000615844 3.30994e-05)
(-0.000479046 -0.00072059 0.000111549)
(-0.000569029 -0.000797283 0.000192061)
(-0.000662336 -0.000840673 0.000263154)
(-0.000750284 -0.000855575 0.000319863)
(-0.000828995 -0.00085421 0.000361759)
(-0.000897032 -0.000851001 0.000391586)
(-0.000949671 -0.000848407 0.000407443)
(-0.000990366 -0.000854716 0.000411463)
(-0.00102449 -0.000869201 0.000406343)
(-0.00105509 -0.000890019 0.000394883)
(-0.00108518 -0.000915454 0.000379226)
(-0.00111683 -0.000944443 0.000360876)
(-0.00115118 -0.000976378 0.000340512)
(-0.00118857 -0.0010109 0.000318228)
(-0.0012288 -0.00104766 0.000293712)
(-0.00127129 -0.00108611 0.000266363)
(-0.00131523 -0.00112546 0.000235291)
(-0.00135938 -0.00116447 0.000199098)
(-0.00140173 -0.00120119 0.000155608)
(-0.0014382 -0.00123248 0.000101199)
(-0.0014612 -0.00125232 3.51915e-05)
(-0.000309737 -0.000366752 -0.000142725)
(-0.000372194 -0.000473687 -3.06626e-05)
(-0.000426341 -0.000593238 2.38012e-05)
(-0.000505576 -0.000698475 9.83392e-05)
(-0.000597353 -0.000777585 0.000176582)
(-0.000692976 -0.000824664 0.000246726)
(-0.000784633 -0.000844813 0.00030407)
(-0.000868257 -0.000849397 0.000348084)
(-0.000940854 -0.000849125 0.000379799)
(-0.000998181 -0.000846555 0.000397338)
(-0.00104098 -0.000851165 0.000401994)
(-0.00107712 -0.000864788 0.000397212)
(-0.00110972 -0.000885174 0.000386053)
(-0.00114183 -0.000910428 0.000370705)
(-0.00117554 -0.000939315 0.000352716)
(-0.00121203 -0.000971151 0.000332813)
(-0.00125164 -0.00100553 0.000311088)
(-0.00129413 -0.00104208 0.000287229)
(-0.0013389 -0.00108025 0.000260621)
(-0.00138507 -0.00111924 0.000230362)
(-0.00143138 -0.00115785 0.000195058)
(-0.00147571 -0.00119413 0.000152548)
(-0.00151385 -0.00122503 9.92595e-05)
(-0.00153784 -0.00124455 3.45241e-05)
(-0.000327145 -0.000344628 -0.000126061)
(-0.000391496 -0.000447569 -3.52978e-05)
(-0.000447503 -0.000564626 1.40644e-05)
(-0.000528002 -0.000669833 8.43454e-05)
(-0.000621517 -0.000751373 0.000160003)
(-0.000719829 -0.000802791 0.000229176)
(-0.000815522 -0.000828832 0.000287367)
(-0.000903973 -0.000839121 0.000333419)
(-0.000981244 -0.000841929 0.000366882)
(-0.00104366 -0.0008407 0.000386281)
(-0.00108927 -0.000843136 0.000391601)
(-0.00112756 -0.000855696 0.000387276)
(-0.00116231 -0.000875466 0.000376505)
(-0.0011965 -0.000900352 0.000361544)
(-0.00123233 -0.000928988 0.000344006)
(-0.00127098 -0.000960559 0.000324636)
(-0.00131277 -0.000994609 0.000303539)
(-0.00135746 -0.00103074 0.0002804)
(-0.00140441 -0.00106841 0.000254592)
(-0.00145271 -0.00110683 0.000225196)
(-0.00150105 -0.00114481 0.000190828)
(-0.00154723 -0.00118045 0.000149346)
(-0.0015869 -0.00121075 9.72317e-05)
(-0.00161182 -0.00122987 3.38277e-05)
(-0.000341574 -0.000318803 -0.000107416)
(-0.000407215 -0.000417217 -3.97756e-05)
(-0.00046436 -0.000530821 4.23377e-06)
(-0.000545484 -0.000635375 6.98925e-05)
(-0.000640618 -0.000719203 0.000142587)
(-0.000741848 -0.00077525 0.000210613)
(-0.000841722 -0.000807293 0.000269555)
(-0.000934946 -0.00082297 0.000317477)
(-0.00101699 -0.000828899 0.00035272)
(-0.00108402 -0.000829163 0.000373685)
(-0.00113414 -0.000830082 0.000380161)
(-0.00117481 -0.00084138 0.00037655)
(-0.00121185 -0.000860258 0.000366262)
(-0.00124824 -0.000884594 0.000351809)
(-0.00128619 -0.000912757 0.000334808)
(-0.00132696 -0.000943852 0.00031605)
(-0.00137087 -0.000977365 0.000295654)
(-0.00141766 -0.00101286 0.000273298)
(-0.00146667 -0.00104979 0.000248346)
(-0.00151693 -0.0010874 0.00021986)
(-0.00156713 -0.00112452 0.000186467)
(-0.00161499 -0.00115928 0.000146048)
(-0.00165607 -0.00118881 9.5147e-05)
(-0.00168178 -0.00120739 3.31134e-05)
(-0.00035271 -0.000290409 -8.80121e-05)
(-0.000418649 -0.000383415 -4.3909e-05)
(-0.000476145 -0.000492747 -5.46473e-06)
(-0.000557299 -0.000596079 5.51791e-05)
(-0.00065393 -0.000682052 0.000124473)
(-0.000758252 -0.000742835 0.000191087)
(-0.000862421 -0.000780691 0.000250545)
(-0.000960416 -0.000801308 0.000300089)
(-0.00104727 -0.000810205 0.000337078)
(-0.00111916 -0.000812054 0.000359535)
(-0.00117503 -0.000813063 0.000367746)
(-0.00121844 -0.000822041 0.000364938)
(-0.00125796 -0.000839801 0.000355304)
(-0.00129662 -0.000863266 0.000341474)
(-0.00133676 -0.000890758 0.000325128)
(-0.00137963 -0.000921169 0.00030708)
(-0.00142558 -0.000953913 0.000287461)
(-0.00147435 -0.000988541 0.000265955)
(-0.00152524 -0.0010245 0.000241912)
(-0.00157726 -0.00106104 0.000214377)
(-0.00162912 -0.00109707 0.000181992)
(-0.00167848 -0.00113075 0.000142668)
(-0.00172077 -0.00115931 9.30128e-05)
(-0.00174716 -0.00117725 3.23842e-05)
(-0.000359404 -0.000259872 -6.86286e-05)
(-0.000425273 -0.000347227 -4.74988e-05)
(-0.000482294 -0.000451477 -1.48316e-05)
(-0.000562713 -0.000552918 4.036e-05)
(-0.000660447 -0.000640634 0.000105734)
(-0.00076774 -0.000705909 0.000170512)
(-0.000876249 -0.00074926 0.000230129)
(-0.000979205 -0.000774528 0.00028104)
(-0.0010712 -0.000786399 0.000319776)
(-0.00114826 -0.000789896 0.000343867)
(-0.00120961 -0.000791592 0.000353796)
(-0.0012577 -0.000798653 0.000352305)
(-0.00129994 -0.000814664 0.000343563)
(-0.00134109 -0.000837066 0.00033054)
(-0.00138343 -0.000863587 0.000314962)
(-0.00142837 -0.000893083 0.000297724)
(-0.00147628 -0.000924857 0.000278973)
(-0.00152689 -0.000958418 0.000258387)
(-0.00157948 -0.000993207 0.000235312)
(-0.00163307 -0.00102849 0.000208772)
(-0.00168637 -0.00106322 0.000177425)
(-0.00173699 -0.00109561 0.00013922)
(-0.00178033 -0.00112304 9.08408e-05)
(-0.00180724 -0.00114022 3.16441e-05)
(-0.000362251 -0.0002287 -5.00566e-05)
(-0.000426485 -0.000309421 -5.0558e-05)
(-0.000481955 -0.000407752 -2.36488e-05)
(-0.000560741 -0.000506437 2.56651e-05)
(-0.000659069 -0.000595359 8.64958e-05)
(-0.000769245 -0.000664874 0.000148901)
(-0.000882152 -0.000713407 0.000208219)
(-0.00099022 -0.000743028 0.000260167)
(-0.00108754 -0.000757752 0.000300543)
(-0.00117021 -0.000763033 0.000326489)
(-0.00123715 -0.000765543 0.000338196)
(-0.0012909 -0.000771869 0.000338443)
(-0.0013369 -0.000785764 0.000330969)
(-0.00138068 -0.000806313 0.00031891)
(-0.00142535 -0.000831687 0.00030429)
(-0.00147235 -0.000860057 0.000287985)
(-0.0015221 -0.000890652 0.000270195)
(-0.00157436 -0.000922934 0.000250606)
(-0.00162843 -0.00095633 0.000228556)
(-0.00168329 -0.000990194 0.00020305)
(-0.00173772 -0.00102353 0.000172772)
(-0.00178935 -0.00105454 0.000135714)
(-0.0018335 -0.00108074 8.86359e-05)
(-0.00186078 -0.00109716 3.08963e-05)
(-0.000358556 -0.000196155 -3.25252e-05)
(-0.000421455 -0.000270359 -5.26724e-05)
(-0.000474609 -0.000362146 -3.17658e-05)
(-0.000550799 -0.00045735 1.12712e-05)
(-0.000648915 -0.000546692 6.69346e-05)
(-0.000761449 -0.000619808 0.000126254)
(-0.000878631 -0.00067312 0.000184656)
(-0.000992057 -0.00070696 0.000237257)
(-0.0010953 -0.000724712 0.000279215)
(-0.00118392 -0.000731812 0.000307156)
(-0.00125679 -0.000735214 0.000320904)
(-0.00131613 -0.000741289 0.000323062)
(-0.001367 -0.000753745 0.000317252)
(-0.00141458 -0.000772646 0.000306645)
(-0.00146157 -0.000796284 0.000293141)
(-0.00151059 -0.000823228 0.000277903)
(-0.00156206 -0.000852482 0.000261188)
(-0.00161578 -0.000883399 0.00024268)
(-0.00167106 -0.000915386 0.000221721)
(-0.00172683 -0.000947744 0.000197279)
(-0.00178192 -0.00097948 0.000168068)
(-0.00183411 -0.00100892 0.000132158)
(-0.00187875 -0.00103376 8.64012e-05)
(-0.00190605 -0.00104929 3.0139e-05)
(-0.00035166 -0.00016477 -1.67925e-05)
(-0.000410327 -0.000231532 -5.45073e-05)
(-0.000459797 -0.000315927 -3.87066e-05)
(-0.00053209 -0.000406264 -2.32171e-06)
(-0.000628964 -0.000494982 4.7344e-05)
(-0.000743469 -0.000571184 0.000102737)
(-0.000864894 -0.000628994 0.000159507)
(-0.00098389 -0.000666953 0.000212283)
(-0.0010932 -0.000687597 0.000255585)
(-0.00118832 -0.000696628 0.000285636)
(-0.00126752 -0.000700953 0.000301714)
(-0.00133267 -0.00070687 0.000306061)
(-0.00138851 -0.000718281 0.000302197)
(-0.00143986 -0.000735659 0.000293244)
(-0.00148981 -0.000757576 0.000281173)
(-0.00154095 -0.000782919 0.00026723)
(-0.00159391 -0.000810586 0.000251719)
(-0.00164866 -0.000839879 0.000234373)
(-0.00170456 -0.000870184 0.000214548)
(-0.00176065 -0.000900759 0.000191197)
(-0.00181597 -0.000930639 0.000163094)
(-0.00186839 -0.000958338 0.000128392)
(-0.00191316 -0.000981665 8.40322e-05)
(-0.0019403 -0.00099619 2.93374e-05)
(-0.00033509 -0.00013401 -2.8797e-06)
(-0.00039248 -0.000191655 -5.37777e-05)
(-0.000437109 -0.000268849 -4.48678e-05)
(-0.000504387 -0.000353773 -1.51563e-05)
(-0.000598724 -0.000440852 2.8046e-05)
(-0.000714126 -0.000519159 7.85437e-05)
(-0.000839429 -0.000581075 0.000132758)
(-0.000964106 -0.000623123 0.000185092)
(-0.00108027 -0.000647017 0.000229567)
(-0.00118235 -0.000657994 0.000261753)
(-0.00126837 -0.000663218 0.000280415)
(-0.00133977 -0.000669019 0.000287301)
(-0.00140073 -0.000679372 0.00028567)
(-0.00145608 -0.000695222 0.000278637)
(-0.00150892 -0.000715339 0.000268216)
(-0.00156208 -0.00073889 0.000255761)
(-0.00161639 -0.000764745 0.000241615)
(-0.00167192 -0.000792179 0.000225549)
(-0.00172813 -0.000820555 0.00020695)
(-0.0017842 -0.00084914 0.000184759)
(-0.00183942 -0.000877029 0.000157829)
(-0.00189164 -0.000902825 0.000124401)
(-0.00193627 -0.000924538 8.15211e-05)
(-0.001963 -0.00093799 2.84891e-05)
(-0.000313212 -0.000105843 5.38865e-06)
(-0.000370336 -0.000156289 -5.02223e-05)
(-0.000407974 -0.000222608 -4.90067e-05)
(-0.000467596 -0.000300807 -2.6461e-05)
(-0.00055738 -0.000384662 9.51937e-06)
(-0.000672785 -0.000464282 5.40692e-05)
(-0.00080156 -0.000529986 0.000104674)
(-0.000932161 -0.000576282 0.000155838)
(-0.0010552 -0.000603381 0.000201044)
(-0.00116489 -0.000616485 0.00023537)
(-0.0012583 -0.000622574 0.000256831)
(-0.00133633 -0.000628145 0.00026658)
(-0.00140291 -0.000637436 0.000267566)
(-0.00146239 -0.000651593 0.000262744)
(-0.00151834 -0.000669843 0.00025426)
(-0.00157354 -0.000691446 0.000243514)
(-0.00162901 -0.000715289 0.000230895)
(-0.00168502 -0.000740666 0.000216235)
(-0.00174113 -0.000766906 0.000198953)
(-0.00179668 -0.000793318 0.000177984)
(-0.00185128 -0.000819028 0.000152276)
(-0.00190292 -0.000842831 0.000120187)
(-0.00194699 -0.000862815 7.88675e-05)
(-0.00197304 -0.000875117 2.75946e-05)
(-0.000281966 -7.72311e-05 1.2714e-05)
(-0.00034079 -0.000123814 -4.83533e-05)
(-0.000371199 -0.00017909 -5.07525e-05)
(-0.000421885 -0.000248974 -3.52086e-05)
(-0.000505465 -0.000327862 -7.34154e-06)
(-0.000618802 -0.000407078 2.99885e-05)
(-0.000750286 -0.000476004 7.56614e-05)
(-0.000886454 -0.000526458 0.000124613)
(-0.0010172 -0.000557357 0.000170106)
(-0.00113489 -0.00057271 0.00020642)
(-0.00123627 -0.000579682 0.000230851)
(-0.00132158 -0.000584973 0.000243821)
(-0.00139403 -0.00059299 0.000247769)
(-0.0014581 -0.000605371 0.000245548)
(-0.00151714 -0.000621524 0.000239277)
(-0.00157426 -0.000640965 0.000230463)
(-0.00163072 -0.000662638 0.00021956)
(-0.0016869 -0.000685795 0.000206441)
(-0.00174255 -0.000709787 0.000190581)
(-0.00179714 -0.000733934 0.000170905)
(-0.00185076 -0.000757423 0.000146474)
(-0.00190131 -0.000779129 0.000115774)
(-0.0019445 -0.000797356 7.60917e-05)
(-0.00196963 -0.000808497 2.66624e-05)
(-0.000245777 -5.09141e-05 1.88863e-05)
(-0.000305238 -9.46309e-05 -4.74051e-05)
(-0.000328759 -0.000139781 -5.07941e-05)
(-0.000368114 -0.000199279 -4.11972e-05)
(-0.000442071 -0.000270561 -2.17435e-05)
(-0.000551919 -0.000348037 7.19638e-06)
(-0.000684798 -0.000419333 4.63807e-05)
(-0.000826752 -0.000474328 9.19237e-05)
(-0.000964926 -0.000509137 0.000136867)
(-0.00109144 -0.000527266 0.000174951)
(-0.0012014 -0.000535276 0.000202447)
(-0.00129433 -0.000540135 0.000218906)
(-0.0013733 -0.000546811 0.000226242)
(-0.00144208 -0.000557153 0.000226973)
(-0.00150455 -0.000571131 0.000223279)
(-0.00156371 -0.000588293 0.000216679)
(-0.00162091 -0.000607633 0.000207681)
(-0.0016769 -0.000628456 0.000196234)
(-0.00173154 -0.000650082 0.000181884)
(-0.00178458 -0.000671871 0.000163548)
(-0.00183657 -0.00069304 0.000140421)
(-0.00188561 -0.000712646 0.000111166)
(-0.00192745 -0.000729059 7.31901e-05)
(-0.0019513 -0.00073902 2.56898e-05)
(-0.000201908 -2.79901e-05 2.32361e-05)
(-0.000260269 -6.74886e-05 -4.53082e-05)
(-0.000278787 -0.00010392 -4.91126e-05)
(-0.000307855 -0.000152914 -4.40382e-05)
(-0.000371299 -0.000215606 -3.26965e-05)
(-0.000473117 -0.000288021 -1.31798e-05)
(-0.00060604 -0.000360826 1.78991e-05)
(-0.000752312 -0.00041988 5.84094e-05)
(-0.000898583 -0.00045947 0.000101872)
(-0.00103378 -0.000480651 0.000141169)
(-0.00115273 -0.000489976 0.00017167)
(-0.00125409 -0.000494587 0.000191899)
(-0.00133975 -0.000499716 0.000202945)
(-0.00141382 -0.000507965 0.000207062)
(-0.00147964 -0.000519508 0.000206256)
(-0.00154059 -0.000534181 0.000202123)
(-0.00159835 -0.000551096 0.000195242)
(-0.00165378 -0.000569527 0.00018561)
(-0.00170703 -0.000588781 0.000172877)
(-0.001758 -0.00060825 0.000155932)
(-0.001808 -0.000627167 0.000134149)
(-0.00185496 -0.000644667 0.000106378)
(-0.00189511 -0.000659323 7.0178e-05)
(-0.00191746 -0.00066818 2.46854e-05)
(-0.000156041 -1.02224e-05 2.55983e-05)
(-0.000212484 -4.47807e-05 -4.26227e-05)
(-0.000227535 -7.38517e-05 -4.70007e-05)
(-0.000243683 -0.000111107 -4.45645e-05)
(-0.000287571 -0.000160312 -3.90029e-05)
(-0.000383149 -0.000227519 -2.89146e-05)
(-0.000512653 -0.000299166 -8.28666e-06)
(-0.000663223 -0.000363004 2.52953e-05)
(-0.000816534 -0.000407688 6.57402e-05)
(-0.000961411 -0.00043315 0.000105546)
(-0.00108991 -0.000444445 0.000138796)
(-0.00119972 -0.000448926 0.00016283)
(-0.0012928 -0.00045267 0.000177938)
(-0.0013721 -0.000458615 0.00018576)
(-0.00144167 -0.000467709 0.00018823)
(-0.00150462 -0.000479882 0.000186886)
(-0.00156263 -0.000494299 0.000182324)
(-0.00161704 -0.000510307 0.000174633)
(-0.00166821 -0.000527165 0.000163587)
(-0.00171645 -0.000544367 0.000148069)
(-0.0017637 -0.000561022 0.000127634)
(-0.00180812 -0.000576513 0.000101396)
(-0.00184603 -0.000589421 6.70396e-05)
(-0.00186642 -0.000597202 2.36406e-05)
(-0.000103209 3.49569e-06 2.5745e-05)
(-0.000154094 -2.40813e-05 -3.72524e-05)
(-0.000167507 -4.67109e-05 -4.16862e-05)
(-0.000178575 -7.36231e-05 -3.66224e-05)
(-0.000225005 -0.000111008 -3.8675e-05)
(-0.000288369 -0.000165489 -4.35177e-05)
(-0.00041076 -0.00023785 -3.09866e-05)
(-0.000561255 -0.000303914 -5.94075e-06)
(-0.000721473 -0.000354778 2.98974e-05)
(-0.000874549 -0.000384911 6.89159e-05)
(-0.00101231 -0.000398905 0.000104268)
(-0.00113129 -0.000403997 0.000132031)
(-0.00123162 -0.000406444 0.000151304)
(-0.00131686 -0.000410302 0.000163203)
(-0.00138994 -0.000416812 0.000169234)
(-0.00145439 -0.000426325 0.000170911)
(-0.00151238 -0.000438257 0.000168882)
(-0.00156539 -0.000451913 0.00016327)
(-0.00161417 -0.000466528 0.000154024)
(-0.00165898 -0.000481587 0.000139958)
(-0.00170315 -0.000496175 0.000120898)
(-0.0017444 -0.000509737 9.62253e-05)
(-0.00177982 -0.000521052 6.37872e-05)
(-0.00179804 -0.000527902 2.25639e-05)
(-5.90229e-05 1.10578e-05 2.57008e-05)
(-0.00010483 -1.04812e-05 -3.23132e-05)
(-0.000122593 -2.71541e-05 -3.85345e-05)
(-0.000127312 -4.40873e-05 -4.79758e-05)
(-0.000123038 -8.41963e-05 -3.98637e-05)
(-0.0001951 -0.000117108 -3.04345e-05)
(-0.000295772 -0.000169182 -4.38551e-05)
(-0.000446719 -0.000241857 -3.2188e-05)
(-0.000611101 -0.000298337 -3.78416e-06)
(-0.000773213 -0.000335367 3.25987e-05)
(-0.00092058 -0.000353629 6.8969e-05)
(-0.00104804 -0.000359979 9.98842e-05)
(-0.00115627 -0.000361865 0.000123331)
(-0.00124686 -0.000363683 0.000139415)
(-0.00132377 -0.000367826 0.000149317)
(-0.00139008 -0.000374898 0.000154335)
(-0.00144767 -0.00038441 0.000155024)
(-0.00149861 -0.000395788 0.000151582)
(-0.00154398 -0.000408175 0.000144166)
(-0.00158483 -0.00042132 0.000131585)
(-0.00162507 -0.000433904 0.000113879)
(-0.00166272 -0.000445732 9.08272e-05)
(-0.00169489 -0.000455504 6.03787e-05)
(-0.00171049 -0.000461515 2.1438e-05)
(-1.26605e-05 1.08311e-05 1.96545e-05)
(-4.02037e-05 2.35619e-06 -2.40372e-05)
(-5.24775e-05 -1.10683e-05 -3.98121e-05)
(-5.53088e-05 -3.10006e-05 -4.30746e-05)
(-4.75015e-05 -4.73849e-05 -2.78245e-05)
(-8.85791e-05 -6.63318e-05 -1.93725e-05)
(-0.000203803 -0.000109137 -4.14518e-05)
(-0.000326897 -0.000172012 -5.25376e-05)
(-0.00049238 -0.000240781 -3.30431e-05)
(-0.000659718 -0.000284382 -1.50073e-06)
(-0.000814751 -0.000308046 3.40564e-05)
(-0.000951104 -0.000317288 6.72151e-05)
(-0.00106627 -0.000319228 9.43749e-05)
(-0.00116301 -0.000319795 0.000114741)
(-0.00124321 -0.000321759 0.000128635)
(-0.00131033 -0.00032638 0.000137105)
(-0.00136707 -0.000333646 0.000140674)
(-0.00141562 -0.000342995 0.00013951)
(-0.00145771 -0.000353501 0.000134053)
(-0.00149346 -0.000364876 0.000122925)
(-0.00152955 -0.000375737 0.000106588)
(-0.00156294 -0.000385975 8.51925e-05)
(-0.00159189 -0.000394459 5.68328e-05)
(-0.00160455 -0.000399796 2.0271e-05)
(1.16353e-05 1.03131e-05 1.18682e-05)
(1.21488e-07 3.12182e-07 -1.77898e-05)
(-1.421e-05 -8.12107e-06 -2.89843e-05)
(-1.92983e-05 -1.54596e-05 -2.76116e-05)
(-2.6292e-05 -1.88904e-05 -2.38208e-05)
(-4.94548e-05 -3.75589e-05 -3.56776e-05)
(-7.21194e-05 -5.1348e-05 -2.44191e-05)
(-0.000230779 -0.000112021 -4.45649e-05)
(-0.000363588 -0.000171599 -5.42531e-05)
(-0.000534474 -0.000231199 -3.10945e-05)
(-0.000697211 -0.000262121 1.33713e-06)
(-0.000840459 -0.000275321 3.50023e-05)
(-0.00096303 -0.00027892 6.51448e-05)
(-0.00106426 -0.000278706 8.93942e-05)
(-0.00114772 -0.000279135 0.000107316)
(-0.00121628 -0.000281924 0.000119447)
(-0.00127167 -0.000287225 0.000125997)
(-0.00131685 -0.000294729 0.000127105)
(-0.00135392 -0.000303294 0.00012354)
(-0.00138464 -0.00031335 0.00011393)
(-0.00141572 -0.000322605 9.89181e-05)
(-0.00144442 -0.000331459 7.92459e-05)
(-0.00146917 -0.000338651 5.30627e-05)
(-0.00147864 -0.000343493 1.90331e-05)
(3.20391e-05 8.09651e-06 2.1644e-05)
(2.99801e-05 4.23252e-06 4.79022e-07)
(1.18984e-05 8.30647e-06 4.23724e-06)
(-1.8665e-05 2.21808e-05 -1.51361e-05)
(-1.27124e-05 2.0267e-06 -3.27293e-05)
(-1.53931e-05 -1.3305e-05 -3.1819e-05)
(-4.4747e-05 -4.23135e-05 -5.12659e-05)
(-8.26402e-05 -7.60201e-05 -3.30237e-05)
(-0.000268906 -0.000122137 -3.80082e-05)
(-0.000402113 -0.000169225 -5.24934e-05)
(-0.00056846 -0.000214465 -2.73462e-05)
(-0.000719042 -0.000234038 4.78493e-06)
(-0.000846527 -0.000240333 3.64484e-05)
(-0.000953239 -0.00024095 6.40697e-05)
(-0.00103896 -0.000240532 8.57515e-05)
(-0.00110693 -0.00024171 0.000101359)
(-0.00116023 -0.000245428 0.000110893)
(-0.00120191 -0.00025155 0.000114292)
(-0.00123515 -0.000258758 0.00011278)
(-0.00125882 -0.000267475 0.000104545)
(-0.00128484 -0.000275422 9.08604e-05)
(-0.00130861 -0.000283109 7.29814e-05)
(-0.00132948 -0.00028926 4.91059e-05)
(-0.00133529 -0.000293739 1.77335e-05)
(4.35121e-05 1.32806e-05 3.01232e-05)
(5.04008e-05 7.47782e-06 -8.59648e-06)
(4.53649e-05 -8.37057e-07 -1.19893e-05)
(3.12287e-05 -1.22464e-05 -1.78048e-05)
(2.84589e-05 -1.54924e-05 -2.18885e-05)
(1.29545e-05 -1.30459e-05 -2.19262e-05)
(-2.93199e-05 -1.68138e-05 -4.2286e-05)
(-4.99549e-05 -3.75854e-05 -5.68125e-05)
(-0.000107796 -0.000105951 -4.27598e-05)
(-0.000288894 -0.000121371 -3.26e-05)
(-0.000436622 -0.000161982 -5.01039e-05)
(-0.000587727 -0.000192012 -2.215e-05)
(-0.000720712 -0.000203463 9.59597e-06)
(-0.000829414 -0.000205604 3.93348e-05)
(-0.000916727 -0.000205515 6.42445e-05)
(-0.000985137 -0.000206236 8.32262e-05)
(-0.00103575 -0.000208894 9.56376e-05)
(-0.00107247 -0.000213892 0.000101119)
(-0.00109895 -0.000219411 0.000101393)
(-0.00111697 -0.000227428 9.46813e-05)
(-0.00113732 -0.000234229 8.22698e-05)
(-0.00115516 -0.00024071 6.62399e-05)
(-0.00117139 -0.000245698 4.48116e-05)
(-0.00117357 -0.000250046 1.63218e-05)
(5.61699e-05 1.48622e-05 3.44436e-05)
(7.07829e-05 8.86724e-06 -1.12804e-05)
(7.41385e-05 1.56244e-06 -1.87766e-05)
(7.01755e-05 -1.02775e-05 -2.15822e-05)
(6.32846e-05 -2.03143e-05 -1.97168e-05)
(4.74573e-05 -2.26976e-05 -9.83886e-06)
(1.29668e-05 -1.70716e-05 -1.16108e-05)
(-5.58995e-05 -5.61685e-06 -4.60413e-05)
(-6.41018e-05 -4.23222e-05 -6.30627e-05)
(-0.000138077 -8.32323e-05 -4.34334e-05)
(-0.000302176 -0.000118097 -4.95068e-05)
(-0.000454092 -0.000149195 -4.19047e-05)
(-0.00058617 -0.000166759 -1.41442e-05)
(-0.000698163 -0.000172681 1.63265e-05)
(-0.000785224 -0.000173959 4.35146e-05)
(-0.000850522 -0.000174589 6.51371e-05)
(-0.000897336 -0.000176706 8.01028e-05)
(-0.000929396 -0.000181249 8.74959e-05)
(-0.000952165 -0.000185849 8.97509e-05)
(-0.000961221 -0.00019267 8.42497e-05)
(-0.000975991 -0.000198622 7.31082e-05)
(-0.000989498 -0.000204337 5.91086e-05)
(-0.00100107 -0.000207992 4.02561e-05)
(-0.000999319 -0.000212329 1.48185e-05)
(6.61809e-05 1.33658e-05 3.55118e-05)
(8.62062e-05 7.36649e-06 -1.10733e-05)
(9.44727e-05 -1.94318e-07 -1.96069e-05)
(9.57562e-05 -1.20633e-05 -2.35992e-05)
(9.06999e-05 -2.35391e-05 -2.3488e-05)
(7.81239e-05 -3.1628e-05 -1.87219e-05)
(5.25721e-05 -3.12274e-05 -1.03699e-05)
(1.5649e-05 -2.91246e-05 -1.04151e-05)
(-5.85259e-05 2.3754e-05 -4.80322e-05)
(-7.52012e-05 -5.40716e-05 -6.48702e-05)
(-0.000168584 -7.50699e-05 -3.78785e-05)
(-0.000311068 -0.000102446 -5.18222e-05)
(-0.000449969 -0.000130635 -3.25559e-05)
(-0.000559605 -0.000140241 -3.91415e-06)
(-0.0006451 -0.000144378 2.4175e-05)
(-0.00070915 -0.000146559 4.77419e-05)
(-0.000751505 -0.000148722 6.47719e-05)
(-0.000776808 -0.000152979 7.3513e-05)
(-0.00079154 -0.000155871 7.71858e-05)
(-0.000794989 -0.000161948 7.31652e-05)
(-0.000804336 -0.000167496 6.32515e-05)
(-0.000810054 -0.000171578 5.1228e-05)
(-0.000817823 -0.000173292 3.52219e-05)
(-0.000812222 -0.000178066 1.31274e-05)
(7.17741e-05 1.18814e-05 3.57361e-05)
(9.54902e-05 5.91239e-06 -1.05089e-05)
(0.000106893 -7.131e-07 -2.00047e-05)
(0.000111143 -1.2074e-05 -2.52528e-05)
(0.000108903 -2.4062e-05 -2.65425e-05)
(0.000100248 -3.39633e-05 -2.40064e-05)
(8.37191e-05 -4.02689e-05 -1.94103e-05)
(5.62005e-05 -3.45042e-05 -1.4087e-05)
(-1.59166e-05 -3.49378e-05 -2.75578e-05)
(-4.16983e-05 -8.64442e-06 -3.86586e-05)
(-7.11113e-05 -2.98588e-05 -3.09254e-05)
(-0.000205406 -5.47565e-05 -5.04697e-05)
(-0.000314927 -9.0937e-05 -4.75941e-05)
(-0.000423842 -0.0001093 -2.03638e-05)
(-0.000503886 -0.000116218 7.1747e-06)
(-0.000560738 -0.000120006 3.12009e-05)
(-0.000597142 -0.000122355 4.94775e-05)
(-0.000617015 -0.000127219 5.91058e-05)
(-0.000629003 -0.000129023 6.43407e-05)
(-0.000622343 -0.000132717 6.12858e-05)
(-0.000626685 -0.000138807 5.26837e-05)
(-0.000631816 -0.000142354 4.30777e-05)
(-0.000634752 -0.000142199 2.98725e-05)
(-0.000624447 -0.000145772 1.13106e-05)
(7.12683e-05 9.59234e-06 3.49886e-05)
(9.72315e-05 4.40842e-06 -9.05793e-06)
(0.000109903 -1.09257e-06 -1.9204e-05)
(0.000116861 -1.16444e-05 -2.54569e-05)
(0.000117638 -2.40057e-05 -2.78153e-05)
(0.00011251 -3.5531e-05 -2.62172e-05)
(0.000100933 -4.46976e-05 -2.10797e-05)
(8.21173e-05 -4.75083e-05 -1.1922e-05)
(4.73346e-05 -4.26934e-05 4.35442e-06)
(-3.5002e-05 1.78094e-05 -1.9784e-05)
(-3.08979e-05 -4.27515e-06 -3.85975e-05)
(-7.61947e-05 -3.34572e-05 -3.20816e-05)
(-0.000197762 -5.78529e-05 -4.39322e-05)
(-0.000288344 -7.58813e-05 -3.14563e-05)
(-0.000364156 -8.79274e-05 -6.34321e-06)
(-0.000417915 -9.5107e-05 1.66131e-05)
(-0.000448299 -9.81933e-05 3.50608e-05)
(-0.000459201 -0.000103087 4.45317e-05)
(-0.000463953 -0.000103014 5.04885e-05)
(-0.000451357 -9.91926e-05 4.87799e-05)
(-0.000452956 -0.00011142 4.13771e-05)
(-0.000445918 -0.000112699 3.36842e-05)
(-0.00043786 -0.000102108 2.39951e-05)
(-0.000433351 -0.000105071 9.25047e-06)
(6.52176e-05 6.82352e-06 3.24396e-05)
(9.21853e-05 2.57926e-06 -6.75716e-06)
(0.000105529 -1.88472e-06 -1.66094e-05)
(0.000113743 -1.0738e-05 -2.33599e-05)
(0.000117731 -2.22731e-05 -2.69833e-05)
(0.000116444 -3.41576e-05 -2.70224e-05)
(0.000109566 -4.41298e-05 -2.35595e-05)
(9.55916e-05 -4.996e-05 -1.69957e-05)
(6.97751e-05 -4.58952e-05 -6.91901e-06)
(1.57704e-05 -3.35412e-05 -1.37103e-05)
(-2.19181e-05 -1.62758e-05 -4.66648e-05)
(-3.40432e-05 -2.7473e-05 -3.46034e-05)
(-8.29615e-05 -3.10514e-05 -2.59911e-05)
(-0.000181126 -4.29305e-05 -3.23716e-05)
(-0.00023652 -5.69362e-05 -1.6783e-05)
(-0.000275621 -6.9401e-05 3.88179e-06)
(-0.000295381 -7.13854e-05 2.13487e-05)
(-0.000303818 -7.7005e-05 2.99011e-05)
(-0.000306346 -7.56222e-05 3.64029e-05)
(-0.000325829 -6.40616e-05 3.54881e-05)
(-0.000285315 -8.24113e-05 2.98424e-05)
(-0.000287379 -8.00763e-05 2.62431e-05)
(-0.00032764 -5.08632e-05 1.81107e-05)
(-0.000324921 -6.87109e-05 6.1929e-06)
(5.63927e-05 3.91684e-06 2.86707e-05)
(8.29161e-05 2.00831e-07 -4.53068e-06)
(9.6272e-05 -3.59426e-06 -1.3142e-05)
(0.000105133 -1.09884e-05 -1.939e-05)
(0.000110916 -2.07283e-05 -2.35321e-05)
(0.000113433 -3.18829e-05 -2.50385e-05)
(0.000111441 -4.23263e-05 -2.35253e-05)
(0.000103702 -4.97998e-05 -1.92108e-05)
(8.68331e-05 -5.21787e-05 -1.32888e-05)
(5.39145e-05 -4.55711e-05 -8.62777e-06)
(2.28305e-05 -2.98973e-05 -7.79863e-06)
(-2.61901e-05 1.13066e-05 -3.71775e-05)
(-4.10448e-05 -1.50874e-05 -3.44521e-05)
(-7.25593e-05 -2.24638e-05 -2.32233e-05)
(-0.000144801 -3.03306e-05 -1.80653e-05)
(-0.00016314 -4.39791e-05 -3.33189e-06)
(-0.000186044 -3.88799e-05 1.04547e-05)
(-0.000181567 -5.04892e-05 1.6865e-05)
(-0.000179664 -4.5852e-05 1.75607e-05)
(-0.000178243 -9.24651e-05 1.99712e-05)
(-0.000150556 -5.12163e-05 2.42806e-05)
(-0.000144723 -4.8054e-05 1.08004e-05)
(-0.000160721 -9.17414e-05 5.60431e-06)
(-0.000134301 -0.000124005 6.11191e-06)
(4.72501e-05 1.95006e-06 2.50528e-05)
(7.19999e-05 -1.84576e-06 -3.23527e-06)
(8.45553e-05 -5.58554e-06 -1.02143e-05)
(9.33613e-05 -1.19873e-05 -1.52538e-05)
(9.99443e-05 -2.01775e-05 -1.89685e-05)
(0.000104924 -2.96535e-05 -2.10856e-05)
(0.000107165 -3.93441e-05 -2.11458e-05)
(0.000105035 -4.73858e-05 -1.92045e-05)
(9.5822e-05 -5.21587e-05 -1.55965e-05)
(7.53826e-05 -5.28571e-05 -1.18972e-05)
(4.49154e-05 -3.88697e-05 -5.76019e-06)
(-4.0372e-06 -1.70948e-05 -1.55913e-05)
(-2.2771e-05 3.03411e-06 -3.75247e-05)
(-3.44562e-05 -1.52414e-05 -3.53659e-05)
(-6.20324e-05 -4.47864e-05 -2.02506e-05)
(-5.32743e-05 -1.72974e-05 -3.65998e-06)
(-7.20967e-05 -2.71288e-05 -1.44013e-06)
(-5.76274e-05 -2.73942e-05 4.41816e-06)
(-6.74131e-05 -2.2052e-05 3.32926e-06)
(-9.85864e-05 -8.30253e-05 1.68363e-05)
(-3.39383e-05 -1.65525e-05 7.85295e-06)
(-4.08435e-05 -2.59001e-05 4.15207e-08)
(-6.72411e-05 -6.86127e-05 4.26127e-06)
(-6.04406e-05 -6.56728e-05 9.67653e-06)
(3.82333e-05 8.16493e-07 2.14783e-05)
(6.05933e-05 -3.33648e-06 -2.75832e-06)
(7.19431e-05 -7.4453e-06 -8.2082e-06)
(8.03034e-05 -1.3435e-05 -1.18799e-05)
(8.71834e-05 -2.0631e-05 -1.45998e-05)
(9.33683e-05 -2.85276e-05 -1.64626e-05)
(9.86046e-05 -3.67787e-05 -1.72624e-05)
(0.000100929 -4.4236e-05 -1.6903e-05)
(9.82732e-05 -5.01239e-05 -1.55525e-05)
(8.71488e-05 -5.33052e-05 -1.32482e-05)
(6.56896e-05 -4.91957e-05 -1.0827e-05)
(2.6393e-05 -3.64498e-05 -1.29663e-05)
(1.90147e-06 -1.6714e-05 -2.39329e-05)
(-2.03142e-05 -7.11372e-06 -4.12678e-05)
(-2.97771e-05 -2.59521e-05 -3.51852e-05)
(-1.54423e-05 -1.03758e-05 -9.42684e-06)
(-2.67437e-05 -2.74938e-05 -7.587e-06)
(-3.18759e-05 -3.1578e-05 -4.8767e-07)
(-1.97183e-05 -1.75297e-05 1.5791e-06)
(-3.33514e-05 -3.54512e-06 1.12564e-05)
(-1.21213e-05 -3.79867e-05 9.36731e-06)
(-1.30424e-05 -2.16297e-05 9.96839e-06)
(-3.84142e-05 5.76367e-06 1.04885e-05)
(-2.01726e-05 2.11032e-05 3.98715e-06)
(3.08626e-05 2.07574e-08 1.82493e-05)
(5.05082e-05 -4.67688e-06 -2.80773e-06)
(6.04513e-05 -9.35872e-06 -6.9634e-06)
(6.81238e-05 -1.53146e-05 -9.38472e-06)
(7.49591e-05 -2.19577e-05 -1.10102e-05)
(8.16923e-05 -2.87896e-05 -1.22181e-05)
(8.8247e-05 -3.54759e-05 -1.30737e-05)
(9.33507e-05 -4.1758e-05 -1.35112e-05)
(9.52076e-05 -4.71863e-05 -1.3553e-05)
(9.14798e-05 -5.1604e-05 -1.32553e-05)
(7.88458e-05 -5.20496e-05 -1.27096e-05)
(5.37973e-05 -4.72247e-05 -1.51394e-05)
(2.82947e-05 -3.10534e-05 -2.04151e-05)
(7.91757e-06 -1.92026e-05 -2.49158e-05)
(-9.43703e-06 1.67345e-05 -3.64397e-05)
(-4.38153e-06 -1.17745e-05 -2.57838e-05)
(-9.01702e-06 -2.60487e-06 -1.5023e-05)