/*--------------------------------*- C++ -*----------------------------------*\
  =========                 |
  \\      /  F ield         | OpenFOAM: The Open Source CFD Toolbox
   \\    /   O peration     | Website:  https://openfoam.org
    \\  /    A nd           | Version:  6
     \\/     M anipulation  |
\*---------------------------------------------------------------------------*/
FoamFile
{
    version     2.0;
    format      ascii;
    class       volScalarField;
    location    "0";
    object      omega;
}
// * * * * * * * * * * * * * * * * * * * * * * * * * * * * * * * * * * * * * //

dimensions      [0 0 -1 0 0 0 0];

internalField   nonuniform List<scalar> 
3240
(
686.843
686.845
686.843
1389.14
1389.14
1389.14
1392.55
1392.56
1392.55
1393.3
1393.3
1393.3
1393.86
1393.86
1393.86
1394.3
1394.31
1394.3
1394.67
1394.67
1394.67
1394.98
1394.99
1394.98
1395.26
1395.26
1395.26
1395.49
1395.5
1395.49
1395.7
1395.7
1395.7
1395.87
1395.87
1395.87
1396.01
1396.01
1396.01
1396.11
1396.12
1396.11
1396.17
1396.18
1396.17
1396.17
1396.18
1396.17
1396.11
1396.12
1396.11
1396.01
1396.01
1396.01
1395.87
1395.87
1395.87
1395.7
1395.7
1395.7
1395.49
1395.5
1395.49
1395.26
1395.26
1395.26
1394.98
1394.99
1394.98
1394.67
1394.67
1394.67
1394.3
1394.3
1394.3
1393.86
1393.86
1393.86
1393.3
1393.3
1393.3
1392.55
1392.56
1392.55
1389.14
1389.14
1389.14
686.843
686.845
686.843
177.18
177.163
177.18
582.28
582.258
582.282
597.504
597.481
597.506
605.883
605.861
605.885
612.2
612.178
612.202
617.274
617.252
617.276
621.498
621.477
621.5
625.099
625.077
625.1
628.215
628.194
628.217
630.928
630.906
630.929
633.265
633.244
633.267
635.226
635.205
635.228
636.825
636.804
636.827
638.079
638.057
638.08
638.788
638.767
638.789
638.788
638.767
638.789
638.079
638.057
638.08
636.824
636.803
636.826
635.225
635.204
635.227
633.265
633.244
633.267
630.928
630.906
630.928
628.215
628.193
628.216
625.096
625.075
625.098
621.495
621.473
621.497
617.268
617.246
617.27
612.192
612.17
612.194
605.876
605.854
605.878
597.499
597.476
597.501
582.277
582.254
582.278
177.18
177.163
177.18
8.73282
8.73271
8.73289
217.439
217.431
217.44
231.738
231.73
231.74
239.648
239.639
239.65
245.531
245.522
245.533
250.259
250.25
250.261
254.211
254.201
254.212
257.594
257.585
257.595
260.537
260.527
260.538
263.108
263.099
263.109
265.332
265.322
265.333
267.199
267.19
267.2
268.708
268.699
268.71
269.862
269.853
269.864
270.511
270.502
270.512
270.511
270.502
270.512
269.862
269.852
269.863
268.707
268.698
268.709
267.198
267.189
267.2
265.332
265.322
265.333
263.108
263.098
263.109
260.536
260.526
260.537
257.592
257.582
257.592
254.207
254.198
254.208
250.253
250.245
250.254
245.524
245.515
245.526
239.641
239.633
239.643
231.733
231.725
231.734
217.435
217.427
217.436
8.73265
8.73253
8.73271
9.57037
9.57012
9.57045
162.48
162.48
162.481
174.688
174.687
174.689
181.056
181.056
181.057
185.734
185.734
185.736
189.486
189.486
189.487
192.625
192.624
192.626
195.317
195.316
195.317
197.664
197.663
197.664
199.718
199.717
199.718
201.495
201.495
201.496
202.988
202.988
202.989
204.182
204.183
204.184
205.075
205.075
205.076
205.573
205.573
205.574
205.573
205.573
205.574
205.074
205.074
205.076
204.182
204.182
204.183
202.987
202.987
202.989
201.495
201.494
201.496
199.717
199.716
199.718
197.663
197.662
197.663
195.315
195.314
195.315
192.622
192.621
192.622
189.481
189.481
189.482
185.728
185.728
185.729
181.05
181.05
181.052
174.683
174.683
174.684
162.477
162.476
162.477
9.57019
9.56993
9.57025
10.0494
10.0492
10.0494
91.2976
91.2971
91.2976
99.5447
99.5442
99.5451
104.027
104.026
104.028
107.272
107.272
107.273
109.867
109.866
109.867
112.037
112.037
112.038
113.902
113.901
113.902
115.528
115.527
115.528
116.952
116.951
116.953
118.184
118.184
118.185
119.217
119.217
119.218
120.029
120.03
120.03
120.608
120.609
120.609
120.93
120.931
120.931
120.93
120.93
120.931
120.608
120.608
120.609
120.029
120.029
120.03
119.216
119.216
119.217
118.184
118.183
118.184
116.952
116.951
116.952
115.527
115.526
115.527
113.9
113.899
113.9
112.035
112.034
112.035
109.863
109.863
109.863
107.268
107.267
107.268
104.023
104.022
104.024
99.5414
99.5409
99.5416
91.2948
91.2943
91.2946
10.0492
10.049
10.0492
10.6561
10.6561
10.6562
58.8983
58.8979
58.8981
64.5271
64.5268
64.5272
68.0236
68.0234
68.0238
70.5378
70.5375
70.538
72.5295
72.5292
72.5295
74.1845
74.1842
74.1843
75.5977
75.5973
75.5975
76.8246
76.8242
76.8245
77.8942
77.8941
77.8945
78.8154
78.8153
78.8157
79.5839
79.5842
79.5845
80.181
80.1816
80.1819
80.5935
80.5943
80.5945
80.8211
80.8223
80.8226
80.821
80.8222
80.8224
80.5931
80.594
80.5943
80.1806
80.1812
80.1815
79.5833
79.5836
79.584
78.8148
78.8147
78.815
77.8936
77.8934
77.8937
76.8237
76.8233
76.8236
75.5962
75.5959
75.5961
74.1823
74.182
74.1823
72.5265
72.5262
72.5265
70.5343
70.534
70.5344
68.0203
68.0199
68.0204
64.5243
64.524
64.5243
58.8958
58.8954
58.8956
10.6559
10.6559
10.656
11.3086
11.3086
11.3087
41.433
41.4328
41.4328
45.0078
45.0075
45.0076
47.8023
47.802
47.8021
49.8215
49.8212
49.8213
51.4052
51.4049
51.4049
52.7081
52.7078
52.7078
53.8109
53.8105
53.8105
54.7611
54.7608
54.7609
55.5842
55.5841
55.5842
56.2886
56.2886
56.2887
56.873
56.8732
56.8734
57.3229
57.3235
57.3235
57.627
57.6279
57.628
57.7936
57.7947
57.7947
57.7935
57.7946
57.7946
57.6267
57.6277
57.6277
57.3224
57.323
57.3231
56.8724
56.8727
56.8728
56.2879
56.2879
56.2881
55.5835
55.5834
55.5834
54.7602
54.7599
54.76
53.8096
53.8093
53.8093
52.7063
52.7059
52.706
51.4027
51.4024
51.4025
49.8186
49.8184
49.8184
47.7994
47.7992
47.7993
45.0053
45.005
45.0051
41.4307
41.4305
41.4306
11.3084
11.3084
11.3085
12.2392
12.2392
12.2393
31.9306
31.9304
31.9304
34.2173
34.2168
34.2169
36.4806
36.4802
36.4803
38.1709
38.1705
38.1706
39.4932
39.4927
39.4928
40.5719
40.5714
40.5714
41.4771
41.4766
41.4767
42.2507
42.2502
42.2503
42.9163
42.9159
42.9161
43.4821
43.4819
43.4821
43.949
43.9491
43.9493
44.3061
44.3065
44.3066
44.544
44.5446
44.5447
44.6732
44.674
44.6741
44.6731
44.6739
44.674
44.5437
44.5444
44.5445
44.3057
44.3061
44.3062
43.9485
43.9486
43.9487
43.4814
43.4813
43.4815
42.9155
42.9152
42.9154
42.2498
42.2494
42.2495
41.4759
41.4754
41.4755
40.5703
40.5697
40.5698
39.4911
39.4906
39.4907
38.1686
38.1681
38.1682
36.4782
36.4778
36.4779
34.2151
34.2146
34.2147
31.9286
31.9284
31.9284
12.2389
12.2389
12.239
13.0147
13.0147
13.0148
25.8516
25.8512
25.8514
27.0941
27.0935
27.0937
28.9013
28.9007
28.901
30.3359
30.3353
30.3355
31.4662
31.4655
31.4658
32.3841
32.3834
32.3836
33.1486
33.1479
33.1481
33.7968
33.7962
33.7964
34.3506
34.3501
34.3504
34.8185
34.818
34.8184
35.2024
35.2023
35.2026
35.4945
35.4946
35.4948
35.6865
35.6868
35.6871
35.7899
35.7904
35.7906
35.7898
35.7903
35.7905
35.6863
35.6866
35.6868
35.4941
35.4942
35.4944
35.2019
35.2018
35.2021
34.8178
34.8174
34.8177
34.35
34.3494
34.3497
33.796
33.7954
33.7956
33.1475
33.1468
33.1471
32.3827
32.382
32.3822
31.4644
31.4637
31.4639
30.3339
30.3333
30.3335
28.8993
28.8987
28.8989
27.0921
27.0915
27.0917
25.8497
25.8494
25.8495
13.0144
13.0144
13.0145
13.6867
13.6867
13.6868
21.6899
21.6895
21.6898
22.0656
22.0648
22.0651
23.4652
23.4644
23.4647
24.6832
24.6823
24.6827
25.6609
25.66
25.6604
26.4552
26.4543
26.4547
27.1132
27.1123
27.1127
27.6671
27.6663
27.6667
28.1371
28.1364
28.1368
28.5317
28.5311
28.5315
28.8539
28.8535
28.8539
29.0976
29.0974
29.0978
29.2561
29.256
29.2565
29.3405
29.3406
29.341
29.3404
29.3406
29.341
29.2559
29.2558
29.2562
29.0972
29.0971
29.0974
28.8534
28.853
28.8534
28.531
28.5305
28.5309
28.1365
28.1358
28.1361
27.6664
27.6655
27.6659
27.1122
27.1113
27.1117
26.454
26.453
26.4534
25.6593
25.6585
25.6588
24.6814
24.6806
24.6809
23.4634
23.4626
23.4629
22.0638
22.063
22.0633
21.6881
21.6878
21.688
13.6864
13.6864
13.6865
14.2974
14.2975
14.2975
18.7319
18.7315
18.7318
18.3963
18.3954
18.3958
19.4293
19.4283
19.4287
20.4551
20.4541
20.4545
21.3053
21.3043
21.3047
22.0005
21.9994
21.9999
22.5751
22.574
22.5745
23.0558
23.0548
23.0553
23.4612
23.4602
23.4607
23.7995
23.7987
23.7992
24.0744
24.0738
24.0743
24.2813
24.2809
24.2814
24.4145
24.4142
24.4147
24.4847
24.4845
24.485
24.4846
24.4845
24.485
24.4144
24.414
24.4145
24.281
24.2806
24.281
24.074
24.0733
24.0738
23.7989
23.7981
23.7986
23.4606
23.4596
23.4601
23.0551
23.054
23.0545
22.5741
22.5731
22.5736
21.9994
21.9983
21.9988
21.3039
21.3029
21.3034
20.4535
20.4526
20.453
19.4277
19.4268
19.4272
18.3946
18.3938
18.3941
18.7302
18.7298
18.7301
14.2971
14.2972
14.2972
14.6306
14.6306
14.6307
17.5276
17.5276
17.5275
16.8982
16.8978
16.8977
17.7522
17.7517
17.7516
18.6799
18.6795
18.6793
19.4649
19.4645
19.4643
20.11
20.1095
20.1093
20.6425
20.6421
20.6419
21.0867
21.0864
21.0862
21.46
21.4597
21.4595
21.7703
21.7702
21.77
22.0216
22.0216
22.0215
22.2099
22.2101
22.2099
22.3299
22.3302
22.33
22.3923
22.3927
22.3925
22.3922
22.3927
22.3925
22.3297
22.33
22.3298
22.2096
22.2098
22.2095
22.0212
22.0212
22.021
21.7697
21.7696
21.7694
21.4594
21.4591
21.4589
21.086
21.0856
21.0855
20.6417
20.6412
20.641
20.1089
20.1084
20.1083
19.4637
19.4632
19.4631
18.6785
18.6781
18.678
17.7508
17.7503
17.7501
16.8966
16.8962
16.8961
17.526
17.526
17.5259
14.6303
14.6303
14.6304
15.2132
15.2132
15.2133
15.5529
15.5528
15.5528
14.3735
14.373
14.373
14.9052
14.9045
14.9045
15.6563
15.6557
15.6556
16.331
16.3304
16.3304
16.8962
16.8956
16.8955
17.3645
17.364
17.3639
17.754
17.7535
17.7534
18.0795
18.0791
18.079
18.3489
18.3485
18.3485
18.5659
18.5656
18.5656
18.7277
18.7276
18.7275
18.8298
18.8298
18.8297
18.882
18.8822
18.8821
18.882
18.8822
18.882
18.8296
18.8296
18.8295
18.7274
18.7273
18.7272
18.5654
18.5652
18.5652
18.3483
18.3479
18.3479
18.079
18.0785
18.0784
17.7533
17.7528
17.7527
17.3638
17.3631
17.3631
16.8952
16.8946
16.8946
16.3299
16.3293
16.3293
15.6551
15.6545
15.6544
14.9039
14.9032
14.9032
14.372
14.3715
14.3714
15.5513
15.5512
15.5512
15.2129
15.2129
15.213
15.8039
15.804
15.8041
14.0002
14.0001
14.0001
12.3875
12.387
12.387
12.6294
12.6286
12.6286
13.2108
13.2101
13.2101
13.7811
13.7805
13.7805
14.274
14.2733
14.2733
14.6866
14.6859
14.6859
15.0298
15.0291
15.0291
15.3156
15.3151
15.3151
15.5513
15.5508
15.5508
15.7402
15.7398
15.7398
15.8805
15.8803
15.8802
15.9682
15.9681
15.968
16.0123
16.0123
16.0122
16.0123
16.0123
16.0122
15.968
15.9679
15.9678
15.8802
15.88
15.8799
15.7397
15.7394
15.7394
15.5507
15.5503
15.5502
15.3151
15.3146
15.3145
15.0291
15.0285
15.0285
14.6858
14.6852
14.6852
14.2731
14.2725
14.2725
13.7802
13.7795
13.7795
13.2098
13.2091
13.2091
12.6282
12.6275
12.6275
12.3861
12.3855
12.3855
13.9986
13.9984
13.9985
15.8036
15.8036
15.8037
16.4199
16.42
16.42
12.7295
12.7293
12.7293
10.7992
10.7986
10.7986
10.7879
10.7871
10.7871
11.2064
11.2057
11.2057
11.6757
11.6749
11.6749
12.1009
12.1002
12.1002
12.4636
12.4629
12.4629
12.7668
12.7661
12.7661
13.0192
13.0186
13.0186
13.2268
13.2262
13.2262
13.3926
13.3922
13.3921
13.5154
13.5151
13.515
13.5914
13.5912
13.591
13.6289
13.6287
13.6286
13.6288
13.6287
13.6286
13.5912
13.591
13.5909
13.5151
13.5148
13.5147
13.3922
13.3918
13.3917
13.2262
13.2257
13.2257
13.0187
13.0181
13.0181
12.7662
12.7655
12.7655
12.4629
12.4622
12.4623
12.1001
12.0995
12.0995
11.6749
11.6742
11.6742
11.2056
11.2048
11.2048
10.7869
10.7861
10.7861
10.7978
10.7972
10.7972
12.7279
12.7277
12.7277
16.4196
16.4196
16.4197
17.0104
17.0104
17.0105
11.71
11.7098
11.7098
9.55917
9.55853
9.55854
9.32253
9.3217
9.3217
9.58497
9.58416
9.58416
9.95531
9.95457
9.95457
10.3161
10.3154
10.3154
10.6336
10.6329
10.6329
10.9023
10.9016
10.9016
11.1268
11.1262
11.1262
11.3116
11.311
11.3109
11.4588
11.4583
11.4582
11.5677
11.5672
11.5671
11.6346
11.6342
11.634
11.6669
11.6666
11.6664
11.6668
11.6665
11.6664
11.6344
11.634
11.6339
11.5674
11.567
11.5668
11.4584
11.4579
11.4578
11.311
11.3105
11.3104
11.1264
11.1257
11.1257
10.9017
10.9011
10.901
10.633
10.6323
10.6323
10.3155
10.3148
10.3148
9.9547
9.95396
9.95396
9.58433
9.58353
9.58351
9.32167
9.32085
9.32084
9.55785
9.55723
9.55723
11.7085
11.7083
11.7083
17.01
17.01
17.0102
17.4436
17.4437
17.4438
10.9998
10.9996
10.9996
8.64958
8.64891
8.64894
8.2135
8.21263
8.21265
8.3328
8.33193
8.33196
8.60986
8.60907
8.60909
8.91065
8.90992
8.90994
9.18791
9.1872
9.18721
9.42756
9.42687
9.42688
9.62963
9.62898
9.62897
9.79674
9.7961
9.79606
9.92983
9.92924
9.92917
10.0282
10.0277
10.0276
10.0886
10.0881
10.088
10.1172
10.1168
10.1166
10.1171
10.1167
10.1166
10.0885
10.088
10.0879
10.028
10.0274
10.0273
9.92946
9.92886
9.9288
9.79623
9.7956
9.79556
9.6292
9.62854
9.62852
9.42703
9.42635
9.42635
9.18737
9.18666
9.18667
8.91013
8.9094
8.90942
8.60939
8.6086
8.60862
8.3323
8.33144
8.33146
8.21274
8.21188
8.2119
8.6483
8.64763
8.64766
10.9983
10.998
10.9981
17.4433
17.4433
17.4434
17.8195
17.8196
17.8197
10.4587
10.4584
10.4585
7.92237
7.92166
7.92174
7.32405
7.32314
7.3232
7.31585
7.31493
7.31499
7.50475
7.50391
7.50397
7.74779
7.74701
7.74708
7.98705
7.98631
7.98637
8.2005
8.19978
8.19983
8.38331
8.3826
8.38264
8.53578
8.53507
8.53509
8.65751
8.65681
8.6568
8.7477
8.74702
8.74699
8.80308
8.80244
8.80238
8.82881
8.82823
8.82814
8.82874
8.82816
8.82808
8.80292
8.80228
8.80222
8.74744
8.74676
8.74673
8.65715
8.65646
8.65645
8.5353
8.53459
8.53461
8.3829
8.38219
8.38222
8.20001
8.19928
8.19934
7.98658
7.98583
7.98589
7.74738
7.74659
7.74666
7.50442
7.50357
7.50364
7.31548
7.31456
7.31463
7.32339
7.32247
7.32253
7.92113
7.92042
7.9205
10.4571
10.4568
10.4569
17.8191
17.8192
17.8192
18.1535
18.1538
18.1536
10.0446
10.0441
10.0443
7.33235
7.3316
7.33172
6.60143
6.60049
6.60058
6.48072
6.47975
6.47986
6.58666
6.58576
6.58588
6.77353
6.77271
6.77283
6.97594
6.97516
6.97528
7.16483
7.16408
7.16419
7.33047
7.32972
7.32981
7.47046
7.4697
7.46978
7.58284
7.58206
7.58212
7.66643
7.66565
7.66568
7.71792
7.71715
7.71716
7.74149
7.74077
7.74076
7.74143
7.74071
7.7407
7.71777
7.71699
7.71701
7.66618
7.6654
7.66544
7.5825
7.58172
7.58178
7.47001
7.46924
7.46932
7.33008
7.32932
7.32942
7.16439
7.16363
7.16374
6.97553
6.97476
6.97488
6.77321
6.77239
6.77251
6.58645
6.58555
6.58567
6.48047
6.47951
6.47962
6.60086
6.5999
6.6
7.33114
7.33039
7.33052
10.043
10.0426
10.0428
18.153
18.1533
18.1531
18.4609
18.4614
18.461
9.7254
9.72482
9.72518
6.84809
6.84731
6.84748
6.00847
6.0075
6.00763
5.7897
5.7887
5.78886
5.81839
5.81746
5.81763
5.95061
5.94976
5.94993
6.11671
6.1159
6.11608
6.28186
6.28108
6.28126
6.4316
6.43081
6.43098
6.56059
6.55978
6.55993
6.66505
6.66421
6.66434
6.74322
6.74235
6.74246
6.79163
6.79076
6.79085
6.81354
6.8127
6.81278
6.81349
6.81264
6.81272
6.79148
6.79061
6.7907
6.74298
6.74211
6.74222
6.66472
6.66388
6.66402
6.56016
6.55934
6.5595
6.43124
6.43045
6.43062
6.28147
6.28068
6.28086
6.11637
6.11556
6.11574
5.9504
5.94954
5.94972
5.8183
5.81736
5.81754
5.78957
5.78857
5.78873
6.00797
6.00699
6.00713
6.84692
6.84615
6.84631
9.7239
9.72331
9.72368
18.4604
18.4608
18.4605
18.6225
18.6229
18.6226
9.58892
9.58842
9.5887
6.64774
6.64712
6.64714
5.75949
5.75871
5.75866
5.49462
5.49386
5.49378
5.48447
5.48382
5.48372
5.58738
5.58683
5.58672
5.73284
5.73235
5.73223
5.88384
5.8834
5.88325
6.02371
6.02327
6.02311
6.14562
6.14516
6.14497
6.24477
6.24428
6.24408
6.31905
6.31852
6.3183
6.36485
6.36432
6.36407
6.3852
6.3847
6.38443
6.38515
6.38464
6.38438
6.3647
6.36417
6.36392
6.3188
6.31828
6.31806
6.24445
6.24396
6.24376
6.1452
6.14473
6.14455
6.02336
6.02293
6.02277
5.88346
5.88303
5.88288
5.73253
5.73206
5.73193
5.58722
5.58667
5.58656
5.48444
5.48378
5.48369
5.49454
5.49378
5.49371
5.75902
5.75824
5.7582
6.64659
6.64597
6.64599
9.58744
9.58693
9.58722
18.622
18.6223
18.622
18.9567
18.9571
18.9568
9.33595
9.33538
9.33573
6.26428
6.26365
6.2637
5.29631
5.29553
5.29552
4.95244
4.95167
4.95163
4.87328
4.87262
4.87256
4.92328
4.92273
4.92266
5.03198
5.0315
5.03143
5.15896
5.15852
5.15843
5.28337
5.28293
5.28283
5.39524
5.39476
5.39465
5.48762
5.48711
5.48698
5.55749
5.55693
5.55677
5.60093
5.60035
5.60018
5.62009
5.61953
5.61934
5.62004
5.61947
5.61929
5.60078
5.6002
5.60003
5.55725
5.55669
5.55654
5.48732
5.48681
5.48668
5.39485
5.39437
5.39426
5.28306
5.28262
5.28252
5.15864
5.1582
5.15811
5.03176
5.03127
5.03121
4.92322
4.92266
4.9226
4.87336
4.87268
4.87264
4.95247
4.9517
4.95166
5.29593
5.29514
5.29513
6.26318
6.26255
6.2626
9.3345
9.33394
9.33429
18.9561
18.9566
18.9562
19.3277
19.3281
19.3278
9.10585
9.1053
9.10565
5.93207
5.93146
5.93152
4.89892
4.89815
4.89816
4.48744
4.48668
4.48667
4.34502
4.34437
4.34435
4.34343
4.34289
4.34286
4.41465
4.41419
4.41416
4.51664
4.51623
4.51619
4.62511
4.6247
4.62465
4.7269
4.72645
4.72638
4.81276
4.81227
4.81218
4.87849
4.87795
4.87784
4.91981
4.91922
4.9191
4.93795
4.93738
4.93725
4.9379
4.93732
4.93719
4.91966
4.91908
4.91896
4.87827
4.87772
4.87762
4.81248
4.81199
4.8119
4.72654
4.7261
4.72603
4.62483
4.62442
4.62437
4.51637
4.51596
4.51592
4.41451
4.41404
4.41402
4.34346
4.34292
4.3429
4.3452
4.34454
4.34453
4.48758
4.48682
4.48681
4.89862
4.89785
4.89785
5.93103
5.93042
5.93048
9.10445
9.10391
9.10425
19.3271
19.3276
19.3272
19.7687
19.769
19.7688
8.86846
8.86802
8.86827
5.63826
5.63771
5.63774
4.55455
4.55382
4.55383
4.08685
4.08613
4.08613
3.88794
3.88732
3.88732
3.83705
3.83655
3.83655
3.87049
3.87008
3.87007
3.94641
3.94606
3.94605
4.03808
4.03773
4.03771
4.12937
4.12899
4.12895
4.20863
4.2082
4.20815
4.27028
4.26979
4.26972
4.30954
4.309
4.30892
4.32677
4.32623
4.32613
4.32672
4.32618
4.32608
4.3094
4.30886
4.30878
4.27007
4.26957
4.26951
4.20837
4.20794
4.20789
4.12907
4.12868
4.12864
4.03784
4.0375
4.03747
3.94621
3.94586
3.94584
3.87042
3.87001
3.87001
3.83718
3.83668
3.83668
3.88823
3.8876
3.88761
4.0871
4.08638
4.08638
4.55434
4.5536
4.55361
5.63728
5.63672
5.63677
8.86709
8.86666
8.86691
19.768
19.7683
19.7681
20.3391
20.3392
20.3392
8.57206
8.57181
8.57188
5.36632
5.36583
5.36584
4.25029
4.24962
4.24961
3.73801
3.73734
3.73734
3.49018
3.48963
3.48962
3.39335
3.39292
3.39292
3.38931
3.38897
3.38897
3.43816
3.43789
3.43788
3.51189
3.51163
3.51161
3.59189
3.59159
3.59157
3.66413
3.66379
3.66375
3.72151
3.72111
3.72105
3.75862
3.75818
3.75811
3.77496
3.77451
3.77443
3.77491
3.77446
3.77438
3.75849
3.75804
3.75798
3.72131
3.72091
3.72085
3.66391
3.66356
3.66352
3.59163
3.59134
3.59131
3.51169
3.51143
3.51141
3.43802
3.43774
3.43773
3.38932
3.38898
3.38899
3.39357
3.39314
3.39314
3.49058
3.49002
3.49002
3.73837
3.7377
3.73771
4.25018
4.24949
4.24949
5.36543
5.36493
5.36495
8.57073
8.57049
8.57056
20.3384
20.3384
20.3385
20.7283
20.7283
20.7284
8.44664
8.44644
8.44648
5.15718
5.15674
5.15675
3.99327
3.99265
3.99264
3.44033
3.43971
3.43971
3.14986
3.14937
3.14936
3.01094
3.01058
3.01058
2.97035
2.97009
2.97009
2.99126
2.99107
2.99106
3.04568
3.04551
3.0455
3.1132
3.11299
3.11298
3.17768
3.17744
3.17742
3.23038
3.23008
3.23004
3.26517
3.26484
3.26479
3.28064
3.2803
3.28025
3.2806
3.28025
3.2802
3.26504
3.26471
3.26466
3.23019
3.2299
3.22986
3.17749
3.17725
3.17722
3.113
3.11279
3.11278
3.04552
3.04535
3.04534
2.99118
2.99099
2.99098
2.97044
2.97017
2.97017
3.01125
3.01088
3.01088
3.15035
3.14985
3.14985
3.44081
3.4402
3.44019
3.99326
3.99263
3.99262
5.15637
5.15594
5.15594
8.44539
8.44519
8.44522
20.7275
20.7275
20.7276
20.5479
20.5484
20.548
8.76778
8.76726
8.76764
5.06807
5.06762
5.06768
3.7999
3.7993
3.79931
3.2008
3.20023
3.20024
2.87276
2.87232
2.87233
2.6973
2.69698
2.697
2.62326
2.62306
2.62307
2.61692
2.61678
2.6168
2.65141
2.6513
2.65131
2.70543
2.7053
2.70531
2.7614
2.76124
2.76124
2.80895
2.80874
2.80873
2.84123
2.84099
2.84098
2.85588
2.85564
2.85562
2.85584
2.8556
2.85557
2.84111
2.84087
2.84086
2.80878
2.80858
2.80857
2.76125
2.76109
2.76109
2.70529
2.70516
2.70518
2.65129
2.65118
2.6512
2.6169
2.61676
2.61678
2.62341
2.6232
2.62322
2.69767
2.69735
2.69736
2.87334
2.87289
2.8729
3.20137
3.20079
3.2008
3.79997
3.79936
3.79938
5.06737
5.06691
5.06698
8.76663
8.7661
8.76648
20.547
20.5476
20.5471
20.4032
20.4046
20.4033
9.06023
9.05921
9.06011
5.00126
5.00075
5.00091
3.63378
3.63319
3.63324
2.99353
2.99298
2.99302
2.63495
2.63453
2.63457
2.42952
2.42923
2.42927
2.32645
2.32628
2.32632
2.29477
2.29466
2.29471
2.30941
2.30932
2.30938
2.3492
2.34911
2.34917
2.39584
2.39573
2.39578
2.43766
2.43751
2.43756
2.4671
2.46693
2.46698
2.48085
2.48068
2.48072
2.48081
2.48064
2.48068
2.467
2.46683
2.46687
2.43752
2.43737
2.43742
2.39572
2.39561
2.39566
2.34912
2.34902
2.34909
2.30933
2.30924
2.30931
2.2948
2.29469
2.29473
2.32665
2.32648
2.32651
2.42994
2.42966
2.42969
2.63561
2.63519
2.63522
2.99419
2.99364
2.99367
3.63395
3.63335
3.6334
5.00066
5.00014
5.00031
9.05915
9.05813
9.05903
20.4023
20.4037
20.4024
20.296
20.2984
20.2961
9.32565
9.32405
9.32554
4.95406
4.95343
4.95374
3.49057
3.48998
3.49007
2.81211
2.81157
2.81164
2.42848
2.42808
2.42815
2.19913
2.19886
2.19894
2.07177
2.0716
2.07169
2.01727
2.01716
2.01726
2.01263
2.01254
2.01266
2.03765
2.03757
2.03769
2.07412
2.07403
2.07414
2.10956
2.10944
2.10956
2.13578
2.13564
2.13576
2.14849
2.14834
2.14846
2.14846
2.14831
2.14843
2.13569
2.13555
2.13567
2.10945
2.10933
2.10945
2.07404
2.07395
2.07407
2.03763
2.03754
2.03766
2.01259
2.0125
2.01262
2.01733
2.01722
2.01732
2.072
2.07184
2.07191
2.1996
2.19934
2.19941
2.42921
2.42881
2.42887
2.81287
2.81233
2.81239
3.49085
3.49025
3.49034
4.95355
4.95293
4.95323
9.32464
9.32305
9.32454
20.2951
20.2974
20.2951
20.2406
20.244
20.2406
9.55517
9.55301
9.55505
4.92203
4.92128
4.92172
3.36705
3.36644
3.36658
2.65235
2.65182
2.65191
2.24795
2.24756
2.24766
2.0002
1.99995
2.00005
1.85344
1.85327
1.8534
1.77925
1.77913
1.77928
1.75653
1.75643
1.75661
1.76663
1.76654
1.76673
1.79226
1.79216
1.79235
1.82069
1.82057
1.82077
1.84326
1.84313
1.84333
1.85478
1.85464
1.85483
1.85475
1.8546
1.8548
1.84319
1.84306
1.84325
1.8206
1.82048
1.82068
1.79222
1.79212
1.79231
1.76666
1.76657
1.76675
1.75652
1.75641
1.75659
1.77935
1.77922
1.77937
1.85369
1.85353
1.85365
2.00071
2.00046
2.00057
2.24875
2.24836
2.24845
2.65321
2.65267
2.65277
3.36744
3.36682
3.36695
4.92164
4.92089
4.92132
9.55422
9.55206
9.5541
20.2396
20.243
20.2397
20.2583
20.2626
20.2583
9.73373
9.73113
9.7336
4.89891
4.89804
4.89859
3.26056
3.25992
3.2601
2.5117
2.51117
2.51129
2.08997
2.08959
2.08972
1.8287
1.82846
1.8286
1.6674
1.66723
1.66739
1.57709
1.57695
1.57715
1.53811
1.53799
1.53822
1.5337
1.5336
1.53383
1.54814
1.54803
1.54828
1.56908
1.56896
1.56922
1.58766
1.58752
1.58779
1.59781
1.59765
1.59793
1.59778
1.59763
1.5979
1.5876
1.58746
1.58773
1.56902
1.56889
1.56916
1.54813
1.54802
1.54827
1.53377
1.53366
1.5339
1.53812
1.538
1.53823
1.5772
1.57706
1.57726
1.66767
1.6675
1.66766
1.82924
1.829
1.82914
2.09083
2.09044
2.09057
2.51266
2.51212
2.51224
3.26106
3.26041
3.26058
4.89862
4.89775
4.8983
9.73283
9.73023
9.7327
20.2573
20.2616
20.2573
20.2419
20.2464
20.242
9.83224
9.82936
9.8321
4.89398
4.89312
4.89367
3.21949
3.21895
3.21903
2.4551
2.45471
2.4547
2.02534
2.02512
2.0251
1.75795
1.75789
1.75786
1.58998
1.59
1.58999
1.49186
1.49193
1.49193
1.44442
1.44453
1.44454
1.4319
1.43204
1.43204
1.43957
1.43973
1.43972
1.45556
1.45573
1.45572
1.47103
1.47119
1.47118
1.47974
1.4799
1.47989
1.47972
1.47988
1.47987
1.47097
1.47114
1.47112
1.45551
1.45568
1.45566
1.43957
1.43974
1.43973
1.43197
1.43212
1.43212
1.44444
1.44455
1.44456
1.49197
1.49204
1.49204
1.59026
1.59027
1.59026
1.7585
1.75843
1.75841
2.02621
2.02599
2.02597
2.4561
2.4557
2.45569
3.22003
3.21947
3.21955
4.89373
4.89286
4.89341
9.83136
9.82849
9.83122
20.2409
20.2454
20.241
20.3757
20.3802
20.3756
9.93844
9.93558
9.93832
4.87231
4.87145
4.87201
3.13062
3.13008
3.13016
2.33604
2.33565
2.33565
1.89304
1.89283
1.89283
1.61807
1.618
1.618
1.44197
1.44198
1.442
1.33306
1.33311
1.33315
1.27274
1.27282
1.27287
1.24714
1.24724
1.24728
1.24376
1.24388
1.24392
1.25197
1.25209
1.25214
1.26311
1.26322
1.26328
1.27024
1.27036
1.27042
1.27023
1.27035
1.2704
1.26306
1.26319
1.26323
1.25194
1.25206
1.25211
1.24379
1.24391
1.24396
1.24724
1.24734
1.24739
1.27277
1.27285
1.2729
1.33317
1.33322
1.33326
1.44224
1.44225
1.44227
1.61862
1.61856
1.61856
1.89396
1.89375
1.89375
2.33712
2.33672
2.33672
3.13124
3.13068
3.13076
4.87209
4.87123
4.87179
9.93756
9.93472
9.93746
20.3746
20.3792
20.3747
20.6383
20.6423
20.6383
9.9531
9.95063
9.95303
4.84062
4.83987
4.84035
3.05296
3.05244
3.0525
2.23365
2.23327
2.23326
1.78047
1.78028
1.78028
1.50138
1.50133
1.50135
1.32103
1.32105
1.32108
1.20496
1.20501
1.20507
1.1346
1.13466
1.13473
1.09775
1.09782
1.09789
1.08426
1.08433
1.08441
1.08507
1.08515
1.08523
1.09198
1.09205
1.09214
1.09751
1.09758
1.09767
1.0975
1.09756
1.09766
1.09195
1.09202
1.09211
1.08506
1.08513
1.08522
1.0843
1.08438
1.08446
1.09786
1.09793
1.098
1.13463
1.1347
1.13476
1.20506
1.20511
1.20516
1.32128
1.3213
1.32134
1.50193
1.50189
1.5019
1.78143
1.78123
1.78124
2.23481
2.23442
2.23441
3.05363
3.0531
3.05315
4.84037
4.83963
4.8401
9.95218
9.94975
9.95214
20.6372
20.6413
20.6373
21.1213
21.1239
21.1214
9.8055
9.80385
9.80543
4.77994
4.77938
4.77965
2.98351
2.98304
2.98302
2.1503
2.14994
2.14991
1.69155
1.69138
1.69137
1.41158
1.41155
1.41156
1.23015
1.23019
1.23022
1.11023
1.11029
1.11034
1.033
1.03305
1.03312
0.987571
0.987615
0.987694
0.965882
0.965918
0.966007
0.960497
0.960527
0.960624
0.963773
0.963793
0.963897
0.96787
0.967884
0.967992
0.967861
0.967875
0.967982
0.963752
0.963772
0.963876
0.960496
0.960526
0.960624
0.965936
0.965972
0.966061
0.987686
0.98773
0.987808
1.03302
1.03308
1.03315
1.11032
1.11038
1.11043
1.23039
1.23043
1.23046
1.41213
1.4121
1.4121
1.69254
1.69237
1.69235
2.15154
2.15117
2.15113
2.98426
2.98377
2.98376
4.77971
4.77916
4.77943
9.80456
9.80293
9.80449
21.1203
21.1229
21.1203
22.0033
22.0038
22.0033
9.33605
9.33551
9.3359
4.64905
4.64876
4.64871
2.91444
2.91403
2.91391
2.08892
2.0886
2.08853
1.63269
1.63257
1.63252
1.35529
1.35528
1.35528
1.17517
1.17522
1.17523
1.05414
1.05421
1.05425
0.973397
0.973453
0.973513
0.922983
0.923015
0.923087
0.896251
0.896266
0.896347
0.886951
0.886956
0.887043
0.88789
0.887885
0.887976
0.891037
0.891025
0.89112
0.89103
0.891019
0.891113
0.887875
0.88787
0.887961
0.886956
0.886962
0.887049
0.896307
0.896322
0.896402
0.923097
0.923129
0.9232
0.97342
0.973476
0.973535
1.05421
1.05428
1.05432
1.17539
1.17545
1.17546
1.35583
1.35582
1.35581
1.6337
1.63355
1.63352
2.09023
2.08989
2.08981
2.91527
2.91486
2.91474
4.6489
4.64863
4.64857
9.33507
9.33455
9.33492
22.0023
22.0027
22.0023
)
;

boundaryField
{
    freeSurface
    {
        type            slip;
    }
    inlet
    {
        type            cyclic;
    }
    outlet
    {
        type            cyclic;
    }
    sidewalls
    {
        type            omegaWallFunction;
        Cmu             0.09;
        kappa           0.41;
        E               9.8;
        beta1           0.075;
        blended         false;
        value           nonuniform List<scalar> 
216
(
736.722
5.89632
7.87298
7.87298
9.22628
10.3237
11.2812
12.1389
12.9415
13.7085
14.4453
14.4453
15.1504
15.8197
16.4534
17.0512
17.6126
18.1377
18.6271
19.0823
19.0823
19.5056
19.8993
20.2661
20.6081
20.9273
21.2248
21.5016
21.7576
21.9923
22.2042
22.2042
22.3908
22.5469
22.6636
22.7297
736.722
5.89633
7.87298
7.87298
9.22628
10.3237
11.2812
12.1389
12.9415
13.7085
14.4453
14.4453
15.1504
15.8198
16.4534
17.0512
17.6127
18.1377
18.6271
19.0824
19.0824
19.5056
19.8993
20.2661
20.6081
20.9273
21.2248
21.5016
21.7576
21.9923
22.2042
22.2042
22.3907
22.5468
22.6636
22.7297
736.722
5.89637
7.87304
7.87304
9.22635
10.3238
11.2813
12.139
12.9416
13.7086
14.4454
14.4454
15.1505
15.8199
16.4535
17.0513
17.6128
18.1379
18.6273
19.0825
19.0825
19.5057
19.8995
20.2662
20.6082
20.9274
21.2249
21.5017
21.7577
21.9924
22.2043
22.2043
22.3908
22.5469
22.6637
22.7297
736.722
5.8962
7.87282
7.87282
9.2261
10.3235
11.281
12.1387
12.9412
13.7082
14.445
14.445
15.1501
15.8194
16.4531
17.0508
17.6123
18.1373
18.6267
19.0819
19.0819
19.5051
19.8988
20.2655
20.6074
20.9265
21.224
21.5007
21.7567
21.9913
22.2032
22.2032
22.3897
22.5458
22.6626
22.7287
736.722
5.8962
7.87282
7.87282
9.2261
10.3235
11.281
12.1387
12.9412
13.7082
14.4451
14.4451
15.1501
15.8195
16.4531
17.0508
17.6123
18.1373
18.6267
19.0819
19.0819
19.5051
19.8988
20.2655
20.6074
20.9265
21.224
21.5007
21.7567
21.9913
22.2032
22.2032
22.3897
22.5458
22.6626
22.7286
736.722
5.89625
7.87288
7.87288
9.22617
10.3236
11.2811
12.1388
12.9413
13.7083
14.4452
14.4452
15.1502
15.8196
16.4532
17.051
17.6124
18.1375
18.6268
19.082
19.082
19.5052
19.8989
20.2656
20.6076
20.9266
21.2241
21.5008
21.7568
21.9914
22.2033
22.2033
22.3898
22.5459
22.6626
22.7287
)
;
    }
    noSlipWalls
    {
        type            omegaWallFunction;
        Cmu             0.09;
        kappa           0.41;
        E               9.8;
        beta1           0.075;
        blended         false;
        value           nonuniform List<scalar> 
90
(
736.722
1471.07
1471.07
1471.07
1471.07
1471.07
1471.07
1471.07
1471.07
1471.07
1471.07
1471.07
1471.07
1471.07
1471.07
1471.07
1471.07
1471.07
1471.07
1471.07
1471.07
1471.07
1471.07
1471.07
1471.07
1471.07
1471.07
1471.07
1471.07
736.722
736.722
1471.07
1471.07
1471.07
1471.07
1471.07
1471.07
1471.07
1471.07
1471.07
1471.07
1471.07
1471.07
1471.07
1471.07
1471.07
1471.07
1471.07
1471.07
1471.07
1471.07
1471.07
1471.07
1471.07
1471.07
1471.07
1471.07
1471.07
1471.07
736.722
736.722
1471.07
1471.07
1471.07
1471.07
1471.07
1471.07
1471.07
1471.07
1471.07
1471.07
1471.07
1471.07
1471.07
1471.07
1471.07
1471.07
1471.07
1471.07
1471.07
1471.07
1471.07
1471.07
1471.07
1471.07
1471.07
1471.07
1471.07
1471.07
736.722
)
;
    }
}


// ************************************************************************* //
