/*--------------------------------*- C++ -*----------------------------------*\
  =========                 |
  \\      /  F ield         | OpenFOAM: The Open Source CFD Toolbox
   \\    /   O peration     | Website:  https://openfoam.org
    \\  /    A nd           | Version:  6
     \\/     M anipulation  |
\*---------------------------------------------------------------------------*/
FoamFile
{
    version     2.0;
    format      ascii;
    class       volVectorField;
    location    "0";
    object      U;
}
// * * * * * * * * * * * * * * * * * * * * * * * * * * * * * * * * * * * * * //

dimensions      [0 1 -1 0 0 0 0];

internalField   nonuniform List<vector> 
3240
(
(0.0180675 -5.33289e-11 1.6988e-11)
(0.0180674 3.50641e-10 -3.61713e-11)
(0.0180676 -3.03469e-10 1.85617e-11)
(0.043754 1.24184e-10 7.15228e-11)
(0.0437541 3.34547e-09 -1.35559e-10)
(0.0437551 -3.46706e-09 6.40967e-11)
(0.0505712 2.73301e-09 8.91281e-11)
(0.050572 -1.4678e-10 -1.75276e-10)
(0.0505733 -2.57152e-09 8.59838e-11)
(0.0562808 6.96444e-09 1.04323e-10)
(0.0562818 -9.85185e-09 -2.41526e-10)
(0.0562833 2.904e-09 1.37169e-10)
(0.0611764 1.03441e-08 1.10465e-10)
(0.0611774 -1.60215e-08 -2.78611e-10)
(0.0611788 5.69697e-09 1.68044e-10)
(0.065472 1.12643e-08 1.15004e-10)
(0.0654731 -1.76026e-08 -3.14069e-10)
(0.0654744 6.35862e-09 1.98943e-10)
(0.0693043 8.94222e-09 1.12309e-10)
(0.0693054 -1.37342e-08 -3.26295e-10)
(0.0693064 4.8121e-09 2.13947e-10)
(0.0727638 5.10661e-09 1.04194e-10)
(0.072765 -8.04019e-09 -3.20703e-10)
(0.0727659 2.94812e-09 2.16698e-10)
(0.0759127 9.20568e-10 9.74307e-11)
(0.0759137 -2.13477e-09 -2.99128e-10)
(0.0759145 1.22071e-09 2.01727e-10)
(0.0787776 -2.58302e-09 9.59432e-11)
(0.0787784 2.61361e-09 -2.73439e-10)
(0.0787794 -2.69764e-11 1.7752e-10)
(0.0813476 -4.61538e-09 1.02427e-10)
(0.0813482 5.4459e-09 -2.416e-10)
(0.0813491 -8.26672e-10 1.39202e-10)
(0.08358 -5.35433e-09 1.31793e-10)
(0.0835802 6.54499e-09 -2.05205e-10)
(0.0835814 -1.18362e-09 7.34048e-11)
(0.0853666 -4.76591e-09 1.51854e-10)
(0.0853664 5.7759e-09 -1.51237e-10)
(0.0853677 -1.00141e-09 -6.18307e-13)
(0.0866258 -3.41286e-09 1.73944e-10)
(0.0866252 3.84739e-09 -1.04519e-10)
(0.0866268 -4.24945e-10 -6.9368e-11)
(0.0873432 -1.20115e-09 1.82645e-10)
(0.0873422 1.27742e-09 -6.19244e-11)
(0.0873437 -7.03266e-11 -1.20648e-10)
(0.087343 1.13853e-09 1.82801e-10)
(0.0873421 -1.21273e-09 -6.17568e-11)
(0.0873436 7.64671e-11 -1.20969e-10)
(0.0866256 3.39005e-09 1.73806e-10)
(0.086625 -3.78835e-09 -1.03943e-10)
(0.0866265 3.9623e-10 -6.98104e-11)
(0.0853664 4.70691e-09 1.51647e-10)
(0.0853662 -5.69935e-09 -1.50645e-10)
(0.0853675 9.89294e-10 -9.99948e-13)
(0.0835799 5.26884e-09 1.31773e-10)
(0.0835801 -6.45926e-09 -2.0429e-10)
(0.0835813 1.18608e-09 7.25159e-11)
(0.0813478 4.56432e-09 1.02229e-10)
(0.0813485 -5.3474e-09 -2.40882e-10)
(0.0813494 7.80986e-10 1.38627e-10)
(0.0787776 2.50973e-09 9.54633e-11)
(0.0787784 -2.53445e-09 -2.7276e-10)
(0.0787794 2.3656e-11 1.7731e-10)
(0.0759124 -9.98066e-10 9.6581e-11)
(0.0759135 2.22966e-09 -2.98178e-10)
(0.0759143 -1.23235e-09 2.01582e-10)
(0.0727625 -5.21324e-09 1.04238e-10)
(0.0727637 8.18912e-09 -3.19466e-10)
(0.0727646 -2.97594e-09 2.15221e-10)
(0.0693014 -9.05263e-09 1.1168e-10)
(0.0693026 1.39752e-08 -3.25286e-10)
(0.0693035 -4.92105e-09 2.13596e-10)
(0.0654673 -1.15074e-08 1.15165e-10)
(0.0654684 1.79397e-08 -3.1399e-10)
(0.0654695 -6.43054e-09 1.98838e-10)
(0.0611707 -1.06729e-08 1.09997e-10)
(0.0611718 1.64822e-08 -2.7802e-10)
(0.0611731 -5.80927e-09 1.68056e-10)
(0.0562758 -7.19193e-09 1.0379e-10)
(0.0562768 1.01859e-08 -2.40329e-10)
(0.0562782 -2.99438e-09 1.36552e-10)
(0.0505682 -2.85945e-09 8.90379e-11)
(0.0505689 2.56017e-10 -1.73804e-10)
(0.0505702 2.60065e-09 8.47909e-11)
(0.0437523 -1.12714e-10 7.11866e-11)
(0.0437523 -3.3269e-09 -1.34078e-10)
(0.0437534 3.43679e-09 6.28792e-11)
(0.0180669 8.67457e-11 1.84987e-11)
(0.0180668 -3.90756e-10 -3.67037e-11)
(0.0180672 3.03455e-10 1.81915e-11)
(0.0409669 -2.00157e-10 1.05173e-10)
(0.0409672 8.90844e-10 -2.11606e-10)
(0.0409672 -7.02933e-10 1.06195e-10)
(0.0934433 -1.01411e-11 3.18779e-10)
(0.0934451 6.63304e-09 -5.98621e-10)
(0.0934451 -6.61477e-09 2.79347e-10)
(0.104984 5.01972e-09 3.33657e-10)
(0.104987 5.17957e-11 -6.10394e-10)
(0.104987 -5.03955e-09 2.76259e-10)
(0.113669 1.29665e-08 3.70271e-10)
(0.113672 -1.76741e-08 -7.66802e-10)
(0.113672 4.74053e-09 3.96558e-10)
(0.120784 1.90119e-08 4.12078e-10)
(0.120786 -2.86065e-08 -9.56166e-10)
(0.120787 9.6299e-09 5.44071e-10)
(0.126833 2.04158e-08 4.51519e-10)
(0.126836 -3.1085e-08 -1.11048e-09)
(0.126837 1.07004e-08 6.58962e-10)
(0.132107 1.60039e-08 4.52929e-10)
(0.13211 -2.39732e-08 -1.15662e-09)
(0.13211 7.99569e-09 7.03697e-10)
(0.136781 9.02985e-09 4.16111e-10)
(0.136784 -1.38569e-08 -1.10691e-09)
(0.136783 4.84686e-09 6.91004e-10)
(0.140973 1.62491e-09 3.73489e-10)
(0.140975 -3.60493e-09 -1.00261e-09)
(0.140975 1.99007e-09 6.29124e-10)
(0.144739 -4.44057e-09 3.48096e-10)
(0.144741 4.48242e-09 -8.89713e-10)
(0.144741 -3.64175e-11 5.41591e-10)
(0.148081 -7.90676e-09 3.4982e-10)
(0.148084 9.21416e-09 -7.7245e-10)
(0.148083 -1.301e-09 4.22562e-10)
(0.150958 -9.1138e-09 4.21603e-10)
(0.15096 1.10006e-08 -6.5305e-10)
(0.15096 -1.87427e-09 2.31367e-10)
(0.153279 -8.0754e-09 4.92792e-10)
(0.15328 9.65546e-09 -5.11105e-10)
(0.153281 -1.56502e-09 1.82801e-11)
(0.154975 -5.75819e-09 5.49094e-10)
(0.154975 6.40207e-09 -3.71703e-10)
(0.154976 -6.27154e-10 -1.77329e-10)
(0.155936 -2.02225e-09 5.67029e-10)
(0.155937 2.12152e-09 -2.42089e-10)
(0.155936 -8.90314e-11 -3.24837e-10)
(0.155935 1.91722e-09 5.67544e-10)
(0.155937 -2.01674e-09 -2.4155e-10)
(0.155936 1.02966e-10 -3.25882e-10)
(0.154974 5.71695e-09 5.48583e-10)
(0.154975 -6.30398e-09 -3.69897e-10)
(0.154975 5.82659e-10 -1.78613e-10)
(0.153279 7.97485e-09 4.92098e-10)
(0.15328 -9.53093e-09 -5.09316e-10)
(0.15328 1.54976e-09 1.72193e-11)
(0.150958 8.96919e-09 4.21386e-10)
(0.15096 -1.08604e-08 -6.50541e-10)
(0.15096 1.88308e-09 2.29119e-10)
(0.148081 7.81526e-09 3.49125e-10)
(0.148084 -9.05068e-09 -7.7001e-10)
(0.148084 1.23099e-09 4.20804e-10)
(0.144739 4.31841e-09 3.46129e-10)
(0.144741 -4.35181e-09 -8.88072e-10)
(0.144741 3.08016e-11 5.41913e-10)
(0.140972 -1.76237e-09 3.72046e-10)
(0.140975 3.76253e-09 -9.99502e-10)
(0.140975 -2.00175e-09 6.27385e-10)
(0.136779 -9.22755e-09 4.157e-10)
(0.136782 1.41072e-08 -1.10441e-09)
(0.136782 -4.88007e-09 6.88632e-10)
(0.132103 -1.62148e-08 4.52138e-10)
(0.132106 2.44055e-08 -1.15563e-09)
(0.132106 -8.18821e-09 7.03404e-10)
(0.126827 -2.08641e-08 4.53112e-10)
(0.12683 3.16969e-08 -1.11204e-09)
(0.12683 -1.08298e-08 6.58911e-10)
(0.120775 -1.96203e-08 4.10638e-10)
(0.120778 2.94466e-08 -9.54796e-10)
(0.120778 -9.82592e-09 5.44196e-10)
(0.113661 -1.33989e-08 3.65433e-10)
(0.113664 1.83001e-08 -7.59194e-10)
(0.113665 -4.90155e-09 3.93809e-10)
(0.104979 -5.25883e-09 3.30296e-10)
(0.104982 1.63988e-10 -6.00508e-10)
(0.104982 5.08957e-09 2.7029e-10)
(0.0934405 2.09326e-11 3.14666e-10)
(0.0934417 -6.582e-09 -5.89178e-10)
(0.0934423 6.55558e-09 2.74402e-10)
(0.0409658 2.63551e-10 1.07856e-10)
(0.0409661 -9.66216e-10 -2.11691e-10)
(0.0409661 7.01626e-10 1.03697e-10)
(0.0619498 -3.83633e-10 2.59078e-10)
(0.0619504 1.43621e-09 -5.08306e-10)
(0.0619503 -1.06833e-09 2.48991e-10)
(0.13016 -2.00205e-10 6.41225e-10)
(0.130161 8.83547e-09 -1.1966e-09)
(0.130162 -8.6223e-09 5.53919e-10)
(0.144884 6.45165e-09 6.5266e-10)
(0.144888 3.23513e-10 -1.15862e-09)
(0.144888 -6.73102e-09 5.04823e-10)
(0.15523 1.68542e-08 7.16587e-10)
(0.155233 -2.24473e-08 -1.41159e-09)
(0.155233 5.6378e-09 6.94946e-10)
(0.163529 2.46458e-08 8.12854e-10)
(0.163532 -3.64535e-08 -1.81955e-09)
(0.163533 1.18544e-08 1.00661e-09)
(0.170506 2.63603e-08 9.0582e-10)
(0.170509 -3.95404e-08 -2.13935e-09)
(0.17051 1.32196e-08 1.23352e-09)
(0.176538 2.05853e-08 9.15349e-10)
(0.176542 -3.04021e-08 -2.23432e-09)
(0.176541 9.84876e-09 1.31901e-09)
(0.181853 1.15663e-08 8.39586e-10)
(0.181856 -1.74913e-08 -2.12284e-09)
(0.181856 5.94932e-09 1.28368e-09)
(0.186596 2.07458e-09 7.46893e-10)
(0.186599 -4.49737e-09 -1.90687e-09)
(0.186598 2.4356e-09 1.16006e-09)
(0.19084 -5.64511e-09 6.85608e-10)
(0.190843 5.68793e-09 -1.67662e-09)
(0.190842 -3.59677e-11 9.90996e-10)
(0.194593 -1.00357e-08 6.7585e-10)
(0.194596 1.16102e-08 -1.45127e-09)
(0.194595 -1.56613e-09 7.75307e-10)
(0.197813 -1.15417e-08 7.95453e-10)
(0.197816 1.38287e-08 -1.23082e-09)
(0.197815 -2.27067e-09 4.35236e-10)
(0.20042 -1.02184e-08 9.28181e-10)
(0.200422 1.21443e-08 -9.89039e-10)
(0.200422 -1.90647e-09 6.07943e-11)
(0.202353 -7.2338e-09 1.02041e-09)
(0.202354 8.00068e-09 -7.40188e-10)
(0.202354 -7.45199e-10 -2.80171e-10)
(0.203446 -2.54097e-09 1.04501e-09)
(0.203448 2.65003e-09 -5.06035e-10)
(0.203448 -9.58174e-11 -5.38864e-10)
(0.203446 2.40957e-09 1.04598e-09)
(0.203448 -2.52019e-09 -5.05043e-10)
(0.203447 1.15017e-10 -5.40811e-10)
(0.202352 7.18035e-09 1.01939e-09)
(0.202354 -7.87688e-09 -7.3687e-10)
(0.202354 6.90762e-10 -2.82444e-10)
(0.20042 1.00912e-08 9.2686e-10)
(0.200422 -1.1989e-08 -9.85829e-10)
(0.200422 1.88959e-09 5.89682e-11)
(0.197813 1.13595e-08 7.94977e-10)
(0.197815 -1.36541e-08 -1.22641e-09)
(0.197815 2.28414e-09 4.3137e-10)
(0.194593 9.91733e-09 6.74518e-10)
(0.194597 -1.14045e-08 -1.44688e-09)
(0.194596 1.48138e-09 7.72212e-10)
(0.19084 5.49091e-09 6.8209e-10)
(0.190843 -5.52423e-09 -1.67385e-09)
(0.190842 2.98434e-11 9.91692e-10)
(0.186595 -2.25125e-09 7.44461e-10)
(0.186599 4.69634e-09 -1.90136e-09)
(0.186598 -2.4472e-09 1.15677e-09)
(0.181851 -1.1823e-08 8.38743e-10)
(0.181854 1.78081e-08 -2.11887e-09)
(0.181854 -5.98567e-09 1.27997e-09)
(0.176534 -2.0865e-08 9.14941e-10)
(0.176537 3.09594e-08 -2.23364e-09)
(0.176537 -1.00913e-08 1.31853e-09)
(0.170498 -2.6944e-08 9.09667e-10)
(0.170502 4.03301e-08 -2.14342e-09)
(0.170501 -1.33824e-08 1.23372e-09)
(0.163519 -2.54365e-08 8.10542e-10)
(0.163523 3.75353e-08 -1.81717e-09)
(0.163523 -1.20983e-08 1.00668e-09)
(0.15522 -1.74224e-08 7.05619e-10)
(0.155224 2.32611e-08 -1.39496e-09)
(0.155224 -5.8392e-09 6.89447e-10)
(0.144879 -6.76536e-09 6.44584e-10)
(0.144881 -3.45735e-11 -1.13678e-09)
(0.144882 6.79305e-09 4.92351e-10)
(0.130156 2.04267e-10 6.31297e-10)
(0.130157 -8.75706e-09 -1.17582e-09)
(0.130158 8.54558e-09 5.44285e-10)
(0.0619482 4.67768e-10 2.64008e-10)
(0.0619488 -1.53462e-09 -5.07273e-10)
(0.0619487 1.06542e-09 2.42967e-10)
(0.0707333 -4.79868e-10 3.55826e-10)
(0.0707327 1.68098e-09 -6.92517e-10)
(0.0707339 -1.21761e-09 3.36462e-10)
(0.142385 -3.01327e-10 8.10107e-10)
(0.142385 9.48759e-09 -1.50912e-09)
(0.142387 -9.17149e-09 6.97037e-10)
(0.158167 6.832e-09 8.19758e-10)
(0.158168 4.69064e-10 -1.43806e-09)
(0.158171 -7.25313e-09 6.16846e-10)
(0.168985 1.79555e-08 8.99702e-10)
(0.168987 -2.36691e-08 -1.7388e-09)
(0.168989 5.76214e-09 8.39047e-10)
(0.177612 2.6263e-08 1.02977e-09)
(0.177613 -3.85587e-08 -2.27456e-09)
(0.177616 1.23464e-08 1.24476e-09)
(0.184845 2.80757e-08 1.15608e-09)
(0.184846 -4.18473e-08 -2.69079e-09)
(0.184848 1.38145e-08 1.5348e-09)
(0.191088 2.19106e-08 1.17231e-09)
(0.19109 -3.21672e-08 -2.81673e-09)
(0.191091 1.02912e-08 1.6446e-09)
(0.196583 1.22983e-08 1.07594e-09)
(0.196584 -1.8484e-08 -2.67282e-09)
(0.196585 6.21193e-09 1.59753e-09)
(0.201481 2.20062e-09 9.55709e-10)
(0.201482 -4.72749e-09 -2.39689e-09)
(0.201483 2.54072e-09 1.4414e-09)
(0.205861 -5.99956e-09 8.73879e-10)
(0.205862 6.04096e-09 -2.10289e-09)
(0.205863 -3.40248e-11 1.22908e-09)
(0.209731 -1.06595e-08 8.56768e-10)
(0.209732 1.22945e-08 -1.82086e-09)
(0.209733 -1.62616e-09 9.64028e-10)
(0.213049 -1.22523e-08 1.00039e-09)
(0.21305 1.46353e-08 -1.54884e-09)
(0.213051 -2.36558e-09 5.4835e-10)
(0.215738 -1.08495e-08 1.16642e-09)
(0.215738 1.28705e-08 -1.25866e-09)
(0.21574 -2.00024e-09 9.22063e-11)
(0.217737 -7.64424e-09 1.27598e-09)
(0.217736 8.44501e-09 -9.54003e-10)
(0.217738 -7.77537e-10 -3.21898e-10)
(0.218868 -2.68654e-09 1.30263e-09)
(0.218867 2.7972e-09 -6.65394e-10)
(0.218869 -9.64346e-11 -6.37089e-10)
(0.218867 2.54793e-09 1.30385e-09)
(0.218867 -2.66039e-09 -6.6416e-10)
(0.218868 1.17227e-10 -6.39525e-10)
(0.217736 7.58715e-09 1.27467e-09)
(0.217735 -8.31343e-09 -9.49873e-10)
(0.217738 7.20205e-10 -3.24681e-10)
(0.215738 1.07144e-08 1.16475e-09)
(0.215738 -1.27061e-08 -1.25471e-09)
(0.21574 1.98302e-09 9.0004e-11)
(0.213049 1.20593e-08 9.99753e-10)
(0.213049 -1.44511e-08 -1.54344e-09)
(0.213051 2.38064e-09 5.43676e-10)
(0.209731 1.05329e-08 8.55085e-10)
(0.209732 -1.20764e-08 -1.81546e-09)
(0.209734 1.53745e-09 9.60261e-10)
(0.20586 5.83575e-09 8.69558e-10)
(0.205862 -5.86761e-09 -2.09957e-09)
(0.205863 2.82159e-11 1.23001e-09)
(0.20148 -2.38886e-09 9.52786e-10)
(0.201481 4.93895e-09 -2.39014e-09)
(0.201483 -2.55237e-09 1.43728e-09)
(0.19658 -1.25721e-08 1.07486e-09)
(0.196581 1.88205e-08 -2.66819e-09)
(0.196583 -6.24919e-09 1.59324e-09)
(0.191083 -2.22116e-08 1.17229e-09)
(0.191085 3.27611e-08 -2.81643e-09)
(0.191086 -1.05465e-08 1.64404e-09)
(0.184836 -2.86994e-08 1.16129e-09)
(0.184838 4.26881e-08 -2.69645e-09)
(0.18484 -1.39851e-08 1.53522e-09)
(0.177602 -2.71063e-08 1.02707e-09)
(0.177603 3.97077e-08 -2.27172e-09)
(0.177606 -1.26012e-08 1.2448e-09)
(0.168976 -1.85635e-08 8.85236e-10)
(0.168977 2.45354e-08 -1.7171e-09)
(0.16898 -5.97259e-09 8.32056e-10)
(0.158161 -7.16745e-09 8.08961e-10)
(0.158162 -1.57843e-10 -1.40956e-09)
(0.158165 7.318e-09 6.00846e-10)
(0.14238 3.00658e-10 7.96772e-10)
(0.142381 -9.39875e-09 -1.48203e-09)
(0.142382 9.09046e-09 6.85008e-10)
(0.0707316 5.70139e-10 3.6215e-10)
(0.0707309 -1.78563e-09 -6.90752e-10)
(0.0707321 1.21394e-09 3.28243e-10)
(0.086828 -6.84152e-10 5.99417e-10)
(0.0868277 2.15295e-09 -1.1514e-09)
(0.0868286 -1.48553e-09 5.51767e-10)
(0.162144 -4.98163e-10 1.17372e-09)
(0.162144 1.04578e-08 -2.18138e-09)
(0.162146 -9.94159e-09 1.00431e-09)
(0.179752 7.3505e-09 1.18555e-09)
(0.179753 7.69084e-10 -2.03531e-09)
(0.179756 -8.06587e-09 8.47527e-10)
(0.191432 1.95394e-08 1.30524e-09)
(0.191434 -2.526e-08 -2.43964e-09)
(0.191436 5.77509e-09 1.13429e-09)
(0.200646 2.86314e-08 1.51827e-09)
(0.200648 -4.14645e-08 -3.2755e-09)
(0.20065 1.28897e-08 1.75721e-09)
(0.208336 3.06136e-08 1.72564e-09)
(0.208337 -4.51078e-08 -3.91857e-09)
(0.208339 1.45424e-08 2.19316e-09)
(0.214955 2.38837e-08 1.76e-09)
(0.214957 -3.46879e-08 -4.12108e-09)
(0.214958 1.08434e-08 2.3614e-09)
(0.22077 1.33884e-08 1.61843e-09)
(0.220772 -1.98976e-08 -3.907e-09)
(0.220773 6.53889e-09 2.28948e-09)
(0.225946 2.38087e-09 1.43713e-09)
(0.225948 -5.03286e-09 -3.49905e-09)
(0.225949 2.66761e-09 2.06229e-09)
(0.230569 -6.54462e-09 1.30781e-09)
(0.23057 6.58726e-09 -3.06317e-09)
(0.230571 -3.42078e-11 1.75547e-09)
(0.234648 -1.16135e-08 1.27383e-09)
(0.234649 1.3327e-08 -2.6588e-09)
(0.234651 -1.70343e-09 1.38486e-09)
(0.238142 -1.33389e-08 1.46761e-09)
(0.238142 1.58513e-08 -2.27965e-09)
(0.238144 -2.49305e-09 8.11878e-10)
(0.24097 -1.18199e-08 1.7071e-09)
(0.24097 1.39937e-08 -1.89278e-09)
(0.240972 -2.15064e-09 1.85614e-10)
(0.243072 -8.23006e-09 1.85001e-09)
(0.243072 9.0946e-09 -1.47078e-09)
(0.243074 -8.38669e-10 -3.79155e-10)
(0.244261 -2.89652e-09 1.87961e-09)
(0.244261 3.01269e-09 -1.06768e-09)
(0.244263 -1.00299e-10 -8.11762e-10)
(0.244261 2.74775e-09 1.88139e-09)
(0.244261 -2.86573e-09 -1.06591e-09)
(0.244262 1.23401e-10 -8.15286e-10)
(0.243072 8.1676e-09 1.848e-09)
(0.243071 -8.95089e-09 -1.46485e-09)
(0.243073 7.76677e-10 -3.83023e-10)
(0.24097 1.1673e-08 1.7046e-09)
(0.24097 -1.38154e-08 -1.8872e-09)
(0.240972 2.1329e-09 1.82657e-10)
(0.238141 1.31297e-08 1.46656e-09)
(0.238141 -1.56526e-08 -2.27216e-09)
(0.238143 2.51076e-09 8.05576e-10)
(0.234648 1.14742e-08 1.27134e-09)
(0.234649 -1.30899e-08 -2.6512e-09)
(0.234651 1.60906e-09 1.37969e-09)
(0.230568 6.36586e-09 1.30164e-09)
(0.23057 -6.39917e-09 -3.05881e-09)
(0.230571 2.9372e-11 1.75715e-09)
(0.225945 -2.5868e-09 1.43333e-09)
(0.225947 5.26393e-09 -3.48956e-09)
(0.225948 -2.67961e-09 2.05613e-09)
(0.220767 -1.36877e-08 1.6168e-09)
(0.220769 2.02646e-08 -3.90127e-09)
(0.22077 -6.57773e-09 2.28432e-09)
(0.21495 -2.42181e-08 1.76108e-09)
(0.214952 3.53368e-08 -4.12211e-09)
(0.214953 -1.11153e-08 2.36088e-09)
(0.208327 -3.1298e-08 1.73411e-09)
(0.208329 4.60242e-08 -3.92832e-09)
(0.20833 -1.47222e-08 2.1943e-09)
(0.200635 -2.95526e-08 1.5147e-09)
(0.200637 4.271e-08 -3.27178e-09)
(0.200639 -1.3157e-08 1.75729e-09)
(0.191422 -2.02063e-08 1.28279e-09)
(0.191424 2.62012e-08 -2.40629e-09)
(0.191426 -5.99564e-09 1.1238e-09)
(0.179745 -7.71832e-09 1.1682e-09)
(0.179746 -4.23877e-10 -1.9917e-09)
(0.179749 8.1343e-09 8.2387e-10)
(0.162139 4.87163e-10 1.15248e-09)
(0.16214 -1.03511e-08 -2.14006e-09)
(0.162141 9.85558e-09 9.87184e-10)
(0.0868259 7.81495e-10 6.08786e-10)
(0.0868256 -2.26393e-09 -1.14751e-09)
(0.0868265 1.48061e-09 5.38129e-10)
(0.100513 -8.94823e-10 9.14732e-10)
(0.100513 2.585e-09 -1.73769e-09)
(0.100514 -1.70572e-09 8.22687e-10)
(0.17609 -6.83891e-10 1.57339e-09)
(0.17609 1.10407e-08 -2.91837e-09)
(0.176092 -1.03363e-08 1.33994e-09)
(0.195235 7.5895e-09 1.59976e-09)
(0.195237 1.08029e-09 -2.68978e-09)
(0.195239 -8.61258e-09 1.08693e-09)
(0.207732 2.03955e-08 1.77392e-09)
(0.207733 -2.58575e-08 -3.21627e-09)
(0.207736 5.52036e-09 1.44222e-09)
(0.217501 2.99794e-08 2.09348e-09)
(0.217503 -4.28459e-08 -4.42121e-09)
(0.217505 1.29271e-08 2.3278e-09)
(0.225624 3.21005e-08 2.40336e-09)
(0.225625 -4.6788e-08 -5.3411e-09)
(0.225627 1.47398e-08 2.93821e-09)
(0.232602 2.50593e-08 2.46214e-09)
(0.232603 -3.60281e-08 -5.64161e-09)
(0.232605 1.1012e-08 3.18e-09)
(0.238722 1.40377e-08 2.26921e-09)
(0.238724 -2.06414e-08 -5.3497e-09)
(0.238725 6.63634e-09 3.08168e-09)
(0.244163 2.47435e-09 2.01906e-09)
(0.244165 -5.15301e-09 -4.79301e-09)
(0.244166 2.69565e-09 2.7745e-09)
(0.249017 -6.90074e-09 1.83324e-09)
(0.249018 6.95389e-09 -4.19536e-09)
(0.24902 -4.38604e-11 2.36227e-09)
(0.253296 -1.22277e-08 1.78107e-09)
(0.253297 1.3975e-08 -3.65741e-09)
(0.253299 -1.73637e-09 1.87616e-09)
(0.256956 -1.40376e-08 2.02946e-09)
(0.256957 1.66126e-08 -3.16837e-09)
(0.256958 -2.55416e-09 1.13868e-09)
(0.259914 -1.24526e-08 2.35051e-09)
(0.259915 1.47433e-08 -2.68644e-09)
(0.259916 -2.26578e-09 3.35831e-10)
(0.262106 -8.54429e-09 2.52426e-09)
(0.262106 9.47711e-09 -2.14203e-09)
(0.262108 -9.05037e-10 -3.82139e-10)
(0.263344 -3.00887e-09 2.55414e-09)
(0.263344 3.13644e-09 -1.61767e-09)
(0.263346 -1.10523e-10 -9.36244e-10)
(0.263344 2.85498e-09 2.55655e-09)
(0.263344 -2.98392e-09 -1.61528e-09)
(0.263346 1.34873e-10 -9.4103e-10)
(0.262105 8.4787e-09 2.52138e-09)
(0.262105 -9.32527e-09 -2.13403e-09)
(0.262107 8.39624e-10 -3.87177e-10)
(0.259914 1.22981e-08 2.347e-09)
(0.259914 -1.4556e-08 -2.67906e-09)
(0.259916 2.24775e-09 3.32149e-10)
(0.256955 1.38183e-08 2.02784e-09)
(0.256956 -1.64052e-08 -3.1586e-09)
(0.256957 2.57397e-09 1.13072e-09)
(0.253296 1.20798e-08 1.77761e-09)
(0.253297 -1.37259e-08 -3.64732e-09)
(0.253298 1.63908e-09 1.86947e-09)
(0.249016 6.7121e-09 1.82491e-09)
(0.249018 -6.7565e-09 -4.19003e-09)
(0.249019 4.02566e-11 2.36507e-09)
(0.244162 -2.69165e-09 2.01441e-09)
(0.244164 5.39708e-09 -4.78043e-09)
(0.244165 -2.70807e-09 2.7659e-09)
(0.238719 -1.43527e-08 2.26694e-09)
(0.238721 2.10279e-08 -5.34309e-09)
(0.238722 -6.67604e-09 3.07597e-09)
(0.232596 -2.54161e-08 2.46487e-09)
(0.232597 3.6711e-08 -5.6448e-09)
(0.232599 -1.12912e-08 3.17974e-09)
(0.225614 -3.2823e-08 2.41591e-09)
(0.225616 4.77493e-08 -5.3564e-09)
(0.225618 -1.4922e-08 2.94064e-09)
(0.21749 -3.09465e-08 2.08899e-09)
(0.217492 4.41435e-08 -4.41677e-09)
(0.217494 -1.31967e-08 2.32807e-09)
(0.207721 -2.1097e-08 1.74212e-09)
(0.207723 2.68382e-08 -3.16913e-09)
(0.207725 -5.74207e-09 1.42747e-09)
(0.195228 -7.97657e-09 1.57437e-09)
(0.195229 -7.13767e-10 -2.62866e-09)
(0.195231 8.68215e-09 1.05482e-09)
(0.176085 6.61699e-10 1.5425e-09)
(0.176085 -1.09201e-08 -2.86051e-09)
(0.176086 1.02496e-08 1.31745e-09)
(0.100511 9.92364e-10 9.27716e-10)
(0.100511 -2.69453e-09 -1.73078e-09)
(0.100512 1.70011e-09 8.02178e-10)
(0.11243 -1.10541e-09 1.31243e-09)
(0.11243 2.97603e-09 -2.46925e-09)
(0.112431 -1.88408e-09 1.15643e-09)
(0.187161 -8.68669e-10 2.02123e-09)
(0.187162 1.14516e-08 -3.74124e-09)
(0.187163 -1.05603e-08 1.71289e-09)
(0.207622 7.68169e-09 2.07853e-09)
(0.207623 1.42587e-09 -3.42845e-09)
(0.207625 -9.04807e-09 1.34584e-09)
(0.220919 2.08574e-08 2.32626e-09)
(0.220921 -2.59025e-08 -4.10625e-09)
(0.220923 5.10607e-09 1.77985e-09)
(0.231225 3.07692e-08 2.77849e-09)
(0.231227 -4.33796e-08 -5.75917e-09)
(0.231229 1.2674e-08 2.98086e-09)
(0.239759 3.30087e-08 3.2156e-09)
(0.239761 -4.75906e-08 -7.0103e-09)
(0.239763 1.46372e-08 3.79545e-09)
(0.247074 2.57904e-08 3.30401e-09)
(0.247075 -3.67037e-08 -7.42887e-09)
(0.247077 1.09596e-08 4.12566e-09)
(0.253477 1.44365e-08 3.05064e-09)
(0.253479 -2.10002e-08 -7.04746e-09)
(0.25348 6.59845e-09 3.99835e-09)
(0.259163 2.51277e-09 2.72142e-09)
(0.259165 -5.15505e-09 -6.32197e-09)
(0.259166 2.66021e-09 3.60132e-09)
(0.264229 -7.15764e-09 2.46895e-09)
(0.26423 7.23535e-09 -5.54008e-09)
(0.264232 -6.77724e-11 3.07134e-09)
(0.26869 -1.26574e-08 2.40069e-09)
(0.268692 1.44211e-08 -4.85926e-09)
(0.268693 -1.75204e-09 2.45831e-09)
(0.272502 -1.45232e-08 2.71045e-09)
(0.272503 1.71316e-08 -4.26148e-09)
(0.272504 -2.58634e-09 1.55069e-09)
(0.275578 -1.28994e-08 3.1206e-09)
(0.275578 1.5298e-08 -3.6897e-09)
(0.27558 -2.37224e-09 5.68949e-10)
(0.277849 -8.74763e-09 3.32892e-09)
(0.277849 9.76525e-09 -3.02833e-09)
(0.277851 -9.88417e-10 -3.00453e-10)
(0.279131 -3.05895e-09 3.34549e-09)
(0.279131 3.20714e-09 -2.36775e-09)
(0.279133 -1.30256e-10 -9.7743e-10)
(0.27913 2.9031e-09 3.34865e-09)
(0.279131 -3.05195e-09 -2.36462e-09)
(0.279132 1.55153e-10 -9.83687e-10)
(0.277848 8.6797e-09 3.32494e-09)
(0.277849 -9.60717e-09 -3.01793e-09)
(0.277851 9.20248e-10 -3.06742e-10)
(0.275577 1.27397e-08 3.11582e-09)
(0.275578 -1.51044e-08 -3.68032e-09)
(0.275579 2.35412e-09 5.64618e-10)
(0.272501 1.42971e-08 2.70807e-09)
(0.272502 -1.69189e-08 -4.24918e-09)
(0.272504 2.6081e-09 1.54106e-09)
(0.26869 1.25032e-08 2.39611e-09)
(0.268691 -1.41643e-08 -4.84617e-09)
(0.268692 1.6536e-09 2.44977e-09)
(0.264228 6.96212e-09 2.45811e-09)
(0.26423 -7.03188e-09 -5.5339e-09)
(0.264231 6.54192e-11 3.07571e-09)
(0.259162 -2.73804e-09 2.71585e-09)
(0.259164 5.40811e-09 -6.30587e-09)
(0.259165 -2.67287e-09 3.58986e-09)
(0.253474 -1.47625e-08 3.04765e-09)
(0.253475 2.13995e-08 -7.04016e-09)
(0.253476 -6.63785e-09 3.99226e-09)
(0.247067 -2.61637e-08 3.30893e-09)
(0.247069 3.74089e-08 -7.43509e-09)
(0.24707 -1.12414e-08 4.1259e-09)
(0.239749 -3.37578e-08 3.23317e-09)
(0.239751 4.85807e-08 -7.03297e-09)
(0.239753 -1.48186e-08 3.80001e-09)
(0.231213 -3.17654e-08 2.77307e-09)
(0.231214 4.47065e-08 -5.75427e-09)
(0.231216 -1.29407e-08 2.98159e-09)
(0.220908 -2.15805e-08 2.28364e-09)
(0.220909 2.69043e-08 -4.04293e-09)
(0.220912 -5.32456e-09 1.75995e-09)
(0.207613 -8.08135e-09 2.04346e-09)
(0.207615 -1.04482e-09 -3.34703e-09)
(0.207617 9.11784e-09 1.30432e-09)
(0.187156 8.34708e-10 1.9786e-09)
(0.187156 -1.13189e-08 -3.66416e-09)
(0.187157 1.04752e-08 1.6848e-09)
(0.112428 1.19822e-09 1.32962e-09)
(0.112428 -3.07914e-09 -2.45827e-09)
(0.112428 1.87866e-09 1.12744e-09)
(0.123599 -1.29006e-09 1.81485e-09)
(0.123599 3.42603e-09 -3.38252e-09)
(0.1236 -2.14635e-09 1.56696e-09)
(0.195045 -9.28191e-10 2.48534e-09)
(0.195045 1.14714e-08 -4.58434e-09)
(0.195047 -1.05189e-08 2.08964e-09)
(0.21716 7.70692e-09 2.60047e-09)
(0.217161 1.61757e-09 -4.22449e-09)
(0.217164 -9.2642e-09 1.61878e-09)
(0.23128 2.09461e-08 2.94303e-09)
(0.231281 -2.53713e-08 -5.08185e-09)
(0.231284 4.48765e-09 2.13857e-09)
(0.24211 3.10082e-08 3.54928e-09)
(0.242112 -4.30741e-08 -7.23062e-09)
(0.242114 1.2131e-08 3.68162e-09)
(0.25103 3.3346e-08 4.13282e-09)
(0.251032 -4.75363e-08 -8.85228e-09)
(0.251034 1.42472e-08 4.72049e-09)
(0.258651 2.61131e-08 4.25666e-09)
(0.258652 -3.67885e-08 -9.40736e-09)
(0.258654 1.0723e-08 5.15179e-09)
(0.265307 1.46197e-08 3.93961e-09)
(0.265309 -2.10367e-08 -8.93448e-09)
(0.26531 6.45266e-09 4.9968e-09)
(0.271208 2.51942e-09 3.52635e-09)
(0.27121 -5.07839e-09 -8.03392e-09)
(0.271211 2.57742e-09 4.50861e-09)
(0.276459 -7.3061e-09 3.20039e-09)
(0.27646 7.41887e-09 -7.06158e-09)
(0.276461 -1.02418e-10 3.86147e-09)
(0.281077 -1.291e-08 3.12462e-09)
(0.281079 1.46761e-08 -6.24448e-09)
(0.28108 -1.75396e-09 3.1195e-09)
(0.285018 -1.48098e-08 3.50197e-09)
(0.285019 1.7428e-08 -5.55715e-09)
(0.28502 -2.59543e-09 2.05474e-09)
(0.288192 -1.31745e-08 4.00556e-09)
(0.288192 1.56645e-08 -4.92048e-09)
(0.288194 -2.46273e-09 9.14717e-10)
(0.290529 -8.86793e-09 4.25008e-09)
(0.29053 9.98195e-09 -4.16425e-09)
(0.290531 -1.08385e-09 -8.5644e-11)
(0.291848 -3.08363e-09 4.25494e-09)
(0.291848 3.26345e-09 -3.38222e-09)
(0.29185 -1.61322e-10 -8.7228e-10)
(0.291847 2.92725e-09 4.25894e-09)
(0.291848 -3.10677e-09 -3.37828e-09)
(0.29185 1.86011e-10 -8.80163e-10)
(0.290528 8.79781e-09 4.24482e-09)
(0.290529 -9.81937e-09 -4.15128e-09)
(0.290531 1.01403e-09 -9.31892e-11)
(0.288191 1.30118e-08 3.99921e-09)
(0.288192 -1.54675e-08 -4.90898e-09)
(0.288193 2.44471e-09 9.09915e-10)
(0.285017 1.458e-08 3.49859e-09)
(0.285018 -1.72127e-08 -5.54223e-09)
(0.28502 2.61851e-09 2.04357e-09)
(0.281077 1.27512e-08 3.1188e-09)
(0.281078 -1.44158e-08 -6.22827e-09)
(0.281079 1.6568e-09 3.10909e-09)
(0.276458 7.10646e-09 3.18661e-09)
(0.276459 -7.21183e-09 -7.0547e-09)
(0.27646 1.00775e-10 3.86797e-09)
(0.271207 -2.75012e-09 3.5198e-09)
(0.271209 5.33718e-09 -8.01422e-09)
(0.27121 -2.59005e-09 4.49421e-09)
(0.265304 -1.49527e-08 3.93601e-09)
(0.265306 2.14435e-08 -8.92693e-09)
(0.265307 -6.49167e-09 4.99057e-09)
(0.258644 -2.64999e-08 4.26442e-09)
(0.258646 3.75059e-08 -9.41765e-09)
(0.258647 -1.10021e-08 5.15288e-09)
(0.25102 -3.41111e-08 4.15598e-09)
(0.251021 4.85425e-08 -8.88394e-09)
(0.251023 -1.44271e-08 4.72823e-09)
(0.242097 -3.20154e-08 3.54273e-09)
(0.242099 4.44056e-08 -7.2254e-09)
(0.242101 -1.23899e-08 3.68317e-09)
(0.231268 -2.16792e-08 2.88903e-09)
(0.231269 2.63755e-08 -5.00131e-09)
(0.231272 -4.69722e-09 2.11314e-09)
(0.217151 -8.11295e-09 2.55438e-09)
(0.217153 -1.2241e-09 -4.12166e-09)
(0.217155 9.32875e-09 1.56824e-09)
(0.195039 8.79598e-10 2.43037e-09)
(0.195039 -1.13289e-08 -4.48769e-09)
(0.195041 1.04402e-08 2.05634e-09)
(0.123596 1.37253e-09 1.83537e-09)
(0.123596 -3.51634e-09 -3.36496e-09)
(0.123597 2.14125e-09 1.52796e-09)
(0.133704 -1.44181e-09 2.38935e-09)
(0.133704 3.8265e-09 -4.41619e-09)
(0.133705 -2.39189e-09 2.02558e-09)
(0.201562 -9.50443e-10 2.95627e-09)
(0.201562 1.13826e-08 -5.43352e-09)
(0.201564 -1.04066e-08 2.4656e-09)
(0.225035 7.6929e-09 3.1335e-09)
(0.225036 1.78736e-09 -5.02729e-09)
(0.225038 -9.41984e-09 1.88734e-09)
(0.23993 2.08629e-08 3.58445e-09)
(0.239932 -2.46084e-08 -6.08209e-09)
(0.239934 3.8086e-09 2.49724e-09)
(0.251261 3.09799e-08 4.35838e-09)
(0.251263 -4.23781e-08 -8.75174e-09)
(0.251265 1.14639e-08 4.39372e-09)
(0.260542 3.33959e-08 5.10312e-09)
(0.260544 -4.70654e-08 -1.07661e-08)
(0.260546 1.37271e-08 5.66425e-09)
(0.268445 2.62142e-08 5.26849e-09)
(0.268446 -3.65584e-08 -1.14673e-08)
(0.268447 1.03923e-08 6.20017e-09)
(0.275331 1.46779e-08 4.88682e-09)
(0.275333 -2.08903e-08 -1.09034e-08)
(0.275333 6.24839e-09 6.01893e-09)
(0.281424 2.49898e-09 4.38523e-09)
(0.281426 -4.94477e-09 -9.82851e-09)
(0.281426 2.46444e-09 5.44458e-09)
(0.286837 -7.40402e-09 3.98245e-09)
(0.286838 7.56414e-09 -8.67089e-09)
(0.286839 -1.49564e-10 4.68875e-09)
(0.291592 -1.30704e-08 3.90736e-09)
(0.291594 1.48384e-08 -7.73405e-09)
(0.291595 -1.75559e-09 3.82619e-09)
(0.295645 -1.49898e-08 4.35893e-09)
(0.295646 1.76128e-08 -6.98176e-09)
(0.295648 -2.59968e-09 2.62224e-09)
(0.298905 -1.33553e-08 4.95973e-09)
(0.298906 1.59237e-08 -6.31016e-09)
(0.298907 -2.54057e-09 1.35015e-09)
(0.301298 -8.94348e-09 5.24606e-09)
(0.301299 1.01554e-08 -5.48582e-09)
(0.301301 -1.18102e-09 2.39967e-10)
(0.302647 -3.09719e-09 5.23989e-09)
(0.302647 3.31289e-09 -4.59748e-09)
(0.302649 -1.9684e-10 -6.41868e-10)
(0.302646 2.94079e-09 5.24481e-09)
(0.302647 -3.15532e-09 -4.59268e-09)
(0.302649 2.21057e-10 -6.51508e-10)
(0.301297 8.87147e-09 5.23946e-09)
(0.301298 -9.9895e-09 -5.47023e-09)
(0.3013 1.11017e-09 2.31204e-10)
(0.298904 1.31906e-08 4.95164e-09)
(0.298905 -1.57248e-08 -6.29651e-09)
(0.298906 2.52276e-09 1.34504e-09)
(0.295644 1.47579e-08 4.35439e-09)
(0.295645 -1.73965e-08 -6.96424e-09)
(0.295647 2.62386e-09 2.60973e-09)
(0.291592 1.2908e-08 3.90029e-09)
(0.291593 -1.4577e-08 -7.71458e-09)
(0.291594 1.66074e-09 3.81379e-09)
(0.286836 7.20177e-09 3.96548e-09)
(0.286837 -7.35508e-09 -8.66346e-09)
(0.286838 1.48414e-10 4.69781e-09)
(0.281422 -2.73357e-09 4.37772e-09)
(0.281424 5.20726e-09 -9.80528e-09)
(0.281425 -2.47691e-09 5.42726e-09)
(0.275327 -1.50159e-08 4.88274e-09)
(0.275329 2.13012e-08 -1.0896e-08)
(0.27533 -6.28636e-09 6.01283e-09)
(0.268437 -2.66117e-08 5.27947e-09)
(0.268439 3.72822e-08 -1.14825e-08)
(0.26844 -1.06667e-08 6.20254e-09)
(0.260531 -3.41717e-08 5.1322e-09)
(0.260533 4.80807e-08 -1.08078e-08)
(0.260534 -1.39047e-08 5.67587e-09)
(0.251247 -3.19902e-08 4.35057e-09)
(0.251249 4.3704e-08 -8.74656e-09)
(0.251251 -1.17135e-08 4.39658e-09)
(0.239918 -2.16001e-08 3.51848e-09)
(0.239919 2.5607e-08 -5.98415e-09)
(0.239921 -4.00783e-09 2.46673e-09)
(0.225025 -8.10281e-09 3.07586e-09)
(0.225027 -1.38424e-09 -4.90279e-09)
(0.225029 9.47881e-09 1.8281e-09)
(0.201555 8.86919e-10 2.88855e-09)
(0.201556 -1.12315e-08 -5.31764e-09)
(0.201557 1.03355e-08 2.4279e-09)
(0.133701 1.51244e-09 2.41268e-09)
(0.133701 -3.90342e-09 -4.39055e-09)
(0.133702 2.38814e-09 1.97578e-09)
(0.143039 -1.5561e-09 3.04073e-09)
(0.143039 4.16244e-09 -5.57534e-09)
(0.14304 -2.61047e-09 2.53254e-09)
(0.207348 -9.47432e-10 3.44392e-09)
(0.207348 1.1229e-08 -6.30635e-09)
(0.20735 -1.0255e-08 2.84836e-09)
(0.231858 7.65494e-09 3.67998e-09)
(0.231859 1.95499e-09 -5.84026e-09)
(0.231861 -9.54985e-09 2.15253e-09)
(0.247479 2.06668e-08 4.25351e-09)
(0.247481 -2.36881e-08 -7.1072e-09)