/*--------------------------------*- C++ -*----------------------------------*\
  =========                 |
  \\      /  F ield         | OpenFOAM: The Open Source CFD Toolbox
   \\    /   O peration     | Website:  https://openfoam.org
    \\  /    A nd           | Version:  6
     \\/     M anipulation  |
\*---------------------------------------------------------------------------*/
FoamFile
{
    version     2.0;
    format      ascii;
    class       volScalarField;
    location    "0.6";
    object      k;
}
// * * * * * * * * * * * * * * * * * * * * * * * * * * * * * * * * * * * * * //

dimensions      [0 2 -2 0 0 0 0];

internalField   nonuniform List<scalar> 
63568
(
0.000287607
0.000328302
0.000309681
0.000291839
0.000284448
0.000282036
0.000280956
0.000281004
0.000279278
0.000282903
0.000285195
0.000276784
0.000271507
0.000272936
0.000276395
0.000279189
0.000281
0.000282245
0.000283309
0.000284398
0.000285604
0.000286952
0.000288536
0.000290197
0.000292442
0.000294289
0.000297493
0.000300132
0.000302812
0.000306963
0.000312292
0.000317599
0.000323834
0.000328904
0.00033675
0.000268613
0.000310955
0.000301302
0.000288378
0.000282428
0.000280132
0.000279065
0.000278739
0.000277745
0.000279204
0.000278398
0.000272993
0.000270124
0.000271427
0.000274361
0.000277263
0.000279698
0.00028172
0.000283501
0.000285194
0.000286924
0.000288745
0.000290786
0.00029288
0.000295588
0.000297832
0.000301552
0.000304518
0.000307784
0.000311794
0.000318868
0.000321514
0.000333717
0.000327591
0.000350394
0.000249735
0.000265961
0.00024519
0.000230443
0.000224858
0.000223535
0.00022336
0.000223722
0.000223289
0.000225584
0.000225191
0.00022238
0.000222054
0.000223936
0.000225862
0.000227098
0.000227898
0.000228622
0.000229466
0.000230489
0.000231694
0.000233059
0.000234639
0.000236281
0.000238407
0.00024016
0.000243052
0.000245273
0.000247807
0.00025116
0.000255816
0.0002589
0.000265472
0.000265375
0.000278213
0.000231315
0.000248072
0.000235015
0.000224838
0.000220821
0.000219942
0.000219958
0.000220758
0.000219862
0.000223545
0.0002228
0.00021703
0.000215465
0.000217886
0.000220938
0.000223313
0.000225033
0.000226398
0.000227646
0.000228908
0.000230256
0.000231706
0.000233332
0.000234994
0.000237113
0.000238841
0.000241667
0.000243848
0.000246191
0.000249639
0.000253637
0.000257627
0.000262004
0.00026553
0.00027173
0.0002133
0.000232564
0.000226794
0.000220718
0.000218285
0.00021796
0.000218298
0.000218872
0.000218845
0.000220045
0.000218693
0.000215679
0.000214838
0.000216301
0.000218705
0.000221179
0.000223409
0.000225366
0.000227141
0.000228841
0.000230558
0.000232331
0.000234256
0.000236198
0.000238586
0.000240574
0.000243651
0.000246076
0.000248589
0.000252234
0.000256337
0.00025999
0.000264983
0.000264939
0.00027411
0.000194619
0.000198675
0.00018645
0.00017864
0.000175691
0.000175292
0.000175636
0.00017652
0.000176116
0.000179135
0.000177702
0.000174402
0.000174502
0.000176702
0.000178903
0.000180535
0.000181742
0.000182758
0.000183744
0.000184791
0.000185939
0.000187187
0.000188584
0.000190008
0.000191784
0.000193232
0.000195543
0.000197227
0.000199263
0.000201738
0.00020529
0.00020709
0.000212342
0.000211519
0.000221319
0.000177586
0.000183348
0.000176083
0.000171555
0.000170484
0.000171203
0.000172209
0.000173317
0.000173261
0.000175604
0.000174095
0.000171164
0.000171211
0.000173164
0.000175303
0.000177103
0.000178606
0.000179944
0.000181218
0.000182488
0.000183795
0.000185149
0.00018661
0.000188069
0.000189853
0.00019129
0.000193568
0.000195185
0.000197177
0.000199404
0.000202974
0.000203887
0.000209431
0.000206129
0.000215737
0.000159731
0.000156556
0.000145537
0.000139534
0.000137675
0.000137928
0.000138674
0.000139642
0.000139663
0.000141901
0.000140792
0.000139193
0.000139907
0.000141598
0.000143047
0.000144076
0.00014486
0.000145561
0.000146281
0.000147068
0.000147943
0.000148895
0.000149956
0.000151029
0.000152359
0.000153416
0.000155119
0.000156308
0.000157768
0.000159609
0.000161912
0.000163435
0.000166374
0.000166695
0.000172114
0.000144005
0.000142743
0.000136206
0.000133252
0.000133188
0.00013448
0.000135762
0.000136993
0.000137011
0.000139388
0.000137812
0.000135644
0.000136159
0.000137907
0.00013957
0.000140898
0.000141993
0.000142972
0.000143913
0.00014486
0.000145839
0.000146854
0.000147944
0.000149024
0.000150342
0.000151377
0.000153038
0.000154175
0.000155577
0.000157284
0.00015951
0.000160624
0.000163495
0.000162527
0.000167686
0.000129269
0.000122018
0.00011252
0.000108194
0.000107422
0.000108221
0.000109168
0.000110064
0.00011028
0.000111849
0.00011115
0.000110528
0.0001114
0.000112649
0.000113561
0.000114157
0.000114627
0.000115097
0.000115621
0.000116216
0.000116882
0.000117606
0.000118405
0.000119207
0.000120196
0.000120962
0.000122218
0.000123049
0.000124115
0.000125403
0.000127085
0.000127907
0.000130262
0.000129742
0.000134297
0.000115456
0.000109897
0.000104186
0.000102591
0.000103468
0.000105166
0.000106515
0.000107662
0.000107697
0.000109811
0.00010836
0.000106907
0.000107624
0.000109043
0.000110242
0.000111159
0.000111919
0.000112616
0.0001133
0.000113995
0.000114715
0.00011546
0.000116258
0.000117045
0.000118005
0.000118738
0.000119947
0.000120728
0.000121741
0.000122935
0.00012455
0.000125157
0.000127402
0.000126281
0.000130457
0.000102295
9.2752e-05
8.49366e-05
8.22565e-05
8.25285e-05
8.37208e-05
8.4704e-05
8.54553e-05
8.57139e-05
8.68199e-05
8.63557e-05
8.62044e-05
8.70623e-05
8.7988e-05
8.85454e-05
8.8863e-05
8.91343e-05
8.94525e-05
8.98382e-05
9.02848e-05
9.07836e-05
9.13219e-05
9.19107e-05
9.24976e-05
9.32185e-05
9.3762e-05
9.46804e-05
9.52514e-05
9.60087e-05
9.69351e-05
9.81013e-05
9.86575e-05
0.000100243
9.98363e-05
0.000102931
8.94429e-05
8.1659e-05
7.73935e-05
7.736e-05
7.91888e-05
8.11217e-05
8.23758e-05
8.33147e-05
8.33727e-05
8.50244e-05
8.38492e-05
8.29564e-05
8.36305e-05
8.46629e-05
8.54847e-05
8.61217e-05
8.66716e-05
8.71876e-05
8.76955e-05
8.82085e-05
8.87361e-05
8.92799e-05
8.98593e-05
9.04281e-05
9.1121e-05
9.16365e-05
9.25146e-05
9.30473e-05
9.37657e-05
9.46248e-05
9.57523e-05
9.61585e-05
9.77202e-05
9.68913e-05
9.9891e-05
7.74167e-05
6.71579e-05
6.15165e-05
6.0655e-05
6.18975e-05
6.32772e-05
6.41325e-05
6.47065e-05
6.48743e-05
6.57624e-05
6.52765e-05
6.52294e-05
6.59906e-05
6.66978e-05
6.70604e-05
6.72478e-05
6.74323e-05
6.76736e-05
6.79703e-05
6.83087e-05
6.86793e-05
6.90739e-05
6.95006e-05
6.99241e-05
7.0441e-05
7.08214e-05
7.14875e-05
7.18694e-05
7.24028e-05
7.30724e-05
7.38809e-05
7.42553e-05
7.53274e-05
7.49771e-05
7.71066e-05
6.5557e-05
5.73217e-05
5.49541e-05
5.65428e-05
5.91459e-05
6.10588e-05
6.20658e-05
6.27407e-05
6.28003e-05
6.39795e-05
6.31267e-05
6.25672e-05
6.30207e-05
6.36895e-05
6.42672e-05
6.47629e-05
6.52039e-05
6.56062e-05
6.59874e-05
6.63638e-05
6.67459e-05
6.71375e-05
6.7552e-05
6.79586e-05
6.84515e-05
6.88097e-05
6.94437e-05
6.97973e-05
7.03015e-05
7.09274e-05
7.17071e-05
7.19957e-05
7.30498e-05
7.24745e-05
7.45726e-05
5.42708e-05
4.49272e-05
4.17641e-05
4.26605e-05
4.45816e-05
4.58664e-05
4.64662e-05
4.68522e-05
4.68952e-05
4.76709e-05
4.70649e-05
4.69909e-05
4.76098e-05
4.81306e-05
4.83804e-05
4.85297e-05
4.86968e-05
4.8903e-05
4.91373e-05
4.93901e-05
4.96583e-05
4.99397e-05
5.02401e-05
5.05383e-05
5.08977e-05
5.11578e-05
5.16315e-05
5.18733e-05
5.22419e-05
5.27299e-05
5.32729e-05
5.35519e-05
5.41959e-05
5.40032e-05
5.52792e-05
4.34961e-05
3.66931e-05
3.64482e-05
3.94195e-05
4.23485e-05
4.39048e-05
4.45459e-05
4.49585e-05
4.50044e-05
4.57579e-05
4.53047e-05
4.48369e-05
4.4887e-05
4.52437e-05
4.57429e-05
4.6237e-05
4.66412e-05
4.69606e-05
4.72366e-05
4.75009e-05
4.77685e-05
4.80429e-05
4.83312e-05
4.86153e-05
4.8955e-05
4.91993e-05
4.96475e-05
4.98688e-05
5.02124e-05
5.06854e-05
5.11832e-05
5.14804e-05
5.19723e-05
5.19245e-05
5.28542e-05
3.25712e-05
2.65049e-05
2.59205e-05
2.77017e-05
2.93642e-05
3.00936e-05
3.03452e-05
3.05533e-05
3.05021e-05
3.1098e-05
3.04884e-05
3.04396e-05
3.08588e-05
3.11462e-05
3.12961e-05
3.14448e-05
3.16204e-05
3.18017e-05
3.19789e-05
3.21556e-05
3.23374e-05
3.25265e-05
3.27257e-05
3.29263e-05
3.31582e-05
3.33347e-05
3.36475e-05
3.37865e-05
3.40366e-05
3.43707e-05
3.47625e-05
3.48593e-05
3.54688e-05
3.48045e-05
3.65912e-05
2.27111e-05
1.59933e-05
1.37906e-05
1.43691e-05
1.53347e-05
1.57076e-05
1.58054e-05
1.58495e-05
1.5918e-05
1.59329e-05
1.58337e-05
1.6474e-05
1.69794e-05
1.68737e-05
1.65612e-05
1.63983e-05
1.64083e-05
1.64968e-05
1.66034e-05
1.67123e-05
1.68241e-05
1.69403e-05
1.70634e-05
1.71864e-05
1.7331e-05
1.74358e-05
1.76368e-05
1.77122e-05
1.78422e-05
1.80771e-05
1.83436e-05
1.85227e-05
1.87256e-05
1.86373e-05
1.90253e-05
1.02514e-05
1.09113e-05
1.13673e-05
1.288e-05
1.39082e-05
1.41875e-05
1.42589e-05
1.43304e-05
1.43429e-05
1.45392e-05
1.42835e-05
1.41273e-05
1.41637e-05
1.43107e-05
1.45036e-05
1.46829e-05
1.48232e-05
1.49344e-05
1.50347e-05
1.51343e-05
1.5237e-05
1.53427e-05
1.54536e-05
1.55632e-05
1.56922e-05
1.57847e-05
1.59634e-05
1.60332e-05
1.61469e-05
1.63564e-05
1.65758e-05
1.67773e-05
1.68608e-05
1.69803e-05
1.70954e-05
2.53957e-05
3.1081e-05
4.28325e-05
4.50033e-05
4.51745e-05
4.58695e-05
4.64392e-05
4.7076e-05
4.67762e-05
4.96105e-05
4.39367e-05
4.29427e-05
4.53699e-05
4.75484e-05
4.85618e-05
4.88428e-05
4.88768e-05
4.88686e-05
4.88612e-05
4.88565e-05
4.88552e-05
4.88585e-05
4.88664e-05
4.88904e-05
4.88736e-05
4.90302e-05
4.87299e-05
4.92583e-05
4.9074e-05
4.84943e-05
4.82726e-05
4.8378e-05
4.91323e-05
4.90479e-05
5.0677e-05
0.00106235
0.00102046
0.00101903
0.0010258
0.00102506
0.00102269
0.00102093
0.00102116
0.0010185
0.0010211
0.00101915
0.00101437
0.00101359
0.0010155
0.00101728
0.00101847
0.00101933
0.00101998
0.00102049
0.00102092
0.00102137
0.00102179
0.00102239
0.00102272
0.00102373
0.00102392
0.00102502
0.00102588
0.00102664
0.00102769
0.00102904
0.00103011
0.00103193
0.00103295
0.00103483
0.00104471
0.00100889
0.00101094
0.00102138
0.0010228
0.00102091
0.00101925
0.00101883
0.00101734
0.00101848
0.00101735
0.00101438
0.00101325
0.00101378
0.0010147
0.00101572
0.00101685
0.00101795
0.00101893
0.00101977
0.00102055
0.00102124
0.00102209
0.00102262
0.00102387
0.0010242
0.0010256
0.00102641
0.00102793
0.00102786
0.00103194
0.0010289
0.0010371
0.00103054
0.00104178
0.00102986
0.000997541
0.000991705
0.000992284
0.000988411
0.000985448
0.000984174
0.000984349
0.00098291
0.000984529
0.000983584
0.000981324
0.000981638
0.000983579
0.000985232
0.000986109
0.000986482
0.000986697
0.000986968
0.000987369
0.000987922
0.000988539
0.00098939
0.000989986
0.000991326
0.00099176
0.000993284
0.000994352
0.000995641
0.000996548
0.00099914
0.000998855
0.00100361
0.00100081
0.00100858
0.00101151
0.000980298
0.000979111
0.000984401
0.000983152
0.000981093
0.000979892
0.000980769
0.000978469
0.00098202
0.000980322
0.000976121
0.000975825
0.000977756
0.000979523
0.000980868
0.000981998
0.000982966
0.000983794
0.00098454
0.000985286
0.000986009
0.000986915
0.000987537
0.000988877
0.000989312
0.000990767
0.00099192
0.000992846
0.000994366
0.000995642
0.000997251
0.000999279
0.000999673
0.00100317
0.000988819
0.000965321
0.00096886
0.000978579
0.000979847
0.000978509
0.000977679
0.000977876
0.000977237
0.000978528
0.000978104
0.000976089
0.000974931
0.000974922
0.000975699
0.000977048
0.000978662
0.000980232
0.000981606
0.000982793
0.000983886
0.000984885
0.000986027
0.00098686
0.00098839
0.000989018
0.000990617
0.000992004
0.000992942
0.000994868
0.000995949
0.00099793
0.00100037
0.000999655
0.00100618
0.000968239
0.000945129
0.000940987
0.000942388
0.000939362
0.000937007
0.00093608
0.000937167
0.000935311
0.000938999
0.000937725
0.00093449
0.00093468
0.000936636
0.000938438
0.000939846
0.000940995
0.000941959
0.000942812
0.000943641
0.000944529
0.000945443
0.000946566
0.000947441
0.000949042
0.000949709
0.000951534
0.000952769
0.00095436
0.000955211
0.000958544
0.000957469
0.000963576
0.000960077
0.000967639
0.000942295
0.000925513
0.000925789
0.000930622
0.000929943
0.000929095
0.000929238
0.000930696
0.000929675
0.000932897
0.000931883
0.000928969
0.00092874
0.000930088
0.00093163
0.000933149
0.000934629
0.000936006
0.000937259
0.000938424
0.000939563
0.000940654
0.000941892
0.000942844
0.000944491
0.000945179
0.000947033
0.000948207
0.000949935
0.000950418
0.00095439
0.000952169
0.000959777
0.000954406
0.00096418
0.000915449
0.000899958
0.000891282
0.000887688
0.000883043
0.000881151
0.000881223
0.000882906
0.000881898
0.0008857
0.00088474
0.000882559
0.000883501
0.000885716
0.00088754
0.00088883
0.000889814
0.000890651
0.000891455
0.000892307
0.00089326
0.000894273
0.000895495
0.000896498
0.000898208
0.000898977
0.000900942
0.000902306
0.000903783
0.000905189
0.000907651
0.000908381
0.000912
0.000911272
0.000916878
0.000885486
0.00087534
0.000872042
0.000873043
0.000871635
0.000871825
0.000873131
0.0008756
0.000874669
0.000879156
0.000877806
0.000874747
0.000875085
0.000876959
0.000878831
0.000880544
0.000882115
0.00088352
0.000884789
0.000885986
0.000887181
0.000888354
0.000889672
0.000890733
0.000892469
0.000893248
0.000895213
0.000896545
0.00089803
0.000899329
0.000901882
0.000902399
0.000906164
0.000905176
0.000911507
0.000856404
0.000846338
0.000831654
0.00082372
0.000818936
0.000818476
0.00081988
0.000822122
0.000821888
0.000825608
0.00082473
0.000823434
0.000825172
0.000827766
0.000829587
0.000830638
0.000831354
0.00083203
0.000832801
0.000833702
0.000834745
0.000835869
0.000837187
0.000838312
0.000840111
0.000840962
0.000843081
0.000844459
0.000846035
0.000847398
0.000850355
0.000850279
0.000855524
0.000852454
0.000860341
0.000823446
0.000816872
0.000807574
0.000805284
0.000804863
0.000807166
0.000809952
0.000813274
0.000812471
0.000817946
0.000816018
0.000812986
0.00081404
0.000816458
0.000818558
0.000820293
0.0008218
0.000823146
0.000824397
0.000825615
0.000826852
0.000828084
0.000829455
0.000830601
0.000832392
0.000833224
0.000835316
0.00083664
0.00083819
0.000839463
0.000842409
0.000842313
0.000847235
0.000844786
0.000852106
0.000789336
0.000781059
0.000758318
0.000747507
0.000744751
0.000746789
0.000749694
0.000752408
0.000752725
0.000756393
0.000755349
0.000754694
0.000757257
0.000760257
0.000761987
0.000762714
0.000763155
0.000763715
0.000764496
0.000765468
0.000766596
0.000767807
0.000769191
0.000770407
0.000772251
0.000773152
0.00077539
0.000776752
0.000778306
0.000779862
0.00078273
0.000783007
0.000787799
0.000785119
0.000792649
0.000749813
0.000743673
0.000727279
0.000724779
0.000728407
0.000733951
0.000738278
0.000742072
0.000741537
0.000747421
0.000744951
0.000742185
0.000743773
0.000746428
0.000748552
0.000750256
0.000751755
0.000753129
0.000754433
0.000755709
0.000756999
0.000758289
0.0007597
0.000760919
0.000762738
0.00076361
0.000765808
0.000767107
0.000768631
0.00077008
0.00077299
0.000773087
0.000777871
0.000775377
0.000782612
0.000708517
0.000697151
0.000666457
0.000657363
0.000659984
0.00066537
0.000669469
0.000672436
0.000672726
0.000676847
0.000675011
0.000674413
0.000677622
0.000680923
0.00068254
0.000683084
0.000683473
0.000684105
0.000685006
0.000686095
0.000687314
0.0006886
0.000690029
0.000691317
0.000693172
0.000694112
0.000696447
0.00069774
0.000699265
0.000701017
0.000703834
0.000704354
0.000708839
0.000706237
0.000713565
0.000659164
0.000649633
0.000627526
0.000630623
0.000641804
0.000651027
0.000656341
0.000660058
0.000659773
0.000665515
0.000662802
0.000660349
0.000661862
0.000664214
0.000666265
0.000668149
0.000669899
0.000671469
0.00067289
0.000674238
0.000675574
0.000676909
0.000678343
0.000679622
0.00068144
0.000682347
0.000684633
0.00068586
0.000687343
0.000689011
0.000691843
0.000692223
0.000696662
0.000694284
0.000701129
0.000606106
0.000586865
0.000552253
0.000552131
0.000563146
0.000571578
0.000575943
0.000578736
0.000578515
0.000583553
0.000580128
0.000579136
0.000582777
0.000586136
0.00058763
0.000588252
0.000588908
0.000589827
0.000590939
0.000592158
0.000593447
0.000594782
0.000596225
0.000597564
0.000599384
0.000600354
0.00060275
0.000603912
0.000605392
0.000607395
0.000610053
0.00061105
0.000614667
0.000612859
0.000619128
0.000541244
0.000526803
0.000506091
0.000522795
0.000543522
0.000555059
0.000560014
0.000563039
0.000562938
0.000567849
0.000566121
0.000563611
0.000563283
0.000564407
0.000566779
0.000569671
0.000572209
0.000574132
0.000575649
0.000577011
0.000578355
0.00057971
0.000581145
0.000582469
0.000584244
0.000585186
0.00058753
0.000588629
0.00059002
0.000592074
0.000594505
0.000595981
0.00059841
0.000598592
0.00060193
0.000466128
0.000443674
0.000417747
0.000430145
0.00044576
0.000453169
0.000455916
0.00045797
0.000457062
0.000462584
0.000457391
0.000456492
0.000460281
0.000462939
0.000463976
0.000464861
0.000466091
0.000467464
0.000468808
0.000470114
0.000471432
0.000472785
0.000474211
0.0004756
0.000477312
0.00047839
0.00048074
0.000481718
0.000483241
0.000485345
0.00048834
0.000488616
0.000493966
0.000488058
0.000500617
0.000378018
0.000326524
0.000276491
0.000280411
0.000293822
0.000299674
0.000301421
0.000302007
0.000302815
0.000303259
0.000301012
0.000308543
0.000316045
0.000315802
0.000311737
0.000309035
0.000308714
0.000309649
0.000310911
0.0003122
0.000313503
0.000314844
0.000316264
0.00031765
0.000319354
0.000320429
0.000322818
0.000323742
0.000325
0.000327435
0.000330403
0.000332523
0.000335131
0.000333957
0.000338781
0.000217957
0.000238011
0.000230998
0.000254569
0.000271449
0.000275984
0.000277055
0.000278016
0.000278123
0.000280497
0.000277601
0.000275838
0.000276047
0.000277576
0.000279885
0.000282212
0.000284078
0.000285522
0.000286777
0.000288
0.000289248
0.000290524
0.000291862
0.000293152
0.000294736
0.000295726
0.000297938
0.000298812
0.000299931
0.000302258
0.000304798
0.000307425
0.000308393
0.000309731
0.000311287
0.00011938
0.000126091
0.000136989
0.000137058
0.000136848
0.000137761
0.000138506
0.000139462
0.000138395
0.00014404
0.000133761
0.000131775
0.000136042
0.000139495
0.000140884
0.000141165
0.00014111
0.000140995
0.00014087
0.000140737
0.000140602
0.000140468
0.000140333
0.000140228
0.000140011
0.000140187
0.00013938
0.000140182
0.000139814
0.000138651
0.000138052
0.000138008
0.000139078
0.000138649
0.000141249
0.00113229
0.00109789
0.00108141
0.00108611
0.00108888
0.00108798
0.0010858
0.00108623
0.0010822
0.00108533
0.00108452
0.00107767
0.00107446
0.00107623
0.00107917
0.00108124
0.00108247
0.00108327
0.00108388
0.00108436
0.00108481
0.00108515
0.00108574
0.0010858
0.00108684
0.0010867
0.0010875
0.00108831
0.00108865
0.00108903
0.00109015
0.00109072
0.00109244
0.00109283
0.00109384
0.00111798
0.00108512
0.0010722
0.00108075
0.00108592
0.00108563
0.0010837
0.00108311
0.00108075
0.00108208
0.00108123
0.00107679
0.00107422
0.00107466
0.00107622
0.00107775
0.00107908
0.00108027
0.00108131
0.00108218
0.00108295
0.00108354
0.00108436
0.00108459
0.00108586
0.0010858
0.00108698
0.00108747
0.00108914
0.00108722
0.00109297
0.00108696
0.00109761
0.00108867
0.00109956
0.00110494
0.00107267
0.00105318
0.00105273
0.00105212
0.00105009
0.00104824
0.00104826
0.00104579
0.00104773
0.00104679
0.00104261
0.00104136
0.00104343
0.00104604
0.00104764
0.00104832
0.00104859
0.00104881
0.0010491
0.00104952
0.00104992
0.00105064
0.00105083
0.00105209
0.00105204
0.00105319
0.001054
0.00105494
0.00105465
0.0010577
0.00105572
0.00106182
0.00105639
0.001065
0.0010875
0.00105516
0.00103986
0.00104408
0.0010463
0.00104538
0.00104351
0.00104445
0.0010405
0.00104476
0.00104353
0.00103653
0.00103402
0.00103634
0.00103945
0.00104158
0.00104292
0.00104391
0.00104471
0.0010454
0.00104605
0.00104657
0.00104735
0.00104758
0.00104884
0.00104881
0.00104984
0.00105088
0.00105116
0.00105205
0.00105295
0.0010539
0.00105631
0.00105488
0.00105835
0.00106888
0.0010391
0.00102869
0.00103767
0.00104264
0.00104241
0.00104096
0.00104067
0.00103914
0.00104049
0.00103992
0.00103655
0.00103433
0.00103425
0.00103536
0.00103691
0.00103859
0.00104016
0.00104151
0.00104261
0.00104358
0.00104436
0.00104534
0.00104575
0.00104717
0.00104732
0.00104845
0.00104979
0.0010499
0.00105148
0.00105183
0.00105357
0.00105606
0.00105433
0.00105956
0.00105026
0.00102008
0.00100361
0.00100493
0.00100515
0.00100347
0.00100162
0.00100256
0.000999012
0.00100334
0.00100196
0.000995894
0.000994287
0.000996819
0.0009998
0.00100178
0.001003
0.00100388
0.00100461
0.00100527
0.00100594
0.00100655
0.00100743
0.00100779
0.0010092
0.00100926
0.00101063
0.00101146
0.00101271
0.00101203
0.00101621
0.00101285
0.00102038
0.00101482
0.00102149
0.00102764
0.00100026
0.000988515
0.000993474
0.000995655
0.00099497
0.000993896
0.000994921
0.000992417
0.000996107
0.000994955
0.00098961
0.000987762
0.000989441
0.00099184
0.000993786
0.000995313
0.000996601
0.000997718
0.000998688
0.000999593
0.00100036
0.00100135
0.00100179
0.00100325
0.00100334
0.00100477
0.0010055
0.00100705
0.00100576
0.00101109
0.00100611
0.00101569
0.00100843
0.00101688
0.00100473
0.000977471
0.000959133
0.000956226
0.000953901
0.000951784
0.000950533
0.000951795
0.000949172
0.000953392
0.000951978
0.000947219
0.000946751
0.000949557
0.000952319
0.000953963
0.000954869
0.000955505
0.000956082
0.000956668
0.000957316
0.000957937
0.000958824
0.000959248
0.000960678
0.00096077
0.000962185
0.00096316
0.000964001
0.000964292
0.00096673
0.000966346
0.000970051
0.000967931
0.00097279
0.000978203
0.000953742
0.0009408
0.000942228
0.000942377
0.000941639
0.000941208
0.00094317
0.000940468
0.000945569
0.000943951
0.00093816
0.000936944
0.000939353
0.000942084
0.000944095
0.000945587
0.000946802
0.00094784
0.000948748
0.000949616
0.000950385
0.000951365
0.000951853
0.000953319
0.000953435
0.000954873
0.000955834
0.000956724
0.000956945
0.000959475
0.000959153
0.000962618
0.000961369
0.000965546
0.000953982
0.000929675
0.00090849
0.000901277
0.000897264
0.000895521
0.000895273
0.000896888
0.000895207
0.000899097
0.000897591
0.000893999
0.000894544
0.000897622
0.000900164
0.000901417
0.000901962
0.000902351
0.000902808
0.000903358
0.000904014
0.000904675
0.000905579
0.000906065
0.00090751
0.000907616
0.000909133
0.000910052
0.000910986
0.000911023
0.000914316
0.000912374
0.000918661
0.000913347
0.00092047
0.000924681
0.000902747
0.000886409
0.000883552
0.000882576
0.000882783
0.0008835
0.000886301
0.000883617
0.000889746
0.000887471
0.000881655
0.000881303
0.00088435
0.000887213
0.000889097
0.000890401
0.000891453
0.000892376
0.00089322
0.000894055
0.000894821
0.000895783
0.000896307
0.000897765
0.000897878
0.0008994
0.000900297
0.000901239
0.00090126
0.00090445
0.000902965
0.000908125
0.0009051
0.000909673
0.000896616
0.00087463
0.000848358
0.000836641
0.000832308
0.000832033
0.000833148
0.000835186
0.000834223
0.00083788
0.000836161
0.00083337
0.000834822
0.000838239
0.000840582
0.00084142
0.000841605
0.000841792
0.000842175
0.000842724
0.000843398
0.000844091
0.000844996
0.00084553
0.000846956
0.000847068
0.000848653
0.000849543
0.000850354
0.000850637
0.000853649
0.000852258
0.000857827
0.000853029
0.000859931
0.000861817
0.000842077
0.000820469
0.000814206
0.000814416
0.000816955
0.000819228
0.000822542
0.000820234
0.000826633
0.000823849
0.000818586
0.000819004
0.00082221
0.000824853
0.000826491
0.000827643
0.000828618
0.000829509
0.000830345
0.000831174
0.000831952
0.000832899
0.000833462
0.000834889
0.000835003
0.000836586
0.000837446
0.000838269
0.000838498
0.000841526
0.000840285
0.00084522
0.00084216
0.000846468
0.000827791
0.000807099
0.000774283
0.000760121
0.000758356
0.000760877
0.000763383
0.000765839
0.000764893
0.000768995
0.000766596
0.000763832
0.000765916
0.000769637
0.00077181
0.000772367
0.000772405
0.000772589
0.000773029
0.000773639
0.000774351
0.000775076
0.00077597
0.000776548
0.000777927
0.000778045
0.000779683
0.000780501
0.000781192
0.000781707
0.000784512
0.000783475
0.000788611
0.000783965
0.000790648
0.000785091
0.000767066
0.000738945
0.000732226
0.000737066
0.000743154
0.000746869
0.000750205
0.000748378
0.000754367
0.000751491
0.000747141
0.000747819
0.00075048
0.000752605
0.000754108
0.00075536
0.000756461
0.000757423
0.000758291
0.000759126
0.000759914
0.000760835
0.000761435
0.000762807
0.000762929
0.000764558
0.000765349
0.000766032
0.000766528
0.000769302
0.000768464
0.000772919
0.000770011
0.00077395
0.000740907
0.000721123
0.000681972
0.000669783
0.000674145
0.000680176
0.000683541
0.000686084
0.000684584
0.000689676
0.000686029
0.000682838
0.000685337
0.000689096
0.000691002
0.000691469
0.000691669
0.000692083
0.000692696
0.000693398
0.000694142
0.000694883
0.000695743
0.000696357
0.000697645
0.000697778
0.000699435
0.000700135
0.000700683
0.000701513
0.000703893
0.000703597
0.000707576
0.000703892
0.000709845
0.000685349
0.000670071
0.000637093
0.000635843
0.000648832
0.000658407
0.000662557
0.000665258
0.00066393
0.000668616
0.000666973
0.000663927
0.000663364
0.000664068
0.000665538
0.000667572
0.000669564
0.000671088
0.000672177
0.000673043
0.000673852
0.000674633
0.000675513
0.00067615
0.000677425
0.000677575
0.000679221
0.000679917
0.000680375
0.000681393
0.000683318
0.000684128
0.00068597
0.000685835
0.000687309
0.000623373
0.000608446
0.000568695
0.000561833
0.000570981
0.000577552
0.000579913
0.000581858
0.000579613
0.00058548
0.000580315
0.000577292
0.000580337
0.000583538
0.000584653
0.000584954
0.000585491
0.000586299
0.000587138
0.000587917
0.000588663
0.0005894
0.000590201
0.000590878
0.000591984
0.000592259
0.000593832
0.00059435
0.000594926
0.000595805
0.000598387
0.00059736
0.000602828
0.000596265
0.000605913
0.000551886
0.000529429
0.000460079
0.000442209
0.000450907
0.000457367
0.000459362
0.000459628
0.000459836
0.000461
0.000456546
0.000460169
0.000467746
0.000470286
0.000467693
0.000464551
0.000463246
0.000463423
0.000464133
0.000464908
0.000465663
0.000466412
0.000467238
0.000467924
0.000469087
0.000469337
0.000470982
0.000471604
0.000471952
0.00047313
0.00047506
0.000476168
0.000478706
0.000476642
0.000481646
0.000411124
0.00044067
0.00039913
0.000402621
0.00041944
0.00042541
0.000426218
0.000426571
0.00042653
0.000427812
0.000426392
0.000425985
0.000425865
0.000426026
0.000426908
0.000428263
0.000429556
0.000430572
0.000431397
0.000432161
0.000432929
0.000433698
0.000434535
0.000435227
0.000436369
0.00043664
0.000438228
0.000438869
0.000439156
0.000440439
0.000441983
0.000444117
0.00044468
0.000445442
0.00044745
0.000172792
0.000178527
0.000188663
0.000187822
0.000187306
0.000188309
0.00018915
0.000190316
0.000188766
0.000195862
0.000183858
0.000180958
0.00018584
0.000189993
0.000191693
0.000192036
0.000191958
0.000191803
0.000191633
0.000191454
0.000191268
0.000191083
0.000190893
0.000190746
0.000190433
0.000190662
0.000189617
0.000190498
0.000190177
0.000188805
0.000187986
0.000187771
0.000188998
0.000188329
0.000191442
0.00113963
0.00111917
0.00109834
0.00109885
0.00110241
0.00110276
0.00110064
0.00110143
0.00109665
0.00109975
0.00109982
0.00109231
0.00108739
0.00108854
0.001092
0.00109476
0.00109637
0.00109734
0.00109803
0.00109856
0.00109904
0.00109933
0.00109993
0.00109982
0.00110081
0.0011006
0.00110106
0.00110179
0.00110204
0.0011019
0.00110282
0.00110287
0.00110447
0.00110464
0.001105
0.00112601
0.00110605
0.00108842
0.00109272
0.0010988
0.00109986
0.00109816
0.00109765
0.00109482
0.00109607
0.00109565
0.00109069
0.00108701
0.00108702
0.00108885
0.00109073
0.00109226
0.00109351
0.00109459
0.00109547
0.00109624
0.00109674
0.00109756
0.00109757
0.00109879
0.00109856
0.0010995
0.00109957
0.00110181
0.00109815
0.00110528
0.00109709
0.00110862
0.00109939
0.00110895
0.00111317
0.00109376
0.00107071
0.0010667
0.00106677
0.00106561
0.00106368
0.00106375
0.00106074
0.00106257
0.00106208
0.00105715
0.0010546
0.00105624
0.00105924
0.00106138
0.00106237
0.00106274
0.00106296
0.00106319
0.00106354
0.00106379
0.00106445
0.00106439
0.00106555
0.00106533
0.00106611
0.00106668
0.00106772
0.00106638
0.00106986
0.00106649
0.00107347
0.00106687
0.00107519
0.00109623
0.00107639
0.00105695
0.00105744
0.00106042
0.00106052
0.0010585
0.00105967
0.00105483
0.00105897
0.00105868
0.00105075
0.00104636
0.00104815
0.00105185
0.0010546
0.00105621
0.00105725
0.00105806
0.00105871
0.00105931
0.0010597
0.00106042
0.0010604
0.00106154
0.00106138
0.00106196
0.00106295
0.00106298
0.00106338
0.00106405
0.00106415
0.00106726
0.00106464
0.00106774
0.00107869
0.00105984
0.00104497
0.00105033
0.00105626
0.0010571
0.00105559
0.00105514
0.00105308
0.00105427
0.00105395
0.00105004
0.00104692
0.00104645
0.00104763
0.00104932
0.00105104
0.00105262
0.00105395
0.001055
0.0010559
0.00105651
0.00105741
0.00105755
0.00105882
0.00105883
0.00105942
0.00106081
0.00106043
0.00106185
0.0010615
0.00106289
0.00106547
0.00106332
0.00106736
0.00106054
0.0010415
0.00102162
0.0010199
0.00102089
0.00101998
0.00101779
0.00101879
0.00101435
0.00101849
0.00101789
0.00101078
0.00100747
0.00100961
0.00101312
0.00101559
0.00101697
0.00101784
0.00101851
0.00101908
0.00101964
0.00102006
0.00102082
0.00102088
0.00102213
0.00102197
0.00102293
0.00102344
0.00102488
0.00102283
0.00102782
0.00102281
0.00103089
0.00102537
0.00103027
0.00103894
0.00102136
0.00100601
0.00100807
0.00101093
0.00101072
0.00100913
0.00100998
0.00100665
0.00101014
0.00100962
0.00100336
0.00100002
0.00100128
0.00100403
0.00100632
0.00100795
0.00100922
0.00101026
0.00101113
0.00101191
0.00101248
0.00101334
0.00101348
0.00101479
0.00101463
0.0010157
0.00101604
0.00101796
0.00101503
0.00102156
0.00101462
0.00102489
0.00101781
0.00102439
0.00101703
0.000999458
0.000978759
0.000973541
0.000971684
0.000969773
0.000967902
0.000968994
0.000965507
0.000969486
0.000968611
0.000962805
0.000960914
0.000963472
0.000966689
0.000968671
0.000969628
0.000970177
0.000970635
0.000971078
0.00097157
0.000971968
0.000972693
0.000972787
0.000974027
0.000973874
0.000974814
0.000975584
0.000976321
0.000975753
0.000978175
0.000977133
0.000980756
0.000978437
0.0009826
0.000991514
0.00097569
0.000960134
0.000959207
0.000959537
0.000958614
0.000957263
0.000958953
0.000955283
0.000960141
0.000959278
0.000952435
0.000949666
0.000951754
0.000954874
0.000957161
0.000958679
0.000959811
0.000960733
0.000961494
0.000962196
0.000962736
0.000963552
0.000963713
0.000964995
0.000964873
0.000965849