/*--------------------------------*- C++ -*----------------------------------*\
  =========                 |
  \\      /  F ield         | OpenFOAM: The Open Source CFD Toolbox
   \\    /   O peration     | Website:  https://openfoam.org
    \\  /    A nd           | Version:  6
     \\/     M anipulation  |
\*---------------------------------------------------------------------------*/
FoamFile
{
    version     2.0;
    format      ascii;
    class       volVectorField;
    location    "60";
    object      U;
}
// * * * * * * * * * * * * * * * * * * * * * * * * * * * * * * * * * * * * * //

dimensions      [0 1 -1 0 0 0 0];

internalField   nonuniform List<vector> 
3240
(
(0.0447594 3.65578e-10 9.13519e-11)
(0.0447598 1.09215e-09 -2.01014e-10)
(0.0447603 -1.54516e-09 1.27632e-10)
(0.0301852 1.04875e-09 6.63285e-12)
(0.030186 -1.7184e-09 -1.44864e-11)
(0.0301863 6.67532e-10 6.77646e-12)
(0.0357046 1.5027e-09 5.51981e-12)
(0.0357056 -1.87498e-09 -5.08648e-11)
(0.0357059 3.57879e-10 4.57471e-11)
(0.0401865 1.23389e-09 1.02409e-11)
(0.0401878 1.1661e-09 -5.90561e-11)
(0.0401882 -2.40647e-09 4.87893e-11)
(0.0439176 1.19811e-09 1.98747e-11)
(0.0439189 4.05322e-10 -8.84118e-11)
(0.0439195 -1.61021e-09 6.83687e-11)
(0.0471704 1.09231e-09 2.86572e-11)
(0.0471718 -3.47681e-10 -1.01197e-10)
(0.0471725 -7.41188e-10 7.23786e-11)
(0.0501101 1.02679e-09 3.38814e-11)
(0.0501114 -9.92667e-10 -1.12334e-10)
(0.0501121 -2.90683e-11 7.85634e-11)
(0.0528391 4.21055e-10 3.48718e-11)
(0.0528404 -1.18562e-10 -1.21437e-10)
(0.0528411 -3.00676e-10 8.67577e-11)
(0.0554163 -7.15322e-10 3.56735e-11)
(0.0554175 1.47479e-09 -1.17619e-10)
(0.0554182 -7.63704e-10 8.19527e-11)
(0.0578555 -1.80618e-09 3.86903e-11)
(0.0578566 2.98165e-09 -1.11202e-10)
(0.0578572 -1.17823e-09 7.2481e-11)
(0.0601167 -2.77883e-09 4.80679e-11)
(0.0601175 4.41862e-09 -1.0062e-10)
(0.0601182 -1.64127e-09 5.25687e-11)
(0.0621057 -3.31486e-09 5.96817e-11)
(0.0621061 5.19838e-09 -8.61366e-11)
(0.062107 -1.8788e-09 2.64426e-11)
(0.0637017 -2.70454e-09 6.82356e-11)
(0.0637019 4.3663e-09 -7.43205e-11)
(0.0637029 -1.66031e-09 6.07566e-12)
(0.0648241 -1.72403e-09 7.41261e-11)
(0.0648242 2.89073e-09 -6.7036e-11)
(0.0648251 -1.16425e-09 -7.11672e-12)
(0.0654323 -6.84663e-10 7.49368e-11)
(0.0654324 1.06615e-09 -6.1882e-11)
(0.0654333 -3.82555e-10 -1.30777e-11)
(0.0654323 6.25536e-10 7.50663e-11)
(0.0654324 -9.98223e-10 -6.19604e-11)
(0.0654333 3.87235e-10 -1.31476e-11)
(0.0648241 1.68572e-09 7.41084e-11)
(0.0648242 -2.8401e-09 -6.69414e-11)
(0.0648252 1.16002e-09 -7.06589e-12)
(0.063702 2.63628e-09 6.81889e-11)
(0.0637022 -4.31917e-09 -7.41137e-11)
(0.0637032 1.64988e-09 6.10736e-12)
(0.0621062 3.27351e-09 5.95042e-11)
(0.0621067 -5.11832e-09 -8.59459e-11)
(0.0621075 1.91138e-09 2.47188e-11)
(0.0601177 2.7258e-09 4.83158e-11)
(0.0601185 -4.35257e-09 -1.00587e-10)
(0.0601192 1.67773e-09 5.46144e-11)
(0.0578562 1.71115e-09 3.87386e-11)
(0.0578572 -2.91133e-09 -1.11303e-10)
(0.0578579 1.14334e-09 7.22716e-11)
(0.0554169 6.34555e-10 3.56284e-11)
(0.0554182 -1.36748e-09 -1.18127e-10)
(0.0554188 7.09177e-10 8.23398e-11)
(0.0528392 -5.02518e-10 3.48754e-11)
(0.0528405 2.05985e-10 -1.17766e-10)
(0.0528412 2.8796e-10 8.28595e-11)
(0.0501096 -1.11421e-09 3.37701e-11)
(0.0501109 1.04043e-09 -1.12673e-10)
(0.0501116 6.57662e-11 7.89131e-11)
(0.0471695 -1.18972e-09 2.88011e-11)
(0.0471708 3.77269e-10 -1.02394e-10)
(0.0471715 8.07857e-10 7.34521e-11)
(0.0439165 -1.25048e-09 2.07125e-11)
(0.0439178 -3.67608e-10 -8.93445e-11)
(0.0439185 1.61758e-09 6.8577e-11)
(0.0401853 -1.24709e-09 1.04838e-11)
(0.0401865 -1.14216e-09 -5.88313e-11)
(0.040187 2.39299e-09 4.82696e-11)
(0.0357028 -1.52886e-09 4.89444e-12)
(0.0357038 1.92278e-09 -5.13862e-11)
(0.0357041 -3.89153e-10 4.63759e-11)
(0.0301837 -1.04775e-09 7.89954e-12)
(0.0301845 1.76318e-09 -1.55724e-11)
(0.0301848 -7.12797e-10 7.60594e-12)
(0.0447569 -4.58444e-10 7.33442e-11)
(0.0447573 -9.34811e-10 -1.92918e-10)
(0.0447577 1.39603e-09 1.19636e-10)
(0.0612534 5.17696e-10 1.23057e-10)
(0.0612538 1.43426e-09 -3.20091e-10)
(0.0612543 -2.03082e-09 2.05549e-10)
(0.0881079 2.92127e-09 1.06913e-10)
(0.0881099 -4.2657e-09 -4.51594e-10)
(0.0881106 1.46149e-09 3.38768e-10)
(0.101932 3.97346e-09 1.46432e-10)
(0.101934 -4.58605e-09 -7.53877e-10)
(0.101935 6.23994e-10 6.09089e-10)
(0.112222 2.96944e-09 2.22288e-10)
(0.112224 3.32592e-09 -8.58435e-10)
(0.112225 -6.28138e-09 6.36269e-10)
(0.120254 2.77574e-09 2.86282e-10)
(0.120257 1.59044e-09 -8.91424e-10)
(0.120258 -4.36898e-09 6.05212e-10)
(0.126893 2.48649e-09 3.2785e-10)
(0.126895 -2.51739e-10 -9.14932e-10)
(0.126897 -2.22772e-09 5.87024e-10)
(0.132627 2.32632e-09 3.40543e-10)
(0.132629 -1.80599e-09 -9.21999e-10)
(0.132631 -5.13116e-10 5.81474e-10)
(0.137746 8.267e-10 3.28889e-10)
(0.137749 1.55684e-10 -9.08694e-10)
(0.13775 -9.74176e-10 5.79791e-10)
(0.142418 -1.884e-09 3.06592e-10)
(0.14242 3.76812e-09 -8.52485e-10)
(0.142421 -1.88637e-09 5.45886e-10)
(0.146708 -4.4259e-09 2.98407e-10)
(0.146709 7.23844e-09 -7.65932e-10)
(0.14671 -2.81505e-09 4.6751e-10)
(0.150579 -6.6541e-09 3.26036e-10)
(0.15058 1.04572e-08 -6.6645e-10)
(0.150582 -3.80433e-09 3.40387e-10)
(0.153908 -7.79888e-09 3.63824e-10)
(0.153909 1.2072e-08 -5.59705e-10)
(0.15391 -4.25873e-09 1.9585e-10)
(0.156531 -6.33501e-09 3.88319e-10)
(0.156532 1.00781e-08 -4.80608e-10)
(0.156533 -3.73681e-09 9.23394e-11)
(0.158353 -4.03635e-09 4.04517e-10)
(0.158354 6.65097e-09 -4.34907e-10)
(0.158355 -2.607e-09 3.04245e-11)
(0.159334 -1.58735e-09 4.0214e-10)
(0.159334 2.43371e-09 -4.03864e-10)
(0.159335 -8.47906e-10 1.70994e-12)
(0.159334 1.4517e-09 4.02727e-10)
(0.159334 -2.27786e-09 -4.04039e-10)
(0.159335 8.65715e-10 1.32916e-12)
(0.158353 3.94966e-09 4.04156e-10)
(0.158354 -6.52599e-09 -4.35113e-10)
(0.158355 2.60719e-09 3.1048e-11)
(0.156532 6.19104e-09 3.8785e-10)
(0.156532 -9.9547e-09 -4.79496e-10)
(0.156534 3.74276e-09 9.22345e-11)
(0.153909 7.67112e-09 3.63509e-10)
(0.15391 -1.1913e-08 -5.58787e-10)
(0.153911 4.2813e-09 1.95787e-10)
(0.150581 6.50688e-09 3.25682e-10)
(0.150582 -1.03283e-08 -6.65216e-10)
(0.150583 3.85093e-09 3.39097e-10)
(0.146709 4.2258e-09 2.98329e-10)
(0.14671 -7.06833e-09 -7.65386e-10)
(0.146711 2.80493e-09 4.66015e-10)
(0.142419 1.69398e-09 3.05723e-10)
(0.142421 -3.56536e-09 -8.52794e-10)
(0.142422 1.84704e-09 5.46761e-10)
(0.137747 -1.02423e-09 3.27771e-10)
(0.137749 7.13149e-11 -9.07699e-10)
(0.13775 9.42281e-10 5.79901e-10)
(0.132626 -2.53566e-09 3.40229e-10)
(0.132628 2.03459e-09 -9.21662e-10)
(0.13263 4.90484e-10 5.81492e-10)
(0.126891 -2.71575e-09 3.27288e-10)
(0.126893 3.69913e-10 -9.12013e-10)
(0.126895 2.34138e-09 5.84692e-10)
(0.120252 -2.8931e-09 2.89196e-10)
(0.120254 -1.52809e-09 -8.89247e-10)
(0.120256 4.42271e-09 6.0008e-10)
(0.112219 -2.97829e-09 2.21453e-10)
(0.112222 -3.32055e-09 -8.5641e-10)
(0.112223 6.30961e-09 6.35007e-10)
(0.101927 -3.99434e-09 1.43174e-10)
(0.10193 4.62473e-09 -7.51482e-10)
(0.10193 -6.19499e-10 6.08467e-10)
(0.0881041 -2.79805e-09 1.1217e-10)
(0.0881061 4.22026e-09 -4.55088e-10)
(0.0881068 -1.41812e-09 3.43149e-10)
(0.0612504 -6.03597e-10 1.14416e-10)
(0.0612508 -1.26711e-09 -3.10734e-10)
(0.0612513 1.87386e-09 1.96486e-10)
(0.0700187 5.61596e-10 1.81258e-10)
(0.0700192 1.61923e-09 -4.98748e-10)
(0.0700197 -2.28393e-09 3.31775e-10)
(0.125938 3.92874e-09 2.69686e-10)
(0.12594 -5.30164e-09 -1.14497e-09)
(0.125941 1.51849e-09 8.65808e-10)
(0.142884 5.27373e-09 3.82705e-10)
(0.142887 -5.75507e-09 -1.82883e-09)
(0.142888 4.9961e-10 1.45086e-09)
(0.154848 3.74663e-09 5.68243e-10)
(0.154851 4.59919e-09 -2.07427e-09)
(0.154852 -8.32666e-09 1.50641e-09)
(0.164044 3.41452e-09 7.03057e-10)
(0.164047 2.51198e-09 -2.06351e-09)
(0.164049 -5.92952e-09 1.3603e-09)
(0.171571 3.02204e-09 7.84752e-10)
(0.171574 1.36298e-10 -2.08213e-09)
(0.171575 -3.14848e-09 1.29682e-09)
(0.178024 2.81873e-09 8.01204e-10)
(0.178026 -1.91068e-09 -2.07245e-09)
(0.178028 -8.9779e-10 1.2714e-09)
(0.183751 8.8849e-10 7.67723e-10)
(0.183754 5.15542e-10 -2.03421e-09)
(0.183755 -1.39336e-09 1.26685e-09)
(0.188951 -2.55202e-09 7.06413e-10)
(0.188954 5.01735e-09 -1.88681e-09)
(0.188955 -2.46879e-09 1.18043e-09)
(0.193705 -5.75534e-09 6.74817e-10)
(0.193707 9.31949e-09 -1.68687e-09)
(0.193709 -3.56769e-09 1.01191e-09)
(0.19798 -8.5545e-09 7.18043e-10)
(0.197981 1.32958e-08 -1.46715e-09)
(0.197982 -4.74301e-09 7.48969e-10)
(0.201642 -9.94596e-09 7.82032e-10)
(0.201643 1.5222e-08 -1.23911e-09)
(0.201645 -5.25796e-09 4.56935e-10)
(0.204522 -8.0788e-09 8.21286e-10)
(0.204523 1.27125e-08 -1.07418e-09)
(0.204524 -4.62582e-09 2.52917e-10)
(0.20652 -5.15578e-09 8.46703e-10)
(0.20652 8.39831e-09 -9.7838e-10)
(0.206522 -3.23284e-09 1.31651e-10)
(0.207594 -2.01719e-09 8.38047e-10)
(0.207595 3.06186e-09 -9.1316e-10)
(0.207596 -1.0469e-09 7.49293e-11)
(0.207594 1.84893e-09 8.39336e-10)
(0.207595 -2.86897e-09 -9.1371e-10)
(0.207596 1.07127e-09 7.41369e-11)
(0.20652 5.04959e-09 8.45975e-10)
(0.20652 -8.23972e-09 -9.785e-10)
(0.206522 3.23625e-09 1.32874e-10)
(0.204523 7.9077e-09 8.20422e-10)
(0.204523 -1.25515e-08 -1.07175e-09)
(0.204525 4.64141e-09 2.52542e-10)
(0.201643 9.76875e-09 7.7974e-10)
(0.201644 -1.50472e-08 -1.23868e-09)
(0.201646 5.27731e-09 4.52207e-10)
(0.197981 8.35653e-09 7.19548e-10)
(0.197983 -1.31535e-08 -1.46348e-09)
(0.197984 4.79366e-09 7.52178e-10)
(0.193706 5.51653e-09 6.74998e-10)
(0.193708 -9.08955e-09 -1.68665e-09)
(0.19371 3.56599e-09 1.0099e-09)
(0.188952 2.31227e-09 7.04928e-10)
(0.188955 -4.75153e-09 -1.88723e-09)
(0.188956 2.42172e-09 1.18189e-09)
(0.183751 -1.14009e-09 7.65737e-10)
(0.183754 -2.29208e-10 -2.02503e-09)
(0.183755 1.35814e-09 1.2592e-09)
(0.178023 -3.08304e-09 8.01458e-10)
(0.178025 2.19523e-09 -2.0711e-09)
(0.178027 8.74884e-10 1.26959e-09)
(0.171569 -3.31054e-09 7.83695e-10)
(0.171571 1.12271e-11 -2.07767e-09)
(0.171573 3.29431e-09 1.29344e-09)
(0.164042 -3.56582e-09 7.09408e-10)
(0.164045 -2.43362e-09 -2.06142e-09)
(0.164046 6.00213e-09 1.35163e-09)
(0.154845 -3.76189e-09 5.6588e-10)
(0.154847 -4.59237e-09 -2.071e-09)
(0.154849 8.36873e-09 1.50482e-09)
(0.142879 -5.30004e-09 3.74807e-10)
(0.142882 5.8019e-09 -1.82361e-09)
(0.142883 -4.87313e-10 1.44883e-09)
(0.125933 -3.77813e-09 2.77591e-10)
(0.125935 5.2493e-09 -1.14974e-09)
(0.125936 -1.46531e-09 8.72419e-10)
(0.0700155 -6.72725e-10 1.66861e-10)
(0.070016 -1.41725e-09 -4.82542e-10)
(0.0700165 2.09369e-09 3.15934e-10)
(0.078381 6.06342e-10 2.39617e-10)
(0.0783815 1.76023e-09 -7.49397e-10)
(0.0783821 -2.48341e-09 5.13938e-10)
(0.147602 4.37164e-09 4.42571e-10)
(0.147604 -5.51508e-09 -1.89216e-09)
(0.147605 1.25963e-09 1.43605e-09)
(0.166549 5.89969e-09 6.46593e-10)
(0.166551 -6.14341e-09 -2.99685e-09)
(0.166552 2.54006e-10 2.3573e-09)
(0.179446 4.08679e-09 9.62848e-10)
(0.179449 5.30637e-09 -3.41588e-09)
(0.17945 -9.37904e-09 2.45373e-09)
(0.189321 3.65254e-09 1.17732e-09)
(0.189324 3.17361e-09 -3.33746e-09)
(0.189326 -6.83239e-09 2.16007e-09)
(0.197397 3.19899e-09 1.30123e-09)
(0.1974 5.49389e-10 -3.34938e-09)
(0.197402 -3.736e-09 2.04739e-09)
(0.204321 2.97466e-09 1.32131e-09)
(0.204323 -1.78288e-09 -3.3219e-09)
(0.204325 -1.17783e-09 2.00077e-09)
(0.210466 8.30462e-10 1.26619e-09)
(0.210468 8.49192e-10 -3.25605e-09)
(0.21047 -1.66838e-09 1.99036e-09)
(0.216044 -2.97024e-09 1.16168e-09)
(0.216046 5.77497e-09 -3.02254e-09)
(0.216048 -2.81087e-09 1.86098e-09)
(0.221142 -6.50562e-09 1.10071e-09)
(0.221144 1.0453e-08 -2.70794e-09)
(0.221145 -3.95246e-09 1.60707e-09)
(0.225723 -9.59939e-09 1.15485e-09)
(0.225725 1.47896e-08 -2.36775e-09)
(0.225726 -5.1925e-09 1.21269e-09)
(0.229647 -1.11057e-08 1.24087e-09)
(0.229648 1.68452e-08 -2.01832e-09)
(0.22965 -5.71992e-09 7.77279e-10)
(0.232731 -9.03214e-09 1.29228e-09)
(0.232732 1.40898e-08 -1.76926e-09)
(0.232733 -5.04946e-09 4.77047e-10)
(0.234871 -5.77691e-09 1.32537e-09)
(0.234871 9.33076e-09 -1.62424e-09)
(0.234873 -3.54333e-09 2.98867e-10)
(0.236023 -2.25222e-09 1.30923e-09)
(0.236023 3.39428e-09 -1.52346e-09)
(0.236025 -1.14499e-09 2.13945e-10)
(0.236023 2.0686e-09 1.31126e-09)
(0.236023 -3.18419e-09 -1.52434e-09)
(0.236025 1.17275e-09 2.12708e-10)
(0.234871 5.66207e-09 1.32412e-09)
(0.234872 -9.15554e-09 -1.62458e-09)
(0.234873 3.54834e-09 3.00924e-10)
(0.232731 8.85033e-09 1.29092e-09)
(0.232732 -1.39095e-08 -1.76537e-09)
(0.232734 5.06848e-09 4.76359e-10)
(0.229648 1.09004e-08 1.23684e-09)
(0.229649 -1.66721e-08 -2.01837e-09)
(0.22965 5.74464e-09 7.71077e-10)
(0.225725 9.37343e-09 1.1576e-09)
(0.225726 -1.46478e-08 -2.36132e-09)
(0.225728 5.24936e-09 1.21631e-09)
(0.221143 6.25145e-09 1.10094e-09)
(0.221145 -1.01845e-08 -2.70782e-09)
(0.221146 3.94559e-09 1.60438e-09)
(0.216045 2.7063e-09 1.15932e-09)
(0.216047 -5.45908e-09 -3.02228e-09)
(0.216049 2.74026e-09 1.86267e-09)
(0.210466 -1.1087e-09 1.26296e-09)
(0.210468 -5.39406e-10 -3.24454e-09)
(0.21047 1.63594e-09 1.98154e-09)
(0.20432 -3.26503e-09 1.32214e-09)
(0.204322 2.06122e-09 -3.31878e-09)
(0.204324 1.18795e-09 1.99656e-09)
(0.197395 -3.51493e-09 1.2992e-09)
(0.197397 -4.01854e-10 -3.34097e-09)
(0.197399 3.91034e-09 2.04105e-09)
(0.189318 -3.82358e-09 1.18644e-09)
(0.189321 -3.08032e-09 -3.33354e-09)
(0.189323 6.90701e-09 2.14648e-09)
(0.179442 -4.11497e-09 9.58416e-10)
(0.179445 -5.28313e-09 -3.41137e-09)
(0.179446 9.41435e-09 2.45248e-09)
(0.166543 -5.94087e-09 6.34813e-10)
(0.166545 6.21574e-09 -2.98808e-09)
(0.166546 -2.58017e-10 2.3534e-09)
(0.147597 -4.25286e-09 4.52973e-10)
(0.147599 5.51375e-09 -1.89807e-09)
(0.1476 -1.25298e-09 1.44555e-09)
(0.0783776 -7.31881e-10 2.35114e-10)
(0.0783781 -1.53921e-09 -7.29434e-10)
(0.0783787 2.27513e-09 4.94859e-10)
(0.0866299 6.57723e-10 3.17942e-10)
(0.0866305 1.85611e-09 -1.04824e-09)
(0.0866311 -2.63246e-09 7.38996e-10)
(0.161938 4.58684e-09 6.28997e-10)
(0.16194 -5.41578e-09 -2.66332e-09)
(0.161941 8.98632e-10 2.01692e-09)
(0.182756 6.25257e-09 9.49296e-10)
(0.182758 -6.22216e-09 -4.28222e-09)
(0.182759 -3.24123e-11 3.34169e-09)
(0.196466 4.27032e-09 1.42499e-09)
(0.196469 5.76321e-09 -4.94299e-09)
(0.19647 -1.00267e-08 3.51892e-09)
(0.206904 3.74106e-09 1.73961e-09)
(0.206907 3.72505e-09 -4.79936e-09)
(0.206909 -7.47562e-09 3.05968e-09)
(0.215429 3.23509e-09 1.91678e-09)
(0.215431 9.80867e-10 -4.81239e-09)
(0.215433 -4.20133e-09 2.89457e-09)
(0.222734 2.99315e-09 1.94272e-09)
(0.222737 -1.54028e-09 -4.77198e-09)
(0.222739 -1.43554e-09 2.8295e-09)
(0.229217 7.23401e-10 1.86547e-09)
(0.229219 1.1854e-09 -4.68215e-09)
(0.229221 -1.89725e-09 2.8174e-09)
(0.235101 -3.28472e-09 1.71181e-09)
(0.235103 6.33746e-09 -4.35745e-09)
(0.235104 -3.06112e-09 2.6459e-09)
(0.240476 -7.01562e-09 1.61404e-09)
(0.240478 1.12113e-08 -3.9213e-09)
(0.24048 -4.2018e-09 2.30709e-09)
(0.245305 -1.02885e-08 1.67508e-09)
(0.245306 1.57473e-08 -3.45482e-09)
(0.245308 -5.46149e-09 1.77942e-09)
(0.249439 -1.18527e-08 1.78091e-09)
(0.24944 1.78548e-08 -2.97735e-09)
(0.249442 -5.98149e-09 1.19621e-09)
(0.252688 -9.65378e-09 1.84254e-09)
(0.252689 1.49507e-08 -2.64029e-09)
(0.252691 -5.28848e-09 7.97879e-10)
(0.254943 -6.18844e-09 1.8826e-09)
(0.254944 9.92783e-09 -2.44354e-09)
(0.254946 -3.72826e-09 5.60982e-10)
(0.256158 -2.40554e-09 1.857e-09)
(0.256159 3.60563e-09 -2.3031e-09)
(0.256161 -1.20345e-09 4.45675e-10)
(0.256158 2.21308e-09 1.85993e-09)
(0.256159 -3.38569e-09 -2.3044e-09)
(0.256161 1.23387e-09 4.43915e-10)
(0.254944 6.06845e-09 1.8807e-09)
(0.254945 -9.74234e-09 -2.44413e-09)
(0.254946 3.73435e-09 5.64062e-10)
(0.252689 9.46587e-09 1.84061e-09)
(0.25269 -1.47596e-08 -2.63464e-09)
(0.252691 5.30894e-09 7.96824e-10)
(0.24944 1.16309e-08 1.77607e-09)
(0.249441 -1.7685e-08 -2.97669e-09)
(0.249443 6.0138e-09 1.18926e-09)
(0.245307 1.0046e-08 1.67785e-09)
(0.245308 -1.56077e-08 -3.4468e-09)
(0.24531 5.52518e-09 1.78259e-09)
(0.240477 6.75275e-09 1.61432e-09)
(0.240479 -1.09179e-08 -3.9217e-09)
(0.240481 4.18774e-09 2.304e-09)
(0.235102 3.00606e-09 1.70849e-09)
(0.235104 -5.98444e-09 -4.35627e-09)
(0.235106 2.96854e-09 2.64773e-09)
(0.229217 -1.01752e-09 1.86078e-09)
(0.229219 -8.64528e-10 -4.66773e-09)
(0.229221 1.86892e-09 2.80705e-09)
(0.222733 -3.29842e-09 1.94425e-09)
(0.222735 1.79886e-09 -4.76654e-09)
(0.222737 1.48124e-09 2.82221e-09)
(0.215426 -3.56584e-09 1.91362e-09)
(0.215429 -8.40202e-10 -4.80012e-09)
(0.215431 4.39822e-09 2.88555e-09)
(0.206901 -3.92519e-09 1.75176e-09)
(0.206904 -3.61907e-09 -4.79369e-09)
(0.206906 7.5476e-09 3.04102e-09)
(0.196462 -4.31223e-09 1.41818e-09)
(0.196465 -5.72056e-09 -4.93745e-09)
(0.196466 1.00501e-08 3.51862e-09)
(0.18275 -6.31059e-09 9.34049e-10)
(0.182752 6.32408e-09 -4.27014e-09)
(0.182753 5.01617e-12 3.33638e-09)
(0.161933 -4.5172e-09 6.41026e-10)
(0.161935 5.48248e-09 -2.66957e-09)
(0.161935 -9.55267e-10 2.0293e-09)
(0.0866263 -7.85434e-10 3.08747e-10)
(0.0866268 -1.63288e-09 -1.01755e-09)
(0.0866274 2.42244e-09 7.09626e-10)
(0.0948996 7.12771e-10 4.02897e-10)
(0.0949002 1.90667e-09 -1.39722e-09)
(0.0949008 -2.7343e-09 1.00342e-09)
(0.172458 4.70728e-09 8.29885e-10)
(0.17246 -5.1962e-09 -3.44773e-09)
(0.172461 5.17334e-10 2.59688e-09)
(0.195042 6.47372e-09 1.28738e-09)
(0.195044 -6.15299e-09 -5.66456e-09)
(0.195045 -3.3341e-10 4.38698e-09)
(0.209515 4.38859e-09 1.95329e-09)
(0.209517 6.07806e-09 -6.64319e-09)
(0.209519 -1.04658e-08 4.6909e-09)
(0.220451 3.75984e-09 2.38719e-09)
(0.220454 4.22297e-09 -6.44584e-09)
(0.220456 -7.99434e-09 4.05844e-09)
(0.229363 3.19849e-09 2.63091e-09)
(0.229366 1.43711e-09 -6.46834e-09)
(0.229368 -4.619e-09 3.83599e-09)
(0.236995 2.93635e-09 2.66428e-09)
(0.236997 -1.21333e-09 -6.41986e-09)
(0.236999 -1.7029e-09 3.75589e-09)
(0.243764 5.87713e-10 2.56439e-09)
(0.243767 1.53859e-09 -6.31062e-09)
(0.243768 -2.11431e-09 3.74722e-09)
(0.249906 -3.5451e-09 2.3574e-09)
(0.249909 6.80434e-09 -5.89084e-09)
(0.24991 -3.26887e-09 3.53386e-09)
(0.255516 -7.39745e-09 2.2164e-09)
(0.255518 1.17812e-08 -5.33026e-09)
(0.25552 -4.39027e-09 3.11364e-09)
(0.260553 -1.07866e-08 2.27893e-09)
(0.260554 1.64317e-08 -4.73715e-09)
(0.260556 -5.64773e-09 2.45777e-09)
(0.264864 -1.23763e-08 2.40095e-09)
(0.264865 1.85466e-08 -4.12995e-09)
(0.264867 -6.14872e-09 1.72871e-09)
(0.268252 -1.00958e-08 2.46982e-09)
(0.268253 1.55438e-08 -3.70471e-09)
(0.268255 -5.43904e-09 1.23508e-09)
(0.270605 -6.48649e-09 2.51602e-09)
(0.270606 1.03436e-08 -3.45426e-09)
(0.270608 -3.84525e-09 9.38326e-10)
(0.271872 -2.51468e-09 2.47885e-09)
(0.271873 3.75034e-09 -3.27012e-09)
(0.271875 -1.23915e-09 7.90692e-10)
(0.271872 2.31656e-09 2.48287e-09)
(0.271873 -3.52414e-09 -3.272e-09)
(0.271875 1.27233e-09 7.88351e-10)
(0.270605 6.36283e-09 2.51331e-09)
(0.270606 -1.01509e-08 -3.45522e-09)
(0.270608 3.85269e-09 9.42697e-10)
(0.268252 9.90357e-09 2.46721e-09)
(0.268254 -1.53462e-08 -3.69704e-09)
(0.268255 5.46069e-09 1.23362e-09)
(0.264865 1.21445e-08 2.39539e-09)
(0.264866 -1.8379e-08 -4.12831e-09)
(0.264868 6.18797e-09 1.72121e-09)
(0.260555 1.05341e-08 2.28145e-09)
(0.260556 -1.62936e-08 -4.72781e-09)
(0.260558 5.71753e-09 2.46035e-09)
(0.255517 7.12867e-09 2.21671e-09)
(0.255519 -1.14725e-08 -5.33143e-09)
(0.255521 4.37133e-09 3.11036e-09)
(0.249908 3.2564e-09 2.35301e-09)
(0.24991 -6.4261e-09 -5.88839e-09)
(0.249912 3.16127e-09 3.53563e-09)
(0.243764 -8.92283e-10 2.55802e-09)
(0.243767 -1.21141e-09 -6.29248e-09)
(0.243768 2.09e-09 3.73472e-09)
(0.236993 -3.25095e-09 2.66655e-09)
(0.236996 1.45495e-09 -6.41154e-09)
(0.236998 1.77614e-09 3.74488e-09)
(0.22936 -3.53739e-09 2.62643e-09)
(0.229363 -1.30226e-09 -6.4528e-09)
(0.229365 4.83101e-09 3.82514e-09)
(0.220448 -3.95254e-09 2.40282e-09)
(0.220451 -4.1076e-09 -6.43877e-09)
(0.220452 8.06378e-09 4.03469e-09)
(0.209511 -4.44228e-09 1.94392e-09)
(0.209513 -6.01894e-09 -6.637e-09)
(0.209515 1.04792e-08 4.6922e-09)
(0.195036 -6.54576e-09 1.26913e-09)
(0.195038 6.27988e-09 -5.64972e-09)
(0.195039 2.85554e-10 4.38103e-09)
(0.172452 -4.68152e-09 8.43182e-10)
(0.172454 5.32204e-09 -3.45342e-09)
(0.172455 -6.28634e-10 2.61134e-09)
(0.0948958 -8.36867e-10 3.92963e-10)
(0.0948963 -1.69019e-09 -1.3567e-09)
(0.0948969 2.53118e-09 9.64981e-10)
(0.103257 7.73829e-10 5.07511e-10)
(0.103257 1.90322e-09 -1.81742e-09)
(0.103258 -2.78352e-09 1.32295e-09)
(0.180736 4.78665e-09 1.04357e-09)
(0.180737 -4.94068e-09 -4.22324e-09)
(0.180738 1.51436e-10 3.15546e-09)
(0.204951 6.6239e-09 1.65787e-09)
(0.204953 -6.00861e-09 -7.106e-09)
(0.204954 -6.35796e-10 5.45827e-09)
(0.220173 4.4795e-09 2.54198e-09)
(0.220175 6.29532e-09 -8.49153e-09)
(0.220177 -1.07778e-08 5.95047e-09)
(0.231573 3.74224e-09 3.1166e-09)
(0.231576 4.69304e-09 -8.26757e-09)
(0.231578 -8.44749e-09 5.15049e-09)
(0.240835 3.11708e-09 3.43911e-09)
(0.240838 1.92312e-09 -8.31133e-09)
(0.24084 -5.0218e-09 4.87028e-09)
(0.248757 2.82905e-09 3.48135e-09)
(0.248759 -8.15362e-10 -8.26081e-09)
(0.248761 -1.99131e-09 4.77986e-09)
(0.255779 4.30058e-10 3.35909e-09)
(0.255781 1.91674e-09 -8.13755e-09)
(0.255783 -2.33411e-09 4.77979e-09)
(0.262147 -3.77489e-09 3.09737e-09)
(0.26215 7.22191e-09 -7.62346e-09)
(0.262151 -3.45696e-09 4.52668e-09)
(0.267961 -7.70174e-09 2.90903e-09)
(0.267963 1.22441e-08 -6.93896e-09)
(0.267964 -4.54873e-09 4.02964e-09)
(0.273178 -1.11674e-08 2.96726e-09)
(0.27318 1.69561e-08 -6.22358e-09)
(0.273182 -5.79084e-09 3.25569e-09)
(0.277642 -1.27607e-08 3.10075e-09)
(0.277644 1.90479e-08 -5.48903e-09)
(0.277646 -6.2645e-09 2.3879e-09)
(0.281151 -1.04259e-08 3.17379e-09)
(0.281153 1.59759e-08 -4.97793e-09)
(0.281155 -5.5402e-09 1.80439e-09)
(0.283589 -6.71427e-09 3.22568e-09)
(0.28359 1.06506e-08 -4.67319e-09)
(0.283592 -3.92363e-09 1.44764e-09)
(0.284903 -2.59641e-09 3.17468e-09)
(0.284904 3.85478e-09 -4.44179e-09)
(0.284906 -1.26174e-09 1.26634e-09)
(0.284903 2.39444e-09 3.17998e-09)
(0.284904 -3.62422e-09 -4.44435e-09)
(0.284906 1.2978e-09 1.26333e-09)
(0.283589 6.58771e-09 3.22201e-09)
(0.28359 -1.04523e-08 -4.67457e-09)
(0.283592 3.93272e-09 1.45356e-09)
(0.281152 1.02305e-08 3.17035e-09)
(0.281153 -1.57744e-08 -4.96797e-09)
(0.281155 5.56334e-09 1.80248e-09)
(0.277643 1.25226e-08 3.09435e-09)
(0.277645 -1.8881e-08 -5.48634e-09)
(0.277647 6.30944e-09 2.37987e-09)
(0.27318 1.09088e-08 2.96949e-09)
(0.273182 -1.68187e-08 -6.21286e-09)
(0.273184 5.8658e-09 3.25771e-09)
(0.267962 7.42876e-09 2.90942e-09)
(0.267964 -1.19265e-08 -6.94124e-09)
(0.267965 4.52785e-09 4.02646e-09)
(0.262148 3.47909e-09 3.09184e-09)
(0.262151 -6.82753e-09 -7.61956e-09)
(0.262152 3.34099e-09 4.52835e-09)
(0.255779 -7.41817e-10 3.35089e-09)
(0.255781 -1.58546e-09 -8.11503e-09)
(0.255783 2.31353e-09 4.7646e-09)
(0.248755 -3.1498e-09 3.48447e-09)
(0.248758 1.04558e-09 -8.24914e-09)
(0.24876 2.08369e-09 4.76451e-09)
(0.240832 -3.46006e-09 3.43314e-09)
(0.240835 -1.79141e-09 -8.29322e-09)
(0.240837 5.24258e-09 4.8585e-09)
(0.23157 -3.94031e-09 3.13604e-09)
(0.231572 -4.57104e-09 -8.25951e-09)
(0.231574 8.51541e-09 5.12179e-09)
(0.220168 -4.54276e-09 2.52985e-09)
(0.220171 -6.22337e-09 -8.48504e-09)
(0.220172 1.07846e-08 5.95404e-09)
(0.204945 -6.70639e-09 1.63711e-09)
(0.204947 6.15444e-09 -7.08897e-09)
(0.204948 5.72404e-10 5.45243e-09)
(0.18073 -4.79416e-09 1.05835e-09)
(0.180731 5.11065e-09 -4.22737e-09)
(0.180732 -3.03014e-10 3.17054e-09)
(0.103253 -8.8949e-10 4.93293e-10)
(0.103253 -1.7011e-09 -1.76333e-09)
(0.103254 2.59467e-09 1.27177e-09)
(0.111729 8.43879e-10 6.32344e-10)
(0.11173 1.8346e-09 -2.31827e-09)
(0.11173 -2.77267e-09 1.70334e-09)
(0.187605 4.85112e-09 1.26865e-09)
(0.187606 -4.6969e-09 -4.97382e-09)
(0.187607 -1.77339e-10 3.67809e-09)
(0.213276 6.7355e-09 2.05764e-09)
(0.213277 -5.8333e-09 -8.56867e-09)
(0.213278 -9.27434e-10 6.52093e-09)
(0.229248 4.56281e-09 3.18961e-09)
(0.22925 6.43314e-09 -1.0462e-08)
(0.229251 -1.10008e-08 7.27312e-09)
(0.241098 3.70544e-09 3.92509e-09)
(0.2411 5.14776e-09 -1.02527e-08)
(0.241102 -8.86483e-09 6.32677e-09)
(0.250688 3.0047e-09 4.34036e-09)
(0.25069 2.44314e-09 -1.0336e-08)
(0.250692 -5.42773e-09 5.99313e-09)
(0.258875 2.6829e-09 4.39342e-09)
(0.258878 -3.51253e-10 -1.02928e-08)
(0.25888 -2.30741e-09 5.89984e-09)
(0.266126 2.52733e-10 4.24856e-09)
(0.266129 2.32601e-09 -1.01638e-08)
(0.26613 -2.56504e-09 5.91699e-09)
(0.272698 -3.9869e-09 3.93043e-09)
(0.2727 7.61563e-09 -9.55815e-09)
(0.272702 -3.63813e-09 5.62851e-09)
(0.278694 -7.95492e-09 3.69373e-09)
(0.278696 1.26423e-08 -8.75424e-09)
(0.278698 -4.69302e-09 5.06015e-09)
(0.284072 -1.14692e-08 3.74283e-09)
(0.284074 1.73785e-08 -7.92436e-09)
(0.284076 -5.91067e-09 4.1807e-09)
(0.288673 -1.30489e-08 3.88253e-09)
(0.288675 1.94231e-08 -7.06829e-09)
(0.288677 -6.35009e-09 3.18528e-09)
(0.29229 -1.06794e-08 3.9594e-09)
(0.292292 1.63017e-08 -6.47549e-09)
(0.292293 -5.61144e-09 2.51641e-09)
(0.294803 -6.89424e-09 4.01738e-09)
(0.294805 1.08859e-08 -6.11664e-09)
(0.294807 -3.97804e-09 2.09945e-09)
(0.296159 -2.65941e-09 3.95001e-09)
(0.29616 3.93249e-09 -5.83479e-09)
(0.296162 -1.2761e-09 1.88378e-09)
(0.296159 2.45475e-09 3.95681e-09)
(0.29616 -3.69871e-09 -5.83818e-09)
(0.296162 1.31525e-09 1.88003e-09)
(0.294803 6.76521e-09 4.01258e-09)
(0.294805 -1.0683e-08 -6.11858e-09)
(0.294807 3.98912e-09 2.10721e-09)
(0.29229 1.04813e-08 3.955e-09)
(0.292292 -1.60978e-08 -6.463e-09)
(0.292294 5.63652e-09 2.51404e-09)
(0.288674 1.28071e-08 3.8752e-09)
(0.288676 -1.92558e-08 -7.06451e-09)
(0.288678 6.39941e-09 3.17677e-09)
(0.284074 1.12069e-08 3.74476e-09)
(0.284076 -1.7241e-08 -7.91231e-09)
(0.284078 5.98989e-09 4.18219e-09)
(0.278695 7.67899e-09 3.69418e-09)
(0.278697 -1.23206e-08 -8.75786e-09)
(0.278699 4.67318e-09 5.05723e-09)
(0.272699 3.68608e-09 3.92364e-09)
(0.272702 -7.2123e-09 -9.55256e-09)
(0.272703 3.51966e-09 5.62994e-09)
(0.266126 -5.69507e-10 4.23835e-09)
(0.266128 -1.99165e-09 -1.01362e-08)
(0.26613 2.54786e-09 5.89858e-09)
(0.258873 -3.00783e-09 4.3974e-09)
(0.258876 5.76062e-10 -1.02773e-08)
(0.258878 2.41136e-09 5.87968e-09)
(0.250684 -3.34897e-09 4.33298e-09)
(0.250687 -2.31155e-09 -1.0316e-08)
(0.250689 5.65191e-09 5.98105e-09)
(0.241094 -3.90643e-09 3.94927e-09)
(0.241097 -5.02138e-09 -1.02441e-08)
(0.241098 8.93248e-09 6.2927e-09)
(0.229243 -4.6336e-09 3.17446e-09)
(0.229246 -6.35185e-09 -1.04556e-08)
(0.229247 1.10043e-08 7.27966e-09)
(0.213269 -6.82482e-09 2.03477e-09)
(0.21327 5.99211e-09 -8.54993e-09)
(0.213271 8.5365e-10 6.51585e-09)
(0.187598 -4.88073e-09 1.2852e-09)
(0.187599 4.89577e-09 -4.97526e-09)
(0.1876 -2.4809e-13 3.69206e-09)
(0.111725 -9.47085e-10 6.13383e-10)
(0.111725 -1.65312e-09 -2.24873e-09)
(0.111726 2.60429e-09 1.63767e-09)
(0.120317 9.26605e-10 7.80213e-10)
(0.120318 1.68793e-09 -2.90794e-09)
(0.120319 -2.69319e-09 2.15e-09)
(0.193557 4.91594e-09 1.50585e-09)
(0.193558 -4.49861e-09 -5.68973e-09)
(0.193559 -4.51697e-10 4.1544e-09)
(0.220471 6.82931e-09 2.48587e-09)
(0.220472 -5.66222e-09 -1.00165e-08)
(0.220473 -1.19406e-09 7.53976e-09)
(0.2372 4.65107e-09 3.89703e-09)
(0.237202 6.49554e-09 -1.25253e-08)
(0.237203 -1.11513e-08 8.62862e-09)
(0.249497 3.6602e-09 4.81413e-09)
(0.2495 5.59216e-09 -1.23883e-08)
(0.249502 -9.2622e-09 7.5728e-09)
(0.259404 2.86921e-09 5.33413e-09)
(0.259406 3.00045e-09 -1.25359e-08)
(0.259408 -5.84786e-09 7.19851e-09)
(0.267842 2.50385e-09 5.39983e-09)
(0.267845 1.77813e-10 -1.25113e-08)
(0.267846 -2.65586e-09 7.11211e-09)
(0.275306 5.61399e-11 5.23209e-09)
(0.275308 2.7716e-09 -1.23878e-08)
(0.27531 -2.81274e-09 7.15791e-09)
(0.282065 -4.18898e-09 4.85646e-09)
(0.282067 8.00141e-09 -1.16978e-08)
(0.282069 -3.82051e-09 6.84231e-09)
(0.288227 -8.17245e-09 4.5716e-09)
(0.288229 1.30006e-08 -1.07816e-08)
(0.288231 -4.83248e-09 6.2095e-09)
(0.293752 -1.17139e-08 4.60911e-09)
(0.293755 1.77322e-08 -9.84778e-09)
(0.293756 -6.01847e-09 5.23762e-09)
(0.298477 -1.32656e-08 4.75034e-09)
(0.298479 1.97087e-08 -8.87917e-09)
(0.298481 -6.41735e-09 4.12823e-09)
(0.302192 -1.08761e-08 4.83241e-09)
(0.302194 1.65521e-08 -8.21099e-09)
(0.302195 -5.66365e-09 3.37898e-09)
(0.304774 -7.03943e-09 4.89594e-09)
(0.304776 1.1071e-08 -7.79918e-09)
(0.304777 -4.01674e-09 2.9035e-09)
(0.306167 -2.70868e-09 4.8115e-09)
(0.306169 3.99117e-09 -7.46419e-09)
(0.306171 -1.28494e-09 2.65143e-09)
(0.306167 2.50212e-09 4.82e-09)
(0.306169 -3.75489e-09 -7.46857e-09)
(0.306171 1.32742e-09 2.64686e-09)
(0.304774 6.90816e-09 4.88987e-09)
(0.304776 -1.08639e-08 -7.80174e-09)
(0.304777 4.03014e-09 2.91339e-09)
(0.302192 1.06758e-08 4.82688e-09)
(0.302194 -1.63468e-08 -8.1957e-09)
(0.302196 5.69121e-09 3.37613e-09)
(0.298478 1.30218e-08 4.74191e-09)
(0.29848 -1.95397e-08 -8.87434e-09)
(0.298482 6.46984e-09 4.11926e-09)
(0.293754 1.145e-08 4.61085e-09)
(0.293757 -1.75939e-08 -9.83431e-09)
(0.293758 6.10114e-09 5.23863e-09)
(0.288228 7.89455e-09 4.57223e-09)
(0.288231 -1.26785e-08 -1.07868e-08)
(0.288232 4.81645e-09 6.20701e-09)
(0.282066 3.88476e-09 4.84834e-09)
(0.282068 -7.59496e-09 -1.16903e-08)
(0.28207 3.70461e-09 6.84347e-09)
(0.275306 -3.76357e-10 5.21954e-09)
(0.275308 -2.43468e-09 -1.23546e-08)
(0.27531 2.79865e-09 7.13595e-09)
(0.26784 -2.83164e-09 5.40458e-09)
(0.267842 4.72494e-11 -1.24917e-08)
(0.267844 2.76483e-09 7.08688e-09)
(0.2594 -3.21266e-09 5.32529e-09)
(0.259403 -2.86597e-09 -1.25144e-08)
(0.259404 6.07082e-09 7.18661e-09)
(0.249493 -3.8621e-09 4.84395e-09)
(0.249496 -5.46321e-09 -1.23796e-08)
(0.249498 9.33073e-09 7.53297e-09)
(0.237195 -4.72762e-09 3.87875e-09)
(0.237197 -6.40803e-09 -1.25192e-08)
(0.237198 1.11548e-08 8.63867e-09)
(0.220464 -6.92203e-09 2.46119e-09)
(0.220465 5.82848e-09 -9.99633e-09)
(0.220466 1.11473e-09 7.53593e-09)
(0.19355 -4.95769e-09 1.52263e-09)
(0.193551 4.71256e-09 -5.68715e-09)
(0.193552 2.6102e-10 4.16708e-09)
(0.120313 -1.01415e-09 7.56053e-10)
(0.120313 -1.53204e-09 -2.82135e-09)
(0.120314 2.55038e-09 2.06832e-09)
(0.129001 1.02656e-09 9.52848e-10)
(0.129001 1.44958e-09 -3.59118e-09)
(0.129002 -2.53666e-09 2.66541e-09)
(0.198908 4.98987e-09 1.7535e-09)
(0.198908 -4.37384e-09 -6.36502e-09)
(0.198909 -6.53863e-10 4.58019e-09)
(0.226827 6.92013e-09 2.93748e-09)
(0.226828 -5.52856e-09 -1.1416e-08)
(0.226829 -1.41747e-09 8.48652e-09)
(0.244311 4.75319e-09 4.65993e-09)
(0.244313 6.47671e-09 -1.46458e-08)
(0.244314 -1.12327e-08 9.98568e-09)