/*--------------------------------*- C++ -*----------------------------------*\
  =========                 |
  \\      /  F ield         | OpenFOAM: The Open Source CFD Toolbox
   \\    /   O peration     | Website:  https://openfoam.org
    \\  /    A nd           | Version:  6
     \\/     M anipulation  |
\*---------------------------------------------------------------------------*/
FoamFile
{
    version     2.0;
    format      ascii;
    class       volVectorField;
    location    "14";
    object      wallShearStress;
}
// * * * * * * * * * * * * * * * * * * * * * * * * * * * * * * * * * * * * * //

dimensions      [0 2 -2 0 0 0 0];

internalField   uniform (0 0 0);

boundaryField
{
    inlet
    {
        type            calculated;
        value           uniform (0 0 0);
    }
    outlet
    {
        type            calculated;
        value           uniform (0 0 0);
    }
    roughCylinder
    {
        type            calculated;
        value           nonuniform List<vector> 
5120
(
(-8.38974e-05 -9.60921e-05 -4.83956e-05)
(-0.000130257 -0.000212485 -6.04412e-05)
(-0.000211932 -0.000373612 -1.1216e-05)
(-0.000255088 -0.000447239 3.61283e-05)
(-0.000306925 -0.000508749 8.01696e-05)
(-0.000352232 -0.000540883 0.000117675)
(-0.000393322 -0.000556177 0.000147817)
(-0.000425062 -0.000554701 0.00016898)
(-0.000450759 -0.0005464 0.00018381)
(-0.000471383 -0.000536108 0.000194283)
(-0.000489876 -0.00052887 0.000203058)
(-0.00050627 -0.000524384 0.000210196)
(-0.000519005 -0.000521793 0.000214497)
(-0.000528731 -0.000520658 0.000215905)
(-0.000534408 -0.000519301 0.000214154)
(-0.000537514 -0.000518271 0.000209932)
(-0.000538851 -0.000517413 0.000203639)
(-0.000542595 -0.000519887 0.00019677)
(-0.000553634 -0.000530306 0.000190889)
(-0.000543875 -0.0005224 0.000177225)
(-0.000553981 -0.000532739 0.000169059)
(-0.00056081 -0.000540547 0.000158484)
(-0.000537829 -0.000521249 0.000139878)
(-0.000568106 -0.000551259 0.000134201)
(-0.000549919 -0.00053654 0.000116882)
(-0.000557637 -0.000545568 0.000104653)
(-0.000550409 -0.000540712 8.93701e-05)
(-0.000553133 -0.000544544 7.52371e-05)
(-0.000545277 -0.000538576 5.92833e-05)
(-0.00054027 -0.000534955 4.32276e-05)
(-0.000536698 -0.00053244 2.65842e-05)
(-0.00053602 -0.000532339 9.06147e-06)
(-9.11696e-05 -9.19059e-05 -4.28746e-05)
(-0.000138455 -0.00020266 -6.3819e-05)
(-0.000226581 -0.000364749 -1.9195e-05)
(-0.000272191 -0.000441943 2.76773e-05)
(-0.000326111 -0.000506086 7.16834e-05)
(-0.000373214 -0.000541041 0.000109669)
(-0.000415508 -0.000558063 0.000140121)
(-0.000448978 -0.000559048 0.000161821)
(-0.000476995 -0.000553812 0.000177512)
(-0.000500038 -0.000546182 0.000189245)
(-0.000522255 -0.000542089 0.00019993)
(-0.000541567 -0.000538638 0.000208562)
(-0.000556564 -0.000535772 0.00021385)
(-0.00056657 -0.000533622 0.000215458)
(-0.000572543 -0.000531674 0.000213947)
(-0.000575889 -0.000530374 0.000209995)
(-0.000578619 -0.000530435 0.000204355)
(-0.000584287 -0.000534261 0.000198132)
(-0.000594249 -0.000543183 0.000191706)
(-0.000584878 -0.000536198 0.0001785)
(-0.000595848 -0.000546886 0.000170458)
(-0.000600728 -0.000552751 0.000159298)
(-0.000576385 -0.000533465 0.000140855)
(-0.000607064 -0.000562477 0.000134889)
(-0.000588727 -0.000548551 0.0001178)
(-0.000597379 -0.000558152 0.000105639)
(-0.000592007 -0.000555495 9.06628e-05)
(-0.000593885 -0.000558499 7.62609e-05)
(-0.000587348 -0.000554195 6.03228e-05)
(-0.00058313 -0.000551652 4.4097e-05)
(-0.000579983 -0.0005498 2.71714e-05)
(-0.000579473 -0.00054992 9.26876e-06)
(-0.000123277 -0.00010735 -4.28505e-05)
(-0.000147881 -0.000191949 -6.76759e-05)
(-0.00023933 -0.000348862 -2.74959e-05)
(-0.000287809 -0.000429809 1.80188e-05)
(-0.000343825 -0.000496731 6.16937e-05)
(-0.000393076 -0.000535175 0.000100127)
(-0.000438018 -0.000556077 0.000131348)
(-0.000473765 -0.000560368 0.000153935)
(-0.000504463 -0.000558661 0.000170853)
(-0.000531575 -0.000555495 0.000184595)
(-0.000555955 -0.000552808 0.000196491)
(-0.000576604 -0.000549407 0.000205819)
(-0.00059153 -0.000544301 0.000211193)
(-0.000601855 -0.000540667 0.000213092)
(-0.000608706 -0.000538562 0.000212086)
(-0.000613875 -0.000538162 0.000208984)
(-0.000618525 -0.000539365 0.000204143)
(-0.000625283 -0.000543619 0.000198274)
(-0.000634282 -0.000551267 0.000191511)
(-0.000626017 -0.000545736 0.00017902)
(-0.000638548 -0.000557293 0.000171338)
(-0.000642664 -0.000562456 0.00016004)
(-0.000618761 -0.000544918 0.000142212)
(-0.000649793 -0.000572851 0.000135953)
(-0.000631958 -0.000560348 0.000119182)
(-0.000641445 -0.000570341 0.000107017)
(-0.000638292 -0.000570046 9.23134e-05)
(-0.000638818 -0.000571899 7.75458e-05)
(-0.000632658 -0.000568319 6.14676e-05)
(-0.000627971 -0.000565686 4.49503e-05)
(-0.000624571 -0.000563881 2.77185e-05)
(-0.000623933 -0.000563962 9.45788e-06)
(-0.000143467 -0.000106238 -3.15913e-05)
(-0.000156541 -0.000179123 -7.13325e-05)
(-0.000250698 -0.000329517 -3.58993e-05)
(-0.000301424 -0.00041307 7.56913e-06)
(-0.000359081 -0.00048235 5.05857e-05)
(-0.000410495 -0.000524396 8.93241e-05)
(-0.000457028 -0.000547988 0.000120899)
(-0.000495315 -0.000556197 0.000144463)
(-0.000529682 -0.000559303 0.00016304)
(-0.000559162 -0.000558897 0.000178269)
(-0.000586863 -0.000558934 0.00019178)
(-0.000609862 -0.000556715 0.000202098)
(-0.000628249 -0.000553378 0.00020884)
(-0.000640601 -0.000549352 0.000211611)
(-0.00064861 -0.000546747 0.00021122)
(-0.000654648 -0.000546106 0.000208584)
(-0.000660876 -0.000547797 0.000204342)
(-0.000668985 -0.000552565 0.000198887)
(-0.000676114 -0.000558301 0.000191622)
(-0.000669327 -0.000554375 0.0001799)
(-0.000681912 -0.000565457 0.00017218)
(-0.000683553 -0.000568618 0.000160414)
(-0.00065981 -0.000552506 0.000143141)
(-0.000690221 -0.000578627 0.000136493)
(-0.000672732 -0.000567391 0.00012005)
(-0.000682843 -0.000577579 0.00010792)
(-0.000682617 -0.000580043 9.36133e-05)
(-0.000681665 -0.000580855 7.85518e-05)
(-0.000677123 -0.000579042 6.25038e-05)
(-0.00067331 -0.000577548 4.58212e-05)
(-0.000670429 -0.000576484 2.83118e-05)
(-0.000669892 -0.00057675 9.6662e-06)
(-0.000112769 -6.97685e-05 -1.08124e-05)
(-0.000152819 -0.000153045 -6.91347e-05)
(-0.000256938 -0.000303039 -4.36509e-05)
(-0.000310303 -0.000389254 -3.33801e-06)
(-0.000369798 -0.000461352 3.84071e-05)
(-0.000423391 -0.00050717 7.71272e-05)
(-0.000473424 -0.000535896 0.000109349)
(-0.000515429 -0.000549326 0.000134184)
(-0.00055275 -0.000556366 0.000154253)
(-0.000586671 -0.000560692 0.00017163)
(-0.00061672 -0.000562469 0.000186474)
(-0.0006415 -0.000560986 0.00019768)
(-0.000659698 -0.000556486 0.000204584)
(-0.000673524 -0.000552149 0.000208102)
(-0.000683469 -0.000549148 0.000208613)
(-0.000691989 -0.000548985 0.000206962)
(-0.000700372 -0.000551471 0.000203515)
(-0.000708859 -0.000555869 0.000198263)
(-0.000714865 -0.00056043 0.000190896)
(-0.00070995 -0.000558225 0.000180066)
(-0.000723247 -0.00056939 0.000172569)
(-0.000724338 -0.000572331 0.000160913)
(-0.000703052 -0.000559427 0.000144637)
(-0.000732811 -0.00058388 0.000137624)
(-0.000716244 -0.000574342 0.000121535)
(-0.000726788 -0.000584545 0.000109358)
(-0.000729329 -0.000589389 9.53197e-05)
(-0.00072651 -0.000589042 7.98822e-05)
(-0.000722405 -0.000587918 6.36849e-05)
(-0.000718046 -0.000586369 4.67046e-05)
(-0.000714985 -0.000585541 2.88872e-05)
(-0.000714239 -0.0005858 9.86475e-06)
(-0.000118571 -5.99947e-05 2.70526e-06)
(-0.00016437 -0.000142657 -7.38356e-05)
(-0.000261283 -0.000275009 -5.07778e-05)
(-0.000315818 -0.000361614 -1.43526e-05)
(-0.000376349 -0.000435639 2.54582e-05)
(-0.00043283 -0.000486142 6.39417e-05)
(-0.000485153 -0.000518616 9.63954e-05)
(-0.000530113 -0.000536441 0.000122209)
(-0.000572054 -0.000548968 0.000144152)
(-0.000608253 -0.000555741 0.000162973)
(-0.000641382 -0.000559994 0.000179326)
(-0.000668545 -0.000559958 0.000191693)
(-0.000691069 -0.000558238 0.00020026)
(-0.000708303 -0.000555494 0.00020513)
(-0.00072116 -0.000553039 0.000206817)
(-0.000731265 -0.00055214 0.0002059)
(-0.000740674 -0.000553799 0.000202903)
(-0.000750146 -0.00055802 0.000198057)
(-0.000754804 -0.000561318 0.000190633)
(-0.000751632 -0.000560545 0.000180626)
(-0.000764016 -0.000570567 0.000173011)
(-0.000762797 -0.000572043 0.000161147)
(-0.000743507 -0.000561745 0.000145741)
(-0.000771529 -0.000583974 0.000138289)
(-0.0007559 -0.00057628 0.000122607)
(-0.00076641 -0.000586344 0.000110403)
(-0.000771697 -0.000593547 9.66745e-05)
(-0.000767338 -0.000592698 8.09882e-05)
(-0.00076479 -0.00059327 6.47919e-05)
(-0.000761382 -0.00059305 4.76421e-05)
(-0.000758722 -0.000592993 2.95246e-05)
(-0.000757929 -0.000593418 1.00868e-05)
(-0.000122381 -4.9171e-05 1.67355e-05)
(-0.000142854 -0.000105635 -6.32228e-05)
(-0.000257535 -0.000240653 -5.64299e-05)
(-0.000314494 -0.00032759 -2.48397e-05)
(-0.000376773 -0.000404376 1.19138e-05)
(-0.000435418 -0.000458875 4.9461e-05)
(-0.000491852 -0.000497141 8.22179e-05)
(-0.000541946 -0.000521386 0.000109366)
(-0.000586863 -0.000537445 0.000132708)
(-0.000627905 -0.00054869 0.000153546)
(-0.000664001 -0.00055506 0.000171344)
(-0.000694043 -0.0005568 0.000185077)
(-0.000717012 -0.00055471 0.000194308)
(-0.000735493 -0.000551994 0.000200004)
(-0.000750424 -0.000549896 0.000202692)
(-0.000763605 -0.00054976 0.000202978)
(-0.000775721 -0.0005518 0.000200999)
(-0.000785717 -0.000555359 0.000196642)
(-0.000790162 -0.000558064 0.00018961)
(-0.000788734 -0.000558494 0.000180467)
(-0.000801159 -0.000568198 0.000173079)
(-0.000800235 -0.000570367 0.000161666)
(-0.000784968 -0.000564064 0.000147474)
(-0.000811412 -0.000584553 0.000139664)
(-0.000796933 -0.000578812 0.000124336)
(-0.000806884 -0.000588458 0.000111986)
(-0.000813911 -0.000597149 9.8359e-05)
(-0.000807567 -0.000595706 8.23427e-05)
(-0.000804984 -0.000596751 6.59637e-05)
(-0.000800697 -0.000596517 4.85146e-05)
(-0.000797737 -0.000596652 3.00905e-05)
(-0.000796591 -0.000597001 1.02795e-05)
(-0.000127401 -3.88856e-05 3.15167e-05)
(-0.000160714 -9.91747e-05 -6.87181e-05)
(-0.000252735 -0.000207667 -6.17529e-05)
(-0.000308968 -0.000291406 -3.46775e-05)
(-0.000370881 -0.000368696 -1.81225e-06)
(-0.000432867 -0.000428488 3.42017e-05)
(-0.00049228 -0.000471397 6.68213e-05)
(-0.000545229 -0.000499711 9.4675e-05)
(-0.000595761 -0.000521491 0.000119767)
(-0.00063958 -0.000535052 0.000141945)
(-0.000679222 -0.000543877 0.000161222)
(-0.00071199 -0.000547233 0.00017628)
(-0.000740188 -0.000548509 0.000187542)
(-0.000763137 -0.000548235 0.000195054)
(-0.000781256 -0.000547361 0.000199143)
(-0.000795803 -0.000546994 0.000200266)
(-0.000808738 -0.000548498 0.000198946)
(-0.000820175 -0.000552232 0.000195423)
(-0.000824629 -0.000554504 0.000188921)
(-0.000824634 -0.00055579 0.000180606)
(-0.000835575 -0.000564225 0.000173209)
(-0.000832684 -0.000565556 0.000161854)
(-0.000820057 -0.00056196 0.000148582)
(-0.000843677 -0.000580057 0.000140308)
(-0.000830596 -0.000576179 0.000125395)
(-0.000839285 -0.000584885 0.000112895)
(-0.000847671 -0.000594505 9.93958e-05)
(-0.000840083 -0.000593083 8.32316e-05)
(-0.00083854 -0.000595261 6.68449e-05)
(-0.000835098 -0.00059623 4.92757e-05)
(-0.000832425 -0.000596962 3.06087e-05)
(-0.000831203 -0.000597453 1.0459e-05)
(-0.000132766 -2.78282e-05 4.78754e-05)
(-0.000136324 -6.87926e-05 -5.57482e-05)
(-0.000238022 -0.000169792 -6.38615e-05)
(-0.000294568 -0.000249935 -4.2439e-05)
(-0.000357495 -0.000328564 -1.50507e-05)
(-0.000420794 -0.00039168 1.82366e-05)
(-0.000484229 -0.00044039 5.0264e-05)
(-0.000543735 -0.000476029 7.90978e-05)
(-0.000597343 -0.000500913 0.00010524)
(-0.000646743 -0.000518772 0.000129176)
(-0.00069037 -0.000529983 0.000149944)
(-0.000727589 -0.000535955 0.000166734)
(-0.000757152 -0.000537506 0.000179113)
(-0.000781214 -0.000537288 0.000187698)
(-0.000800887 -0.000536693 0.000192922)
(-0.000818007 -0.00053722 0.000195359)
(-0.000833407 -0.00053957 0.000195286)
(-0.000845505 -0.000543159 0.000192564)
(-0.000850814 -0.000545732 0.000186945)
(-0.00085206 -0.000547751 0.000179521)
(-0.000862808 -0.00055589 0.000172536)
(-0.000861033 -0.000558394 0.000161919)
(-0.000852538 -0.000558136 0.00014979)
(-0.000874003 -0.000574484 0.000141209)
(-0.000862537 -0.000572415 0.000126693)
(-0.000869728 -0.000580103 0.000114015)
(-0.000878657 -0.000589954 0.000100527)
(-0.000869554 -0.000588461 8.41818e-05)
(-0.000867506 -0.000590649 6.76553e-05)
(-0.000863021 -0.000591482 4.98786e-05)
(-0.000859898 -0.000592284 3.1004e-05)
(-0.000858219 -0.000592664 1.05919e-05)
(-0.000139634 -1.63283e-05 6.67031e-05)
(-0.000139611 -5.601e-05 -5.37825e-05)
(-0.000223824 -0.000135793 -6.46978e-05)
(-0.000276067 -0.000208732 -4.81368e-05)
(-0.000335729 -0.000284224 -2.69584e-05)
(-0.000401686 -0.000351859 2.37561e-06)
(-0.000468307 -0.000405692 3.30287e-05)
(-0.000529952 -0.000444773 6.17687e-05)
(-0.000590367 -0.000475824 8.91511e-05)
(-0.000643534 -0.000496198 0.000114225)
(-0.00069176 -0.00050992 0.000136437)
(-0.000732168 -0.000517242 0.00015457)
(-0.000767601 -0.000522113 0.0001691)
(-0.000797095 -0.000524838 0.000179873)
(-0.000820606 -0.000526058 0.00018693)
(-0.000839164 -0.000526826 0.000190585)
(-0.000854895 -0.000528781 0.000191411)
(-0.000868551 -0.000532885 0.000189821)
(-0.000874487 -0.00053568 0.000185106)
(-0.000876611 -0.000538247 0.000178542)
(-0.000885788 -0.000545322 0.000171768)
(-0.00088234 -0.000547168 0.000161405)
(-0.000875814 -0.000548556 0.000150057)
(-0.000893813 -0.0005625 0.000141096)
(-0.000884017 -0.000562049 0.000127059)
(-0.000888858 -0.000568308 0.000114232)
(-0.000897859 -0.000577976 0.000100838)
(-0.000888014 -0.000576991 8.45229e-05)
(-0.000886472 -0.000579848 6.80624e-05)
(-0.000882717 -0.000581757 5.02936e-05)
(-0.000879706 -0.000583009 3.13057e-05)
(-0.000877909 -0.000583541 1.06965e-05)
(-0.000146832 -3.70408e-06 8.84439e-05)
(-0.000141174 -4.31868e-05 -5.03518e-05)
(-0.000199321 -0.000100215 -6.06948e-05)
(-0.000248035 -0.000164722 -4.98382e-05)
(-0.000306729 -0.000237607 -3.65096e-05)
(-0.000371074 -0.00030594 -1.25817e-05)
(-0.000440217 -0.000364466 1.54773e-05)
(-0.000509612 -0.000411806 4.38921e-05)
(-0.000572997 -0.000445863 7.14997e-05)
(-0.000632788 -0.000470866 9.78645e-05)
(-0.000686213 -0.000487142 0.000121521)
(-0.000732903 -0.000497362 0.0001416)
(-0.000770785 -0.000502628 0.000157514)
(-0.000801327 -0.000505243 0.000169555)
(-0.000826009 -0.000506686 0.00017799)
(-0.00084699 -0.000508527 0.00018328)
(-0.000865521 -0.00051179 0.000185764)
(-0.00087993 -0.000516015 0.000185304)
(-0.000886948 -0.00051939 0.000181734)
(-0.000889798 -0.000522478 0.000176126)
(-0.000898808 -0.000529447 0.00016999)
(-0.000896966 -0.000532613 0.000160577)
(-0.000893412 -0.000536106 0.000150208)
(-0.000908905 -0.000548459 0.000141089)
(-0.000900551 -0.000549286 0.000127469)
(-0.000903082 -0.000554346 0.000114532)
(-0.000911375 -0.000563312 0.000101165)
(-0.000900281 -0.000562574 8.48327e-05)
(-0.000897521 -0.00056503 6.83209e-05)
(-0.000892402 -0.000566677 5.04887e-05)
(-0.000888497 -0.000567746 3.14373e-05)
(-0.000886101 -0.000568149 1.07364e-05)
(-0.0001506 9.78507e-06 0.000110788)
(-0.000140337 -3.0598e-05 -4.55055e-05)
(-0.000177947 -7.1624e-05 -5.53227e-05)
(-0.000218471 -0.000124633 -4.84209e-05)
(-0.000267979 -0.000187866 -4.21079e-05)
(-0.000332427 -0.000257661 -2.54353e-05)
(-0.000403591 -0.00032048 -1.36078e-06)
(-0.000472956 -0.000370002 2.51547e-05)
(-0.000544278 -0.000411249 5.26349e-05)
(-0.000608669 -0.000439534 7.94286e-05)
(-0.000668152 -0.000459059 0.000104379)
(-0.000718755 -0.000470293 0.000125887)
(-0.000763193 -0.000478049 0.000143998)
(-0.000800181 -0.000483426 0.000158415)
(-0.000829581 -0.000487078 0.000169075)
(-0.000852494 -0.000489704 0.000176106)
(-0.000871128 -0.000492728 0.000179867)
(-0.000886942 -0.000497502 0.00018082)
(-0.000894574 -0.00050125 0.000178398)
(-0.000897958 -0.00050484 0.000173785)
(-0.000905299 -0.000510937 0.000168082)
(-0.000901421 -0.000513299 0.000159023)
(-0.000897959 -0.0005171 0.000149224)
(-0.000909387 -0.000527103 0.000139823)
(-0.00090209 -0.000528794 0.000126648)
(-0.000901584 -0.000532472 0.000113684)
(-0.000908766 -0.000540434 0.00010046)
(-0.000897027 -0.000540388 8.43281e-05)
(-0.000894141 -0.000543182 6.8015e-05)
(-0.000889387 -0.000545714 5.03714e-05)
(-0.000885376 -0.000547196 3.14058e-05)
(-0.000882779 -0.000547779 1.0725e-05)
(-0.000146352 2.24441e-05 0.000128552)
(-0.000137228 -1.86984e-05 -3.96298e-05)
(-0.000147826 -4.57063e-05 -4.55135e-05)
(-0.000180349 -8.5644e-05 -4.17978e-05)
(-0.000226043 -0.000140831 -4.32198e-05)
(-0.000282189 -0.000204916 -3.45075e-05)
(-0.000351775 -0.000269055 -1.62846e-05)
(-0.000429381 -0.000327374 7.10698e-06)
(-0.000502272 -0.000371204 3.30022e-05)
(-0.000574142 -0.000405212 5.98381e-05)
(-0.000639555 -0.000428156 8.56555e-05)
(-0.000698354 -0.000443339 0.000109196)
(-0.000746848 -0.000451721 0.00012914)
(-0.000785269 -0.000456282 0.000145128)
(-0.000815718 -0.000459395 0.000157395)
(-0.000840972 -0.000462659 0.000166268)
(-0.000862655 -0.000467145 0.000172014)
(-0.000878878 -0.000472012 0.000174347)
(-0.000887183 -0.000476269 0.000173241)
(-0.000890861 -0.000480314 0.000169718)
(-0.000897832 -0.000486379 0.000164838)
(-0.000895363 -0.000489942 0.000156858)
(-0.000893014 -0.000494731 0.000147857)
(-0.000901473 -0.000503598 0.000138424)
(-0.000894733 -0.00050586 0.000125631)
(-0.000891691 -0.000508766 0.000112756)
(-0.000896864 -0.000515655 9.96467e-05)
(-0.000883739 -0.000515852 8.36701e-05)
(-0.000878789 -0.000517944 6.74461e-05)
(-0.000872121 -0.000519994 4.99403e-05)
(-0.00086656 -0.00052104 3.11301e-05)
(-0.000863167 -0.000521452 1.06213e-05)
(-0.0001352 3.19212e-05 0.000137675)
(-0.000132248 -8.37032e-06 -3.35848e-05)
(-0.000115718 -2.63009e-05 -3.39151e-05)
(-0.000144532 -5.46683e-05 -3.24857e-05)
(-0.000173231 -9.32197e-05 -3.74415e-05)
(-0.000226024 -0.000152664 -3.84818e-05)
(-0.000293592 -0.000217309 -2.81129e-05)
(-0.000365758 -0.00027427 -9.55395e-06)
(-0.000447512 -0.000326516 1.35639e-05)
(-0.000523782 -0.000364459 3.9145e-05)
(-0.000596403 -0.000392233 6.53245e-05)
(-0.000659269 -0.000409307 8.9906e-05)
(-0.00071471 -0.000420719 0.000112054)
(-0.000760888 -0.000428211 0.000130825)
(-0.000797301 -0.000433449 0.000145746)
(-0.000825267 -0.000437251 0.000156757)
(-0.000846663 -0.000440985 0.00016398)
(-0.000863638 -0.000446059 0.000167866)
(-0.000871974 -0.000450492 0.000168044)
(-0.000875727 -0.000454902 0.000165635)
(-0.00088049 -0.000460154 0.000161325)
(-0.000874984 -0.000462588 0.000153709)
(-0.000870533 -0.000466776 0.000145077)
(-0.000874203 -0.000473816 0.000135454)
(-0.000867115 -0.000476117 0.000123022)
(-0.000860981 -0.000478052 0.000110348)
(-0.000863675 -0.000483802 9.75261e-05)
(-0.000849663 -0.000484395 8.19368e-05)
(-0.000843991 -0.000486626 6.61106e-05)
(-0.000837264 -0.000489219 4.90467e-05)
(-0.000831256 -0.000490537 3.06056e-05)
(-0.00082759 -0.000491097 1.04372e-05)
(-0.00011692 3.54017e-05 0.000131733)
(-0.000125897 -2.40631e-07 -2.79917e-05)
(-0.000111934 -1.79107e-05 -2.98392e-05)
(-9.64621e-05 -2.74276e-05 -1.87319e-05)
(-0.000127951 -5.65531e-05 -2.84488e-05)
(-0.000161215 -9.9901e-05 -3.54786e-05)
(-0.000219132 -0.00015822 -3.40034e-05)
(-0.000299122 -0.000223335 -2.3435e-05)
(-0.000378098 -0.000275732 -4.74683e-06)
(-0.000462278 -0.000320552 1.87071e-05)
(-0.000540493 -0.000352511 4.44175e-05)
(-0.000612594 -0.000375279 7.03415e-05)
(-0.000672742 -0.000388959 9.42424e-05)
(-0.000720384 -0.000396534 0.000114775)
(-0.000757566 -0.000401246 0.000131497)
(-0.000787615 -0.0004053 0.000144538)
(-0.000812145 -0.000410147 0.000153925)
(-0.000828839 -0.000414944 0.000159252)
(-0.000837105 -0.000419492 0.000160792)
(-0.000840588 -0.000424 0.00015951)
(-0.00084436 -0.000429186 0.000156101)
(-0.000839655 -0.000432674 0.000149635)
(-0.000834679 -0.000437302 0.000141731)
(-0.000834597 -0.000443381 0.000132095)
(-0.000826895 -0.000445648 0.000119964)
(-0.000818554 -0.000447199 0.000107673)
(-0.000817633 -0.000451437 9.50741e-05)
(-0.000801935 -0.0004519 7.98227e-05)
(-0.000793282 -0.000453105 6.429e-05)
(-0.000783847 -0.000454594 4.76356e-05)
(-0.000775667 -0.000455096 2.96911e-05)
(-0.000770886 -0.000455229 1.0106e-05)
(-9.97639e-05 3.39077e-05 0.000116242)
(-0.000119156 5.41434e-06 -2.32403e-05)
(-0.000107364 -1.18442e-05 -2.48714e-05)
(-7.50018e-05 -1.50131e-05 -1.00215e-05)
(-6.07314e-05 -1.98979e-05 -1.16161e-05)
(-9.90496e-05 -5.46235e-05 -2.63125e-05)
(-0.000147845 -0.000105117 -3.45822e-05)
(-0.000209453 -0.00015919 -3.15595e-05)
(-0.000298036 -0.000221064 -2.02412e-05)
(-0.000384557 -0.000269281 -5.74114e-07)
(-0.000470762 -0.000307784 2.39651e-05)
(-0.000545855 -0.000333203 5.00005e-05)
(-0.000612087 -0.000351015 7.53764e-05)
(-0.000667272 -0.000363046 9.83106e-05)
(-0.000710965 -0.000371099 0.0001177)
(-0.000744018 -0.000376441 0.000132948)
(-0.000767277 -0.000380438 0.000143728)
(-0.000783812 -0.000385156 0.000150568)
(-0.000791308 -0.000389502 0.00015335)
(-0.000794108 -0.000393919 0.00015312)
(-0.00079464 -0.000398105 0.000150229)
(-0.000785515 -0.000400075 0.000144038)
(-0.000776593 -0.000403362 0.000136376)
(-0.000770796 -0.000407556 0.000126475)
(-0.000760989 -0.000408865 0.000114517)
(-0.000749814 -0.000409356 0.000102756)
(-0.000744726 -0.000411892 9.05894e-05)
(-0.000727829 -0.000412019 7.59665e-05)
(-0.000718091 -0.00041306 6.11882e-05)
(-0.000708476 -0.000414594 4.54059e-05)
(-0.000699619 -0.000414973 2.83116e-05)
(-0.000694707 -0.000415132 9.62419e-06)
(-8.56903e-05 2.94406e-05 9.51832e-05)
(-0.000113415 8.4659e-06 -1.99785e-05)
(-0.000101916 -8.16136e-06 -1.96012e-05)
(-6.53842e-05 -8.84126e-06 -3.14663e-06)
(-4.24382e-05 -8.50671e-06 -3.69331e-06)
(-3.5301e-05 -1.61239e-05 -9.59001e-06)
(-6.16541e-05 -4.46076e-05 -2.19334e-05)
(-0.000131924 -0.00010559 -3.55828e-05)
(-0.000206262 -0.000159803 -3.12519e-05)
(-0.000300451 -0.000215996 -1.66111e-05)
(-0.000389451 -0.000258287 5.8613e-06)
(-0.000473487 -0.000291008 3.19432e-05)
(-0.000543069 -0.000312223 5.80351e-05)
(-0.000597881 -0.00032531 8.17731e-05)
(-0.000640258 -0.000333611 0.000102042)
(-0.000673478 -0.000339769 0.000118555)
(-0.000699232 -0.000345555 0.000131157)
(-0.000714418 -0.000350115 0.000139148)
(-0.000720781 -0.000354274 0.000143018)
(-0.000722201 -0.000358272 0.000143672)
(-0.000720921 -0.000362156 0.000141596)
(-0.00071226 -0.000364905 0.000136632)
(-0.000701783 -0.000368012 0.000129687)
(-0.000691807 -0.000371112 0.000119711)
(-0.000680914 -0.000371809 0.000108015)
(-0.00066858 -0.000371707 9.70919e-05)
(-0.000658626 -0.000372216 8.53322e-05)
(-0.00064021 -0.000371431 7.13301e-05)
(-0.000626981 -0.000370701 5.72098e-05)
(-0.000613929 -0.000370102 4.22811e-05)
(-0.000602582 -0.000369058 2.62806e-05)
(-0.000596273 -0.000368326 8.89671e-06)
(-7.47576e-05 2.36944e-05 7.26553e-05)
(-0.000108932 9.25976e-06 -1.82217e-05)
(-9.55609e-05 -6.04646e-06 -1.43967e-05)
(-5.58863e-05 -4.78662e-06 3.554e-06)
(-2.77657e-05 -1.40931e-06 4.63366e-06)
(-1.22721e-05 -3.57919e-06 -3.77493e-07)
(-1.10486e-05 -1.10369e-05 -9.14779e-06)
(-2.75379e-05 -2.65179e-05 -1.64528e-05)
(-0.000116431 -9.74879e-05 -3.57817e-05)
(-0.000204148 -0.000153609 -2.66039e-05)
(-0.000300305 -0.000204551 -7.09195e-06)
(-0.00038271 -0.000239617 1.73964e-05)
(-0.000455461 -0.000265867 4.28495e-05)
(-0.00051569 -0.000284531 6.688e-05)
(-0.000563419 -0.00029752 8.81395e-05)
(-0.00059878 -0.000306141 0.000105686)
(-0.000621098 -0.000311324 0.000118661)
(-0.00063476 -0.000316051 0.000127511)
(-0.000639395 -0.000319945 0.000132144)
(-0.00063907 -0.000323457 0.000133459)
(-0.000633539 -0.000325814 0.000131601)
(-0.000619094 -0.000325996 0.000126607)
(-0.000603392 -0.000326821 0.000119716)
(-0.000587498 -0.000327579 0.000109344)
(-0.000573307 -0.000326049 9.76505e-05)
(-0.00055815 -0.000323786 8.7624e-05)
(-0.000543249 -0.000321888 7.65918e-05)
(-0.000523573 -0.000319627 6.36131e-05)
(-0.000509672 -0.000318225 5.09131e-05)
(-0.000497153 -0.000317369 3.76351e-05)
(-0.000485605 -0.000315878 2.3363e-05)
(-0.000479589 -0.000315073 7.8852e-06)
(-6.24606e-05 1.85913e-05 5.16742e-05)
(-0.000109464 1.0625e-05 -1.78703e-05)
(-9.04221e-05 -3.16735e-06 -1.12332e-05)
(-4.92472e-05 2.31332e-07 8.3387e-06)
(-1.61185e-05 7.78007e-06 1.00207e-05)
(8.62161e-06 1.03794e-05 3.85502e-06)
(1.56517e-05 9.26835e-06 -3.64108e-06)
(3.10742e-06 -1.94566e-06 -1.45514e-05)
(-2.5403e-05 -2.32739e-05 -1.78567e-05)
(-0.000120632 -9.43813e-05 -2.69763e-05)
(-0.000206852 -0.000145991 -1.07725e-05)
(-0.000293688 -0.000189837 1.07107e-05)
(-0.000364085 -0.00021945 3.32816e-05)
(-0.000419381 -0.000239163 5.45598e-05)
(-0.000461802 -0.000252234 7.35295e-05)
(-0.000493833 -0.000261412 8.97934e-05)
(-0.000517487 -0.000269027 0.000103035)
(-0.000528588 -0.000273738 0.000111856)
(-0.000530835 -0.000277135 0.000116637)
(-0.000527628 -0.000279529 0.000118063)
(-0.000519882 -0.00028107 0.000116651)
(-0.000506569 -0.000281828 0.000112936)
(-0.000489384 -0.000282012 0.00010677)
(-0.000470175 -0.000281328 9.63587e-05)
(-0.000456189 -0.000279006 8.52277e-05)
(-0.000441699 -0.000275971 7.67331e-05)
(-0.000422713 -0.000271699 6.65176e-05)
(-0.000402642 -0.000267964 5.46711e-05)
(-0.000385721 -0.00026391 4.32729e-05)
(-0.000369379 -0.00025953 3.15603e-05)
(-0.000355703 -0.000255863 1.94029e-05)
(-0.000348352 -0.000253648 6.4828e-06)
(-5.42809e-05 1.72219e-05 4.18189e-05)
(-9.97236e-05 1.16958e-05 -1.5584e-05)
(-8.67591e-05 -1.81759e-07 -1.04645e-05)
(-4.63548e-05 4.62733e-06 7.95033e-06)
(-9.04025e-06 1.00498e-05 4.19627e-06)
(1.60927e-05 1.15915e-05 1.724e-06)
(1.91002e-05 1.32348e-05 5.3351e-06)
(1.12494e-05 1.22688e-05 7.6303e-07)
(-7.06778e-06 -3.0648e-06 -7.17314e-06)
(-3.63971e-05 -2.76015e-05 -6.91345e-06)
(-0.000120669 -8.90853e-05 -9.76936e-07)
(-0.000189978 -0.00013076 1.38054e-05)
(-0.000256552 -0.000165088 2.99888e-05)
(-0.000313458 -0.000190739 4.62855e-05)
(-0.000359392 -0.000209225 6.21333e-05)
(-0.0003928 -0.000221628 7.65451e-05)
(-0.000410418 -0.000227911 8.77035e-05)
(-0.000418757 -0.000232512 9.57555e-05)
(-0.000418702 -0.000235395 0.000100157)
(-0.000413356 -0.000236922 0.000101421)
(-0.000401472 -0.000236248 9.96027e-05)
(-0.000381503 -0.000232813 9.50933e-05)
(-0.000358352 -0.000229072 8.84326e-05)
(-0.000334841 -0.000225255 7.77052e-05)
(-0.00031783 -0.000219312 6.67688e-05)
(-0.000300136 -0.000212201 5.94353e-05)
(-0.00027774 -0.000204656 5.04578e-05)
(-0.000257002 -0.000198161 4.03397e-05)
(-0.000241294 -0.000193141 3.156e-05)
(-0.000228408 -0.000189226 2.28774e-05)
(-0.000216048 -0.000185104 1.39075e-05)
(-0.000209971 -0.000182948 4.60419e-06)
(-4.49474e-05 1.47352e-05 3.34325e-05)
(-9.15599e-05 1.17285e-05 -1.35188e-05)
(-8.16988e-05 1.41059e-06 -8.50987e-06)
(-3.86007e-05 3.13608e-06 7.55783e-06)
(4.44412e-06 6.03801e-06 8.36714e-06)
(1.37334e-05 9.16102e-06 1.34831e-05)
(1.95148e-05 1.11417e-05 2.01286e-05)
(1.50562e-05 7.84302e-06 2.10311e-05)
(5.76142e-06 1.50996e-06 1.95985e-05)
(-9.16705e-06 -1.03813e-05 1.47705e-05)
(-4.401e-05 -4.03773e-05 2.04532e-05)
(-0.000101398 -8.30506e-05 2.78502e-05)
(-0.00015419 -0.000115545 3.41081e-05)
(-0.000199203 -0.000138701 4.0962e-05)
(-0.000235017 -0.000154571 4.91114e-05)
(-0.000260899 -0.000165182 5.79382e-05)
(-0.00027989 -0.000174052 6.68323e-05)
(-0.000285501 -0.000178177 7.27856e-05)
(-0.000282476 -0.000179662 7.56687e-05)
(-0.000273398 -0.000178711 7.56571e-05)
(-0.00025988 -0.000176177 7.34879e-05)
(-0.000243435 -0.000173372 7.02214e-05)
(-0.00022222 -0.000169237 6.45161e-05)
(-0.000198795 -0.000163758 5.43997e-05)
(-0.000185667 -0.000157797 4.54548e-05)
(-0.000172502 -0.000150874 4.06986e-05)
(-0.000150517 -0.000141477 3.32762e-05)
(-0.000132257 -0.00013376 2.52939e-05)
(-0.000115922 -0.000125302 1.87015e-05)
(-9.93245e-05 -0.000115265 1.23702e-05)
(-8.65051e-05 -0.000108028 7.04523e-06)
(-7.98748e-05 -0.000103683 2.20573e-06)
(-3.5772e-05 1.26594e-05 2.56531e-05)
(-8.30271e-05 1.14286e-05 -1.26347e-05)
(-7.85426e-05 4.23292e-06 -7.42655e-06)
(-3.81483e-05 5.84303e-06 1.01895e-05)
(-8.2505e-06 1.23609e-05 1.53376e-05)
(4.26031e-06 1.44853e-05 1.91721e-05)
(1.6402e-05 1.55755e-05 2.46985e-05)
(2.8323e-05 1.36224e-05 3.36388e-05)
(2.94486e-05 5.81468e-06 3.55749e-05)
(2.43801e-05 -2.85337e-06 3.7626e-05)
(9.30885e-06 -1.17119e-05 2.9706e-05)
(-7.08643e-06 -2.26955e-05 2.43804e-05)
(-3.97328e-05 -5.34432e-05 3.18027e-05)
(-8.35935e-05 -8.34447e-05 3.47931e-05)
(-0.000124287 -0.000105484 3.80676e-05)
(-0.000153475 -0.000120045 4.28091e-05)
(-0.000164873 -0.000124825 4.6442e-05)
(-0.00016749 -0.000127439 4.95036e-05)
(-0.000163063 -0.00012777 5.0628e-05)
(-0.00015391 -0.000125867 4.97812e-05)
(-0.000139327 -0.000120828 4.6662e-05)
(-0.000117723 -0.000111107 4.08459e-05)
(-9.07832e-05 -9.83646e-05 3.25017e-05)
(-6.76464e-05 -8.8587e-05 2.31876e-05)
(-5.46685e-05 -7.69283e-05 1.62429e-05)
(-3.9881e-05 -6.06734e-05 1.18441e-05)
(-2.2e-05 -4.47496e-05 6.36931e-06)
(-9.32867e-06 -2.85279e-05 2.16398e-06)
(-2.77663e-06 -1.88316e-05 4.27869e-07)
(1.48875e-06 -1.96856e-05 -4.10941e-07)
(5.73622e-06 -1.62143e-05 -6.74346e-07)
(7.54769e-06 -1.39208e-05 -2.9725e-07)
(-1.94396e-05 1.29275e-05 2.22627e-05)
(-6.65067e-05 1.27632e-05 -1.36013e-05)
(-7.67347e-05 9.09474e-06 -1.34658e-05)
(-5.19857e-05 1.22791e-05 2.67618e-06)
(-3.47419e-05 2.67109e-05 1.423e-05)
(-2.03727e-05 4.17529e-05 1.49323e-05)
(-1.89272e-06 4.5012e-05 1.31245e-05)
(1.84439e-05 3.38857e-05 1.42273e-05)
(2.73167e-05 2.038e-05 1.55527e-05)
(3.49116e-05 1.32472e-05 2.16589e-05)
(3.62889e-05 6.02556e-06 2.61175e-05)
(3.49703e-05 -1.26979e-06 2.95003e-05)
(2.39132e-05 -1.18087e-05 2.58387e-05)
(5.20855e-06 -1.97584e-05 1.61296e-05)
(-8.99529e-06 -2.48794e-05 1.09588e-05)
(-1.87947e-05 -2.81619e-05 9.1188e-06)
(-3.65165e-05 -4.60139e-05 1.31441e-05)
(-4.00858e-05 -4.96876e-05 1.38141e-05)
(-3.51831e-05 -4.67921e-05 1.23042e-05)
(-2.4767e-05 -3.7572e-05 8.81112e-06)
(-1.1914e-05 -2.30257e-05 3.98737e-06)
(-5.44718e-06 -1.92541e-05 1.13982e-06)
(2.50406e-06 -1.79805e-05 -2.45817e-06)
(8.65336e-06 -9.16517e-06 -4.62848e-06)
(1.08219e-05 -6.42918e-06 -5.28014e-06)
(1.15578e-05 -2.89569e-06 -4.65358e-06)