/*--------------------------------*- C++ -*----------------------------------*\
  =========                 |
  \\      /  F ield         | OpenFOAM: The Open Source CFD Toolbox
   \\    /   O peration     | Website:  https://openfoam.org
    \\  /    A nd           | Version:  6
     \\/     M anipulation  |
\*---------------------------------------------------------------------------*/
FoamFile
{
    version     2.0;
    format      ascii;
    class       volScalarField;
    location    "17";
    object      p;
}
// * * * * * * * * * * * * * * * * * * * * * * * * * * * * * * * * * * * * * //

dimensions      [0 2 -2 0 0 0 0];

internalField   nonuniform List<scalar> 
380496
(
0.0121725
0.0125244
0.0122821
0.0122106
0.012159
0.0121039
0.0120514
0.0119976
0.0119422
0.0118857
0.0118281
0.0117698
0.0117109
0.0116514
0.0115914
0.0115307
0.0114692
0.0114066
0.0113425
0.0112765
0.0112082
0.011137
0.0110622
0.0109833
0.0108995
0.0108102
0.0107146
0.010612
0.0105019
0.0103834
0.010257
0.0101204
0.00997928
0.0098232
0.00968055
0.0121452
0.0124881
0.0122567
0.0121905
0.0121425
0.0120895
0.0120377
0.0119833
0.0119263
0.0118673
0.0118065
0.0117441
0.0116803
0.0116154
0.0115493
0.0114819
0.011413
0.0113424
0.0112699
0.0111948
0.0111169
0.0110356
0.0109505
0.0108608
0.0107661
0.0106656
0.0105589
0.0104452
0.0103244
0.0101948
0.0100582
0.00990891
0.00975748
0.00957735
0.00942344
0.0121143
0.0124507
0.0122297
0.0121693
0.0121252
0.0120745
0.0120231
0.0119678
0.0119088
0.0118467
0.0117819
0.0117148
0.0116457
0.0115745
0.0115016
0.0114266
0.0113495
0.01127
0.0111878
0.0111024
0.0110136
0.0109207
0.0108235
0.0107211
0.0106132
0.0104992
0.0103788
0.010251
0.0101162
0.00997267
0.0098228
0.00966062
0.00949908
0.00930894
0.00915374
0.0120763
0.0124098
0.0122013
0.0121484
0.0121092
0.0120614
0.012011
0.0119552
0.0118945
0.0118298
0.0117616
0.0116903
0.0116163
0.0115397
0.0114608
0.0113792
0.011295
0.0112078
0.0111174
0.0110235
0.0109256
0.0108233
0.0107163
0.010604
0.0104861
0.0103618
0.0102313
0.0100934
0.00994888
0.0097956
0.00963681
0.00946486
0.00929541
0.00909329
0.00893219
0.0120413
0.0123657
0.0121727
0.0121281
0.012094
0.0120492
0.0119997
0.0119433
0.0118808
0.0118132
0.0117413
0.0116656
0.0115866
0.0115045
0.0114193
0.011331
0.0112396
0.0111446
0.011046
0.0109433
0.0108363
0.0107245
0.0106077
0.0104852
0.010357
0.0102224
0.0100814
0.00993326
0.00977867
0.00961558
0.00944765
0.00926685
0.00909045
0.00888064
0.008718
0.0119944
0.0123183
0.0121428
0.0121081
0.0120804
0.0120391
0.0119908
0.0119339
0.0118696
0.0117993
0.011724
0.0116442
0.0115606
0.0114733
0.0113825
0.0112881
0.0111902
0.0110882
0.0109823
0.0108719
0.010757
0.0106369
0.0105117
0.0103807
0.0102439
0.0101007
0.00995141
0.00979505
0.00963262
0.00946197
0.00928714
0.00909942
0.00891763
0.00870072
0.00853582
0.0119461
0.0122675
0.0121127
0.0120893
0.0120685
0.012031
0.0119838
0.0119263
0.0118601
0.0117871
0.0117083
0.0116244
0.0115362
0.0114438
0.0113476
0.0112473
0.011143
0.0110344
0.0109214
0.0108037
0.0106812
0.0105533
0.0104201
0.0102811
0.0101362
0.00998508
0.00982793
0.00966395
0.00949425
0.00931667
0.00913557
0.00894184
0.00875558
0.00853323
0.00836782
0.0118898
0.0122137
0.0120831
0.0120724
0.0120592
0.0120255
0.0119794
0.0119212
0.0118532
0.0117774
0.0116952
0.0116075
0.011515
0.0114179
0.0113165
0.0112108
0.0111008
0.0109861
0.0108669
0.0107427
0.0106134
0.0104787
0.0103386
0.0101926
0.0100409
0.00988306
0.00971939
0.00954917
0.00937361
0.0091905
0.00900456
0.00880609
0.00861657
0.00838966
0.00822425
0.0118258
0.0121585
0.0120544
0.0120579
0.0120529
0.0120231
0.011978
0.011919
0.0118491
0.0117707
0.0116853
0.011594
0.0114975
0.0113962
0.0112903
0.0111798
0.0110647
0.0109448
0.0108201
0.0106902
0.0105552
0.0104147
0.0102687
0.0101168
0.00995938
0.00979587
0.0096268
0.00945143
0.00927109
0.00908352
0.00889369
0.0086915
0.00849951
0.00826907
0.00810407
0.0117639
0.0121086
0.0120311
0.012048
0.0120504
0.0120235
0.0119789
0.011919
0.0118472
0.0117663
0.0116781
0.0115836
0.0114838
0.0113788
0.0112691
0.0111546
0.0110353
0.010911
0.0107818
0.0106473
0.0105076
0.0103623
0.0102116
0.0100551
0.00989309
0.00972518
0.00955192
0.00937262
0.00918868
0.0089978
0.00880518
0.00860028
0.00840668
0.00817353
0.00800928
0.0116864
0.0120562
0.0120075
0.0120398
0.0120503
0.0120265
0.0119823
0.0119213
0.0118476
0.0117642
0.0116732
0.0115758
0.0114728
0.0113645
0.0112513
0.0111332
0.0110101
0.010882
0.0107488
0.0106103
0.0104665
0.0103171
0.0101623
0.0100018
0.00983588
0.00966424
0.00948749
0.00930492
0.00911805
0.0089245
0.00872968
0.00852267
0.00832792
0.00809265
0.00792939
0.0116109
0.0120094
0.0119891
0.0120363
0.0120538
0.0120319
0.0119875
0.0119252
0.0118493
0.0117636
0.01167
0.0115698
0.011464
0.0113528
0.0112365
0.0111153
0.010989
0.0108575
0.0107209
0.010579
0.0104317
0.0102788
0.0101206
0.00995678
0.00978768
0.00961301
0.00943343
0.00924828
0.00905913
0.00886355
0.00866713
0.00845859
0.00826316
0.00802627
0.00786415
0.0115145
0.0119626
0.0119716
0.0120354
0.0120602
0.01204
0.0119952
0.0119312
0.0118531
0.011765
0.0116688
0.0115661
0.0114576
0.0113438
0.0112248
0.0111007
0.0109716
0.0108372
0.0106977
0.0105528
0.0104025
0.0102467
0.0100856
0.00991899
0.00974722
0.00957006
0.00938818
0.00920097
0.00901003
0.00881292
0.00861536
0.00840576
0.00821002
0.00797203
0.00781115
0.0114185
0.0119234
0.0119588
0.0120384
0.0120691
0.0120495
0.0120037
0.0119378
0.0118576
0.0117671
0.0116687
0.0115637
0.0114528
0.0113367
0.0112153
0.0110889
0.0109574
0.0108206
0.0106786
0.0105312
0.0103785
0.0102202
0.0100568
0.00988788
0.00971395
0.00953479
0.00935111
0.00916231
0.00897005
0.00877187
0.00857357
0.00836337
0.00816756
0.00792891
0.00776914
0.0113024
0.0118897
0.0119495
0.0120462
0.0120821
0.0120622
0.0120148
0.0119466
0.0118639
0.0117711
0.0116704
0.0115631
0.0114502
0.0113319
0.0112085
0.01108
0.0109464
0.0108075
0.0106634
0.010514
0.0103592
0.010199
0.0100335
0.0098628
0.00968713
0.00950639
0.00932128
0.00913129
0.00893808
0.0087392
0.00854051
0.00833014
0.00813455
0.00789602
0.00773745
0.0111791
0.0118646
0.0119422
0.0120553
0.0120951
0.0120744
0.0120252
0.0119548
0.0118699
0.0117749
0.0116722
0.0115632
0.0114484
0.0113284
0.0112033
0.0110731
0.0109378
0.0107973
0.0106515
0.0105004
0.010344
0.0101822
0.0100152
0.00984304
0.00966602
0.00948407
0.00929791
0.00910706
0.0089132
0.00871395
0.00851511
0.00830495
0.00810954
0.00787153
0.00771304
0.0110455
0.0118521
0.0119429
0.0120723
0.0121135
0.0120903
0.0120384
0.0119652
0.0118777
0.0117805
0.0116759
0.011565
0.0114486
0.011327
0.0112004
0.0110688
0.010932
0.0107901
0.010643
0.0104906
0.0103328
0.0101698
0.0100016
0.00982835
0.00965031
0.00946747
0.00928053
0.00908911
0.00889486
0.00869552
0.00849679
0.00828732
0.00809239
0.0078566
0.00769833
0.0108942
0.011847
0.0119398
0.0120859
0.0121284
0.0121032
0.012049
0.0119734
0.0118838
0.0117849
0.0116787
0.0115664
0.0114488
0.0113261
0.0111984
0.0110657
0.010928
0.0107851
0.010637
0.0104836
0.0103249
0.010161
0.00999201
0.00981794
0.00963917
0.00945572
0.00926825
0.0090765
0.00888202
0.00868281
0.00848421
0.00827575
0.00808061
0.0078472
0.00768404
0.0107482
0.0118626
0.0119503
0.0121091
0.0121487
0.0121197
0.0120622
0.0119837
0.0118919
0.0117911
0.0116834
0.0115698
0.0114511
0.0113274
0.0111988
0.0110652
0.0109267
0.010783
0.0106342
0.0104802
0.0103209
0.0101563
0.0099867
0.00981208
0.00963285
0.00944902
0.00926125
0.00906933
0.0088748
0.00867585
0.00847768
0.00827058
0.00807648
0.00784876
0.007683
0.0105938
0.0118703
0.0119498
0.012125
0.0121628
0.0121313
0.0120715
0.0119911
0.0118978
0.0117959
0.0116873
0.0115729
0.0114536
0.0113293
0.0112002
0.0110661
0.0109271
0.010783
0.0106338
0.0104792
0.0103196
0.0101546
0.00998473
0.00980979
0.00963029
0.00944624
0.00925828
0.00906632
0.00887174
0.00867314
0.0084751
0.00826964
0.0080747
0.00785276
0.00767309
0.0105166
0.0118953
0.0119614
0.0121452
0.0121794
0.0121454
0.0120833
0.0120009
0.0119062
0.011803
0.0116935
0.0115783
0.0114583
0.0113334
0.0112039
0.0110694
0.0109301
0.0107856
0.0106362
0.0104814
0.0103216
0.0101565
0.00998646
0.00981143
0.00963189
0.00944779
0.00925989
0.00906794
0.00887356
0.00867512
0.00847774
0.00827308
0.00808243
0.00786505
0.00771991
0.0121718
0.012523
0.012282
0.0122107
0.0121591
0.0121039
0.0120514
0.0119976
0.0119421
0.0118856
0.0118281
0.0117698
0.0117109
0.0116514
0.0115914
0.0115307
0.0114692
0.0114066
0.0113425
0.0112765
0.0112082
0.011137
0.0110622
0.0109833
0.0108995
0.0108102
0.0107146
0.0106121
0.010502
0.0103835
0.0102571
0.0101206
0.00997951
0.00982343
0.0096809
0.0121443
0.0124867
0.0122566
0.0121905
0.0121425
0.0120895
0.0120377
0.0119833
0.0119263
0.0118673
0.0118064
0.0117441
0.0116803
0.0116154
0.0115493
0.0114819
0.011413
0.0113425
0.0112699
0.0111948
0.011117
0.0110357
0.0109505
0.0108608
0.0107661
0.0106656
0.010559
0.0104453
0.0103245
0.0101949
0.0100583
0.00990913
0.00975769
0.00957766
0.00942376
0.0121134
0.0124493
0.0122296
0.0121694
0.0121252
0.0120745
0.0120231
0.0119678
0.0119088
0.0118467
0.0117819
0.0117148
0.0116457
0.0115745
0.0115016
0.0114266
0.0113495
0.01127
0.0111878
0.0111024
0.0110137
0.0109208
0.0108235
0.0107211
0.0106133
0.0104993
0.0103788
0.0102511
0.0101163
0.00997279
0.00982296
0.0096608
0.00949929
0.00930919
0.00915407
0.0120754
0.0124084
0.0122012
0.0121484
0.0121092
0.0120614
0.012011
0.0119552
0.0118945
0.0118298
0.0117616
0.0116903
0.0116163
0.0115397
0.0114608
0.0113792
0.011295
0.0112078
0.0111175
0.0110235
0.0109257
0.0108234
0.0107164
0.010604
0.0104861
0.0103619
0.0102313
0.0100935
0.00994898
0.00979574
0.00963695
0.00946505
0.00929559
0.00909357
0.00893246
0.0120402
0.0123644
0.0121726
0.0121281
0.0120941
0.0120492
0.0119997
0.0119433
0.0118807
0.0118132
0.0117413
0.0116656
0.0115866
0.0115045
0.0114193
0.011331
0.0112396
0.0111446
0.011046
0.0109433
0.0108364
0.0107245
0.0106077
0.0104853
0.0103571
0.0102224
0.0100815
0.00993335
0.00977877
0.00961571
0.00944778
0.00926702
0.00909062
0.00888087
0.00871825
0.0119934
0.0123169
0.0121427
0.0121081
0.0120804
0.0120391
0.0119908
0.0119339
0.0118696
0.0117993
0.011724
0.0116442
0.0115606
0.0114733
0.0113825
0.0112881
0.0111902
0.0110883
0.0109823
0.010872
0.010757
0.010637
0.0105117
0.0103807
0.010244
0.0101008
0.00995149
0.00979514
0.00963272
0.00946209
0.00928726
0.00909958
0.00891778
0.00870094
0.00853604
0.0119451
0.0122662
0.0121126
0.0120893
0.0120685
0.012031
0.0119838
0.0119263
0.0118601
0.0117871
0.0117083
0.0116244
0.0115362
0.0114439
0.0113476
0.0112473
0.011143
0.0110344
0.0109214
0.0108037
0.0106812
0.0105533
0.0104202
0.0102811
0.0101363
0.00998515
0.009828
0.00966403
0.00949433
0.00931677
0.00913567
0.00894198
0.00875571
0.00853342
0.00836802
0.0118886
0.0122125
0.012083
0.0120724
0.0120592
0.0120255
0.0119794
0.0119212
0.0118532
0.0117774
0.0116952
0.0116075
0.011515
0.0114179
0.0113165
0.0112108
0.0111008
0.0109862
0.0108669
0.0107427
0.0106134
0.0104787
0.0103386
0.0101927
0.010041
0.00988312
0.00971945
0.00954924
0.00937369
0.0091906
0.00900465
0.00880622
0.00861668
0.00838984
0.00822442
0.0118247
0.0121573
0.0120544
0.0120579
0.0120529
0.0120231
0.0119779
0.011919
0.0118491
0.0117707
0.0116853
0.011594
0.0114975
0.0113962
0.0112903
0.0111798
0.0110647
0.0109448
0.0108201
0.0106903
0.0105552
0.0104147
0.0102687
0.0101169
0.00995942
0.00979592
0.00962686
0.00945149
0.00927116
0.0090836
0.00889377
0.00869161
0.00849961
0.00826922
0.00810421
0.0117627
0.0121074
0.012031
0.012048
0.0120504
0.0120235
0.0119789
0.011919
0.0118472
0.0117663
0.0116781
0.0115836
0.0114838
0.0113788
0.0112691
0.0111546
0.0110353
0.0109111
0.0107818
0.0106474
0.0105076
0.0103624
0.0102116
0.0100551
0.00989313
0.00972522
0.00955197
0.00937267
0.00918874
0.00899787
0.00880525
0.00860038
0.00840676
0.00817366
0.0080094
0.0116853
0.0120551
0.0120075
0.0120398
0.0120503
0.0120265
0.0119823
0.0119213
0.0118476
0.0117642
0.0116732
0.0115758
0.0114728
0.0113645
0.0112513
0.0111332
0.0110102
0.010882
0.0107488
0.0106103
0.0104665
0.0103171
0.0101623
0.0100018
0.00983591
0.00966429
0.00948753
0.00930498
0.00911811
0.00892457
0.00872975
0.00852276
0.00832799
0.00809277
0.00792949
0.0116097
0.0120083
0.0119891
0.0120363
0.0120538
0.0120319
0.0119875
0.0119251
0.0118493
0.0117636
0.01167
0.0115698
0.011464
0.0113528
0.0112366
0.0111153
0.010989
0.0108576
0.010721
0.010579
0.0104317
0.0102789
0.0101206
0.0099568
0.00978771
0.00961305
0.00943347
0.00924833
0.00905917
0.00886361
0.00866719
0.00845866
0.00826322
0.00802637
0.00786424
0.0115134
0.0119616
0.0119715
0.0120354
0.0120603
0.01204
0.0119952
0.0119312
0.0118531
0.011765
0.0116688
0.0115661
0.0114576
0.0113438
0.0112248
0.0111007
0.0109716
0.0108373
0.0106977
0.0105528
0.0104025
0.0102467
0.0100856
0.00991901
0.00974725
0.00957009
0.00938821
0.00920101
0.00901007
0.00881297
0.00861541
0.00840583
0.00821007
0.00797212
0.00781123
0.0114173
0.0119226
0.0119587
0.0120384
0.0120691
0.0120495
0.0120037
0.0119378
0.0118576
0.0117671
0.0116687
0.0115637
0.0114528
0.0113367
0.0112154
0.0110889
0.0109574
0.0108206
0.0106786
0.0105312
0.0103785
0.0102203
0.0100568
0.0098879
0.00971398
0.00953482
0.00935114
0.00916235
0.00897009
0.00877191
0.00857361
0.00836342
0.0081676
0.007929
0.00776921
0.0113014
0.0118889
0.0119494
0.0120462
0.0120821
0.0120622
0.0120148
0.0119466
0.0118639
0.0117711
0.0116704
0.0115631
0.0114502
0.0113319
0.0112085
0.01108
0.0109464
0.0108075
0.0106634
0.010514
0.0103592
0.010199
0.0100336
0.00986282
0.00968715
0.00950641
0.00932131
0.00913133
0.00893811
0.00873924
0.00854055
0.0083302
0.00813459
0.00789611
0.00773751
0.011178
0.0118639
0.0119422
0.0120553
0.0120951
0.0120744
0.0120252
0.0119548
0.0118699
0.0117749
0.0116722
0.0115631
0.0114484
0.0113284
0.0112033
0.0110731
0.0109378
0.0107973
0.0106515
0.0105004
0.010344
0.0101822
0.0100152
0.00984306
0.00966604
0.00948409
0.00929793
0.00910709
0.00891323
0.00871399
0.00851514
0.008305
0.00810957
0.0078716
0.00771309
0.0110445
0.0118515
0.0119429
0.0120723
0.0121135
0.0120903
0.0120384
0.0119652
0.0118777
0.0117805
0.0116759
0.011565
0.0114486
0.011327
0.0112004
0.0110688
0.010932
0.0107901
0.010643
0.0104906
0.0103329
0.0101698
0.0100017
0.00982837
0.00965033
0.00946749
0.00928056
0.00908915
0.00889489
0.00869556
0.00849682
0.00828737
0.00809243
0.00785668
0.00769839
0.0108934
0.0118465
0.0119398
0.0120859
0.0121284
0.0121032
0.012049
0.0119733
0.0118838
0.0117849
0.0116787
0.0115664
0.0114488
0.0113261
0.0111984
0.0110657
0.010928
0.0107851
0.010637
0.0104836
0.010325
0.010161
0.00999203
0.00981797
0.0096392
0.00945576
0.00926829
0.00907654
0.00888206
0.00868286
0.00848426
0.00827581
0.00808066
0.00784728
0.0076841
0.0107473
0.0118623
0.0119503
0.0121091
0.0121487
0.0121197
0.0120622
0.0119837
0.0118919
0.0117911
0.0116834
0.0115699
0.0114512
0.0113274
0.0111988
0.0110653
0.0109268
0.0107831
0.0106343
0.0104802
0.0103209
0.0101563
0.00998674
0.00981212
0.00963289
0.00944906
0.00926129
0.00906938
0.00887485
0.0086759
0.00847773
0.00827064
0.00807653
0.00784884
0.00768303
0.0105928
0.0118703
0.0119499
0.0121252
0.0121629
0.0121314
0.0120716
0.0119911
0.0118979
0.0117959
0.0116874
0.011573
0.0114537
0.0113293
0.0112002
0.0110661
0.0109272
0.010783
0.0106338
0.0104793
0.0103196
0.0101547
0.00998477
0.00980983
0.00963033
0.00944628
0.00925832
0.00906637
0.00887179
0.00867319
0.00847515
0.00826969
0.00807476
0.00785281
0.00767306
0.0105179
0.0118958
0.0119616
0.0121452
0.0121794
0.0121453
0.0120832
0.0120008
0.0119061
0.0118029
0.0116934
0.0115782
0.0114582
0.0113333
0.0112038
0.0110693
0.01093
0.0107855
0.0106361
0.0104813
0.0103215
0.0101564
0.00998639
0.00981136
0.00963182
0.00944772
0.00925982
0.00906788
0.00887349
0.00867506
0.00847767
0.00827302
0.00808236
0.007865
0.00771992
0.0121743
0.0125204
0.0122818
0.0122107
0.0121591
0.0121039
0.0120514
0.0119976
0.0119421
0.0118856
0.0118281
0.0117698
0.0117109
0.0116514
0.0115914
0.0115307
0.0114692
0.0114066
0.0113425
0.0112765
0.0112082
0.011137
0.0110622
0.0109833
0.0108995
0.0108102
0.0107146
0.0106121
0.010502
0.0103835
0.0102572
0.0101205
0.00997955
0.00982344
0.00968107
0.0121468
0.0124841
0.0122564
0.0121906
0.0121425
0.0120896
0.0120377
0.0119833
0.0119263
0.0118673
0.0118064
0.0117441
0.0116803
0.0116154
0.0115493
0.0114819
0.011413
0.0113425
0.0112699
0.0111948
0.011117
0.0110357
0.0109505
0.0108608
0.0107661
0.0106657
0.0105591
0.0104453
0.0103245
0.010195
0.0100584
0.00990919
0.00975773
0.00957773
0.00942381
0.0121158
0.0124468
0.0122294
0.0121695
0.0121253
0.0120745
0.0120231
0.0119678
0.0119088
0.0118467
0.0117819
0.0117148
0.0116456
0.0115745
0.0115016
0.0114266
0.0113495
0.01127
0.0111878
0.0111024
0.0110137
0.0109208
0.0108235
0.0107211
0.0106133
0.0104993
0.0103789
0.0102511
0.0101163
0.0099728
0.00982298
0.00966081
0.00949933
0.0093092
0.00915416
0.0120779
0.012406
0.0122011
0.0121485
0.0121093
0.0120614
0.012011
0.0119552
0.0118945
0.0118298
0.0117615
0.0116903
0.0116163
0.0115397
0.0114608
0.0113792
0.011295
0.0112078
0.0111175
0.0110235
0.0109257
0.0108234
0.0107164
0.010604
0.0104861
0.0103619
0.0102314
0.0100935
0.00994901
0.00979578
0.00963698
0.0094651
0.00929563
0.00909364
0.00893252
0.0120426
0.0123621
0.0121724
0.0121282
0.0120941
0.0120493
0.0119997
0.0119433
0.0118807
0.0118131
0.0117413
0.0116656
0.0115866
0.0115045
0.0114193
0.011331
0.0112396
0.0111446
0.011046
0.0109433
0.0108364
0.0107246
0.0106077
0.0104853
0.0103571
0.0102224
0.0100815
0.00993337
0.00977878
0.00961574
0.00944781
0.00926705
0.00909065
0.00888093
0.00871834
0.0119958
0.0123146
0.0121426
0.0121082
0.0120804
0.0120391
0.0119908
0.0119339
0.0118696
0.0117993
0.011724
0.0116442
0.0115606
0.0114733
0.0113825
0.0112881
0.0111902
0.0110883
0.0109824
0.010872
0.010757
0.010637
0.0105117
0.0103807
0.010244
0.0101008
0.00995151
0.00979517
0.00963274
0.00946212
0.00928729
0.00909963
0.00891782
0.00870101
0.00853613
0.0119474
0.012264
0.0121124
0.0120893
0.0120685
0.012031
0.0119838
0.0119263
0.0118601
0.0117871
0.0117083
0.0116244
0.0115362
0.0114439
0.0113476
0.0112473
0.011143
0.0110344
0.0109214
0.0108037
0.0106812
0.0105534
0.0104202
0.0102811
0.0101363
0.00998517
0.00982802
0.00966406
0.00949436
0.00931681
0.0091357
0.00894202
0.00875575
0.00853349
0.00836812
0.0118909
0.0122103
0.0120829
0.0120725
0.0120593
0.0120255
0.0119794
0.0119212
0.0118532
0.0117774
0.0116952
0.0116075
0.011515
0.0114179
0.0113165
0.0112108
0.0111008
0.0109862
0.0108669
0.0107427
0.0106134
0.0104788
0.0103386
0.0101927
0.010041
0.00988314
0.00971948
0.00954927
0.00937372
0.00919064
0.00900468
0.00880627
0.00861672
0.00838992
0.00822453
0.0118269
0.0121553
0.0120542
0.012058
0.012053
0.0120231
0.0119779
0.011919
0.0118491
0.0117707
0.0116853
0.011594
0.0114975
0.0113962
0.0112903
0.0111798
0.0110647
0.0109448
0.0108201
0.0106903
0.0105552
0.0104147
0.0102687
0.0101169
0.00995944
0.00979595
0.00962688
0.00945153
0.00927118
0.00908364
0.0088938
0.00869166
0.00849964
0.0082693
0.00810433
0.0117648
0.0121055
0.0120309
0.0120481
0.0120504
0.0120235
0.0119789
0.011919
0.0118472
0.0117663
0.0116781
0.0115836
0.0114838
0.0113788
0.0112691
0.0111546
0.0110353
0.0109111
0.0107819
0.0106474
0.0105076
0.0103624
0.0102116
0.0100552
0.00989314
0.00972525
0.00955199
0.00937271
0.00918877
0.00899791
0.00880528
0.00860043
0.00840679
0.00817375
0.00800952
0.0116874
0.0120532
0.0120073
0.0120399
0.0120504
0.0120265
0.0119823
0.0119213
0.0118476
0.0117642
0.0116732
0.0115758
0.0114728
0.0113645
0.0112513
0.0111332
0.0110102
0.010882
0.0107489
0.0106103
0.0104665
0.0103171
0.0101623
0.0100018
0.00983593
0.00966431
0.00948755
0.00930501
0.00911813
0.00892461
0.00872978
0.00852281
0.00832802
0.00809286
0.00792962
0.0116116
0.0120066
0.0119889
0.0120363
0.0120538
0.0120319
0.0119875
0.0119251
0.0118493
0.0117636
0.01167
0.0115698
0.011464
0.0113528
0.0112366
0.0111153
0.010989
0.0108576
0.010721
0.010579
0.0104317
0.0102789
0.0101206
0.00995682
0.00978772
0.00961307
0.00943349
0.00924836
0.0090592
0.00886365
0.00866722
0.00845871
0.00826325
0.00802647
0.00786436
0.0115153
0.01196
0.0119714
0.0120354
0.0120603
0.01204
0.0119952
0.0119311
0.0118531
0.0117649
0.0116688
0.0115661
0.0114576
0.0113438
0.0112248
0.0111007
0.0109716
0.0108373
0.0106977
0.0105528
0.0104025
0.0102468
0.0100856
0.00991903
0.00974726
0.00957011
0.00938823
0.00920104
0.0090101
0.00881301
0.00861544
0.00840588
0.0082101
0.00797222
0.00781135
0.011419
0.0119211
0.0119586
0.0120384
0.0120691
0.0120495
0.0120037
0.0119378
0.0118575
0.0117671
0.0116687
0.0115636
0.0114528
0.0113367
0.0112153
0.0110889
0.0109574
0.0108206
0.0106786
0.0105312
0.0103785
0.0102203
0.0100568
0.00988792
0.00971399
0.00953485
0.00935116
0.00916238
0.00897011
0.00877195
0.00857364
0.00836348
0.00816763
0.0079291
0.00776934
0.0113029
0.0118876
0.0119494
0.0120463
0.0120822
0.0120622
0.0120147
0.0119466
0.0118639
0.0117711
0.0116704
0.0115631
0.0114502
0.0113319
0.0112085
0.01108
0.0109464
0.0108075
0.0106634
0.010514
0.0103592
0.010199
0.0100336
0.00986283
0.00968717
0.00950644
0.00932133
0.00913136
0.00893814
0.00873928
0.00854058
0.00833025
0.00813463
0.00789621
0.00773763
0.0111795
0.0118627
0.0119421
0.0120553
0.0120951
0.0120744
0.0120252
0.0119548
0.0118699
0.0117749
0.0116722
0.0115631
0.0114484
0.0113284
0.0112033
0.0110731
0.0109378
0.0107973
0.0106515
0.0105004
0.010344
0.0101822
0.0100152
0.00984307
0.00966606
0.00948412
0.00929796
0.00910713
0.00891326
0.00871404
0.00851518
0.00830506
0.00810961
0.00787171
0.00771322
0.0110457
0.0118506
0.0119429
0.0120723
0.0121135
0.0120903
0.0120384
0.0119651
0.0118777
0.0117805
0.0116758
0.0115649
0.0114485
0.011327
0.0112004
0.0110687
0.010932
0.0107901
0.010643
0.0104906
0.0103329
0.0101698
0.0100017
0.0098284
0.00965035
0.00946753
0.00928059
0.00908919
0.00889493
0.00869562
0.00849686
0.00828744
0.00809247
0.0078568
0.00769853
0.0108946
0.0118456
0.0119398
0.0120859
0.0121284
0.0121032
0.012049
0.0119733
0.0118838
0.0117848
0.0116786
0.0115664
0.0114488
0.0113261
0.0111984
0.0110657
0.010928
0.0107851
0.010637
0.0104836
0.010325
0.0101611
0.00999207
0.00981801
0.00963924
0.00945581
0.00926834
0.0090766
0.00888211
0.00868292
0.00848431
0.00827589
0.00808071
0.00784741
0.00768423
0.0107482
0.0118618
0.0119503
0.0121091
0.0121486
0.0121196
0.0120622
0.0119837
0.0118919
0.0117911
0.0116835
0.0115699
0.0114512
0.0113274
0.0111989
0.0110653
0.0109268
0.0107831
0.0106343
0.0104802
0.010321
0.0101564
0.00998679
0.00981218
0.00963295
0.00944913
0.00926135
0.00906945
0.00887492
0.00867598
0.00847779
0.00827073
0.0080766
0.00784896
0.00768313
0.0105935
0.0118701
0.0119502
0.0121254
0.0121631
0.0121316
0.0120718
0.0119913
0.011898
0.0117961
0.0116875
0.0115731
0.0114538
0.0113294
0.0112003
0.0110662
0.0109272
0.0107831
0.0106339
0.0104793
0.0103197
0.0101547
0.00998482
0.00980989
0.00963039
0.00944634
0.00925838
0.00906642
0.00887185
0.00867325
0.00847522
0.00826975
0.00807483
0.00785281
0.00767262
0.010519
0.0118962
0.0119617
0.0121452
0.0121794
0.0121453
0.0120832
0.0120008
0.011906
0.0118028
0.0116933
0.0115782
0.0114582
0.0113333
0.0112037
0.0110692
0.0109299
0.0107855
0.010636
0.0104813
0.0103214
0.0101563
0.00998632
0.00981129
0.00963175
0.00944765
0.00925974
0.0090678
0.00887341
0.00867498
0.00847758
0.00827294
0.00808226
0.00786499
0.00772015
0.0121778
0.0125168
0.0122816
0.0122108
0.0121592
0.0121039
0.0120514
0.0119976
0.0119421
0.0118856
0.0118281
0.0117698
0.0117109
0.0116514
0.0115914
0.0115307
0.0114692
0.0114066
0.0113425
0.0112765
0.0112082
0.011137
0.0110622
0.0109833
0.0108995
0.0108102
0.0107147
0.0106121
0.010502
0.0103835
0.0102572
0.0101206
0.0099796
0.00982348
0.00968135
0.0121501
0.0124807
0.0122562
0.0121906
0.0121426
0.0120896
0.0120377
0.0119833
0.0119263
0.0118673
0.0118064
0.0117441
0.0116803
0.0116154
0.0115493
0.0114819
0.011413
0.0113425
0.0112699
0.0111948
0.011117
0.0110357
0.0109505
0.0108609
0.0107662
0.0106657
0.0105591
0.0104454
0.0103246
0.010195
0.0100584
0.00990928
0.00975781
0.00957787
0.00942396
0.0121191
0.0124435
0.0122292
0.0121695
0.0121253
0.0120745
0.0120231
0.0119678
0.0119088
0.0118467
0.0117819
0.0117148
0.0116456
0.0115745
0.0115016
0.0114266
0.0113495
0.01127
0.0111878
0.0111024
0.0110137
0.0109208
0.0108235
0.0107211
0.0106133
0.0104993
0.0103789
0.0102511
0.0101163
0.00997283
0.00982301
0.00966084
0.00949938
0.00930926
0.00915433
0.0120812
0.0124026
0.0122008
0.0121486
0.0121093
0.0120614
0.012011
0.0119552
0.0118945
0.0118298
0.0117615
0.0116903
0.0116163
0.0115397
0.0114608
0.0113792
0.011295
0.0112078
0.0111175
0.0110235
0.0109257
0.0108234
0.0107164
0.0106041
0.0104861
0.0103619
0.0102314
0.0100936
0.00994905
0.00979584
0.00963703
0.00946518
0.00929569
0.00909376
0.00893269
0.0120458
0.0123589
0.0121722
0.0121282
0.0120941
0.0120493
0.0119997
0.0119433
0.0118807
0.0118131
0.0117412
0.0116656
0.0115866
0.0115045
0.0114193
0.011331
0.0112396
0.0111446
0.011046
0.0109433
0.0108364
0.0107246
0.0106077
0.0104853
0.0103571
0.0102225
0.0100815
0.0099334
0.00977881
0.00961578
0.00944784
0.00926711
0.0090907
0.00888102
0.00871852
0.0119989
0.0123115
0.0121424
0.0121082
0.0120805
0.0120392
0.0119908
0.0119339
0.0118696
0.0117993
0.011724
0.0116442
0.0115606
0.0114733
0.0113825
0.0112881
0.0111902
0.0110883
0.0109824
0.010872
0.010757
0.010637
0.0105118
0.0103808
0.010244
0.0101009
0.00995153
0.00979521
0.00963278
0.00946218
0.00928733
0.00909971
0.00891787
0.00870113
0.00853633
0.0119504
0.0122609
0.0121122
0.0120894
0.0120686
0.012031
0.0119838
0.0119263
0.0118601
0.0117871
0.0117082
0.0116244
0.0115362
0.0114438
0.0113476
0.0112473
0.011143
0.0110344
0.0109215
0.0108037
0.0106812
0.0105534
0.0104202
0.0102811
0.0101363
0.00998519
0.00982804
0.00966409
0.00949439
0.00931685
0.00913574
0.00894208
0.00875579
0.0085336
0.00836833
0.0118938
0.0122074
0.0120827
0.0120725
0.0120593
0.0120255
0.0119794
0.0119212
0.0118532
0.0117774
0.0116952
0.0116075
0.011515
0.0114179
0.0113165
0.0112108
0.0111008
0.0109862
0.0108669
0.0107427
0.0106135
0.0104788
0.0103387
0.0101927
0.010041
0.00988317
0.0097195
0.00954931
0.00937375
0.00919069
0.00900472
0.00880634
0.00861676
0.00839003
0.00822475
0.0118297
0.0121524
0.0120541
0.012058
0.012053
0.0120231
0.0119779
0.011919
0.0118491
0.0117707
0.0116853
0.011594
0.0114975
0.0113962
0.0112903
0.0111798
0.0110647
0.0109448
0.0108201
0.0106903
0.0105552
0.0104147
0.0102687
0.0101169
0.00995945
0.00979597
0.0096269
0.00945156
0.00927121
0.00908369
0.00889384
0.00869172
0.00849968
0.00826941
0.00810456
0.0117675
0.0121028
0.0120307
0.0120481
0.0120504
0.0120235
0.0119789
0.011919
0.0118472
0.0117663
0.0116781
0.0115836
0.0114838
0.0113788
0.0112691
0.0111546
0.0110353
0.0109111
0.0107818
0.0106474
0.0105076
0.0103624
0.0102117
0.0100552
0.00989316
0.00972527
0.00955201
0.00937274
0.0091888
0.00899796
0.00880532
0.00860049
0.00840683
0.00817386
0.00800976
0.01169
0.0120506
0.0120072
0.0120399
0.0120504
0.0120265
0.0119823
0.0119213
0.0118475
0.0117642
0.0116732
0.0115758
0.0114727
0.0113645
0.0112513
0.0111332
0.0110102
0.010882
0.0107489
0.0106103
0.0104665
0.0103171
0.0101623
0.0100018
0.00983594
0.00966433
0.00948757
0.00930504
0.00911815
0.00892465
0.00872981
0.00852286
0.00832806
0.00809297
0.00792986
0.011614
0.0120042
0.0119888
0.0120363
0.0120538
0.0120319
0.0119875
0.0119251
0.0118493
0.0117636
0.01167
0.0115698
0.011464
0.0113528
0.0112365
0.0111153
0.010989
0.0108576
0.010721
0.010579
0.0104317
0.0102789
0.0101207
0.00995684
0.00978773
0.00961309
0.0094335
0.00924839
0.00905922
0.00886369
0.00866724
0.00845877
0.00826328
0.00802658
0.00786461
0.0115176
0.0119576
0.0119713
0.0120354
0.0120603
0.01204
0.0119952
0.0119311
0.0118531
0.0117649
0.0116688
0.0115661
0.0114576
0.0113438
0.0112248
0.0111007
0.0109716
0.0108373
0.0106977
0.0105528
0.0104025
0.0102468
0.0100857
0.00991904
0.00974727
0.00957013
0.00938824
0.00920107
0.00901011
0.00881305
0.00861546
0.00840594
0.00821013
0.00797233
0.00781161
0.0114211
0.011919
0.0119585
0.0120384
0.0120691
0.0120495
0.0120036
0.0119378
0.0118575
0.0117671
0.0116686
0.0115636
0.0114528
0.0113366
0.0112153
0.0110889
0.0109574
0.0108206
0.0106786
0.0105312
0.0103785
0.0102203
0.0100568
0.00988793
0.009714
0.00953486
0.00935117
0.0091624
0.00897013
0.00877199
0.00857366
0.00836353
0.00816766
0.00792921
0.00776959
0.0113049
0.0118856
0.0119493
0.0120463
0.0120822
0.0120622
0.0120147
0.0119465
0.0118639
0.011771
0.0116703
0.0115631
0.0114502
0.0113319
0.0112085
0.01108
0.0109464
0.0108075
0.0106634
0.010514
0.0103592
0.010199
0.0100336
0.00986284
0.00968717
0.00950645
0.00932134
0.00913138
0.00893815
0.00873932
0.0085406
0.0083303
0.00813465
0.00789632
0.00773789
0.0111812
0.011861
0.011942
0.0120553
0.0120951
0.0120744
0.0120252
0.0119548
0.0118698
0.0117749
0.0116722
0.0115631
0.0114484
0.0113284
0.0112033
0.0110731
0.0109378
0.0107973
0.0106515
0.0105004
0.010344
0.0101822
0.0100152
0.00984308
0.00966606
0.00948414
0.00929797
0.00910715
0.00891327
0.00871408
0.0085152
0.00830512
0.00810963
0.00787183
0.00771348
0.0110472
0.0118491
0.0119429
0.0120723
0.0121135
0.0120903
0.0120383
0.0119651
0.0118776
0.0117805
0.0116758
0.0115649
0.0114485
0.011327
0.0112004
0.0110687
0.010932
0.0107901
0.010643
0.0104906
0.0103329
0.0101698
0.0100017
0.00982841
0.00965037
0.00946755
0.00928061
0.00908922
0.00889495
0.00869567
0.00849689
0.0082875
0.0080925
0.00785693
0.00769881
0.010896
0.0118444
0.0119398
0.0120859
0.0121284
0.0121032
0.0120489
0.0119733
0.0118838
0.0117848
0.0116786
0.0115664
0.0114488
0.0113261
0.0111984
0.0110657
0.010928
0.0107851
0.010637
0.0104836
0.010325
0.0101611
0.00999209
0.00981804
0.00963927
0.00945584
0.00926837
0.00907665
0.00888215
0.00868298
0.00848436
0.00827597
0.00808075
0.00784754
0.00768446
0.0107494
0.0118612
0.0119504
0.0121091
0.0121487
0.0121196
0.0120622
0.0119837
0.0118919
0.0117911
0.0116835
0.0115699
0.0114512
0.0113274
0.0111989
0.0110653
0.0109268
0.0107831
0.0106344
0.0104803
0.010321
0.0101564
0.00998684
0.00981223
0.00963301
0.00944918
0.00926141
0.00906951
0.00887498
0.00867605
0.00847785
0.00827081
0.00807665
0.00784908
0.00768333
0.0105954
0.0118696
0.0119504
0.0121257
0.0121634
0.0121318
0.0120719