/*--------------------------------*- C++ -*----------------------------------*\
  =========                 |
  \\      /  F ield         | OpenFOAM: The Open Source CFD Toolbox
   \\    /   O peration     | Website:  https://openfoam.org
    \\  /    A nd           | Version:  6
     \\/     M anipulation  |
\*---------------------------------------------------------------------------*/
FoamFile
{
    version     2.0;
    format      ascii;
    class       volScalarField;
    location    "17";
    object      yPlus;
}
// * * * * * * * * * * * * * * * * * * * * * * * * * * * * * * * * * * * * * //

dimensions      [0 0 0 0 0 0 0];

internalField   uniform 0;

boundaryField
{
    inlet
    {
        type            calculated;
        value           uniform 0;
    }
    outlet
    {
        type            calculated;
        value           uniform 0;
    }
    roughCylinder
    {
        type            calculated;
        value           nonuniform List<scalar> 
3840
(
16.5182
26.8677
38.4089
41.5813
44.59
45.2093
45.971
45.7991
45.6419
45.2164
45.112
45.0397
45.2012
44.4843
43.1342
42.5629
42.4716
43.0688
42.6093
42.6243
41.7173
40.7261
40.3282
40.0942
13.2946
25.7727
37.9714
41.2318
44.2557
44.9572
45.8543
45.5941
45.8038
45.5056
45.4134
45.2698
45.3537
44.6907
43.4003
42.8147
42.7577
43.0638
42.7905
42.8157
41.9193
41.0333
40.7638
40.5606
16.3763
25.6718
37.3811
40.9105
43.9962
44.8371
45.676
45.7293
45.7953
45.4404
45.3176
45.2498
45.3845
44.6497
43.4652
42.9151
43.0829
43.3378
43.2952
43.288
42.4506
41.6464
41.344
41.0694
7.03358
24.2369
36.8286
40.5362
43.6335
44.5436
45.6021
45.5409
45.9355
45.784
45.7038
45.5697
45.5867
44.9332
43.8395
43.2901
43.4386
43.4085
43.5283
43.5614
42.7336
42.0288
41.8393
41.6032
7.76499
24.0611
36.1449
40.1406
43.3363
44.4488
45.3913
45.6947
46.0048
45.7512
45.6294
45.5511
45.6292
44.9477
43.9814
43.4693
43.77
43.7723
44.0536
44.104
43.3352
42.7112
42.4806
42.1763
7.54364
22.2724
35.4006
39.7086
42.9563
44.1119
45.3588
45.5205
46.0711
46.069
46.0391
45.8974
45.849
45.2847
44.4424
43.955
44.1902
43.9525
44.293
44.4327
43.6823
43.1422
43.0092
42.7549
5.39559
21.9146
34.5344
39.1741
42.5907
44.0563
45.1294
45.6657
46.1838
46.0338
45.952
45.855
45.8986
45.352
44.6396
44.195
44.5255
44.4035
44.8071
45.0186
44.3324
43.8698
43.69
43.3746
13.22
19.6689
33.4575
38.5741
42.156
43.6437
45.1221
45.5094
46.1647
46.3046
46.3622
46.2316
46.1654
45.753
45.1654
44.7765
45.0147
44.6797
45.0405
45.369
44.7166
44.3212
44.2246
43.9683
11.4734
18.9376
32.2399
37.7575
41.6187
43.5872
44.8506
45.6126
46.3049
46.2617
46.2564
46.1799
46.2491
45.8804
45.3985
45.0624
45.3496
45.1884
45.5489
45.9669
45.388
45.0649
44.9154
44.6069
11.8035
15.9433
30.6203
36.8018
41.0095
42.992
44.8032
45.4431
46.1814
46.4752
46.6637
46.5985
46.5751
46.3327
45.9577
45.709
45.8914
45.5212
45.7719
46.2867
45.7586
45.4875
45.4086
45.1669
12.7929
14.9782
28.8874
35.4664
40.1016
42.8317
44.4032
45.4375
46.3148
46.4024
46.5179
46.5244
46.6742
46.4811
46.1814
45.9861
46.1858
46.0362
46.276
46.854
46.4079
46.2035
46.0679
45.781
13.7341
12.3655
26.3005
33.8556
39.0996
41.8428
44.2052
45.1837
46.0338
46.525
46.8972
46.9597
47.022
46.9311
46.7257
46.6361
46.7409
46.3761
46.4638
47.076
46.6856
46.5178
46.4437
46.2362
16.1108
6.44648
24.073
31.6098
37.4457
41.4007
43.4981
44.9582
46.1079
46.3653
46.6398
46.7878
47.0562
47.0164
46.8665
46.8098
46.9214
46.8239
46.9326
47.5584
47.2476
47.1411
47.0099
46.757
16.9946
1.27607
19.1732
28.8357
35.6421
39.5747
42.965
44.4957
45.5742
46.347
46.944
47.171
47.3382
47.3762
47.3223
47.3765
47.4275
47.0923
47.0166
47.6219
47.3547
47.2787
47.2139
47.0613
18.1748
12.4374
17.6817
24.8906
32.4039
38.523
41.5523
43.8176
45.4963
46.0235
46.4994
46.8091
47.2015
47.2874
47.2771
47.3427
47.4228
47.4092
47.4323
48.0097
47.8094
47.7911
47.668
47.4572
19.2126
9.72762
4.48636
19.5111
28.846
34.6522
40.2882
42.8791
44.4608
45.7632
46.6845
47.107
47.3749
47.5214
47.6188
47.7995
47.8626
47.5481
47.3491
47.7935
47.5954
47.5924
47.5335
47.4604
19.3507
11.1129
12.2247
10.0189
20.8933
32.2556
37.0731
41.1774
44.0287
45.039
45.8458
46.3831
46.9429
47.1601
47.2879
47.4106
47.4942
47.5948
47.6126
48.0141
47.8611
47.9263
47.799
47.6302
19.1695
6.79997
7.68748
11.7494
1.57543
19.9864
33.9657
39.1237
41.8503
44.2659
45.756
46.4827
46.8815
47.1568
47.4198
47.6828
47.7954
47.4086
47.1237
47.147
46.878
46.89
46.7936
46.8166
17.2572
12.5871
2.53044
7.56396
12.0992
6.51366
23.4034
34.6362
40.6995
42.5869
43.9762
44.9198
45.7682
46.1709
46.4223
46.4764
46.5024
46.6764
46.8178
46.8505
46.625
46.7513
46.5648
46.381
16.6546
9.33727
11.6451
12.0833
8.29972
7.24192
14.1962
29.8415
35.4293
40.6588
43.3111
44.5104
45.1069
45.5525
45.9837
46.2502
46.3769
45.6257
45.1941
44.1162
43.421
43.2007
42.8387
42.9553
13.6471
7.77824
9.94927
8.40847
10.505
13.1727
13.7163
12.4018
33.4866
36.4513
38.8316
40.7174
42.1886
42.9187
43.2094
42.7844
42.3391
42.3878
42.8544
42.1347
41.5962
41.7085
41.2573
40.6709
11.6966
8.30769
12.042
6.54071
6.8521
7.28143
9.59764
7.70685
12.9326
30.5367
36.9725
38.9505
39.8204
40.4639
41.0114
41.078
41.0737
38.8306
36.7182
29.9796
25.4344
20.8514
14.1694
11.7765
11.3083
11.1086
7.39751
11.4947
10.955
3.37544
11.6062
9.48631
6.98756
17.0032
10.3092
23.4353
28.8113
30.6784
30.2205
25.9824
19.3705
11.555
18.2854
6.37445
18.4372
13.5166
6.24217
16.8134
7.77461
7.00805
6.12278
15.5391
21.855
24.0554
21.1947
9.22411
15.454
9.83883
14.6826
4.66477
3.21014
15.2039
11.5505
17.7017
17.4525
11.9991
12.2049
14.2498
8.11269
4.04244
6.5166
12.5357
9.37278
11.4177
6.50151
14.4237
22.376
26.5474
27.1139
25.6562
17.069
5.49638
7.97528
16.5659
12.0984
11.4005
6.20181
16.4643
11.6999
8.01211
11.309
11.1024
16.2176
18.8697
21.2004
22.227
11.7049
15.5346
12.7969
15.6162
21.9143
26.5073
28.3058
26.8592
24.2735
24.1732
22.6725
18.5002
11.2644
6.85735
4.45779
8.85459
12.1454
18.2711
23.1555
26.1791
26.2431
26.3417
26.2991
26.2586
13.3995
18.9564
19.2528
20.3394
23.6685
26.9835
28.5339
27.7321
24.916
23.2591
24.873
25.2509
25.4782
24.9319
25.0014
25.4633
26.1779
26.3562
26.1879
26.1912
26.3853
26.3904
26.2109
25.9899
12.6883
20.2128
22.4328
23.8566
25.6443
27.3735
27.8167
25.6292
20.2118
19.3442
22.3548
24.2508
24.9384
24.9083
24.9315
25.2862
25.601
25.6862
25.0128
24.1511
23.3602
22.6547
21.5713
20.7673
10.5398
19.4868
22.8083
24.7867
26.0579
26.6116
25.5097
20.7343
11.484
2.54614
12.053
15.4837
21.126
22.8819
23.2191
23.1506
22.6519
21.243
19.162
18.1697
18.3197
18.5539
18.5902
18.6307
7.15888
17.0761
21.2374
23.7577
25.0293
25.0381
23.1535
17.2859
10.1496
12.3695
14.5681
13.9916
14.1798
16.1073
17.0079
17.216
17.3522
17.6595
18.4832
19.0087
19.0854
19.1113
18.8454
18.5555
4.22276
13.1697
17.9487
21.1087
22.6451
22.4661
20.092
12.5908
10.7749
10.9713
10.8386
14.9232
17.5744
18.1874
18.4162
18.5471
18.5491
18.3449
17.8951
17.6571
17.7406
17.8712
17.8141
17.7314
3.12031
10.5201
12.798
15.9527
17.5678
17.0184
12.7155
8.08882
9.24073
11.4723
13.1772
13.878
14.8176
16.1492
16.8028
17.0155
17.1146
17.2471
17.5593
17.8063
17.9886
18.1092
18.0487
17.9374
2.36153
7.57411
9.77184
11.5301
11.5899
11.3808
10.0893
10.6643
11.4841
11.5615
12.424
14.3629
15.9393
16.7003
17.099
17.3143
17.4671
17.5754
17.7115
18.0546
18.3709
18.5876
18.6308
18.5961
2.83158
8.44066
10.412
11.4655
11.9164
12.3578
11.5734
11.4105
11.5793
12.6217
14.2205
15.1249
15.8217
16.5562
17.0538
17.3994
17.7242
18.099
18.5487
18.9598
19.2769
19.4635
19.4786
19.4165
2.82499
8.38192
10.6817
11.9743
13.0985
13.1471
11.7932
11.5212
12.2093
13.5921
14.6568
15.7991
16.8373
17.5259
17.9885
18.3336
18.663
19.004
19.4056
19.8574
20.2247
20.4439
20.4867
20.4379
2.65237
7.96441
10.2022
11.5648
12.3857
12.1327
11.5669
11.8939
13.4456
14.7819
15.9788
16.8924
17.5985
18.2309
18.7357
19.1559
19.5755
20.0389
20.5477
21.0303
21.4183
21.6383
21.6809
21.626
2.81155
8.2535
10.278
11.5419
11.6631
11.5749
11.5519
13.1841
14.6422
15.8737
16.9044
17.8337
18.6654
19.3196
19.8415
20.2969
20.7569
21.2646
21.8229
22.3535
22.7759
23.0084
23.0577
23.0009
2.57217
8.19608
10.0534
11.102
11.3548
11.5035
12.8557
14.3993
15.8032
17.066
18.1609
19.0618
19.7934
20.4346
21.0007
21.5279
22.0682
22.6559
23.2832
23.8581
24.3097
24.5493
24.5975
24.5338
2.329
8.08647
10.018
10.9262
11.5546
12.38
13.9779
15.5859
17.0434
18.2851
19.338
20.248
21.0451
21.731
22.343
22.93
23.5375
24.1914
24.8782
25.5036
25.9886
26.2401
26.2883
26.2186
2.64339
9.31125
11.1949
11.5365
11.9641
13.6276
15.3574
16.917
18.3074
19.554
20.6445
21.5794
22.3831
23.1028
23.7726
24.4317
25.1176
25.8472
26.5977
27.2734
27.7906
28.0542
28.1004
28.0242
2.89232
2.81944
2.8764
3.00735
3.17979
3.43418
3.7393
4.09752
4.49964
4.83094
5.11101
5.27981
5.40659
5.4612
5.48362
5.47324
5.45521
5.42924
5.41921
5.41683
5.33306
5.26287
5.20379
5.15798
5.11597
5.15157
5.18093
5.18293
5.10902
5.00087
4.89015
4.76009
4.61441
4.43856
4.22934
3.9886
3.7836
3.57068
3.35855
3.04476
11.4295
11.3971
11.4289
11.4498
11.4258
11.4329
11.7134
11.6921
11.7492
11.9781
12.1378
12.2151
12.2877
12.307
12.3093
12.2761
12.2216
12.1247
12.0219
11.9294
11.8706
11.8082
11.7374
11.6641
11.5807
11.5615
11.539
11.6114
11.6221
11.506
11.4767
11.5185
11.5074
11.453
11.514
11.4678
11.5175
11.381
11.0878
10.4329
11.7062
12.0636
12.3777
12.7892
13.1278
13.4638
13.7601
14.0215
14.2391
14.409
14.5484
14.6385
14.7119
14.7506
14.7662
14.7453
14.7096
14.6553
14.5843
14.5077
14.4534
14.3885
14.31
14.221
14.1198
14.0069
13.8832
13.7566
13.6311
13.4956
13.3504
13.1835
12.9966
12.7853
12.5445
12.2654
11.9872
11.5915
11.536
11.4591
12.8928
13.4834
13.9891
14.4959
14.9306
15.3176
15.6534
15.9352
16.1772
16.3731
16.5415
16.6712
16.7759
16.8478
16.9011
16.9331
16.9496
16.9591
16.9473
16.9154
16.8684
16.8031
16.719
16.6168
16.4958
16.3539
16.1915
16.009
15.8071
15.5857
15.3438
15.0824
14.7991
14.4839
14.1325
13.7297
13.2953
12.7483
12.2976
11.6115
14.5836
15.1474
15.7286
16.214
16.667
17.0457
17.3933
17.681
17.9436
18.1602
18.3561
18.5169
18.6571
18.7738
18.8749
18.9623
19.0247
19.0617
19.0732
19.0586
19.0193
18.9558
18.8682
18.7569
18.6214
18.4602
18.2735
18.0618
17.8261
17.5666
17.2831
16.9735
16.636
16.2657
15.8613
15.4164
14.9152
14.3595
13.7064
13.0621
16.215
16.7998
17.3341
17.7975
18.2343
18.6015
18.9504
19.2437
19.522
19.7602
19.9828
20.1784
20.3587
20.5223
20.6638
20.7805
20.871
20.9322
20.9628
20.9622
20.931
20.8704
20.7813
20.6642
20.5184
20.3427
20.1373
19.9036
19.6431
19.3571
19.0463
18.7102
18.3471
17.9547
17.5269
17.0644
16.5473
16.0034
15.3464
14.7086
17.6954
18.2905
18.7546
19.2155
19.6242
19.9918
20.3376
20.644
20.9366
21.1992
21.4498
21.6812
21.895
22.0866
22.2561
22.3994
22.5139
22.596
22.6433
22.6547
22.6309
22.5739
22.4856
22.3665
22.2153
22.0302
21.8116
21.5615
21.2824
20.9766
20.6455
20.2901
19.9098
19.5046
19.0691
18.6061
18.0985
17.5606
16.9542
16.3215
19.0452
19.5761
20.0242
20.4697
20.8632
21.2341
21.5802
21.901
22.2085
22.4956
22.7685
23.0221
23.2583
23.4733
23.6652
23.83
23.9638
24.0625
24.1225
24.1424
24.1238
24.0703
23.9857
23.8699
23.7199
23.5321
23.3069
23.0471
22.7562
22.4371
22.0925
21.7244
21.333
20.9203
20.4814
20.0229
19.5264
19.0156
18.4369
17.8651
20.2462
20.6774
21.1568
21.5685
21.969
22.3387
22.6933
23.0262
23.3455
23.6468
23.9343
24.2046
24.4577
24.6903
24.8991
25.0799
25.2277
25.3373
25.404
25.4259
25.4075
25.3561
25.2789
25.1741
25.0351
24.8535
24.6295
24.367
24.0708
23.7451
23.3932
23.0181
22.6208
22.2046
21.7653
21.3129
20.8248
20.3423
19.7776
19.2855
21.245
21.6366
22.1389
22.5361
22.949
23.3189
23.6819
24.0217
24.3502
24.6622
24.9609
25.2436
25.5092
25.7542
25.975
26.1665
26.3228
26.4367
26.501
26.5122
26.4839
26.4339
26.3672
26.2831
26.1708
26.0078
25.7938
25.5355
25.2399
24.9128
24.5583
24.1803
23.7806
23.3631
22.9243
22.4761
21.9946
21.5306
20.9775
20.5371
22.0734
22.4631
22.9841
23.3854
23.8105
24.1866
24.5591
24.9073
25.245
25.5663
25.8745
26.1666
26.4415
26.6954
26.9243
27.1224
27.2825
27.3953
27.4505
27.4437
27.4067
27.3581
27.3019
27.2377
27.1545
27.0221
26.8272
26.5791
26.2884
25.9632
25.609
25.2302
24.8291
24.4101
23.9706
23.5227
23.0437
22.5865
22.0414
21.6245
22.7866
23.1634
23.7193
24.1338
24.5811
24.9701
25.3564
25.7158
26.0641
26.395
26.712
27.0122
27.2944
27.555
27.7897
27.9924
28.1549
28.2662
28.3138
28.2937
28.2483
28.2
28.1535
28.1077
28.05
27.9466
27.7711
27.5342
27.2497
26.9276
26.5744
26.1948
25.7916
25.3691
24.9255
24.473
23.9897
23.5299
22.982
22.5764
23.3972
23.7917
24.3771
24.8205
25.296
25.7084
26.1125
26.4871
26.848
27.1896
27.5156
27.8235
28.1122
28.3782
28.6177
28.8246
28.9905
29.1045
29.1544
29.1356
29.0835
29.0341
28.9946
28.9631
28.9234
28.8333
28.6683
28.4388
28.159
27.839
27.4858
27.104
26.6966
26.2676
25.8156
25.3529
24.8579
24.3874
23.8238
23.4221
23.9708
24.3959
25.0115
25.4912
25.9987
26.442
26.8682
27.2613
27.6367
27.9903
28.3257
28.6411
28.9356
29.2065
29.45
29.6608
29.8318
29.9538
30.017
30.0175
29.9689
29.919
29.8819
29.8555
29.8181
29.7203
29.5537
29.3259
29.0478
28.7284
28.3734
27.9875
27.573
27.1341
26.6693
26.1906
25.6776
25.1874
24.6009
24.1869
24.5603
25.0171
25.6685
26.186
26.7279
27.2045
27.6573
28.0713
28.4629
28.8294
29.1745
29.4971
29.7969
30.0713
30.3174
30.5309
30.7056
30.8345
30.9109
30.9344
30.9183
30.8794
30.8394
30.7989
30.732
30.6212
30.451
30.2231
29.9451
29.6242
29.2656
28.8729
28.4489
27.9968
27.5155
27.0164
26.4805
25.9633
25.3477
24.9077
25.1984
25.6901
26.3817
26.9375
27.5137
28.0224
28.5017
28.9369
29.3449
29.7243
30.079
30.4088
30.7134
30.9911
31.2397
31.4553
31.6334
31.7679
31.8528
31.8865
31.8789
31.8496
31.8087
31.7566
31.6818
31.5633
31.3872
31.1553
30.8738
30.5488
30.1842
29.7833
29.3477
28.8807
28.3812
27.8594
27.298
26.7501
26.1008
25.6267
25.8971
26.4262
27.1578
27.75
28.3579
28.8953
29.3982
29.8529
30.2762
30.6676
31.0315
31.3678
31.6769
31.9577
32.2086
32.4268
32.6088
32.75
32.8453
32.8912
32.8916
32.865
32.8223
32.7652
32.681
32.5487
32.3611
32.1213
31.8343
31.504
31.1331
30.7239
30.2773
29.7961
29.2789
28.7354
28.149
27.5706
26.8869
26.3761
26.6469
27.2102
27.9758
28.599
29.2329
29.7937
30.3156
30.7864
31.2227
31.6245
31.9961
32.3379
32.6504
32.9335
33.1857
33.4053
33.59
33.7369
33.8424
33.9033
33.9194
33.8993
33.8539
33.7865
33.6859
33.5372
33.3383
33.0917
32.8004
32.4664
32.0911
31.6756
31.2205
30.7277
30.1964
29.6347
29.0272
28.4226
27.7089
27.1652
27.3997
27.9886
28.78
29.4265
30.0797
30.6578
31.1938
31.6773
32.1236
32.5335
32.911
33.2569
33.572
33.8559
34.1085
34.3282
34.5139
34.6638
34.7758
34.8481
34.8788
34.8689
34.8226
34.7435
34.6261
34.4648
34.2592
34.0096
33.7169
33.3818
33.0045
32.5856
32.1254
31.6253
31.0843
30.5105
29.8884
29.2657
28.5304
27.9644
28.0707
28.6789
29.4905
30.1544
30.8223
31.4133
31.9597
32.4521
32.9056
33.3208
33.7022
34.0503
34.3662
34.6501
34.9015
35.1198
35.304
35.4527
35.5649
35.6391
35.674
35.669
35.6233
35.5394
35.4171
35.2531
35.0467
34.7977
34.5058
34.1712
33.7937
33.3735
32.9107
32.4066
31.8599
31.2782
30.6463
30.0112
29.2607
28.6792
28.5477
29.1713
29.9995
30.6784
31.3595
31.9626
32.5188
33.0193
33.4787
33.8982
34.2821
34.6316
34.9477
35.2307
35.4806
35.6967
35.8785
36.0248
36.1347
36.207
36.2408
36.235
36.1888
36.1043
35.9817
35.8183
35.6128
35.3649
35.0742
34.7407
34.364
33.9442
33.4811
32.9758
32.4271
31.8421
31.2063
30.5655
29.8081
29.2206
28.7821
29.4134
30.2519
30.9421
31.6339
32.2478
32.8137
33.3212
33.7855
34.2081
34.5936
34.9434
35.2586
35.5398
35.7872
36.0003
36.1787
36.3218
36.4284
36.4979
36.529
36.5211
36.4733
36.3874
36.2637
36.0997
35.8941
35.6462
35.3559
35.0226
34.6461
34.2262
33.7628
33.2568
32.707
32.1203
31.4831
30.84
30.0814
29.4937
28.8102
29.4417
30.2836
30.9788
31.6766
32.2975
32.8698
33.3814
33.8479
34.2715
34.6565
35.0048
35.3176
35.5955
35.8391
36.048
36.222
36.3604
36.4627
36.5279
36.5553
36.5442
36.4937
36.4052
36.2795
36.1144
35.9081
35.6602
35.3701
35.0375
34.6622
34.2437
33.782
33.2778
32.7304
32.1464
31.5126
30.8728
30.1193
29.5376
28.7424
29.3754
30.2198
30.9191
31.6209
32.2465
32.823
33.3371
33.8044
34.2277
34.6115
34.9575
35.2673
35.5416
35.7809
35.9853
36.1545
36.2882
36.3857
36.4464
36.4696
36.4545
36.4006
36.3091
36.1808
36.0136
35.8059
35.5572
35.2668
34.9346
34.5598
34.1422
33.6818
33.1793
32.634
32.0522
31.4214
30.7843
30.0347
29.4568
5.83992
26.952
38.7794
42.0576
45.115
45.6868
46.3267
45.994
45.799
45.4836
45.6219
45.1337
44.6792
44.3196
43.9764
42.9179
41.9071
42.9972
42.9057
41.7335
42.24
41.0749
40.5246
40.2917
0.945617
26.6717
38.2879
41.7352
44.7791
45.4265
46.1773
45.7882
45.9394
45.7661
45.7276
45.226
44.8727
44.6024
44.3259
43.3838
42.2082
43.2161
43.0354
41.9862
42.4657
41.4229
40.9262
40.7166
7.00701
25.9817
37.8221
41.484
44.5157
45.2181
45.835
45.6899
45.7792
45.6343
45.75
45.3014
44.9787
44.7926
44.545
43.6701
42.4431
43.4914
43.3655
42.4695
42.9751
42.0283
41.5306
41.3041
6.29225
25.2291
37.2882
41.0955
44.1368
44.8942
45.7431
45.5521
45.9582
46.0042
45.9772
45.529
45.3076
45.1822
44.9745
44.1118
42.8274
43.782
43.5037
42.7734
43.2988
42.4576
42.0245
41.8084
8.66124
24.4928
36.6241
40.7517
43.8218
44.7662
45.4672
45.5889
45.9498
45.9111
46.0344
45.7079
45.5201
45.4319
45.2322
44.387
43.1673
44.1265
43.8529
43.3488
43.8794
43.1196
42.6899
42.4472
6.03224
23.2617
35.9182
40.2518
43.4342
44.4177
45.4762
45.5506
46.1433
46.3363
46.3803
46.0392
45.9123
45.8483
45.6693
44.8356
43.6555
44.4728
44.0378
43.7614
44.2616
43.5987
43.2388
43.0038
6.95797
22.3167
34.9498
39.7549
43.0352
44.3853
45.2734
45.679
46.2464
46.2758
46.4465
46.2526
46.1489
46.0857
45.9204
45.1342
44.0984
44.8669
44.4453
44.4427
44.8766
44.2929
43.9346
43.6751
11.8612
20.7373
33.9565
39.0468
42.6304
43.9828
45.3364
45.6868
46.3929
46.7018
46.8537
46.628
46.541
46.4862
46.3539
45.6241
44.6798
45.2498
44.7141
44.9378
45.2843
44.7907
44.5004
44.2573
4.95998
19.3588
32.4968
38.2806
42.02
43.9679
45.1212
45.805
46.5337
46.6353
46.8707
46.7923
46.7429
46.6838
46.5913
45.9538
45.1857
45.6774
45.2036
45.6685
45.9026
45.4861
45.189
44.9329
8.85887
17.1057
31.0786
37.1447
41.4892
43.38
45.1283
45.7626
46.554
46.9882
47.2671
47.1558
47.096
47.0549
47.0139
46.4662
45.799
46.0696
45.5415
46.1588
46.2919
45.9539
45.7199
45.4954
11.8482
14.519
28.771
35.8824
40.389
43.2225
44.7503
45.7547
46.6531
46.8576
47.1734
47.2045
47.2261
47.1967
47.2096
46.7761
46.2791
46.4985
46.0843
46.8509
46.8741
46.6072
46.3571
46.1314
12.7929
13.9458
26.7625
33.8772
39.5118
42.1952
44.5695
45.5605
46.4705
47.0672
47.4979
47.522
47.5241
47.5297
47.5942
47.2554
46.8404
46.8638
46.4246
47.2305
47.1772
46.9696
46.7801
46.6011
13.7947
1.04457
22.9454
31.7712
37.3652
41.6612
43.792
45.302
46.4649
46.8184
47.233
47.3944
47.5382
47.5777
47.6886
47.4614
47.1874
47.2384
46.9469
47.7894
47.6613
47.5156
47.3053
47.1306
15.47
10.05
19.9518
27.8909
35.7801
39.6502
43.2348
44.8095
45.9905
46.8371
47.4588
47.6381
47.7468
47.8313
47.9789
47.8307
47.6057
47.5041
47.1802
47.9805
47.8202
47.7199
47.5759
47.4594
16.0898
6.64117
13.0199
24.5088
31.1413
38.3602
41.5496
44.0716
45.7809
46.4136
46.9839
47.2947
47.5952
47.7207
47.902
47.8623
47.7623
47.792
47.6398
48.3792
48.1867
48.1375
47.9706
47.8468
16.7213
10.1753
7.8452
13.9448
28.2623
33.725
40.2396
42.9512
44.7761
46.141
47.0725
47.4623
47.7076
47.8794
48.0846
48.1031
48.0158
47.8998
47.6634
48.2533
48.0557
48.0299
47.9458
47.8923
16.506
6.27491
7.89856
8.38479
11.8667
30.9361
36.0729
41.1549
44.1288
45.3283
46.226
46.7662
47.2801
47.5105
47.7293
47.8257
47.8473
47.964
47.9386
48.391
48.2055
48.2229
48.1176
48.016
15.4207
10.1061
3.13323
11.5198
12.1703
7.94394
33.0563
38.5063
41.9401
44.462
45.9934
46.7471
47.1675
47.4505
47.71
47.8509
47.8473
47.7111
47.4316
47.5888
47.3345
47.3112
47.292
47.2781
14.3425
3.05195
11.3116
11.7424
11.7984
12.8258
14.0371
33.8047
40.3434
42.7141
44.2799
45.2221
46.07
46.4493
46.6824
46.8108
46.8632
47.0384
47.0897
47.0834
46.8959
46.9167
46.8757
46.6925
11.8487
7.09894
8.12177
8.6626
12.7406
12.626
3.89132
26.6795
34.9865
40.4487
43.2478
44.6788
45.3254
45.7539
46.0865
46.271
46.2508
45.7798
45.0892
44.3818
43.7616
43.4896
43.4408
43.389
11.1404
6.18853
7.48772
13.0366
4.27809
9.7243
13.0552
2.66877
31.7963
36.2453
39.0825
40.8066
42.3628
43.0066
43.1339
42.9537
42.6902
42.7304
42.6914
41.9295
41.5296
41.3601
41.2498
40.4431
9.30862
8.87266
7.62572
9.5105
6.0054
10.9908
14.1321
9.63546
16.2544
28.0614
35.4036
38.8407
39.7687
40.3511
40.7088
40.7047
40.308
37.458
34.0879
28.9854
23.2448
17.9318
11.8586
9.53018
10.4936
7.47112
9.39963
13.3462
15.6562
12.3877
8.22101
10.327
9.54199
7.66651
13.0799
20.3692
27.4479
29.3842
27.6312
22.536
13.149
15.3812
17.3853
15.3441
8.11229
12.9009
13.8525
5.99115
4.24528
10.095
11.2493
17.1972
23.5806
26.0139
23.0569
11.7101
13.6331
15.4572
2.67704
16.4672
8.61034
4.69087
10.2459
12.9603
12.6123
17.8013
18.6959
18.3016
16.5297
2.79637
16.4139
7.51351
8.00671
11.989
9.97044
15.1557
22.6583
26.9582
27.6617
26.6642
20.2484
12.3198
9.47188
14.9524
16.901
12.4806
16.7818
14.4217
14.0018
16.5487
18.7528
12.9855
17.8909
20.5158
22.5432
23.7671
11.3939
16.7703
15.3886
17.2112
22.4578
26.7204
28.4746
27.5837
26.1189
25.4406
24.832
21.2534
15.6849
10.9113
11.3884
15.9777
19.8872
22.1071
24.4824
26.8768
26.963
27.0741
26.8205
26.7805
11.5287
19.0472
20.836
22.0872
24.6357
27.2839
28.7762
28.7645
26.4452
23.7391
25.5003
25.8883
26.4359
26.1386
26.1968
26.139
26.0657
26.6298
27.0728
26.197
26.5065
26.584
26.3417
26.0972
9.51635
18.6792
22.271
24.3867
26.0333
27.4352
27.9075
26.2628
20.2787
17.9076
21.7711
23.7082
25.0228
24.9973
24.8386
24.9671
25.0357
25.3333
25.381
24.0618
23.0586
22.3662
21.25
20.5137
6.0998
15.4484
20.2173
23.3522
25.1607
25.9023
25.022
21.0891
11.2478
7.97787
4.48638
11.239
20.0531
22.4054
22.5972
21.6319
20.2174
19.4974
19.1202
17.9247
18.1451
18.3888
18.6149
18.793
3.70042
11.6324
15.9433
19.8076
21.9861
22.4396
20.5444
14.6045
9.20665
11.2718
14.7379
15.496
13.4072
15.2481
16.2873
16.5771
17.0395
17.7756
18.6671
19.3955
19.4611
19.4308
19.2217
18.961
2.32456
7.88938
11.6657
14.7739
16.4933
15.9471
11.918
7.27192
6.78443
10.8669
11.5193
14.9156
18.3074
18.6772
18.7948
18.7685
18.5147
18.3195
18.1662
17.6943
17.6864
17.7262
17.7242
17.6786
2.53024
8.0748
10.5408
11.6457
11.5773
9.43673
10.8567
4.92408
10.8184
11.624
13.0906
12.6338
13.3566
15.4926
16.3552
16.4451
16.5005
16.8377
17.3307
17.7769
18.0055
18.1553
18.1645
18.0809
3.35166
9.69701
11.5444
12.8131
13.435
13.1359
11.8602
11.7487
11.6291
12.5815
13.3262
15.4435
16.4689
16.6248
16.8987
17.149
17.3493
17.5576
17.7661
17.929
18.1895
18.3647
18.4339
18.4106
2.85694
9.00775
11.5304
13.333
14.3128
13.8573
12.5494
12.1672
12.9077
13.6936
14.5001
14.4161
15.2171
16.2894
16.854
17.131
17.4075
17.7847
18.2489
18.695
18.9846
19.1564
19.1996
19.1477
2.59938
8.38544
10.9397
12.4275
13.2172
12.693
11.8007
12.259
13.5861
14.5201
15.2132
16.3987
16.9747
17.3028
17.6756
18.0307
18.3591
18.7154
19.1018
19.4557
19.7526
19.9303
19.9829
19.9416
3.05821
9.22425
11.3022
12.1225
12.148
11.7443
12.4454
14.0301
14.9303
15.6699
16.3742
16.6719
17.2781
17.9245
18.3917
18.7531
19.1265
19.5669
20.0626
20.5211
20.8432
21.0221
21.0647
21.014
2.78174
8.97016
10.476
11.1275
11.1263
11.5978
13.264
14.5677
15.7384
16.652
17.3573
18.126
18.6182
19.0195
19.4304
19.8483
20.2856
20.7726
21.2917
21.7637
22.1079
22.2918
22.3296
22.2752
2.23095
8.62138
10.4479
11.2888
11.6432
13.2563
14.6841
15.9346
16.9524
17.8544
18.5965
19.0901
19.6181
20.132
20.5981
21.0541
21.5473
22.102
22.6901
23.2216
23.5959
23.7864
23.8169
23.756
2.37656
9.85416
11.5107
11.5022
12.6264
14.0126
15.4952
16.8814
18.0928
19.0343
19.7821
20.4539
20.9808
21.4545
21.9376
22.4529
23.0161
23.6349
24.2747
24.8506
25.2588
25.4615
25.4888
25.4238
2.65625
10.8616
11.5275
12.1015
13.6031
15.3483
16.9241
18.2334
19.3295
20.2924
21.0937
21.7283
22.3024
22.8482
23.3922
23.9698
24.6034
25.2936
25.9977
26.6281
27.0735
27.2918
27.3179
27.25
15.3197
12.0517
16.4753
10.5026
15.0483
7.62563
13.0513
9.09367
13.6142
12.0272
11.4643
10.2219
9.36568
8.36766
2.10509
6.79543
2.08947
5.56586
5.70649
5.68755
5.48935
1.47466
6.36534
6.39825
3.35256
2.69226
7.25183
10.1841
6.04669
11.7352
1.43939
4.78139
6.50643
12.7167
10.0105
14.7533
1.8525
12.1727
13.4892
13.1959
27.1553
24.8635
24.4323
22.1655
21.7081
19.3615
18.9011
16.4178
16.1678
13.95
13.7556
12.168
12.0323
10.8659
7.99015
7.33951
7.63995
5.10373
7.22727
7.39347
6.26736
8.3908
9.49504
8.48887
10.4274
9.22302
11.4639
11.7908
12.0523
13.8604
13.5514
15.6465
16.1346
18.3759
19.054
21.1758
22.0834
23.8964
24.8566
26.5128
38.5689
37.1983
36.3025
35.0238
34.0852
32.9037
31.9642
30.8723
29.8922
28.937
28.0285
27.252
26.5595
26.077
25.841
25.2574
24.87
24.7643
23.9904
24.0098
24.2689
24.3531
24.4618
24.8156
24.6563
25.5345
25.8801
26.3333
27.1726
27.6422
28.6217
29.4134
30.3473
31.4809
32.3719
33.7686
34.5866
36.1149
36.8382
38.3837
41.652
40.1093
39.0436
37.5911
36.5835
35.2701
34.3307
33.1419
32.2669
31.178
30.4429
29.5029
28.8957
28.0552
27.5293
27.252
27.005
26.647
26.4826
26.4527
26.2589
26.6629
26.8612
26.7398
27.1881
27.5527
27.9379
28.7078
29.242
30.0098
30.6765
31.5106
32.4451
33.5534
34.703
36.0083
37.1823
38.6047
39.7142
41.2123
44.6691
43.2269
42.0684
40.6952
39.5983
38.3632
37.3702
36.2515
35.3229
34.3042
33.4968
32.7201
32.1093
31.5579
30.9821
30.6284
30.4307
30.2293
29.644
29.6339
29.6347
29.9316
29.9724
30.0662
30.28
30.7778
31.2509
31.8115
32.3891
32.9781
33.6679
34.4383
35.4435
36.5918
37.7861
39.085
40.25
41.6032
42.742
44.1521
45.2347
43.7596
42.5961
41.1682
40.0725
38.8136
37.8546
36.7699
35.8776
34.8706
34.0565
33.2391
32.6378
32.0143
31.4698
31.1737
31.073
30.9337
30.5195
30.4224
30.1516
30.5877
30.5925
30.4904
30.8732
31.328
31.6709
32.347
32.8693
33.5714
34.1453
34.9655
36.0161
37.1886
38.4454
39.6482
40.8251
42.0843
43.2762
44.6589
45.9646
44.5205
43.3521
41.9645
40.7971
39.5718
38.5685
37.547
36.6846
35.7239
34.9438
34.1974
33.6404
33.1366
32.4905
32.1662
32.1513
32.1616
31.5389
31.4082
31.155
31.6333
31.5397
31.5166
31.9426
32.3804
32.8263
33.4396
34.0095
34.6496
35.1719
36.0876
37.1653
38.4112
39.5858
40.68
41.7522
42.9048
44.0698
45.432
45.5067
44.1944
42.9791
41.6472
40.4766
39.2152
38.2488
37.2052
36.4267
35.4797
34.6856
33.9883
33.4274
32.9909
32.371
31.9525
32.0093
32.2512
31.7312
31.4372
30.9048
31.5501
31.4431
31.3924
31.942
32.4343
32.7893
33.4089
34.0314
34.7422
35.3392
36.4478
37.538
38.7964
39.7496
40.6952
41.6136
42.6309
43.8402
45.061
45.4158
43.919
42.8625
41.428
40.3961
39.0874
38.1451
37.1287
36.3361
35.5311
34.6797
34.0914
33.5349
33.1432
32.5705
32.0583
31.9965
32.4253
31.9356
31.5181
30.9227
31.675
31.6526
31.7873
32.412
32.8199
33.0944
33.6615
34.3833
35.1317
35.9803
37.1758
38.171
39.2982
39.9031
40.8769
41.5088
42.7141
43.6603
45.1223
44.9672
43.4692
42.2988
41.0306
39.929
38.8838
37.8302
36.9756
36.0187
35.3374
34.4625
33.8985
33.2939
32.8557
32.4387
31.9311
31.5395
31.8696
31.7165
31.138
30.5186
31.2567
31.5817
31.8762
32.27
32.4979
32.5565
33.0987
33.875
34.6713
35.6494
36.7052
37.6458
38.5051
39.2522
40.2044
41.0314
42.2364
43.243
44.7115
44.9578
43.6338
42.3362
41.1981
40.0526
39.1164
38.1488
37.3387
36.4544
35.6326
34.8926
34.1923
33.5868
33.1573
32.694
32.316
31.6608
31.4051
31.4
31.142
30.9042
31.3317
31.5719
31.6575
31.7787
32.0783
32.2413
32.7624
33.4009
34.156
34.9928
35.9041
36.7402
37.7411
38.6495
39.7931
40.7681
42.0688
43.1399
44.6191
44.5137
43.2264
42.0113
40.8154
39.702
38.5964
37.6213
36.6909
35.9402
35.241
34.5344
33.7205
33.1084
32.9069
32.4548
31.8629
31.7156
31.3803
30.7228
31.1292
30.8213
31.2123
30.713
31.0406
31.2909
31.8474
32.2273
32.5217
33.2689
33.9059
34.6967
35.5136
36.5151
37.5478
38.6215
39.7207
40.7828
41.9785
43.1079
44.4757
44.0651
42.7462
41.5753
40.3834
39.3175
38.2386
37.2547
36.2972
35.4046
34.6743
34.0761
33.5881
32.8263
32.2908
31.9666
31.5832
31.3026
30.4894
30.4951
30.7551
30.2971
30.1077
30.5149
31.063
31.7107
32.3818
32.6659
33.083
33.5577
34.1685
34.8182
35.7642
36.7687
37.8171
38.8036
39.853
40.881
42.0632
43.2308
44.581
43.6079
42.2237
40.9905
39.7701
38.6827
37.6456
36.7215
35.8783
35.0147
34.1117
33.2846
32.7265
32.0691
31.3308
30.7369
30.4014
29.4111
29.8073
30.0146
29.7713
29.8752
29.782
30.8008
30.7435
31.1326
31.1158
31.1743
32.2932
33.0734
33.8114
34.6759
35.7125
36.727
37.7022
38.5359
39.4898
40.3856
41.5407
42.6038
43.9607
43.2521
41.8446
40.6583
39.4233
38.3044
37.0678
35.9051
34.8088
34.0288
33.3075
32.5528
31.8444
31.2583
30.6156
29.9575
29.4805
28.8122
28.8549
28.0902
28.8858
29.0125
29.7221
30.1926
29.6927
29.663
29.5452
30.116
30.6694
31.435
32.2343
33.2426
34.0124
34.7785
35.5375
36.4835
37.5481
38.6969
39.9371
41.1558
42.5172
42.0047
40.4209
39.0185
37.7012
36.5783
35.5462
34.5841
33.6355
32.6829
31.8785
31.2003
30.7732
30.3223
29.6247
28.5522
28.5717
28.1295
27.6224
28.4322
26.9388
27.8358
27.2381
28.7447
28.923
29.3463
29.6813
30.1423
30.6174
31.4732
31.6496
32.3205
32.843
33.7454
34.544
35.6871
36.7856
38.0832
39.3211
40.6187
41.9267
41.1384
39.8142
38.4731
37.2593
36.0405
34.9647
33.8911
32.9502
32.0035
31.1927
30.339
29.6825
29.0321
28.7555
28.1287
27.12
26.5446
26.9621
26.3552
26.519
28.3619
27.5498
28.453
28.2818
28.2366
27.9688
28.7804
28.9919
29.8871
30.4801
31.5714
32.1328
33.2332
33.9807
35.238
36.1975
37.5785
38.7281
40.2207
41.543
42.1673
40.8782
39.4768
38.3349
37.057
36.0657
34.8885
34.0032
32.8959
32.0999
31.0218
30.2484
29.2765
28.9512
28.3423
28.0569
27.1731
26.783
26.0841
24.5113
26.2635
26.9362
27.0198
26.9955
27.7498
28.0058
28.8221
29.316
30.377
30.8971
31.9575
32.489
33.6128
34.2979
35.6667
36.6482
38.2382
39.4039
41.0108
42.2016
41.9444
40.668
39.0531
37.8962
36.4144
35.4807
34.1843
33.4811
32.3287
31.7882
30.7432
30.3097
29.2569
28.7709
27.8482
27.6072
26.7822
26.5339
25.8763
26.0716
26.0881
26.2135
26.5577
26.5243
27.2714
27.2228
28.1298
28.4516
29.4679
29.8646
30.9843
31.6232
32.9429
33.8025
35.208
36.1737
37.6344
38.7165
40.3055
41.5429
40.6416
39.2546
37.4008
36.0041
34.1843
32.9867
31.4599
30.6741
29.5237
29.0904
28.1634
27.9691
27.2529
27.2537
26.5443
26.331
25.0905
24.0637
22.7628
22.8882
22.809
24.1214
24.3901
24.0098
24.5008
24.6466
25.7916
26.3918
27.8619
28.7764
30.315
31.2465
32.7275
33.6551
35.1357
36.132