/*--------------------------------*- C++ -*----------------------------------*\
  =========                 |
  \\      /  F ield         | OpenFOAM: The Open Source CFD Toolbox
   \\    /   O peration     | Website:  https://openfoam.org
    \\  /    A nd           | Version:  6
     \\/     M anipulation  |
\*---------------------------------------------------------------------------*/
FoamFile
{
    version     2.0;
    format      ascii;
    class       volScalarField;
    location    "24";
    object      omega;
}
// * * * * * * * * * * * * * * * * * * * * * * * * * * * * * * * * * * * * * //

dimensions      [0 0 -1 0 0 0 0];

internalField   nonuniform List<scalar> 
380496
(
843.917
843.917
843.917
843.917
843.917
843.917
843.917
843.917
843.917
843.917
843.917
843.917
843.917
843.917
843.917
843.917
843.917
843.917
843.917
843.917
843.917
843.917
843.917
843.917
843.917
843.917
843.917
843.917
843.917
843.917
843.917
843.917
843.917
843.917
843.917
843.917
843.917
843.917
843.917
843.917
843.917
843.917
843.917
843.917
843.917
843.917
843.917
843.917
843.917
843.917
843.917
843.917
843.917
843.917
843.917
843.917
843.917
843.917
843.917
843.917
843.917
843.917
843.917
843.917
843.917
843.917
843.917
843.917
843.917
843.917
843.917
843.917
843.917
843.917
843.917
843.917
843.917
843.917
843.917
843.917
843.917
843.917
843.917
843.917
843.917
843.917
843.917
843.917
843.917
843.917
843.917
843.917
843.917
843.917
843.917
843.917
843.917
843.917
843.917
843.917
843.917
843.917
843.917
843.917
843.917
843.917
843.917
843.917
843.917
843.917
843.917
843.917
843.917
843.917
843.917
843.917
843.917
843.917
843.917
843.917
843.917
843.917
843.917
843.917
843.917
843.917
843.917
843.917
843.917
843.917
843.917
843.917
843.917
843.917
843.917
843.917
843.917
843.917
843.917
843.917
843.917
843.917
843.917
843.917
843.917
843.917
843.917
843.917
843.917
843.917
843.917
843.917
843.917
843.917
843.917
843.917
843.917
843.917
843.917
843.917
843.917
843.917
843.917
843.917
843.917
843.917
843.917
843.917
843.917
843.917
843.917
843.917
843.917
843.917
843.917
843.917
843.917
843.917
843.917
843.917
843.917
843.917
843.917
843.917
843.917
843.917
843.917
843.917
843.917
843.917
843.917
843.917
843.917
843.917
843.917
843.917
843.917
843.917
843.917
843.917
843.917
843.917
843.917
843.917
843.917
843.917
843.917
843.917
843.917
843.917
843.917
843.917
843.917
843.917
843.917
843.917
843.917
843.917
843.917
843.917
843.917
843.917
843.917
843.917
843.917
843.917
843.917
843.917
843.917
843.917
843.917
843.917
843.917
843.917
843.917
843.917
843.917
843.917
843.917
843.917
843.917
843.917
843.917
843.917
843.917
843.917
843.917
843.917
843.917
843.917
843.917
843.917
843.917
843.917
843.917
843.917
843.917
843.917
843.917
843.917
843.917
843.917
843.917
843.917
843.917
843.917
843.917
843.917
843.917
843.917
843.917
843.917
843.917
843.917
843.917
843.917
843.917
843.917
843.917
843.917
843.917
843.917
843.917
843.917
843.917
843.917
843.917
843.917
843.917
843.917
843.917
843.917
843.917
843.917
843.917
843.917
843.917
843.917
843.917
843.917
843.917
843.917
843.917
843.917
843.917
843.917
843.917
843.917
843.917
843.917
843.917
843.917
843.917
843.917
843.917
843.917
843.917
843.917
843.917
843.917
843.917
843.917
843.917
843.917
843.917
843.917
843.917
843.917
843.917
843.917
843.917
843.917
843.917
843.917
843.917
843.917
843.917
843.917
843.917
843.917
843.917
843.917
843.917
843.917
843.917
843.917
843.917
843.917
843.917
843.917
843.917
843.917
843.917
843.917
843.917
843.917
843.917
843.917
843.917
843.917
843.917
843.917
843.917
843.917
843.917
843.917
843.917
843.917
843.917
843.917
843.917
843.917
843.917
843.917
843.917
843.917
843.917
843.917
843.917
843.917
843.917
843.917
843.917
843.917
843.917
843.917
843.917
843.917
843.917
843.917
843.917
843.917
843.917
843.917
843.917
843.917
843.917
843.917
843.917
843.917
843.917
843.917
843.917
843.917
843.917
843.917
843.917
843.917
843.917
843.917
843.917
843.917
843.917
843.917
843.917
843.917
843.917
843.917
843.917
843.917
843.917
843.917
843.917
843.917
843.917
843.917
843.917
843.917
843.917
843.917
843.917
843.917
843.917
843.917
843.917
843.917
843.917
843.917
843.917
843.917
843.917
843.917
843.917
843.917
843.917
843.917
843.917
843.917
843.917
843.917
843.917
843.917
843.917
843.917
843.917
843.917
843.917
843.917
843.917
843.917
843.917
843.917
843.917
843.917
843.917
843.917
843.917
843.917
843.917
843.917
843.917
843.917
843.917
843.917
843.917
843.917
843.917
843.917
843.917
843.917
843.917
843.917
843.917
843.917
843.917
843.917
843.917
843.917
843.917
843.917
843.917
843.917
843.917
843.917
843.917
843.917
843.917
843.917
843.917
843.917
843.917
843.917
843.917
843.917
843.917
843.917
843.917
843.917
843.917
843.917
843.917
843.917
843.917
843.917
843.917
843.917
843.917
843.917
843.917
843.917
843.917
843.917
843.917
843.917
843.917
843.917
843.917
843.917
843.917
843.917
843.917
843.917
843.917
843.917
843.917
843.917
843.917
843.917
843.917
843.917
843.917
843.917
843.917
843.917
843.917
843.917
843.917
843.917
843.917
843.917
843.917
843.917
843.917
843.917
843.917
843.917
843.917
843.917
843.917
843.917
843.917
843.917
843.917
843.917
843.917
843.917
843.917
843.917
843.917
843.917
843.917
843.917
843.917
843.917
843.917
843.917
843.917
843.917
843.917
843.917
843.917
843.917
843.917
843.917
843.917
843.917
843.917
843.917
843.917
843.917
843.917
843.917
843.917
843.917
843.917
843.917
843.917
843.917
843.917
843.917
843.917
843.917
843.917
843.917
843.917
843.917
843.917
843.917
843.917
843.917
843.917
843.917
843.917
843.917
843.917
843.917
843.917
843.917
843.917
843.917
843.917
843.917
843.917
843.917
843.917
843.917
843.917
843.917
843.917
843.917
843.917
843.917
843.917
843.917
843.917
843.917
843.917
843.917
843.917
843.917
843.917
843.917
843.917
843.917
843.917
843.917
843.917
843.917
843.917
843.917
843.917
843.917
843.917
843.917
843.917
843.917
843.917
843.917
843.917
843.917
843.917
843.917
843.917
843.917
843.917
843.917
843.917
843.917
843.917
843.917
843.917
843.917
843.917
843.917
843.917
843.917
843.917
843.917
843.917
843.917
843.917
843.917
843.917
843.917
843.917
843.917
843.917
843.917
843.917
843.917
843.917
843.917
843.917
843.917
843.917
843.917
843.917
843.917
843.917
843.917
423.923
423.923
423.923
423.923
423.923
424.288
423.923
424.315
424.272
424.295
424.32
424.34
424.363
424.382
424.405
424.425
424.45
424.471
424.498
424.521
424.551
424.576
424.609
424.636
424.673
424.702
424.743
424.772
424.819
424.846
424.901
424.921
424.989
424.99
425.072
275.638
262.144
263.673
264.573
264.559
264.419
264.334
264.29
264.266
264.254
264.249
264.25
264.252
264.26
264.267
264.279
264.289
264.306
264.319
264.341
264.358
264.387
264.409
264.445
264.472
264.517
264.551
264.607
264.647
264.714
264.763
264.84
264.893
264.986
265.023
275.378
261.96
263.393
264.253
264.226
264.084
263.996
263.955
263.929
263.923
263.917
263.925
263.928
263.943
263.951
263.972
263.984
264.011
264.027
264.06
264.08
264.121
264.147
264.196
264.228
264.286
264.327
264.394
264.443
264.519
264.575
264.661
264.711
264.831
264.789
274.938
261.625
263.023
263.851
263.812
263.668
263.58
263.542
263.52
263.519
263.519
263.534
263.543
263.566
263.582
263.612
263.633
263.67
263.696
263.74
263.773
263.825
263.866
263.926
263.975
264.047
264.103
264.187
264.251
264.347
264.417
264.526
264.589
264.737
264.71
274.255
261.103
262.54
263.341
263.28
263.131
263.045
263.012
262.997
263.003
263.012
263.034
263.053
263.085
263.11
263.151
263.18
263.229
263.264
263.321
263.363
263.43
263.48
263.558
263.616
263.705
263.772
263.872
263.95
264.06
264.144
264.267
264.342
264.509
264.482
273.787
260.732
262.024
262.77
262.702
262.553
262.469
262.438
262.427
262.438
262.451
262.48
262.504
262.543
262.576
262.624
262.663
262.72
262.766
262.833
262.888
262.965
263.03
263.118
263.193
263.293
263.379
263.491
263.586
263.711
263.811
263.954
264.04
264.236
264.208
272.915
260.038
261.328
262.034
261.947
261.796
261.717
261.695
261.693
261.715
261.739
261.779
261.813
261.864
261.907
261.965
262.016
262.084
262.144
262.221
262.291
262.379
262.459
262.56
262.65
262.765
262.864
262.993
263.101
263.245
263.356
263.519
263.614
263.835
263.806
272.061
259.34
260.531
261.18
261.08
260.929
260.857
260.842
260.85
260.88
260.914
260.962
261.007
261.067
261.119
261.189
261.25
261.33
261.4
261.491
261.571
261.676
261.766
261.885
261.986
262.118
262.23
262.377
262.498
262.659
262.785
262.966
263.074
263.319
263.29
271.026
258.479
259.567
260.157
260.044
259.896
259.832
259.828
259.847
259.889
259.933
259.992
260.047
260.117
260.18
260.26
260.332
260.423
260.506
260.609
260.702
260.819
260.924
261.056
261.172
261.318
261.445
261.606
261.742
261.919
262.059
262.256
262.375
262.643
262.611
269.807
257.456
258.457
258.985
258.857
258.715
258.666
258.677
258.712
258.767
258.825
258.896
258.964
259.045
259.12
259.212
259.296
259.399
259.493
259.609
259.715
259.846
259.964
260.11
260.239
260.4
260.541
260.717
260.867
261.059
261.211
261.426
261.554
261.844
261.81
268.657
256.454
257.277
257.74
257.61
257.478
257.442
257.466
257.512
257.578
257.646
257.727
257.804
257.893
257.978
258.079
258.173
258.286
258.392
258.519
258.636
258.778
258.908
259.067
259.209
259.383
259.536
259.726
259.887
260.093
260.257
260.486
260.623
260.933
260.895
267.087
255.101
255.846
256.251
256.111
255.995
255.985
256.033
256.102
256.187
256.273
256.368
256.46
256.563
256.661
256.774
256.881
257.006
257.124
257.263
257.393
257.549
257.691
257.863
258.018
258.206
258.371
258.575
258.749
258.969
259.144
259.388
259.534
259.862
259.821
265.666
253.803
254.279
254.616
254.485
254.389
254.4
254.465
254.548
254.645
254.742
254.847
254.948
255.06
255.169
255.291
255.409
255.544
255.674
255.824
255.967
256.134
256.289
256.474
256.641
256.842
257.021
257.238
257.424
257.658
257.844
258.103
258.257
258.605
258.557
263.602
251.962
252.321
252.61
252.487
252.426
252.479
252.58
252.695
252.817
252.936
253.059
253.179
253.306
253.43
253.565
253.697
253.846
253.989
254.153
254.309
254.49
254.659
254.857
255.039
255.254
255.446
255.677
255.876
256.124
256.322
256.596
256.758
257.126
257.072
261.657
250.111
250.128
250.362
250.265
250.245
250.335
250.462
250.599
250.738
250.873
251.01
251.143
251.282
251.419
251.566
251.711
251.872
252.028
252.205
252.374
252.568
252.751
252.963
253.158
253.387
253.592
253.838
254.05
254.313
254.523
254.812
254.983
255.371
255.307
258.961
247.586
247.37
247.584
247.529
247.576
247.73
247.906
248.083
248.253
248.415
248.572
248.725
248.88
249.033
249.194
249.355
249.528
249.699
249.888
250.072
250.278
250.475
250.7
250.909
251.153
251.372
251.632
251.858
252.136
252.358
252.663
252.844
253.253
253.18
255.939
244.637
244.052
244.272
244.29
244.421
244.641
244.868
245.083
245.283
245.469
245.645
245.815
245.982
246.149
246.32
246.492
246.674
246.857
247.055
247.251
247.468
247.679
247.916
248.14
248.397
248.631
248.907
249.147
249.442
249.679
250.001
250.195
250.626
250.547
252.317
240.988
239.927
240.186
240.311
240.557
240.862
241.145
241.394
241.616
241.812
241.995
242.167
242.336
242.504
242.676
242.852
243.037
243.228
243.434
243.643
243.871
244.098
244.349
244.593
244.867
245.123
245.418
245.681
245.996
246.257
246.601
246.82
247.274
247.21
246.448
235.384
234.178
234.679
234.989
235.387
235.784
236.121
236.391
236.625
236.818
237.001
237.168
237.342
237.512
237.698
237.886
238.093
238.305
238.538
238.775
239.034
239.295
239.58
239.861
240.169
240.464
240.794
241.097
241.447
241.746
242.121
242.382
242.856
242.841
238.155
227.579
225.862
226.733
227.334
227.911
228.379
228.738
229.006
229.248
229.451
229.666
229.864
230.088
230.303
230.549
230.788
231.059
231.325
231.622
231.915
232.236
232.555
232.899
233.239
233.604
233.96
234.343
234.707
235.105
235.468
235.886
236.218
236.719
236.839
218.095
211.367
210.037
211.657
212.786
213.68
214.36
214.896
215.336
215.74
216.089
216.437
216.749
217.081
217.384
217.719
218.032
218.387
218.722
219.103
219.464
219.869
220.257
220.687
221.102
221.551
221.987
222.449
222.899
223.366
223.82
224.283
224.718
225.12
225.373
9.50423
8.83565
9.16121
9.29923
9.37671
9.4257
9.47066
9.50553
9.53636
9.57158
9.61551
9.64926
9.69255
9.72569
9.7709
9.80578
9.85458
9.89239
9.94552
9.98661
10.0444
10.0886
10.1517
10.1986
10.2678
10.3155
10.3927
10.4378
10.526
10.5625
10.6675
10.6848
10.8159
10.7937
10.9556
133.59
127.215
127.094
127.666
127.852
127.834
127.782
127.738
127.708
127.688
127.675
127.669
127.666
127.666
127.67
127.675
127.683
127.692
127.704
127.717
127.732
127.75
127.77
127.792
127.819
127.847
127.882
127.916
127.96
128.003
128.056
128.113
128.171
128.258
128.307
133.311
126.951
126.79
127.334
127.509
127.487
127.432
127.389
127.358
127.339
127.328
127.324
127.323
127.327
127.333
127.343
127.354
127.368
127.383
127.401
127.422
127.445
127.471
127.499
127.533
127.566
127.608
127.647
127.699
127.746
127.809
127.863
127.933
128.009
128.051
132.938
126.595
126.417
126.943
127.109
127.085
127.028
126.985
126.956
126.941
126.933
126.933
126.936
126.945
126.956
126.972
126.988
127.009
127.031
127.056
127.085
127.115
127.15
127.186
127.228
127.271
127.323
127.372
127.434
127.49
127.565
127.63
127.711
127.804
127.85
132.435
126.122
125.96
126.48
126.635
126.605
126.547
126.505
126.479
126.468
126.465
126.47
126.479
126.494
126.511
126.533
126.556
126.583
126.612
126.644
126.679
126.717
126.76
126.804
126.854
126.905
126.964
127.022
127.092
127.157
127.237
127.311
127.395
127.497
127.544
132.014
125.739
125.522
126
126.14
126.104
126.044
126.002
125.977
125.967
125.966
125.975
125.987
126.006
126.027
126.053
126.081
126.113
126.147
126.185
126.227
126.271
126.32
126.372
126.429
126.488
126.555
126.621
126.698
126.771
126.86
126.942
127.034
127.144
127.199
131.387
125.155
124.944
125.405
125.53
125.487
125.426
125.386
125.365
125.362
125.367
125.382
125.4
125.425
125.453
125.485
125.52
125.559
125.6
125.645
125.694
125.745
125.802
125.861
125.926
125.992
126.067
126.14
126.225
126.306
126.401
126.49
126.586
126.705
126.76
130.745
124.568
124.324
124.747
124.852
124.801
124.739
124.701
124.684
124.685
124.695
124.715
124.739
124.769
124.802
124.841
124.881
124.926
124.973
125.025
125.08
125.139
125.202
125.268
125.341
125.414
125.496
125.577
125.67
125.757
125.859
125.957
126.057
126.185
126.241
129.997
123.88
123.603
123.985
124.068
124.01
123.947
123.913
123.9
123.907
123.923
123.949
123.979
124.015
124.054
124.098
124.145
124.196
124.249
124.308
124.369
124.435
124.505
124.578
124.657
124.739
124.827
124.916
125.014
125.109
125.217
125.322
125.425
125.562
125.618
129.152
123.104
122.799
123.139
123.199
123.132
123.07
123.041
123.036
123.05
123.074
123.108
123.145
123.189
123.234
123.285
123.338
123.395
123.455
123.52
123.588
123.661
123.738
123.818
123.904
123.992
124.088
124.183
124.288
124.39
124.504
124.615
124.723
124.869
124.923
128.333
122.355
121.978
122.26
122.296
122.222
122.163
122.139
122.141
122.161
122.191
122.23
122.273
122.322
122.373
122.429
122.487
122.55
122.616
122.686
122.76
122.839
122.921
123.008
123.1
123.195
123.296
123.398
123.509
123.617
123.735
123.853
123.964
124.118
124.171
127.304
121.401
120.996
121.234
121.245
121.165
121.112
121.098
121.111
121.143
121.184
121.232
121.284
121.341
121.399
121.463
121.528
121.598
121.67
121.748
121.828
121.913
122.003
122.096
122.195
122.296
122.404
122.512
122.629
122.743
122.867
122.992
123.106
123.268
123.319
126.312
120.489
119.958
120.117
120.1
120.017
119.97
119.966
119.988
120.028
120.076
120.131
120.189
120.252
120.317
120.386
120.457
120.533
120.611
120.694
120.781
120.873
120.968
121.068
121.173
121.281
121.395
121.51
121.633
121.754
121.883
122.014
122.131
122.303
122.351
125.004
119.264
118.671
118.778
118.737
118.654
118.621
118.634
118.674
118.729
118.792
118.859
118.928
119.001
119.074
119.152
119.231
119.314
119.4
119.491
119.585
119.684
119.787
119.894
120.006
120.121
120.242
120.364
120.494
120.621
120.757
120.895
121.016
121.197
121.241
123.705
118.045
117.265
117.276
117.207
117.129
117.114
117.143
117.198
117.266
117.34
117.418
117.496
117.577
117.658
117.743
117.829
117.92
118.013
118.111
118.212
118.318
118.427
118.542
118.661
118.783
118.911
119.04
119.176
119.311
119.453
119.598
119.723
119.915
119.953
122.019
116.445
115.512
115.453
115.364
115.301
115.313
115.371
115.45
115.539
115.631
115.723
115.814
115.906
115.997
116.091
116.186
116.285
116.386
116.491
116.599
116.713
116.83
116.952
117.078
117.208
117.343
117.479
117.623
117.765
117.914
118.067
118.197
118.4
118.434
120.108
114.604
113.423
113.275
113.175
113.137
113.184
113.274
113.38
113.491
113.601
113.707
113.811
113.912
114.013
114.115
114.217
114.322
114.429
114.541
114.656
114.776
114.9
115.028
115.162
115.299
115.441
115.585
115.737
115.887
116.043
116.205
116.341
116.556
116.585
117.825
112.372
110.841
110.583
110.476
110.478
110.574
110.704
110.84
110.973
111.097
111.214
111.324
111.431
111.537
111.642
111.748
111.857
111.968
112.085
112.205
112.332
112.462
112.599
112.74
112.887
113.039
113.194
113.356
113.517
113.685
113.858
114.006
114.237
114.273
114.184
108.832
107.096
106.874
106.837
106.924
107.089
107.27
107.438
107.594
107.729
107.855
107.968
108.079
108.186
108.296
108.408
108.525
108.647
108.775
108.909
109.05
109.197
109.35
109.51
109.675
109.846
110.02
110.202
110.382
110.57
110.761
110.932
111.176
111.228
108.727
103.939
101.682
101.432
101.489
101.683
101.915
102.133
102.312
102.478
102.619
102.763
102.894
103.036
103.171
103.319
103.465
103.623
103.781
103.95
104.121
104.302
104.485
104.677
104.873
105.075
105.281
105.49
105.706
105.92
106.142
106.364
106.574
106.844
106.964
94.0524
94.1823
91.3701
90.7408
90.7687
91.0938
91.5102
91.9158
92.2901
92.6446
92.966
93.2733
93.5515
93.8231
94.0719
94.3214
94.5559
94.7971
95.0278
95.265
95.4926
95.729
95.9612
96.2035
96.444
96.6929
96.941
97.1946
97.4494
97.7033
97.966
98.2055
98.4895
98.6497
98.9519
11.5219
10.7696
11.096
11.221
11.3001
11.3518
11.4004
11.4365
11.4739
11.506
11.5486
11.5799
11.623
11.6546
11.7005
11.7343
11.7844
11.8214
11.8762
11.9166
11.9762
12.0198
12.0848
12.1307
12.202
12.2482
12.3275
12.3702
12.4608
12.4938
12.6014
12.6143
12.7478
12.7215
12.8852
79.3734
76.7491
76.2134
76.3798
76.5396
76.5869
76.5787
76.5549
76.5314
76.5121
76.4977
76.487
76.4803
76.4757
76.4743
76.4738
76.4764
76.4786
76.4846
76.4889
76.4981
76.5042
76.517
76.5248
76.5418
76.5513
76.5732
76.5854
76.6116
76.6297
76.657
76.6897
76.7081
76.7732
76.7673
79.1304
76.5262
75.9807
76.1315
76.2815
76.3232
76.3122
76.2863
76.2623
76.2424
76.2291
76.2187
76.2141
76.2103
76.2119
76.2123
76.2185
76.222
76.2321
76.2378
76.2519
76.2595
76.2777
76.2872
76.31
76.3217
76.3496
76.3635
76.3979
76.4135
76.4561
76.473
76.523
76.5433
76.6005
78.8429
76.2491
75.6996
75.841
75.9839
76.0211
76.0075
75.9804
75.9563
75.937
75.925
75.9163
75.9139
75.9126
75.9169
75.9203
75.9297
75.9367
75.9503
75.9602
75.978
75.9905
76.0127
76.0274
76.0551
76.0716
76.1059
76.1239
76.1661
76.1856
76.236
76.26
76.3126
76.3534
76.394
78.4941
75.9018
75.3599
75.5004
75.6382
75.6707
75.654
75.6256
75.6017
75.5837
75.5738
75.5677
75.5682
75.57
75.5779
75.5847
75.5982
75.6085
75.6269
75.64
75.6633
75.6788
75.7073
75.7251
75.7591
75.7796
75.8193
75.8427
75.889
75.9151
75.9682
75.9987
76.0542
76.0965
76.1458
78.1501
75.5902
75.0361
75.1538
75.276
75.3
75.2786
75.248
75.2231
75.2053
75.196
75.1914
75.1935
75.1974
75.2072
75.2167
75.2325
75.2461
75.267
75.2841
75.3099
75.3301
75.361
75.3844
75.4209
75.4472
75.4902
75.5187
75.5697
75.5995
75.6596
75.6915
75.7564
75.7985
75.8593
77.7112
75.162
74.6156
74.7272
74.8399
74.8565
74.8309
74.7988
74.7744
74.7583
74.7516
74.75
74.7554
74.7629
74.7763
74.7897
74.8091
74.827
74.8514
74.8731
74.9026
74.9276
74.9626
74.9906
75.0317
75.0622
75.1105
75.1426
75.1995
75.2325
75.2981
75.3334
75.4022
75.4483
75.5111
77.2391
74.7181
74.1676
74.2598
74.3559
74.3621
74.331
74.297
74.2725
74.2578
74.2532
74.2543
74.2625
74.2731
74.2897
74.3063
74.3292
74.3503
74.3787
74.4035
74.4375
74.4656
74.5054
74.5366
74.5829
74.6166
74.6702
74.7058
74.7675
74.8045
74.8744
74.914
74.9867
75.0367
75.104
76.6972
74.2067
73.6529
73.7238
73.8012
73.7957
73.7588
73.723
73.6991
73.6865
73.6845
73.6888
73.7003
73.7144
73.7344
73.7547
73.781
73.806
73.8379
73.8667
73.9043
73.9367
73.9803
74.0159
74.066
74.1043
74.1618
74.2019
74.2676
74.3088
74.3827
74.4262
74.5023
74.5557
74.6259
76.0999
73.6405
73.0851
73.1342
73.191
73.1723
73.1295
73.0926
73.0702
73.0607
73.0624
73.0708
73.0864
73.1046
73.1286
73.1528
73.1831
73.2119
73.2478
73.2805
73.3221
73.3583
73.4062
73.4456
73.5001
73.5422
73.6043
73.648
73.7184
73.763
73.8414
73.8882
73.9682
74.025
74.0983
75.4988
73.0835
72.509
72.5232
72.5547
72.5223
72.4742
72.4367
72.416
72.4094
72.4145
72.4264
72.4454
72.4672
72.4945
72.5222
72.5558
72.588
72.6273
72.6635
72.7086
72.7484
72.7999
72.8429
72.9013
72.947
73.013
73.0602
73.1347
73.1825
73.2649
73.3148
73.398
73.4582
73.5334
74.7877
72.4069
71.8275
71.8171
71.8252
71.7785
71.7255
71.6888
71.6717
71.6701
71.6805
71.6979
71.7221
71.7488
71.7808
71.8131
71.8509
71.8874
71.9308
71.9711
72.0204
72.0642
72.1198
72.1668
72.2294
72.279
72.3493
72.4002
72.4789
72.5303
72.6167
72.6702
72.7566
72.8207
72.8977
74.0535
71.7341
71.1101
71.0453
71.0185
70.9556
70.8985
70.8634
70.8503
70.8536
70.8689
70.8911
70.9197
70.9508
70.9868
71.0232
71.0648
71.1052
71.1523
71.1965
71.2496
71.2973
71.3569
71.4078
71.4745
71.5279
71.6024
71.6571
71.7401
71.7951
71.8856
71.9427
72.0322
72.1006
72.1788
73.1494
70.8786
70.2307
70.1295
70.0732
69.9955
69.936
69.9051
69.8989
69.91
69.9329
69.9625
69.9978
70.0352
70.0769
70.1189
70.1656
70.2112
70.263
70.312
70.3697
70.4221
70.4862
70.5416
70.6129
70.6706
70.7499
70.8087
70.8964
70.9552
71.0504
71.1114
71.2045
71.2777
71.357
72.1923
69.9974
69.2694
69.0937
68.9938
68.8996
68.8397
68.8149
68.8168
68.8365
68.8673
68.9043
68.9461
68.9897
69.0369
69.0843
69.1359
69.1863
69.2428
69.2964
69.3585
69.4154
69.484
69.5438
69.6198
69.6818
69.7659
69.8287
69.9216
69.9842
70.0843
70.1491
70.2461
70.3245
70.4041
71.0025
68.881
68.0803
67.8421
67.7033
67.5955
67.539
67.5244
67.5384
67.5699
67.6114
67.658
67.708
67.7593
67.8131
67.8668
67.9239
67.98
68.0414
68.1003
68.1672
68.229
68.3024
68.367
68.448
68.5145
68.6039
68.671
68.7694
68.836
68.9419
69.0108
69.1127
69.1971
69.2785
69.6099
67.5791
66.6556
66.3306
66.147
66.0288
65.9802
65.9794
66.0079
66.0528
66.1059
66.1625
66.221
66.2798
66.3397
66.3993
66.4614
66.5226
66.5884
66.6522
66.7233
66.7901
66.8679
66.9375
67.0232
67.0946
67.1893
67.2612
67.3656
67.4367
67.5492
67.6224
67.7306
67.8204
67.9043
67.9186
65.9889
64.882
64.4394
64.1988
64.0705
64.034
64.0508
64.0961
64.1549
64.2191
64.2844
64.3497
64.4142
64.4789
64.5432
64.6092
64.6749
64.7444
64.813
64.8881
64.9604
65.0428
65.1185
65.2097
65.2879
65.3889
65.4678
65.5797
65.6575
65.779
65.8584
65.9772
66.0746
66.1698
65.3965
63.5126
62.2588
61.7692
61.5195
61.409
61.3991
61.4407
61.506
61.5804
61.6562
61.73
61.8019
61.8718
61.9416
62.0111
62.0829
62.1554
62.2322
62.3097
62.3935
62.4767
62.5691
62.6574
62.7594
62.8512
62.964
63.0568
63.1814
63.2726
63.4082
63.499
63.6345
63.7396
63.8516
61.5623
60.0531
58.4392
57.7749
57.4766
57.38
57.4013
57.4699
57.558
57.651
57.7468
57.8409
57.9374
58.0321
58.1308
58.2282
58.3307
58.4323
58.5395
58.6459
58.7585
58.87
58.9887
59.1048
59.2304
59.3498
59.4834
59.6035
59.7468
59.8643
60.0182
60.1325
60.2915
60.4148
60.5694
52.9315
55.1642
53.2042
51.9869
51.3896
51.1882
51.2128
51.3257
51.487
51.6575
51.8419
52.0159
52.1956
52.3588
52.5281
52.6794
52.84
52.9832
53.1376
53.274
53.4218
53.5541
53.699
53.8324
53.9771
54.1139
54.2596
54.399
54.5482
54.6849
54.8459
54.9617
55.1602
55.2054
55.4715
13.0788
12.358
12.7412
12.8832
12.967
13.0168
13.0623
13.0938
13.1306
13.1574
13.1966
13.2235
13.265
13.2934
13.3388
13.3702
13.4207
13.4558
13.5116
13.5505
13.6116
13.6539
13.7207
13.7654
13.8388
13.8835
13.9652
14.0062
14.0994
14.1304
14.2406
14.2515
14.3869
14.3609
14.5243
52.7832
51.7578
51.3203
51.2782
51.3467
51.3941
51.408
51.4021
51.3892
51.3749
51.3624
51.3514
51.3434
51.3363
51.3325
51.3282
51.3278
51.3255
51.3281
51.3269
51.3321
51.3315
51.3395
51.3391
51.35
51.3496
51.3633
51.3641
51.3784
51.3847
51.394
51.4154
51.4081
51.4612
51.4215
52.5867
51.5747
51.1396
51.0912
51.1538
51.196
51.2073
51.1983
51.1851
51.1688
51.1575
51.1451
51.1393
51.1312
51.1302
51.1252
51.1283
51.1252
51.1318
51.1297
51.1396
51.1381
51.1512
51.1501
51.1663
51.1654
51.1852
51.184
51.2083
51.2059
51.2366
51.2306
51.2709
51.2545
51.3182
52.3671
51.3604
50.9262
50.8741
50.9322
50.9705
50.979
50.9678
50.9534
50.9364
50.9251
50.9129
50.9079
50.9006
50.901
50.8972
50.9019
50.9005
50.9087
50.9091
50.9205
50.9219
50.9368
50.9383
50.9575
50.9583
50.9826
50.9823
51.012
51.011
51.0454
51.0466
51.0812
51.0909
51.1215
52.1144
51.1046
50.674
50.6226
50.6789
50.714
50.7196
50.7063
50.6907
50.6734
50.6623
50.651
50.6472
50.6412
50.6436
50.6411
50.6487
50.6484
50.6603
50.6613
50.6773
50.679
50.6989
50.7013
50.725
50.7279
50.7554
50.759
50.7906
50.7946
50.8304
50.8353
50.8741
50.8801
50.9249
51.844
50.8526
50.4247
50.3646
50.4106
50.438
50.4382
50.4216
50.4038
50.3856
50.3741
50.363
50.3597
50.3547
50.3579
50.3571
50.3655
50.3674
50.38
50.3839
50.4003
50.4058
50.4259
50.4323
50.4565
50.4634
50.4923
50.4986
50.5338
50.5383
50.5807
50.5835
50.6314
50.6344
50.6889
51.5236
50.5345
50.1128
50.0522
50.0935
50.1152
50.1109
50.0912
50.072
50.053
50.042
50.0317
50.0297
50.0264
50.0312
50.0327
50.0426
50.0474
50.0615
50.0686
50.0867
50.0952
50.1175
50.1267
50.1539
50.1627
50.1958
50.2033
50.2433
50.2488
50.2956
50.3001
50.351
50.3566
50.4123
51.1696
50.1936
49.7765
49.7091
49.7402
49.753
49.7422
49.7188
49.6974
49.6778
49.6669
49.6575
49.6567
49.6548
49.6614
49.6643
49.6766
49.6825
49.6996
49.7076
49.7291
49.7384
49.7645
49.7745
49.8056
49.8155
49.8524
49.8614
49.9048
49.9123
49.9623
49.9688
50.0232
50.0301
50.0906
50.7657
49.8042
49.3929
49.318
49.3373
49.3397
49.3217
49.2939
49.2704
49.2504
49.2398
49.2316
49.2321
49.2321
49.2404
49.2455
49.2596
49.268
49.2869
49.2975
49.321
49.333
49.3612
49.374
49.4074
49.4202
49.4595
49.4713
49.5173
49.5273
49.5804
49.5889
49.6465
49.6547
49.7186
50.3251
49.3784
48.9731
48.8904
48.8966
48.8874
48.8612
48.829
48.8034
48.7832
48.7734
48.7668
48.7691
48.7711
48.7816
48.7889
48.8053
48.8159
48.8372
48.85
48.8761
48.8902
48.9212
48.936
48.9724
48.9871
49.0297
49.0432
49.0929
49.1043
49.1611
49.1709
49.2323
49.2415
49.3091
49.8716
48.9497
48.5449
48.4466
48.4346
48.4115
48.3768
48.3405
48.3134
48.2935
48.2847
48.2798
48.284
48.2881
48.3007
48.3101
48.3286
48.3413
48.3649
48.3797
48.4081
48.4243
48.4578
48.4747
48.5138
48.5304
48.5759
48.5913
48.644
48.6571
48.7171
48.7285
48.7928
48.8036
48.8739
49.3498
48.4479
48.0479
47.9395
47.9116
47.8746
47.8309
47.7902
47.7615
47.7422
47.7349
47.7323
47.7388
47.7456
47.7607
47.7728
47.7938
47.8091
47.8351
47.8524
47.8834
47.902
47.9382
47.9574
47.9993
48.0182
48.0667
48.0842
48.1401
48.1551
48.2184
48.2316
48.2989
48.3114
48.3844
48.7893
47.9266
47.5169
47.3802
47.3246
47.2688
47.2153
47.171
47.1419
47.1242
47.1192
47.1195
47.1288
47.1387
47.1564
47.1714
47.195
47.2129
47.2415
47.2614
47.2949
47.316
47.3549
47.3765
47.4213
47.4425
47.4941
47.5136
47.5728
47.5898
47.6563
47.6715
47.7418
47.7563
47.8317
48.1201
47.293
46.8806
46.7253
46.6467
46.5732
46.5096
46.4614
46.4318
46.4162
46.4139
46.4177
46.4302
46.4437
46.4647
46.4831
46.5097
46.5309
46.5625
46.5855
46.622
46.646
46.6879
46.7122
46.7603
46.7839
46.839
46.8608
46.9237
46.9428
47.013
47.0302
47.1038
47.1208
47.1988
47.384
46.6132
46.1743
45.9756
45.8588
45.7621
45.6882
45.638
45.6101
45.5984
45.6003
45.6089
45.6256
45.6435
45.6681
45.6904
45.7203
45.7449
45.7795
45.8056
45.8451
45.872
45.917
45.944
45.9954
46.0215
46.0802
46.1042
46.1711
46.1921
46.2665
46.2856
46.3629
46.3822
46.4628
46.4841
45.7767
45.3134
45.0764
44.9236
44.8041
44.72
44.6679
44.642
44.6348
44.6411
44.6549
44.6758
44.6983
44.7265
44.7529
44.7859
44.8143
44.8518
44.8814
44.9238
44.9539
45.0022
45.0321
45.0871
45.1159
45.1786
45.205
45.2764
45.2994
45.3787
45.3998
45.4818
45.5037
45.5885
45.4148
44.7866
44.275
43.9805
43.7815
43.6367
43.5436
43.4914
43.4691
43.4673
43.4786
43.4978
43.5228
43.55
43.5813
43.6118
43.6474
43.6796
43.7195
43.7528
43.7978
43.8316
43.8827
43.9163
43.9746
44.0068
44.0736
44.103
44.1792
44.2048
44.2897
44.3129
44.4009
44.425
44.5151
44.1001
43.5679
42.9759
42.5983
42.3372
42.1594
42.0547
42.0009
41.9816
41.984
41.9998
42.0233
42.052
42.0833
42.1176
42.1524
42.1908
42.2277
42.2702
42.3086
42.3563
42.3956
42.4497
42.489
42.5509
42.5889
42.6601
42.695
42.7768
42.8071
42.899
42.9261
43.0228
43.0506
43.152
42.3715
41.8215
41.1163
40.6655
40.3556
40.1518
40.0391
39.9835
39.9685
39.9749
39.9974
40.026
40.0614
40.098
40.1388
40.1794
40.224
40.2678
40.3166
40.3633
40.4172
40.4662
40.5265
40.5766
40.6448
40.6942
40.772
40.8182
40.9073
40.9481
41.0488
41.0844
41.1924
41.2252
41.3405
39.7933
39.442
38.4703
37.8254
37.4173
37.1809
37.0766
37.0385
37.051
37.0791
37.1297
37.1786
37.2415
37.2976
37.3652
37.4249
37.495
37.5575
37.6293
37.6943
37.768
37.8354
37.9116
37.9807
38.0607
38.1301
38.2158
38.283
38.377
38.439
38.5436
38.5984
38.7135
38.7629
38.8938
35.627
38.2627
37.0517
35.8411
35.0303
34.5623
34.3387
34.2392
34.229
34.2504
34.3132
34.3751
34.4635
34.5376
34.6339
34.7097
34.8069
34.8808
34.9759
35.047
35.1379
35.2071
35.294
35.3639
35.448
35.5203
35.6027
35.6769
35.7608
35.8319
35.9262
35.9801
36.1043
36.1157
36.287
14.3882
13.784
14.2555
14.4353
14.5281
14.5734
14.6112
14.6326
14.663
14.6811
14.7143
14.7341
14.7718
14.7948
14.8382
14.8653
14.9149
14.9464
15.0022
15.038
15.0997
15.1393
15.2073
15.2494
15.3242
15.3667
15.45
15.4888
15.5836
15.6127
15.7242
15.7345
15.8694
15.8467
16.0057
37.6296
37.229
36.9732
36.8768
36.8772
36.8995
36.9144
36.9171
36.9126
36.904
36.8952
36.8858
36.8785
36.8708
36.8663
36.8602
36.8584
36.8534
36.8543
36.8498
36.853
36.8485
36.854
36.8489
36.8567
36.8511
36.8603
36.8557
36.8633
36.8643
36.8641
36.8794
36.8614