/*--------------------------------*- C++ -*----------------------------------*\
  =========                 |
  \\      /  F ield         | OpenFOAM: The Open Source CFD Toolbox
   \\    /   O peration     | Website:  https://openfoam.org
    \\  /    A nd           | Version:  6
     \\/     M anipulation  |
\*---------------------------------------------------------------------------*/
FoamFile
{
    version     2.0;
    format      ascii;
    class       volVectorField;
    location    "24";
    object      wallShearStress;
}
// * * * * * * * * * * * * * * * * * * * * * * * * * * * * * * * * * * * * * //

dimensions      [0 2 -2 0 0 0 0];

internalField   uniform (0 0 0);

boundaryField
{
    inlet
    {
        type            calculated;
        value           uniform (0 0 0);
    }
    outlet
    {
        type            calculated;
        value           uniform (0 0 0);
    }
    roughCylinder
    {
        type            calculated;
        value           nonuniform List<vector> 
3840
(
(-0.000377973 -0.000546158 -0.000230609)
(-0.00032864 -0.000500454 -1.73321e-05)
(-0.000365243 -0.000579008 4.11154e-05)
(-0.000452012 -0.000683903 0.000110027)
(-0.000544291 -0.000755134 0.000175898)
(-0.000635196 -0.000794679 0.000231562)
(-0.000717693 -0.000808019 0.000274053)
(-0.000789669 -0.00080904 0.000303835)
(-0.000851239 -0.000812079 0.000323506)
(-0.000899894 -0.0008206 0.000332804)
(-0.000940088 -0.000836645 0.000333633)
(-0.000974191 -0.00085872 0.000328563)
(-0.00100573 -0.000885161 0.000319812)
(-0.0010377 -0.000914794 0.000308847)
(-0.00107173 -0.000946957 0.00029628)
(-0.00110843 -0.000981368 0.000282219)
(-0.0011479 -0.00101794 0.000266553)
(-0.00118982 -0.00105634 0.000248979)
(-0.00123362 -0.00109601 0.000228921)
(-0.00127845 -0.00113605 0.000205367)
(-0.0013229 -0.00117509 0.000176486)
(-0.00136474 -0.0012111 0.000139683)
(-0.00139965 -0.00124105 9.09974e-05)
(-0.00142065 -0.00125954 3.13688e-05)
(-0.000418816 -0.000551989 -0.00023627)
(-0.000349554 -0.000489195 -2.17226e-05)
(-0.00038359 -0.000561803 3.33937e-05)
(-0.00047277 -0.000667223 9.91361e-05)
(-0.000567515 -0.00074063 0.000163209)
(-0.0006614 -0.000783446 0.000218021)
(-0.000747905 -0.000801321 0.000260693)
(-0.000825185 -0.000807345 0.000292105)
(-0.000892 -0.000812197 0.000313804)
(-0.000943255 -0.000818723 0.000323815)
(-0.000985238 -0.000833494 0.00032493)
(-0.00102131 -0.000854853 0.00032008)
(-0.00105479 -0.000880891 0.000311511)
(-0.00108853 -0.000910114 0.000300717)
(-0.00112437 -0.000941894 0.000288406)
(-0.0011631 -0.000976027 0.000274747)
(-0.00120461 -0.00101221 0.00025957)
(-0.00124861 -0.00105017 0.000242578)
(-0.0012945 -0.00108932 0.000223181)
(-0.00134138 -0.00112881 0.000200367)
(-0.0013878 -0.00116728 0.000172315)
(-0.00143144 -0.00120275 0.000136457)
(-0.00146784 -0.00123225 8.89139e-05)
(-0.00148972 -0.00125045 3.06443e-05)
(-0.000401796 -0.00047962 -0.000199882)
(-0.000375516 -0.000475732 -2.74956e-05)
(-0.000401171 -0.000539906 2.48957e-05)
(-0.000491786 -0.000643821 8.72585e-05)
(-0.000588882 -0.000719434 0.000149456)
(-0.000685686 -0.000765756 0.000203546)
(-0.000776718 -0.000788846 0.000246863)
(-0.000859283 -0.000799876 0.000279846)
(-0.00093068 -0.000806926 0.000302953)
(-0.000985303 -0.000811651 0.000313663)
(-0.00102952 -0.000825234 0.000315335)
(-0.0010676 -0.000845569 0.00031074)
(-0.00110287 -0.000870778 0.000302378)
(-0.00113855 -0.00089947 0.000291866)
(-0.00117637 -0.000930756 0.000279923)
(-0.0012169 -0.000964195 0.000266676)
(-0.00126036 -0.000999707 0.000252041)
(-0.00130634 -0.00103692 0.000235685)
(-0.00135425 -0.00107531 0.000217014)
(-0.00140309 -0.00111397 0.000195002)
(-0.00145138 -0.00115161 0.00016784)
(-0.00149672 -0.00118629 0.000132998)
(-0.00153452 -0.00121514 8.66814e-05)
(-0.00155721 -0.00123291 2.98689e-05)
(-0.000564031 -0.000603644 -0.000244874)
(-0.000395728 -0.000456166 -3.26148e-05)
(-0.000414559 -0.000511272 1.60507e-05)
(-0.000505989 -0.000614145 7.45166e-05)
(-0.00060533 -0.000692038 0.000134659)
(-0.000705807 -0.000742911 0.000188166)
(-0.000801453 -0.000771456 0.000232233)
(-0.000888938 -0.000787062 0.000266635)
(-0.000964369 -0.000795921 0.0002907)
(-0.00102431 -0.000801098 0.000302791)
(-0.00107058 -0.000812608 0.000304957)
(-0.00111076 -0.00083167 0.000300705)
(-0.0011482 -0.000856089 0.000292729)
(-0.0011857 -0.000883935 0.000282546)
(-0.00122525 -0.00091437 0.000270986)
(-0.00126782 -0.000947152 0.000258286)
(-0.0013132 -0.000981841 0.00024426)
(-0.00136111 -0.00101816 0.000228599)
(-0.00141086 -0.00105552 0.000210689)
(-0.0014615 -0.00109312 0.000189512)
(-0.00151149 -0.00112971 0.000163268)
(-0.00155836 -0.00116339 0.000129467)
(-0.00159741 -0.00119142 8.44052e-05)
(-0.00162083 -0.00120865 2.90797e-05)
(-0.000483745 -0.000463701 -0.000180918)
(-0.000411205 -0.000429874 -3.74483e-05)
(-0.000424142 -0.000479036 6.89187e-06)
(-0.000515058 -0.000579594 6.13321e-05)
(-0.000616689 -0.000659751 0.000119151)
(-0.000720238 -0.000714522 0.000171704)
(-0.000820448 -0.000748443 0.000216374)
(-0.000912855 -0.000768518 0.000252119)
(-0.000993303 -0.000779965 0.000277402)
(-0.00105768 -0.000785728 0.000290667)
(-0.0011077 -0.000795338 0.000293721)
(-0.00115025 -0.000813053 0.000290057)
(-0.00118959 -0.000836084 0.000282479)
(-0.00122915 -0.000862999 0.00027278)
(-0.00127075 -0.00089264 0.000261771)
(-0.00131493 -0.000924292 0.00024961)
(-0.00136205 -0.000957883 0.00023624)
(-0.00141166 -0.000993016 0.000221314)
(-0.00146315 -0.00102918 0.000204218)
(-0.00151544 -0.0010655 0.000183913)
(-0.00156695 -0.00110081 0.000158617)
(-0.00161518 -0.00113329 0.000125881)
(-0.00165536 -0.00116032 8.20976e-05)
(-0.00167941 -0.00117692 2.82811e-05)
(-0.000587094 -0.000501249 -0.000187252)
(-0.000422454 -0.000400363 -4.20684e-05)
(-0.000427835 -0.000442218 -2.08584e-06)
(-0.000517574 -0.000540205 4.77708e-05)
(-0.000620928 -0.000622094 0.000102748)
(-0.000728489 -0.000681648 0.000154246)
(-0.000833357 -0.000720748 0.000199302)
(-0.000930532 -0.000744833 0.000236189)
(-0.00101498 -0.000757958 0.000262466)
(-0.00108512 -0.000765686 0.000277216)
(-0.00114003 -0.000774274 0.000281491)
(-0.00118509 -0.000789541 0.000278543)
(-0.00122705 -0.00081141 0.000271675)
(-0.00126858 -0.000837015 0.000262547)
(-0.00131177 -0.000865285 0.000252096)
(-0.00135798 -0.000895919 0.000240655)
(-0.00140687 -0.000928293 0.000228033)
(-0.00145819 -0.000962112 0.000213913)
(-0.00151119 -0.000996803 0.000197661)
(-0.00156491 -0.00103162 0.000178256)
(-0.00161775 -0.00106542 0.000153928)
(-0.00166717 -0.00109649 0.000122269)
(-0.00170831 -0.00112234 7.97763e-05)
(-0.00173287 -0.00113822 2.74793e-05)
(-0.000557042 -0.000424044 -0.000149075)
(-0.000430166 -0.000367707 -4.64288e-05)
(-0.000426151 -0.000403389 -1.10472e-05)
(-0.000513307 -0.000497534 3.40047e-05)
(-0.00061865 -0.000581399 8.5751e-05)
(-0.000728851 -0.000644319 0.000135577)
(-0.000838116 -0.000688076 0.000180635)
(-0.00094016 -0.000715933 0.000218456)
(-0.00103076 -0.000732193 0.000246283)
(-0.00110509 -0.000740586 0.000262157)
(-0.00116562 -0.000749446 0.000267921)
(-0.00121532 -0.000763024 0.000266237)
(-0.00125946 -0.000782379 0.00026012)
(-0.00130327 -0.000806475 0.000251776)
(-0.00134878 -0.000833623 0.000242142)
(-0.00139639 -0.000862663 0.000231406)
(-0.00144679 -0.000893515 0.000219578)
(-0.0014995 -0.000925719 0.000206302)
(-0.00155392 -0.000958799 0.000190957)
(-0.00160891 -0.00099194 0.000172493)
(-0.0016629 -0.00102407 0.000149162)
(-0.00171333 -0.00105357 0.000118605)
(-0.0017553 -0.00107812 7.7426e-05)
(-0.00178028 -0.00109318 2.66694e-05)
(-0.000489632 -0.000331746 -0.000104717)
(-0.00042708 -0.0003266 -5.08207e-05)
(-0.000416982 -0.000361799 -1.93081e-05)
(-0.000500655 -0.000451427 2.02269e-05)
(-0.000606231 -0.000535704 6.7915e-05)
(-0.000720377 -0.000603111 0.000115733)
(-0.000834425 -0.000651544 0.000160429)
(-0.000941927 -0.000683264 0.000199021)
(-0.00103643 -0.00070085 0.000227817)
(-0.00111758 -0.000711531 0.00024557)
(-0.00118321 -0.000720445 0.000252832)
(-0.00123753 -0.000732844 0.000252551)
(-0.00128622 -0.000750713 0.000247833)
(-0.00133255 -0.000772806 0.000240488)
(-0.00137953 -0.000797852 0.000231648)
(-0.00142929 -0.000825453 0.000221858)
(-0.00148133 -0.000854693 0.000210943)
(-0.00153554 -0.000885222 0.000198605)
(-0.00159109 -0.000916444 0.000184194)
(-0.00164711 -0.000947696 0.000166696)
(-0.001702 -0.00097794 0.000144375)
(-0.00175322 -0.00100565 0.000114925)
(-0.00179583 -0.00102872 7.50687e-05)
(-0.00182108 -0.00104292 2.58595e-05)
(-0.000574574 -0.00034303 -9.81864e-05)
(-0.000425449 -0.000292235 -5.47763e-05)
(-0.000401978 -0.000319475 -2.71103e-05)
(-0.000479005 -0.000402664 6.56333e-06)
(-0.000585828 -0.000488304 4.96958e-05)
(-0.000701551 -0.000558045 9.46002e-05)
(-0.000819797 -0.000610482 0.0001383)
(-0.000932189 -0.000645437 0.000177178)
(-0.00103476 -0.000666983 0.000207707)
(-0.00112047 -0.000678195 0.000226947)
(-0.00119217 -0.000687617 0.000236139)
(-0.00125203 -0.000699535 0.000237663)
(-0.0013042 -0.000715618 0.00023433)
(-0.00135376 -0.000735898 0.000228283)
(-0.00140389 -0.000759497 0.000220697)
(-0.00145503 -0.000785015 0.000211879)
(-0.00150843 -0.000812326 0.000201958)
(-0.00156368 -0.000840857 0.000190605)
(-0.00162033 -0.000870163 0.000177217)
(-0.0016772 -0.000899438 0.000160741)
(-0.00173283 -0.000927729 0.000139475)
(-0.00178476 -0.00095362 0.000111173)
(-0.00182794 -0.00097519 7.26765e-05)
(-0.00185328 -0.000988459 2.50396e-05)
(-0.000525101 -0.000274703 -7.26809e-05)
(-0.000405309 -0.000250393 -5.57987e-05)
(-0.000377699 -0.000274673 -3.3893e-05)
(-0.000447987 -0.000352065 -6.64755e-06)
(-0.000551913 -0.000435747 3.0909e-05)
(-0.000671218 -0.000509404 7.23053e-05)
(-0.000794254 -0.000566135 0.00011443)
(-0.000913528 -0.000605465 0.000153517)
(-0.00101968 -0.000627799 0.000184733)
(-0.00111378 -0.000641645 0.000206276)
(-0.00119151 -0.000651292 0.000217608)
(-0.00125617 -0.00066217 0.000221067)
(-0.00131345 -0.000677248 0.000219639)
(-0.00136637 -0.000695778 0.000215113)
(-0.00141809 -0.00071705 0.000208731)
(-0.00147175 -0.000741014 0.000201234)
(-0.0015268 -0.000766505 0.000192492)
(-0.00158339 -0.000793164 0.000182279)
(-0.00164069 -0.000820344 0.000169964)
(-0.00169807 -0.000847504 0.000154561)
(-0.00175409 -0.000873742 0.000134394)
(-0.00180636 -0.000897744 0.000107281)
(-0.00184979 -0.000917745 7.01949e-05)
(-0.00187504 -0.000930016 2.41903e-05)
(-0.000537108 -0.000244629 -6.19933e-05)
(-0.000386189 -0.000215037 -5.66792e-05)
(-0.000346256 -0.000230571 -3.94083e-05)
(-0.00040536 -0.000299095 -1.86242e-05)
(-0.000509703 -0.000383209 1.25046e-05)
(-0.000628636 -0.000457671 4.91393e-05)
(-0.000755604 -0.00051804 8.87457e-05)
(-0.000879207 -0.000560049 0.000127052)
(-0.000996216 -0.000587594 0.000159937)
(-0.00109549 -0.000601832 0.000183205)
(-0.00118021 -0.000611915 0.000197051)
(-0.00125171 -0.000622549 0.000203078)
(-0.00131272 -0.000635676 0.000203585)
(-0.00136907 -0.000652316 0.000200832)
(-0.00142455 -0.000672198 0.00019617)
(-0.00147926 -0.00069375 0.00018994)
(-0.00153531 -0.000717012 0.000182435)
(-0.00159236 -0.000741339 0.000173391)
(-0.00165028 -0.000766371 0.000162262)
(-0.00170791 -0.000791338 0.000148013)
(-0.001764 -0.000815438 0.000129013)
(-0.00181631 -0.000837492 0.000103158)
(-0.00185977 -0.000855885 6.75677e-05)
(-0.00188477 -0.000867109 2.32927e-05)
(-0.000425428 -0.000168855 -3.54674e-05)
(-0.000358268 -0.000176776 -5.74963e-05)
(-0.000308541 -0.000188431 -4.37428e-05)
(-0.000354885 -0.000247194 -2.89629e-05)
(-0.000450308 -0.000324752 -5.10458e-06)
(-0.000572193 -0.000402466 2.56516e-05)
(-0.000703392 -0.000466793 6.16495e-05)
(-0.000836106 -0.000514568 9.90703e-05)
(-0.000955796 -0.000542354 0.00013204)
(-0.00106545 -0.000559784 0.000157816)
(-0.00115765 -0.000570241 0.00017442)
(-0.00123437 -0.000579518 0.000183035)
(-0.00130171 -0.000591685 0.000186189)
(-0.00136214 -0.00060651 0.000185562)
(-0.00141884 -0.000623625 0.000182479)
(-0.00147642 -0.000643478 0.000177942)
(-0.00153407 -0.000664723 0.000171896)
(-0.00159234 -0.000687027 0.000164222)
(-0.00165036 -0.000709703 0.000154322)
(-0.00170786 -0.000732356 0.00014127)
(-0.00176365 -0.000754236 0.000123473)
(-0.00181565 -0.000774264 9.89082e-05)
(-0.0018588 -0.000790967 6.48576e-05)
(-0.00188338 -0.000801107 2.23686e-05)
(-0.000363002 -0.000123289 -1.84469e-05)
(-0.000312719 -0.000136824 -5.61303e-05)
(-0.000261566 -0.000146897 -4.57185e-05)
(-0.000289102 -0.000191606 -3.58857e-05)
(-0.00038492 -0.00026878 -2.08124e-05)
(-0.000502641 -0.000344705 2.65442e-06)
(-0.00063733 -0.000412717 3.3733e-05)
(-0.000772606 -0.000462591 6.85963e-05)
(-0.000906851 -0.000497745 0.000102579)
(-0.00102222 -0.000515744 0.000130061)
(-0.00112234 -0.000526627 0.000149622)
(-0.00120772 -0.000535872 0.000161589)
(-0.00127914 -0.000545748 0.00016736)
(-0.00134332 -0.000558374 0.00016909)
(-0.00140488 -0.000574118 0.000168284)
(-0.00146318 -0.000591209 0.000165343)
(-0.00152146 -0.000609939 0.000160795)
(-0.00157953 -0.000629613 0.000154475)
(-0.00163771 -0.000649992 0.000145932)
(-0.00169484 -0.000670315 0.00013416)
(-0.00175002 -0.000689946 0.00011763)
(-0.00180143 -0.000707944 9.44235e-05)
(-0.00184409 -0.00072296 6.20018e-05)
(-0.00186806 -0.000732004 2.1397e-05)
(-0.000272165 -7.76804e-05 -9.35813e-06)
(-0.000255622 -0.000102086 -5.12973e-05)
(-0.000208917 -0.000108551 -4.48784e-05)
(-0.000223177 -0.000141967 -3.97482e-05)
(-0.000297501 -0.000204007 -3.23657e-05)
(-0.000418404 -0.000283179 -1.815e-05)
(-0.000555527 -0.00035459 6.0758e-06)
(-0.00070283 -0.000412759 3.77429e-05)
(-0.00083735 -0.000447699 7.05991e-05)
(-0.00096538 -0.000470284 0.000100263)
(-0.00107463 -0.0004822 0.000122931)
(-0.00116536 -0.000489832 0.000138025)
(-0.00124458 -0.000498823 0.000147172)
(-0.00131382 -0.00050958 0.000151686)
(-0.00137599 -0.000522047 0.000152867)
(-0.00143774 -0.000537364 0.000152042)
(-0.00149774 -0.000553958 0.00014926)
(-0.00155709 -0.000571587 0.000144559)
(-0.00161476 -0.000589478 0.000137399)
(-0.0016711 -0.000607406 0.000126938)
(-0.00172528 -0.000624762 0.000111696)
(-0.00177568 -0.000640684 8.98611e-05)
(-0.00181747 -0.000653973 5.90938e-05)
(-0.00184066 -0.000661924 2.04104e-05)
(-0.000189135 -4.59029e-05 4.15221e-07)
(-0.000195592 -7.06084e-05 -4.68614e-05)
(-0.000153231 -7.50329e-05 -4.15295e-05)
(-0.000132148 -8.18e-05 -3.27686e-05)
(-0.000215171 -0.000146572 -3.90639e-05)
(-0.000322078 -0.000218259 -3.48076e-05)
(-0.000461535 -0.000293989 -1.94287e-05)
(-0.000607473 -0.000353493 6.67956e-06)
(-0.000761625 -0.000399863 3.8396e-05)
(-0.000894809 -0.000423769 6.89667e-05)
(-0.00101239 -0.000436761 9.44912e-05)
(-0.00111381 -0.000445142 0.000113393)
(-0.00119715 -0.000451684 0.000125689)
(-0.00127024 -0.000459989 0.000133075)
(-0.00133886 -0.000471267 0.000137109)
(-0.00140082 -0.000483494 0.000138213)
(-0.00146099 -0.000497365 0.000137187)
(-0.00151927 -0.000512137 0.000134014)
(-0.00157667 -0.000527723 0.000128382)
(-0.001632 -0.000543327 0.000119318)
(-0.00168485 -0.00055845 0.000105429)
(-0.001734 -0.000572364 8.50379e-05)
(-0.00177475 -0.000583983 5.60234e-05)
(-0.00179698 -0.000590876 1.93706e-05)
(-7.71314e-05 -1.53069e-05 7.76216e-06)
(-0.000115454 -3.76894e-05 -3.64024e-05)
(-9.66107e-05 -4.52187e-05 -3.68492e-05)
(-6.11336e-05 -3.83241e-05 -2.25481e-05)
(-7.46732e-05 -5.23752e-05 -2.13447e-05)
(-0.000211527 -0.000146536 -4.13463e-05)
(-0.000350135 -0.000225563 -3.91141e-05)
(-0.000513184 -0.000298882 -2.20156e-05)
(-0.000661354 -0.000344173 6.21866e-06)
(-0.000809863 -0.000375866 3.71777e-05)
(-0.000937827 -0.000391674 6.51365e-05)
(-0.00104376 -0.000398839 8.70912e-05)
(-0.00113635 -0.000405151 0.0001031)
(-0.00121557 -0.000411866 0.000113743)
(-0.00128351 -0.000419431 0.00012007)
(-0.00134976 -0.000429983 0.000123686)
(-0.00141195 -0.000441777 0.000124734)
(-0.0014718 -0.000454636 0.000123436)
(-0.00152801 -0.000467734 0.000119327)
(-0.00158182 -0.00048102 0.000111673)
(-0.00163292 -0.00049397 9.914e-05)
(-0.00168035 -0.0005059 8.01855e-05)
(-0.00171966 -0.000515857 5.29301e-05)
(-0.00174075 -0.000521743 1.83258e-05)
(-7.28442e-06 4.44068e-07 8.82779e-06)
(-2.52927e-05 -7.24679e-06 -1.23725e-05)
(-3.24153e-05 -1.54336e-05 -2.1023e-05)
(-5.05614e-05 -3.57868e-05 -3.10946e-05)
(-4.99574e-05 -3.94276e-05 -2.28241e-05)
(-0.000100951 -7.4123e-05 -3.17249e-05)
(-0.000236517 -0.00015402 -4.84869e-05)
(-0.000386026 -0.000226951 -4.44343e-05)
(-0.0005625 -0.000292699 -2.29564e-05)
(-0.000712346 -0.000326798 6.35642e-06)
(-0.000847741 -0.000345632 3.55904e-05)
(-0.000966211 -0.000355589 6.06618e-05)
(-0.00106203 -0.00035998 7.97255e-05)
(-0.00114458 -0.000364433 9.339e-05)
(-0.00122116 -0.000371433 0.000102973)
(-0.00128669 -0.000378771 0.000108759)
(-0.0013482 -0.000387738 0.000111757)
(-0.00140584 -0.000397671 0.000112128)
(-0.00146138 -0.000408636 0.000109703)
(-0.00151351 -0.000419783 0.000103546)
(-0.00156249 -0.000430697 9.24355e-05)
(-0.00160798 -0.000440795 7.5003e-05)
(-0.00164571 -0.000449228 4.96281e-05)
(-0.00166547 -0.000454167 1.7212e-05)
(6.5849e-06 6.34904e-06 1.55087e-05)
(4.57565e-06 7.42788e-07 -7.6162e-06)
(-4.32294e-06 -8.15655e-06 -2.08253e-05)
(-1.7105e-05 -2.32102e-05 -2.76044e-05)
(-3.49148e-05 -3.74802e-05 -2.99572e-05)
(-4.4058e-05 -3.66411e-05 -2.30711e-05)
(-7.40745e-05 -5.00689e-05 -2.50797e-05)
(-0.000277543 -0.000164403 -5.72443e-05)
(-0.000430962 -0.000225747 -4.52428e-05)
(-0.00060174 -0.000275332 -2.11842e-05)
(-0.00074756 -0.000300319 7.43581e-06)
(-0.000867723 -0.000310538 3.40066e-05)
(-0.000973882 -0.0003165 5.60271e-05)
(-0.00106348 -0.000320438 7.28128e-05)
(-0.00113677 -0.000323611 8.46663e-05)
(-0.00120761 -0.000329762 9.31952e-05)
(-0.00127185 -0.000337058 9.85138e-05)
(-0.00133148 -0.000345427 0.000100972)
(-0.00138501 -0.000354106 0.000100181)
(-0.0014348 -0.000363194 9.55061e-05)
(-0.00148126 -0.000372223 8.57971e-05)
(-0.00152427 -0.000380587 6.9851e-05)
(-0.00155996 -0.000387561 4.63377e-05)
(-0.00157824 -0.000391653 1.61045e-05)
(1.24818e-05 1.12741e-05 2.18664e-05)
(2.53287e-05 7.89577e-06 -8.20888e-06)
(2.16855e-05 -5.17041e-07 -1.49328e-05)
(1.27148e-05 -9.75075e-06 -1.58989e-05)
(-1.36158e-06 -2.43009e-05 -2.39419e-05)
(-2.87703e-05 -3.34125e-05 -2.96179e-05)
(-6.97983e-05 -5.33658e-05 -3.8537e-05)
(-8.3888e-05 -5.04565e-05 -2.66385e-05)
(-0.000322312 -0.000168444 -5.91924e-05)
(-0.000480497 -0.000220591 -4.31612e-05)
(-0.000631668 -0.000252661 -1.7582e-05)
(-0.000766246 -0.000269577 9.03486e-06)
(-0.00087309 -0.000275162 3.26925e-05)
(-0.000964164 -0.000277823 5.18086e-05)
(-0.00104906 -0.000281954 6.68215e-05)
(-0.00111743 -0.00028514 7.75002e-05)
(-0.00117916 -0.000289725 8.4779e-05)
(-0.00123513 -0.000295391 8.89568e-05)
(-0.00128749 -0.000302329 8.99479e-05)
(-0.00133487 -0.000309674 8.68331e-05)
(-0.00137837 -0.000317041 7.85912e-05)
(-0.00141874 -0.000323921 6.42409e-05)
(-0.00145232 -0.000329648 4.27524e-05)
(-0.00146889 -0.000332982 1.48964e-05)
(2.29695e-05 1.31761e-05 2.37164e-05)
(3.64655e-05 1.00033e-05 -8.80322e-06)
(3.68922e-05 2.54679e-06 -1.38353e-05)
(2.96571e-05 -6.15604e-06 -1.3094e-05)
(3.00891e-05 -2.01249e-05 -1.74228e-05)
(3.11019e-06 -2.45493e-05 -1.76897e-05)
(-2.04543e-05 -2.01604e-05 -1.74934e-05)
(-5.40884e-05 -3.37343e-05 -2.53242e-05)
(-0.000144795 -7.47006e-05 -4.03209e-05)
(-0.000354128 -0.000162838 -5.53788e-05)
(-0.000511966 -0.000205706 -3.76697e-05)
(-0.000641737 -0.000224973 -1.32559e-05)
(-0.000759624 -0.000235421 1.06458e-05)
(-0.000858502 -0.000239882 3.15479e-05)
(-0.00093498 -0.000240513 4.81751e-05)
(-0.0010099 -0.000243741 6.1408e-05)
(-0.00107573 -0.000247672 7.1053e-05)
(-0.00113404 -0.000252422 7.73893e-05)
(-0.00118343 -0.000257547 8.0045e-05)
(-0.00122753 -0.000263303 7.84239e-05)
(-0.00126769 -0.000269259 7.15929e-05)
(-0.0013048 -0.000274816 5.87611e-05)
(-0.00133573 -0.000279409 3.9236e-05)
(-0.00135055 -0.000282119 1.3714e-05)
(3.28737e-05 1.41531e-05 2.50812e-05)
(7.40678e-05 1.64639e-05 -1.38507e-05)
(8.29951e-05 6.20881e-06 -2.37833e-05)
(6.11626e-05 -7.42697e-06 -1.98738e-05)
(4.90576e-05 -1.93106e-05 -1.56489e-05)
(3.51065e-05 -2.97038e-05 -9.69903e-06)
(5.96113e-07 -1.41524e-05 -5.36233e-06)
(-4.26196e-05 -2.89595e-05 -2.64504e-05)
(-0.00010803 -5.66969e-05 -4.36219e-05)
(-0.00020635 -9.53937e-05 -4.8747e-05)
(-0.000375765 -0.000153204 -4.86602e-05)
(-0.000523677 -0.000185297 -3.1344e-05)
(-0.000637307 -0.000197483 -9.03927e-06)
(-0.000733332 -0.000202308 1.22095e-05)
(-0.000825993 -0.00020687 3.08649e-05)
(-0.00089493 -0.000207849 4.57193e-05)
(-0.000954693 -0.000209498 5.69588e-05)
(-0.0010073 -0.000212139 6.48392e-05)
(-0.00105487 -0.000216207 6.92283e-05)
(-0.00109578 -0.000220844 6.91409e-05)
(-0.00113206 -0.00022568 6.37731e-05)
(-0.00116584 -0.000230246 5.2608e-05)
(-0.00119416 -0.000233987 3.5278e-05)
(-0.00120691 -0.00023616 1.23761e-05)
(3.90082e-05 1.4434e-05 2.68647e-05)
(9.21399e-05 1.91267e-05 -1.26395e-05)
(0.000112198 9.86262e-06 -2.72048e-05)
(0.000112343 -7.21621e-06 -3.18919e-05)
(8.1429e-05 -2.13787e-05 -2.35614e-05)
(4.101e-05 -2.2704e-05 -1.00798e-05)
(2.72266e-05 -3.14808e-05 -2.2786e-06)
(-7.83655e-06 -2.48152e-05 -6.15475e-06)
(-4.10487e-05 -2.34058e-05 -2.10813e-05)
(-8.11979e-05 -3.83895e-05 -2.74321e-05)
(-0.000243581 -0.000101843 -4.88375e-05)
(-0.000378235 -0.000137385 -4.12795e-05)
(-0.000504856 -0.000159273 -2.46854e-05)
(-0.000610584 -0.000169686 -4.8822e-06)
(-0.000684902 -0.000171003 1.38814e-05)
(-0.000762385 -0.000174391 3.02583e-05)
(-0.000828405 -0.000177227 4.34174e-05)
(-0.00088411 -0.000180158 5.32559e-05)
(-0.000927432 -0.000183151 5.91564e-05)
(-0.000963981 -0.000186848 6.04528e-05)
(-0.000996174 -0.000190879 5.64383e-05)
(-0.00102594 -0.000194635 4.67904e-05)
(-0.00105102 -0.000197653 3.15122e-05)
(-0.0010619 -0.000199453 1.11056e-05)
(4.43041e-05 1.46259e-05 2.92484e-05)
(0.000102509 2.15394e-05 -1.05095e-05)
(0.000128962 1.50089e-05 -2.82627e-05)
(0.00013384 -1.33522e-06 -3.62909e-05)
(0.000121305 -2.1075e-05 -3.53791e-05)
(8.13583e-05 -3.22817e-05 -2.21806e-05)
(5.55311e-05 -4.09378e-05 -9.50885e-06)
(1.22129e-05 -1.89446e-05 1.403e-06)
(-9.83544e-06 -1.25896e-05 -3.9039e-06)
(-5.27764e-05 -2.6231e-05 -2.2897e-05)
(-0.000131389 -5.54991e-05 -3.78826e-05)
(-0.00026142 -9.66432e-05 -4.55292e-05)
(-0.000373525 -0.000121746 -3.54098e-05)
(-0.000466611 -0.000133777 -1.83932e-05)
(-0.000566308 -0.000144226 -6.29433e-07)
(-0.000630752 -0.000146042 1.61084e-05)
(-0.000685152 -0.000147318 2.9927e-05)
(-0.000730626 -0.000148717 4.0594e-05)
(-0.000771504 -0.000151665 4.7872e-05)
(-0.00080413 -0.00015502 5.0483e-05)
(-0.000831498 -0.000158517 4.78369e-05)
(-0.000857329 -0.00016182 3.99246e-05)
(-0.000879409 -0.00016444 2.70477e-05)
(-0.00088789 -0.000165899 9.58075e-06)
(4.79002e-05 1.47826e-05 3.23918e-05)
(0.00010143 2.19163e-05 -7.44568e-06)
(0.00013023 1.90206e-05 -2.66346e-05)
(0.000142907 5.93199e-06 -3.77926e-05)
(0.000136976 -1.34159e-05 -4.00379e-05)
(0.000117323 -3.23101e-05 -3.41606e-05)
(7.17252e-05 -3.71589e-05 -1.75007e-05)
(4.8985e-05 -4.48487e-05 -4.54335e-06)
(1.23794e-05 -3.13205e-05 5.01826e-06)
(-2.79382e-05 -2.13551e-05 -1.19487e-05)
(-7.83713e-05 -3.55091e-05 -3.23528e-05)
(-7.50641e-05 -2.89803e-05 -1.98825e-05)
(-0.000232123 -7.9411e-05 -3.63628e-05)
(-0.000342701 -0.000103066 -2.79852e-05)
(-0.000403191 -0.000108387 -1.19836e-05)
(-0.000481954 -0.000116639 3.57685e-06)
(-0.000544797 -0.000121603 1.78142e-05)
(-0.00059821 -0.000125714 2.98484e-05)
(-0.000632753 -0.000128337 3.81227e-05)
(-0.000659809 -0.00013139 4.17936e-05)
(-0.000682595 -0.000134626 4.03298e-05)
(-0.000703828 -0.000137561 3.38693e-05)
(-0.000722142 -0.000139821 2.30721e-05)
(-0.00072895 -0.000141172 8.22747e-06)
(4.96582e-05 1.44092e-05 3.54861e-05)
(9.63192e-05 2.12808e-05 -4.32664e-06)
(0.000124919 2.08563e-05 -2.34229e-05)
(0.000137973 1.15051e-05 -3.51795e-05)
(0.000139855 -4.74499e-06 -4.06028e-05)
(0.000127352 -2.32915e-05 -3.80846e-05)
(0.000106413 -3.93231e-05 -2.96062e-05)
(5.97039e-05 -3.70511e-05 -1.2301e-05)
(3.48972e-05 -3.71197e-05 -1.20896e-06)
(5.37526e-06 -2.73352e-05 -2.56568e-07)
(-1.87691e-05 -1.27105e-05 -1.10376e-05)
(-5.93729e-05 -2.66876e-05 -2.37151e-05)
(-8.92521e-05 -3.34993e-05 -2.19481e-05)
(-0.000186425 -5.97387e-05 -2.59745e-05)
(-0.000298715 -8.49543e-05 -2.07122e-05)
(-0.000349857 -9.0726e-05 -6.43926e-06)
(-0.000394755 -9.45991e-05 6.83143e-06)
(-0.000424171 -9.63552e-05 1.78989e-05)
(-0.000456772 -0.000100177 2.65998e-05)
(-0.000479649 -0.000103683 3.09648e-05)
(-0.000496638 -0.00010656 3.05957e-05)
(-0.000513777 -0.000109397 2.59594e-05)
(-0.000529065 -0.000111641 1.78522e-05)
(-0.000533019 -0.000112849 6.40744e-06)
(4.96722e-05 1.42174e-05 3.8902e-05)
(8.82648e-05 2.05724e-05 -1.92183e-06)
(0.00011551 2.17082e-05 -2.01771e-05)
(0.000128506 1.47454e-05 -3.14217e-05)
(0.000131764 2.09777e-06 -3.7539e-05)
(0.000128067 -1.43831e-05 -3.85315e-05)
(0.000113563 -3.03376e-05 -3.30971e-05)
(9.61637e-05 -4.31219e-05 -2.49492e-05)
(4.95396e-05 -3.42547e-05 -1.01475e-05)
(1.63201e-05 -1.94473e-05 -2.36458e-06)
(-1.29112e-06 -1.45729e-05 -5.9352e-06)
(-3.86661e-05 -2.31695e-05 -2.65772e-05)
(-6.28493e-05 -2.7002e-05 -2.51214e-05)
(-7.05541e-05 -2.60754e-05 -1.64249e-05)
(-8.99809e-05 -2.72976e-05 -1.14391e-05)
(-0.000196426 -5.56604e-05 -1.14072e-05)
(-0.000254959 -6.75651e-05 -1.40961e-06)
(-0.000309406 -7.67307e-05 9.68264e-06)
(-0.000331623 -8.00983e-05 1.82924e-05)
(-0.000346198 -8.32309e-05 2.30306e-05)
(-0.000360493 -8.61894e-05 2.3535e-05)
(-0.000373254 -8.92485e-05 2.01176e-05)
(-0.000384341 -9.12119e-05 1.39595e-05)
(-0.000385251 -9.17743e-05 5.06796e-06)
(4.81228e-05 1.51637e-05 4.29279e-05)
(7.88122e-05 2.07697e-05 -8.54626e-07)
(0.000102017 2.21509e-05 -1.73945e-05)
(0.000113367 1.66048e-05 -2.67529e-05)
(0.000118 6.39117e-06 -3.254e-05)
(0.000117473 -7.05333e-06 -3.48249e-05)
(0.000113556 -2.26172e-05 -3.33551e-05)
(0.000101577 -3.53185e-05 -2.77074e-05)
(8.96025e-05 -4.52259e-05 -2.26953e-05)
(4.56403e-05 -3.36095e-05 -1.14124e-05)
(2.59414e-05 -3.4598e-05 -1.19126e-05)
(-4.96844e-06 -1.24427e-05 -1.1946e-05)
(-2.04333e-05 -1.16529e-05 -1.54086e-05)
(-5.64226e-05 -2.55152e-05 -2.38767e-05)
(-9.82714e-05 -3.74357e-05 -2.31572e-05)
(-6.42222e-05 -2.13495e-05 -7.90819e-06)
(-8.72218e-05 -2.72936e-05 -3.88946e-06)
(-8.21716e-05 -2.35288e-05 9.78275e-07)
(-0.000123869 -3.45038e-05 6.07549e-06)
(-0.000146502 -4.02487e-05 9.95577e-06)
(-0.000146042 -4.11619e-05 1.00671e-05)
(-0.000152362 -4.4348e-05 8.90765e-06)
(-0.000162489 -4.71398e-05 6.57292e-06)
(-0.000171546 -4.78812e-05 2.59954e-06)
(4.42892e-05 1.72059e-05 4.67183e-05)
(6.48898e-05 2.05962e-05 -7.77001e-07)
(8.23105e-05 2.12764e-05 -1.42346e-05)
(9.162e-05 1.66685e-05 -2.08237e-05)
(9.69648e-05 8.6443e-06 -2.52616e-05)
(0.000100055 -2.41767e-06 -2.81726e-05)
(0.000101185 -1.59783e-05 -2.85481e-05)
(0.000102478 -2.97981e-05 -2.72938e-05)
(9.42732e-05 -3.83798e-05 -2.41069e-05)
(8.34568e-05 -4.50708e-05 -2.28761e-05)
(4.05798e-05 -3.20441e-05 -1.51628e-05)
(1.87347e-05 -2.8743e-05 -2.03416e-05)
(-8.44365e-06 -1.5396e-05 -2.28532e-05)
(-1.65871e-05 -9.75368e-06 -1.59327e-05)
(-2.87336e-05 -1.49774e-05 -1.4696e-05)
(-7.48468e-05 -3.30911e-05 -1.99028e-05)
(-7.05557e-05 -2.81442e-05 -9.02534e-06)
(-7.99531e-05 -3.10139e-05 -2.79618e-06)
(-5.50384e-05 -2.13668e-05 1.75876e-06)
(-0.000119921 -4.54349e-05 7.93287e-06)
(-5.76726e-05 -2.31544e-05 4.3583e-06)
(-0.000105091 -4.12895e-05 7.04825e-06)
(-0.000109642 -4.32521e-05 5.02089e-06)
(-0.00013656 -5.3669e-05 2.34237e-06)
(3.814e-05 1.95895e-05 4.89776e-05)
(5.14647e-05 2.05229e-05 -1.30388e-06)
(6.05915e-05 1.89901e-05 -1.12553e-05)
(6.56941e-05 1.44548e-05 -1.46512e-05)
(7.05903e-05 8.24082e-06 -1.71232e-05)
(7.60433e-05 -6.64255e-07 -1.94335e-05)
(8.35179e-05 -1.23579e-05 -2.11511e-05)
(9.07956e-05 -2.42334e-05 -2.19149e-05)
(9.68292e-05 -3.46111e-05 -2.31233e-05)
(8.85834e-05 -3.94183e-05 -2.31374e-05)
(7.49654e-05 -4.29156e-05 -2.54807e-05)
(3.44545e-05 -2.9442e-05 -2.05042e-05)
(1.02544e-05 -1.73777e-05 -2.05297e-05)
(-5.49999e-06 -1.58689e-05 -3.40315e-05)
(-1.74571e-05 -1.6077e-05 -2.82347e-05)
(-2.6393e-05 -1.81735e-05 -2.00946e-05)
(-4.65949e-05 -2.70008e-05 -1.81406e-05)
(-2.70642e-05 -1.50351e-05 -4.68005e-06)
(-5.03579e-05 -2.85302e-05 -1.40575e-06)
(-3.00691e-05 -1.8131e-05 1.56461e-06)
(-5.53489e-05 -3.34358e-05 4.99793e-06)
(-6.83368e-05 -3.93529e-05 5.70924e-06)
(-7.13172e-05 -4.02889e-05 3.79251e-06)
(-3.1847e-05 -1.99515e-05 5.87461e-07)
(3.06067e-05 2.15582e-05 4.89979e-05)
(3.99477e-05 2.06018e-05 -2.28064e-06)
(4.33116e-05 1.66489e-05 -9.77281e-06)
(4.40762e-05 1.13373e-05 -1.06786e-05)
(4.63829e-05 5.74533e-06 -1.11069e-05)
(5.29402e-05 -1.83163e-06 -1.21534e-05)
(6.37579e-05 -1.18095e-05 -1.34247e-05)
(7.75927e-05 -2.19236e-05 -1.55185e-05)
(8.66878e-05 -2.99095e-05 -1.80421e-05)
(9.16084e-05 -3.69103e-05 -2.16677e-05)
(8.17981e-05 -3.91771e-05 -2.46364e-05)
(6.65379e-05 -4.02763e-05 -3.03191e-05)
(3.10808e-05 -2.66123e-05 -2.79905e-05)
(8.59347e-06 -1.31e-05 -2.10253e-05)
(5.14686e-07 -1.59559e-05 -3.67763e-05)
(-7.20166e-06 -1.54389e-05 -3.42337e-05)
(-6.94279e-06 -1.01539e-05 -1.48388e-05)
(-1.33964e-05 -1.52121e-05 -1.27354e-05)
(-9.84558e-06 -1.11251e-05 -4.71289e-06)
(-1.93914e-05 -2.54623e-05 -3.57186e-06)
(-1.34125e-05 -1.84815e-05 -1.71431e-07)
(-2.15182e-05 -3.18583e-05 6.81454e-07)
(-2.28638e-05 -3.21887e-05 9.21588e-07)
(-1.48598e-05 -2.13732e-05 2.89597e-07)
(2.30065e-05 2.26244e-05 4.63229e-05)
(3.05013e-05 2.05099e-05 -3.87001e-06)
(3.15294e-05 1.47819e-05 -9.84049e-06)
(3.15497e-05 8.93508e-06 -9.85521e-06)
(3.27733e-05 2.63932e-06 -9.15131e-06)
(3.95077e-05 -5.53709e-06 -8.79693e-06)
(5.20204e-05 -1.50947e-05 -8.76282e-06)
(6.54877e-05 -2.29534e-05 -9.93797e-06)
(7.82083e-05 -2.92814e-05 -1.32201e-05)
(8.34569e-05 -3.36385e-05 -1.71647e-05)
(8.49517e-05 -3.78388e-05 -2.26333e-05)
(7.50498e-05 -3.84526e-05 -2.88984e-05)
(6.00998e-05 -3.78966e-05 -3.85057e-05)
(3.57296e-05 -2.9013e-05 -4.10716e-05)
(1.0679e-05 -1.27504e-05 -2.40902e-05)
(5.27063e-06 -1.11045e-05 -2.53787e-05)
(3.80289e-06 -1.51615e-05 -3.43376e-05)