/*--------------------------------*- C++ -*----------------------------------*\
  =========                 |
  \\      /  F ield         | OpenFOAM: The Open Source CFD Toolbox
   \\    /   O peration     | Website:  https://openfoam.org
    \\  /    A nd           | Version:  6
     \\/     M anipulation  |
\*---------------------------------------------------------------------------*/
FoamFile
{
    version     2.0;
    format      ascii;
    class       volScalarField;
    location    "33";
    object      p;
}
// * * * * * * * * * * * * * * * * * * * * * * * * * * * * * * * * * * * * * //

dimensions      [0 2 -2 0 0 0 0];

internalField   nonuniform List<scalar> 
380496
(
0.0142086
0.0146826
0.0142827
0.0141821
0.0140708
0.0139564
0.013848
0.0137394
0.0136312
0.013524
0.013418
0.0133133
0.01321
0.0131082
0.0130078
0.0129085
0.01281
0.0127122
0.0126145
0.0125164
0.0124175
0.0123172
0.0122149
0.0121098
0.0120014
0.0118889
0.0117718
0.011649
0.0115205
0.0113849
0.0112438
0.011093
0.0109424
0.0107735
0.010634
0.0141843
0.014651
0.0142633
0.0141669
0.0140587
0.0139461
0.0138378
0.0137283
0.0136183
0.0135086
0.0133994
0.0132909
0.0131834
0.0130767
0.0129709
0.0128657
0.0127609
0.0126562
0.0125511
0.0124452
0.0123381
0.0122292
0.012118
0.0120037
0.0118861
0.0117641
0.0116377
0.0115055
0.0113681
0.0112232
0.0110735
0.0109113
0.0107518
0.0105585
0.0104087
0.0141566
0.0146185
0.014242
0.0141504
0.0140453
0.0139338
0.0138251
0.0137139
0.0136013
0.0134882
0.013375
0.0132619
0.0131491
0.0130367
0.0129246
0.0128125
0.0127002
0.0125874
0.0124737
0.0123586
0.0122418
0.0121225
0.0120005
0.011875
0.0117458
0.011612
0.0114735
0.0113291
0.0111798
0.0110229
0.0108625
0.0106896
0.0105235
0.0103219
0.0101754
0.014121
0.0145831
0.0142203
0.0141353
0.0140342
0.0139247
0.013816
0.0137037
0.013589
0.0134731
0.0133564
0.0132394
0.0131223
0.013005
0.0128875
0.0127697
0.0126512
0.0125317
0.0124109
0.0122884
0.0121638
0.0120364
0.0119061
0.0117722
0.0116344
0.0114919
0.0113449
0.0111923
0.0110348
0.0108699
0.0107022
0.010521
0.0103481
0.0101359
0.00998373
0.0140886
0.0145453
0.014199
0.014121
0.0140241
0.0139162
0.0138072
0.0136932
0.013576
0.0134569
0.0133364
0.0132152
0.0130933
0.0129708
0.0128478
0.0127239
0.0125989
0.0124726
0.0123445
0.0122143
0.0120817
0.011946
0.0118071
0.0116643
0.0115176
0.0113663
0.0112104
0.0110489
0.010883
0.01071
0.0105348
0.0103466
0.0101686
0.00995087
0.0097982
0.014043
0.0145049
0.0141775
0.0141081
0.0140161
0.0139102
0.013801
0.0136855
0.0135659
0.0134438
0.0133199
0.0131948
0.0130687
0.0129416
0.0128136
0.0126844
0.0125537
0.0124214
0.012287
0.0121501
0.0120106
0.0118679
0.0117219
0.0115719
0.0114179
0.0112594
0.0110965
0.0109284
0.0107561
0.0105769
0.0103962
0.0102025
0.0100201
0.00979698
0.00964181
0.0139948
0.0144625
0.0141566
0.014097
0.0140104
0.0139062
0.0137964
0.0136791
0.0135569
0.0134316
0.0133041
0.013175
0.0130446
0.012913
0.01278
0.0126456
0.0125094
0.0123712
0.0122306
0.0120875
0.0119414
0.011792
0.0116391
0.0114822
0.0113214
0.0111561
0.0109867
0.0108122
0.0106339
0.0104491
0.0102634
0.0100651
0.00987945
0.00965274
0.00949721
0.0139364
0.0144193
0.0141377
0.014089
0.0140078
0.013905
0.0137944
0.0136751
0.0135502
0.0134218
0.0132909
0.0131581
0.0130237
0.0128879
0.0127505
0.0126113
0.0124702
0.0123268
0.0121809
0.0120321
0.0118803
0.0117251
0.0115663
0.0114036
0.0112371
0.0110662
0.0108914
0.0107118
0.0105288
0.0103396
0.0101502
0.00994831
0.00976026
0.0095305
0.00937468
0.0138667
0.0143761
0.0141205
0.0140839
0.0140085
0.0139066
0.0137949
0.0136734
0.0135457
0.0134142
0.01328
0.0131438
0.0130059
0.0128662
0.0127248
0.0125815
0.012436
0.0122881
0.0121375
0.0119839
0.0118272
0.011667
0.0115032
0.0113356
0.0111642
0.0109887
0.0108093
0.0106255
0.0104387
0.010246
0.0100536
0.00984893
0.00965925
0.00942719
0.00927182
0.0137968
0.0143411
0.014109
0.0140836
0.0140126
0.0139106
0.0137972
0.0136734
0.0135431
0.0134088
0.0132718
0.0131326
0.0129916
0.0128488
0.012704
0.0125573
0.0124082
0.0122565
0.0121021
0.0119446
0.0117839
0.0116197
0.011452
0.0112805
0.0111053
0.0109261
0.0107434
0.0105564
0.0103667
0.0101714
0.00997693
0.00977026
0.00957963
0.00934569
0.00919113
0.013705
0.014306
0.0140982
0.0140859
0.0140195
0.0139168
0.0138016
0.0136752
0.0135421
0.0134051
0.0132653
0.0131233
0.0129794
0.0128337
0.012686
0.0125362
0.0123839
0.012229
0.0120712
0.0119103
0.0117461
0.0115785
0.0114073
0.0112325
0.0110541
0.0108718
0.0106862
0.0104966
0.0103045
0.0101072
0.00991114
0.00970291
0.00951179
0.0092763
0.00912319
0.0136116
0.0142822
0.0140938
0.0140934
0.0140296
0.0139251
0.0138073
0.0136781
0.0135423
0.0134026
0.0132602
0.0131158
0.0129694
0.0128212
0.0126709
0.0125184
0.0123633
0.0122057
0.012045
0.0118812
0.0117141
0.0115436
0.0113696
0.011192
0.0110109
0.0108262
0.0106382
0.0104466
0.0102527
0.0100538
0.00985661
0.00964722
0.00945598
0.00921911
0.00906784
0.0134875
0.0142628
0.0140911
0.0141044
0.0140428
0.0139355
0.0138149
0.0136826
0.0135439
0.0134016
0.0132567
0.0131099
0.0129613
0.0128108
0.0126582
0.0125034
0.012346
0.0121859
0.0120228
0.0118566
0.0116871
0.0115141
0.0113377
0.0111578
0.0109745
0.0107877
0.0105979
0.0104046
0.0102093
0.0100092
0.00981126
0.0096011
0.00941009
0.00917221
0.00902335
0.0133577
0.0142595
0.0140947
0.01412
0.0140581
0.0139468
0.0138227
0.0136873
0.0135459
0.0134011
0.0132541
0.0131053
0.0129547
0.0128023
0.0126478
0.012491
0.0123316
0.0121695
0.0120044
0.0118362
0.0116646
0.0114897
0.0113113
0.0111295
0.0109444
0.0107561
0.0105648
0.0103702
0.0101738
0.0099729
0.00977439
0.00956375
0.00937298
0.00913425
0.00898764
0.0131954
0.0142684
0.0141018
0.0141405
0.0140768
0.0139604
0.0138324
0.0136935
0.0135491
0.013402
0.0132529
0.0131022
0.0129499
0.0127958
0.0126396
0.0124812
0.0123202
0.0121565
0.0119897
0.0118197
0.0116465
0.0114699
0.01129
0.0111067
0.0109202
0.0107306
0.0105381
0.0103426
0.0101455
0.00994401
0.00974522
0.00953454
0.00934424
0.00910576
0.0089616
0.0130146
0.0142973
0.0141134
0.0141632
0.014095
0.0139728
0.0138409
0.0136988
0.0135519
0.0134028
0.013252
0.0130998
0.0129461
0.0127906
0.0126331
0.0124734
0.0123111
0.012146
0.0119779
0.0118066
0.0116321
0.0114543
0.0112731
0.0110886
0.0109011
0.0107104
0.0105171
0.0103209
0.0101232
0.00992148
0.00972246
0.00951192
0.00932138
0.00908322
0.00893859
0.0128112
0.0143463
0.0141316
0.014193
0.0141175
0.013988
0.0138515
0.0137058
0.0135563
0.0134052
0.0132528
0.0130992
0.0129443
0.0127877
0.0126291
0.0124683
0.0123049
0.0121388
0.0119697
0.0117973
0.0116218
0.011443
0.0112609
0.0110756
0.0108872
0.0106958
0.010502
0.0103052
0.0101073
0.00990543
0.00970646
0.0094967
0.00930646
0.00907143
0.00892694
0.0125715
0.014418
0.0141491
0.0142189
0.0141349
0.0139995
0.0138593
0.013711
0.0135596
0.013407
0.0132535
0.0130989
0.0129431
0.0127856
0.0126263
0.0124647
0.0123006
0.0121336
0.0119638
0.0117907
0.0116145
0.0114349
0.0112522
0.0110662
0.0108774
0.0106854
0.0104912
0.0102941
0.010096
0.00989417
0.00969509
0.00948605
0.00929412
0.00906103
0.00890622
0.0123274
0.014506
0.0141773
0.0142555
0.0141596
0.0140163
0.0138714
0.0137198
0.0135661
0.0134119
0.0132571
0.0131015
0.0129448
0.0127866
0.0126266
0.0124643
0.0122997
0.0121321
0.0119617
0.0117881
0.0116114
0.0114313
0.0112482
0.0110617
0.0108726
0.0106803
0.0104859
0.0102886
0.0100905
0.00988882
0.00969013
0.00948247
0.0092918
0.0090659
0.00891286
0.0120614
0.0146091
0.0142005
0.0142842
0.0141773
0.0140286
0.0138804
0.0137265
0.0135714
0.0134161
0.0132604
0.0131041
0.0129468
0.0127881
0.0126276
0.0124649
0.0122999
0.0121319
0.0119612
0.0117873
0.0116103
0.0114299
0.0112466
0.0110598
0.0108705
0.0106779
0.0104835
0.0102861
0.0100881
0.0098865
0.0096878
0.00948115
0.00928738
0.00906486
0.00887983
0.0118106
0.0147171
0.0142466
0.0143282
0.0142064
0.0140492
0.0138956
0.0137381
0.0135805
0.0134234
0.0132665
0.0131092
0.0129512
0.0127919
0.012631
0.0124679
0.0123026
0.0121345
0.0119636
0.0117894
0.0116124
0.0114318
0.0112485
0.0110617
0.0108724
0.0106798
0.0104854
0.010288
0.0100902
0.00988876
0.00969072
0.00948493
0.00929633
0.00908104
0.00894311
0.0142118
0.0146754
0.0142828
0.0141824
0.0140709
0.0139564
0.013848
0.0137394
0.0136312
0.013524
0.013418
0.0133133
0.01321
0.0131082
0.0130078
0.0129085
0.01281
0.0127122
0.0126145
0.0125164
0.0124175
0.0123172
0.0122149
0.0121098
0.0120014
0.0118889
0.0117718
0.011649
0.0115206
0.0113849
0.0112438
0.011093
0.0109425
0.0107736
0.0106342
0.0141872
0.014644
0.0142633
0.0141672
0.0140589
0.0139461
0.0138378
0.0137283
0.0136183
0.0135086
0.0133994
0.0132909
0.0131834
0.0130767
0.0129709
0.0128657
0.0127609
0.0126562
0.0125511
0.0124453
0.0123382
0.0122292
0.012118
0.0120037
0.0118861
0.0117642
0.0116377
0.0115056
0.0113682
0.0112232
0.0110736
0.0109114
0.0107519
0.0105586
0.0104088
0.0141594
0.0146116
0.014242
0.0141507
0.0140454
0.0139339
0.0138251
0.0137139
0.0136013
0.0134882
0.013375
0.0132619
0.0131491
0.0130367
0.0129246
0.0128125
0.0127002
0.0125874
0.0124737
0.0123586
0.0122418
0.0121225
0.0120005
0.0118751
0.0117458
0.011612
0.0114735
0.0113292
0.0111798
0.011023
0.0108626
0.0106896
0.0105236
0.010322
0.0101755
0.0141239
0.0145763
0.0142204
0.0141356
0.0140343
0.0139248
0.0138161
0.0137037
0.013589
0.0134731
0.0133564
0.0132394
0.0131223
0.013005
0.0128875
0.0127697
0.0126512
0.0125317
0.012411
0.0122884
0.0121638
0.0120365
0.0119062
0.0117722
0.0116344
0.011492
0.011345
0.0111923
0.0110349
0.01087
0.0107023
0.0105211
0.0103482
0.0101361
0.00998384
0.0140912
0.0145387
0.0141991
0.0141213
0.0140242
0.0139162
0.0138072
0.0136932
0.013576
0.0134569
0.0133364
0.0132152
0.0130933
0.0129709
0.0128478
0.0127239
0.012599
0.0124726
0.0123446
0.0122143
0.0120817
0.011946
0.0118071
0.0116644
0.0115177
0.0113663
0.0112104
0.011049
0.0108831
0.0107101
0.0105349
0.0103467
0.0101687
0.00995099
0.00979829
0.0140456
0.0144985
0.0141775
0.0141084
0.0140162
0.0139102
0.013801
0.0136855
0.0135659
0.0134438
0.0133199
0.0131948
0.0130687
0.0129417
0.0128136
0.0126844
0.0125537
0.0124214
0.012287
0.0121502
0.0120107
0.011868
0.0117219
0.0115719
0.011418
0.0112595
0.0110966
0.0109284
0.0107561
0.010577
0.0103963
0.0102026
0.0100202
0.00979712
0.00964191
0.0139971
0.0144563
0.0141567
0.0140973
0.0140105
0.0139062
0.0137964
0.0136791
0.0135569
0.0134316
0.0133041
0.013175
0.0130446
0.012913
0.01278
0.0126456
0.0125094
0.0123712
0.0122307
0.0120875
0.0119414
0.011792
0.0116391
0.0114823
0.0113215
0.0111562
0.0109868
0.0108122
0.010634
0.0104492
0.0102635
0.0100652
0.00987957
0.00965288
0.0094973
0.0139386
0.0144132
0.0141378
0.0140893
0.0140079
0.013905
0.0137944
0.0136751
0.0135502
0.0134218
0.0132909
0.0131581
0.0130238
0.0128879
0.0127505
0.0126113
0.0124702
0.0123268
0.0121809
0.0120322
0.0118803
0.0117251
0.0115664
0.0114037
0.0112372
0.0110663
0.0108915
0.0107119
0.0105289
0.0103398
0.0101503
0.00994843
0.00976039
0.00953065
0.00937477
0.0138688
0.0143703
0.0141205
0.0140842
0.0140086
0.0139066
0.0137949
0.0136734
0.0135457
0.0134142
0.01328
0.0131438
0.0130059
0.0128663
0.0127248
0.0125815
0.012436
0.0122881
0.0121375
0.0119839
0.0118272
0.011667
0.0115033
0.0113357
0.0111643
0.0109887
0.0108094
0.0106256
0.0104388
0.0102461
0.0100537
0.00984905
0.00965938
0.00942734
0.00927191
0.0137986
0.0143354
0.014109
0.0140839
0.0140127
0.0139106
0.0137972
0.0136734
0.0135431
0.0134088
0.0132718
0.0131326
0.0129916
0.0128488
0.012704
0.0125573
0.0124082
0.0122566
0.0121021
0.0119447
0.0117839
0.0116198
0.011452
0.0112805
0.0111053
0.0109262
0.0107434
0.0105565
0.0103667
0.0101715
0.00997705
0.00977038
0.00957975
0.00934584
0.00919122
0.0137068
0.0143005
0.0140983
0.0140862
0.0140195
0.0139168
0.0138016
0.0136752
0.0135421
0.0134051
0.0132653
0.0131233
0.0129794
0.0128338
0.012686
0.0125362
0.0123839
0.012229
0.0120712
0.0119104
0.0117462
0.0115786
0.0114074
0.0112326
0.0110541
0.0108719
0.0106863
0.0104967
0.0103046
0.0101073
0.00991125
0.00970303
0.00951191
0.00927645
0.00912327
0.0136131
0.014277
0.0140939
0.0140937
0.0140297
0.0139251
0.0138073
0.0136781
0.0135423
0.0134026
0.0132602
0.0131157
0.0129694
0.0128212
0.0126709
0.0125184
0.0123634
0.0122057
0.012045
0.0118813
0.0117142
0.0115437
0.0113696
0.0111921
0.011011
0.0108263
0.0106383
0.0104467
0.0102528
0.0100539
0.00985672
0.00964735
0.00945611
0.00921926
0.00906792
0.013489
0.0142578
0.0140911
0.0141046
0.0140428
0.0139355
0.0138148
0.0136826
0.0135439
0.0134016
0.0132567
0.0131099
0.0129613
0.0128108
0.0126582
0.0125034
0.012346
0.012186
0.0120229
0.0118567
0.0116871
0.0115142
0.0113377
0.0111579
0.0109746
0.0107878
0.010598
0.0104047
0.0102094
0.0100093
0.00981137
0.00960123
0.00941021
0.00917237
0.00902342
0.0133588
0.0142548
0.0140947
0.0141202
0.0140581
0.0139467
0.0138227
0.0136873
0.0135458
0.0134011
0.0132541
0.0131053
0.0129547
0.0128023
0.0126478
0.012491
0.0123316
0.0121696
0.0120044
0.0118362
0.0116646
0.0114897
0.0113113
0.0111296
0.0109445
0.0107561
0.0105648
0.0103703
0.0101739
0.00997302
0.00977451
0.00956388
0.00937311
0.00913442
0.00898771
0.0131965
0.014264
0.0141018
0.0141407
0.0140768
0.0139604
0.0138323
0.0136934
0.0135491
0.013402
0.0132529
0.0131022
0.0129499
0.0127958
0.0126396
0.0124812
0.0123202
0.0121565
0.0119897
0.0118198
0.0116465
0.01147
0.01129
0.0111068
0.0109203
0.0107306
0.0105382
0.0103427
0.0101456
0.00994414
0.00974536
0.00953469
0.00934439
0.00910595
0.00896168
0.0130155
0.0142932
0.0141134
0.0141632
0.0140949
0.0139727
0.0138408
0.0136987
0.0135519
0.0134028
0.013252
0.0130998
0.012946
0.0127906
0.0126331
0.0124734
0.0123111
0.012146
0.0119779
0.0118067
0.0116322
0.0114543
0.0112732
0.0110887
0.0109012
0.0107105
0.0105173
0.010321
0.0101234
0.00992162
0.00972262
0.00951209
0.00932154
0.00908342
0.00893867
0.0128118
0.0143426
0.0141315
0.014193
0.0141174
0.0139879
0.0138514
0.0137057
0.0135563
0.0134052
0.0132528
0.0130992
0.0129443
0.0127877
0.0126292
0.0124683
0.012305
0.0121389
0.0119697
0.0117974
0.0116219
0.0114431
0.011261
0.0110757
0.0108873
0.010696
0.0105021
0.0103054
0.0101074
0.0099056
0.00970664
0.00949689
0.00930666
0.00907167
0.00892707
0.0125721
0.0144147
0.0141489
0.0142188
0.0141348
0.0139994
0.0138593
0.013711
0.0135596
0.0134071
0.0132536
0.013099
0.0129432
0.0127857
0.0126264
0.0124648
0.0123007
0.0121338
0.0119639
0.0117909
0.0116147
0.0114351
0.0112524
0.0110664
0.0108775
0.0106856
0.0104914
0.0102943
0.0100962
0.00989437
0.00969529
0.00948626
0.00929433
0.00906127
0.00890635
0.0123263
0.0145034
0.014177
0.0142554
0.0141596
0.0140164
0.0138716
0.0137199
0.0135663
0.0134121
0.0132573
0.0131017
0.012945
0.0127867
0.0126267
0.0124645
0.0122998
0.0121323
0.0119619
0.0117882
0.0116116
0.0114315
0.0112484
0.0110619
0.0108727
0.0106804
0.010486
0.0102887
0.0100907
0.00988899
0.00969031
0.00948265
0.009292
0.00906612
0.00891307
0.0120587
0.0146082
0.0142007
0.0142846
0.0141777
0.0140288
0.0138806
0.0137267
0.0135716
0.0134162
0.0132605
0.0131042
0.0129469
0.0127882
0.0126277
0.012465
0.0122999
0.012132
0.0119613
0.0117873
0.0116103
0.0114299
0.0112466
0.0110598
0.0108705
0.010678
0.0104836
0.0102861
0.0100881
0.00988655
0.00968785
0.0094812
0.00928745
0.00906487
0.00887989
0.0118249
0.0147204
0.0142462
0.0143271
0.0142052
0.014048
0.0138946
0.0137372
0.0135797
0.0134227
0.0132659
0.0131086
0.0129507
0.0127914
0.0126306
0.0124675
0.0123022
0.0121341
0.0119632
0.0117891
0.011612
0.0114315
0.0112481
0.0110613
0.010872
0.0106794
0.0104851
0.0102876
0.0100898
0.00988837
0.00969031
0.00948452
0.00929591
0.0090806
0.00894247
0.0142202
0.01467
0.0142827
0.0141825
0.0140709
0.0139564
0.013848
0.0137394
0.0136312
0.013524
0.013418
0.0133133
0.01321
0.0131082
0.0130078
0.0129085
0.01281
0.0127122
0.0126145
0.0125164
0.0124175
0.0123172
0.0122149
0.0121098
0.0120014
0.0118889
0.0117718
0.011649
0.0115206
0.011385
0.0112438
0.0110931
0.0109425
0.0107736
0.0106342
0.0141955
0.0146387
0.0142632
0.0141673
0.0140589
0.0139461
0.0138378
0.0137283
0.0136183
0.0135086
0.0133994
0.0132909
0.0131834
0.0130767
0.0129709
0.0128657
0.012761
0.0126562
0.0125511
0.0124453
0.0123382
0.0122292
0.012118
0.0120038
0.0118861
0.0117642
0.0116378
0.0115057
0.0113683
0.0112233
0.0110736
0.0109115
0.010752
0.0105587
0.0104089
0.0141675
0.0146064
0.0142419
0.0141508
0.0140454
0.0139339
0.0138251
0.0137139
0.0136013
0.0134882
0.013375
0.0132619
0.0131491
0.0130367
0.0129246
0.0128125
0.0127002
0.0125874
0.0124737
0.0123586
0.0122418
0.0121225
0.0120005
0.0118751
0.0117458
0.011612
0.0114735
0.0113292
0.0111798
0.011023
0.0108626
0.0106897
0.0105236
0.010322
0.0101756
0.0141319
0.0145711
0.0142203
0.0141357
0.0140344
0.0139248
0.0138161
0.0137037
0.013589
0.0134731
0.0133564
0.0132394
0.0131223
0.013005
0.0128875
0.0127697
0.0126512
0.0125317
0.012411
0.0122884
0.0121638
0.0120365
0.0119062
0.0117722
0.0116344
0.011492
0.011345
0.0111924
0.011035
0.0108701
0.0107023
0.0105212
0.0103483
0.0101361
0.00998393
0.014099
0.0145337
0.0141989
0.0141214
0.0140242
0.0139163
0.0138072
0.0136932
0.013576
0.0134569
0.0133364
0.0132152
0.0130933
0.0129709
0.0128478
0.0127239
0.012599
0.0124726
0.0123446
0.0122143
0.0120817
0.011946
0.0118071
0.0116644
0.0115177
0.0113663
0.0112104
0.011049
0.0108831
0.0107101
0.0105349
0.0103467
0.0101687
0.00995103
0.00979838
0.0140533
0.0144936
0.0141775
0.0141085
0.0140163
0.0139103
0.013801
0.0136855
0.0135659
0.0134438
0.0133199
0.0131948
0.0130687
0.0129417
0.0128136
0.0126844
0.0125538
0.0124214
0.012287
0.0121502
0.0120107
0.011868
0.0117219
0.011572
0.011418
0.0112595
0.0110967
0.0109285
0.0107562
0.010577
0.0103963
0.0102026
0.0100203
0.00979717
0.00964202
0.0140046
0.0144515
0.0141566
0.0140974
0.0140105
0.0139062
0.0137964
0.0136791
0.0135569
0.0134316
0.0133041
0.013175
0.0130446
0.012913
0.01278
0.0126456
0.0125094
0.0123712
0.0122307
0.0120875
0.0119414
0.011792
0.0116391
0.0114823
0.0113215
0.0111562
0.0109868
0.0108123
0.010634
0.0104492
0.0102636
0.0100652
0.00987963
0.00965293
0.0094974
0.0139459
0.0144085
0.0141377
0.0140893
0.014008
0.013905
0.0137944
0.0136751
0.0135502
0.0134218
0.0132909
0.0131581
0.0130238
0.0128879
0.0127505
0.0126113
0.0124702
0.0123268
0.0121809
0.0120322
0.0118804
0.0117252
0.0115664
0.0114037
0.0112372
0.0110663
0.0108915
0.0107119
0.0105289
0.0103398
0.0101504
0.00994849
0.00976046
0.0095307
0.00937488
0.013876
0.0143657
0.0141205
0.0140843
0.0140086
0.0139066
0.0137949
0.0136734
0.0135457
0.0134142
0.01328
0.0131438
0.0130059
0.0128663
0.0127248
0.0125815
0.012436
0.0122881
0.0121375
0.011984
0.0118272
0.011667
0.0115033
0.0113357
0.0111643
0.0109888
0.0108095
0.0106257
0.0104388
0.0102461
0.0100538
0.0098491
0.00965945
0.00942739
0.00927202
0.0138056
0.014331
0.014109
0.0140839
0.0140127
0.0139106
0.0137972
0.0136734
0.0135431
0.0134088
0.0132717
0.0131326
0.0129916
0.0128488
0.012704
0.0125573
0.0124082
0.0122566
0.0121021
0.0119447
0.0117839
0.0116198
0.011452
0.0112806
0.0111054
0.0109262
0.0107435
0.0105565
0.0103668
0.0101716
0.0099771
0.00977044
0.00957982
0.00934589
0.00919133
0.0137136
0.0142962
0.0140982
0.0140862
0.0140196
0.0139169
0.0138016
0.0136752
0.0135421
0.0134051
0.0132652
0.0131233
0.0129794
0.0128337
0.012686
0.0125362
0.0123839
0.012229
0.0120712
0.0119104
0.0117462
0.0115786
0.0114074
0.0112326
0.0110541
0.0108719
0.0106863
0.0104967
0.0103047
0.0101074
0.00991131
0.00970309
0.00951198
0.00927651
0.00912338
0.0136196
0.0142729
0.0140938
0.0140937
0.0140297
0.013925
0.0138073
0.0136781
0.0135422
0.0134026
0.0132602
0.0131157
0.0129694
0.0128211
0.0126708
0.0125184
0.0123633
0.0122057
0.012045
0.0118813
0.0117142
0.0115437
0.0113697
0.0111921
0.011011
0.0108263
0.0106384
0.0104467
0.0102528
0.010054
0.00985677
0.00964741
0.00945617
0.00921932
0.00906803
0.0134954
0.0142539
0.0140911
0.0141046
0.0140429
0.0139355
0.0138148
0.0136826
0.0135438
0.0134015
0.0132567
0.0131099
0.0129613
0.0128108
0.0126582
0.0125034
0.012346
0.012186
0.0120229
0.0118567
0.0116871
0.0115142
0.0113378
0.0111579
0.0109746
0.0107879
0.010598
0.0104047
0.0102095
0.0100094
0.00981143
0.00960129
0.00941028
0.00917243
0.00902354
0.0133649
0.0142511
0.0140946
0.0141202
0.0140581
0.0139467
0.0138226
0.0136873
0.0135458
0.0134011
0.0132541
0.0131052
0.0129546
0.0128022
0.0126477
0.012491
0.0123316
0.0121696
0.0120044
0.0118362
0.0116646
0.0114897
0.0113113
0.0111296
0.0109445
0.0107562
0.0105649
0.0103703
0.010174
0.00997308
0.00977457
0.00956394
0.00937318
0.00913449
0.00898783
0.0132024
0.0142605
0.0141018
0.0141407
0.0140768
0.0139603
0.0138323
0.0136934
0.013549
0.0134019
0.0132529
0.0131022
0.0129498
0.0127957
0.0126396
0.0124812
0.0123202
0.0121565
0.0119897
0.0118198
0.0116465
0.01147
0.0112901
0.0111068
0.0109203
0.0107307
0.0105383
0.0103427
0.0101456
0.00994421
0.00974543
0.00953477
0.00934448
0.00910604
0.00896182
0.013021
0.01429
0.0141133
0.0141632
0.0140948
0.0139726
0.0138407
0.0136986
0.0135518
0.0134027
0.0132519
0.0130997
0.012946
0.0127906
0.0126331
0.0124734
0.0123111
0.012146
0.011978
0.0118067
0.0116322
0.0114544
0.0112732
0.0110888
0.0109012
0.0107106
0.0105173
0.0103211
0.0101234
0.00992171
0.00972271
0.00951219
0.00932165
0.00908353
0.00893883
0.0128169
0.0143396
0.0141313
0.0141929
0.0141173
0.0139878
0.0138513
0.0137056
0.0135562
0.0134052
0.0132528
0.0130992
0.0129443
0.0127877
0.0126292
0.0124684
0.0123051
0.0121389
0.0119698
0.0117975
0.011622
0.0114432
0.0112611
0.0110758
0.0108874
0.0106961
0.0105022
0.0103055
0.0101075
0.00990572
0.00970677
0.00949702
0.0093068
0.00907181
0.00892727
0.0125769
0.014412
0.0141487
0.0142187
0.0141347
0.0139993
0.0138592
0.013711
0.0135597
0.0134071
0.0132536
0.0130991
0.0129432
0.0127858
0.0126265
0.0124649
0.0123008
0.0121339
0.011964
0.011791
0.0116148
0.0114352
0.0112525
0.0110665
0.0108776
0.0106857
0.0104915
0.0102944
0.0100963
0.0098945
0.00969543
0.00948639
0.00929448
0.00906141
0.00890652
0.01233
0.0145015
0.0141768
0.0142554
0.0141597
0.0140165
0.0138717
0.0137201
0.0135665
0.0134123
0.0132575
0.0131018
0.0129451
0.0127869
0.0126269
0.0124646
0.0122999
0.0121324
0.011962
0.0117884
0.0116117
0.0114316
0.0112485
0.011062
0.0108728
0.0106805
0.0104861
0.0102888
0.0100908
0.0098891
0.00969043
0.00948276
0.00929213
0.00906624
0.00891328
0.0120607
0.0146083
0.014201
0.0142851
0.0141781
0.0140291
0.0138809
0.0137269
0.0135717
0.0134163
0.0132606
0.0131043
0.012947
0.0127882
0.0126277
0.012465
0.0122999
0.012132
0.0119613
0.0117873
0.0116103
0.0114299
0.0112466
0.0110598
0.0108705
0.010678
0.0104836
0.0102861
0.0100881
0.00988655
0.00968785
0.00948118
0.00928746
0.00906481
0.00887977
0.0118332
0.0147224
0.0142462
0.0143267
0.0142046
0.0140474
0.0138941
0.0137368
0.0135793
0.0134224
0.0132656
0.0131084
0.0129504
0.0127912
0.0126303
0.0124673
0.012302
0.0121339
0.011963
0.0117889
0.0116118
0.0114313
0.0112479
0.0110611
0.0108718
0.0106793
0.0104849
0.0102875
0.0100896
0.0098882
0.00969012
0.00948433
0.00929571
0.00908042
0.0089422
0.0142253
0.0146648
0.0142824
0.0141824
0.014071
0.0139565
0.013848
0.0137394
0.0136312
0.013524
0.013418
0.0133133
0.01321
0.0131082
0.0130078
0.0129084
0.01281
0.0127122
0.0126144
0.0125164
0.0124175
0.0123172
0.0122149
0.0121098
0.0120014
0.0118889
0.0117718
0.011649
0.0115206
0.0113849
0.0112438
0.011093
0.0109425
0.0107736
0.0106343
0.0142004
0.0146336
0.0142629
0.0141672
0.0140589
0.0139462
0.0138379
0.0137283
0.0136183
0.0135086
0.0133994
0.0132909
0.0131834
0.0130767
0.0129709
0.0128657
0.012761
0.0126562
0.0125512
0.0124453
0.0123382
0.0122293
0.012118
0.0120038
0.0118862
0.0117642
0.0116378
0.0115057
0.0113683
0.0112233
0.0110737
0.0109116
0.010752
0.0105587
0.010409
0.0141725
0.0146013
0.0142416
0.0141507
0.0140455
0.0139339
0.0138251
0.0137139
0.0136013
0.0134882
0.013375
0.0132619
0.0131491
0.0130367
0.0129246
0.0128125
0.0127002
0.0125874
0.0124737
0.0123586
0.0122418
0.0121225
0.0120005
0.0118751
0.0117458
0.011612
0.0114735
0.0113292
0.0111798
0.011023
0.0108626
0.0106897
0.0105236
0.010322
0.0101756
0.0141368
0.0145661
0.01422
0.0141356
0.0140344
0.0139248
0.0138161
0.0137037
0.013589
0.0134731
0.0133564
0.0132394
0.0131223
0.013005
0.0128875
0.0127697
0.0126512
0.0125317
0.012411
0.0122885
0.0121638
0.0120365
0.0119062
0.0117722
0.0116344
0.011492
0.0113451
0.0111924
0.011035
0.0108701
0.0107023
0.0105212
0.0103483
0.0101362
0.00998402
0.0141038
0.0145288
0.0141986
0.0141213
0.0140242
0.0139163
0.0138072
0.0136932
0.013576
0.0134568
0.0133364
0.0132151
0.0130933
0.0129708
0.0128478
0.0127239
0.0125989
0.0124726
0.0123445
0.0122143
0.0120817
0.011946
0.0118071
0.0116644
0.0115177
0.0113663
0.0112104
0.011049
0.0108831
0.0107101
0.0105349
0.0103467
0.0101687
0.00995105
0.00979846
0.014058
0.0144888
0.0141772
0.0141084
0.0140163
0.0139103
0.013801
0.0136855
0.0135659
0.0134438
0.0133199
0.0131948
0.0130687
0.0129416
0.0128136
0.0126844
0.0125538
0.0124214
0.012287
0.0121502
0.0120107
0.011868
0.0117219
0.011572
0.011418
0.0112595
0.0110967
0.0109285
0.0107562
0.0105771
0.0103964
0.0102027
0.0100203
0.00979721
0.00964212
0.0140093
0.0144468
0.0141563
0.0140973
0.0140105
0.0139062
0.0137964
0.0136791
0.0135569
0.0134316
0.0133041
0.013175
0.0130446
0.012913
0.01278
0.0126456
0.0125094
0.0123712
0.0122307
0.0120875
0.0119414
0.011792
0.0116391
0.0114823
0.0113215
0.0111562
0.0109868
0.0108123
0.010634
0.0104492
0.0102636
0.0100653
0.00987963
0.00965296
0.00949751
0.0139504
0.0144039
0.0141375
0.0140893
0.014008
0.013905
0.0137944
0.0136751
0.0135502
0.0134218
0.0132909
0.0131581
0.0130237
0.0128879
0.0127505
0.0126113
0.0124702
0.0123268
0.0121809
0.0120322
0.0118804
0.0117252
0.0115664
0.0114037
0.0112372
0.0110664
0.0108915
0.0107119
0.0105289
0.0103398
0.0101504
0.00994852
0.00976047
0.00953075
0.00937501
0.0138804
0.0143612
0.0141202
0.0140842
0.0140086
0.0139066
0.0137948
0.0136734
0.0135457
0.0134142
0.01328
0.0131438
0.0130059
0.0128662
0.0127248
0.0125815
0.012436
0.0122881
0.0121375
0.011984
0.0118272
0.011667
0.0115033
0.0113357
0.0111643
0.0109888
0.0108095
0.0106257
0.0104388
0.0102462
0.0100538
0.00984913
0.00965946
0.00942743
0.00927215
0.0138099
0.0143266
0.0141087
0.0140839
0.0140127
0.0139106
0.0137972
0.0136734
0.013543
0.0134088
0.0132717
0.0131326
0.0129915
0.0128487
0.012704
0.0125573
0.0124082
0.0122566
0.0121021
0.0119447
0.0117839
0.0116198
0.011452
0.0112806
0.0111054
0.0109262
0.0107435
0.0105565
0.0103668
0.0101716
0.00997711
0.00977047
0.00957983
0.00934594
0.00919147
0.0137178
0.014292
0.014098
0.0140862
0.0140196
0.0139169
0.0138016
0.0136752
0.0135421
0.0134051
0.0132652
0.0131233
0.0129794
0.0128337
0.012686
0.0125362
0.0123839
0.012229
0.0120712
0.0119104
0.0117462
0.0115786
0.0114074
0.0112326
0.0110541
0.0108719
0.0106863
0.0104967
0.0103047
0.0101074
0.00991131
0.00970312
0.00951199
0.00927656
0.00912353
0.0136237
0.0142688
0.0140936
0.0140936
0.0140297
0.013925
0.0138072
0.0136781
0.0135422
0.0134025
0.0132601
0.0131157
0.0129693
0.0128211
0.0126708
0.0125183
0.0123633
0.0122057
0.012045
0.0118813
0.0117142
0.0115437
0.0113697
0.0111921
0.011011
0.0108263
0.0106384
0.0104467
0.0102528
0.010054
0.00985678
0.00964744
0.00945618
0.00921937
0.00906818
0.0134993
0.0142499
0.0140909
0.0141046
0.0140429
0.0139355
0.0138148
0.0136825
0.0135438
0.0134015
0.0132567
0.0131099
0.0129612
0.0128108
0.0126582
0.0125034
0.012346
0.0121859
0.0120228
0.0118566
0.0116871
0.0115142
0.0113378
0.0111579
0.0109746
0.0107879
0.010598
0.0104047
0.0102095
0.0100094
0.00981144
0.00960132
0.00941029
0.00917249
0.00902371
0.0133687
0.0142473
0.0140944
0.0141201
0.0140581
0.0139467
0.0138226
0.0136872
0.0135457
0.013401
0.013254
0.0131052
0.0129546
0.0128022
0.0126477
0.0124909
0.0123316
0.0121695
0.0120044
0.0118362
0.0116646
0.0114897
0.0113113
0.0111296
0.0109445
0.0107562
0.0105649
0.0103703
0.010174
0.0099731
0.00977458
0.00956398
0.0093732
0.00913455
0.00898801
0.013206
0.014257
0.0141016
0.0141406
0.0140768
0.0139602
0.0138322
0.0136933
0.0135489
0.0134019
0.0132528
0.0131021
0.0129498
0.0127957
0.0126396
0.0124812
0.0123202
0.0121564
0.0119897
0.0118198
0.0116465
0.01147
0.0112901
0.0111068
0.0109203
0.0107307
0.0105383
0.0103428
0.0101457
0.00994424
0.00974546
0.00953482
0.0093445
0.00910611
0.00896203
0.0130244
0.0142867
0.0141131
0.0141631
0.0140947
0.0139725
0.0138406
0.0136985
0.0135517
0.0134026
0.0132519
0.0130997
0.012946
0.0127905
0.0126331
0.0124734
0.0123111
0.012146
0.0119779
0.0118067
0.0116322
0.0114544
0.0112732
0.0110888
0.0109012
0.0107106
0.0105174
0.0103211
0.0101235
0.00992176
0.00972275
0.00951225
0.00932169
0.00908362
0.00893905
0.0128201
0.0143367
0.0141312
0.0141927
0.0141172
0.0139877
0.0138512
0.0137055
0.0135561
0.0134051
0.0132528
0.0130992
0.0129443
0.0127877
0.0126292
0.0124684
0.0123051
0.0121389
0.0119698
0.0117975
0.011622
0.0114432
0.0112611
0.0110758
0.0108875
0.0106961
0.0105023
0.0103055
0.0101076
0.00990579
0.00970683
0.0094971
0.00930686
0.00907193
0.00892751
0.0125799
0.0144094
0.0141485
0.0142186
0.0141347
0.0139992
0.0138592
0.0137109
0.0135596
0.0134072
0.0132537
0.0130991
0.0129433
0.0127858
0.0126265
0.0124649
0.0123009
0.0121339
0.0119641
0.011791
0.0116148
0.0114353
0.0112526
0.0110666
0.0108777
0.0106858
0.0104916
0.0102945
0.0100964
0.00989458
0.00969551
0.00948648
0.00929455
0.00906151
0.00890672
0.0123324
0.0145
0.0141769
0.0142553
0.0141597
0.0140166
0.0138718
0.0137202
0.0135666
0.0134124
0.0132575
0.0131019
0.0129452
0.0127869
0.0126269
0.0124647
0.0123
0.0121324
0.011962
0.0117884
0.0116117
0.0114316
0.0112485
0.011062
0.0108729
0.0106806
0.0104862
0.0102889
0.0100908
0.00988915
0.00969048
0.00948281
0.00929218
0.00906631
0.00891342
0.0120626
0.0146089
0.0142013
0.0142853
0.0141783
0.0140292
0.0138809
0.0137269
0.0135717
0.0134163
0.0132606
0.0131042
0.0129469
0.0127882
0.0126277
0.012465
0.0122999
0.012132
0.0119612
0.0117873
0.0116103
0.0114299
0.0112465
0.0110598
0.0108705
0.0106779
0.0104835
0.0102861
0.0100881
0.00988649
0.00968779
0.00948111
0.00928739
0.00906471
0.00887927
0.0118317
0.0147237
0.0142468
0.0143267
0.0142046
0.0140474
0.013894
0.0137367
0.0135793
0.0134223
0.0132655
0.0131083
0.0129504
0.0127911
0.0126303
0.0124673
0.012302
0.0121339
0.011963
0.0117889
0.0116118
0.0114313
0.0112479
0.0110611
0.0108718
0.0106793
0.0104849
0.0102875
0.0100896