/*--------------------------------*- C++ -*----------------------------------*\
  =========                 |
  \\      /  F ield         | OpenFOAM: The Open Source CFD Toolbox
   \\    /   O peration     | Website:  https://openfoam.org
    \\  /    A nd           | Version:  6
     \\/     M anipulation  |
\*---------------------------------------------------------------------------*/
FoamFile
{
    version     2.0;
    format      ascii;
    class       volScalarField;
    location    "33";
    object      yPlus;
}
// * * * * * * * * * * * * * * * * * * * * * * * * * * * * * * * * * * * * * //

dimensions      [0 0 0 0 0 0 0];

internalField   uniform 0;

boundaryField
{
    inlet
    {
        type            calculated;
        value           uniform 0;
    }
    outlet
    {
        type            calculated;
        value           uniform 0;
    }
    roughCylinder
    {
        type            calculated;
        value           nonuniform List<scalar> 
3840
(
45.8349
54.2352
62.1581
69.1819
74.5122
78.4818
81.5109
83.9193
85.9828
87.8002
89.4502
90.9961
92.5087
94.0574
95.6955
97.4544
99.341
101.345
103.444
105.608
107.79
109.914
111.785
113.022
45.013
53.149
60.8573
67.78
73.0758
77.0304
80.0581
82.4775
84.5464
86.3524
87.9797
89.4971
90.9781
92.4921
94.0943
95.8146
97.6601
99.6203
101.673
103.787
105.918
107.992
109.816
111.022
44.1603
52.0518
59.5497
66.3636
71.6258
75.574
78.6131
81.0525
83.1295
84.9283
86.5371
88.0296
89.4806
90.9625
92.5287
94.2107
96.0155
97.9323
99.9384
102.004
104.085
106.109
107.887
109.06
43.2574
50.9076
58.2056
64.9168
70.1556
74.1108
77.1746
79.6442
81.7357
83.5373
85.1303
86.5994
88.0235
89.4738
91.0072
92.6532
94.4186
96.2928
98.2536
100.271
102.301
104.276
106.008
107.151
42.3354
49.7533
56.8431
63.4472
68.6697
72.6448
75.7458
78.2529
80.3651
82.1725
83.7559
85.2078
86.6076
88.0311
89.5322
91.1428
92.8704
94.7039
96.6208
98.592
100.574
102.499
104.187
105.299
41.4074
48.5518
55.4308
61.9342
67.1553
71.1663
74.3153
76.8678
79.0072
80.8299
82.4138
83.8517
85.2317
86.6286
88.1016
89.6808
91.3723
93.166
95.0397
96.9643
98.8976
100.776
102.42
103.501
40.4132
47.3208
53.9776
60.3779
65.6091
69.6717
72.8824
75.4882
77.6639
79.5051
81.098
82.5297
83.8943
85.2721
86.718
88.2651
89.9223
91.6783
93.5104
95.3916
97.2783
99.1102
100.711
101.761
39.4905
46.0582
52.4662
58.7568
64.0124
68.1467
71.4304
74.1006
76.319
78.1924
79.8023
81.2375
82.594
83.9523
85.3762
86.8979
88.5226
90.2415
92.0326
93.8682
95.7085
97.4945
99.0517
100.073
38.3787
44.7015
50.859
57.0428
62.3397
66.5696
69.9516
72.6988
74.9764
76.8856
78.5216
79.9696
81.3245
82.6756
84.0795
85.5727
87.1669
88.8512
90.6034
92.3972
94.1925
95.9332
97.4485
98.4403
37.4514
43.3478
49.1848
55.2256
60.5711
64.9247
68.4194
71.2642
73.6087
75.5757
77.2477
78.7168
80.0816
81.4251
82.8148
84.2904
85.8562
87.5056
89.2178
90.9661
92.7145
94.4107
95.8828
96.8443
36.1343
41.7892
47.3305
53.2312
58.6452
63.1566
66.8177
69.7846
72.2271
74.252
75.9733
77.475
78.8529
80.2039
81.5846
83.0358
84.5746
86.1916
87.8657
89.5738
91.2775
92.9286
94.3593
95.2923
35.0442
40.2518
45.3753
51.057
56.5249
61.2466
65.096
68.2256
70.7752
72.9015
74.686
76.2304
77.6387
78.993
80.3687
81.8122
83.3273
84.9114
86.5456
88.2061
89.8632
91.4707
92.8571
93.758
33.7615
38.5415
43.165
48.5844
54.1267
59.0798
63.2231
66.5651
69.2908
71.5086
73.3745
74.9795
76.4185
77.7985
79.178
80.6013
82.0935
83.648
85.2455
86.8674
88.4792
90.0407
91.3864
92.2588
32.2668
36.7012
40.7781
45.7621
51.2716
56.5969
61.0843
64.7363
67.6446
70.0433
72.0197
73.6972
75.1954
76.5944
77.98
79.408
80.8822
82.4057
83.9627
85.5335
87.0979
88.6153
89.9133
90.7515
30.445
34.4711
37.897
42.4341
47.9992
53.578
58.6218
62.6727
65.9303
68.4911
70.6022
72.3837
73.9368
75.3856
76.7923
78.2052
79.6609
81.1574
82.6784
84.2114
85.7281
87.199
88.455
89.2637
28.0283
31.9596
34.7864
38.4114
43.5079
49.872
55.5279
60.2548
63.872
66.7796
69.0887
70.992
72.647
74.1378
75.5657
77.0003
78.4448
79.9116
81.39
82.8656
84.3321
85.7547
86.9594
87.7307
24.9205
28.4008
30.2975
33.3121
38.7176
44.6628
51.6842
57.2454
61.6377
64.8711
67.4414
69.5283
71.2781
72.8535
74.3266
75.7506
77.1816
78.624
80.0653
81.5016
82.917
84.2942
85.4522
86.1905
20.1288
24.7919
26.5574
27.0576
28.0322
38.6672
46.1506
53.4321
58.6408
62.6571
65.5936
67.9024
69.8285
71.4818
72.9983
74.4708
75.8988
77.311
78.7054
80.0748
81.4336
82.7505
83.8509
84.5468
6.45937
14.2892
15.0409
19.9348
23.1276
24.3074
38.6921
47.8442
55.1852
59.9029
63.4609
66.1255
68.2221
70.0229
71.6219
73.0856
74.5056
75.8966
77.25
78.5732
79.8749
81.1534
82.1972
82.8531
1.90097
9.38422
10.6503
12.8957
18.6676
3.51423
22.7599
40.3063
49.6144
56.571
60.8627
63.9981
66.4412
68.3845
70.0671
71.6266
73.056
74.4117
75.7092
76.9495
78.1827
79.3729
80.3459
80.9522
16.0521
19.064
19.5656
18.6521
9.84507
21.2418
28.456
25.6613
43.3223
51.6297
57.6732
61.5768
64.3409
66.5666
68.3979
69.9472
71.3732
72.715
73.9628
75.1402
76.3053
77.4724
78.3779
78.9289
23.9325
27.1988
28.7153
28.5461
26.2484
20.2668
23.703
30.7881
28.7
45.5131
53.1055
58.2636
61.8513
64.3686
66.3769
68.1152
69.5766
70.8651
72.038
73.0995
74.1736
75.2028
75.9971
76.4844
26.2968
30.3201
32.8575
34.4024
34.5304
32.3678
25.5635
23.6303
9.17236
33.6039
47.5281
54.4547
58.6856
61.8056
64.0928
65.8159
67.2758
68.5701
69.6742
70.6366
71.6197
72.6452
73.3718
73.7746
27.1724
31.3099
34.0849
36.1314
37.2548
37.205
35.2192
27.6817
21.7606
12.7367
36.3625
47.9136
54.5491
58.3567
61.0792
63.2072
64.7592
65.9514
66.9353
67.6935
68.5441
69.3534
69.851
70.1534
26.633
30.9132
33.8692
36.1919
37.754
38.4958
38.2803
36.2206
29.679
17.6011
18.1427
40.8901
48.8785
54.2065
57.4547
59.5257
61.0722
62.3215
63.186
63.789
64.4729
65.2805
65.782
65.9406
24.3925
29.0195
32.242
34.8887
36.8442
38.115
38.7668
38.6481
35.8254
31.5279
8.98597
22.3067
40.7243
47.5397
52.1648
55.2609
57.019
58.0024
58.6431
58.6807
59.2006
59.701
59.6029
59.5568
21.3939
26.3966
29.8226
32.7092
34.9827
36.6697
37.8949
38.7552
38.8528
35.8877
25.1639
28.4581
26.211
40.4211
45.4408
48.2434
49.7909
51.1853
51.2992
51.501
51.308
51.5216
52.3381
51.9384
18.3408
23.5357
26.9788
29.9338
32.3909
34.4137
36.1255
37.6628
38.8952
38.9477
34.0924
27.0395
28.2539
21.2786
34.8202
40.1895
42.8444
42.9411
43.1931
40.7079
40.5149
40.8425
39.0289
38.5223
15.7213
20.8256
24.0772
26.9096
29.3807
31.595
33.6782
35.7602
37.806
39.3014
39.0504
32.087
19.8034
28.2139
10.5453
28.9106
23.3223
26.7882
19.8968
24.0551
12.0475
6.66374
42.8283
43.3583
13.37
18.296
21.2911
23.9273
26.3205
28.6037
30.9029
33.3253
35.9038
38.3487
39.8515
37.835
30.4987
24.096
27.2176
35.4653
17.8886
32.0572
19.3512
28.0828
19.9631
35.2416
39.4642
39.0755
11.6902
16.3192
19.0109
21.4045
23.6548
25.8971
28.2403
30.7735
33.5624
36.5067
39.0753
39.9314
37.8767
31.9686
30.218
34.7463
27.8762
35.2488
31.0419
37.4547
34.9772
34.8005
29.2614
30.6832
10.7287
15.0323
17.4638
19.6482
21.7518
23.8869
26.1312
28.5611
31.2607
34.2708
37.3647
39.6723
40.3068
38.2565
33.7315
29.6332
29.5928
30.4874
33.1272
32.5146
40.3653
40.3204
40.5622
41.3333
10.3045
14.4648
16.7285
18.7815
20.7762
22.7854
24.8538
27.0433
29.4484
32.1824
35.255
38.2652
40.312
40.5935
39.2635
37.9334
36.2589
38.8645
39.412
39.0594
43.7761
43.2767
44.1795
44.1283
10.4208
14.4923
16.6918
18.7013
20.6411
22.5452
24.4326
26.3532
28.3968
30.6897
33.3551
36.3411
39.1351
40.8085
41.1181
40.9996
39.6252
41.6233
41.4051
41.3544
43.4328
42.9714
44.1473
43.7785
10.8616
14.9363
17.1624
19.2004
21.1357
22.9746
24.721
26.4159
28.1368
29.9921
32.1209
34.6379
37.4156
39.8441
41.1779
41.6661
40.792
42.081
41.7732
41.5405
42.0568
41.8695
42.9434
42.5023
11.5261
15.6636
17.9623
20.0703
22.0402
23.8566
25.5158
27.0546
28.5381
30.0488
31.6987
33.63
35.9178
38.3361
40.1906
41.2018
40.8519
41.5358
41.1352
40.5645
40.2896
40.2503
41.0614
40.724
12.2926
16.5995
18.9854
21.1762
23.1961
25.0167
26.6342
28.0851
29.4232
30.7055
32.0067
33.4408
35.1293
37.0773
38.878
40.1241
40.1311
40.433
39.9023
39.0632
38.4664
38.4881
39.1163
39.0209
13.346
17.6912
20.1595
22.4345
24.5095
26.3486
27.9542
29.3671
30.6334
31.7891
32.8749
33.963
35.1559
36.5343
37.9349
39.0629
39.2304
39.2772
38.6305
37.6526
36.9635
37.0241
37.5888
37.7807
14.4146
18.8557
21.4229
23.7867
25.92
27.7877
29.4025
30.8112
32.0555
33.1568
34.1318
35.0159
35.8736
36.7843
37.7096
38.5038
38.6333
38.4682
37.7215
36.6916
35.9976
36.1123
36.7168
37.1681
15.5142
20.07
22.7425
25.1962
27.3896
29.2931
30.9317
32.3585
33.6119
34.7036
35.6363
36.4208
37.0854
37.6806
38.2125
38.6286
38.5865
38.2113
37.3669
36.3207
35.6529
35.831
36.5256
37.1801
16.46
16.9149
17.3853
17.7381
18.0592
18.2962
18.4975
18.6381
18.7437
18.8043
18.8362
18.8332
18.8028
18.7433
18.6579
18.5471
18.4155
18.2655
18.1061
17.9614
17.9169
18.0261
18.1707
18.312
18.4371
18.5418
18.6222
18.677
18.7025
18.7007
18.6641
18.5987
18.4897
18.3469
18.1441
17.9074
17.5876
17.2377
16.7719
16.3232
21.1156
21.5597
22.0392
22.4093
22.7568
23.0288
23.2683
23.4535
23.6054
23.715
23.7956
23.8428
23.8607
23.8474
23.8034
23.7277
23.6233
23.4921
23.3414
23.1954
23.148
23.2573
23.394
23.5174
23.6159
23.6861
23.7257
23.7345
23.7117
23.6596
23.5741
23.4598
23.305
23.1177
22.877
22.6055
22.2596
21.8929
21.4182
20.9811
23.8729
24.3386
24.854
25.2587
25.6508
25.972
26.2656
26.5095
26.7239
26.8985
27.0439
27.1572
27.2407
27.2914
27.3085
27.289
27.2339
27.1447
27.0285
26.9097
26.8696
26.9517
27.0531
27.134
27.1827
27.1966
27.1745
27.1181
27.0285
26.909
26.7574
26.5777
26.3594
26.112
25.8162
25.4945
25.1034
24.7018
24.1909
23.7326
26.387
26.8604
27.3964
27.8207
28.2419
28.5961
28.9281
29.2144
29.4768
29.7048
29.9053
30.075
30.2144
30.3198
30.3889
30.4186
30.4083
30.3591
30.2788
30.1923
30.1617
30.2125
30.2767
30.317
30.3208
30.2852
30.2102
30.0985
29.9523
29.7754
29.5677
29.3332
29.0649
28.773
28.4378
28.0819
27.6608
27.2388
26.7068
26.2407
28.6101
29.0685
29.6035
30.0277
30.4577
30.8269
31.183
31.5012
31.7996
32.0685
32.3125
32.527
32.7111
32.8605
32.9717
33.0412
33.0669
33.05
32.9982
32.9353
32.9104
32.9404
32.9761
32.9841
32.9519
32.8767
32.7596
32.6037
32.4125
32.1904
31.9387
31.6622
31.3566
31.0316
30.6705
30.2975
29.8664
29.4437
28.9124
28.4614
30.5214
30.952
31.4773
31.8957
32.3315
32.716
33.0934
33.4399
33.7699
34.0742
34.3555
34.6087
34.8311
35.0178
35.1645
35.2667
35.3218
35.3302
35.2992
35.2511
35.2292
35.2471
35.263
35.2465
35.1857
35.0782
34.926
34.7331
34.5037
34.2429
33.9536
33.6412
33.3035
32.9495
32.5662
32.1767
31.7383
31.3206
30.799
30.3757
32.1609
32.5649
33.0841
33.5031
33.9481
34.3492
34.7472
35.1195
35.4778
35.8131
36.1266
36.4124
36.6671
36.8849
37.0608
37.1894
37.2674
37.2945
37.2777
37.2384
37.2181
37.2293
37.2325
37.1983
37.1155
36.9825
36.8019
36.5783
36.317
36.0238
35.7025
35.359
34.9929
34.6129
34.2085
33.8019
33.354
32.9344
32.4186
32.0224
33.587
33.9687
34.4867
34.9091
35.3637
35.7803
36.1965
36.5907
36.9725
37.3334
37.673
37.9853
38.2657
38.5081
38.7066
38.8555
38.9507
38.9915
38.9846
38.9506
38.9312
38.9387
38.9336
38.8869
38.788
38.6357
38.4331
38.1857
37.8993
37.58
37.233
36.864
36.4744
36.0726
35.6499
35.2279
34.7703
34.3472
33.8323
33.4589
34.8341
35.1938
35.7105
36.1357
36.5982
37.0274
37.4584
37.8703
38.2709
38.652
39.012
39.3448
39.6451
39.9063
40.122
40.2862
40.3948
40.4464
40.4477
40.419
40.4007
40.4047
40.3925
40.3361
40.2249
40.0581
39.8391
39.5737
39.268
38.9289
38.5618
38.173
37.7649
37.3455
36.9083
36.4739
36.0087
35.5828
35.0701
34.7192
35.9071
36.2425
36.7554
37.1821
37.6508
38.0903
38.5336
38.9599
39.3758
39.7728
40.1488
40.4974
40.8128
41.0884
41.3175
41.494
41.6136
41.6756
41.6863
41.6652
41.6489
41.6472
41.6265
41.5605
41.4389
41.2606
41.0291
40.7499
40.4298
40.0755
39.693
39.2888
38.8659
38.4326
37.9835
37.5392
37.0684
36.6417
36.134
35.8093
36.8007
37.1067
37.6122
38.0393
38.513
38.9623
39.4165
39.8556
40.2846
40.6951
41.0842
41.4455
41.7731
42.06
42.2999
42.4868
42.6168
42.6898
42.7121
42.7015
42.6877
42.6782
42.6464
42.5698
42.4382
42.2501
42.0085
41.7188
41.3873
41.021
40.626
40.209
39.7736
39.3281
38.8685
38.4153
37.9403
37.5144
37.0162
36.7241
37.5118
37.7758
38.2684
38.6942
39.1727
39.6316
40.097
40.5489
40.9904
41.4133
41.8142
42.1866
42.5245
42.8211
43.0704
43.2669
43.4073
43.4919
43.5271
43.5276
43.5164
43.4988
43.4551
43.3669
43.2253
43.028
42.7776
42.4788
42.1379
41.7613
41.3553
40.9267
40.4794
40.0219
39.5521
39.0899
38.6116
38.1891
37.7074
37.4602
38.0447
38.2392
38.7074
39.1286
39.6103
40.0794
40.5566
41.0218
41.4763
41.9119
42.3243
42.7072
43.0548
43.3605
43.6186
43.8243
43.9749
44.0709
44.1184
44.129
44.12
44.0954
44.0404
43.9412
43.7898
43.5838
43.3251
43.018
42.6682
42.2819
41.8653
41.4249
40.9655
40.4955
40.0149
39.544
39.0643
38.6497
38.1957
38.0203
38.4174
38.4911
38.9058
39.3148
39.7964
40.2754
40.7648
41.2443
41.7127
42.1615
42.586
42.9798
43.3371
43.6519
43.9188
44.1335
44.2938
44.4004
44.4586
44.4774
44.4703
44.4401
44.3757
44.2666
44.1058
43.8914
43.6247
43.3093
42.9505
42.5542
42.1263
41.6735
41.2011
40.718
40.2266
39.7479
39.2717
38.8727
38.4746
38.4218
38.6482
38.5331
38.8462
39.2195
39.6943
40.1805
40.6816
41.1755
41.6585
42.1214
42.5589
42.9644
43.3321
43.6565
43.9324
44.1561
44.3255
44.4416
44.5086
44.534
44.5283
44.4938
44.4219
44.3041
44.1349
43.9123
43.6373
43.3132
42.9448
42.5377
42.0978
41.632
41.1461
40.6502
40.1493
39.6667
39.2003
38.8384
38.5406
38.6721
38.7019
38.3525
38.5187
38.823
39.2719
39.7607
40.2703
40.7773
41.2739
41.7508
42.2013
42.619
42.9977
43.332
43.6171
43.8495
44.0274
44.1517
44.226
44.2564
44.2517
44.214
44.136
44.0109
43.8341
43.6034
43.32
42.9868
42.6082
42.1899
41.7379
41.2591
40.761
40.254
39.7478
39.2668
38.8298
38.54
38.3923
38.761
38.4845
37.9068
37.91
38.1212
38.5239
39.0018
39.5174
40.0335
40.5414
41.0298
41.4919
41.9203
42.3089
42.6523
42.9458
43.1857
43.3708
43.5014
43.581
43.615
43.6109
43.5709
43.4888
43.3584
43.1754
42.9382
42.6476
42.3065
41.9194
41.4918
41.03
40.5418
40.0354
39.5228
39.0157
38.5485
38.1562
37.9516
37.9462
38.5043
37.8323
37.1124
36.999
37.1299
37.4852
37.9434
38.4577
38.982
39.4974
39.9939
40.4634
40.8989
41.2941
41.6435
41.9423
42.187
42.3761
42.51
42.592
42.6276
42.6237
42.5826
42.4987
42.3658
42.1799
41.9391
41.6443
41.2984
40.9058
40.4724
40.0049
39.5115
39.0014
38.4879
37.9872
37.5436
37.2031
37.0844
37.2075
37.93
36.7832
36.0165
35.8612
35.9532
36.2809
36.7235
37.233
37.7603
38.2791
38.7779
39.2491
39.6857
40.0817
40.4313
40.7297
40.9736
41.1613
41.2934
41.3733
41.4073
41.403
41.3632
41.2819
41.1523
40.9694
40.7312
40.4387
40.0946
39.7036
39.2717
38.806
38.3147
37.808
37.299
36.8107
36.3912
36.0886
36.0219
36.2063
37.001
35.721
34.9267
34.7561
34.8343
35.1503
35.5842
36.0889
36.6146
37.1335
37.6306
38.099
38.5318
38.9231
39.2671
39.5595
39.7965
39.9766
40.1005
40.1724
40.2005
40.1952
40.1605
40.0889
39.9707
39.7994
39.5725
39.2906
38.9569
38.5759
38.1538
37.6979
37.2167
36.7208
36.2233
35.7487
35.3449
35.0567
35.0004
35.1807
35.9636
35.1755
34.3805
34.208
34.2718
34.5691
34.9812
35.4636
35.9675
36.4658
36.9447
37.3961
37.8125
38.1878
38.5162
38.7928
39.014
39.1776
39.2841
39.3385
39.3524
39.3435
39.3192
39.2664
39.1691
39.0183
38.8111
38.5483
38.2332
37.8708
37.4672
37.0298
36.5676
36.0912
35.6155
35.1612
34.7733
34.493
34.4332
34.5916
35.3366
35.2876
34.5699
34.4373
34.5095
34.7939
35.1769
35.6207
36.0816
36.5402
36.9835
37.4021
37.7882
38.1349
38.4365
38.688
38.8851
39.0252
39.108
39.1375
39.1282
39.1111
39.1036
39.0778
39.0079
38.8834
38.7023
38.4662
38.1787
37.845
37.4715
37.0657
36.6371
36.1969
35.7615
35.3495
34.9994
34.746
34.7001
34.849
35.568
35.9053
35.3012
35.2387
35.3423
35.6289
35.9925
36.4035
36.8262
37.2475
37.6539
38.0368
38.3886
38.703
38.9744
39.1981
39.3699
39.487
39.5485
39.5573
39.5282
39.5047
39.5166
39.5159
39.4708
39.3718
39.2176
39.0105
38.7542
38.4537
38.1148
37.7448
37.3526
36.9489
36.5495
36.1718
35.8506
35.6116
35.5624
35.6799
36.3483
36.7441
36.2377
36.2295
36.3391
36.6097
36.9383
37.3084
37.6911
38.0736
38.4432
38.7914
39.1106
39.3947
39.6383
39.8366
39.9857
40.0827
40.1265
40.1197
40.0768
40.0453
40.0624
40.071
40.0372
39.9517
39.8137
39.6252
39.3899
39.1126
38.7991
38.4564
38.0929
37.7189
37.3497
37.0014
36.7079
36.4876
36.4424
36.5306
37.1367
45.8554
54.2621
62.1867
69.2123
74.5444
78.5151
81.5449
83.9535
86.0174
87.835
89.4856
91.0318
92.5447
94.0935
95.7316
97.4902
99.3764
101.38
103.477
105.638
107.815
109.935
111.806
113.027
45.0474
53.1841
60.8916
67.8141
73.1104
77.0654
80.0932
82.5127
84.5821
86.3885
88.0158
89.5336
91.0149
92.529
94.1314
95.8514
97.6962
99.6553
101.706
103.818
105.944
108.014
109.838
111.026
44.1878
52.0828
59.5823
66.3971
71.6602
75.609
78.6486
81.0885
83.1658
84.9648
86.5743
88.0668
89.5181
91.0002
92.5662
94.2482
96.0525
97.9679
99.9724
102.035
104.111
106.131
107.908
109.064
43.2953
50.9448
58.2425
64.9536
70.1929
74.1486
77.2125
79.6817
81.7733
83.5753
85.168
86.6375
88.0618
89.5123
91.0459
92.6917
94.4563
96.3295
98.2881
100.303
102.328
104.298
106.03
107.153
42.3663
49.7868
56.8788
63.4839
68.7066
72.6813
75.7823
78.2901
80.4031
82.2106
83.7949
85.2468
86.6467
88.0705
89.5712
91.1818
92.909
94.7412
96.656
98.6241
100.6
102.522
104.209
105.3
41.447
48.5902
55.4689
61.9726
67.1947
71.2073
74.3571
76.909
79.0475
80.8701
82.453
83.8911
85.2716
86.6685
88.1421
89.721
91.4117
93.2043
95.0754
96.9975
98.9249
100.799
102.443
103.501
40.4452
47.3563
54.0166
60.4186
65.6493
69.71
72.9193
75.5257
77.7027
79.5444
81.1391
82.5708
83.9352
85.3132
86.7584
88.3058
89.9627
91.7172
93.5467
95.4245
97.3045
99.1325
100.733
101.76
39.532
46.0982
52.5061
58.7972
64.0546
68.1917
71.4774
74.1472
76.3637
78.2358
79.8429
81.2783
82.6353
83.9938
85.4186
86.9399
88.5638
90.2816
92.07
93.9031
95.7354
97.517
99.0755
100.069
38.4075
44.7364
50.8992
57.0856
62.3818
66.6087
69.9884
72.7354
75.0144
76.9252
78.5651
80.0131
81.3675
82.7186
84.1216
85.6151
87.2091
88.8916
90.6406
92.4314
94.2175
95.956
97.4714
98.4349
37.5035
43.3969
49.2338
55.2758
60.6239
64.9795
68.4746
71.3186
73.6612
75.625
77.2902
78.7589
80.1242
81.4681
82.8593
84.3346
85.8995
87.5477
89.2565
91.0028
92.7406
94.4326
95.9081
96.8352
36.1507
41.814
47.3616
53.2638
58.6754
63.1868
66.851
69.8187
72.2611
74.2888
76.0191
77.5212
78.8987
80.2493
81.6287
83.08
84.6189
86.2337
87.9038
89.6087
91.3002
92.9512
94.3824
95.2808
35.1206
40.3254
45.452
51.1423
56.6194
61.3357
65.1704
68.2934
70.8418
72.9631
74.7322
76.2745
77.6827
79.0378
80.4154
81.8593
83.3736
84.9565
86.5867
88.246
89.888
91.4912
92.8835
93.7413
33.748
38.5371
43.1634
48.5709
54.0947
59.0619
63.2371
66.5903
69.314
71.5346
73.421
75.0283
76.4674
77.8471
79.2252
80.6478
82.1404
83.6918
85.2842
86.903
88.4983
90.0637
91.4095
92.2383
32.3998
36.8256
40.9137
45.9398
51.5014
56.7939
61.2097
64.8335
67.7386
70.1306
72.074
73.7451
75.2419
76.6413
78.0293
79.4591
80.9324
82.455
84.0064
85.5769
87.1192
88.6341
89.9419
90.7232
30.3518
34.4032
37.8255
42.2849
47.7405
53.3979
58.5776
62.6701
65.9284
68.4918
70.6442
72.434
73.9884
75.438
76.8435
78.2547
79.7116
81.2031
82.7173
84.2483
85.7413
87.2213
88.4795
89.2316
28.292
32.1529
34.9801
38.8022
44.2136
50.3703
55.7618
60.4161
64.0175
66.9115
69.1604
71.0467
72.6984
74.1883
75.6193
77.0569
78.5002
79.9669
81.4366
82.9135
84.3466
85.773
86.9895
87.6847
24.5878
28.2629
30.2275
32.7855
37.2527
43.9617
51.5432
57.1846
61.5893
64.8337
67.4702
69.5784
71.3313
72.9098
74.3818
75.805
77.2384
78.6727
80.1044
81.542
82.9203
84.3138
85.4801
86.142
20.539
24.6973
26.163
27.6389
33.0328
40.0773
46.4685
53.7182
58.877
62.8456
65.6961
67.9677
69.8877
71.5388
73.0605
74.5349
75.9613
77.3744
78.7546
80.1279
81.434
82.7699
83.8833
84.474
6.50117
15.484
16.3062
13.5159
21.8645
19.7685
38.8063
47.6792
55.0782
59.8379
63.4623
66.1706
68.2759
70.0831
71.6804
73.1476
74.5729
75.9517
77.2902
78.6218
79.8609
81.1669
82.2295
82.7792
11.6586
11.9783
17.4123
18.6182
14.019
14.3135
20.8245
41.1848
49.9975
56.7986
61.0276
64.0875
66.5126
68.4525
70.1442
71.7014
73.1287
74.4854
75.7592
77.0093
78.152
79.3919
80.3865
80.8401
15.3954
18.2082
18.7719
20.5613
11.9816
17.9638
26.3577
23.2976
43.6051
51.6476
57.5876
61.5896
64.39
66.6309
68.4617
70.0229
71.4598
72.7843
74.0057
75.2063
76.2594
77.4835
78.4137
78.8077
23.378
26.6505
27.6642
26.8875
24.4211
18.296
18.4552
12.4301
26.3076
45.5363
53.5102
58.4424
61.9535
64.4582
66.4772
68.2072
69.6664
70.9533
72.084
73.1695
74.0656
75.2052
76.059
76.3106
25.4615
29.5049
31.9956
33.3396
33.2317
30.746
23.1906
21.5938
20.6221
33.5428
46.9134
54.3048
58.6998
61.8673
64.1703
65.9199
67.4001
68.6711
69.7218
70.7422
71.5223
72.6816
73.4205
73.5633
26.3684
30.5216
33.2892
35.2033
36.1747
35.9979
33.7646
26.8655
28.2296
19.8942
38.6715
48.46
54.7583
58.5088
61.2226
63.3291
64.8843
66.0656
66.9642
67.783
68.2079
69.2811
69.9481
69.851
26.1266
30.3828
33.2731
35.4969
36.9509
37.5902
37.262
34.703
27.1505
21.1547
16.4121
40.3954
48.7433
54.2077
57.5549
59.7017
61.2768
62.4981
63.2362
63.983
64.3691
65.4594
65.9268
65.5642
24.0929
28.692
31.858
34.4366
36.3255
37.5387
38.1378
37.9924
35.8596
28.1716
5.24279
20.555
41.2616
48.0221
52.4375
55.4277
57.2253
58.1781
58.6025
58.8212
58.0726
59.3437
59.6726
58.8376
21.2634
26.2284
29.6091
32.4441
34.6618
36.2919
37.4553
38.2154
38.1754
34.0785
30.2655
15.7631
26.2896
39.8139
45.4471
48.5579
50.1942
51.4619
51.3325
51.8391
52.8928
52.6038
53.4211
51.5986
18.2946
23.4578
26.8656
29.7776
32.1832
34.1455
35.7908
37.2451
38.375
38.1745
33.3175
29.2036
11.3295
28.5816
35.6783
41.1062
43.142
43.6668
42.6597
40.0066
37.1083
40.1651
37.6378
34.4457
15.6895
20.7796
24.0095
26.8096
29.2355
31.3894
33.3959
35.3805
37.2897
38.5722
37.6612
32.1892
27.7725
36.3928
20.4321
21.2992
24.4135
24.6742
18.7248
23.3785
32.1723
20.4481
32.8533
29.5692
13.3505
18.263
21.2405
23.8507
26.2065
28.4363
30.6606
32.9864
35.4362
37.7022
38.8921
37.7585
30.1634
30.7395
34.651
23.03
31.232
24.9578
7.36651
20.3202
38.5923
21.8214
37.1274
36.4791
11.6711
16.2899
18.969
21.345
23.5694
25.7722
28.0541
30.4997
33.1735
35.991
38.4375
39.678
37.1537
30.2619
26.8312
30.3401
24.354
33.2857
31.3204
29.7426
36.3298
36.855
31.8138
31.8298
10.7173
15.0127
17.4355
19.6088
21.6958
23.8042
26.0039
28.3637
30.9675
33.8727
36.9078
39.4106
39.9268
37.8328
33.6629
29.6608
29.6723
30.8615
35.6935
37.8953
26.4765
38.316
37.568
39.3374
10.3088
14.4632
16.7214
18.7678
20.7519
22.7421
24.778
26.9154
29.2474
31.8939
34.9053
37.9973
40.0691
40.5575
39.6232
36.7887
37.0806
37.6053
40.814
42.8659
36.6095
42.1286
42.5325
42.0364
10.4371
14.5101
16.709
18.7157
20.6484
22.5373
24.3994
26.2817
28.2716
30.4958
33.0979
36.093
38.9397
40.7885
41.2348
40.0429
40.1594
40.4117
41.6904
43.265
40.2649
42.4637
43.1482
42.0364
10.8836
14.9745
17.2045
19.2426
21.1731
22.9998
24.7253
26.3899
28.0698
29.8717
31.9431
34.429
37.2271
39.7707
41.1509
40.9804
41.1061
40.993
41.4117
42.5552
41.0283
41.8096
42.2288
41.1006
11.5328
15.7217
18.026
20.1361
22.1036
23.9104
25.5524
27.0667
28.5177
29.9862
31.5871
33.4746
35.7506
38.2218
40.1136
40.7591
41.0771
40.7726
40.5793
41.0863
40.1902
40.3056
40.4591
39.551
12.3915
16.6813
19.068
21.2622
23.2817
25.095
26.6982
28.129
29.4412
30.6895
31.9496
33.3406
35.0017
36.9571
38.7934
39.8439
40.3223
39.9715
39.3797
39.3017
38.6426
38.4863
38.534
38.0547
13.4341
17.7822
20.2576
22.5388
24.6148
26.4482
28.0421
29.4382
30.6834
31.8115
32.8632
33.9127
35.0737
36.4356
37.8581
38.884
39.37
39.0237
38.2197
37.6913
37.1115
36.9144
37.025
36.9957
14.5286
18.9661
21.5386
23.9081
26.0429
27.906
29.5111
30.9057
32.1323
33.2106
34.157
35.0079
35.8336
36.7179
37.6479
38.3836
38.7079
38.3201
37.4038
36.5863
36.0279
35.9122
36.181
36.5352
15.6387
20.1926
22.8718
25.3319
27.5276
29.4275
31.0579
32.4727
33.7107
34.7829
35.691
36.4466
37.0814
37.6471
38.1688
38.5433
38.6043
38.1012
37.1078
36.1237
35.5697
35.5739
36.0297
36.674
45.8757
44.2343
43.4464
41.7885
40.7762
39.1947
38.2081
36.7481
35.7573
34.4593
33.4182
32.2381
31.2942
30.326
29.4216
28.7125
27.9925
27.3544
27.0017
26.5615
26.5609
26.9841
27.397
27.8918
28.5662
29.4511
30.3468
31.3211
32.2139
33.4252
34.378
35.6914
36.7787
38.1767
39.1961
40.7266
41.7109
43.4269
44.2881
45.8721
54.4803
52.9839
52.2185
50.8108
49.8303
48.4861
47.5493
46.3262
45.3939
44.3263
43.3437
42.3844
41.5762
40.7441
40.0288
39.4567
38.7493
38.3242
38.0995
37.8177
37.8164
38.0936
38.317
38.7577
39.3437
39.9731
40.7108
41.5624
42.3629
43.3421
44.2658
45.3201
46.3482
47.5298
48.4874
49.7795
50.7387
52.2185
53.0069
54.4642
62.5266
61.106
60.3079
58.9721
58.0317
56.7865
55.8338
54.6929
53.7474
52.7318
51.8199
50.9212
50.1216
49.3539
48.6803
48.0843
47.5269
47.119
46.8413
46.6537
46.6523
46.837
47.1105
47.5284
48.0506
48.6496
49.3324
50.104
50.9071
51.8033
52.7088
53.7138
54.679
55.8104
56.7694
58.0003
58.9322
60.2891
61.0943
62.5025
69.545
68.1074
67.2169
65.862
64.8725
63.6169
62.606
61.4617
60.4756
59.4534
58.534
57.6384
56.8268
56.0726
55.4001
54.8061
54.3
53.9046
53.6255
53.471
53.4697
53.6217
53.8983
54.2945
54.7932
55.3838
56.0573
56.8116
57.6238
58.5176
59.4363
60.4557
61.4419
62.5833
63.5944
64.8468
65.8339
67.1914
68.0825
69.5162
74.8304
73.3383
72.3538
70.9523
69.8926
68.6035
67.5351
66.3684
65.3424
64.3041
63.3629
62.4596
61.6389
60.8854
60.2161
59.632
59.1442
58.7636
58.4983
58.3567
58.3556
58.4948
58.7582
59.1377
59.6223
60.2039
60.8725
61.6251
62.4449
63.3468
64.2869
65.3237
66.3483
67.5129
68.58
69.8674
70.9259
72.3267
73.3098
74.7994
78.7607
77.2255
76.1704
74.7374
73.6223
72.3138
71.2045
70.0255
68.9735
67.9273
66.9737
66.068
65.2456
64.4959
63.8331
63.2597
62.7851
62.4172
62.1632
62.0297
62.0286
62.1601
62.4123
62.7787
63.251
63.8223
64.4839
65.2323
66.0536
66.9577
67.9101
68.9547
70.0052
71.1822
72.2901
73.5968
74.7106
76.1423
77.1957
78.7288
81.7574
80.1945
79.0848
77.6376
76.4809
75.1643
74.0269
72.8426
71.7749
70.7255
69.7659
68.8607
68.0392
67.2939
66.6372
66.0721
65.6067
65.2479
65.0016
64.873
64.872
64.9986
65.2432
65.6005
66.0638
66.6271
67.2823
68.0262
68.8462
69.7499
70.7082
71.7559
72.822
74.0045
75.1404
76.4552
77.6105
79.0562
80.164
81.7251
84.1345
82.5523
81.3975
79.9443
78.7579
77.4383
76.2825
75.0949
74.0175
72.9657
72.0022
71.0966
70.2752
69.5319
68.8783
68.3174
67.8568
67.5025
67.2601
67.1339
67.1329
67.2571
67.4979
67.8505
68.3092
68.8684
69.5204
70.2622
71.082
71.986
72.9481
73.9983
75.0741
76.2598
77.4142
78.7319
79.9169
81.3683
82.5214
84.1017
86.1741
84.5737
83.3837
81.9201
80.7106
79.382
78.211
77.0151
75.9273
74.8685
73.8978
72.9871
72.1609
71.4142
70.7579
70.1954
69.7338
69.3788
69.136
69.0095
69.0085
69.1331
69.3741
69.7273
70.1871
70.748
71.4027
72.1478
72.9723
73.8814
74.8507
75.9077
76.9939
78.188
79.3575
80.6843
81.8924
83.354
84.5425
86.1408
87.9841
86.3562
85.1436
83.6624
82.435
81.093
79.9072
78.7
77.5999
76.5313
75.5501
74.6307
73.796
73.0418
72.3787
71.8102
71.3436
70.9845
70.7383
70.6095
70.6085
70.7353
70.9796
71.3369
71.8018
72.3686
73.0301
73.7827
74.6158
75.5335
76.5131
77.58
78.6786
79.884
81.0682
82.4084
83.6342
85.1135
86.3246
87.9503
89.636
87.9789
86.7469
85.2454
84
82.6417
81.4395
80.2179
79.1028
78.0209
77.0264
76.0945
75.2478
74.4824
73.8087
73.2306
72.7556
72.3893
72.1377
72.0052
72.0041
72.1346
72.3843
72.7487
73.2221
73.7984
74.4704
75.2342
76.0793
77.0095
78.0024
79.0827
80.1962
81.4161
82.6167
83.9731
85.2169
86.7165
87.9469
89.602
91.1899
89.501
88.2529
86.7278
85.4649
84.0872
82.8677
81.6286
80.4969
79.3986
78.3882
77.4411
76.5796
75.7999
75.1127
74.5222
74.0359
73.6602
73.4012
73.2639
73.2627
73.398
73.6551
74.0289
74.5134
75.1021
75.7877
76.5657
77.4257
78.3711
79.38
80.4765
81.6067
82.844
84.062
85.4379
86.6991
88.2222
89.4687
91.1555
92.7132
90.9907
89.7276
88.1767
86.8959
85.4966
84.2582
82.9996
81.8492
80.7325
79.7041
78.7394
77.8605
77.0642
76.361
75.7556
75.2557
74.8685
74.6006
74.4574
74.4563
74.5973
74.8632
75.2486
75.7466
76.3503
77.0518
77.8465
78.7237
79.6868
80.7137
81.8287
82.9775
84.2343
85.4712
86.8686
88.1478
89.6967
90.9582
92.6785
94.273
92.5151
91.2367
89.6577
88.3578
86.9347
85.676
84.3956
83.2248
82.0875
81.0389
80.0543
79.1561
78.3408
77.6193
76.9965
76.4808
76.08
75.8017
75.6519
75.6507
75.7983
76.0746
76.4735
76.9873
77.6084
78.3282
79.1419
80.0386
81.0215
82.0686
83.2041
84.3734
85.6521
86.9092
88.3305
89.6287
91.2057
92.4824
94.2382
95.9232
94.1269
92.8323
91.2225
89.9021
88.4526
87.1716
85.8672
84.6738
83.5137
82.4429
81.4363
80.5163
79.6797
78.9374
78.2949
77.7611
77.3445
77.054
76.8966
76.8954
77.0505
77.339
77.7536
78.2857
78.9265
79.667
80.502
81.4205
82.4256
83.4948
84.6533
85.8451
87.1478
88.4271
89.8748
91.1936
92.8013
94.0943
95.8884
97.6939
95.857
94.5441
92.9013
91.5581
90.0799
88.7744
87.4436
86.2255
85.0403
83.945
82.914
81.97
81.1097
80.3443
79.6794
79.1247
78.6899
78.3852
78.2191
78.2179
78.3817
78.6843
79.1172
79.6701
80.3333
81.0971
81.9558
82.8983
83.9277
85.0215
86.205
87.4217
88.7507
90.0546
91.5309
92.8726
94.5133
95.8245
97.6593
99.5924
97.7129
96.3798
94.7019
93.3338
91.8249
90.4928
89.1337
87.8887
86.6764
85.5545
84.4972
83.527
82.6407
81.8496
81.1597
80.5814
80.1255
79.8042
79.6278
79.6265
79.8006
80.1199
80.5738
81.1504
81.8386
82.6282
83.5129
84.4817
85.5375
86.6579
87.8686
89.1121
90.4696
91.8001
93.3071
94.6736
96.3495
97.6809
99.5584
101.608
99.685
98.3306
96.6162
95.2217
93.6808
92.3203
90.9313
89.6579
88.4169
87.2669
86.1815
85.1833
84.2691
83.4501
82.7326
82.1276
81.6475
81.3065
81.1182
81.1169
81.3029
81.6418
82.1201
82.7234
83.4393
84.2568
85.1696
86.1663
87.2503
88.3989
89.6384
90.9103
92.2977
93.6566
95.1959
96.5887
98.3014
99.6543
101.576
103.72
101.753
100.376
98.6245
97.2033
95.6291
94.2401
92.8203
91.5178
90.2471
89.0679
87.9533
86.926
85.9826
85.1339
84.3865
83.7518
83.2439
82.8797
82.6769
82.6756
82.8761
83.2382
83.7444
84.3775
85.1234
85.9707
86.913
87.939
89.0521
90.23
91.4991
92.8002
94.2184
95.6063
97.1785
98.5985
100.348
101.723
103.689
105.897
103.886
102.487
100.7
99.2511
97.6446
96.2266
94.7764
93.4443
92.1443
90.9356
89.792
88.735
87.761
86.8816
86.1021
85.4353
84.8955
84.5034
84.2829
84.2816
84.5
84.89
85.4282
86.0937
86.8714
87.7499
88.7226
89.7784
90.921
92.1283
93.4269
94.7576
96.2068
97.6237
99.2286
100.676