/*--------------------------------*- C++ -*----------------------------------*\
  =========                 |
  \\      /  F ield         | OpenFOAM: The Open Source CFD Toolbox
   \\    /   O peration     | Website:  https://openfoam.org
    \\  /    A nd           | Version:  6
     \\/     M anipulation  |
\*---------------------------------------------------------------------------*/
FoamFile
{
    version     2.0;
    format      ascii;
    class       volScalarField;
    location    "1.6";
    object      p;
}
// * * * * * * * * * * * * * * * * * * * * * * * * * * * * * * * * * * * * * //

dimensions      [0 2 -2 0 0 0 0];

internalField   nonuniform List<scalar> 
63400
(
0.000588696
0.000626285
0.000681891
0.000751391
0.000834575
0.00092585
0.00102414
0.00114301
0.000722213
0.000739199
0.000773005
0.000821716
0.000880873
0.000954878
0.00102117
0.00113183
0.000885717
0.000888346
0.000905838
0.000938399
0.000978432
0.00103754
0.00108029
0.00118196
0.00102273
0.00101217
0.00101522
0.00103358
0.00105733
0.00110334
0.00112625
0.00122052
0.00115378
0.00113251
0.00112349
0.00112951
0.0011391
0.00117288
0.00117889
0.00126425
0.0012698
0.00123952
0.00122051
0.00121639
0.00121456
0.00123821
0.00123075
0.00130874
0.0013778
0.00133967
0.00131192
0.00129873
0.00128675
0.00130095
0.00128183
0.00135158
0.00147135
0.00142685
0.00139216
0.00137175
0.00135187
0.00135844
0.00132999
0.00139148
0.00155174
0.00150205
0.00146151
0.00143491
0.00140821
0.00140881
0.00137206
0.00143017
0.00161532
0.00156218
0.00151754
0.00148662
0.00145471
0.00145134
0.00140739
0.00146715
0.00167
0.00161382
0.0015656
0.00153097
0.00149441
0.00148766
0.0014373
0.00149935
0.00171483
0.00165651
0.00160577
0.00156853
0.00152862
0.00151906
0.00146405
0.00152438
0.00175105
0.00169081
0.00163801
0.00159853
0.00155601
0.00154376
0.00148624
0.0015429
0.00178123
0.0017193
0.00166496
0.00162372
0.00157941
0.00156424
0.00150516
0.0015536
0.00180317
0.00173973
0.00168398
0.00164108
0.00159527
0.0015779
0.00151799
0.00156414
0.00182182
0.00175698
0.00169987
0.00165543
0.00160826
0.0015888
0.00152758
0.00157228
0.00183391
0.00176805
0.00170976
0.00166388
0.00161529
0.00159373
0.00153153
0.00157658
0.00184387
0.00177723
0.00171827
0.00167129
0.00162186
0.00159815
0.00153607
0.00157528
0.00184868
0.00178122
0.0017212
0.00167289
0.00162238
0.00159532
0.00153324
0.00156574
0.00185129
0.00178394
0.00172442
0.00167623
0.00162601
0.00159771
0.00153865
0.00156204
0.00184839
0.00177987
0.00171918
0.00166985
0.00161836
0.00158599
0.00152854
0.00153129
0.000587955
0.000625617
0.000681279
0.000750851
0.000834075
0.000925418
0.00102374
0.00114272
0.00072165
0.000738652
0.000772485
0.000821225
0.000880432
0.000954458
0.00102083
0.00113148
0.000885339
0.000887973
0.000905484
0.000938046
0.000978116
0.00103722
0.00108004
0.00118169
0.00102241
0.00101185
0.00101493
0.00103328
0.00105707
0.00110307
0.00112605
0.00122028
0.00115353
0.00113226
0.00112325
0.00112927
0.00113888
0.00117264
0.00117873
0.00126404
0.0012696
0.00123932
0.00122032
0.00121619
0.00121439
0.00123801
0.00123062
0.00130856
0.00137764
0.0013395
0.00131176
0.00129856
0.00128659
0.00130078
0.00128173
0.00135142
0.00147123
0.00142672
0.00139203
0.00137161
0.00135173
0.00135829
0.00132989
0.00139133
0.00155165
0.00150195
0.0014614
0.0014348
0.0014081
0.00140869
0.00137197
0.00143003
0.00161524
0.00156209
0.00151746
0.00148652
0.00145462
0.00145122
0.00140732
0.00146702
0.00166992
0.00161374
0.00156553
0.00153088
0.00149434
0.00148756
0.00143725
0.00149922
0.00171475
0.00165643
0.0016057
0.00156845
0.00152856
0.00151897
0.00146402
0.00152427
0.00175096
0.00169073
0.00163793
0.00159845
0.00155594
0.00154369
0.00148622
0.00154282
0.00178115
0.00171922
0.00166488
0.00162364
0.00157934
0.00156416
0.00150514
0.00155352
0.00180311
0.00173966
0.0016839
0.001641
0.0015952
0.00157782
0.00151794
0.00156405
0.00182178
0.00175692
0.00169982
0.00165537
0.0016082
0.00158873
0.00152754
0.00157218
0.00183386
0.001768
0.0017097
0.00166381
0.00161523
0.00159365
0.00153148
0.00157647
0.00184383
0.00177719
0.00171823
0.00167124
0.00162181
0.00159808
0.00153604
0.00157518
0.00184864
0.00178118
0.00172116
0.00167283
0.00162232
0.00159524
0.0015332
0.00156564
0.00185136
0.00178402
0.0017245
0.00167631
0.00162608
0.00159777
0.00153872
0.00156208
0.00184866
0.00178012
0.0017194
0.00167008
0.00161858
0.00158623
0.00152858
0.00153153
0.000587975
0.000625615
0.000681242
0.000750804
0.000834005
0.000925348
0.00102365
0.00114278
0.000721558
0.000738538
0.000772352
0.000821073
0.000880273
0.000954281
0.00102067
0.00113129
0.000885296
0.000887909
0.000905418
0.00093796
0.000978035
0.00103711
0.00107997
0.00118162
0.00102236
0.00101178
0.00101485
0.00103319
0.00105698
0.00110296
0.00112598
0.00122022
0.00115346
0.00113218
0.00112317
0.00112917
0.0011388
0.00117253
0.00117866
0.00126398
0.00126952
0.00123922
0.00122023
0.00121608
0.00121429
0.00123789
0.00123056
0.0013085
0.00137758
0.00133943
0.00131168
0.00129847
0.00128651
0.00130067
0.00128167
0.00135136
0.00147118
0.00142664
0.00139195
0.00137151
0.00135164
0.00135818
0.00132982
0.00139127
0.00155161
0.0015019
0.00146134
0.00143472
0.00140803
0.0014086
0.00137193
0.00142999
0.00161518
0.00156202
0.00151739
0.00148644
0.00145455
0.00145114
0.00140728
0.00146698
0.00166984
0.00161366
0.00156547
0.00153081
0.00149429
0.00148747
0.00143723
0.00149918
0.00171463
0.00165632
0.00160561
0.00156836
0.00152849
0.00151887
0.001464
0.00152422
0.00175084
0.00169061
0.00163782
0.00159833
0.00155583
0.00154356
0.00148619
0.00154279
0.00178107
0.00171912
0.00166478
0.00162353
0.00157925
0.00156406
0.00150511
0.0015535
0.00180303
0.00173956
0.00168381
0.0016409
0.00159511
0.00157772
0.0015179
0.00156399
0.00182173
0.00175685
0.00169975
0.00165529
0.00160813
0.00158863
0.0015275
0.00157211
0.0018338
0.00176791
0.00170962
0.00166371
0.00161514
0.00159353
0.00153144
0.00157638
0.00184378
0.00177712
0.00171818
0.00167117
0.00162175
0.00159798
0.00153603
0.00157511
0.00184859
0.00178112
0.0017211
0.00167274
0.00162222
0.00159509
0.00153316
0.00156554
0.00185148
0.00178414
0.00172464
0.00167643
0.00162618
0.00159781
0.00153879
0.00156203
0.00184918
0.00178066
0.00171995
0.00167063
0.00161913
0.00158675
0.00152906
0.00153194
0.000587882
0.000625521
0.000681116
0.000750685
0.000833857
0.000925224
0.0010235
0.00114292
0.000721313
0.000738265
0.000772058
0.000820757
0.000879953
0.000953942
0.00102036
0.00113104
0.000885172
0.000887753
0.00090526
0.000937771
0.000977855
0.0010369
0.0010798
0.00118154
0.00102228
0.00101166
0.00101473
0.00103304
0.00105683
0.00110277
0.00112585
0.00122019
0.00115336
0.00113206
0.00112305
0.00112903
0.00113867
0.00117237
0.00117856
0.00126399
0.00126942
0.0012391
0.00122012
0.00121594
0.00121417
0.00123773
0.00123046
0.00130851
0.00137754
0.00133935
0.0013116
0.00129835
0.00128641
0.00130052
0.00128159
0.0013514
0.00147114
0.00142658
0.00139187
0.00137141
0.00135155
0.00135805
0.00132975
0.00139129
0.0015516
0.00150186
0.0014613
0.00143465
0.00140796
0.00140851
0.00137189
0.00143005
0.00161514
0.00156196
0.00151735
0.00148636
0.00145449
0.00145104
0.00140725
0.00146708
0.00166979
0.0016136
0.00156543
0.00153076
0.00149427
0.0014874
0.00143722
0.0014993
0.00171452
0.00165621
0.00160553
0.00156826
0.00152843
0.00151876
0.001464
0.00152436
0.00175072
0.00169048
0.00163771
0.0015982
0.00155573
0.00154341
0.00148616
0.00154291
0.00178102
0.00171903
0.0016647
0.00162343
0.00157917
0.00156396
0.0015051
0.0015536
0.00180299
0.00173948
0.00168372
0.0016408
0.00159504
0.00157763
0.00151788
0.00156406
0.00182172
0.00175681
0.0016997
0.00165522
0.0016081
0.00158856
0.00152751
0.0015722
0.00183377
0.00176784
0.00170956
0.00166363
0.00161509
0.00159341
0.00153141
0.00157642
0.00184377
0.00177709
0.00171817
0.00167113
0.00162173
0.00159789
0.00153604
0.00157516
0.00184859
0.00178111
0.00172111
0.0016727
0.00162217
0.00159494
0.00153308
0.00156547
0.00185159
0.00178424
0.00172476
0.00167653
0.00162626
0.00159783
0.0015388
0.00156185
0.0018495
0.00178102
0.00172036
0.00167102
0.00161953
0.00158709
0.00152947
0.00153192
0.000588012
0.000625647
0.000681197
0.000750765
0.00083389
0.000925277
0.0010235
0.00114334
0.000721154
0.000738066
0.000771825
0.00082049
0.000879666
0.000953626
0.00102005
0.00113087
0.000885123
0.000887659
0.000905162
0.000937632
0.000977721
0.00103672
0.00107966
0.00118158
0.00102228
0.00101162
0.00101468
0.00103295
0.00105675
0.00110264
0.00112577
0.00122031
0.00115331
0.00113199
0.00112299
0.00112893
0.0011386
0.00117224
0.0011785
0.00126415
0.00126937
0.00123901
0.00122005
0.00121584
0.00121409
0.0012376
0.0012304
0.00130867
0.00137755
0.00133932
0.00131157
0.00129828
0.00128636
0.00130041
0.00128154
0.00135158
0.00147116
0.00142656
0.00139184
0.00137134
0.00135149
0.00135794
0.00132971
0.00139143
0.00155162
0.00150188
0.00146131
0.00143463
0.00140794
0.00140844
0.0013719
0.00143024
0.00161512
0.00156194
0.00151735
0.00148633
0.00145446
0.00145098
0.00140725
0.00146732
0.00166975
0.00161356
0.00156543
0.00153073
0.00149428
0.00148736
0.00143727
0.00149961
0.0017144
0.00165609
0.00160545
0.00156817
0.00152841
0.00151866
0.00146404
0.00152468
0.0017506
0.00169035
0.0016376
0.00159807
0.00155565
0.00154325
0.00148615
0.00154316
0.00178099
0.00171897
0.00166463
0.00162334
0.00157912
0.00156387
0.00150512
0.00155383
0.00180297
0.00173941
0.00168365
0.00164071
0.00159499
0.00157756
0.0015179
0.00156425
0.00182176
0.00175679
0.00169968
0.00165517
0.00160809
0.00158852
0.00152756
0.00157242
0.00183377
0.0017678
0.00170953
0.00166357
0.00161507
0.00159333
0.00153143
0.0015766
0.00184379
0.00177707
0.00171819
0.00167113
0.00162175
0.00159783
0.00153607
0.00157532
0.00184862
0.00178114
0.00172117
0.00167274
0.00162219
0.00159484
0.00153301
0.00156543
0.0018517
0.00178433
0.00172488
0.00167666
0.00162634
0.00159783
0.00153879
0.00156165
0.00184968
0.00178122
0.00172062
0.00167127
0.00161983
0.00158732
0.00152983
0.00153158
0.000588347
0.000625989
0.000681496
0.000751063
0.000834139
0.000925546
0.00102371
0.00114408
0.000721068
0.000737933
0.00077165
0.000820275
0.000879417
0.000953341
0.00101976
0.00113082
0.000885138
0.000887619
0.000905113
0.000937544
0.000977635
0.00103659
0.00107955
0.00118177
0.00102237
0.00101166
0.00101471
0.00103293
0.00105675
0.00110256
0.00112575
0.00122062
0.00115332
0.00113196
0.00112297
0.00112889
0.00113858
0.00117216
0.00117849
0.00126448
0.00126937
0.00123897
0.00122002
0.00121577
0.00121406
0.00123751
0.00123039
0.001309
0.00137762
0.00133933
0.00131159
0.00129825
0.00128637
0.00130034
0.00128156
0.00135192
0.00147122
0.00142659
0.00139186
0.00137131
0.00135149
0.00135787
0.00132973
0.00139173
0.00155167
0.00150194
0.00146137
0.00143466
0.00140797
0.00140841
0.00137197
0.00143059
0.00161511
0.00156194
0.00151738
0.00148634
0.00145448
0.00145094
0.00140732
0.00146774
0.00166972
0.00161353
0.00156545
0.00153073
0.00149434
0.00148737
0.00143739
0.00150012
0.00171428
0.00165598
0.0016054
0.00156809
0.00152842
0.0015186
0.00146413
0.00152522
0.00175047
0.00169023
0.00163752
0.00159796
0.00155561
0.00154312
0.00148617
0.00154358
0.00178098
0.00171892
0.00166459
0.00162328
0.0015791
0.00156379
0.00150518
0.0015542
0.00180299
0.00173938
0.00168361
0.00164064
0.00159497
0.0015775
0.00151798
0.00156459
0.00182183
0.0017568
0.00169969
0.00165514
0.00160811
0.00158851
0.00152768
0.00157282
0.00183382
0.0017678
0.00170955
0.00166356
0.00161512
0.00159331
0.00153153
0.00157696
0.00184384
0.00177708
0.00171822
0.00167117
0.00162184
0.00159782
0.00153616
0.00157564
0.00184866
0.00178118
0.00172128
0.00167285
0.00162232
0.00159485
0.00153302
0.00156548
0.00185177
0.00178434
0.00172495
0.00167678
0.00162641
0.00159773
0.00153867
0.0015613
0.00184974
0.00178128
0.00172073
0.00167139
0.00162003
0.00158745
0.00153019
0.00153087
0.000588875
0.00062654
0.000682024
0.000751598
0.000834635
0.000926069
0.00102418
0.00114523
0.000721052
0.000737863
0.000771534
0.000820116
0.00087922
0.000953105
0.00101949
0.00113097
0.000885209
0.00088763
0.000905109
0.000937502
0.000977599
0.00103651
0.0010795
0.00118217
0.00102252
0.00101177
0.00101481
0.00103298
0.00105682
0.00110257
0.00112581
0.00122115
0.00115337
0.00113198
0.001123
0.00112888
0.00113861
0.00117214
0.00117856
0.00126504
0.00126943
0.00123896
0.00122003
0.00121574
0.00121408
0.00123747
0.00123045
0.00130953
0.00137772
0.00133938
0.00131165
0.00129825
0.00128643
0.00130033
0.00128164
0.00135246
0.00147131
0.00142668
0.00139194
0.00137133
0.00135155
0.00135784
0.00132982
0.00139223
0.00155174
0.00150202
0.00146148
0.00143473
0.00140806
0.00140842
0.00137212
0.00143114
0.00161511
0.00156196
0.00151744
0.00148639
0.00145456
0.00145095
0.00140746
0.00146834
0.00166969
0.00161352
0.0015655
0.00153076
0.00149443
0.00148741
0.00143759
0.00150085
0.00171419
0.00165587
0.00160536
0.00156802
0.00152846
0.00151859
0.00146429
0.00152602
0.00175036
0.0016901
0.00163745
0.00159788
0.00155564
0.00154303
0.00148625
0.0015442
0.00178098
0.00171889
0.00166457
0.00162323
0.00157913
0.00156373
0.00150529
0.00155474
0.00180305
0.00173939
0.0016836
0.0016406
0.00159499
0.00157746
0.00151812
0.00156509
0.00182195
0.00175685
0.00169973
0.00165514
0.00160816
0.00158853
0.00152788
0.00157343
0.00183393
0.00176784
0.0017096
0.00166359
0.00161523
0.00159335
0.00153173
0.00157752
0.00184391
0.00177709
0.00171827
0.00167124
0.00162198
0.00159786
0.00153633
0.00157616
0.00184871
0.00178123
0.00172139
0.00167304
0.00162257
0.00159499
0.00153321
0.00156569
0.00185179
0.00178422
0.00172489
0.00167686
0.0016265
0.00159754
0.00153842
0.00156065
0.00184966
0.00178118
0.00172068
0.00167134
0.00162011
0.00158743
0.0015305
0.00152964
0.000589568
0.000627278
0.000682771
0.000752366
0.000835384
0.000926865
0.00102492
0.00114683
0.000721097
0.000737849
0.00077147
0.000820009
0.000879076
0.000952923
0.00101925
0.00113137
0.000885324
0.000887683
0.000905139
0.000937494
0.000977605
0.00103647
0.00107949
0.00118281
0.00102273
0.00101195
0.00101498
0.0010331
0.00105698
0.00110266
0.00112596
0.00122196
0.00115347
0.00113204
0.00112307
0.00112891
0.0011387
0.00117217
0.00117869
0.00126585
0.00126957
0.00123902
0.00122008
0.00121575
0.00121416
0.00123749
0.00123059
0.0013103
0.00137785
0.00133947
0.00131174
0.00129829
0.00128655
0.00130037
0.00128181
0.00135323
0.00147144
0.0014268
0.00139206
0.00137138
0.00135166
0.00135786
0.00132998
0.00139295
0.0015518
0.00150212
0.00146162
0.00143484
0.00140822
0.00140846
0.00137233
0.0014319
0.00161512
0.001562
0.00151753
0.00148648
0.00145471
0.001451
0.0014077
0.00146918
0.00166965
0.0016135
0.00156556
0.00153081
0.00149456
0.00148749
0.00143788
0.00150182
0.00171414
0.00165578
0.00160534
0.00156798
0.00152855
0.00151861
0.00146453
0.00152708
0.00175029
0.00168998
0.00163741
0.00159781
0.00155572
0.001543
0.00148642
0.00154507
0.00178099
0.00171887
0.00166457
0.00162319
0.0015792
0.0015637
0.00150547
0.00155551
0.00180315
0.00173944
0.00168364
0.00164059
0.00159506
0.00157745
0.00151834
0.0015658
0.00182209
0.00175692
0.0016998
0.00165516
0.00160825
0.00158856
0.00152817
0.00157428
0.00183407
0.00176793
0.0017097
0.00166367
0.00161542
0.00159347
0.00153206
0.00157833
0.00184398
0.00177711
0.0017183
0.00167132
0.00162216
0.00159794
0.00153658
0.00157691
0.00184879
0.00178127
0.00172149
0.00167324
0.00162293
0.00159527
0.00153363
0.00156608
0.00185178
0.00178398
0.00172467
0.00167683
0.00162662
0.00159732
0.00153812
0.00155961
0.0018494
0.00178088
0.00172041
0.00167107
0.00162001
0.00158721
0.00153071
0.00152773
0.000590387
0.000628171
0.00068371
0.000753348
0.000836372
0.000927925
0.00102594
0.00114889
0.000721203
0.000737886
0.000771454
0.000819946
0.000878983
0.000952802
0.00101903
0.00113207
0.000885469
0.000887768
0.000905192
0.000937506
0.000977637
0.00103648
0.00107951
0.00118372
0.00102299
0.00101218
0.0010152
0.00103327
0.0010572
0.00110284
0.0011262
0.00122306
0.00115361
0.00113213
0.00112317
0.00112896
0.00113883
0.00117224
0.00117889
0.00126694
0.00126977
0.00123914
0.00122018
0.0012158
0.00121428
0.00123755
0.0012308
0.00131132
0.001378
0.00133958
0.00131186
0.00129835
0.0012867
0.00130046
0.00128206
0.00135425
0.00147159
0.00142694
0.00139223
0.00137147
0.00135183
0.00135793
0.00133022
0.00139394
0.00155187
0.00150223
0.00146178
0.00143496
0.00140845
0.00140855
0.00137261
0.00143294
0.00161515
0.00156205
0.00151764
0.0014866
0.00145492
0.00145109
0.00140803
0.0014703
0.00166963
0.00161349
0.00156562
0.00153087
0.00149474
0.00148758
0.00143825
0.00150305
0.00171418
0.00165573
0.00160536
0.00156796
0.00152867
0.00151867
0.00146485
0.00152842
0.0017503
0.00168991
0.0016374
0.00159778
0.00155586
0.00154304
0.00148668
0.0015462
0.00178102
0.00171884
0.00166458
0.00162316
0.00157931
0.0015637
0.00150572
0.00155655
0.00180329
0.00173952
0.00168372
0.00164062
0.0015952
0.00157747
0.00151863
0.00156674
0.00182224
0.00175703
0.00169989
0.00165521
0.0016084
0.00158861
0.00152853
0.00157538
0.00183426
0.00176806
0.00170985
0.00166379
0.00161568
0.00159364
0.00153253
0.00157937
0.00184406
0.00177711
0.0017183
0.00167138
0.00162239
0.00159806
0.00153695
0.00157787
0.00184891
0.00178129
0.00172155
0.00167341
0.00162336
0.00159565
0.00153433
0.00156661
0.00185179
0.00178368
0.00172428
0.00167664
0.00162678
0.00159714
0.00153795
0.00155823
0.00184893
0.00178033
0.00171989
0.00167056
0.00161973
0.00158674
0.00153078
0.001525
0.00059129
0.000629176
0.000684798
0.000754506
0.000837558
0.000929214
0.00102719
0.00115138
0.000721375
0.000737978
0.000771486
0.000819926
0.000878939
0.000952749
0.00101883
0.00113312
0.000885633
0.000887878
0.000905262
0.000937526
0.00097768
0.00103651
0.00107953
0.00118492
0.00102329
0.00101246
0.00101549
0.0010335
0.00105749
0.00110309
0.0011265
0.0012245
0.0011538
0.00113226
0.0011233
0.00112903
0.001139
0.00117235
0.00117913
0.00126833
0.00127006
0.00123934
0.00122034
0.00121588
0.00121446
0.00123765
0.00123107
0.00131262
0.00137814
0.00133972
0.00131201
0.00129842
0.00128688
0.00130058
0.00128237
0.00135553
0.00147175
0.00142712
0.00139244
0.00137159
0.00135204
0.00135803
0.00133053
0.00139521
0.00155194
0.00150233
0.00146195
0.0014351
0.00140872
0.00140868
0.00137296
0.00143428
0.00161521
0.00156213
0.00151778
0.00148672
0.0014552
0.00145124
0.00140843
0.00147174
0.00166964
0.0016135
0.00156571
0.00153096
0.00149497
0.00148771
0.00143869
0.00150456
0.00171431
0.00165576
0.00160543
0.001568
0.00152885
0.00151878
0.00146525
0.00153005
0.00175041
0.00168991
0.00163746
0.00159779
0.00155607
0.00154315
0.00148706
0.00154762
0.00178106
0.00171883
0.00166462
0.00162314
0.00157948
0.00156374
0.00150606
0.00155791
0.00180345
0.00173965
0.00168387
0.0016407
0.00159542
0.00157754
0.001519
0.00156796
0.00182238
0.00175714
0.00170002
0.00165529
0.0016086
0.00158869
0.00152896
0.00157673
0.00183445
0.00176823
0.00171003
0.00166395
0.00161601
0.00159387
0.00153312
0.00158062
0.00184413
0.0017771
0.00171828
0.0016714
0.00162265
0.00159819
0.00153744
0.00157897
0.00184902
0.00178133
0.00172155
0.00167348
0.0016238
0.00159607
0.0015353
0.00156714
0.00185183
0.00178337
0.00172374
0.00167623
0.0016269
0.00159703
0.00153806
0.00155659
0.00184819
0.0017795
0.00171909
0.00166978
0.00161923
0.001586
0.00153066
0.00152143
0.00059223
0.000630245
0.000685986
0.000755795
0.000838891
0.000930674
0.00102861
0.0011542
0.000721629
0.000738141
0.000771579
0.00081996
0.000878954
0.000952781
0.00101865
0.00113457
0.00088581
0.000888005
0.000905347
0.00093755
0.000977725
0.00103656
0.00107951
0.00118641
0.00102364
0.0010128
0.00101584
0.00103378
0.00105784
0.00110341
0.00112685
0.00122625
0.00115402
0.00113243
0.00112347
0.00112912
0.00113919
0.00117251
0.00117939
0.00127001
0.0012704
0.00123963
0.0012206
0.00121603
0.0012147
0.0012378
0.00123137
0.0013142
0.00137829
0.00133988
0.00131221
0.00129854
0.00128711
0.00130073
0.00128273
0.00135708
0.00147195
0.00142731
0.0013927
0.00137175
0.00135231
0.00135819
0.00133088
0.0013968
0.00155202
0.00150244
0.00146216
0.00143526
0.00140903
0.00140888
0.00137335
0.00143597
0.00161534
0.00156225
0.00151797
0.00148688
0.00145554
0.00145144
0.00140891
0.00147353
0.00166972
0.00161356
0.00156584
0.00153107
0.00149528
0.00148789
0.00143919
0.00150637
0.00171452
0.00165588
0.00160558
0.00156809
0.00152911
0.00151893
0.00146573
0.00153196
0.0017506
0.00169001
0.00163761
0.00159788
0.00155636
0.00154334
0.00148754
0.00154933
0.00178111
0.00171884
0.0016647
0.00162315
0.0015797
0.00156384
0.00150647
0.00155961
0.0018036
0.00173979
0.00168407
0.00164084
0.00159574
0.00157768
0.00151947
0.00156947
0.00182247
0.00175724
0.00170017
0.00165541
0.00160889
0.00158882
0.00152946
0.00157829
0.00183461
0.00176838
0.00171023
0.00166414
0.00161642
0.00159414
0.00153385
0.00158199
0.00184412
0.00177706
0.00171823
0.00167136
0.00162292
0.00159833
0.00153807
0.00158005
0.00184904
0.00178134
0.00172154
0.00167341
0.00162416
0.00159644
0.0015365
0.00156753
0.00185179
0.00178312
0.00172315
0.00167557
0.00162688
0.00159694
0.00153853
0.00155479
0.00184719
0.00177837
0.00171797
0.00166871
0.00161854
0.00158498
0.00153034
0.00151705
0.000593166
0.000631329
0.000687214
0.000757154
0.000840307
0.000932233
0.00103012
0.00115724
0.000721988
0.000738402
0.00077176
0.000820074
0.000879046
0.000952926
0.00101849
0.00113642
0.000886003
0.000888147
0.000905447
0.00093758
0.000977773
0.00103662
0.00107943
0.00118815
0.00102404
0.0010132
0.00101626
0.00103414
0.00105826
0.00110382
0.00112721
0.00122833
0.00115429
0.00113264
0.00112369
0.00112926
0.00113943
0.00117271
0.00117964
0.00127198
0.0012708
0.00124
0.00122096
0.00121626
0.00121502
0.00123802
0.00123169
0.00131606
0.00137846
0.00134006
0.00131245
0.0012987
0.0012874
0.00130093
0.00128309
0.00135889
0.00147218
0.00142755
0.001393
0.00137197
0.00135265
0.00135841
0.00133125
0.0013987
0.00155214
0.00150258
0.0014624
0.00143544
0.0014094
0.00140914
0.00137377
0.00143803
0.00161555
0.00156245
0.00151824
0.00148708
0.00145596
0.00145172
0.00140942
0.00147568
0.00166986
0.00161369
0.00156604
0.00153125
0.00149568
0.00148814
0.00143975
0.00150849
0.00171478
0.00165611
0.00160584
0.00156829
0.00152948
0.00151917
0.0014663
0.00153412
0.00175083
0.00169021
0.00163787
0.00159808
0.00155677
0.00154362
0.00148814
0.00155131
0.00178112
0.00171886
0.00166481
0.00162321
0.00158
0.00156401
0.00150698
0.00156164
0.00180369
0.00173993
0.00168431
0.00164104
0.00159618
0.00157793
0.00152004
0.00157126
0.00182244
0.00175728
0.00170032
0.00165554
0.00160927
0.00158901
0.00153008
0.00157998
0.00183463
0.00176847
0.00171042
0.00166433
0.0016169
0.00159446
0.00153471
0.00158335
0.00184396
0.00177692
0.00171814
0.00167124
0.00162318
0.00159844
0.00153886
0.00158095
0.00184879
0.00178125
0.00172151
0.00167324
0.00162439
0.00159663
0.00153785
0.00156762
0.00185145
0.00178287
0.00172259
0.00167469
0.00162663
0.00159672
0.0015393
0.00155292
0.00184591
0.00177694
0.00171654
0.00166733
0.00161766
0.00158373
0.00152985
0.00151202
0.000594057
0.000632374
0.000688415
0.000758516
0.000841732
0.000933806
0.0010316
0.00116036
0.000722477
0.000738791
0.000772059
0.000820303
0.000879246
0.000953221
0.00101838
0.00113868
0.000886217
0.000888305
0.000905565
0.000937623
0.000977827
0.00103672
0.00107926
0.00119013
0.0010245
0.00101366
0.00101675
0.00103459
0.00105876
0.00110432
0.00112758
0.00123069
0.00115459
0.0011329
0.00112396
0.00112946
0.00113972
0.00117299
0.00117987
0.0012742
0.00127125
0.00124044
0.00122142
0.00121661
0.00121544
0.00123835
0.00123201
0.00131818
0.00137864
0.00134027
0.00131274
0.00129894
0.00128777
0.00130121
0.00128346
0.00136097
0.00147248
0.00142783
0.00139336
0.00137225
0.00135307
0.00135871
0.00133165
0.00140093
0.00155231
0.00150277
0.0014627
0.00143569
0.00140984
0.00140949
0.00137422
0.00144047
0.00161583
0.00156272
0.0015186
0.00148736
0.00145647
0.00145211
0.00140998
0.00147817
0.00167006
0.00161392
0.00156636
0.00153151
0.0014962
0.00148852
0.00144036
0.00151091
0.00171501
0.00165639
0.00160621
0.0015686
0.00153001
0.00151952
0.00146695
0.0015365
0.00175102
0.00169046
0.00163823
0.00159841
0.00155734
0.00154403
0.00148886
0.00155349
0.00178105
0.00171885
0.00166496
0.00162334
0.0015804
0.00156429
0.0015076
0.00156393
0.00180367
0.00173999
0.00168456
0.00164129
0.00159673
0.00157829
0.00152076
0.00157328
0.00182224
0.00175718
0.0017004
0.00165566
0.00160972
0.00158928
0.00153084
0.00158169
0.00183445
0.00176838
0.00171053
0.00166448
0.00161744
0.00159481
0.00153575
0.00158454
0.00184352
0.00177659
0.00171795
0.00167102
0.00162341
0.0015985
0.0015398
0.0015815
0.0018481
0.00178085
0.0017214
0.00167301
0.0016245
0.00159657
0.00153922
0.00156733
0.00185054
0.0017824
0.00172207
0.00167369
0.00162605
0.0015962
0.00154023
0.00155111
0.00184434
0.00177524
0.00171479
0.00166562
0.00161659
0.00158229
0.00152925
0.00150655
0.000594872
0.000633332
0.000689524
0.0007598
0.000843082
0.000935306
0.00103298
0.00116343
0.000723116
0.000739337
0.000772511
0.000820683
0.00087959
0.000953701
0.00101838
0.00114135
0.000886463
0.000888488
0.000905709
0.000937692
0.000977896
0.00103687
0.00107901
0.00119231
0.00102504
0.00101419
0.00101731
0.00103512
0.00105936
0.00110495
0.00112794
0.00123332
0.00115494
0.00113321
0.0011243
0.00112974
0.0011401
0.00117337
0.00118008
0.00127667
0.00127175
0.00124095
0.00122198
0.00121708
0.001216
0.00123882
0.00123235
0.00132056
0.00137888
0.00134052
0.00131309
0.00129925
0.00128826
0.00130162
0.00128384
0.0013633
0.00147285
0.00142819
0.00139379
0.00137261
0.00135359
0.00135914
0.00133206
0.0014035
0.00155254
0.00150301
0.00146307
0.00143602
0.00141037
0.00140996
0.00137471
0.0014433
0.00161616
0.00156307
0.00151907
0.00148777
0.0014571
0.00145265
0.00141058
0.00148097
0.00167026
0.0016142
0.00156679
0.00153191
0.00149687
0.00148905
0.00144105
0.00151358
0.00171514
0.00165666
0.00160664
0.00156903
0.0015307
0.00152003
0.0014677
0.001539
0.00175109
0.00169067
0.00163865
0.00159884
0.00155807
0.00154459
0.0014897
0.0015558
0.00178085
0.00171876
0.0016651
0.00162352
0.00158093
0.00156469
0.00150835
0.00156638
0.00180349
0.00173992
0.00168474
0.00164154
0.00159737
0.00157878
0.00152165
0.00157541
0.00182182
0.00175685
0.00170035
0.00165571
0.00161022
0.00158961
0.00153178
0.00158328
0.00183401
0.00176802
0.00171045
0.00166451
0.00161797
0.00159517
0.00153695
0.00158542
0.00184274
0.00177592
0.00171756
0.00167066
0.00162357
0.00159845
0.00154087
0.0015816
0.00184692
0.00177993
0.00172103
0.0016727
0.00162454
0.00159624
0.00154045
0.00156661
0.00184892
0.00178135
0.00172143
0.00167268
0.00162522
0.0015952
0.00154099
0.00154943
0.0018424
0.0017733
0.00171279
0.00166359
0.00161528
0.00158069
0.00152861
0.00150091
0.000595591
0.000634163
0.00069048
0.00076093
0.000844275
0.000936643
0.00103415
0.00116636
0.000723919
0.000740063
0.000773143
0.000821246
0.00088011
0.000954394
0.0010185
0.00114438
0.000886755
0.000888711
0.00090589
0.000937805
0.000977996
0.0010371
0.00107869
0.00119467
0.00102566
0.0010148
0.00101796
0.00103574
0.00106005
0.00110572
0.00112829
0.0012362
0.00115533
0.00113358
0.0011247
0.0011301
0.00114056
0.00117388
0.00118029
0.00127936
0.0012723
0.00124151
0.00122262
0.00121765
0.00121668
0.00123945
0.00123272
0.00132317
0.00137918
0.00134083
0.00131351
0.00129966
0.00128885
0.00130218
0.00128423
0.00136589
0.00147331
0.00142864
0.00139431
0.00137308
0.00135422
0.00135972
0.00133251
0.00140638
0.00155281
0.00150332
0.00146352
0.00143645
0.00141101
0.00141058
0.00137523
0.00144649
0.00161649
0.00156346
0.00151962
0.0014883
0.00145786
0.00145335
0.00141124
0.00148404
0.00167038
0.00161447
0.00156729
0.00153243
0.0014977
0.00148977
0.00144185
0.00151638
0.00171509
0.00165682
0.00160708
0.00156953
0.00153154
0.00152072
0.00146858
0.00154151
0.00175098
0.00169074
0.00163901
0.00159933
0.00155894
0.00154531
0.00149071
0.00155811
0.00178049
0.00171852
0.00166515
0.00162371
0.00158155
0.00156522
0.00150928
0.00156882
0.00180314
0.00173963
0.00168475
0.00164173
0.00159806
0.00157937
0.00152275
0.00157747
0.0018212
0.00175625
0.00170006
0.00165561
0.00161069
0.00158996
0.00153291
0.00158459
0.00183331
0.0017673
0.00171008
0.00166433
0.00161843
0.00159548
0.00153832
0.00158588
0.00184165
0.00177482
0.00171684
0.00167008
0.00162361
0.00159829
0.00154201
0.00158119
0.00184536
0.00177838
0.00172015
0.00167217
0.00162455
0.00159574
0.00154143
0.00156547
0.0018467
0.00177951
0.00172034
0.00167161
0.00162431
0.0015938
0.00154128
0.0015478
0.00183996
0.00177105
0.00171059
0.00166128
0.00161368
0.00157891
0.00152796
0.00149542
0.000596217
0.000634848
0.000691246
0.000761842
0.000845235
0.000937744
0.00103506
0.00116912
0.000724894
0.000740978
0.000773973
0.000822016
0.000880828
0.000955312
0.00101879
0.00114775
0.000887114
0.000888996
0.000906129
0.000937982
0.000978145
0.00103741
0.00107833
0.00119721
0.00102637
0.00101549
0.00101869
0.00103646
0.00106083
0.00110663
0.00112865
0.00123929
0.00115578
0.00113402
0.00112518
0.00113056
0.00114112
0.00117454
0.0011805
0.00128226
0.00127291
0.00124213
0.00122331
0.00121833
0.00121747
0.00124025
0.00123311
0.00132601
0.00137956
0.00134122
0.001314
0.00130016
0.00128955
0.00130292
0.00128466
0.00136874
0.00147384
0.00142918
0.00139494
0.00137366
0.00135498
0.00136049
0.001333
0.00140957
0.0015531
0.00150369
0.00146405
0.00143701
0.00141179
0.00141139
0.00137582
0.00144996
0.00161675
0.00156384
0.00152022
0.00148894
0.00145876
0.00145423
0.001412
0.00148726
0.00167039
0.00161465
0.00156778
0.00153303
0.00149866
0.00149067
0.00144278
0.00151918
0.00171485
0.00165678
0.0016074
0.00157002
0.00153248
0.00152155
0.00146962
0.00154386
0.00175068
0.0016906
0.00163923
0.00159975
0.00155988
0.00154615
0.00149189
0.00156026
0.00177999
0.00171808
0.00166503
0.00162381
0.00158222
0.00156584
0.00151042
0.00157104
0.00180265
0.00173909
0.00168453
0.00164174
0.00159872
0.00157998
0.00152405
0.00157926
0.00182044
0.00175537
0.00169947
0.00165526
0.00161105
0.00159025
0.0015342
0.00158547
0.00183244
0.00176623
0.00170933
0.00166383
0.00161869
0.00159565
0.00153979
0.00158586
0.00184035
0.0017733
0.00171567
0.00166916
0.00162343
0.00159796
0.00154313
0.00158034
0.00184356
0.0017763