/*--------------------------------*- C++ -*----------------------------------*\
  =========                 |
  \\      /  F ield         | OpenFOAM: The Open Source CFD Toolbox
   \\    /   O peration     | Website:  https://openfoam.org
    \\  /    A nd           | Version:  6
     \\/     M anipulation  |
\*---------------------------------------------------------------------------*/
FoamFile
{
    version     2.0;
    format      ascii;
    class       volVectorField;
    location    "33";
    object      wallShearStress;
}
// * * * * * * * * * * * * * * * * * * * * * * * * * * * * * * * * * * * * * //

dimensions      [0 2 -2 0 0 0 0];

internalField   uniform (0 0 0);

boundaryField
{
    inlet
    {
        type            calculated;
        value           uniform (0 0 0);
    }
    outlet
    {
        type            calculated;
        value           uniform (0 0 0);
    }
    roughCylinder
    {
        type            calculated;
        value           nonuniform List<vector> 
5120
(
(-0.000114457 -0.000129509 -6.11416e-05)
(-0.000186945 -0.000293592 -7.90284e-05)
(-0.000265079 -0.000449536 -1.27436e-05)
(-0.000313525 -0.000528883 4.20491e-05)
(-0.000371031 -0.000592727 9.16473e-05)
(-0.000420325 -0.000623095 0.000132498)
(-0.000464443 -0.000635116 0.00016398)
(-0.000498077 -0.000629818 0.000184782)
(-0.000525358 -0.000618687 0.000198045)
(-0.000546031 -0.000607299 0.000207317)
(-0.000562029 -0.000596656 0.000214815)
(-0.000572536 -0.000586858 0.000219387)
(-0.000581424 -0.000581047 0.000221625)
(-0.000590562 -0.000579789 0.000222176)
(-0.000597937 -0.000580401 0.000220309)
(-0.000600557 -0.000579149 0.000215116)
(-0.000600979 -0.000577363 0.0002076)
(-0.000607865 -0.000582687 0.000200593)
(-0.000616432 -0.000591245 0.00019261)
(-0.000611904 -0.000589258 0.000179988)
(-0.000608628 -0.000588325 0.000167464)
(-0.000619662 -0.000600512 0.000158024)
(-0.00062983 -0.000611805 0.00014716)
(-0.000616803 -0.000601307 0.000130573)
(-0.000608238 -0.000595636 0.000115376)
(-0.000626436 -0.000614651 0.000104659)
(-0.000615412 -0.000605766 8.86424e-05)
(-0.000612926 -0.000604967 7.36639e-05)
(-0.000613084 -0.000606728 5.87567e-05)
(-0.000605882 -0.00060093 4.2693e-05)
(-0.000602603 -0.000598644 2.62379e-05)
(-0.000600563 -0.000597288 8.91083e-06)
(-0.000107143 -0.00010756 -4.75048e-05)
(-0.000201005 -0.000284366 -8.43186e-05)
(-0.000284161 -0.000441083 -2.14216e-05)
(-0.000335816 -0.00052496 3.32395e-05)
(-0.000396202 -0.000592363 8.33425e-05)
(-0.000448348 -0.000626607 0.00012531)
(-0.000494428 -0.000640685 0.000157395)
(-0.000529094 -0.000636518 0.000178143)
(-0.000557839 -0.000627723 0.000191989)
(-0.000581008 -0.000618996 0.000202843)
(-0.00060019 -0.000610898 0.0002123)
(-0.000614312 -0.000602322 0.000218653)
(-0.000625748 -0.000597299 0.000222082)
(-0.000635827 -0.000595608 0.000222961)
(-0.00064349 -0.00059561 0.000221164)
(-0.000646335 -0.000594142 0.000216073)
(-0.000647248 -0.000592694 0.000208765)
(-0.000653286 -0.000597016 0.000201416)
(-0.000661474 -0.000604949 0.000193245)
(-0.000657741 -0.000603895 0.000180996)
(-0.000655496 -0.000603972 0.000168806)
(-0.000668586 -0.00061744 0.000159639)
(-0.000678656 -0.00062825 0.000148542)
(-0.000662204 -0.000615578 0.000131477)
(-0.000654139 -0.000610763 0.000116473)
(-0.000674316 -0.00063075 0.000105796)
(-0.000662496 -0.00062182 8.96744e-05)
(-0.000660739 -0.000621903 7.46821e-05)
(-0.000662189 -0.000624959 5.9717e-05)
(-0.000655959 -0.000620515 4.35158e-05)
(-0.000653457 -0.000619203 2.68036e-05)
(-0.000651926 -0.000618454 9.11672e-06)
(-0.000165333 -0.000144724 -5.56741e-05)
(-0.000217163 -0.000273697 -9.02073e-05)
(-0.00030348 -0.000427413 -3.06944e-05)
(-0.000358602 -0.000515782 2.32782e-05)
(-0.000421669 -0.000586384 7.37399e-05)
(-0.000476135 -0.000623807 0.000116574)
(-0.000524186 -0.000640338 0.000149216)
(-0.000561533 -0.000639882 0.000170796)
(-0.000593682 -0.000635733 0.000186313)
(-0.00061927 -0.000629521 0.000198853)
(-0.000640149 -0.000622396 0.000209472)
(-0.000656285 -0.000614125 0.000216936)
(-0.000668588 -0.000607614 0.000220828)
(-0.00067896 -0.000604883 0.000221833)
(-0.000687036 -0.000604289 0.000220187)
(-0.000690775 -0.00060314 0.000215472)
(-0.000692318 -0.000602086 0.000208479)
(-0.000698272 -0.000606105 0.000201136)
(-0.000706089 -0.000613381 0.000192871)
(-0.000703643 -0.00061356 0.000181147)
(-0.000702617 -0.000614718 0.000169369)
(-0.000719005 -0.00063036 0.000160789)
(-0.000730345 -0.000641917 0.000149824)
(-0.000712634 -0.000629281 0.00013277)
(-0.000706041 -0.000626183 0.000118072)
(-0.000727943 -0.000646723 0.000107324)
(-0.000715625 -0.000638139 9.10975e-05)
(-0.000713909 -0.000638447 7.59527e-05)
(-0.00071532 -0.000641511 6.07561e-05)
(-0.000708193 -0.000636688 4.42727e-05)
(-0.000705011 -0.000634988 2.72711e-05)
(-0.000703188 -0.000634087 9.27811e-06)
(-0.000125847 -9.48818e-05 -2.83964e-05)
(-0.00023012 -0.000256901 -9.46757e-05)
(-0.000320229 -0.000407419 -4.0082e-05)
(-0.000378211 -0.000499173 1.23223e-05)
(-0.000443693 -0.000572795 6.27301e-05)
(-0.000501176 -0.000614495 0.000106256)
(-0.000552238 -0.000635158 0.000139604)
(-0.000592147 -0.000638722 0.000162225)
(-0.000626558 -0.000638145 0.00017933)
(-0.000655138 -0.000635158 0.000193833)
(-0.000680065 -0.00063122 0.000206306)
(-0.000700278 -0.000625517 0.000215358)
(-0.000716081 -0.000619784 0.000220497)
(-0.000727732 -0.00061634 0.000221992)
(-0.000736139 -0.000614883 0.000220453)
(-0.000740277 -0.00061344 0.000215936)
(-0.000742756 -0.000612886 0.000209306)
(-0.000748219 -0.000616218 0.000201842)
(-0.000755427 -0.000622639 0.000193411)
(-0.000754044 -0.000623734 0.000182074)
(-0.00075348 -0.000625273 0.000170473)
(-0.00077149 -0.00064145 0.00016205)
(-0.000782063 -0.000652002 0.000150831)
(-0.000762691 -0.000639123 0.000133749)
(-0.000756275 -0.000636552 0.00011916)
(-0.000779383 -0.000657121 0.000108338)
(-0.000766711 -0.000649061 9.21019e-05)
(-0.000765675 -0.00065016 7.69479e-05)
(-0.000768339 -0.000654346 6.16859e-05)
(-0.000762306 -0.000650945 4.50731e-05)
(-0.000760046 -0.000650309 2.78294e-05)
(-0.000758734 -0.000649995 9.48123e-06)
(-0.000134731 -8.62538e-05 -1.58111e-05)
(-0.000242592 -0.000238408 -9.86447e-05)
(-0.00033472 -0.000382849 -4.93479e-05)
(-0.000395511 -0.000477666 8.10057e-07)
(-0.000463368 -0.000554315 5.07971e-05)
(-0.000523496 -0.000599858 9.46647e-05)
(-0.000577279 -0.000624556 0.000128535)
(-0.000620878 -0.000633579 0.000152656)
(-0.000659827 -0.000638755 0.000172136)
(-0.000691958 -0.000639326 0.000188794)
(-0.000719213 -0.000636782 0.0002026)
(-0.00074094 -0.000631291 0.000212336)
(-0.000758491 -0.000625439 0.000218167)
(-0.000771091 -0.000620526 0.000220081)
(-0.000780449 -0.00061857 0.000218962)
(-0.000786256 -0.000617654 0.000215058)
(-0.000789896 -0.000617578 0.000208893)
(-0.000795807 -0.000620951 0.00020165)
(-0.000802119 -0.000626345 0.00019309)
(-0.000802008 -0.000628419 0.000182231)
(-0.000801957 -0.000630375 0.000170892)
(-0.000822274 -0.000647513 0.000162833)
(-0.000833943 -0.000658625 0.000151796)
(-0.000815983 -0.000648052 0.000135214)
(-0.000810465 -0.000646652 0.000120801)
(-0.00083409 -0.000666694 0.000109773)
(-0.000821475 -0.000659587 9.35231e-05)
(-0.000820398 -0.000660903 7.82276e-05)
(-0.00082294 -0.000665058 6.27348e-05)
(-0.000816107 -0.000661509 4.58489e-05)
(-0.000813216 -0.00066061 2.83174e-05)
(-0.000811436 -0.000660055 9.64856e-06)
(-0.000142903 -7.64357e-05 -2.02042e-06)
(-0.000250804 -0.00021504 -0.000100412)
(-0.000344913 -0.000352766 -5.79194e-05)
(-0.000407744 -0.000449245 -1.10376e-05)
(-0.00047761 -0.000528589 3.77408e-05)
(-0.000541227 -0.000579095 8.16573e-05)
(-0.000599274 -0.000609662 0.000116259)
(-0.000647076 -0.000624558 0.000142082)
(-0.000689161 -0.000633765 0.000163591)
(-0.000724596 -0.000637468 0.000182254)
(-0.000756176 -0.000638032 0.000197904)
(-0.000782449 -0.000635283 0.000209199)
(-0.000803547 -0.000631033 0.000216175)
(-0.000819343 -0.000626703 0.0002192)
(-0.000829863 -0.000623561 0.000218607)
(-0.000836581 -0.000622241 0.000215102)
(-0.000841635 -0.000622602 0.000209439)
(-0.000847172 -0.000625261 0.000202205)
(-0.000852319 -0.000629489 0.000193493)
(-0.00085329 -0.000632309 0.000183038)
(-0.000853262 -0.000634337 0.000171857)
(-0.000874152 -0.000651015 0.000163815)
(-0.000885179 -0.000661352 0.000152661)
(-0.000867314 -0.000651969 0.000136343)
(-0.000861229 -0.000650616 0.000121938)
(-0.000885029 -0.000669913 0.000110753)
(-0.000872705 -0.000663943 9.45784e-05)
(-0.000872189 -0.000665973 7.9269e-05)
(-0.000875808 -0.000671053 6.36893e-05)
(-0.00087022 -0.000669041 4.66713e-05)
(-0.000868314 -0.000669298 2.88944e-05)
(-0.000867021 -0.000669367 9.85874e-06)
(-0.000170776 -7.48776e-05 1.39907e-05)
(-0.000260487 -0.000192803 -0.000102481)
(-0.000352289 -0.000320368 -6.55985e-05)
(-0.00041674 -0.000417422 -2.29478e-05)
(-0.000488617 -0.000499592 2.39228e-05)
(-0.000555416 -0.00055479 6.75697e-05)
(-0.0006169 -0.000590355 0.000102721)
(-0.000669006 -0.000610984 0.000130271)
(-0.00071643 -0.000625808 0.000154244)
(-0.000756532 -0.000633408 0.000175132)
(-0.000791016 -0.000635635 0.000192221)
(-0.000818619 -0.000632999 0.0002043)
(-0.000841516 -0.000629084 0.00021202)
(-0.000858941 -0.000624754 0.000215734)
(-0.000872344 -0.000621866 0.000216188)
(-0.000881768 -0.000620747 0.000213652)
(-0.000888262 -0.000620995 0.000208534)
(-0.000894377 -0.000623623 0.000201656)
(-0.00089837 -0.000626799 0.000192938)
(-0.000900639 -0.000630433 0.000183013)
(-0.000900796 -0.000632677 0.000172124)
(-0.000922675 -0.000649167 0.000164278)
(-0.000935186 -0.000660278 0.000153438)
(-0.000920621 -0.000654385 0.000137869)
(-0.000914609 -0.000653849 0.000123564)
(-0.000938008 -0.000672286 0.00011215)
(-0.000926125 -0.000667812 9.60241e-05)
(-0.000925369 -0.000670181 8.05865e-05)
(-0.000928632 -0.000675302 6.47745e-05)
(-0.000922247 -0.00067343 4.7487e-05)
(-0.000919598 -0.000673547 2.94143e-05)
(-0.000917559 -0.00067333 1.00365e-05)
(-0.000170285 -5.96228e-05 2.92511e-05)
(-0.000264738 -0.000166354 -0.000101197)
(-0.00035392 -0.000284232 -7.22076e-05)
(-0.000418841 -0.000379722 -3.44131e-05)
(-0.000491883 -0.000463946 9.33265e-06)
(-0.000562356 -0.000524475 5.21551e-05)
(-0.000628863 -0.000566533 8.79464e-05)
(-0.000686596 -0.000593724 0.000117358)
(-0.000738157 -0.000612587 0.000143364)
(-0.00078194 -0.000622919 0.000166074)
(-0.000820896 -0.000627952 0.000184905)
(-0.000853725 -0.000628433 0.000198799)
(-0.000880614 -0.000626459 0.000207964)
(-0.000901832 -0.000623686 0.000212998)
(-0.000917682 -0.000621138 0.000214397)
(-0.000929196 -0.000619771 0.000212643)
(-0.000937698 -0.000620061 0.000208306)
(-0.000943363 -0.000621552 0.000201619)
(-0.000946324 -0.000623728 0.000192983)
(-0.000949774 -0.000628012 0.000183575)
(-0.000949938 -0.000630466 0.00017297)
(-0.000971226 -0.000645861 0.000165076)
(-0.000983396 -0.000656632 0.00015427)
(-0.000969517 -0.000652373 0.000139051)
(-0.000961941 -0.000651643 0.000124698)
(-0.000984663 -0.000669234 0.000113122)
(-0.000973152 -0.000666232 9.70942e-05)
(-0.000972558 -0.000669316 8.16346e-05)
(-0.000976337 -0.000675195 6.57115e-05)
(-0.000971115 -0.00067494 4.82897e-05)
(-0.000969293 -0.000675996 2.99722e-05)
(-0.000967666 -0.000676338 1.02405e-05)
(-0.000203898 -5.44133e-05 5.24083e-05)
(-0.000271602 -0.000142434 -9.95025e-05)
(-0.000352502 -0.00024743 -7.79075e-05)
(-0.000416632 -0.000339858 -4.51992e-05)
(-0.000490501 -0.000425885 -5.54504e-06)
(-0.000564245 -0.000491415 3.59048e-05)
(-0.000634677 -0.000538817 7.20761e-05)
(-0.000696878 -0.000571121 0.000102975)
(-0.000754144 -0.000594877 0.00013104)
(-0.000803709 -0.000609208 0.000155813)
(-0.00084659 -0.000616334 0.000176208)
(-0.000881074 -0.000617191 0.000191152)
(-0.000910218 -0.00061598 0.000201484)
(-0.000933303 -0.000613552 0.000207538)
(-0.000952356 -0.000612044 0.000210167)
(-0.000967354 -0.000611782 0.000209646)
(-0.00097765 -0.000612284 0.00020615)
(-0.000984464 -0.000613767 0.00020014)
(-0.00098711 -0.0006155 0.000191945)
(-0.000991887 -0.000620448 0.000183218)
(-0.000992281 -0.000623269 0.000173059)
(-0.00101315 -0.000637786 0.000165276)
(-0.00102665 -0.00064931 0.000154834)
(-0.0010165 -0.000648559 0.000140383)
(-0.00100821 -0.000648242 0.000126079)
(-0.00102986 -0.00066474 0.000114292)
(-0.00101858 -0.000662974 9.8313e-05)
(-0.0010173 -0.000666122 8.27379e-05)
(-0.00102013 -0.000671683 6.65953e-05)
(-0.00101392 -0.00067151 4.89404e-05)
(-0.00101134 -0.000672398 3.03862e-05)
(-0.00100882 -0.0006724 1.03833e-05)
(-0.000229343 -4.31777e-05 7.77477e-05)
(-0.000276238 -0.000118493 -9.53783e-05)
(-0.000345309 -0.00020875 -8.15648e-05)
(-0.000406074 -0.000295694 -5.42917e-05)
(-0.000479077 -0.00038169 -2.01328e-05)
(-0.000555684 -0.000451895 1.88323e-05)
(-0.000631123 -0.000505549 5.50059e-05)
(-0.000700037 -0.000544435 8.73628e-05)
(-0.000762631 -0.000572283 0.000117102)
(-0.000816476 -0.000589086 0.000143408)
(-0.000864181 -0.000598728 0.000165434)
(-0.000904907 -0.000603025 0.00018243)
(-0.000938819 -0.00060411 0.000194598)
(-0.000966617 -0.000603766 0.000202453)
(-0.000988452 -0.000602949 0.000206354)
(-0.00100521 -0.000602748 0.000206788)
(-0.00101707 -0.00060346 0.000204151)
(-0.00102388 -0.000604554 0.000198695)
(-0.00102653 -0.000606241 0.000191111)
(-0.00103235 -0.000611624 0.000183053)
(-0.00103299 -0.000614757 0.000173366)
(-0.00105213 -0.000627595 0.00016552)
(-0.00106477 -0.00063834 0.000155124)
(-0.00105467 -0.00063852 0.00014093)
(-0.0010446 -0.000638013 0.000126637)
(-0.00106521 -0.000653528 0.00011477)
(-0.0010544 -0.000653056 9.89571e-05)
(-0.00105315 -0.000656731 8.34258e-05)
(-0.00105607 -0.000662659 6.72242e-05)
(-0.00105105 -0.000663984 4.95086e-05)
(-0.00104912 -0.000665616 3.07931e-05)
(-0.001047 -0.00066617 1.05388e-05)
(-0.000268257 -3.02587e-05 0.000112676)
(-0.000282941 -9.67201e-05 -9.0695e-05)
(-0.000335717 -0.000171163 -8.32687e-05)
(-0.000390659 -0.000251118 -6.13662e-05)
(-0.000461681 -0.000335766 -3.37529e-05)
(-0.000540278 -0.000409983 1.68169e-06)
(-0.000619686 -0.000469023 3.72044e-05)
(-0.000693024 -0.000512451 7.03228e-05)
(-0.000761456 -0.000544462 0.000101424)
(-0.00082227 -0.000565275 0.000129448)
(-0.000875354 -0.000577401 0.000153091)
(-0.000918523 -0.000582269 0.000171376)
(-0.000955346 -0.000584306 0.000185055)
(-0.000985265 -0.000584399 0.000194288)
(-0.0010106 -0.000584798 0.000199765)
(-0.00103067 -0.000585755 0.000201649)
(-0.00104412 -0.000586886 0.000200053)
(-0.00105232 -0.000588627 0.000195608)
(-0.00105567 -0.000590798 0.000188907)
(-0.00106249 -0.000596574 0.000181626)
(-0.00106382 -0.000600221 0.000172589)
(-0.00108175 -0.000611768 0.000164897)
(-0.00109517 -0.000622604 0.000154884)
(-0.00108834 -0.000625502 0.000141428)
(-0.00107754 -0.000625541 0.000127301)
(-0.00109672 -0.000639918 0.000115335)
(-0.00108582 -0.000640336 9.96337e-05)
(-0.00108352 -0.000643882 8.40679e-05)
(-0.00108496 -0.000649222 6.77281e-05)
(-0.00107871 -0.000650539 4.98733e-05)
(-0.0010758 -0.000651911 3.1028e-05)
(-0.00107264 -0.000652129 1.06233e-05)
(-0.000301332 -1.19872e-05 0.000150905)
(-0.000293603 -7.71122e-05 -8.63084e-05)
(-0.000322772 -0.000135136 -8.21312e-05)
(-0.000366927 -0.000204893 -6.50244e-05)
(-0.000432904 -0.000285101 -4.51243e-05)
(-0.000511591 -0.000361719 -1.48667e-05)
(-0.000594654 -0.000425948 1.88101e-05)
(-0.000675195 -0.00047596 5.21324e-05)
(-0.000750456 -0.000512687 8.42136e-05)
(-0.000816563 -0.000536045 0.000113422)
(-0.00087513 -0.000550289 0.000138546)
(-0.000925753 -0.000558451 0.000158959)
(-0.000968319 -0.000562775 0.000174735)
(-0.00100389 -0.000565112 0.000186167)
(-0.00103224 -0.000566263 0.000193285)
(-0.00105387 -0.00056736 0.000196434)
(-0.0010687 -0.000568888 0.000196002)
(-0.00107719 -0.000570797 0.000192495)
(-0.00108142 -0.000573591 0.000186783)
(-0.00108875 -0.000579488 0.000180248)
(-0.00109063 -0.000583512 0.000171874)
(-0.00110614 -0.000593201 0.000164214)
(-0.00111768 -0.000602607 0.000154262)
(-0.00110955 -0.000605546 0.000141008)
(-0.00109719 -0.000605725 0.000127052)
(-0.00111449 -0.000618855 0.000115082)
(-0.00110379 -0.000620291 9.9642e-05)
(-0.00110114 -0.000624162 8.42142e-05)
(-0.00110199 -0.000629531 6.79067e-05)
(-0.00109669 -0.000632155 5.01007e-05)
(-0.00109412 -0.000634076 3.12183e-05)
(-0.00109124 -0.000634818 1.07087e-05)
(-0.000323798 1.00286e-05 0.000188429)
(-0.000304567 -5.78973e-05 -8.13949e-05)
(-0.000308216 -0.000102458 -7.85222e-05)
(-0.000339382 -0.000160989 -6.52579e-05)
(-0.000397857 -0.000234443 -5.3439e-05)
(-0.000474787 -0.000311891 -2.98119e-05)
(-0.000560572 -0.000380648 7.30839e-07)
(-0.000644891 -0.000434925 3.30959e-05)
(-0.000725738 -0.000475656 6.53308e-05)
(-0.000800055 -0.000503462 9.56877e-05)
(-0.000865913 -0.000520601 0.000122438)
(-0.000920189 -0.000529061 0.000144329)
(-0.000966452 -0.000533901 0.000161781)
(-0.00100424 -0.000536327 0.000174788)
(-0.00103607 -0.000538542 0.0001838)
(-0.00106087 -0.00054077 0.000188734)
(-0.00107738 -0.000543005 0.000189732)
(-0.00108771 -0.000546003 0.000187632)
(-0.00109338 -0.00054973 0.000183147)
(-0.00110107 -0.000555692 0.000177466)
(-0.00110383 -0.000560194 0.000169915)
(-0.00111758 -0.000568529 0.000162533)
(-0.00112877 -0.000577372 0.000152996)
(-0.0011226 -0.000582134 0.000140443)
(-0.00110979 -0.000583142 0.000126812)
(-0.00112501 -0.000595028 0.000114847)
(-0.00111358 -0.000596925 9.95908e-05)
(-0.00110926 -0.000600458 8.4222e-05)
(-0.00110789 -0.000605034 6.78864e-05)
(-0.00110087 -0.000607473 5.00585e-05)
(-0.00109682 -0.000608963 3.1191e-05)
(-0.00109275 -0.000609423 1.07085e-05)
(-0.000336749 3.28736e-05 0.000221748)
(-0.000318754 -3.9539e-05 -7.67957e-05)
(-0.000293279 -7.41132e-05 -7.28256e-05)
(-0.000305412 -0.000119205 -6.1094e-05)
(-0.000352348 -0.000182498 -5.69684e-05)
(-0.000423658 -0.00025729 -4.15893e-05)
(-0.00050927 -0.000328466 -1.61356e-05)
(-0.000599815 -0.000388844 1.38447e-05)
(-0.000688674 -0.000435446 4.54113e-05)
(-0.000769321 -0.000466707 7.61112e-05)
(-0.0008416 -0.000486268 0.00010408)
(-0.000904964 -0.00049784 0.000128192)
(-0.000958145 -0.00050436 0.000147943)
(-0.00100258 -0.000508495 0.000163503)
(-0.00103767 -0.000510919 0.000174471)
(-0.00106384 -0.000513259 0.00018098)
(-0.00108153 -0.000516033 0.000183528)
(-0.00109229 -0.000519471 0.000182753)
(-0.00109897 -0.000523883 0.000179512)
(-0.0011064 -0.000529629 0.000174646)
(-0.00110952 -0.000534263 0.00016787)
(-0.00112035 -0.000540784 0.000160654)
(-0.00112815 -0.00054767 0.000151191)
(-0.00111896 -0.000551922 0.000138805)
(-0.00110482 -0.000553315 0.000125481)
(-0.00111673 -0.000563835 0.000113561)
(-0.00110497 -0.000566451 9.86912e-05)
(-0.00109957 -0.00057015 8.3574e-05)
(-0.00109678 -0.000574615 6.74059e-05)
(-0.00109017 -0.000578108 4.97771e-05)
(-0.0010861 -0.000580027 3.10587e-05)
(-0.00108202 -0.00058094 1.06877e-05)
(-0.000337193 5.30556e-05 0.00024484)
(-0.000329774 -2.09073e-05 -7.12702e-05)
(-0.000277774 -5.03376e-05 -6.55558e-05)
(-0.000271065 -8.33305e-05 -5.36275e-05)
(-0.000302633 -0.000134156 -5.5433e-05)
(-0.000365324 -0.00020339 -4.91757e-05)
(-0.000449648 -0.000276022 -3.06629e-05)
(-0.000541535 -0.000339541 -4.67314e-06)
(-0.000634484 -0.000389905 2.48076e-05)
(-0.00072405 -0.000426607 5.51954e-05)
(-0.00080542 -0.000450434 8.42063e-05)
(-0.000873785 -0.000463015 0.000109879)
(-0.00093185 -0.000469771 0.000131677)
(-0.000978599 -0.000473208 0.000149077)
(-0.00101712 -0.000475976 0.00016219)
(-0.00104632 -0.000478963 0.000170782)
(-0.00106578 -0.000482237 0.000175131)
(-0.0010784 -0.000486601 0.000176021)
(-0.00108628 -0.000491729 0.000174131)
(-0.00109327 -0.000497364 0.000170163)
(-0.00109681 -0.000502227 0.000164276)
(-0.0011055 -0.000507732 0.000157496)
(-0.00111182 -0.0005141 0.000148557)
(-0.00110292 -0.000519759 0.000136893)
(-0.00108832 -0.000521872 0.000123979)
(-0.00109739 -0.000531596 0.000112206)
(-0.00108392 -0.000534221 9.76308e-05)
(-0.00107599 -0.000537478 8.26914e-05)
(-0.00107016 -0.000541172 6.66507e-05)
(-0.00106104 -0.000544184 4.91566e-05)
(-0.00105478 -0.000545411 3.06532e-05)
(-0.0010493 -0.000546038 1.05629e-05)
(-0.000325783 6.72563e-05 0.000252342)
(-0.000337161 -3.01005e-06 -6.50422e-05)
(-0.000264562 -3.14819e-05 -5.77803e-05)
(-0.000232797 -5.3074e-05 -4.27371e-05)
(-0.000246922 -8.98735e-05 -4.79528e-05)
(-0.000295401 -0.000148693 -5.04835e-05)
(-0.000371392 -0.000217618 -4.06512e-05)
(-0.000465676 -0.000284863 -2.10899e-05)
(-0.00056665 -0.000341737 4.67874e-06)
(-0.000662749 -0.000382847 3.35282e-05)
(-0.000751003 -0.000410154 6.27085e-05)
(-0.000829823 -0.000427136 9.02511e-05)
(-0.000896001 -0.000436197 0.000114559)
(-0.000950504 -0.000441342 0.000134812)
(-0.000992408 -0.000444307 0.00015028)
(-0.00102288 -0.000446962 0.000160936)
(-0.00104316 -0.000450203 0.000167094)
(-0.00105573 -0.000454483 0.000169418)
(-0.00106371 -0.000459726 0.000168732)
(-0.00106955 -0.000464999 0.000165582)
(-0.00107259 -0.000469653 0.000160468)
(-0.00107791 -0.000473864 0.000154016)
(-0.00107911 -0.000478531 0.000145252)
(-0.00106572 -0.000483438 0.000133802)
(-0.00104966 -0.000485666 0.000121229)
(-0.00105359 -0.000493692 0.000109511)
(-0.00103897 -0.000496482 9.54571e-05)
(-0.00102902 -0.000499642 8.09039e-05)
(-0.00102087 -0.000503042 6.52094e-05)
(-0.00101136 -0.000506638 4.81188e-05)
(-0.00100471 -0.000508152 3.00399e-05)
(-0.000998897 -0.000509062 1.03809e-05)
(-0.00030483 7.39906e-05 0.000242955)
(-0.000334408 1.28374e-05 -5.77629e-05)
(-0.000251207 -1.69523e-05 -4.9384e-05)
(-0.000198525 -3.09107e-05 -3.08251e-05)
(-0.000191082 -5.34863e-05 -3.58423e-05)
(-0.000223307 -9.93206e-05 -4.53142e-05)
(-0.000290277 -0.000162951 -4.54744e-05)
(-0.000379301 -0.000229252 -3.41395e-05)
(-0.000480016 -0.000287975 -1.38977e-05)
(-0.00058494 -0.000335268 1.21034e-05)
(-0.000683454 -0.000368355 4.08895e-05)
(-0.000767683 -0.000387645 6.94033e-05)
(-0.000839184 -0.000398464 9.56831e-05)
(-0.000895738 -0.000403493 0.000117996)
(-0.00094085 -0.000406858 0.000135837)
(-0.000973901 -0.000409929 0.000148732)
(-0.000995654 -0.000413582 0.000156804)
(-0.00100954 -0.000418402 0.000160812)
(-0.00101776 -0.0004238 0.000161382)
(-0.00102233 -0.000428667 0.000159066)
(-0.00102475 -0.00043302 0.000154763)
(-0.00102744 -0.00043648 0.000148869)
(-0.00102628 -0.000441053 0.000140819)
(-0.00101166 -0.000446839 0.000130086)
(-0.000994676 -0.000449482 0.000117922)
(-0.000995039 -0.000456678 0.000106478)
(-0.000977466 -0.000458771 9.28283e-05)
(-0.000964032 -0.000461232 7.86119e-05)
(-0.000952024 -0.000463629 6.32509e-05)
(-0.000939068 -0.00046607 4.65317e-05)
(-0.000929489 -0.000466518 2.90022e-05)
(-0.000921928 -0.000466893 1.00396e-05)
(-0.000279104 7.38617e-05 0.000219416)
(-0.000322975 2.48127e-05 -5.03444e-05)
(-0.000239041 -6.52166e-06 -4.09673e-05)
(-0.000159214 -1.5012e-05 -1.77426e-05)
(-0.000136767 -2.60229e-05 -2.09038e-05)
(-0.000148151 -5.57887e-05 -3.32964e-05)
(-0.00019365 -0.000105211 -4.14496e-05)
(-0.000276168 -0.000168706 -4.09605e-05)
(-0.000382621 -0.000232854 -2.93369e-05)
(-0.000492097 -0.000284165 -7.78711e-06)
(-0.000597007 -0.000321482 1.95653e-05)
(-0.000692364 -0.000346728 4.90117e-05)
(-0.000771658 -0.000361284 7.7333e-05)
(-0.000835958 -0.000369683 0.000102394)
(-0.000883777 -0.00037407 0.000122567)
(-0.000917442 -0.000377322 0.000137414)
(-0.000939035 -0.000380902 0.000147115)
(-0.000951654 -0.000385254 0.000152328)
(-0.000958397 -0.000390107 0.000153804)
(-0.00096088 -0.000394281 0.000152123)
(-0.0009615 -0.0003979 0.000148419)
(-0.000960288 -0.000400353 0.00014294)
(-0.000952286 -0.000403301 0.000135083)
(-0.000932195 -0.000407823 0.000124569)
(-0.000912926 -0.000409881 0.000112704)
(-0.000906681 -0.000414755 0.000101357)
(-0.000887009 -0.000416182 8.84173e-05)
(-0.000870732 -0.000418005 7.48207e-05)
(-0.000855768 -0.000419603 6.01009e-05)
(-0.000841865 -0.000421782 4.41508e-05)
(-0.000831754 -0.000422169 2.75302e-05)
(-0.000823778 -0.000422528 9.56235e-06)
(-0.00025341 6.89363e-05 0.000187184)
(-0.000303874 3.18625e-05 -4.32503e-05)
(-0.000223333 3.66871e-07 -3.19722e-05)
(-0.000127982 -5.84615e-06 -6.73693e-06)
(-7.74844e-05 -7.37521e-06 -5.84944e-06)
(-7.61055e-05 -2.19652e-05 -1.63824e-05)
(-0.000108329 -5.83072e-05 -3.13929e-05)
(-0.000173356 -0.00011165 -4.1628e-05)
(-0.000268317 -0.000171117 -3.93375e-05)
(-0.000385448 -0.000228822 -2.41647e-05)
(-0.000500305 -0.000272945 8.93866e-07)
(-0.000599295 -0.000301269 3.03437e-05)
(-0.000682667 -0.000319059 5.9793e-05)
(-0.000746707 -0.000328644 8.60189e-05)
(-0.000796006 -0.000334903 0.000107691)
(-0.000830645 -0.00033956 0.000123986)
(-0.00085244 -0.000343903 0.000134956)
(-0.00086503 -0.000348633 0.00014128)
(-0.000870602 -0.000353219 0.000143515)
(-0.000871064 -0.000356743 0.000142357)
(-0.000869737 -0.000359586 0.000139202)
(-0.000865278 -0.00036133 0.000134305)
(-0.000854879 -0.000364434 0.00012738)
(-0.000833041 -0.000368841 0.000117607)
(-0.000812353 -0.00037033 0.000106126)
(-0.000802733 -0.000374085 9.5276e-05)
(-0.000779416 -0.000373806 8.29518e-05)
(-0.000759369 -0.000374219 6.99855e-05)
(-0.000740416 -0.000374205 5.59637e-05)
(-0.000722294 -0.000374116 4.08129e-05)
(-0.000708873 -0.000372781 2.53459e-05)
(-0.000698877 -0.000372081 8.81401e-06)
(-0.000230158 6.15443e-05 0.000151415)
(-0.000282115 3.44766e-05 -3.74257e-05)
(-0.000206784 4.22964e-06 -2.34007e-05)
(-8.58658e-05 -9.75403e-07 1.40064e-06)
(-5.02397e-05 1.40879e-07 3.49896e-06)
(-2.60602e-05 -3.83962e-06 -2.05284e-06)
(-2.14221e-05 -1.33263e-05 -9.74421e-06)
(-6.33578e-05 -4.93664e-05 -2.93984e-05)
(-0.000158747 -0.000111938 -4.32621e-05)
(-0.000271603 -0.000170029 -3.48752e-05)
(-0.00038912 -0.000218481 -1.24236e-05)
(-0.000497486 -0.000254354 1.65101e-05)
(-0.000585113 -0.000276879 4.62964e-05)
(-0.000654563 -0.000291438 7.34538e-05)
(-0.000704106 -0.000300027 9.56914e-05)
(-0.000737257 -0.000305852 0.000112382)
(-0.000757053 -0.000310596 0.000123692)
(-0.000766579 -0.000314824 0.000130169)
(-0.000769023 -0.000318546 0.000132487)
(-0.000766606 -0.000321085 0.000131446)
(-0.000762524 -0.000322825 0.000128544)
(-0.000754215 -0.000323499 0.000124044)
(-0.00073598 -0.000324159 0.00011719)
(-0.000708381 -0.000326109 0.000107592)
(-0.00068417 -0.000325603 9.62859e-05)
(-0.000667621 -0.000326012 8.56562e-05)
(-0.000641694 -0.000323856 7.43403e-05)
(-0.000618748 -0.000322604 6.24129e-05)
(-0.000597107 -0.000320952 4.95889e-05)
(-0.000578761 -0.000320014 3.59626e-05)
(-0.000565491 -0.000318326 2.22998e-05)
(-0.000555464 -0.000317306 7.77866e-06)
(-0.000206572 5.34645e-05 0.000115474)
(-0.000257812 3.44165e-05 -3.31191e-05)
(-0.000183777 6.43408e-06 -1.60977e-05)
(-7.79512e-05 1.70217e-06 6.72449e-06)
(-3.41568e-05 4.97092e-06 1.02728e-05)
(-3.77077e-06 4.81484e-06 6.21602e-06)
(1.08919e-05 1.75692e-06 -2.68816e-06)
(5.1533e-07 -8.92349e-06 -1.32037e-05)
(-4.54893e-05 -3.97565e-05 -2.81508e-05)
(-0.000160163 -0.000107619 -3.53108e-05)
(-0.000279538 -0.000163543 -1.64173e-05)
(-0.000382571 -0.00020202 1.0594e-05)
(-0.000468928 -0.00022898 3.83783e-05)
(-0.000532561 -0.000245373 6.30651e-05)
(-0.000579739 -0.000256668 8.34264e-05)
(-0.000611343 -0.000264576 9.87843e-05)
(-0.00062936 -0.000270312 0.000109186)
(-0.000637335 -0.000274855 0.000115176)
(-0.000637532 -0.000278066 0.000117142)
(-0.000632709 -0.000279643 0.000115933)
(-0.000625688 -0.00028003 0.000113048)
(-0.000613746 -0.000279321 0.000108866)
(-0.000594736 -0.000279866 0.000103129)
(-0.00056653 -0.000280859 9.44708e-05)
(-0.000541497 -0.00027906 8.37352e-05)
(-0.00052342 -0.000277982 7.40077e-05)
(-0.000495066 -0.000273376 6.37457e-05)
(-0.000469655 -0.000269945 5.29898e-05)
(-0.000445454 -0.000265979 4.15386e-05)
(-0.000422701 -0.000261202 2.94936e-05)
(-0.000406483 -0.000256906 1.80591e-05)
(-0.000394797 -0.000254219 6.2795e-06)
(-0.000177823 4.65604e-05 8.40691e-05)
(-0.000234177 3.50399e-05 -3.05909e-05)
(-0.000168557 9.55738e-06 -1.28271e-05)
(-7.1606e-05 5.54265e-06 9.83705e-06)
(-2.34483e-05 1.23519e-05 1.30022e-05)
(1.38338e-05 1.41993e-05 4.52476e-06)
(2.92824e-05 1.17824e-05 -1.04352e-07)
(2.37252e-05 8.98374e-06 -4.80833e-06)
(-2.88563e-06 -7.34102e-06 -1.60017e-05)
(-6.68568e-05 -4.71947e-05 -1.8224e-05)
(-0.000168576 -0.000103903 -5.413e-06)
(-0.000269833 -0.000150876 1.70442e-05)
(-0.000349964 -0.000182088 3.95637e-05)
(-0.000413685 -0.000204388 5.97847e-05)
(-0.000457418 -0.000218502 7.58908e-05)
(-0.000484628 -0.000227475 8.76651e-05)
(-0.000498957 -0.000233378 9.54461e-05)
(-0.000502709 -0.000236955 9.94614e-05)
(-0.000499226 -0.000238803 0.000100111)
(-0.000491616 -0.000238949 9.81827e-05)
(-0.000482397 -0.000237979 9.50668e-05)
(-0.000468161 -0.000235894 9.10305e-05)
(-0.000441649 -0.000232277 8.48613e-05)
(-0.000408145 -0.000228969 7.62552e-05)
(-0.000379 -0.000223281 6.57141e-05)
(-0.000355564 -0.000217507 5.64727e-05)
(-0.000325685 -0.000209617 4.76536e-05)
(-0.000298798 -0.000203197 3.8634e-05)
(-0.000273706 -0.000196515 2.94106e-05)
(-0.000254455 -0.000191323 2.03936e-05)
(-0.000240581 -0.000186839 1.23029e-05)
(-0.000230092 -0.00018372 4.25404e-06)
(-0.000137361 3.7664e-05 5.68953e-05)
(-0.000205263 3.41539e-05 -2.73765e-05)
(-0.000148368 1.14516e-05 -1.09326e-05)
(-6.64176e-05 8.17606e-06 1.07436e-05)
(-1.75321e-05 1.45255e-05 9.45902e-06)
(2.12625e-05 9.99195e-06 5.4982e-07)
(2.72028e-05 8.59941e-06 8.07767e-06)
(2.12502e-05 9.73633e-06 1.20741e-05)
(6.91743e-06 3.2161e-06 9.87114e-06)
(-1.49954e-05 -1.14259e-05 7.53975e-06)
(-8.5424e-05 -5.94937e-05 2.1947e-05)
(-0.000152358 -9.81291e-05 3.48551e-05)
(-0.000218185 -0.000131113 4.81145e-05)
(-0.000266707 -0.00015248 5.82763e-05)
(-0.00030336 -0.00016787 6.64371e-05)
(-0.000327661 -0.000178305 7.22663e-05)
(-0.000339531 -0.00018436 7.56119e-05)
(-0.000341791 -0.000187499 7.67752e-05)
(-0.000336747 -0.000188183 7.56609e-05)
(-0.000327506 -0.000186711 7.27266e-05)
(-0.000315512 -0.000183369 6.885e-05)
(-0.000297998 -0.000178254 6.43345e-05)
(-0.000275242 -0.000174436 5.93962e-05)
(-0.000245298 -0.000170019 5.23735e-05)
(-0.00021935 -0.000163213 4.34253e-05)
(-0.00019901 -0.000156324 3.58821e-05)
(-0.000171553 -0.000146109 2.89121e-05)
(-0.000146136 -0.000137063 2.19993e-05)