/*--------------------------------*- C++ -*----------------------------------*\
  =========                 |
  \\      /  F ield         | OpenFOAM: The Open Source CFD Toolbox
   \\    /   O peration     | Website:  https://openfoam.org
    \\  /    A nd           | Version:  6
     \\/     M anipulation  |
\*---------------------------------------------------------------------------*/
FoamFile
{
    version     2.0;
    format      ascii;
    class       volScalarField;
    location    "34";
    object      yPlus;
}
// * * * * * * * * * * * * * * * * * * * * * * * * * * * * * * * * * * * * * //

dimensions      [0 0 0 0 0 0 0];

internalField   uniform 0;

boundaryField
{
    inlet
    {
        type            calculated;
        value           uniform 0;
    }
    outlet
    {
        type            calculated;
        value           uniform 0;
    }
    roughCylinder
    {
        type            calculated;
        value           nonuniform List<scalar> 
3840
(
45.8737
54.2929
62.2101
69.2274
74.5565
78.5267
81.5561
83.9646
86.0288
87.847
89.4977
91.0436
92.5567
94.1056
95.7439
97.5029
99.3896
101.393
103.492
105.654
107.835
109.955
111.826
113.055
45.0871
53.2231
60.9215
67.8347
73.1259
77.0792
80.1065
82.526
84.5949
86.4005
88.0278
89.5458
91.0271
92.5415
94.1439
95.8642
97.7095
99.6694
101.721
103.835
105.964
108.034
109.858
111.055
44.213
52.1071
59.6018
66.4115
71.6723
75.6215
78.661
81.1002
83.1775
84.9773
86.587
88.0793
89.5306
91.0127
92.5791
94.2612
96.0661
97.9823
99.9884
102.053
104.132
106.151
107.929
109.094
43.3296
50.9739
58.2685
64.9754
70.2098
74.1624
77.2253
79.6953
81.7872
83.5883
85.1806
86.6503
88.0746
89.5252
91.0588
92.7049
94.4701
96.3438
98.3045
100.321
102.349
104.319
106.052
107.184
42.3665
49.7903
56.8854
63.4929
68.7175
72.695
75.7975
78.3039
80.4156
82.2234
83.8079
85.2598
86.6598
88.0834
89.5845
91.1954
92.923
94.7558
96.6721
98.6418
100.622
102.543
104.231
105.333
41.4646
48.6089
55.4906
61.9949
67.2136
71.221
74.3679
76.921
79.0614
80.8841
82.4669
83.9047
85.285
86.6822
88.1554
89.7346
91.4259
93.2192
95.0923
97.0159
98.9478
100.821
102.464
103.535
40.4324
47.3507
54.0166
60.4238
65.6598
69.7267
72.9398
75.5446
77.7185
79.5589
81.1523
82.5843
83.9487
85.3264
86.7722
88.3198
89.9771
91.7324
93.564
95.4432
97.3289
99.1548
100.756
101.796
39.5479
46.1188
52.5306
58.8226
64.0759
68.2051
71.485
74.1558
76.3757
78.2496
79.8587
81.2931
82.6496
84.0082
85.4325
86.9537
88.5784
90.2968
92.0876
93.9221
95.7609
97.5413
99.0977
100.107
38.4052
44.7395
50.906
57.0962
62.398
66.6331
70.0183
72.7627
75.0368
76.9442
78.5788
80.0271
81.3814
82.732
84.1356
85.6295
87.224
88.9073
90.6589
92.4507
94.2446
95.9793
97.4951
98.4745
37.5241
43.4226
49.2618
55.3021
60.6433
64.9883
68.4758
71.3218
73.6688
75.6351
77.3077
78.7755
80.14
81.4838
82.8743
84.3488
85.9144
87.5631
89.2752
91.0229
92.7694
94.4587
95.9305
96.8779
36.1726
41.8392
47.3902
53.2965
58.7143
63.2326
66.899
69.8595
72.2943
74.3181
76.0353
77.5362
78.9133
80.263
81.6426
83.0952
84.6346
86.2503
87.9237
89.6291
91.3313
92.9764
94.408
95.325
35.1453
40.3522
45.4773
51.1573
56.619
61.3237
65.1559
68.2864
70.8416
72.9632
74.7493
76.2928
77.7004
79.0552
80.4323
81.8739
83.3888
84.9719
86.606
88.2673
89.9212
91.5201
92.9062
93.7911
33.7997
38.5947
43.2338
48.6608
54.2015
59.1657
63.3237
66.6567
69.3661
71.5849
73.4446
75.0463
76.4834
77.8614
79.2385
80.6638
82.1571
83.7097
85.3062
86.9251
88.535
90.091
91.4376
92.2894
32.4332
36.8555
40.9262
45.9086
51.4245
56.7189
61.1607
64.8038
67.7212
70.1086
72.0856
73.7636
75.2612
76.6606
78.0488
79.4742
80.948
82.4698
84.0268
85.5999
87.1593
88.666
89.9646
90.7834
30.4479
34.5139
37.9878
42.5464
48.0655
53.6556
58.7405
62.7868
66.0177
68.5825
70.6847
72.4592
74.0082
75.454
76.8564
78.2719
79.7296
81.2229
82.7424
84.2727
85.7872
87.2529
88.5094
89.2921
28.3741
32.2187
34.967
38.5686
43.82
50.1274
55.6648
60.3478
63.9658
66.8461
69.1573
71.0629
72.7183
74.209
75.6411
77.0723
78.5164
79.9806
81.4582
82.9383
84.3979
85.8073
87.0137
87.7602
24.8305
28.5053
30.6313
33.6936
38.4982
44.6526
51.8216
57.387
61.7411
64.9941
67.542
69.6166
71.3586
72.93
74.3956
75.8233
77.2576
78.6945
80.1334
81.5695
82.9809
84.3524
85.5104
86.2156
21.0085
25.0224
26.2612
27.1067
31.5015
39.5829
46.4793
53.6056
58.7835
62.7106
65.6682
67.9808
69.9078
71.5594
73.0832
74.5502
75.9786
77.3871
78.7783
80.1547
81.5026
82.8079
83.91
84.572
10.3264
17.0198
18.2736
15.8948
11.4936
22.4195
38.9274
48.0682
55.2763
60.0971
63.5816
66.2287
68.315
70.111
71.6972
73.1672
74.5929
75.9731
77.3223
78.6528
79.9482
81.2133
82.2597
82.8732
10.9897
9.32948
8.23971
3.78269
14.1373
15.2669
26.0538
40.8068
49.982
56.5651
60.9711
64.1027
66.5369
68.4724
70.166
71.7156
73.1473
74.4993
75.7866
77.0387
78.2503
79.4422
80.4134
80.9694
14.8484
18.0036
18.5245
17.8777
14.3981
24.5434
29.7959
27.5084
43.1693
52.0287
57.7833
61.6815
64.4467
66.6702
68.4827
70.0427
71.4805
72.7977
74.0375
75.2412
76.402
77.5298
78.4481
78.9432
23.2958
26.4956
27.5033
26.7121
23.5145
19.1419
27.3819
25.6056
28.5092
44.9142
53.4068
58.4767
61.9953
64.4783
66.4948
68.2182
69.6846
70.9754
72.1181
73.2019
74.2189
75.2949
76.0725
76.4812
25.4777
29.4682
31.8811
33.1985
32.9679
30.0207
23.7714
27.7447
25.2261
35.3225
47.3381
54.4851
58.7887
61.9272
64.1996
65.9346
67.4224
68.6573
69.7444
70.7817
71.7969
72.698
73.4677
73.789
26.4536
30.543
33.2245
35.1519
36.1206
35.8387
33.1922
25.5597
27.4571
8.20768
38.5615
48.6307
54.8678
58.5287
61.2139
63.3319
64.8968
66.1124
67.0074
67.8202
68.4922
69.4834
69.9162
70.0857
26.2585
30.5078
33.398
35.6391
37.1145
37.768
37.4727
35.1693
28.1687
6.84554
15.2753
40.491
48.91
54.3243
57.6344
59.6879
61.3048
62.4076
63.2607
64.0318
64.9696
65.3472
65.9444
65.97
24.3781
28.9483
32.1061
34.6787
36.5563
37.739
38.26
37.9233
34.7794
29.988
11.3859
25.2298
41.6111
48.088
52.2188
55.4122
57.2174
58.3163
58.6187
58.8921
58.8161
59.8967
59.5276
59.2015
21.5671
26.5124
29.891
32.7231
34.9361
36.5592
37.7155
38.4844
38.4358
34.763
29.3765
29.6484
31.559
40.4003
46.0858
48.461
50.3428
51.0915
52.2932
52.0606
53.6327
52.0441
52.3961
51.8807
18.534
23.7031
27.1236
30.044
32.4538
34.4183
36.0649
37.5381
38.746
38.7784
34.8241
28.8467
36.956
28.5894
33.2053
40.4876
43.03
44.1414
41.226
40.9788
41.0883
40.0691
38.5636
36.7678
15.8709
20.9744
24.22
27.0327
29.4699
31.6383
33.6688
35.7032
37.7271
39.2823
39.2823
32.4483
32.7174
26.2151
19.1787
24.0188
25.2974
25.0292
39.8378
27.6031
28.7139
33.6713
12.7802
11.1763
13.4716
18.4008
21.3942
24.018
26.3872
28.635
30.8906
33.2714
35.8371
38.3323
40.0209
38.7157
28.526
32.8671
21.3821
31.6897
31.7643
23.7229
40.1373
35.8802
35.8418
42.817
23.1761
26.8043
11.7356
16.3714
19.0649
21.4533
23.6902
25.9099
28.2206
30.7178
33.4893
36.4825
39.2283
40.4443
37.5983
30.2822
27.6026
31.5141
31.1644
29.6413
37.775
39.2531
35.9374
41.4596
31.0677
32.4181
10.7451
15.0516
17.4839
19.6662
21.7635
23.8859
26.1088
28.5109
31.1914
34.2272
37.4541
40.0122
40.4827
37.2138
34.4485
29.8985
28.5207
28.2942
28.8051
34.6613
30.2247
38.1691
40.2901
41.0576
10.3127
14.4736
16.7369
18.7892
20.7806
22.7814
24.8345
27.0027
29.3884
32.1277
35.278
38.4573
40.5461
40.3634
39.8809
38.5295
38.5708
36.5557
38.6603
41.4725
37.6109
42.0706
43.6278
43.7157
10.4326
14.5076
16.7082
18.718
20.6556
22.5519
24.4255
26.3273
28.351
30.6345
33.3319
36.4211
39.3094
40.8508
41.5806
41.4861
41.7529
40.2849
42.2386
43.0526
40.8127
42.477
43.6744
43.5523
10.8779
14.9689
17.1994
19.2395
21.1731
23.004
24.7359
26.4116
28.1111
29.9483
32.0783
34.6414
37.5027
39.9358
41.5993
42.1994
42.5223
41.5796
42.8214
42.7195
41.437
41.7172
42.6982
42.3402
11.5309
15.72
18.0231
20.135
22.1045
23.9134
25.5583
27.0781
28.5396
30.0277
31.6622
33.6013
35.9362
38.4034
40.5477
41.7173
42.1716
41.5831
42.0096
41.3
40.4804
40.3142
40.9587
40.4699
12.393
16.6822
19.0702
21.2664
23.2874
25.1016
26.706
28.1392
29.4566
30.715
31.9932
33.4149
35.1182
37.1089
39.1365
40.551
41.1312
40.7139
40.5397
39.4684
38.8392
38.5892
39.0502
38.644
13.4419
17.7894
20.2664
22.5495
24.6268
26.4606
28.0549
29.4521
30.6999
31.8331
32.8939
33.9602
35.1469
36.5462
38.0944
39.3668
39.9321
39.5829
39.037
37.8167
37.2503
37.0448
37.4848
37.3218
14.5435
18.9802
21.5544
23.9259
26.0617
27.9251
29.5304
30.9257
32.1537
33.2347
34.1858
35.0454
35.8851
36.7964
37.8011
38.6935
39.075
38.6973
37.9421
36.7004
36.1445
36.0178
36.5497
36.6829
15.6597
20.2131
22.8942
25.3564
27.5533
29.4536
31.0844
32.4999
33.739
34.8127
35.7233
36.4833
37.1251
37.7075
38.2707
38.7392
38.8368
38.3457
37.4575
36.2435
35.6809
35.6414
36.3045
36.7106
16.2706
16.7189
17.1855
17.5366
17.8581
18.0965
18.3011
18.4459
18.557
18.6248
18.6639
18.6686
18.6462
18.5948
18.5179
18.4169
18.2955
18.1579
18.0168
17.9098
17.955
18.1025
18.2655
18.4194
18.555
18.6694
18.7585
18.8215
18.855
18.8608
18.8313
18.7728
18.6689
18.5296
18.3292
18.0926
17.7714
17.4173
16.9448
16.4862
20.9294
21.365
21.8393
22.206
22.5525
22.8249
23.0666
23.2554
23.4118
23.5281
23.6159
23.6708
23.6968
23.6917
23.6561
23.5901
23.4962
23.3774
23.2453
23.1397
23.1899
23.34
23.4955
23.6316
23.7407
23.8207
23.8689
23.886
23.8713
23.8268
23.7484
23.6405
23.4898
23.3053
23.066
22.7935
22.4448
22.0725
21.5901
21.1416
23.6783
24.1347
24.6446
25.0456
25.4366
25.7585
26.0548
26.3033
26.523
26.7047
26.8585
26.9809
27.0738
27.1342
27.1606
27.1518
27.1083
27.0329
26.9371
26.86
26.9044
27.0287
27.1507
27.2456
27.3062
27.3307
27.3184
27.2717
27.1917
27.0811
26.9379
26.7649
26.5514
26.3079
26.014
25.6917
25.2979
24.8905
24.3717
23.9012
26.1846
26.6482
27.1786
27.5994
28.0198
28.3755
28.7108
29.0035
29.2729
29.5092
29.7191
29.8989
30.0486
30.1647
30.2444
30.2855
30.2876
30.2536
30.1957
30.151
30.1872
30.28
30.367
30.4228
30.4393
30.4153
30.3512
30.2502
30.1145
29.9477
29.7493
29.5229
29.2612
28.975
28.6423
28.2866
27.8633
27.4358
26.8961
26.4175
28.4052
28.8531
29.3821
29.8028
30.2325
30.6048
30.9657
31.2911
31.5975
31.8756
32.1296
32.3547
32.5496
32.7099
32.8322
32.9133
32.9519
32.9507
32.922
32.8988
32.9303
33.0003
33.0594
33.0835
33.0645
33.0012
32.8954
32.7507
32.5703
32.3589
32.1171
31.8496
31.5518
31.2334
30.8763
30.5052
30.0727
29.6449
29.1058
28.6419
30.3207
30.7398
31.2584
31.6732
32.1097
32.4979
32.8808
33.2347
33.5732
33.8871
34.1786
34.4423
34.6755
34.8731
35.0309
35.1445
35.2122
35.236
35.2275
35.2171
35.2462
35.302
35.3408
35.3402
35.2923
35.1965
35.0555
34.8737
34.6552
34.4052
34.1261
33.8229
33.4934
33.1465
32.768
32.3812
31.9426
31.5202
30.9904
30.5539
31.9689
32.3597
32.8718
33.2878
33.7334
34.1383
34.5418
34.9216
35.2884
35.6332
35.9567
36.253
36.5181
36.7466
36.9328
37.0724
37.1623
37.2042
37.2089
37.2056
37.2336
37.2811
37.3062
37.2871
37.2165
37.0948
36.925
36.7123
36.4616
36.179
35.8677
35.5336
35.1757
34.8028
34.4034
33.9998
33.5515
33.1283
32.6044
32.1942
33.4071
33.774
34.2844
34.7035
35.1583
35.5782
35.9997
36.4012
36.7914
37.1616
37.5109
37.8332
38.1238
38.3761
38.5845
38.7436
38.8498
38.9045
38.9179
38.9185
38.9459
38.9883
39.0039
38.9714
38.884
38.7421
38.5499
38.3127
38.0365
37.7275
37.3902
37.0305
36.649
36.254
35.8362
35.4171
34.9591
34.5322
34.0092
33.6211
34.6694
35.013
35.5203
35.9417
36.4037
36.8358
37.2718
37.6906
38.0992
38.4891
38.8585
39.2007
39.5105
39.781
40.006
40.1796
40.2983
40.363
40.3836
40.3879
40.4145
40.4519
40.4594
40.4163
40.3158
40.1587
39.9493
39.6935
39.3975
39.0681
38.7103
38.3305
37.9302
37.5175
37.0848
36.653
36.187
35.757
35.2353
34.869
35.7625
36.0788
36.5802
37.0018
37.469
37.9108
38.3584
38.7912
39.2145
39.6199
40.0047
40.3622
40.6864
40.9706
41.2081
41.3933
41.5225
41.5967
41.626
41.6362
41.6611
41.6908
41.689
41.6356
41.524
41.3547
41.1322
40.862
40.551
40.2058
39.8321
39.4364
39.0208
38.5937
38.1489
37.7067
37.2345
36.803
36.2852
35.9433
36.6825
36.964
37.455
37.8749
38.3459
38.7965
39.2543
39.6992
40.135
40.5532
40.9503
41.3199
41.6554
41.9503
42.1979
42.3928
42.5319
42.6168
42.6571
42.6751
42.6975
42.717
42.7034
42.6391
42.517
42.3374
42.104
41.8225
41.4995
41.1417
40.7549
40.3458
39.9172
39.4773
39.0214
38.5696
38.0923
37.6606
37.1503
36.8384
37.4255
37.6597
38.1327
38.5486
39.0223
39.4814
39.9494
40.4061
40.8537
41.2835
41.6918
42.0714
42.4165
42.7202
42.9766
43.1805
43.3296
43.4258
43.4779
43.5041
43.524
43.5323
43.5058
43.4297
43.2972
43.1078
42.8649
42.5737
42.2404
41.8715
41.473
41.0515
40.6103
40.1579
39.6909
39.2294
38.7478
38.3176
37.8206
37.5517
37.9955
38.155
38.5978
39.0045
39.4789
39.9463
40.4251
40.8942
41.3539
41.7954
42.2143
42.6036
42.9574
43.2693
43.5337
43.7461
43.9049
44.0119
44.0751
44.1082
44.1258
44.124
44.085
43.9972
43.8543
43.6556
43.4037
43.1034
42.7604
42.3809
41.9709
41.5369
41.0829
40.6171
40.1384
39.667
39.1822
38.7573
38.2855
38.0878
38.4085
38.4423
38.8273
39.2168
39.687
40.1619
40.6511
41.1333
41.6058
42.0597
42.4895
42.8888
43.2513
43.5713
43.8434
44.064
44.2315
44.3483
44.4205
44.459
44.4747
44.4644
44.4145
44.3158
44.1631
43.9552
43.6944
43.3848
43.0319
42.6414
42.2193
41.772
41.304
40.8241
40.3335
39.8526
39.3686
38.9573
38.5414
38.4696
38.6688
38.5151
38.7983
39.1501
39.6099
40.0887
40.5875
41.0827
41.5686
42.0354
42.4772
42.8869
43.2588
43.587
43.8671
44.0954
44.271
44.396
44.4755
44.518
44.532
44.5149
44.4558
44.3474
44.1851
43.968
43.6979
43.3786
43.015
42.6127
42.1775
41.7159
41.2334
40.7391
40.237
39.7494
39.2737
38.9013
38.5927
38.7219
38.7534
38.3656
38.5017
38.7846
39.217
39.695
40.1994
40.7054
41.2035
41.6828
42.1361
42.5564
42.9377
43.2744
43.5622
43.7978
43.9805
44.1121
44.1972
44.2425
44.2552
44.2326
44.166
44.049
43.8779
43.6517
43.3721
43.0425
42.6676
42.253
41.8044
41.3285
40.8322
40.3249
39.8148
39.3262
38.8801
38.5845
38.4378
38.8278
38.5457
37.9495
37.932
38.1243
38.5092
38.9722
39.4765
39.9879
40.4938
40.9823
41.4449
41.874
42.2633
42.6073
42.9015
43.1432
43.3314
43.4678
43.5566
43.6039
43.6156
43.5892
43.5169
43.3932
43.2148
42.9806
42.6925
42.3536
41.9686
41.543
41.0828
40.5954
40.0877
39.5714
39.0553
38.5784
38.18
37.9806
38.0028
38.631
37.8692
37.1705
37.0616
37.1861
37.5276
37.9692
38.4668
38.977
39.4844
39.9755
40.4414
40.874
41.2667
41.6137
41.9106
42.1544
42.3444
42.4822
42.5721
42.6199
42.6311
42.6029
42.5279
42.4008
42.2183
41.9794
41.6859
41.3411
40.9497
40.5173
40.05
39.5551
39.0405
38.5164
38.0029
37.5471
37.1974
37.0794
37.2188
37.9908
36.8938
36.1359
35.9773
36.06
36.3709
36.7933
37.2815
37.7888
38.2935
38.7827
39.2467
39.6775
40.0681
40.4128
40.707
40.9478
41.1345
41.2691
41.3562
41.403
41.4146
41.3881
41.3153
41.1901
41.0088
40.7707
40.4776
40.1326
39.7407
39.3075
38.839
38.3424
37.8259
37.3017
36.7965
36.361
36.0453
35.9757
36.172
37.0122
35.9296
35.1468
34.9686
35.0291
35.3195
35.724
36.1978
36.694
37.1886
37.6686
38.1237
38.5455
38.927
39.2623
39.5467
39.7772
39.9534
40.0778
40.157
40.2006
40.2152
40.1963
40.1333
40.018
39.8462
39.6169
39.3322
38.9953
38.611
38.1847
37.7225
37.2315
36.7188
36.1998
35.7016
35.2736
34.9615
34.8859
35.0561
35.8479
35.1766
34.4992
34.3834
34.468
34.7601
35.1514
35.6043
36.0761
36.5483
37.0065
37.4405
37.8416
38.2028
38.5179
38.782
38.9922
39.1474
39.2508
39.3116
39.3459
39.3654
39.361
39.3154
39.2171
39.0613
38.8476
38.578
38.2562
37.8869
37.476
37.0296
36.5552
36.0613
35.5619
35.0835
34.6747
34.3795
34.3168
34.4911
35.2844
35.332
34.6673
34.5569
34.6325
34.906
35.2707
35.6923
36.1338
36.578
37.0095
37.4176
37.7935
38.1298
38.4205
38.6606
38.8465
38.9768
39.0542
39.0896
39.1102
39.1406
39.1597
39.1379
39.0621
38.928
38.7362
38.4892
38.1911
37.8465
37.4612
37.0416
36.5952
36.1313
35.6623
35.2091
34.8167
34.5253
34.4497
34.5883
35.324
36.2924
35.644
35.5335
35.5807
35.8133
36.1262
36.4972
36.8911
37.2904
37.6795
38.0474
38.3853
38.686
38.9435
39.1527
39.3098
39.413
39.4635
39.4721
39.4744
39.5135
39.5514
39.5483
39.4913
39.3779
39.2091
38.9877
38.7181
38.4049
38.0539
37.6715
37.2657
36.8457
36.4257
36.0198
35.666
35.396
35.3217
35.4257
36.099
37.0122
36.423
36.3485
36.4097
36.6408
36.9423
37.2957
37.6679
38.043
38.4067
38.7489
39.0613
39.3376
39.5719
39.7598
39.8975
39.9832
40.0182
40.0132
40.0069
40.05
40.096
40.1024
40.0571
39.9576
39.8053
39.6032
39.3552
39.066
38.7412
38.3871
38.0109
37.6218
37.2326
36.8562
36.5224
36.2513
36.1475
36.174
36.7146
45.8231
54.2372
62.1553
69.1745
74.5037
78.4733
81.5025
83.911
85.9745
87.7918
89.4418
90.9875
92.4998
94.0482
95.6859
97.4443
99.3304
101.333
103.431
105.593
107.772
109.893
111.763
112.997
45.0185
53.1571
60.8589
67.7758
73.0696
77.0238
80.0514
82.4704
84.5389
86.3444
87.9711
89.4883
90.9691
92.4828
94.0847
95.8045
97.6491
99.6081
101.659
103.772
105.9
107.97
109.794
110.997
44.1664
52.0567
59.5491
66.3574
71.6169
75.5646
78.6036
81.0432
83.1202
84.9192
86.5283
88.0205
89.4713
90.9529
92.5188
94.2003
96.0046
97.9202
99.9252
101.989
104.067
106.086
107.864
109.034
43.267
50.912
58.2051
64.9122
70.1489
74.1039
77.1678
79.637
81.7283
83.5292
85.1213
86.5903
88.0142
89.4642
90.9974
92.6429
94.4074
96.2805
98.2401
100.255
102.283
104.252
105.985
107.124
42.3325
49.7482
56.8364
63.4387
68.6595
72.6339
75.7349
78.2422
80.3545
82.1624
83.7465
85.1984
86.5979
88.0212
89.5218
91.1321
92.8593
94.6917
96.607
98.5761
100.554
102.475
104.163
105.271
41.4054
48.5456
55.4228
61.9255
67.1466
71.1585
74.308
76.8603
78.9995
80.8217
82.4044
83.842
85.2221
86.6189
88.0918
89.6705
91.3609
93.1534
95.0255
96.9477
98.8791
100.751
102.394
103.472
40.3984
47.3064
53.9646
60.366
65.5969
69.6585
72.869
75.4758
77.652
79.4936
81.0879
82.52
83.8842
85.2618
86.7071
88.2541
89.911
91.6657
93.4963
95.3751
97.2582
99.0841
100.685
101.732
39.4826
46.0466
52.4526
58.7434
64.0011
68.1386
71.4238
74.0931
76.3103
78.1834
79.7921
81.2269
82.5838
83.9424
85.3665
86.8874
88.511
90.2285
92.0182
93.851
95.689
97.4672
99.0253
100.043
38.3589
44.6833
50.842
57.027
62.3232
66.5506
69.9322
72.6822
74.963
76.8732
78.5106
79.9595
81.3141
82.6647
84.0678
85.5614
87.1554
88.8382
90.5886
92.3805
94.1706
95.9048
97.421
98.409
37.4485
43.338
49.1704
55.2109
60.5605
64.9202
68.4177
71.2599
73.5992
75.5645
77.2362
78.7047
80.0705
81.4149
82.8056
84.2798
85.8443
87.492
89.2026
90.9482
92.6939
94.3809
95.8538
96.8127
36.1016
41.7589
47.3011
53.2012
58.6126
63.1216
66.7835
69.7559
72.2086
74.2391
75.9612
77.4645
78.8422
80.1924
81.5718
83.024
84.563
86.1782
87.8504
89.556
91.2545
92.8975
94.3295
95.2579
35.053
40.2507
45.3685
51.0535
56.5315
61.2587
65.1076
68.2334
70.7704
72.8874
74.6724
76.2162
77.626
78.9822
80.36
81.8015
83.3153
84.8971
86.5298
88.1882
89.8411
91.4368
92.8249
93.7237
33.6906
38.4753
43.0971
48.5054
54.0348
58.9972
63.1589
66.5106
69.256
71.4922
73.3606
74.9683
76.4075
77.7866
79.1639
80.589
82.0816
83.6338
85.2293
86.8487
88.454
90.0051
91.353
92.2211
32.305
36.7221
40.794
45.8053
51.3569
56.6677
61.1211
64.7661
67.6549
70.0292
72.0036
73.6801
75.1807
76.5824
77.9717
79.3972
80.87
82.3904
83.9458
85.5146
87.0731
88.5771
89.8765
90.7142
30.2747
34.3245
37.7459
42.2146
47.7027
53.3567
58.501
62.5755
65.8632
68.4634
70.5832
72.3712
73.9249
75.3734
76.7767
78.1923
79.649
81.1422
82.661
84.1924
85.7005
87.156
88.4181
89.2221
28.1299
31.9967
34.8035
38.5947
43.9293
50.1206
55.6058
60.3161
63.9042
66.7661
69.0715
70.9711
72.6306
74.1242
75.5583
76.9894
78.4324
79.8947
81.3707
82.8442
84.3046
85.7123
86.9159
87.6885
24.5142
28.1382
30.0952
32.6549
37.4235
44.0684
51.4791
57.0742
61.5221
64.8279
67.4092
69.5132
71.2635
72.8405
74.3084
75.7375
77.1702
78.6073
80.0466
81.4852
82.8865
84.2388
85.41
86.1441
19.5265
24.3247
25.9169
27.7179
31.9208
39.3977
46.258
53.5613
58.6908
62.6248
65.5797
67.8764
69.8117
71.4672
72.9932
74.4594
75.8861
77.2918
78.682
80.0484
81.4009
82.7031
83.7957
84.4975
12.954
14.3769
15.8375
12.6294
13.532
21.1873
38.217
47.4837
54.9795
59.8445
63.3884
66.1035
68.2014
70.0067
71.5994
73.0728
74.4963
75.8776
77.2293
78.5637
79.8434
81.0759
82.1483
82.8011
3.50002
8.89321
8.78868
15.5764
20.4876
23.6426
24.7199
41.2218
49.7274
56.4623
60.8872
63.9735
66.4293
68.3726
70.0657
71.6138
73.0419
74.3885
75.6783
76.9163
78.1368
79.319
80.2717
80.8911
16.2668
18.6459
18.26
16.1289
15.5971
25.0406
12.0796
20.7782
42.4514
51.4446
57.4264
61.5273
64.3053
66.5388
68.3705
69.9361
71.3709
72.6922
73.9385
75.1437
76.2834
77.3592
78.3143
78.8715
23.5467
26.8676
28.1465
27.5012
24.5139
21.1699
21.8329
23.3785
27.6206
45.3424
53.4251
58.2924
61.8661
64.3731
66.3795
68.0991
69.5577
70.8353
71.9915
73.06
74.0896
75.1299
75.8925
76.4019
25.6307
29.5907
31.9911
33.2988
32.9467
29.7949
22.0102
29.2441
13.8318
31.202
46.3924
54.3256
58.6144
61.736
64.0619
65.8113
67.2931
68.5398
69.6427
70.6669
71.6468
72.4784
73.2663
73.7125
26.7421
30.7777
33.3854
35.2191
36.092
35.7106
33.2043
26.6505
22.2445
17.3245
38.5299
48.2399
54.6762
58.4261
61.0869
63.1817
64.7286
65.9075
66.8478
67.6548
68.3495
69.2132
69.6864
70.0293
26.0455
30.313
33.2034
35.4332
36.8799
37.4834
37.1213
34.6574
27.8171
21.695
17.3102
41.0426
48.7387
53.9622
57.4195
59.5496
61.1407
62.267
63.1388
63.882
64.6863
65.0515
65.5481
65.8722
24.0531
28.6449
31.8111
34.3948
36.2859
37.4855
38.0527
37.9096
35.9768
28.3844
28.1779
23.6545
41.273
47.917
52.1914
55.1832
56.9523
57.9417
58.4083
58.6868
58.6541
59.2925
59.3409
59.3423
21.2438
26.2086
29.5964
32.4467
34.6864
36.3441
37.5458
38.4012
38.6625
35.5086
25.8983
7.67375
27.2568
39.629
45.3418
48.359
50.034
50.9052
51.2467
51.7512
52.3617
51.5353
51.986
51.733
18.321
23.4887
26.908
29.8377
32.2692
34.2693
35.9723
37.5381
38.8998
39.0747
33.8684
27.4182
8.10889
20.1148
34.7979
40.6063
42.7857
42.9395
42.231
40.5125
39.2716
39.0473
40.5032
40.347
15.7343
20.8322
24.0764
26.8969
29.3504
31.5446
33.6159
35.7121
37.8242
39.4028
38.9134
31.5033
24.5539
24.4132
15.5494
21.629
21.5332
32.2316
17.748
24.7021
18.6435
24.0121
42.8072
46.2829
13.383
18.3133
21.3096
23.9415
26.3231
28.5887
30.8721
33.2943
35.9017
38.3741
39.7261
37.3839
31.1794
29.7344
13.2372
22.1143
24.0904
41.3131
20.7311
31.6435
24.8231
22.5152
36.7876
37.3775
11.6964
16.3331
19.0283
21.4207
23.6634
25.8922
28.22
30.7431
33.5347
36.4817
38.9638
39.6175
37.0422
30.5328
27.5423
31.4456
28.1945
36.4142
31.4086
36.7676
31.9414
37.2996
25.4815
30.3402
10.7261
15.0396
17.4741
19.6575
21.7559
23.8827
26.1168
28.5358
31.2263
34.2228
37.2609
39.4214
39.5236
38.0576
33.1142
29.2179
29.1396
31.3353
36.0055
35.8288
37.8313
36.5047
38.758
40.5469
10.2989
14.4664
16.7311
18.7823
20.7738
22.7795
24.8436
27.0266
29.4214
32.1366
35.1645
38.0767
39.8387
40.472
37.9543
36.6922
38.3128
39.3004
42.1027
41.7925
42.0563
40.6236
42.7087
43.459
10.4028
14.4819
16.6822
18.6907
20.6299
22.535
24.4235
26.3432
28.3823
30.6628
33.2986
36.2234
38.8746
40.7272
40.1488
40.3845
41.2721
41.6024
43.1693
42.977
42.3436
41.3988
42.8149
43.4444
10.8358
14.9174
17.1433
19.1804
21.1163
22.9581
24.7088
26.4074
28.1299
29.9821
32.0985
34.5852
37.296
39.803
40.6545
41.531
42.0189
41.9463
42.7978
42.5475
41.4221
40.9522
41.8999
42.4335
11.4926
15.6364
17.9344
20.0413
22.0124
23.8329
25.498
27.0431
28.5322
30.047
31.6973
33.6221
35.8914
38.3594
40.0166
41.3104
41.6974
41.3643
41.5647
41.1518
39.7732
39.6203
40.3095
40.7462
12.2558
16.5661
18.9505
21.1401
23.1613
24.9861
26.6096
28.0671
29.4122
30.7018
32.0102
33.4511
35.1474
37.1363
38.8828
40.2884
40.7091
40.2487
39.9705
39.3842
37.9776
37.9711
38.6203
39.0182
13.3035
17.6516
20.1182
22.392
24.4682
26.3113
27.9222
29.3409
30.6136
31.7768
32.8721
33.9716
35.1813
36.5925
37.9943
39.1918
39.5978
39.1096
38.527
37.7948
36.527
36.5869
37.2878
37.7192
14.3671
18.8108
21.3761
23.7387
25.873
27.7439
29.3629
30.7762
32.0253
33.1331
34.1167
35.0123
35.8863
36.8209
37.7611
38.575
38.844
38.3355
37.5696
36.7291
35.652
35.7484
36.5431
37.0626
15.4634
20.0208
22.6912
25.1434
27.3374
29.2431
30.8846
32.3146
33.5711
34.6677
35.6075
36.4012
37.0792
37.691
38.2365
38.6527
38.6937
38.1171
37.2267
36.3069
35.4062
35.534
36.4271
37.0554
45.8256
44.1655
43.3409
41.71
40.7559
39.2053
38.1886
36.6775
35.7101
34.4365
33.4031
32.1958
31.2559
30.2914
29.3913
28.6812
27.9068
27.3877
26.9818
26.5611
26.5646
26.994
27.396
27.9333
28.5472
29.4027
30.3216
31.2977
32.2347
33.4205
34.4308
35.6955
36.7141
38.242
39.2265
40.8293
41.7848
43.4024
44.2107
45.8849
54.4492
52.9485
52.1459
50.7262
49.7982
48.4926
47.5139
46.2862
45.3958
44.319
43.3166
42.3623
41.5506
40.7036
39.981
39.4222
38.7471
38.3155
38.0924
37.8167
37.8195
38.1011
38.3275
38.7732
39.354
39.9864
40.7349
41.5774
42.3846
43.3614
44.2836
45.3818
46.2906
47.5825
48.5435
49.8914
50.8317
52.2248
53.0066
54.5111
62.4927
61.0704
60.262
58.924
57.9993
56.7657
55.7957
54.6671
53.7336
52.7169
51.7975
50.9034
50.1041
49.3319
48.6556
48.0678
47.523
47.1095
46.8363
46.6527
46.6553
46.8437
47.1208
47.5409
48.0663
48.672
49.3559
50.1261
50.9302
51.8267
52.7293
53.7562
54.6877
55.8426
56.8089
58.0559
58.9875
60.3228
61.1243
62.5508
69.508
68.071
67.18
65.8257
64.8403
63.5882
62.5757
61.4366
60.4538
59.4336
58.5138
57.6206
56.8103
56.056
55.3838
54.7941
54.2921
53.897
53.6211
53.4701
53.4724
53.6277
53.9073
54.3059
54.8083
55.4033
56.0783
56.8333
57.6465
58.5414
59.4602
60.4847
61.4686
62.6142
63.6282
64.8846
65.8725
67.2293
68.12
69.5614
74.7922
73.301
72.3186
70.9182
69.8608
68.5739
67.507
66.3429
65.3189
64.2826
63.3428
62.4413
61.6224
60.8701
60.202
59.6207
59.1356
58.7568
58.4942
58.356
58.358
58.5002
58.7663
59.1483
59.6361
60.2208
60.8914
61.6455
62.4668
63.3702
64.3114
65.3505
66.3765
67.5438
68.6126
69.9025
70.9618
72.3651
73.349
74.844
78.7218
77.1876
76.1351
74.7036
73.5905
72.2842
71.1766
69.9998
68.9496
67.9056
66.9536
66.0498
65.2292
64.4811
63.82
63.2489
62.7767
62.411
62.1596
62.0289
62.0308
62.1651
62.4198
62.7887
63.2639
63.8381
64.5016
65.2519
66.0748
66.9806
67.9345
68.9811
70.0334
71.2127
72.3223
73.6315
74.7466
76.181
77.2358
78.7733
81.7181
80.1564
79.0492
77.6038
76.4491
75.1346
73.9989
72.8168
71.7509
70.7037
69.7458
68.8425
68.0228
67.2793
66.6245
66.0616
65.5986
65.2419
64.9982
64.8724
64.8742
65.0034
65.2505
65.6102
66.0761
66.642
67.2993
68.0452
68.8671
69.7726
70.7325
71.7822
72.8502
74.0347
75.1726
76.4898
77.6467
79.0952
80.2046
81.7696
84.0946
82.514
81.3614
79.9103
78.7258
77.4084
76.2544
75.0689
73.9934
72.9436
71.9819
71.0783
70.2587
69.5174
68.8657
68.307
67.8488
67.4968
67.2568
67.1333
67.1351
67.2619
67.5051
67.8601
68.3213
68.8828
69.5371
70.2809
71.1027
72.0086
72.9725
74.0246
75.1023
76.2903
77.4465
78.7667
79.9535
81.4076
82.5625
84.1464
86.1333
84.5351
83.3472
81.8858
80.6781
79.3517
78.1825
76.9888
75.9028
74.8461
73.8772
72.9685
72.1443
71.3995
70.7453
70.1849
69.7257
69.3731
69.1328
69.0089
69.0107
69.1379
69.3814
69.737
70.1992
70.7623
71.4192
72.1665
72.993
73.9041
74.8752
75.9343
77.0225
78.2188
79.3903
80.7194
81.9295
83.3937
84.5843
86.1855
87.9427
86.3171
85.1066
83.6276
82.4021
81.0623
79.8784
78.6733
77.575
76.5085
75.5293
74.6118
73.7791
73.027
72.3659
71.7997
71.3354
70.9786
70.735
70.6089
70.6107
70.7402
70.987
71.3468
71.814
72.3831
73.0468
73.8015
74.6366
75.5564
76.5379
77.607
78.7075
79.9152
81.1013
82.4439
83.6719
85.1536
86.367
87.9952
89.594
87.9392
86.7093
85.21
83.9666
82.6105
81.4103
80.1908
79.0776
77.9977
77.0051
76.0753
75.2306
74.4672
73.7957
73.2199
72.7472
72.3834
72.1343
72.0046
72.0063
72.1396
72.3919
72.7588
73.2345
73.813
74.4873
75.2532
76.1004
77.0327
78.0276
79.11
80.2255
81.4476
82.6502
84.0091
85.255
86.7571
87.9897
89.6473
91.1472
89.4608
88.2147
86.692
85.4311
84.0557
82.838
81.6011
80.4712
79.375
78.3666
77.4215
76.562
75.7844
75.0994
74.5112
74.0273
73.654
73.3977
73.2632
73.2651
73.4031
73.6627
74.0391
74.526
75.1171
75.8048
76.585
77.447
78.3946
79.4054
80.5041
81.6363
82.8759
84.0959
85.4742
86.7375
88.2633
89.5118
91.2014
92.6699
90.9499
89.6889
88.1404
86.8615
85.4645
84.2281
82.9717
81.8232
80.7086
79.6821
78.7194
77.8426
77.0484
76.3474
75.7442
75.2468
74.8621
74.5969
74.4567
74.4587
74.6025
74.8711
75.259
75.7594
76.3655
77.0692
77.866
78.7453
79.7106
80.7395
81.8566
83.0075
84.2666
85.5054
86.9053
88.1865
89.7381
91.0017
92.7248
94.2293
92.4739
91.1976
89.621
88.3232
86.9023
85.6455
84.3673
83.1984
82.0632
81.0166
80.0341
79.1379
78.3247
77.6054
76.9849
76.4716
76.0734
75.7978
75.6511
75.6531
75.8036
76.0826
76.4841
77.0004
77.6238
78.3458
79.1617
80.0605
81.0456
82.0946
83.2323
84.4036
85.6845
86.9437
88.3674
89.6677
91.2474
92.5263
94.2848
95.8792
94.0854
92.7929
91.1856
89.8672
88.42
87.1409
85.8387
84.6473
83.4893
82.4204
81.4158
80.4979
79.6633
78.9233
78.283
77.7516
77.3377
77.0499
76.8957
76.8978
77.0559
77.3472
77.7645
78.2989
78.942
79.6848
80.522
81.4425
82.4497
83.521
84.6816
85.8755
87.1804
88.4618
89.9119
91.2328
92.8432
94.1383
95.9352
97.6496
95.8152
94.5045
92.8641
91.5229
90.0471
88.7435
87.415
86.1988
85.0156
83.9223
82.8934
81.9514
81.0932
80.3299
79.6672
79.115
78.6829
78.381
78.2181
78.2203
78.3872
78.6927
79.1282
79.6835
80.349
81.115
81.9759
82.9204
83.9519
85.0477
86.2334
87.4521
88.7833
90.0893
91.5681
92.9118
94.5552
95.8686
97.7062
99.548
97.671
96.3401
94.6647
93.2986
91.7921
90.4619
89.105
87.8619
86.6517
85.5318
84.4764
83.5082
82.6239
81.8349
81.1473
80.5714
80.1182
79.7997
79.6267
79.629
79.8062
80.1284
80.585
81.164
81.8545
82.6462
83.533
84.5037
85.5617
86.684
87.8969
89.1424
90.5021
91.8347
93.3441
94.7127
96.3913
97.7249
99.6051
101.564
99.6436
98.2908
96.5792
95.1865
93.6478
92.2895
90.9027
89.6312
88.3923
87.2442
86.1607
85.1644
84.2522
83.4353
82.72
82.1174
81.6399
81.3019
81.1169
81.1194
81.3086
81.6505
82.1314
82.7371
83.4552
84.2748
85.1896
86.1883
87.2744
88.4249
89.6664
90.9403
92.3299
93.691
95.2325
96.6276
98.3426
99.6977
101.622
103.676
101.711
100.337
98.5882
97.1684
95.5968
94.2099
92.7921
91.4912
90.2229
89.0456
87.9329
86.9073
85.9657
85.119
84.3737
83.7414
83.236
82.8748
82.6755
82.6781
82.8819
83.247
83.7558
84.3912
85.1393
85.9886
86.9329
87.9607
89.0758
90.2555
91.5266
92.8301
94.2504
95.64
97.2148
98.6371
100.389
101.767
103.735
105.854
103.846
102.449
100.664
99.2169
97.613
96.1966
94.7484
93.4183
92.1201
90.9133
89.7715
88.7163
87.7444
86.8668
86.0895
85.4244
84.887
84.4983
84.2814
84.2841
84.5059
84.8988
85.4396
86.1072
86.8871
87.7673
88.7418
89.7993
90.9441
92.1529
93.4539
94.7865
96.2377
97.6562
99.2637
100.713