/*--------------------------------*- C++ -*----------------------------------*\
  =========                 |
  \\      /  F ield         | OpenFOAM: The Open Source CFD Toolbox
   \\    /   O peration     | Website:  https://openfoam.org
    \\  /    A nd           | Version:  6
     \\/     M anipulation  |
\*---------------------------------------------------------------------------*/
FoamFile
{
    version     2.0;
    format      ascii;
    class       volScalarField;
    location    "0.6";
    object      omega;
}
// * * * * * * * * * * * * * * * * * * * * * * * * * * * * * * * * * * * * * //

dimensions      [0 0 -1 0 0 0 0];

internalField   nonuniform List<scalar> 
63432
(
843.917
843.917
843.917
843.917
843.917
843.917
843.917
843.917
843.917
843.917
843.917
843.917
843.917
843.917
843.917
843.917
843.917
843.917
843.917
843.917
843.917
843.917
843.917
843.917
843.917
843.917
843.917
843.917
843.917
843.917
843.917
843.917
843.917
843.917
843.917
843.917
843.917
843.917
843.917
843.917
843.917
843.917
843.917
843.917
843.917
843.917
843.917
843.917
843.917
843.917
843.917
843.917
843.917
843.917
843.917
843.917
843.917
843.917
843.917
843.917
843.917
843.917
843.917
843.917
843.917
843.917
843.917
843.917
843.917
843.917
843.917
843.917
843.917
843.917
843.917
843.917
843.917
843.917
843.917
843.917
843.917
843.917
843.917
843.917
843.917
843.917
843.917
843.917
843.917
843.917
843.917
843.917
843.917
843.917
843.917
843.917
843.917
843.917
843.917
843.917
843.917
843.917
843.917
843.917
843.917
843.917
843.917
843.917
843.917
843.917
843.917
843.917
843.917
843.917
843.917
843.917
843.917
843.917
843.917
843.917
843.917
843.917
843.917
843.917
843.917
843.917
843.917
843.917
843.917
843.917
843.917
843.917
843.917
843.917
843.917
843.917
843.917
843.917
843.917
843.917
843.917
843.917
843.917
843.917
843.917
843.917
843.917
843.917
843.917
843.917
843.917
843.917
843.917
843.917
843.917
843.917
843.917
843.917
843.917
843.917
843.917
843.917
843.917
843.917
843.917
843.917
843.917
843.917
843.917
843.917
843.917
843.917
843.917
843.917
843.917
843.917
843.917
843.917
843.917
843.917
843.917
843.917
843.917
843.917
843.917
843.917
843.917
843.917
843.917
843.917
843.917
843.917
843.917
843.917
843.917
843.917
843.917
843.917
843.917
843.917
843.917
843.917
843.917
843.917
843.917
843.917
843.917
843.917
843.917
843.917
843.917
843.917
843.917
843.917
843.917
843.917
843.917
843.917
843.917
843.917
843.917
843.917
843.917
843.917
843.917
843.917
843.917
843.917
843.917
843.917
843.917
843.917
843.917
843.917
843.917
843.917
843.917
843.917
843.917
843.917
843.917
843.917
843.917
843.917
843.917
843.917
843.917
843.917
843.917
843.917
843.917
843.917
843.917
843.917
843.917
843.917
843.917
843.917
843.917
843.917
843.917
843.917
843.917
843.917
843.917
843.917
843.917
843.917
843.917
843.917
843.917
843.917
843.917
843.917
843.917
843.917
843.917
843.917
843.917
843.917
843.917
843.917
843.917
843.917
843.917
843.917
843.917
843.917
843.917
843.917
843.917
843.917
843.917
266.681
266.646
266.651
266.548
266.446
266.644
266.846
266.992
266.977
266.656
266.537
266.689
266.11
266.208
266.256
266.274
266.214
266.165
266.253
266.45
266.694
266.664
266.377
266.456
265.33
265.607
265.846
266.034
266.149
266.178
266.162
266.122
266.164
266.389
266.662
266.573
266.563
264.799
264.981
265.209
265.499
265.775
265.951
266.017
266.019
265.993
266.053
266.235
266.346
266.522
264.263
264.436
264.609
264.829
265.164
265.498
265.738
265.859
265.846
265.865
265.92
265.963
266.223
263.409
263.672
263.926
264.156
264.35
264.585
264.888
265.195
265.507
265.684
265.721
265.77
265.74
265.899
262.521
262.955
263.35
263.714
263.978
264.201
264.404
264.618
264.962
265.322
265.539
265.69
265.666
265.706
261.585
262.136
262.643
263.129
263.535
263.844
264.087
264.274
264.509
264.796
265.071
265.374
265.578
265.628
259.781
260.579
261.289
261.911
262.458
262.952
263.357
263.721
263.996
264.229
264.42
264.624
264.856
265.133
265.369
258.408
259.385
260.277
261.072
261.747
262.321
262.791
263.224
263.589
263.913
264.154
264.366
264.543
264.707
264.923
257.051
258.158
259.172
260.082
260.89
261.607
262.204
262.714
263.133
263.501
263.813
264.089
264.342
264.515
264.681
255.757
257.014
258.139
259.141
260.019
260.808
261.529
262.164
262.701
263.14
263.499
263.807
264.082
264.31
264.489
252.79
254.455
255.92
257.206
258.329
259.299
260.135
260.897
261.567
262.144
262.688
263.162
263.548
263.87
264.152
264.33
251.246
253.147
254.825
256.294
257.554
258.649
259.581
260.396
261.096
261.709
262.246
262.731
263.115
263.456
263.825
264.127
249.809
251.919
253.778
255.402
256.796
258.005
259.046
259.943
260.713
261.385
261.943
262.43
262.838
263.188
263.506
263.769
248.542
250.835
252.846
254.598
256.107
257.409
258.536
259.509
260.346
261.069
261.681
262.207
262.662
263.045
263.371
263.623
247.461
249.91
252.052
253.914
255.517
256.898
258.093
259.125
260.014
260.779
261.433
261.995
262.481
262.891
263.252
263.525
246.556
249.135
251.387
253.342
255.025
256.473
257.725
258.807
259.739
260.539
261.225
261.814
262.32
262.748
263.129
263.422
245.809
248.496
250.84
252.873
254.623
256.129
257.43
258.553
259.521
260.352
261.063
261.674
262.198
262.642
263.034
263.342
245.235
248.006
250.421
252.517
254.32
255.871
257.21
258.367
259.362
260.217
260.949
261.576
262.115
262.571
262.972
263.291
132.404
132.139
131.907
131.643
131.345
131.07
130.821
130.669
130.57
130.354
130.028
129.801
131.746
131.5
131.337
131.185
130.984
130.775
130.551
130.393
130.254
130.16
129.975
129.768
131.455
131.221
131.018
130.859
130.772
130.695
130.558
130.41
130.229
130.138
130.028
129.928
129.806
130.856
130.653
130.487
130.393
130.305
130.281
130.256
130.192
130.094
129.974
129.901
129.809
129.758
130.214
130.042
129.929
129.839
129.825
129.822
129.845
129.85
129.854
129.796
129.736
129.67
129.646
129.571
129.47
129.396
129.353
129.327
129.32
129.35
129.416
129.471
129.525
129.563
129.553
129.531
129.516
128.651
128.647
128.691
128.737
128.808
128.852
128.898
128.968
129.073
129.177
129.26
129.309
129.342
129.373
127.665
127.755
127.903
128.054
128.216
128.353
128.459
128.557
128.671
128.774
128.916
129.021
129.089
129.18
126.427
126.622
126.82
127.047
127.283
127.515
127.747
127.938
128.12
128.262
128.406
128.526
128.667
128.79
128.923
125.1
125.426
125.777
126.115
126.448
126.745
127.043
127.307
127.574
127.795
128.005
128.174
128.329
128.472
128.613
123.682
124.146
124.604
125.067
125.513
125.918
126.304
126.638
126.963
127.251
127.524
127.776
127.998
128.187
128.361
122.223
122.821
123.418
123.978
124.526
125.033
125.52
125.967
126.364
126.722
127.04
127.336
127.61
127.855
128.088
119.835
120.682
121.474
122.229
122.932
123.58
124.181
124.746
125.261
125.75
126.182
126.583
126.931
127.244
127.522
127.785
117.98
119.064
120.081
121.018
121.887
122.668
123.385
124.03
124.627
125.16
125.66
126.099
126.498
126.854
127.19
127.489
116.123
117.45
118.684
119.809
120.838
121.761
122.601
123.349
124.035
124.641
125.196
125.684
126.127
126.518
126.871
127.192
114.349
115.919
117.357
118.661
119.841
120.897
121.849
122.7
123.468
124.152
124.767
125.315
125.808
126.249
126.636
126.984
112.727
114.526
116.157
117.628
118.946
120.123
121.176
122.116
122.957
123.707
124.376
124.974
125.508
125.989
126.414
126.793
111.317
113.32
115.123
116.741
118.184
119.467
120.608
121.625
122.53
123.335
124.05
124.688
125.255
125.764
126.216
126.616
110.178
112.349
114.294
116.032
117.578
118.948
120.164
121.243
122.201
123.05
123.803
124.473
125.066
125.597
126.068
126.484
109.406
111.688
113.731
115.552
117.169
118.6
119.866
120.989
121.983
122.864
123.643
124.335
124.947
125.493
125.977
126.405
80.9493
80.602
80.3102
80.011
79.679
79.2998
78.9829
78.7553
78.6372
78.4897
78.1861
77.8856
80.5185
80.1496
79.8949
79.692
79.4433
79.1907
78.8878
78.6714
78.4375
78.3167
78.202
77.9531
80.6018
80.1639
79.8086
79.5175
79.3307
79.1943
79.0227
78.8207
78.6003
78.4267
78.2184
78.1226
77.9772
80.1825
79.7992
79.4625
79.212
78.9894
78.8531
78.7541
78.6614
78.5207
78.3739
78.2033
78.0795
77.953
79.7018
79.3697
79.0913
78.8596
78.6804
78.5381
78.4452
78.3672
78.335
78.2667
78.1444
78.0513
77.927
79.411
79.1117
78.8589
78.6619
78.4925
78.3574
78.2398
78.1757
78.1134
78.0691
78.0717
78.0235
77.9974
77.9086
78.7005
78.4673
78.3045
78.1695
78.0824
78.0121
77.9384
77.9035
77.8811
77.8525
77.8637
77.822
77.8361
77.8415
77.9354
77.7686
77.6977
77.6465
77.6288
77.6212
77.6136
77.6055
77.6311
77.6126
77.6547
77.6556
77.6401
77.6855
77.2661
77.1375
77.0492
77.0294
77.0526
77.0917
77.1615
77.2142
77.2672
77.3166
77.3603
77.4018
77.4497
77.4709
77.5242
76.2951
76.2519
76.2731
76.3209
76.4104
76.4887
76.6076
76.715
76.8425
76.9437
77.0437
77.1324
77.1995
77.2738
77.3424
75.2319
75.2972
75.3979
75.5334
75.7005
75.8483
76.0249
76.1719
76.3422
76.5005
76.6542
76.8135
76.932
77.0514
77.159
74.0987
74.2616
74.4726
74.6865
74.931
75.1674
75.4075
75.6416
75.8562
76.0586
76.2447
76.4351
76.6067
76.7732
76.9447
72.5803
72.8677
73.17
73.498
73.8271
74.1547
74.4701
74.7898
75.0776
75.3728
75.6325
75.8742
76.0969
76.3011
76.4765
76.6729
71.0806
71.5425
72.0177
72.4797
72.9431
73.3742
73.7883
74.1761
74.5474
74.8832
75.2101
75.4991
75.7638
76.0064
76.2325
76.4423
69.5324
70.1845
70.833
71.4463
72.0407
72.5876
73.1061
73.5769
74.0286
74.4268
74.8069
75.1463
75.4589
75.7356
75.9917
76.231
68.0064
68.8587
69.6773
70.4445
71.1651
71.8273
72.4422
73.002
73.5233
73.992
74.4242
74.816
75.1726
75.496
75.7836
76.0544
66.5733
67.6223
68.6067
69.5205
70.3631
71.1332
71.8376
72.4785
73.0638
73.5936
74.0741
74.5112
74.904
75.2655
75.5832
75.8814
65.3035
66.5317
67.6688
68.7144
69.6688
70.5353
71.3207
72.0318
72.6755
73.2565
73.7796
74.2534
74.6768
75.065
75.4072
75.7232
64.2721
65.6484
66.9125
68.0671
69.1147
70.0606
70.9135
71.6821
72.3741
72.9964
73.5544
74.0575
74.5059
74.9145
75.2754
75.6041
63.5921
65.0642
66.4116
67.6384
68.7481
69.7474
70.6458
71.4532
72.1781
72.8284
73.41
73.933
74.3985
74.8211
75.1947
75.5325
54.852
54.536
54.2897
54.0315
53.7433
53.3968
53.1244
52.9126
52.8147
52.7125
52.4737
52.1969
54.6265
54.2802
54.0357
53.8589
53.6412
53.4101
53.1282
52.9345
52.7153
52.5969
52.5377
52.3095
54.8838
54.4451
54.0962
53.8075
53.6184
53.4796
53.3382
53.1363
52.9415
52.7703
52.5584
52.484
52.3506
54.6663
54.2661
53.9181
53.646
53.4149
53.2594
53.1442
53.0559
52.919
52.7911
52.6005
52.4892
52.3594
54.3768
54.0332
53.7228
53.4678
53.2494
53.0752
52.951
52.8504
52.794
52.748
52.613
52.5255
52.3733
54.3363
53.9914
53.6997
53.4617
53.2543
53.0804
52.9191
52.8053
52.7092
52.6245
52.6095
52.5453
52.5325
52.4146
53.8615
53.5628
53.3305
53.1387
52.9846
52.873
52.7519
52.6717
52.6059
52.5162
52.5023
52.4223
52.4205
52.4016
53.3427
53.0855
52.9236
52.7959
52.699
52.6231
52.5609
52.5001
52.4848
52.4111
52.4046
52.3569
52.3073
52.3109
53.0511
52.8006
52.6009
52.4743
52.4005
52.35
52.3301
52.3178
52.2952
52.2939
52.2762
52.2721
52.267
52.2397
52.2339
52.4189
52.2226
52.0962
52.0086
51.9783
51.9495
51.9614
51.9824
52.0206
52.0538
52.0763
52.1096
52.116
52.1395
52.153
51.7249
51.6041
51.5346
51.4992
51.5181
51.5239
51.5733
51.6103
51.673
51.7445
51.8071
51.899
51.9434
52.0033
52.05
50.9665
50.9104
50.9161
50.9394
51.0034
51.0755
51.1597
51.2521
51.3419
51.4355
51.518
51.6244
51.7095
51.8051
51.9122
50.1147
50.1139
50.1504
50.2343
50.338
50.4644
50.5902
50.7387
50.8696
51.0152
51.1489
51.2668
51.3868
51.4997
51.5914
51.7103
49.0515
49.1664
49.324
49.4976
49.6968
49.897
50.0965
50.2951
50.4936
50.6746
50.8556
51.0197
51.1693
51.3055
51.4359
51.5602
47.9194
48.1672
48.4497
48.7317
49.0275
49.3097
49.5897
49.8472
50.1093
50.3387
50.5632
50.7677
50.9598
51.1234
51.2819
51.4326
46.7696
47.1655
47.5735
47.9719
48.3632
48.732
49.0857
49.4115
49.7259
50.0099
50.2761
50.5204
50.7467
50.9497
51.1332
51.3109
45.6609
46.2078
46.7426
47.2551
47.7411
48.1944
48.6176
49.0081
49.3717
49.7041
50.0088
50.2888
50.5422
50.7774
50.9833
51.1824
44.6562
45.3448
46.0001
46.6175
47.1925
47.7228
48.2106
48.6578
49.0677
49.4413
49.7803
50.09
50.3675
50.625
50.8504
51.063
43.8269
44.6347
45.3924
46.0978
46.7481
47.3429
47.8853
48.3792
48.8283
49.2355
49.6029
49.9365
50.2343
50.5085
50.7494
50.9716
43.2845
44.1684
44.9921
45.755
46.4547
47.0922
47.6711
48.1963
48.6718
49.1016
49.4882
49.8379
50.1496
50.435
50.6865
50.9156
39.4102
39.1716
39.0028
38.8108
38.5902
38.3206
38.1205
37.9549
37.8884
37.8179
37.636
37.4172
39.3206
39.0544
38.8651
38.7364
38.5775
38.3917
38.1666
38.0171
37.8485
37.7456
37.7235
37.5338
39.6063
39.2574
38.9824
38.7506
38.6021
38.4863
38.3921
38.2203
38.0675
37.9317
37.7486
37.7004
37.5875
39.5386
39.2042
38.9188
38.6878
38.4993
38.3674
38.2697
38.198
38.0861
37.991
37.8169
37.7277
37.6211
39.4008
39.1156
38.848
38.627
38.4325
38.2763
38.163
38.0733
38.0075
37.9869
37.8669
37.7959
37.6542
39.4975
39.1907
38.9337
38.7159
38.5289
38.3656
38.2141
38.0969
38.0053
37.9152
37.8984
37.8308
37.8343
37.7176
39.2224
38.9441
38.719
38.535
38.3729
38.2602
38.1372
38.0468
37.9813
37.8748
37.857
37.7712
37.7653
37.7308
38.9087
38.6521
38.4719
38.3332
38.217
38.1233
38.0443
37.9658
37.9415
37.8521
37.8304
37.7687
37.7133
37.6924
38.8378
38.5705
38.3522
38.1968
38.0925
38.0137
37.9562
37.9213
37.8674
37.8454
37.8008
37.7773
37.7496
37.7101
37.6711
38.4581
38.2228
38.0516
37.9178
37.8399
37.7742
37.7354
37.7181
37.71
37.7125
37.6956
37.6985
37.6744
37.6711
37.6511
38.0458
37.8579
37.7262
37.6191
37.5728
37.5178
37.5024
37.4882
37.4909
37.5156
37.5236
37.5738
37.5786
37.6023
37.6088
37.5855
37.438
37.3521
37.2866
37.261
37.2496
37.2525
37.2678
37.2865
37.3194
37.3386
37.3927
37.4234
37.4701
37.5298
37.1732
37.0436
36.9544
36.9169
36.9028
36.9204
36.9417
36.9899
37.0313
37.085
37.1436
37.1858
37.2391
37.2927
37.3326
37.3951
36.4712
36.413
36.4038
36.4234
36.4722
36.5401
36.6128
36.695
36.7854
36.8693
36.9558
37.0364
37.1113
37.1768
37.2421
37.3052
35.6925
35.7213
35.7975
35.8899
36.0074
36.1297
36.2618
36.384
36.5213
36.6414
36.7604
36.8707
36.9806
37.0656
37.153
37.2376
34.8704
35.0034
35.1682
35.3437
35.5312
35.7152
35.9014
36.074
36.2493
36.4088
36.5605
36.7
36.8345
36.9504
37.0575
37.1635
34.0506
34.2952
34.5534
34.8141
35.0726
35.3202
35.558
35.7802
35.9921
36.1877
36.3689
36.5359
36.689
36.8308
36.9546
37.0766
33.2856
33.639
33.9896
34.3313
34.6583
34.9657
35.253
35.5195
35.7668
35.9941
36.2016
36.3918
36.5628
36.7221
36.8608
36.993
32.6391
33.0868
33.5181
33.9294
34.3158
34.6741
35.0044
35.3077
35.5858
35.8394
36.0691
36.2781
36.4647
36.6371
36.7879
36.9274
32.2159
32.7238
33.2074
33.6638
34.0891
34.4808
34.8397
35.1675
35.4664
35.7375
35.9822
36.2039
36.4013
36.5824
36.7415
36.8863
29.4437
29.2821
29.1807
29.0498
28.8901
28.6945
28.5573
28.4379
28.3978
28.3519
28.2071
28.0466
29.4273
29.2427
29.1135
29.0275
28.9237
28.7826
28.6142
28.5048
28.3866
28.3029
28.3006
28.1492
29.671
29.4254
29.2327
29.0651
28.9628
28.875
28.8201
28.6859
28.57
28.4732
28.3239
28.298
28.204
29.6879
29.4392
29.2311
29.0561
28.9183
28.8191
28.7487
28.6948
28.6099
28.5465
28.3997
28.3301
28.248
29.6453
29.4332
29.2307
29.0597
28.9077
28.784
28.6945
28.6272
28.5619
28.5591
28.4636
28.4081
28.2905
29.7935
29.5533
29.3545
29.179
29.0316
28.8979
28.7744
28.6734
28.5988
28.5171
28.506
28.4422
28.4566
28.3565
29.6593
29.433
29.2462
29.0941
28.9516
28.8537
28.7487
28.6639
28.6133
28.5125
28.4981
28.4198
28.4168
28.3772
29.4912
29.2728
29.1083
28.9852
28.8765
28.7894
28.714
28.6336
28.6145
28.5292
28.5072
28.4489
28.3999
28.3689
29.5347
29.2953
29.0985
28.9498
28.8459
28.767
28.7006
28.6628
28.6019
28.5764
28.5253
28.4974
28.4639
28.4292
28.3784
29.3222
29.0981
28.9292
28.7926
28.7025
28.6326
28.5769
28.5473
28.5198
28.5118
28.4811
28.4709
28.436
28.4234
28.3879
29.0959
28.8974
28.7554
28.629
28.5598
28.4885
28.4462
28.4142
28.3895
28.3933
28.375
28.4012
28.3894
28.3961
28.3818
28.8386
28.6638
28.5461
28.4476
28.385
28.3385
28.3058
28.2868
28.2705
28.275
28.2619
28.2875
28.291
28.3089
28.3388
28.6947
28.5168
28.3768
28.2864
28.2182
28.1832
28.1543
28.1508
28.1483
28.1529
28.1724
28.176
28.1922
28.2124
28.2249
28.2543
28.2559
28.1184
28.0278
27.9717
27.9421
27.9395
27.945
27.9633
27.9931
28.0231
28.0569
28.0893
28.1216
28.1479
28.1761
28.2021
27.7423
27.6575
27.6222
27.6119
27.6294
27.6612
27.7093
27.7541
27.8168
27.8736
27.9308
27.9834
28.0439
28.0836
28.1273
28.1701
27.1733
27.1576
27.1822
27.2281
27.2957
27.3702
27.4567
27.538
27.6284
27.7126
27.7947
27.8688
27.9467
28.0094
28.0684
28.1283
26.5819
26.6452
26.736
26.8435
26.9629
27.0845
27.2085
27.3272
27.4448
27.5552
27.6594
27.7551
27.8453
27.9279
27.9998
28.0719
26.0101
26.1541
26.314
26.4826
26.6538
26.8211
26.9826
27.1353
27.28
27.4143
27.5385
27.6524
27.7555
27.8516
27.9348
28.0147
25.5131
25.7298
25.9523
26.1751
26.3925
26.5996
26.7944
26.9759
27.1446
27.2993
27.4407
27.5692
27.6843
27.7904
27.883
27.9686
25.1862
25.4501
25.7134
25.9714
26.2191
26.4522
26.6693
26.8698
27.0545
27.223
27.3758
27.5141
27.6375
27.7503
27.8494
27.9389
22.6479
22.5435
22.4862
22.3998
22.2843
22.1437
22.0498
21.9665
21.9431
21.9165
21.7931
21.6783
22.6632
22.5392
22.4565
22.3994
22.3356
22.2295
22.1043
22.0238
21.9431
21.8782
21.8827
21.7632
22.8488
22.6845
22.5558
22.4394
22.3729
22.3088
22.2788
22.1776
22.0879
22.0219
21.901
21.891
21.8125
22.9012
22.7249
22.5802
22.453
22.3566
22.2842
22.238
22.1984
22.1342
22.0957
21.975
21.9201
21.8554
22.9072
22.7551
22.6106
22.484
22.3714
22.2775
22.2103
22.1648
22.105
22.1115
22.0394
21.9954
21.9014
23.0582
22.8806
22.7352
22.6013
22.4911
22.3883
22.2927
22.2118
22.1551
22.0843
22.0801
22.0236
22.0421
21.9623
23.0087
22.8349
22.6897
22.5717
22.4559
22.3756
22.2922
22.2182
22.1827
22.0952
22.0857
22.018
22.0193
21.982
22.9315
22.7576
22.6189
22.5176
22.4241
22.3505
22.287
22.2107
22.1992
22.1253
22.1074
22.0583
22.019
21.9865
23.0266
22.8262
22.6613
22.5309
22.4378
22.3677
22.3044
22.271
22.2128
22.1909
22.1428
22.1169
22.0849
22.0596
22.0098
22.9165
22.7193
22.5682
22.4449
22.3566
22.2936
22.2366
22.2063
22.173
22.1629
22.1314
22.1179
22.0824
22.0693
22.03
22.8021
22.6144
22.4809
22.3583
22.2842
22.2153
22.1654
22.1311
22.0969
22.0933
22.0661
22.079
22.0624
22.0634
22.0416
22.67
22.4946
22.3715
22.2661
22.1922
22.1349
22.09
22.0597
22.0293
22.023
21.9969
22.0079
22.0009
22.0045
22.0175
22.682
22.4913
22.3351
22.2253
22.1359
22.0782
22.0286
22.0012
21.9806
21.9622
21.9634
21.951
21.9493
21.9532
21.9528
21.9655
22.4226
22.2516
22.1234
22.0322
21.9645
21.926
21.8984
21.8843
21.8829
21.8852
21.8928
21.9006
21.9109
21.9183
21.9281
21.9351
22.0988
21.9556
21.8603
21.7951
21.758
21.7397
21.7416
21.7448
21.7652
21.7872
21.8114
21.832
21.8645
21.8815
21.9017
21.9209
21.7191
21.6173
21.5594
21.5294
21.5263
21.5365
21.5649
21.5939
21.6345
21.6753
21.718
21.7545
21.7994
21.833
21.8648
21.898
21.3058
21.2551
21.2412
21.2532
21.2863
21.3304
21.3853
21.4418
21.5028
21.5624
21.6213
21.6749
21.7282
21.7765
21.8183
21.8612
20.89
20.895
20.9297
20.9858
21.0567
21.135
21.2176
21.2998
21.3814
21.4591
21.5329
21.6008
21.6635
21.7221
21.7726
21.8217
20.5173
20.5749
20.6559
20.7527
20.8584
20.9671
21.0751
21.1795
21.2796
21.373
21.46
21.5394
21.6112
21.6775
21.7353
21.7888
20.2698
20.3629
20.4748
20.5983
20.7271
20.8556
20.9805
21.0995
21.2118
21.3157
21.4115
21.4984
21.5766
21.6479
21.7107
21.7673
17.8166
17.7484
17.7154
17.6569
17.5701
17.4661
17.3986
17.3411
17.3262
17.3139
17.2031
17.1206
17.8418
17.7562
17.7035
17.6634
17.6242
17.5429
17.4471
17.3857
17.3291
17.2809
17.2849
17.1899
17.9789
17.8676
17.78
17.6986
17.6548
17.6082
17.5913
17.5151
17.4427
17.3969
17.2983
17.2975
17.2321
18.0391
17.9132
17.8115
17.7181
17.6503
17.5962
17.5671
17.5378
17.4869
17.4655
17.3663
17.3221
17.2683
18.0652
17.9538
17.8507
17.7565
17.6733
17.6017
17.5508
17.522
17.4692
17.479
17.4255
17.3898
17.3137
18.2001
18.0688
17.9621
17.8602
17.7775
17.6995
17.6259
17.5621
17.5205
17.4594
17.4598
17.412
17.4298
17.3679
18.1946
18.0612
17.9494
17.8583
17.7668
17.7014
17.6363
17.5731
17.5489
17.475
17.4695
17.4119
17.4157
17.3844
18.1686
18.0316
17.9169
17.8347
17.7562
17.6948
17.6446
17.5742
17.5677
17.5061
17.4921
17.4526
17.4221
17.3921
18.2838
18.1177
17.9817
17.8697
17.7884
17.7277
17.6703
17.6426
17.5894
17.5723
17.5304
17.508
17.4799
17.4626
17.4195
18.2339
18.0633
17.9307
17.8229
17.7408
17.6855
17.6324
17.605
17.5713
17.5614
17.5336
17.521
17.4888
17.4784
17.4415
18.1838
18.0117
17.8894
17.7776
17.7044
17.6428
17.593
17.5616
17.5261
17.5204
17.4926
17.4983
17.4815
17.4817
17.4595
18.1251
17.957
17.8368
17.7341
17.6587
17.6007
17.5533
17.5217
17.4872
17.4781
17.449
17.4523
17.4429
17.4405
17.4446
18.2264
18.0353
17.8762
17.7603
17.6644
17.5975
17.541
17.5031
17.4765
17.4489
17.4421
17.4247
17.4158
17.4126
17.407
17.4121
18.0862
17.9014
17.7554
17.6477
17.5618
17.5049
17.4612
17.4311
17.4143
17.4028
17.3981
17.3946
17.3942
17.3932
17.3951
17.3938
17.8963
17.7219
17.5924
17.4964
17.4286
17.3818
17.3573
17.3383
17.3349
17.3376
17.3447
17.3486
17.3651
17.3716
17.3803
17.3874
17.6592
17.5041
17.3945
17.3173
17.2704
17.2412
17.234
17.2323
17.2434
17.2586
17.2792
17.2947
17.3203
17.3387
17.3558
17.3743
17.3877
17.2598
17.1753
17.1235
17.0997
17.0935
17.1041
17.1219
17.148
17.1767
17.2087
17.2377
17.2692
17.2982
17.3231
17.3495
17.1025
17.007
16.9527
16.93
16.9317
16.9497
16.9798
17.0164
17.0578
17.1
17.1428
17.183
17.2216
17.2582
17.2899
17.3213
16.8371
16.7754
16.7519
16.7574
16.7837
16.8238
16.8726
16.9256
16.9809
17.035
17.0878
17.1369
17.1825
17.2249
17.2623
17.2972
16.6574
16.6201
16.6184
16.6431
16.6861
16.7406
16.8019
16.8656
16.9301
16.9921
17.0515
17.1062
17.1567
17.2029
17.244
17.2813
14.2569
14.2102
14.189
14.147
14.0788
13.9983
13.9462
13.9067
13.8954
13.8927
13.7911
13.7306
14.2829
14.2201
14.1851
14.1545
14.129
14.0653
13.9889
13.9401
13.8978
13.864
13.8641
13.7875
14.3865
14.3067
14.2432
14.1842
14.1534
14.119
14.108
14.0498
13.989
13.9556
13.8742
13.8779
13.8234
14.4431
14.3491
14.2742
14.2028
14.1536
14.1112
14.0928
14.0709
14.0278
14.0172
13.9351
13.899
13.852
14.4756
14.3892
14.3125
14.2398
14.1769
14.121
14.081
14.0636
14.0177
14.0276
13.9875
13.9582
13.8946
14.5917
14.4908
14.409
14.3295
14.2648
14.2045
14.1468
14.0954
14.0657
14.0127
14.0153
13.9758
13.9908
13.9423
14.6066
14.5006
14.4122
14.3399
14.2671
14.213
14.1615
14.1075
14.0908
14.0284
14.0255
13.9766
13.981
13.956
14.6079
14.497
14.4011
14.333
14.2669
14.2144
14.1755
14.1118
14.1074
14.0561
14.0448
14.013
13.9897
13.9633
14.7302
14.5894
14.4752
14.3781
14.3066
14.2533
14.2013
14.1784
14.1301
14.1163
14.0807
14.0616
14.0373
14.0254
13.9901
14.7162
14.5666
14.4488
14.3537
14.2779
14.2284
14.1795
14.1552
14.1228
14.113
14.0893
14.0786
14.0507
14.0431
14.0108
14.704
14.5458
14.432
14.3308
14.2595
14.2045
14.1571
14.1291
14.0951
14.0883
14.0632
14.0647
14.049
14.0496
14.0298
14.689
14.5286
14.4118
14.3137
14.2394
14.1834
14.1366
14.1065
14.072
14.0625
14.0347
14.0336
14.0244
14.0202
14.0198
14.8443
14.6552
14.4967
14.3785
14.2809
14.2101
14.1519
14.1092
14.081
14.0503
14.0397
14.0218
14.0104
14.0045
13.9971
13.9985
14.784
14.5924
14.4369
14.3197
14.2245
14.157
14.1049
14.0663
14.0415
14.0227
14.0119
14.0032
13.9978
13.9931
13.9916
13.9872
14.6902
14.4967
14.3458
14.2303
14.1435
14.079
14.0378
14.0058
13.9882
13.9789
13.9765
13.9717
13.9784
13.9797
13.983
13.9842
14.5628
14.3716
14.2265
14.1169
14.0403
13.9846
13.9533
13.9321
13.9242
13.9231
13.9301
13.9335
13.9468
13.9567
13.9658
13.976
14.4081
14.2233
14.0868
13.9886
13.9238
13.8818
13.8612
13.8526
13.8552
13.8635
13.8781
13.8918
13.9096
13.9269
13.9419
13.9586
14.2358
14.0621
13.9388
13.8559
13.8056
13.779
13.771
13.7751
13.7884
13.8066
13.8287
13.851
13.8741
13.897
13.9171
13.9379
14.066
13.9078
13.801
13.7347
13.6996
13.6875
13.6921
13.7076
13.7309
13.7577
13.7871
13.8161
13.8444
13.8718
13.8962
13.9197
13.9449
13.801
13.7077
13.6537
13.6297
13.6273
13.6405
13.6635
13.6933
13.7258
13.76
13.7931
13.8251
13.8553
13.8826
13.9078
11.5528
11.5189
11.5034
11.4711
11.4157
11.3508
11.308
11.2812
11.2714
11.2745
11.1812
11.1357
11.5767
11.5279
11.5031
11.4783
11.46
11.409
11.3459
11.3062
11.2722
11.2503
11.2461
11.1829
11.6589
11.5977
11.548
11.5035
11.4798
11.454
11.4454
11.3999
11.3481
11.3217
11.2543
11.2594
11.2139
11.7088
11.6348
11.5764
11.5195
11.4821
11.4476
11.4355
11.4192
11.381
11.3765
11.3081
11.2783
11.2362
11.7421
11.6714
11.611
11.5526
11.5034
11.4585
11.4259
11.4157
11.3762
11.3848
11.3539
11.3302
11.2751
11.8429
11.7614
11.695
11.6308
11.5776
11.5295
11.4832
11.4405
11.4197
11.3736
11.3767
11.3444
11.3566
11.3171
11.8668
11.7787
11.7058
11.6461
11.5869
11.5413
11.4996
11.4528
11.4411
11.3881
11.3866
11.3451
11.3491
11.3292
11.8829
11.7895
11.7074
11.649
11.5927
11.5465
11.5162
11.4592
11.4551
11.412
11.4024
11.3762
11.3583
11.3355
12.0081
11.8846
11.7857
11.7001
11.6358
11.5883
11.5405
11.521
11.477
11.4651
11.4348
11.4183
11.397
11.3885
11.3597
12.0172
11.8827
11.7758
11.6901
11.6197
11.574
11.5284
11.5064
11.4756
11.4654
11.4449
11.4358
11.4118
11.4063
11.3787
12.0296
11.8823
11.7739
11.6811
11.6116
11.561
11.5159
11.4904
11.4585
11.4506
11.4284
11.4276
11.4127
11.4136
11.3967
12.0434
11.889
11.7741
11.6796
11.6064
11.5522
11.5064
11.4781
11.4448
11.4349
11.4098
11.4059
11.3971
11.3928
11.39
12.2352
12.0472
11.8892
11.7691
11.6709
11.5975
11.539
11.4936
11.4648
11.4334
11.4205
11.4031
11.3911
11.3842
11.3763
11.3756
12.231
12.0344
11.8724
11.7481
11.6469
11.5723
11.5148
11.4708
11.4412
11.4179
11.4034
11.3919
11.3839
11.3772
11.3741
11.3688
12.2087
12.0014
11.8351
11.7051
11.6049
11.528
11.4747
11.4338
11.4069
11.3894
11.3806
11.3707
11.3709
11.3689
11.3693
11.3674
12.1686
11.9501
11.7781
11.644
11.545
11.4698
11.4204
11.3849
11.3636
11.3508
11.3481
11.3438
11.3486
11.3528
11.3571
11.3621
12.1125
11.8826
11.705
11.5701
11.4729
11.4033
11.3585
11.3299
11.315
11.3084
11.3103
11.3135
11.3215
11.331
11.3394
11.3496
12.0403
11.8019
11.6218
11.4895
11.3969
11.3345
11.2963
11.2751
11.267
11.267
11.2738
11.2832
11.2951
11.3085
11.3208
11.3342
11.9559
11.7164
11.5393
11.4129
11.3271
11.2722
11.2412
11.2269
11.2253
11.2311
11.2429
11.257
11.2728
11.2894
11.3049
11.3205
11.885
11.6509
11.48
11.36
11.2802
11.2311
11.2052
11.1957
11.1983
11.208
11.223
11.24
11.2584
11.2771
11.2946
11.3115
9.44718
9.42124
9.40905
9.3827
9.33699
9.28299
9.24617
9.22831
9.21947
9.22557
9.14047
9.10546
9.46847
9.42896
9.41028
9.38955
9.37516
9.33385
9.28036
9.24763
9.21854
9.2059
9.19841
9.14504
9.5369
9.48725
9.44606
9.4113
9.3918
9.37221
9.36469
9.32825
9.28392
9.26137
9.20563
9.21047
9.17236
9.5803
9.51955
9.47165
9.42499
9.39539
9.36659
9.35813
9.34613
9.31174
9.31018
9.25283
9.22822
9.19016
9.61281
9.55259
9.50275
9.45395
9.41425
9.37744
9.35006
9.34452
9.31061
9.31749
9.29284
9.27411
9.22523
9.70239
9.63368
9.57713
9.52358
9.47808
9.43833
9.4004
9.36389
9.34947
9.30979
9.31233
9.28588
9.29583
9.26255
9.73055
9.65445
9.59202
9.54094
9.49139
9.45229
9.41779
9.37654
9.36809
9.32281
9.32194
9.28671
9.28982
9.27378
9.75544
9.67365
9.60156
9.54998
9.50137
9.45976
9.43546
9.38504
9.38043
9.34367
9.33514
9.31289
9.29905
9.27936
9.88273
9.77098
9.68242
9.6054
9.54665
9.50352
9.45902
9.44182
9.40185
9.39062
9.36457
9.35009
9.33108
9.32437
9.30071
9.90842
9.78434
9.68527
9.60613
9.54011
9.49698
9.45389
9.43329
9.40422
9.39329
9.37486
9.36692
9.34589
9.34186
9.31835
9.93894
9.79972
9.69451
9.60756
9.53937
9.49143
9.44805
9.42395
9.39414
9.38505
9.36514
9.36286
9.34859
9.34943
9.33498
9.97419
9.82379
9.70926
9.61694
9.54408
9.49103
9.44578
9.41849
9.38649
9.37603
9.3535
9.34779
9.33909
9.33515
9.33098
10.1943
10.0058
9.84734
9.72463
9.6253
9.54945
9.49062
9.44329
9.41374
9.38235
9.36763
9.35082
9.33871
9.33112
9.32342
9.32117
10.2324
10.0303
9.86256
9.73175
9.62559
9.54514
9.48339
9.43524
9.40213
9.37561
9.35837
9.345
9.33534
9.32738
9.32311
9.31747
10.2657
10.0463
9.86714
9.72518
9.61396
9.52728
9.46457
9.41651
9.38277
9.35888
9.34504
9.33182
9.32734
9.32274
9.32112
9.31737
10.2973
10.0557
9.86132
9.70694
9.58949
9.49861
9.43462
9.38755
9.3559
9.33405
9.32367
9.31377
9.31217
9.31196
9.31281
9.3142
10.3265
10.0582
9.84546
9.67952
9.55524
9.46255
9.39787
9.35279
9.32397
9.30551
9.29733
9.29245
9.29301
9.29636
9.29994
9.3054
10.3437
10.0492
9.81972
9.64487
9.51596
9.42311
9.35943
9.31714
9.29151
9.27687
9.27133
9.2706
9.27381
9.27987
9.2861
9.29406
10.3348
10.0245
9.78606
9.6074
9.47755
9.38611
9.32472
9.28549
9.26308
9.25185
9.24924
9.25158
9.25744
9.26568
9.27422
9.28374
10.3061
9.99368
9.75525
9.57789
9.44996
9.3608
9.30177
9.26492
9.24482
9.2358
9.23523
9.23943
9.24703
9.25663
9.26664
9.27707
7.77551
7.7549
7.74487
7.72248
7.68441
7.63844
7.60599
7.59417
7.58635
7.59336
7.5166
7.48886
7.79444
7.76155
7.74673
7.7293
7.71707
7.68318
7.63694
7.60978
7.58392
7.57808
7.56855
7.52257
7.85382
7.81186
7.77631
7.74836
7.73161
7.7164
7.7096
7.67956
7.64174
7.62139
7.57531
7.57924
7.54687
7.8919
7.84038
7.79957
7.76035
7.73601
7.71173
7.70524
7.69657
7.66557
7.665
7.61663
7.59614
7.56165
7.92315
7.8706
7.82781
7.78591
7.75291
7.72216
7.6987
7.69601
7.66694
7.6722
7.65177
7.63721
7.59323
8.00493
7.94497
7.89503
7.84914
7.80914
7.77514
7.74343
7.71146
7.70145
7.66748
7.66922
7.64726
7.65576
7.62662
8.03558
7.96774
7.91244
7.86745
7.82476
7.79052
7.76141
7.72454
7.71813
7.67929
7.67858
7.64856
7.65089
7.63743
8.06644
7.99233
7.92752
7.88058
7.83788
7.79984
7.77958
7.73508
7.72984
7.69798
7.69017
7.67071
7.65984
7.64274
8.19612
8.09215
8.01036
7.93968
7.8849
7.8452
7.80338
7.78758
7.75122
7.74015
7.71728
7.7044
7.68711
7.68146
7.66146
8.23489
8.11755
8.02371
7.94906
7.88634
7.84501
7.80369
7.78388
7.75637
7.74473
7.72763
7.72034
7.70162
7.69847
7.6782
8.28004
8.14607
8.04243
7.95907
7.89185
7.84525
7.80301
7.7795
7.75143
7.74113
7.72282
7.71957
7.70576
7.70623
7.6936
8.33282
8.18438
8.06893
7.97727
7.90408
7.8512
7.80605
7.77902
7.74821
7.73679
7.71634
7.7095
7.70054
7.69693
7.69202
8.57784
8.38676
8.22633
8.1001
7.99883
7.9202
7.8604
7.81137
7.78067
7.74937
7.73315
7.71658
7.70449
7.69634
7.68894
7.68554
8.6502
8.44107
8.26688
8.12922
8.01801
7.93214
7.86651
7.81473
7.77862
7.74955
7.73005