/*--------------------------------*- C++ -*----------------------------------*\
  =========                 |
  \\      /  F ield         | OpenFOAM: The Open Source CFD Toolbox
   \\    /   O peration     | Website:  https://openfoam.org
    \\  /    A nd           | Version:  6
     \\/     M anipulation  |
\*---------------------------------------------------------------------------*/
FoamFile
{
    version     2.0;
    format      ascii;
    class       volScalarField;
    location    "8";
    object      yPlus;
}
// * * * * * * * * * * * * * * * * * * * * * * * * * * * * * * * * * * * * * //

dimensions      [0 0 0 0 0 0 0];

internalField   uniform 0;

boundaryField
{
    inlet
    {
        type            calculated;
        value           uniform 0;
    }
    outlet
    {
        type            calculated;
        value           uniform 0;
    }
    roughCylinder
    {
        type            calculated;
        value           nonuniform List<scalar> 
3840
(
6.06633
27.3138
38.6407
41.7504
44.6233
45.1771
45.903
45.7857
45.7871
45.3492
45.2426
45.8533
46.004
44.8308
44.0685
43.2022
41.8166
42.3592
43.0865
41.9627
41.4083
41.4384
40.6716
40.2257
11.7729
26.3795
38.2311
41.4131
44.3056
44.8764
45.7465
45.5118
45.8231
45.4963
45.4859
45.9188
45.8825
44.8729
44.2419
43.4031
42.2758
42.8546
43.2279
42.4031
41.7446
41.7295
41.0537
40.669
9.39171
26.1988
37.6515
41.1297
44.0373
44.765
45.5207
45.5773
45.7314
45.2917
45.2907
45.843
45.7901
44.8547
44.3401
43.468
42.603
43.2381
43.471
43.0298
42.3226
42.2736
41.6466
41.2835
9.24058
24.861
37.2032
40.8115
43.7747
44.5004
45.481
45.3778
45.7714
45.5342
45.6688
46.0043
45.7978
45.0457
44.6419
43.7907
43.1727
43.8043
43.7245
43.4592
42.7182
42.6442
42.1077
41.7986
12.655
24.732
36.5188
40.5131
43.5169
44.5063
45.3184
45.5425
45.8295
45.4818
45.5587
45.9633
45.839
45.1583
44.8513
43.9757
43.592
44.2567
44.0907
44.0592
43.3478
43.2588
42.7584
42.4635
1.06769
22.8413
35.9172
40.1303
43.2935
44.253
45.3827
45.4264
45.8786
45.7944
46.0443
46.252
45.9928
45.4382
45.231
44.3944
44.2132
44.8632
44.4465
44.4638
43.7958
43.6888
43.2709
43.0234
9.4519
22.7581
34.98
39.7116
42.948
44.3251
45.2447
45.6381
46.0528
45.8536
45.9851
46.2425
46.1235
45.6071
45.4851
44.664
44.6616
45.3399
44.892
45.0506
44.4712
44.3534
43.9575
43.721
6.26373
20.1677
34.0559
39.0822
42.6762
43.9868
45.3401
45.5668
46.0812
46.1653
46.5133
46.6344
46.3834
45.9373
45.8945
45.16
45.2966
45.9458
45.3028
45.4456
44.9559
44.8161
44.4915
44.3007
7.36408
19.824
32.6346
38.3858
42.0696
44.0203
45.1422
45.7513
46.3067
46.2677
46.4467
46.6134
46.5505
46.1391
46.1526
45.4886
45.7345
46.4004
45.7802
46.0266
45.6531
45.5018
45.1845
45.0044
11.2416
16.4529
31.2054
37.2269
41.6046
43.4477
45.1723
45.6526
46.255
46.5034
46.9557
47.0643
46.874
46.5109
46.5628
46.0294
46.3525
46.9626
46.1972
46.3953
46.1263
45.9488
45.6927
45.5591
12.2663
15.5792
28.9563
36.0518
40.4657
43.3035
44.7841
45.7144
46.4547
46.581
46.8237
46.978
47.0241
46.7195
46.7893
46.3587
46.7316
47.3408
46.656
46.9426
46.7968
46.6105
46.3513
46.228
13.4855
10.6277
26.7668
33.8844
39.5978
42.2461
44.6324
45.4954
46.2422
46.6734
47.2616
47.4448
47.366
47.1014
47.174
46.8867
47.2966
47.8205
47.0296
47.2329
47.1813
46.967
46.7622
46.6842
14.3335
11.2217
23.1768
31.9711
37.4034
41.7235
43.8251
45.3019
46.3486
46.6629
46.9946
47.2165
47.4205
47.2492
47.3219
47.1348
47.5495
48.0536
47.4056
47.6846
47.7514
47.5367
47.3255
47.2552
16.1903
12.2327
19.9103
27.7486
35.8073
39.6451
43.3059
44.8215
45.8689
46.5559
47.3189
47.6428
47.7036
47.5617
47.6337
47.5729
48.0022
48.4085
47.668
47.8341
47.9787
47.7392
47.5857
47.5595
16.6649
4.88182
13.4298
24.7386
31.1482
38.4073
41.5836
44.1133
45.7762
46.4007
46.8647
47.1974
47.5678
47.5431
47.6336
47.6637
48.0817
48.4578
47.9311
48.1706
48.4199
48.193
48.0351
48.0086
17.5346
10.3067
4.39718
13.9195
28.3277
33.7198
40.3197
43.0622
44.781
45.9789
47.0398
47.5582
47.7556
47.746
47.8578
47.9902
48.4079
48.6713
48.0408
48.1027
48.3575
48.1092
48.0102
48.0122
16.9044
2.75493
3.15724
12.4702
11.6569
31.0523
36.2281
41.2547
44.2388
45.4705
46.2093
46.7305
47.3062
47.4695
47.6383
47.8209
48.1648
48.3653
48.0505
48.2392
48.5667
48.3503
48.2527
48.2433
15.901
12.4449
11.1563
11.5656
6.46744
11.848
33.2753
38.794
42.1169
44.4114
46.0685
46.9106
47.2615
47.4274
47.6618
47.9314
48.2666
48.3544
47.874
47.7131
47.8476
47.5618
47.4864
47.4509
14.0666
6.11785
7.45176
12.0133
12.2722
13.7982
17.5125
34.2595
40.5915
43.0511
44.3302
45.2112
46.1166
46.5573
46.8841
47.1289
47.2504
47.1576
47.1209
47.274
47.4268
47.2209
47.1549
47.0972
11.7404
11.6073
4.16517
4.55547
9.03358
7.9271
6.28023
27.4685
35.5405
40.5153
43.4969
44.8997
45.4554
45.8598
46.2953
46.6332
46.76
46.5699
46.1747
45.4684
44.8483
44.332
44.0636
43.7534
11.663
9.09804
2.62558
13.0691
10.105
13.5189
13.4028
13.4265
32.3515
36.8932
39.1208
40.8225
42.4745
43.4119
43.9137
44.0049
43.4623
42.5885
42.9506
43.0735
42.4845
42.1854
41.9313
41.6261
10.3177
7.9931
10.065
9.54114
14.8156
13.9348
13.598
13.7446
9.19323
28.5912
36.265
39.1979
40.0304
40.7278
41.3574
41.5967
41.2166
40.38
39.0066
35.6526
30.2946
26.4089
21.4523
15.5153
7.89817
6.87398
6.2186
15.9405
19.8746
15.2363
13.7342
14.5903
14.3305
12.5716
17.2789
20.9583
28.1823
31.2272
31.4451
29.5114
23.8045
11.587
18.2636
12.6303
5.43055
10.1738
13.8597
8.67586
5.69943
11.2627
1.99001
13.3423
21.5683
24.7114
24.3653
12.9903
10.1035
11.1947
15.4995
15.6779
8.58186
14.99
15.2285
6.11322
7.85896
12.167
14.8677
17.2503
11.7043
16.7859
4.72474
12.5496
11.4003
14.8252
11.5407
13.4337
19.6815
24.3153
25.6504
23.6126
15.6741
13.1833
8.28081
17.6145
14.7501
17.3659
17.0545
11.2248
17.8503
10.8207
17.3941
11.6745
13.7277
18.7014
20.873
20.8829
13.5759
19.2367
19.69
20.1524
22.7063
25.7121
26.8229
24.0307
23.1224
25.3453
26.0458
24.4097
21.0793
17.8384
15.1778
15.3308
18.2882
21.5732
24.8886
26.3904
27.7569
27.6486
26.9001
26.1782
13.535
21.1301
23.5352
24.8009
25.9678
27.032
26.5169
24.2445
23.8876
24.7868
26.1604
27.0601
27.6674
27.608
27.5501
27.4694
27.5876
27.7431
27.3289
28.3562
28.2428
28.2375
27.0949
25.6729
11.6584
20.7068
24.0355
25.8898
26.7471
26.6364
24.9532
21.7282
19.6303
19.4736
22.596
25.7041
27.7069
28.1054
27.8811
27.7252
27.8759
28.162
28.0132
28.3272
27.8768
26.8662
24.0337
20.6968
8.44609
18.252
22.2666
24.5791
25.4943
24.9374
22.5508
18.8557
15.9032
11.3017
7.08294
13.4034
21.1689
25.1202
26.7911
27.1733
26.8968
26.1984
24.9176
24.5383
24.0151
23.2454
20.1205
16.6265
5.16416
14.0275
18.4437
21.2587
22.5116
22.1725
20.4176
19.0325
17.8112
17.1405
18.6362
19.4827
19.2445
20.6681
22.4738
23.5337
23.8313
23.657
23.063
23.027
22.9653
22.2034
19.4363
17.3289
3.93568
11.5446
14.9381
17.7222
19.2509
19.5766
19.3138
18.9162
15.9329
11.578
6.36035
13.1662
19.3184
22.1358
23.318
23.7935
23.7671
23.2341
22.293
21.7069
21.0346
20.0355
17.9459
15.9248
3.89409
11.4462
13.6088
15.8923
17.548
18.5156
19.0477
18.1085
14.4132
12.6268
16.4831
17.1802
17.5142
19.5856
21.4195
22.2015
22.0443
21.3469
20.6933
20.4089
20.067
19.2879
17.5571
16.0548
3.43252
10.4894
13.0384
15.58
17.5911
18.968
19.4482
17.2397
13.3377
12.7476
12.9445
15.791
18.5756
20.164
21.1407
21.5941
21.5267
21.1118
20.6756
20.4391
20.1349
19.3267
17.678
16.1728
3.38515
9.77499
12.7066
15.6385
17.9663
19.3569
18.8249
14.922
12.2739
13.8511
17.2773
18.7403
19.3375
20.2616
21.1745
21.6549
21.6178
21.2537
20.9507
20.8254
20.5879
19.7912
18.1536
16.7594
3.42628
9.64178
12.625
15.6177
17.8677
18.5501
15.8387
12.1399
13.3912
16.6589
18.331
19.4743
20.4487
21.1393
21.6897
22.0059
21.9904
21.7696
21.5966
21.541
21.323
20.4762
18.7812
17.3645
3.91211
10.404
13.0833
15.64
16.8192
15.261
11.6109
12.8021
16.7381
19.5778
21.3417
21.9822
21.9857
22.0514
22.3173
22.5505
22.5719
22.4592
22.432
22.4977
22.3418
21.4782
19.7297
18.3127
3.41369
10.3826
12.7657
14.2473
13.1806
11.5452
12.4096
16.9378
20.5947
22.7326
23.5978
23.753
23.5531
23.2877
23.2247
23.3071
23.3695
23.4309
23.6026
23.8171
23.7331
22.8522
21.049
19.5885
2.00225
8.16505
11.5038
11.6541
11.4799
12.1057
17.2797
21.4759
23.9655
25.3925
26.1066
26.068
25.4371
24.7314
24.3609
24.3313
24.4617
24.7075
25.094
25.4772
25.481
24.6004
22.7611
21.2636
1.26476
6.04851
9.01173
11.4402
12.2661
17.9201
22.1946
24.8281
26.6962
27.9375
28.4127
28.1585
27.3383
26.3575
25.7308
25.6108
25.8395
26.3054
26.9313
27.4932
27.5889
26.7203
24.8675
23.3367
1.70289
7.06453
11.5051
13.1852
18.7424
22.7183
25.3492
27.539
29.2534
30.328
30.7276
30.389
29.3862
28.1501
27.3152
27.1556
27.5218
28.2245
29.0891
29.8228
30.0072
29.163
27.3222
25.7762
2.73453
3.23973
3.851
5.54426
8.99172
11.5183
12.2399
13.6206
13.6397
13.8481
13.6162
13.3096
12.9865
12.6855
12.4004
12.1417
11.9389
11.7913
11.6837
11.6242
11.6523
11.7533
11.8909
12.0903
12.3527
12.6657
12.9993
13.361
13.8007
14.0451
14.2
14.0254
13.8503
13.0916
11.4911
9.85616
6.07627
4.05465
3.23465
3.06456
9.98518
12.1154
15.1739
17.754
19.169
20.1641
20.6119
20.9932
21.0735
21.2064
21.2122
21.234
21.2236
21.2138
21.1806
21.131
21.0857
21.043
21.0132
21.0005
21.0058
21.0342
21.0848
21.1441
21.2097
21.273
21.3118
21.3376
21.3785
21.3738
21.382
21.2969
21.1971
20.9389
20.4735
19.6347
18.2292
16.057
12.6348
11.2302
12.6924
17.3409
20.0376
21.4161
22.3476
23.0395
23.4612
23.8043
24.019
24.2186
24.3548
24.4785
24.5625
24.6413
24.7062
24.7558
24.7896
24.8082
24.8216
24.8299
24.8329
24.8346
24.8363
24.8294
24.809
24.7756
24.73
24.6769
24.6119
24.51
24.3988
24.2368
24.0456
23.7641
23.3722
22.7831
21.8735
20.6482
18.3793
13.9177
17.6157
21.1568
22.6587
23.8552
24.7512
25.4504
25.98
26.4044
26.7376
27.0253
27.2624
27.482
27.6775
27.8629
28.0416
28.2051
28.3367
28.4328
28.5003
28.533
28.5329
28.5001
28.4365
28.3442
28.2204
28.0747
27.9274
27.7722
27.6061
27.42
27.2133
26.9612
26.6638
26.2903
25.8094
25.1812
24.3528
23.2321
21.8451
19.1127
21.7468
23.6392
25.0594
26.2131
27.1129
27.8474
28.4318
28.9114
29.3126
29.6677
29.9872
30.2915
30.5854
30.8624
31.1207
31.3511
31.5357
31.662
31.7499
31.7942
31.7931
31.7466
31.6628
31.53
31.3484
31.1329
30.8991
30.6502
30.3953
30.132
29.8509
29.5368
29.1766
28.7435
28.2115
27.5448
26.7035
25.6587
24.2659
22.6634
24.4686
26.0324
27.4204
28.474
29.3655
30.0868
30.6886
31.1987
31.6487
32.0611
32.4482
32.8141
33.1645
33.4992
33.812
34.0871
34.2928
34.3898
34.4346
34.4619
34.4661
34.4473
34.4199
34.2862
34.0716
33.8075
33.5177
33.2129
32.8984
32.5702
32.2254
31.8588
31.4541
30.9919
30.441
29.7818
28.9509
27.9811
26.6822
25.1898
26.8618
28.3078
29.5533
30.527
31.3713
32.0632
32.6658
33.1943
33.6752
34.1175
34.5353
34.9346
35.3194
35.6883
36.0304
36.316
36.4589
36.5226
36.5784
36.6107
36.6143
36.5886
36.5439
36.5024
36.2991
36.0142
35.692
35.3522
35.0017
34.6398
34.2621
33.8614
33.4252
32.9462
32.3948
31.7598
30.9756
30.0714
28.9082
27.5603
28.9787
30.2322
31.3582
32.2445
33.0313
33.6909
34.283
34.8061
35.2885
35.7384
36.1679
36.5823
36.9844
37.3717
37.7333
38.0382
38.1949
38.2713
38.3352
38.3718
38.3748
38.3433
38.2863
38.2355
38.013
37.7075
37.3643
37.004
36.6341
36.255
35.8628
35.4519
35.0105
34.5311
33.9869
33.3815
32.6509
31.8293
30.7668
29.6117
30.6206
31.7033
32.7269
33.5304
34.2666
34.888
35.4521
35.9587
36.4324
36.8796
37.3107
37.7293
38.1376
38.5334
38.9093
39.2487
39.5169
39.6431
39.6956
39.7302
39.7338
39.7073
39.6678
39.489
39.2098
38.8784
38.5209
38.15
37.7706
37.3837
36.986
36.5736
36.1361
35.6684
35.1457
34.5708
33.8856
33.1404
32.1719
31.1654
31.6916
32.6288
33.5773
34.3147
35.0035
35.5874
36.1282
36.6196
37.0848
37.5274
37.9556
38.3716
38.7762
39.1668
39.5374
39.8774
40.1706
40.3959
40.55
40.6253
40.6208
40.534
40.3701
40.136
39.844
39.5138
39.1595
38.79
38.4098
38.0205
37.6205
37.2075
36.7728
36.314
35.8076
35.2624
34.6146
33.9262
33.0248
32.1445
32.1059
32.9489
33.8452
34.531
35.1884
35.7509
36.2802
36.7655
37.2281
37.6685
38.0935
38.5032
38.8974
39.2724
39.6226
39.9393
40.2112
40.426
40.5731
40.6473
40.6448
40.5641
40.4102
40.193
39.9243
39.6164
39.2795
38.9213
38.5466
38.1579
37.7551
37.3379
36.8992
36.4391
35.9357
35.4022
34.7752
34.1236
33.2615
32.454
31.8297
32.6108
33.4742
34.1357
34.7829
35.3444
35.8783
36.3708
36.8405
37.2859
37.7121
38.1181
38.5026
38.862
39.191
39.4827
39.7292
39.9222
40.0545
40.1231
40.124
40.0558
39.9229
39.7318
39.4904
39.207
38.8891
38.5429
38.1729
37.7826
37.3722
36.9427
36.4887
36.0121
35.4932
34.9477
34.3156
33.6662
32.8151
32.0438
30.9151
31.6112
32.4554
33.1216
33.7932
34.3825
34.9442
35.464
35.9583
36.424
36.8649
37.2795
37.6664
38.0221
38.3421
38.6213
38.854
39.0346
39.1587
39.2245
39.2287
39.1698
39.0509
38.8765
38.6514
38.3811
38.0709
37.7258
37.3494
36.9446
36.5123
36.0534
35.5631
35.045
34.4782
33.8813
33.201
32.5263
31.6718
30.9626
29.7074
30.2838
31.0879
31.7516
32.4568
33.1049
33.739
34.3319
34.8908
35.4099
35.8951
36.3455
36.7601
37.1361
37.4701
37.758
37.9958
38.1795
38.3061
38.3747
38.3819
38.3262
38.2104
38.0375
37.8105
37.5333
37.2094
36.8423
36.4345
35.9881
35.5024
34.9759
34.4028
33.7926
33.1372
32.4655
31.7318
31.0393
30.2022
29.5936
28.8212
29.3107
30.0951
30.7858
31.5493
32.2835
33.0162
33.7166
34.3832
35.003
35.5721
36.0924
36.5652
36.9886
37.3605
37.6781
37.9386
38.1393
38.278
38.3544
38.3647
38.3072
38.1851
38.0006
37.7557
37.4525
37.0935
36.6804
36.2144
35.6951
35.119
34.4868
33.802
33.078
32.3145
31.5449
30.7388
30.0052
29.173
28.6406
28.6216
29.1512
30.0118
30.8163
31.7027
32.5732
33.4386
34.2671
35.0499
35.7727
36.4316
37.0283
37.5652
38.0412
38.4557
38.8068
39.093
39.3127
39.4647
39.5489
39.5614
39.5007
39.37
39.171
38.9049
38.5729
38.1761
37.7153
37.1905
36.6011
35.9426
35.2123
34.4151
33.5658
32.6714
31.766
30.8359
29.9859
29.073
28.496
29.0421
29.7363
30.7624
31.7431
32.7885
33.8083
34.8015
35.7379
36.6058
37.3958
38.1124
38.759
39.3366
39.8456
40.286
40.6571
40.9582
41.1884
41.3471
41.4348
41.4477
41.3843
41.2476
41.0391
40.7595
40.4093
39.9891
39.4986
38.9375
38.3043
37.5962
36.8083
35.9356
34.9884
33.9768
32.9322
31.8529
30.8346
29.7623
29.0241
29.8796
30.7831
31.9912
33.1387
34.3172
35.4456
36.5188
37.5105
38.414
39.234
39.9765
40.6438
41.2378
41.7595
42.2093
42.5872
42.8928
43.1257
43.2856
43.3731
43.385
43.3196
43.1796
42.9664
42.6805
42.3224
41.8919
41.3888
40.8121
40.1602
39.4303
38.6185
37.7167
36.7225
35.6423
34.5023
33.3042
32.134
30.8929
29.9578
30.9171
31.9938
33.3393
34.5969
35.8534
37.0353
38.1389
39.1457
40.0612
40.8926
41.6446
42.3199
42.9205
43.4476
43.9016
44.2827
44.5904
44.8242
44.9838
45.0701
45.0805
45.0132
44.8705
44.6535
44.3628
43.9988
43.5617
43.0512
42.4664
41.806
41.0671
40.2464
39.3366
38.3298
37.2226
36.035
34.7676
33.4974
32.1301
31.0335
31.8354
33.0148
34.4371
35.7499
37.0413
38.2429
39.3547
40.3667
41.2901
42.1309
42.8929
43.5785
44.1893
44.7258
45.1883
45.5765
45.8896
46.1269
46.2877
46.3732
46.3819
46.3122
46.165
45.9413
45.6421
45.2679
44.8193
44.2963
43.6987
43.0253
42.2744
41.4423
40.5246
39.513
38.3942
37.1833
35.8786
34.5522
33.1086
31.9098
32.1359
33.3786
34.8516
36.2053
37.5295
38.7573
39.8911
40.927
41.8764
42.7435
43.5317
44.2428
44.8776
45.4362
45.9182
46.3227
46.6488
46.895
47.0605
47.1465
47.1539
47.0808
46.9262
46.6911
46.3765
45.9835
45.513
44.9656
44.3416
43.6406
42.8611
42.0007
41.0551
40.0178
38.875
37.6361
36.2971
34.9286
33.4333
32.1707
31.4263
32.7407
34.2823
35.7051
37.0961
38.3876
39.5818
40.6759
41.6812
42.6014
43.4396
44.1969
44.8739
45.47
45.9844
46.4159
46.7629
47.0239
47.1977
47.2854
47.2913
47.2133
47.0477
46.7951
46.4568
46.0341
45.5283
44.9405
44.2712
43.5203
42.6872
41.7695
40.7633
39.6621
38.4521
37.1421
35.7289
34.2838
32.714
31.3738
29.7046
31.142
32.8011
34.3464
35.8545
37.2574
38.5543
39.7408
40.8295
41.8255
42.7319
43.5503
44.2812
44.9244
45.4788
45.943
46.3153
46.5941
46.778
46.8686
46.8734
46.7905
46.6129
46.341
45.9758
45.5189
44.9716
44.335
43.6099
42.796
41.8925
40.8963
39.8033
38.605
37.2862
35.8585
34.3234
32.7521
31.0624
29.5963
28.2301
29.7469
31.4821
33.1111
34.7016
36.1855
37.5578
38.812
39.9615
41.012
41.9671
42.8287
43.5975
44.273
44.8547
45.3409
45.7301
46.0206
46.211
46.3029
46.3069
46.2209
46.0357
45.7509
45.3676
44.8874
44.3117
43.6414
42.8771
42.0186
41.0644
40.0115
38.855
37.5845
36.1862
34.6748
33.0548
31.3963
29.6266
28.0772
12.7902
27.6005
38.7508
41.9043
44.6861
45.082
45.6237
45.4387
45.6997
45.653
45.4854
45.1236
44.9138
44.9309
44.6476
43.6111
43.9288
44.7594
42.0069
42.8086
41.5085
41.5901
40.8817
40.2201
16.1033
26.5493
38.3803
41.622
44.4766
44.8984
45.5594
45.2422
45.7543
45.8001
45.7256
45.1487
44.9623
45.121
44.6816
43.9245
44.2774
44.9744
42.1687
42.9334
41.8468
41.8817
41.2501
40.6597
15.8778
26.5605
37.8288
41.4022
44.241
44.8487
45.4279
45.4044
45.7168
45.6498
45.4297
45.0397
45.023
45.171
44.6441
44.128
44.5026
45.0717
42.5152
43.2685
42.4506
42.4087
41.826
41.2624
12.337
25.0903
37.3371
41.0443
43.9914
44.6225
45.4217
45.2281
45.7645
45.846
45.7994
45.2676
45.2135
45.4418
44.8585
44.5667
44.9517
45.3422
42.8277
43.4387
42.8663
42.7732
42.2729
41.7774
8.79358
24.7411
36.6412
40.7266
43.6918
44.5926
45.2545
45.4304
45.8467
45.8058
45.593
45.2532
45.382
45.5688
44.9851
44.8587
45.2458
45.51
43.2954
43.8223
43.5336
43.3585
42.9084
42.4323
5.925
23.2526
35.9331
40.2292
43.3782
44.2795
45.2993
45.2964
45.8864
46.0217
46.0604
45.6451
45.6681
45.8884
45.3337
45.3457
45.7318
45.8608
43.7047
44.0482
43.9939
43.7709
43.4056
42.9938
13.6467
22.0895
34.9497
39.7442
42.968
44.291
45.1067
45.5163
46.0604
46.0689
45.9216
45.6782
45.8802
46.0534
45.5601
45.656
46.0386
46.1062
44.2427
44.4983
44.6914
44.3939
44.0785
43.6809
10.9538
21.0277
33.9576
39.0237
42.5815
43.8515
45.1826
45.4247
46.0748
46.2731
46.4413
46.1805
46.2234
46.3973
45.9807
46.1441
46.5314
46.5373
44.7157
44.808
45.1593
44.8302
44.5961
44.26
11.2843
18.2313
32.495
38.2599
41.9578
43.8931
44.9464
45.6172
46.2943
46.3773
46.333
46.2074
46.4384
46.577
46.2475
46.4377
46.8273
46.8397
45.295
45.3426
45.8506
45.4674
45.2767
44.9509
11.385
18.3646
31.0921
37.1399
41.4342
43.2247
44.9855
45.5159
46.2371
46.5268
46.8586
46.7661
46.8054
46.9252
46.6825
46.9021
47.3085
47.3129
45.7911
45.7211
46.2751
45.8874
45.7667
45.5009
12.5549
12.9139
28.9034
35.9054
40.3752
43.2181
44.6148
45.5979
46.4342
46.64
46.7264
46.7245
46.977
47.0837
46.9261
47.1481
47.5578
47.6083
46.3601
46.3002
46.9168
46.5033
46.4128
46.156
13.2091
14.896
26.7729
34.0229
39.5493
42.0804
44.4965
45.3912
46.2311
46.6661
47.1976
47.2834
47.3266
47.4047
47.3244
47.5665
47.9964
48.0577
46.812
46.6705
47.2335
46.843
46.8021
46.6056
13.384
6.74949
23.6347
31.9908
37.5694
41.8676
43.7851
45.2415
46.3307
46.7222
46.9529
47.0805
47.3816
47.4831
47.4802
47.7179
48.1329
48.2465
47.283
47.1947
47.7689
47.3793
47.3517
47.1662
15.8822
14.6698
19.95
28.5836
36.1196
39.6932
43.3043
44.7663
45.8769
46.5437
47.3031
47.571
47.6449
47.7205
47.7844
48.0414
48.4672
48.5786
47.5931
47.4437
47.924
47.5837
47.586
47.4649
16.6959
11.5939
15.7864
25.1347
31.9305
38.9973
41.7687
44.1371
45.7526
46.4751
46.8772
47.1241
47.502
47.6401
47.7788
48.0389
48.4354
48.584
47.914
47.8481
48.3422
48.0225
48.0194
47.9125
17.5462
6.38709
2.49195
17.7367
29.3352
34.1186
40.522
43.062
44.7883
45.9354
47.041
47.5265
47.6597
47.7797
47.9766
48.2475
48.6408
48.7433
47.9981
47.8696
48.2226
47.9627
47.9574
47.9153
16.8433
3.68947
11.1107
5.23827
16.0053
32.4939
36.7336
41.3411
44.1701
45.5281
46.2254
46.6556
47.2103
47.462
47.7252
47.9668
48.2629
48.3609
48.0253
48.0055
48.4381
48.2113
48.1824
48.16
16.1406
10.3809
8.62901
11.9328
8.22638
12.5737
33.7074
38.886
42.0572
44.2366
45.997
46.8755
47.1438
47.3928
47.7026
47.9535
48.244
48.2247
47.6649
47.5206
47.679
47.4731
47.3566
47.3667
15.0516
7.90481
11.6446
11.3585
12.3784
8.3103
18.9477
34.1475
40.4059
43.0305
44.2699
45.0401
45.9965
46.4798
46.8225
46.9946
47.0226
46.8812
46.9323
46.9428
47.3219
47.1652
47.012
47.0525
11.7867
1.72426
8.23537
5.31712
9.62747
12.7631
16.0012
28.4579
35.2235
39.9692
43.1608
44.8338
45.3361
45.7959
46.1606
46.3815
46.4265
46.0727
45.4663
45.1245
44.7071
44.3556
43.8113
43.6743
11.4208
10.966
1.06744
10.98
6.77518
13.0586
12.5676
5.9205
32.0378
36.7523
38.8805
40.3244
42.2843
43.1954
43.4771
43.5016
42.6954
41.8323
42.365
42.3487
42.5193
42.271
41.7208
41.6601
10.7146
7.18663
12.0163
9.81886
14.859
8.87532
13.5916
13.1382
6.60347
26.3294
35.1873
39.1435
39.9004
40.5905
40.8347
41.0526
40.4653
39.2299
37.1224
34.8077
30.2544
26.5553
20.565
14.2677
9.25575
1.57804
12.5381
15.5358
20.3161
16.4982
10.1849
14.2787
13.7432
15.9978
18.3842
17.2922
27.267
30.0652
29.5534
28.2217
20.5157
10.4218
5.65489
12.8402
19.6677
3.47283
8.456
17.7823
6.90011
10.7721
3.41857
12.905
21.0922
24.2615
24.0793
12.0922
7.08724
7.10108
14.9665
15.9986
7.32943
10.8325
18.2474
10.6156
17.4571
11.516
17.1559
13.9862
11.1982
18.3206
14.7598
17.6504
11.5623
15.1502
12.9199
14.3731
19.8578
24.1236
25.2869
22.915
15.245
12.9861
13.7625
14.2518
15.2855
17.1748
5.23131
14.8189
5.72909
16.9161
14.7987
11.4938
13.2775
19.4827
20.755
21.3995
13.2848
19.527
20.4388
21.0468
23.2046
25.7198
26.3478
23.483
23.1602
25.3505
25.2438
23.991
21.0118
17.8674
15.1866
16.25
18.3407
21.1168
23.9006
26.6486
27.9403
27.6043
26.805
26.1594
13.5431
21.2673
23.7794
25.0987
26.094
26.7843
25.8971
23.8532
23.8916
24.6536
25.7466
26.8986
27.5625
27.5086
27.4592
27.2725
27.4324
27.8407
27.9592
27.2852
28.2464
28.2378
27.0357
25.6346
11.6294
20.6298
23.968
25.8028
26.5391
26.1835
24.3062
21.3073
19.2119
18.5765
21.6745
25.4406
27.564
28.0582
27.888
27.6434
27.8455
28.2749
28.1813
27.7084
27.9456
26.7624
23.991
20.6147
8.18782
17.8668
21.8652
24.1511
24.992
24.337
22.05
19.0415
16.576
12.4622
4.37179
13.2189
21.0691
25.0047
26.63
26.8564
26.4819
25.9919
25.0468
24.0336
24.0403
23.2044
20.2244
16.7975
5.02318
13.682
17.9776
20.7398
21.9667
21.7143
20.4548
19.6108
18.0129
16.7483
19.3557
19.678
19.443
20.8686
22.6065
23.4794
23.6171
23.4406
23.0219
22.9205
23
22.1451
19.5009
17.3612
3.91528
11.5318
14.9413
17.6761
19.251
19.7968
19.8572
19.3516
15.9319
11.5512
6.02999
13.1848
19.2836
22.0953
23.3132
23.7227
23.5532
23.001
22.2093
21.521
21.0527
19.9772
18.0244
16.0278
3.86323
11.5205
13.816
16.1838
17.9423
19.0229
19.5302
18.3231
14.3493
12.6439
16.4501
17.3675
17.8861
19.8636
21.5447
22.1507
21.8556
21.2164
20.6559
20.3563
20.09
19.2889
17.6291
16.1546
3.58457
10.7273
13.1939
15.7474
17.8044
19.1925
19.5596
17.1339
13.1564
12.4894
13.063
15.8856
18.6696
20.2853
21.2485
21.6505
21.5037
21.0606
20.6303
20.4087
20.1513
19.3653
17.7764
16.3091
3.44651
9.85288
12.6829
15.5769
17.8984
19.271
18.6492
14.7076
11.9797
13.6951
17.0997
18.7562
19.5457
20.5159
21.3742
21.7606
21.6289
21.2338
20.9221
20.8258
20.6223
19.8615
18.2678
16.9069
3.46119
9.6341
12.5453
15.467
17.6781
18.328
15.6613
11.9329
12.9619
16.2403
18.1288
19.4517
20.5674
21.3475
21.9004
22.1546
22.0599
21.779
21.5747
21.5535
21.3687
20.5719
18.9223
17.5397
3.75804
10.1549
12.8409
15.3602
16.5937
15.1836
11.6106
12.1859
16.0174
19.0288
20.9779
21.851
22.0845
22.2857
22.5654
22.7299
22.6598
22.4766
22.4125
22.5156
22.3935
21.5922
19.8883
18.5047
3.18874
9.90686
12.4121
14.0359
13.3155
11.5015
11.667
15.896
19.7576
22.1285
23.2173
23.5919
23.6069
23.5003
23.4815
23.5097
23.4823
23.4564
23.5783
23.8301
23.7806
22.9721
21.2174
19.7947
1.88107
7.74905
11.2534
11.5416
11.5856
11.5672
16.0181
20.4422
23.2075
24.8268
25.7042
25.8606
25.4556
24.9308
24.6201
24.5385
24.571
24.72
25.0544
25.4759
25.5157
24.7155
22.928
21.4715
1.19307
5.70078
8.58291
10.7416
11.7211
16.3252
21.0074
23.9924
26.0365
27.4075
28.0268
27.9461
27.3311
26.532
25.9763
25.8072
25.9332
26.2964
26.8696
27.4704
27.6035
26.8207
25.0227
23.5361
1.50651
6.38947
10.3341
12.0143
16.9935
21.6005
24.5655
26.8593
28.6573
29.8335
30.3503
30.1643
29.3542
28.297
27.5355
27.3242
27.5829
28.1828
29
29.7744
29.9979
29.2422
27.4576
25.9573
10.1593
7.90464
9.41202
14.2082
10.2853
13.2258
6.43691
13.2156
4.20202
11.7719
10.7726
9.65012
9.65761
5.55134
3.60775
6.9795
6.23999
5.43162
5.26639
5.60185
5.51981
5.40789
5.80482
3.07074
3.87167
7.84166
5.24332
9.5786
9.67118
10.6395
11.9146
13.207
9.6705
14.1438
10.6372
3.32214
10.73
10.595
15.3435
12.4426
27.0848
25.4458
24.4735
22.4866
21.5209
19.3051
18.8613
16.5382
16.2975
14.3456
14.2776
12.675
11.9565
11.5289
11.1197
9.43888
8.51961
4.4718
4.75693
7.0723
6.63313
5.64717
6.50272
9.95985
10.2306
11.5142
11.6119
12.1471
12.3695
13.824
14.114
16.2196
16.7999
19.1835
19.863
21.9958
22.6662
24.6863
25.3478
27.107
38.6694
37.1166
36.3498
34.8981
34.1039
32.8078
31.9615
30.8738
29.9523
29.0941
28.0549
27.4016
26.4174
25.7193
25.166
24.8709
24.6136
24.4127
23.9356
24.1907
24.3401
24.0545
24.4813
24.6224
25.0003
25.3077
25.6975
26.1948
27.0614
27.8259
28.8605
29.8557
30.8668
32.0292
32.929
34.2047
35.0194
36.4143
37.1273
38.6229
41.4726
39.9497
38.8682
37.4763
36.4426
35.2419
34.2582
33.2249
32.2894
31.3938
30.5706
29.6786
28.9844
28.1131
27.5549
26.8993
26.6026
26.1315
25.7792
26.3197
26.3467
26.0926
26.4532
27.0324
27.3493
27.7897
28.1361
28.846
29.3923
30.2507
31.0845
32.1021
33.1404
34.2687
35.3475
36.5527
37.6025
38.9371
39.9617
41.423
44.2442
42.8034
41.7051
40.4311
39.4093
38.3144
37.3297
36.3368
35.3642
34.4552
33.565
32.7024
31.9146
31.1403
30.5577
30.1032
29.842
29.6664
29.1667
29.6516
29.762
29.4281
29.8141
30.1336
30.4452
30.7856
31.2323
31.7944
32.4297
33.2758
34.1865
35.2146
36.2343
37.3269
38.3553
39.4809
40.5361
41.7875
42.8759
44.2477
44.4924
43.1462
41.9546
40.8028
39.7494
38.7902
37.8027
36.8912
35.9441
35.0605
34.2567
33.3262
32.5917
31.7212
31.0999
30.5183
30.2778
30.2523
29.755
30.3423
30.4481
30.0668
30.3784
30.7454
31.0359
31.4299
31.8957
32.5464
33.1161
34.0076
34.8795
35.8495
36.8457
37.8317
38.8415
39.8841
40.973
42.1883
43.365
44.6925
45.0665
43.751
42.5785
41.4889
40.4823
39.5686
38.6427
37.6879
36.805
35.8648
35.149
34.221
33.5031
32.7648
32.1261
31.5854
31.2716
31.5387
30.9988
31.519
31.6699
31.1617
31.4083
31.646
31.9586
32.3588
32.9664
33.5087
34.0478
34.9956
35.8035
36.8144
37.6951
38.6457
39.5926
40.6049
41.7122
42.9366
44.1296
45.4724
44.684
43.5222
42.2581
41.2526
40.2687
39.385
38.5399
37.5413
36.7252
35.7793
35.1184
34.216
33.4816
32.845
32.2625
31.6267
31.1789
31.6576
31.1838
31.6317
31.8061
31.204
31.2656
31.4591
31.821
32.3322
33.031
33.4583
34.0259
34.9707
35.7279
36.6983
37.4118
38.3655
39.2256
40.2748
41.436
42.6276
43.9501
45.1441
45.1974
43.7861
42.7516
41.4679
40.6522
39.5122
38.7915
37.6479
36.8862
35.9436
35.2877
34.4406
33.7349
33.3124
32.9216
32.3701
31.677
32.0936
31.7597
31.9794
32.1834
31.557
31.3672
31.4562
31.9432
32.561
33.357
33.6221
34.2369
35.0727
35.7687
36.5968
37.1967
38.2566
39.0272
40.3632
41.3399
42.7921
43.8733
45.3318
45.2401
43.8056
42.8093
41.5566
40.6819
39.592
38.6915
37.6286
36.7383
36.0207
35.1878
34.3656
33.6438
33.3196
33.1151
32.8056
32.0581
31.8642
31.6572
31.6463
31.8709
31.628
30.9792
31.0135
31.6442
32.4098
33.2134
33.4882
34.1902
34.7197
35.3562
35.9421
36.8075
37.8376
38.8944
40.1238
41.1669
42.5072
43.5471
44.9904
45.1945
43.7618
42.8326
41.6125
40.7531
39.7312
38.8772
37.9533
37.1178
36.4369
35.5764
34.5902
33.7518
33.3588
33.1714
32.9591
32.4391
32.1602
31.4916
31.2687
31.4759
31.8895
30.9676
31.0364
31.8189
32.648
33.4164
33.935
34.4492
34.7828
35.3485
36.1024
37.1779
38.2754
39.3119
40.3446
41.2756
42.4391
43.453
44.8535
44.6645
43.5103
42.3874
41.3807
40.2814
39.3968
38.3582
37.6151
36.7488
36.2074
35.4161
34.565
33.6675
33.0932
32.9634
32.7285
32.286
31.9501
31.2292
30.6817
30.743
31.4805
31.1104
31.3643
32.2958
32.8531
33.7563
34.2428
34.5272
34.6892
35.3571
36.2306
37.4776
38.4137
39.4665
40.3274
41.4429
42.5768
43.8789
45.2484
44.3292
43.117
41.9122
40.7621
39.6086
38.5342
37.5394
36.6904
36.0279
35.4479
34.9465
34.3525
33.7542
33.169
32.9108
32.7302
31.7864
31.2689
31.7863
30.8841
30.5737
30.7846
32.42
32.6275
33.0786
33.224
33.6501
33.6857
33.726
34.1555
35.0371
36.1133
37.1996
38.1827
39.2547
40.3705
41.6521
42.9221
44.2389
45.5054
44.3069
42.8897
41.6066
40.2568
39.0474
37.8781
36.8827
35.9554
35.0721
34.201
33.3693
32.7007
31.9194
31.5241
31.1643
32.2146
31.7616
31.0703
30.6745
31.027
30.6567
30.589
31.1405
31.2363
31.3246
31.6346
32.4993
32.9414
33.4062
34.0061
34.875
35.6501
36.4681
37.3431
38.2837
39.4133
40.6158
41.8934
43.0921
44.3572
44.1882
42.9833
41.8098
40.5413
39.2169
37.8776
36.6281
35.575
34.6087
33.8012
33.1784
32.6374
31.9242
31.32
30.6718
31.0881
31.0142
30.662
30.1333
30.2023
30.5734
30.5988
30.6932
30.229
30.8076
31.108
31.8866
32.354
32.9822
33.7945
34.7488
35.4302
36.2205
37.1355
38.0478
38.9598
39.9181
41.0197
42.1717
43.4728
42.931
41.6293
40.5044
39.4069
38.4228
37.3935
36.3538
35.2485
34.1341
33.0894
32.1228
31.4809
31.0079
30.7977
30.06
29.6307
29.2425
29.1618
28.5837
29.1549
28.8222
28.9932
29.1029
30.0935
29.9271
30.3783
31.0748
31.6943
32.1744
32.6942
33.3296
34.0416
34.9249
35.7719
36.6885
37.7701
38.937
40.1859
41.3797
42.6585
43.1905
41.8023
40.5445
39.336
38.188
37.1029
36.0033
35.0127
34.0053
33.2264
32.4422
31.8344
30.9734
30.2863
29.7388
29.8957
29.1246
28.0951
28.291
28.4278
27.8208
27.7439
28.1823
28.3793
28.3837
29.4303
29.9469
30.2362
31.13
31.6069
32.037
32.5319
33.2975
34.2147
35.2506
36.3079
37.3764
38.5066
39.7118
41.0402
44.0386
42.5745
41.1535
39.7762
38.4417
37.2482
36.0839
35.0896
34.0265
33.0848
31.9933
31.1278
30.2846
29.8038
29.0825
28.7212
28.4554
28.4446
27.7499
27.1583
26.4688
26.2467
26.3844
26.5562
27.1997
27.4827
27.9919
28.5575
29.2737
29.9215
30.6635
31.2777
32.0801
32.9402
34.0709
35.32
36.7673
38.2609
39.8316
41.4118
41.2083
40.1335
38.8249
37.8612
36.5997
35.6855
34.4141
33.5281
32.2436
31.4186
30.1911
29.523
28.3983
27.7846
26.8457
26.4403
25.7031
25.315
24.6094
24.0644
22.1635
21.9377
22.229
22.3088
22.9482
23.2957
24.3608
24.9883
26.2814
27.2456
28.7776
30.0173
31.7037
33.1029
34.8523
36.3225
38.0419
39.4495
41.0135
42.3163
41.8964
40.6646
39.1135
37.9509
36.438
35.3532
33.9106
32.9297
31.5852
30.7339
29.5058
28.7907
27.7106
27.1577
26.1982
25.6988
24.8201
24.3733
23.5842
22.9238
20.5207
20.2965
20.6833
20.8647
21.5914
21.9531
22.9214
23.4924
24.6424
25.429
26.7953
27.8146
29.3834
30.6303
32.3532
33.7817
35.603
37.1607
39.0432