/*--------------------------------*- C++ -*----------------------------------*\
  =========                 |
  \\      /  F ield         | OpenFOAM: The Open Source CFD Toolbox
   \\    /   O peration     | Website:  https://openfoam.org
    \\  /    A nd           | Version:  6
     \\/     M anipulation  |
\*---------------------------------------------------------------------------*/
FoamFile
{
    version     2.0;
    format      ascii;
    class       volVectorField;
    location    "39";
    object      wallShearStress;
}
// * * * * * * * * * * * * * * * * * * * * * * * * * * * * * * * * * * * * * //

dimensions      [0 2 -2 0 0 0 0];

internalField   uniform (0 0 0);

boundaryField
{
    inlet
    {
        type            calculated;
        value           uniform (0 0 0);
    }
    outlet
    {
        type            calculated;
        value           uniform (0 0 0);
    }
    roughCylinder
    {
        type            calculated;
        value           nonuniform List<vector> 
3840
(
(-0.000270728 -0.000396788 -0.000162864)
(-0.00032709 -0.000510203 -2.24073e-05)
(-0.000376195 -0.000631845 4.15062e-05)
(-0.000451291 -0.000735459 0.000123546)
(-0.000539386 -0.000809616 0.000206101)
(-0.000630767 -0.000850047 0.000278299)
(-0.000715738 -0.000860828 0.000335047)
(-0.000789546 -0.000853321 0.000374905)
(-0.000852657 -0.000846904 0.000402193)
(-0.0009013 -0.000845506 0.000416523)
(-0.000940023 -0.000853154 0.000419887)
(-0.000972198 -0.0008683 0.000414449)
(-0.00100092 -0.000889324 0.000402756)
(-0.00102909 -0.000914744 0.000386876)
(-0.00105874 -0.000943609 0.000368244)
(-0.00109099 -0.000975409 0.000347511)
(-0.00112619 -0.00100983 0.000324765)
(-0.00116414 -0.00104652 0.00029969)
(-0.00120431 -0.00108496 0.000271697)
(-0.00124591 -0.00112432 0.000239921)
(-0.00128774 -0.00116337 0.000202878)
(-0.00132803 -0.00120022 0.00015849)
(-0.00136262 -0.00123156 0.000103016)
(-0.00138466 -0.0012516 3.57772e-05)
(-0.000290277 -0.000384549 -0.000155576)
(-0.000350033 -0.000494821 -2.62453e-05)
(-0.000401744 -0.000615969 3.30252e-05)
(-0.000479145 -0.000720769 0.000111532)
(-0.000569153 -0.000797498 0.000192105)
(-0.000662491 -0.00084089 0.000263224)
(-0.000750471 -0.000855786 0.000319943)
(-0.000829218 -0.000854426 0.000361842)
(-0.000897274 -0.000851219 0.000391671)
(-0.000949925 -0.000848617 0.000407525)
(-0.000990625 -0.000854932 0.000411541)
(-0.00102475 -0.000869417 0.000406421)
(-0.00105535 -0.000890237 0.000394964)
(-0.00108544 -0.000915669 0.00037931)
(-0.00111708 -0.000944655 0.000360966)
(-0.00115143 -0.000976582 0.000340612)
(-0.0011888 -0.0010111 0.000318348)
(-0.001229 -0.00104783 0.000293851)
(-0.00127145 -0.00108624 0.00026652)
(-0.00131529 -0.00112552 0.000235483)
(-0.00135931 -0.00116443 0.00019924)
(-0.00140161 -0.00120111 0.000155739)
(-0.00143788 -0.00123225 0.000101272)
(-0.00146098 -0.00125215 3.51697e-05)
(-0.000309811 -0.000366787 -0.000142667)
(-0.000372283 -0.000473714 -3.06754e-05)
(-0.000426418 -0.000593312 2.37465e-05)
(-0.000505673 -0.000698624 9.83223e-05)
(-0.000597494 -0.000777803 0.000176621)
(-0.000693173 -0.00082491 0.0002468)
(-0.000784861 -0.000845056 0.000304156)
(-0.000868505 -0.000849627 0.000348168)
(-0.00094111 -0.000849339 0.000379878)
(-0.000998448 -0.000846767 0.000397415)
(-0.00104125 -0.000851378 0.000402071)
(-0.0010774 -0.000865008 0.000397288)
(-0.00111 -0.000885394 0.000386133)
(-0.00114211 -0.000910651 0.00037079)
(-0.00117582 -0.000939532 0.000352812)
(-0.00121231 -0.000971364 0.000332921)
(-0.0012519 -0.00100573 0.000311216)
(-0.00129436 -0.00104225 0.000287379)
(-0.00133907 -0.00108039 0.000260794)
(-0.00138515 -0.00111931 0.000230577)
(-0.00143129 -0.00115781 0.000195214)
(-0.00147558 -0.00119405 0.000152693)
(-0.00151347 -0.00122478 9.93393e-05)
(-0.00153759 -0.00124438 3.44967e-05)
(-0.000327366 -0.000344839 -0.000126086)
(-0.000391686 -0.000447724 -3.53088e-05)
(-0.000447653 -0.000564789 1.40269e-05)
(-0.000528145 -0.00067003 8.4335e-05)
(-0.000621672 -0.000751588 0.000160035)
(-0.000720005 -0.000803003 0.000229231)
(-0.000815726 -0.000829036 0.000287431)
(-0.000904215 -0.000839338 0.000333492)
(-0.000981523 -0.000842153 0.000366961)
(-0.00104396 -0.000840923 0.000386358)
(-0.00108957 -0.000843359 0.000391678)
(-0.00112786 -0.000855918 0.000387356)
(-0.00116262 -0.000875692 0.000376585)
(-0.0011968 -0.000900582 0.000361632)
(-0.00123264 -0.000929214 0.000344107)
(-0.00127128 -0.000960778 0.000324747)
(-0.00131305 -0.000994819 0.000303676)
(-0.00135771 -0.00103092 0.000280562)
(-0.00140459 -0.00106855 0.000254779)
(-0.00145278 -0.00110689 0.000225435)
(-0.00150093 -0.00114476 0.000190999)
(-0.00154708 -0.00118036 0.000149504)
(-0.00158647 -0.00121049 9.73193e-05)
(-0.00161153 -0.00122969 3.37938e-05)
(-0.000341611 -0.000318825 -0.000107389)
(-0.000407265 -0.000417232 -3.97846e-05)
(-0.000464412 -0.000530877 4.20045e-06)
(-0.000545571 -0.000635498 6.98757e-05)
(-0.000640764 -0.000719399 0.000142607)
(-0.000742064 -0.000775497 0.000210669)
(-0.000841993 -0.000807556 0.000269631)
(-0.000935234 -0.000823219 0.000317554)
(-0.00101728 -0.000829126 0.000352794)
(-0.00108432 -0.000829382 0.000373757)
(-0.00113445 -0.000830302 0.000380231)
(-0.00117513 -0.000841604 0.000376625)
(-0.00121218 -0.000860481 0.000366342)
(-0.00124857 -0.000884825 0.000351897)
(-0.00128652 -0.000912984 0.000334911)
(-0.00132728 -0.000944079 0.000316168)
(-0.00137117 -0.000977578 0.000295799)
(-0.00141794 -0.00101305 0.000273475)
(-0.00146687 -0.00104995 0.000248553)
(-0.00151702 -0.00108747 0.000220128)
(-0.00156697 -0.00112445 0.000186655)
(-0.00161482 -0.00115919 0.000146222)
(-0.00165556 -0.00118853 9.52431e-05)
(-0.00168144 -0.0012072 3.30713e-05)
(-0.000352909 -0.000290568 -8.80431e-05)
(-0.000418818 -0.000383556 -4.39408e-05)
(-0.000476292 -0.000492916 -5.49987e-06)
(-0.000557456 -0.000596284 5.51674e-05)
(-0.000654103 -0.000682273 0.000124492)
(-0.000758431 -0.000743043 0.000191123)
(-0.00086262 -0.000780882 0.000250589)
(-0.000960658 -0.000801514 0.000300141)
(-0.00104757 -0.000810433 0.000337143)
(-0.00111948 -0.000812287 0.000359606)
(-0.00117537 -0.000813293 0.000367819)
(-0.00121879 -0.00082227 0.000365015)
(-0.00125831 -0.000840034 0.000355385)
(-0.00129697 -0.000863499 0.000341567)
(-0.00133711 -0.000890986 0.000325234)
(-0.00137998 -0.000921394 0.000307201)
(-0.00142591 -0.000954131 0.000287615)
(-0.00147464 -0.000988733 0.000266145)
(-0.00152545 -0.00102464 0.000242135)
(-0.00157734 -0.00106111 0.000214674)
(-0.00162893 -0.00109701 0.000182199)
(-0.00167826 -0.00113065 0.000142858)
(-0.00172018 -0.00115902 9.3118e-05)
(-0.00174678 -0.00117706 3.23328e-05)
(-0.000359373 -0.000259849 -6.86147e-05)
(-0.000425254 -0.000347216 -4.75245e-05)
(-0.000482297 -0.000451512 -1.4868e-05)
(-0.000562763 -0.000553021 4.0334e-05)
(-0.000660568 -0.000640808 0.000105739)
(-0.000767953 -0.000706149 0.000170548)
(-0.000876542 -0.000749536 0.000230188)
(-0.000979528 -0.000774797 0.000281106)
(-0.00107152 -0.000786636 0.000319836)
(-0.00114859 -0.000790121 0.000343927)
(-0.00120995 -0.00079181 0.000353857)
(-0.00125806 -0.000798879 0.000352372)
(-0.0013003 -0.000814889 0.000343642)
(-0.00134147 -0.000837295 0.000330631)
(-0.00138381 -0.000863821 0.000315072)
(-0.00142875 -0.000893313 0.00029785)
(-0.00147665 -0.000925081 0.000279134)
(-0.00152721 -0.000958615 0.000258594)
(-0.00157974 -0.00099337 0.00023556)
(-0.00163317 -0.00102858 0.000209107)
(-0.00168612 -0.00106314 0.000177652)
(-0.00173674 -0.00109551 0.000139429)
(-0.00177963 -0.00112274 9.09562e-05)
(-0.0018068 -0.00114003 3.15815e-05)
(-0.000362344 -0.000228772 -5.00936e-05)
(-0.000426575 -0.000309518 -5.05961e-05)
(-0.000482058 -0.00040789 -2.36928e-05)
(-0.000560861 -0.000506621 2.56387e-05)
(-0.000659215 -0.000595564 8.64964e-05)
(-0.0007694 -0.00066507 0.000148915)
(-0.000882317 -0.000713582 0.000208236)
(-0.00099043 -0.000743214 0.000260193)
(-0.00108784 -0.000757975 0.000300588)
(-0.00117055 -0.000763266 0.000326543)
(-0.00123752 -0.000765777 0.00033826)
(-0.00129128 -0.0007721 0.000338511)
(-0.0013373 -0.000786 0.000331049)
(-0.00138109 -0.000806544 0.000319002)
(-0.00142575 -0.000831919 0.0003044)
(-0.00147276 -0.000860289 0.000288115)
(-0.0015225 -0.000890879 0.000270366)
(-0.00157472 -0.000923131 0.000250829)
(-0.00162867 -0.000956485 0.000228823)
(-0.00168336 -0.000990267 0.000203423)
(-0.00173742 -0.00102346 0.000173025)
(-0.00178905 -0.00105445 0.00013594)
(-0.00183267 -0.00108046 8.87628e-05)
(-0.00186027 -0.00109698 3.08202e-05)
(-0.00035849 -0.000196152 -3.25645e-05)
(-0.000421396 -0.000270374 -5.26984e-05)
(-0.000474575 -0.000362198 -3.1802e-05)
(-0.000550809 -0.000457453 1.124e-05)
(-0.000648999 -0.00054686 6.69183e-05)
(-0.000761633 -0.000620046 0.000126263)
(-0.00087892 -0.000673406 0.000184691)
(-0.000992394 -0.000707247 0.000237301)
(-0.00109562 -0.000724951 0.000279252)
(-0.00118425 -0.000732038 0.000307194)
(-0.00125715 -0.000735435 0.000320949)
(-0.00131652 -0.000741515 0.00032312)
(-0.0013674 -0.000753974 0.000317328)
(-0.00141501 -0.000772876 0.000306737)
(-0.00146201 -0.000796517 0.000293256)
(-0.00151102 -0.000823455 0.000278036)
(-0.00156249 -0.000852703 0.000261364)
(-0.00161618 -0.000883597 0.000242921)
(-0.00167135 -0.000915556 0.000222018)
(-0.00172692 -0.000947835 0.000197703)
(-0.0017815 -0.000979398 0.000168343)
(-0.00183375 -0.00100884 0.000132405)
(-0.00187774 -0.00103348 8.65392e-05)
(-0.00190545 -0.00104912 3.00465e-05)
(-0.000351603 -0.000164794 -1.68661e-05)
(-0.000410279 -0.000231584 -5.45355e-05)
(-0.000459773 -0.000316012 -3.87481e-05)
(-0.000532097 -0.000406393 -2.35885e-06)
(-0.000629005 -0.000495139 4.73153e-05)
(-0.000743529 -0.000571343 0.000102711)
(-0.000864973 -0.000629147 0.000159483)
(-0.000984033 -0.000667118 0.000212267)
(-0.00109347 -0.000687815 0.000255591)
(-0.00118866 -0.00069686 0.000285659)
(-0.00126791 -0.000701189 0.000301753)
(-0.00133309 -0.000707103 0.000306114)
(-0.00138895 -0.000718517 0.000302269)
(-0.0014403 -0.000735895 0.000293336)
(-0.00149027 -0.000757804 0.000281289)
(-0.00154141 -0.000783142 0.000267363)
(-0.00159439 -0.000810808 0.000251902)
(-0.0016491 -0.000840081 0.000234634)
(-0.00170485 -0.000870334 0.000214868)
(-0.0017607 -0.00090083 0.000191669)
(-0.00181547 -0.000930563 0.000163396)
(-0.00186792 -0.000958253 0.000128658)
(-0.00191194 -0.00098138 8.41804e-05)
(-0.00193957 -0.000996029 2.92251e-05)
(-0.000334992 -0.000134048 -2.97684e-06)
(-0.000392379 -0.000191703 -5.38023e-05)
(-0.000437022 -0.000268928 -4.49064e-05)
(-0.000504332 -0.00035389 -1.52017e-05)
(-0.000598731 -0.00044102 2.80013e-05)
(-0.000714234 -0.000519387 7.85062e-05)
(-0.000839645 -0.000581355 0.000132736)
(-0.000964397 -0.000623411 0.000185082)
(-0.00108055 -0.000647263 0.000229553)
(-0.00118266 -0.000658222 0.000261751)
(-0.00126873 -0.000663439 0.000280429)
(-0.00134017 -0.000669243 0.000287338)
(-0.00140117 -0.000679593 0.000285734)
(-0.00145653 -0.000695443 0.000278725)
(-0.0015094 -0.000715565 0.000268333)
(-0.00156257 -0.00073911 0.000255895)
(-0.00161691 -0.000764963 0.000241802)
(-0.0016724 -0.000792371 0.000225831)
(-0.00172847 -0.000820719 0.000207305)
(-0.00178427 -0.000849224 0.000185293)
(-0.00183878 -0.000876929 0.000158158)
(-0.00189112 -0.000902755 0.000124689)
(-0.00193481 -0.000924259 8.1681e-05)
(-0.00196215 -0.000937823 2.8354e-05)
(-0.000312949 -0.000105848 5.25578e-06)
(-0.000370074 -0.000156302 -5.02295e-05)
(-0.00040772 -0.000222629 -4.90366e-05)
(-0.000467376 -0.000300858 -2.65151e-05)
(-0.00055721 -0.00038475 9.44769e-06)
(-0.000672671 -0.000464398 5.39843e-05)
(-0.000801517 -0.000530125 0.000104582)
(-0.000932218 -0.000576453 0.000155753)
(-0.00105542 -0.000603612 0.000200991)
(-0.0011652 -0.000616723 0.000235342)
(-0.00125868 -0.000622814 0.00025683)
(-0.00133677 -0.00062838 0.000266609)
(-0.00140339 -0.000637671 0.000267628)
(-0.00146288 -0.00065182 0.000262834)
(-0.00151884 -0.00067006 0.000254378)
(-0.00157404 -0.000691657 0.000243644)
(-0.00162957 -0.000715507 0.000231085)
(-0.00168557 -0.000740853 0.00021654)
(-0.00174148 -0.000767056 0.000199339)
(-0.00179672 -0.000793384 0.000178582)
(-0.00185051 -0.000818935 0.000152637)
(-0.00190225 -0.000842739 0.000120494)
(-0.00194524 -0.000862526 7.90385e-05)
(-0.00197205 -0.000874956 2.74322e-05)
(-0.000281743 -7.72878e-05 1.25428e-05)
(-0.000340562 -0.000123877 -4.83793e-05)
(-0.000370967 -0.000179167 -5.07994e-05)
(-0.000421662 -0.000249071 -3.5285e-05)
(-0.000505278 -0.000327991 -7.44773e-06)
(-0.000618694 -0.000407255 2.9861e-05)
(-0.000750279 -0.00047623 7.55313e-05)
(-0.00088655 -0.000526705 0.000124495)
(-0.00101733 -0.000557569 0.00017)
(-0.00113513 -0.000572928 0.000206347)
(-0.00123661 -0.000579908 0.000230818)
(-0.00132199 -0.00058519 0.000243827)
(-0.00139447 -0.000593195 0.000247814)
(-0.00145858 -0.000605576 0.000245631)
(-0.00151765 -0.000621735 0.000239396)
(-0.00157479 -0.000641177 0.00023059)
(-0.00163133 -0.000662841 0.000219746)
(-0.0016875 -0.000685974 0.000206768)
(-0.00174295 -0.000709942 0.000191007)
(-0.00179718 -0.000734006 0.000171581)
(-0.0018498 -0.000757327 0.000146869)
(-0.00190059 -0.000779063 0.000116106)
(-0.00194246 -0.000797086 7.62759e-05)
(-0.00196848 -0.000808339 2.64676e-05)
(-0.00024518 -5.09388e-05 1.86412e-05)
(-0.000304635 -9.46469e-05 -4.73889e-05)
(-0.00032815 -0.000139771 -5.08011e-05)
(-0.000367546 -0.000199281 -4.12621e-05)
(-0.000441616 -0.000270653 -2.18736e-05)
(-0.000551596 -0.00034817 7.01766e-06)
(-0.000684659 -0.000419541 4.61816e-05)
(-0.000826785 -0.000474589 9.17363e-05)
(-0.000965164 -0.000509444 0.000136726)
(-0.00109175 -0.000527539 0.00017485)
(-0.00120174 -0.000535515 0.000202386)
(-0.00129477 -0.00054037 0.000218901)
(-0.00137382 -0.00054704 0.000226293)
(-0.0014426 -0.00055737 0.00022706)
(-0.00150508 -0.000571336 0.000223401)
(-0.00156423 -0.00058849 0.000216796)
(-0.00162159 -0.000607836 0.000207861)
(-0.0016776 -0.000628634 0.000196592)
(-0.00173198 -0.000650233 0.000182353)
(-0.0017846 -0.000671944 0.00016431)
(-0.0018354 -0.00069296 0.000140853)
(-0.00188467 -0.000712553 0.000111513)
(-0.00192497 -0.000728798 7.33847e-05)
(-0.00194998 -0.000738865 2.54572e-05)
(-0.000201393 -2.79702e-05 2.2948e-05)
(-0.000259744 -6.74543e-05 -4.53263e-05)
(-0.000278231 -0.000103816 -4.91619e-05)
(-0.000307169 -0.000152685 -4.41468e-05)
(-0.000370312 -0.000215207 -3.28586e-05)
(-0.000472415 -0.000287878 -1.34079e-05)
(-0.000605461 -0.000360789 1.76228e-05)
(-0.000751932 -0.00041996 5.8126e-05)
(-0.000898375 -0.000459597 0.00010162)
(-0.00103384 -0.000480846 0.000140993)
(-0.00115304 -0.000490216 0.000171576)
(-0.00125449 -0.000494808 0.000191867)
(-0.00134017 -0.000499902 0.000202972)
(-0.00141429 -0.000508151 0.000207142)
(-0.00148015 -0.000519699 0.000206377)
(-0.00154113 -0.00053438 0.000202229)
(-0.00159908 -0.000551289 0.000195407)
(-0.00165455 -0.000569683 0.000185993)
(-0.00170749 -0.000588925 0.00017339)
(-0.001758 -0.000608326 0.000156795)
(-0.0018066 -0.000627132 0.000134624)
(-0.00185399 -0.000644622 0.00010675)
(-0.00189227 -0.000659125 7.03879e-05)
(-0.00191595 -0.000668034 2.44077e-05)
(-0.000155026 -1.05354e-05 2.51316e-05)
(-0.000211534 -4.50598e-05 -4.24612e-05)
(-0.000226773 -7.38894e-05 -4.67875e-05)
(-0.000243557 -0.000110712 -4.43111e-05)
(-0.000290263 -0.000160159 -3.92488e-05)
(-0.000383588 -0.000227731 -2.95973e-05)
(-0.00051275 -0.000299712 -8.73434e-06)
(-0.000663444 -0.000363509 2.49069e-05)
(-0.000816897 -0.00040816 6.54522e-05)
(-0.000961785 -0.000433514 0.000105358)
(-0.00109017 -0.000444694 0.000138667)
(-0.00120011 -0.000449149 0.00016278)
(-0.00129337 -0.000452903 0.000177982)
(-0.00137265 -0.000458824 0.000185853)
(-0.00144221 -0.000467901 0.000188362)
(-0.00150512 -0.000480068 0.000186971)
(-0.00156344 -0.000494483 0.000182466)
(-0.00161798 -0.000510462 0.000175053)
(-0.0016688 -0.000527337 0.000164163)
(-0.00171642 -0.000544446 0.000149048)
(-0.00176195 -0.000561028 0.00012815)
(-0.00180683 -0.000576427 0.000101775)
(-0.0018426 -0.000589261 6.72579e-05)
(-0.00186471 -0.000597064 2.33097e-05)
(-0.00010219 3.58124e-06 2.58398e-05)
(-0.000152574 -2.40437e-05 -3.7359e-05)
(-0.000166014 -4.68858e-05 -4.2362e-05)
(-0.000177573 -7.41125e-05 -4.03881e-05)
(-0.000240141 -0.000120336 -4.00836e-05)
(-0.000284319 -0.00016515 -3.96141e-05)
(-0.000408446 -0.000236757 -3.02579e-05)
(-0.000559998 -0.000303617 -6.2085e-06)
(-0.000720873 -0.00035483 2.95341e-05)
(-0.000874311 -0.000385037 6.86542e-05)
(-0.00101255 -0.000399177 0.000104124)
(-0.0011317 -0.000404224 0.000131962)
(-0.00123198 -0.000406602 0.000151321)
(-0.00131728 -0.000410466 0.000163289)
(-0.00139038 -0.000416972 0.000169366)
(-0.00145488 -0.000426522 0.000170975)
(-0.00151326 -0.000438431 0.000168987)
(-0.0015664 -0.000452031 0.00016372)
(-0.00161465 -0.000466665 0.000154647)
(-0.00165891 -0.000481674 0.000141067)
(-0.00170108 -0.000496265 0.000121461)
(-0.00174316 -0.000509731 9.66264e-05)
(-0.00177588 -0.00052101 6.40188e-05)
(-0.00179612 -0.000527773 2.21704e-05)
(-5.58281e-05 1.13424e-05 2.36907e-05)
(-0.000102297 -9.71614e-06 -3.18131e-05)
(-0.000118583 -2.52396e-05 -4.13764e-05)
(-0.000125203 -4.0192e-05 -8.08931e-05)
(-0.00010803 -0.000136498 -4.89116e-05)
(-0.000200645 -0.000120093 7.53137e-06)
(-0.000299964 -0.000168022 -4.5855e-05)
(-0.000447723 -0.000242562 -3.34721e-05)
(-0.000611429 -0.000299199 -4.28623e-06)
(-0.00077389 -0.000336012 3.24108e-05)
(-0.00092067 -0.000353897 6.88142e-05)
(-0.00104835 -0.000360183 9.9792e-05)
(-0.00115691 -0.0003621 0.00012339)
(-0.00124744 -0.000363894 0.000139536)
(-0.00132431 -0.000368017 0.000149481)
(-0.00139047 -0.000375092 0.000154364)
(-0.00144863 -0.000384569 0.000155073)
(-0.00149988 -0.000395905 0.000152082)
(-0.00154479 -0.000408398 0.000144886)
(-0.00158476 -0.000421441 0.000132849)
(-0.0016225 -0.000434085 0.000114485)
(-0.001661 -0.000445666 9.12149e-05)
(-0.00169024 -0.000455554 6.06166e-05)
(-0.00170831 -0.000461367 2.09696e-05)
(-1.40366e-05 9.57992e-06 1.63144e-05)
(-3.28866e-05 -1.70867e-06 -2.12126e-05)
(-4.20952e-05 -1.19573e-05 -3.21363e-05)
(-7.63871e-05 -4.35225e-05 -4.39252e-05)
(-5.68596e-05 -4.7012e-05 -3.46698e-05)
(-8.28769e-05 -6.24853e-05 -2.76759e-05)
(-0.000191555 -0.00011375 -4.10972e-05)
(-0.000323349 -0.000173458 -4.96099e-05)
(-0.000492118 -0.000241307 -3.30945e-05)
(-0.000658868 -0.000284317 -1.72382e-06)
(-0.00081477 -0.000308407 3.40012e-05)
(-0.000951536 -0.00031752 6.71138e-05)
(-0.00106657 -0.000319338 9.44185e-05)
(-0.00116328 -0.000319927 0.000114854)
(-0.00124348 -0.000321882 0.000128802)
(-0.00131064 -0.000326599 0.000137097)
(-0.00136812 -0.000333796 0.000140645)
(-0.00141698 -0.000343053 0.000140045)
(-0.00145812 -0.000353652 0.000134816)
(-0.00149325 -0.000365013 0.000124353)
(-0.0015265 -0.000376047 0.00010724)
(-0.00156139 -0.000386018 8.55902e-05)
(-0.00158654 -0.000394664 5.70759e-05)
(-0.00160225 -0.00039964 1.97165e-05)
(9.38973e-06 5.94963e-06 7.95924e-06)
(2.25828e-06 -2.3354e-06 -1.17703e-05)
(-6.24452e-06 -6.65185e-06 -1.7712e-05)
(-1.78089e-05 -2.50283e-05 -4.03255e-06)
(-5.31852e-05 1.87853e-05 -2.47608e-05)
(-4.66014e-05 -4.59837e-05 -6.24596e-05)
(-7.89204e-05 -5.71298e-05 -2.1205e-05)
(-0.000225388 -0.000113363 -4.85652e-05)
(-0.000363403 -0.000177138 -5.46392e-05)
(-0.000537094 -0.000232621 -3.05327e-05)
(-0.000696874 -0.000262407 1.31603e-06)
(-0.000840569 -0.000275472 3.4844e-05)
(-0.000963737 -0.000279133 6.52627e-05)
(-0.00106485 -0.000278931 8.95733e-05)
(-0.00114825 -0.000279325 0.000107555)
(-0.0012164 -0.000282168 0.00011939)
(-0.00127281 -0.000287372 0.00012586)
(-0.00131863 -0.00029479 0.000127714)
(-0.001355 -0.000303645 0.000124457)
(-0.00138449 -0.000313566 0.000115558)
(-0.001412 -0.000323016 9.9605e-05)
(-0.00144234 -0.000331438 7.95991e-05)
(-0.00146305 -0.000339032 5.33043e-05)
(-0.00147604 -0.000343227 1.8375e-05)
(2.99852e-05 7.27334e-06 2.11069e-05)
(2.45653e-05 6.85375e-06 -2.22708e-06)
(1.45259e-05 3.53536e-06 -1.25077e-05)
(3.57321e-06 -3.47707e-06 -1.49753e-05)
(-2.07257e-05 -1.23591e-05 -1.76543e-05)
(-1.94161e-05 -1.21574e-05 -2.36338e-05)
(-4.3298e-05 -2.8193e-05 -4.26299e-05)
(-7.34493e-05 -6.11892e-05 -3.76532e-05)
(-0.000242222 -0.000123197 -4.70467e-05)
(-0.000396798 -0.000171039 -5.12168e-05)
(-0.000567253 -0.000214988 -2.6267e-05)
(-0.000719518 -0.000234149 4.56596e-06)
(-0.000846836 -0.000240377 3.65885e-05)
(-0.000953277 -0.000241055 6.42536e-05)
(-0.00103897 -0.000240594 8.60099e-05)
(-0.00110678 -0.000241998 0.000101248)
(-0.00116147 -0.000245583 0.000110609)
(-0.00120375 -0.000251521 0.000114945)
(-0.00123537 -0.000259007 0.000113729)
(-0.0012584 -0.000267755 0.000106366)
(-0.00128055 -0.000275951 9.15832e-05)
(-0.0013066 -0.000283163 7.3302e-05)
(-0.00132251 -0.000289864 4.93373e-05)
(-0.00133279 -0.000293376 1.696e-05)
(4.29169e-05 1.40748e-05 3.07404e-05)
(4.97406e-05 6.58492e-06 -9.63279e-06)
(4.88167e-05 -1.80194e-06 -1.50014e-05)
(4.22407e-05 -1.19548e-05 -1.54191e-05)
(2.65857e-05 -1.51343e-05 -1.22233e-05)
(5.33677e-06 -8.7393e-06 -2.18761e-05)
(-1.81144e-05 -1.75858e-05 -3.37226e-05)
(-3.74278e-05 -4.00832e-05 -3.79619e-05)
(-0.000108866 -6.04393e-05 -3.3242e-05)
(-0.000292644 -0.000108445 -5.53937e-05)
(-0.000434501 -0.000162821 -5.14046e-05)
(-0.00058741 -0.00019216 -2.28363e-05)
(-0.000721619 -0.00020363 9.8613e-06)
(-0.000829912 -0.000205874 3.96102e-05)
(-0.000917186 -0.000205654 6.46279e-05)
(-0.000984663 -0.000206571 8.30627e-05)
(-0.00103709 -0.000209082 9.51601e-05)
(-0.00107496 -0.000213883 0.000101882)
(-0.00110018 -0.000220023 0.000102568)
(-0.00111666 -0.000227933 9.67417e-05)
(-0.00113186 -0.000234613 8.29805e-05)
(-0.00115308 -0.000240804 6.64851e-05)
(-0.00116348 -0.000246583 4.50152e-05)
(-0.00117085 -0.000249382 1.54136e-05)
(5.75119e-05 1.57768e-05 3.64434e-05)
(7.3274e-05 9.99449e-06 -1.16904e-05)
(7.75939e-05 2.57882e-06 -1.99243e-05)
(7.50812e-05 -9.10414e-06 -2.30483e-05)
(6.54347e-05 -2.02616e-05 -2.24547e-05)
(4.7731e-05 -2.63492e-05 -1.92452e-05)
(2.82597e-05 -2.46792e-05 -1.18177e-05)
(-2.35409e-05 1.14525e-06 -2.71448e-05)
(-3.84489e-05 -1.31432e-05 -3.2745e-05)
(-0.000149468 -7.17727e-05 -4.62151e-05)
(-0.000298788 -0.000116464 -5.25098e-05)
(-0.000453618 -0.000149018 -4.32959e-05)
(-0.000586718 -0.000166642 -1.3844e-05)
(-0.00069782 -0.000172797 1.66401e-05)
(-0.000785056 -0.000173911 4.39696e-05)
(-0.000849521 -0.000174947 6.49213e-05)
(-0.000898735 -0.000176969 7.93762e-05)
(-0.000931903 -0.000181137 8.83212e-05)
(-0.000952126 -0.000186433 9.09655e-05)
(-0.000960473 -0.000193508 8.6513e-05)
(-0.000970691 -0.000198988 7.38612e-05)
(-0.000986646 -0.000204307 5.92039e-05)
(-0.000992758 -0.000209472 4.04349e-05)
(-0.000997035 -0.000211416 1.37637e-05)
(6.91201e-05 1.47832e-05 3.77126e-05)
(8.9879e-05 8.64362e-06 -1.16251e-05)
(9.87158e-05 1.47599e-06 -2.06681e-05)
(0.00010061 -9.95948e-06 -2.5529e-05)
(9.59383e-05 -2.10956e-05 -2.688e-05)
(8.45416e-05 -2.91552e-05 -2.53561e-05)
(6.55684e-05 -2.86186e-05 -2.0062e-05)
(2.44771e-05 -2.343e-05 -2.60489e-05)
(-3.17292e-05 -1.07024e-05 -5.52259e-05)
(-6.88685e-05 -5.70805e-05 -4.39945e-05)
(-0.000167923 -6.84521e-05 -2.80149e-05)
(-0.00031651 -0.000101612 -5.66951e-05)
(-0.000452723 -0.000130814 -3.29456e-05)
(-0.000559789 -0.000140593 -3.49303e-06)
(-0.000645247 -0.000144275 2.47832e-05)
(-0.000707611 -0.000146878 4.75182e-05)
(-0.000752975 -0.00014914 6.37375e-05)
(-0.000780244 -0.000152948 7.44986e-05)
(-0.000792318 -0.000156958 7.8664e-05)
(-0.000794294 -0.000163594 7.56565e-05)
(-0.000795755 -0.000166287 6.38331e-05)
(-0.000809021 -0.000172049 5.12529e-05)
(-0.000808004 -0.000175749 3.5296e-05)
(-0.000810062 -0.000176482 1.19349e-05)
(7.47409e-05 1.32898e-05 3.82588e-05)
(9.90006e-05 7.24129e-06 -1.11539e-05)
(0.000110842 5.9256e-07 -2.08877e-05)
(0.000115595 -1.08159e-05 -2.63304e-05)
(0.000114053 -2.29587e-05 -2.78763e-05)
(0.000106667 -3.28712e-05 -2.56177e-05)
(9.28884e-05 -4.01298e-05 -2.10316e-05)
(6.84812e-05 -3.10639e-05 -6.8891e-06)
(-1.00755e-05 -1.31264e-05 -3.6475e-05)
(-4.211e-05 -1.66447e-05 -4.9128e-05)
(-7.44213e-05 -3.95359e-05 -2.54132e-05)
(-0.000192034 -6.49929e-05 -4.20761e-05)
(-0.000317138 -9.21838e-05 -4.37238e-05)
(-0.000423252 -0.000109531 -1.94473e-05)
(-0.000504588 -0.00011617 7.94459e-06)
(-0.000558328 -0.000120009 3.09531e-05)
(-0.000598531 -0.00012313 4.80582e-05)
(-0.000620326 -0.000127103 6.01682e-05)
(-0.000628931 -0.000130474 6.5947e-05)
(-0.000621518 -0.000136221 6.40357e-05)
(-0.000623475 -0.000137427 5.34473e-05)
(-0.000627004 -0.000142331 4.26054e-05)
(-0.000625415 -0.000145531 2.9967e-05)
(-0.000624686 -0.000145294 9.99228e-06)
(7.3254e-05 1.04765e-05 3.67513e-05)
(9.95946e-05 5.35656e-06 -9.23889e-06)
(0.000112441 -1.69312e-07 -1.95154e-05)
(0.000119695 -1.08849e-05 -2.57314e-05)
(0.000120757 -2.35221e-05 -2.78412e-05)
(0.000115927 -3.53973e-05 -2.56207e-05)
(0.000104642 -4.50922e-05 -1.89477e-05)
(8.60317e-05 -4.87043e-05 -3.59934e-06)
(4.09538e-05 -3.61372e-05 2.28781e-05)
(-5.38642e-05 4.98003e-05 -2.63364e-05)
(-3.76983e-05 -1.07672e-05 -5.11603e-05)
(-7.78507e-05 -3.52199e-05 -2.80757e-05)
(-0.000196408 -5.82067e-05 -4.48902e-05)
(-0.00028557 -7.56675e-05 -3.01955e-05)
(-0.000361791 -8.77948e-05 -5.39769e-06)
(-0.000414554 -9.46789e-05 1.6598e-05)
(-0.00044954 -9.91936e-05 3.32428e-05)
(-0.000463915 -0.000103303 4.57744e-05)
(-0.000462689 -0.000104966 5.22025e-05)
(-0.000450854 -0.000110016 5.14109e-05)
(-0.000432988 -0.000105483 4.15872e-05)
(-0.000448885 -0.000113725 3.3522e-05)
(-0.000435769 -0.000114542 2.36558e-05)
(-0.000428459 -0.000108825 7.82956e-06)
(6.64461e-05 7.13015e-06 3.34003e-05)
(9.3624e-05 3.04357e-06 -6.64901e-06)
(0.000107056 -1.38518e-06 -1.66228e-05)
(0.000115287 -1.03343e-05 -2.33601e-05)
(0.000119252 -2.21309e-05 -2.6785e-05)
(0.000117688 -3.44263e-05 -2.62945e-05)
(0.00011006 -4.49612e-05 -2.16207e-05)
(9.42405e-05 -5.14772e-05 -1.23487e-05)
(6.18308e-05 -4.61841e-05 5.88342e-06)
(-1.19867e-05 -2.59292e-05 2.12139e-06)
(-3.80868e-05 2.45552e-05 -3.90384e-05)
(-3.15155e-05 -1.32621e-05 -3.72579e-05)
(-8.33487e-05 -2.80541e-05 -3.01684e-05)
(-0.00018782 -3.95505e-05 -3.24293e-05)
(-0.000241715 -5.69169e-05 -1.63188e-05)
(-0.000270444 -6.52571e-05 3.3955e-06)
(-0.000298044 -7.41413e-05 1.89345e-05)
(-0.000307562 -7.76541e-05 3.11982e-05)
(-0.000307068 -7.84291e-05 3.87097e-05)
(-0.000287747 -8.17617e-05 3.9664e-05)
(-0.000299285 -5.89921e-05 3.21279e-05)
(-0.000278269 -8.32403e-05 2.25229e-05)
(-0.000275568 -8.03863e-05 1.87093e-05)
(-0.00029437 -6.35233e-05 6.13062e-06)
(5.71939e-05 4.11477e-06 2.9337e-05)
(8.38075e-05 5.21679e-07 -4.44766e-06)
(9.71664e-05 -3.22673e-06 -1.31513e-05)
(0.000105966 -1.06943e-05 -1.94227e-05)
(0.000111595 -2.06143e-05 -2.34953e-05)
(0.000113758 -3.21097e-05 -2.47662e-05)
(0.000110972 -4.30462e-05 -2.27091e-05)
(0.000101367 -5.1369e-05 -1.74093e-05)
(8.07687e-05 -5.38036e-05 -9.35425e-06)
(3.60133e-05 -4.70973e-05 -5.45722e-06)
(-4.38335e-06 -2.65441e-05 -2.01648e-05)
(-1.61917e-05 -6.60407e-06 -3.7506e-05)
(-2.60652e-05 -8.73543e-06 -2.27164e-05)
(-7.38436e-05 -3.28123e-05 -2.66379e-05)
(-0.000127605 -3.3413e-05 -1.3439e-05)
(-0.000173445 -3.57252e-05 -3.72471e-06)
(-0.000179642 -4.63021e-05 7.47096e-06)
(-0.000184516 -5.13036e-05 1.82785e-05)
(-0.000174936 -4.8186e-05 2.48732e-05)
(-0.000152616 -5.24227e-05 2.47419e-05)
(-0.000157688 -4.84983e-05 1.6501e-05)
(-0.000145103 -4.96629e-05 1.4674e-05)
(-0.000133196 -4.6734e-05 8.88781e-06)
(-0.00013766 -6.64786e-05 2.30383e-06)
(4.77059e-05 2.13519e-06 2.55739e-05)
(7.25062e-05 -1.52064e-06 -3.16292e-06)
(8.50378e-05 -5.20417e-06 -1.02471e-05)
(9.37744e-05 -1.1636e-05 -1.53374e-05)
(0.000100233 -1.99364e-05 -1.90606e-05)
(0.000104976 -2.96213e-05 -2.11312e-05)
(0.000106755 -3.96536e-05 -2.10555e-05)
(0.000103629 -4.82826e-05 -1.88934e-05)
(9.26071e-05 -5.36007e-05 -1.4903e-05)
(6.83951e-05 -5.42745e-05 -1.28718e-05)
(3.61501e-05 -4.39388e-05 -1.63347e-05)
(1.16203e-05 -2.26072e-05 -2.42183e-05)
(-1.64084e-05 -1.2761e-05 -3.38987e-05)
(-3.94866e-05 -2.95881e-05 -3.61629e-05)
(-5.24044e-05 -2.25777e-05 -1.70135e-05)
(-6.53906e-05 -3.73435e-05 -8.074e-06)
(-6.65276e-05 -2.16406e-05 1.36194e-06)
(-5.8526e-05 -2.3986e-05 3.62174e-06)
(-6.30151e-05 -2.48191e-05 9.92418e-06)
(-2.85161e-05 -1.49299e-05 1.55358e-06)
(-6.08558e-05 -4.73293e-05 6.91123e-06)
(-2.78407e-05 -1.52349e-05 7.18179e-06)
(-3.18649e-05 -2.40975e-05 1.80172e-06)
(-5.36467e-05 -5.81963e-05 2.41186e-06)
(3.84703e-05 1.04244e-06 2.19555e-05)
(6.08349e-05 -2.9577e-06 -2.71289e-06)
(7.2141e-05 -7.00637e-06 -8.26179e-06)
(8.04362e-05 -1.29998e-05 -1.19807e-05)
(8.72285e-05 -2.02482e-05 -1.47235e-05)
(9.32859e-05 -2.82507e-05 -1.6597e-05)
(9.83283e-05 -3.66887e-05 -1.74005e-05)
(0.000100308 -4.44961e-05 -1.70558e-05)
(9.71217e-05 -5.07526e-05 -1.58e-05)
(8.50575e-05 -5.43102e-05 -1.46351e-05)
(6.49726e-05 -5.17427e-05 -1.5642e-05)
(4.02939e-05 -3.60657e-05 -1.78488e-05)
(1.34005e-05 -2.15233e-05 -2.03093e-05)
(-1.84267e-05 7.95352e-06 -3.49493e-05)
(-2.58457e-05 -1.42156e-05 -3.409e-05)
(-3.15485e-05 -3.28045e-05 -2.10223e-05)
(-1.49611e-05 -1.40101e-05 -3.60735e-06)
(-2.61199e-05 -2.46278e-05 -1.0032e-06)
(-1.69852e-05 -1.78719e-05 4.15786e-06)
(-1.04545e-05 -2.02939e-05 -1.78357e-07)
(-8.02755e-06 -2.58083e-05 4.81343e-06)
(-4.74317e-06 -1.70221e-05 6.23145e-06)
(-8.96791e-06 -2.13601e-05 8.63577e-06)
(-1.9577e-05 -1.27146e-06 4.6286e-06)
(3.09239e-05 2.7305e-07 1.86718e-05)
(5.05227e-05 -4.26225e-06 -2.77091e-06)
(6.0408e-05 -8.87901e-06 -7.0079e-06)
(6.80189e-05 -1.4819e-05 -9.46532e-06)
(7.47919e-05 -2.14812e-05 -1.11087e-05)
(8.14609e-05 -2.83591e-05 -1.2328e-05)
(8.79556e-05 -3.51264e-05 -1.32105e-05)
(9.30513e-05 -4.1584e-05 -1.37014e-05)
(9.49246e-05 -4.71834e-05 -1.3874e-05)
(9.13647e-05 -5.17386e-05 -1.4099e-05)
(8.03653e-05 -5.27154e-05 -1.47884e-05)
(6.21717e-05 -4.51766e-05 -1.6602e-05)
(3.58704e-05 -2.92052e-05 -2.03097e-05)
(9.10165e-07 -1.9082e-05 -2.64041e-05)
(-4.16951e-06 -5.88801e-06 -3.44908e-05)
(-8.40679e-06 7.6167e-06 -3.0555e-05)
(-3.90687e-06 -1.1114e-05 -2.10053e-05)
(1.29436e-07 -1.31993e-05 -7.74405e-06)