/*--------------------------------*- C++ -*----------------------------------*\
  =========                 |
  \\      /  F ield         | OpenFOAM: The Open Source CFD Toolbox
   \\    /   O peration     | Website:  https://openfoam.org
    \\  /    A nd           | Version:  6
     \\/     M anipulation  |
\*---------------------------------------------------------------------------*/
FoamFile
{
    version     2.0;
    format      ascii;
    class       volScalarField;
    location    "14";
    object      omega;
}
// * * * * * * * * * * * * * * * * * * * * * * * * * * * * * * * * * * * * * //

dimensions      [0 0 -1 0 0 0 0];

internalField   nonuniform List<scalar> 
380496
(
843.917
843.917
843.917
843.917
843.917
843.917
843.917
843.917
843.917
843.917
843.917
843.917
843.917
843.917
843.917
843.917
843.917
843.917
843.917
843.917
843.917
843.917
843.917
843.917
843.917
843.917
843.917
843.917
843.917
843.917
843.917
843.917
843.917
843.917
843.917
843.917
843.917
843.917
843.917
843.917
843.917
843.917
843.917
843.917
843.917
843.917
843.917
843.917
843.917
843.917
843.917
843.917
843.917
843.917
843.917
843.917
843.917
843.917
843.917
843.917
843.917
843.917
843.917
843.917
843.917
843.917
843.917
843.917
843.917
843.917
843.917
843.917
843.917
843.917
843.917
843.917
843.917
843.917
843.917
843.917
843.917
843.917
843.917
843.917
843.917
843.917
843.917
843.917
843.917
843.917
843.917
843.917
843.917
843.917
843.917
843.917
843.917
843.917
843.917
843.917
843.917
843.917
843.917
843.917
843.917
843.917
843.917
843.917
843.917
843.917
843.917
843.917
843.917
843.917
843.917
843.917
843.917
843.917
843.917
843.917
843.917
843.917
843.917
843.917
843.917
843.917
843.917
843.917
843.917
843.917
843.917
843.917
843.917
843.917
843.917
843.917
843.917
843.917
843.917
843.917
843.917
843.917
843.917
843.917
843.917
843.917
843.917
843.917
843.917
843.917
843.917
843.917
843.917
843.917
843.917
843.917
843.917
843.917
843.917
843.917
843.917
843.917
843.917
843.917
843.917
843.917
843.917
843.917
843.917
843.917
843.917
843.917
843.917
843.917
843.917
843.917
843.917
843.917
843.917
843.917
843.917
843.917
843.917
843.917
843.917
843.917
843.917
843.917
843.917
843.917
843.917
843.917
843.917
843.917
843.917
843.917
843.917
843.917
843.917
843.917
843.917
843.917
843.917
843.917
843.917
843.917
843.917
843.917
843.917
843.917
843.917
843.917
843.917
843.917
843.917
843.917
843.917
843.917
843.917
843.917
843.917
843.917
843.917
843.917
843.917
843.917
843.917
843.917
843.917
843.917
843.917
843.917
843.917
843.917
843.917
843.917
843.917
843.917
843.917
843.917
843.917
843.917
843.917
843.917
843.917
843.917
843.917
843.917
843.917
843.917
843.917
843.917
843.917
843.917
843.917
843.917
843.917
843.917
843.917
843.917
843.917
843.917
843.917
843.917
843.917
843.917
843.917
843.917
843.917
843.917
843.917
843.917
843.917
843.917
843.917
843.917
843.917
843.917
843.917
843.917
843.917
843.917
843.917
843.917
843.917
843.917
843.917
843.917
843.917
843.917
843.917
843.917
843.917
843.917
843.917
843.917
843.917
843.917
843.917
843.917
843.917
843.917
843.917
843.917
843.917
843.917
843.917
843.917
843.917
843.917
843.917
843.917
843.917
843.917
843.917
843.917
843.917
843.917
843.917
843.917
843.917
843.917
843.917
843.917
843.917
843.917
843.917
843.917
843.917
843.917
843.917
843.917
843.917
843.917
843.917
843.917
843.917
843.917
843.917
843.917
843.917
843.917
843.917
843.917
843.917
843.917
843.917
843.917
843.917
843.917
843.917
843.917
843.917
843.917
843.917
843.917
843.917
843.917
843.917
843.917
843.917
843.917
843.917
843.917
843.917
843.917
843.917
843.917
843.917
843.917
843.917
843.917
843.917
843.917
843.917
843.917
843.917
843.917
843.917
843.917
843.917
843.917
843.917
843.917
843.917
843.917
843.917
843.917
843.917
843.917
843.917
843.917
843.917
843.917
843.917
843.917
843.917
843.917
843.917
843.917
843.917
843.917
843.917
843.917
843.917
843.917
843.917
843.917
843.917
843.917
843.917
843.917
843.917
843.917
843.917
843.917
843.917
843.917
843.917
843.917
843.917
843.917
843.917
843.917
843.917
843.917
843.917
843.917
843.917
843.917
843.917
843.917
843.917
843.917
843.917
843.917
843.917
843.917
843.917
843.917
843.917
843.917
843.917
843.917
843.917
843.917
843.917
843.917
843.917
843.917
843.917
843.917
843.917
843.917
843.917
843.917
843.917
843.917
843.917
843.917
843.917
843.917
843.917
843.917
843.917
843.917
843.917
843.917
843.917
843.917
843.917
843.917
843.917
843.917
843.917
843.917
843.917
843.917
843.917
843.917
843.917
843.917
843.917
843.917
843.917
843.917
843.917
843.917
843.917
843.917
843.917
843.917
843.917
843.917
843.917
843.917
843.917
843.917
843.917
843.917
843.917
843.917
843.917
843.917
843.917
843.917
843.917
843.917
843.917
843.917
843.917
843.917
843.917
843.917
843.917
843.917
843.917
843.917
843.917
843.917
843.917
843.917
843.917
843.917
843.917
843.917
843.917
843.917
843.917
843.917
843.917
843.917
843.917
843.917
843.917
843.917
843.917
843.917
843.917
843.917
843.917
843.917
843.917
843.917
843.917
843.917
843.917
843.917
843.917
843.917
843.917
843.917
843.917
843.917
843.917
843.917
843.917
843.917
843.917
843.917
843.917
843.917
843.917
843.917
843.917
843.917
843.917
843.917
843.917
843.917
843.917
843.917
843.917
843.917
843.917
843.917
843.917
843.917
843.917
843.917
843.917
843.917
843.917
843.917
843.917
843.917
843.917
843.917
843.917
843.917
843.917
843.917
843.917
843.917
843.917
843.917
843.917
843.917
843.917
843.917
843.917
843.917
843.917
843.917
843.917
843.917
843.917
843.917
843.917
843.917
843.917
843.917
843.917
843.917
843.917
843.917
843.917
843.917
843.917
843.917
843.917
843.917
843.917
843.917
843.917
843.917
843.917
843.917
843.917
843.917
843.917
843.917
843.917
843.917
843.917
843.917
843.917
843.917
843.917
843.917
843.917
843.917
843.917
843.917
843.917
843.917
843.917
843.917
843.917
843.917
843.917
843.917
843.917
843.917
843.917
843.917
843.917
843.917
843.917
843.917
843.917
843.917
843.917
843.917
843.917
843.917
843.917
843.917
843.917
843.917
843.917
843.917
843.917
843.917
843.917
843.917
843.917
843.917
843.917
843.917
843.917
843.917
843.917
843.917
843.917
843.917
843.917
843.917
843.917
843.917
843.917
843.917
843.917
843.917
843.917
843.917
843.917
843.917
843.917
843.917
423.923
423.923
423.923
423.923
423.923
424.288
424.304
424.304
424.272
424.295
424.319
424.34
424.363
424.382
424.405
424.425
424.449
424.471
424.498
424.521
424.551
424.576
424.609
424.636
424.672
424.702
424.742
424.772
424.818
424.846
424.9
424.92
424.988
424.988
425.071
275.638
262.144
263.673
264.573
264.559
264.418
264.334
264.29
264.265
264.255
264.248
264.251
264.251
264.261
264.266
264.28
264.289
264.306
264.319
264.341
264.359
264.385
264.411
264.442
264.474
264.514
264.553
264.604
264.65
264.712
264.764
264.839
264.892
264.988
265.021
275.379
261.96
263.393
264.252
264.226
264.084
263.997
263.954
263.93
263.922
263.918
263.924
263.929
263.942
263.952
263.971
263.985
264.01
264.027
264.059
264.08
264.12
264.147
264.195
264.228
264.285
264.327
264.392
264.444
264.517
264.576
264.66
264.711
264.83
264.788
274.938
261.626
263.023
263.851
263.811
263.668
263.58
263.542
263.52
263.519
263.519
263.533
263.543
263.565
263.583
263.611
263.634
263.668
263.697
263.737
263.774
263.822
263.866
263.924
263.975
264.045
264.103
264.186
264.25
264.346
264.415
264.526
264.587
264.737
264.707
274.255
261.102
262.54
263.341
263.28
263.131
263.045
263.012
262.996
263.004
263.011
263.035
263.053
263.085
263.11
263.15
263.18
263.227
263.264
263.32
263.363
263.429
263.479
263.556
263.615
263.703
263.771
263.87
263.948
264.058
264.142
264.266
264.339
264.508
264.479
273.787
260.732
262.024
262.77
262.702
262.553
262.469
262.438
262.427
262.437
262.451
262.479
262.504
262.543
262.575
262.623
262.662
262.719
262.765
262.832
262.886
262.964
263.027
263.117
263.19
263.292
263.375
263.49
263.582
263.709
263.808
263.951
264.037
264.232
264.206
272.915
260.038
261.328
262.034
261.947
261.796
261.717
261.695
261.693
261.715
261.739
261.778
261.813
261.863
261.906
261.964
262.015
262.083
262.142
262.22
262.289
262.378
262.457
262.558
262.648
262.762
262.862
262.989
263.098
263.24
263.353
263.514
263.61
263.831
263.801
272.061
259.34
260.531
261.18
261.08
260.929
260.857
260.842
260.849
260.88
260.913
260.962
261.006
261.066
261.119
261.188
261.249
261.328
261.398
261.49
261.569
261.674
261.764
261.882
261.983
262.115
262.227
262.373
262.494
262.655
262.78
262.961
263.068
263.313
263.284
271.026
258.479
259.567
260.157
260.044
259.896
259.832
259.828
259.847
259.888
259.933
259.991
260.046
260.116
260.179
260.259
260.331
260.422
260.504
260.607
260.7
260.817
260.921
261.052
261.168
261.314
261.441
261.602
261.737
261.913
262.053
262.25
262.368
262.636
262.604
269.807
257.456
258.457
258.985
258.857
258.715
258.666
258.677
258.711
258.767
258.825
258.896
258.963
259.044
259.119
259.21
259.294
259.397
259.491
259.607
259.713
259.843
259.96
260.106
260.235
260.396
260.536
260.712
260.861
261.052
261.204
261.419
261.546
261.836
261.801
268.657
256.454
257.277
257.74
257.61
257.478
257.442
257.466
257.512
257.578
257.646
257.726
257.803
257.892
257.977
258.077
258.171
258.284
258.389
258.516
258.633
258.775
258.904
259.062
259.204
259.378
259.53
259.72
259.88
260.086
260.249
260.478
260.614
260.923
260.885
267.087
255.101
255.846
256.251
256.111
255.995
255.985
256.033
256.102
256.187
256.272
256.368
256.459
256.562
256.66
256.772
256.879
257.003
257.121
257.26
257.39
257.545
257.687
257.858
258.013
258.2
258.365
258.568
258.741
258.961
259.135
259.379
259.524
259.852
259.809
265.666
253.803
254.279
254.616
254.485
254.389
254.4
254.465
254.548
254.644
254.741
254.846
254.947
255.059
255.167
255.289
255.407
255.542
255.671
255.821
255.963
256.13
256.285
256.468
256.635
256.836
257.014
257.23
257.416
257.649
257.835
258.093
258.246
258.593
258.545
263.602
251.962
252.321
252.61
252.486
252.426
252.479
252.579
252.694
252.816
252.935
253.058
253.177
253.304
253.428
253.563
253.695
253.843
253.986
254.15
254.305
254.485
254.654
254.852
255.032
255.247
255.438
255.669
255.867
256.114
256.312
256.585
256.746
257.113
257.058
261.657
250.111
250.128
250.362
250.265
250.245
250.334
250.461
250.598
250.737
250.872
251.008
251.142
251.28
251.417
251.564
251.708
251.868
252.025
252.201
252.37
252.563
252.745
252.956
253.151
253.379
253.584
253.829
254.04
254.302
254.511
254.8
254.97
255.357
255.292
258.961
247.586
247.37
247.584
247.529
247.576
247.729
247.905
248.082
248.252
248.414
248.57
248.723
248.878
249.031
249.192
249.352
249.524
249.695
249.883
250.066
250.272
250.469
250.693
250.902
251.144
251.363
251.622
251.847
252.124
252.345
252.649
252.83
253.238
253.164
255.939
244.637
244.052
244.272
244.29
244.42
244.641
244.867
245.082
245.282
245.468
245.643
245.813
245.98
246.146
246.317
246.488
246.67
246.852
247.05
247.246
247.462
247.672
247.908
248.131
248.387
248.621
248.896
249.135
249.429
249.665
249.986
250.179
250.609
250.529
252.317
240.988
239.927
240.186
240.311
240.557
240.861
241.144
241.393
241.615
241.811
241.993
242.165
242.334
242.501
242.673
242.848
243.033
243.223
243.428
243.636
243.864
244.09
244.341
244.583
244.857
245.112
245.406
245.668
245.982
246.242
246.584
246.802
247.255
247.19
246.448
235.384
234.178
234.679
234.988
235.386
235.783
236.12
236.39
236.624
236.816
237
237.166
237.339
237.509
237.694
237.882
238.088
238.3
238.531
238.768
239.027
239.287
239.571
239.85
240.158
240.452
240.781
241.082
241.431
241.73
242.103
242.363
242.836
242.819
238.155
227.579
225.862
226.732
227.333
227.911
228.378
228.737
229.005
229.247
229.449
229.664
229.861
230.085
230.299
230.545
230.783
231.054
231.319
231.615
231.907
232.228
232.545
232.889
233.227
233.592
233.946
234.328
234.691
235.088
235.45
235.867
236.197
236.697
236.815
218.095
211.367
210.037
211.656
212.786
213.679
214.359
214.895
215.334
215.738
216.087
216.435
216.746
217.077
217.379
217.714
218.026
218.38
218.714
219.095
219.455
219.86
220.247
220.676
221.09
221.538
221.973
222.433
222.882
223.348
223.801
224.262
224.696
225.095
225.347
9.50427
8.83562
9.16122
9.29917
9.37668
9.4256
9.47167
9.50631
9.53618
9.5713
9.61522
9.64887
9.69217
9.72523
9.77047
9.80529
9.85414
9.89191
9.94508
9.98615
10.0439
10.0882
10.1512
10.1981
10.2673
10.3149
10.392
10.437
10.5251
10.5614
10.6662
10.6833
10.8142
10.7917
10.9532
133.591
127.215
127.094
127.665
127.852
127.834
127.782
127.738
127.708
127.688
127.675
127.669
127.665
127.667
127.669
127.675
127.682
127.692
127.703
127.717
127.732
127.749
127.77
127.792
127.819
127.847
127.881
127.916
127.959
128.001
128.058
128.109
128.178
128.244
128.328
133.311
126.951
126.79
127.334
127.509
127.487
127.433
127.388
127.358
127.339
127.328
127.323
127.323
127.327
127.333
127.342
127.354
127.367
127.383
127.401
127.422
127.444
127.471
127.499
127.532
127.565
127.607
127.647
127.698
127.745
127.807
127.863
127.93
128.012
128.044
132.937
126.596
126.417
126.944
127.109
127.085
127.028
126.985
126.956
126.941
126.933
126.932
126.936
126.945
126.956
126.971
126.988
127.008
127.031
127.056
127.084
127.114
127.149
127.185
127.227
127.27
127.322
127.371
127.433
127.489
127.564
127.628
127.71
127.801
127.849
132.435
126.122
125.96
126.48
126.635
126.605
126.547
126.505
126.479
126.468
126.465
126.47
126.479
126.494
126.511
126.532
126.555
126.582
126.611
126.643
126.678
126.716
126.759
126.803
126.853
126.903
126.963
127.02
127.09
127.155
127.236
127.309
127.393
127.493
127.542
132.014
125.739
125.522
126
126.14
126.103
126.044
126.002
125.976
125.967
125.966
125.974
125.987
126.005
126.026
126.052
126.08
126.112
126.146
126.184
126.226
126.27
126.319
126.37
126.428
126.486
126.553
126.619
126.696
126.769
126.857
126.94
127.03
127.141
127.194
131.387
125.155
124.944
125.405
125.53
125.487
125.426
125.386
125.365
125.362
125.367
125.381
125.4
125.425
125.452
125.485
125.519
125.558
125.599
125.644
125.692
125.744
125.8
125.859
125.924
125.99
126.064
126.138
126.223
126.303
126.398
126.487
126.583
126.701
126.756
130.745
124.568
124.324
124.747
124.852
124.801
124.739
124.701
124.684
124.684
124.695
124.714
124.738
124.769
124.802
124.84
124.88
124.925
124.972
125.024
125.078
125.137
125.2
125.266
125.338
125.412
125.494
125.575
125.666
125.754
125.856
125.953
126.052
126.181
126.236
129.997
123.88
123.603
123.985
124.068
124.01
123.947
123.912
123.9
123.906
123.922
123.948
123.978
124.015
124.053
124.098
124.144
124.195
124.248
124.306
124.368
124.433
124.503
124.576
124.655
124.736
124.824
124.912
125.011
125.106
125.213
125.317
125.42
125.557
125.612
129.152
123.104
122.799
123.139
123.199
123.132
123.07
123.041
123.036
123.05
123.074
123.107
123.145
123.188
123.233
123.284
123.336
123.394
123.454
123.519
123.587
123.659
123.736
123.816
123.901
123.989
124.085
124.179
124.284
124.386
124.499
124.61
124.717
124.863
124.917
128.333
122.355
121.978
122.26
122.296
122.222
122.163
122.139
122.14
122.161
122.191
122.23
122.272
122.321
122.372
122.428
122.486
122.549
122.614
122.685
122.758
122.837
122.919
123.005
123.097
123.191
123.293
123.394
123.504
123.612
123.73
123.848
123.958
124.111
124.164
127.304
121.401
120.996
121.234
121.245
121.165
121.112
121.098
121.111
121.143
121.183
121.232
121.283
121.34
121.398
121.462
121.526
121.596
121.668
121.746
121.826
121.911
122
122.093
122.191
122.292
122.4
122.508
122.624
122.738
122.862
122.986
123.099
123.261
123.312
126.312
120.489
119.958
120.117
120.1
120.017
119.97
119.966
119.988
120.027
120.075
120.131
120.189
120.251
120.316
120.385
120.455
120.531
120.609
120.692
120.778
120.87
120.965
121.065
121.169
121.277
121.391
121.505
121.628
121.748
121.877
122.008
122.124
122.295
122.343
125.004
119.264
118.671
118.778
118.737
118.653
118.621
118.634
118.674
118.729
118.791
118.859
118.927
119
119.073
119.151
119.229
119.313
119.398
119.489
119.582
119.681
119.784
119.891
120.002
120.117
120.237
120.359
120.488
120.615
120.75
120.888
121.008
121.189
121.232
123.705
118.045
117.265
117.276
117.207
117.129
117.113
117.143
117.198
117.266
117.34
117.417
117.495
117.576
117.657
117.742
117.827
117.918
118.011
118.109
118.209
118.315
118.424
118.538
118.656
118.778
118.906
119.034
119.17
119.305
119.446
119.591
119.715
119.906
119.944
122.019
116.445
115.512
115.453
115.364
115.3
115.313
115.37
115.45
115.539
115.63
115.722
115.813
115.905
115.996
116.09
116.184
116.283
116.383
116.489
116.596
116.71
116.826
116.948
117.073
117.203
117.338
117.473
117.617
117.758
117.906
118.059
118.188
118.391
118.424
120.107
114.604
113.423
113.275
113.175
113.137
113.184
113.273
113.38
113.491
113.6
113.706
113.81
113.911
114.012
114.113
114.215
114.32
114.426
114.538
114.652
114.772
114.895
115.024
115.157
115.293
115.435
115.579
115.73
115.879
116.035
116.196
116.332
116.546
116.574
117.825
112.372
110.841
110.583
110.476
110.478
110.574
110.704
110.84
110.972
111.096
111.213
111.323
111.43
111.535
111.64
111.746
111.854
111.965
112.082
112.202
112.327
112.458
112.594
112.735
112.881
113.033
113.186
113.348
113.508
113.676
113.848
113.996
114.226
114.261
114.184
108.832
107.096
106.874
106.836
106.924
107.088
107.27
107.438
107.593
107.728
107.853
107.966
108.077
108.184
108.294
108.405
108.522
108.643
108.771
108.905
109.045
109.191
109.345
109.504
109.668
109.839
110.012
110.193
110.373
110.561
110.751
110.921
111.164
111.216
108.727
103.94
101.682
101.431
101.489
101.683
101.915
102.132
102.311
102.477
102.618
102.762
102.893
103.034
103.169
103.317
103.462
103.62
103.777
103.946
104.116
104.297
104.48
104.671
104.866
105.068
105.273
105.482
105.697
105.911
106.131
106.353
106.562
106.832
106.951
94.0524
94.1822
91.3699
90.7407
90.7684
91.0934
91.5096
91.9152
92.2892
92.6436
92.9647
93.2718
93.5497
93.821
94.0694
94.3187
94.5527
94.7935
95.0239
95.2607
95.4879
95.7239
95.9557
96.1976
96.4377
96.6861
96.9337
97.1868
97.441
97.6944
97.9564
98.1953
98.4786
98.6379
98.9388
11.5219
10.7695
11.096
11.221
11.3
11.3517
11.4003
11.4364
11.4737
11.5058
11.5483
11.5795
11.6226
11.6541
11.7001
11.7338
11.7839
11.8209
11.8757
11.9161
11.9757
12.0193
12.0843
12.1301
12.2014
12.2475
12.3267
12.3694
12.4598
12.4927
12.6001
12.6128
12.746
12.7195
12.8828
79.3735
76.7492
76.2134
76.3798
76.5396
76.5868
76.5787
76.5548
76.5314
76.5119
76.4978
76.4868
76.4804
76.4755
76.4744
76.4736
76.4762
76.4786
76.4841
76.4892
76.4972
76.5049
76.5157
76.5257
76.5403
76.5522
76.5719
76.5853
76.6119
76.6268
76.6616
76.6799
76.7227
76.7489
76.8015
79.1304
76.5262
75.9807
76.1315
76.2815
76.3233
76.3122
76.2864
76.2622
76.2425
76.2289
76.2188
76.2138
76.2104
76.2115
76.2124
76.2182
76.2219
76.2317
76.2377
76.2514
76.2593
76.2771
76.2871
76.3091
76.3217
76.3483
76.3639
76.3961
76.4141
76.4536
76.4743
76.5187
76.5477
76.5905
78.8428
76.2491
75.6996
75.8411
75.9839
76.0211
76.0075
75.9804
75.9562
75.937
75.9248
75.9164
75.9136
75.9126
75.9164
75.9205
75.929
75.9369
75.9494
75.9605
75.9769
75.9906
76.0116
76.0274
76.0541
76.0712
76.105
76.1229
76.1655
76.184
76.2356
76.2578
76.3125
76.3505
76.3941
78.4941
75.9018
75.3598
75.5004
75.6382
75.6707
75.654
75.6256
75.6017
75.5837
75.5736
75.5676
75.568
75.5699
75.5775
75.5846
75.5977
75.6084
75.6262
75.6398
75.6624
75.6786
75.7062
75.7248
75.7579
75.7789
75.8183
75.8414
75.8881
75.9132
75.9678
75.996
76.0539
76.0932
76.1456
78.1501
75.5902
75.0361
75.1538
75.276
75.3
75.2786
75.248
75.2231
75.2052
75.1959
75.1913
75.1933
75.1971
75.207
75.2164
75.2322
75.2456
75.2667
75.2833
75.3095
75.3291
75.3607
75.383
75.4205
75.4454
75.4896
75.5168
75.5686
75.5979
75.6575
75.6905
75.753
75.7983
75.8544
77.7112
75.162
74.6156
74.7272
74.8399
74.8565
74.8309
74.7988
74.7743
74.7582
74.7514
74.7498
74.7551
74.7626
74.7759
74.7894
74.8086
74.8265
74.8508
74.8725
74.9018
74.9269
74.9615
74.9897
75.0303
75.0611
75.1088
75.1414
75.1974
75.2309
75.2959
75.3311
75.4002
75.445
75.5096
77.2391
74.7181
74.1676
74.2598
74.3559
74.362
74.331
74.2969
74.2724
74.2577
74.253
74.2541
74.2623
74.2728
74.2893
74.3059
74.3287
74.3497
74.3781
74.4028
74.4366
74.4646
74.5044
74.5353
74.5816
74.6151
74.6685
74.7041
74.7656
74.8025
74.872
74.9117
74.9837
75.0342
75.1003
76.6972
74.2067
73.6529
73.7238
73.8012
73.7956
73.7588
73.723
73.699
73.6863
73.6843
73.6885
73.7
73.714
73.734
73.7542
73.7805
73.8053
73.8372
73.8659
73.9034
73.9356
73.9791
74.0145
74.0645
74.1026
74.16
74.1999
74.2655
74.3064
74.3803
74.4232
74.4995
74.5522
74.6228
76.0999
73.6405
73.0851
73.1342
73.191
73.1723
73.1295
73.0925
73.0701
73.0605
73.0622
73.0706
73.0861
73.1042
73.1281
73.1523
73.1825
73.2112
73.247
73.2795
73.321
73.3572
73.4048
73.4441
73.4985
73.5404
73.6023
73.6458
73.716
73.7604
73.8386
73.8851
73.9648
74.0215
74.0944
75.4988
73.0835
72.509
72.5232
72.5547
72.5222
72.4742
72.4366
72.4159
72.4093
72.4142
72.4261
72.4451
72.4668
72.494
72.5217
72.5551
72.5872
72.6264
72.6625
72.7075
72.7471
72.7984
72.8413
72.8995
72.945
73.0108
73.0579
73.132
73.1797
73.2617
73.3115
73.3943
73.4543
73.5293
74.7877
72.4069
71.8275
71.8171
71.8252
71.7785
71.7254
71.6887
71.6716
71.67
71.6803
71.6976
71.7217
71.7484
71.7803
71.8125
71.8502
71.8866
71.9298
71.97
72.0191
72.0628
72.1182
72.1651
72.2274
72.2768
72.3468
72.3977
72.4761
72.5273
72.6133
72.6666
72.7526
72.8165
72.8932
74.0534
71.7341
71.1101
71.0453
71.0185
70.9556
70.8985
70.8633
70.8502
70.8534
70.8686
70.8908
70.9193
70.9503
70.9862
71.0225
71.064
71.1043
71.1513
71.1953
71.2482
71.2958
71.3551
71.4059
71.4723
71.5256
71.5998
71.6543
71.737
71.7918
71.882
71.9388
72.028
72.0961
72.1739
73.1494
70.8786
70.2307
70.1295
70.0732
69.9955
69.9359
69.9049
69.8987
69.9098
69.9327
69.9622
69.9973
70.0347
70.0763
70.1181
70.1648
70.2102
70.2619
70.3107
70.3682
70.4204
70.4843
70.5395
70.6106
70.6681
70.7471
70.8056
70.8931
70.9517
71.0464
71.1072
71.1999
71.2729
71.3517
72.1923
69.9974
69.2694
69.0937
68.9938
68.8996
68.8396
68.8148
68.8167
68.8362
68.867
68.9039
68.9456
68.9892
69.0363
69.0835
69.1349
69.1852
69.2415
69.295
69.3569
69.4136
69.482
69.5416
69.6173
69.679
69.7629
69.8254
69.918
69.9803
70.0801
70.1446
70.2412
70.3193
70.3985
71.0025
68.8811
68.0803
67.8421
67.7032
67.5955
67.5389
67.5242
67.5382
67.5697
67.6111
67.6576
67.7075
67.7587
67.8124
67.8659
67.9229
67.9788
68.0401
68.0988
68.1654
68.227
68.3002
68.3646
68.4452
68.5115
68.6006
68.6674
68.7655
68.8317
68.9373
69.0059
69.1074
69.1914
69.2724
69.6098
67.5791
66.6556
66.3306
66.1469
66.0288
65.9801
65.9792
66.0077
66.0525
66.1056
66.1621
66.2204
66.2791
66.3389
66.3984
66.4603
66.5213
66.5869
66.6505
66.7214
66.7879
66.8655
66.9348
67.0202
67.0913
67.1857
67.2573
67.3614
67.4321
67.5443
67.617
67.7249
67.8143
67.8977
67.9185
65.9889
64.882
64.4394
64.1988
64.0705
64.0339
64.0506
64.0958
64.1546
64.2187
64.2839
64.3491
64.4134
64.478
64.5421
64.6079
64.6734
64.7427
64.8111
64.886
64.9579
65.0401
65.1155
65.2063
65.2842
65.3849
65.4634
65.575
65.6523
65.7735
65.8524
65.9709
66.0678
66.1626
65.3965
63.5126
62.2588
61.7692
61.5194
61.4089
61.399
61.4405
61.5057
61.58
61.6557
61.7293
61.8011
61.8708
61.9405
62.0098
62.0814
62.1537
62.2302
62.3075
62.3911
62.4739
62.566
62.6539
62.7557
62.8471
62.9595
63.052
63.1762
63.267
63.4022
63.4925
63.6276
63.7323
63.8439
61.5623
60.0531
58.4392
57.7748
57.4765
57.3799
57.4011
57.4696
57.5576
57.6505
57.7462
57.8402
57.9365
58.031
58.1295
58.2267
58.329
58.4303
58.5373
58.6433
58.7557
58.8669
58.9852
59.1011
59.2263
59.3454
59.4787
59.5985
59.7413
59.8586
60.0121
60.126
60.2846
60.4075
60.5617
52.9315
55.1642
53.2042
51.9868
51.3895
51.188
51.2126
51.3253
51.4866
51.657
51.8413
52.0151
52.1947
52.3577
52.5268
52.6779
52.8383
52.9812
53.1354
53.2715
53.4192
53.5512
53.6958
53.8289
53.9735
54.11
54.2555
54.3946
54.5435
54.68
54.8407
54.9562
55.1543
55.1992
55.4645
13.0789
12.3579
12.7412
12.8832
12.9669
13.0167
13.0622
13.0936
13.1304
13.1571
13.1963
13.2231
13.2646
13.2928
13.3384
13.3697
13.4202
13.4553
13.5111
13.55
13.6111
13.6533
13.7202
13.7647
13.8381
13.8828
13.9643
14.0053
14.0983
14.1292
14.2392
14.2499
14.385
14.3589
14.5219
52.7832
51.7579
51.3203
51.2782
51.3466
51.394
51.4081
51.4018
51.3894
51.3745
51.3628
51.351
51.3437
51.3359
51.3326
51.3281
51.3277
51.3257
51.3274
51.3275
51.3309
51.3327
51.3379
51.3404
51.3484
51.3504
51.3625
51.3633
51.3801
51.38
51.4015
51.4023
51.4266
51.4339
51.4571
52.5867
51.5748
51.1396
51.0913
51.1537
51.1961
51.2071
51.1985
51.1847
51.1691
51.157
51.1455
51.1388
51.1315
51.1298
51.1254
51.1279
51.1252
51.1314
51.1297
51.1392
51.1382
51.1506
51.1503
51.1653
51.166
51.1837
51.1849
51.2065
51.2069
51.2342
51.2325
51.2665
51.2598
51.308
52.3671
51.3603
50.9262
50.8741
50.9323
50.9705
50.979
50.9678
50.9533
50.9365
50.9248
50.9131
50.9075
50.901
50.9003
50.8978
50.9009
50.9013
50.9076
50.9098
50.9193
50.9224
50.9357
50.9386
50.9566
50.9581
50.9821
50.9815
51.0119
51.0097
51.0455
51.0448
51.0815
51.0887
51.1219
52.1144
51.1046
50.674
50.6226
50.6789
50.714
50.7196
50.7062
50.6907
50.6733
50.6623
50.6509
50.647
50.6412
50.6432
50.6413
50.6481
50.6486
50.6595
50.6615
50.6764
50.6792
50.698
50.7012
50.7242
50.7275
50.7549
50.7579
50.7905
50.7928
50.8308
50.8328
50.8747
50.8773
50.9255
51.844
50.8526
50.4247
50.3646
50.4106
50.438
50.4381
50.4216
50.4038
50.3856
50.374
50.363
50.3595
50.3546
50.3578
50.3569
50.3653
50.367
50.3799
50.3833
50.4004
50.4048
50.426
50.4311
50.4567
50.4619
50.4923
50.4973
50.5332
50.5376
50.5789
50.5837
50.6282
50.6355
50.6844
51.5236
50.5345
50.1128
50.0522
50.0935
50.1152
50.1109
50.0912
50.0719
50.053
50.0419
50.0316
50.0295
50.0263
50.031
50.0325
50.0423
50.0471
50.0611
50.0682
50.0862
50.0948
50.1168
50.1263
50.1529
50.1623
50.1946
50.2028
50.2419
50.2479
50.2944
50.2985
50.3503
50.3539
50.4122
51.1696
50.1936
49.7765
49.7091
49.7402
49.753
49.7422
49.7187
49.6973
49.6778
49.6668
49.6574
49.6565
49.6547
49.6612
49.6641
49.6762
49.6822
49.6992
49.7071
49.7286
49.7378
49.7639
49.7737
49.8048
49.8146
49.8514
49.8604
49.9035
49.9112
49.9607
49.9677
50.0212
50.029
50.088
50.7657
49.8042
49.3929
49.318
49.3373
49.3398
49.3217
49.2939
49.2704
49.2503
49.2397
49.2314
49.2319
49.2319
49.2402
49.2452
49.2593
49.2676
49.2865
49.297
49.3205
49.3324
49.3605
49.3732
49.4066
49.4192
49.4585
49.47
49.5162
49.5258
49.579
49.587
49.645
49.6525
49.7169
50.3251
49.3784
48.9731
48.8904
48.8966
48.8874
48.8612
48.829
48.8034
48.7832
48.7733
48.7666
48.7689
48.771
48.7814
48.7886
48.805
48.8155
48.8368
48.8494
48.8754
48.8895
48.9204
48.9351
48.9715
48.986
49.0285
49.0419
49.0915
49.1027
49.1594
49.1691
49.2303
49.2395
49.3068
49.8716
48.9497
48.5449
48.4466
48.4346
48.4115
48.3768
48.3405
48.3134
48.2934
48.2846
48.2797
48.2838
48.2879
48.3004
48.3098
48.3282
48.3409
48.3644
48.3792
48.4074
48.4236
48.4569
48.4738
48.5127
48.5293
48.5746
48.5899
48.6425
48.6555
48.7153
48.7266
48.7907
48.8013
48.8714
49.3498
48.4479
48.0479
47.9395
47.9116
47.8746
47.8309
47.7902
47.7615
47.7422
47.7348
47.7321
47.7386
47.7454
47.7604
47.7724
47.7934
47.8086
47.8345
47.8519
47.8827
47.9013
47.9373
47.9564
47.9982
48.017
48.0653
48.0827
48.1384
48.1534
48.2164
48.2295
48.2965
48.309
48.3817
48.7893
47.9266
47.5169
47.3803
47.3246
47.2688
47.2153
47.1709
47.1418
47.1241
47.1191
47.1194
47.1286
47.1384
47.1561
47.171
47.1945
47.2124
47.2409
47.2608
47.2941
47.3152
47.3539
47.3754
47.4201
47.4412
47.4925
47.512
47.571
47.5879
47.6542
47.6692
47.7393
47.7537
47.8288
48.1201
47.293
46.8806
46.7253
46.6467
46.5732
46.5096
46.4614
46.4318
46.4161
46.4137
46.4175
46.43
46.4434
46.4643
46.4827
46.5093
46.5304
46.5619
46.5847
46.6211
46.645
46.6868
46.711
46.7589
46.7825
46.8373
46.8591
46.9217
46.9407
47.0107
47.0278
47.1011
47.1179
47.1957
47.3839
46.6132
46.1743
45.9756
45.8588
45.7621
45.6882
45.6379
45.61
45.5983
45.6002
45.6087
45.6254
45.6432
45.6677
45.6899
45.7198
45.7443
45.7788
45.8048
45.8442
45.8709
45.9159
45.9427
45.9939
46.0199
46.0784
46.1023
46.169
46.1898
46.264
46.2829
46.36
46.3791
46.4595
46.4841
45.7767
45.3134
45.0764
44.9236
44.8041
44.72
44.6679
44.642
44.6346
44.6409
44.6546
44.6755
44.698
44.7261
44.7524
44.7853
44.8136
44.8511
44.8805
44.9228
44.9528
45.0009
45.0307
45.0855
45.1141
45.1767
45.2029
45.274
45.2969
45.3759
45.3968
45.4786
45.5003
45.5849
45.4148
44.7866
44.275
43.9805
43.7816
43.6367
43.5436
43.4913
43.469
43.4671
43.4785
43.4976
43.5225
43.5496
43.5809
43.6113
43.6468
43.6788
43.7186
43.7518
43.7966
43.8303
43.8813
43.9146
43.9728
44.0048
44.0714
44.1006
44.1766
44.2019
44.2867
44.3096
44.3974
44.4212
44.5111
44.1
43.5679
42.9759
42.5983
42.3372
42.1593
42.0547
42.0008
41.9815
41.9838
41.9996
42.023
42.0516
42.0828
42.1171
42.1518
42.1901
42.2268
42.2692
42.3074
42.355
42.3941
42.4481
42.4871
42.5489
42.5866
42.6577
42.6923
42.7739
42.8039
42.8956
42.9224
43.0189
43.0464
43.1476
42.3715
41.8215
41.1163
40.6655
40.3557
40.1517
40.039
39.9834
39.9684
39.9746
39.9972
40.0256
40.061
40.0975
40.1382
40.1786
40.2231
40.2668
40.3155
40.362
40.4157
40.4645
40.5247
40.5745
40.6425
40.6916
40.7692
40.8152
40.904
40.9447
41.0451
41.0804
41.1882
41.2207
41.3358
39.7933
39.4419
38.4703
37.8253
37.4173
37.1808
37.0765
37.0383
37.0509
37.0788
37.1294
37.1781
37.241
37.297
37.3645
37.4241
37.494
37.5563
37.628
37.6928
37.7663
37.8335
37.9095
37.9785
38.0582
38.1275
38.213
38.28
38.3738
38.4355
38.5399
38.5946
38.7094
38.7586
38.8893
35.627
38.2627
37.0517
35.841
35.0303
34.5622
34.3386
34.239
34.2288
34.2501
34.313
34.3747
34.4631
34.537
34.6333
34.7089
34.806
34.8796
34.9747
35.0456
35.1364
35.2053
35.2921
35.3618
35.4457
35.5179
35.6
35.6742
35.7579
35.8289
35.9229
35.9768
36.1008
36.1121
36.283
14.3883
13.784
14.2555
14.4353
14.5281
14.5733
14.6111
14.6324
14.6628
14.6807
14.714
14.7337
14.7714
14.7943
14.8377
14.8647
14.9143
14.9458
15.0016
15.0374
15.0991
15.1387
15.2066
15.2487
15.3234
15.3658
15.449
15.4877
15.5824
15.6114
15.7227
15.7327
15.8674
15.8445
16.0032
37.6296
37.2292
36.9732
36.8768
36.8772
36.8993
36.9146
36.9168
36.913
36.9035
36.8957
36.8853
36.8789
36.8704
36.8664
36.8601
36.8581
36.8538
36.8534
36.8507
36.8516
36.8498
36.8523
36.8503
36.8553
36.8517
36.8601
36.8543
36.8661
36.8585
36.8728