/*--------------------------------*- C++ -*----------------------------------*\
  =========                 |
  \\      /  F ield         | OpenFOAM: The Open Source CFD Toolbox
   \\    /   O peration     | Website:  https://openfoam.org
    \\  /    A nd           | Version:  6
     \\/     M anipulation  |
\*---------------------------------------------------------------------------*/
FoamFile
{
    version     2.0;
    format      ascii;
    class       volScalarField;
    location    "9";
    object      omega;
}
// * * * * * * * * * * * * * * * * * * * * * * * * * * * * * * * * * * * * * //

dimensions      [0 0 -1 0 0 0 0];

internalField   nonuniform List<scalar> 
380496
(
843.917
843.917
843.917
843.917
843.917
843.917
843.917
843.917
843.917
843.917
843.917
843.917
843.917
843.917
843.917
843.917
843.917
843.917
843.917
843.917
843.917
843.917
843.917
843.917
843.917
843.917
843.917
843.917
843.917
843.917
843.917
843.917
843.917
843.917
843.917
843.917
843.917
843.917
843.917
843.917
843.917
843.917
843.917
843.917
843.917
843.917
843.917
843.917
843.917
843.917
843.917
843.917
843.917
843.917
843.917
843.917
843.917
843.917
843.917
843.917
843.917
843.917
843.917
843.917
843.917
843.917
843.917
843.917
843.917
843.917
843.917
843.917
843.917
843.917
843.917
843.917
843.917
843.917
843.917
843.917
843.917
843.917
843.917
843.917
843.917
843.917
843.917
843.917
843.917
843.917
843.917
843.917
843.917
843.917
843.917
843.917
843.917
843.917
843.917
843.917
843.917
843.917
843.917
843.917
843.917
843.917
843.917
843.917
843.917
843.917
843.917
843.917
843.917
843.917
843.917
843.917
843.917
843.917
843.917
843.917
843.917
843.917
843.917
843.917
843.917
843.917
843.917
843.917
843.917
843.917
843.917
843.917
843.917
843.917
843.917
843.917
843.917
843.917
843.917
843.917
843.917
843.917
843.917
843.917
843.917
843.917
843.917
843.917
843.917
843.917
843.917
843.917
843.917
843.917
843.917
843.917
843.917
843.917
843.917
843.917
843.917
843.917
843.917
843.917
843.917
843.917
843.917
843.917
843.917
843.917
843.917
843.917
843.917
843.917
843.917
843.917
843.917
843.917
843.917
843.917
843.917
843.917
843.917
843.917
843.917
843.917
843.917
843.917
843.917
843.917
843.917
843.917
843.917
843.917
843.917
843.917
843.917
843.917
843.917
843.917
843.917
843.917
843.917
843.917
843.917
843.917
843.917
843.917
843.917
843.917
843.917
843.917
843.917
843.917
843.917
843.917
843.917
843.917
843.917
843.917
843.917
843.917
843.917
843.917
843.917
843.917
843.917
843.917
843.917
843.917
843.917
843.917
843.917
843.917
843.917
843.917
843.917
843.917
843.917
843.917
843.917
843.917
843.917
843.917
843.917
843.917
843.917
843.917
843.917
843.917
843.917
843.917
843.917
843.917
843.917
843.917
843.917
843.917
843.917
843.917
843.917
843.917
843.917
843.917
843.917
843.917
843.917
843.917
843.917
843.917
843.917
843.917
843.917
843.917
843.917
843.917
843.917
843.917
843.917
843.917
843.917
843.917
843.917
843.917
843.917
843.917
843.917
843.917
843.917
843.917
843.917
843.917
843.917
843.917
843.917
843.917
843.917
843.917
843.917
843.917
843.917
843.917
843.917
843.917
843.917
843.917
843.917
843.917
843.917
843.917
843.917
843.917
843.917
843.917
843.917
843.917
843.917
843.917
843.917
843.917
843.917
843.917
843.917
843.917
843.917
843.917
843.917
843.917
843.917
843.917
843.917
843.917
843.917
843.917
843.917
843.917
843.917
843.917
843.917
843.917
843.917
843.917
843.917
843.917
843.917
843.917
843.917
843.917
843.917
843.917
843.917
843.917
843.917
843.917
843.917
843.917
843.917
843.917
843.917
843.917
843.917
843.917
843.917
843.917
843.917
843.917
843.917
843.917
843.917
843.917
843.917
843.917
843.917
843.917
843.917
843.917
843.917
843.917
843.917
843.917
843.917
843.917
843.917
843.917
843.917
843.917
843.917
843.917
843.917
843.917
843.917
843.917
843.917
843.917
843.917
843.917
843.917
843.917
843.917
843.917
843.917
843.917
843.917
843.917
843.917
843.917
843.917
843.917
843.917
843.917
843.917
843.917
843.917
843.917
843.917
843.917
843.917
843.917
843.917
843.917
843.917
843.917
843.917
843.917
843.917
843.917
843.917
843.917
843.917
843.917
843.917
843.917
843.917
843.917
843.917
843.917
843.917
843.917
843.917
843.917
843.917
843.917
843.917
843.917
843.917
843.917
843.917
843.917
843.917
843.917
843.917
843.917
843.917
843.917
843.917
843.917
843.917
843.917
843.917
843.917
843.917
843.917
843.917
843.917
843.917
843.917
843.917
843.917
843.917
843.917
843.917
843.917
843.917
843.917
843.917
843.917
843.917
843.917
843.917
843.917
843.917
843.917
843.917
843.917
843.917
843.917
843.917
843.917
843.917
843.917
843.917
843.917
843.917
843.917
843.917
843.917
843.917
843.917
843.917
843.917
843.917
843.917
843.917
843.917
843.917
843.917
843.917
843.917
843.917
843.917
843.917
843.917
843.917
843.917
843.917
843.917
843.917
843.917
843.917
843.917
843.917
843.917
843.917
843.917
843.917
843.917
843.917
843.917
843.917
843.917
843.917
843.917
843.917
843.917
843.917
843.917
843.917
843.917
843.917
843.917
843.917
843.917
843.917
843.917
843.917
843.917
843.917
843.917
843.917
843.917
843.917
843.917
843.917
843.917
843.917
843.917
843.917
843.917
843.917
843.917
843.917
843.917
843.917
843.917
843.917
843.917
843.917
843.917
843.917
843.917
843.917
843.917
843.917
843.917
843.917
843.917
843.917
843.917
843.917
843.917
843.917
843.917
843.917
843.917
843.917
843.917
843.917
843.917
843.917
843.917
843.917
843.917
843.917
843.917
843.917
843.917
843.917
843.917
843.917
843.917
843.917
843.917
843.917
843.917
843.917
843.917
843.917
843.917
843.917
843.917
843.917
843.917
843.917
843.917
843.917
843.917
843.917
843.917
843.917
843.917
843.917
843.917
843.917
843.917
843.917
843.917
843.917
843.917
843.917
843.917
843.917
843.917
843.917
843.917
843.917
843.917
843.917
843.917
843.917
843.917
843.917
843.917
843.917
843.917
843.917
843.917
843.917
843.917
843.917
843.917
843.917
843.917
843.917
843.917
843.917
843.917
843.917
843.917
843.917
843.917
843.917
843.917
843.917
843.917
843.917
843.917
843.917
843.917
843.917
843.917
843.917
843.917
843.917
843.917
843.917
843.917
843.917
843.917
843.917
843.917
843.917
843.917
843.917
843.917
843.917
843.917
843.917
843.917
843.917
843.917
843.917
843.917
843.917
843.917
843.917
843.917
843.917
843.917
843.917
843.917
423.923
423.923
423.923
423.923
423.923
423.923
423.923
423.923
423.923
423.923
423.923
423.923
423.923
423.923
423.923
423.923
423.923
423.923
423.923
423.923
423.923
423.923
423.923
423.923
423.923
423.923
423.923
423.923
423.923
423.923
423.923
423.923
423.923
423.923
423.923
281.629
267.584
268.722
269.8
269.896
269.738
269.629
269.562
269.531
269.509
269.501
269.495
269.497
269.5
269.507
269.517
269.526
269.542
269.553
269.573
269.587
269.612
269.629
269.658
269.68
269.713
269.741
269.775
269.812
269.843
269.888
269.914
269.961
269.984
270.016
281.467
267.57
268.644
269.677
269.746
269.585
269.469
269.406
269.37
269.354
269.344
269.346
269.347
269.36
269.366
269.388
269.397
269.426
269.438
269.473
269.487
269.53
269.547
269.597
269.617
269.675
269.697
269.763
269.785
269.859
269.875
269.958
269.948
270.059
269.933
281.132
267.395
268.47
269.469
269.513
269.346
269.226
269.166
269.131
269.121
269.114
269.125
269.131
269.155
269.169
269.202
269.22
269.262
269.284
269.334
269.36
269.419
269.45
269.518
269.554
269.632
269.67
269.758
269.798
269.895
269.93
270.038
270.049
270.192
270.098
280.564
267.016
268.172
269.146
269.157
268.976
268.853
268.795
268.765
268.762
268.763
268.783
268.799
268.833
268.857
268.902
268.933
268.988
269.023
269.088
269.128
269.204
269.25
269.336
269.388
269.485
269.543
269.65
269.71
269.827
269.884
270.013
270.044
270.213
270.129
280.147
266.78
267.825
268.73
268.721
268.537
268.414
268.357
268.331
268.332
268.34
268.367
268.392
268.435
268.47
268.525
268.568
268.635
268.685
268.763
268.821
268.911
268.976
269.08
269.152
269.269
269.347
269.477
269.558
269.702
269.779
269.94
269.989
270.201
270.124
279.34
266.188
267.27
268.13
268.089
267.895
267.774
267.723
267.706
267.718
267.738
267.777
267.816
267.872
267.922
267.992
268.05
268.133
268.2
268.295
268.371
268.48
268.565
268.689
268.781
268.921
269.02
269.175
269.278
269.448
269.548
269.738
269.809
270.058
269.994
278.498
265.57
266.589
267.379
267.311
267.11
266.992
266.947
266.939
266.96
266.992
267.043
267.094
267.163
267.227
267.311
267.386
267.484
267.568
267.681
267.776
267.905
268.01
268.155
268.27
268.432
268.555
268.734
268.862
269.058
269.184
269.403
269.499
269.786
269.736
277.443
264.751
265.704
266.419
266.323
266.118
266.005
265.969
265.972
266.005
266.051
266.115
266.181
266.264
266.344
266.443
266.534
266.648
266.751
266.882
266.996
267.144
267.27
267.437
267.574
267.759
267.906
268.109
268.262
268.484
268.635
268.883
269.003
269.326
269.288
276.189
263.731
264.627
265.262
265.135
264.928
264.825
264.802
264.821
264.87
264.933
265.013
265.095
265.195
265.291
265.406
265.515
265.647
265.768
265.917
266.051
266.22
266.367
266.555
266.714
266.922
267.091
267.318
267.495
267.742
267.917
268.193
268.336
268.693
268.666
274.955
262.703
263.448
263.995
263.848
263.643
263.549
263.536
263.568
263.629
263.704
263.796
263.893
264.004
264.115
264.244
264.368
264.514
264.652
264.818
264.97
265.156
265.322
265.529
265.708
265.936
266.126
266.375
266.573
266.843
267.04
267.34
267.502
267.89
267.871
273.277
261.258
261.953
262.421
262.246
262.047
261.973
261.983
262.038
262.121
262.218
262.33
262.446
262.575
262.705
262.851
262.993
263.157
263.314
263.497
263.669
263.874
264.06
264.287
264.487
264.736
264.948
265.219
265.438
265.731
265.949
266.273
266.455
266.871
266.86
271.66
259.849
260.311
260.675
260.485
260.297
260.237
260.26
260.33
260.426
260.537
260.661
260.791
260.933
261.077
261.236
261.394
261.573
261.746
261.946
262.136
262.358
262.564
262.81
263.03
263.299
263.531
263.823
264.062
264.377
264.615
264.962
265.163
265.606
265.602
269.372
257.803
258.185
258.471
258.264
258.097
258.072
258.13
258.232
258.357
258.495
258.643
258.796
258.958
259.123
259.301
259.48
259.677
259.871
260.089
260.3
260.542
260.769
261.035
261.278
261.568
261.822
262.135
262.397
262.734
262.994
263.363
263.583
264.053
264.056
267.102
255.734
255.823
256.003
255.789
255.645
255.645
255.727
255.849
255.995
256.151
256.316
256.486
256.665
256.847
257.041
257.238
257.451
257.664
257.9
258.131
258.391
258.64
258.925
259.189
259.5
259.777
260.111
260.395
260.753
261.035
261.426
261.666
262.162
262.171
264.031
252.897
252.814
252.918
252.707
252.608
252.658
252.786
252.949
253.13
253.316
253.509
253.704
253.906
254.11
254.326
254.544
254.778
255.013
255.27
255.523
255.804
256.076
256.383
256.671
257.004
257.305
257.662
257.97
258.351
258.656
259.07
259.332
259.854
259.871
260.55
249.612
249.239
249.27
249.078
249.031
249.131
249.307
249.508
249.724
249.94
250.161
250.38
250.606
250.831
251.069
251.307
251.562
251.818
252.094
252.37
252.671
252.967
253.295
253.608
253.962
254.289
254.668
255.002
255.406
255.737
256.174
256.459
257.005
257.033
256.375
245.606
244.855
244.806
244.644
244.669
244.829
245.057
245.294
245.546
245.786
246.034
246.272
246.52
246.763
247.02
247.275
247.55
247.823
248.121
248.416
248.74
249.058
249.409
249.749
250.127
250.482
250.888
251.251
251.687
252.043
252.516
252.827
253.406
253.456
249.995
239.624
238.825
238.828
238.732
238.856
239.104
239.411
239.706
240.012
240.289
240.574
240.836
241.113
241.375
241.656
241.929
242.227
242.519
242.842
243.16
243.513
243.858
244.248
244.621
245.043
245.435
245.886
246.287
246.764
247.162
247.668
248.023
248.624
248.72
240.796
231.46
230.491
230.665
230.743
231.002
231.325
231.667
231.975
232.283
232.554
232.838
233.094
233.374
233.634
233.925
234.203
234.515
234.819
235.167
235.523
235.93
236.33
236.774
237.207
237.684
238.139
238.648
239.119
239.653
240.121
240.674
241.101
241.726
241.935
214.296
212.136
212.405
213.348
214.006
214.773
215.531
216.248
216.896
217.519
218.09
218.659
219.19
219.735
220.251
220.789
221.301
221.842
222.359
222.909
223.438
224.001
224.542
225.115
225.666
226.244
226.802
227.379
227.938
228.506
229.058
229.605
230.144
230.624
231.303
9.02243
7.67004
7.60524
7.58477
7.65535
7.7484
7.86514
7.98331
8.11212
8.23151
8.355
8.46553
8.57896
8.67856
8.78135
8.87056
8.9647
9.04605
9.13465
9.2105
9.29647
9.36817
9.45412
9.52192
9.61055
9.67315
9.76755
9.82162
9.92609
9.96528
10.0864
10.0989
10.248
10.207
10.4033
135.248
128.879
128.552
129.045
129.242
129.235
129.182
129.132
129.095
129.067
129.047
129.033
129.024
129.02
129.019
129.021
129.026
129.033
129.042
129.054
129.068
129.084
129.103
129.124
129.149
129.176
129.206
129.243
129.278
129.328
129.366
129.436
129.47
129.572
129.601
135.076
128.679
128.313
128.781
128.966
128.954
128.898
128.846
128.808
128.78
128.761
128.749
128.743
128.741
128.743
128.749
128.758
128.769
128.783
128.799
128.819
128.84
128.866
128.891
128.926
128.955
128.999
129.033
129.088
129.127
129.194
129.238
129.313
129.377
129.419
134.794
128.386
128.005
128.46
128.635
128.618
128.559
128.507
128.469
128.444
128.427
128.419
128.416
128.42
128.427
128.438
128.454
128.471
128.493
128.516
128.545
128.574
128.61
128.644
128.688
128.728
128.782
128.828
128.893
128.944
129.023
129.082
129.165
129.254
129.297
134.361
127.975
127.613
128.064
128.228
128.204
128.142
128.09
128.053
128.031
128.018
128.015
128.018
128.027
128.04
128.058
128.08
128.104
128.133
128.164
128.201
128.238
128.282
128.325
128.378
128.427
128.49
128.545
128.62
128.681
128.766
128.836
128.923
129.024
129.065
134.043
127.65
127.238
127.653
127.8
127.769
127.703
127.649
127.611
127.59
127.579
127.578
127.584
127.597
127.614
127.637
127.664
127.695
127.73
127.768
127.811
127.855
127.907
127.958
128.02
128.078
128.15
128.214
128.298
128.368
128.464
128.543
128.64
128.751
128.803
133.489
127.122
126.721
127.122
127.255
127.215
127.145
127.091
127.056
127.038
127.033
127.037
127.05
127.069
127.094
127.124
127.158
127.196
127.238
127.284
127.335
127.388
127.448
127.509
127.579
127.646
127.726
127.8
127.893
127.972
128.076
128.164
128.267
128.39
128.441
132.924
126.585
126.16
126.529
126.642
126.591
126.517
126.462
126.428
126.413
126.411
126.421
126.438
126.463
126.494
126.53
126.57
126.616
126.665
126.719
126.777
126.838
126.906
126.975
127.053
127.129
127.218
127.301
127.402
127.491
127.603
127.701
127.81
127.945
127.998
132.247
125.943
125.496
125.831
125.921
125.86
125.781
125.726
125.694
125.683
125.686
125.701
125.724
125.755
125.792
125.835
125.882
125.934
125.991
126.052
126.118
126.187
126.263
126.34
126.426
126.511
126.608
126.7
126.809
126.907
127.026
127.134
127.247
127.394
127.445
131.463
125.209
124.747
125.046
125.111
125.036
124.954
124.9
124.872
124.867
124.876
124.898
124.928
124.967
125.011
125.061
125.115
125.175
125.239
125.307
125.381
125.458
125.542
125.627
125.721
125.815
125.92
126.02
126.136
126.243
126.369
126.486
126.603
126.762
126.813
130.701
124.496
123.979
124.226
124.264
124.178
124.092
124.038
124.013
124.011
124.026
124.053
124.088
124.132
124.182
124.238
124.298
124.364
124.434
124.509
124.589
124.674
124.764
124.857
124.958
125.059
125.171
125.279
125.402
125.516
125.648
125.773
125.894
126.064
126.113
129.711
123.569
123.042
123.253
123.263
123.165
123.078
123.028
123.011
123.018
123.041
123.077
123.121
123.174
123.231
123.295
123.363
123.437
123.514
123.597
123.685
123.777
123.875
123.975
124.084
124.193
124.312
124.428
124.558
124.681
124.819
124.952
125.078
125.258
125.305
128.745
122.677
122.06
122.199
122.175
122.065
121.976
121.928
121.915
121.926
121.955
121.997
122.047
122.105
122.169
122.239
122.313
122.393
122.478
122.567
122.662
122.761
122.866
122.974
123.089
123.206
123.333
123.456
123.593
123.723
123.868
124.01
124.139
124.33
124.374
127.448
121.46
120.82
120.916
120.862
120.741
120.655
120.617
120.615
120.639
120.68
120.733
120.794
120.862
120.935
121.014
121.097
121.186
121.279
121.377
121.479
121.587
121.7
121.816
121.94
122.065
122.2
122.332
122.477
122.615
122.767
122.918
123.052
123.254
123.296
126.136
120.247
119.483
119.491
119.397
119.265
119.181
119.149
119.155
119.188
119.238
119.3
119.369
119.446
119.527
119.614
119.705
119.801
119.902
120.008
120.118
120.234
120.355
120.48
120.613
120.746
120.889
121.03
121.183
121.33
121.489
121.649
121.788
122.002
122.042
124.429
118.648
117.809
117.753
117.625
117.487
117.412
117.396
117.419
117.468
117.532
117.608
117.69
117.778
117.87
117.968
118.069
118.175
118.285
118.4
118.52
118.645
118.776
118.91
119.052
119.195
119.347
119.498
119.66
119.817
119.984
120.154
120.299
120.526
120.564
122.481
116.82
115.841
115.699
115.534
115.393
115.329
115.329
115.369
115.435
115.515
115.604
115.699
115.8
115.903
116.012
116.123
116.239
116.359
116.483
116.613
116.747
116.888
117.032
117.183
117.337
117.499
117.66
117.832
117.999
118.176
118.356
118.509
118.75
118.786
120.129
114.623
113.442
113.184
112.971
112.831
112.785
112.806
112.865
112.948
113.042
113.145
113.251
113.361
113.474
113.591
113.711
113.835
113.963
114.097
114.236
114.38
114.53
114.684
114.846
115.011
115.184
115.357
115.542
115.722
115.913
116.108
116.276
116.534
116.578
116.506
111.183
110.002
109.757
109.544
109.421
109.398
109.446
109.524
109.626
109.734
109.85
109.966
110.088
110.21
110.339
110.468
110.605
110.744
110.891
111.042
111.201
111.366
111.539
111.721
111.907
112.103
112.3
112.509
112.713
112.929
113.146
113.34
113.618
113.688
111.044
106.317
104.832
104.498
104.271
104.176
104.18
104.254
104.353
104.481
104.61
104.755
104.897
105.053
105.206
105.372
105.536
105.713
105.889
106.081
106.273
106.474
106.68
106.894
107.116
107.344
107.582
107.824
108.079
108.333
108.598
108.862
109.112
109.424
109.579
95.7363
95.7821
94.6654
94.3787
94.1786
94.1639
94.2922
94.508
94.7621
95.0459
95.3345
95.6356
95.9314
96.2358
96.5338
96.8398
97.1395
97.4475
97.7511
98.0643
98.3755
98.697
99.0179
99.3482
99.6784
100.016
100.353
100.695
101.035
101.377
101.716
102.046
102.393
102.67
103.106
11.443
9.88276
9.85598
9.91306
10.0474
10.1922
10.3537
10.5084
10.6708
10.8182
10.9685
11.1016
11.2375
11.3561
11.4784
11.5841
11.6957
11.7917
11.8963
11.9855
12.0866
12.1708
12.2715
12.3508
12.4542
12.5273
12.6367
12.7001
12.8202
12.8673
13.0049
13.0246
13.1899
13.1614
13.3637
79.7825
77.2363
76.6745
76.7669
76.8924
76.9357
76.9284
76.9049
76.8779
76.8548
76.8346
76.8191
76.8066
76.7976
76.7916
76.7874
76.7865
76.786
76.7891
76.7917
76.7983
76.8039
76.8134
76.8225
76.8344
76.8485
76.8614
76.8829
76.895
76.9281
76.9364
76.9873
76.9875
77.0631
77.0593
79.595
77.0488
76.4705
76.5476
76.6649
76.7025
76.6924
76.6658
76.6381
76.6132
76.5938
76.5776
76.5672
76.5582
76.5551
76.5513
76.5543
76.5542
76.5622
76.5649
76.5778
76.5826
76.6004
76.6071
76.6304
76.6385
76.6685
76.6772
76.7158
76.7242
76.7732
76.7817
76.8378
76.8532
76.9082
79.3539
76.8067
76.2186
76.2866
76.3982
76.4317
76.419
76.3905
76.3621
76.3369
76.3183
76.3031
76.2946
76.2874
76.2871
76.2858
76.2921
76.2951
76.3072
76.3134
76.3309
76.3397
76.3628
76.3736
76.4029
76.4155
76.4521
76.4658
76.511
76.526
76.5799
76.5996
76.6558
76.693
76.7378
79.0384
76.4931
75.909
75.9763
76.0842
76.1134
76.0975
76.0669
76.0379
76.013
75.9956
75.9822
75.976
75.9715
75.9743
75.9763
75.9861
75.9928
76.0089
76.0191
76.0409
76.054
76.0818
76.0974
76.1315
76.1493
76.1905
76.2101
76.2594
76.2809
76.3378
76.3646
76.4215
76.4658
76.509
78.7525
76.218
75.6164
75.6641
75.7587
75.7798
75.7586
75.7246
75.6933
75.6673
75.6495
75.6365
75.6311
75.6282
75.6325
75.6368
75.6488
75.6584
75.677
75.6908
75.7156
75.7326
75.7638
75.7836
75.8217
75.8436
75.8898
75.913
75.9685
75.9924
76.0576
76.0846
76.1528
76.1943
76.2539
78.3535
75.8242
75.2269
75.2707
75.358
75.3726
75.3467
75.3101
75.2777
75.2521
75.2356
75.2247
75.2218
75.2219
75.2293
75.2371
75.2526
75.266
75.2884
75.3062
75.3351
75.3564
75.3919
75.416
75.4588
75.485
75.536
75.5636
75.6237
75.6522
75.7212
75.7535
75.8233
75.8716
75.9292
77.928
75.4143
74.8115
74.8408
74.9148
74.9196
74.8871
74.8467
74.8123
74.7863
74.7702
74.7608
74.7597
74.7622
74.7721
74.7828
74.8012
74.818
74.8436
74.865
74.8974
74.9225
74.9618
74.99
75.0367
75.0672
75.1222
75.154
75.2184
75.251
75.3242
75.3604
75.4344
75.486
75.5484
77.4333
74.9365
74.3308
74.3454
74.4045
74.3982
74.3585
74.314
74.2777
74.2516
74.2363
74.2286
74.2297
74.2349
74.2475
74.2615
74.283
74.3032
74.3321
74.3573
74.3932
74.4222
74.4653
74.4975
74.5481
74.5827
74.6418
74.6776
74.746
74.7826
74.8594
74.8997
74.9761
75.0321
75.0955
76.8736
74.4023
73.7984
73.7988
73.8415
73.8226
73.7749
73.7263
73.6886
73.663
73.6494
73.6442
73.648
73.6565
73.6724
73.6899
73.7147
73.7387
73.7711
73.8
73.8396
73.8725
73.9193
73.9554
74.0099
74.0484
74.1114
74.1512
74.2233
74.2638
74.3441
74.3884
74.4673
74.5277
74.5923
76.3104
73.8743
73.2586
73.2338
73.2554
73.2227
73.1669
73.1142
73.0747
73.0491
73.0365
73.0331
73.0391
73.0501
73.0685
73.089
73.1167
73.1438
73.1792
73.2114
73.2541
73.2905
73.3405
73.3802
73.4381
73.4801
73.5466
73.5899
73.6655
73.7094
73.7928
73.8407
73.9217
73.9861
74.0513
75.627
73.2227
72.6138
72.5758
72.5793
72.5323
72.4682
72.4121
72.3723
72.3485
72.3387
72.3389
72.3485
72.3636
72.3858
72.4103
72.4417
72.4728
72.5118
72.548
72.5943
72.6345
72.6882
72.7317
72.7933
72.8391
72.9094
72.9564
73.0357
73.0832
73.17
73.2216
73.305
73.3737
73.4396
74.9228
72.5723
71.9391
71.8625
71.8363
71.7713
71.698
71.6378
71.5969
71.574
71.5659
71.5688
71.5812
71.5994
71.6247
71.6526
71.6871
71.7218
71.764
71.8039
71.8535
71.8975
71.9546
72.002
72.0672
72.1168
72.1907
72.2415
72.3245
72.3757
72.4659
72.5213
72.6071
72.6803
72.7467
74.0387
71.7343
71.1045
71.0096
70.9606
70.879
70.7975
70.7351
70.6958
70.6763
70.6726
70.6804
70.6976
70.7209
70.7508
70.7835
70.8224
70.8617
70.9081
70.9524
71.006
71.0544
71.1156
71.1673
71.2365
71.2904
71.3685
71.4234
71.5106
71.5658
71.66
71.7196
71.8082
71.8864
71.9536
73.1015
70.8707
70.2026
70.0564
69.9693
69.8661
69.7751
69.7099
69.6714
69.6547
69.6549
69.667
69.6887
69.7166
69.751
69.7884
69.8315
69.8754
69.926
69.9749
70.0326
70.0856
70.1509
70.2072
70.2807
70.3393
70.4217
70.4811
70.5728
70.6324
70.7308
70.7949
70.8866
70.9703
71.038
71.9314
69.7751
69.0895
68.9079
68.7875
68.6645
68.5661
68.5006
68.4658
68.4545
68.4609
68.4792
68.5071
68.541
68.5811
68.6241
68.6725
68.7217
68.7771
68.8312
68.8934
68.9515
69.0212
69.0826
69.1606
69.2241
69.3112
69.3755
69.472
69.5365
69.6397
69.7088
69.8045
69.8945
69.9638
70.5747
68.5114
67.7773
67.5398
67.3773
67.2317
67.1254
67.0597
67.029
67.0234
67.0365
67.0614
67.096
67.1361
67.1822
67.2308
67.2846
67.339
67.3992
67.4584
67.5252
67.5885
67.6627
67.7296
67.8121
67.8813
67.9732
68.0432
68.1449
68.2149
68.3236
68.3981
68.4989
68.5952
68.6669
68.9301
66.9867
66.174
65.8544
65.6342
65.4615
65.3477
65.283
65.2569
65.2567
65.2753
65.3049
65.3441
65.388
65.4381
65.4901
65.5475
65.6053
65.6692
65.7324
65.8031
65.8711
65.9494
66.0215
66.1088
66.1838
66.2815
66.3574
66.4671
66.5416
66.6612
66.7395
66.8522
66.9563
67.0356
66.5747
64.6689
63.8489
63.5245
63.285
63.0975
62.976
62.9068
62.8782
62.8754
62.8927
62.9208
62.9601
63.0041
63.0566
63.1112
63.1733
63.236
63.3064
63.3759
63.4549
63.5306
63.6195
63.7
63.7997
63.8849
63.9969
64.0846
64.21
64.2985
64.4349
64.5279
64.6601
64.7772
64.8797
63.0736
61.5343
60.456
59.9502
59.601
59.3584
59.2116
59.1331
59.1059
59.1114
59.1436
59.1908
59.2541
59.3242
59.4065
59.4912
59.5862
59.681
59.7859
59.8905
60.0041
60.1114
60.23
60.3421
60.4702
60.5886
60.7297
60.8532
61.0091
61.1356
61.3049
61.4354
61.6078
61.7552
61.9146
55.4839
57.2171
56.1451
55.3554
54.7544
54.342
54.1037
53.981
53.9471
53.9629
54.0233
54.1022
54.2066
54.316
54.4435
54.5695
54.7113
54.8489
55.0021
55.1503
55.3149
55.4746
55.651
55.8232
56.0108
56.1949
56.3915
56.5856
56.7886
56.9882
57.1975
57.3895
57.6198
57.7692
58.0744
13.0144
11.4132
11.4334
11.5731
11.7731
11.9644
12.1609
12.3391
12.5202
12.6802
12.8417
12.982
13.1255
13.2491
13.3774
13.4869
13.6036
13.7027
13.812
13.904
14.0098
14.0966
14.2019
14.2838
14.3916
14.4673
14.5809
14.6471
14.7709
14.8217
14.9616
14.9881
15.1513
15.14
15.3287
52.8625
51.8611
51.4544
51.387
51.4239
51.4583
51.4676
51.4617
51.4468
51.4311
51.4149
51.401
51.3886
51.3783
51.3703
51.3632
51.3591
51.3547
51.3537
51.3515
51.3528
51.3529
51.3557
51.3584
51.3615
51.3682
51.3699
51.3825
51.3807
51.4021
51.3945
51.4283
51.4133
51.4605
51.4448
52.6912
51.6999
51.2905
51.2153
51.2473
51.2767
51.284
51.2746
51.2592
51.2409
51.2254
51.2097
51.199
51.1873
51.1819
51.1735
51.1729
51.1668
51.1705
51.166
51.1735
51.1699
51.1812
51.1779
51.1933
51.1896
51.2099
51.2046
51.2312
51.2234
51.2573
51.2466
51.2874
51.2731
51.3248
52.4925
51.5063
51.0939
51.0137
51.0421
51.0682
51.0733
51.0615
51.0449
51.0253
51.0095
50.9933
50.9832
50.9717
50.9675
50.9598
50.9609
50.9558
50.9616
50.9584
50.9684
50.9662
50.9806
50.9787
50.9976
50.9954
51.0195
51.0164
51.0462
51.0424
51.0775
51.0754
51.1121
51.1162
51.1544
52.255
51.2694
50.8586
50.7783
50.8056
50.8295
50.8322
50.8183
50.8002
50.7797
50.7637
50.7476
50.7382
50.7276
50.7247
50.7184
50.7212
50.7179
50.7258
50.7246
50.737
50.7371
50.754
50.7548
50.7762
50.7772
50.8036
50.8043
50.8359
50.8367
50.8726
50.8757
50.9121
50.9211
50.9578
52.0124
51.0413
50.6281
50.5395
50.5585
50.5759
50.5736
50.556
50.5352
50.5128
50.4955
50.4788
50.4691
50.4588
50.4562
50.4508
50.4543
50.4525
50.4612
50.4618
50.4754
50.4774
50.496
50.4986
50.5224
50.5248
50.5545
50.5558
50.5923
50.5921
50.6353
50.6349
50.6821
50.6838
50.7372
51.7113
50.7438
50.3343
50.2456
50.2617
50.2751
50.2688
50.2482
50.225
50.2014
50.1834
50.1669
50.1576
50.1482
50.1467
50.1428
50.1478
50.1478
50.1584
50.1609
50.1767
50.1807
50.2017
50.2063
50.2328
50.2373
50.2698
50.2734
50.3125
50.3149
50.3601
50.3631
50.4106
50.4174
50.468
51.3809
50.4248
50.0173
49.924
49.9329
49.9394
49.9272
49.9023
49.876
49.8506
49.8314
49.8147
49.8055
49.7967
49.796
49.7933
49.7994
49.8009
49.8129
49.8171
49.8345
49.8404
49.8632
49.8698
49.8983
49.9047
49.9395
49.9449
49.9867
49.9906
50.0389
50.0429
50.0942
50.1009
50.1568
51.0013
50.0571
49.6537
49.5564
49.5575
49.5561
49.5371
49.5074
49.4776
49.4501
49.4299
49.4129
49.4039
49.3959
49.3961
49.3947
49.4022
49.4053
49.4189
49.4249
49.4442
49.4519
49.4767
49.4853
49.516
49.5244
49.5615
49.5689
49.6131
49.6189
49.6696
49.6754
49.7288
49.7371
49.7947
50.5804
49.6502
49.254
49.1539
49.1469
49.1366
49.11
49.0749
49.0415
49.0122
48.991
48.9741
48.9655
48.9587
48.9599
48.9601
48.969
48.9738
48.9891
48.9969
49.018
49.0276
49.0543
49.0648
49.0975
49.1078
49.1472
49.1564
49.2029
49.2105
49.2635
49.2711
49.3266
49.3365
49.396
50.1474
49.2386
48.8457
48.737
48.7177
48.6963
48.6614
48.6207
48.5837
48.5525
48.5303
48.5135
48.5052
48.4994
48.5016
48.5032
48.5134
48.5198
48.5366
48.5462
48.5688
48.5803
48.6088
48.621
48.6557
48.6678
48.7093
48.7201
48.7689
48.7781
48.8333
48.8424
48.8998
48.9112
48.9724
49.6404
48.7495
48.3679
48.2582
48.2302
48.1986
48.155
48.1085
48.0678
48.035
48.0121
47.9958
47.9883
47.9839
47.9875
47.9909
48.0027
48.0111
48.0296
48.0411
48.0656
48.079
48.1094
48.1236
48.1603
48.1742
48.2179
48.2305
48.2816
48.2924
48.3499
48.3608
48.4202
48.4332
48.4962
49.0985
48.2404
47.8588
47.7334
47.6865
47.6392
47.5851
47.5321
47.4878
47.4535
47.4302
47.4146
47.4079
47.4052
47.4102
47.4155
47.429
47.4395
47.4597
47.4734
47.4997
47.5152
47.5476
47.5638
47.6027
47.6186
47.6646
47.6791
47.7326
47.7453
47.8052
47.8178
47.8794
47.8942
47.959
48.4419
47.6136
47.2451
47.1169
47.0578
46.9972
46.9328
46.8734
46.8255
46.7898
46.7664
46.7518
46.7465
46.7457
46.7525
46.7602
46.7756
46.7885
46.8106
46.8268
46.855
46.8729
46.9073
46.9259
46.9669
46.985
47.0334
47.05
47.1061
47.1207
47.1833
47.1979
47.2619
47.2787
47.3456
47.7237
46.9423
46.5695
46.4185
46.3336
46.2528
46.1759
46.1094
46.0583
46.0219
45.9991
45.9861
45.9828
45.9844
45.9935
46.004
46.0216
46.0374
46.0617
46.0807
46.1111
46.1318
46.1684
46.1897
46.2332
46.2539
46.3049
46.3239
46.3829
46.3997
46.4654
46.4821
46.5488
46.5679
46.6369
46.846
46.1176
45.7526
45.5888
45.4825
45.3826
45.2931
45.2194
45.1651
45.1277
45.1057
45.0942
45.0928
45.0968
45.1082
45.1214
45.1412
45.1598
45.1862
45.208
45.2404
45.2638
45.3024
45.3264
45.372
45.3952
45.4487
45.4701
45.5319
45.551
45.6198
45.6387
45.7087
45.7302
45.8025
45.8227
45.1588
44.7862
44.5951
44.4577
44.3335
44.2293
44.1473
44.0896
44.0511
44.03
44.02
44.0208
44.0269
44.0407
44.0562
44.0782
44.0992
44.1274
44.1518
44.1858
44.2121
44.2523
44.2793
44.3268
44.3531
44.4089
44.4333
44.498
44.5198
44.5922
44.6135
44.6875
44.7112
44.7879
44.5799
44.0023
43.6091
43.3729
43.1904
43.0341
42.9122
42.82
42.758
42.7167
42.6948
42.6836
42.6843
42.6898
42.7037
42.7189
42.7413
42.7627
42.7915
42.817
42.8518
42.88
42.9213
42.9508
42.9997
43.0291
43.0872
43.1147
43.1837
43.2079
43.2863
43.3103
43.3909
43.4197
43.5031
43.0292
42.4142
41.9884
41.7303
41.5197
41.3351
41.1913
41.0793
41.0028
40.9472
40.9155
40.8942
40.889
40.8883
40.8998
40.9125
40.9356
40.9572
40.9889
41.0167
41.0559
41.0879
41.1349
41.1695
41.2245
41.2605
41.3255
41.3615
41.438
41.4729
41.5603
41.5959
41.6885
41.7283
41.8272
40.8415
40.5266
39.9092
39.4636
39.1161
38.8411
38.6438
38.498
38.4056
38.341
38.3116
38.2941
38.3015
38.3119
38.3417
38.3695
38.4136
38.4523
38.5057
38.5528
38.6135
38.6641
38.7285
38.7818
38.8526
38.9096
38.9902
39.051
39.1433
39.2065
39.311
39.3767
39.4906
39.5609
39.6859
37.8608
40.6846
39.8688
38.9118
38.105
37.4821
37.0387
36.7185
36.5051
36.3521
36.2613
36.1961
36.171
36.1536
36.1658
36.1765
36.2124
36.2424
36.2953
36.3405
36.4076
36.4667
36.5467
36.62
36.7116
36.7987
36.9001
36.9996
37.1091
37.2168
37.3361
37.4402
37.582
37.659
37.8557
14.2733
12.6961
12.7811
13.0012
13.2645
13.4979
13.7237
13.9189
14.1118
14.277
14.4428
14.5833
14.7279
14.8498
14.9782
15.0854
15.2019
15.2986
15.4078
15.4976
15.6035
15.6882
15.7939
15.8742
15.9824
16.057
16.1707
16.2368
16.3595
16.4124
16.5488
16.5815
16.7364
16.7404
16.9128
37.6238
37.2104
36.982
36.8891
36.8741
36.8851
36.893
36.8941
36.8874
36.8783
36.867
36.8561
36.8458
36.8361
36.8282
36.8203
36.8151
36.8089
36.8059
36.8015
36.7998
36.7972
36.7962
36.7959
36.7941
36.7971
36.7932
36.8008