/*--------------------------------*- C++ -*----------------------------------*\
  =========                 |
  \\      /  F ield         | OpenFOAM: The Open Source CFD Toolbox
   \\    /   O peration     | Website:  https://openfoam.org
    \\  /    A nd           | Version:  6
     \\/     M anipulation  |
\*---------------------------------------------------------------------------*/
FoamFile
{
    version     2.0;
    format      ascii;
    class       volVectorField;
    location    "9";
    object      wallShearStress;
}
// * * * * * * * * * * * * * * * * * * * * * * * * * * * * * * * * * * * * * //

dimensions      [0 2 -2 0 0 0 0];

internalField   uniform (0 0 0);

boundaryField
{
    inlet
    {
        type            calculated;
        value           uniform (0 0 0);
    }
    outlet
    {
        type            calculated;
        value           uniform (0 0 0);
    }
    roughCylinder
    {
        type            calculated;
        value           nonuniform List<vector> 
3840
(
(-0.000100344 -0.000129616 -5.81749e-05)
(-0.000173508 -0.000298949 -4.14764e-05)
(-0.000258762 -0.000453019 2.96296e-05)
(-0.000316105 -0.000517654 8.60255e-05)
(-0.000380517 -0.000562545 0.000135162)
(-0.000425144 -0.000564643 0.000167475)
(-0.000464248 -0.000558641 0.000189789)
(-0.00048993 -0.000543983 0.000202518)
(-0.000511539 -0.00053516 0.000212171)
(-0.000524588 -0.000527209 0.000216461)
(-0.000537539 -0.000526543 0.000217635)
(-0.000547628 -0.000528392 0.000214557)
(-0.000553817 -0.00053058 0.000207098)
(-0.000556551 -0.000532477 0.00019591)
(-0.000555011 -0.00053263 0.000181451)
(-0.000545497 -0.000525813 0.00016324)
(-0.000556613 -0.00053852 0.000149997)
(-0.000555287 -0.000540003 0.000132402)
(-0.00056265 -0.000548872 0.000115558)
(-0.000556607 -0.000545296 9.54739e-05)
(-0.000565037 -0.000555201 7.70046e-05)
(-0.00055561 -0.000548466 5.55702e-05)
(-0.00055415 -0.000548631 3.43847e-05)
(-0.000549658 -0.000545224 1.16428e-05)
(-0.000103752 -0.000119074 -5.18783e-05)
(-0.000188228 -0.000293534 -4.76297e-05)
(-0.000274782 -0.000444175 2.1103e-05)
(-0.000335521 -0.000514428 7.76942e-05)
(-0.000402105 -0.000562181 0.000127014)
(-0.000449352 -0.000568255 0.00016019)
(-0.000492495 -0.000567298 0.000183896)
(-0.000520103 -0.000554663 0.000197938)
(-0.000547455 -0.000550183 0.000210559)
(-0.000563252 -0.000541861 0.000216212)
(-0.000576877 -0.000540141 0.000217716)
(-0.000586705 -0.0005407 0.000214519)
(-0.000591348 -0.000540986 0.000206596)
(-0.000595531 -0.000543956 0.000196061)
(-0.000596791 -0.000546654 0.000182638)
(-0.000589133 -0.000542064 0.000165213)
(-0.000599518 -0.000553672 0.00015163)
(-0.000600771 -0.000557512 0.000134568)
(-0.000605129 -0.000563434 0.000116902)
(-0.000598553 -0.000559958 9.67612e-05)
(-0.000606405 -0.000569017 7.79746e-05)
(-0.000597671 -0.00056348 5.64508e-05)
(-0.000596617 -0.00056421 3.49991e-05)
(-0.000592348 -0.000561298 1.18674e-05)
(-0.000133398 -0.000133886 -5.45661e-05)
(-0.000195269 -0.000273149 -5.19197e-05)
(-0.000291021 -0.000431179 1.17875e-05)
(-0.000354329 -0.000505677 6.80681e-05)
(-0.000424006 -0.000557719 0.000117776)
(-0.000474594 -0.000568842 0.000152197)
(-0.000519982 -0.000570974 0.00017695)
(-0.000553067 -0.00056446 0.000193767)
(-0.000580889 -0.00055924 0.000207077)
(-0.000598105 -0.000549563 0.000213485)
(-0.000613614 -0.000547538 0.000215808)
(-0.000623096 -0.000546658 0.000212572)
(-0.000628391 -0.000547038 0.000205111)
(-0.000633007 -0.000549988 0.000194941)
(-0.000637601 -0.000555323 0.000182703)
(-0.000631321 -0.00055235 0.000165989)
(-0.000641978 -0.000563796 0.000152491)
(-0.000648695 -0.000572266 0.000136599)
(-0.000650696 -0.000576228 0.00011837)
(-0.00064462 -0.000573802 9.83342e-05)
(-0.00065188 -0.000582104 7.91936e-05)
(-0.000644276 -0.000578134 5.75472e-05)
(-0.000642948 -0.000578807 3.5712e-05)
(-0.000638361 -0.000575906 1.21147e-05)
(-0.000126633 -0.000110116 -4.00707e-05)
(-0.000208564 -0.000260516 -5.78799e-05)
(-0.000303784 -0.000411545 1.76423e-06)
(-0.000370183 -0.000491172 5.72574e-05)
(-0.000442339 -0.000546898 0.000106953)
(-0.000496247 -0.00056342 0.000142548)
(-0.000547451 -0.00057287 0.000169696)
(-0.000582412 -0.000568685 0.000188114)
(-0.000616287 -0.000568221 0.000203939)
(-0.000638843 -0.00056133 0.000212485)
(-0.000655511 -0.000557333 0.000215229)
(-0.000664534 -0.000554868 0.000212027)
(-0.000668602 -0.00055349 0.000204405)
(-0.00067463 -0.00055711 0.000194866)
(-0.000682314 -0.000564529 0.000183596)
(-0.000678321 -0.000563779 0.000167733)
(-0.000688423 -0.000574373 0.000154079)
(-0.000697548 -0.000584458 0.000138562)
(-0.000694994 -0.000585003 0.000119505)
(-0.000689521 -0.000583693 9.96543e-05)
(-0.000695408 -0.000590745 8.01483e-05)
(-0.000688658 -0.00058807 5.84172e-05)
(-0.000687773 -0.000589369 3.63301e-05)
(-0.000683552 -0.000587127 1.23422e-05)
(-0.000121642 -9.06428e-05 -2.73973e-05)
(-0.000207132 -0.000229638 -5.97381e-05)
(-0.000313371 -0.000387281 -8.44616e-06)
(-0.000382567 -0.000471437 4.55461e-05)
(-0.000458114 -0.000532104 9.51695e-05)
(-0.000517137 -0.000555975 0.000132333)
(-0.000570613 -0.000568852 0.000160869)
(-0.000612424 -0.000571807 0.000182464)
(-0.000648251 -0.000572085 0.000199442)
(-0.000671606 -0.000564552 0.000208545)
(-0.000691218 -0.000560507 0.000212403)
(-0.000700171 -0.000556084 0.000209518)
(-0.000706192 -0.000555553 0.000202858)
(-0.000712762 -0.000558915 0.00019376)
(-0.000723092 -0.000567769 0.000183383)
(-0.00072062 -0.000568399 0.000168266)
(-0.000731524 -0.00057927 0.000154921)
(-0.000745636 -0.000592872 0.000140345)
(-0.000740241 -0.000591933 0.0001209)
(-0.000736194 -0.000592333 0.000101313)
(-0.000740895 -0.000598493 8.14262e-05)
(-0.000735301 -0.000597315 5.95421e-05)
(-0.000734049 -0.000598579 3.70699e-05)
(-0.000729516 -0.000596432 1.25988e-05)
(-0.000158487 -9.98326e-05 -2.19036e-05)
(-0.000218328 -0.000213359 -6.4969e-05)
(-0.000318654 -0.000358112 -1.85513e-05)
(-0.000390474 -0.000446515 3.29948e-05)
(-0.00046902 -0.000511809 8.21049e-05)
(-0.000531659 -0.000541355 0.000120267)
(-0.000592664 -0.000562774 0.000151515)
(-0.000636756 -0.000568096 0.000174844)
(-0.0006787 -0.000572831 0.000194229)
(-0.000708541 -0.000569526 0.000205666)
(-0.000730495 -0.000565585 0.000210534)
(-0.000741029 -0.000560117 0.000208504)
(-0.00074676 -0.000557741 0.000202146)
(-0.000754678 -0.000561354 0.000193721)
(-0.000766823 -0.000570797 0.000183984)
(-0.000766807 -0.000573346 0.000169765)
(-0.000777709 -0.000583833 0.000156512)
(-0.000792719 -0.000597524 0.000142028)
(-0.000782732 -0.000594283 0.00012204)
(-0.000779668 -0.00059626 0.000102728)
(-0.000782458 -0.000601434 8.24775e-05)
(-0.000777584 -0.000601612 6.04699e-05)
(-0.000776726 -0.000603705 3.77387e-05)
(-0.000772642 -0.00060241 1.28456e-05)
(-0.000130437 -6.8231e-05 -7.43866e-06)
(-0.000205685 -0.000176023 -6.27695e-05)
(-0.000318569 -0.000324388 -2.80275e-05)
(-0.000393119 -0.000416931 1.9868e-05)
(-0.000475117 -0.000487513 6.80145e-05)
(-0.000544772 -0.000525883 0.000107715)
(-0.000607884 -0.000550034 0.000140232)
(-0.000660014 -0.000562466 0.000166638)
(-0.000705431 -0.000569085 0.000187634)
(-0.000735582 -0.000565174 0.000199727)
(-0.000760042 -0.000562086 0.000205794)
(-0.000772539 -0.000556664 0.000204914)
(-0.000782605 -0.000555764 0.000200307)
(-0.000791351 -0.000558687 0.000192559)
(-0.000804737 -0.000568068 0.00018345)
(-0.000806135 -0.000571591 0.000170016)
(-0.000818185 -0.000582663 0.000157265)
(-0.000836967 -0.000598746 0.000143545)
(-0.000824929 -0.000595703 0.000123548)
(-0.000822772 -0.00059922 0.000104459)
(-0.000823687 -0.00060375 8.38104e-05)
(-0.000819505 -0.000605306 6.15975e-05)
(-0.000817832 -0.000607392 3.84817e-05)
(-0.000813219 -0.000606243 1.31014e-05)
(-0.000135003 -5.75405e-05 2.4273e-06)
(-0.00021315 -0.000157992 -6.62299e-05)
(-0.000313617 -0.00028802 -3.65917e-05)
(-0.000389432 -0.000382824 6.41107e-06)
(-0.000474784 -0.000458745 5.28717e-05)
(-0.000547675 -0.000502077 9.30597e-05)
(-0.000620108 -0.00053517 0.000128111)
(-0.000675291 -0.000549732 0.00015613)
(-0.000726505 -0.000559998 0.000179243)
(-0.000764526 -0.000561325 0.000194141)
(-0.00079238 -0.000559784 0.000201838)
(-0.00080787 -0.000555475 0.00020253)
(-0.000818985 -0.000554128 0.000198892)
(-0.00082961 -0.000557051 0.000192135)
(-0.000843633 -0.000565899 0.00018362)
(-0.000847432 -0.000570896 0.000171172)
(-0.000859443 -0.000581734 0.000158676)
(-0.000876881 -0.00059662 0.000144831)
(-0.000860713 -0.000592562 0.000124593)
(-0.000858728 -0.000596909 0.000105695)
(-0.000857222 -0.000600455 8.46958e-05)
(-0.000853229 -0.000602854 6.23408e-05)
(-0.00085159 -0.000605485 3.90286e-05)
(-0.00084733 -0.000605088 1.3304e-05)
(-0.000137507 -4.64643e-05 1.20041e-05)
(-0.000187523 -0.0001182 -5.87139e-05)
(-0.000301054 -0.000248019 -4.35456e-05)
(-0.000378366 -0.000344268 -6.80998e-06)
(-0.000466129 -0.000424871 3.68312e-05)
(-0.000547951 -0.000478206 7.7884e-05)
(-0.000622187 -0.000513045 0.000113773)
(-0.000686459 -0.000534139 0.000144454)
(-0.000742927 -0.000547097 0.000169438)
(-0.00078137 -0.000548054 0.000185335)
(-0.000812013 -0.000547922 0.000194714)
(-0.000830112 -0.000544811 0.000197103)
(-0.000846085 -0.000545862 0.000195545)
(-0.000858247 -0.000548969 0.000189931)
(-0.00087262 -0.000557285 0.000182185)
(-0.00087752 -0.000562672 0.00017061)
(-0.000890291 -0.000573681 0.000158706)
(-0.00090993 -0.000589626 0.000145515)
(-0.000893089 -0.000587001 0.000125653)
(-0.000891259 -0.000592111 0.000106956)
(-0.000887724 -0.000595119 8.56511e-05)
(-0.00088423 -0.000598507 6.31504e-05)
(-0.000881532 -0.000600901 3.95764e-05)
(-0.000876599 -0.000600536 1.34913e-05)
(-0.000140479 -3.60451e-05 2.13136e-05)
(-0.000195324 -0.000102269 -6.03348e-05)
(-0.000283597 -0.000207746 -4.87488e-05)
(-0.000359207 -0.000301815 -1.91714e-05)
(-0.000449781 -0.000387577 2.04247e-05)
(-0.000533364 -0.000444624 6.06189e-05)
(-0.00061886 -0.000488975 9.83684e-05)
(-0.000687338 -0.000512028 0.000130451)
(-0.000749335 -0.000527369 0.000157206)
(-0.000797206 -0.000534009 0.000176218)
(-0.000832975 -0.000536646 0.000188004)
(-0.000855438 -0.00053582 0.00019268)
(-0.000872465 -0.000536866 0.000192435)
(-0.0008862 -0.000540383 0.000188092)
(-0.000900336 -0.000547978 0.000181089)
(-0.000907437 -0.000554318 0.000170613)
(-0.000919956 -0.000564808 0.000159128)
(-0.000936395 -0.000578327 0.000145772)
(-0.000916201 -0.000575493 0.000126019)
(-0.000913495 -0.000580727 0.000107537)
(-0.00090738 -0.00058299 8.60181e-05)
(-0.000903666 -0.000586827 6.34672e-05)
(-0.000900663 -0.000589494 3.98626e-05)
(-0.000895989 -0.000589806 1.36047e-05)
(-0.000147263 -2.62158e-05 3.16461e-05)
(-0.000152283 -6.45838e-05 -4.55975e-05)
(-0.000257925 -0.000165776 -5.08185e-05)
(-0.000331433 -0.000256146 -2.96913e-05)
(-0.000421161 -0.000343911 4.14732e-06)
(-0.000515173 -0.000411971 4.30915e-05)
(-0.0006017 -0.000457575 8.06899e-05)
(-0.00068045 -0.000486969 0.000114893)
(-0.000750223 -0.000505375 0.000143807)
(-0.000799136 -0.000511241 0.000164061)
(-0.00083792 -0.000515237 0.000177865)
(-0.000863429 -0.000515991 0.000184722)
(-0.000885594 -0.000519743 0.000186929)
(-0.000901068 -0.000524014 0.000184128)
(-0.000915164 -0.000531244 0.000178144)
(-0.000922825 -0.000537432 0.000168635)
(-0.000935442 -0.00054757 0.000157863)
(-0.000952997 -0.000561331 0.000145287)
(-0.000933271 -0.000560732 0.000126321)
(-0.000929503 -0.000566083 0.000108082)
(-0.000920967 -0.000567941 8.63737e-05)
(-0.000917286 -0.000572368 6.37856e-05)
(-0.000912745 -0.000574536 4.01111e-05)
(-0.000907077 -0.000574751 1.36876e-05)
(-0.000142128 -1.45505e-05 3.94235e-05)
(-0.000161864 -5.39075e-05 -4.59759e-05)
(-0.00022858 -0.00012596 -4.98177e-05)
(-0.000294766 -0.00020819 -3.73268e-05)
(-0.000385192 -0.000298697 -1.09963e-05)
(-0.000477203 -0.000368064 2.44001e-05)
(-0.000576762 -0.000424663 6.20528e-05)
(-0.000660907 -0.000456927 9.70889e-05)
(-0.000736502 -0.000476849 0.000127667)
(-0.000796806 -0.000487753 0.000151309)
(-0.000842531 -0.000494314 0.000168034)
(-0.000873257 -0.000497699 0.000177651)
(-0.000896159 -0.000501573 0.000181585)
(-0.000912912 -0.000506475 0.000180384)
(-0.000926469 -0.000513257 0.000175437)
(-0.000935796 -0.00051987 0.000167148)
(-0.000947534 -0.000529106 0.000156971)
(-0.000959992 -0.000539554 0.000144302)
(-0.000936947 -0.000538995 0.000125724)
(-0.000930855 -0.00054388 0.000107746)
(-0.000919377 -0.000545274 8.59631e-05)
(-0.000914856 -0.000549741 6.34633e-05)
(-0.000909433 -0.000551865 4.00009e-05)
(-0.00090377 -0.000552683 1.36645e-05)
(-0.000146019 -3.88553e-06 4.99141e-05)
(-0.000133098 -3.34711e-05 -3.5279e-05)
(-0.000194334 -8.90548e-05 -4.4973e-05)
(-0.000251107 -0.000160295 -4.07706e-05)
(-0.000333605 -0.000246131 -2.35361e-05)
(-0.000436463 -0.000326828 6.5585e-06)
(-0.000534481 -0.000383921 4.18821e-05)
(-0.000629492 -0.000423571 7.75789e-05)
(-0.000715677 -0.000448458 0.000110369)
(-0.000778359 -0.000458047 0.000135882)
(-0.000827672 -0.000464607 0.000154994)
(-0.000861382 -0.000468244 0.000166944)
(-0.000889068 -0.000474544 0.000173497)
(-0.00090748 -0.000480521 0.000174211)
(-0.000920961 -0.000487342 0.000170618)
(-0.000929991 -0.00049326 0.000163388)
(-0.000940898 -0.000501626 0.000154041)
(-0.000953635 -0.000512051 0.00014238)
(-0.000931207 -0.000514141 0.000124923)
(-0.000922616 -0.000518989 0.000107283)
(-0.00090799 -0.000520202 8.54222e-05)
(-0.000902771 -0.000524919 6.30411e-05)
(-0.000895156 -0.000526378 3.9794e-05)
(-0.000888012 -0.000526951 1.35882e-05)
(-0.000142241 6.97549e-06 5.77918e-05)
(-0.000158178 -2.88599e-05 -3.86056e-05)
(-0.000155758 -5.69228e-05 -3.59454e-05)
(-0.000199758 -0.000113168 -3.85412e-05)
(-0.00027878 -0.000195812 -3.26093e-05)
(-0.000371203 -0.000272261 -9.87439e-06)
(-0.000483836 -0.000342258 2.19087e-05)
(-0.000584371 -0.000386116 5.66909e-05)
(-0.000675486 -0.000413221 9.03611e-05)
(-0.000751742 -0.00042866 0.000119525)
(-0.000809743 -0.000437759 0.000142129)
(-0.000849791 -0.000443041 0.000157373)
(-0.000877657 -0.000448417 0.000165836)
(-0.000896622 -0.000454554 0.000168283)
(-0.000909275 -0.000461132 0.000165955)
(-0.00091907 -0.000467081 0.000160014)
(-0.000928139 -0.000474562 0.000151432)
(-0.000933826 -0.000481597 0.000139826)
(-0.000907098 -0.000483377 0.000122967)
(-0.000894396 -0.000487577 0.000105676)
(-0.000876236 -0.000488602 8.38772e-05)
(-0.000869451 -0.000492938 6.17839e-05)
(-0.000860213 -0.000494108 3.91026e-05)
(-0.000852764 -0.000495099 1.33648e-05)
(-0.000134597 1.63849e-05 6.30092e-05)
(-0.000126236 -1.56703e-05 -2.79439e-05)
(-0.000111053 -3.08093e-05 -2.34527e-05)
(-0.000147573 -7.17297e-05 -3.12054e-05)
(-0.000206155 -0.000137954 -3.48242e-05)
(-0.000308475 -0.000224169 -2.35612e-05)
(-0.000413191 -0.000291367 2.39067e-06)
(-0.000524629 -0.000343999 3.52284e-05)
(-0.000628398 -0.000378882 7.00829e-05)
(-0.000706828 -0.000394489 0.000101054)
(-0.0007682 -0.000403637 0.000126298)
(-0.000810711 -0.000408662 0.000144095)
(-0.000843121 -0.000415565 0.000155302)
(-0.00086344 -0.000422207 0.000159725)
(-0.00087589 -0.000428788 0.000158886)
(-0.000884159 -0.000433711 0.000153989)
(-0.000891103 -0.000440275 0.000146383)
(-0.00089607 -0.000447645 0.000136115)
(-0.000869927 -0.00045136 0.00012067)
(-0.000853268 -0.000455316 0.000103804)
(-0.000830941 -0.000456197 8.20051e-05)
(-0.000822721 -0.000460072 6.02537e-05)
(-0.000810593 -0.000460344 3.82005e-05)
(-0.000801086 -0.000460717 1.30416e-05)
(-0.000120954 2.27569e-05 6.30302e-05)
(-0.000121 -9.28316e-06 -2.40072e-05)
(-8.5131e-05 -1.72988e-05 -1.43284e-05)
(-8.77937e-05 -3.43114e-05 -1.77536e-05)
(-0.000142673 -9.06899e-05 -3.252e-05)
(-0.000216633 -0.000159193 -3.08334e-05)
(-0.000337858 -0.000241351 -1.47856e-05)
(-0.000453188 -0.000298476 1.43936e-05)
(-0.000559546 -0.000336018 4.87596e-05)
(-0.000651724 -0.00035976 8.25842e-05)
(-0.000722006 -0.000373093 0.000111266)
(-0.000770809 -0.000380526 0.000132365)
(-0.000802409 -0.000386395 0.000145408)
(-0.000822359 -0.000392625 0.00015148)
(-0.000833577 -0.000398578 0.000151896)
(-0.000841438 -0.00040328 0.000148255)
(-0.000845506 -0.000408718 0.000141539)
(-0.000841323 -0.000412701 0.000131413)
(-0.000809146 -0.000414532 0.000116579)
(-0.000786231 -0.000416994 0.00010008)
(-0.000759776 -0.000417319 7.85252e-05)
(-0.000749338 -0.000419893 5.74148e-05)
(-0.00073487 -0.000419342 3.64961e-05)
(-0.000724867 -0.000419744 1.24645e-05)
(-0.00011058 2.6612e-05 6.0366e-05)
(-0.000115835 -5.43884e-06 -2.06208e-05)
(-7.62267e-05 -1.13733e-05 -7.67425e-06)
(-4.67387e-05 -1.27298e-05 -6.15918e-06)
(-5.60625e-05 -3.37394e-05 -1.63899e-05)
(-0.00014349 -0.000109953 -3.48919e-05)
(-0.000241266 -0.000178892 -2.76552e-05)
(-0.000367332 -0.000246504 -4.16805e-06)
(-0.000487561 -0.00029478 2.96208e-05)
(-0.000578716 -0.000319542 6.4178e-05)
(-0.000649411 -0.000334356 9.43779e-05)
(-0.000697963 -0.000342567 0.000117043)
(-0.000733003 -0.00035054 0.000132261)
(-0.000753484 -0.000357212 0.000139942)
(-0.000764049 -0.00036288 0.000141654)
(-0.000768728 -0.000366238 0.000138868)
(-0.000769095 -0.000370145 0.00013311)
(-0.000763412 -0.000374415 0.000124575)
(-0.00073237 -0.00037718 0.000111515)
(-0.000704985 -0.000378714 9.56435e-05)
(-0.000674048 -0.000377798 7.42724e-05)
(-0.000662077 -0.000379093 5.39812e-05)
(-0.000644647 -0.000377093 3.43739e-05)
(-0.000632255 -0.000376198 1.1704e-05)
(-9.80665e-05 2.57295e-05 5.06681e-05)
(-0.000118692 -4.148e-06 -1.91175e-05)
(-6.7159e-05 -7.43887e-06 -8.17058e-07)
(-3.10625e-05 -4.38402e-06 2.12756e-06)
(-1.76417e-05 -1.14126e-05 -6.07697e-06)
(-3.33189e-05 -2.98332e-05 -1.5706e-05)
(-0.000155193 -0.000123118 -3.62736e-05)
(-0.000277157 -0.000192323 -1.83759e-05)
(-0.000393943 -0.000242622 1.34157e-05)
(-0.00049726 -0.000278057 4.86172e-05)
(-0.000573958 -0.000298796 8.01526e-05)
(-0.000626382 -0.000310926 0.000104385)
(-0.000658056 -0.000318477 0.000120101)
(-0.00067653 -0.000324791 0.000128568)
(-0.000685087 -0.000329667 0.000131104)
(-0.000688449 -0.000332694 0.000129409)
(-0.000685637 -0.000335337 0.000124644)
(-0.00066944 -0.000335373 0.000116131)
(-0.00063048 -0.000333751 0.00010346)
(-0.000595107 -0.000331674 8.79206e-05)
(-0.000560307 -0.000328758 6.72208e-05)
(-0.000545877 -0.000327656 4.83173e-05)
(-0.000526082 -0.00032392 3.08056e-05)
(-0.000513482 -0.000322542 1.04714e-05)
(-9.18905e-05 2.40798e-05 4.12317e-05)
(-0.000103864 -2.17111e-06 -1.53384e-05)
(-5.9324e-05 -3.21854e-06 4.85219e-06)
(-1.57028e-05 4.66399e-06 9.24319e-06)
(8.64579e-06 5.59913e-06 -7.55608e-07)
(9.62589e-07 -7.76908e-06 -1.40272e-05)
(-5.0109e-05 -4.41132e-05 -2.44645e-05)
(-0.000181 -0.000130759 -2.38384e-05)
(-0.000307107 -0.000194648 4.5435e-06)
(-0.000400064 -0.000230047 3.6922e-05)
(-0.000471074 -0.000252797 6.60588e-05)
(-0.000518839 -0.000266281 8.8458e-05)
(-0.000551973 -0.000276785 0.000104095)
(-0.000569496 -0.000283669 0.000112719)
(-0.000576421 -0.000288053 0.000115744)
(-0.000575114 -0.00028912 0.000114388)
(-0.000567057 -0.000289249 0.000110279)
(-0.000549964 -0.000289122 0.000103497)
(-0.000514163 -0.00028785 9.30491e-05)
(-0.000476257 -0.000284096 7.86033e-05)
(-0.000438472 -0.000278625 5.87134e-05)
(-0.000423757 -0.00027591 4.16743e-05)
(-0.000402429 -0.000270316 2.65764e-05)
(-0.000387724 -0.000266866 8.9492e-06)
(-7.16242e-05 1.97964e-05 2.78862e-05)
(-9.83289e-05 8.0207e-08 -1.40542e-05)
(-5.42962e-05 2.40092e-06 6.39151e-06)
(-7.15566e-06 9.45896e-06 6.08094e-06)
(1.99594e-05 1.23301e-05 5.24367e-07)
(1.62666e-05 1.14824e-05 -2.46612e-06)
(-1.10325e-05 -9.38952e-06 -1.23832e-05)
(-9.71993e-05 -7.21107e-05 -1.53566e-05)
(-0.000201033 -0.000133401 5.57848e-06)
(-0.000300381 -0.000181929 3.24933e-05)
(-0.000371913 -0.000211461 5.72403e-05)
(-0.000419511 -0.000229293 7.66225e-05)
(-0.000445889 -0.000238871 8.9376e-05)
(-0.000459653 -0.000245014 9.67394e-05)
(-0.000463797 -0.000248308 9.95052e-05)
(-0.000461556 -0.000249087 9.89274e-05)
(-0.000451748 -0.000248192 9.58708e-05)
(-0.000424216 -0.000242211 8.85401e-05)
(-0.000379793 -0.000233846 7.78398e-05)
(-0.000333788 -0.000223163 6.35409e-05)
(-0.000294337 -0.000213732 4.54145e-05)
(-0.000277714 -0.000207524 3.12872e-05)
(-0.000255391 -0.000199105 1.97668e-05)
(-0.000241771 -0.000194874 6.57367e-06)
(-5.89428e-05 1.77029e-05 2.10873e-05)
(-9.05702e-05 2.21716e-06 -1.25249e-05)
(-4.92375e-05 3.28565e-06 4.75063e-06)
(9.56102e-06 5.99507e-06 5.0227e-06)
(1.97514e-05 9.398e-06 1.11372e-05)
(1.58737e-05 1.10148e-05 1.41026e-05)
(1.10021e-06 1.86828e-06 1.08035e-05)
(-2.96982e-05 -2.25817e-05 5.96274e-06)
(-0.00012063 -8.81782e-05 1.92836e-05)
(-0.000188942 -0.000127633 3.38833e-05)
(-0.000245386 -0.000156144 4.83776e-05)
(-0.00028393 -0.000173895 5.9977e-05)
(-0.000311157 -0.000186688 6.89923e-05)
(-0.000323377 -0.000193045 7.41556e-05)
(-0.000325457 -0.0001953 7.60441e-05)
(-0.000318154 -0.000193012 7.49409e-05)
(-0.000301918 -0.000187665 7.1607e-05)
(-0.000277815 -0.000181668 6.60929e-05)
(-0.000240885 -0.000173775 5.79928e-05)
(-0.000199422 -0.000161812 4.58925e-05)
(-0.00016219 -0.000149378 3.02432e-05)
(-0.000148809 -0.000142535 2.01165e-05)
(-0.000129002 -0.000132752 1.24933e-05)
(-0.000114761 -0.000125594 3.94384e-06)
(-5.01969e-05 1.57042e-05 1.64367e-05)
(-8.30382e-05 4.13895e-06 -1.03135e-05)
(-4.26403e-05 2.33572e-06 6.56891e-06)
(3.04262e-06 9.40907e-06 1.4556e-05)
(1.80449e-05 1.2236e-05 2.47479e-05)
(2.56957e-05 9.79761e-06 3.12735e-05)
(2.04852e-05 1.9131e-06 3.35647e-05)
(3.28902e-06 -1.13157e-05 3.05727e-05)
(-2.00202e-05 -2.437e-05 2.04646e-05)
(-8.54842e-05 -7.81264e-05 3.86604e-05)
(-0.000137289 -0.000110772 4.4667e-05)
(-0.000173618 -0.000131189 4.83529e-05)
(-0.000191558 -0.000139767 4.98868e-05)
(-0.000199729 -0.00014398 5.12152e-05)
(-0.000199699 -0.000144491 5.15188e-05)
(-0.000194083 -0.000142368 5.1057e-05)
(-0.00018093 -0.00013745 4.90903e-05)
(-0.000147968 -0.000122018 4.13655e-05)
(-0.000107594 -0.000104374 3.2005e-05)
(-6.26023e-05 -7.84779e-05 1.91263e-05)
(-3.12512e-05 -5.80261e-05 7.72711e-06)
(-2.02736e-05 -4.42323e-05 3.54942e-06)
(-7.48719e-06 -2.64276e-05 1.12531e-06)
(-2.17026e-06 -1.85026e-05 1.44893e-07)
(-3.92805e-05 1.53045e-05 1.29944e-05)
(-7.56112e-05 7.21117e-06 -1.13097e-05)
(-4.80712e-05 8.84969e-06 4.06245e-06)
(-1.30927e-05 1.77403e-05 1.34628e-05)
(4.35275e-06 1.90301e-05 1.51302e-05)
(2.07256e-05 1.71937e-05 2.08987e-05)
(3.08679e-05 1.02811e-05 2.78915e-05)
(3.44674e-05 1.57321e-06 3.66474e-05)
(2.18591e-05 -1.01432e-05 3.49778e-05)
(1.61433e-06 -1.92462e-05 2.32562e-05)
(-1.64662e-05 -3.50831e-05 2.21762e-05)
(-3.36678e-05 -4.63438e-05 1.86245e-05)
(-5.65913e-05 -6.5415e-05 1.9692e-05)
(-6.53735e-05 -7.06678e-05 1.86515e-05)
(-6.54076e-05 -6.98189e-05 1.76262e-05)
(-5.67816e-05 -6.19964e-05 1.59068e-05)
(-3.62675e-05 -4.3391e-05 1.08684e-05)
(-2.34393e-05 -3.65915e-05 7.0497e-06)
(-3.90266e-06 -1.85623e-05 9.71571e-07)
(1.17313e-05 -1.39555e-05 -6.54902e-06)
(1.48016e-05 1.0357e-07 -6.79022e-06)
(2.32568e-05 4.31575e-06 -7.00238e-06)
(1.78833e-05 6.98897e-06 -2.75695e-06)
(2.63933e-05 1.32391e-05 -9.46345e-07)
(-1.92259e-05 1.50714e-05 1.43939e-05)
(-6.01762e-05 1.09425e-05 -1.4346e-05)
(-5.4391e-05 1.31482e-05 -5.11286e-06)
(-3.89933e-05 2.89438e-05 5.38884e-06)
(-1.40927e-05 4.59089e-05 4.99612e-06)
(1.22764e-05 4.71672e-05 1.55282e-06)
(3.36676e-05 2.87162e-05 7.5032e-06)
(3.11495e-05 1.1874e-05 1.50003e-05)
(4.23097e-05 1.09061e-05 2.93282e-05)
(3.16042e-05 4.59637e-06 2.26437e-05)
(3.10539e-05 -2.38006e-06 1.96904e-05)
(1.9473e-05 -9.80055e-06 8.51197e-06)
(1.09642e-05 -1.51467e-05 -9.61845e-07)
(4.88684e-06 -1.39846e-05 -6.05595e-06)
(3.61989e-06 -1.13991e-05 -7.51176e-06)
(5.98623e-06 -1.17243e-05 -1.03863e-05)
(1.16064e-05 -8.61666e-06 -1.4298e-05)
(1.3152e-05 -4.20139e-07 -1.28571e-05)
(2.19387e-05 8.65518e-06 -1.7184e-05)
(2.61324e-05 1.63107e-05 -1.52741e-05)
(2.93835e-05 2.09894e-05 -1.0399e-05)
(2.76892e-05 2.00692e-05 -4.78856e-06)
(2.69107e-05 1.88327e-05 -1.17274e-06)
(2.99643e-05 1.97545e-05 1.95211e-07)
(1.22025e-06 1.63509e-05 2.42169e-05)
(-3.56994e-05 1.62518e-05 -1.41647e-05)
(-4.84373e-05 1.54148e-05 -1.27477e-05)
(-5.02243e-05 2.86502e-05 -8.01825e-06)
(-2.87181e-05 4.62388e-05 -1.06583e-05)
(4.66284e-06 5.03436e-05 -1.76702e-05)
(3.14864e-05 4.08221e-05 -1.83063e-05)
(4.11292e-05 2.00122e-05 -3.56081e-06)
(3.3264e-05 1.06485e-05 1.20987e-05)
(3.87206e-05 1.38671e-05 1.78872e-05)
(3.77379e-05 1.26162e-05 1.26092e-05)
(3.45918e-05 1.06186e-05 5.11663e-06)
(2.88694e-05 9.37638e-06 -3.60961e-06)
(3.41249e-05 1.33476e-05 -1.62019e-05)
(2.12464e-05 1.00273e-05 -1.70854e-05)
(2.00046e-05 1.10199e-05 -1.98406e-05)
(2.83773e-05 1.73967e-05 -2.80453e-05)
(3.15058e-05 1.98556e-05 -2.65329e-05)
(2.98125e-05 1.75933e-05 -1.81592e-05)
(3.13534e-05 1.52325e-05 -1.26566e-05)
(3.47936e-05 1.39197e-05 -8.18903e-06)
(3.76724e-05 1.26686e-05 -3.52233e-06)
(4.29161e-05 1.11188e-05 -1.29953e-07)
(4.69966e-05 1.00019e-05 8.06114e-07)
(3.59988e-06 2.04502e-05 3.46078e-05)
(-2.06001e-05 2.58801e-05 -1.18228e-05)
(-3.68344e-05 1.9702e-05 -1.49065e-05)
(-4.83849e-05 2.83826e-05 -1.55449e-05)
(-3.79203e-05 4.1412e-05 -2.00881e-05)
(-1.10993e-05 4.58086e-05 -2.75801e-05)
(1.62653e-05 3.45123e-05 -2.9695e-05)
(3.45366e-05 1.23012e-05 -1.56043e-05)
(5.00275e-05 4.75667e-06 9.84877e-06)
(7.15596e-05 1.35314e-05 2.30255e-05)
(8.60171e-05 1.9112e-05 1.75438e-05)
(7.86748e-05 1.76381e-05 3.71082e-06)
(6.36856e-05 1.61972e-05 -9.19847e-06)
(4.77334e-05 1.41118e-05 -1.77452e-05)
(3.37534e-05 1.14509e-05 -1.98958e-05)
(2.43999e-05 8.78054e-06 -1.79084e-05)
(2.3611e-05 7.70087e-06 -1.78911e-05)
(3.07399e-05 7.55027e-06 -2.06057e-05)
(4.02739e-05 5.29691e-06 -2.03202e-05)
(4.87927e-05 -3.97769e-09 -1.66053e-05)
(5.31949e-05 -4.12601e-06 -1.01761e-05)
(5.59692e-05 -6.37847e-06 -3.38271e-06)
(5.86447e-05 -8.32975e-06 7.71562e-07)
(6.13614e-05 -8.57861e-06 1.277e-06)
(-6.12877e-07 2.16921e-05 3.65016e-05)
(-1.54183e-05 3.22451e-05 -6.94018e-06)
(-3.25465e-05 2.89618e-05 -1.55134e-05)
(-4.33801e-05 3.07634e-05 -1.8285e-05)
(-4.00768e-05 3.60886e-05 -2.31529e-05)
(-2.23542e-05 3.59694e-05 -3.03583e-05)
(9.43018e-07 2.25916e-05 -3.27683e-05)
(2.14897e-05 4.41925e-07 -1.87699e-05)
(4.29675e-05 -7.0987e-06 5.89698e-06)
(6.92619e-05 1.25752e-06 1.67606e-05)
(8.9015e-05 7.36525e-06 1.0187e-05)
(9.36168e-05 7.47971e-06 -3.28974e-06)
(8.61538e-05 6.15171e-06 -1.68675e-05)
(7.34707e-05 3.56547e-06 -2.72454e-05)
(6.22788e-05 8.14543e-07 -3.33605e-05)
(5.54019e-05 -2.27339e-06 -3.56842e-05)
(5.27275e-05 -5.96587e-06 -3.45698e-05)
(5.29473e-05 -9.90978e-06 -3.05914e-05)
(5.55032e-05 -1.37996e-05 -2.3944e-05)
(5.82246e-05 -1.70601e-05 -1.65606e-05)
(5.99329e-05 -1.90221e-05 -8.86508e-06)
(6.30334e-05 -1.92654e-05 -2.07416e-06)
(6.45699e-05 -1.83519e-05 1.6266e-06)
(6.49777e-05 -1.62039e-05 1.55308e-06)
(-4.18965e-06 1.85554e-05 2.91209e-05)
(-1.69154e-05 3.25394e-05 -4.01942e-06)
(-2.86686e-05 3.27069e-05 -1.33631e-05)
(-3.78429e-05 3.17658e-05 -1.79068e-05)
(-3.85799e-05 3.14726e-05 -2.30613e-05)
(-2.83201e-05 2.68975e-05 -2.90553e-05)
(-1.04967e-05 1.34482e-05 -2.9714e-05)
(9.02163e-06 -3.95276e-06 -1.79545e-05)
(2.87886e-05 -9.51587e-06 -2.78855e-07)
(4.96283e-05 -4.63069e-06 6.78949e-06)
(7.15429e-05 -8.42548e-07 2.645e-06)
(8.25448e-05 7.6638e-08 -7.67956e-06)
(8.58679e-05 -2.17362e-06 -2.03015e-05)
(7.92587e-05 -6.95264e-06 -2.97178e-05)
(7.03985e-05 -1.14788e-05 -3.46235e-05)
(6.35918e-05 -1.52015e-05 -3.57146e-05)
(6.01601e-05 -1.84065e-05 -3.39798e-05)
(5.88529e-05 -2.09298e-05 -2.95025e-05)
(5.90519e-05 -2.19111e-05 -2.22024e-05)
(5.92982e-05 -2.09574e-05 -1.43218e-05)
(5.79796e-05 -1.98688e-05 -6.28619e-06)
(5.91433e-05 -1.82563e-05 -3.22739e-07)
(5.64029e-05 -1.54215e-05 2.22098e-06)
(5.26676e-05 -1.315e-05 1.49805e-06)
(-5.27534e-06 1.36548e-05 1.97246e-05)
(-1.79574e-05 2.7668e-05 -2.64529e-06)
(-2.70689e-05 3.07336e-05 -1.23859e-05)
(-3.38613e-05 2.97894e-05 -1.82731e-05)
(-3.57507e-05 2.68069e-05 -2.40713e-05)
(-3.00997e-05 2.01822e-05 -2.98144e-05)
(-1.78124e-05 7.83907e-06 -3.17438e-05)
(-2.79734e-06 -7.51822e-06 -2.58803e-05)
(1.04358e-05 -1.51159e-05 -1.24986e-05)
(2.04811e-05 -1.25692e-05 -3.53059e-06)
(3.31484e-05 -9.62005e-06 -2.16068e-06)
(3.88174e-05 -5.67934e-06 -4.9772e-06)
(5.51451e-05 -5.62082e-06 -1.37643e-05)
(6.31766e-05 -8.30531e-06 -2.36444e-05)
(6.32757e-05 -1.25975e-05 -2.98338e-05)
(6.10979e-05 -1.66323e-05 -3.18802e-05)
(5.85103e-05 -1.91498e-05 -3.01847e-05)
(5.58642e-05 -2.02114e-05 -2.52452e-05)
(5.27454e-05 -1.90962e-05 -1.75124e-05)
(4.93943e-05 -1.69627e-05 -9.83144e-06)
(4.88477e-05 -1.61958e-05 -3.21927e-06)
(4.95614e-05 -1.50475e-05 1.32e-06)
(4.78675e-05 -1.37856e-05 2.82951e-06)
(4.68114e-05 -1.33712e-05 1.64333e-06)
(-4.04495e-06 8.05289e-06 1.0644e-05)
(-1.56512e-05 1.881e-05 -1.848e-06)
(-2.44615e-05 2.4195e-05 -1.18823e-05)
(-3.01091e-05 2.43829e-05 -1.94983e-05)
(-3.17514e-05 2.07905e-05 -2.62015e-05)
(-2.79098e-05 1.31147e-05 -3.21984e-05)
(-1.82483e-05 3.68123e-07 -3.45868e-05)
(-4.0362e-06 -1.40616e-05 -2.9534e-05)
(1.03007e-05 -2.08213e-05 -1.67838e-05)
(2.44428e-05 -2.07633e-05 -9.38762e-06)
(4.34543e-05 -2.25453e-05 -8.94898e-06)
(5.48845e-05 -2.03928e-05 -1.03101e-05)
(5.17658e-05 -1.48311e-05 -1.30257e-05)
(4.85623e-05 -1.23607e-05 -1.69797e-05)
(4.79561e-05 -1.28237e-05 -2.08144e-05)
(4.82425e-05 -1.44173e-05 -2.29241e-05)
(4.80154e-05 -1.59207e-05 -2.23372e-05)
(4.71844e-05 -1.68186e-05 -1.8943e-05)
(4.5967e-05 -1.66263e-05 -1.30822e-05)
(4.57749e-05 -1.58352e-05 -6.93422e-06)
(4.58962e-05 -1.52431e-05 -9.51018e-07)
(4.65063e-05 -1.45288e-05 2.89844e-06)
(4.59623e-05 -1.40676e-05 3.75486e-06)
(4.55384e-05 -1.40162e-05 1.9324e-06)
(-1.22525e-06 1.18916e-06 9.67614e-07)
(-1.02059e-05 7.06799e-06 -1.19551e-06)
(-1.95402e-05 1.33423e-05 -9.31758e-06)
(-2.55271e-05 1.54597e-05 -1.84121e-05)
(-2.72047e-05 1.2807e-05 -2.63031e-05)
(-2.38594e-05 5.50317e-06 -3.22105e-05)
(-1.49515e-05 -5.77439e-06 -3.38947e-05)
(-2.01498e-06 -1.69334e-05 -2.79485e-05)
(1.08899e-05 -1.95957e-05 -1.5706e-05)
(2.30042e-05 -1.94017e-05 -1.13151e-05)
(3.16623e-05 -1.80618e-05 -9.31574e-06)
(3.62811e-05 -1.57694e-05 -8.44927e-06)