/*--------------------------------*- C++ -*----------------------------------*\
  =========                 |
  \\      /  F ield         | OpenFOAM: The Open Source CFD Toolbox
   \\    /   O peration     | Website:  https://openfoam.org
    \\  /    A nd           | Version:  6
     \\/     M anipulation  |
\*---------------------------------------------------------------------------*/
FoamFile
{
    version     2.0;
    format      ascii;
    class       volScalarField;
    location    "9";
    object      yPlus;
}
// * * * * * * * * * * * * * * * * * * * * * * * * * * * * * * * * * * * * * //

dimensions      [0 0 0 0 0 0 0];

internalField   uniform 0;

boundaryField
{
    inlet
    {
        type            calculated;
        value           uniform 0;
    }
    outlet
    {
        type            calculated;
        value           uniform 0;
    }
    roughCylinder
    {
        type            calculated;
        value           nonuniform List<scalar> 
3840
(
13.8378
26.9862
38.792
41.78
44.624
45.0926
45.7918
45.673
45.6645
45.4249
45.5191
45.5506
45.3503
44.9235
44.1731
42.7021
43.1969
42.5917
42.7701
41.8062
42.207
41.0802
40.7527
40.2459
12.9633
26.9566
38.2239
41.471
44.2964
44.8827
45.7451
45.5216
45.8308
45.6992
45.7626
45.6939
45.3064
44.989
44.4916
43.2372
43.6008
43.2216
43.0994
42.137
42.4492
41.4372
41.1575
40.696
16.0004
25.6458
37.7753
41.1713
44.0957
44.8198
45.5928
45.6426
45.7489
45.5256
45.6669
45.5007
45.1388
44.8292
44.5976
43.4987
43.8325
43.8884
43.5587
42.6819
42.9173
42.042
41.7534
41.2909
13.6567
25.5972
37.1443
40.816
43.7648
44.5893
45.6269
45.5704
45.9879
45.9919
46.064
45.7856
45.2779
45.0452
45.0222
44.1273
44.3695
44.578
43.9041
43.1162
43.2327
42.4638
42.2239
41.8133
11.9734
23.6739
36.5026
40.444
43.5248
44.5917
45.5032
45.7993
46.1209
45.9668
46.0459
45.6865
45.291
45.0587
45.1907
44.4253
44.6911
45.2311
44.3803
43.7345
43.7651
43.1151
42.8655
42.456
15.5854
23.8532
35.7486
40.0038
43.184
44.3144
45.5976
45.7968
46.3641
46.4961
46.5282
46.1201
45.638
45.4557
45.6649
45.0791
45.3124
45.8751
44.7546
44.2188
44.136
43.5732
43.3743
43.0211
10.4413
21.2261
34.8074
39.4916
42.8513
44.3583
45.4621
46.0389
46.5908
46.5046
46.5215
46.0914
45.7882
45.611
45.8552
45.369
45.6597
46.4487
45.2697
44.8632
44.7119
44.2529
44.0449
43.6929
9.19889
21.5456
33.8094
38.8672
42.4558
43.9632
45.5422
46.0243
46.7273
46.9754
47.018
46.6311
46.274
46.1286
46.3529
46.0252
46.3126
47.0178
45.6754
45.3518
45.1125
44.7234
44.5663
44.2737
10.5898
18.0262
32.4218
38.0677
41.8939
43.9731
45.3064
46.1652
46.9332
46.9395
46.968
46.6047
46.4616
46.3399
46.5409
46.2864
46.6329
47.4955
46.2222
45.9892
45.7052
45.4077
45.2404
44.9465
11.8878
18.6755
30.9598
37.0426
41.3195
43.316
45.2739
46.0531
46.8833
47.2823
47.4266
47.1797
46.9831
46.8884
47.0368
46.9225
47.2739
47.9742
46.6175
46.4299
46.0888
45.8484
45.729
45.4972
13.0256
13.5528
28.8928
35.7059
40.2776
43.1801
44.8208
45.9989
47.0003
47.1512
47.2796
47.0687
47.0974
47.0545
47.1818
47.1151
47.5114
48.3395
47.1493
47.0208
46.6562
46.4996
46.3668
46.1291
13.2315
14.6213
26.5864
33.9048
39.3207
42.0159
44.5732
45.7191
46.7077
47.3208
47.6517
47.6132
47.5748
47.5582
47.6445
47.7005
48.0995
48.7016
47.4644
47.3461
46.9523
46.8412
46.7484
46.5776
14.987
9.74395
23.623
31.6439
37.3285
41.5957
43.7209
45.3647
46.6926
47.0486
47.3388
47.3186
47.5178
47.5856
47.6859
47.7607
48.181
48.9111
47.905
47.8306
47.4323
47.3992
47.2879
47.1067
16.31
14.6844
19.7475
28.3531
35.6567
39.3966
43.1103
44.819
46.0729
47.005
47.5918
47.783
47.8912
47.9795
48.0663
48.2447
48.6588
49.1052
48.0598
47.9758
47.5777
47.5882
47.5103
47.4061
17.4492
7.8304
14.3669
24.4449
31.5106
38.4768
41.4351
43.9531
45.8551
46.5186
47.0467
47.2295
47.5912
47.7895
47.9354
48.099
48.5189
49.1154
48.3694
48.3359
47.9507
48.0343
47.9299
47.8043
17.5854
10.4484
11.4398
17.217
28.546
33.6209
40.127
42.8989
44.6871
46.1818
47.1369
47.6085
47.8635
48.0727
48.225
48.4716
48.8746
49.1106
48.2627
48.169
47.8208
47.9278
47.8385
47.8093
17.6782
2.62512
11.2912
2.76041
15.6065
31.8864
36.2372
40.9562
44.0948
45.27
46.1752
46.6204
47.1979
47.5533
47.7937
47.9636
48.309
48.7283
48.3074
48.3102
47.9921
48.1751
48.0467
47.9701
16.159
12.7101
7.63981
11.8135
7.84445
11.9848
33.3619
38.6344
41.7526
44.4146
45.9825
46.8552
47.2937
47.6517
47.9073
48.1542
48.4899
48.402
47.6943
47.47
47.1819
47.3119
47.1304
47.1755
15.3512
7.83709
11.4913
11.3162
11.8195
13.6488
17.7452
33.9266
40.3888
42.5238
44.0741
44.9294
45.8603
46.4181
46.7686
46.8107
46.9209
47.0665
47.02
47.009
46.7791
47.012
46.7767
46.6943
12.3004
11.564
4.59779
11.886
3.12077
8.55292
5.97091
27.2751
34.9453
40.535
43.2924
44.8052
45.4687
45.9888
46.331
46.4955
46.6701
45.9348
45.1353
44.3232
43.9491
43.8111
43.2484
43.3021
11.1073
7.06184
10.0382
6.22939
7.24867
9.20389
13.7518
14.3533
32.6154
36.0438
38.7151
40.2912
41.9571
42.8079
43.2088
42.8457
42.2075
41.8998
42.2017
41.9791
41.7066
41.8513
41.2478
40.7623
11.471
10.1971
9.82813
9.24696
13.8491
13.4536
12.9807
14.0448
11.8912
30.0777
36.1321
39.2981
40.1045
40.744
41.0448
41.0359
40.8989
37.7887
35.6755
30.371
26.704
22.2781
14.7766
11.3484
11.1115
9.77328
4.74626
11.9964
11.7958
3.86813
2.04767
13.5516
14.0736
8.49668
15.5909
18.2132
25.8196
28.019
28.2275
25.6149
18.2571
17.6973
7.09795
19.9673
4.28275
18.486
8.94681
17.2304
9.02616
7.87369
4.45441
17.3508
23.6249
24.8754
19.5234
7.90352
15.2523
11.3108
15.5343
15.5106
17.2943
13.9586
9.29576
14.7325
17.4825
5.36559
14.1303
14.8281
15.8835
14.9625
14.0045
15.4496
8.83926
11.6849
7.82697
17.668
24.889
27.9275
27.4886
23.0882
13.4141
12.9828
8.99442
8.01759
10.0351
17.8094
8.5562
8.99697
17.6434
19.0094
16.3004
16.4588
17.6981
19.3081
21.7224
23.0379
11.915
15.0618
12.7292
18.3523
24.7048
28.4095
28.9794
26.6843
26.5247
27.4631
28.0185
25.435
22.9752
19.7016
15.2565
11.1694
11.795
16.3544
21.3409
25.0777
26.5167
27.1081
26.9064
26.7898
12.9639
18.4278
18.7737
21.5647
25.6019
28.5193
29.2954
28.0093
26.8415
26.7543
26.9666
27.2811
27.888
27.6979
27.2223
27.2476
27.3281
27.2766
26.9956
26.6714
26.8214
27.3321
26.9327
26.3383
12.3316
20.0609
22.4208
24.5153
26.8371
28.6529
29.0865
28.001
25.7965
22.8592
23.5265
24.6232
27.2263
27.9426
27.696
27.2963
27.0523
26.8364
26.3598
25.8708
24.8886
24.7184
22.8874
20.999
10.8886
19.9832
23.3811
25.6082
27.2438
28.1776
27.7677
25.029
17.7772
5.98882
8.4058
7.36197
18.0067
22.8552
24.9605
25.7289
25.5859
24.7848
23.1151
21.3838
21.0269
21.0269
20.0857
19.6328
8.10508
18.3175
22.4585
25.05
26.6041
27.1408
26.2374
23.1368
16.8562
13.9455
17.5
20.6689
19.5992
19.0643
19.7712
20.7424
21.2803
21.284
20.8377
20.9114
20.8732
20.9212
20.4248
20.0273
5.19398
15.1855
19.9802
23.1015
24.8645
25.3472
24.2142
20.61
13.4612
9.88067
11.5123
12.4331
17.7789
20.2523
20.863
20.9663
21.0382
20.8609
20.2791
19.5349
19.471
19.5702
19.2222
18.9928
3.35955
11.6073
15.5059
19.1054
21.2106
21.6142
19.9607
14.2335
7.96348
12.6201
16.9942
19.1435
18.3126
17.9738
18.3528
18.8543
19.2028
19.2612
19.0617
18.9859
19.2067
19.4746
19.5124
19.5617
2.72908
8.77072
11.4222
13.1323
14.7409
14.5323
11.6083
3.11452
11.3657
14.8738
16.0687
16.5567
18.004
18.4976
18.412
18.3888
18.575
18.7528
18.8903
19.1307
19.605
19.9994
20.166
20.2756
3.31747
9.17907
11.2649
11.9078
12.6103
12.3936
11.3846
11.9767
14.662
16.9138
18.8347
19.8759
19.3252
18.5293
18.0193
18.0309
18.449
18.9025
19.3222
19.7985
20.3748
20.8701
21.1817
21.4022
3.33909
9.23448
11.5907
13.5299
14.4865
14.1075
13.1825
14.6991
16.9158
18.6445
19.4827
19.6136
19.6369
19.1799
18.5714
18.4299
18.8492
19.4251
20.0069
20.6413
21.365
22.0029
22.4622
22.7653
3.26952
9.04954
11.4654
12.7623
13.179
12.8668
14.3242
16.7563
18.7262
20.2
21.1886
21.4971
20.8905
19.8597
19.0028
18.8658
19.4131
20.167
20.9462
21.78
22.6769
23.4853
24.1283
24.5459
3.49551
9.46348
11.4686
11.9875
12.5331
14.4724
16.8761
18.7925
20.4694
21.7228
22.3257
22.2728
21.7306
20.7601
19.8459
19.6718
20.2815
21.1962
22.1869
23.2324
24.3184
25.3151
26.1434
26.6653
3.62782
10.7548
11.5625
12.2594
14.3203
16.5829
18.4474
20.3809
21.9978
23.1334
23.7432
23.7306
23.0031
21.8388
20.8597
20.7335
21.4515
22.5307
23.7302
24.9934
26.279
27.4741
28.494
29.1269
3.29436
11.4201
11.5951
13.7754
16.0317
18.0384
20.1507
22.0102
23.5169
24.5713
25.0584
24.9135
24.187
23.0676
22.1368
22.0875
22.9181
24.1604
25.5663
27.045
28.5313
29.924
31.1269
31.863
2.94133
11.321
12.8978
15.2553
17.4134
19.6513
21.7183
23.534
24.984
25.974
26.4396
26.3149
25.573
24.4586
23.6072
23.6848
24.6514
26.0566
27.6563
29.3382
31.0177
32.5998
33.9741
34.8077
2.54784
2.79522
3.68498
4.61136
5.56729
6.30012
6.84526
7.18992
7.40272
7.51919
7.57498
7.57955
7.56705
7.54876
7.52672
7.43557
7.3013
7.19384
7.11148
7.05808
7.0349
7.0418
7.07766
7.13877
7.22148
7.32478
7.35221
7.31842
7.27024
7.21191
7.11321
6.95537
6.6894
6.29711
5.69471
4.93706
4.05333
3.18235
2.69146
2.63834
11.492
11.6227
12.6561
13.2223
13.803
14.1412
14.4232
14.6004
14.7303
14.8145
14.8744
14.8991
14.9095
14.9164
14.9261
14.9504
14.9764
14.9932
15.0034
15.005
14.9967
14.9785
14.9513
14.9147
14.8737
14.8149
14.763
14.7265
14.6859
14.6413
14.5724
14.4684
14.2959
14.0847
13.747
13.3201
12.7798
11.7993
11.6338
11.356
14.3409
15.2216
15.8839
16.3618
16.7702
17.0579
17.2986
17.4755
17.617
17.7262
17.8213
17.8997
17.9691
18.0315
18.0933
18.1687
18.2444
18.3034
18.3451
18.3654
18.3609
18.3317
18.2796
18.2064
18.118
18.0074
17.9042
17.8139
17.7189
17.6161
17.4948
17.3597
17.1829
16.9875
16.7015
16.3669
15.9278
15.3251
14.6532
13.8292
16.8783
17.6467
18.179
18.6797
19.0643
19.385
19.6509
19.8719
20.0644
20.2335
20.3918
20.5451
20.6946
20.8361
20.9718
21.0997
21.2129
21.3055
21.3722
21.4072
21.4054
21.3671
21.2947
21.1918
21.0646
20.9154
20.7533
20.5838
20.4069
20.2217
20.0232
19.8219
19.5931
19.3459
19.0385
18.6858
18.267
17.7131
17.146
16.3233
19.1656
19.7799
20.368
20.8353
21.2408
21.5708
21.8648
22.1174
22.3527
22.5695
22.7744
22.9701
23.1585
23.3392
23.5113
23.6711
23.8129
23.93
24.015
24.061
24.0614
24.0164
23.9294
23.8051
23.6504
23.4716
23.2758
23.0681
22.8511
22.6261
22.3891
22.1426
21.8726
21.5842
21.2535
20.8877
20.4539
19.9401
19.337
18.6771
21.2972
21.8199
22.4234
22.8337
23.2462
23.5667
23.8735
24.1375
24.389
24.6228
24.8485
25.0667
25.2792
25.4851
25.6821
25.8656
26.029
26.1644
26.2632
26.3175
26.3197
26.2701
26.1726
26.0328
25.8582
25.6573
25.4376
25.2054
24.9646
24.7173
24.462
24.1992
23.9193
23.6257
23.2919
22.9374
22.4977
22.0493
21.4248
20.8776
23.2419
23.6966
24.2515
24.6201
25.0033
25.3006
25.593
25.8512
26.1027
26.3424
26.578
26.8091
27.0368
27.259
27.4725
27.6716
27.8493
27.9964
28.104
28.1635
28.167
28.1146
28.0111
27.8618
27.6751
27.4599
27.2251
26.9777
26.7225
26.463
26.1993
25.9324
25.6554
25.3718
25.0577
24.7351
24.3322
23.9373
23.3599
22.8848
24.9173
25.3129
25.7873
26.1088
26.4419
26.7127
26.9821
27.2297
27.4753
27.715
27.954
28.1913
28.4266
28.6569
28.8783
29.0845
29.2678
29.4193
29.5299
29.5913
29.5952
29.5422
29.4369
29.2847
29.0938
28.8733
28.6321
28.378
28.1168
27.8525
27.587
27.3219
27.0532
26.7837
26.4962
26.2067
25.8588
25.5214
25.0314
24.6233
26.2606
26.564
26.9685
27.2411
27.5316
27.7785
28.0283
28.2663
28.5059
28.744
28.9835
29.2225
29.4597
29.6916
29.9135
30.1192
30.3009
30.4503
30.5588
30.6186
30.6222
30.5701
30.4668
30.3171
30.1287
29.9102
29.6702
29.4164
29.155
28.8908
28.6268
28.3652
28.1045
27.8474
27.5819
27.3207
27.0193
26.737
26.3234
26.0152
27.1789
27.39
27.7558
27.989
28.2574
28.4905
28.7324
28.9677
29.2066
29.4458
29.6863
29.9259
30.1624
30.392
30.6097
30.8098
30.9848
31.1274
31.23
31.2862
31.2887
31.2381
31.139
30.9955
30.8139
30.602
30.3678
30.1181
29.8596
29.5968
29.3335
29.0729
28.8145
28.562
28.306
28.0609
27.7844
27.544
27.1749
26.9607
27.6002
27.7663
28.1186
28.3415
28.6126
28.8522
29.1041
29.35
29.5991
29.8466
30.0934
30.3363
30.5731
30.7999
31.0121
31.2044
31.3705
31.5043
31.5993
31.6504
31.6512
31.6024
31.508
31.3714
31.1981
30.9941
30.7664
30.5213
30.2642
30.0002
29.7327
29.4651
29.1979
28.936
28.6708
28.4199
28.1413
27.9117
27.5574
27.3909
27.478
27.6589
28.0372
28.2953
28.6038
28.8811
29.1689
29.4472
29.7241
29.9941
30.2578
30.5121
30.7551
30.9832
31.1928
31.3792
31.5378
31.6633
31.7512
31.7971
31.7956
31.7476
31.6567
31.5253
31.3578
31.1591
30.9343
30.6887
30.427
30.1531
29.8701
29.5815
29.2876
28.9936
28.6925
28.403
28.0863
27.8194
27.437
27.2535
26.8307
27.0613
27.5224
27.8673
28.2684
28.6352
29.004
29.3511
29.6846
30.0001
30.299
30.5796
30.8407
31.0799
31.2947
31.4817
31.6376
31.7587
31.8418
31.8837
31.8796
31.8306
31.7399
31.6092
31.4416
31.2406
31.0101
30.7534
30.4741
30.1749
29.8577
29.5245
29.1746
28.8117
28.4282
28.0463
27.6334
27.2748
26.8069
26.5672
25.8715
26.2085
26.8089
27.2942
27.8362
28.3386
28.8337
29.2955
29.7259
30.1177
30.4753
30.8008
31.0951
31.358
31.5884
31.7847
31.9451
32.0673
32.1493
32.1889
32.1823
32.1302
32.0357
31.8999
31.7246
31.5121
31.2646
30.9837
30.6713
30.3277
29.9526
29.5438
29.0963
28.6171
28.1057
27.5863
27.0308
26.5287
25.9193
25.5692
25.1802
25.6835
26.4571
27.1225
27.8298
28.4889
29.1223
29.7066
30.2419
30.7211
31.1461
31.5232
31.8568
32.1485
32.3994
32.6094
32.778
32.9046
32.9881
33.027
33.0182
32.9624
32.8624
32.7188
32.5325
32.3043
32.0351
31.7251
31.3735
30.9791
30.5376
30.0427
29.4915
28.8911
28.2428
27.5682
26.8486
26.1675
25.3862
24.8705
25.3694
26.0424
26.9681
27.7942
28.6388
29.4254
30.1657
30.8411
31.4493
31.9865
32.4585
32.8735
33.2364
33.5505
33.8176
34.0388
34.2146
34.3451
34.4301
34.4688
34.4585
34.4
34.2955
34.1455
33.9502
33.7098
33.4238
33.0917
32.7116
32.2807
31.7944
31.2444
30.6239
29.9368
29.1863
28.3898
27.5387
26.7035
25.7769
25.0982
26.4082
27.2119
28.2451
29.1816
30.1153
30.9812
31.7845
32.5093
33.154
33.7207
34.2196
34.6578
35.0397
35.3686
35.647
35.8762
36.0572
36.1908
36.277
36.3155
36.3038
36.243
36.1351
35.9801
35.778
35.5285
35.2308
34.8838
34.4853
34.0325
33.5209
32.944
32.2916
31.5604
30.7527
29.8835
28.9504
28.0139
26.9898
26.192
27.9046
28.8162
29.9371
30.9529
31.9481
32.8632
33.7019
34.4507
35.1129
35.6983
36.2158
36.6705
37.0667
37.4074
37.6951
37.9312
38.1172
38.2537
38.3411
38.3792
38.3662
38.3032
38.1916
38.0314
37.8225
37.5644
37.2563
36.8967
36.4838
36.0147
35.4855
34.8911
34.2236
33.473
32.6353
31.7231
30.7355
29.7284
28.6254
27.7307
29.6381
30.6494
31.8525
32.9314
33.9734
34.9213
35.7804
36.5417
37.2194
37.822
38.3561
38.8262
39.2362
39.5887
39.8862
40.1302
40.3218
40.4618
40.5506
40.5883
40.5739
40.5083
40.3924
40.2261
40.0091
39.7412
39.4215
39.0487
38.621
38.1358
37.5899
36.9787
36.2965
35.5348
34.6805
33.7403
32.7108
31.6471
30.4679
29.4813
31.5204
32.6204
33.8996
35.0302
36.1102
37.0816
37.956
38.7355
39.4337
40.0568
40.6103
41.0988
41.5253
41.8926
42.2025
42.4565
42.6556
42.8006
42.8917
42.929
42.913
42.8445
42.7232
42.5488
42.3214
42.0407
41.7061
41.3165
40.8702
40.3651
39.7979
39.1649
38.4605
37.6788
36.8069
35.8416
34.7727
33.6557
32.3979
31.3203
33.4217
34.6114
35.97
37.1545
38.276
39.2758
40.1771
40.9847
41.7109
42.361
42.9401
43.4521
43.9001
44.2862
44.6122
44.8794
45.0884
45.2398
45.3338
45.3707
45.3524
45.28
45.1513
44.9661
44.7246
44.4267
44.0719
43.6596
43.1882
42.6558
42.0594
41.3958
40.6596
39.8458
38.943
37.9456
36.832
35.658
34.3191
33.1521
35.2196
36.495
37.9325
39.1733
40.3407
41.3764
42.3153
43.1606
43.9232
44.6078
45.2193
45.7613
46.2363
46.6463
46.9929
47.2767
47.4986
47.6586
47.757
47.7939
47.7736
47.6971
47.56
47.3622
47.1041
46.7857
46.4072
45.9678
45.4664
44.9013
44.27
43.5692
42.7942
41.94
40.9966
39.9598
38.7963
37.5626
36.1406
34.8839
36.8057
38.1541
39.6577
40.9427
42.1482
43.2186
44.193
45.0724
45.8678
46.5833
47.2237
47.7922
48.2912
48.7222
49.0865
49.3844
49.6161
49.7818
49.8818
49.9169
49.8945
49.8151
49.6715
49.4629
49.1899
48.8528
48.4519
47.987
47.4575
46.862
46.1981
45.4629
44.6517
43.7603
42.778
41.7036
40.4993
39.2177
37.7255
36.3916
37.7595
39.1483
40.6909
42.0033
43.2344
44.3294
45.3289
46.2323
47.051
47.7887
48.4501
49.0378
49.5537
49.9987
50.3722
50.6725
50.8966
51.0417
51.1114
51.1248
51.1057
51.051
50.9338
50.7397
50.4684
50.124
49.7098
49.2277
48.6783
48.061
47.374
46.6145
45.7781
44.8608
43.8518
42.751
41.5192
40.2084
38.6758
37.3
12.8172
27.2671
38.8335
41.9207
44.7911
45.1703
45.7167
45.4626
45.6569
45.6018
45.8253
45.5843
45.2604
45.3781
44.9278
44.7855
42.9179
41.8572
42.863
41.0034
42.0236
41.1571
40.4394
40.2408
16.6927
27.2238
38.3007
41.5786
44.402
44.895
45.5699
45.3264
45.8437
45.8687
45.9446
45.7489
45.4344
45.4983
45.2453
45.2371
43.4308
42.4297
43.2701
41.3417
42.2929
41.5011
40.8583
40.6643
17.0088
26.2672
37.8393
41.2928
44.1709
44.7537
45.4089
45.4396
45.8042
45.6446
45.7809
45.6217
45.4629
45.4557
45.3768
45.4093
43.75
42.9078
43.8375
41.9795
42.8017
42.1051
41.4933
41.2601
10.2041
25.6695
37.3151
40.9569
43.8536
44.5821
45.4788
45.4783
46.062
46.0544
46.0452
45.8954
45.7132
45.6618
45.7396
45.8175
44.3818
43.5382
44.2158
42.4068
43.1399
42.5367
41.9861
41.7578
2.73636
24.7962
36.6693
40.6421
43.656
44.5917
45.432
45.7276
46.1779
45.9341
45.9613
45.8338
45.7814
45.7019
45.913
45.9693
44.7729
44.07
44.7532
43.1068
43.7108
43.2031
42.6709
42.4049
15.6695
23.4096
35.9919
40.2248
43.3453
44.4084
45.578
45.8042
46.3949
46.4028
46.3585
46.2162
46.0954
45.9955
46.3166
46.382
45.4333
44.735
45.1166
43.5831
44.0984
43.6831
43.205
42.9507
11.3503
22.7437
35.0582
39.745
43.0419
44.4397
45.491
46.0192
46.555
46.3209
46.3203
46.193
46.1789
46.1021
46.5149
46.5431
45.8101
45.2877
45.6367
44.3101
44.7111
44.3799
43.9155
43.6317
3.98977
20.4672
34.0216
39.0747
42.6266
44.0978
45.5759
46.0306
46.6557
46.7701
46.7901
46.6518
46.5466
46.4721
46.9483
46.9865
46.446
45.9639
45.9995
44.8037
45.125
44.872
44.4599
44.1986
9.34117
19.8427
32.6581
38.2809
42.0528
44.0496
45.3488
46.1203
46.7966
46.6715
46.7314
46.6164
46.6264
46.6245
47.1528
47.1613
46.7651
46.4903
46.5139
45.5292
45.7532
45.5671
45.1663
44.8857
11.773
16.3741
31.0357
37.1282
41.4161
43.4154
45.2946
46.024
46.7434
47.0445
47.2066
47.1081
47.0335
47.0474
47.5944
47.6265
47.3535
47.1334
46.8642
45.9944
46.1498
46.0221
45.6739
45.4272
12.6984
16.083
29.0268
35.8342
40.3446
43.2
44.847
45.9377
46.8296
46.8798
47.0578
47.0039
47.08
47.2014
47.7646
47.7766
47.5789
47.5612
47.3514
46.6747
46.7494
46.6749
46.3349
46.08
13.7264
11.6675
26.586
33.8197
39.3174
42.0591
44.5752
45.6914
46.5816
47.1294
47.4831
47.4926
47.5054
47.6321
48.1749
48.2239
48.1012
48.1159
47.6458
47.0444
47.0601
47.0223
46.7335
46.5224
14.7553
7.03009
23.378
31.7116
37.2888
41.547
43.744
45.3398
46.5734
46.8455
47.1719
47.2467
47.4571
47.7075
48.2437
48.2758
48.1799
48.3636
48.0422
47.6112
47.5632
47.5734
47.2886
47.0801
15.8034
12.4554
19.8025
28.0341
35.563
39.3844
43.0996
44.8381
46.0411
46.9275
47.5129
47.6924
47.8432
48.0649
48.553
48.6332
48.5927
48.7503
48.2146
47.8125
47.7218
47.7605
47.5282
47.3695
16.7457
10.9291
14.7048
24.5152
31.314
38.3369
41.4586
43.9966
45.847
46.4439
46.9831
47.2342
47.6076
47.9522
48.4394
48.5071
48.477
48.7854
48.4753
48.2415
48.102
48.1942
47.9606
47.811
17.5198
13.1269
1.34195
15.977
28.3299
33.5297
40.0685
42.9669
44.7888
46.266
47.1991
47.6249
47.9241
48.1949
48.6131
48.7402
48.7706
48.9494
48.4356
48.1576
47.9819
48.0813
47.9008
47.7981
17.9728
7.60845
11.4081
5.42569
14.7368
31.59
36.2681
41.0385
44.1832
45.3324
46.248
46.7793
47.352
47.7552
48.1849
48.2836
48.3008
48.6154
48.4097
48.3487
48.1392
48.3107
48.124
48.0334
16.8794
12.9128
2.31213
11.3479
12.7639
11.7015
33.142
38.7464
41.9615
44.6413
46.1898
46.9935
47.4583
47.7476
48.1049
48.2952
48.3988
48.415
47.9305
47.6523
47.3427
47.4624
47.2894
47.2047
15.7633
9.93115
11.8796
11.4732
11.7592
13.6499
18.3835
33.8779
40.4907
42.6439
44.2416
45.2326
46.0955
46.5746
46.9811
47.0825
47.0648
47.1747
47.1467
47.2123
46.9105
47.1287
46.9542
46.8797
13.6699
7.08889
8.58426
12.3831
12.5374
13.1497
12.3551
28.0293
35.1796
40.8104
43.5315
44.9532
45.6017
45.9196
46.2519
46.5183
46.6452
46.1884
45.5101
44.8427
44.14
44.0715
43.6852
43.4168
11.8821
10.4784
12.6367
8.18751
10.6704
9.15408
13.7879
9.87973
32.6099
36.0718
38.9077
40.6311
42.1035
42.7855
43.2245
43.1837
42.7458
42.1373
42.4143
42.4366
41.9004
41.9928
41.6494
41.4021
11.0769
3.08037
8.48221
10.3523
14.4007
7.12763
13.6018
14.1301
13.033
30.2175
36.2011
39.1707
39.9327
40.3165
40.607
40.9236
40.8893
39.213
36.3424
32.464
28.2003
24.6743
19.1397
12.2499
11.3134
8.47987
12.6867
11.314
11.4401
1.56186
10.6361
9.80695
14.9102
14.3232
12.4485
18.811
25.6015
27.7012
28.322
26.7104
21.5572
11.2677
12.1657
19.8052
19.1703
18.391
17.7967
11.777
9.41587
9.6467
3.3285
17.4865
23.4387
24.3007
18.5896
9.61506
14.9891
3.06808
15.1558
11.1706
17.4745
8.51406
9.38737
9.35416
12.9892
12.7653
9.38591
6.93167
12.0995
10.1464
13.4062
19.6683
8.57433
11.7193
8.27009
18.1497
25.1299
27.9302
27.4163
22.9142
13.3566
11.786
5.44725
12.1336
8.24057
17.6183
14.008
17.5947
14.1628
12.3509
13.1996
16.5622
14.5959
18.4445
21.3332
23.3984
11.6884
14.6208
12.289
18.4007
24.8649
28.5021
29.0126
26.7404
26.3806
27.2958
27.8611
24.8207
22.3416
19.0074
14.3034
11.551
11.0519
14.3934
21.5333
24.777
26.8946
27.11
26.9088
26.7618
13.1107
18.1651
18.0204
20.9864
25.3468
28.4688
29.3618
28.1547
26.8727
26.6607
26.9557
27.0962
27.7413
27.4971
27.051
26.9624
27.1019
27.655
27.0818
27.0449
27.0062
27.3274
27.0284
26.5313
12.4334
19.834
21.837
23.867
26.4159
28.4755
29.1189
28.156
25.9454
22.9523
23.8511
24.3263
26.9185
27.7164
27.4167
27.0208
26.9716
27.219
26.7637
26.422
25.5885
25.0369
23.2347
21.3581
10.7119
19.6668
22.9306
25.0963
26.8122
27.9356
27.7438
25.1767
18.0988
4.57325
10.7657
4.45901
17.2504
22.5674
24.7997
25.6732
25.9309
25.5828
23.6283
22.0569
21.2409
21.0501
20.1054
19.6037
7.63914
17.7423
21.9121
24.5406
26.1482
26.8109
26.0731
23.1261
16.7389
13.4293
16.7762
20.7572
19.4252
18.691
19.5421
20.7402
21.6033
21.7208
21.0844
20.9662
20.9508
21.0139
20.5988
20.2026
4.64775
14.1888
19.0406
22.3351
24.2238
24.8194
23.8081
20.3317
12.8953
9.67046
11.6692
11.9909
17.6314
20.2699
20.8246
20.9755
21.2078
21.0802
20.3651
19.7876
19.535
19.6425
19.3514
19.0695
3.36549
11.4526
14.302
17.8767
20.1174
20.5976
19.056
13.4577
5.98801
12.3682
16.9025
19.169
18.2149
17.8582
18.3897
18.9818
19.3764
19.3677
19.0983
19.0835
19.2162
19.5356
19.6232
19.6761
2.51212
8.03823
10.9088
11.8154
13.2206
12.7734
10.8175
10.2814
11.7991
15.1795
16.2636
16.6467
18.1575
18.6795
18.5305
18.4927
18.6785
18.7976
18.8829
19.1685
19.5772
20.046
20.2758
20.3928
3.23936
9.04486
11.1527
11.9245
12.5387
12.1144
11.5038
12.1407
15.1196
17.117
18.8999
19.928
19.3585
18.6059
18.1493
18.142
18.4986
18.9027
19.3081
19.8322
20.3758
20.9458
21.3183
21.5574
3.20071
9.04167
11.5526
13.3368
14.1695
13.7995
13.4111
15.1387
17.1957
18.8371
19.637
19.7693
19.853
19.4271
18.7896
18.5904
18.936
19.4489
20.0001
20.6784
21.3867
22.1039
22.6287
22.9581
3.22672
9.01387
11.5274
12.3606
12.7279
13.0267
14.9539
17.2455
19.0386
20.3966
21.3353
21.6423
21.05
20.0644
19.2278
19.0458
19.5097
20.2016
20.9525
21.8332
22.7361
23.6235
24.3356
24.7872
3.52607
9.80938
11.4773
12.0075
13.105
15.27
17.3978
19.1345
20.7337
21.9303
22.4996
22.4573
21.9677
21.0379
20.1208
19.8899
20.4104
21.2561
22.2166
23.3089
24.4201
25.4946
26.3963
26.9579
3.64565
11.3245
11.721
12.8796
15.0212
17.0303
18.8336
20.7215
22.2548
23.3313
23.9259
23.929
23.2343
22.114
21.1465
20.9701
21.6045
22.6187
23.7886
25.0991
26.4273
27.6971
28.7942
29.4706
3.19217
11.4923
12.0899
14.4554
16.5312
18.5207
20.5656
22.3275
23.7708
24.7874
25.2546
25.1248
24.4446
23.3685
22.4428
22.3435
23.097
24.2791
25.6578
27.1831
28.7253
30.1899
31.4726
32.254
2.7753
11.4103
13.4895
15.8168
17.9648
20.1182
22.092
23.8418
25.2356
26.1869
26.6442
26.5377
25.8339
24.761
23.9185
23.9521
24.8521
26.2053
27.782
29.5091
31.2541
32.9053
34.3604
35.2399
9.00679
10.4013
10.9358
14.3569
12.5882
14.3024
8.03563
12.456
13.0204
12.2296
10.8204
9.8121
9.73338
5.57422
3.45004
6.7476
2.12088
5.88079
1.55554
5.61177
5.38757
5.90246
6.04144
2.40623
3.47072
7.91806
5.10012
9.59025
9.89658
11.3265
6.14898
5.83835
8.16897
13.89
6.73541
4.43602
11.633
5.41889
3.90282
8.04721
27.6772
25.228
25.0743
22.5345
22.0727
19.6229
19.0881
17.1622
16.378
14.8982
14.3056
12.8974
12.1445
11.484
11.271
8.47724
7.80525
7.04022
8.72421
7.0003
5.85749
8.24943
7.94499
9.39366
9.11589
11.0873
11.5133
11.9047
12.2821
13.6978
14.1746
16.1831
16.4367
19.0334
19.4082
21.8662
22.4327
24.7994
25.0824
27.4896
38.6001
37.2693
36.2686
35.0129
33.9405
32.8076
31.7702
30.7654
29.8172
28.884
28.015
27.2127
26.4772
25.6773
25.0768
24.6743
24.4817
24.6089
24.1576
24.2446
24.1614
23.5584
23.9621
23.9979
24.3761
24.6545
25.0354
25.9078
26.9021
27.8223
28.8258
29.7255
30.7141
31.7903
32.7695
34.0214
34.9715
36.3036
37.2167
38.5745
41.5873
40.0694
38.9876
37.4739
36.3683
34.9861
34.0235
32.8646
32.0624
31.0426
30.3211
29.3967
28.8859
28.1327
27.5351
26.8022
26.4897
26.5493
26.5338
26.3375
26.0642
26.2267
26.4501
26.5928
26.785
27.1433
27.6305
28.5038
29.2292
30.2051
30.9544
31.9253
32.8173
33.9669
35.0181
36.3452
37.42
38.8659
39.9073
41.4282
44.3989
43.0647
41.8665
40.5056
39.2523
37.9706
36.8662
35.7949
34.8992
33.9486
33.1156
32.2586
31.6364
31.0858
30.5463
30.0869
29.8282
29.9932
29.7099
29.7121
29.5334
29.2855
29.6077
29.5556
29.7774
30.0413
30.5323
31.3628
32.1753
33.0944
33.8859
34.8325
35.7798
36.9198
38.0186
39.2476
40.3754
41.6567
42.8008
44.1558
44.7932
43.4745
42.3223
40.9352
39.7119
38.3489
37.2755
36.1492
35.3337
34.3706
33.5968
32.645
32.0842
31.4994
31.0819
30.6053
30.3905
30.6169
30.4229
30.364
30.0723
30.1545
30.4135
30.2523
30.422
30.6459
31.1638
32.0206
32.7386
33.6562
34.3445
35.2955
36.2309
37.393
38.4693
39.6906
40.7666
42.0424
43.1801
44.5543
45.3679
44.1478
43.0297
41.7713
40.5435
39.2389
38.1025
36.9742
36.1302
35.1997
34.4384
33.5046
32.8524
32.3748
32.0114
31.7915
31.6419
31.8896
31.4929
31.548
31.289
31.2317
31.4421
31.142
31.3912
31.6197
32.1873
32.9266
33.6226
34.4994
35.1459
36.1742
37.1256
38.3094
39.3683
40.5112
41.5569
42.7707
43.9017
45.2878
44.9441
43.828
42.7296
41.5678
40.4839
39.1906
38.1779
36.9443
36.1446
35.1468
34.4365
33.5371
32.8213
32.2362
31.9685
31.8444
31.8347
32.0466
31.5323
31.5706
31.213
31.4198
31.4732
31.115
31.4905
31.8109
32.2904
32.9151
33.5907
34.4454
35.1353
36.2601
37.1396
38.3483
39.2625
40.3648
41.3621
42.5169
43.7325
44.9972
45.2733
43.8667
42.9832
41.6695
40.8744
39.6104
38.7858
37.5884
36.6976
35.6912
34.852
34.1569
33.3867
32.7147
32.3783
32.4345
32.481
32.5896
31.8005
31.8941
31.5448
31.7667
31.5278
31.3291
32.0384
32.4823
32.8502
33.3015
34.0342
34.8818
35.7834
36.826
37.596
38.7074
39.4004
40.6222
41.4346
42.8365
43.7956
45.2908
45.2733
43.8232
42.8517
41.5771
40.6388
39.5568
38.6505
37.7256
36.7718
35.8711
34.9308
34.2424
33.5692
32.8288
32.3672
32.2953
32.3556
32.5088
31.5533
31.5733
31.1703
31.6067
31.0786
31.2725
32.0364
32.4502
32.6017
33.276
34.2599
35.1919
36.1138
36.8295
37.5886
38.392
39.2514
40.3506
41.3552
42.663
43.6706
45.1059
45.378
44.0205
42.8765
41.6345
40.5428
39.4493
38.4834
37.5308
36.6255
35.637
34.7467
34.0217
33.3983
32.8022
32.3072
32.0874
32.055
32.4322
31.5374
31.5537
31.1688
31.5748
31.184
31.4948
32.0195
32.1403
32.6265
33.779
34.9109
35.7008
36.112
36.5822
37.1432
38.0208
38.9984
40.191
41.2894
42.572
43.6683
45.0683
45.0872
43.6478
42.4448
41.1164
40.0216
38.9332
38.0757
37.2429
36.4451
35.4924
34.5041
33.7712
32.9535
32.1628
31.8794
31.6653
31.6047
31.8481
31.1901
31.3474
30.9662
31.2628
30.9657
31.4407
31.5271
31.928
32.9019
33.7875
34.4127
34.7996
35.2148
35.7608
36.5847
37.6717
38.8385
40.1094
41.2847
42.6023
43.7449
45.1396
44.6146
43.1985
41.8875
40.5818
39.3719
38.2989
37.3452
36.6001
35.8458
35.0879
34.0812
33.2951
32.5618
31.8405
31.2417
31.089
30.9425
31.1696
30.5525
30.6776
30.4853
30.538
30.697
30.8581
30.5581
31.1352
32.0009
32.3023
32.8463
33.5672
34.3777
35.21
36.2331
37.407
38.6921
39.9745
41.2661
42.5254
43.7287
44.9685
44.8255
43.4454
42.193
40.8551
39.5904
38.3071
37.1184
36.0292
35.1057
34.303
33.5101
32.7395
31.8849
31.0169
30.4752
30.0607
29.8034
29.767
29.5071
29.5474
29.7475
29.9252
30.9246
30.7516
30.2309
30.8602
31.4413
31.256
32.1147
32.8561
33.7284
34.5713
35.3862
36.4225
37.6113
38.9993
40.3344
41.7981
43.0725
44.5124
44.1859
42.6313
41.2386
39.7988
38.5028
37.2302
36.0688
34.9817
33.9829
33.1359
32.2923
31.6384
30.8688
29.9151
29.1805
29.0817
28.2253
27.9855
28.1031
27.9763
27.6172
27.9972
28.6446
28.5539
29.4698
29.8138
30.2121
31.0303
32.0442
32.8951
33.6643
34.4261
35.5667
36.8449
38.0504
39.1765
40.1072
41.1911
42.2047
43.5554
43.9025
42.1144
40.5423
38.9116
37.5524
36.3179
35.3325
34.4542
33.5411
32.4989
31.2675
30.3569
29.7196
29.1739
28.4705
28.2092
28.2525
28.2732
26.9027
27.3497
27.4475
27.8533
29.0447
28.5293
28.377
28.5316
28.972
29.6395
30.6128
31.5234
32.6743
33.8794
35.0782
36.1465
37.0131
37.845
38.5712
39.5515
40.5682
41.9586
42.1229
40.6157
39.3174
37.9542
36.7404
35.5277
34.4779
33.584
32.8294
32.2005
31.4452
30.7901
30.3559
30.122
29.3653
29.019
28.7345
28.2856
27.8158
26.9808
27.2644
27.3446
26.9986
27.302
28.2577
28.9195
29.7082
30.1352
30.7592
31.2321
32.0789
32.9128
33.8491
34.6782
35.7168
36.8447
38.1736
39.5495
40.9678
42.43
40.8472
39.3111
37.788
36.4442
35.0882
33.949
32.7542
31.8083
30.7933
30.121
29.378
28.9882
28.4053
28.1748
27.8046
27.8926
27.4052
27.1656
26.5788
24.8348
25.636
26.0388
26.7666
28.0269
28.8686
29.1094
29.5141
29.7463
30.2965
30.6802
31.3032
31.8212
32.6403
33.4607
34.5502
35.6287
36.9242
38.2367
39.8026
41.3757
41.6356
40.0575
38.154
36.6431
34.8187
33.4881
31.862
30.8633
29.5836
28.9698
27.9611
27.4449
26.3847
26.0584
25.154
24.7833
23.9966
24.2022
24.1079
24.7301
23.5904
24.6704
24.2041
23.8022
24.0906
24.2728
25.2231
25.8387
26.9827
27.4335
28.4745
29.2059
30.6094
31.7442
33.449
34.8572
36.6926
38.236
40.0733
41.6327
39.8636
38.6266
36.9962
35.9212
34.4348
33.5387
32.1965
31.4813
30.2908
29.768
28.7512
28.4392
27.613
27.445
26.7156
26.5039
25.4003
24.7816
24.3373
25.6052
25.7108
25.7918
26.2354
26.5281
27.3136
27.6344
28.45
28.781
29.7445
30.2973
31.3669
31.9695
33.0454
33.7156
34.8759
35.6966
37.0188