/*--------------------------------*- C++ -*----------------------------------*\
  =========                 |
  \\      /  F ield         | OpenFOAM: The Open Source CFD Toolbox
   \\    /   O peration     | Website:  https://openfoam.org
    \\  /    A nd           | Version:  6
     \\/     M anipulation  |
\*---------------------------------------------------------------------------*/
FoamFile
{
    version     2.0;
    format      ascii;
    class       volScalarField;
    location    "2";
    object      nut;
}
// * * * * * * * * * * * * * * * * * * * * * * * * * * * * * * * * * * * * * //

dimensions      [0 2 -1 0 0 0 0];

internalField   nonuniform List<scalar> 
63400
(
7.32876e-07
6.83832e-07
6.4805e-07
6.10701e-07
5.84661e-07
5.57365e-07
5.36228e-07
5.19307e-07
6.37395e-07
6.09427e-07
5.82894e-07
5.59713e-07
5.35902e-07
5.21219e-07
4.98453e-07
4.94787e-07
5.41154e-07
5.27116e-07
5.10313e-07
4.98863e-07
4.81955e-07
4.75446e-07
4.56977e-07
4.58566e-07
4.71252e-07
4.61876e-07
4.49506e-07
4.42822e-07
4.30898e-07
4.28733e-07
4.14864e-07
4.19963e-07
4.14118e-07
4.07895e-07
3.98746e-07
3.9436e-07
3.8531e-07
3.85043e-07
3.74104e-07
3.80917e-07
3.58566e-07
3.55663e-07
3.49686e-07
3.47653e-07
3.41184e-07
3.42364e-07
3.33947e-07
3.41553e-07
3.12068e-07
3.11217e-07
3.07608e-07
3.06988e-07
3.02308e-07
3.03777e-07
2.97094e-07
3.04011e-07
2.68979e-07
2.69897e-07
2.68959e-07
2.70259e-07
2.68128e-07
2.70393e-07
2.65646e-07
2.71875e-07
2.31956e-07
2.328e-07
2.3273e-07
2.34935e-07
2.34699e-07
2.38206e-07
2.35547e-07
2.42417e-07
2.01565e-07
2.01965e-07
2.01664e-07
2.03766e-07
2.04034e-07
2.08009e-07
2.06585e-07
2.14147e-07
1.75458e-07
1.75321e-07
1.74291e-07
1.7564e-07
1.75375e-07
1.78905e-07
1.77729e-07
1.85181e-07
1.53882e-07
1.53344e-07
1.51706e-07
1.52097e-07
1.50997e-07
1.53452e-07
1.51951e-07
1.58119e-07
1.3367e-07
1.33465e-07
1.32053e-07
1.32042e-07
1.3065e-07
1.32127e-07
1.30418e-07
1.34923e-07
1.15227e-07
1.15752e-07
1.15208e-07
1.15434e-07
1.14429e-07
1.15277e-07
1.13731e-07
1.16674e-07
9.80093e-08
9.90483e-08
9.92969e-08
1.00117e-07
9.98789e-08
1.00914e-07
9.993e-08
1.0243e-07
8.09492e-08
8.19001e-08
8.22835e-08
8.32826e-08
8.34164e-08
8.47013e-08
8.41945e-08
8.68025e-08
6.52904e-08
6.602e-08
6.63101e-08
6.71714e-08
6.73102e-08
6.85342e-08
6.81942e-08
7.06768e-08
4.97615e-08
5.02758e-08
5.04788e-08
5.10661e-08
5.11502e-08
5.20968e-08
5.185e-08
5.38584e-08
3.43126e-08
3.47933e-08
3.50313e-08
3.5491e-08
3.56038e-08
3.62977e-08
3.61593e-08
3.76893e-08
1.87449e-08
1.90742e-08
1.91707e-08
1.93906e-08
1.94332e-08
1.97511e-08
1.96433e-08
2.01271e-08
8.70241e-08
8.8553e-08
8.93585e-08
9.13574e-08
9.23139e-08
9.49236e-08
9.47132e-08
9.7947e-08
4.27793e-06
4.26004e-06
4.25771e-06
4.23889e-06
4.23285e-06
4.2154e-06
4.20047e-06
4.19833e-06
4.19821e-06
4.1928e-06
4.18569e-06
4.18034e-06
4.16652e-06
4.16592e-06
4.14188e-06
4.15355e-06
4.12194e-06
4.12595e-06
4.11801e-06
4.12176e-06
4.1068e-06
4.11322e-06
4.08929e-06
4.10483e-06
4.04487e-06
4.05193e-06
4.04493e-06
4.053e-06
4.04108e-06
4.05198e-06
4.03154e-06
4.052e-06
3.9792e-06
3.98669e-06
3.97932e-06
3.98672e-06
3.9746e-06
3.9862e-06
3.96668e-06
3.99045e-06
3.90192e-06
3.91357e-06
3.90886e-06
3.9187e-06
3.90733e-06
3.91963e-06
3.9003e-06
3.92533e-06
3.80855e-06
3.82135e-06
3.81967e-06
3.83315e-06
3.82579e-06
3.84041e-06
3.82383e-06
3.85026e-06
3.71681e-06
3.72732e-06
3.72717e-06
3.74203e-06
3.73956e-06
3.75701e-06
3.74445e-06
3.77296e-06
3.62002e-06
3.62769e-06
3.6267e-06
3.64106e-06
3.64113e-06
3.6621e-06
3.65347e-06
3.68693e-06
3.53063e-06
3.53614e-06
3.5318e-06
3.54417e-06
3.54304e-06
3.56552e-06
3.55847e-06
3.59781e-06
3.42571e-06
3.43183e-06
3.42383e-06
3.43445e-06
3.4287e-06
3.45131e-06
3.44208e-06
3.48705e-06
3.32601e-06
3.3339e-06
3.32304e-06
3.33017e-06
3.31711e-06
3.33547e-06
3.32009e-06
3.36287e-06
3.20318e-06
3.21515e-06
3.20759e-06
3.21499e-06
3.20041e-06
3.21569e-06
3.1966e-06
3.2342e-06
3.04842e-06
3.06463e-06
3.06506e-06
3.07624e-06
3.06803e-06
3.08162e-06
3.06513e-06
3.09589e-06
2.89714e-06
2.9158e-06
2.92193e-06
2.93777e-06
2.9367e-06
2.95289e-06
2.94145e-06
2.97225e-06
2.70822e-06
2.72728e-06
2.73483e-06
2.75416e-06
2.75688e-06
2.77843e-06
2.77073e-06
2.80844e-06
2.50351e-06
2.52108e-06
2.52748e-06
2.54706e-06
2.54922e-06
2.5736e-06
2.56606e-06
2.61006e-06
2.22518e-06
2.24144e-06
2.24799e-06
2.26513e-06
2.26667e-06
2.2905e-06
2.283e-06
2.32829e-06
1.87678e-06
1.89483e-06
1.90355e-06
1.9203e-06
1.92322e-06
1.94558e-06
1.93868e-06
1.98344e-06
1.37024e-06
1.38854e-06
1.39408e-06
1.40611e-06
1.40802e-06
1.42436e-06
1.41976e-06
1.44137e-06
9.9331e-06
1.01367e-05
1.03178e-05
1.05541e-05
1.0758e-05
1.10414e-05
1.12222e-05
1.15528e-05
9.32314e-06
9.30854e-06
9.33783e-06
9.32008e-06
9.33804e-06
9.32053e-06
9.31022e-06
9.32642e-06
9.15235e-06
9.16558e-06
9.17419e-06
9.18921e-06
9.1794e-06
9.20625e-06
9.16741e-06
9.21746e-06
8.99553e-06
9.02993e-06
9.03015e-06
9.06544e-06
9.04666e-06
9.08791e-06
9.04592e-06
9.10063e-06
8.83665e-06
8.87684e-06
8.87571e-06
8.91997e-06
8.90589e-06
8.95591e-06
8.92073e-06
8.98358e-06
8.71189e-06
8.75223e-06
8.74844e-06
8.78899e-06
8.77163e-06
8.82054e-06
8.78536e-06
8.8521e-06
8.57024e-06
8.61904e-06
8.62048e-06
8.66611e-06
8.64921e-06
8.69756e-06
8.66049e-06
8.72583e-06
8.39168e-06
8.43901e-06
8.44377e-06
8.4958e-06
8.48811e-06
8.54177e-06
8.51173e-06
8.57984e-06
8.23899e-06
8.27513e-06
8.27723e-06
8.32572e-06
8.32447e-06
8.38219e-06
8.35963e-06
8.43327e-06
8.07193e-06
8.10048e-06
8.09824e-06
8.14076e-06
8.13951e-06
8.2008e-06
8.18337e-06
8.26527e-06
7.93958e-06
7.96432e-06
7.9542e-06
7.98894e-06
7.98076e-06
8.04002e-06
8.02115e-06
8.11006e-06
7.75845e-06
7.78959e-06
7.77383e-06
7.80736e-06
7.78823e-06
7.84653e-06
7.82009e-06
7.91764e-06
7.59848e-06
7.64248e-06
7.62641e-06
7.65854e-06
7.62447e-06
7.67214e-06
7.6298e-06
7.71617e-06
7.39339e-06
7.44856e-06
7.4442e-06
7.48406e-06
7.45139e-06
7.49737e-06
7.44863e-06
7.52502e-06
7.094e-06
7.15005e-06
7.16146e-06
7.20878e-06
7.19539e-06
7.24337e-06
7.20605e-06
7.27658e-06
6.85834e-06
6.91028e-06
6.92784e-06
6.97695e-06
6.97653e-06
7.02622e-06
6.9996e-06
7.07045e-06
6.53035e-06
6.58312e-06
6.60263e-06
6.65739e-06
6.66389e-06
6.72313e-06
6.70318e-06
6.78565e-06
6.23062e-06
6.27969e-06
6.29512e-06
6.34986e-06
6.35277e-06
6.41664e-06
6.39469e-06
6.48818e-06
5.75156e-06
5.79878e-06
5.818e-06
5.86787e-06
5.87003e-06
5.93147e-06
5.90941e-06
6.00374e-06
5.31476e-06
5.35974e-06
5.38002e-06
5.42469e-06
5.42965e-06
5.48209e-06
5.46064e-06
5.54285e-06
4.75954e-06
4.81302e-06
4.82873e-06
4.86496e-06
4.86316e-06
4.90277e-06
4.89809e-06
4.94252e-06
1.17873e-05
1.20203e-05
1.22269e-05
1.2491e-05
1.27194e-05
1.30366e-05
1.32462e-05
1.3616e-05
1.5517e-05
1.55291e-05
1.56255e-05
1.56339e-05
1.57084e-05
1.5716e-05
1.57334e-05
1.57956e-05
1.52654e-05
1.53213e-05
1.53678e-05
1.54306e-05
1.54445e-05
1.55287e-05
1.5492e-05
1.56049e-05
1.50398e-05
1.51287e-05
1.51515e-05
1.52457e-05
1.52357e-05
1.53388e-05
1.52921e-05
1.54051e-05
1.47962e-05
1.48922e-05
1.49068e-05
1.50135e-05
1.50084e-05
1.5123e-05
1.5087e-05
1.52086e-05
1.46146e-05
1.47107e-05
1.47187e-05
1.48156e-05
1.48008e-05
1.49081e-05
1.48693e-05
1.49909e-05
1.44102e-05
1.45187e-05
1.45358e-05
1.46413e-05
1.46272e-05
1.47304e-05
1.4686e-05
1.47987e-05
1.41383e-05
1.42377e-05
1.42544e-05
1.43668e-05
1.43685e-05
1.44807e-05
1.44493e-05
1.45674e-05
1.39301e-05
1.40047e-05
1.40085e-05
1.41062e-05
1.41112e-05
1.42278e-05
1.42064e-05
1.43354e-05
1.36839e-05
1.37456e-05
1.37397e-05
1.38219e-05
1.38186e-05
1.39354e-05
1.39183e-05
1.40575e-05
1.35118e-05
1.35699e-05
1.35534e-05
1.36193e-05
1.35997e-05
1.3706e-05
1.36808e-05
1.38236e-05
1.32333e-05
1.33077e-05
1.3286e-05
1.33526e-05
1.33156e-05
1.34175e-05
1.33765e-05
1.35273e-05
1.29847e-05
1.30945e-05
1.30831e-05
1.31582e-05
1.31029e-05
1.31847e-05
1.31178e-05
1.32394e-05
1.2676e-05
1.28061e-05
1.28172e-05
1.29152e-05
1.2868e-05
1.29544e-05
1.28802e-05
1.29893e-05
1.21854e-05
1.2303e-05
1.23341e-05
1.24418e-05
1.24286e-05
1.25276e-05
1.24753e-05
1.25881e-05
1.18575e-05
1.19568e-05
1.19925e-05
1.20926e-05
1.20981e-05
1.21959e-05
1.21598e-05
1.22728e-05
1.13484e-05
1.14482e-05
1.14871e-05
1.15932e-05
1.1611e-05
1.17223e-05
1.16984e-05
1.18253e-05
1.09585e-05
1.10513e-05
1.10814e-05
1.11856e-05
1.1196e-05
1.13111e-05
1.12842e-05
1.14245e-05
1.02677e-05
1.03538e-05
1.03924e-05
1.04861e-05
1.04949e-05
1.05998e-05
1.05743e-05
1.07082e-05
9.95522e-06
1.00271e-05
1.0058e-05
1.01333e-05
1.01452e-05
1.02274e-05
1.02062e-05
1.03059e-05
9.63518e-06
9.73858e-06
9.76927e-06
9.84499e-06
9.83012e-06
9.8943e-06
9.898e-06
9.97293e-06
1.3324e-05
1.35847e-05
1.38163e-05
1.41061e-05
1.43565e-05
1.47047e-05
1.49459e-05
1.53528e-05
2.27291e-05
2.27812e-05
2.2964e-05
2.30194e-05
2.31709e-05
2.32303e-05
2.32909e-05
2.34292e-05
2.24062e-05
2.25198e-05
2.26158e-05
2.27465e-05
2.27977e-05
2.29628e-05
2.29454e-05
2.31422e-05
2.21217e-05
2.22792e-05
2.23329e-05
2.2506e-05
2.2516e-05
2.27009e-05
2.26654e-05
2.28529e-05
2.17918e-05
2.1957e-05
2.19914e-05
2.21779e-05
2.21919e-05
2.23894e-05
2.23687e-05
2.25646e-05
2.15478e-05
2.17154e-05
2.17409e-05
2.19106e-05
2.19072e-05
2.20868e-05
2.20589e-05
2.22464e-05
2.12787e-05
2.14604e-05
2.15004e-05
2.16842e-05
2.16849e-05
2.18564e-05
2.18194e-05
2.19866e-05
2.09143e-05
2.10745e-05
2.11056e-05
2.12911e-05
2.13139e-05
2.14977e-05
2.14807e-05
2.16573e-05
2.06543e-05
2.07764e-05
2.078e-05
2.09341e-05
2.09505e-05
2.11368e-05
2.11302e-05
2.13245e-05
2.03224e-05
2.0429e-05
2.04169e-05
2.05438e-05
2.0537e-05
2.07147e-05
2.07087e-05
2.09119e-05
2.01079e-05
2.02147e-05
2.01956e-05
2.0298e-05
2.02641e-05
2.04176e-05
2.03933e-05
2.05909e-05
1.97189e-05
1.98541e-05
1.98346e-05
1.99411e-05
1.98852e-05
2.00288e-05
1.99776e-05
2.01761e-05
1.93452e-05
1.95464e-05
1.956e-05
1.96943e-05
1.96304e-05
1.97443e-05
1.96621e-05
1.9807e-05
1.89222e-05
1.91524e-05
1.91981e-05
1.9377e-05
1.93331e-05
1.94627e-05
1.93764e-05
1.95106e-05
1.82322e-05
1.84245e-05
1.84831e-05
1.86696e-05
1.86683e-05
1.88275e-05
1.87726e-05
1.89276e-05
1.7821e-05
1.79735e-05
1.80323e-05
1.8194e-05
1.82145e-05
1.8367e-05
1.83328e-05
1.84859e-05
1.7132e-05
1.72802e-05
1.73449e-05
1.75075e-05
1.75471e-05
1.7714e-05
1.77007e-05
1.7865e-05
1.66949e-05
1.68319e-05
1.68826e-05
1.70375e-05
1.70676e-05
1.72302e-05
1.72155e-05
1.73897e-05
1.59149e-05
1.60316e-05
1.60936e-05
1.62255e-05
1.62525e-05
1.63848e-05
1.63759e-05
1.65231e-05
1.60535e-05
1.61458e-05
1.61852e-05
1.6283e-05
1.63082e-05
1.64033e-05
1.64065e-05
1.64956e-05
1.60316e-05
1.62035e-05
1.62636e-05
1.64139e-05
1.63858e-05
1.64799e-05
1.64995e-05
1.6627e-05
1.4688e-05
1.49737e-05
1.52303e-05
1.55448e-05
1.58154e-05
1.61905e-05
1.64643e-05
1.69066e-05
3.09677e-05
3.10666e-05
3.13372e-05
3.14558e-05
3.16895e-05
3.18256e-05
3.19356e-05
3.21752e-05
3.05874e-05
3.07655e-05
3.09121e-05
3.11227e-05
3.12167e-05
3.14774e-05
3.14918e-05
3.1787e-05
3.02581e-05
3.0488e-05
3.05733e-05
3.08358e-05
3.08737e-05
3.11514e-05
3.11409e-05
3.14142e-05
2.98473e-05
3.00854e-05
3.01382e-05
3.04109e-05
3.04502e-05
3.074e-05
3.07468e-05
3.10299e-05
2.95316e-05
2.97772e-05
2.98227e-05
3.00734e-05
3.00886e-05
3.03477e-05
3.03417e-05
3.06042e-05
2.91961e-05
2.9453e-05
2.95183e-05
2.979e-05
2.98177e-05
3.00665e-05
3.00505e-05
3.02801e-05
2.8749e-05
2.89698e-05
2.9014e-05
2.92747e-05
2.93273e-05
2.95911e-05
2.96005e-05
2.98455e-05
2.84364e-05
2.86117e-05
2.86132e-05
2.88219e-05
2.88512e-05
2.91117e-05
2.91286e-05
2.93987e-05
2.80149e-05
2.81773e-05
2.81588e-05
2.83294e-05
2.83157e-05
2.85508e-05
2.85602e-05
2.88339e-05
2.77439e-05
2.79159e-05
2.79026e-05
2.80466e-05
2.79964e-05
2.81906e-05
2.81683e-05
2.84205e-05
2.72405e-05
2.74521e-05
2.74491e-05
2.76024e-05
2.75291e-05
2.77071e-05
2.76451e-05
2.78834e-05
2.67041e-05
2.70096e-05
2.70743e-05
2.72823e-05
2.72319e-05
2.7377e-05
2.72886e-05
2.74481e-05
2.61652e-05
2.65043e-05
2.66057e-05
2.68818e-05
2.68699e-05
2.70458e-05
2.69608e-05
2.7118e-05
2.53085e-05
2.55749e-05
2.5665e-05
2.59393e-05
2.59648e-05
2.61882e-05
2.61414e-05
2.63399e-05
2.48326e-05
2.50329e-05
2.51158e-05
2.53409e-05
2.53853e-05
2.55932e-05
2.55702e-05
2.57614e-05
2.40097e-05
2.41937e-05
2.42868e-05
2.44996e-05
2.45699e-05
2.47869e-05
2.47968e-05
2.49904e-05
2.35932e-05
2.37609e-05
2.38381e-05
2.4031e-05
2.40944e-05
2.42899e-05
2.43026e-05
2.44938e-05
2.29517e-05
2.30791e-05
2.31667e-05
2.33183e-05
2.33774e-05
2.35093e-05
2.3534e-05
2.36656e-05
2.37397e-05
2.38604e-05
2.39144e-05
2.40379e-05
2.40842e-05
2.41824e-05
2.42267e-05
2.42977e-05
2.35323e-05
2.38073e-05
2.39203e-05
2.42137e-05
2.41891e-05
2.43498e-05
2.43787e-05
2.46173e-05
1.59423e-05
1.62492e-05
1.65307e-05
1.68708e-05
1.71611e-05
1.75592e-05
1.78646e-05
1.83408e-05
4.0335e-05
4.04806e-05
4.08235e-05
4.10139e-05
4.13193e-05
4.15496e-05
4.17051e-05
4.20594e-05
3.99101e-05
4.01516e-05
4.03392e-05
4.06328e-05
4.07663e-05
4.11265e-05
4.1178e-05
4.15755e-05
3.95501e-05
3.98464e-05
3.99564e-05
4.03078e-05
4.03768e-05
4.07483e-05
4.07721e-05
4.11344e-05
3.90674e-05
3.93737e-05
3.94388e-05
3.97935e-05
3.98584e-05
4.02411e-05
4.02813e-05
4.06575e-05
3.86677e-05
3.89882e-05
3.90525e-05
3.93841e-05
3.94218e-05
3.97612e-05
3.97826e-05
4.01242e-05
3.82643e-05
3.85873e-05
3.86732e-05
3.90326e-05
3.90959e-05
3.94276e-05
3.9443e-05
3.97413e-05
3.77477e-05
3.8023e-05
3.8075e-05
3.84038e-05
3.84878e-05
3.88355e-05
3.88784e-05
3.91998e-05
3.73745e-05
3.76071e-05
3.76063e-05
3.78627e-05
3.78998e-05
3.82331e-05
3.82754e-05
3.86286e-05
3.68609e-05
3.70904e-05
3.70703e-05
3.72814e-05
3.72555e-05
3.75383e-05
3.75579e-05
3.7904e-05
3.65101e-05
3.67637e-05
3.67694e-05
3.6962e-05
3.68969e-05
3.7122e-05
3.70958e-05
3.73976e-05
3.58996e-05
3.6199e-05
3.62309e-05
3.64422e-05
3.63577e-05
3.65616e-05
3.64845e-05
3.67488e-05
3.51829e-05
3.55842e-05
3.57227e-05
3.60171e-05
3.60069e-05
3.61881e-05
3.61029e-05
3.62699e-05
3.45418e-05
3.49725e-05
3.51444e-05
3.55248e-05
3.55768e-05
3.58083e-05
3.57375e-05
3.59176e-05
3.35913e-05
3.39133e-05
3.40316e-05
3.43906e-05
3.44568e-05
3.4746e-05
3.47142e-05
3.49546e-05
3.30841e-05
3.3314e-05
3.34149e-05
3.36943e-05
3.37686e-05
3.40266e-05
3.40205e-05
3.42435e-05
3.22194e-05
3.2413e-05
3.25307e-05
3.27768e-05
3.28816e-05
3.31355e-05
3.31769e-05
3.33875e-05
3.19067e-05
3.20808e-05
3.2189e-05
3.23986e-05
3.25068e-05
3.27155e-05
3.27662e-05
3.29528e-05
3.16352e-05
3.17601e-05
3.18784e-05
3.20361e-05
3.2142e-05
3.22534e-05
3.23226e-05
3.24185e-05
3.29009e-05
3.30925e-05
3.31821e-05
3.3373e-05
3.34538e-05
3.35813e-05
3.36712e-05
3.37555e-05
3.14717e-05
3.19046e-05
3.2094e-05
3.26321e-05
3.26438e-05
3.29518e-05
3.29693e-05
3.3412e-05
1.71102e-05
1.74336e-05
1.77385e-05
1.81062e-05
1.84178e-05
1.88363e-05
1.91705e-05
1.96776e-05
5.09969e-05
5.11842e-05
5.1572e-05
5.18345e-05
5.21891e-05
5.252e-05
5.27088e-05
5.31765e-05
5.05353e-05
5.08321e-05
5.10444e-05
5.14159e-05
5.15788e-05
5.20324e-05
5.21187e-05
5.26108e-05
5.01535e-05
5.05036e-05
5.0626e-05
5.1056e-05
5.11543e-05
5.1612e-05
5.16737e-05
5.212e-05
4.96072e-05
4.99715e-05
5.00405e-05
5.04657e-05
5.05507e-05
5.10188e-05
5.10922e-05
5.15595e-05
4.91116e-05
4.9495e-05
4.95732e-05
4.99794e-05
5.00394e-05
5.04555e-05
5.05048e-05
5.09236e-05
4.86389e-05
4.90116e-05
4.91067e-05
4.9543e-05
4.96442e-05
5.00601e-05
5.01142e-05
5.04851e-05
4.80615e-05
4.8384e-05
4.84366e-05
4.88201e-05
4.89285e-05
4.93586e-05
4.94377e-05
4.98404e-05
4.76136e-05
4.79076e-05
4.7908e-05
4.82045e-05
4.8239e-05
4.86376e-05
4.87004e-05
4.91383e-05
4.70077e-05
4.73145e-05
4.73039e-05
4.75544e-05
4.75119e-05
4.78302e-05
4.7847e-05
4.82591e-05
4.65524e-05
4.68995e-05
4.69404e-05
4.71918e-05
4.71199e-05
4.73669e-05
4.73272e-05
4.76658e-05
4.5856e-05
4.62457e-05
4.63302e-05
4.66146e-05
4.65347e-05
4.67575e-05
4.66633e-05
4.69335e-05
4.49836e-05
4.54472e-05
4.56672e-05
4.60543e-05
4.61104e-05
4.6338e-05
4.62701e-05
4.64381e-05
4.42781e-05
4.47535e-05
4.49931e-05
4.54699e-05
4.56117e-05
4.59136e-05
4.58731e-05
4.60759e-05
4.33363e-05
4.36766e-05
4.38094e-05
4.4235e-05
4.43504e-05
4.47038e-05
4.46938e-05
4.49682e-05
4.28505e-05
4.30779e-05
4.31828e-05
4.34953e-05
4.36007e-05
4.38971e-05
4.39117e-05
4.41519e-05
4.20615e-05
4.22298e-05
4.23621e-05
4.26175e-05
4.27569e-05
4.30272e-05
4.31056e-05
4.33154e-05
4.19117e-05
4.20676e-05
4.22115e-05
4.242e-05
4.25828e-05
4.27894e-05
4.28869e-05
4.30485e-05
4.20568e-05
4.21993e-05
4.23644e-05
4.25461e-05
4.27179e-05
4.28226e-05
4.29439e-05
4.30141e-05
4.31328e-05
4.34799e-05
4.36396e-05
4.399e-05
4.41317e-05
4.43683e-05
4.45033e-05
4.4682e-05
3.90987e-05
3.97576e-05
4.00321e-05
4.09317e-05
4.10261e-05
4.16012e-05
4.15823e-05
4.23338e-05
1.81935e-05
1.85288e-05
1.88532e-05
1.92494e-05
1.95854e-05
2.00237e-05
2.03838e-05
2.09165e-05
6.31522e-05
6.3373e-05
6.37764e-05
6.41032e-05
6.44802e-05
6.49077e-05
6.51134e-05
6.56795e-05
6.2655e-05
6.29947e-05
6.32137e-05
6.36525e-05
6.38316e-05
6.43663e-05
6.44804e-05
6.50503e-05
6.22514e-05
6.26406e-05
6.27621e-05
6.32538e-05
6.3376e-05
6.39067e-05
6.40055e-05
6.45247e-05
6.16465e-05
6.20558e-05
6.21212e-05
6.2602e-05
6.26988e-05
6.32394e-05
6.33414e-05
6.38912e-05
6.10474e-05
6.14763e-05
6.15601e-05
6.20304e-05
6.21094e-05
6.25953e-05
6.26705e-05
6.31603e-05
6.05037e-05
6.09086e-05
6.09982e-05
6.14917e-05
6.16251e-05
6.21207e-05
6.22179e-05
6.26631e-05
5.98654e-05
6.023e-05
6.02776e-05
6.07004e-05
6.08191e-05
6.13229e-05
6.1437e-05
6.19227e-05
5.93271e-05
5.96859e-05
5.96952e-05
6.00289e-05
6.00489e-05
6.04992e-05
6.05734e-05
6.10903e-05
5.86335e-05
5.90224e-05
5.90381e-05
5.93326e-05
5.9274e-05
5.96164e-05
5.96153e-05
6.00773e-05
5.8063e-05
5.85025e-05
5.85947e-05
5.89151e-05
5.88531e-05
5.91178e-05
5.90578e-05
5.94139e-05
5.73197e-05
5.77848e-05
5.79323e-05
5.83016e-05
5.82543e-05
5.84938e-05
5.83894e-05
5.86441e-05
5.63721e-05
5.68421e-05
5.71266e-05
5.75979e-05
5.77407e-05
5.8025e-05
5.79957e-05
5.81606e-05
5.567e-05
5.61196e-05
5.63985e-05
5.69424e-05
5.71834e-05
5.75676e-05
5.75798e-05
5.78052e-05
5.48502e-05
5.51565e-05
5.52789e-05
5.57352e-05
5.58991e-05
5.6309e-05
5.63307e-05
5.66264e-05
5.44496e-05
5.46338e-05
5.47221e-05
5.50354e-05
5.51683e-05
5.54849e-05
5.55254e-05
5.57619e-05
5.38257e-05
5.39379e-05
5.40732e-05
5.43149e-05
5.44891e-05
5.47561e-05
5.48769e-05
5.50678e-05
5.37873e-05
5.39233e-05
5.41126e-05
5.43247e-05
5.45549e-05
5.47654e-05
5.49211e-05
5.5056e-05
5.40194e-05
5.42553e-05
5.45008e-05
5.47783e-05
5.5045e-05
5.52144e-05
5.53984e-05
5.55069e-05
5.38012e-05
5.4426e-05
5.46977e-05
5.53402e-05
5.55847e-05
5.6064e-05
5.62489e-05
5.66528e-05
4.5718e-05
4.6676e-05
4.70179e-05
4.83777e-05
4.86076e-05
4.9592e-05
4.95234e-05
5.06717e-05
1.91852e-05
1.95293e-05
1.98677e-05
2.02903e-05
2.06536e-05
2.11126e-05
2.14972e-05
2.2048e-05
7.69978e-05
7.7241e-05
7.76392e-05
7.80172e-05
7.83948e-05
7.89075e-05
7.91155e-05
7.97575e-05
7.64592e-05
7.68279e-05
7.70393e-05
7.75326e-05
7.77163e-05
7.83183e-05
7.84525e-05
7.90813e-05
7.60253e-05
7.64405e-05
7.65511e-05
7.70857e-05
7.72244e-05
7.78139e-05
7.79457e-05
7.85264e-05
7.53648e-05
7.58057e-05
7.58615e-05
7.63843e-05
7.64846e-05
7.70828e-05
7.72069e-05
7.78281e-05
7.46621e-05
7.51178e-05
7.51964e-05
7.57175e-05
7.58104e-05
7.63575e-05
7.64555e-05
7.70096e-05
7.40455e-05
7.44693e-05
7.4541e-05
7.50671e-05
7.52189e-05
7.57825e-05
7.59226e-05
7.64424e-05
7.33397e-05
7.37438e-05
7.37849e-05
7.4234e-05
7.43455e-05
7.49059e-05
7.5049e-05
7.56154e-05
7.27014e-05
7.31248e-05
7.31526e-05
7.35265e-05
7.35257e-05
7.40095e-05
7.40827e-05
7.46653e-05
7.19361e-05
7.24007e-05
7.24591e-05
7.2807e-05
7.27412e-05
7.30999e-05
7.30705e-05
7.35582e-05
7.12693e-05
7.17798e-05
7.19325e-05
7.2327e-05
7.22978e-05
7.25821e-05
7.2504e-05
7.28552e-05
7.05415e-05
7.10436e-05
7.12502e-05
7.17004e-05
7.17206e-05
7.19809e-05
7.1885e-05
7.21087e-05
6.96477e-05
7.00584e-05
7.0366e-05
7.08883e-05
7.11253e-05
7.14686e-05
7.15036e-05
7.16671e-05
6.90446e-05
6.93938e-05
6.96601e-05
7.0217e-05
7.05413e-05
7.10044e-05
7.10935e-05
7.13433e-05
6.84436e-05
6.86628e-05
6.87429e-05
6.91794e-05
6.93777e-05
6.98258e-05
6.98923e-05
7.01955e-05
6.81714e-05
6.82765e-05
6.83289e-05
6.86069e-05
6.87608e-05
6.90779e-05
6.91521e-05
6.93661e-05
6.7688e-05
6.77388e-05
6.78741e-05
6.80955e-05
6.83107e-05
6.85709e-05
6.87428e-05
6.89107e-05
6.74822e-05
6.76468e-05
6.7906e-05
6.81707e-05
6.84912e-05
6.87549e-05
6.89865e-05
6.91368e-05
6.70138e-05
6.74799e-05
6.7861e-05
6.83641e-05
6.87694e-05
6.91403e-05
6.94058e-05
6.9683e-05
6.41485e-05
6.52021e-05
6.5633e-05
6.67157e-05
6.71166e-05
6.80091e-05
6.82623e-05
6.90607e-05
5.07985e-05
5.21312e-05
5.24978e-05
5.43594e-05
5.4768e-05
5.63023e-05
5.62006e-05
5.7797e-05
2.00796e-05
2.04323e-05
2.07794e-05
2.12224e-05
2.16141e-05
2.20941e-05
2.25039e-05
2.3065e-05
9.26971e-05
9.29494e-05
9.33359e-05
9.37479e-05
9.41157e-05
9.46992e-05
9.49028e-05
9.55986e-05
9.21078e-05
9.24928e-05
9.2689e-05
9.3224e-05
9.34044e-05
9.40621e-05
9.42117e-05
9.48848e-05
9.16306e-05
9.20626e-05
9.21576e-05
9.27189e-05
9.28654e-05
9.35014e-05
9.36609e-05
9.42945e-05
9.09205e-05
9.13805e-05
9.14223e-05
9.19758e-05
9.20732e-05
9.27152e-05
9.2854e-05
9.35359e-05
9.01231e-05
9.05907e-05
9.06519e-05
9.12083e-05
9.13077e-05
9.19062e-05
9.20232e-05
9.26361e-05
8.94346e-05
8.98698e-05
8.99176e-05
9.04527e-05
9.06038e-05
9.12157e-05
9.13915e-05
9.19828e-05
8.86597e-05
8.90986e-05
8.91355e-05
8.96021e-05
8.96917e-05
9.02834e-05
9.04426e-05
9.108e-05
8.7928e-05
8.84062e-05
8.84591e-05
8.88784e-05
8.88606e-05
8.93583e-05
8.94174e-05
9.00425e-05
8.71267e-05
8.76431e-05
8.77512e-05
8.81608e-05
8.81049e-05
8.84759e-05
8.84184e-05
8.89023e-05
8.64236e-05
8.69591e-05
8.71671e-05
8.7628e-05
8.76543e-05
8.79629e-05
8.78821e-05
8.82059e-05
8.57976e-05
8.62767e-05
8.6521e-05
8.70214e-05
8.71361e-05
8.74236e-05
8.73651e-05
8.75522e-05
8.51054e-05
8.54e-05
8.56769e-05
8.61901e-05
8.65083e-05
8.68979e-05
8.70184e-05
8.71872e-05
8.47022e-05
8.49e-05
8.50956e-05
8.55939e-05
8.59602e-05
8.64727e-05
8.66539e-05
8.69294e-05
8.43661e-05
8.44652e-05
8.44766e-05
8.48404e-05
8.50476e-05
8.55048e-05
8.56271e-05
8.59279e-05
8.41818e-05
8.41994e-05
8.42106e-05
8.44322e-05
8.4602e-05
8.491e-05
8.50291e-05
8.52176e-05
8.36011e-05
8.36333e-05
8.37885e-05
8.4022e-05
8.42966e-05
8.45842e-05
8.48233e-05
8.50003e-05
8.26281e-05
8.29367e-05
8.33162e-05
8.37433e-05
8.41931e-05
8.46207e-05
8.49555e-05
8.52272e-05
8.0292e-05
8.11722e-05
8.17671e-05
8.26702e-05
8.32719e-05
8.4035e-05
8.44126e-05
8.50463e-05
7.33993e-05
7.50501e-05
7.57008e-05
7.73639e-05
7.79763e-05
7.94636e-05
7.98183e-05
8.11989e-05
5.40416e-05
5.5831e-05
5.61796e-05
5.85028e-05
5.90946e-05
6.12867e-05
6.12128e-05
6.32749e-05
2.08789e-05
2.12429e-05
2.15958e-05
2.20505e-05
2.2469e-05
2.29687e-05
2.34059e-05
2.39703e-05
0.000110365
0.000110611
0.000110993
0.000111419
0.000111777
0.000112415
0.000112618
0.000113351
0.000109718
0.000110109
0.000110289
0.000110852
0.000111025
0.000111728
0.000111891
0.000112602
0.000109188
0.00010963
0.000109709
0.000110285
0.00011043
0.000111101
0.000111281
0.000111963
0.000108443
0.000108911
0.000108934
0.000109508
0.000109597
0.00011027
0.000110416
0.000111148
0.000107572
0.000108041
0.000108074
0.000108647
0.000108743
0.000109379
0.000109509
0.000110174
0.000106821
0.000107263
0.000107288
0.000107813
0.000107944
0.000108576
0.000108771
0.000109423
0.000105996
0.000106457
0.000106492
0.000106969
0.000107029
0.000107622
0.000107777
0.000108462
0.000105204
0.000105713
0.000105789
0.000106252
0.00010623
0.000106723
0.000106758
0.00010739
0.000104429
0.000104954
0.000105102
0.000105568
0.000105544
0.000105923
0.000105851
0.000106299
0.000103789
0.000104285
0.000104524
0.000105023
0.00010512
0.000105452
0.000105396
0.000105672
0.000103365
0.000103753
0.000104
0.000104492
0.000104705
0.000105017
0.000105028
0.000105181
0.000102994
0.000103143
0.000103345
0.000103775
0.000104138
0.000104542
0.000104754
0.000104934
0.000102854
0.000102895
0.000102982
0.000103356
0.000103708
0.000104218
0.000104485
0.000104783
0.000102729
0.000102717
0.000102655
0.000102916
0.000103106
0.000103543
0.000103723
0.000104021
0.000102425
0.000102395
0.000102388
0.000102573
0.000102766
0.000103085
0.000103264
0.000103458
0.000101223
0.000101337
0.000101564
0.000101903
0.000102275
0.000102683
0.000103017
0.000103295
9.8553e-05
9.91743e-05
9.97542e-05
0.000100516
0.000101155
0.000101922
0.000102401
0.00010297
9.29916e-05
9.44824e-05
9.53912e-05
9.68914e-05
9.77607e-05
9.91352e-05
9.96695e-05
0.000100878
8.08609e-05
8.32711e-05
8.42274e-05
8.65936e-05
8.74656e-05
8.97104e-05
9.0209e-05
9.2353e-05
5.54157e-05
5.77419e-05
5.80789e-05
6.0756e-05
6.14675e-05
6.4349e-05
6.44058e-05
6.69448e-05
2.15949e-05
2.19736e-05
2.23341e-05
2.27914e-05
2.32326e-05
2.3749e-05
2.42167e-05
2.47789e-05
0.000130075
0.000130299
0.000130687
0.000131105
0.000131458
0.000132132
0.000132341
0.000133101
0.00012937
0.00012976
0.000129927
0.000130502
0.000130663
0.000131398
0.000131573
0.000132318
0.000128788
0.000129235
0.0001293
0.00012988
0.000130013
0.000130706
0.000130897
0.00013162
0.000128036
0.000128503
0.000128504
0.000129083
0.00012916
0.000129848
0.000129993
0.000130759
0.000127129
0.000127594
0.000127593
0.000128158
0.000128238
0.000128891
0.000129024
0.000129728
0.000126348
0.000126787
0.000126793
0.000127291
0.000127387
0.000128006
0.000128197
0.000128885
0.000125523
0.000125982
0.000126013
0.000126487
0.000126518
0.000127079
0.000127209
0.000127898
0.000124741
0.000125237
0.000125323
0.00012581
0.0001258
0.000126272
0.000126281
0.000126871
0.000124079
0.000124556
0.000124716
0.000125207
0.000125235
0.000125611
0.000125549
0.000125928
0.000123619
0.00012401
0.000124243
0.000124727
0.000124895
0.000125233
0.000125235
0.000125448
0.000123483
0.000123727
0.000123941
0.000124354
0.000124638
0.000124954
0.000125057
0.00012518
0.000123476
0.000123486
0.000123599
0.000123886
0.000124243
0.000124617
0.000124906
0.000125096
0.000123559
0.000123488
0.000123474
0.000123696
0.000123989
0.000124443
0.000124766
0.000125078
0.000123431
0.000123366
0.000123263
0.000123444
0.000123611
0.000124023
0.000124256
0.000124571
0.00012256
0.000122573
0.000122602
0.000122839
0.000123087
0.000123492
0.000123754
0.00012404
0.000119915
0.000120254
0.00012063
0.000121236
0.000121771
0.000122462
0.000122936
0.00012348
0.00011439
0.000115498
0.000116374
0.000117685
0.000118598
0.000119931
0.000120613
0.000121712
0.000104279
0.000106534
0.000107863
0.000110158
0.000111376
0.000113584
0.000114335
0.000116337
8.60426e-05
8.93156e-05
9.0683e-05
9.38616e-05
9.50345e-05
9.81576e-05
9.88399e-05
0.000101889
5.51878e-05
5.80691e-05
5.84901e-05
6.14161e-05
6.21187e-05
6.55961e-05
6.58881e-05
6.89403e-05
2.22474e-05
2.26415e-05
2.30153e-05
2.34697e-05
2.39273e-05
2.44549e-05
2.49569e-05
2.55159e-05
0.00015187
0.000152061
0.000152462
0.000152852
0.0001532
0.000153882
0.000154106
0.00015488
0.000151124
0.000151503
0.000151664
0.000152231
0.000152377
0.00015312
0.000153302
0.000154071
0.000150509
0.000150953
0.000151006
0.000151577
0.00015169
0.000152382
0.000152572
0.00015332
0.000149795
0.000150247
0.000150227
0.000150789
0.000150849
0.000151528
0.000151665
0.000152439
0.000148915
0.000149363
0.00014933
0.000149859
0.00014991
0.000150546
0.000150668
0.000151385
0.000148163
0.00014858
0.000148571
0.000149025
0.000149078
0.000149644
0.000149805
0.000150486
0.000147424
0.000147846
0.000147865
0.00014831
0.000148319
0.000148815
0.000148902
0.000149536
0.000146755
0.000147187
0.00014726
0.000147728
0.000147741
0.000148167
0.000148161
0.000148654
0.000146306
0.000146676
0.000146813
0.000147271
0.000147356
0.000147705
0.000147683
0.000147965
0.000146125
0.000146364
0.000146552
0.000146954
0.000147177
0.000147488
0.000147571
0.000147713
0.000146299
0.000146384
0.000146546
0.00014682
0.000147131
0.000147411
0.000147608
0.000147706
0.000146569
0.000146486
0.000146531
0.000146665
0.000146974
0.000147283
0.000147614
0.000147809
0.000146665
0.000146567
0.0001465
0.000146616
0.000146839
0.000147229
0.000147569
0.000147897
0.000146098
0.00014608
0.000145998
0.000146195
0.000146372
0.000146821
0.000147106
0.000147502
0.000143945
0.000144125
0.000144263
0.000144708
0.000145078
0.000145723
0.000146107
0.000146642
0.000138821
0.000139522
0.000140122
0.000141202
0.000141992
0.000143197
0.000143873
0.000144928
0.000129238
0.000130944
0.000132185
0.000134263
0.000135548
0.0001377
0.000138664
0.000140562
0.000113501
0.00011656
0.000118376
0.000121633
0.000123285
0.000126526
0.000127571
0.000130561
8.88098e-05
9.2904e-05
9.47569e-05
9.88358e-05
0.000100355
0.000104426
0.000105324
0.000109344
5.39517e-05
5.72295e-05
5.7868e-05
6.10293e-05
6.16122e-05
6.54564e-05
6.60071e-05
6.96167e-05
2.28598e-05
2.32635e-05
2.36565e-05
2.41088e-05
2.45775e-05
2.51082e-05
2.56456e-05
2.62062e-05
0.000175774
0.000175926
0.000176338
0.000176681
0.00017702
0.000177673
0.000177913
0.00017868
0.000175026
0.000175383
0.000175542
0.000176078
0.000176205
0.000176921
0.000177101
0.00017787
0.000174421
0.000174847
0.000174891
0.000175434
0.000175523
0.000176182
0.000176356
0.000177096
0.000173806
0.000174228
0.000174191
0.000174708
0.000174746
0.000175381
0.0001755
0.000176244
0.000173051
0.000173457
0.0001734
0.000173862
0.000173873
0.00017445
0.000174545
0.00017523
0.000172424
0.000172785
0.000172762
0.000173145
0.000173155
0.000173628
0.000173734
0.000174348
0.000171881
0.000172221
0.00017222
0.000172596
0.000172588
0.000172984
0.000173023
0.000173532
0.000171447
0.00017176
0.000171798
0.000172187
0.000172223
0.000172568
0.000172566
0.000172909
0.000171283
0.000171505
0.000171594
0.000171945
0.000172076
0.000172361
0.000172405
0.000172568
0.000171404
0.000171482
0.000171613
0.000171871
0.000172121
0.000172365
0.000172535
0.000172607
0.000171789
0.00017175
0.00017187
0.000171995
0.000172292
0.000172505
0.000172774
0.000172856
0.000172067
0.000171972
0.000171998
0.000172046
0.000172298
0.000172553
0.00017289
0.000173103
0.000171739
0.000171724
0.000171677
0.000171811
0.000172007
0.00017241
0.000172748
0.000173141
0.000170046
0.000170198
0.000170208
0.000170584
0.000170847
0.000171489
0.000171853
0.000172468
0.000165682
0.00016615