/*--------------------------------*- C++ -*----------------------------------*\
  =========                 |
  \\      /  F ield         | OpenFOAM: The Open Source CFD Toolbox
   \\    /   O peration     | Website:  https://openfoam.org
    \\  /    A nd           | Version:  6
     \\/     M anipulation  |
\*---------------------------------------------------------------------------*/
FoamFile
{
    version     2.0;
    format      ascii;
    class       volScalarField;
    location    "2";
    object      p;
}
// * * * * * * * * * * * * * * * * * * * * * * * * * * * * * * * * * * * * * //

dimensions      [0 2 -2 0 0 0 0];

internalField   nonuniform List<scalar> 
63400
(
3.21132e-05
7.97602e-05
0.000149529
0.000236456
0.000340252
0.000454862
0.000576498
0.000723675
0.000186149
0.00020973
0.00025357
0.000315646
0.000391272
0.000485346
0.000573309
0.000710367
0.000378572
0.000387329
0.000413849
0.000458295
0.000512764
0.000589058
0.000650726
0.000773297
0.00053714
0.000531882
0.000542715
0.000571388
0.0006078
0.000668871
0.000708815
0.000821602
0.000688218
0.000671449
0.000669197
0.000684323
0.000705171
0.000752318
0.000773644
0.000875922
0.000823001
0.000796491
0.000783351
0.000787181
0.00079533
0.000830795
0.000836855
0.000929603
0.000945976
0.000911102
0.000888572
0.000882554
0.0008797
0.00090491
0.000898042
0.00098211
0.00105473
0.00101285
0.000982482
0.000968253
0.000956217
0.000972813
0.000955058
0.0010311
0.0011458
0.00109825
0.00106155
0.0010408
0.00102141
0.00103153
0.00100466
0.00107705
0.00121948
0.00116744
0.00112576
0.00109997
0.00107486
0.00108037
0.00104598
0.00111827
0.00128205
0.0012261
0.00118008
0.00114991
0.00111988
0.00112153
0.00108093
0.00115326
0.00133494
0.00127553
0.00122576
0.0011918
0.00115771
0.00115591
0.00111079
0.00118112
0.00137874
0.00131629
0.00126313
0.0012257
0.00118812
0.00118301
0.00113503
0.00120149
0.00141631
0.00135101
0.00129468
0.00125394
0.00121325
0.00120471
0.00115483
0.00121458
0.0014457
0.0013779
0.00131884
0.00127513
0.00123174
0.00122028
0.00116883
0.00122572
0.00147036
0.0014001
0.00133845
0.001292
0.00124619
0.00123213
0.00117912
0.00123568
0.00148739
0.00141516
0.00135148
0.00130282
0.00125507
0.00123857
0.00118441
0.00124033
0.00150047
0.00142645
0.00136109
0.00131073
0.00126184
0.00124315
0.00118918
0.00124092
0.00150647
0.00143132
0.00136504
0.00131339
0.00126361
0.001242
0.00118898
0.00123311
0.00151093
0.00143488
0.00136767
0.00131531
0.00126568
0.00124268
0.00119241
0.00122758
0.00150839
0.00143169
0.00136361
0.00131025
0.00125964
0.0012337
0.00118551
0.00120094
3.09481e-05
7.87062e-05
0.000148568
0.000235617
0.000339482
0.000454204
0.000575899
0.000723208
0.000185308
0.000208922
0.000252806
0.000314931
0.000390627
0.000484737
0.000572806
0.000709866
0.000378015
0.000386781
0.000413327
0.000457785
0.000512304
0.000588595
0.000650356
0.000772914
0.000536713
0.000531455
0.000542307
0.000570981
0.000607434
0.000668489
0.000708518
0.000821275
0.000687882
0.000671106
0.000668868
0.00068399
0.000704872
0.000751997
0.000773403
0.000875638
0.000822745
0.000796221
0.000783088
0.00078691
0.000795086
0.000830529
0.000836663
0.000929359
0.000945788
0.0009109
0.00088837
0.000882338
0.000879502
0.000904688
0.000897884
0.000981899
0.00105458
0.0010127
0.000982334
0.00096809
0.000956063
0.000972632
0.00095493
0.00103091
0.00114567
0.00109813
0.00106143
0.00104068
0.00102129
0.00103139
0.00100456
0.00107688
0.00121936
0.00116732
0.00112565
0.00109986
0.00107476
0.00108024
0.0010459
0.00111813
0.00128194
0.00122599
0.00117997
0.0011498
0.00111978
0.00112142
0.00108087
0.00115313
0.00133483
0.00127542
0.00122565
0.00119168
0.00115761
0.0011558
0.00111073
0.00118099
0.00137865
0.00131619
0.00126303
0.00122559
0.00118803
0.00118291
0.00113498
0.00120137
0.00141626
0.00135094
0.00129461
0.00125385
0.00121317
0.00120461
0.00115476
0.00121445
0.00144565
0.00137785
0.00131879
0.00127507
0.00123167
0.00122019
0.00116878
0.0012256
0.00147032
0.00140007
0.00133841
0.00129195
0.00124614
0.00123206
0.00117908
0.00123557
0.00148735
0.00141513
0.00135144
0.00130277
0.00125502
0.0012385
0.00118438
0.00124022
0.00150044
0.00142642
0.00136106
0.00131069
0.0012618
0.00124309
0.00118916
0.00124082
0.00150645
0.0014313
0.00136501
0.00131334
0.00126357
0.00124194
0.00118895
0.001233
0.00151102
0.00143497
0.00136777
0.00131541
0.00126578
0.00124278
0.00119251
0.00122764
0.00150861
0.00143197
0.00136393
0.00131059
0.00125995
0.00123406
0.00118576
0.00120137
3.1045e-05
7.87765e-05
0.000148588
0.000235619
0.000339439
0.000454157
0.000575839
0.000723277
0.000185268
0.000208848
0.000252697
0.00031479
0.000390466
0.000484539
0.000572632
0.000709646
0.000378021
0.000386765
0.000413298
0.00045773
0.000512244
0.000588502
0.00065029
0.000772837
0.000536691
0.000531412
0.000542259
0.000570908
0.000607362
0.000668386
0.000708448
0.000821203
0.000687845
0.000671048
0.000668806
0.000683905
0.000704792
0.000751889
0.000773332
0.000875567
0.000822696
0.000796151
0.000783012
0.000786812
0.000794993
0.00083041
0.000836587
0.000929284
0.000945737
0.000910834
0.000888304
0.00088225
0.000879416
0.000904575
0.000897813
0.000981825
0.00105451
0.00101263
0.000982263
0.000968005
0.000955984
0.000972525
0.000954867
0.00103084
0.0011456
0.00109805
0.00106135
0.00104059
0.00102122
0.00103129
0.00100451
0.00107683
0.00121927
0.00116723
0.00112556
0.00109976
0.00107468
0.00108014
0.00104586
0.00111808
0.00128186
0.00122589
0.00117988
0.0011497
0.00111969
0.00112131
0.00108083
0.00115309
0.00133476
0.00127532
0.00122554
0.00119156
0.00115751
0.00115567
0.00111068
0.00118094
0.00137859
0.00131609
0.00126292
0.00122545
0.00118791
0.00118276
0.00113491
0.00120129
0.00141623
0.00135089
0.00129454
0.00125376
0.00121308
0.00120448
0.00115469
0.00121435
0.00144563
0.00137782
0.00131874
0.00127499
0.00123159
0.00122007
0.00116871
0.0012255
0.00147031
0.00140005
0.00133839
0.0012919
0.00124608
0.00123196
0.00117903
0.00123549
0.00148732
0.0014151
0.00135142
0.00130272
0.00125497
0.0012384
0.00118434
0.00124015
0.00150044
0.00142641
0.00136105
0.00131065
0.00126177
0.00124301
0.00118915
0.00124074
0.00150647
0.0014313
0.001365
0.00131331
0.00126353
0.00124185
0.00118892
0.00123288
0.00151119
0.00143514
0.00136794
0.00131558
0.00126596
0.00124294
0.00119269
0.00122766
0.00150907
0.00143251
0.00136453
0.00131123
0.00126062
0.00123472
0.0011864
0.00120189
3.08829e-05
7.86258e-05
0.000148404
0.000235464
0.00033924
0.000453996
0.000575661
0.000723378
0.000184986
0.000208534
0.000252345
0.000314411
0.000390075
0.000484115
0.000572245
0.000709304
0.00037789
0.000386605
0.000413123
0.000457519
0.00051204
0.000588254
0.000650085
0.000772715
0.000536599
0.000531293
0.000542137
0.00057075
0.000607214
0.00066819
0.000708298
0.000821154
0.000687769
0.000670936
0.000668693
0.000683754
0.000704657
0.000751709
0.000773205
0.000875546
0.000822635
0.000796055
0.00078291
0.000786669
0.000794863
0.000830236
0.00083647
0.000929278
0.000945691
0.000910764
0.000888234
0.000882143
0.000879318
0.000904428
0.000897723
0.000981837
0.00105445
0.00101255
0.000982198
0.000967912
0.000955907
0.0009724
0.0009548
0.00103088
0.00114554
0.00109797
0.0010613
0.00104051
0.00102117
0.00103119
0.00100447
0.0010769
0.00121919
0.00116714
0.00112548
0.00109967
0.00107462
0.00108004
0.00104584
0.00111818
0.0012818
0.0012258
0.00117979
0.0011496
0.00111962
0.0011212
0.00108082
0.0011532
0.00133474
0.00127524
0.00122546
0.00119144
0.00115741
0.00115554
0.00111065
0.00118104
0.00137859
0.00131603
0.00126285
0.00122532
0.0011878
0.0011826
0.00113483
0.00120134
0.00141626
0.00135088
0.00129453
0.00125369
0.00121301
0.00120435
0.00115463
0.00121437
0.00144564
0.00137782
0.00131874
0.00127495
0.00123155
0.00121996
0.00116866
0.00122553
0.00147034
0.00140008
0.00133842
0.0012919
0.00124608
0.00123189
0.00117903
0.00123556
0.00148734
0.00141511
0.00135145
0.00130271
0.00125496
0.00123833
0.00118435
0.00124022
0.0015005
0.00142647
0.00136111
0.00131065
0.00126179
0.00124296
0.00118918
0.0012408
0.00150654
0.00143136
0.00136506
0.00131333
0.00126357
0.00124182
0.00118895
0.00123289
0.00151135
0.00143533
0.00136812
0.00131575
0.00126613
0.00124308
0.00119284
0.00122766
0.00150942
0.00143286
0.00136493
0.00131164
0.00126108
0.00123514
0.0011869
0.00120195
3.09956e-05
7.87509e-05
0.000148476
0.000235565
0.000339274
0.000454064
0.000575695
0.000723796
0.000184845
0.000208349
0.000252101
0.000314124
0.000389755
0.000483742
0.000571883
0.000709077
0.000377871
0.000386551
0.000413046
0.000457392
0.00051191
0.000588066
0.00064993
0.000772742
0.000536617
0.00053128
0.000542122
0.000570687
0.000607159
0.000668074
0.000708223
0.00082128
0.000687789
0.000670913
0.000668666
0.000683679
0.000704597
0.000751592
0.000773143
0.000875697
0.000822659
0.000796041
0.000782888
0.000786593
0.000794796
0.000830111
0.000836407
0.00092943
0.000945703
0.000910753
0.00088823
0.000882096
0.000879281
0.00090433
0.000897689
0.000982005
0.00105443
0.00101251
0.000982177
0.000967864
0.000955883
0.000972318
0.000954789
0.00103108
0.00114552
0.00109793
0.00106128
0.00104047
0.00102116
0.00103114
0.0010045
0.00107714
0.00121916
0.00116707
0.00112543
0.00109959
0.00107459
0.00107997
0.00104587
0.00111846
0.00128179
0.00122575
0.00117973
0.00114951
0.00111957
0.00112111
0.00108085
0.00115349
0.0013348
0.00127523
0.00122542
0.00119134
0.00115733
0.00115542
0.00111064
0.0011813
0.00137865
0.00131602
0.00126282
0.00122522
0.0011877
0.00118244
0.00113478
0.00120152
0.00141633
0.00135092
0.00129456
0.00125365
0.00121298
0.00120424
0.0011546
0.00121452
0.00144568
0.00137786
0.00131879
0.00127495
0.00123155
0.00121988
0.00116866
0.00122571
0.0014704
0.00140016
0.00133852
0.00129195
0.00124613
0.00123185
0.00117907
0.00123578
0.00148739
0.00141518
0.00135153
0.00130275
0.00125501
0.00123829
0.0011844
0.00124045
0.00150061
0.00142658
0.00136123
0.00131072
0.00126186
0.00124295
0.00118927
0.00124102
0.00150665
0.00143148
0.00136517
0.00131341
0.00126366
0.00124184
0.00118905
0.00123306
0.00151152
0.00143554
0.00136832
0.00131593
0.00126631
0.00124323
0.00119302
0.00122766
0.00150967
0.00143312
0.0013652
0.0013119
0.0012614
0.00123538
0.00118727
0.00120161
3.13474e-05
7.91251e-05
0.000148793
0.000235924
0.000339561
0.000454389
0.000575986
0.00072458
0.000184824
0.000208281
0.00025196
0.000313927
0.000389511
0.000483432
0.000571559
0.000709019
0.000377942
0.000386586
0.000413055
0.000457341
0.000511854
0.000587944
0.000649835
0.000772958
0.000536729
0.000531362
0.000542208
0.000570723
0.000607205
0.00066805
0.000708242
0.000821624
0.000687893
0.000670972
0.000668723
0.000683681
0.000704617
0.000751547
0.000773162
0.000876054
0.000822759
0.000796109
0.000782953
0.000786595
0.000794807
0.00083005
0.000836418
0.000929773
0.000945766
0.000910798
0.000888289
0.000882114
0.000879315
0.000904289
0.000897728
0.000982359
0.00105446
0.00101251
0.000982199
0.000967861
0.000955918
0.000972289
0.000954852
0.00103147
0.00114555
0.00109793
0.00106129
0.00104046
0.0010212
0.00103113
0.0010046
0.00107759
0.00121919
0.00116705
0.00112541
0.00109953
0.00107459
0.00107994
0.00104596
0.00111894
0.00128182
0.00122574
0.00117971
0.00114944
0.00111956
0.00112105
0.00108095
0.00115396
0.00133494
0.0012753
0.00122545
0.00119129
0.00115729
0.00115531
0.00111069
0.00118173
0.00137878
0.00131609
0.00126286
0.00122517
0.00118764
0.0011823
0.00113476
0.00120185
0.00141643
0.001351
0.00129465
0.00125366
0.00121299
0.00120416
0.00115463
0.00121484
0.00144574
0.00137793
0.00131889
0.00127499
0.0012316
0.00121983
0.00116871
0.00122605
0.00147048
0.00140027
0.00133866
0.00129205
0.00124625
0.00123186
0.00117918
0.00123618
0.00148746
0.00141529
0.00135168
0.00130285
0.00125512
0.0012383
0.00118453
0.00124087
0.00150073
0.00142674
0.00136141
0.00131084
0.00126198
0.00124298
0.00118943
0.00124142
0.0015068
0.00143165
0.00136535
0.00131354
0.00126381
0.00124193
0.00118925
0.0012334
0.00151168
0.00143576
0.00136851
0.00131606
0.00126642
0.00124331
0.00119316
0.00122756
0.00150984
0.00143328
0.00136536
0.00131203
0.00126158
0.00123543
0.00118752
0.00120078
3.19174e-05
7.97315e-05
0.000149353
0.000236544
0.000340123
0.000455001
0.000576577
0.000725788
0.00018492
0.000208329
0.000251927
0.000313831
0.000389356
0.000483206
0.000571292
0.000709198
0.000378083
0.000386695
0.000413142
0.000457366
0.000511872
0.000587896
0.000649809
0.000773417
0.000536926
0.000531534
0.000542389
0.000570858
0.00060736
0.000668129
0.000708372
0.000822237
0.000688065
0.000671104
0.000668856
0.000683759
0.000704721
0.000751581
0.000773275
0.000876658
0.000822922
0.000796251
0.000783103
0.000786682
0.000794909
0.000830065
0.000836521
0.000930345
0.000945872
0.000910889
0.000888405
0.000882194
0.000879428
0.000904312
0.000897854
0.00098293
0.00105453
0.00101255
0.000982259
0.000967899
0.000956016
0.000972314
0.000955
0.0010321
0.00114563
0.00109795
0.00106133
0.00104047
0.00102129
0.00103117
0.00100478
0.00107828
0.00121929
0.00116708
0.00112543
0.00109951
0.00107463
0.00107994
0.00104614
0.00111964
0.00128192
0.00122577
0.00117973
0.00114939
0.00111958
0.00112101
0.00108111
0.00115463
0.00133514
0.00127545
0.00122555
0.0011913
0.00115732
0.00115524
0.00111081
0.00118235
0.00137897
0.00131625
0.00126299
0.00122519
0.00118765
0.00118219
0.00113482
0.00120236
0.00141654
0.00135111
0.00129478
0.00125372
0.00121306
0.00120411
0.00115473
0.00121536
0.00144582
0.00137803
0.00131903
0.00127508
0.00123172
0.00121982
0.00116884
0.00122662
0.00147055
0.00140039
0.00133884
0.0012922
0.00124643
0.00123192
0.00117937
0.00123678
0.00148754
0.00141543
0.00135189
0.00130303
0.00125533
0.00123837
0.00118477
0.0012415
0.00150083
0.00142692
0.00136164
0.00131101
0.00126216
0.00124305
0.00118966
0.00124201
0.00150697
0.00143187
0.00136558
0.00131373
0.001264
0.00124205
0.00118953
0.00123389
0.00151182
0.00143597
0.00136869
0.00131612
0.00126645
0.00124325
0.00119324
0.00122726
0.00150989
0.00143331
0.00136539
0.00131198
0.00126158
0.00123525
0.00118762
0.00119929
3.26669e-05
8.05307e-05
0.000150127
0.000237397
0.000340951
0.000455898
0.000577482
0.000727448
0.000185118
0.000208486
0.000252001
0.000313835
0.000389297
0.000483073
0.000571087
0.00070968
0.000378271
0.000386854
0.000413284
0.00045745
0.000511955
0.000587917
0.000649845
0.00077416
0.000537192
0.000531781
0.000542655
0.000571084
0.00060762
0.000668315
0.000708615
0.000823162
0.000688282
0.000671291
0.000669053
0.000683901
0.000704905
0.000751688
0.000773478
0.000877542
0.000823129
0.00079645
0.000783327
0.000786851
0.000795108
0.000830163
0.000836724
0.00093118
0.000946011
0.000911015
0.000888565
0.000882326
0.00087962
0.000904403
0.000898074
0.000983748
0.00105465
0.00101262
0.000982353
0.000967969
0.000956175
0.000972392
0.000955237
0.001033
0.00114575
0.00109802
0.00106141
0.0010405
0.00102142
0.00103124
0.00100505
0.00107925
0.00121945
0.00116717
0.00112551
0.00109951
0.00107472
0.00107996
0.00104639
0.0011206
0.00128208
0.00122587
0.00117981
0.00114938
0.00111965
0.00112099
0.00108134
0.00115552
0.00133537
0.00127567
0.00122574
0.00119138
0.00115742
0.00115521
0.00111101
0.00118317
0.00137918
0.00131647
0.0012632
0.0012253
0.00118775
0.00118213
0.00113497
0.00120307
0.00141663
0.00135123
0.00129495
0.00125382
0.0012132
0.0012041
0.0011549
0.00121612
0.00144588
0.00137812
0.0013192
0.00127521
0.00123191
0.00121987
0.00116907
0.00122744
0.00147057
0.0014005
0.00133904
0.00129238
0.00124668
0.00123203
0.00117965
0.00123763
0.0014876
0.00141558
0.00135213
0.00130326
0.00125561
0.00123851
0.0011851
0.00124237
0.00150088
0.00142709
0.00136189
0.00131123
0.00126238
0.00124313
0.00118995
0.00124279
0.00150718
0.00143214
0.00136588
0.00131396
0.00126423
0.00124216
0.0011899
0.00123444
0.00151194
0.00143615
0.00136887
0.00131613
0.00126636
0.001243
0.00119324
0.00122667
0.00150979
0.00143317
0.00136522
0.00131172
0.00126137
0.00123477
0.00118748
0.001197
3.35434e-05
8.14638e-05
0.00015106
0.00023843
0.000342001
0.000457046
0.000578673
0.000729549
0.000185408
0.000208739
0.000252177
0.000313937
0.000389334
0.000483042
0.000570943
0.00071052
0.000378478
0.000387034
0.000413455
0.000457568
0.00051208
0.000587992
0.000649919
0.000775217
0.000537515
0.000532092
0.000542992
0.000571387
0.000607977
0.000668606
0.000708961
0.000824433
0.000688518
0.000671512
0.000669293
0.000684091
0.000705157
0.000751864
0.000773758
0.000878727
0.000823366
0.000796685
0.000783607
0.000787087
0.000795401
0.000830349
0.000837026
0.000932304
0.00094618
0.000911167
0.00088876
0.000882496
0.000879885
0.000904564
0.000898384
0.000984843
0.00105482
0.00101274
0.000982485
0.000968064
0.000956389
0.000972522
0.000955557
0.00103419
0.00114592
0.00109812
0.00106152
0.00104056
0.00102159
0.00103134
0.00100539
0.00108052
0.00121969
0.00116733
0.00112566
0.00109956
0.00107486
0.00108001
0.00104672
0.00112183
0.00128228
0.00122602
0.00117995
0.00114941
0.00111976
0.00112099
0.00108163
0.00115663
0.00133559
0.00127591
0.001226
0.00119153
0.00115762
0.00115524
0.0011113
0.00118422
0.00137936
0.0013167
0.00126347
0.00122549
0.00118797
0.00118215
0.00113523
0.00120402
0.00141667
0.00135132
0.00129513
0.00125396
0.00121341
0.00120413
0.00115517
0.00121717
0.00144589
0.00137819
0.00131938
0.00127536
0.00123216
0.00121996
0.00116938
0.00122856
0.00147052
0.00140055
0.00133922
0.00129256
0.00124698
0.00123217
0.00118003
0.00123875
0.0014876
0.0014157
0.00135237
0.00130352
0.00125597
0.0012387
0.00118555
0.00124345
0.0015009
0.00142724
0.00136214
0.00131146
0.00126264
0.00124321
0.0011903
0.00124368
0.00150742
0.00143243
0.00136621
0.00131421
0.00126448
0.00124223
0.00119031
0.00123491
0.00151205
0.0014363
0.00136905
0.00131611
0.0012662
0.00124251
0.00119315
0.00122568
0.00150952
0.00143281
0.00136482
0.00131117
0.00126086
0.00123392
0.00118706
0.0011938
3.44875e-05
8.24604e-05
0.000152081
0.000239562
0.000343197
0.000458374
0.000580081
0.000732027
0.000185785
0.000209083
0.000252453
0.000314139
0.000389475
0.000483125
0.000570858
0.000711765
0.000378683
0.000387209
0.000413623
0.000457691
0.000512221
0.000588102
0.000649999
0.000776594
0.000537885
0.000532456
0.000543389
0.000571755
0.000608419
0.000668997
0.000709391
0.000826068
0.000688759
0.000671746
0.000669559
0.000684311
0.000705462
0.0007521
0.000774095
0.000880225
0.000823624
0.000796943
0.000783922
0.000787372
0.000795777
0.000830622
0.000837419
0.000933737
0.000946381
0.000911344
0.000888983
0.000882692
0.000880213
0.000904796
0.000898779
0.00098624
0.00105503
0.0010129
0.000982663
0.000968187
0.000956656
0.000972706
0.00095595
0.00103572
0.00114614
0.00109828
0.00106167
0.00104064
0.0010218
0.00103148
0.00100578
0.00108212
0.00121996
0.00116755
0.00112587
0.00109967
0.00107507
0.00108011
0.0010471
0.00112334
0.0012825
0.00122621
0.00118017
0.00114951
0.00111996
0.00112104
0.00108199
0.00115798
0.00133574
0.00127613
0.00122629
0.00119173
0.00115793
0.00115534
0.0011117
0.00118551
0.00137947
0.0013169
0.00126377
0.00122573
0.00118832
0.00118227
0.00113563
0.00120523
0.00141664
0.00135136
0.00129528
0.00125409
0.00121368
0.00120423
0.00115553
0.00121855
0.00144585
0.0013782
0.00131951
0.0012755
0.00123247
0.0012201
0.00116979
0.00123002
0.00147041
0.00140052
0.00133935
0.00129271
0.0012473
0.00123235
0.00118049
0.00124016
0.00148759
0.00141579
0.00135259
0.00130376
0.00125636
0.00123891
0.00118609
0.00124472
0.00150096
0.00142736
0.00136237
0.00131166
0.0012629
0.00124324
0.00119069
0.00124458
0.00150777
0.00143272
0.00136654
0.00131445
0.00126475
0.0012422
0.00119072
0.00123508
0.00151221
0.00143637
0.0013692
0.00131605
0.001266
0.00124178
0.0011929
0.00122419
0.00150909
0.00143221
0.00136414
0.00131029
0.00126003
0.00123262
0.00118627
0.00118962
3.54449e-05
8.34505e-05
0.000153107
0.0002407
0.000344437
0.000459777
0.000581599
0.000734765
0.000186257
0.000209523
0.000252839
0.000314451
0.000389732
0.000483347
0.000570842
0.000713445
0.000378875
0.000387361
0.000413766
0.000457792
0.00051235
0.000588229
0.000650045
0.000778276
0.000538298
0.00053287
0.000543841
0.000572182
0.000608933
0.000669485
0.000709882
0.00082807
0.000688998
0.000671982
0.00066984
0.000684552
0.000705809
0.000752393
0.000774465
0.000882036
0.000823908
0.00079722
0.00078426
0.000787686
0.00079622
0.000830979
0.000837886
0.000935487
0.000946615
0.00091155
0.000889236
0.000882909
0.000880595
0.000905099
0.000899246
0.00098796
0.00105531
0.00101313
0.000982902
0.000968349
0.000956979
0.000972951
0.000956405
0.0010376
0.00114639
0.00109849
0.00106189
0.00104077
0.00102208
0.00103166
0.00100621
0.00108408
0.00122026
0.00116781
0.00112615
0.00109985
0.00107537
0.00108027
0.00104755
0.00112515
0.00128272
0.00122642
0.00118043
0.00114968
0.00112026
0.00112117
0.00108243
0.00115959
0.00133582
0.00127627
0.00122656
0.00119195
0.00115831
0.00115553
0.00111221
0.00118704
0.00137951
0.00131701
0.00126402
0.00122598
0.00118877
0.00118249
0.00113616
0.00120674
0.00141655
0.00135131
0.00129537
0.00125419
0.001214
0.00120438
0.001156
0.00122028
0.00144578
0.00137816
0.0013196
0.0012756
0.00123278
0.00122028
0.00117029
0.00123182
0.0014703
0.00140044
0.00133941
0.00129279
0.00124761
0.00123251
0.00118102
0.00124181
0.00148767
0.00141587
0.00135277
0.00130395
0.00125675
0.0012391
0.00118669
0.00124606
0.00150121
0.00142753
0.00136257
0.0013118
0.00126313
0.00124316
0.00119107
0.00124531
0.00150832
0.00143303
0.0013668
0.00131461
0.00126498
0.00124201
0.00119108
0.00123472
0.00151253
0.00143636
0.00136922
0.00131591
0.00126576
0.00124081
0.00119246
0.00122206
0.00150857
0.0014314
0.00136318
0.00130906
0.00125881
0.00123082
0.00118506
0.00118446
3.6375e-05
8.43761e-05
0.000154057
0.000241748
0.000345605
0.000461131
0.00058309
0.000737602
0.000186847
0.000210078
0.000253351
0.000314897
0.00039013
0.000483741
0.00057092
0.000715572
0.000379054
0.000387487
0.000413872
0.000457856
0.00051245
0.00058836
0.000650024
0.000780229
0.000538761
0.000533336
0.000544348
0.000572665
0.000609514
0.000670071
0.000710411
0.000830422
0.000689245
0.000672222
0.000670131
0.000684808
0.000706192
0.000752747
0.000774846
0.00088415
0.00082423
0.000797524
0.000784621
0.00078802
0.000796713
0.000831415
0.000838402
0.00093755
0.000946889
0.000911793
0.000889526
0.000883152
0.000881024
0.000905474
0.000899766
0.000990014
0.00105563
0.00101341
0.000983211
0.000968568
0.000957367
0.000973271
0.000956909
0.00103985
0.00114667
0.00109875
0.00106218
0.00104096
0.00102244
0.00103192
0.00100668
0.0010864
0.00122055
0.00116809
0.00112648
0.00110009
0.00107577
0.00108052
0.00104806
0.00112726
0.00128292
0.00122663
0.00118073
0.00114991
0.00112066
0.00112139
0.00108297
0.00116145
0.00133586
0.00127633
0.00122676
0.00119215
0.00115875
0.0011558
0.00111284
0.00118882
0.00137951
0.00131702
0.00126418
0.00122616
0.00118924
0.0011828
0.00113683
0.00120854
0.00141646
0.0013512
0.00129538
0.00125421
0.00121431
0.00120457
0.00115655
0.00122237
0.00144577
0.0013781
0.00131962
0.00127562
0.00123308
0.00122046
0.00117084
0.00123391
0.00147032
0.00140039
0.00133943
0.00129278
0.00124785
0.00123261
0.00118157
0.00124358
0.00148803
0.00141607
0.00135296
0.00130405
0.00125707
0.00123918
0.0011873
0.00124729
0.00150188
0.00142788
0.0013628
0.00131186
0.00126329
0.0012429
0.00119141
0.00124563
0.00150928
0.00143348
0.001367
0.00131459
0.00126509
0.00124159
0.00119134
0.00123364
0.00151315
0.00143635
0.00136903
0.00131556
0.00126543
0.00123961
0.00119178
0.00121921
0.00150805
0.00143041
0.00136196
0.00130748
0.00125721
0.00122848
0.00118338
0.00117839
3.7258e-05
8.52002e-05
0.000154867
0.000242619
0.000346586
0.000462308
0.000584406
0.000740357
0.000187586
0.000210773
0.000254013
0.000315502
0.000390698
0.000484345
0.00057113
0.00071813
0.00037924
0.000387597
0.000413948
0.000457882
0.000512511
0.000588494
0.000649912
0.000782398
0.000539288
0.00053386
0.00054491
0.000573207
0.000610157
0.000670754
0.000710954
0.000833085
0.000689522
0.000672476
0.000670437
0.000685083
0.000706607
0.00075317
0.000775222
0.000886544
0.000824607
0.000797869
0.000785015
0.000788378
0.000797245
0.000831926
0.000838937
0.000939906
0.000947207
0.000912082
0.000889864
0.000883434
0.000881499
0.000905923
0.000900311
0.000992395
0.001056
0.00101375
0.000983594
0.00096886
0.000957835
0.000973685
0.000957446
0.00104246
0.00114698
0.00109904
0.00106254
0.00104122
0.00102288
0.00103229
0.00100719
0.00108907
0.00122084
0.00116838
0.00112685
0.00110037
0.00107627
0.00108088
0.00104863
0.00112967
0.00128313
0.00122681
0.00118101
0.00115015
0.00112115
0.00112172
0.0010836
0.00116358
0.00133592
0.00127633
0.00122688
0.00119227
0.0011592
0.00115611
0.00111355
0.00119083
0.00137957
0.00131699
0.00126425
0.00122623
0.00118967
0.00118313
0.00113758
0.0012106
0.00141646
0.0013511
0.00129533
0.00125413
0.00121456
0.00120474
0.00115714
0.00122472
0.00144595
0.00137813
0.00131965
0.00127557
0.00123332
0.00122058
0.00117141
0.00123616
0.00147065
0.00140052
0.00133949
0.00129271
0.00124802
0.00123258
0.00118208
0.00124527
0.00148887
0.00141657
0.00135326
0.0013041
0.0012573
0.00123909
0.00118785
0.00124818
0.00150319
0.00142862
0.00136316
0.00131184
0.00126335
0.0012424
0.00119163
0.0012453
0.00151079
0.00143426
0.00136721
0.00131433
0.00126495
0.00124086
0.00119143
0.00123175
0.00151417
0.00143648
0.00136863
0.00131485
0.00126486
0.00123815
0.00119083
0.00121564
0.00150772
0.00142936
0.00136053
0.00130556
0.00125521
0.00122557
0.00118116
0.00117151
3.80969e-05
8.59128e-05
0.000155499
0.000243252
0.000347285
0.000463191
0.000585409
0.000742874
0.000188506
0.00021164
0.000254846
0.000316291
0.000391459
0.000485188
0.000571511
0.000721076
0.00037946
0.000387718
0.000414013
0.000457884
0.000512538
0.000588635
0.000649703
0.000784725
0.000539901
0.000534456
0.000545536
0.00057381
0.000610858
0.000671537
0.000711491
0.000836006
0.000689857
0.000672771
0.000670773
0.00068539
0.000707058
0.000753671
0.000775577
0.000889185
0.000825056
0.000798274
0.000785457
0.000788772
0.000797814
0.000832512
0.000839462
0.00094253
0.00094758
0.000912426
0.000890261
0.00088377
0.000882027
0.000906456
0.000900855
0.000995075
0.00105641
0.00101413
0.000984042
0.000969231
0.00095839
0.000974214
0.000958006
0.00104539
0.00114732
0.00109936
0.00106294
0.00104155
0.00102342
0.00103279
0.00100775
0.00109205
0.00122115
0.00116866
0.00112722
0.00110069
0.00107683
0.00108136
0.00104926
0.00113231
0.00128338
0.00122699
0.00118127
0.00115037
0.00112168
0.00112214
0.0010843
0.0011659
0.00133608
0.00127634
0.00122694
0.00119229
0.00115958
0.00115642
0.00111428
0.00119298
0.00137979
0.00131701
0.00126427
0.00122619
0.00119
0.0011834
0.00113833
0.00121281
0.00141668
0.00135112
0.00129529
0.00125398
0.00121472
0.00120483
0.00115772
0.00122716
0.00144644
0.00137838
0.00131978
0.00127549
0.00123348
0.00122059
0.00117194
0.00123834
0.00147143
0.00140098
0.00133974
0.00129264
0.00124811
0.00123238
0.00118249
0.00124662
0.00149031
0.00141754
0.00135383
0.00130417
0.00125744
0.00123876
0.00118825
0.00124845
0.00150516
0.00142994
0.00136384
0.00131182
0.00126329
0.00124161
0.00119165
0.00124415
0.00151282
0.00143554
0.00136762
0.00131391
0.00126449
0.00123967
0.00119124
0.00122908
0.00151549
0.00143689
0.00136815
0.00131371
0.00126384
0.00123631
0.00118958
0.0012115
0.00150774
0.00142839
0.00135893
0.00130335
0.00125286
0.00122214
0.00117838
0.001164
3.8917e-05
8.65344e-05
0.000155956
0.000243623
0.000347642
0.0004637
0.000586001
0.000745059
0.000189633
0.000212704
0.000255871
0.00031728
0.000392428
0.00048628
0.000572092
0.000724345
0.000379755
0.000387887
0.000414102
0.000457893
0.000512552
0.000588798
0.000649408
0.000787161
0.000540621
0.000535142
0.000546236
0.000574481
0.000611613
0.000672414
0.000712005
0.000839124
0.000690279
0.00067314
0.000671165
0.00068575
0.000707554
0.000754263
0.000775905
0.00089204
0.000825591
0.000798756
0.000785964
0.000789223
0.000798424
0.000833178
0.000839955
0.000945388
0.000948022
0.000912836
0.000890723
0.000884176
0.000882616
0.000907083
0.000901379
0.000998011
0.00105687
0.00101457
0.000984544
0.000969677
0.00095903
0.00097487
0.000958581
0.00104857
0.00114771
0.00109971
0.00106337
0.00104194
0.00102404
0.00103341
0.00100834
0.00109526
0.00122152
0.00116896
0.00112758
0.001101
0.00107742
0.00108192
0.00104992
0.00113511
0.00128374
0.00122722
0.00118151
0.00115055
0.00112218
0.00112258
0.00108502
0.00116832
0.00133642
0.00127646
0.001227
0.00119224
0.00115987
0.00115665
0.00111496
0.00119513
0.00138023
0.0013172
0.00126434
0.00122609
0.00119021
0.00118353
0.00113898
0.00121496
0.0014172
0.00135137
0.00129539
0.00125382
0.00121481
0.00120478
0.00115821
0.00122943
0.00144731
0.00137896
0.00132014
0.00127549
0.00123362
0.00122046
0.00117237
0.00124015
0.00147268
0.0014019
0.00134033
0.00129271
0.00124819
0.00123199
0.00118277
0.00124733
0.00149224
0.00141904
0.00135482
0.0013044
0.00125756
0.00123816
0.00118846
0.00124788
0.00150752
0.00143179
0.00136494
0.00131194
0.00126315
0.0012405
0.00119139
0.0012421
0.00151503
0.00143721
0.00136839
0.00131349
0.00126372
0.00123795
0.0011906
0.00122578
0.00151681
0.00143753
0.00136773
0.00131222
0.00126221
0.00123386
0.0011879
0.00120704
0.00150832
0.00142773
0.00135729
0.00130086
0.00125016
0.00121824
0.00117503
0.00115605
3.97619e-05
8.71136e-05
0.000156278
0.000243762
0.000347657
0.000463809
0.000586143
0.00074692
0.000190981
0.000213981
0.000257098
0.000318474
0.000393602
0.000487609
0.000572878
0.000727869
0.000380166
0.000388154
0.000414264
0.000457958
0.000512592
0.000589009
0.000649055
0.000789679
0.000541466
0.000535936
0.000547024
0.00057523
0.000612422
0.00067338
0.000712487
0.000842387
0.000690815
0.000673614
0.000671645
0.00068619
0.000708109
0.000754956
0.000776208
0.000895078
0.000826219
0.000799329
0.000786552
0.00078975
0.000799086
0.000833932
0.000840404
0.000948449
0.000948547
0.000913322
0.000891255
0.000884661
0.00088327
0.000907814
0.000901877
0.00100114
0.0010574
0.00101505
0.000985088
0.000970183
0.000959734
0.000975642
0.000959169
0.0010519
0.00114818
0.00110011
0.00106382
0.00104235
0.00102469
0.00103414
0.00100897
0.00109855
0.00122201
0.00116932
0.00112796
0.00110131
0.00107799
0.00108251
0.00105057
0.00113792
0.00128426
0.00122755
0.00118179