/*--------------------------------*- C++ -*----------------------------------*\
  =========                 |
  \\      /  F ield         | OpenFOAM: The Open Source CFD Toolbox
   \\    /   O peration     | Website:  https://openfoam.org
    \\  /    A nd           | Version:  6
     \\/     M anipulation  |
\*---------------------------------------------------------------------------*/
FoamFile
{
    version     2.0;
    format      ascii;
    class       volScalarField;
    location    "37";
    object      p;
}
// * * * * * * * * * * * * * * * * * * * * * * * * * * * * * * * * * * * * * //

dimensions      [0 2 -2 0 0 0 0];

internalField   nonuniform List<scalar> 
380496
(
0.014277
0.0147509
0.0143511
0.0142504
0.0141391
0.0140247
0.0139164
0.0138078
0.0136996
0.0135925
0.0134864
0.0133817
0.0132785
0.0131767
0.0130762
0.0129768
0.0128784
0.0127805
0.0126827
0.0125847
0.0124857
0.0123854
0.012283
0.0121778
0.0120694
0.0119568
0.0118396
0.0117167
0.0115881
0.0114523
0.0113111
0.0111601
0.0110094
0.0108402
0.0107006
0.0142527
0.0147193
0.0143316
0.0142352
0.0141271
0.0140144
0.0139062
0.0137966
0.0136867
0.013577
0.0134677
0.0133593
0.0132517
0.013145
0.0130392
0.012934
0.0128291
0.0127243
0.0126192
0.0125132
0.0124061
0.012297
0.0121857
0.0120714
0.0119536
0.0118315
0.011705
0.0115727
0.0114351
0.0112899
0.0111401
0.0109777
0.0108179
0.0106243
0.0104742
0.0142249
0.0146868
0.0143102
0.0142187
0.0141136
0.0140021
0.0138934
0.0137822
0.0136696
0.0135566
0.0134433
0.0133302
0.0132174
0.0131049
0.0129927
0.0128806
0.0127683
0.0126554
0.0125416
0.0124264
0.0123094
0.0121901
0.012068
0.0119423
0.011813
0.011679
0.0115403
0.0113958
0.0112462
0.0110891
0.0109284
0.0107552
0.0105888
0.0103869
0.0102401
0.0141893
0.0146513
0.0142886
0.0142035
0.0141025
0.013993
0.0138843
0.0137719
0.0136573
0.0135413
0.0134247
0.0133076
0.0131904
0.0130731
0.0129556
0.0128377
0.0127191
0.0125995
0.0124787
0.012356
0.0122312
0.0121038
0.0119733
0.0118392
0.0117012
0.0115585
0.0114113
0.0112584
0.0111007
0.0109355
0.0107675
0.010586
0.0104127
0.0102001
0.0100476
0.0141569
0.0146135
0.0142672
0.0141892
0.0140923
0.0139844
0.0138754
0.0137614
0.0136442
0.0135251
0.0134046
0.0132833
0.0131614
0.0130389
0.0129157
0.0127918
0.0126667
0.0125402
0.0124121
0.0122817
0.0121489
0.012013
0.011874
0.011731
0.0115841
0.0114325
0.0112763
0.0111146
0.0109484
0.010775
0.0105995
0.0104109
0.0102325
0.0100143
0.00986122
0.0141112
0.0145731
0.0142457
0.0141763
0.0140843
0.0139784
0.0138692
0.0137537
0.0136341
0.013512
0.0133881
0.0132629
0.0131367
0.0130096
0.0128815
0.0127521
0.0126214
0.0124889
0.0123543
0.0122173
0.0120776
0.0119347
0.0117885
0.0116383
0.0114841
0.0113253
0.0111621
0.0109936
0.010821
0.0106414
0.0104603
0.0102662
0.0100834
0.00985977
0.00970413
0.014063
0.0145307
0.0142248
0.0141652
0.0140785
0.0139743
0.0138646
0.0137473
0.013625
0.0134997
0.0133722
0.0132431
0.0131126
0.0129809
0.0128478
0.0127132
0.0125769
0.0124385
0.0122978
0.0121545
0.0120082
0.0118586
0.0117054
0.0115483
0.0113872
0.0112216
0.0110519
0.010877
0.0106983
0.0105131
0.0103271
0.0101283
0.00994214
0.00971491
0.00955887
0.0140046
0.0144874
0.0142059
0.0141571
0.014076
0.0139731
0.0138625
0.0137432
0.0136183
0.0134899
0.0133589
0.0132261
0.0130916
0.0129557
0.0128182
0.0126789
0.0125376
0.012394
0.0122479
0.012099
0.0119469
0.0117915
0.0116324
0.0114695
0.0113026
0.0111314
0.0109563
0.0107763
0.0105929
0.0104033
0.0102134
0.010011
0.00982244
0.00959213
0.00943576
0.0139348
0.0144443
0.0141886
0.0141521
0.0140766
0.0139747
0.013863
0.0137415
0.0136138
0.0134823
0.013348
0.0132118
0.0130737
0.012934
0.0127924
0.012649
0.0125033
0.0123552
0.0122044
0.0120506
0.0118936
0.0117332
0.0115691
0.0114012
0.0112295
0.0110536
0.0108739
0.0106897
0.0105024
0.0103093
0.0101164
0.00991119
0.00972098
0.00948834
0.00933241
0.0138649
0.0144092
0.0141771
0.0141517
0.0140807
0.0139787
0.0138653
0.0137415
0.0136111
0.0134768
0.0133397
0.0132005
0.0130593
0.0129164
0.0127716
0.0126247
0.0124754
0.0123236
0.0121689
0.0120112
0.0118502
0.0116858
0.0115177
0.0113459
0.0111703
0.0109908
0.0108077
0.0106203
0.0104301
0.0102344
0.0100394
0.00983218
0.00964099
0.00940646
0.00925131
0.0137731
0.0143741
0.0141663
0.014154
0.0140875
0.0139849
0.0138697
0.0137433
0.0136102
0.0134731
0.0133332
0.0131912
0.0130472
0.0129014
0.0127535
0.0126035
0.012451
0.0122959
0.0121379
0.0119768
0.0118123
0.0116444
0.0114729
0.0112978
0.011119
0.0109363
0.0107503
0.0105602
0.0103677
0.0101699
0.00997331
0.00976453
0.00957284
0.00933674
0.00918302
0.0136797
0.0143503
0.0141619
0.0141615
0.0140977
0.0139931
0.0138754
0.0137462
0.0136103
0.0134706
0.0133281
0.0131836
0.0130371
0.0128887
0.0127383
0.0125856
0.0124304
0.0122725
0.0121116
0.0119476
0.0117802
0.0116094
0.0114351
0.0112571
0.0110756
0.0108905
0.0107022
0.01051
0.0103157
0.0101163
0.00991854
0.00970859
0.00951676
0.00927927
0.00912737
0.0135556
0.0143309
0.0141591
0.0141724
0.0141109
0.0140036
0.0138829
0.0137507
0.0136119
0.0134695
0.0133246
0.0131777
0.013029
0.0128784
0.0127256
0.0125706
0.012413
0.0122527
0.0120894
0.0119229
0.0117531
0.0115798
0.0114031
0.0112228
0.0110391
0.0108519
0.0106617
0.0104679
0.0102721
0.0100715
0.00987298
0.00966225
0.00947064
0.00923213
0.00908263
0.0134257
0.0143276
0.0141627
0.0141881
0.0141261
0.0140148
0.0138908
0.0137554
0.0136138
0.0134691
0.013322
0.0131731
0.0130223
0.0128698
0.0127151
0.0125582
0.0123986
0.0122363
0.0120709
0.0119024
0.0117305
0.0115553
0.0113765
0.0111944
0.0110089
0.0108201
0.0106284
0.0104333
0.0102365
0.010035
0.00983594
0.00962471
0.00943334
0.00919397
0.00904671
0.0132634
0.0143365
0.0141699
0.0142086
0.0141449
0.0140285
0.0139004
0.0137615
0.0136171
0.0134699
0.0133208
0.01317
0.0130175
0.0128633
0.012707
0.0125484
0.0123871
0.0122232
0.0120561
0.0118859
0.0117124
0.0115355
0.0113552
0.0111715
0.0109846
0.0107945
0.0106016
0.0104056
0.010208
0.010006
0.00980663
0.00959536
0.00940444
0.00916532
0.0090205
0.0130826
0.0143654
0.0141815
0.0142312
0.014163
0.0140408
0.0139089
0.0137668
0.0136199
0.0134707
0.0133199
0.0131675
0.0130137
0.0128581
0.0127004
0.0125405
0.012378
0.0122127
0.0120443
0.0118728
0.0116979
0.0115197
0.0113382
0.0111534
0.0109654
0.0107743
0.0105806
0.0103838
0.0101856
0.00998335
0.00978376
0.00957262
0.00938145
0.00914264
0.00899735
0.0128793
0.0144143
0.0141997
0.014261
0.0141855
0.0140561
0.0139195
0.0137738
0.0136243
0.0134731
0.0133207
0.0131669
0.0130119
0.0128551
0.0126964
0.0125354
0.0123718
0.0122054
0.012036
0.0118634
0.0116876
0.0115084
0.011326
0.0111403
0.0109515
0.0107596
0.0105653
0.0103681
0.0101696
0.00996721
0.00976766
0.0095573
0.00936643
0.00913075
0.00898559
0.0126395
0.014486
0.0142171
0.0142869
0.014203
0.0140675
0.0139273
0.013779
0.0136276
0.0134749
0.0133213
0.0131666
0.0130106
0.012853
0.0126936
0.0125317
0.0123674
0.0122003
0.0120302
0.0118568
0.0116803
0.0115004
0.0113173
0.0111309
0.0109416
0.0107492
0.0105545
0.0103569
0.0101583
0.00995589
0.00975622
0.00954658
0.00935401
0.00912027
0.00896478
0.0123954
0.014574
0.0142454
0.0143235
0.0142277
0.0140844
0.0139394
0.0137878
0.0136341
0.0134798
0.0133249
0.0131692
0.0130124
0.012854
0.0126939
0.0125314
0.0123665
0.0121987
0.0120281
0.0118541
0.0116772
0.0114967
0.0113132
0.0111264
0.0109368
0.010744
0.0105492
0.0103513
0.0101527
0.00995049
0.00975121
0.00954294
0.00935163
0.00912508
0.00897136
0.0121295
0.0146772
0.0142686
0.0143523
0.0142454
0.0140966
0.0139484
0.0137945
0.0136394
0.013484
0.0133282
0.0131718
0.0130144
0.0128555
0.0126949
0.012532
0.0123667
0.0121985
0.0120276
0.0118533
0.011676
0.0114953
0.0113116
0.0111244
0.0109347
0.0107417
0.0105468
0.0103488
0.0101503
0.00994814
0.00974884
0.00954158
0.00934718
0.009124
0.00893829
0.0118786
0.0147851
0.0143147
0.0143963
0.0142745
0.0141172
0.0139637
0.0138061
0.0136484
0.0134913
0.0133343
0.0131769
0.0130187
0.0128593
0.0126982
0.012535
0.0123695
0.012201
0.0120299
0.0118554
0.0116781
0.0114972
0.0113135
0.0111263
0.0109365
0.0107435
0.0105487
0.0103507
0.0101524
0.00995039
0.00975175
0.00954534
0.00935611
0.00914016
0.00900157
0.0142802
0.0147438
0.0143511
0.0142508
0.0141392
0.0140248
0.0139164
0.0138078
0.0136996
0.0135925
0.0134864
0.0133817
0.0132785
0.0131766
0.0130762
0.0129768
0.0128784
0.0127805
0.0126827
0.0125847
0.0124857
0.0123854
0.012283
0.0121779
0.0120694
0.0119568
0.0118396
0.0117167
0.0115882
0.0114524
0.0113111
0.0111602
0.0110095
0.0108403
0.0107007
0.0142556
0.0147123
0.0143316
0.0142356
0.0141272
0.0140144
0.0139062
0.0137966
0.0136867
0.013577
0.0134677
0.0133593
0.0132517
0.013145
0.0130392
0.012934
0.0128291
0.0127243
0.0126192
0.0125133
0.0124061
0.0122971
0.0121858
0.0120714
0.0119537
0.0118316
0.011705
0.0115728
0.0114352
0.01129
0.0111402
0.0109778
0.010818
0.0106244
0.0104743
0.0142277
0.0146799
0.0143103
0.014219
0.0141137
0.0140022
0.0138934
0.0137822
0.0136696
0.0135565
0.0134433
0.0133302
0.0132174
0.0131049
0.0129927
0.0128806
0.0127683
0.0126554
0.0125416
0.0124264
0.0123095
0.0121901
0.012068
0.0119424
0.011813
0.011679
0.0115403
0.0113958
0.0112462
0.0110891
0.0109285
0.0107553
0.0105889
0.010387
0.0102402
0.0141922
0.0146445
0.0142887
0.0142039
0.0141026
0.013993
0.0138843
0.0137719
0.0136573
0.0135413
0.0134247
0.0133076
0.0131904
0.0130731
0.0129556
0.0128377
0.0127191
0.0125995
0.0124787
0.012356
0.0122313
0.0121038
0.0119733
0.0118392
0.0117012
0.0115586
0.0114114
0.0112585
0.0111008
0.0109356
0.0107676
0.0105861
0.0104128
0.0102003
0.0100477
0.0141594
0.0146069
0.0142673
0.0141895
0.0140924
0.0139845
0.0138754
0.0137614
0.0136442
0.0135251
0.0134046
0.0132833
0.0131614
0.0130389
0.0129157
0.0127918
0.0126667
0.0125403
0.0124121
0.0122817
0.0121489
0.0120131
0.011874
0.0117311
0.0115841
0.0114325
0.0112764
0.0111147
0.0109485
0.0107751
0.0105996
0.010411
0.0102326
0.0100144
0.00986131
0.0141138
0.0145667
0.0142457
0.0141766
0.0140844
0.0139784
0.0138692
0.0137537
0.0136341
0.013512
0.0133881
0.0132629
0.0131367
0.0130096
0.0128815
0.0127521
0.0126214
0.0124889
0.0123544
0.0122174
0.0120777
0.0119348
0.0117885
0.0116383
0.0114841
0.0113253
0.0111622
0.0109937
0.0108211
0.0106415
0.0104604
0.0102663
0.0100835
0.00985991
0.00970423
0.0140653
0.0145245
0.0142249
0.0141655
0.0140786
0.0139744
0.0138646
0.0137473
0.013625
0.0134997
0.0133722
0.0132431
0.0131126
0.0129809
0.0128478
0.0127132
0.0125769
0.0124385
0.0122979
0.0121545
0.0120082
0.0118586
0.0117055
0.0115484
0.0113873
0.0112217
0.0110519
0.0108771
0.0106984
0.0105132
0.0103272
0.0101284
0.00994226
0.00971505
0.00955896
0.0140067
0.0144814
0.0142059
0.0141574
0.0140761
0.0139732
0.0138625
0.0137432
0.0136183
0.0134899
0.0133589
0.0132261
0.0130916
0.0129557
0.0128182
0.0126789
0.0125376
0.012394
0.0122479
0.012099
0.011947
0.0117915
0.0116325
0.0114695
0.0113027
0.0111315
0.0109563
0.0107764
0.010593
0.0104034
0.0102135
0.0100111
0.00982257
0.00959227
0.00943586
0.0139369
0.0144384
0.0141887
0.0141523
0.0140767
0.0139747
0.013863
0.0137415
0.0136138
0.0134823
0.013348
0.0132118
0.0130737
0.012934
0.0127924
0.012649
0.0125033
0.0123552
0.0122044
0.0120506
0.0118937
0.0117332
0.0115692
0.0114013
0.0112295
0.0110537
0.010874
0.0106898
0.0105025
0.0103094
0.0101165
0.00991131
0.00972111
0.00948849
0.0093325
0.0138668
0.0144035
0.0141771
0.014152
0.0140808
0.0139787
0.0138653
0.0137415
0.0136111
0.0134768
0.0133397
0.0132005
0.0130593
0.0129164
0.0127716
0.0126247
0.0124754
0.0123236
0.0121689
0.0120112
0.0118503
0.0116858
0.0115178
0.011346
0.0111704
0.0109909
0.0108077
0.0106203
0.0104302
0.0102345
0.0100395
0.0098323
0.00964112
0.00940661
0.0092514
0.0137749
0.0143686
0.0141664
0.0141543
0.0140876
0.0139849
0.0138697
0.0137433
0.0136102
0.0134731
0.0133332
0.0131912
0.0130472
0.0129014
0.0127535
0.0126035
0.0124511
0.012296
0.0121379
0.0119768
0.0118124
0.0116445
0.011473
0.0112978
0.011119
0.0109364
0.0107504
0.0105603
0.0103678
0.01017
0.00997342
0.00976465
0.00957296
0.00933689
0.0091831
0.0136812
0.0143451
0.014162
0.0141617
0.0140978
0.0139931
0.0138754
0.0137462
0.0136103
0.0134706
0.0133281
0.0131836
0.0130371
0.0128887
0.0127383
0.0125856
0.0124304
0.0122725
0.0121116
0.0119476
0.0117803
0.0116095
0.0114351
0.0112572
0.0110757
0.0108906
0.0107022
0.0105101
0.0103158
0.0101164
0.00991865
0.00970872
0.00951689
0.00927942
0.00912745
0.0135571
0.0143259
0.0141592
0.0141726
0.0141109
0.0140036
0.0138829
0.0137506
0.0136119
0.0134695
0.0133246
0.0131777
0.013029
0.0128784
0.0127256
0.0125706
0.0124131
0.0122528
0.0120894
0.011923
0.0117531
0.0115799
0.0114031
0.0112229
0.0110392
0.010852
0.0106618
0.010468
0.0102722
0.0100716
0.0098731
0.00966238
0.00947077
0.00923229
0.00908271
0.0134269
0.0143228
0.0141627
0.0141882
0.0141262
0.0140148
0.0138907
0.0137553
0.0136138
0.013469
0.013322
0.013173
0.0130223
0.0128698
0.0127151
0.0125582
0.0123986
0.0122363
0.0120709
0.0119024
0.0117305
0.0115553
0.0113766
0.0111945
0.011009
0.0108202
0.0106285
0.0104334
0.0102366
0.0100351
0.00983606
0.00962485
0.00943347
0.00919414
0.00904678
0.0132646
0.0143321
0.0141699
0.0142087
0.0141449
0.0140284
0.0139004
0.0137615
0.0136171
0.0134699
0.0133208
0.01317
0.0130175
0.0128633
0.012707
0.0125484
0.0123872
0.0122232
0.0120561
0.0118859
0.0117124
0.0115355
0.0113552
0.0111716
0.0109847
0.0107946
0.0106017
0.0104057
0.0102081
0.0100061
0.00980677
0.00959551
0.00940459
0.0091655
0.00902058
0.0130836
0.0143613
0.0141814
0.0142313
0.014163
0.0140408
0.0139088
0.0137667
0.0136198
0.0134707
0.0133198
0.0131675
0.0130137
0.0128581
0.0127004
0.0125405
0.012378
0.0122127
0.0120443
0.0118728
0.011698
0.0115198
0.0113383
0.0111535
0.0109655
0.0107744
0.0105807
0.0103839
0.0101858
0.00998349
0.00978391
0.00957278
0.00938162
0.00914285
0.00899743
0.0128799
0.0144106
0.0141995
0.014261
0.0141854
0.014056
0.0139194
0.0137737
0.0136242
0.0134731
0.0133207
0.013167
0.0130119
0.0128551
0.0126964
0.0125354
0.0123719
0.0122055
0.0120361
0.0118635
0.0116877
0.0115085
0.0113261
0.0111404
0.0109516
0.0107598
0.0105655
0.0103682
0.0101698
0.00996738
0.00976785
0.00955749
0.00936663
0.00913099
0.00898572
0.0126402
0.0144827
0.0142169
0.0142869
0.0142029
0.0140674
0.0139273
0.013779
0.0136276
0.013475
0.0133214
0.0131667
0.0130107
0.0128531
0.0126937
0.0125319
0.0123676
0.0122004
0.0120303
0.0118569
0.0116804
0.0115005
0.0113174
0.011131
0.0109417
0.0107494
0.0105547
0.0103571
0.0101584
0.00995608
0.00975642
0.00954678
0.00935422
0.00912051
0.00896491
0.0123944
0.0145714
0.0142451
0.0143235
0.0142277
0.0140845
0.0139396
0.0137879
0.0136343
0.01348
0.0133251
0.0131694
0.0130125
0.0128542
0.012694
0.0125315
0.0123666
0.0121989
0.0120282
0.0118543
0.0116773
0.0114969
0.0113134
0.0111265
0.0109369
0.0107442
0.0105493
0.0103515
0.0101529
0.00995066
0.0097514
0.00954312
0.00935183
0.0091253
0.00897157
0.0121267
0.0146762
0.0142687
0.0143527
0.0142457
0.0140969
0.0139487
0.0137947
0.0136395
0.0134841
0.0133284
0.0131719
0.0130145
0.0128556
0.0126949
0.012532
0.0123667
0.0121986
0.0120276
0.0118533
0.0116761
0.0114953
0.0113116
0.0111245
0.0109347
0.0107417
0.0105468
0.0103488
0.0101503
0.00994819
0.0097489
0.00954163
0.00934725
0.00912401
0.00893835
0.0118929
0.0147884
0.0143142
0.0143952
0.0142732
0.0141161
0.0139627
0.0138052
0.0136477
0.0134906
0.0133337
0.0131763
0.0130182
0.0128588
0.0126978
0.0125346
0.0123691
0.0122007
0.0120295
0.0118551
0.0116777
0.0114968
0.0113131
0.0111259
0.0109362
0.0107431
0.0105483
0.0103504
0.010152
0.00995
0.00975134
0.00954494
0.0093557
0.00913972
0.00900093
0.0142886
0.0147384
0.014351
0.0142509
0.0141393
0.0140248
0.0139164
0.0138078
0.0136996
0.0135925
0.0134864
0.0133817
0.0132785
0.0131766
0.0130762
0.0129768
0.0128784
0.0127805
0.0126827
0.0125847
0.0124857
0.0123854
0.012283
0.0121779
0.0120694
0.0119568
0.0118396
0.0117167
0.0115882
0.0114524
0.0113111
0.0111602
0.0110095
0.0108403
0.0107008
0.0142638
0.014707
0.0143315
0.0142356
0.0141273
0.0140145
0.0139062
0.0137966
0.0136867
0.013577
0.0134677
0.0133593
0.0132517
0.013145
0.0130392
0.012934
0.0128292
0.0127244
0.0126192
0.0125133
0.0124061
0.0122971
0.0121858
0.0120715
0.0119537
0.0118316
0.0117051
0.0115728
0.0114352
0.0112901
0.0111402
0.0109779
0.0108181
0.0106245
0.0104744
0.0142358
0.0146747
0.0143102
0.0142191
0.0141137
0.0140022
0.0138934
0.0137822
0.0136696
0.0135565
0.0134433
0.0133302
0.0132174
0.0131049
0.0129927
0.0128806
0.0127683
0.0126554
0.0125416
0.0124264
0.0123095
0.0121901
0.012068
0.0119424
0.011813
0.011679
0.0115403
0.0113958
0.0112462
0.0110891
0.0109285
0.0107553
0.0105889
0.010387
0.0102402
0.0142002
0.0146394
0.0142886
0.0142039
0.0141027
0.0139931
0.0138843
0.0137719
0.0136573
0.0135413
0.0134247
0.0133076
0.0131904
0.0130731
0.0129556
0.0128377
0.0127191
0.0125996
0.0124787
0.012356
0.0122313
0.0121038
0.0119734
0.0118392
0.0117013
0.0115586
0.0114114
0.0112585
0.0111008
0.0109357
0.0107676
0.0105862
0.0104129
0.0102003
0.0100478
0.0141672
0.0146019
0.0142672
0.0141896
0.0140924
0.0139845
0.0138754
0.0137614
0.0136442
0.0135251
0.0134046
0.0132833
0.0131614
0.0130389
0.0129157
0.0127918
0.0126667
0.0125403
0.0124121
0.0122817
0.0121489
0.0120131
0.011874
0.0117311
0.0115841
0.0114325
0.0112764
0.0111147
0.0109485
0.0107751
0.0105996
0.010411
0.0102326
0.0100145
0.0098614
0.0141215
0.0145618
0.0142457
0.0141767
0.0140845
0.0139785
0.0138692
0.0137537
0.0136341
0.013512
0.0133881
0.0132629
0.0131367
0.0130096
0.0128815
0.0127522
0.0126214
0.0124889
0.0123544
0.0122174
0.0120777
0.0119348
0.0117885
0.0116383
0.0114842
0.0113254
0.0111622
0.0109937
0.0108211
0.0106416
0.0104605
0.0102664
0.0100836
0.00985997
0.00970434
0.0140728
0.0145197
0.0142248
0.0141655
0.0140787
0.0139744
0.0138646
0.0137473
0.013625
0.0134997
0.0133722
0.0132431
0.0131126
0.0129809
0.0128478
0.0127132
0.0125769
0.0124386
0.0122979
0.0121545
0.0120082
0.0118586
0.0117055
0.0115484
0.0113873
0.0112217
0.011052
0.0108771
0.0106985
0.0105133
0.0103272
0.0101284
0.00994232
0.0097151
0.00955906
0.0140141
0.0144767
0.0142059
0.0141575
0.0140761
0.0139732
0.0138625
0.0137432
0.0136183
0.0134899
0.0133589
0.0132261
0.0130916
0.0129557
0.0128182
0.0126789
0.0125376
0.0123941
0.012248
0.012099
0.011947
0.0117915
0.0116325
0.0114696
0.0113027
0.0111315
0.0109564
0.0107764
0.010593
0.0104034
0.0102136
0.0100112
0.00982264
0.00959233
0.00943597
0.0139441
0.0144338
0.0141886
0.0141524
0.0140767
0.0139747
0.013863
0.0137415
0.0136138
0.0134823
0.013348
0.0132118
0.0130737
0.012934
0.0127924
0.012649
0.0125033
0.0123552
0.0122044
0.0120507
0.0118937
0.0117332
0.0115692
0.0114013
0.0112296
0.0110537
0.010874
0.0106898
0.0105025
0.0103094
0.0101165
0.00991137
0.00972117
0.00948854
0.0093326
0.0138737
0.0143991
0.0141771
0.0141521
0.0140808
0.0139787
0.0138653
0.0137415
0.0136111
0.0134768
0.0133397
0.0132005
0.0130593
0.0129164
0.0127716
0.0126247
0.0124754
0.0123236
0.0121689
0.0120113
0.0118503
0.0116858
0.0115178
0.011346
0.0111704
0.0109909
0.0108078
0.0106204
0.0104302
0.0102345
0.0100396
0.00983236
0.00964119
0.00940667
0.00925151
0.0137817
0.0143643
0.0141663
0.0141543
0.0140877
0.0139849
0.0138697
0.0137433
0.0136102
0.0134731
0.0133332
0.0131911
0.0130472
0.0129014
0.0127535
0.0126035
0.0124511
0.012296
0.0121379
0.0119768
0.0118124
0.0116445
0.011473
0.0112979
0.011119
0.0109364
0.0107504
0.0105604
0.0103679
0.0101701
0.00997348
0.00976471
0.00957303
0.00933695
0.00918321
0.0136877
0.014341
0.0141619
0.0141618
0.0140978
0.0139931
0.0138753
0.0137461
0.0136103
0.0134705
0.0133281
0.0131835
0.0130371
0.0128887
0.0127383
0.0125856
0.0124304
0.0122725
0.0121116
0.0119476
0.0117803
0.0116095
0.0114351
0.0112572
0.0110757
0.0108906
0.0107023
0.0105102
0.0103158
0.0101164
0.0099187
0.00970877
0.00951695
0.00927948
0.00912756
0.0135635
0.0143219
0.0141591
0.0141727
0.0141109
0.0140036
0.0138829
0.0137506
0.0136118
0.0134695
0.0133246
0.0131777
0.0130289
0.0128783
0.0127256
0.0125706
0.012413
0.0122528
0.0120894
0.011923
0.0117531
0.0115799
0.0114031
0.0112229
0.0110392
0.0108521
0.0106618
0.010468
0.0102723
0.0100717
0.00987315
0.00966244
0.00947083
0.00923235
0.00908282
0.013433
0.0143191
0.0141626
0.0141882
0.0141262
0.0140148
0.0138907
0.0137553
0.0136138
0.013469
0.0133219
0.013173
0.0130223
0.0128697
0.0127151
0.0125581
0.0123986
0.0122363
0.0120709
0.0119024
0.0117306
0.0115553
0.0113766
0.0111945
0.011009
0.0108202
0.0106285
0.0104335
0.0102366
0.0100352
0.00983612
0.00962491
0.00943354
0.00919421
0.0090469
0.0132704
0.0143286
0.0141698
0.0142087
0.0141449
0.0140284
0.0139003
0.0137614
0.013617
0.0134698
0.0133207
0.0131699
0.0130175
0.0128632
0.0127069
0.0125483
0.0123871
0.0122232
0.0120561
0.0118859
0.0117124
0.0115356
0.0113553
0.0111716
0.0109847
0.0107947
0.0106018
0.0104058
0.0102081
0.0100062
0.00980684
0.00959559
0.00940468
0.00916559
0.00902072
0.0130891
0.014358
0.0141813
0.0142313
0.0141629
0.0140406
0.0139087
0.0137666
0.0136197
0.0134706
0.0133198
0.0131675
0.0130136
0.012858
0.0127004
0.0125405
0.012378
0.0122127
0.0120444
0.0118728
0.011698
0.0115199
0.0113383
0.0111535
0.0109656
0.0107745
0.0105808
0.010384
0.0101859
0.00998358
0.00978401
0.00957288
0.00938172
0.00914295
0.00899759
0.012885
0.0144077
0.0141994
0.0142609
0.0141853
0.0140559
0.0139193
0.0137736
0.0136242
0.0134731
0.0133206
0.013167
0.0130119
0.0128552
0.0126965
0.0125355
0.0123719
0.0122055
0.0120362
0.0118636
0.0116878
0.0115086
0.0113262
0.0111405
0.0109517
0.0107599
0.0105656
0.0103683
0.0101699
0.0099675
0.00976797
0.00955761
0.00936677
0.00913113
0.00898592
0.0126449
0.0144801
0.0142167
0.0142868
0.0142028
0.0140673
0.0139273
0.013779
0.0136276
0.013475
0.0133215
0.0131668
0.0130108
0.0128532
0.0126938
0.012532
0.0123677
0.0122005
0.0120304
0.011857
0.0116805
0.0115006
0.0113176
0.0111312
0.0109419
0.0107495
0.0105548
0.0103572
0.0101586
0.00995622
0.00975656
0.00954692
0.00935437
0.00912065
0.00896508
0.012398
0.0145696
0.0142448
0.0143234
0.0142277
0.0140846
0.0139397
0.0137881
0.0136344
0.0134802
0.0133253
0.0131695
0.0130127
0.0128543
0.0126941
0.0125317
0.0123668
0.012199
0.0120283
0.0118544
0.0116774
0.011497
0.0113135
0.0111266
0.010937
0.0107443
0.0105494
0.0103516
0.010153
0.00995077
0.00975151
0.00954323
0.00935197
0.00912542
0.00897178
0.0121288
0.0146764
0.014269
0.0143532
0.0142461
0.0140972
0.0139489
0.0137949
0.0136396
0.0134842
0.0133284
0.013172
0.0130145
0.0128556
0.012695
0.0125321
0.0123668
0.0121986
0.0120276
0.0118533
0.0116761
0.0114953
0.0113116
0.0111244
0.0109347
0.0107417
0.0105468
0.0103488
0.0101503
0.00994818
0.0097489
0.00954162
0.00934726
0.00912395
0.00893823
0.0119012
0.0147905
0.0143142
0.0143947
0.0142726
0.0141155
0.0139622
0.0138048
0.0136473
0.0134903
0.0133334
0.013176
0.013018
0.0128586
0.0126976
0.0125344
0.0123689
0.0122005
0.0120293
0.0118549
0.0116775
0.0114967
0.0113129
0.0111257
0.010936
0.010743
0.0105481
0.0103502
0.0101518
0.00994982
0.00975115
0.00954475
0.0093555
0.00913955
0.00900066
0.0142936
0.0147332
0.0143507
0.0142508
0.0141393
0.0140248
0.0139164
0.0138078
0.0136996
0.0135925
0.0134864
0.0133817
0.0132785
0.0131766
0.0130761
0.0129768
0.0128784
0.0127805
0.0126827
0.0125846
0.0124857
0.0123854
0.012283
0.0121778
0.0120694
0.0119568
0.0118396
0.0117167
0.0115881
0.0114524
0.0113111
0.0111602
0.0110095
0.0108403
0.0107008
0.0142688
0.0147019
0.0143312
0.0142355
0.0141273
0.0140145
0.0139062
0.0137967
0.0136867
0.013577
0.0134677
0.0133593
0.0132517
0.0131451
0.0130392
0.012934
0.0128292
0.0127244
0.0126192
0.0125133
0.0124061
0.0122971
0.0121858
0.0120715
0.0119537
0.0118317
0.0117051
0.0115728
0.0114353
0.0112901
0.0111403
0.0109779
0.0108181
0.0106245
0.0104745
0.0142408
0.0146696
0.0143099
0.014219
0.0141137
0.0140022
0.0138935
0.0137822
0.0136696
0.0135565
0.0134433
0.0133302
0.0132174
0.0131049
0.0129927
0.0128806
0.0127683
0.0126554
0.0125416
0.0124264
0.0123094
0.0121901
0.012068
0.0119424
0.011813
0.011679
0.0115403
0.0113958
0.0112462
0.0110891
0.0109285
0.0107553
0.0105889
0.010387
0.0102403
0.0142051
0.0146344
0.0142883
0.0142039
0.0141027
0.0139931
0.0138844
0.0137719
0.0136573
0.0135413
0.0134247
0.0133076
0.0131904
0.0130731
0.0129556
0.0128377
0.0127191
0.0125996
0.0124787
0.0123561
0.0122313
0.0121038
0.0119734
0.0118393
0.0117013
0.0115586
0.0114114
0.0112586
0.0111009
0.0109357
0.0107676
0.0105862
0.0104129
0.0102004
0.0100478
0.014172
0.0145971
0.0142669
0.0141895
0.0140925
0.0139845
0.0138754
0.0137614
0.0136442
0.0135251
0.0134046
0.0132833
0.0131614
0.0130389
0.0129157
0.0127918
0.0126667
0.0125403
0.0124121
0.0122817
0.0121489
0.0120131
0.011874
0.0117311
0.0115841
0.0114325
0.0112764
0.0111147
0.0109485
0.0107751
0.0105996
0.010411
0.0102326
0.0100145
0.00986148
0.0141262
0.014557
0.0142454
0.0141766
0.0140845
0.0139785
0.0138692
0.0137537
0.0136341
0.013512
0.0133881
0.0132629
0.0131367
0.0130096
0.0128815
0.0127521
0.0126214
0.0124889
0.0123544
0.0122174
0.0120777
0.0119348
0.0117885
0.0116384
0.0114842
0.0113254
0.0111622
0.0109938
0.0108211
0.0106416
0.0104605
0.0102664
0.0100836
0.00986001
0.00970445
0.0140775
0.0145149
0.0142245
0.0141655
0.0140787
0.0139744
0.0138646
0.0137473
0.013625
0.0134997
0.0133722
0.0132431
0.0131126
0.0129808
0.0128478
0.0127132
0.0125769
0.0124385
0.0122979
0.0121545
0.0120082
0.0118586
0.0117055
0.0115484
0.0113873
0.0112217
0.011052
0.0108771
0.0106985
0.0105133
0.0103272
0.0101284
0.00994233
0.00971513
0.00955917
0.0140186
0.0144721
0.0142056
0.0141574
0.0140761
0.0139732
0.0138625
0.0137432
0.0136183
0.0134899
0.0133589
0.0132261
0.0130916
0.0129557
0.0128182
0.0126789
0.0125376
0.0123941
0.012248
0.012099
0.011947
0.0117915
0.0116325
0.0114696
0.0113027
0.0111316
0.0109564
0.0107764
0.010593
0.0104035
0.0102136
0.0100112
0.00982265
0.00959237
0.00943609
0.0139485
0.0144293
0.0141883
0.0141523
0.0140768
0.0139747
0.013863
0.0137415
0.0136138
0.0134823
0.013348
0.0132117
0.0130737
0.012934
0.0127924
0.012649
0.0125033
0.0123552
0.0122044
0.0120507
0.0118937
0.0117332
0.0115692
0.0114013
0.0112296
0.0110537
0.010874
0.0106898
0.0105025
0.0103094
0.0101166
0.00991139
0.00972118
0.00948859
0.00933273
0.013878
0.0143948
0.0141768
0.014152
0.0140808
0.0139787
0.0138653
0.0137415
0.0136111
0.0134768
0.0133397
0.0132004
0.0130593
0.0129164
0.0127716
0.0126247
0.0124754
0.0123236
0.0121689
0.0120112
0.0118503
0.0116858
0.0115178
0.011346
0.0111704
0.0109909
0.0108078
0.0106204
0.0104302
0.0102345
0.0100396
0.00983239
0.0096412
0.00940671
0.00925165
0.013786
0.0143601
0.0141661
0.0141543
0.0140877
0.0139849
0.0138697
0.0137433
0.0136101
0.0134731
0.0133331
0.0131911
0.0130472
0.0129013
0.0127535
0.0126035
0.012451
0.012296
0.0121379
0.0119768
0.0118124
0.0116445
0.011473
0.0112979
0.011119
0.0109364
0.0107504
0.0105604
0.0103679
0.0101701
0.00997348
0.00976474
0.00957304
0.009337
0.00918336
0.0136918
0.0143369
0.0141617
0.0141617
0.0140978
0.0139931
0.0138753
0.0137461
0.0136102
0.0134705
0.013328
0.0131835
0.013037
0.0128887
0.0127383
0.0125856
0.0124304
0.0122725
0.0121116
0.0119476
0.0117803
0.0116095
0.0114351
0.0112572
0.0110757
0.0108906
0.0107023
0.0105102
0.0103158
0.0101164
0.00991871
0.0097088
0.00951696
0.00927953
0.00912772
0.0135674
0.014318
0.014159
0.0141726
0.0141109
0.0140036
0.0138828
0.0137506
0.0136118
0.0134694
0.0133245
0.0131777
0.0130289
0.0128783
0.0127256
0.0125706
0.012413
0.0122527
0.0120894
0.0119229
0.0117531
0.0115799
0.0114031
0.0112229
0.0110392
0.0108521
0.0106618
0.010468
0.0102723
0.0100717
0.00987316
0.00966247
0.00947084
0.00923241
0.00908299
0.0134368
0.0143154
0.0141625
0.0141881
0.0141261
0.0140147
0.0138906
0.0137552
0.0136137
0.0134689
0.0133219
0.0131729
0.0130222
0.0128697
0.012715
0.0125581
0.0123986
0.0122363
0.0120709
0.0119024
0.0117305
0.0115553
0.0113766
0.0111945
0.011009
0.0108202
0.0106285
0.0104335
0.0102366
0.0100352
0.00983614
0.00962495
0.00943356
0.00919427
0.00904709
0.0132741
0.0143251
0.0141697
0.0142086
0.0141448
0.0140283
0.0139002
0.0137613
0.0136169
0.0134698
0.0133206
0.0131699
0.0130174
0.0128632
0.0127069
0.0125483
0.0123871
0.0122231
0.0120561
0.0118859
0.0117124
0.0115355
0.0113553
0.0111716
0.0109847
0.0107947
0.0106018
0.0104058
0.0102082
0.0100062
0.00980687
0.00959563
0.0094047
0.00916567
0.00902093
0.0130925
0.0143548
0.0141812
0.0142311
0.0141628
0.0140405
0.0139086
0.0137665
0.0136197
0.0134705
0.0133197
0.0131674
0.0130136
0.012858
0.0127004
0.0125405
0.012378
0.0122127
0.0120444
0.0118728
0.011698
0.0115199
0.0113384
0.0111536
0.0109656
0.0107745
0.0105808
0.0103841
0.0101859
0.00998363
0.00978405
0.00957294
0.00938176
0.00914305
0.00899781
0.0128882
0.0144048
0.0141992
0.0142607
0.0141852
0.0140557
0.0139192
0.0137736
0.0136241
0.013473
0.0133206
0.0131669
0.0130119
0.0128551
0.0126965
0.0125355
0.0123719
0.0122056
0.0120362
0.0118636
0.0116878
0.0115087
0.0113262
0.0111405
0.0109518
0.0107599
0.0105656
0.0103684
0.0101699
0.00996757
0.00976804
0.0095577
0.00936683
0.00913124
0.00898616
0.0126479
0.0144775
0.0142166
0.0142866
0.0142027
0.0140673
0.0139272
0.0137789
0.0136276
0.013475
0.0133215
0.0131668
0.0130109
0.0128533
0.0126938
0.012532
0.0123677
0.0122005
0.0120304
0.0118571
0.0116806
0.0115007
0.0113176
0.0111312
0.0109419
0.0107496
0.0105549
0.0103573
0.0101587
0.00995629
0.00975664
0.009547
0.00935444
0.00912075
0.00896528
0.0124004
0.0145681
0.0142449
0.0143234
0.0142277
0.0140846
0.0139398
0.0137882
0.0136345
0.0134802
0.0133254
0.0131696
0.0130128
0.0128544
0.0126942
0.0125317
0.0123668
0.012199
0.0120284
0.0118544
0.0116775
0.011497
0.0113135
0.0111267
0.0109371
0.0107443
0.0105495
0.0103516
0.0101531
0.00995082
0.00975156
0.00954328
0.00935201
0.00912548
0.00897192
0.0121307
0.0146769
0.0142694
0.0143534
0.0142463
0.0140973
0.0139489
0.0137949
0.0136396
0.0134842
0.0133284
0.0131719
0.0130145
0.0128556
0.0126949
0.012532
0.0123667
0.0121986
0.0120276
0.0118533
0.011676
0.0114953
0.0113115
0.0111244
0.0109346
0.0107417
0.0105467
0.0103488
0.0101503
0.00994813
0.00974883
0.00954155
0.00934719
0.00912385
0.00893772
0.0118998
0.0147917
0.0143149
0.0143947
0.0142726
0.0141154
0.0139621
0.0138047
0.0136472
0.0134902
0.0133333
0.013176
0.013018
0.0128586
0.0126976
0.0125344
0.0123688
0.0122005
0.0120293
0.0118549
0.0116775
0.0114967