/*--------------------------------*- C++ -*----------------------------------*\
  =========                 |
  \\      /  F ield         | OpenFOAM: The Open Source CFD Toolbox
   \\    /   O peration     | Website:  https://openfoam.org
    \\  /    A nd           | Version:  6
     \\/     M anipulation  |
\*---------------------------------------------------------------------------*/
FoamFile
{
    version     2.0;
    format      ascii;
    class       volScalarField;
    location    "2";
    object      p;
}
// * * * * * * * * * * * * * * * * * * * * * * * * * * * * * * * * * * * * * //

dimensions      [0 2 -2 0 0 0 0];

internalField   nonuniform List<scalar> 
63552
(
0.0142917
0.0141219
0.013788
0.013216
0.0123635
0.0112504
0.00972432
0.00787298
0.005243
0.00241684
-0.00165182
-0.00610387
-0.011609
-0.0144903
-0.027714
0.016124
0.0162076
0.0160555
0.0157258
0.0150523
0.0141488
0.0128803
0.0112666
0.00904612
0.00656727
0.00290344
-0.0008084
-0.00547576
-0.00749297
-0.0201064
0.018134
0.01821
0.0180428
0.0177104
0.0169904
0.0159816
0.0146588
0.0128115
0.0107337
0.0076295
0.00442356
0.000740187
-0.000604617
-0.0122974
0.0202924
0.0203912
0.0203892
0.0203525
0.0199004
0.019183
0.018209
0.0166516
0.0150164
0.0125016
0.00976837
0.00699248
0.00631817
-0.00396576
0.0227515
0.0229161
0.0229954
0.0228856
0.0223865
0.0217708
0.0205657
0.0193072
0.0172783
0.0151143
0.0132363
0.0132632
0.00454935
0.0251474
0.0255198
0.025705
0.0258481
0.0256203
0.0252624
0.0245517
0.0236172
0.0220805
0.020465
0.0195001
0.0200268
0.0126629
0.0274297
0.0279787
0.0283305
0.0286359
0.0288485
0.0287413
0.0283819
0.0278867
0.0268408
0.0257303
0.0256227
0.0266974
0.0206438
0.0304456
0.0310396
0.0315233
0.0318824
0.0321315
0.03214
0.0320772
0.0315319
0.0308951
0.0315212
0.0332522
0.0284616
0.032882
0.0337108
0.0344665
0.034991
0.0354792
0.0357781
0.0361611
0.0360062
0.0359219
0.0372683
0.0393948
0.0358996
0.0352155
0.0362209
0.0371782
0.0380238
0.0387972
0.0392895
0.0400145
0.0403068
0.0407378
0.0427661
0.0453823
0.0429908
0.0374483
0.0386433
0.0397833
0.0408267
0.0418382
0.0427116
0.0436557
0.0444158
0.045296
0.0479413
0.0510878
0.0496215
0.0408999
0.0422407
0.0435082
0.0447449
0.0459013
0.0471687
0.0482192
0.0495461
0.0527439
0.0563292
0.0559152
0.0429961
0.0444967
0.0459563
0.0474227
0.0488068
0.0503593
0.0517177
0.0534277
0.057142
0.0610873
0.061522
0.0448885
0.0465485
0.0481777
0.0498271
0.05144
0.0532295
0.0548818
0.0569238
0.0610754
0.0653585
0.0664361
0.0465642
0.0483552
0.0501365
0.0519553
0.0537643
0.0557761
0.0576676
0.0599969
0.0645183
0.0691404
0.0708934
0.0479951
0.049901
0.0518098
0.053769
0.0557385
0.0579299
0.0600335
0.062621
0.0674475
0.07235
0.0745813
0.0491654
0.0511636
0.0531759
0.0552495
0.0573526
0.0596885
0.0619586
0.0647626
0.0698242
0.0749942
0.0775674
0.0500578
0.052126
0.0542169
0.0563767
0.0585797
0.0610252
0.0634207
0.0663902
0.0716314
0.0769791
0.079814
0.0527753
0.054919
0.0571366
0.0594075
0.0619253
0.0644039
0.0674861
0.0728439
0.0783218
0.0813171
0.0531019
0.0552722
0.0575184
0.0598236
0.0623766
0.0648963
0.0680376
0.0734484
0.0789929
0.0820642
0.0143207
0.0141422
0.0137882
0.0132215
0.0123762
0.0112425
0.00970366
0.00781137
0.00526713
0.0023167
-0.00181426
-0.00626182
-0.0120823
-0.0156168
-0.0287563
0.016276
0.016253
0.0160884
0.0156849
0.0150399
0.0141247
0.0128431
0.0112512
0.00904377
0.00652734
0.00301496
-0.000999127
-0.00588597
-0.0086195
-0.0210596
0.0182749
0.0182967
0.0181333
0.0176678
0.0169893
0.0159847
0.0146655
0.0128091
0.0107002
0.00762938
0.00418206
0.000127136
-0.00163575
-0.0128527
0.0203724
0.0205446
0.0206008
0.0203807
0.019944
0.0191948
0.0181562
0.0166784
0.0149564
0.012361
0.00954382
0.00636778
0.00528467
-0.00466519
0.0228094
0.0230192
0.0230785
0.0228914
0.0224067
0.0216707
0.020549
0.0192384
0.0171747
0.0148606
0.0125491
0.0120519
0.00351326
0.025135
0.0254966
0.0257734
0.0258604
0.0256577
0.0252455
0.0244187
0.0235313
0.0219692
0.0201835
0.018716
0.0188609
0.011802
0.0274555
0.0280041
0.0284618
0.0288106
0.0288655
0.0287826
0.028315
0.0277849
0.026689
0.025439
0.0248455
0.0254972
0.0198927
0.030471
0.0311038
0.031649
0.0320122
0.0322246
0.0321364
0.031971
0.0313112
0.0306017
0.0308374
0.0319378
0.0276869
0.0328803
0.033701
0.0344351
0.0350545
0.0355447
0.0358105
0.0360238
0.0358451
0.0356007
0.0365758
0.038296
0.0352067
0.0352146
0.0362271
0.0371731
0.0379979
0.0387408
0.0393502
0.0399507
0.0401942
0.0403844
0.0420431
0.0442237
0.0423654
0.0374429
0.0386326
0.0397769
0.040828
0.0418369
0.0426874
0.0436602
0.0442613
0.0449269
0.0471921
0.0497791
0.0490746
0.0408928
0.0422242
0.0434773
0.0447108
0.0458299
0.0470829
0.0480814
0.0491586
0.0519694
0.0549704
0.0552034
0.042985
0.0444813
0.0459301
0.0473708
0.0487419
0.0502565
0.0515751
0.0530413
0.0563283
0.0597666
0.0607673
0.0448776
0.0465296
0.0481477
0.0497816
0.0513661
0.053129
0.0547207
0.05654
0.0602683
0.0641027
0.0658656
0.0465526
0.0483362
0.0501047
0.0519037
0.0536793
0.0556433
0.0574795
0.0596169
0.0637104
0.0678254
0.0701618
0.0479831
0.0498812
0.0517772
0.053717
0.0556555
0.0578021
0.0598371
0.0622249
0.0666247
0.0710431
0.0738572
0.0491531
0.0511434
0.0531427
0.055196
0.057266
0.0595548
0.061754
0.0643465
0.0689896
0.0736203
0.0768306
0.0500454
0.0521055
0.0541832
0.0563227
0.0584925
0.0608906
0.0632132
0.0659637
0.0707794
0.0756088
0.0790873
0.0527547
0.0548852
0.0570823
0.0593198
0.0617901
0.0641955
0.0670553
0.0719836
0.0769433
0.0805995
0.0530813
0.0552384
0.0574643
0.059736
0.0622418
0.0646888
0.0676069
0.0725891
0.0776229
0.0813577
0.0142839
0.0141132
0.0137713
0.0132095
0.012363
0.0112343
0.00968882
0.00777435
0.00519514
0.0022281
-0.0019584
-0.00656798
-0.0128394
-0.0168141
-0.0293497
0.0162537
0.0162061
0.0160496
0.0156603
0.0150289
0.0141183
0.0128293
0.0112207
0.00897828
0.00641691
0.00283803
-0.00132158
-0.00666124
-0.00981115
-0.0216604
0.0182408
0.0182437
0.0180755
0.0176461
0.0169795
0.0159619
0.0146373
0.0127442
0.0105789
0.00746884
0.00386069
-0.000654472
-0.00294496
-0.013487
0.0203564
0.0205098
0.0205392
0.0203493
0.0199293
0.0191694
0.0181249
0.0166134
0.0148373
0.012198
0.00919074
0.00554601
0.00388818
-0.00533133
0.0228035
0.0229991
0.0230439
0.0228637
0.0223845
0.0216308
0.0204828
0.0191187
0.0169909
0.0144981
0.0117094
0.0106221
0.00284931
0.0251338
0.025499
0.0257358
0.0258049
0.0256134
0.0251847
0.0243432
0.0234053
0.0217766
0.0198008
0.0178503
0.017387
0.0111074
0.0274486
0.027996
0.0284302
0.0287458
0.0287946
0.0286939
0.0282224
0.0276546
0.0264986
0.0250451
0.0239468
0.023968
0.019185
0.0304623
0.031088
0.0316189
0.0319513
0.0321367
0.0320217
0.0318286
0.0311173
0.0301865
0.0299092
0.0303944
0.0269822
0.032879
0.033698
0.0344287
0.0350153
0.0354858
0.035695
0.0358675
0.0356388
0.0351706
0.0356215
0.0366599
0.0344665
0.0352106
0.0362196
0.0371611
0.0379721
0.0386948
0.0392338
0.0397774
0.0399703
0.0399457
0.0410582
0.0425211
0.0415403
0.0374403
0.0386261
0.0397609
0.0407966
0.0417759
0.0425842
0.0434831
0.0440344
0.0444621
0.0461802
0.0480369
0.0481989
0.0408865
0.04221
0.0434502
0.0446538
0.0457294
0.0469149
0.0478409
0.048677
0.0509301
0.053199
0.0542938
0.0429784
0.0444665
0.0458992
0.0473149
0.0486354
0.0500877
0.0513314
0.0525485
0.0552729
0.0579643
0.0599076
0.0448712
0.0465143
0.0481166
0.0497215
0.0512573
0.0529512
0.0544734
0.0560327
0.0591854
0.0622193
0.0648887
0.0465458
0.0483208
0.0500729
0.051843
0.0535699
0.0554706
0.0572302
0.0590873
0.0625992
0.0659277
0.0692234
0.0479764
0.0498653
0.0517445
0.0536548
0.0555424
0.0576222
0.0595819
0.0616825
0.0654908
0.0690859
0.0728959
0.0491462
0.0511272
0.0531094
0.0551328
0.0571517
0.0593743
0.0614952
0.0637931
0.0678345
0.0716529
0.0758725
0.0500384
0.0520892
0.0541494
0.0562587
0.0583766
0.0607076
0.0629508
0.0654011
0.069609
0.0736115
0.0781242
0.0527382
0.0548512
0.0570178
0.0592029
0.0616059
0.0639305
0.0664855
0.0708012
0.0749311
0.0796339
0.0530648
0.0552042
0.0573996
0.0596187
0.0620571
0.0644223
0.0670323
0.0713984
0.0756011
0.0803907
0.0142882
0.0141163
0.0137711
0.013203
0.0123589
0.0112284
0.00967677
0.00774991
0.00512677
0.00211472
-0.00214496
-0.00693871
-0.0136897
-0.0182444
-0.0303334
0.0162532
0.0162144
0.0160543
0.0156677
0.0150274
0.0141149
0.0128214
0.0111922
0.00891263
0.00629835
0.0026008
-0.00170655
-0.0075657
-0.011224
-0.0226902
0.0182466
0.0182515
0.0180817
0.0176495
0.0169736
0.0159473
0.0146051
0.0126763
0.0104507
0.0072461
0.00347009
-0.0015492
-0.00443502
-0.0145963
0.020361
0.0205154
0.0205432
0.0203516
0.0199218
0.0191559
0.0181003
0.0165395
0.0147045
0.0119927
0.00877359
0.00461918
0.00235649
-0.00642899
0.0228078
0.0230042
0.0230473
0.0228672
0.0223764
0.0216166
0.020412
0.0189825
0.0167771
0.0140715
0.0107745
0.00906723
0.00178589
0.0251375
0.0255053
0.0257463
0.0258166
0.0256091
0.0251637
0.0242855
0.0232639
0.0215547
0.0193593
0.0169066
0.0157631
0.0100031
0.0274528
0.0280027
0.0284385
0.0287475
0.0287993
0.0286702
0.0281552
0.0275104
0.0262744
0.024594
0.0229773
0.0222956
0.018052
0.0304679
0.0310957
0.0316207
0.0319468
0.0321093
0.0319469
0.0316793
0.0308964
0.0297193
0.0288964
0.0286932
0.0258456
0.0328838
0.0337051
0.0344354
0.0350102
0.0354557
0.0356229
0.0357236
0.0354014
0.0346886
0.0345863
0.034865
0.0333243
0.035217
0.0362272
0.0371661
0.0379709
0.0386751
0.0391577
0.0396224
0.0397158
0.0394499
0.0400055
0.0406977
0.0404057
0.0374458
0.0386336
0.039768
0.0407949
0.0417508
0.0425121
0.043318
0.0437849
0.0439513
0.0451087
0.0462003
0.0470505
0.0408952
0.0422147
0.0434482
0.044631
0.0456583
0.0467576
0.0475878
0.0481549
0.0498453
0.0513383
0.053155
0.0429871
0.0444745
0.0458977
0.0472906
0.0485619
0.049931
0.0510782
0.0520129
0.0541775
0.0560571
0.058757
0.0448812
0.046521
0.0481151
0.0496971
0.0511832
0.0527919
0.0542177
0.055486
0.0580711
0.0602749
0.0637378
0.0465558
0.0483288
0.0500715
0.0518179
0.053494
0.0553127
0.0569771
0.0585307
0.0614703
0.0639713
0.0680695
0.0479873
0.0498734
0.0517432
0.0536294
0.0554656
0.0574614
0.0593262
0.0611209
0.0643556
0.0671072
0.0717408
0.0491573
0.0511355
0.0531082
0.0551071
0.0570735
0.0592129
0.0612385
0.0632263
0.0666901
0.0696584
0.0747102
0.0500497
0.0520977
0.0541482
0.0562326
0.0582977
0.0605451
0.0626924
0.0648292
0.0684585
0.0716018
0.076958
0.0527468
0.0548499
0.0569915
0.0591233
0.061443
0.0636711
0.0659095
0.0696448
0.0729111
0.0784636
0.0530734
0.0552028
0.0573731
0.0595386
0.061894
0.0641624
0.0664535
0.0702374
0.073575
0.0792166
0.0142773
0.0140972
0.0137498
0.0131835
0.0123479
0.0112216
0.00967288
0.00774187
0.00508941
0.00202845
-0.00231333
-0.00728563
-0.0145349
-0.0197705
-0.0317978
0.0162443
0.0162026
0.0160332
0.0156491
0.0150153
0.014111
0.0128216
0.0111833
0.00888034
0.00621459
0.00241416
-0.0020686
-0.00846732
-0.0127163
-0.0241821
0.018241
0.0182387
0.0180619
0.0176376
0.0169676
0.0159446
0.0145955
0.0126448
0.0103662
0.00706858
0.00310453
-0.00244923
-0.00596225
-0.0161314
0.0203608
0.0205131
0.0205331
0.0203407
0.0199127
0.019154
0.0180969
0.016508
0.0146218
0.0118276
0.00839395
0.00369687
0.000797246
-0.00794412
0.0228103
0.0230052
0.0230418
0.0228617
0.0223756
0.021619
0.020386
0.018901
0.0166138
0.0136874
0.00984702
0.00748196
0.000291265
0.0251391
0.0255091
0.0257497
0.025818
0.0256102
0.0251623
0.0242695
0.0231831
0.021391
0.0189671
0.0159662
0.014122
0.00849223
0.0274559
0.0280079
0.0284465
0.0287523
0.028811
0.0286726
0.0281354
0.0274309
0.0261126
0.0241938
0.0220128
0.0206246
0.0165307
0.0304755
0.031109
0.0316341
0.0319626
0.0321183
0.0319281
0.0316004
0.0307378
0.0293095
0.0279034
0.026978
0.0243223
0.0328917
0.0337189
0.0344537
0.0350309
0.035468
0.0356106
0.0356513
0.0352357
0.034268
0.0335761
0.0330985
0.0317964
0.0352271
0.0362428
0.0371855
0.0379953
0.0386945
0.0391495
0.0395487
0.0395443
0.0390179
0.0389822
0.0389138
0.0388816
0.0374563
0.0386502
0.0397903
0.0408224
0.0417717
0.0425092
0.0432442
0.0436185
0.0435112
0.0440718
0.0443981
0.045517
0.0409144
0.0422377
0.0434766
0.0446554
0.0456585
0.04669
0.0474227
0.0477055
0.048799
0.0495082
0.0516338
0.043007
0.0445007
0.0459293
0.0473167
0.0485634
0.0498659
0.050916
0.0515553
0.0531219
0.0541939
0.0572239
0.0449038
0.0465483
0.0481478
0.0497252
0.051187
0.0527298
0.0540576
0.0550215
0.0570035
0.0583917
0.062203
0.046579
0.0483579
0.0501062
0.0518474
0.0534981
0.0552516
0.0568199
0.0580626
0.0603954
0.0620725
0.0665397
0.0480122
0.0499039
0.0517792
0.0536602
0.0554712
0.0574012
0.0591695
0.0606496
0.0632754
0.0651962
0.0702095
0.0491831
0.0511671
0.0531452
0.055139
0.0570794
0.0591531
0.0610825
0.0627526
0.0656059
0.0677363
0.0731786
0.0500763
0.0521301
0.0541861
0.0562653
0.058304
0.0604857
0.0625362
0.0643526
0.0673714
0.0696715
0.0754243
0.0527798
0.0548883
0.0570247
0.0591298
0.0613838
0.063515
0.0654307
0.0685551
0.0709763
0.0769287
0.0531067
0.0552415
0.0574065
0.0595451
0.061835
0.0640063
0.0659735
0.0691465
0.0716393
0.0776804
0.0142636
0.0140776
0.0137286
0.0131635
0.0123338
0.0112109
0.0096698
0.00774015
0.00508085
0.0019884
-0.00241933
-0.00757511
-0.0153932
-0.0212544
-0.0337078
0.0162334
0.0161879
0.0160117
0.01563
0.0150022
0.0141032
0.0128229
0.0111843
0.00887899
0.00617993
0.00230886
-0.0023651
-0.00938094
-0.0141799
-0.0260698
0.0182323
0.0182232
0.0180415
0.0176251
0.0169606
0.0159467
0.0146
0.012649
0.0103376
0.0069766
0.00281266
-0.00335483
-0.00743376
-0.0180178
0.0203575
0.0205067
0.0205193
0.0203291
0.0199058
0.0191598
0.0181096
0.0165186
0.0146021
0.0117507
0.00809734
0.00277854
-0.000690022
-0.00979085
0.0228098
0.0230024
0.0230359
0.0228588
0.0223855
0.0216388
0.0204053
0.0188894
0.0165457
0.013395
0.00892662
0.00598752
-0.00152506
0.0251396
0.0255111
0.0257522
0.0258206
0.0256234
0.0251835
0.0242996
0.02318
0.0213305
0.0186754
0.0150373
0.0126039
0.00668883
0.0274584
0.0280124
0.0284549
0.0287598
0.0288318
0.0286978
0.0281675
0.027435
0.0260613
0.0239014
0.0210667
0.019094
0.0147423
0.0304832
0.0311236
0.0316514
0.0319903
0.0321513
0.0319652
0.0316116
0.0306949
0.0290148
0.0269394
0.0254229
0.0225509
0.0329013
0.0337363
0.0344776
0.0350664
0.035509
0.0356553
0.0356714
0.0351953
0.0339709
0.0326005
0.0315226
0.0300389
0.0352392
0.0362628
0.0372129
0.0380369
0.0387444
0.0392023
0.0395734
0.0395071
0.0387173
0.0379971
0.0373331
0.0371372
0.0374704
0.0386729
0.0398213
0.0408685
0.0418265
0.0425705
0.0432743
0.0435891
0.0432093
0.0430788
0.0428116
0.0437818
0.0409402
0.0422722
0.0435267
0.0447159
0.0457265
0.0467292
0.0473986
0.0474004
0.0477999
0.0479106
0.0499168
0.043035
0.0445384
0.0459835
0.0473822
0.0486364
0.0499116
0.0508977
0.051248
0.0521173
0.0525829
0.0555091
0.0449349
0.0465892
0.0482052
0.0497943
0.0512648
0.0527818
0.0540453
0.0547116
0.0559917
0.0567743
0.0604954
0.046612
0.0484012
0.0501669
0.0519204
0.0535799
0.0553081
0.0568124
0.0577521
0.0593801
0.0604488
0.0648409
0.0480473
0.0499498
0.0518425
0.0537361
0.0555562
0.0574616
0.0591657
0.060338
0.0622555
0.0635691
0.0685154
0.0492197
0.0512147
0.0532105
0.0552175
0.0571669
0.0592163
0.0610814
0.0624406
0.0645841
0.0661067
0.071488
0.0501141
0.0521792
0.0542531
0.0563457
0.0583936
0.0605512
0.062537
0.0640396
0.066348
0.0680391
0.0737364
0.0528299
0.0549564
0.0571065
0.0592206
0.0614507
0.063517
0.0651169
0.0675307
0.0693429
0.0752438
0.0531573
0.0553102
0.0574889
0.0596365
0.0619026
0.0640088
0.0656592
0.0681219
0.0700063
0.0759979
0.0142452
0.0140526
0.0137003
0.013135
0.0123109
0.0111913
0.00966196
0.0077347
0.00508929
0.00198192
-0.00245462
-0.00777014
-0.0162122
-0.0223313
-0.0358756
0.0162183
0.016168
0.0159851
0.0156033
0.0149817
0.0140872
0.0128204
0.0111845
0.00889757
0.00618337
0.00228875
-0.00255729
-0.0102336
-0.0153728
-0.0279884
0.0182195
0.0182037
0.0180172
0.0176078
0.0169477
0.0159481
0.0146075
0.0126776
0.0103538
0.00697727
0.00263592
-0.004189
-0.00864698
-0.0198194
0.0203506
0.0204964
0.0205024
0.0203149
0.0198958
0.0191665
0.0181266
0.0165583
0.0146338
0.0117727
0.00792777
0.00194379
-0.00191323
-0.0114766
0.0228062
0.0229961
0.0230288
0.0228548
0.0223991
0.0216652
0.0204571
0.0189356
0.0165847
0.0132403
0.00809726
0.0047683
-0.00312387
0.0251387
0.025511
0.025754
0.0258238
0.0256437
0.0252168
0.0243643
0.0232417
0.0213861
0.0185323
0.0142078
0.0113873
0.0051556
0.0274609
0.0280168
0.0284644
0.0287705
0.0288611
0.0287388
0.02824
0.0275098
0.0261335
0.0237687
0.020231
0.0178877
0.0132616
0.0304922
0.0311404
0.0316726
0.0320286
0.0322023
0.0320476
0.0317001
0.0307827
0.0288901
0.0260973
0.0242236
0.0211147
0.0329138
0.0337581
0.0345074
0.0351146
0.0355713
0.0357485
0.0357726
0.0352948
0.0338545
0.0317551
0.0303335
0.0286415
0.0352553
0.0362888
0.0372485
0.0380936
0.0388179
0.0393071
0.0396856
0.0396184
0.0386076
0.0371493
0.0361607
0.0357743
0.03749
0.0387032
0.0398623
0.040932
0.0419083
0.0426871
0.0433974
0.043713
0.0431066
0.0422303
0.0416548
0.0424508
0.0409747
0.0423187
0.043597
0.0448065
0.0458536
0.0468658
0.0475338
0.0473028
0.0469513
0.0467662
0.0486177
0.0430735
0.0445893
0.0460594
0.0474805
0.0487721
0.0500591
0.0510434
0.0511552
0.0512688
0.0514475
0.0542312
0.044977
0.0466451
0.0482865
0.0498988
0.0514082
0.0529391
0.0542015
0.0546222
0.0551417
0.0556498
0.0592391
0.0466574
0.0484608
0.0502529
0.0520311
0.0537304
0.055474
0.056977
0.0576662
0.0585307
0.0593337
0.0636041
0.0480955
0.050013
0.0519324
0.0538515
0.055712
0.0576345
0.0593378
0.0602548
0.0614051
0.0624632
0.0672933
0.0492703
0.0512806
0.0533037
0.055337
0.0573275
0.0593947
0.0612591
0.0623601
0.0637345
0.0650087
0.0702774
0.0501664
0.0522472
0.0543488
0.0564683
0.0585576
0.0607338
0.0627188
0.0639605
0.0654989
0.0669459
0.0725343
0.0528995
0.0550538
0.0572312
0.0593869
0.0616361
0.0637013
0.0650384
0.0666822
0.0682536
0.0740477
0.0532276
0.0554084
0.0576147
0.0598039
0.0620894
0.0641942
0.0655808
0.0672742
0.0689198
0.0748047
0.0142226
0.0140233
0.0136668
0.0131008
0.012282
0.0111647
0.0096497
0.00772261
0.00510607
0.00198618
-0.00244178
-0.00787364
-0.016932
-0.0229118
-0.0376393
0.0161995
0.0161439
0.0159547
0.0155719
0.0149569
0.0140663
0.012816
0.0111825
0.00892899
0.00620594
0.00233056
-0.00264791
-0.0109593
-0.0161816
-0.0293102
0.0182034
0.0181815
0.017991
0.0175885
0.0169331
0.0159518
0.0146174
0.0127246
0.0103967
0.00704792
0.00257154
-0.00488443
-0.00948205
-0.0209248
0.020341
0.0204836
0.0204846
0.0203012
0.019887
0.0191784
0.0181492
0.0166211
0.0146992
0.0118724
0.00788328
0.00126439
-0.00273872
-0.0124063
0.0228012
0.0229893
0.0230242
0.0228546
0.0224212
0.021701
0.0205366
0.0190226
0.0167099
0.0132217
0.007436
0.0039721
-0.00391919
0.0251384
0.0255122
0.0257595
0.0258332
0.0256757
0.0252646
0.0244603
0.0233513
0.0215369
0.0185369
0.0135608
0.010627
0.00447039
0.0274657
0.0280247
0.0284798
0.0287906
0.028905
0.0287995
0.0283504
0.0276396
0.0263087
0.0237952
0.0195937
0.0171675
0.0126703
0.0305066
0.0311649
0.031705
0.0320847
0.032277
0.0321732
0.0318505
0.0309813
0.0289363
0.0254694
0.0235422
0.0206062
0.0329337
0.0337899
0.0345506
0.0351835
0.0356612
0.0358899
0.035942
0.0355137
0.0339196
0.0311372
0.0296915
0.0282067
0.0352806
0.0363272
0.0373005
0.0381738
0.0389224
0.0394647
0.0398732
0.0398573
0.03869
0.0365416
0.0355595
0.035406
0.0375207
0.0387482
0.0399224
0.0410224
0.0420255
0.0428605
0.0436025
0.0439709
0.0432049
0.0416334
0.0410923
0.0421436
0.0410255
0.0423868
0.0436972
0.0449361
0.0460417
0.0470896
0.0478096
0.047415
0.0463646
0.0462389
0.048366
0.0431303
0.0446643
0.0461678
0.0476212
0.048973
0.0502989
0.0513355
0.0512797
0.0506915
0.0509512
0.0540251
0.0450388
0.0467269
0.048403
0.0500491
0.0516207
0.0531937
0.0545089
0.0547569
0.0545723
0.0551825
0.0590738
0.0467242
0.0485482
0.050376
0.0521901
0.0539531
0.0557414
0.0572975
0.05781
0.0579689
0.0588923
0.0634733
0.0481662
0.0501054
0.0520615
0.0540179
0.0559431
0.0579125
0.0596695
0.060406
0.0608492
0.0620446
0.0671895
0.0493444
0.0513772
0.0534374
0.0555093
0.0575655
0.0596814
0.0615996
0.0625174
0.0631845
0.0646093
0.0701939
0.050243
0.0523469
0.0544861
0.0566452
0.0588008
0.0610271
0.0630658
0.0641219
0.0649536
0.0665613
0.0724642
0.0530012
0.0551936
0.0574113
0.0596336
0.0619337
0.0640524
0.0652022
0.0661404
0.0678806
0.0739844
0.0533305
0.0555494
0.0577965
0.0600524
0.0623893
0.0645471
0.0657453
0.0667348
0.0685544
0.0747423
0.0141963
0.0139907
0.0136299
0.0130635
0.01225
0.0111363
0.0096384
0.00771352
0.00513266
0.00200148
-0.00241617
-0.00795666
-0.017551
-0.0231273
-0.0384666
0.016178
0.0161176
0.0159229
0.0155401
0.0149323
0.0140477
0.0128173
0.0111903
0.00897778
0.00625235
0.00239936
-0.00271057
-0.0115534
-0.0164898
-0.029783
0.018186
0.0181593
0.0179673
0.0175725
0.016925
0.0159662
0.0146435
0.0127962
0.0104736
0.00715446
0.00254433
-0.00543187
-0.0097739
-0.0211364
0.0203311
0.0204715
0.0204711
0.020294
0.019889
0.0192056
0.0181935
0.016715
0.0148084
0.0120155
0.00788656
0.000755158
-0.00297929
-0.012407
0.0227984
0.022988
0.023029
0.0228693
0.0224636
0.0217648
0.0206543
0.0191632
0.0168876
0.0132603
0.00696337
0.00379839
-0.00374447
0.0251429
0.0255211
0.0257767
0.0258612
0.0257329
0.025347
0.0246009
0.0235239
0.0217487
0.0186089
0.0131227
0.0105263
0.0047957
0.0274775
0.0280432
0.0285096
0.0288333
0.0289787
0.0289013
0.0285135
0.0278422
0.0265529
0.0238991
0.0191863
0.0171413
0.0131285
0.0305343
0.0312067
0.031763
0.0321751
0.0323988
0.0323588
0.0320831
0.031257
0.0290703
0.0250919
0.0235889
0.0211835
0.0329697
0.0338424
0.0346231
0.035291
0.0358037
0.0360984
0.0362028
0.0358181
0.0340819
0.0307886
0.0298094
0.0288916
0.0353246
0.0363897
0.0373856
0.038297
0.0390847
0.0396959
0.0401615
0.0401895
0.0388788
0.0362212
0.0357463
0.0361887
0.0375725
0.0388201
0.0400196
0.0411602
0.0422062
0.0431136
0.0439169
0.0443289
0.0434179
0.0413402
0.041344
0.0430153
0.0411061
0.0424952
0.0438488
0.045134
0.0463151
0.0474295
0.0481923
0.0476502
0.0460971
0.0465507
0.0493175
0.0432196
0.044783
0.0463317
0.047835
0.049265
0.0506618
0.0517404
0.0515343
0.0504474
0.0513171
0.0550459
0.0451355
0.0468551
0.0485784
0.050277
0.0519292
0.0535773
0.0549343
0.0550284
0.0543491
0.0555975
0.0601551
0.046828
0.0486849
0.0505613
0.0524305
0.0542765
0.0561432
0.0577406
0.0580962
0.0577646
0.0593508
0.0646056
0.0482757
0.0502492
0.0522552
0.0542689
0.0562787
0.0583295
0.0601278
0.0607045
0.0606609
0.0625408
0.0683629
0.0494588
0.0515269
0.0536382
0.0557689
0.0579112
0.0601108
0.0620699
0.0628258
0.0630099
0.0651368
0.0713985
0.050361
0.0525011
0.0546921
0.0569115
0.0591541
0.0614658
0.0635452
0.0644374
0.0647897
0.0671132
0.0736904
0.0531585
0.0554031
0.057682
0.0599921
0.0623788
0.0645376
0.065522
0.0659843
0.0684506
0.0752226
0.0534893
0.0557608
0.0580695
0.0604135
0.0628376
0.065035
0.0660668
0.0665836
0.0691358
0.075984
0.0141682
0.0139576
0.0135931
0.0130284
0.0122213
0.0111164
0.00963813
0.00772689
0.00517931
0.00206143
-0.00240068
-0.00812298
-0.0180819
-0.0229313
-0.0383096
0.016156
0.0160925
0.0158942
0.0155143
0.0149154
0.0140435
0.0128367
0.0112304
0.00905816
0.00636191
0.00247035
-0.00285138
-0.0120258
-0.016256
-0.0293227
0.0181712
0.018142
0.0179532
0.0175685
0.0169369
0.0160054
0.0147101
0.0129088
0.0106275
0.00727333
0.00244808
-0.00583566
-0.00946657
-0.0204112
0.0203254
0.0204659
0.0204698
0.0203033
0.0199168
0.0192644
0.0182866
0.0168599
0.015008
0.0121785
0.00782985
0.000417566
-0.00257484
-0.0114538
0.0228045
0.0230013
0.0230542
0.0229151
0.0225443
0.0218857
0.0208332
0.0194077
0.0170951
0.0132476
0.0066877
0.00430886
-0.00259074
0.0251593
0.0255481
0.0258182
0.0259258
0.0258355
0.0254953
0.0248128
0.0238129
0.0219986
0.0186391
0.0129082
0.0111462
0.00612758
0.0275042
0.0280833
0.0285677
0.0289178
0.0291044
0.0290776
0.0287589
0.0281743
0.0268442
0.0239703
0.0190291
0.01787
0.0146211
0.0305872
0.0312809
0.0318677
0.0323241
0.0326031
0.0326372
0.032457
0.0315879
0.0291817
0.0249909
0.0244234
0.0228221
0.0330347
0.0339319
0.0347472
0.0354633
0.0360362
0.0364097
0.0366169
0.0361864
0.0342306
0.0307412
0.0307456
0.0306631
0.0354012
0.0364935
0.0375277
0.0384912
0.0393442
0.0400391
0.0406139
0.0405936
0.0390634
0.0362256
0.0367792
0.0380812
0.0376604
0.0389376
0.0401788
0.0413754
0.0424912
0.0434876
0.0444058
0.0447663
0.0436353
0.0413936
0.0424677
0.0450177
0.0412365
0.0426705
0.0440836
0.0454431
0.046718
0.0479527
0.048661
0.0478981
0.0461963
0.0477584
0.0514181
0.0433622
0.0449731
0.0465844
0.0481661
0.0496944
0.0512161
0.0522376
0.0518095
0.0505886
0.0526012
0.0572329
0.0452889
0.0470586
0.0488473
0.050628
0.0523826
0.0541595
0.0554575
0.0553279
0.0545281
0.0569502
0.0624169
0.0469913
0.0489004
0.0508446
0.0527989
0.0547509
0.0567496
0.0582863
0.0584167
0.057977
0.060764
0.0669301
0.0484474
0.0504749
0.0525508
0.0546522
0.056771
0.0589563
0.0606927
0.0610428
0.0609019
0.064006
0.0707382
0.0496374
0.051761
0.0539438
0.0561644
0.0584181
0.0607539
0.0626503
0.0631784
0.0632747
0.066645
0.0738123
0.0505449
0.0527416
0.0550053
0.0573162
0.0596722
0.0621211
0.0641374
0.0648006
0.0650729
0.0686552
0.0761305
0.0534033
0.0557214
0.0580929
0.0605177
0.063042
0.0651375
0.0658921
0.0662805
0.0700173
0.0776773
0.0537363
0.0560817
0.0584835
0.0609429
0.0635045
0.0656387
0.0664402
0.0668874
0.0707178
0.0784428
0.0141415
0.0139283
0.0135622
0.0130032
0.0122057
0.0111179
0.00966424
0.00778157
0.00526479
0.00219125
-0.00241382
-0.00842403
-0.0184706
-0.0223222
-0.0374128
0.0161376
0.0160738
0.0158753
0.0155038
0.0149178
0.0140686
0.0128922
0.0113241
0.00919316
0.00656355
0.00252113
-0.00311973
-0.0123205
-0.0155267
-0.0281458
0.0181649
0.0181373
0.0179586
0.0175894
0.016985
0.0160892
0.0148406
0.0130887
0.0108893
0.00738274
0.00223627
-0.00603277
-0.0086112
-0.0189746
0.0203307
0.0204758
0.0204921
0.0203435
0.0199882
0.0193774
0.018454
0.0170862
0.0153301
0.0123395
0.00767036
0.000319404
-0.00158066
-0.00978373
0.0228296
0.0230421
0.0231158
0.023012
0.0226884
0.0220914
0.0211072
0.0197892
0.0173111
0.0131438
0.00668339
0.00544495
-0.00070762
0.0251987
0.0256069
0.0259017
0.0260485
0.0260109
0.025739
0.0251342
0.0242517
0.0222657
0.0185914
0.0129968
0.012424
0.00820514
0.027558
0.0281602
0.0286735
0.0290675
0.0293119
0.0293598
0.0291278
0.0286696
0.0271623
0.0239763
0.0192067
0.0192867
0.0168773
0.0306816
0.0314086
0.0320442
0.0325637
0.0329233
0.0330529
0.0330062
0.0319546
0.029241
0.025255
0.0259742
0.0252425
0.0331463
0.0340808
0.0349498
0.0357346
0.0363942
0.0368715
0.0372182
0.0365995
0.0343401
0.0310879
0.0324245
0.0332344
0.0355293
0.0366627
0.0377554
0.0387931
0.0397383
0.0405456
0.0412642
0.0410508
0.0392216
0.0366512
0.0385792
0.0407906
0.0378043
0.0391263
0.0404302
0.0417063
0.04292
0.0440367
0.0451024
0.0452648
0.0438384
0.0418934
0.044381
0.0478525
0.0414434
0.0429442
0.0444417
0.0459042
0.0473072
0.0486921
0.049198
0.0481434
0.0467652
0.0497762
0.0543656
0.0435862
0.0452675
0.0469675
0.048657
0.0503204
0.0519944
0.0528098
0.0520929
0.0512206
0.0547142
0.06028
0.0455283
0.0473718
0.0492532
0.0511459
0.0530418
0.0549723
0.0560613
0.0556457
0.0552168
0.0591486
0.0655504
0.0472446
0.0492303
0.0512704
0.0533406
0.0554393
0.0575923
0.0589178
0.0587644
0.0587153
0.0630374
0.0701367
0.0487125
0.050819
0.0529937
0.0552141
0.0574843
0.0598241
0.0613478
0.061416
0.0616825
0.0663438
0.0740039
0.0499122
0.0521168
0.0544007
0.0567429
0.0591518
0.0616416
0.0633247
0.0635722
0.0640898
0.069036
0.0771233
0.0508272
0.0531063
0.0554729
0.0579073
0.0604213
0.0630235
0.0648265
0.0652099
0.0659145
0.071088
0.079473
0.053774
0.0561962
0.0586925
0.0612771
0.0639538
0.0658367
0.0663117
0.0671405
0.0724807
0.0810377
0.05411
0.05656
0.0590874
0.0617077
0.0644204
0.066343
0.066865
0.0677577
0.0731999
0.0818091
0.0141214
0.0139091
0.0135461
0.0129982
0.0122173
0.0111547
0.00973746
0.00788793
0.00541799
0.00236866
-0.00248484
-0.00883118
-0.0186214
-0.0213785
-0.0360954
0.0161289
0.0160689
0.0158763
0.0155199
0.0149555
0.0141388
0.0130069
0.0114838
0.00941613
0.00683411
0.00251421
-0.00347911
-0.0123421
-0.0144079
-0.0265561
0.0181755
0.0181568
0.0179963
0.0176529
0.0170871
0.0162433
0.0150493
0.0133726
0.0112345
0.00744429
0.0019503
-0.00592431
-0.00732335
-0.0171282
0.0203565
0.0205141
0.0205523
0.0204338
0.020123
0.0195723
0.0187122
0.017434
0.0157476
0.0124588
0.00745675
0.000559991
-0.000119492
-0.00769976
0.0228876
0.0231265
0.023235
0.0231814
0.0229257
0.0224005
0.0215196
0.0202783
0.0174947
0.0130035
0.00705111
0.00707821
0.00159809
0.0252763
0.0257153
0.0260502
0.026253
0.026291
0.0260986
0.0256112
0.0248091
0.0225093
0.0185264
0.0134896
0.0142259
0.0107173
0.0276553
0.0282929
0.0288517
0.0293079
0.0296354
0.0297704
0.0296688
0.0292941
0.0274655
0.0239839
0.0198201
0.0212524
0.0195819
0.0308383
0.0316164
0.0323203
0.0329301
0.0333842
0.0336569
0.0336945
0.0323149
0.029321
0.025985
0.0280972
0.0281262
0.0333265
0.0343174
0.0352611
0.0361433
0.0369046
0.037537
0.0379678
0.0370147
0.0344891
0.0319291
0.0346973
0.0362839
0.0357323
0.0369272
0.0381003
0.0392424
0.0402964
0.04127
0.0420716
0.0415181
0.0394371
0.037598
0.0409931
0.0439928
0.0380293
0.0394174
0.0408075
0.0421944
0.0435236
0.0448172
0.0459639
0.0457811
0.0441165
0.0429391
0.0469266
0.0511941
0.0417597
0.0433518
0.0449661
0.0465507
0.0481399
0.0496034
0.0497598
0.04848
0.0479026
0.0524432
0.0578331
0.0439259
0.0457032
0.0475254
0.049343
0.0512011
0.0529509
0.053413
0.052483
0.0524413
0.0574916
0.0638594
0.0458892
0.0478329
0.0498414
0.0518676
0.0539657
0.055969
0.056702
0.0560838
0.0565121
0.0620249
0.0692275
0.0476244
0.049714
0.0518855
0.054094
0.056401
0.0586238
0.0595913
0.0592448
0.0600758
0.0660006
0.0738966
0.0491085
0.0513221
0.0536316
0.0559946
0.058478
0.0608847
0.0620495
0.0619322
0.0630981
0.0693813
0.0778317
0.0503215
0.0526358
0.0550572
0.0575454
0.0601714
0.0627254
0.0640493
0.0641174
0.0655502
0.0721349
0.0810036
0.0512467
0.0536374
0.0561436
0.0587268
0.0614605
0.0641245
0.0655689
0.065777
0.0674089
0.074235
0.0833905
0.0543133
0.0568764
0.0595236
0.0623294
0.0650658
0.0665913
0.0668934
0.0686581
0.0756626
0.0849771
0.0546534
0.0572449
0.0599243
0.0627663
0.0655374
0.0671043
0.0674542
0.0692879
0.0764028
0.0857568
0.0141157
0.0139089
0.0135564
0.0130263
0.0122725
0.0112428
0.00987726
0.00805273
0.00566356
0.00253169
-0.0026633
-0.00927005
-0.0184919
-0.0202095