/*--------------------------------*- C++ -*----------------------------------*\
  =========                 |
  \\      /  F ield         | OpenFOAM: The Open Source CFD Toolbox
   \\    /   O peration     | Website:  https://openfoam.org
    \\  /    A nd           | Version:  6
     \\/     M anipulation  |
\*---------------------------------------------------------------------------*/
FoamFile
{
    version     2.0;
    format      ascii;
    class       volVectorField;
    location    "8";
    object      wallShearStress;
}
// * * * * * * * * * * * * * * * * * * * * * * * * * * * * * * * * * * * * * //

dimensions      [0 2 -2 0 0 0 0];

internalField   uniform (0 0 0);

boundaryField
{
    inlet
    {
        type            calculated;
        value           uniform (0 0 0);
    }
    outlet
    {
        type            calculated;
        value           uniform (0 0 0);
    }
    roughCylinder
    {
        type            calculated;
        value           nonuniform List<vector> 
5120
(
(-0.000119899 -0.000137672 -6.88105e-05)
(-0.000146112 -0.000236483 -6.6076e-05)
(-0.000223814 -0.000391723 -1.14432e-05)
(-0.000267948 -0.000465886 3.79235e-05)
(-0.000320436 -0.000526376 8.31354e-05)
(-0.000366023 -0.000556681 0.000121138)
(-0.000407212 -0.000570058 0.000151164)
(-0.000439486 -0.000567841 0.000171981)
(-0.00046682 -0.000560726 0.000186759)
(-0.000487927 -0.000551104 0.000197134)
(-0.000504721 -0.000542153 0.00020524)
(-0.000518048 -0.000534801 0.000211227)
(-0.000530314 -0.000531876 0.000215336)
(-0.000540903 -0.000531396 0.000216925)
(-0.000550305 -0.000533419 0.000216332)
(-0.000554856 -0.000533978 0.00021232)
(-0.000550028 -0.000527956 0.000203588)
(-0.000543968 -0.000521702 0.000193284)
(-0.00054941 -0.000526827 0.000185589)
(-0.00054551 -0.000524335 0.000173844)
(-0.000544086 -0.000524795 0.00016249)
(-0.000543695 -0.000526208 0.00015095)
(-0.000547572 -0.000531431 0.000139922)
(-0.000556331 -0.000541086 0.000129312)
(-0.000571305 -0.000557316 0.000119161)
(-0.000538975 -0.000528998 9.96894e-05)
(-0.000570124 -0.000559381 9.10777e-05)
(-0.000558544 -0.000550041 7.48625e-05)
(-0.000558169 -0.000551268 5.98113e-05)
(-0.000552694 -0.000547301 4.37525e-05)
(-0.000548208 -0.000543934 2.69767e-05)
(-0.000545576 -0.000541908 9.19445e-06)
(-9.42045e-05 -9.53886e-05 -4.44538e-05)
(-0.000157905 -0.000229858 -7.09646e-05)
(-0.000238919 -0.000382065 -1.94781e-05)
(-0.000285872 -0.000460457 2.92659e-05)
(-0.000340487 -0.000523768 7.453e-05)
(-0.000387669 -0.00055665 0.000113072)
(-0.000430714 -0.000572603 0.000143666)
(-0.000465191 -0.00057332 0.000165118)
(-0.000494495 -0.000568789 0.000180599)
(-0.000518497 -0.000562233 0.000192433)
(-0.000539114 -0.000556548 0.000202549)
(-0.000554855 -0.000549664 0.000209964)
(-0.0005679 -0.000545098 0.000214535)
(-0.000578497 -0.000543312 0.000216147)
(-0.000588002 -0.000544465 0.000215601)
(-0.000593003 -0.000544958 0.000211878)
(-0.000589229 -0.000539907 0.000203816)
(-0.000585322 -0.000535764 0.000194471)
(-0.000589862 -0.000539844 0.00018644)
(-0.000586021 -0.000537671 0.000174918)
(-0.000585729 -0.000539266 0.000164007)
(-0.000586975 -0.000542216 0.000152933)
(-0.000591325 -0.00054781 0.000141946)
(-0.000599196 -0.000556332 0.000130977)
(-0.000613802 -0.000571605 0.000120522)
(-0.000582357 -0.000545725 0.000101508)
(-0.000611934 -0.000573292 9.22232e-05)
(-0.000600527 -0.000564763 7.59986e-05)
(-0.000600879 -0.000566792 6.08494e-05)
(-0.000595565 -0.000563346 4.45962e-05)
(-0.000591458 -0.00056063 2.75521e-05)
(-0.000588928 -0.000558869 9.40171e-06)
(-0.000121171 -0.000106227 -4.27223e-05)
(-0.000165214 -0.000213645 -7.38178e-05)
(-0.000253497 -0.000367333 -2.79922e-05)
(-0.000302907 -0.000448925 1.94307e-05)
(-0.000359399 -0.000514836 6.44751e-05)
(-0.000409275 -0.000552003 0.000103763)
(-0.000454498 -0.000571115 0.000135039)
(-0.00049077 -0.000574504 0.000157184)
(-0.00052324 -0.000574061 0.000174057)
(-0.000550212 -0.000570703 0.000187513)
(-0.000571981 -0.000565531 0.000198556)
(-0.000589762 -0.000559485 0.00020706)
(-0.000605132 -0.000554699 0.000212551)
(-0.000617134 -0.000552516 0.000214775)
(-0.00062732 -0.000553122 0.000214509)
(-0.000632488 -0.000553077 0.000210978)
(-0.000630509 -0.000549453 0.000203783)
(-0.000627492 -0.000546118 0.00019493)
(-0.000630334 -0.000548586 0.00018646)
(-0.000626411 -0.000546588 0.0001752)
(-0.000627543 -0.000549443 0.000164842)
(-0.000630162 -0.000553543 0.000154187)
(-0.000635316 -0.00055974 0.000143385)
(-0.000642937 -0.000567798 0.000132298)
(-0.000659327 -0.000584027 0.000122007)
(-0.000629569 -0.000561281 0.000103536)
(-0.000658106 -0.000586648 9.36901e-05)
(-0.000646835 -0.000578911 7.74003e-05)
(-0.000647732 -0.000581547 6.20828e-05)
(-0.000642391 -0.000578465 4.55732e-05)
(-0.000638196 -0.000575972 2.81897e-05)
(-0.000635218 -0.000573989 9.62214e-06)
(-0.000109826 -8.22152e-05 -2.50804e-05)
(-0.000175594 -0.000200326 -7.79761e-05)
(-0.000265168 -0.000346707 -3.6709e-05)
(-0.0003174 -0.000431867 8.69428e-06)
(-0.000376368 -0.000501422 5.33595e-05)
(-0.000428126 -0.000541848 9.30516e-05)
(-0.000475501 -0.000564323 0.000124899)
(-0.000515284 -0.000572661 0.000148342)
(-0.000550514 -0.000575921 0.00016664)
(-0.000579943 -0.000575304 0.00018167)
(-0.000605974 -0.000573719 0.000194712)
(-0.000626591 -0.000569183 0.000204411)
(-0.000643926 -0.000564421 0.000210705)
(-0.000656315 -0.000560282 0.000213176)
(-0.00066644 -0.000559473 0.000213011)
(-0.000672649 -0.000559403 0.000209967)
(-0.000672237 -0.000556701 0.000203502)
(-0.000671104 -0.000554893 0.000195431)
(-0.000672685 -0.000556287 0.00018676)
(-0.000669473 -0.000555102 0.000175995)
(-0.000672337 -0.000559323 0.000166213)
(-0.000676036 -0.000564227 0.000155864)
(-0.000681911 -0.000570898 0.000145207)
(-0.000688937 -0.000578277 0.00013394)
(-0.000704318 -0.000593019 0.000123292)
(-0.000676231 -0.000573264 0.000105339)
(-0.000702152 -0.000595319 9.48129e-05)
(-0.000691489 -0.000588796 7.8568e-05)
(-0.000692975 -0.000592094 6.31388e-05)
(-0.000687899 -0.000589666 4.64433e-05)
(-0.000684157 -0.000587896 2.87856e-05)
(-0.000681304 -0.000586244 9.83767e-06)
(-0.000158383 -9.94924e-05 -1.69152e-05)
(-0.000179255 -0.000179183 -7.89832e-05)
(-0.000274552 -0.000322337 -4.51836e-05)
(-0.000328875 -0.000409772 -2.53453e-06)
(-0.000388852 -0.000481211 4.11209e-05)
(-0.000443721 -0.000526566 8.11334e-05)
(-0.000494627 -0.000554118 0.000113737)
(-0.000536901 -0.000566281 0.000138213)
(-0.000575453 -0.00057383 0.000158185)
(-0.000608802 -0.000577349 0.000175268)
(-0.000636214 -0.00057657 0.000189408)
(-0.000658671 -0.00057275 0.000199993)
(-0.000678082 -0.000568655 0.000207098)
(-0.000693325 -0.000565029 0.000210688)
(-0.000704955 -0.000563356 0.000211181)
(-0.000711749 -0.000562608 0.000208509)
(-0.000713504 -0.000561091 0.000202935)
(-0.000713038 -0.000559619 0.000195296)
(-0.000713164 -0.000559882 0.00018651)
(-0.00071046 -0.000559255 0.000176234)
(-0.000715102 -0.000564723 0.000167064)
(-0.000719486 -0.000570069 0.000156982)
(-0.000726254 -0.000577325 0.000146572)
(-0.000733595 -0.000584855 0.000135383)
(-0.000750084 -0.000599948 0.000124808)
(-0.000724352 -0.000583584 0.000107405)
(-0.000748457 -0.000603291 9.63471e-05)
(-0.000738227 -0.000597802 8.006e-05)
(-0.000739971 -0.000601492 6.44329e-05)
(-0.000734922 -0.000599524 4.74759e-05)
(-0.000731086 -0.000598013 2.94607e-05)
(-0.000727751 -0.000596217 1.00724e-05)
(-0.000164445 -8.48881e-05 1.50916e-06)
(-0.000181934 -0.000157889 -7.95022e-05)
(-0.000278483 -0.000291981 -5.25707e-05)
(-0.000334935 -0.000381122 -1.38922e-05)
(-0.000397924 -0.0004569 2.81347e-05)
(-0.000455354 -0.000506521 6.80254e-05)
(-0.000508503 -0.000537787 0.000100946)
(-0.000555184 -0.000555823 0.000126873)
(-0.000597518 -0.000567891 0.000148632)
(-0.000632986 -0.000573616 0.00016722)
(-0.000664884 -0.000576443 0.000183331)
(-0.000691095 -0.000575012 0.000195444)
(-0.000712986 -0.000571938 0.00020356)
(-0.000729406 -0.000567985 0.000207765)
(-0.000741978 -0.000565112 0.000208807)
(-0.000750323 -0.000563757 0.00020687)
(-0.000753666 -0.000562325 0.000201987)
(-0.000754954 -0.000561926 0.000195135)
(-0.000754775 -0.000562001 0.000186625)
(-0.000753286 -0.000562382 0.000177018)
(-0.000759705 -0.000568935 0.000168427)
(-0.000764432 -0.000574438 0.000158536)
(-0.000771703 -0.000581938 0.00014829)
(-0.000779333 -0.000589594 0.000137171)
(-0.000793517 -0.000602542 0.000126127)
(-0.000770027 -0.000589518 0.000109259)
(-0.000790761 -0.000606153 9.75836e-05)
(-0.000781397 -0.000602212 8.13628e-05)
(-0.000783334 -0.000606487 6.55911e-05)
(-0.000778599 -0.000605393 4.84362e-05)
(-0.000775193 -0.000604716 3.01176e-05)
(-0.000771994 -0.000603371 1.03109e-05)
(-0.000127627 -5.28059e-05 1.51065e-05)
(-0.000181422 -0.000134712 -7.80478e-05)
(-0.000279869 -0.000260583 -5.9343e-05)
(-0.000337616 -0.00034964 -2.50398e-05)
(-0.000400253 -0.000426028 1.4357e-05)
(-0.000460697 -0.000480562 5.36007e-05)
(-0.000518718 -0.000518352 8.71012e-05)
(-0.000568797 -0.000541035 0.000114175)
(-0.000614422 -0.000556886 0.000137537)
(-0.000655026 -0.000567246 0.000158294)
(-0.000689092 -0.000571424 0.000175673)
(-0.000717132 -0.000570839 0.000188817)
(-0.000741021 -0.000568596 0.000197942)
(-0.000760403 -0.000565934 0.00020337)
(-0.000775762 -0.000563905 0.000205552)
(-0.000785842 -0.00056222 0.00020443)
(-0.000792002 -0.000561543 0.0002007)
(-0.000794013 -0.000560935 0.000194438)
(-0.000793509 -0.00056062 0.00018628)
(-0.000792791 -0.000561537 0.000177288)
(-0.000800711 -0.000568903 0.000169274)
(-0.000805594 -0.000574568 0.000159631)
(-0.000813447 -0.00058253 0.000149655)
(-0.00082198 -0.000590932 0.000138792)
(-0.000836077 -0.000603741 0.000127729)
(-0.000815153 -0.000594145 0.000111378)
(-0.00083331 -0.000608742 9.92156e-05)
(-0.000824157 -0.000605866 8.29358e-05)
(-0.000825687 -0.000610377 6.69299e-05)
(-0.000820737 -0.000609809 4.95012e-05)
(-0.000816965 -0.000609394 3.08108e-05)
(-0.00081317 -0.000607972 1.05521e-05)
(-0.000129506 -4.12125e-05 2.90956e-05)
(-0.000178302 -0.00011105 -7.44491e-05)
(-0.000272884 -0.000223848 -6.43177e-05)
(-0.000331188 -0.000310778 -3.51515e-05)
(-0.00039692 -0.000391207 3.15909e-07)
(-0.000460597 -0.000450889 3.8238e-05)
(-0.000520751 -0.000492481 7.16454e-05)
(-0.000575714 -0.000521111 9.99476e-05)
(-0.000626622 -0.000542222 0.000125151)
(-0.000669555 -0.000554416 0.000147254)
(-0.000708374 -0.000561939 0.000166439)
(-0.000741166 -0.000564453 0.000181394)
(-0.000768768 -0.000564313 0.000192106)
(-0.000790081 -0.000562199 0.000198631)
(-0.000806166 -0.000559682 0.000201536)
(-0.000818366 -0.000558399 0.000201471)
(-0.000826323 -0.000558026 0.000198705)
(-0.000830554 -0.000558179 0.000193474)
(-0.000831256 -0.000558473 0.000186155)
(-0.000831976 -0.000560277 0.000177979)
(-0.000841152 -0.000568208 0.000170521)
(-0.000845857 -0.00057386 0.000161094)
(-0.000853476 -0.000581757 0.000151257)
(-0.000862457 -0.000590574 0.000140565)
(-0.000872573 -0.000600687 0.000128915)
(-0.000853951 -0.000593961 0.000113038)
(-0.000868171 -0.000605807 0.000100332)
(-0.00085962 -0.00060411 8.41082e-05)
(-0.000860648 -0.000608741 6.79442e-05)
(-0.000855819 -0.000608858 5.03436e-05)
(-0.000852213 -0.000609047 3.13855e-05)
(-0.000848542 -0.000608084 1.07623e-05)
(-0.00013899 -3.14243e-05 4.60627e-05)
(-0.000176274 -9.01728e-05 -7.0444e-05)
(-0.00026467 -0.000188845 -6.83685e-05)
(-0.000321961 -0.000271957 -4.4212e-05)
(-0.000384832 -0.000350548 -1.35294e-05)
(-0.000450448 -0.000414195 2.19514e-05)
(-0.0005165 -0.000463248 5.52131e-05)
(-0.000576 -0.000497251 8.44313e-05)
(-0.000630143 -0.000521511 0.000110853)
(-0.000679539 -0.000538618 0.000134955)
(-0.000721869 -0.000548124 0.00015554)
(-0.000757015 -0.000551723 0.000171712)
(-0.000786819 -0.000552587 0.000183708)
(-0.000811488 -0.00055217 0.000191827)
(-0.000831195 -0.000551375 0.000196345)
(-0.000845284 -0.000550534 0.000197435)
(-0.000855744 -0.000551071 0.000195908)
(-0.000861134 -0.000551509 0.000191588)
(-0.000862661 -0.000552232 0.000185143)
(-0.000864088 -0.000554405 0.000177717)
(-0.000874015 -0.000562492 0.000170807)
(-0.000878608 -0.000568145 0.00016171)
(-0.000886214 -0.000576057 0.000152138)
(-0.000895639 -0.000585095 0.000141673)
(-0.000904643 -0.000594635 0.000129969)
(-0.000888875 -0.000590871 0.000114627)
(-0.00090032 -0.000601071 0.000101568)
(-0.000891812 -0.000600086 8.53334e-05)
(-0.000892031 -0.000604652 6.89912e-05)
(-0.000886861 -0.000605099 5.11866e-05)
(-0.000882703 -0.000605381 3.19383e-05)
(-0.000878375 -0.000604339 1.09561e-05)
(-0.000152577 -2.07774e-05 6.72455e-05)
(-0.000166259 -6.81038e-05 -6.27109e-05)
(-0.000246408 -0.000150092 -6.86311e-05)
(-0.000300231 -0.000226305 -5.01399e-05)
(-0.000365318 -0.000306526 -2.62565e-05)
(-0.000433925 -0.000375046 5.59998e-06)
(-0.000501366 -0.000427609 3.76634e-05)
(-0.000565689 -0.000467219 6.73369e-05)
(-0.000626889 -0.000497579 9.52269e-05)
(-0.000679285 -0.000516439 0.000120418)
(-0.000726733 -0.000528827 0.000142566)
(-0.000767708 -0.00053575 0.000160666)
(-0.000802786 -0.000539518 0.000174702)
(-0.000830544 -0.000540455 0.000184474)
(-0.000851324 -0.000539702 0.000190177)
(-0.000867664 -0.000539662 0.000192675)
(-0.000879534 -0.000540503 0.00019228)
(-0.000886917 -0.000541852 0.000189189)
(-0.000890324 -0.000543678 0.000183922)
(-0.000893036 -0.000546589 0.000177421)
(-0.000903568 -0.000554727 0.000171087)
(-0.00090794 -0.00056032 0.00016235)
(-0.000914731 -0.000567724 0.000152939)
(-0.000924074 -0.000576555 0.000142644)
(-0.000928122 -0.000583264 0.000130414)
(-0.000914422 -0.000581676 0.000115561)
(-0.000921872 -0.000589707 0.000102139)
(-0.000913578 -0.000589495 8.60262e-05)
(-0.000912708 -0.000593858 6.96058e-05)
(-0.000907471 -0.000594799 5.17301e-05)
(-0.000903176 -0.000595462 3.23247e-05)
(-0.00089899 -0.000594917 1.11039e-05)
(-0.000162728 -7.85203e-06 9.03562e-05)
(-0.000162384 -5.12755e-05 -5.69443e-05)
(-0.000230404 -0.000116894 -6.7642e-05)
(-0.0002785 -0.000184815 -5.3911e-05)
(-0.000336179 -0.000258316 -3.68073e-05)
(-0.000403805 -0.0003282 -1.01331e-05)
(-0.000477233 -0.000388278 1.98239e-05)
(-0.000546975 -0.000433988 4.93207e-05)
(-0.000611153 -0.00046714 7.76213e-05)
(-0.000671397 -0.000491313 0.000104375)
(-0.000724182 -0.00050627 0.000127995)
(-0.000768576 -0.000514252 0.000147462)
(-0.000806181 -0.000518721 0.000162916)
(-0.000837572 -0.000521295 0.00017453)
(-0.000862992 -0.000522887 0.000182363)
(-0.00088172 -0.000523813 0.000186475)
(-0.000896043 -0.000525703 0.000187619)
(-0.000904559 -0.000527515 0.000185727)
(-0.000909111 -0.000530002 0.000181595)
(-0.000912162 -0.000533122 0.00017594)
(-0.000922525 -0.000540881 0.000170165)
(-0.000926662 -0.000546415 0.00016191)
(-0.000932959 -0.00055354 0.00015283)
(-0.000941626 -0.000561758 0.00014272)
(-0.000944269 -0.0005681 0.000130614)
(-0.000932952 -0.000568652 0.000116316)
(-0.000937579 -0.000575541 0.000102721)
(-0.000928804 -0.000575643 8.66794e-05)
(-0.000926582 -0.000579721 7.01886e-05)
(-0.000920569 -0.000580701 5.22166e-05)
(-0.000915348 -0.000581267 3.26542e-05)
(-0.000910322 -0.000580604 1.12217e-05)
(-0.000170875 6.62032e-06 0.000115733)
(-0.000151828 -3.48198e-05 -4.86368e-05)
(-0.000202682 -8.29363e-05 -6.11e-05)
(-0.000242356 -0.000138852 -5.21379e-05)
(-0.000299769 -0.000208916 -4.39413e-05)
(-0.000367965 -0.000281009 -2.41679e-05)
(-0.000440188 -0.000342883 2.25808e-06)
(-0.000513573 -0.000393513 3.03719e-05)
(-0.000586409 -0.000434012 5.89171e-05)
(-0.000650476 -0.000460569 8.61767e-05)
(-0.000709033 -0.000478338 0.000111118)
(-0.000760539 -0.000489382 0.000132601)
(-0.000805123 -0.00049664 0.000150356)
(-0.000840935 -0.000500783 0.000163995)
(-0.000867729 -0.000502569 0.000173416)
(-0.000888853 -0.000504495 0.000179354)
(-0.000904364 -0.000506767 0.000181961)
(-0.000914676 -0.000509503 0.000181565)
(-0.000921151 -0.000513111 0.000178843)
(-0.000925139 -0.000516848 0.000174246)
(-0.000935298 -0.000524276 0.000169115)
(-0.000938964 -0.000529636 0.000161367)
(-0.00094367 -0.0005359 0.000152485)
(-0.000950983 -0.00054315 0.00014251)
(-0.000948195 -0.000547013 0.00013006)
(-0.000937889 -0.000548644 0.000116226)
(-0.000938542 -0.000553955 0.000102458)
(-0.000929236 -0.000554381 8.66315e-05)
(-0.000925227 -0.000558011 7.01887e-05)
(-0.00091866 -0.000559189 5.22877e-05)
(-0.000912847 -0.000559922 3.27422e-05)
(-0.000907888 -0.000559773 1.12689e-05)
(-0.0001691 2.09793e-05 0.000136014)
(-0.000152379 -2.2975e-05 -4.4018e-05)
(-0.000184317 -5.85318e-05 -5.51023e-05)
(-0.000212269 -0.00010196 -4.82455e-05)
(-0.000254575 -0.000158445 -4.61449e-05)
(-0.000315853 -0.000226159 -3.45255e-05)
(-0.00039248 -0.00029393 -1.37732e-05)
(-0.000470891 -0.000350699 1.16589e-05)
(-0.000545437 -0.000393671 3.88917e-05)
(-0.000618388 -0.000426592 6.65296e-05)
(-0.000684158 -0.000448307 9.2643e-05)
(-0.000740678 -0.000460948 0.000115721)
(-0.000788542 -0.000468212 0.000135159)
(-0.000828129 -0.00047296 0.000150773)
(-0.000860482 -0.000476789 0.000162672)
(-0.000884365 -0.000479699 0.00017057)
(-0.000902223 -0.000483112 0.000175049)
(-0.000913498 -0.000486424 0.000176182)
(-0.00092076 -0.00049057 0.000174797)
(-0.000924517 -0.000494374 0.00017117)
(-0.000933418 -0.000500973 0.000166621)
(-0.000936271 -0.000506012 0.000159443)
(-0.000939833 -0.000511798 0.00015094)
(-0.000945052 -0.000517885 0.000141108)
(-0.000941141 -0.000522111 0.000129075)
(-0.000931922 -0.000524876 0.000115777)
(-0.000929664 -0.000529671 0.000102034)
(-0.000919139 -0.000530104 8.64067e-05)
(-0.000913099 -0.000533426 7.00524e-05)
(-0.000905058 -0.000534315 5.22161e-05)
(-0.000897782 -0.000534799 3.27186e-05)
(-0.000891686 -0.00053445 1.12652e-05)
(-0.000157554 3.22193e-05 0.000146915)
(-0.000150638 -1.18371e-05 -3.87504e-05)
(-0.000142199 -3.35033e-05 -4.08102e-05)
(-0.000166006 -6.42611e-05 -3.74587e-05)
(-0.000205923 -0.000111696 -4.2901e-05)
(-0.00026255 -0.000175207 -4.08079e-05)
(-0.00033127 -0.000239743 -2.69124e-05)
(-0.000410129 -0.00029949 -6.03075e-06)
(-0.000494345 -0.000351066 1.89007e-05)
(-0.000571219 -0.000387236 4.55598e-05)
(-0.000643062 -0.000412614 7.21117e-05)
(-0.000707643 -0.000429205 9.69346e-05)
(-0.000764154 -0.000439882 0.000118962)
(-0.000809864 -0.000446147 0.000137132)
(-0.000843816 -0.000449379 0.000150952)
(-0.000870092 -0.000452628 0.000160947)
(-0.000888895 -0.000455995 0.000167147)
(-0.000901575 -0.000459943 0.000169975)
(-0.000910106 -0.000464928 0.000170115)
(-0.000914137 -0.000469272 0.000167652)
(-0.000921846 -0.000475471 0.000163817)
(-0.000923512 -0.000480209 0.000157232)
(-0.00092446 -0.000485089 0.000148926)
(-0.000926999 -0.000490144 0.000139248)
(-0.000917435 -0.000492393 0.000127109)
(-0.00090736 -0.000495157 0.00011422)
(-0.000901035 -0.000498936 0.00010052)
(-0.000889041 -0.000499305 8.52418e-05)
(-0.000880477 -0.000502079 6.91268e-05)
(-0.000871174 -0.000502809 5.15688e-05)
(-0.000862814 -0.000503285 3.23522e-05)
(-0.000856604 -0.000503343 1.11572e-05)
(-0.000139278 3.80232e-05 0.000144829)
(-0.000151969 -2.35513e-06 -3.44504e-05)
(-0.000136131 -2.25053e-05 -3.60171e-05)
(-0.000133167 -3.94376e-05 -2.71782e-05)
(-0.000150925 -6.8457e-05 -3.33919e-05)
(-0.000191894 -0.000118216 -3.90255e-05)
(-0.000261279 -0.000184027 -3.53595e-05)
(-0.000341907 -0.000247678 -2.13657e-05)
(-0.000424277 -0.000300051 -5.14796e-07)
(-0.000510657 -0.000343814 2.43271e-05)
(-0.000590936 -0.000374805 5.08587e-05)
(-0.000661398 -0.000394479 7.68068e-05)
(-0.000721315 -0.000406168 0.000100496)
(-0.000770589 -0.000413096 0.000120823)
(-0.000810959 -0.000418339 0.000137458)
(-0.000840218 -0.000422243 0.000149704)
(-0.000861268 -0.000426227 0.000157989)
(-0.000874514 -0.000430305 0.000162474)
(-0.000882854 -0.00043531 0.000163977)
(-0.000885753 -0.000439476 0.000162522)
(-0.000890942 -0.000444791 0.000159291)
(-0.000890692 -0.000448993 0.00015329)
(-0.000889576 -0.000453487 0.000145376)
(-0.000888812 -0.000457408 0.000135878)
(-0.000878716 -0.000460473 0.000124488)
(-0.000867964 -0.000463349 0.000112098)
(-0.000858546 -0.000466731 9.86012e-05)
(-0.000844503 -0.000466905 8.36939e-05)
(-0.000833206 -0.000469057 6.78809e-05)
(-0.000821614 -0.000469132 5.06246e-05)
(-0.000811214 -0.000469082 3.17677e-05)
(-0.000803506 -0.000468699 1.09569e-05)
(-0.000120288 3.85954e-05 0.000132829)
(-0.000149293 5.51322e-06 -2.98997e-05)
(-0.000119826 -1.3418e-05 -2.80839e-05)
(-8.15781e-05 -1.73941e-05 -1.27185e-05)
(-9.95702e-05 -3.50748e-05 -2.03505e-05)
(-0.000132958 -7.39836e-05 -3.30325e-05)
(-0.000180411 -0.000125127 -3.69577e-05)
(-0.000254413 -0.000186454 -3.18589e-05)
(-0.0003466 -0.000248095 -1.77517e-05)
(-0.000435239 -0.000294882 3.769e-06)
(-0.000521209 -0.00033038 2.92916e-05)
(-0.000599786 -0.00035524 5.60607e-05)
(-0.0006686 -0.000371862 8.18603e-05)
(-0.000724672 -0.000381963 0.000104753)
(-0.000766009 -0.000387115 0.000123338)
(-0.000797228 -0.000391391 0.000137719)
(-0.000818799 -0.000395228 0.000147822)
(-0.000832905 -0.000399589 0.00015408)
(-0.000841554 -0.000404813 0.000157102)
(-0.000843909 -0.000409077 0.00015681)
(-0.000846818 -0.000413811 0.000154267)
(-0.00084426 -0.000417522 0.00014882)
(-0.000839381 -0.000421001 0.000141022)
(-0.000834873 -0.00042386 0.000131667)
(-0.000818713 -0.00042481 0.000120325)
(-0.000804668 -0.0004264 0.000108237)
(-0.000790918 -0.000428437 9.49487e-05)
(-0.000774454 -0.000427995 8.06113e-05)
(-0.000759994 -0.000429021 6.53293e-05)
(-0.000746405 -0.000428413 4.87039e-05)
(-0.000734545 -0.000427979 3.05836e-05)
(-0.000726541 -0.000427697 1.05641e-05)
(-0.000102449 3.49046e-05 0.000111798)
(-0.000138717 9.99621e-06 -2.52609e-05)
(-0.000108213 -8.53873e-06 -2.13588e-05)
(-7.15535e-05 -1.02649e-05 -5.35246e-06)
(-4.97035e-05 -1.14269e-05 -6.37249e-06)
(-5.09496e-05 -2.41674e-05 -1.40853e-05)
(-0.000102192 -7.1328e-05 -3.13618e-05)
(-0.000168205 -0.000128825 -3.7481e-05)
(-0.000249517 -0.000185514 -3.06568e-05)
(-0.000348086 -0.000241302 -1.41921e-05)
(-0.0004424 -0.000283662 9.54749e-06)
(-0.000526103 -0.000312747 3.64066e-05)
(-0.00059686 -0.000331407 6.30261e-05)
(-0.000654403 -0.000343053 8.71966e-05)
(-0.000701577 -0.000351725 0.000108017)
(-0.000735179 -0.000357442 0.000124322)
(-0.000758487 -0.000362281 0.000136319)
(-0.000772348 -0.000366687 0.0001441)
(-0.000779398 -0.000371352 0.000148291)
(-0.000779375 -0.000374866 0.000148832)
(-0.000778325 -0.000378349 0.000146707)
(-0.000772317 -0.00038105 0.000141662)
(-0.000764244 -0.00038378 0.000134116)
(-0.000755661 -0.000385329 0.000124921)
(-0.000740105 -0.000387077 0.000114751)
(-0.000723956 -0.00038788 0.000103202)
(-0.000707527 -0.000389043 9.03552e-05)
(-0.000688703 -0.000387728 7.66896e-05)
(-0.000671351 -0.000387491 6.20781e-05)
(-0.000655151 -0.000385636 4.61904e-05)
(-0.000641118 -0.000384177 2.8979e-05)
(-0.000631401 -0.000382982 1.00016e-05)
(-9.02384e-05 2.94729e-05 8.9075e-05)
(-0.000130119 1.14933e-05 -2.23158e-05)
(-0.000101939 -6.20796e-06 -1.60014e-05)
(-6.16357e-05 -5.80117e-06 1.70333e-06)
(-3.40706e-05 -3.6745e-06 1.91512e-06)
(-2.04074e-05 -7.83193e-06 -3.53252e-06)
(-2.17479e-05 -1.78488e-05 -1.16819e-05)
(-6.88276e-05 -6.01747e-05 -3.04285e-05)
(-0.000157838 -0.000126473 -3.906e-05)
(-0.000251461 -0.000182098 -2.7474e-05)
(-0.000348748 -0.000229313 -6.11375e-06)
(-0.00043857 -0.000264755 1.99321e-05)
(-0.000516341 -0.000289687 4.688e-05)
(-0.000579377 -0.000306093 7.20047e-05)
(-0.000624765 -0.000315312 9.32744e-05)
(-0.00065852 -0.000322158 0.000110597)
(-0.000680896 -0.000327291 0.000123655)
(-0.000694391 -0.000332042 0.000132732)
(-0.000700495 -0.000336678 0.000138105)
(-0.000699147 -0.000340034 0.000139598)
(-0.000695157 -0.000342845 0.000138003)
(-0.000685997 -0.000344689 0.00013333)
(-0.000673644 -0.000346022 0.000125719)
(-0.000661343 -0.00034618 0.000116646)
(-0.000639086 -0.000344418 0.000106547)
(-0.000617582 -0.000342425 9.52014e-05)
(-0.000596891 -0.000341162 8.27627e-05)
(-0.000575177 -0.000338088 7.00385e-05)
(-0.00055467 -0.000335792 5.64787e-05)
(-0.000536314 -0.000332445 4.18809e-05)
(-0.000520938 -0.000329962 2.62368e-05)
(-0.000511141 -0.000328498 9.06174e-06)
(-7.56385e-05 2.30556e-05 6.3806e-05)
(-0.000110048 1.05632e-05 -1.85425e-05)
(-9.58234e-05 -3.94718e-06 -1.18669e-05)
(-5.32312e-05 -1.47788e-06 7.67629e-06)
(-1.987e-05 4.71795e-06 9.63311e-06)
(2.77436e-06 6.33601e-06 4.02493e-06)
(9.75011e-06 3.22954e-06 -6.12894e-06)
(-6.66422e-06 -1.30344e-05 -1.92785e-05)
(-5.47054e-05 -4.92766e-05 -2.95679e-05)
(-0.00015579 -0.000119104 -3.1656e-05)
(-0.000255116 -0.000173973 -1.36639e-05)
(-0.000343912 -0.000213681 1.00156e-05)
(-0.000418445 -0.000241026 3.46418e-05)
(-0.000478323 -0.00025925 5.77428e-05)
(-0.000528017 -0.000273373 7.86369e-05)
(-0.000562549 -0.000282435 9.59097e-05)
(-0.000585544 -0.000289109 0.000109562)
(-0.000597386 -0.000293902 0.000119248)
(-0.000600103 -0.000297524 0.000125026)
(-0.00059477 -0.00029948 0.000126714)
(-0.000585695 -0.00030047 0.000125039)
(-0.00057185 -0.000300452 0.000120313)
(-0.000555746 -0.000300218 0.000112657)
(-0.000539466 -0.000298179 0.000103654)
(-0.000519985 -0.000297114 9.53657e-05)
(-0.000496697 -0.000293788 8.48271e-05)
(-0.000475036 -0.000291184 7.32787e-05)
(-0.000452095 -0.000286663 6.18209e-05)
(-0.00042987 -0.000282515 4.96112e-05)
(-0.000409936 -0.000277479 3.65741e-05)
(-0.000393296 -0.000273521 2.28049e-05)
(-0.000381941 -0.000270516 7.84184e-06)
(-6.19593e-05 1.88808e-05 4.56428e-05)
(-0.000113214 1.25862e-05 -1.86812e-05)
(-9.12875e-05 -8.73911e-07 -1.01426e-05)
(-4.87324e-05 3.88867e-06 9.05708e-06)
(-1.29697e-05 1.00426e-05 6.123e-06)
(1.54959e-05 1.19542e-05 4.54281e-07)
(2.16356e-05 1.29924e-05 2.1959e-06)
(1.35006e-05 1.10818e-05 -6.13629e-06)
(-1.02924e-05 -8.30057e-06 -1.37182e-05)
(-7.04158e-05 -5.47897e-05 -1.85846e-05)
(-0.000155765 -0.000111439 -7.60997e-06)
(-0.000241208 -0.000157974 1.04537e-05)
(-0.000316636 -0.000192252 2.97739e-05)
(-0.000378867 -0.000216343 4.87948e-05)
(-0.000422078 -0.000230267 6.58632e-05)
(-0.000454264 -0.000240355 8.11586e-05)
(-0.000474279 -0.000247032 9.377e-05)
(-0.000484237 -0.000251895 0.000103356)
(-0.000485028 -0.000255259 0.000109362)
(-0.000478142 -0.000256943 0.000111369)
(-0.000466583 -0.000257165 0.0001098)
(-0.000450054 -0.000255941 0.000105099)
(-0.000430675 -0.000253823 9.71695e-05)
(-0.00041268 -0.000250021 8.83837e-05)
(-0.000385877 -0.000243165 7.99492e-05)
(-0.00035686 -0.000235255 6.9561e-05)
(-0.000331985 -0.000228749 5.87417e-05)
(-0.000306943 -0.000221009 4.88423e-05)
(-0.00028281 -0.000213584 3.85595e-05)
(-0.00026186 -0.000206105 2.80018e-05)
(-0.0002449 -0.000200324 1.725e-05)
(-0.000234604 -0.000196935 5.91431e-06)
(-5.04053e-05 1.62731e-05 3.56747e-05)
(-9.66912e-05 1.22994e-05 -1.51484e-05)
(-8.61207e-05 9.58508e-07 -8.95808e-06)
(-4.25495e-05 3.93186e-06 7.32647e-06)
(6.02265e-06 5.68095e-06 5.51702e-06)
(1.76467e-05 8.26344e-06 1.03827e-05)
(2.06162e-05 1.16059e-05 1.57192e-05)
(1.3005e-05 9.28976e-06 1.57048e-05)
(1.02755e-06 1.32604e-06 1.17761e-05)
(-1.68651e-05 -1.38937e-05 7.23129e-06)
(-7.81809e-05 -6.32416e-05 1.50207e-05)
(-0.000139848 -0.000104191 2.23397e-05)
(-0.000200175 -0.000137118 3.12324e-05)
(-0.000252025 -0.000160436 4.12419e-05)
(-0.000299598 -0.000180308 5.33379e-05)
(-0.000331767 -0.000192574 6.50302e-05)
(-0.000351837 -0.000200693 7.58802e-05)
(-0.000359043 -0.000205039 8.42743e-05)
(-0.000355127 -0.00020645 8.91256e-05)
(-0.000342972 -0.000205486 8.99143e-05)
(-0.000326156 -0.000202667 8.71855e-05)
(-0.000305051 -0.000198098 8.15978e-05)
(-0.000283044 -0.000193134 7.33499e-05)
(-0.000262296 -0.000185511 6.4609e-05)
(-0.000242556 -0.000180175 5.90551e-05)
(-0.000216152 -0.000171475 5.03514e-05)
(-0.000194375 -0.000164058 4.13922e-05)
(-0.000171954 -0.000155143 3.3851e-05)
(-0.000149813 -0.000145967 2.60708e-05)
(-0.000130592 -0.000136919 1.84636e-05)
(-0.000114981 -0.000129588 1.1063e-05)
(-0.000104125 -0.000123731 3.68665e-06)
(-4.19174e-05 1.33419e-05 2.69584e-05)
(-8.83778e-05 1.13407e-05 -1.379e-05)
(-8.10688e-05 2.8444e-06 -6.4484e-06)
(-3.55772e-05 3.2563e-06 1.15451e-05)
(-1.77093e-06 9.54871e-06 1.63005e-05)
(1.0342e-05 1.25014e-05 2.13768e-05)
(2.02412e-05 1.26638e-05 2.66539e-05)
(2.56517e-05 8.37862e-06 3.13722e-05)
(2.35976e-05 1.65156e-06 3.39416e-05)
(1.47105e-05 -7.35664e-06 3.40762e-05)
(-2.05684e-06 -1.71528e-05 2.58815e-05)
(-3.73266e-05 -5.23979e-05 3.60363e-05)
(-8.83526e-05 -8.73524e-05 3.70195e-05)
(-0.000142315 -0.000115683 3.8545e-05)
(-0.000178554 -0.000130388 4.12569e-05)
(-0.00020642 -0.000141472 4.75239e-05)
(-0.00022207 -0.000147912 5.45685e-05)
(-0.000226543 -0.000151211 6.07287e-05)
(-0.000221317 -0.000151922 6.42878e-05)
(-0.000209252 -0.00015058 6.43703e-05)
(-0.000192756 -0.000146954 6.11205e-05)
(-0.000172624 -0.000141187 5.53373e-05)
(-0.00015125 -0.000134178 4.71549e-05)
(-0.000134273 -0.000125661 3.97193e-05)
(-0.000108996 -0.000110906 3.30653e-05)
(-7.92997e-05 -9.38004e-05 2.39349e-05)
(-5.77311e-05 -7.96192e-05 1.62894e-05)
(-3.77021e-05 -6.419e-05 1.0902e-05)
(-2.02315e-05 -4.83282e-05 6.27061e-06)
(-7.98311e-06 -3.34035e-05 3.15904e-06)
(-7.94495e-07 -2.02523e-05 1.15319e-06)
(2.06818e-06 -1.57828e-05 3.11867e-07)
(-2.91104e-05 1.33515e-05 2.24924e-05)
(-7.51874e-05 1.20076e-05 -1.43461e-05)
(-8.04094e-05 7.51611e-06 -1.14127e-05)
(-4.7693e-05 1.10167e-05 7.50665e-06)
(-2.42156e-05 2.40143e-05 1.85514e-05)
(-9.95156e-06 3.35057e-05 1.83408e-05)
(8.69815e-06 3.08444e-05 1.75603e-05)
(2.29184e-05 2.32428e-05 1.92275e-05)
(3.79697e-05 1.89172e-05 2.71751e-05)
(3.94409e-05 8.47344e-06 2.94707e-05)
(3.60957e-05 -3.6859e-07 3.13066e-05)
(3.09063e-05 -1.16223e-05 3.46571e-05)
(8.33883e-06 -2.12589e-05 2.24345e-05)
(-1.10068e-05 -2.78249e-05 1.3911e-05)
(-5.23019e-05 -6.59812e-05 2.27329e-05)
(-8.28522e-05 -8.21807e-05 2.59191e-05)
(-9.99417e-05 -9.02701e-05 2.98482e-05)
(-0.000102731 -9.2199e-05 3.29402e-05)
(-9.2914e-05 -8.84881e-05 3.27555e-05)
(-7.63853e-05 -8.12576e-05 2.90444e-05)
(-5.75915e-05 -7.09668e-05 2.26606e-05)
(-3.73222e-05 -5.70309e-05 1.49042e-05)
(-2.04916e-05 -4.35528e-05 7.91459e-06)
(-7.47088e-06 -2.18154e-05 2.27615e-06)
(-1.47227e-06 -1.72623e-05 6.58304e-07)