/*--------------------------------*- C++ -*----------------------------------*\
  =========                 |
  \\      /  F ield         | OpenFOAM: The Open Source CFD Toolbox
   \\    /   O peration     | Website:  https://openfoam.org
    \\  /    A nd           | Version:  6
     \\/     M anipulation  |
\*---------------------------------------------------------------------------*/
FoamFile
{
    version     2.0;
    format      ascii;
    class       volScalarField;
    location    "80";
    object      nut;
}
// * * * * * * * * * * * * * * * * * * * * * * * * * * * * * * * * * * * * * //

dimensions      [0 2 -1 0 0 0 0];

internalField   nonuniform List<scalar> 
2160
(
8.06794e-08
8.06795e-08
8.06816e-08
2.58236e-08
2.58238e-08
2.58248e-08
4.37878e-08
4.37885e-08
4.37902e-08
6.48875e-08
6.48892e-08
6.48912e-08
8.93711e-08
8.93749e-08
8.93759e-08
1.18567e-07
1.18574e-07
1.18574e-07
1.54216e-07
1.54227e-07
1.54225e-07
1.98702e-07
1.98718e-07
1.98712e-07
2.55649e-07
2.55671e-07
2.55661e-07
3.30151e-07
3.30183e-07
3.30166e-07
4.29059e-07
4.29096e-07
4.29072e-07
5.59938e-07
5.59982e-07
5.59949e-07
7.21601e-07
7.21635e-07
7.21584e-07
9.02142e-07
9.02091e-07
9.01969e-07
1.06293e-06
1.06275e-06
1.0624e-06
1.06293e-06
1.06275e-06
1.0624e-06
9.01987e-07
9.01936e-07
9.01813e-07
7.21364e-07
7.21398e-07
7.21347e-07
5.59718e-07
5.59761e-07
5.59728e-07
4.28874e-07
4.28909e-07
4.28886e-07
3.30083e-07
3.30114e-07
3.30096e-07
2.556e-07
2.55623e-07
2.55612e-07
1.98657e-07
1.98673e-07
1.98667e-07
1.54162e-07
1.54173e-07
1.5417e-07
1.18505e-07
1.18512e-07
1.18511e-07
8.93148e-08
8.93185e-08
8.93195e-08
6.48482e-08
6.48499e-08
6.48519e-08
4.37667e-08
4.37674e-08
4.37691e-08
2.58148e-08
2.5815e-08
2.58159e-08
8.06475e-08
8.06476e-08
8.06497e-08
1.33096e-05
1.33096e-05
1.33097e-05
1.63226e-06
1.63226e-06
1.6323e-06
2.11334e-06
2.11336e-06
2.1134e-06
2.50366e-06
2.50369e-06
2.50372e-06
2.8166e-06
2.81665e-06
2.81666e-06
3.07822e-06
3.07828e-06
3.07828e-06
3.30245e-06
3.30252e-06
3.3025e-06
3.49731e-06
3.49738e-06
3.49735e-06
3.66844e-06
3.6685e-06
3.66847e-06
3.81905e-06
3.8191e-06
3.81907e-06
3.95116e-06
3.95121e-06
3.95118e-06
4.0664e-06
4.06644e-06
4.06641e-06
4.16415e-06
4.16417e-06
4.16414e-06
4.24666e-06
4.24663e-06
4.24658e-06
4.30945e-06
4.30938e-06
4.30924e-06
4.30946e-06
4.30938e-06
4.30924e-06
4.2466e-06
4.24657e-06
4.24652e-06
4.16404e-06
4.16406e-06
4.16403e-06
4.06627e-06
4.06631e-06
4.06628e-06
3.951e-06
3.95104e-06
3.95101e-06
3.81898e-06
3.81904e-06
3.819e-06
3.66837e-06
3.66843e-06
3.6684e-06
3.4972e-06
3.49727e-06
3.49724e-06
3.30222e-06
3.30228e-06
3.30227e-06
3.07781e-06
3.07786e-06
3.07786e-06
2.81605e-06
2.81609e-06
2.8161e-06
2.5031e-06
2.50313e-06
2.50317e-06
2.1129e-06
2.11292e-06
2.11296e-06
1.63198e-06
1.63199e-06
1.63202e-06
1.33082e-05
1.33082e-05
1.33083e-05
1.56249e-05
1.56249e-05
1.5625e-05
5.08141e-06
5.08143e-06
5.0815e-06
5.66739e-06
5.66743e-06
5.6675e-06
6.28682e-06
6.28689e-06
6.28694e-06
6.79217e-06
6.79227e-06
6.79229e-06
7.21791e-06
7.21804e-06
7.21803e-06
7.58652e-06
7.58667e-06
7.58663e-06
7.9119e-06
7.91204e-06
7.91198e-06
8.20441e-06
8.20455e-06
8.20448e-06
8.47084e-06
8.47098e-06
8.4709e-06
8.71596e-06
8.71606e-06
8.716e-06
8.94257e-06
8.94264e-06
8.94258e-06
9.1454e-06
9.14544e-06
9.14537e-06
9.32029e-06
9.32022e-06
9.32009e-06
9.45001e-06
9.44983e-06
9.44953e-06
9.45002e-06
9.44984e-06
9.44954e-06
9.32019e-06
9.32012e-06
9.31999e-06
9.14522e-06
9.14525e-06
9.14518e-06
8.94236e-06
8.94244e-06
8.94238e-06
8.71573e-06
8.71583e-06
8.71577e-06
8.47082e-06
8.47095e-06
8.47088e-06
8.2044e-06
8.20454e-06
8.20447e-06
7.91183e-06
7.91197e-06
7.91192e-06
7.58626e-06
7.5864e-06
7.58636e-06
7.21735e-06
7.21747e-06
7.21747e-06
6.79139e-06
6.79149e-06
6.7915e-06
6.28603e-06
6.2861e-06
6.28615e-06
5.66679e-06
5.66684e-06
5.66691e-06
5.08108e-06
5.0811e-06
5.08117e-06
1.56235e-05
1.56235e-05
1.56236e-05
1.76266e-05
1.76266e-05
1.76267e-05
9.96986e-06
9.96992e-06
9.97005e-06
1.03e-05
1.03001e-05
1.03003e-05
1.11524e-05
1.11526e-05
1.11526e-05
1.18912e-05
1.18914e-05
1.18915e-05
1.25238e-05
1.25241e-05
1.25241e-05
1.30749e-05
1.30753e-05
1.30752e-05
1.35627e-05
1.3563e-05
1.35629e-05
1.40014e-05
1.40017e-05
1.40016e-05
1.4401e-05
1.44013e-05
1.44011e-05
1.47683e-05
1.47685e-05
1.47684e-05
1.51071e-05
1.51072e-05
1.51071e-05
1.54102e-05
1.54102e-05
1.54101e-05
1.56719e-05
1.56718e-05
1.56716e-05
1.58659e-05
1.58655e-05
1.5865e-05
1.58659e-05
1.58656e-05
1.58651e-05
1.56718e-05
1.56717e-05
1.56715e-05
1.541e-05
1.54101e-05
1.54099e-05
1.51069e-05
1.51071e-05
1.5107e-05
1.47681e-05
1.47683e-05
1.47682e-05
1.44011e-05
1.44014e-05
1.44013e-05
1.40016e-05
1.40019e-05
1.40018e-05
1.35628e-05
1.35631e-05
1.3563e-05
1.30748e-05
1.30751e-05
1.3075e-05
1.25232e-05
1.25235e-05
1.25234e-05
1.18903e-05
1.18905e-05
1.18905e-05
1.11514e-05
1.11516e-05
1.11517e-05
1.02994e-05
1.02995e-05
1.02996e-05
9.9697e-06
9.96974e-06
9.96987e-06
1.76251e-05
1.76251e-05
1.76252e-05
1.94658e-05
1.94658e-05
1.94659e-05
1.65794e-05
1.65795e-05
1.65798e-05
1.61363e-05
1.61365e-05
1.61367e-05
1.71067e-05
1.71069e-05
1.71071e-05
1.80648e-05
1.80651e-05
1.80652e-05
1.89175e-05
1.8918e-05
1.89179e-05
1.96732e-05
1.96738e-05
1.96737e-05
2.03481e-05
2.03487e-05
2.03485e-05
2.09579e-05
2.09584e-05
2.09582e-05
2.15142e-05
2.15147e-05
2.15145e-05
2.20258e-05
2.20262e-05
2.2026e-05
2.24969e-05
2.24971e-05
2.24969e-05
2.29188e-05
2.29189e-05
2.29187e-05
2.32858e-05
2.32854e-05
2.32851e-05
2.35593e-05
2.35586e-05
2.35579e-05
2.35594e-05
2.35587e-05
2.35579e-05
2.32857e-05
2.32854e-05
2.3285e-05
2.29187e-05
2.29187e-05
2.29185e-05
2.24968e-05
2.2497e-05
2.24968e-05
2.20258e-05
2.20262e-05
2.20259e-05
2.15147e-05
2.15152e-05
2.15149e-05
2.09584e-05
2.0959e-05
2.09587e-05
2.03486e-05
2.03492e-05
2.0349e-05
1.96733e-05
1.96739e-05
1.96738e-05
1.89169e-05
1.89174e-05
1.89173e-05
1.80637e-05
1.80641e-05
1.80641e-05
1.71056e-05
1.71059e-05
1.7106e-05
1.61358e-05
1.6136e-05
1.61362e-05
1.65798e-05
1.65799e-05
1.65801e-05
1.94642e-05
1.94642e-05
1.94643e-05
2.12186e-05
2.12186e-05
2.12188e-05
2.4957e-05
2.49572e-05
2.49575e-05
2.33821e-05
2.33824e-05
2.33827e-05
2.42635e-05
2.4264e-05
2.42642e-05
2.53795e-05
2.53802e-05
2.53802e-05
2.64438e-05
2.64447e-05
2.64446e-05
2.74168e-05
2.74179e-05
2.74176e-05
2.83004e-05
2.83014e-05
2.83011e-05
2.91063e-05
2.91073e-05
2.91068e-05
2.98454e-05
2.98463e-05
2.98458e-05
3.05271e-05
3.05278e-05
3.05274e-05
3.11548e-05
3.11552e-05
3.1155e-05
3.17192e-05
3.17193e-05
3.1719e-05
3.22153e-05
3.22147e-05
3.22142e-05
3.25886e-05
3.25874e-05
3.25864e-05
3.25887e-05
3.25875e-05
3.25865e-05
3.22152e-05
3.22146e-05
3.22142e-05
3.17191e-05
3.17192e-05
3.17189e-05
3.1155e-05
3.11554e-05
3.11551e-05
3.05274e-05
3.0528e-05
3.05277e-05
2.98464e-05
2.98473e-05
2.98469e-05
2.91075e-05
2.91084e-05
2.9108e-05
2.83016e-05
2.83025e-05
2.83022e-05
2.74174e-05
2.74184e-05
2.74181e-05
2.64434e-05
2.64443e-05
2.64442e-05
2.53784e-05
2.53791e-05
2.53791e-05
2.42625e-05
2.4263e-05
2.42632e-05
2.3382e-05
2.33823e-05
2.33826e-05
2.49582e-05
2.49583e-05
2.49587e-05
2.1217e-05
2.1217e-05
2.12171e-05
2.29243e-05
2.29243e-05
2.29244e-05
3.49012e-05
3.49015e-05
3.4902e-05
3.22848e-05
3.22854e-05
3.22859e-05
3.28167e-05
3.28176e-05
3.28179e-05
3.3971e-05
3.39722e-05
3.39722e-05
3.52068e-05
3.52082e-05
3.5208e-05
3.6394e-05
3.63956e-05
3.63952e-05
3.75014e-05
3.75029e-05
3.75024e-05
3.8527e-05
3.85285e-05
3.85278e-05
3.94761e-05
3.94775e-05
3.94768e-05
4.03568e-05
4.03578e-05
4.03572e-05
4.11688e-05
4.11695e-05
4.11691e-05
4.19027e-05
4.19028e-05
4.19025e-05
4.25559e-05
4.25551e-05
4.25544e-05
4.30531e-05
4.30514e-05
4.305e-05
4.30532e-05
4.30515e-05
4.30501e-05
4.25559e-05
4.25551e-05
4.25544e-05
4.19028e-05
4.19029e-05
4.19025e-05
4.11693e-05
4.117e-05
4.11695e-05
4.03575e-05
4.03585e-05
4.03579e-05
3.94779e-05
3.94793e-05
3.94786e-05
3.85291e-05
3.85306e-05
3.85299e-05
3.75034e-05
3.75049e-05
3.75044e-05
3.63953e-05
3.63969e-05
3.63965e-05
3.52068e-05
3.52082e-05
3.5208e-05
3.397e-05
3.39711e-05
3.39712e-05
3.28158e-05
3.28167e-05
3.2817e-05
3.22855e-05
3.22861e-05
3.22866e-05
3.49036e-05
3.49038e-05
3.49044e-05
2.29226e-05
2.29226e-05
2.29227e-05
2.45958e-05
2.45958e-05
2.45959e-05
4.59752e-05
4.59757e-05
4.59764e-05
4.30462e-05
4.30472e-05
4.3048e-05
4.30137e-05
4.3015e-05
4.30155e-05
4.40293e-05
4.40311e-05
4.40311e-05
4.53535e-05
4.53557e-05
4.53554e-05
4.67274e-05
4.67298e-05
4.67291e-05
4.80612e-05
4.80635e-05
4.80627e-05
4.93257e-05
4.9328e-05
4.9327e-05
5.05115e-05
5.05136e-05
5.05126e-05
5.16216e-05
5.16231e-05
5.16223e-05
5.26486e-05
5.26497e-05
5.26491e-05
5.35819e-05
5.35822e-05
5.35817e-05
5.44236e-05
5.44226e-05
5.44217e-05
5.50726e-05
5.50704e-05
5.50685e-05
5.50729e-05
5.50706e-05
5.50687e-05
5.44237e-05
5.44227e-05
5.44218e-05
5.35822e-05
5.35825e-05
5.3582e-05
5.26495e-05
5.26506e-05
5.265e-05
5.16229e-05
5.16244e-05
5.16236e-05
5.05145e-05
5.05165e-05
5.05155e-05
4.93291e-05
4.93313e-05
4.93303e-05
4.80646e-05
4.80668e-05
4.8066e-05
4.67298e-05
4.67321e-05
4.67315e-05
4.53541e-05
4.53562e-05
4.53559e-05
4.40283e-05
4.403e-05
4.403e-05
4.30129e-05
4.30143e-05
4.30147e-05
4.30479e-05
4.30489e-05
4.30497e-05
4.5979e-05
4.59794e-05
4.59802e-05
2.4594e-05
2.4594e-05
2.45941e-05
2.62257e-05
2.62257e-05
2.62258e-05
5.7567e-05
5.75678e-05
5.75688e-05
5.57273e-05
5.57291e-05
5.57302e-05
5.51194e-05
5.51216e-05
5.51223e-05
5.57899e-05
5.57924e-05
5.57925e-05
5.70702e-05
5.70733e-05
5.70729e-05
5.85682e-05
5.85715e-05
5.85706e-05
6.01109e-05
6.0114e-05
6.01129e-05
6.16238e-05
6.16269e-05
6.16255e-05
6.30691e-05
6.3072e-05
6.30706e-05
6.44388e-05
6.44409e-05
6.44398e-05
6.57133e-05
6.5715e-05
6.5714e-05
6.68777e-05
6.68783e-05
6.68777e-05
6.79421e-05
6.7941e-05
6.79398e-05
6.87746e-05
6.87719e-05
6.87694e-05
6.8775e-05
6.87723e-05
6.87698e-05
6.79424e-05
6.79413e-05
6.79401e-05
6.68784e-05
6.68789e-05
6.68783e-05
6.57148e-05
6.57164e-05
6.57155e-05
6.44408e-05
6.44429e-05
6.44418e-05
6.30734e-05
6.30763e-05
6.30749e-05
6.16287e-05
6.16317e-05
6.16304e-05
6.01158e-05
6.01189e-05
6.01178e-05
5.85719e-05
5.85752e-05
5.85743e-05
5.70712e-05
5.70742e-05
5.70738e-05
5.57885e-05
5.5791e-05
5.57911e-05
5.51186e-05
5.51208e-05
5.51215e-05
5.57302e-05
5.5732e-05
5.57331e-05
5.75722e-05
5.7573e-05
5.7574e-05
2.62238e-05
2.62238e-05
2.62239e-05
2.77917e-05
2.77917e-05
2.77919e-05
6.89661e-05
6.89673e-05
6.89686e-05
7.01703e-05
7.01733e-05
7.01748e-05
6.93586e-05
6.93622e-05
6.93633e-05
6.95195e-05
6.95232e-05
6.95233e-05
7.05801e-05
7.05841e-05
7.05836e-05
7.20956e-05
7.20999e-05
7.20987e-05
7.37985e-05
7.38026e-05
7.38011e-05
7.55525e-05
7.55565e-05
7.55546e-05
7.72717e-05
7.72755e-05
7.72735e-05
7.89275e-05
7.89304e-05
7.89288e-05
8.04825e-05
8.04849e-05
8.04835e-05
8.19102e-05
8.19112e-05
8.19103e-05
8.32326e-05
8.32316e-05
8.32301e-05
8.42842e-05
8.42813e-05
8.42781e-05
8.42848e-05
8.42819e-05
8.42787e-05
8.32332e-05
8.32322e-05
8.32307e-05
8.19113e-05
8.19122e-05
8.19114e-05
8.04847e-05
8.04871e-05
8.04857e-05
7.89304e-05
7.89333e-05
7.89317e-05
7.72779e-05
7.72816e-05
7.72796e-05
7.55595e-05
7.55634e-05
7.55615e-05
7.38056e-05
7.38096e-05
7.38081e-05
7.21009e-05
7.21052e-05
7.2104e-05
7.05813e-05
7.05854e-05
7.05848e-05
6.95171e-05
6.95208e-05
6.95209e-05
6.93572e-05
6.93608e-05
6.93618e-05
7.01745e-05
7.01774e-05
7.0179e-05
6.89728e-05
6.89739e-05
6.89752e-05
2.77897e-05
2.77897e-05
2.77899e-05
2.92649e-05
2.92649e-05
2.92651e-05
7.94507e-05
7.94524e-05
7.9454e-05
8.59609e-05
8.59657e-05
8.59677e-05
8.58335e-05
8.58393e-05
8.58408e-05
8.54847e-05
8.54898e-05
8.54901e-05
8.61383e-05
8.61435e-05
8.61427e-05
8.75173e-05
8.75227e-05
8.7521e-05
8.929e-05
8.92949e-05
8.92929e-05
9.12511e-05
9.12558e-05
9.12533e-05
9.32427e-05
9.32473e-05
9.32446e-05
9.52022e-05
9.52059e-05
9.52036e-05
9.70683e-05
9.70715e-05
9.70695e-05
9.8789e-05
9.87907e-05
9.87894e-05
0.000100404
0.000100404
0.000100402
0.000101714
0.000101711
0.000101707
0.000101715
0.000101712
0.000101708
0.000100405
0.000100405
0.000100403
9.87907e-05
9.87923e-05
9.87911e-05
9.70715e-05
9.70747e-05
9.70727e-05
9.52062e-05
9.52098e-05
9.52075e-05
9.32513e-05
9.32558e-05
9.32531e-05
9.12606e-05
9.12653e-05
9.12627e-05
8.92998e-05
8.93047e-05
8.93026e-05
8.75246e-05
8.75298e-05
8.75281e-05
8.61392e-05
8.61444e-05
8.61436e-05
8.548e-05
8.54852e-05
8.54854e-05
8.58306e-05
8.58363e-05
8.58378e-05
8.59663e-05
8.5971e-05
8.5973e-05
7.94586e-05
7.94602e-05
7.94619e-05
2.92627e-05
2.92627e-05
2.92629e-05
3.06188e-05
3.06188e-05
3.0619e-05
8.83859e-05
8.83884e-05
8.83904e-05
0.000102444
0.000102452
0.000102454
0.000104432
0.000104441
0.000104443
0.000103894
0.000103901
0.000103901
0.000104015
0.000104021
0.00010402
0.000105069
0.000105075
0.000105073
0.00010677
0.000106775
0.000106773
0.000108866
0.00010887
0.000108867
0.000111103
0.000111107
0.000111104
0.000113366
0.00011337
0.000113367
0.000115567
0.000115571
0.000115568
0.000117604
0.000117607
0.000117605
0.000119544
0.000119543
0.000119541
0.000121155
0.000121152
0.000121147
0.000121157
0.000121154
0.000121149
0.000119546
0.000119545
0.000119543
0.000117607
0.000117609
0.000117607
0.000115572
0.000115576
0.000115573
0.000113371
0.000113375
0.000113372
0.000111114
0.000111119
0.000111115
0.000108878
0.000108883
0.00010888
0.000106783
0.000106788
0.000106785
0.000105079
0.000105084
0.000105082
0.000104014
0.00010402
0.000104019
0.000103884
0.000103892
0.000103892
0.000104426
0.000104435
0.000104437
0.00010245
0.000102458
0.00010246
8.83949e-05
8.83972e-05
8.83993e-05
3.06165e-05
3.06165e-05
3.06167e-05
3.1838e-05
3.18381e-05
3.18383e-05
9.5326e-05
9.53294e-05
9.53318e-05
0.000118787
0.000118798
0.000118801
0.000124754
0.000124767
0.00012477
0.00012481
0.00012482
0.000124821
0.000124456
0.000124463
0.000124462
0.000125007
0.000125013
0.00012501
0.000126443
0.000126448
0.000126445
0.000128549
0.000128553
0.000128549
0.000130966
0.00013097
0.000130965
0.000133505
0.000133508
0.000133504
0.000136052
0.000136056
0.000136052
0.000138417
0.00013842
0.000138417
0.000140703
0.000140702
0.000140699
0.000142662
0.000142659
0.000142653
0.000142664
0.000142661
0.000142655
0.000140706
0.000140706
0.000140703
0.000138421
0.000138424
0.000138421
0.000136058
0.000136062
0.000136058
0.000133511
0.000133514
0.00013351
0.000130982
0.000130986
0.000130981
0.000128566
0.00012857
0.000128565
0.00012646
0.000126465
0.000126461
0.000125018
0.000125024
0.000125021
0.000124451
0.000124458
0.000124457
0.000124793
0.000124803
0.000124804
0.000124743
0.000124756
0.000124759
0.000118794
0.000118805
0.000118807
9.53356e-05
9.5339e-05
9.53413e-05
3.18356e-05
3.18356e-05
3.18358e-05
3.29226e-05
3.29227e-05
3.29229e-05
0.000100094
0.000100099
0.000100101
0.000134075
0.00013409
0.000134093
0.000146082
0.000146102
0.000146105
0.000148049
0.000148063
0.000148064
0.000147616
0.000147623
0.000147622
0.000147583
0.000147588
0.000147584
0.000148534
0.000148537
0.000148532
0.000150466
0.000150467
0.000150461
0.000152941
0.000152943
0.000152936
0.000155681
0.000155683
0.000155677
0.000158561
0.000158564
0.000158558
0.000161246
0.000161248
0.000161244
0.000163887
0.000163886
0.000163882
0.000166242
0.000166239
0.000166231
0.000166246
0.000166242
0.000166235
0.000163892
0.000163892
0.000163888
0.000161252
0.000161254
0.00016125
0.00015857
0.000158572
0.000158567
0.000155688
0.00015569
0.000155684
0.000152962
0.000152964
0.000152957
0.000150486
0.000150488
0.000150481
0.000148555
0.000148558
0.000148553
0.000147595
0.000147599
0.000147595
0.000147604
0.000147611
0.000147609
0.000148019
0.000148034
0.000148035
0.000146063
0.000146083
0.000146086
0.000134081
0.000134096
0.000134099
0.000100104
0.000100108
0.000100111
3.29199e-05
3.292e-05
3.29202e-05
3.3887e-05
3.38871e-05
3.38873e-05
0.00010281
0.000102815
0.000102818
0.000147422
0.000147441
0.000147445
0.000167417
0.000167443
0.000167447
0.000173081
0.000173101
0.000173102
0.000173452
0.00017346
0.000173458
0.000172995
0.000172996
0.00017299
0.000173272
0.000173271
0.000173263
0.000174785
0.000174782
0.000174773
0.000177129
0.000177126
0.000177116
0.000179929
0.000179928
0.000179918
0.000183093
0.000183092
0.000183083
0.000186058
0.000186058
0.000186051
0.000189042
0.000189041
0.000189035
0.000191841
0.000191836
0.000191826
0.000191847
0.000191841
0.000191831
0.000189051
0.00018905
0.000189043
0.000186067
0.000186067
0.00018606
0.000183104
0.000183103
0.000183094
0.000179937
0.000179935
0.000179926
0.000177156
0.000177153
0.000177143
0.000174811
0.000174808
0.000174798
0.000173296
0.000173295
0.000173288
0.000173004
0.000173005
0.000172999
0.000173427
0.000173434
0.000173432
0.000173033
0.000173053
0.000173054
0.000167387
0.000167414
0.000167418
0.000147427
0.000147445
0.00014745
0.00010282
0.000102825
0.000102828
3.38842e-05
3.38842e-05
3.38845e-05
3.47549e-05
3.4755e-05
3.47552e-05
0.000103845
0.000103852
0.000103854
0.000158091
0.000158114
0.000158119
0.000187564
0.000187598
0.000187603
0.000198982
0.000199008
0.00019901
0.000201601
0.000201608
0.000201605
0.00020129
0.000201285
0.000201277
0.000200856
0.000200847
0.000200836
0.000201682
0.00020167
0.000201656
0.000203619
0.000203606
0.000203591
0.00020625
0.000206241
0.000206227
0.000209588
0.00020958
0.000209567
0.000212753
0.000212749
0.000212737
0.000216041
0.000216037
0.000216026
0.000219325
0.000219315
0.000219301
0.000219333
0.000219324
0.000219309
0.000216055
0.00021605
0.000216039
0.000212766
0.000212762
0.00021275
0.000209602
0.000209594
0.000209581
0.000206257
0.000206248
0.000206234
0.000203655
0.000203642
0.000203627
0.000201713
0.000201701
0.000201687
0.000200883
0.000200874
0.000200863
0.000201293
0.000201288
0.00020128
0.000201554
0.000201561
0.000201558
0.000198909
0.000198934
0.000198937
0.00018752
0.000187554
0.000187559
0.000158093
0.000158116
0.000158121
0.000103855
0.000103861
0.000103864
3.47519e-05
3.4752e-05
3.47522e-05
3.55509e-05
3.5551e-05
3.55512e-05
0.000103716
0.000103723
0.000103726
0.000165601
0.000165629
0.000165634
0.000205266
0.000205308
0.000205314
0.000224448
0.00022448
0.000224483
0.000231252
0.000231258
0.000231254
0.00023223
0.000232216
0.000232204
0.000231374
0.000231352
0.000231336
0.000231297
0.000231268
0.000231249
0.000232473
0.000232444
0.000232423
0.000234593
0.000234569
0.000234549
0.000237913
0.000237892
0.000237872
0.000241143
0.000241129
0.000241111
0.00024466
0.000244648
0.000244631
0.000248459
0.00024844
0.00024842
0.000248471
0.000248452
0.000248431
0.00024468
0.000244668
0.000244651
0.000241162
0.000241147
0.000241129
0.000237931
0.00023791
0.00023789
0.000234598
0.000234574
0.000234554
0.00023252
0.00023249
0.000232469
0.000231332
0.000231304
0.000231284
0.000231403
0.00023138
0.000231364
0.000232221
0.000232206
0.000232194
0.000231174
0.00023118
0.000231176
0.000224341
0.000224374
0.000224377
0.000205204
0.000205247
0.000205253
0.000165599
0.000165626
0.000165632
0.000103724
0.000103732
0.000103734
3.55477e-05
3.55478e-05
3.5548e-05
3.62934e-05
3.62935e-05
3.62937e-05
0.000102949
0.000102957
0.00010296
0.000169813
0.000169844
0.00016985
0.000219353
0.000219402
0.000219409
0.000247885
0.000247924
0.000247928
0.000261078
0.000261082
0.000261076
0.00026511
0.000265083
0.000265065
0.000264653
0.00026461
0.000264587
0.000263652
0.000263599
0.000263573
0.000263677
0.000263622
0.000263592
0.000264819
0.000264771
0.000264743
0.000267818
0.000267774
0.000267745
0.000270913
0.000270879
0.000270851
0.000274544
0.000274516
0.000274489
0.000278864
0.000278827
0.000278798
0.000278879
0.000278843
0.000278813
0.000274572
0.000274543
0.000274516
0.000270938
0.000270904
0.000270877
0.000267839
0.000267795
0.000267766
0.000264817
0.000264769
0.000264741
0.000263735
0.000263679
0.00026365
0.00026369
0.000263637
0.00026361
0.000264678
0.000264634
0.000264612
0.000265079
0.000265051
0.000265034
0.000260957
0.000260962
0.000260955
0.000247738
0.000247777
0.00024778
0.00021927
0.00021932
0.000219327
0.000169806
0.000169836
0.000169842
0.000102956
0.000102964
0.000102967
3.629e-05
3.62901e-05
3.62903e-05
3.69908e-05
3.69909e-05
3.69911e-05
0.00010198
0.000101988
0.000101991
0.000170966
0.000170999
0.000171005
0.000228908
0.000228964
0.000228972
0.000267566
0.00026761
0.000267615
0.000289238
0.000289241
0.000289232
0.000298585
0.000298541
0.000298517
0.000300019
0.000299948
0.000299918
0.000298476
0.000298388
0.000298354
0.000297016
0.000296922
0.000296884
0.000296604
0.00029652
0.000296482
0.00029884
0.00029876
0.00029872
0.00030153
0.000301464
0.000301425
0.000305122
0.000305064
0.000305026
0.000309934
0.000309867
0.000309825
0.000309954
0.000309888
0.000309845
0.000305159
0.000305101
0.000305062
0.000301563
0.000301497
0.000301458
0.000298864
0.000298784
0.000298744
0.000296589
0.000296506
0.000296467
0.000297085
0.000296991
0.000296952
0.000298512
0.000298424
0.00029839
0.000300034
0.000299962
0.000299932
0.000298521
0.000298476
0.000298453
0.000289064
0.000289068
0.000289057
0.000267372
0.000267416
0.000267421
0.000228802
0.000228858
0.000228867
0.000170952
0.000170985
0.000170991
0.000101986
0.000101994
0.000101996
3.69873e-05
3.69874e-05
3.69876e-05
3.76411e-05
3.76412e-05
3.76414e-05
0.000101106
0.000101114
0.000101117
0.000169656
0.000169689
0.000169697
0.000233452
0.000233512
0.000233522
0.000281847
0.000281895
0.000281902
0.000313504
0.000313506
0.000313493
0.000330563
0.000330501
0.000330471
0.000336014
0.000335909
0.000335872
0.000334893
0.000334763
0.00033472
0.000331829
0.000331688
0.00033164
0.000329241
0.00032911
0.00032906
0.000330124
0.000329996
0.000329943
0.00033208
0.000331967
0.000331913
0.00033545
0.000335347
0.000335293
0.000340676
0.000340564
0.000340507
0.000340701
0.000340589
0.000340532
0.000335496
0.000335393
0.000335339
0.000332121
0.000332008
0.000331954
0.000330147
0.000330018
0.000329965
0.000329204
0.000329074
0.000329024
0.000331904
0.000331762
0.000331714
0.000334919
0.000334789
0.000334746
0.000336009
0.000335903
0.000335866
0.000330454
0.000330391
0.00033036
0.000313267
0.000313269
0.000313256
0.000281601
0.000281649
0.000281657
0.000233321
0.000233382
0.000233392
0.000169635
0.000169669
0.000169677
0.000101111
0.000101118
0.000101121
3.76375e-05
3.76375e-05
3.76378e-05
3.82327e-05
3.82327e-05
3.82329e-05
0.000100488
0.000100495
0.000100498
0.000166742
0.000166776
0.000166784
0.000233134
0.000233199
0.000233211
0.000289492
0.000289544
0.000289554
0.000331542
0.000331544
0.000331529
0.000358287
0.000358209
0.000358173
0.000370159
0.000370022
0.000369976
0.000371018
0.000370847
0.000370797
0.000366619
0.00036643
0.000366372
0.000361307
0.000361125
0.000361065
0.000360121
0.000359938
0.000359873
0.000360979
0.000360808
0.00036074
0.000363937
0.000363777
0.000363707
0.000369447
0.000369278
0.000369205
0.000369477
0.000369307
0.000369234
0.000363992
0.000363832
0.000363762
0.000361024
0.000360854
0.000360786
0.000360135
0.000359951
0.000359886
0.000361236
0.000361054
0.000360994
0.000366686
0.000366497
0.00036644
0.000371024
0.000370853
0.000370802
0.000370123
0.000369985
0.000369939
0.000358121
0.000358042
0.000358005
0.000331237
0.000331239
0.000331223
0.000289195
0.000289248
0.000289258
0.000232981
0.000233047
0.000233059
0.000166716
0.000166751
0.000166759
0.000100491
0.000100498
0.000100501
3.82289e-05
3.8229e-05
3.82292e-05
3.87447e-05
3.87447e-05
3.87449e-05
0.000100166
0.000100172
0.000100176
0.000163204
0.000163239
0.000163248
0.000228947
0.000229017
0.000229031
0.000290209
0.000290269
0.000290282
0.00034153
0.000341535
0.000341521
0.000378797
0.000378713
0.000378672
0.000399051
0.000398894
0.000398842
0.00040368
0.000403483
0.000403426
0.00039863
0.00039841
0.000398346
0.000390288
0.000390069
0.000390001
0.000386283
0.000386054
0.00038598
0.000385692
0.000385468
0.000385389
0.000388081
0.000387862
0.00038778
0.000393703
0.000393475
0.000393389
0.000393735
0.000393507
0.000393422
0.000388142
0.000387924
0.000387841
0.000385737
0.000385513
0.000385434
0.000386275
0.000386046
0.000385973
0.000390168
0.000389949
0.000389881
0.00039867
0.00039845
0.000398387
0.000403652
0.000403454
0.000403398
0.000398973
0.000398815
0.000398763
0.000378567
0.000378481
0.00037844
0.000341154
0.000341159
0.000341145
0.000289865
0.000289925
0.000289939
0.000228778
0.000228849
0.000228863
0.000163177
0.000163212
0.000163222
0.000100169
0.000100175
0.000100179
3.87409e-05
3.8741e-05
3.87412e-05
3.91452e-05
3.91453e-05
3.91455e-05
0.000100086
0.000100092
0.000100095
0.000160004
0.000160039
0.000160049
0.000222911
0.000222986
0.000223002
0.000285541
0.000285612
0.000285629
0.00034341
0.000343421
0.000343412
0.000390162
0.000390086
0.000390043
0.000419236
0.00041908
0.000419024
0.000428756
0.00042856
0.000428501
0.000423872
0.000423655
0.00042359
0.00041261
0.000412389
0.00041232
0.000405276
0.000405037
0.000404962
0.000403001
0.000402751
0.000402669
0.00040474
0.000404485
0.000404398
0.000410302
0.000410036
0.000409946
0.000410336
0.000410071
0.000409981
0.000404805
0.00040455
0.000404463
0.000403038
0.000402788
0.000402706
0.000405232
0.000404993
0.000404918
0.000412431
0.000412211
0.000412142
0.00042386
0.000423644
0.00042358
0.000428684
0.000428488
0.000428429
0.00041911
0.000418951
0.000418896
0.000389866
0.000389788
0.000389744
0.000342971
0.000342982
0.000342972
0.000285162
0.000285234
0.00028525
0.000222735
0.000222811
0.000222827
0.000159979
0.000160015
0.000160025
0.00010009
0.000100095
0.000100099
3.91415e-05
3.91416e-05
3.91418e-05
3.93855e-05
3.93855e-05
3.93857e-05
0.000100124
0.000100129
0.000100133
0.000158009
0.000158044
0.000158055
0.000218111
0.00021819
0.000218207
0.000279921
0.000280003
0.000280022
0.000340816
0.000340836
0.000340835
0.000393581
0.000393522
0.000393478
0.000429026
0.000428885
0.000428828
0.000442537
0.00044236
0.000442301
0.000438164
0.000437974
0.000437911
0.000424803
0.00042461
0.000424544
0.00041465
0.000414434
0.000414363
0.00041092
0.000410676
0.000410598
0.000412109
0.000411849
0.000411766
0.00041753
0.000417257
0.000417171
0.000417565
0.000417292
0.000417206
0.000412174
0.000411914
0.000411831
0.000410944
0.0004107
0.000410623
0.000414569
0.000414353
0.000414282
0.000424576
0.000424384
0.000424318
0.000438099
0.000437911
0.000437849
0.000442428
0.000442251
0.000442193
0.000428859
0.000428716
0.000428659
0.000393235
0.000393173
0.000393129
0.000340334
0.000340354
0.000340353
0.000279523
0.000279606
0.000279625
0.000217935
0.000218016
0.000218033
0.000157988
0.000158024
0.000158035
0.000100129
0.000100134
0.000100138
3.93818e-05
3.93819e-05
3.93821e-05
)
;

boundaryField
{
    freeSurface
    {
        type            slip;
    }
    inlet
    {
        type            cyclic;
    }
    outlet
    {
        type            cyclic;
    }
    sidewalls
    {
        type            nutkWallFunction;
        Cmu             0.09;
        kappa           0.41;
        E               9.8;
        value           nonuniform List<scalar> 
144
(
4.64225e-07
1.30971e-06
1.63807e-06
1.91668e-06
2.16896e-06
2.4065e-06
2.63521e-06
2.85722e-06
3.07185e-06
3.27649e-06
3.46767e-06
3.64231e-06
3.79876e-06
3.9373e-06
4.06002e-06
4.17009e-06
4.27075e-06
4.36439e-06
4.45213e-06
4.53377e-06
4.60788e-06
4.67191e-06
4.72193e-06
4.75191e-06
4.64225e-07
1.30971e-06
1.63807e-06
1.91668e-06
2.16896e-06
2.4065e-06
2.63521e-06
2.85722e-06
3.07186e-06
3.27649e-06
3.46767e-06
3.64231e-06
3.79876e-06
3.93731e-06
4.06003e-06
4.1701e-06
4.27076e-06
4.3644e-06
4.45214e-06
4.53378e-06
4.60788e-06
4.67192e-06
4.72194e-06
4.75191e-06
4.64241e-07
1.30973e-06
1.63809e-06
1.91669e-06
2.16898e-06
2.40652e-06
2.63523e-06
2.85724e-06
3.07188e-06
3.27651e-06
3.46769e-06
3.64234e-06
3.79879e-06
3.93733e-06
4.06006e-06
4.17013e-06
4.27079e-06
4.36443e-06
4.45217e-06
4.5338e-06
4.60791e-06
4.67194e-06
4.72197e-06
4.75194e-06
4.6399e-07
1.30951e-06
1.63787e-06
1.91647e-06
2.16875e-06
2.40629e-06
2.63498e-06
2.85698e-06
3.0716e-06
3.27623e-06
3.46739e-06
3.64201e-06
3.79844e-06
3.93696e-06
4.05966e-06
4.16971e-06
4.27034e-06
4.36396e-06
4.45169e-06
4.53331e-06
4.60741e-06
4.67144e-06
4.72147e-06
4.75145e-06
4.63991e-07
1.30951e-06
1.63787e-06
1.91647e-06
2.16875e-06
2.40629e-06
2.63498e-06
2.85698e-06
3.07161e-06
3.27623e-06
3.46739e-06
3.64202e-06
3.79845e-06
3.93697e-06
4.05967e-06
4.16972e-06
4.27035e-06
4.36397e-06
4.4517e-06
4.53332e-06
4.60742e-06
4.67145e-06
4.72148e-06
4.75146e-06
4.64006e-07
1.30952e-06
1.63789e-06
1.91649e-06
2.16876e-06
2.4063e-06
2.635e-06
2.857e-06
3.07163e-06
3.27625e-06
3.46742e-06
3.64204e-06
3.79847e-06
3.93699e-06
4.0597e-06
4.16975e-06
4.27038e-06
4.364e-06
4.45173e-06
4.53335e-06
4.60745e-06
4.67148e-06
4.72151e-06
4.75149e-06
)
;
    }
    noSlipWalls
    {
        type            nutkWallFunction;
        Cmu             0.09;
        kappa           0.41;
        E               9.8;
        value           uniform 0;
    }
}


// ************************************************************************* //
