/*--------------------------------*- C++ -*----------------------------------*\
  =========                 |
  \\      /  F ield         | OpenFOAM: The Open Source CFD Toolbox
   \\    /   O peration     | Website:  https://openfoam.org
    \\  /    A nd           | Version:  6
     \\/     M anipulation  |
\*---------------------------------------------------------------------------*/
FoamFile
{
    version     2.0;
    format      ascii;
    class       volScalarField;
    location    "80";
    object      p;
}
// * * * * * * * * * * * * * * * * * * * * * * * * * * * * * * * * * * * * * //

dimensions      [0 2 -2 0 0 0 0];

internalField   nonuniform List<scalar> 
2160
(
3.96036e-15
3.77855e-08
1.94623e-08
5.66893e-11
3.77243e-08
1.94673e-08
-2.65909e-11
3.78964e-08
1.93785e-08
-2.36389e-10
3.83957e-08
1.90891e-08
-6.11928e-10
3.91823e-08
1.8678e-08
-9.1741e-10
4.01325e-08
1.80334e-08
-1.0433e-09
4.09982e-08
1.72937e-08
-9.54774e-10
4.12029e-08
1.70004e-08
-7.23671e-10
4.10249e-08
1.69474e-08
-2.8834e-10
4.03931e-08
1.71438e-08
3.01225e-10
3.93528e-08
1.75945e-08
9.47937e-10
3.83847e-08
1.79156e-08
1.55038e-09
3.73919e-08
1.83061e-08
2.25007e-09
3.66829e-08
1.83154e-08
2.56288e-09
3.66491e-08
1.80314e-08
2.57007e-09
3.6646e-08
1.80265e-08
2.2598e-09
3.6667e-08
1.83151e-08
1.57654e-09
3.73585e-08
1.83072e-08
9.71055e-10
3.8347e-08
1.79237e-08
3.28797e-10
3.92898e-08
1.76236e-08
-2.54849e-10
4.03318e-08
1.71652e-08
-6.89298e-10
4.09663e-08
1.6965e-08
-9.23953e-10
4.11455e-08
1.70206e-08
-1.01354e-09
4.09485e-08
1.73072e-08
-8.92797e-10
4.0078e-08
1.80569e-08
-5.83502e-10
3.91201e-08
1.87054e-08
-2.03683e-10
3.83289e-08
1.91169e-08
7.01333e-12
3.7829e-08
1.94061e-08
9.0435e-11
3.76593e-08
1.94925e-08
3.33051e-11
3.77209e-08
1.94879e-08
4.98049e-13
3.77864e-08
1.9461e-08
5.52904e-11
3.77268e-08
1.94663e-08
-2.82503e-11
3.78997e-08
1.93769e-08
-2.3674e-10
3.83969e-08
1.90883e-08
-6.10318e-10
3.91789e-08
1.86798e-08
-9.14677e-10
4.0126e-08
1.80372e-08
-1.04094e-09
4.09918e-08
1.72977e-08
-9.534e-10
4.1198e-08
1.70039e-08
-7.23341e-10
4.10219e-08
1.695e-08
-2.88439e-10
4.03916e-08
1.71454e-08
3.0111e-10
3.93528e-08
1.75946e-08
9.48518e-10
3.83853e-08
1.79144e-08
1.55252e-09
3.73915e-08
1.83043e-08
2.25749e-09
3.66725e-08
1.83184e-08
2.58839e-09
3.66111e-08
1.80439e-08
2.59565e-09
3.6608e-08
1.8039e-08
2.26725e-09
3.66566e-08
1.83181e-08
1.5787e-09
3.73581e-08
1.83054e-08
9.7164e-10
3.83476e-08
1.79225e-08
3.28653e-10
3.92899e-08
1.76237e-08
-2.54965e-10
4.03304e-08
1.71668e-08
-6.88976e-10
4.09634e-08
1.69676e-08
-9.22586e-10
4.11406e-08
1.70241e-08
-1.01114e-09
4.09421e-08
1.73112e-08
-8.90024e-10
4.00715e-08
1.80606e-08
-5.8188e-10
3.91168e-08
1.87071e-08
-2.04055e-10
3.83301e-08
1.91161e-08
5.33325e-12
3.78324e-08
1.94044e-08
8.90282e-11
3.76617e-08
1.94915e-08
3.37836e-11
3.77218e-08
1.94866e-08
-5.55204e-13
3.77889e-08
1.94595e-08
5.21764e-11
3.77322e-08
1.9464e-08
-3.15677e-11
3.79063e-08
1.93736e-08
-2.37355e-10
3.83993e-08
1.90866e-08
-6.07164e-10
3.91723e-08
1.86832e-08
-9.09434e-10
4.01137e-08
1.80442e-08
-1.03635e-09
4.09796e-08
1.73052e-08
-9.50904e-10
4.11882e-08
1.70112e-08
-7.23407e-10
4.10155e-08
1.69565e-08
-2.9018e-10
4.03877e-08
1.7151e-08
2.98427e-10
3.93515e-08
1.75986e-08
9.45903e-10
3.83853e-08
1.79171e-08
1.55063e-09
3.73924e-08
1.83054e-08
2.2567e-09
3.66732e-08
1.83184e-08
2.5928e-09
3.66047e-08
1.80459e-08
2.60007e-09
3.66016e-08
1.8041e-08
2.26645e-09
3.66574e-08
1.83181e-08
1.57684e-09
3.7359e-08
1.83064e-08
9.69027e-10
3.83475e-08
1.79252e-08
3.25915e-10
3.92887e-08
1.76275e-08
-2.56749e-10
4.03267e-08
1.71723e-08
-6.89073e-10
4.09571e-08
1.6974e-08
-9.20117e-10
4.1131e-08
1.70313e-08
-1.00647e-09
4.093e-08
1.73186e-08
-8.84702e-10
4.00592e-08
1.80676e-08
-5.78693e-10
3.91103e-08
1.87104e-08
-2.04705e-10
3.83326e-08
1.91142e-08
1.97203e-12
3.78391e-08
1.9401e-08
8.58959e-11
3.76671e-08
1.94892e-08
3.26884e-11
3.77244e-08
1.94851e-08
-2.42897e-12
3.77915e-08
1.94588e-08
4.74553e-11
3.77403e-08
1.94606e-08
-3.60282e-11
3.79155e-08
1.93689e-08
-2.37985e-10
3.84025e-08
1.9084e-08
-6.02788e-10
3.91636e-08
1.86876e-08
-9.02088e-10
4.00979e-08
1.80527e-08
-1.02956e-09
4.09643e-08
1.73138e-08
-9.46949e-10
4.11759e-08
1.70195e-08
-7.23106e-10
4.10079e-08
1.69638e-08
-2.92394e-10
4.03832e-08
1.71578e-08
2.94419e-10
3.935e-08
1.76041e-08
9.41549e-10
3.83852e-08
1.79215e-08
1.5472e-09
3.73931e-08
1.83081e-08
2.25319e-09
3.66764e-08
1.83187e-08
2.59065e-09
3.66068e-08
1.80459e-08
2.59792e-09
3.66037e-08
1.8041e-08
2.26292e-09
3.66605e-08
1.83184e-08
1.57345e-09
3.73598e-08
1.8309e-08
9.64664e-10
3.83473e-08
1.79298e-08
3.21809e-10
3.92875e-08
1.76329e-08
-2.59045e-10
4.03224e-08
1.71788e-08
-6.88785e-10
4.09495e-08
1.69813e-08
-9.16194e-10
4.11189e-08
1.70394e-08
-9.99635e-10
4.09146e-08
1.73271e-08
-8.77254e-10
4.00433e-08
1.8076e-08
-5.74257e-10
3.91016e-08
1.87147e-08
-2.05369e-10
3.83361e-08
1.91114e-08
-2.55721e-12
3.78484e-08
1.93962e-08
8.11413e-11
3.76753e-08
1.94858e-08
3.07544e-11
3.7727e-08
1.94844e-08
-4.2496e-12
3.77938e-08
1.94584e-08
4.12525e-11
3.77506e-08
1.94564e-08
-4.14743e-11
3.79266e-08
1.93633e-08
-2.38756e-10
3.84066e-08
1.90807e-08
-5.97619e-10
3.91542e-08
1.86918e-08
-8.92885e-10
4.00813e-08
1.80601e-08
-1.02062e-09
4.09484e-08
1.73207e-08
-9.41447e-10
4.11637e-08
1.70262e-08
-7.21991e-10
4.1001e-08
1.69695e-08
-2.94385e-10
4.03797e-08
1.71632e-08
2.89828e-10
3.93493e-08
1.76094e-08
9.36087e-10
3.83856e-08
1.79266e-08
1.5435e-09
3.7393e-08
1.83119e-08
2.24959e-09
3.66768e-08
1.83219e-08
2.58922e-09
3.66043e-08
1.80498e-08
2.59649e-09
3.66012e-08
1.80449e-08
2.2593e-09
3.6661e-08
1.83216e-08
1.56982e-09
3.73597e-08
1.83126e-08
9.59169e-10
3.83475e-08
1.79351e-08
3.17061e-10
3.92872e-08
1.76379e-08
-2.61166e-10
4.03192e-08
1.71841e-08
-6.8761e-10
4.09427e-08
1.6987e-08
-9.10639e-10
4.11069e-08
1.70458e-08
-9.90685e-10
4.08988e-08
1.7334e-08
-8.67963e-10
4.00266e-08
1.80834e-08
-5.69014e-10
3.90921e-08
1.87189e-08
-2.06165e-10
3.83405e-08
1.91078e-08
-8.10783e-12
3.78596e-08
1.93906e-08
7.48833e-11
3.76857e-08
1.94817e-08
2.88737e-11
3.77293e-08
1.94839e-08
-6.11138e-12
3.77962e-08
1.9458e-08
3.39628e-11
3.77624e-08
1.9452e-08
-4.79766e-11
3.79393e-08
1.9357e-08
-2.39891e-10
3.84119e-08
1.90765e-08
-5.91872e-10
3.91455e-08
1.86948e-08
-8.82072e-10
4.00662e-08
1.80643e-08
-1.00972e-09
4.09344e-08
1.73239e-08
-9.34549e-10
4.11536e-08
1.70294e-08
-7.20047e-10
4.09968e-08
1.69718e-08
-2.96017e-10
4.03786e-08
1.71659e-08
2.8488e-10
3.93503e-08
1.76133e-08
9.29582e-10
3.8387e-08
1.79316e-08
1.53973e-09
3.73919e-08
1.83168e-08
2.24579e-09
3.66732e-08
1.83293e-08
2.5895e-09
3.65938e-08
1.80601e-08
2.59678e-09
3.65907e-08
1.80551e-08
2.25548e-09
3.66573e-08
1.83291e-08
1.56615e-09
3.73587e-08
1.83173e-08
9.52735e-10
3.83487e-08
1.79404e-08
3.11888e-10
3.92887e-08
1.76416e-08
-2.62973e-10
4.03184e-08
1.71867e-08
-6.85681e-10
4.09383e-08
1.69894e-08
-9.03688e-10
4.1097e-08
1.70488e-08
-9.79789e-10
4.08847e-08
1.73372e-08
-8.57093e-10
4.00114e-08
1.80878e-08
-5.63186e-10
3.90832e-08
1.8722e-08
-2.07329e-10
3.8346e-08
1.91034e-08
-1.47655e-11
3.78724e-08
1.93844e-08
6.75043e-11
3.76974e-08
1.94773e-08
2.69546e-11
3.77317e-08
1.94835e-08
-8.27473e-12
3.77988e-08
1.94576e-08
2.6344e-11
3.77741e-08
1.94478e-08
-5.56042e-11
3.79535e-08
1.93505e-08
-2.41639e-10
3.84188e-08
1.90713e-08
-5.85575e-10
3.91387e-08
1.86953e-08
-8.69942e-10
4.00552e-08
1.80633e-08
-9.97194e-10
4.09247e-08
1.7321e-08
-9.26421e-10
4.11477e-08
1.70272e-08
-7.17128e-10
4.09967e-08
1.69689e-08
-2.97066e-10
4.03813e-08
1.71643e-08
2.79725e-10
3.93541e-08
1.76147e-08
9.22194e-10
3.83905e-08
1.79356e-08
1.53558e-09
3.73905e-08
1.83224e-08
2.24128e-09
3.66656e-08
1.83413e-08
2.59096e-09
3.65742e-08
1.80782e-08
2.59824e-09
3.65711e-08
1.80732e-08
2.25096e-09
3.66497e-08
1.83412e-08
1.5621e-09
3.73574e-08
1.83227e-08
9.4608e-10
3.83517e-08
1.7944e-08
3.06468e-10
3.92929e-08
1.76428e-08
-2.64236e-10
4.03214e-08
1.7185e-08
-6.83052e-10
4.0938e-08
1.69871e-08
-8.95664e-10
4.10913e-08
1.70465e-08
-9.67336e-10
4.08748e-08
1.73346e-08
-8.44901e-10
4e-08
1.8087e-08
-5.56891e-10
3.90763e-08
1.87226e-08
-2.09174e-10
3.83532e-08
1.90981e-08
-2.25984e-11
3.78866e-08
1.9378e-08
5.97565e-11
3.77091e-08
1.94734e-08
2.47356e-11
3.77344e-08
1.9483e-08
-1.09016e-11
3.78018e-08
1.94573e-08
1.9331e-11
3.77844e-08
1.94445e-08
-6.42546e-11
3.79688e-08
1.93439e-08
-2.44341e-10
3.8428e-08
1.90649e-08
-5.78936e-10
3.91354e-08
1.8692e-08
-8.56867e-10
4.0051e-08
1.80544e-08
-9.83463e-10
4.09223e-08
1.73097e-08
-9.17015e-10
4.11484e-08
1.70171e-08
-7.11919e-10
4.10026e-08
1.69579e-08
-2.96148e-10
4.03894e-08
1.71553e-08
2.75395e-10
3.93619e-08
1.76112e-08
9.14892e-10
3.83973e-08
1.7936e-08
1.53045e-09
3.73899e-08
1.83281e-08
2.23651e-09
3.66541e-08
1.83575e-08
2.5922e-09
3.65463e-08
1.81049e-08
2.59948e-09
3.65433e-08
1.80998e-08
2.24617e-09
3.66383e-08
1.83575e-08
1.55697e-09
3.73569e-08
1.83284e-08
9.39653e-10
3.83581e-08
1.7944e-08
3.01945e-10
3.93013e-08
1.76389e-08
-2.6358e-10
4.03298e-08
1.7176e-08
-6.78337e-10
4.09435e-08
1.69769e-08
-8.86447e-10
4.1092e-08
1.70366e-08
-9.53765e-10
4.08722e-08
1.73237e-08
-8.31834e-10
3.99956e-08
1.80784e-08
-5.5034e-10
3.90728e-08
1.87196e-08
-2.12038e-10
3.83625e-08
1.90917e-08
-3.14832e-11
3.79019e-08
1.93717e-08
5.25946e-11
3.77193e-08
1.94703e-08
2.20512e-11
3.77374e-08
1.94827e-08
-1.40658e-11
3.78052e-08
1.9457e-08
1.36301e-11
3.77921e-08
1.94426e-08
-7.3642e-11
3.79847e-08
1.93373e-08
-2.48496e-10
3.84404e-08
1.90566e-08
-5.72623e-10
3.91377e-08
1.86833e-08
-8.43942e-10
4.00576e-08
1.80348e-08
-9.6851e-10
4.09302e-08
1.72868e-08
-9.04172e-10
4.11573e-08
1.69954e-08
-7.02817e-10
4.10156e-08
1.69357e-08
-2.92388e-10
4.04051e-08
1.71358e-08
2.72361e-10
3.93762e-08
1.76e-08
9.08017e-10
3.84099e-08
1.79303e-08
1.52354e-09
3.73921e-08
1.83328e-08
2.23181e-09
3.66399e-08
1.83763e-08
2.59289e-09
3.65116e-08
1.81389e-08
2.60017e-09
3.65086e-08
1.81338e-08
2.24139e-09
3.66241e-08
1.83764e-08
1.54999e-09
3.73591e-08
1.83332e-08
9.32802e-10
3.83701e-08
1.79389e-08
2.98733e-10
3.9316e-08
1.76274e-08
-2.60145e-10
4.03457e-08
1.71566e-08
-6.69624e-10
4.09561e-08
1.69556e-08
-8.73986e-10
4.11007e-08
1.70155e-08
-9.38949e-10
4.08797e-08
1.73013e-08
-8.18825e-10
4.00018e-08
1.80591e-08
-5.44087e-10
3.90749e-08
1.87113e-08
-2.16355e-10
3.83749e-08
1.90836e-08
-4.10998e-11
3.79177e-08
1.93655e-08
4.67749e-11
3.77269e-08
1.94685e-08
1.88256e-11
3.77409e-08
1.94824e-08
-1.77738e-11
3.7809e-08
1.9457e-08
9.35984e-12
3.77967e-08
1.94422e-08
-8.31306e-11
3.80008e-08
1.93306e-08
-2.5463e-10
3.84578e-08
1.90454e-08
-5.67771e-10
3.91489e-08
1.86673e-08
-8.32874e-10
4.00794e-08
1.8002e-08
-9.49145e-10
4.09488e-08
1.72489e-08
-8.84577e-10
4.1174e-08
1.69591e-08
-6.90524e-10
4.10381e-08
1.6901e-08
-2.86674e-10
4.04309e-08
1.71043e-08
2.70129e-10
3.93989e-08
1.75795e-08
9.01028e-10
3.84306e-08
1.79166e-08
1.51428e-09
3.73997e-08
1.83346e-08
2.22705e-09
3.66252e-08
1.83957e-08
2.59482e-09
3.64713e-08
1.81773e-08
2.60208e-09
3.64684e-08
1.81721e-08
2.2365e-09
3.66096e-08
1.83959e-08
1.54062e-09
3.73666e-08
1.8335e-08
9.25638e-10
3.83903e-08
1.79259e-08
2.96323e-10
3.93392e-08
1.76067e-08
-2.54796e-10
4.03716e-08
1.71253e-08
-6.57422e-10
4.09781e-08
1.69214e-08
-8.5506e-10
4.11171e-08
1.69801e-08
-9.19574e-10
4.08977e-08
1.7264e-08
-8.07301e-10
4.00233e-08
1.80262e-08
-5.39253e-10
3.90858e-08
1.86955e-08
-2.22645e-10
3.83923e-08
1.90726e-08
-5.07947e-11
3.79337e-08
1.93592e-08
4.24504e-11
3.77314e-08
1.94683e-08
1.50543e-11
3.77447e-08
1.94824e-08
-2.19496e-11
3.7813e-08
1.94572e-08
6.03865e-12
3.77991e-08
1.94432e-08
-9.1736e-11
3.80174e-08
1.93227e-08
-2.63195e-10
3.84826e-08
1.90291e-08
-5.65817e-10
3.91733e-08
1.8641e-08
-8.2217e-10
4.01188e-08
1.79519e-08
-9.19629e-10
4.0975e-08
1.71932e-08
-8.59703e-10
4.12009e-08
1.69073e-08
-6.76704e-10
4.10721e-08
1.68532e-08
-2.79514e-10
4.04679e-08
1.70601e-08
2.68647e-10
3.94313e-08
1.75486e-08
8.9407e-10
3.84614e-08
1.78927e-08
1.50313e-09
3.74155e-08
1.83298e-08
2.21994e-09
3.66143e-08
1.84136e-08
2.59862e-09
3.64287e-08
1.82162e-08
2.60587e-09
3.64258e-08
1.82109e-08
2.22932e-09
3.65988e-08
1.84138e-08
1.52931e-09
3.73825e-08
1.83305e-08
9.18557e-10
3.84205e-08
1.79028e-08
2.9467e-10
3.9372e-08
1.75756e-08
-2.47971e-10
4.04086e-08
1.70815e-08
-6.43578e-10
4.10115e-08
1.68742e-08
-8.30557e-10
4.11438e-08
1.69289e-08
-8.90247e-10
4.09232e-08
1.72092e-08
-7.96129e-10
4.00623e-08
1.7976e-08
-5.37312e-10
3.91101e-08
1.86693e-08
-2.31348e-10
3.8417e-08
1.90565e-08
-5.96173e-11
3.795e-08
1.93517e-08
3.91056e-11
3.77337e-08
1.94694e-08
1.08153e-11
3.77487e-08
1.94826e-08
-2.63876e-11
3.78171e-08
1.94576e-08
2.83655e-12
3.78013e-08
1.94442e-08
-9.86995e-11
3.80353e-08
1.93118e-08
-2.74618e-10
3.85182e-08
1.90049e-08
-5.67536e-10
3.92165e-08
1.85995e-08
-8.00565e-10
4.01699e-08
1.78792e-08
-8.82261e-10
4.10106e-08
1.71202e-08
-8.38592e-10
4.12456e-08
1.68416e-08
-6.63403e-10
4.11159e-08
1.6796e-08
-2.70411e-10
4.0512e-08
1.70069e-08
2.67972e-10
3.94717e-08
1.75089e-08
8.88565e-10
3.85009e-08
1.78586e-08
1.49122e-09
3.74416e-08
1.83157e-08
2.20828e-09
3.66112e-08
1.84283e-08
2.604e-09
3.63882e-08
1.82514e-08
2.61123e-09
3.63852e-08
1.82461e-08
2.2177e-09
3.65957e-08
1.84285e-08
1.51716e-09
3.74084e-08
1.83167e-08
9.12973e-10
3.84594e-08
1.78695e-08
2.9387e-10
3.94126e-08
1.75357e-08
-2.39062e-10
4.04526e-08
1.70286e-08
-6.30258e-10
4.10546e-08
1.68178e-08
-8.0896e-10
4.11882e-08
1.68629e-08
-8.53418e-10
4.09581e-08
1.71374e-08
-7.74393e-10
4.01131e-08
1.79035e-08
-5.39045e-10
3.91531e-08
1.86281e-08
-2.42851e-10
3.84525e-08
1.90325e-08
-6.68067e-11
3.79675e-08
1.93414e-08
3.58538e-11
3.77356e-08
1.94708e-08
6.31341e-12
3.77527e-08
1.94831e-08
-3.07033e-11
3.78211e-08
1.94579e-08
-7.2907e-13
3.7806e-08
1.94432e-08
-1.03936e-10
3.80567e-08
1.92956e-08
-2.89358e-10
3.8569e-08
1.89689e-08
-5.70541e-10
3.92854e-08
1.85337e-08
-7.65674e-10
4.02348e-08
1.77795e-08
-8.55237e-10
4.10684e-08
1.70354e-08
-8.24596e-10
4.13036e-08
1.67695e-08
-6.49772e-10
4.11596e-08
1.67387e-08
-2.58862e-10
4.05536e-08
1.69537e-08
2.72364e-10
3.95091e-08
1.74671e-08
8.91441e-10
3.8538e-08
1.78187e-08
1.48098e-09
3.74757e-08
1.82918e-08
2.19271e-09
3.66169e-08
1.84381e-08
2.60973e-09
3.63531e-08
1.82808e-08
2.61692e-09
3.635e-08
1.82757e-08
2.20222e-09
3.66013e-08
1.84385e-08
1.50655e-09
3.74423e-08
1.82934e-08
9.15832e-10
3.84957e-08
1.78304e-08
2.98314e-10
3.94501e-08
1.74938e-08
-2.27518e-10
4.04939e-08
1.69758e-08
-6.16546e-10
4.10972e-08
1.67614e-08
-7.94108e-10
4.1246e-08
1.67903e-08
-8.26775e-10
4.10157e-08
1.70532e-08
-7.39461e-10
4.01778e-08
1.78038e-08
-5.42048e-10
3.92212e-08
1.8563e-08
-2.57555e-10
3.8503e-08
1.89968e-08
-7.19185e-11
3.79884e-08
1.93256e-08
3.22276e-11
3.77398e-08
1.94702e-08
1.93342e-12
3.77565e-08
1.94837e-08
-3.41878e-11
3.78249e-08
1.94576e-08
-4.4731e-12
3.78148e-08
1.94381e-08
-1.07464e-10
3.80851e-08
1.92707e-08
-3.07326e-10
3.86426e-08
1.89132e-08
-5.74227e-10
3.93927e-08
1.843e-08
-7.42403e-10
4.03355e-08
1.76555e-08
-8.4623e-10
4.11458e-08
1.6949e-08
-8.10488e-10
4.13574e-08
1.67016e-08
-6.29396e-10
4.11864e-08
1.66916e-08
-2.38767e-10
4.05759e-08
1.69114e-08
2.89366e-10
3.95259e-08
1.74333e-08
9.07989e-10
3.85578e-08
1.77824e-08
1.48293e-09
3.75022e-08
1.82634e-08
2.17787e-09
3.66272e-08
1.84426e-08
2.61723e-09
3.63193e-08
1.83072e-08
2.62436e-09
3.63159e-08
1.83023e-08
2.18748e-09
3.66113e-08
1.84433e-08
1.50803e-09
3.74685e-08
1.82658e-08
9.32451e-10
3.85145e-08
1.77949e-08
3.15599e-10
3.94668e-08
1.74598e-08
-2.07308e-10
4.05157e-08
1.69338e-08
-5.95925e-10
4.11229e-08
1.67151e-08
-7.79287e-10
4.12993e-08
1.67222e-08
-8.1773e-10
4.10932e-08
1.69667e-08
-7.16203e-10
4.02793e-08
1.76791e-08
-5.4574e-10
3.93278e-08
1.846e-08
-2.75415e-10
3.85757e-08
1.89419e-08
-7.50645e-11
3.80163e-08
1.93009e-08
2.85392e-11
3.77482e-08
1.94655e-08
-1.59749e-12
3.77602e-08
1.94836e-08
-3.5791e-11
3.78288e-08
1.94554e-08
-7.50264e-12
3.78287e-08
1.94273e-08
-1.093e-10
3.81241e-08
1.92335e-08
-3.25252e-10
3.8747e-08
1.88267e-08
-5.78684e-10
3.95473e-08
1.82799e-08
-7.43529e-10
4.04735e-08
1.75186e-08
-8.40522e-10
4.12203e-08
1.68687e-08
-7.87241e-10
4.13898e-08
1.66459e-08
-5.89849e-10
4.11742e-08
1.66642e-08
-1.95774e-10
4.05536e-08
1.68907e-08
3.28397e-10
3.95022e-08
1.7418e-08
9.45882e-10
3.85402e-08
1.7762e-08
1.50787e-09
3.74982e-08
1.82424e-08
2.18401e-09
3.66182e-08
1.84453e-08
2.64423e-09
3.62609e-08
1.83386e-08
2.65132e-09
3.62572e-08
1.83341e-08
2.19381e-09
3.66018e-08
1.84464e-08
1.53253e-09
3.74642e-08
1.82456e-08
9.70459e-10
3.84961e-08
1.77754e-08
3.55017e-10
3.94428e-08
1.74444e-08
-1.64099e-10
4.04927e-08
1.69135e-08
-5.55977e-10
4.11096e-08
1.66885e-08
-7.55503e-10
4.13309e-08
1.66668e-08
-8.11711e-10
4.11679e-08
1.6886e-08
-7.17572e-10
4.0419e-08
1.75408e-08
-5.50829e-10
3.94835e-08
1.83096e-08
-2.93365e-10
3.86792e-08
1.88563e-08
-7.66541e-11
3.80548e-08
1.92639e-08
2.57899e-11
3.77616e-08
1.9455e-08
-3.18734e-12
3.77636e-08
1.94817e-08
-3.40882e-11
3.7833e-08
1.94494e-08
-8.05165e-12
3.7847e-08
1.94097e-08
-1.09529e-10
3.81749e-08
1.9183e-08
-3.38437e-10
3.88794e-08
1.87075e-08
-5.8969e-10
3.97518e-08
1.80865e-08
-7.62397e-10
4.06355e-08
1.73755e-08
-8.2924e-10
4.12777e-08
1.68001e-08
-7.42848e-10
4.13758e-08
1.66155e-08
-5.15724e-10
4.10896e-08
1.66746e-08
-1.10766e-10
4.04477e-08
1.69115e-08
4.08829e-10
3.94002e-08
1.74395e-08
1.02476e-09
3.84467e-08
1.77767e-08
1.56629e-09
3.74367e-08
1.82454e-08
2.23144e-09
3.65575e-08
1.84585e-08
2.70946e-09
3.61475e-08
1.83869e-08
2.71658e-09
3.61432e-08
1.83829e-08
2.24158e-09
3.65401e-08
1.84604e-08
1.59059e-09
3.74021e-08
1.82496e-08
1.04947e-09
3.84015e-08
1.77909e-08
4.35818e-10
3.93407e-08
1.74657e-08
-7.87888e-11
4.03859e-08
1.69349e-08
-4.81345e-10
4.10236e-08
1.66998e-08
-7.10514e-10
4.13158e-08
1.66368e-08
-8.00047e-10
4.12251e-08
1.68171e-08
-7.3664e-10
4.05825e-08
1.73963e-08
-5.62889e-10
3.96894e-08
1.81157e-08
-3.07314e-10
3.88118e-08
1.87377e-08
-7.68928e-11
3.81054e-08
1.92136e-08
2.54404e-11
3.77792e-08
1.94377e-08
-1.31282e-12
3.77673e-08
1.94761e-08
-2.72533e-11
3.78383e-08
1.94373e-08
-3.85997e-12
3.78675e-08
1.93851e-08
-1.08371e-10
3.82356e-08
1.91211e-08
-3.53411e-10
3.90395e-08
1.85623e-08
-6.18981e-10
4.00003e-08
1.78672e-08
-7.90628e-10
4.08092e-08
1.723e-08
-8.04962e-10
4.13021e-08
1.67514e-08
-6.64495e-10
4.12795e-08
1.66334e-08
-3.89825e-10
4.08838e-08
1.67544e-08
3.81756e-11
4.0201e-08
1.70092e-08
5.54479e-10
3.91624e-08
1.75316e-08
1.17212e-09
3.82163e-08
1.78596e-08
1.68381e-09
3.72648e-08
1.82997e-08
2.33399e-09
3.64064e-08
1.85068e-08
2.82656e-09
3.59447e-08
1.84726e-08
2.83375e-09
3.59395e-08
1.84693e-08
2.3446e-09
3.63875e-08
1.85099e-08
1.70782e-09
3.72294e-08
1.8305e-08
1.19699e-09
3.81702e-08
1.78746e-08
5.81753e-10
3.91028e-08
1.75576e-08
7.05014e-11
4.0138e-08
1.70336e-08
-3.54857e-10
4.08164e-08
1.67804e-08
-6.31388e-10
4.12182e-08
1.66554e-08
-7.75214e-10
4.12493e-08
1.67681e-08
-7.65109e-10
4.07583e-08
1.72491e-08
-5.92978e-10
3.994e-08
1.78952e-08
-3.23198e-10
3.89733e-08
1.8592e-08
-7.59683e-11
3.81661e-08
1.91519e-08
2.94986e-11
3.77991e-08
1.9414e-08
5.66666e-12
3.77718e-08
1.94646e-08
-1.3448e-11
3.7845e-08
1.94168e-08
7.26468e-12
3.78881e-08
1.93535e-08
-1.05447e-10
3.83063e-08
1.90475e-08
-3.70351e-10
3.92114e-08
1.84073e-08
-6.59215e-10
4.02575e-08
1.76503e-08
-8.20944e-10
4.09864e-08
1.70831e-08
-7.58814e-10
4.12742e-08
1.67332e-08
-5.3801e-10
4.10579e-08
1.67285e-08
-1.93556e-10
4.0498e-08
1.69439e-08
2.74141e-10
3.97413e-08
1.72329e-08
7.93818e-10
3.87099e-08
1.77446e-08
1.42474e-09
3.77643e-08
1.80586e-08
1.89618e-09
3.69027e-08
1.84492e-08
2.52573e-09
3.60907e-08
1.86304e-08
3.03037e-09
3.55808e-08
1.86325e-08
3.03766e-09
3.55745e-08
1.86302e-08
2.53694e-09
3.607e-08
1.86349e-08
1.9199e-09
3.68663e-08
1.84558e-08
1.44969e-09
3.77173e-08
1.80745e-08
8.21225e-10
3.86506e-08
1.77702e-08
3.06734e-10
3.96767e-08
1.72586e-08
-1.5798e-10
4.04291e-08
1.69709e-08
-5.03895e-10
4.09946e-08
1.67513e-08
-7.28249e-10
4.12208e-08
1.67497e-08
-7.95325e-10
4.0938e-08
1.70995e-08
-6.34168e-10
4.02029e-08
1.76735e-08
-3.41031e-10
3.91465e-08
1.84366e-08
-7.33199e-11
3.82347e-08
1.90807e-08
4.05142e-11
3.78187e-08
1.93834e-08
1.96018e-11
3.77776e-08
1.94449e-08
9.11455e-12
3.78528e-08
1.93863e-08
2.68386e-11
3.79065e-08
1.93158e-08
-9.94968e-11
3.83793e-08
1.89686e-08
-3.88554e-10
3.93825e-08
1.82543e-08
-7.04305e-10
4.05011e-08
1.74516e-08
-8.44111e-10
4.11512e-08
1.69414e-08
-6.83047e-10
4.11741e-08
1.67575e-08
-3.51256e-10
4.06718e-08
1.69279e-08
8.66574e-11
3.98763e-08
1.72854e-08
6.14069e-10
3.89852e-08
1.76491e-08
1.15049e-09
3.79541e-08
1.81436e-08
1.81816e-09
3.69888e-08
1.84406e-08
2.24272e-09
3.62451e-08
1.87601e-08
2.85082e-09
3.5504e-08
1.88919e-08
3.36506e-09
3.49472e-08
1.89316e-08
3.37244e-09
3.49395e-08
1.89305e-08
2.86269e-09
3.5481e-08
1.88981e-08
2.26606e-09
3.62077e-08
1.87681e-08
1.843e-09
3.69412e-08
1.84574e-08
1.17778e-09
3.78953e-08
1.81689e-08
6.46704e-10
3.89191e-08
1.76763e-08
1.22806e-10
3.98055e-08
1.73136e-08
-3.15845e-10
4.06057e-08
1.69522e-08
-6.51387e-10
4.11195e-08
1.67741e-08
-8.18225e-10
4.11052e-08
1.69551e-08
-6.79894e-10
4.04512e-08
1.74708e-08
-3.60102e-10
3.93185e-08
1.82836e-08
-6.77876e-11
3.83069e-08
1.9003e-08
6.00008e-11
3.78362e-08
1.93467e-08
4.2319e-11
3.77843e-08
1.94154e-08
4.14283e-11
3.78588e-08
1.9348e-08
5.55599e-11
3.79184e-08
1.92754e-08
-8.78261e-11
3.8437e-08
1.88994e-08
-4.04332e-10
3.95364e-08
1.81161e-08
-7.47861e-10
4.07214e-08
1.72746e-08
-8.53202e-10
4.12833e-08
1.68182e-08
-5.74844e-10
4.09903e-08
1.68332e-08
-1.01008e-10
4.01051e-08
1.72444e-08
4.51664e-10
3.8989e-08
1.78077e-08
1.05988e-09
3.78375e-08
1.83511e-08
1.62907e-09
3.68174e-08
1.8802e-08
2.33466e-09
3.58189e-08
1.90948e-08
2.74633e-09
3.51676e-08
1.9334e-08
3.33149e-09
3.45069e-08
1.94095e-08
3.8498e-09
3.39048e-08
1.94907e-08
3.85718e-09
3.38957e-08
1.9491e-08
3.34393e-09
3.44816e-08
1.94177e-08
2.7691e-09
3.51294e-08
1.93436e-08
2.35913e-09
3.5771e-08
1.91123e-08
1.6559e-09
3.67597e-08
1.88266e-08
1.09221e-09
3.77701e-08
1.83799e-08
4.88271e-10
3.89162e-08
1.78376e-08
-6.39871e-11
4.00351e-08
1.7271e-08
-5.41854e-10
4.09336e-08
1.68506e-08
-8.27297e-10
4.12392e-08
1.68301e-08
-7.24594e-10
4.06752e-08
1.72913e-08
-3.76862e-10
3.94743e-08
1.81445e-08
-5.65394e-11
3.83646e-08
1.89341e-08
8.85791e-11
3.78471e-08
1.93074e-08
7.4665e-11
3.77891e-08
1.93782e-08
8.39937e-11
3.78564e-08
1.93077e-08
9.34377e-11
3.79188e-08
1.92375e-08
-6.84233e-11
3.84699e-08
1.88471e-08
-4.14184e-10
3.96555e-08
1.80069e-08
-7.83308e-10
4.09046e-08
1.71267e-08
-8.46687e-10
4.13699e-08
1.6725e-08
-4.41889e-10
4.07352e-08
1.69555e-08
1.97833e-10
3.93924e-08
1.76584e-08
8.80252e-10
3.78668e-08
1.85013e-08
1.58268e-09
3.63578e-08
1.93079e-08
2.20125e-09
3.52517e-08
1.97957e-08
2.81111e-09
3.42995e-08
2.01365e-08
3.39082e-09
3.35415e-08
2.03159e-08
3.91544e-09
3.29344e-08
2.03983e-08
4.43331e-09
3.22944e-08
2.05179e-08
4.44058e-09
3.22841e-08
2.05195e-08
3.92817e-09
3.29071e-08
2.04083e-08
3.41279e-09
3.35028e-08
2.03268e-08
2.83499e-09
3.42518e-08
2.01543e-08
2.2273e-09
3.51959e-08
1.98192e-08
1.61438e-09
3.62903e-08
1.93375e-08
9.17157e-10
3.77912e-08
1.85337e-08
2.36735e-10
3.93173e-08
1.76883e-08
-4.07316e-10
4.06755e-08
1.69743e-08
-8.20648e-10
4.13268e-08
1.67357e-08
-7.6175e-10
4.08614e-08
1.7142e-08
-3.88491e-10
3.95954e-08
1.8035e-08
-3.76168e-11
3.83977e-08
1.88823e-08
1.2618e-10
3.78465e-08
1.92707e-08
1.16952e-10
3.77857e-08
1.93392e-08
1.35804e-10
3.78385e-08
1.92739e-08
1.39167e-10
3.79018e-08
1.9209e-08
-4.13242e-11
3.84738e-08
1.88163e-08
-4.17402e-10
3.97339e-08
1.79316e-08
-8.09207e-10
4.10483e-08
1.70085e-08
-8.33833e-10
4.14211e-08
1.66606e-08
-3.07003e-10
4.04611e-08
1.70949e-08
5.05056e-10
3.86525e-08
1.80916e-08
1.32458e-09
3.6687e-08
1.92369e-08
2.12451e-09
3.48457e-08
2.02785e-08
2.80873e-09
3.35024e-08
2.09379e-08
3.32808e-09
3.25183e-08
2.14013e-08
4.10712e-09
3.15345e-08
2.16066e-08
4.58684e-09
3.09027e-08
2.17549e-08
5.10709e-09
3.02321e-08
2.19032e-08
5.11407e-09
3.02212e-08
2.19056e-08
4.59959e-09
3.08748e-08
2.17656e-08
4.12811e-09
3.14962e-08
2.16183e-08
3.35128e-09
3.24718e-08
2.14186e-08
2.83391e-09
3.3449e-08
2.09599e-08
2.15512e-09
3.47796e-08
2.03078e-08
1.36173e-09
3.66083e-08
1.92722e-08
5.45922e-10
3.85714e-08
1.81255e-08
-2.70681e-10
4.03979e-08
1.71155e-08
-8.0748e-10
4.13788e-08
1.66703e-08
-7.88764e-10
4.10075e-08
1.70226e-08
-3.93306e-10
3.96752e-08
1.796e-08
-1.16456e-11
3.84015e-08
1.88527e-08
1.71226e-10
3.78288e-08
1.92436e-08
1.68141e-10
3.77671e-08
1.93066e-08
1.90984e-10
3.7804e-08
1.92532e-08
1.87142e-10
3.7868e-08
1.91951e-08
-1.05645e-11
3.84525e-08
1.88072e-08
-4.15428e-10
3.97755e-08
1.7888e-08
-8.28279e-10
4.11588e-08
1.69166e-08
-8.28707e-10
4.1462e-08
1.66141e-08
-2.02853e-10
4.02515e-08
1.72004e-08
7.59741e-10
3.80588e-08
1.8431e-08
1.69995e-09
3.5723e-08
1.98257e-08
2.58103e-09
3.36248e-08
2.10432e-08
3.33585e-09
3.20495e-08
2.18641e-08
3.94646e-09
3.08339e-08
2.24682e-08
4.76519e-09
2.96988e-08
2.27852e-08
5.27957e-09
2.8969e-08
2.29974e-08
5.80277e-09
2.82665e-08
2.31752e-08
5.80928e-09
2.82558e-08
2.31779e-08
5.29206e-09
2.89416e-08
2.30081e-08
4.78514e-09
2.96617e-08
2.27967e-08
3.96887e-09
3.07893e-08
2.24845e-08
3.36007e-09
3.19987e-08
2.18845e-08
2.61025e-09
3.35609e-08
2.10716e-08
1.73722e-09
3.56417e-08
1.98635e-08
8.02323e-10
3.79721e-08
1.84688e-08
-1.64724e-10
4.01845e-08
1.72231e-08
-8.00897e-10
4.142e-08
1.6622e-08
-8.07468e-10
4.112e-08
1.69283e-08
-3.92728e-10
3.97174e-08
1.79171e-08
1.74494e-11
3.83797e-08
1.88456e-08
2.18224e-10
3.77946e-08
1.92312e-08
2.22527e-10
3.77324e-08
1.9287e-08
2.34502e-10
3.77662e-08
1.92477e-08
2.21629e-10
3.78353e-08
1.91935e-08
1.17629e-11
3.84284e-08
1.88092e-08
-4.11117e-10
3.97892e-08
1.787e-08
-8.34492e-10
4.12206e-08
1.68606e-08
-8.28815e-10
4.14912e-08
1.6584e-08
-1.49949e-10
4.0153e-08
1.72461e-08
9.05409e-10
3.77402e-08
1.86041e-08
1.92222e-09
3.51754e-08
2.01508e-08
2.8496e-09
3.29324e-08
2.14666e-08
3.65109e-09
3.12105e-08
2.23873e-08
4.34831e-09
2.98095e-08
2.30901e-08
5.17989e-09
2.85584e-08
2.35109e-08
5.73977e-09
2.77287e-08
2.37784e-08
6.26567e-09
2.70007e-08
2.39795e-08
6.27175e-09
2.69903e-08
2.39823e-08
5.75196e-09
2.77019e-08
2.37888e-08
5.19908e-09
2.85224e-08
2.35222e-08
4.37012e-09
2.97664e-08
2.31054e-08
3.67458e-09
3.11615e-08
2.24066e-08
2.87775e-09
3.28705e-08
2.14941e-08
1.95948e-09
3.50925e-08
2.01902e-08
9.49088e-10
3.76499e-08
1.86445e-08
-1.10517e-10
4.00823e-08
1.72711e-08
-8.00824e-10
4.14483e-08
1.65926e-08
-8.1297e-10
4.11828e-08
1.68706e-08
-3.87588e-10
3.97318e-08
1.78976e-08
3.94973e-11
3.83558e-08
1.88478e-08
2.52191e-10
3.77618e-08
1.92303e-08
2.65442e-10
3.76947e-08
1.92819e-08
)
;

boundaryField
{
    freeSurface
    {
        type            slip;
    }
    inlet
    {
        type            cyclic;
    }
    outlet
    {
        type            cyclic;
    }
    sidewalls
    {
        type            zeroGradient;
    }
    noSlipWalls
    {
        type            zeroGradient;
    }
}


// ************************************************************************* //
