/*--------------------------------*- C++ -*----------------------------------*\
  =========                 |
  \\      /  F ield         | OpenFOAM: The Open Source CFD Toolbox
   \\    /   O peration     | Website:  https://openfoam.org
    \\  /    A nd           | Version:  6
     \\/     M anipulation  |
\*---------------------------------------------------------------------------*/
FoamFile
{
    version     2.0;
    format      ascii;
    class       volVectorField;
    location    "20";
    object      wallShearStress;
}
// * * * * * * * * * * * * * * * * * * * * * * * * * * * * * * * * * * * * * //

dimensions      [0 2 -2 0 0 0 0];

internalField   uniform (0 0 0);

boundaryField
{
    inlet
    {
        type            calculated;
        value           uniform (0 0 0);
    }
    outlet
    {
        type            calculated;
        value           uniform (0 0 0);
    }
    roughCylinder
    {
        type            calculated;
        value           nonuniform List<vector> 
5120
(
(-0.000115095 -0.000131108 -6.36863e-05)
(-0.000155926 -0.00024917 -6.89495e-05)
(-0.000234217 -0.000405125 -1.19944e-05)
(-0.00027997 -0.000481654 3.86226e-05)
(-0.000334636 -0.000544933 8.51228e-05)
(-0.000381517 -0.000576233 0.000124101)
(-0.00042429 -0.000590638 0.000155121)
(-0.000457317 -0.000587935 0.000176414)
(-0.000484735 -0.00057947 0.000191053)
(-0.000506836 -0.000570126 0.000201585)
(-0.000526153 -0.000563425 0.000210514)
(-0.000539751 -0.000556492 0.000216529)
(-0.000548988 -0.000551054 0.000219528)
(-0.000555634 -0.000547127 0.000219775)
(-0.000562422 -0.000546664 0.000218293)
(-0.000567107 -0.000546887 0.000214288)
(-0.000567983 -0.00054549 0.000207382)
(-0.000572479 -0.000548706 0.000200261)
(-0.000578123 -0.000554116 0.000191925)
(-0.000563742 -0.000542214 0.000176451)
(-0.000558194 -0.000539033 0.00016363)
(-0.000565238 -0.000547144 0.000153692)
(-0.000570647 -0.000554396 0.00014265)
(-0.000585201 -0.000569734 0.000132826)
(-0.000580562 -0.000566853 0.000118133)
(-0.000579839 -0.000568332 0.000104189)
(-0.000579717 -0.000569776 8.98264e-05)
(-0.000575023 -0.000567173 7.4493e-05)
(-0.000573902 -0.000567563 5.93927e-05)
(-0.000569076 -0.000564089 4.33456e-05)
(-0.000564745 -0.00056084 2.65963e-05)
(-0.00056413 -0.000560798 9.05502e-06)
(-9.81161e-05 -9.87662e-05 -4.4662e-05)
(-0.000168436 -0.000242104 -7.39387e-05)
(-0.000249981 -0.000395235 -2.01742e-05)
(-0.000298535 -0.000475806 2.99312e-05)
(-0.000355551 -0.000542003 7.65714e-05)
(-0.000405048 -0.000577156 0.000116383)
(-0.000449741 -0.000593916 0.000147917)
(-0.000484517 -0.000593438 0.000169582)
(-0.000514961 -0.000588813 0.000185291)
(-0.000540176 -0.000582671 0.000197358)
(-0.000561134 -0.000576858 0.000207435)
(-0.000576966 -0.000570221 0.000214793)
(-0.000586281 -0.000562755 0.000218102)
(-0.000593915 -0.000558657 0.000218847)
(-0.000601146 -0.000557793 0.000217613)
(-0.00060594 -0.000557615 0.000213766)
(-0.000608351 -0.000557356 0.000207535)
(-0.000614484 -0.000561751 0.000200908)
(-0.000617943 -0.000565118 0.00019187)
(-0.000602923 -0.000553499 0.000176734)
(-0.000602199 -0.000554851 0.000165455)
(-0.000608056 -0.000561615 0.000155095)
(-0.000616373 -0.000571216 0.000144633)
(-0.000632347 -0.000587213 0.000134805)
(-0.00062554 -0.000582871 0.000119697)
(-0.000625536 -0.000585096 0.000105799)
(-0.000624814 -0.000586062 9.1195e-05)
(-0.000619484 -0.000583209 7.56446e-05)
(-0.000618334 -0.000583734 6.03553e-05)
(-0.000613482 -0.000580556 4.40973e-05)
(-0.000608823 -0.000577285 2.70726e-05)
(-0.000608207 -0.000577301 9.22273e-06)
(-0.000106524 -9.30899e-05 -3.63396e-05)
(-0.000181086 -0.000231394 -7.87281e-05)
(-0.000266004 -0.000381042 -2.89197e-05)
(-0.000317601 -0.000465643 2.01696e-05)
(-0.000376596 -0.000534212 6.67999e-05)
(-0.000427945 -0.000572148 0.000107166)
(-0.000474637 -0.000591656 0.000139221)
(-0.000511971 -0.000594767 0.000161746)
(-0.000544383 -0.000592931 0.000178437)
(-0.000571185 -0.000588586 0.000191651)
(-0.000595102 -0.000585206 0.000203257)
(-0.000613342 -0.000579767 0.000211829)
(-0.000626579 -0.000573718 0.000216705)
(-0.000636048 -0.000569845 0.000218285)
(-0.00064434 -0.000568847 0.000217494)
(-0.00064991 -0.00056868 0.000214022)
(-0.000653129 -0.000568684 0.000208132)
(-0.000659605 -0.000573003 0.000201549)
(-0.000659533 -0.000573409 0.000191577)
(-0.000643845 -0.000562056 0.000176816)
(-0.00064654 -0.000566246 0.00016657)
(-0.000650509 -0.000571169 0.000155744)
(-0.000661248 -0.00058239 0.00014575)
(-0.000677779 -0.000598172 0.000135824)
(-0.000669161 -0.00059289 0.000120522)
(-0.000671207 -0.000596996 0.000106967)
(-0.000671208 -0.000598716 9.23846e-05)
(-0.000667488 -0.000597705 7.69185e-05)
(-0.00066692 -0.000598939 6.14755e-05)
(-0.000662812 -0.000596776 4.50183e-05)
(-0.000658465 -0.00059412 2.7683e-05)
(-0.00065785 -0.000594206 9.43654e-06)
(-0.000114666 -8.58891e-05 -2.54949e-05)
(-0.000192228 -0.000216853 -8.2769e-05)
(-0.000279186 -0.000360846 -3.78365e-05)
(-0.000333056 -0.000448076 9.47292e-06)
(-0.000393945 -0.000519171 5.56845e-05)
(-0.000448316 -0.000561635 9.65907e-05)
(-0.000497885 -0.000585212 0.000129294)
(-0.000537754 -0.000592157 0.000152791)
(-0.000573587 -0.000594852 0.000171142)
(-0.000604255 -0.000594684 0.000186402)
(-0.000630013 -0.000592474 0.000199184)
(-0.000650386 -0.00058796 0.000208708)
(-0.000664986 -0.000581474 0.000214254)
(-0.000675732 -0.000576553 0.000216425)
(-0.000684678 -0.000574985 0.000216003)
(-0.000690767 -0.000574338 0.000212826)
(-0.000695647 -0.000575173 0.000207562)
(-0.000702654 -0.000579577 0.000201163)
(-0.000700527 -0.000578564 0.000190906)
(-0.000687102 -0.00056986 0.000177305)
(-0.000693771 -0.000577051 0.000168117)
(-0.000696514 -0.00058088 0.000157036)
(-0.000710184 -0.000593944 0.000147535)
(-0.000726807 -0.000609153 0.000137395)
(-0.00071738 -0.000603926 0.000122054)
(-0.000719997 -0.00060854 0.000108514)
(-0.000719336 -0.000609839 9.37242e-05)
(-0.000714938 -0.000608643 7.8056e-05)
(-0.000714237 -0.000609978 6.24219e-05)
(-0.000710179 -0.000608207 4.57625e-05)
(-0.00070557 -0.000605678 2.81608e-05)
(-0.000704925 -0.000605825 9.60501e-06)
(-0.00012221 -7.72052e-05 -1.29594e-05)
(-0.000200441 -0.000198277 -8.53853e-05)
(-0.000289456 -0.000335959 -4.63751e-05)
(-0.000345963 -0.000425964 -1.6718e-06)
(-0.000408913 -0.000499893 4.37646e-05)
(-0.000465512 -0.00054586 8.48084e-05)
(-0.000517562 -0.000573193 0.00011791)
(-0.000561141 -0.000585418 0.000142714)
(-0.000599843 -0.000592059 0.000162641)
(-0.000631707 -0.000593508 0.000179181)
(-0.000660345 -0.000593649 0.000193495)
(-0.000683333 -0.000590599 0.000204136)
(-0.000702472 -0.000586916 0.000211281)
(-0.000717038 -0.000583185 0.00021486)
(-0.000727671 -0.000580907 0.000215131)
(-0.000735067 -0.000580319 0.000212492)
(-0.000740567 -0.000580914 0.000207503)
(-0.000746891 -0.000584383 0.000201)
(-0.000742526 -0.000581933 0.000190525)
(-0.00073094 -0.000575253 0.00017789)
(-0.000739012 -0.000583129 0.000169093)
(-0.000740275 -0.000585811 0.000157816)
(-0.000755674 -0.000599565 0.00014859)
(-0.000771362 -0.000613492 0.000138172)
(-0.000761792 -0.000608931 0.000123)
(-0.000766201 -0.000615029 0.000109726)
(-0.000766166 -0.000617024 9.49549e-05)
(-0.000763535 -0.000617688 7.93701e-05)
(-0.000763396 -0.000619735 6.3572e-05)
(-0.000760115 -0.000618963 4.6702e-05)
(-0.000755959 -0.000617191 2.87882e-05)
(-0.000755275 -0.000617411 9.82456e-06)
(-0.000129047 -6.74461e-05 5.9582e-07)
(-0.000204985 -0.000176291 -8.6363e-05)
(-0.000295797 -0.000306672 -5.40081e-05)
(-0.000353658 -0.000397334 -1.29691e-05)
(-0.000417951 -0.000473326 3.08233e-05)
(-0.000477964 -0.000524315 7.17367e-05)
(-0.000534039 -0.0005572 0.000105394)
(-0.000580953 -0.000574239 0.00013139)
(-0.000623061 -0.000585204 0.000153055)
(-0.000659661 -0.000591414 0.000171849)
(-0.000690816 -0.000593393 0.000187612)
(-0.000716667 -0.000591948 0.000199534)
(-0.000737269 -0.000588407 0.00020737)
(-0.000753497 -0.000584698 0.000211658)
(-0.000766011 -0.00058184 0.000212719)
(-0.000774135 -0.000580028 0.000210535)
(-0.000780884 -0.000580608 0.000206061)
(-0.000787173 -0.00058369 0.000199791)
(-0.000782827 -0.000581575 0.000189811)
(-0.000775598 -0.000578535 0.000178689)
(-0.000785695 -0.000587499 0.000170424)
(-0.000786672 -0.000590071 0.000159244)
(-0.000804045 -0.000604598 0.000150304)
(-0.00081841 -0.000617106 0.000139549)
(-0.000809512 -0.000613834 0.000124619)
(-0.000814139 -0.000620199 0.000111317)
(-0.000813195 -0.000621905 9.6353e-05)
(-0.000809761 -0.000622566 8.05755e-05)
(-0.00080932 -0.000624842 6.45742e-05)
(-0.00080604 -0.000624582 4.74894e-05)
(-0.000801684 -0.000623164 2.92995e-05)
(-0.000800913 -0.000623501 1.00045e-05)
(-0.000134395 -5.68056e-05 1.45777e-05)
(-0.000208596 -0.000153917 -8.64398e-05)
(-0.000297332 -0.000273815 -6.05793e-05)
(-0.000356884 -0.000364622 -2.40516e-05)
(-0.000423233 -0.000443522 1.73045e-05)
(-0.000485978 -0.000498799 5.76149e-05)
(-0.000544778 -0.000535875 9.14503e-05)
(-0.000596119 -0.000558702 0.000118776)
(-0.0006424 -0.000574428 0.000142275)
(-0.000680478 -0.000582201 0.000162397)
(-0.000714809 -0.000586565 0.000179718)
(-0.000743629 -0.000586887 0.000192982)
(-0.000769045 -0.000586223 0.000202536)
(-0.00078935 -0.000584456 0.000208242)
(-0.000804872 -0.000582462 0.000210407)
(-0.000815552 -0.000580749 0.000209177)
(-0.000822967 -0.000580493 0.000205183)
(-0.000828455 -0.000582277 0.000199034)
(-0.000824278 -0.000580334 0.000189603)
(-0.00081983 -0.000579374 0.000179531)
(-0.000829128 -0.000587412 0.000171242)
(-0.000829545 -0.000589826 0.000160204)
(-0.00084729 -0.000604076 0.000151341)
(-0.000859519 -0.000615003 0.000140268)
(-0.000851662 -0.000613434 0.00012572)
(-0.000857629 -0.000621054 0.000112629)
(-0.000856814 -0.000623367 9.76548e-05)
(-0.000854919 -0.000625861 8.194e-05)
(-0.000854736 -0.000628869 6.57503e-05)
(-0.000851959 -0.000629561 4.8434e-05)
(-0.000847983 -0.000629 2.99296e-05)
(-0.00084707 -0.000629454 1.02242e-05)
(-0.000144662 -4.7725e-05 3.01119e-05)
(-0.000207908 -0.000129239 -8.36127e-05)
(-0.000294287 -0.000238887 -6.61494e-05)
(-0.000353761 -0.000327185 -3.44141e-05)
(-0.00042029 -0.000407052 3.31396e-06)
(-0.000486297 -0.000467273 4.23147e-05)
(-0.000550049 -0.000510762 7.6402e-05)
(-0.000605656 -0.000538955 0.000104875)
(-0.000655343 -0.000558434 0.000129892)
(-0.00069939 -0.000571308 0.000152244)
(-0.000737577 -0.000578276 0.000171248)
(-0.000770294 -0.000580874 0.000186138)
(-0.000797564 -0.000580686 0.000196732)
(-0.000819272 -0.000578911 0.000203277)
(-0.000836224 -0.000576849 0.000206222)
(-0.000848312 -0.000575033 0.000205778)
(-0.000857252 -0.000574826 0.000202615)
(-0.000863473 -0.000576406 0.000197156)
(-0.000861648 -0.000575934 0.000188897)
(-0.000861843 -0.000578008 0.000180287)
(-0.000871687 -0.000586185 0.000172344)
(-0.000872781 -0.00058935 0.000161719)
(-0.000891001 -0.000603481 0.000152962)
(-0.000900684 -0.000612858 0.000141534)
(-0.000894048 -0.000613059 0.000127328)
(-0.000899383 -0.000620527 0.000114121)
(-0.000897082 -0.000622269 9.89249e-05)
(-0.000894082 -0.00062456 8.30231e-05)
(-0.000893177 -0.000627509 6.66205e-05)
(-0.000890096 -0.000628483 4.91033e-05)
(-0.000885819 -0.000628216 3.03632e-05)
(-0.000884697 -0.000628726 1.03751e-05)
(-0.000162916 -3.92189e-05 4.99384e-05)
(-0.000207999 -0.000106897 -8.01905e-05)
(-0.000285798 -0.000202124 -6.99542e-05)
(-0.000344327 -0.000286515 -4.34785e-05)
(-0.000411926 -0.000367988 -1.05377e-05)
(-0.000480671 -0.000432651 2.63628e-05)
(-0.000547035 -0.00048039 6.00976e-05)
(-0.00060728 -0.00051407 8.95301e-05)
(-0.000662804 -0.000539004 0.000116265)
(-0.000709268 -0.000553652 0.000139888)
(-0.000751294 -0.000562998 0.000160424)
(-0.00078744 -0.00056741 0.000176782)
(-0.000819742 -0.000570006 0.000189244)
(-0.000846106 -0.000570565 0.000197556)
(-0.000866631 -0.00057 0.000201954)
(-0.000881296 -0.000569059 0.0002027)
(-0.000891085 -0.000568756 0.00020033)
(-0.000897356 -0.000569949 0.000195539)
(-0.000897473 -0.000570563 0.000188386)
(-0.000899786 -0.000573768 0.000180681)
(-0.00090751 -0.000580432 0.000172659)
(-0.000908578 -0.000583775 0.000162391)
(-0.000925545 -0.00059664 0.000153549)
(-0.000932277 -0.00060433 0.000141844)
(-0.000926853 -0.000605995 0.000128043)
(-0.000932798 -0.000614089 0.000114973)
(-0.000930397 -0.000616252 9.98048e-05)
(-0.000928931 -0.000620097 8.403e-05)
(-0.000928165 -0.00062358 6.74941e-05)
(-0.000925446 -0.000625284 4.98123e-05)
(-0.000921561 -0.000625786 3.08452e-05)
(-0.000920291 -0.000626407 1.05429e-05)
(-0.000180725 -2.80104e-05 7.32599e-05)
(-0.000203122 -8.42959e-05 -7.40389e-05)
(-0.000273052 -0.000165442 -7.16462e-05)
(-0.000328259 -0.000243668 -5.04683e-05)
(-0.000393648 -0.000323303 -2.35085e-05)
(-0.000464212 -0.000391586 1.00039e-05)
(-0.000535817 -0.000445968 4.29519e-05)
(-0.000601434 -0.000485564 7.30505e-05)
(-0.000660423 -0.000513686 0.000100813)
(-0.000714113 -0.000533486 0.000126363)
(-0.000761515 -0.000545871 0.000148628)
(-0.000802796 -0.000552905 0.000166814)
(-0.000837585 -0.000556208 0.000180623)
(-0.000865428 -0.000556881 0.000190087)
(-0.000887331 -0.000556486 0.000195597)
(-0.000903399 -0.000555875 0.000197447)
(-0.000914668 -0.000556108 0.000196207)
(-0.000922153 -0.000557781 0.000192508)
(-0.00092528 -0.00056002 0.00018675)
(-0.000931108 -0.000565119 0.000180291)
(-0.000939073 -0.000571917 0.000172759)
(-0.000941371 -0.000576179 0.000163115)
(-0.000957731 -0.000588284 0.000154347)
(-0.000961689 -0.00059461 0.000142433)
(-0.000957619 -0.000597626 0.000129026)
(-0.000962046 -0.000604966 0.000115815)
(-0.000957787 -0.00060648 0.000100506)
(-0.000954983 -0.000609933 8.46409e-05)
(-0.0009531 -0.000613115 6.79615e-05)
(-0.000949813 -0.000614914 5.01742e-05)
(-0.000945517 -0.000615623 3.10856e-05)
(-0.000943945 -0.000616268 1.06258e-05)
(-0.00019311 -1.388e-05 9.76606e-05)
(-0.000200004 -6.49316e-05 -6.78647e-05)
(-0.000256122 -0.000129935 -7.05923e-05)
(-0.000305132 -0.000199577 -5.45155e-05)
(-0.000368934 -0.000277024 -3.47938e-05)
(-0.000440831 -0.00034846 -5.89137e-06)
(-0.000514087 -0.000406572 2.52333e-05)
(-0.000583779 -0.000451041 5.52281e-05)
(-0.000650357 -0.000485431 8.41186e-05)
(-0.000707765 -0.000507378 0.000110715)
(-0.00075987 -0.000521906 0.000134377)
(-0.000805063 -0.000530333 0.000153999)
(-0.000845226 -0.000536079 0.000169741)
(-0.000878459 -0.000539301 0.000181302)
(-0.000904821 -0.000540988 0.000188759)
(-0.000923951 -0.000541771 0.000192255)
(-0.000936429 -0.000542467 0.000192249)
(-0.000944502 -0.000544293 0.000189627)
(-0.000949635 -0.000547445 0.00018509)
(-0.000956071 -0.000552651 0.000179358)
(-0.000961618 -0.000558124 0.00017194)
(-0.000963729 -0.000562403 0.000162764)
(-0.000977624 -0.00057276 0.000153913)
(-0.000978675 -0.000577837 0.00014193)
(-0.000975345 -0.000581642 0.000128946)
(-0.000979486 -0.000589038 0.000115878)
(-0.000974935 -0.000590967 0.000100712)
(-0.000973291 -0.00059557 8.50731e-05)
(-0.000971235 -0.000599085 6.83546e-05)
(-0.000967991 -0.000601396 5.05167e-05)
(-0.0009639 -0.00060272 3.13359e-05)
(-0.00096212 -0.000603472 1.07126e-05)
(-0.000205154 1.90002e-06 0.000125207)
(-0.000198068 -4.78446e-05 -6.16678e-05)
(-0.000237026 -9.7763e-05 -6.69414e-05)
(-0.000277209 -0.000156875 -5.51811e-05)
(-0.000334069 -0.000227263 -4.29961e-05)
(-0.000404032 -0.000298968 -2.0314e-05)
(-0.000481372 -0.000362743 7.69985e-06)
(-0.000557165 -0.000413713 3.68447e-05)
(-0.000626903 -0.000451088 6.57143e-05)
(-0.000692595 -0.000478445 9.35842e-05)
(-0.000751636 -0.000496291 0.00011887)
(-0.000803508 -0.000507252 0.000140442)
(-0.000847125 -0.000513506 0.00015775)
(-0.000882171 -0.000516744 0.000170737)
(-0.000909824 -0.000518595 0.000179654)
(-0.000930527 -0.000519986 0.00018469)
(-0.000944849 -0.000521621 0.000186253)
(-0.00095454 -0.000524257 0.000185087)
(-0.000962029 -0.000528487 0.000181961)
(-0.000970452 -0.000534632 0.000177346)
(-0.000976569 -0.000540616 0.000170711)
(-0.000979588 -0.000545553 0.000162252)
(-0.000992015 -0.000554911 0.000153555)
(-0.00099047 -0.00055913 0.000141593)
(-0.000987747 -0.00056354 0.000129015)
(-0.000989269 -0.000569687 0.00011581)
(-0.000982603 -0.00057106 0.00010063)
(-0.000978881 -0.000574818 8.49974e-05)
(-0.00097509 -0.00057778 6.82276e-05)
(-0.000970811 -0.000579967 5.0422e-05)
(-0.000965989 -0.000581325 3.12849e-05)
(-0.000963753 -0.000582063 1.06926e-05)
(-0.000206383 1.82373e-05 0.000147871)
(-0.000199229 -3.31278e-05 -5.6231e-05)
(-0.000215035 -6.95522e-05 -6.03273e-05)
(-0.00024291 -0.000115823 -5.15196e-05)
(-0.000293373 -0.000178276 -4.72269e-05)
(-0.000360907 -0.000249262 -3.22408e-05)
(-0.000437017 -0.00031472 -8.77041e-06)
(-0.00051467 -0.000369239 1.80956e-05)
(-0.000593194 -0.000413908 4.64781e-05)
(-0.000663579 -0.000444322 7.45486e-05)
(-0.000728343 -0.000464808 0.000100911)
(-0.000784903 -0.000476906 0.000123971)
(-0.000834655 -0.00048482 0.000143339)
(-0.000875972 -0.000490138 0.000158675)
(-0.000909103 -0.000493971 0.000169935)
(-0.000933243 -0.000496932 0.000177)
(-0.000948975 -0.000499314 0.000180259)
(-0.000959439 -0.000502369 0.000180548)
(-0.000967954 -0.000506984 0.000178681)
(-0.000975502 -0.000512597 0.000174754)
(-0.000979148 -0.000517508 0.00016846)
(-0.000981019 -0.000522001 0.00016047)
(-0.000989956 -0.000529431 0.000151744)
(-0.000985786 -0.000532976 0.000139949)
(-0.000982562 -0.000537329 0.000127757)
(-0.000982711 -0.000543282 0.000114729)
(-0.000975667 -0.000545169 9.98545e-05)
(-0.00097229 -0.000549682 8.45722e-05)
(-0.000967871 -0.000552895 6.79002e-05)
(-0.000963152 -0.000555411 5.02165e-05)
(-0.000958153 -0.000557187 3.11858e-05)
(-0.000955577 -0.000558026 1.06567e-05)
(-0.000204655 3.3298e-05 0.000167948)
(-0.000200813 -1.9509e-05 -5.08662e-05)
(-0.000192779 -4.67378e-05 -5.22203e-05)
(-0.000208119 -8.0595e-05 -4.45459e-05)
(-0.000245016 -0.000130094 -4.60835e-05)
(-0.000303464 -0.000194543 -3.95996e-05)
(-0.000379956 -0.000262414 -2.28213e-05)
(-0.000463229 -0.000323247 2.50628e-07)
(-0.000543219 -0.00037035 2.65719e-05)
(-0.000622309 -0.000406917 5.43672e-05)
(-0.000694965 -0.000431733 8.15949e-05)
(-0.000759827 -0.000447356 0.000106554)
(-0.000814515 -0.000456033 0.000127902)
(-0.000858281 -0.00046078 0.000145064)
(-0.000892568 -0.000463927 0.000158065)
(-0.000918278 -0.000466874 0.000166982)
(-0.000936102 -0.000469956 0.000172147)
(-0.000948009 -0.000473685 0.000174102)
(-0.000957537 -0.000478811 0.000173601)
(-0.000965621 -0.000484937 0.000170765)
(-0.000969958 -0.000490693 0.000165503)
(-0.00097183 -0.000495616 0.000158256)
(-0.000978578 -0.000502375 0.000149819)
(-0.000972019 -0.00050559 0.000138282)
(-0.000968083 -0.000509957 0.000126483)
(-0.00096451 -0.000514709 0.00011338)
(-0.000955173 -0.000516104 9.86542e-05)
(-0.000948331 -0.000519319 8.34856e-05)
(-0.00094145 -0.000521788 6.6902e-05)
(-0.000935054 -0.000523934 4.94498e-05)
(-0.000928845 -0.000525479 3.07043e-05)
(-0.000925584 -0.000526211 1.04845e-05)
(-0.000192708 4.35657e-05 0.000175095)
(-0.000206758 -7.21697e-06 -4.64701e-05)
(-0.000170334 -2.9263e-05 -4.31773e-05)
(-0.000167884 -5.03385e-05 -3.38147e-05)
(-0.000193651 -8.68113e-05 -3.95166e-05)
(-0.000244386 -0.000143879 -4.204e-05)
(-0.000312865 -0.000208053 -3.31148e-05)
(-0.000392474 -0.000268887 -1.56176e-05)
(-0.000481629 -0.000324008 7.26741e-06)
(-0.000565237 -0.000364312 3.34059e-05)
(-0.000644297 -0.000393053 6.06103e-05)
(-0.000714145 -0.000410867 8.6588e-05)
(-0.000775478 -0.000422006 0.000110024)
(-0.000826511 -0.000428939 0.000129865)
(-0.000867182 -0.000434088 0.000145624)
(-0.000896668 -0.000437993 0.000156986)
(-0.000915687 -0.000441139 0.000164068)
(-0.000927994 -0.000444904 0.00016761)
(-0.000937149 -0.000449942 0.000168315)
(-0.000943062 -0.000455379 0.000166192)
(-0.000944358 -0.000460101 0.000161392)
(-0.00094369 -0.000464289 0.000154558)
(-0.000945918 -0.00046948 0.000146194)
(-0.000936844 -0.000472354 0.000135024)
(-0.000930841 -0.000476127 0.00012359)
(-0.000924815 -0.00048049 0.000110719)
(-0.000915023 -0.000482309 9.64785e-05)
(-0.00090748 -0.000485818 8.18325e-05)
(-0.000899432 -0.000488341 6.55197e-05)
(-0.000892047 -0.000490534 4.84351e-05)
(-0.000885155 -0.000492126 3.00851e-05)
(-0.000881385 -0.000492869 1.02653e-05)
(-0.0001717 4.7237e-05 0.000166244)
(-0.000204224 3.79601e-06 -4.08804e-05)
(-0.000148953 -1.70439e-05 -3.41056e-05)
(-0.00013076 -2.85799e-05 -2.20854e-05)
(-0.000140889 -5.03296e-05 -2.82324e-05)
(-0.000172284 -9.15361e-05 -3.64838e-05)
(-0.000234475 -0.000151162 -3.73172e-05)
(-0.000317024 -0.000216051 -2.82482e-05)
(-0.000402665 -0.000270938 -1.04956e-05)
(-0.000494863 -0.000318103 1.28736e-05)
(-0.000581735 -0.000352077 3.93928e-05)
(-0.000660675 -0.000374987 6.64958e-05)
(-0.000727427 -0.000388477 9.1764e-05)
(-0.000780944 -0.000395828 0.000113612)
(-0.000822107 -0.000400249 0.000131274)
(-0.000852706 -0.000403874 0.000144661)
(-0.000873788 -0.00040756 0.000153835)
(-0.00088701 -0.000411677 0.000159096)
(-0.000895847 -0.000416759 0.000161089)
(-0.000901071 -0.000422296 0.000160023)
(-0.000902624 -0.000427612 0.000156318)
(-0.000900856 -0.000431905 0.000150179)
(-0.00090017 -0.000436598 0.000142183)
(-0.000888634 -0.000439312 0.000131409)
(-0.000880492 -0.000442691 0.000120377)
(-0.000869761 -0.000445693 0.00010747)
(-0.000857377 -0.000446759 9.35438e-05)
(-0.000844508 -0.000448177 7.91344e-05)
(-0.000833288 -0.000449512 6.31106e-05)
(-0.00082351 -0.000450803 4.65694e-05)
(-0.000814862 -0.000451655 2.88924e-05)
(-0.000810177 -0.000452086 9.84197e-06)
(-0.000152046 4.6084e-05 0.00014852)
(-0.000197916 1.19224e-05 -3.54904e-05)
(-0.000125109 -8.94117e-06 -2.48572e-05)
(-8.53439e-05 -1.26889e-05 -9.73703e-06)
(-8.38111e-05 -2.13928e-05 -1.3501e-05)
(-0.000112293 -5.18103e-05 -2.69277e-05)
(-0.000154212 -9.73631e-05 -3.5117e-05)
(-0.000220398 -0.000153129 -3.45286e-05)
(-0.000314993 -0.000216213 -2.50525e-05)
(-0.000409042 -0.000266198 -6.1005e-06)
(-0.000502431 -0.000305331 1.87549e-05)
(-0.000585679 -0.000331461 4.59013e-05)
(-0.00065845 -0.000348711 7.2577e-05)
(-0.000718553 -0.000359671 9.6674e-05)
(-0.00076608 -0.000367184 0.000116997)
(-0.000800145 -0.000372327 0.000132753)
(-0.000821445 -0.000376121 0.000143697)
(-0.000834077 -0.000380146 0.000150417)
(-0.00084119 -0.000384775 0.00015345)
(-0.000843034 -0.000389206 0.000152954)
(-0.00084015 -0.000392873 0.000149528)
(-0.000834307 -0.000395917 0.000143635)
(-0.000827952 -0.000398866 0.000135647)
(-0.000813638 -0.000400939 0.000125324)
(-0.000801924 -0.00040308 0.000114666)
(-0.000788087 -0.000405339 0.00010209)
(-0.000775115 -0.000406215 8.88962e-05)
(-0.000760982 -0.000407535 7.53466e-05)
(-0.000748433 -0.000408416 5.99012e-05)
(-0.00073746 -0.000409223 4.41523e-05)
(-0.000727863 -0.000409597 2.73732e-05)
(-0.000722619 -0.000409802 9.30706e-06)
(-0.00013297 4.10593e-05 0.000122956)
(-0.000185178 1.61804e-05 -3.05173e-05)
(-0.000114238 -5.08485e-06 -1.87896e-05)
(-7.57616e-05 -7.19435e-06 -2.83462e-06)
(-4.90914e-05 -6.93606e-06 -2.89468e-06)
(-3.81912e-05 -1.38407e-05 -8.62233e-06)
(-6.93792e-05 -4.44213e-05 -2.27958e-05)
(-0.000134906 -9.97574e-05 -3.6186e-05)
(-0.000212239 -0.000153592 -3.43722e-05)
(-0.000314475 -0.000211354 -2.1411e-05)
(-0.000413466 -0.000255743 9.07645e-07)
(-0.000504977 -0.000288283 2.78856e-05)
(-0.000581476 -0.000308956 5.53253e-05)
(-0.000642191 -0.000321497 8.04431e-05)
(-0.000687742 -0.000329106 0.000101676)
(-0.000720784 -0.00033463 0.000118586)
(-0.000742994 -0.000339547 0.000131066)
(-0.000755403 -0.000344072 0.00013909)
(-0.000760889 -0.000348525 0.000143056)
(-0.000761127 -0.000352687 0.000143375)
(-0.000757981 -0.000356559 0.000140929)
(-0.000750295 -0.000359348 0.000135636)
(-0.000740902 -0.000361713 0.000128043)
(-0.000724224 -0.00036303 0.000118186)
(-0.000709785 -0.000364184 0.00010803)
(-0.000691071 -0.000364547 9.55181e-05)
(-0.000675351 -0.00036366 8.28601e-05)
(-0.000654572 -0.000361761 6.97988e-05)
(-0.000638374 -0.000360567 5.50049e-05)
(-0.000624611 -0.000359618 4.03405e-05)
(-0.00061297 -0.000358582 2.49205e-05)
(-0.00060671 -0.000358103 8.44088e-06)
(-0.000118415 3.48081e-05 9.66204e-05)
(-0.000171232 1.71463e-05 -2.69279e-05)
(-0.000110331 -3.25056e-06 -1.42093e-05)
(-6.65001e-05 -3.73057e-06 3.5378e-06)
(-3.45651e-05 -9.65199e-07 4.70886e-06)
(-1.56706e-05 -3.54814e-06 4.47283e-07)
(-1.25898e-05 -1.12158e-05 -7.99318e-06)
(-2.60811e-05 -2.45698e-05 -1.55865e-05)
(-0.000117551 -9.41706e-05 -3.78714e-05)
(-0.000210626 -0.0001498 -3.06641e-05)
(-0.000313686 -0.000200523 -1.13495e-05)
(-0.000405379 -0.000236545 1.40205e-05)
(-0.00048516 -0.000262261 4.07939e-05)
(-0.000549617 -0.000279459 6.59497e-05)
(-0.000599876 -0.000291465 8.79723e-05)
(-0.000634985 -0.000299541 0.000105802)
(-0.000655415 -0.000304862 0.000118864)
(-0.000665527 -0.000309305 0.000127467)
(-0.00066803 -0.00031316 0.00013185)
(-0.000663885 -0.000315816 0.000132245)
(-0.000654331 -0.000316967 0.000129478)
(-0.000641322 -0.000317647 0.000124065)
(-0.00062577 -0.000317531 0.000116281)
(-0.00060601 -0.000317151 0.000106837)
(-0.000587239 -0.000315984 9.70982e-05)
(-0.000565713 -0.000314825 8.51634e-05)
(-0.000549197 -0.000312512 7.3591e-05)
(-0.000528362 -0.000310363 6.20727e-05)
(-0.000511807 -0.000308448 4.85249e-05)
(-0.000497618 -0.000306613 3.54307e-05)
(-0.000485511 -0.000304743 2.18139e-05)
(-0.000479006 -0.000303813 7.35281e-06)
(-0.000102977 2.8809e-05 7.10215e-05)
(-0.000153435 1.68152e-05 -2.40051e-05)
(-0.000102721 -1.19824e-06 -1.05109e-05)
(-5.89198e-05 1.53924e-07 8.62348e-06)
(-2.19526e-05 6.64457e-06 1.1084e-05)
(5.23082e-06 8.60493e-06 5.94536e-06)
(1.70197e-05 7.73008e-06 -2.37538e-06)
(7.08292e-06 -1.64032e-06 -1.20492e-05)
(-2.10657e-05 -2.02404e-05 -1.72154e-05)
(-0.000118199 -8.91896e-05 -2.94738e-05)
(-0.000214317 -0.0001432 -1.37152e-05)
(-0.000308019 -0.000186552 8.69333e-06)
(-0.000384707 -0.000215625 3.25299e-05)
(-0.000445228 -0.000234912 5.49388e-05)
(-0.000489193 -0.000247001 7.43909e-05)
(-0.000519829 -0.000255341 9.05554e-05)
(-0.000539422 -0.000261992 0.000103213)
(-0.000547913 -0.00026687 0.000111723)
(-0.000547638 -0.000270188 0.000116016)
(-0.000541356 -0.000272166 0.000116567)
(-0.000531921 -0.000273432 0.000114509)
(-0.000517402 -0.000273498 0.000109494)
(-0.000500177 -0.00027257 0.00010215)
(-0.000479055 -0.000270816 9.32934e-05)
(-0.000458794 -0.000268256 8.4354e-05)
(-0.000433843 -0.000264541 7.28194e-05)
(-0.000415542 -0.000259589 6.22064e-05)
(-0.000388264 -0.000252694 5.1575e-05)
(-0.000368119 -0.000247444 3.93732e-05)
(-0.000351486 -0.00024275 2.82775e-05)
(-0.000337776 -0.00023877 1.71994e-05)
(-0.000330549 -0.00023674 5.72976e-06)
(-7.96341e-05 2.27663e-05 4.81848e-05)
(-0.00013785 1.73588e-05 -2.16318e-05)
(-9.77726e-05 1.34654e-06 -8.95467e-06)
(-5.53179e-05 4.60136e-06 1.05064e-05)
(-1.52852e-05 1.15432e-05 7.73136e-06)
(1.72936e-05 1.1513e-05 1.15428e-06)
(2.4049e-05 1.21892e-05 4.91766e-06)
(1.72656e-05 1.20739e-05 1.73765e-06)
(-8.92058e-07 -8.05321e-07 -5.8217e-06)
(-3.53618e-05 -2.67174e-05 -7.63644e-06)
(-0.000119867 -8.49846e-05 -1.313e-06)
(-0.000196904 -0.000128247 1.44724e-05)
(-0.000269757 -0.000162747 3.16676e-05)
(-0.000328764 -0.000186712 4.82318e-05)
(-0.000375353 -0.000203948 6.38835e-05)
(-0.00040704 -0.000215365 7.76091e-05)
(-0.00042283 -0.000221868 8.82014e-05)
(-0.000427395 -0.000225945 9.53722e-05)
(-0.000423637 -0.000228155 9.88121e-05)
(-0.000412897 -0.000227983 9.84862e-05)
(-0.000395363 -0.00022473 9.49105e-05)
(-0.00037531 -0.00022136 8.90731e-05)
(-0.000353011 -0.000216684 8.12282e-05)
(-0.000329406 -0.000211816 7.2703e-05)
(-0.000305423 -0.000205329 6.42427e-05)
(-0.000279512 -0.000199009 5.38959e-05)
(-0.000260889 -0.000191286 4.49671e-05)
(-0.000237835 -0.000184774 3.70753e-05)
(-0.000220428 -0.000179279 2.75368e-05)
(-0.00020621 -0.000174065 1.93533e-05)
(-0.000193853 -0.000169389 1.15493e-05)
(-0.00018728 -0.000166895 3.75894e-06)
(-5.51992e-05 1.64443e-05 3.10899e-05)
(-0.000116615 1.63225e-05 -1.78074e-05)
(-9.22338e-05 2.78337e-06 -7.23861e-06)
(-4.83356e-05 5.18141e-06 1.03963e-05)
(-2.1886e-06 7.05721e-06 7.39376e-06)
(1.65024e-05 7.74925e-06 1.02266e-05)
(2.17519e-05 9.21102e-06 1.83102e-05)
(1.93818e-05 7.82019e-06 2.19712e-05)
(9.94198e-06 2.38457e-06 2.20308e-05)
(-5.86819e-06 -8.73959e-06 1.61762e-05)
(-4.4838e-05 -4.15078e-05 2.53266e-05)
(-0.000103605 -8.24953e-05 3.26522e-05)
(-0.000157571 -0.000113415 3.82761e-05)
(-0.000206037 -0.000136779 4.50521e-05)
(-0.000241685 -0.000151446 5.20264e-05)
(-0.00026546 -0.000160856 5.94221e-05)
(-0.000279769 -0.000167876 6.65799e-05)
(-0.000282708 -0.00017167 7.1482e-05)
(-0.000276015 -0.000172244 7.3187e-05)
(-0.000263627 -0.00017047 7.19959e-05)
(-0.000249443 -0.000167814 6.90335e-05)
(-0.000230776 -0.000163765 6.34282e-05)
(-0.000210956 -0.000158522 5.63959e-05)
(-0.000189274 -0.00015222 4.88994e-05)
(-0.000168111 -0.000144712 4.20318e-05)
(-0.000142863 -0.000135641 3.30381e-05)
(-0.000125676 -0.000124802 2.58984e-05)
(-9.95423e-05 -0.000111183 1.90895e-05)
(-8.02744e-05 -0.000100007 1.21278e-05)
(-6.56227e-05 -8.99503e-05 7.2467e-06)
(-5.39981e-05 -8.19355e-05 3.73452e-06)
(-4.80209e-05 -7.75743e-05 1.03745e-06)
(-4.51132e-05 1.43122e-05 2.37166e-05)
(-9.75683e-05 1.46962e-05 -1.5742e-05)
(-8.76308e-05 4.88424e-06 -5.90028e-06)
(-4.48121e-05 6.58871e-06 1.21072e-05)
(-6.96287e-06 9.99081e-06 1.35986e-05)
(7.60844e-06 1.31722e-05 2.06315e-05)
(2.08733e-05 1.44603e-05 2.84827e-05)
(2.6742e-05 9.57125e-06 3.04564e-05)
(2.90859e-05 3.67749e-06 3.47295e-05)
(2.37913e-05 -3.45221e-06 3.58587e-05)
(1.16856e-05 -1.16522e-05 3.22455e-05)
(-4.12924e-06 -2.11484e-05 2.60781e-05)
(-3.89612e-05 -5.7035e-05 3.91686e-05)
(-8.03576e-05 -8.27829e-05 3.96745e-05)
(-0.000119675 -0.000102816 4.08619e-05)
(-0.000147072 -0.000115576 4.34975e-05)
(-0.00015786 -0.000120579 4.57707e-05)
(-0.000156886 -0.000121602 4.71375e-05)
(-0.000148457 -0.000120154 4.6767e-05)
(-0.000134141 -0.000115452 4.37535e-05)
(-0.000112791 -0.000104632 3.72799e-05)
(-9.08114e-05 -9.41605e-05 2.96032e-05)
(-6.96525e-05 -8.2287e-05 2.18035e-05)
(-4.91982e-05 -6.97991e-05 1.47548e-05)
(-2.99603e-05 -5.35662e-05 8.71941e-06)