/*--------------------------------*- C++ -*----------------------------------*\
  =========                 |
  \\      /  F ield         | OpenFOAM: The Open Source CFD Toolbox
   \\    /   O peration     | Website:  https://openfoam.org
    \\  /    A nd           | Version:  6
     \\/     M anipulation  |
\*---------------------------------------------------------------------------*/
FoamFile
{
    version     2.0;
    format      ascii;
    class       volScalarField;
    location    "2";
    object      p;
}
// * * * * * * * * * * * * * * * * * * * * * * * * * * * * * * * * * * * * * //

dimensions      [0 2 -2 0 0 0 0];

internalField   nonuniform List<scalar> 
380496
(
0.0123873
0.0127657
0.0125067
0.0124383
0.0123861
0.0123282
0.0122735
0.0122177
0.0121601
0.0121011
0.0120407
0.0119793
0.0119174
0.0118554
0.0117933
0.011731
0.0116679
0.0116034
0.011537
0.011468
0.011396
0.0113205
0.0112412
0.0111574
0.011069
0.010975
0.0108755
0.0107694
0.0106568
0.0105363
0.0104093
0.010272
0.0101324
0.00997411
0.00983452
0.012358
0.012728
0.0124822
0.0124199
0.012372
0.0123171
0.0122638
0.0122082
0.0121499
0.0120891
0.0120262
0.0119616
0.0118959
0.0118294
0.0117626
0.0116948
0.0116259
0.011555
0.0114817
0.0114055
0.0113259
0.0112425
0.0111549
0.0110628
0.0109657
0.0108633
0.0107553
0.0106408
0.0105202
0.0103918
0.0102579
0.0101121
0.00996837
0.00979376
0.00966505
0.0123243
0.0126889
0.012456
0.0124
0.012356
0.0123034
0.0122507
0.0121947
0.0121351
0.0120723
0.0120068
0.0119387
0.0118691
0.0117981
0.0117263
0.0116528
0.0115778
0.0115001
0.0114194
0.0113351
0.0112467
0.0111539
0.0110565
0.010954
0.0108464
0.0107331
0.0106142
0.0104888
0.0103576
0.0102186
0.010075
0.00991946
0.00976812
0.00958424
0.00944802
0.0122824
0.0126465
0.012429
0.0123813
0.012343
0.012294
0.0122429
0.0121871
0.0121266
0.0120621
0.0119938
0.0119226
0.0118492
0.011774
0.0116974
0.011619
0.0115384
0.0114547
0.0113676
0.0112765
0.011181
0.0110808
0.0109758
0.0108655
0.0107502
0.0106291
0.0105027
0.0103699
0.0102317
0.0100859
0.00993598
0.0097738
0.00961545
0.00942446
0.00927222
0.0122427
0.0126004
0.0124016
0.0123626
0.0123295
0.0122833
0.0122332
0.0121773
0.0121158
0.0120495
0.0119789
0.0119046
0.0118276
0.0117484
0.0116674
0.0115841
0.0114981
0.0114086
0.0113151
0.011217
0.0111141
0.0110061
0.0108931
0.0107747
0.0106511
0.010522
0.0103876
0.0102471
0.0101017
0.00994911
0.00979373
0.00962641
0.0094681
0.00927388
0.00914335
0.0121892
0.0125512
0.0123741
0.0123458
0.0123195
0.012277
0.0122285
0.0121726
0.0121101
0.012042
0.011969
0.0118917
0.0118113
0.0117283
0.0116431
0.0115551
0.0114641
0.0113689
0.0112695
0.0111651
0.0110557
0.010941
0.0108211
0.0106959
0.0105656
0.0104299
0.0102892
0.0101428
0.00999171
0.00983379
0.00967353
0.00950085
0.00933756
0.00913469
0.00899579
0.0121323
0.0124988
0.0123463
0.0123294
0.0123096
0.0122701
0.0122224
0.0121663
0.0121031
0.0120336
0.0119586
0.0118789
0.0117956
0.0117093
0.0116203
0.011528
0.0114323
0.0113319
0.0112268
0.0111165
0.0110007
0.0108796
0.0107532
0.0106215
0.0104848
0.010343
0.0101965
0.0100446
0.00988872
0.0097264
0.00956299
0.00938761
0.00922538
0.00902222
0.00889747
0.0120642
0.0124443
0.0123207
0.012317
0.012305
0.0122688
0.0122221
0.0121657
0.0121013
0.0120302
0.0119532
0.0118711
0.0117849
0.0116953
0.0116025
0.011506
0.0114055
0.0113001
0.0111895
0.0110734
0.0109519
0.0108249
0.0106927
0.0105554
0.0104133
0.0102663
0.0101149
0.00995852
0.0097985
0.00963235
0.0094654
0.00928632
0.00911979
0.00891107
0.00877511
0.011985
0.0123895
0.0122964
0.0123063
0.0123015
0.0122675
0.0122209
0.012164
0.0120988
0.0120266
0.0119482
0.0118644
0.0117761
0.011684
0.0115882
0.0114882
0.0113837
0.0112738
0.0111585
0.0110375
0.010911
0.0107789
0.0106418
0.0104997
0.0103531
0.0102019
0.0100466
0.00988673
0.00972369
0.009555
0.00938638
0.00920619
0.00904112
0.00883379
0.00870951
0.0119049
0.012342
0.0122788
0.0123019
0.0123038
0.0122715
0.0122248
0.0121672
0.012101
0.0120277
0.0119481
0.0118627
0.0117725
0.0116779
0.0115791
0.0114756
0.0113672
0.0112531
0.0111336
0.0110081
0.0108772
0.010741
0.0105998
0.0104538
0.0103035
0.0101489
0.00999056
0.00982786
0.00966238
0.00949151
0.00932095
0.00913879
0.00897119
0.00876061
0.00862792
0.0118039
0.0122948
0.0122619
0.0122992
0.0123074
0.0122754
0.0122278
0.0121691
0.012102
0.0120279
0.0119475
0.0118612
0.0117697
0.0116733
0.0115721
0.0114656
0.0113538
0.0112361
0.0111127
0.0109835
0.0108488
0.0107088
0.0105642
0.0104149
0.0102616
0.0101042
0.00994342
0.00977861
0.00961138
0.00943913
0.00926779
0.0090853
0.00891908
0.0087101
0.00858677
0.0116992
0.0122566
0.0122516
0.0123027
0.0123162
0.0122838
0.012235
0.0121752
0.0121072
0.0120326
0.0119517
0.0118645
0.0117716
0.011673
0.0115689
0.0114591
0.0113437
0.0112222
0.0110952
0.0109624
0.0108243
0.0106812
0.0105335
0.0103814
0.0102255
0.0100658
0.00990296
0.00973639
0.00956768
0.00939422
0.00922185
0.0090384
0.00887045
0.00865973
0.00852817
0.0115658
0.0122239
0.0122443
0.0123099
0.0123277
0.012293
0.0122419
0.0121802
0.012111
0.0120361
0.011955
0.0118675
0.0117735
0.0116733
0.0115669
0.0114543
0.0113358
0.0112112
0.011081
0.0109452
0.0108043
0.0106584
0.0105082
0.0103538
0.0101959
0.0100343
0.00986992
0.00970209
0.00953241
0.00935833
0.00918573
0.00900248
0.00883582
0.00862695
0.00850277
0.0114242
0.0122039
0.012242
0.0123216
0.0123421
0.0123048
0.0122516
0.0121884
0.0121188
0.0120439
0.011963
0.0118751
0.0117799
0.0116773
0.0115679
0.011452
0.0113301
0.0112023
0.0110692
0.0109305
0.0107871
0.010639
0.0104866
0.0103304
0.0101707
0.0100077
0.00984201
0.00967316
0.00950273
0.00932814
0.00915517
0.00897174
0.00880404
0.00859449
0.00846291
0.0112525
0.0121993
0.0122473
0.0123408
0.0123615
0.0123189
0.0122618
0.0121958
0.012125
0.0120502
0.0119697
0.0118818
0.0117856
0.0116812
0.0115693
0.0114506
0.0113258
0.0111954
0.0110599
0.010919
0.0107737
0.0106237
0.0104697
0.0103119
0.0101509
0.00998662
0.00982006
0.00965055
0.00947972
0.00930505
0.0091323
0.00894953
0.00878314
0.00857568
0.00845024
0.0110599
0.0122083
0.0122529
0.0123604
0.0123802
0.012333
0.0122731
0.0122057
0.0121347
0.0120606
0.0119809
0.0118928
0.0117951
0.011688
0.0115728
0.0114506
0.0113229
0.0111898
0.0110522
0.0109094
0.0107624
0.0106109
0.0104555
0.0102966
0.0101345
0.0099694
0.00980214
0.00963218
0.00946106
0.00928641
0.00911377
0.00893147
0.00876468
0.00855735
0.00842619
0.0108481
0.0122459
0.0122729
0.0123923
0.0124062
0.012351
0.0122858
0.012215
0.0121429
0.0120694
0.0119906
0.0119024
0.0118033
0.0116937
0.0115756
0.0114508
0.0113207
0.0111856
0.0110465
0.0109024
0.0107543
0.0106017
0.0104452
0.0102854
0.0101223
0.00995667
0.00978893
0.00961875
0.00944762
0.00927328
0.00910116
0.00892006
0.00875475
0.00855062
0.0084255
0.0105951
0.012294
0.0122854
0.0124189
0.0124276
0.0123662
0.0122977
0.0122255
0.0121541
0.0120822
0.0120046
0.011916
0.0118146
0.0117013
0.0115796
0.0114515
0.0113193
0.0111823
0.0110421
0.0108967
0.0107478
0.0105942
0.0104371
0.0102765
0.010113
0.00994707
0.00977892
0.00960879
0.0094376
0.00926362
0.0090918
0.00891175
0.00874622
0.00854332
0.00841596
0.0103522
0.0123806
0.0123203
0.01246
0.012456
0.0123859
0.012312
0.0122368
0.0121655
0.0120951
0.0120178
0.0119273
0.0118225
0.0117058
0.0115816
0.0114515
0.0113181
0.0111802
0.0110394
0.0108931
0.0107438
0.0105894
0.010432
0.0102709
0.0101072
0.00994122
0.00977287
0.00960304
0.00943187
0.0092584
0.00908716
0.00890884
0.00874463
0.00854986
0.00841689
0.0100738
0.012454
0.0123353
0.012489
0.0124779
0.0124029
0.0123274
0.0122524
0.0121814
0.0121104
0.0120316
0.0119388
0.011831
0.0117109
0.0115836
0.0114516
0.0113173
0.0111788
0.0110378
0.0108911
0.0107415
0.0105865
0.0104291
0.0102677
0.0101041
0.00993802
0.00976954
0.00959999
0.00942843
0.00925559
0.00908416
0.00890715
0.00874082
0.00854862
0.00839073
0.00984154
0.012562
0.0123813
0.0125397
0.0125179
0.0124372
0.0123574
0.0122767
0.0121989
0.0121205
0.012035
0.0119371
0.0118268
0.0117066
0.0115807
0.01145
0.0113163
0.0111782
0.0110372
0.0108905
0.0107408
0.0105858
0.0104283
0.0102668
0.0101031
0.00993703
0.00976856
0.0095989
0.00942768
0.00925476
0.0090843
0.00890843
0.00874875
0.00856724
0.00846235
0.0123866
0.012764
0.0125066
0.0124384
0.0123861
0.0123282
0.0122735
0.0122176
0.0121601
0.012101
0.0120407
0.0119793
0.0119174
0.0118554
0.0117933
0.011731
0.0116679
0.0116034
0.011537
0.011468
0.0113961
0.0113205
0.0112412
0.0111574
0.011069
0.0109751
0.0108756
0.0107695
0.0106569
0.0105364
0.0104094
0.0102722
0.0101326
0.00997433
0.00983477
0.0123571
0.0127263
0.0124822
0.01242
0.012372
0.0123171
0.0122638
0.0122082
0.0121499
0.0120891
0.0120262
0.0119616
0.0118959
0.0118295
0.0117626
0.0116948
0.0116259
0.011555
0.0114817
0.0114055
0.0113259
0.0112425
0.0111549
0.0110628
0.0109658
0.0108634
0.0107554
0.0106409
0.0105204
0.0103919
0.010258
0.0101123
0.00996853
0.00979402
0.00966532
0.0123233
0.0126873
0.0124559
0.0124
0.012356
0.0123033
0.0122507
0.0121947
0.0121351
0.0120723
0.0120067
0.0119387
0.0118691
0.0117981
0.0117263
0.0116528
0.0115778
0.0115001
0.0114195
0.0113351
0.0112468
0.011154
0.0110565
0.010954
0.0108464
0.0107331
0.0106142
0.0104889
0.0103576
0.0102187
0.0100751
0.00991959
0.00976824
0.00958444
0.00944819
0.0122814
0.0126448
0.012429
0.0123814
0.012343
0.012294
0.0122429
0.0121871
0.0121266
0.012062
0.0119938
0.0119226
0.0118492
0.011774
0.0116975
0.011619
0.0115384
0.0114548
0.0113677
0.0112765
0.0111811
0.0110808
0.0109758
0.0108656
0.0107502
0.0106292
0.0105028
0.01037
0.0102318
0.010086
0.00993609
0.00977394
0.00961559
0.00942465
0.00927241
0.0122416
0.0125988
0.0124016
0.0123627
0.0123295
0.0122832
0.0122332
0.0121773
0.0121158
0.0120495
0.0119789
0.0119046
0.0118276
0.0117484
0.0116674
0.0115841
0.0114982
0.0114086
0.0113151
0.011217
0.0111142
0.0110061
0.0108931
0.0107747
0.0106512
0.010522
0.0103876
0.0102472
0.0101018
0.00994921
0.00979383
0.00962654
0.00946821
0.00927407
0.00914354
0.0121881
0.0125497
0.0123741
0.0123458
0.0123195
0.012277
0.0122284
0.0121726
0.0121101
0.0120421
0.011969
0.0118918
0.0118114
0.0117283
0.0116432
0.0115551
0.0114641
0.011369
0.0112695
0.0111651
0.0110557
0.010941
0.0108212
0.0106959
0.0105656
0.0104299
0.0102892
0.0101428
0.00999178
0.00983387
0.00967361
0.00950096
0.00933765
0.00913485
0.00899591
0.0121311
0.0124972
0.0123463
0.0123294
0.0123096
0.0122701
0.0122224
0.0121663
0.012103
0.0120336
0.0119586
0.0118789
0.0117956
0.0117093
0.0116203
0.011528
0.0114323
0.0113319
0.0112269
0.0111165
0.0110007
0.0108796
0.0107532
0.0106215
0.0104849
0.010343
0.0101966
0.0100447
0.00988878
0.00972648
0.00956306
0.00938771
0.00922546
0.00902237
0.00889759
0.012063
0.0124428
0.0123207
0.012317
0.012305
0.0122688
0.012222
0.0121657
0.0121013
0.0120303
0.0119532
0.0118711
0.0117849
0.0116953
0.0116026
0.0115061
0.0114055
0.0113001
0.0111895
0.0110734
0.010952
0.0108249
0.0106928
0.0105554
0.0104134
0.0102663
0.010115
0.00995857
0.00979855
0.00963241
0.00946546
0.0092864
0.00911985
0.00891119
0.00877517
0.0119838
0.0123881
0.0122964
0.0123063
0.0123015
0.0122675
0.0122209
0.012164
0.0120988
0.0120266
0.0119482
0.0118644
0.0117761
0.011684
0.0115882
0.0114882
0.0113837
0.0112738
0.0111586
0.0110375
0.010911
0.0107789
0.0106419
0.0104998
0.0103532
0.0102019
0.0100467
0.00988678
0.00972374
0.00955505
0.00938643
0.00920626
0.00904117
0.0088339
0.0087096
0.0119036
0.0123407
0.0122788
0.0123019
0.0123038
0.0122714
0.0122248
0.0121672
0.012101
0.0120277
0.0119481
0.0118627
0.0117725
0.011678
0.0115791
0.0114756
0.0113672
0.0112531
0.0111336
0.0110081
0.0108773
0.010741
0.0105998
0.0104538
0.0103036
0.0101489
0.00999059
0.0098279
0.00966242
0.00949155
0.00932099
0.00913885
0.00897123
0.0087607
0.00862796
0.0118027
0.0122935
0.0122619
0.0122993
0.0123074
0.0122754
0.0122278
0.0121691
0.012102
0.012028
0.0119476
0.0118613
0.0117697
0.0116733
0.0115721
0.0114656
0.0113538
0.0112361
0.0111128
0.0109835
0.0108488
0.0107089
0.0105642
0.0104149
0.0102616
0.0101042
0.00994345
0.00977864
0.00961141
0.00943918
0.00926783
0.00908536
0.00891912
0.0087102
0.00858683
0.0116979
0.0122555
0.0122516
0.0123027
0.0123162
0.0122837
0.012235
0.0121752
0.0121072
0.0120327
0.0119518
0.0118646
0.0117716
0.011673
0.0115689
0.0114591
0.0113437
0.0112222
0.0110952
0.0109624
0.0108243
0.0106812
0.0105335
0.0103814
0.0102256
0.0100658
0.00990299
0.00973642
0.00956771
0.00939426
0.00922188
0.00903845
0.00887049
0.0086598
0.0085282
0.0115647
0.0122228
0.0122443
0.0123099
0.0123276
0.012293
0.0122419
0.0121802
0.0121111
0.0120361
0.0119551
0.0118675
0.0117736
0.0116733
0.0115669
0.0114543
0.0113358
0.0112112
0.0110811
0.0109452
0.0108043
0.0106584
0.0105082
0.0103538
0.0101959
0.0100343
0.00986995
0.00970212
0.00953244
0.00935836
0.00918577
0.00900253
0.00883585
0.00862703
0.00850281
0.0114229
0.0122029
0.012242
0.0123216
0.0123421
0.0123048
0.0122516
0.0121885
0.0121188
0.012044
0.0119631
0.0118751
0.0117799
0.0116773
0.0115679
0.011452
0.0113301
0.0112023
0.0110692
0.0109305
0.0107872
0.010639
0.0104867
0.0103304
0.0101708
0.0100077
0.00984203
0.00967319
0.00950276
0.00932818
0.0091552
0.00897178
0.00880407
0.00859456
0.00846292
0.0112514
0.0121984
0.0122472
0.0123408
0.0123615
0.0123189
0.0122618
0.0121959
0.0121251
0.0120503
0.0119698
0.0118818
0.0117856
0.0116812
0.0115693
0.0114505
0.0113258
0.0111954
0.0110599
0.010919
0.0107737
0.0106237
0.0104697
0.0103119
0.0101509
0.00998664
0.00982009
0.00965059
0.00947975
0.00930508
0.00913233
0.00894957
0.00878317
0.00857575
0.00845028
0.0110587
0.0122076
0.0122528
0.0123604
0.0123803
0.012333
0.0122732
0.0122058
0.0121348
0.0120607
0.0119809
0.0118928
0.0117951
0.011688
0.0115728
0.0114506
0.0113229
0.0111898
0.0110522
0.0109094
0.0107624
0.0106109
0.0104555
0.0102966
0.0101345
0.00996942
0.00980217
0.00963221
0.00946109
0.00928644
0.0091138
0.0089315
0.00876471
0.00855742
0.00842619
0.0108469
0.0122452
0.0122728
0.0123923
0.0124062
0.0123511
0.012286
0.0122151
0.012143
0.0120695
0.0119906
0.0119024
0.0118032
0.0116936
0.0115756
0.0114508
0.0113207
0.0111856
0.0110465
0.0109024
0.0107543
0.0106017
0.0104453
0.0102854
0.0101224
0.00995669
0.00978896
0.00961878
0.00944765
0.00927331
0.00910119
0.0089201
0.00875477
0.00855069
0.00842553
0.0105943
0.0122934
0.0122853
0.0124189
0.0124277
0.0123663
0.0122979
0.0122257
0.0121542
0.0120822
0.0120046
0.0119159
0.0118145
0.0117013
0.0115796
0.0114515
0.0113193
0.0111823
0.0110421
0.0108967
0.0107478
0.0105942
0.0104371
0.0102766
0.010113
0.00994709
0.00977895
0.00960882
0.00943763
0.00926365
0.00909182
0.00891178
0.00874623
0.00854339
0.00841599
0.0103498
0.0123802
0.0123202
0.01246
0.0124563
0.0123861
0.0123123
0.012237
0.0121655
0.012095
0.0120177
0.0119272
0.0118224
0.0117058
0.0115815
0.0114515
0.0113181
0.0111802
0.0110394
0.0108932
0.0107438
0.0105895
0.010432
0.010271
0.0101072
0.00994124
0.00977288
0.00960305
0.00943188
0.00925842
0.00908718
0.00890886
0.00874465
0.0085499
0.00841686
0.0100691
0.0124545
0.0123357
0.0124894
0.0124782
0.012403
0.0123274
0.0122523
0.0121812
0.0121102
0.0120315
0.0119387
0.011831
0.0117109
0.0115836
0.0114516
0.0113173
0.0111788
0.0110378
0.0108911
0.0107415
0.0105865
0.0104292
0.0102677
0.0101041
0.00993803
0.00976955
0.00960001
0.00942845
0.00925561
0.00908418
0.00890716
0.00874085
0.00854866
0.00839067
0.00985049
0.0125655
0.0123823
0.0125397
0.0125168
0.0124353
0.0123551
0.0122744
0.0121969
0.0121191
0.0120343
0.0119369
0.0118268
0.0117066
0.0115806
0.0114498
0.0113162
0.0111781
0.0110372
0.0108905
0.0107409
0.0105858
0.0104283
0.0102668
0.0101031
0.00993698
0.00976851
0.00959885
0.00942763
0.00925471
0.00908425
0.00890838
0.0087487
0.00856717
0.00846205
0.0123897
0.012761
0.0125065
0.0124385
0.0123861
0.0123282
0.0122735
0.0122176
0.0121601
0.012101
0.0120406
0.0119793
0.0119174
0.0118554
0.0117933
0.011731
0.0116679
0.0116034
0.011537
0.011468
0.0113961
0.0113205
0.0112412
0.0111574
0.011069
0.0109751
0.0108756
0.0107695
0.0106569
0.0105364
0.0104094
0.0102722
0.0101326
0.00997433
0.00983483
0.0123601
0.0127234
0.0124821
0.0124201
0.012372
0.0123171
0.0122638
0.0122082
0.0121499
0.0120891
0.0120263
0.0119616
0.011896
0.0118295
0.0117626
0.0116948
0.0116259
0.011555
0.0114818
0.0114055
0.0113259
0.0112425
0.0111549
0.0110628
0.0109658
0.0108634
0.0107554
0.0106409
0.0105204
0.010392
0.010258
0.0101123
0.00996854
0.00979406
0.0096654
0.0123263
0.0126845
0.0124558
0.0124001
0.0123561
0.0123033
0.0122507
0.0121947
0.012135
0.0120723
0.0120067
0.0119387
0.0118691
0.0117981
0.0117263
0.0116528
0.0115778
0.0115001
0.0114195
0.0113351
0.0112468
0.0111539
0.0110565
0.010954
0.0108464
0.0107331
0.0106142
0.0104889
0.0103576
0.0102187
0.0100751
0.00991959
0.00976823
0.00958445
0.00944819
0.0122844
0.0126421
0.0124289
0.0123815
0.0123431
0.012294
0.0122429
0.0121871
0.0121266
0.0120621
0.0119939
0.0119226
0.0118492
0.011774
0.0116975
0.011619
0.0115384
0.0114548
0.0113677
0.0112766
0.0111811
0.0110809
0.0109758
0.0108656
0.0107502
0.0106292
0.0105028
0.01037
0.0102318
0.010086
0.00993611
0.00977396
0.0096156
0.00942467
0.00927241
0.0122445
0.0125962
0.0124015
0.0123628
0.0123295
0.0122833
0.0122332
0.0121773
0.0121158
0.0120495
0.0119789
0.0119046
0.0118276
0.0117485
0.0116675
0.0115841
0.0114982
0.0114086
0.0113151
0.011217
0.0111142
0.0110061
0.0108931
0.0107747
0.0106512
0.010522
0.0103876
0.0102472
0.0101018
0.00994922
0.00979384
0.00962656
0.00946822
0.00927411
0.00914364
0.012191
0.0125471
0.0123739
0.0123459
0.0123196
0.0122771
0.0122284
0.0121726
0.0121101
0.0120421
0.011969
0.0118918
0.0118114
0.0117284
0.0116432
0.0115551
0.0114641
0.011369
0.0112695
0.0111651
0.0110557
0.010941
0.0108212
0.0106959
0.0105657
0.0104299
0.0102892
0.0101428
0.00999179
0.0098339
0.00967363
0.00950099
0.00933766
0.0091349
0.00899595
0.0121339
0.0124948
0.0123462
0.0123295
0.0123097
0.0122701
0.0122224
0.0121663
0.012103
0.0120336
0.0119586
0.011879
0.0117957
0.0117093
0.0116203
0.011528
0.0114323
0.0113319
0.0112269
0.0111165
0.0110007
0.0108796
0.0107532
0.0106215
0.0104849
0.0103431
0.0101966
0.0100447
0.00988879
0.0097265
0.00956308
0.00938775
0.00922547
0.00902245
0.00889771
0.0120656
0.0124405
0.0123206
0.0123171
0.0123051
0.0122688
0.0122221
0.0121657
0.0121014
0.0120303
0.0119533
0.0118711
0.011785
0.0116953
0.0116026
0.0115061
0.0114055
0.0113001
0.0111895
0.0110734
0.010952
0.0108249
0.0106928
0.0105554
0.0104134
0.0102663
0.010115
0.00995859
0.00979857
0.00963244
0.00946548
0.00928643
0.00911986
0.00891125
0.00877523
0.0119864
0.0123858
0.0122963
0.0123064
0.0123015
0.0122674
0.0122208
0.012164
0.0120988
0.0120266
0.0119482
0.0118644
0.0117761
0.011684
0.0115882
0.0114882
0.0113837
0.0112738
0.0111586
0.0110375
0.010911
0.0107789
0.0106419
0.0104998
0.0103532
0.0102019
0.0100467
0.0098868
0.00972376
0.00955508
0.00938646
0.0092063
0.0090412
0.00883399
0.00870973
0.0119061
0.0123386
0.0122786
0.012302
0.0123039
0.0122714
0.0122248
0.0121672
0.012101
0.0120278
0.0119481
0.0118628
0.0117726
0.011678
0.0115792
0.0114756
0.0113672
0.0112531
0.0111336
0.0110081
0.0108773
0.010741
0.0105998
0.0104538
0.0103036
0.0101489
0.00999061
0.00982792
0.00966244
0.00949158
0.00932101
0.00913889
0.00897125
0.00876078
0.00862803
0.011805
0.0122915
0.0122618
0.0122993
0.0123074
0.0122754
0.0122278
0.0121691
0.012102
0.012028
0.0119476
0.0118613
0.0117697
0.0116733
0.0115721
0.0114656
0.0113538
0.0112361
0.0111127
0.0109835
0.0108488
0.0107089
0.0105642
0.0104149
0.0102617
0.0101042
0.00994347
0.00977867
0.00961144
0.00943921
0.00926786
0.00908541
0.00891914
0.00871029
0.00858697
0.0117001
0.0122536
0.0122515
0.0123027
0.0123162
0.0122837
0.012235
0.0121752
0.0121073
0.0120327
0.0119518
0.0118646
0.0117716
0.011673
0.0115689
0.0114591
0.0113436
0.0112222
0.0110952
0.0109624
0.0108243
0.0106812
0.0105335
0.0103814
0.0102256
0.0100658
0.00990301
0.00973645
0.00956774
0.0093943
0.0092219
0.00903849
0.00887051
0.00865988
0.00852827
0.0115667
0.012221
0.0122441
0.01231
0.0123277
0.012293
0.0122419
0.0121802
0.0121111
0.0120362
0.0119551
0.0118676
0.0117736
0.0116733
0.0115669
0.0114543
0.0113358
0.0112112
0.011081
0.0109452
0.0108043
0.0106584
0.0105082
0.0103538
0.0101959
0.0100344
0.00986997
0.00970215
0.00953247
0.0093584
0.0091858
0.00900257
0.00883587
0.00862713
0.00850294
0.0114247
0.0122013
0.0122418
0.0123215
0.0123421
0.0123048
0.0122516
0.0121885
0.0121189
0.0120441
0.0119631
0.0118752
0.0117799
0.0116773
0.0115679
0.0114519
0.01133
0.0112022
0.0110692
0.0109305
0.0107872
0.010639
0.0104867
0.0103304
0.0101708
0.0100077
0.00984205
0.00967322
0.00950278
0.00932821
0.00915523
0.00897183
0.00880409
0.00859464
0.008463
0.0112531
0.0121969
0.0122471
0.0123408
0.0123615
0.0123189
0.0122619
0.012196
0.0121252
0.0120504
0.0119699
0.0118818
0.0117856
0.0116811
0.0115692
0.0114505
0.0113258
0.0111953
0.0110599
0.0109191
0.0107737
0.0106238
0.0104697
0.0103119
0.0101509
0.00998668
0.00982012
0.00965062
0.00947978
0.00930512
0.00913236
0.00894962
0.00878319
0.00857585
0.0084504
0.0110602
0.0122062
0.0122526
0.0123603
0.0123803
0.0123331
0.0122733
0.0122059
0.012135
0.0120609
0.011981
0.0118928
0.0117951
0.0116879
0.0115727
0.0114506
0.0113229
0.0111898
0.0110522
0.0109094
0.0107624
0.0106109
0.0104555
0.0102966
0.0101345
0.00996945
0.0098022
0.00963225
0.00946112
0.00928648
0.00911383
0.00893155
0.00876473
0.0085575
0.00842625
0.0108481
0.0122441
0.0122726
0.0123922
0.0124063
0.0123512
0.0122862
0.0122154
0.0121432
0.0120696
0.0119907
0.0119024
0.0118032
0.0116935
0.0115756
0.0114507
0.0113207
0.0111856
0.0110465
0.0109024
0.0107544
0.0106017
0.0104453
0.0102854
0.0101224
0.00995674
0.00978899
0.00961882
0.00944768
0.00927336
0.00910122
0.00892015
0.00875479
0.0085508
0.00842565
0.0105953
0.0122924
0.0122851
0.0124188
0.0124278
0.0123666
0.0122983
0.012226
0.0121544
0.0120823
0.0120045
0.0119158
0.0118144
0.0117012
0.0115795
0.0114515
0.0113193
0.0111823
0.0110421
0.0108967
0.0107478
0.0105942
0.0104371
0.0102766
0.0101131
0.00994713
0.00977898
0.00960885
0.00943765
0.00926368
0.00909184
0.00891183
0.00874624
0.00854349
0.00841606
0.0103495
0.0123796
0.0123199
0.0124601
0.0124566
0.0123866
0.0123127
0.0122372
0.0121655
0.0120949
0.0120174
0.0119269
0.0118223
0.0117057
0.0115815
0.0114515
0.0113181
0.0111802
0.0110394
0.0108932
0.0107439
0.0105895
0.010432
0.010271
0.0101072
0.00994126
0.00977289
0.00960308
0.0094319
0.00925844
0.00908721
0.00890889
0.00874466
0.00854996
0.00841679
0.0100644
0.0124556
0.0123362
0.0124902
0.012479
0.0124035
0.0123275
0.0122521
0.0121809
0.0121098
0.0120311
0.0119384
0.0118308
0.0117108
0.0115836
0.0114516
0.0113173
0.0111788
0.0110378
0.0108911
0.0107416
0.0105866
0.0104292
0.0102677
0.0101041
0.00993805
0.00976955
0.00960003
0.00942846
0.00925562
0.00908422
0.00890718
0.00874089
0.00854872
0.00839035
0.00985807
0.0125684
0.0123839
0.0125406
0.012517
0.0124349
0.0123541
0.0122731
0.0121956
0.0121182
0.0120337
0.0119367
0.0118268
0.0117066
0.0115806
0.0114498
0.0113161
0.011178
0.0110372
0.0108905
0.0107409
0.0105859
0.0104283
0.0102668
0.0101031
0.00993699
0.00976851
0.00959886
0.00942763
0.00925473
0.00908427
0.00890841
0.00874873
0.00856724
0.0084621
0.0123934
0.0127572
0.0125063
0.0124386
0.0123862
0.0123282
0.0122735
0.0122176
0.01216
0.012101
0.0120406
0.0119793
0.0119173
0.0118554
0.0117933
0.011731
0.0116679
0.0116034
0.011537
0.011468
0.0113961
0.0113205
0.0112412
0.0111574
0.011069
0.0109751
0.0108756
0.0107695
0.0106569
0.0105364
0.0104094
0.0102722
0.0101326
0.00997438
0.00983502
0.0123637
0.0127197
0.0124819
0.0124202
0.0123721
0.0123171
0.0122638
0.0122082
0.0121499
0.0120892
0.0120263
0.0119616
0.011896
0.0118295
0.0117626
0.0116948
0.0116259
0.011555
0.0114818
0.0114055
0.0113259
0.0112425
0.011155
0.0110628
0.0109658
0.0108634
0.0107554
0.010641
0.0105204
0.010392
0.0102581
0.0101124
0.00996859
0.00979417
0.00966565
0.0123298
0.0126808
0.0124556
0.0124002
0.0123561
0.0123034
0.0122507
0.0121946
0.012135
0.0120723
0.0120067
0.0119387
0.0118691
0.0117981
0.0117263
0.0116528
0.0115778
0.0115001
0.0114195
0.0113351
0.0112468
0.0111539
0.0110565
0.010954
0.0108464
0.0107331
0.0106142
0.0104889
0.0103576
0.0102187
0.0100751
0.00991961
0.00976823
0.0095845
0.00944829
0.0122879
0.0126384
0.0124286
0.0123816
0.0123432
0.012294
0.012243
0.0121871
0.0121266
0.0120621
0.0119939
0.0119226
0.0118492
0.011774
0.0116975
0.011619
0.0115384
0.0114548
0.0113677
0.0112766
0.0111811
0.0110809
0.0109759
0.0108656
0.0107503
0.0106292
0.0105028
0.01037
0.0102318
0.0100861
0.00993614
0.00977402
0.00961565
0.00942474
0.0092725
0.0122478
0.0125927
0.0124013
0.0123628
0.0123296
0.0122833
0.0122332
0.0121773
0.0121158
0.0120495
0.0119789
0.0119047
0.0118277
0.0117485
0.0116675
0.0115841
0.0114982
0.0114086
0.0113151
0.011217
0.0111142
0.0110061
0.0108931
0.0107747
0.0106512
0.010522
0.0103876
0.0102472
0.0101018
0.00994925
0.00979386
0.0096266
0.00946824
0.0092742
0.00914388
0.0121942
0.0125437
0.0123737
0.012346
0.0123196
0.0122771
0.0122285
0.0121726
0.0121101
0.0120421
0.0119691
0.0118918
0.0118114
0.0117284
0.0116432
0.0115551
0.0114641
0.011369
0.0112695
0.0111651
0.0110557
0.010941
0.0108212
0.0106959
0.0105657
0.01043
0.0102893
0.0101429
0.00999181
0.00983393
0.00967365
0.00950104
0.00933769
0.00913499
0.00899613
0.012137
0.0124915
0.012346
0.0123295
0.0123097
0.0122701
0.0122223
0.0121663
0.012103
0.0120336
0.0119586
0.011879
0.0117957
0.0117093
0.0116204
0.011528
0.0114323
0.0113319
0.0112269
0.0111165
0.0110007
0.0108796
0.0107532
0.0106215
0.0104849
0.0103431
0.0101966
0.0100447
0.0098888
0.00972653
0.00956309
0.00938779
0.00922549
0.00902255
0.00889798
0.0120687
0.0124373
0.0123204
0.0123171
0.0123051
0.0122689
0.0122221
0.0121657
0.0121014
0.0120303
0.0119533
0.0118712
0.011785
0.0116954
0.0116026
0.0115061
0.0114055
0.0113001
0.0111895
0.0110734
0.0109519
0.0108249
0.0106928
0.0105554
0.0104134
0.0102663
0.010115
0.00995861
0.00979858
0.00963247
0.00946549
0.00928648
0.00911988
0.00891134
0.00877542
0.0119893
0.0123827
0.0122961
0.0123064
0.0123015
0.0122674
0.0122208
0.012164
0.0120988
0.0120266
0.0119483
0.0118644
0.0117762
0.011684
0.0115882
0.0114882
0.0113837
0.0112738
0.0111585
0.0110375
0.010911
0.0107789
0.0106419
0.0104998
0.0103532
0.0102019
0.0100467
0.00988682
0.00972377
0.00955511
0.00938647
0.00920635
0.00904121
0.00883409
0.00871
0.0119089
0.0123357
0.0122784
0.012302
0.0123039
0.0122715
0.0122248
0.0121672
0.012101
0.0120278
0.0119482
0.0118628
0.0117726
0.011678
0.0115792
0.0114756
0.0113672
0.0112531
0.0111335
0.0110081
0.0108773
0.010741
0.0105998
0.0104538
0.0103036
0.0101489
0.00999061
0.00982794
0.00966245
0.00949161
0.00932102
0.00913893
0.00897127
0.00876087
0.00862823
0.0118078
0.0122886
0.0122616
0.0122993
0.0123075
0.0122754
0.0122278
0.0121691
0.012102
0.012028
0.0119476
0.0118613
0.0117698
0.0116733
0.0115721
0.0114656
0.0113538
0.0112361
0.0111127
0.0109835
0.0108488
0.0107089
0.0105642
0.0104149
0.0102617
0.0101043
0.00994348
0.00977869
0.00961145
0.00943924
0.00926788
0.00908545
0.00891916
0.0087104
0.00858724
0.0117026
0.0122509
0.0122513
0.0123027
0.0123162
0.0122837
0.012235
0.0121753
0.0121073
0.0120328
0.0119519
0.0118647
0.0117716
0.011673
0.0115688
0.011459
0.0113436
0.0112222
0.0110952
0.0109624
0.0108243
0.0106812
0.0105335
0.0103814
0.0102256
0.0100659
0.00990302
0.00973647
0.00956774
0.00939432
0.00922191
0.00903853
0.00887052
0.00865997
0.00852848
0.0115692
0.0122185
0.012244
0.0123099
0.0123276
0.012293
0.0122419
0.0121802
0.0121112
0.0120363
0.0119552
0.0118676
0.0117736
0.0116733
0.0115668
0.0114542
0.0113357
0.0112112
0.011081
0.0109452
0.0108043
0.0106585
0.0105082
0.0103538
0.0101959
0.0100344
0.00986998
0.00970217
0.00953248
0.00935843
0.00918581
0.00900262
0.00883588
0.00862723
0.0085032
0.011427
0.012199
0.0122416
0.0123215
0.0123421
0.0123048
0.0122517
0.0121886
0.012119
0.0120442
0.0119632
0.0118752
0.0117799
0.0116773
0.0115678
0.0114519
0.01133
0.0112022
0.0110691
0.0109305
0.0107871
0.010639
0.0104867
0.0103304
0.0101708
0.0100077
0.00984206
0.00967324
0.00950279
0.00932824
0.00915524
0.00897187
0.0088041
0.00859473
0.00846319
0.0112552
0.0121947
0.012247
0.0123407
0.0123615
0.0123189
0.0122619
0.0121961
0.0121253
0.0120505
0.0119699
0.0118818
0.0117855
0.0116811
0.0115692
0.0114505
0.0113258
0.0111953
0.0110599
0.010919
0.0107737
0.0106238
0.0104697
0.0103119
0.0101509
0.0099867
0.00982013
0.00965065
0.0094798
0.00930516
0.00913237
0.00894967
0.0087832
0.00857595
0.00845064
0.0110621
0.0122043
0.0122525
0.0123602
0.0123802
0.0123331
0.0122734
0.0122061
0.0121352
0.012061
0.0119811
0.0118928
0.011795
0.0116879
0.0115726
0.0114505
0.0113228
0.0111898
0.0110521
0.0109094
0.0107624
0.0106109
0.0104556
0.0102966
0.0101346
0.00996948
0.00980222
0.00963228
0.00946113
0.00928651
0.00911384
0.00893159
0.00876473
0.00855759
0.00842643
0.0108498
0.0122425
0.0122725
0.012392
0.0124063
0.0123513
0.0122864
0.0122157
0.0121435
0.0120698
0.0119907
0.0119023
0.011803
0.0116934
0.0115755
0.0114507
0.0113207
0.0111856
0.0110465
0.0109023
0.0107543
0.0106017
0.0104453
0.0102854
0.0101224
0.00995677
0.00978902
0.00961886
0.0094477
0.00927339
0.00910123
0.0089202
0.00875479
0.00855091
0.00842591
0.0105967
0.012291
0.0122848
0.0124186
0.0124279
0.012367
0.0122988
0.0122265
0.0121547
0.0120823
0.0120043
0.0119155
0.0118141
0.011701
0.0115794
0.0114514
0.0113192
0.0111823
0.0110421
0.0108967
0.0107478
0.0105942
0.0104371
0.0102766
0.0101131
0.00994716
0.009779
0.00960888
0.00943767
0.0092637
0.00909185
0.00891186
0.00874622
0.00854359
0.00841625
0.0103499
0.0123787
0.0123197
0.01246
0.0124571
0.0123874
0.0123134
0.0122377
0.0121656
0.0120946
0.012017
0.0119265
0.011822
0.0117055
0.0115814
0.0114514
0.0113181
0.0111801
0.0110394
0.0108932
0.0107439
0.0105895
0.0104321
0.010271
0.0101072
0.00994128
0.00977288
0.00960308
0.00943191
0.00925843
0.00908721
0.0089089
0.00874464
0.00855
0.00841673
0.0100619
0.0124564
0.0123365
0.0124913
0.0124805
0.0124046
0.0123279
0.0122519
0.0121803
0.0121091
0.0120304
0.0119379
0.0118306
0.0117107
0.0115835
0.0114516
0.0113172
0.0111788
0.0110378
0.0108911
0.0107416
0.0105866
0.0104292
0.0102678
0.0101041
0.00993806
0.00976953
0.00960003
0.00942846
0.00925559
0.00908425