/*--------------------------------*- C++ -*----------------------------------*\
  =========                 |
  \\      /  F ield         | OpenFOAM: The Open Source CFD Toolbox
   \\    /   O peration     | Website:  https://openfoam.org
    \\  /    A nd           | Version:  6
     \\/     M anipulation  |
\*---------------------------------------------------------------------------*/
FoamFile
{
    version     2.0;
    format      ascii;
    class       volScalarField;
    location    "80";
    object      epsilon;
}
// * * * * * * * * * * * * * * * * * * * * * * * * * * * * * * * * * * * * * //

dimensions      [0 2 -3 0 0 0 0];

internalField   nonuniform List<scalar> 
2880
(
0.00243714
0.00243708
0.00243711
0.011808
0.0118074
0.0118072
0.014424
0.0144234
0.0144232
0.0163757
0.0163752
0.016375
0.0179626
0.0179622
0.0179619
0.0192994
0.019299
0.0192988
0.0204655
0.0204652
0.0204649
0.0215191
0.0215188
0.0215185
0.0224969
0.0224968
0.0224965
0.0234139
0.023414
0.0234137
0.0242617
0.024262
0.0242617
0.0250107
0.025011
0.0250107
0.0256219
0.0256222
0.0256218
0.0260604
0.0260608
0.0260605
0.0263008
0.0263012
0.0263009
0.0263008
0.0263012
0.0263009
0.0260607
0.0260611
0.0260607
0.0256224
0.0256228
0.0256224
0.0250115
0.0250119
0.0250115
0.0242628
0.0242631
0.0242627
0.0234152
0.0234153
0.023415
0.0224985
0.0224984
0.022498
0.0215209
0.0215206
0.0215203
0.0204673
0.0204669
0.0204667
0.0193011
0.0193007
0.0193005
0.0179643
0.0179639
0.0179636
0.0163775
0.016377
0.0163767
0.0144258
0.0144252
0.014425
0.0118096
0.011809
0.0118088
0.00243737
0.00243731
0.00243733
0.000176342
0.000176336
0.000176339
0.0103786
0.0103784
0.0103784
0.0131327
0.0131324
0.0131325
0.0150578
0.0150575
0.0150575
0.0165626
0.0165624
0.0165624
0.0178002
0.0178001
0.0178
0.0188609
0.0188608
0.0188607
0.0198064
0.0198062
0.0198061
0.0206764
0.0206764
0.0206762
0.0214892
0.0214892
0.0214891
0.0222392
0.0222393
0.0222391
0.0229012
0.0229012
0.0229011
0.0234406
0.0234407
0.0234406
0.0238275
0.0238276
0.0238275
0.0240396
0.0240397
0.0240396
0.0240396
0.0240397
0.0240396
0.0238276
0.0238277
0.0238276
0.0234409
0.0234409
0.0234409
0.0229016
0.0229017
0.0229016
0.0222398
0.0222398
0.0222397
0.0214899
0.0214899
0.0214898
0.0206773
0.0206773
0.0206771
0.0198074
0.0198073
0.0198071
0.018862
0.0188618
0.0188617
0.0178012
0.017801
0.017801
0.0165635
0.0165634
0.0165633
0.0150586
0.0150584
0.0150584
0.0131335
0.0131333
0.0131333
0.0103793
0.0103791
0.0103791
0.000176363
0.000176358
0.00017636
0.000223141
0.000223134
0.000223137
0.00732124
0.00732108
0.00732111
0.00927063
0.00927048
0.0092705
0.0106772
0.0106771
0.0106771
0.0117828
0.0117827
0.0117827
0.0126933
0.0126932
0.0126932
0.013474
0.0134739
0.0134738
0.01417
0.0141699
0.0141698
0.014811
0.014811
0.0148109
0.0154106
0.0154106
0.0154105
0.0159647
0.0159647
0.0159647
0.0164545
0.0164546
0.0164545
0.0168542
0.0168542
0.0168542
0.0171411
0.0171412
0.0171411
0.0172985
0.0172986
0.0172985
0.0172985
0.0172986
0.0172985
0.0171412
0.0171412
0.0171412
0.0168544
0.0168544
0.0168544
0.0164548
0.0164549
0.0164548
0.0159651
0.0159651
0.0159651
0.0154111
0.0154111
0.015411
0.0148116
0.0148116
0.0148115
0.0141707
0.0141706
0.0141705
0.0134747
0.0134746
0.0134745
0.012694
0.0126939
0.0126938
0.0117834
0.0117833
0.0117833
0.0106778
0.0106777
0.0106777
0.00927116
0.00927102
0.00927103
0.00732169
0.00732154
0.00732155
0.000223167
0.00022316
0.000223163
0.000275312
0.000275303
0.000275307
0.00550429
0.00550418
0.0055042
0.00691246
0.00691236
0.00691237
0.0079808
0.00798071
0.00798071
0.0088287
0.00882862
0.00882859
0.00952821
0.00952814
0.00952809
0.0101277
0.0101276
0.0101276
0.0106618
0.0106618
0.0106617
0.0111535
0.0111535
0.0111534
0.0116135
0.0116135
0.0116135
0.0120389
0.0120389
0.0120389
0.0124152
0.0124152
0.0124151
0.0127224
0.0127224
0.0127224
0.0129431
0.0129431
0.0129431
0.0130642
0.0130643
0.0130642
0.0130642
0.0130643
0.0130642
0.0129432
0.0129432
0.0129432
0.0127225
0.0127226
0.0127225
0.0124154
0.0124154
0.0124154
0.0120392
0.0120392
0.0120391
0.0116139
0.0116139
0.0116138
0.011154
0.0111539
0.0111539
0.0106623
0.0106623
0.0106622
0.0101282
0.0101282
0.0101281
0.00952869
0.00952861
0.00952857
0.00882915
0.00882907
0.00882904
0.00798122
0.00798113
0.00798113
0.00691284
0.00691274
0.00691275
0.00550461
0.00550451
0.00550452
0.000275345
0.000275336
0.000275339
0.000333212
0.000333202
0.000333205
0.00433934
0.00433927
0.00433928
0.00536438
0.00536431
0.00536432
0.0061969
0.00619683
0.00619683
0.00686821
0.00686816
0.00686813
0.00742401
0.00742396
0.00742392
0.00790021
0.00790016
0.00790012
0.0083239
0.00832386
0.00832381
0.00871354
0.00871351
0.00871346
0.00907781
0.00907781
0.00907777
0.00941467
0.00941468
0.00941465
0.00971273
0.00971274
0.00971271
0.0099562
0.00995622
0.00995619
0.0101312
0.0101312
0.0101312
0.0102272
0.0102272
0.0102272
0.0102272
0.0102272
0.0102272
0.0101312
0.0101312
0.0101312
0.0099563
0.00995632
0.00995629
0.00971289
0.0097129
0.00971287
0.00941488
0.0094149
0.00941486
0.00907808
0.00907808
0.00907803
0.00871387
0.00871384
0.00871379
0.00832429
0.00832424
0.00832419
0.0079006
0.00790055
0.00790051
0.00742438
0.00742432
0.00742429
0.00686855
0.0068685
0.00686847
0.00619721
0.00619715
0.00619714
0.00536467
0.0053646
0.00536461
0.00433959
0.00433952
0.00433953
0.000333252
0.000333241
0.000333244
0.000397167
0.000397153
0.000397157
0.00354436
0.0035443
0.00354432
0.00428616
0.00428611
0.00428611
0.00494338
0.00494333
0.00494332
0.00548607
0.00548603
0.00548601
0.00593836
0.00593831
0.00593829
0.0063261
0.00632606
0.00632602
0.00667058
0.00667054
0.00667051
0.00698685
0.00698683
0.00698679
0.00728222
0.00728222
0.00728218
0.00755522
0.00755523
0.0075552
0.00779677
0.00779679
0.00779676
0.00799413
0.00799414
0.00799412
0.008136
0.00813601
0.00813599
0.00821387
0.00821389
0.00821387
0.00821388
0.00821389
0.00821388
0.00813602
0.00813604
0.00813602
0.00799421
0.00799422
0.0079942
0.0077969
0.00779691
0.00779689
0.00755539
0.0075554
0.00755537
0.00728243
0.00728243
0.00728239
0.00698712
0.00698709
0.00698706
0.00667088
0.00667085
0.00667081
0.00632641
0.00632636
0.00632633
0.00593865
0.0059386
0.00593857
0.00548634
0.00548629
0.00548628
0.00494362
0.00494357
0.00494357
0.00428638
0.00428633
0.00428634
0.00354457
0.00354451
0.00354452
0.000397215
0.000397202
0.000397205
0.000467414
0.000467398
0.000467402
0.00297562
0.00297558
0.00297559
0.00350247
0.00350243
0.00350244
0.00402283
0.0040228
0.00402279
0.00446698
0.00446694
0.00446693
0.00484117
0.00484114
0.00484112
0.00516269
0.00516266
0.00516263
0.00544801
0.00544798
0.00544795
0.00570946
0.00570944
0.00570941
0.00595325
0.00595325
0.00595322
0.0061784
0.00617841
0.00617838
0.00637755
0.00637756
0.00637754
0.00654028
0.00654028
0.00654027
0.00665726
0.00665727
0.00665726
0.0067215
0.00672151
0.0067215
0.0067215
0.00672151
0.0067215
0.00665729
0.0066573
0.00665728
0.00654034
0.00654035
0.00654033
0.00637766
0.00637767
0.00637765
0.00617854
0.00617855
0.00617852
0.00595343
0.00595343
0.0059534
0.00570968
0.00570966
0.00570963
0.00544826
0.00544823
0.0054482
0.00516294
0.00516291
0.00516288
0.00484141
0.00484137
0.00484135
0.00446719
0.00446716
0.00446714
0.00402303
0.00402299
0.00402299
0.00350266
0.00350262
0.00350262
0.0029758
0.00297575
0.00297576
0.000467472
0.000467456
0.000467459
0.000544047
0.000544027
0.000544031
0.00255328
0.00255324
0.00255325
0.00291493
0.0029149
0.00291491
0.00332461
0.00332458
0.00332458
0.00369004
0.00369001
0.00369
0.00400299
0.00400297
0.00400295
0.00427319
0.00427316
0.00427314
0.00451288
0.00451285
0.00451283
0.00473208
0.00473206
0.00473204
0.00493609
0.00493609
0.00493607
0.00512429
0.0051243
0.00512428
0.00529068
0.00529069
0.00529067
0.00542662
0.00542662
0.00542661
0.00552436
0.00552436
0.00552435
0.00557803
0.00557804
0.00557803
0.00557803
0.00557804
0.00557803
0.00552438
0.00552439
0.00552437
0.00542667
0.00542668
0.00542666
0.00529077
0.00529078
0.00529076
0.00512441
0.00512442
0.0051244
0.00493624
0.00493624
0.00493622
0.00473226
0.00473225
0.00473222
0.00451309
0.00451306
0.00451304
0.0042734
0.00427337
0.00427335
0.00400319
0.00400316
0.00400315
0.00369022
0.00369019
0.00369018
0.00332478
0.00332475
0.00332475
0.00291508
0.00291505
0.00291506
0.00255343
0.0025534
0.00255341
0.000544116
0.000544097
0.000544099
0.000626939
0.000626917
0.00062692
0.00222976
0.00222973
0.00222974
0.00246409
0.00246406
0.00246407
0.00278215
0.00278213
0.00278213
0.00308255
0.00308252
0.00308252
0.00334586
0.00334583
0.00334582
0.00357507
0.00357505
0.00357503
0.00377862
0.0037786
0.00377858
0.00396446
0.00396444
0.00396442
0.00413707
0.00413706
0.00413705
0.00429607
0.00429607
0.00429606
0.00443654
0.00443654
0.00443653
0.00455127
0.00455128
0.00455126
0.00463377
0.00463377
0.00463377
0.00467908
0.00467908
0.00467908
0.00467908
0.00467909
0.00467908
0.00463379
0.00463379
0.00463379
0.00455132
0.00455133
0.00455131
0.00443662
0.00443662
0.00443661
0.00429617
0.00429618
0.00429616
0.0041372
0.0041372
0.00413718
0.00396462
0.00396461
0.00396459
0.00377881
0.00377879
0.00377877
0.00357526
0.00357523
0.00357522
0.00334603
0.003346
0.00334599
0.0030827
0.00308268
0.00308267
0.00278229
0.00278227
0.00278227
0.00246422
0.0024642
0.00246421
0.0022299
0.00222987
0.00222988
0.000627022
0.000626999
0.000627001
0.000715679
0.000715653
0.000715655
0.00197519
0.00197517
0.00197518
0.00211183
0.00211181
0.00211182
0.00235304
0.00235302
0.00235302
0.00259828
0.00259826
0.00259825
0.00282014
0.00282012
0.00282011
0.00301577
0.00301574
0.00301573
0.00319005
0.00319003
0.00319002
0.003349
0.00334898
0.00334897
0.00349632
0.00349632
0.00349631
0.00363181
0.00363182
0.0036318
0.0037514
0.0037514
0.00375139
0.00384904
0.00384904
0.00384903
0.00391924
0.00391925
0.00391924
0.00395781
0.00395781
0.0039578
0.00395781
0.00395781
0.00395781
0.00391926
0.00391926
0.00391926
0.00384909
0.00384909
0.00384908
0.00375148
0.00375148
0.00375147
0.00363191
0.00363192
0.0036319
0.00349645
0.00349644
0.00349643
0.00334915
0.00334913
0.00334912
0.00319022
0.0031902
0.00319019
0.00301594
0.00301591
0.0030159
0.00282029
0.00282027
0.00282026
0.00259841
0.0025984
0.00259839
0.00235316
0.00235315
0.00235315
0.00211195
0.00211193
0.00211194
0.00197532
0.0019753
0.00197531
0.000715775
0.000715749
0.00071575
0.000809498
0.000809468
0.00080947
0.00177004
0.00177002
0.00177003
0.00183247
0.00183246
0.00183247
0.0020089
0.00200889
0.00200889
0.00220645
0.00220643
0.00220643
0.00239281
0.00239279
0.00239278
0.00256024
0.00256022
0.00256021
0.00271033
0.00271031
0.0027103
0.00284723
0.00284722
0.0028472
0.00297388
0.00297388
0.00297387
0.00309015
0.00309016
0.00309015
0.00319266
0.00319267
0.00319266
0.00327631
0.00327631
0.0032763
0.00333644
0.00333644
0.00333644
0.00336948
0.00336948
0.00336948
0.00336948
0.00336948
0.00336948
0.00333646
0.00333646
0.00333646
0.00327635
0.00327635
0.00327635
0.00319273
0.00319274
0.00319273
0.00309025
0.00309025
0.00309024
0.002974
0.00297399
0.00297398
0.00284737
0.00284735
0.00284734
0.00271049
0.00271047
0.00271046
0.0025604
0.00256038
0.00256036
0.00239295
0.00239293
0.00239292
0.00220657
0.00220656
0.00220655
0.00200901
0.002009
0.002009
0.00183258
0.00183257
0.00183258
0.00177016
0.00177014
0.00177015
0.000809609
0.000809579
0.000809579
0.000907234
0.000907201
0.000907201
0.00160116
0.00160115
0.00160115
0.00160802
0.00160801
0.00160801
0.00172996
0.00172995
0.00172995
0.00188576
0.00188575
0.00188574
0.00204106
0.00204105
0.00204104
0.00218427
0.00218426
0.00218425
0.00231398
0.00231397
0.00231396
0.00243252
0.00243251
0.0024325
0.00254204
0.00254204
0.00254203
0.00264241
0.00264241
0.0026424
0.00273077
0.00273077
0.00273077
0.00280282
0.00280282
0.00280282
0.0028546
0.0028546
0.0028546
0.00288306
0.00288306
0.00288305
0.00288306
0.00288306
0.00288306
0.00285462
0.00285462
0.00285462
0.00280286
0.00280286
0.00280286
0.00273084
0.00273084
0.00273083
0.00264249
0.00264249
0.00264249
0.00254215
0.00254215
0.00254214
0.00243265
0.00243263
0.00243262
0.00231413
0.00231411
0.0023141
0.00218442
0.0021844
0.00218439
0.00204119
0.00204118
0.00204117
0.00188587
0.00188586
0.00188586
0.00173006
0.00173005
0.00173005
0.00160812
0.00160811
0.00160811
0.00160127
0.00160126
0.00160126
0.00090736
0.000907327
0.000907326
0.00100733
0.00100729
0.00100729
0.00145954
0.00145953
0.00145953
0.00142541
0.0014254
0.00142541
0.0015019
0.00150189
0.00150189
0.00162097
0.00162096
0.00162095
0.00174864
0.00174862
0.00174862
0.00187061
0.00187059
0.00187059
0.00198282
0.00198281
0.0019828
0.00208584
0.00208583
0.00208582
0.002181
0.002181
0.00218099
0.00226805
0.00226806
0.00226805
0.00234459
0.00234459
0.00234458
0.00240693
0.00240693
0.00240692
0.00245172
0.00245171
0.00245171
0.00247632
0.00247632
0.00247632
0.00247633
0.00247633
0.00247633
0.00245173
0.00245173
0.00245173
0.00240697
0.00240697
0.00240696
0.00234465
0.00234465
0.00234465
0.00226814
0.00226814
0.00226813
0.0021811
0.0021811
0.00218109
0.00208596
0.00208595
0.00208594
0.00198295
0.00198294
0.00198293
0.00187074
0.00187073
0.00187072
0.00174876
0.00174874
0.00174874
0.00162107
0.00162106
0.00162106
0.00150199
0.00150198
0.00150199
0.00142551
0.0014255
0.0014255
0.00145965
0.00145963
0.00145964
0.00100747
0.00100743
0.00100743
0.00110789
0.00110785
0.00110785
0.00133891
0.0013389
0.0013389
0.00127496
0.00127495
0.00127495
0.00131405
0.00131404
0.00131404
0.00140083
0.00140082
0.00140082
0.00150363
0.00150362
0.00150361
0.00160662
0.0016066
0.0016066
0.00170353
0.00170352
0.00170352
0.00179326
0.00179325
0.00179324
0.00187624
0.00187623
0.00187623
0.00195205
0.00195205
0.00195205
0.0020186
0.00201859
0.00201859
0.00207274
0.00207273
0.00207273
0.00211161
0.00211161
0.00211161
0.00213296
0.00213296
0.00213296
0.00213297
0.00213297
0.00213297
0.00211162
0.00211162
0.00211162
0.00207277
0.00207277
0.00207277
0.00201866
0.00201865
0.00201865
0.00195213
0.00195213
0.00195212
0.00187633
0.00187633
0.00187632
0.00179337
0.00179336
0.00179336
0.00170366
0.00170365
0.00170364
0.00160674
0.00160673
0.00160672
0.00150374
0.00150373
0.00150372
0.00140093
0.00140092
0.00140092
0.00131414
0.00131413
0.00131413
0.00127504
0.00127504
0.00127504
0.00133901
0.001339
0.001339
0.00110804
0.00110801
0.001108
0.00120681
0.00120677
0.00120676
0.00123487
0.00123486
0.00123487
0.00114929
0.00114928
0.00114928
0.0011582
0.0011582
0.0011582
0.00121682
0.00121681
0.00121681
0.0012971
0.00129709
0.00129708
0.00138286
0.00138285
0.00138284
0.00146616
0.00146615
0.00146615
0.00154432
0.00154431
0.0015443
0.00161686
0.00161685
0.00161685
0.0016831
0.0016831
0.00168309
0.00174115
0.00174115
0.00174114
0.00178831
0.0017883
0.0017883
0.00182214
0.00182214
0.00182214
0.00184072
0.00184072
0.00184072
0.00184073
0.00184073
0.00184073
0.00182216
0.00182215
0.00182215
0.00178834
0.00178834
0.00178834
0.0017412
0.0017412
0.0017412
0.00168317
0.00168317
0.00168317
0.00161695
0.00161694
0.00161694
0.00154442
0.00154442
0.00154441
0.00146628
0.00146627
0.00146626
0.00138298
0.00138296
0.00138296
0.0012972
0.00129719
0.00129719
0.00121691
0.0012169
0.0012169
0.00115829
0.00115828
0.00115828
0.00114937
0.00114936
0.00114937
0.00123497
0.00123496
0.00123496
0.00120698
0.00120694
0.00120693
0.00130198
0.00130193
0.00130193
0.00114432
0.00114431
0.00114432
0.00104274
0.00104274
0.00104274
0.00102792
0.00102792
0.00102792
0.00106228
0.00106228
0.00106227
0.00112218
0.00112217
0.00112217
0.00119213
0.00119212
0.00119211
0.0012631
0.00126309
0.00126309
0.00133104
0.00133104
0.00133103
0.00139453
0.00139453
0.00139453
0.00145255
0.00145255
0.00145255
0.00150333
0.00150332
0.00150332
0.00154451
0.0015445
0.0015445
0.00157402
0.00157401
0.00157401
0.00159022
0.00159022
0.00159022
0.00159022
0.00159022
0.00159022
0.00157403
0.00157403
0.00157403
0.00154454
0.00154454
0.00154454
0.00150338
0.00150338
0.00150338
0.00145262
0.00145262
0.00145262
0.00139462
0.00139461
0.00139461
0.00133114
0.00133114
0.00133113
0.00126321
0.00126321
0.0012632
0.00119224
0.00119223
0.00119222
0.00112228
0.00112227
0.00112227
0.00106237
0.00106236
0.00106236
0.001028
0.001028
0.001028
0.00104282
0.00104282
0.00104282
0.00114441
0.00114441
0.00114441
0.00130216
0.00130212
0.00130211
0.00139151
0.00139147
0.00139146
0.00106503
0.00106502
0.00106503
0.000950949
0.000950947
0.000950949
0.000918021
0.00091802
0.00091802
0.000931904
0.000931901
0.000931899
0.000973492
0.000973486
0.000973484
0.00102882
0.00102882
0.00102881
0.00108847
0.00108846
0.00108846
0.00114724
0.00114724
0.00114723
0.0012028
0.00120279
0.00120279
0.0012537
0.0012537
0.00125369
0.0012982
0.00129819
0.00129819
0.00133422
0.00133422
0.00133422
0.00136
0.00135999
0.00136
0.00137414
0.00137414
0.00137414
0.00137415
0.00137414
0.00137415
0.00136001
0.00136001
0.00136001
0.00133425
0.00133425
0.00133425
0.00129825
0.00129824
0.00129824
0.00125376
0.00125376
0.00125376
0.00120288
0.00120287
0.00120287
0.00114733
0.00114733
0.00114733
0.00108857
0.00108856
0.00108856
0.00102893
0.00102892
0.00102892
0.000973584
0.000973579
0.000973576
0.000931986
0.000931983
0.000931981
0.000918096
0.000918095
0.000918095
0.000951024
0.000951022
0.000951024
0.00106512
0.00106512
0.00106512
0.0013917
0.00139166
0.00139165
0.00147398
0.00147394
0.00147394
0.000995383
0.000995377
0.00099538
0.000870532
0.000870531
0.000870533
0.000824311
0.00082431
0.000824311
0.00082135
0.000821348
0.000821347
0.000846692
0.000846687
0.000846686
0.000888518
0.000888512
0.00088851
0.000937623
0.000937617
0.000937615
0.000988036
0.000988031
0.000988029
0.00103654
0.00103654
0.00103654
0.00108122
0.00108122
0.00108122
0.00112027
0.00112027
0.00112027
0.00115182
0.00115182
0.00115182
0.00117436
0.00117436
0.00117436
0.00118672
0.00118671
0.00118672
0.00118672
0.00118672
0.00118672
0.00117438
0.00117437
0.00117437
0.00115185
0.00115185
0.00115185
0.00112032
0.00112032
0.00112032
0.00108128
0.00108128
0.00108128
0.00103662
0.00103661
0.00103661
0.000988122
0.000988118
0.000988116
0.000937718
0.000937712
0.00093771
0.000888612
0.000888606
0.000888604
0.000846778
0.000846774
0.000846772
0.000821427
0.000821425
0.000821424
0.000824382
0.000824382
0.000824382
0.000870603
0.000870602
0.000870604
0.000995474
0.000995468
0.00099547
0.00147419
0.00147415
0.00147414
0.00154864
0.0015486
0.00154859
0.00093418
0.000934175
0.000934177
0.00079892
0.00079892
0.000798921
0.000743353
0.000743353
0.000743353
0.000727002
0.000727001
0.000727
0.000738214
0.000738211
0.00073821
0.000767635
0.00076763
0.000767629
0.000806867
0.000806863
0.000806861
0.000849545
0.000849541
0.000849539
0.000891696
0.000891694
0.000891692
0.000930883
0.000930881
0.00093088
0.000965172
0.000965169
0.000965169
0.000992822
0.000992818
0.000992818
0.00101253
0.00101253
0.00101253
0.00102332
0.00102332
0.00102332
0.00102332
0.00102332
0.00102332
0.00101254
0.00101254
0.00101254
0.00099285
0.000992846
0.000992846
0.000965216
0.000965213
0.000965213
0.00093094
0.000930938
0.000930936
0.000891764
0.000891762
0.00089176
0.000849624
0.000849621
0.000849619
0.000806954
0.00080695
0.000806949
0.000767721
0.000767717
0.000767716
0.000738294
0.000738291
0.00073829
0.000727074
0.000727073
0.000727073
0.00074342
0.00074342
0.00074342
0.000798988
0.000798988
0.000798989
0.000934269
0.000934264
0.000934266
0.00154885
0.00154881
0.0015488
0.00161545
0.00161541
0.0016154
0.000880528
0.000880524
0.000880525
0.000734209
0.000734209
0.00073421
0.000672341
0.000672341
0.000672341
0.000645807
0.000645806
0.000645806
0.00064506
0.000645059
0.000645058
0.000663238
0.000663236
0.000663235
0.000693211
0.000693208
0.000693207
0.000728641
0.000728638
0.000728637
0.000764977
0.000764975
0.000764974
0.000799258
0.000799256
0.000799255
0.000829348
0.000829345
0.000829344
0.000853571
0.000853567
0.000853567
0.000870792
0.000870788
0.000870788
0.000880205
0.000880201
0.000880201
0.000880209
0.000880205
0.000880205
0.000870805
0.000870801
0.000870801
0.000853597
0.000853593
0.000853593
0.000829388
0.000829386
0.000829385
0.00079931
0.000799308
0.000799307
0.00076504
0.000765038
0.000765037
0.000728713
0.000728711
0.00072871
0.00069329
0.000693288
0.000693287
0.000663317
0.000663315
0.000663314
0.000645134
0.000645133
0.000645132
0.000645874
0.000645874
0.000645874
0.000672405
0.000672405
0.000672405
0.000734275
0.000734275
0.000734276
0.000880615
0.000880611
0.000880612
0.00161566
0.00161562
0.00161561
0.00167506
0.00167503
0.00167502
0.000833775
0.000833771
0.000833771
0.000675054
0.000675055
0.000675055
0.000609014
0.000609015
0.000609016
0.00057517
0.00057517
0.000575171
0.000564661
0.000564661
0.000564661
0.000572864
0.000572863
0.000572863
0.000594204
0.000594203
0.000594203
0.000622786
0.000622785
0.000622784
0.00065372
0.000653718
0.000653717
0.000683556
0.000683554
0.000683553
0.000709907
0.000709903
0.000709902
0.000731098
0.000731094
0.000731093
0.00074612
0.000746116
0.000746116
0.000754314
0.00075431
0.000754309
0.000754317
0.000754313
0.000754313
0.000746132
0.000746128
0.000746128
0.000731122
0.000731118
0.000731117
0.000709943
0.00070994
0.000709939
0.000683604
0.000683602
0.000683601
0.000653777
0.000653775
0.000653775
0.000622852
0.00062285
0.00062285
0.000594275
0.000594275
0.000594274
0.000572935
0.000572935
0.000572934
0.000564729
0.000564729
0.000564729
0.000575233
0.000575233
0.000575234
0.000609075
0.000609076
0.000609076
0.000675118
0.000675118
0.000675118
0.00083386
0.000833856
0.000833856
0.00167527
0.00167524
0.00167523
0.00172865
0.00172862
0.00172861
0.000793472
0.000793469
0.000793468
0.000620576
0.000620577
0.000620577
0.000551599
0.0005516
0.0005516
0.000512892
0.000512893
0.000512894
0.00049479
0.000494791
0.000494792
0.000494404
0.000494405
0.000494404
0.00050781
0.00050781
0.00050781
0.000529906
0.000529906
0.000529905
0.000555749
0.000555747
0.000555747
0.000581495
0.000581493
0.000581492
0.000604473
0.00060447
0.000604469
0.000622958
0.000622954
0.000622953
0.000636022
0.000636018
0.000636017
0.000643129
0.000643124
0.000643123
0.000643132
0.000643127
0.000643126
0.000636033
0.000636029
0.000636028
0.00062298
0.000622975
0.000622974
0.000604507
0.000604503
0.000604502
0.000581538
0.000581536
0.000581535
0.0005558
0.000555799
0.000555799
0.000529965
0.000529964
0.000529964
0.000507873
0.000507874
0.000507873
0.000494468
0.000494469
0.000494468
0.000494852
0.000494853
0.000494853
0.00051295
0.000512952
0.000512952
0.000551656
0.000551657
0.000551658
0.000620637
0.000620638
0.000620638
0.000793555
0.000793552
0.000793551
0.00172886
0.00172883
0.00172882
0.00177765
0.00177762
0.00177761
0.00075935
0.000759347
0.000759346
0.000570278
0.000570278
0.000570278
0.000498763
0.000498765
0.000498765
0.000457135
0.000457138
0.000457138
0.000433505
0.000433508
0.000433508
0.000426026
0.000426028
0.000426028
0.000432312
0.000432313
0.000432313
0.000448298
0.000448297
0.000448298
0.000469291
0.00046929
0.00046929
0.000491207
0.000491205
0.000491204
0.000511097
0.000511094
0.000511093
0.000527138
0.000527133
0.000527132
0.000538442
0.000538437
0.000538436
0.000544573
0.000544567
0.000544566
0.000544576
0.00054457
0.000544569
0.000538452
0.000538447
0.000538446
0.000527157
0.000527152
0.000527151
0.000511127
0.000511123
0.000511122
0.000491246
0.000491244
0.000491243
0.000469337
0.000469336
0.000469336
0.000448349
0.000448349
0.000448349
0.000432366
0.000432368
0.000432368
0.000426082
0.000426084
0.000426085
0.000433561
0.000433563
0.000433564
0.000457189
0.000457192
0.000457192
0.000498817
0.000498819
0.000498819
0.000570337
0.000570337
0.000570337
0.00075943
0.000759428
0.000759426
0.00177786
0.00177783
0.00177782
0.00182347
0.00182344
0.00182343
0.000731283
0.000731281
0.000731278
0.000523956
0.000523957
0.000523956
0.000449582
0.000449584
0.000449585
0.000406412
0.000406416
0.000406416
0.000379133
0.000379137
0.000379137
0.000366129
0.000366133
0.000366133
0.000366249
0.000366252
0.000366252
0.000376563
0.000376564
0.000376564
0.000392914
0.000392913
0.000392913
0.000411179
0.000411177
0.000411177
0.000428188
0.000428183
0.000428183
0.000441987
0.000441982
0.000441981
0.000451693
0.000451688
0.000451687
0.000456941
0.000456934
0.000456934
0.000456943
0.000456937
0.000456936
0.000451702
0.000451696
0.000451695
0.000442003
0.000441998
0.000441997
0.000428213
0.00042821
0.000428209
0.000411213
0.000411211
0.000411211
0.000392954
0.000392953
0.000392954
0.000376607
0.000376608
0.000376608
0.000366296
0.000366299
0.000366299
0.000366178
0.000366182
0.000366182
0.000379182
0.000379186
0.000379186
0.000406461
0.000406465
0.000406465
0.000449632
0.000449635
0.000449635
0.000524013
0.000524014
0.000524013
0.000731361
0.000731359
0.000731357
0.00182367
0.00182365
0.00182364
0.00186725
0.00186723
0.00186722
0.000709243
0.000709241
0.000709238
0.000481621
0.000481621
0.000481621
0.000403494
0.000403496
0.000403497
0.000359585
0.000359589
0.00035959
0.000330271
0.000330276
0.000330276
0.000313331
0.000313335
0.000313336
0.000308385
0.000308389
0.000308389
0.000313572
0.000313573
0.000313574
0.000325487
0.000325486
0.000325486
0.000340217
0.000340215
0.000340214
0.000354477
0.000354472
0.000354472
0.000366184
0.000366178
0.000366177
0.00037442
0.000374414
0.000374413
0.00037886
0.000378854
0.000378853
0.000378863
0.000378856
0.000378856
0.000374428
0.000374421
0.000374421
0.000366198
0.000366193
0.000366192
0.000354499
0.000354495
0.000354494
0.000340247
0.000340244
0.000340244
0.000325521
0.00032552
0.000325521
0.000313609
0.00031361
0.000313611
0.000308424
0.000308428
0.000308428
0.000313372
0.000313377
0.000313377
0.000330314
0.000330319
0.000330319
0.000359629
0.000359634
0.000359634
0.000403541
0.000403544
0.000403545
0.000481676
0.000481676
0.000481676
0.000709319
0.000709317
0.000709314
0.00186745
0.00186743
0.00186742
0.00190968
0.00190967
0.00190965
0.00069324
0.000693238
0.000693235
0.000443414
0.000443415
0.000443414
0.000360254
0.000360257
0.000360257
0.000315878
0.000315883
0.000315884
0.000285823
0.000285829
0.000285829
0.000266486
0.000266491
0.000266492
0.000257698
0.000257703
0.000257703
0.00025844
0.000258442
0.000258443
0.000266169
0.000266168
0.000266169
0.00027744
0.000277437
0.000277437
0.000289018
0.000289013
0.000289013
0.000298729
0.000298723
0.000298723
0.000305592
0.000305585
0.000305585
0.000309288
0.000309281
0.00030928
0.00030929
0.000309283
0.000309282
0.000305599
0.000305592
0.000305591
0.000298741
0.000298735
0.000298735
0.000289037
0.000289032
0.000289032
0.000277464
0.000277462
0.000277462
0.000266197
0.000266196
0.000266197
0.000258469
0.000258471
0.000258472
0.000257729
0.000257734
0.000257735
0.00026652
0.000266526
0.000266526
0.000285859
0.000285866
0.000285866
0.000315917
0.000315923
0.000315923
0.000360298
0.000360302
0.000360302
0.000443467
0.000443468
0.000443467
0.000693312
0.00069331
0.000693307
0.00190988
0.00190987
0.00190985
0.0019509
0.00195089
0.00195087
0.000683244
0.000683242
0.000683239
0.000409552
0.000409553
0.000409552
0.000319891
0.000319896
0.000319896
0.000274898
0.000274905
0.000274905
0.000245056
0.000245063
0.000245063
0.000224743
0.00022475
0.00022475
0.000213413
0.000213419
0.000213419
0.000210539
0.000210542
0.000210543
0.000214421
0.000214421
0.000214421
0.000222299
0.000222297
0.000222297
0.000231214
0.00023121
0.000231209
0.000238979
0.000238973
0.000238973
0.000244539
0.000244532
0.000244532
0.000247541
0.000247534
0.000247534
0.000247543
0.000247536
0.000247536
0.000244544
0.000244537
0.000244537
0.000238989
0.000238983
0.000238983
0.000231229
0.000231225
0.000231225
0.000222319
0.000222317
0.000222317
0.000214442
0.000214442
0.000214442
0.000210561
0.000210564
0.000210564
0.000213437
0.000213443
0.000213443
0.00022477
0.000224777
0.000224778
0.000245086
0.000245093
0.000245094
0.000274933
0.00027494
0.00027494
0.000319933
0.000319938
0.000319938
0.000409603
0.000409604
0.000409604
0.000683313
0.000683311
0.000683307
0.0019511
0.00195108
0.00195107
0.00199045
0.00199044
0.00199043
0.000679086
0.000679084
0.00067908
0.000380291
0.000380292
0.000380291
0.000282691
0.000282696
0.000282696
0.000236679
0.000236686
0.000236686
0.000207691
0.000207699
0.0002077
0.000187641
0.000187649
0.000187649
0.000175062
0.000175069
0.00017507
0.000169527
0.000169531
0.000169531
0.000170028
0.000170028
0.000170029
0.000174631
0.000174629
0.000174629
0.000180884
0.00018088
0.00018088
0.000186725
0.000186719
0.000186719
0.000191033
0.000191027
0.000191026
0.000193387
0.00019338
0.00019338
0.000193388
0.000193381
0.000193381
0.000191037
0.000191031
0.000191031
0.000186732
0.000186727
0.000186727
0.000180895
0.000180891
0.000180891
0.000174645
0.000174643
0.000174643
0.000170042
0.000170043
0.000170043
0.00016954
0.000169545
0.000169545
0.000175079
0.000175086
0.000175086
0.000187661
0.00018767
0.00018767
0.000207716
0.000207725
0.000207725
0.00023671
0.000236717
0.000236718
0.000282731
0.000282736
0.000282736
0.000380341
0.000380342
0.000380341
0.000679151
0.000679149
0.000679146
0.00199064
0.00199063
0.00199062
0.00202729
0.00202728
0.00202727
0.000680278
0.000680275
0.000680272
0.000355921
0.000355923
0.000355922
0.000249228
0.000249234
0.000249234
0.000201762
0.00020177
0.00020177
0.00017403
0.000174039
0.00017404
0.000155225
0.000155234
0.000155235
0.000142571
0.000142579
0.000142579
0.000135378
0.000135383
0.000135383
0.000133118
0.00013312
0.00013312
0.000134689
0.000134688
0.000134688
0.000138339
0.000138336
0.000138336
0.000142293
0.000142288
0.000142288
0.000145407
0.000145401
0.000145401
0.00014716
0.000147153
0.000147153
0.000147161
0.000147154
0.000147154
0.00014541
0.000145404
0.000145404
0.000142298
0.000142293
0.000142293
0.000138346
0.000138343
0.000138343
0.000134697
0.000134696
0.000134696
0.000133125
0.000133127
0.000133127
0.000135384
0.00013539
0.00013539
0.000142581
0.000142589
0.000142589
0.000155239
0.00015525
0.00015525
0.00017405
0.00017406
0.00017406
0.000201789
0.000201798
0.000201798
0.000249266
0.000249272
0.000249272
0.000355971
0.000355973
0.000355972
0.00068034
0.000680337
0.000680334
0.00202748
0.00202747
0.00202746
0.00205974
0.00205973
0.00205972
0.000685705
0.000685701
0.000685698
0.000336785
0.000336787
0.000336786
0.000220506
0.000220513