/*--------------------------------*- C++ -*----------------------------------*\
  =========                 |
  \\      /  F ield         | OpenFOAM: The Open Source CFD Toolbox
   \\    /   O peration     | Website:  https://openfoam.org
    \\  /    A nd           | Version:  6
     \\/     M anipulation  |
\*---------------------------------------------------------------------------*/
FoamFile
{
    version     2.0;
    format      ascii;
    class       volScalarField;
    location    "80";
    object      k;
}
// * * * * * * * * * * * * * * * * * * * * * * * * * * * * * * * * * * * * * //

dimensions      [0 2 -2 0 0 0 0];

internalField   nonuniform List<scalar> 
2880
(
0.000129764
0.000129761
0.000129762
0.000321054
0.000321038
0.000321032
0.000392186
0.000392171
0.000392166
0.000445257
0.000445244
0.000445238
0.000488409
0.000488398
0.00048839
0.000524762
0.00052475
0.000524744
0.00055647
0.00055646
0.000556454
0.000585117
0.00058511
0.000585103
0.000611706
0.000611704
0.000611695
0.000636644
0.000636648
0.000636639
0.000659704
0.000659711
0.000659703
0.000680076
0.000680084
0.000680075
0.000696699
0.000696708
0.000696698
0.000708627
0.000708637
0.000708628
0.000715164
0.000715174
0.000715166
0.000715166
0.000715176
0.000715167
0.000708634
0.000708644
0.000708634
0.000696714
0.000696723
0.000696713
0.000680098
0.000680106
0.000680097
0.000659732
0.000659739
0.000659731
0.00063668
0.000636683
0.000636674
0.000611749
0.000611746
0.000611737
0.000585165
0.000585158
0.000585151
0.000556517
0.000556507
0.000556501
0.000524807
0.000524795
0.00052479
0.000488455
0.000488444
0.000488437
0.000445305
0.000445291
0.000445285
0.000392234
0.000392219
0.000392213
0.000321098
0.000321082
0.000321076
0.000129776
0.000129773
0.000129774
0.000186775
0.000186771
0.000186773
0.000898953
0.000898925
0.000898918
0.00104962
0.00104959
0.00104958
0.00115452
0.0011545
0.0011545
0.00123625
0.00123623
0.00123622
0.00130308
0.00130307
0.00130306
0.00136008
0.00136007
0.00136006
0.00141065
0.00141064
0.00141063
0.0014569
0.0014569
0.00145689
0.00149977
0.00149977
0.00149976
0.00153901
0.00153902
0.00153901
0.00157338
0.00157339
0.00157338
0.00160122
0.00160123
0.00160122
0.00162109
0.0016211
0.00162109
0.00163195
0.00163196
0.00163195
0.00163195
0.00163196
0.00163195
0.0016211
0.00162111
0.0016211
0.00160124
0.00160125
0.00160124
0.00157341
0.00157342
0.00157341
0.00153905
0.00153906
0.00153905
0.00149982
0.00149983
0.00149981
0.00145697
0.00145696
0.00145695
0.00141072
0.00141071
0.0014107
0.00136016
0.00136014
0.00136013
0.00130316
0.00130314
0.00130313
0.00123632
0.0012363
0.00123629
0.0011546
0.00115458
0.00115457
0.00104969
0.00104967
0.00104966
0.000899029
0.000899002
0.000898993
0.00018679
0.000186786
0.000186788
0.000218508
0.000218504
0.000218505
0.000987926
0.000987893
0.000987883
0.00113655
0.00113652
0.00113651
0.00124506
0.00124503
0.00124502
0.00133093
0.00133091
0.0013309
0.0014017
0.00140168
0.00140167
0.00146234
0.00146232
0.00146231
0.0015163
0.00151629
0.00151628
0.00156576
0.00156576
0.00156574
0.00161164
0.00161165
0.00161163
0.00165367
0.00165368
0.00165366
0.00169048
0.0016905
0.00169048
0.00172032
0.00172033
0.00172031
0.00174161
0.00174163
0.00174161
0.00175325
0.00175326
0.00175325
0.00175325
0.00175326
0.00175325
0.00174162
0.00174164
0.00174162
0.00172034
0.00172036
0.00172034
0.00169052
0.00169053
0.00169052
0.00165371
0.00165373
0.00165371
0.0016117
0.00161171
0.00161169
0.00156583
0.00156583
0.00156581
0.00151639
0.00151637
0.00151636
0.00146242
0.00146241
0.00146239
0.00140179
0.00140177
0.00140176
0.00133102
0.001331
0.00133098
0.00124515
0.00124512
0.00124511
0.00113664
0.00113661
0.0011366
0.000988017
0.000987984
0.000987973
0.000218526
0.000218521
0.000218523
0.000251361
0.000251356
0.000251358
0.00103325
0.00103321
0.0010332
0.00117276
0.00117272
0.00117271
0.00128011
0.00128009
0.00128007
0.00136658
0.00136656
0.00136654
0.00143842
0.0014384
0.00143839
0.00150027
0.00150025
0.00150023
0.00155548
0.00155546
0.00155545
0.00160617
0.00160616
0.00160614
0.00165323
0.00165323
0.00165322
0.00169634
0.00169636
0.00169634
0.00173412
0.00173414
0.00173412
0.00176474
0.00176476
0.00176474
0.00178659
0.00178661
0.0017866
0.00179853
0.00179855
0.00179853
0.00179853
0.00179855
0.00179854
0.00178661
0.00178663
0.00178661
0.00176477
0.00176478
0.00176476
0.00173416
0.00173418
0.00173416
0.0016964
0.00169641
0.00169639
0.00165329
0.0016533
0.00165328
0.00160625
0.00160624
0.00160622
0.00155557
0.00155555
0.00155554
0.00150036
0.00150034
0.00150033
0.00143851
0.00143849
0.00143848
0.00136667
0.00136665
0.00136664
0.00128021
0.00128019
0.00128017
0.00117286
0.00117283
0.00117282
0.00103335
0.00103332
0.0010333
0.000251381
0.000251376
0.000251377
0.000285471
0.000285465
0.000285467
0.00106502
0.00106498
0.00106496
0.00119238
0.00119235
0.00119234
0.00129631
0.00129628
0.00129627
0.00138183
0.00138181
0.00138179
0.00145362
0.00145359
0.00145358
0.00151578
0.00151576
0.00151574
0.00157147
0.00157145
0.00157144
0.0016227
0.0016227
0.00162268
0.00167031
0.00167032
0.0016703
0.00171394
0.00171396
0.00171394
0.00175217
0.00175219
0.00175217
0.00178315
0.00178318
0.00178315
0.00180527
0.00180529
0.00180527
0.00181735
0.00181737
0.00181735
0.00181735
0.00181738
0.00181736
0.00180529
0.00180531
0.00180529
0.00178319
0.00178321
0.00178318
0.00175222
0.00175223
0.00175221
0.001714
0.00171401
0.001714
0.00167038
0.00167039
0.00167037
0.00162279
0.00162278
0.00162276
0.00157157
0.00157155
0.00157154
0.00151588
0.00151585
0.00151584
0.00145372
0.00145369
0.00145368
0.00138194
0.00138191
0.00138189
0.00129642
0.00129639
0.00129638
0.00119249
0.00119246
0.00119245
0.00106513
0.00106509
0.00106507
0.000285494
0.000285488
0.000285489
0.00032092
0.000320913
0.000320914
0.00109121
0.00109116
0.00109115
0.00120509
0.00120505
0.00120504
0.00130398
0.00130394
0.00130393
0.00138751
0.00138748
0.00138746
0.00145854
0.00145852
0.0014585
0.00152052
0.00152049
0.00152048
0.0015763
0.00157628
0.00157627
0.00162774
0.00162774
0.00162772
0.00167561
0.00167561
0.00167559
0.00171948
0.0017195
0.00171948
0.00175793
0.00175795
0.00175793
0.0017891
0.00178912
0.0017891
0.00181134
0.00181136
0.00181134
0.00182349
0.00182351
0.00182349
0.00182349
0.00182351
0.00182349
0.00181136
0.00181138
0.00181136
0.00178913
0.00178915
0.00178913
0.00175798
0.001758
0.00175798
0.00171955
0.00171956
0.00171954
0.00167568
0.00167569
0.00167567
0.00162784
0.00162783
0.00162781
0.00157641
0.00157639
0.00157637
0.00152062
0.0015206
0.00152058
0.00145865
0.00145862
0.0014586
0.00138762
0.00138759
0.00138757
0.00130409
0.00130406
0.00130404
0.00120521
0.00120517
0.00120516
0.00109133
0.00109128
0.00109127
0.000320946
0.000320939
0.00032094
0.000357725
0.000357717
0.000357718
0.00111453
0.00111448
0.00111447
0.00121469
0.00121465
0.00121463
0.0013072
0.00130717
0.00130715
0.00138783
0.0013878
0.00138778
0.00145754
0.00145751
0.0014575
0.00151896
0.00151893
0.00151892
0.00157457
0.00157455
0.00157453
0.00162602
0.00162602
0.001626
0.00167396
0.00167397
0.00167395
0.00171794
0.00171796
0.00171794
0.00175649
0.00175651
0.00175648
0.00178772
0.00178775
0.00178772
0.00181002
0.00181004
0.00181002
0.00182219
0.00182222
0.0018222
0.00182219
0.00182222
0.0018222
0.00181003
0.00181006
0.00181004
0.00178776
0.00178778
0.00178776
0.00175654
0.00175656
0.00175653
0.00171801
0.00171803
0.00171801
0.00167405
0.00167406
0.00167403
0.00162612
0.00162612
0.00162609
0.00157468
0.00157466
0.00157465
0.00151907
0.00151904
0.00151903
0.00145765
0.00145762
0.0014576
0.00138794
0.00138791
0.00138789
0.00130732
0.00130729
0.00130728
0.00121481
0.00121478
0.00121476
0.00111465
0.00111461
0.00111459
0.000357755
0.000357747
0.000357748
0.000395827
0.000395817
0.000395819
0.00113584
0.0011358
0.00113578
0.00122296
0.00122292
0.00122291
0.00130798
0.00130795
0.00130793
0.0013848
0.00138477
0.00138475
0.00145262
0.00145259
0.00145258
0.00151314
0.00151311
0.0015131
0.00156836
0.00156834
0.00156832
0.00161966
0.00161966
0.00161964
0.00166757
0.00166758
0.00166756
0.00171155
0.00171157
0.00171155
0.0017501
0.00175013
0.0017501
0.00178135
0.00178138
0.00178135
0.00180365
0.00180368
0.00180365
0.00181583
0.00181585
0.00181583
0.00181583
0.00181586
0.00181583
0.00180367
0.0018037
0.00180367
0.00178139
0.00178141
0.00178139
0.00175016
0.00175018
0.00175016
0.00171162
0.00171164
0.00171162
0.00166766
0.00166766
0.00166764
0.00161977
0.00161976
0.00161974
0.00156848
0.00156846
0.00156844
0.00151326
0.00151323
0.00151322
0.00145274
0.00145271
0.00145269
0.00138492
0.00138489
0.00138487
0.00130811
0.00130808
0.00130806
0.0012231
0.00122306
0.00122305
0.00113598
0.00113593
0.00113592
0.000395861
0.000395852
0.000395852
0.000435076
0.000435065
0.000435066
0.00115525
0.0011552
0.00115519
0.00123081
0.00123076
0.00123075
0.00130743
0.00130739
0.00130737
0.00137953
0.00137949
0.00137947
0.00144485
0.00144482
0.0014448
0.0015041
0.00150407
0.00150405
0.0015587
0.00155868
0.00155866
0.00160972
0.00160971
0.00160969
0.00165749
0.0016575
0.00165748
0.0017014
0.00170142
0.0017014
0.00173991
0.00173993
0.0017399
0.00177112
0.00177114
0.00177111
0.00179339
0.00179342
0.00179339
0.00180555
0.00180557
0.00180555
0.00180555
0.00180558
0.00180555
0.00179341
0.00179343
0.00179341
0.00177116
0.00177118
0.00177116
0.00173996
0.00173999
0.00173996
0.00170147
0.00170149
0.00170147
0.00165758
0.00165759
0.00165757
0.00160983
0.00160982
0.0016098
0.00155883
0.0015588
0.00155879
0.00150423
0.0015042
0.00150418
0.00144498
0.00144494
0.00144493
0.00137966
0.00137962
0.0013796
0.00130756
0.00130753
0.00130751
0.00123095
0.00123091
0.0012309
0.00115539
0.00115534
0.00115533
0.000435114
0.000435104
0.000435104
0.000475218
0.000475206
0.000475207
0.00117244
0.00117239
0.00117238
0.0012386
0.00123856
0.00123855
0.00130621
0.00130617
0.00130615
0.00137268
0.00137264
0.00137262
0.00143484
0.0014348
0.00143479
0.0014924
0.00149237
0.00149235
0.00154614
0.00154611
0.00154609
0.00159672
0.00159672
0.00159669
0.00164427
0.00164428
0.00164425
0.00168804
0.00168806
0.00168804
0.00172645
0.00172648
0.00172645
0.00175759
0.00175762
0.00175759
0.0017798
0.00177983
0.00177981
0.00179193
0.00179196
0.00179194
0.00179194
0.00179196
0.00179194
0.00177982
0.00177985
0.00177983
0.00175763
0.00175766
0.00175763
0.00172652
0.00172654
0.00172651
0.00168812
0.00168814
0.00168812
0.00164437
0.00164438
0.00164435
0.00159684
0.00159684
0.00159681
0.00154627
0.00154625
0.00154623
0.00149253
0.0014925
0.00149248
0.00143497
0.00143493
0.00143492
0.00137281
0.00137278
0.00137276
0.00130635
0.00130632
0.0013063
0.00123876
0.00123871
0.0012387
0.00117259
0.00117254
0.00117253
0.000475261
0.000475249
0.00047525
0.000515891
0.000515878
0.000515878
0.00118695
0.0011869
0.00118689
0.00124642
0.00124637
0.00124636
0.00130475
0.00130471
0.00130469
0.0013647
0.00136467
0.00136465
0.00142296
0.00142292
0.00142291
0.00147835
0.00147832
0.0014783
0.00153095
0.00153092
0.0015309
0.00158094
0.00158093
0.00158091
0.00162816
0.00162817
0.00162815
0.00167174
0.00167176
0.00167174
0.00171001
0.00171004
0.00171001
0.00174104
0.00174107
0.00174104
0.00176317
0.0017632
0.00176318
0.00177526
0.00177529
0.00177526
0.00177526
0.00177529
0.00177527
0.00176319
0.00176322
0.0017632
0.00174108
0.00174111
0.00174108
0.00171008
0.0017101
0.00171008
0.00167182
0.00167184
0.00167182
0.00162827
0.00162827
0.00162825
0.00158107
0.00158106
0.00158103
0.00153109
0.00153106
0.00153104
0.00147849
0.00147846
0.00147845
0.0014231
0.00142306
0.00142305
0.00136485
0.00136481
0.00136479
0.0013049
0.00130486
0.00130485
0.00124658
0.00124653
0.00124652
0.00118711
0.00118706
0.00118704
0.000515938
0.000515926
0.000515925
0.000556621
0.000556608
0.000556608
0.00119823
0.00119818
0.00119817
0.00125408
0.00125403
0.00125402
0.00130327
0.00130323
0.00130321
0.00135592
0.00135588
0.00135586
0.00140948
0.00140944
0.00140943
0.00146215
0.00146212
0.0014621
0.00151326
0.00151323
0.00151321
0.00156247
0.00156246
0.00156243
0.00160926
0.00160927
0.00160924
0.00165258
0.0016526
0.00165258
0.00169067
0.00169069
0.00169066
0.00172155
0.00172158
0.00172155
0.00174358
0.00174361
0.00174358
0.00175561
0.00175564
0.00175561
0.00175561
0.00175564
0.00175562
0.0017436
0.00174363
0.00174361
0.0017216
0.00172163
0.0017216
0.00169074
0.00169076
0.00169073
0.00165267
0.00165269
0.00165266
0.00160937
0.00160938
0.00160935
0.0015626
0.00156259
0.00156256
0.00151341
0.00151338
0.00151336
0.0014623
0.00146227
0.00146225
0.00140963
0.00140959
0.00140957
0.00135607
0.00135603
0.00135602
0.00130343
0.00130339
0.00130338
0.00125425
0.0012542
0.00125419
0.00119839
0.00119834
0.00119832
0.000556674
0.00055666
0.000556659
0.000596844
0.000596829
0.000596829
0.00120574
0.00120569
0.00120568
0.00126121
0.00126116
0.00126115
0.00130185
0.00130181
0.00130179
0.00134655
0.00134651
0.00134649
0.00139459
0.00139455
0.00139453
0.0014439
0.00144386
0.00144384
0.00149312
0.00149309
0.00149307
0.00154131
0.0015413
0.00154127
0.00158755
0.00158756
0.00158753
0.00163053
0.00163055
0.00163053
0.00166839
0.00166841
0.00166839
0.0016991
0.00169912
0.0016991
0.001721
0.00172103
0.001721
0.00173295
0.00173298
0.00173296
0.00173296
0.00173299
0.00173297
0.00172102
0.00172105
0.00172103
0.00169915
0.00169918
0.00169915
0.00166846
0.00166849
0.00166846
0.00163063
0.00163065
0.00163062
0.00158767
0.00158767
0.00158765
0.00154145
0.00154144
0.00154141
0.00149328
0.00149325
0.00149323
0.00144406
0.00144402
0.001444
0.00139474
0.0013947
0.00139469
0.00134671
0.00134667
0.00134666
0.00130202
0.00130198
0.00130196
0.00126138
0.00126133
0.00126132
0.0012059
0.00120585
0.00120584
0.0005969
0.000596886
0.000596885
0.000635931
0.000635916
0.000635915
0.00120901
0.00120896
0.00120895
0.00126725
0.0012672
0.00126719
0.0013004
0.00130035
0.00130034
0.00133673
0.00133669
0.00133667
0.00137842
0.00137838
0.00137836
0.00142365
0.00142362
0.0014236
0.00147051
0.00147048
0.00147046
0.00151741
0.0015174
0.00151737
0.00156293
0.00156294
0.00156292
0.0016055
0.00160552
0.0016055
0.00164307
0.0016431
0.00164307
0.00167357
0.00167359
0.00167357
0.00169531
0.00169534
0.00169532
0.00170718
0.00170721
0.00170719
0.00170719
0.00170722
0.0017072
0.00169534
0.00169537
0.00169534
0.00167362
0.00167365
0.00167362
0.00164315
0.00164318
0.00164315
0.0016056
0.00160562
0.0016056
0.00156306
0.00156307
0.00156304
0.00151756
0.00151754
0.00151752
0.00147068
0.00147065
0.00147063
0.00142382
0.00142379
0.00142377
0.00137859
0.00137855
0.00137853
0.0013369
0.00133686
0.00133685
0.00130057
0.00130053
0.00130052
0.00126744
0.00126739
0.00126738
0.00120918
0.00120913
0.00120912
0.000635991
0.000635977
0.000635975
0.000673242
0.000673227
0.000673225
0.0012077
0.00120765
0.00120764
0.00127153
0.00127148
0.00127147
0.00129866
0.00129861
0.0012986
0.00132651
0.00132647
0.00132645
0.00136108
0.00136104
0.00136103
0.00140146
0.00140142
0.0014014
0.00144539
0.00144536
0.00144534
0.00149065
0.00149064
0.00149061
0.00153528
0.00153529
0.00153526
0.00157733
0.00157734
0.00157732
0.00161455
0.00161457
0.00161455
0.00164479
0.00164481
0.00164479
0.00166635
0.00166638
0.00166635
0.00167811
0.00167814
0.00167812
0.00167812
0.00167815
0.00167813
0.00166637
0.0016664
0.00166638
0.00164484
0.00164487
0.00164484
0.00161463
0.00161466
0.00161463
0.00157743
0.00157745
0.00157743
0.00153541
0.00153542
0.00153539
0.00149081
0.00149079
0.00149077
0.00144557
0.00144554
0.00144552
0.00140164
0.0014016
0.00140158
0.00136126
0.00136122
0.0013612
0.00132669
0.00132665
0.00132663
0.00129884
0.0012988
0.00129879
0.00127172
0.00127167
0.00127166
0.00120787
0.00120782
0.00120781
0.000673306
0.000673291
0.000673288
0.000708186
0.000708171
0.000708169
0.0012016
0.00120156
0.00120154
0.00127325
0.0012732
0.00127319
0.0012962
0.00129616
0.00129615
0.00131581
0.00131577
0.00131575
0.00134263
0.00134259
0.00134258
0.00137733
0.00137729
0.00137728
0.00141768
0.00141765
0.00141763
0.00146089
0.00146088
0.00146085
0.0015044
0.0015044
0.00150438
0.00154579
0.00154581
0.00154579
0.0015826
0.00158262
0.0015826
0.00161253
0.00161255
0.00161253
0.00163387
0.0016339
0.00163387
0.00164551
0.00164554
0.00164552
0.00164552
0.00164555
0.00164553
0.0016339
0.00163392
0.0016339
0.00161259
0.00161261
0.00161259
0.00158269
0.00158271
0.00158268
0.0015459
0.00154592
0.0015459
0.00150453
0.00150454
0.00150451
0.00146106
0.00146105
0.00146102
0.00141787
0.00141784
0.00141782
0.00137752
0.00137749
0.00137747
0.00134282
0.00134278
0.00134277
0.001316
0.00131596
0.00131595
0.0012964
0.00129636
0.00129634
0.00127345
0.0012734
0.00127339
0.00120178
0.00120173
0.00120172
0.000708253
0.000708238
0.000708235
0.00074029
0.000740275
0.000740273
0.0011907
0.00119066
0.00119064
0.00127156
0.00127151
0.0012715
0.00129244
0.0012924
0.00129239
0.00130444
0.0013044
0.00130439
0.00132307
0.00132303
0.00132301
0.00135127
0.00135123
0.00135122
0.00138731
0.00138729
0.00138726
0.00142798
0.00142797
0.00142794
0.00147007
0.00147007
0.00147005
0.00151066
0.00151067
0.00151065
0.00154695
0.00154697
0.00154695
0.00157651
0.00157654
0.00157651
0.00159759
0.00159762
0.0015976
0.00160909
0.00160912
0.0016091
0.0016091
0.00160913
0.00160911
0.00159762
0.00159765
0.00159763
0.00157657
0.0015766
0.00157658
0.00154704
0.00154706
0.00154704
0.00151077
0.00151079
0.00151077
0.00147021
0.00147022
0.00147019
0.00142816
0.00142814
0.00142812
0.00138752
0.00138749
0.00138747
0.00135148
0.00135144
0.00135142
0.00132327
0.00132323
0.00132321
0.00130465
0.0013046
0.00130459
0.00129265
0.0012926
0.00129259
0.00127176
0.00127172
0.00127171
0.00119087
0.00119083
0.00119082
0.000740359
0.000740345
0.000740341
0.000769259
0.000769245
0.000769242
0.00117515
0.00117511
0.0011751
0.00126562
0.00126558
0.00126557
0.0012866
0.00128656
0.00128655
0.00129205
0.00129201
0.00129199
0.00130231
0.00130227
0.00130225
0.00132326
0.00132322
0.0013232
0.0013542
0.00135417
0.00135415
0.00139173
0.00139172
0.0013917
0.00143205
0.00143205
0.00143203
0.00147163
0.00147165
0.00147163
0.0015073
0.00150732
0.0015073
0.00153642
0.00153645
0.00153642
0.00155719
0.00155722
0.0015572
0.00156853
0.00156855
0.00156854
0.00156853
0.00156856
0.00156854
0.00155722
0.00155725
0.00155723
0.00153649
0.00153651
0.00153649
0.0015074
0.00150742
0.0015074
0.00147175
0.00147177
0.00147175
0.0014322
0.0014322
0.00143218
0.00139192
0.0013919
0.00139188
0.00135441
0.00135438
0.00135436
0.00132347
0.00132344
0.00132342
0.00130252
0.00130248
0.00130246
0.00129226
0.00129222
0.00129221
0.00128682
0.00128677
0.00128676
0.00126583
0.00126578
0.00126577
0.00117533
0.00117529
0.00117527
0.00076933
0.000769317
0.000769313
0.000795019
0.000795006
0.000795002
0.00115533
0.00115529
0.00115527
0.00125466
0.00125461
0.0012546
0.00127778
0.00127774
0.00127773
0.00127808
0.00127804
0.00127803
0.00128016
0.00128012
0.0012801
0.00129323
0.0012932
0.00129318
0.00131824
0.00131821
0.00131819
0.00135197
0.00135196
0.00135193
0.00139008
0.00139008
0.00139006
0.00142841
0.00142842
0.0014284
0.00146331
0.00146333
0.00146331
0.0014919
0.00149192
0.0014919
0.0015123
0.00151233
0.00151231
0.00152344
0.00152346
0.00152345
0.00152344
0.00152347
0.00152346
0.00151234
0.00151236
0.00151234
0.00149197
0.00149199
0.00149197
0.00146341
0.00146343
0.00146341
0.00142853
0.00142855
0.00142853
0.00139024
0.00139024
0.00139022
0.00135217
0.00135215
0.00135213
0.00131846
0.00131843
0.00131841
0.00129346
0.00129343
0.00129341
0.00128038
0.00128034
0.00128033
0.00127831
0.00127826
0.00127825
0.001278
0.00127796
0.00127795
0.00125487
0.00125483
0.00125482
0.0011555
0.00115546
0.00115545
0.000795091
0.000795078
0.000795074
0.00081772
0.000817708
0.000817704
0.00113176
0.00113172
0.00113171
0.00123803
0.00123799
0.00123798
0.00126498
0.00126493
0.00126492
0.00126183
0.00126178
0.00126177
0.00125628
0.00125624
0.00125623
0.00126108
0.00126105
0.00126103
0.00127934
0.00127931
0.00127929
0.00130851
0.0013085
0.00130848
0.00134388
0.00134388
0.00134386
0.00138064
0.00138066
0.00138064
0.00141459
0.00141461
0.00141459
0.00144254
0.00144257
0.00144255
0.00146251
0.00146253
0.00146252
0.00147341
0.00147343
0.00147342
0.00147342
0.00147344
0.00147343
0.00146255
0.00146257
0.00146256
0.00144262
0.00144264
0.00144262
0.0014147
0.00141472
0.0014147
0.00138077
0.00138079
0.00138077
0.00134405
0.00134405
0.00134403
0.00130872
0.0013087
0.00130868
0.00127958
0.00127955
0.00127953
0.00126133
0.00126129
0.00126127
0.00125652
0.00125648
0.00125646
0.00126206
0.00126202
0.00126201
0.00126521
0.00126516
0.00126515
0.00123825
0.00123821
0.0012382
0.00113194
0.0011319
0.00113188
0.000817792
0.00081778
0.000817776
0.000837713
0.000837703
0.000837699
0.00110515
0.00110512
0.00110511
0.00121532
0.00121527
0.00121526
0.00124716
0.00124711
0.0012471
0.00124238
0.00124234
0.00124233
0.00123018
0.00123014
0.00123013
0.00122662
0.00122658
0.00122657
0.00123741
0.00123738
0.00123737
0.0012612
0.00126118
0.00126116
0.0012932
0.0012932
0.00129318
0.00132799
0.001328
0.00132799
0.00136076
0.00136078
0.00136076
0.00138793
0.00138795
0.00138794
0.00140738
0.0014074
0.00140739
0.001418
0.00141802
0.00141801
0.00141801
0.00141803
0.00141802
0.00140741
0.00140744
0.00140742
0.00138801
0.00138803
0.00138801
0.00136087
0.00136089
0.00136087
0.00132813
0.00132814
0.00132813
0.00129338
0.00129337
0.00129336
0.00126141
0.0012614
0.00126138
0.00123766
0.00123763
0.00123761
0.00122687
0.00122684
0.00122682
0.00123043
0.00123039
0.00123038
0.00124263
0.00124258
0.00124257
0.0012474
0.00124735
0.00124734
0.00121554
0.0012155
0.00121549
0.00110533
0.0011053
0.00110528
0.000837785
0.000837775
0.00083777
0.000855485
0.000855476
0.000855471
0.00107635
0.00107631
0.0010763
0.00118634
0.0011863
0.00118628
0.00122334
0.0012233
0.00122329
0.0012187
0.00121866
0.00121865
0.00120118
0.00120114
0.00120113
0.00118954
0.0011895
0.00118949
0.00119234
0.00119231
0.00119229
0.0012099
0.00120989
0.00120987
0.0012378
0.0012378
0.00123778
0.00127012
0.00127013
0.00127012
0.00130141
0.00130142
0.00130141
0.00132762
0.00132764
0.00132762
0.00134644
0.00134646
0.00134645
0.00135672
0.00135675
0.00135674
0.00135673
0.00135676
0.00135675
0.00134648
0.0013465
0.00134649
0.0013277
0.00132772
0.0013277
0.00130152
0.00130154
0.00130152
0.00127026
0.00127028
0.00127026
0.00123798
0.00123798
0.00123796
0.00121012
0.00121011
0.00121009
0.00119259
0.00119257
0.00119255
0.00118981
0.00118977
0.00118976
0.00120145
0.00120141
0.00120139
0.00121896
0.00121892
0.00121891
0.00122359
0.00122355
0.00122354
0.00118656
0.00118652
0.00118651
0.00107652
0.00107649
0.00107647
0.000855556
0.000855547
0.000855542
0.000871574
0.000871566
0.000871562
0.00104624
0.00104621
0.0010462
0.00115122
0.00115118
0.00115117
0.00119269
0.00119265
0.00119264
0.00118967
0.00118963
0.00118962
0.00116843
0.00116839
0.00116838
0.00114944
0.00114941
0.00114939
0.00114399
0.00114396
0.00114395
0.00115454
0.00115453
0.00115451
0.0011775
0.0011775
0.00117749
0.00120674
0.00120674
0.00120673
0.00123615
0.00123616
0.00123615
0.00126117
0.00126119
0.00126118
0.00127924
0.00127926
0.00127925
0.00128913
0.00128915
0.00128914
0.00128914
0.00128916
0.00128915
0.00127928
0.0012793
0.00127929
0.00126125
0.00126127
0.00126126
0.00123627
0.00123628
0.00123627
0.00120688
0.00120689
0.00120688
0.00117769
0.00117769
0.00117767
0.00115477
0.00115476
0.00115474
0.00114426
0.00114423
0.00114422
0.00114972
0.00114969
0.00114968
0.00116871
0.00116867
0.00116866
0.00118994
0.0011899
0.00118989
0.00119294
0.0011929
0.00119289
0.00115145
0.00115141
0.0011514
0.00104642
0.00104639
0.00104637
0.000871644
0.000871636
0.000871631
0.000886487
0.00088648
0.000886475
0.00101579
0.00101577
0.00101575
0.0011104
0.00111036
0.00111035
0.00115461
0.00115457
0.00115456
0.00115419
0.00115415
0.00115414
0.00113097
0.00113093
0.00113092
0.00110581
0.00110577
0.00110576
0.00109226
0.00109224
0.00109222
0.00109515
0.00109514
0.00109512
0.00111227
0.00111226
0.00111225
0.00113764
0.00113765
0.00113764
0.00116468
0.00116469
0.00116468
0.00118822
0.00118824
0.00118823
0.00120536
0.00120538
0.00120537
0.00121478
0.00121479
0.00121479
0.00121479
0.00121481
0.0012148
0.0012054
0.00120542
0.00120541
0.0011883
0.00118832
0.00118831
0.0011648
0.00116481
0.0011648
0.0011378
0.0011378
0.00113779
0.00111246
0.00111246
0.00111244
0.00109539
0.00109538
0.00109536
0.00109254
0.00109252
0.0010925
0.0011061
0.00110607
0.00110606
0.00113126
0.00113122
0.00113121
0.00115447
0.00115443
0.00115442
0.00115487
0.00115483
0.00115482
0.00111063
0.00111059
0.00111058
0.00101596
0.00101594
0.00101592
0.000886554
0.000886548
0.000886543
0.00090062
0.000900614
0.000900609
0.000985932
0.000985906
0.000985895
0.0010646
0.00106457
0.00106456
0.00110886
0.00110883
0.00110881
0.00111131
0.00111128
0.00111127
0.00108781
0.00108778
0.00108776
0.00105807
0.00105804
0.00105803
0.00103708
0.00103706
0.00103704
0.00103193
0.00103191
0.0010319
0.00104226
0.00104226
0.00104225
0.00106286
0.00106287
0.00106286
0.00108687
0.00108688
0.00108687
0.00110853
0.00110855
0.00110854
0.00112454
0.00112456
0.00112455
0.00113339
0.0011334
0.0011334
0.0011334
0.00113342
0.00113341
0.00112458
0.0011246
0.0011246
0.00110862
0.00110863
0.00110862
0.00108699
0.001087
0.00108699
0.00106302
0.00106302
0.00106301
0.00104246
0.00104246
0.00104244
0.00103217
0.00103216
0.00103215
0.00103737
0.00103735
0.00103734
0.00105838
0.00105835
0.00105834
0.00108811
0.00108808
0.00108807
0.0011116
0.00111156
0.00111155
0.00110913
0.00110909
0.00110908
0.00106484
0.0010648
0.00106479
0.000986099
0.000986073
0.00098606
0.000900685
0.00090068
0.000900675
0.000914212
0.000914207
0.000914202
0.000957565
0.000957541
0.00095753
0.00101486
0.00101483
0.00101482
0.00105565
0.00105561
0.0010556
0.00106046
0.00106042
0.00106041
0.00103815
0.00103812
0.00103811
0.00100578
0.00100575
0.00100574
0.00097854
0.00097852
0.000978509
0.000965348
0.000965337
0.000965327
0.000968038
0.000968036
0.000968027
0.000982786
0.000982791
0.000982783
0.00100292
0.00100293
0.00100292
0.00102221
0.00102222
0.00102221
0.00103681
0.00103683
0.00103682
0.00104498
0.00104499
0.00104499
0.00104499
0.001045
0.001045
0.00103686
0.00103687
0.00103687
0.00102229
0.0010223
0.0010223
0.00100305
0.00100305
0.00100305
0.000982944
0.000982948
0.000982941
0.000968239
0.000968236
0.000968227
0.000965605
0.000965594
0.000965584
0.000978845
0.000978825
0.000978814
0.0010061
0.00100607
0.00100606
0.00103847
0.00103843
0.00103842
0.00106076
0.00106072
0.00106071
0.00105592
0.00105589
0.00105588
0.0010151
0.00101507
0.00101506
0.000957727
0.000957703
0.000957691
0.000914276
0.000914271
0.000914266
0.000927319
0.000927315
0.000927311
0.000931571
0.000931548
0.000931537
0.000962513
0.000962485
0.000962472
0.000995746
0.000995715
0.000995703
0.00100164
0.00100161
0.0010016
0.000981659
0.000981631
0.00098162
0.000948804
0.000948781
0.00094877
0.000917092
0.000917076
0.000917066
0.000896402
0.000896394
0.000896386
0.000890776
0.000890775
0.000890768
0.000898481
0.000898485
0.000898479
0.00091371
0.000913715
0.00091371
0.000929954
0.000929962
0.000929958
0.000942825
0.000942835
0.000942833
0.000950166
0.000950177
0.000950176
0.000950179
0.000950189
0.000950189
0.00094287
0.00094288
0.000942878
0.00093004
0.000930048
0.000930044
0.000913834
0.000913839
0.000913834
0.000898639
0.000898643
0.000898638
0.000890979
0.000890978
0.000890972
0.000896668
0.00089666
0.000896652
0.00091741
0.000917393
0.000917384
0.00094914
0.000949117
0.000949107
0.000981989
0.000981961
0.000981951
0.00100195
0.00100192
0.00100191
0.00099603
0.000995999
0.000995987
0.000962751
0.000962723
0.000962709
0.000931728
0.000931705
0.000931694
0.000927382
0.000927378
0.000927373
0.00093981
0.000939806
0.000939802
0.00090881
0.000908788
0.000908777
0.000909279
0.000909253
0.00090924
0.000930727
0.000930699
0.000930686
0.000935876
0.000935849
0.000935837
0.000918956
0.000918932
0.000918921
0.000887837
0.000887818
0.000887808
0.0008539
0.000853889
0.000853881
0.000826866
0.000826862
0.000826856
0.000812638
0.000812639
0.000812635
0.000812131
0.000812134
0.000812129
0.000821248
0.000821251
0.000821246
0.000833649
0.000833653
0.00083365
0.000844371
0.000844377
0.000844375
0.000850726
0.000850732
0.000850731
0.000850739
0.000850745
0.000850745
0.000844416
0.000844422
0.00084442
0.000833733
0.000833738
0.000833734
0.000821369
0.000821373
0.000821368
0.000812288
0.000812291
0.000812287
0.000812844
0.000812846
0.000812842
0.000827141
0.000827138
0.000827132
0.000854232
0.00085422
0.000854213
0.000888189
0.00088817
0.000888161
0.000919303
0.000919279
0.000919269
0.000936203
0.000936176
0.000936164
0.000931022
0.000930994
0.000930981
0.000909519
0.000909493
0.00090948
0.000908961
0.00090894
0.000908929
0.000939871
0.000939868
0.000939863
0.00095137
0.000951367
0.000951363
0.000890103
0.000890082
0.000890072
0.000857463
0.000857439
0.000857425
0.000863319
0.000863294
0.00086328
0.00086575
0.000865727
0.000865715
0.000852303
0.000852284
0.000852273
0.000824997
0.000824983
0.000824975
0.000791327
0.000791321
0.000791315
0.000759686
0.000759686
0.000759684
0.000737187
0.000737191
0.00073719
0.00072761
0.000727613
0.00072761
0.000729434
0.000729434
0.00072943
0.000737127
0.000737127
0.000737124
0.000745256
0.000745256
0.000745254
0.000750456
0.000750456
0.000750455
0.000750469
0.00075047
0.000750469
0.000745301
0.000745301
0.000745299
0.00073721
0.00073721
0.000737207
0.000729552
0.000729552
0.000729549
0.000727767
0.00072777
0.000727767
0.000737398
0.000737403
0.000737401
0.000759975
0.000759976
0.000759973
0.000791676
0.00079167
0.000791665
0.000825369
0.000825356
0.000825348
0.00085267
0.000852651
0.000852641
0.000866096
0.000866073
0.000866061
0.000863626
0.000863601
0.000863588
0.000857706
0.000857682
0.000857668
0.000890248
0.000890227
0.000890216
0.000951431
0.000951428
0.000951423
0.000961496
0.000961493
0.000961489
0.000876114
0.000876094
0.000876084
0.000810248
0.000810225
0.000810211
0.000798081
0.00079806
0.000798045
0.000796293
0.000796274
0.000796261
0.00078651
0.000786496
0.000786485
0.000764606
0.000764597
0.00076459
0.000733453
0.000733451
0.000733448
0.000699272
0.000699278
0.000699277
0.000669641
0.000669649