/*--------------------------------*- C++ -*----------------------------------*\
  =========                 |
  \\      /  F ield         | OpenFOAM: The Open Source CFD Toolbox
   \\    /   O peration     | Website:  https://openfoam.org
    \\  /    A nd           | Version:  6
     \\/     M anipulation  |
\*---------------------------------------------------------------------------*/
FoamFile
{
    version     2.0;
    format      ascii;
    class       volVectorField;
    location    "5";
    object      wallShearStress;
}
// * * * * * * * * * * * * * * * * * * * * * * * * * * * * * * * * * * * * * //

dimensions      [0 2 -2 0 0 0 0];

internalField   uniform (0 0 0);

boundaryField
{
    inlet
    {
        type            calculated;
        value           uniform (0 0 0);
    }
    outlet
    {
        type            calculated;
        value           uniform (0 0 0);
    }
    roughCylinder
    {
        type            calculated;
        value           nonuniform List<vector> 
3840
(
(-0.000282014 -0.000412936 -0.000169155)
(-0.000340564 -0.000528714 -2.13465e-05)
(-0.000392086 -0.000652997 4.47135e-05)
(-0.00047023 -0.000757878 0.000128814)
(-0.000561086 -0.00083197 0.000212709)
(-0.000654498 -0.000871257 0.000285385)
(-0.000740417 -0.000880175 0.000341837)
(-0.000814338 -0.000870773 0.000380805)
(-0.0008773 -0.000864187 0.000407479)
(-0.00092499 -0.000862694 0.000420955)
(-0.000963088 -0.000870526 0.000423558)
(-0.000994622 -0.000885801 0.000417536)
(-0.00102274 -0.000906861 0.000405435)
(-0.00105037 -0.000932197 0.000389326)
(-0.00107953 -0.000960886 0.000370605)
(-0.00111129 -0.000992406 0.000349877)
(-0.00114594 -0.00102643 0.000327164)
(-0.00118326 -0.00106263 0.000302104)
(-0.00122268 -0.00110044 0.000274057)
(-0.00126341 -0.0011391 0.000242085)
(-0.00130439 -0.00117743 0.000204749)
(-0.00134388 -0.00121359 0.000159887)
(-0.00137801 -0.00124451 0.000103948)
(-0.00139955 -0.00126411 3.61763e-05)
(-0.00030302 -0.000401119 -0.000162082)
(-0.000365166 -0.000513968 -2.53665e-05)
(-0.00041946 -0.000637977 3.61606e-05)
(-0.000500118 -0.000744202 0.000116897)
(-0.000593074 -0.000820945 0.000199004)
(-0.000688597 -0.00086312 0.000270749)
(-0.000777728 -0.000876122 0.000327242)
(-0.000856894 -0.000873127 0.000368478)
(-0.000924806 -0.000869414 0.00039776)
(-0.000975997 -0.000866185 0.000412499)
(-0.00101596 -0.000872769 0.000415669)
(-0.00104936 -0.000887418 0.000409914)
(-0.00107928 -0.00090828 0.000397999)
(-0.00110876 -0.000933645 0.000382086)
(-0.00113985 -0.000962435 0.000363627)
(-0.00117363 -0.000994063 0.000343257)
(-0.00121039 -0.00102816 0.000321008)
(-0.00124986 -0.00106436 0.000296509)
(-0.00129146 -0.00110213 0.000269107)
(-0.00133434 -0.00114066 0.000237843)
(-0.00137739 -0.00117882 0.000201266)
(-0.00141882 -0.00121478 0.000157239)
(-0.00145461 -0.00124551 0.000102268)
(-0.00147714 -0.00126494 3.55995e-05)
(-0.000324198 -0.000383697 -0.000149248)
(-0.000389271 -0.00049338 -2.99622e-05)
(-0.000446211 -0.000616077 2.67855e-05)
(-0.000528948 -0.000723013 0.000103787)
(-0.00062391 -0.000802271 0.000183849)
(-0.000721949 -0.000848123 0.000254826)
(-0.000815053 -0.000866424 0.000312105)
(-0.000899348 -0.000869498 0.000355631)
(-0.000971695 -0.000868312 0.000386759)
(-0.00102719 -0.000864491 0.00040294)
(-0.00106907 -0.000869576 0.000406703)
(-0.0011044 -0.00088338 0.00040122)
(-0.00113623 -0.000903849 0.000389565)
(-0.00116765 -0.000929029 0.000373913)
(-0.00120073 -0.000957721 0.000355793)
(-0.00123657 -0.000989233 0.000335863)
(-0.00127545 -0.00102317 0.000314158)
(-0.00131708 -0.00105913 0.000290301)
(-0.00136083 -0.00109658 0.000263622)
(-0.00140582 -0.00113472 0.000233143)
(-0.0014509 -0.00117243 0.000197402)
(-0.00149424 -0.00120795 0.000154297)
(-0.00153162 -0.00123826 0.000100402)
(-0.00155511 -0.00125739 3.49591e-05)
(-0.000343482 -0.00036192 -0.000132612)
(-0.000410727 -0.000467861 -3.47572e-05)
(-0.000469751 -0.000588229 1.69675e-05)
(-0.000553945 -0.000695274 8.98955e-05)
(-0.00065085 -0.000777024 0.000167607)
(-0.000751812 -0.000827253 0.000237823)
(-0.000849239 -0.000851536 0.000296153)
(-0.000938505 -0.000860282 0.000341848)
(-0.00101538 -0.00086172 0.000374613)
(-0.00107596 -0.000858772 0.000392595)
(-0.00112009 -0.000861729 0.000396912)
(-0.00115746 -0.000874551 0.000391773)
(-0.0011913 -0.000894439 0.000380447)
(-0.00122472 -0.000919287 0.000365146)
(-0.00125982 -0.000947712 0.000347438)
(-0.00129774 -0.000978951 0.000328017)
(-0.0013387 -0.00101254 0.000306925)
(-0.00138241 -0.00104806 0.000283772)
(-0.00142822 -0.00108497 0.000257873)
(-0.00147518 -0.0011225 0.000228226)
(-0.00152214 -0.00115955 0.000193363)
(-0.00156725 -0.0011944 0.000151218)
(-0.00160611 -0.00122413 9.84505e-05)
(-0.00163047 -0.00124283 3.42914e-05)
(-0.000359883 -0.000336255 -0.000113845)
(-0.000428612 -0.000437781 -3.94111e-05)
(-0.000489073 -0.000554939 7.03304e-06)
(-0.000574188 -0.000661559 7.55276e-05)
(-0.000673011 -0.00074576 0.000150525)
(-0.000777191 -0.000800732 0.000219849)
(-0.000879053 -0.000831064 0.000279164)
(-0.000973178 -0.000845044 0.000326835)
(-0.00105478 -0.000849256 0.000361296)
(-0.00112018 -0.000847734 0.000380965)
(-0.00116794 -0.000848693 0.000386147)
(-0.00120752 -0.000860286 0.000381576)
(-0.00124352 -0.000879385 0.000370686)
(-0.00127899 -0.000903695 0.000355824)
(-0.00131614 -0.000931675 0.000338623)
(-0.00135606 -0.000962433 0.00031979)
(-0.00139903 -0.00099546 0.000299382)
(-0.00144472 -0.00103032 0.000276996)
(-0.00149241 -0.00106647 0.00025193)
(-0.00154118 -0.00110315 0.00022316)
(-0.00158985 -0.0011393 0.000189204)
(-0.00163656 -0.00117329 0.00014805)
(-0.00167677 -0.00120223 9.64458e-05)
(-0.00170188 -0.00122039 3.36067e-05)
(-0.000373123 -0.000307857 -9.42362e-05)
(-0.00044261 -0.000404341 -4.37524e-05)
(-0.000503719 -0.000517444 -2.80272e-06)
(-0.000589134 -0.000623046 6.08738e-05)
(-0.000689743 -0.000709529 0.000132742)
(-0.000797294 -0.000769317 0.000200936)
(-0.000903684 -0.000805469 0.000261029)
(-0.00100266 -0.000824184 0.000310449)
(-0.00108906 -0.000831042 0.000346616)
(-0.00115925 -0.000830965 0.000367787)
(-0.00121216 -0.00083106 0.000374387)
(-0.00125423 -0.00084088 0.000370582)
(-0.00129252 -0.000858839 0.000360248)
(-0.00133014 -0.000882399 0.000345959)
(-0.00136932 -0.000909712 0.00032936)
(-0.00141123 -0.000939791 0.000311209)
(-0.00145612 -0.000972046 0.000291563)
(-0.00150363 -0.00100602 0.000270009)
(-0.00155304 -0.00104118 0.000245829)
(-0.00160341 -0.00107676 0.000217972)
(-0.00165355 -0.00111179 0.000184948)
(-0.00170167 -0.00114467 0.000144805)
(-0.00174303 -0.00117265 9.4396e-05)
(-0.00176878 -0.00119017 3.29089e-05)
(-0.000382505 -0.000277485 -7.45906e-05)
(-0.000451874 -0.000368241 -4.76311e-05)
(-0.000512775 -0.0004765 -1.23656e-05)
(-0.000597808 -0.000580462 4.60548e-05)
(-0.000699901 -0.00066892 0.000114286)
(-0.000810795 -0.000733356 0.000180981)
(-0.000921751 -0.000774962 0.000241523)
(-0.00102578 -0.000798088 0.000292466)
(-0.0011174 -0.000807682 0.000330398)
(-0.0011927 -0.000809071 0.000353113)
(-0.0012513 -0.000809367 0.000361413)
(-0.00129689 -0.000816785 0.000358634)
(-0.0013377 -0.000833479 0.000349106)
(-0.00137756 -0.000855946 0.000335517)
(-0.00141883 -0.000882366 0.000319649)
(-0.00146267 -0.000911541 0.000302279)
(-0.00150935 -0.000942829 0.000283479)
(-0.00155853 -0.00097573 0.000262829)
(-0.00160945 -0.0010097 0.000239588)
(-0.00166118 -0.00104402 0.000212685)
(-0.00171255 -0.00107773 0.000180613)
(-0.00176189 -0.00110935 0.000141499)
(-0.00180423 -0.00113622 9.23121e-05)
(-0.00183045 -0.00115299 3.22016e-05)
(-0.000387368 -0.000245739 -5.55575e-05)
(-0.000455924 -0.000330344 -5.09324e-05)
(-0.000515698 -0.000433001 -2.14866e-05)
(-0.00059951 -0.000534615 3.12454e-05)
(-0.00070261 -0.000624552 9.52801e-05)
(-0.000816696 -0.000693308 0.000159979)
(-0.000932299 -0.000740021 0.000220559)
(-0.00104156 -0.000767263 0.00027274)
(-0.00113845 -0.00077937 0.000312341)
(-0.00121927 -0.000782312 0.000336814)
(-0.00128359 -0.000783305 0.000346869)
(-0.0013346 -0.000789385 0.000345707)
(-0.00137815 -0.000803615 0.000337148)
(-0.00142043 -0.000824833 0.000324475)
(-0.00146383 -0.000850125 0.000309473)
(-0.00150957 -0.000878214 0.000293009)
(-0.00155792 -0.000908332 0.000275151)
(-0.00160856 -0.000939957 0.000255477)
(-0.00166073 -0.000972543 0.000233231)
(-0.0017135 -0.00100539 0.000207313)
(-0.0017658 -0.00103759 0.000176206)
(-0.00181605 -0.00106777 0.000138131)
(-0.00185914 -0.00109343 9.01956e-05)
(-0.00188568 -0.00110945 3.14871e-05)
(-0.000387471 -0.000213381 -3.76535e-05)
(-0.00045408 -0.000291233 -5.35824e-05)
(-0.000511651 -0.000387524 -2.9976e-05)
(-0.000593191 -0.000485886 1.66513e-05)
(-0.000696546 -0.000576553 7.58209e-05)
(-0.000813484 -0.000649125 0.00013786)
(-0.000933657 -0.000700541 0.000197911)
(-0.0010484 -0.000731731 0.000250993)
(-0.00115137 -0.000746666 0.000292313)
(-0.00123818 -0.00075124 0.000318756)
(-0.00130825 -0.00075288 0.000330711)
(-0.00136474 -0.000758395 0.000331332)
(-0.00141302 -0.000770846 0.000324363)
(-0.00145783 -0.000789952 0.000312802)
(-0.00150343 -0.0008137 0.000298835)
(-0.00155099 -0.000840455 0.000283413)
(-0.00160084 -0.000869288 0.000266609)
(-0.0016527 -0.000899603 0.000248)
(-0.0017058 -0.000930812 0.000226812)
(-0.00175931 -0.00096224 0.000201921)
(-0.00181219 -0.000992973 0.000171787)
(-0.0018631 -0.00102171 0.000134753)
(-0.00190658 -0.00104603 8.80746e-05)
(-0.0019331 -0.00106117 3.07714e-05)
(-0.000381635 -0.000180657 -2.1226e-05)
(-0.000445874 -0.000251561 -5.54601e-05)
(-0.000500312 -0.000340943 -3.76423e-05)
(-0.000578524 -0.000435207 2.52797e-06)
(-0.000681236 -0.000525757 5.6162e-05)
(-0.000800515 -0.00060151 0.000114778)
(-0.000925276 -0.000657328 0.000173666)
(-0.00104585 -0.000692391 0.000227258)
(-0.00115476 -0.000709802 0.000270041)
(-0.00124794 -0.000716006 0.000298582)
(-0.00132441 -0.000718479 0.000312805)
(-0.00138656 -0.000723616 0.000315456)
(-0.00143949 -0.000734782 0.000310266)
(-0.00148803 -0.000752026 0.000300248)
(-0.00153621 -0.000774097 0.000287635)
(-0.00158558 -0.00079931 0.000273446)
(-0.00163662 -0.000826623 0.000257799)
(-0.00168916 -0.000855364 0.000240307)
(-0.00174253 -0.000884935 0.000220198)
(-0.00179597 -0.00091466 0.000196329)
(-0.00184868 -0.000943674 0.000167158)
(-0.00189964 -0.000970739 0.000131178)
(-0.00194322 -0.000993568 8.58278e-05)
(-0.00196948 -0.00100772 3.00139e-05)
(-0.000370259 -0.000148787 -6.78951e-06)
(-0.000431241 -0.000212059 -5.67994e-05)
(-0.000480996 -0.000294103 -4.4228e-05)
(-0.000554372 -0.000382918 -1.07477e-05)
(-0.000655098 -0.000472121 3.65738e-05)
(-0.000776104 -0.000550357 9.08101e-05)
(-0.000905234 -0.000610214 0.000147675)
(-0.00103165 -0.000649001 0.000201204)
(-0.00114777 -0.000669469 0.000245437)
(-0.00124807 -0.000677456 0.000276218)
(-0.00133106 -0.000680524 0.000292904)
(-0.00139919 -0.000685301 0.000297924)
(-0.00145703 -0.000695258 0.000294798)
(-0.00150929 -0.000710807 0.000286581)
(-0.00156013 -0.00073115 0.000275569)
(-0.00161118 -0.0007546 0.000262796)
(-0.00166317 -0.000780122 0.000248449)
(-0.00171611 -0.00080702 0.00023218)
(-0.00176933 -0.000834678 0.000213221)
(-0.00182232 -0.000862458 0.000190432)
(-0.00187445 -0.000889537 0.000162256)
(-0.00192521 -0.000914791 0.000127381)
(-0.00196852 -0.000936019 8.34397e-05)
(-0.00199433 -0.000949105 2.92101e-05)
(-0.000349257 -0.00011693 5.43782e-06)
(-0.000410629 -0.000173765 -5.71068e-05)
(-0.000453908 -0.000247771 -4.96483e-05)
(-0.000521171 -0.000330309 -2.28721e-05)
(-0.000618506 -0.00041699 1.7523e-05)
(-0.000740025 -0.000496635 6.63412e-05)
(-0.000873185 -0.000560164 0.000120211)
(-0.00100617 -0.000603018 0.000173116)
(-0.00112906 -0.000626115 0.000218336)
(-0.00123669 -0.000635724 0.000251313)
(-0.00132721 -0.000639559 0.000270812)
(-0.00140183 -0.000643933 0.000278566)
(-0.00146486 -0.000652602 0.000277848)
(-0.00152111 -0.000666425 0.000271749)
(-0.00157457 -0.00068485 0.000262568)
(-0.00162727 -0.00070637 0.000251426)
(-0.00168006 -0.000729929 0.000238547)
(-0.00173306 -0.000754803 0.000223625)
(-0.00178575 -0.000780386 0.000205907)
(-0.00183777 -0.000806036 0.000184251)
(-0.00188878 -0.000831016 0.000157093)
(-0.0019388 -0.000854279 0.000123354)
(-0.00198153 -0.000873825 8.09127e-05)
(-0.00200658 -0.000885758 2.83602e-05)
(-0.000322097 -8.66384e-05 1.55864e-05)
(-0.000383622 -0.000138306 -5.68766e-05)
(-0.00041905 -0.000203046 -5.34145e-05)
(-0.000477772 -0.000277731 -3.31537e-05)
(-0.000569571 -0.000360081 -3.99067e-07)
(-0.000690713 -0.000440261 4.17971e-05)
(-0.000827627 -0.000507214 9.14547e-05)
(-0.000966273 -0.000553674 0.000142707)
(-0.00109748 -0.000580308 0.000188694)
(-0.00121371 -0.000592 0.000223954)
(-0.00131183 -0.000596251 0.000246372)
(-0.00139339 -0.00060004 0.000257201)
(-0.00146217 -0.000607345 0.000259315)
(-0.00152259 -0.000619279 0.000255674)
(-0.00157888 -0.000635655 0.000248635)
(-0.00163308 -0.000655032 0.000239347)
(-0.00168635 -0.000676439 0.000228106)
(-0.00173902 -0.000699129 0.000214658)
(-0.00179063 -0.000722486 0.000198265)
(-0.00184118 -0.000745924 0.000177801)
(-0.00189058 -0.000768734 0.000151685)
(-0.00193963 -0.000789997 0.000119129)
(-0.00198134 -0.000807782 7.82619e-05)
(-0.00200545 -0.000818566 2.74716e-05)
(-0.000285697 -5.96833e-05 2.37252e-05)
(-0.000348324 -0.000103885 -5.36628e-05)
(-0.000377097 -0.000160021 -5.59176e-05)
(-0.000426183 -0.00022677 -4.15906e-05)
(-0.00051044 -0.0003034 -1.65231e-05)
(-0.000628403 -0.000382155 1.79083e-05)
(-0.000767514 -0.000451646 6.19185e-05)
(-0.000913587 -0.000502896 0.000110669)
(-0.00105242 -0.00053278 0.000156642)
(-0.00117691 -0.000546337 0.000193862)
(-0.00128392 -0.00055133 0.000219483)
(-0.00137317 -0.000554461 0.000233764)
(-0.00144799 -0.000560143 0.000239098)
(-0.00151303 -0.000570059 0.000238338)
(-0.00157214 -0.000584162 0.000233759)
(-0.00162785 -0.000601271 0.000226604)
(-0.00168139 -0.000620407 0.000217197)
(-0.00173335 -0.00064083 0.000205358)
(-0.0017834 -0.000661911 0.000190377)
(-0.0018318 -0.00068306 0.000171143)
(-0.00187891 -0.000703649 0.000146062)
(-0.0019263 -0.000722757 0.000114691)
(-0.00196669 -0.000738806 7.54869e-05)
(-0.00198946 -0.000748402 2.65415e-05)
(-0.000245255 -3.79049e-05 2.59742e-05)
(-0.000307215 -7.51841e-05 -4.73023e-05)
(-0.0003293 -0.000120256 -5.57392e-05)
(-0.000366104 -0.000177781 -4.72123e-05)
(-0.000439401 -0.0002465 -2.98793e-05)
(-0.000553297 -0.000322914 -4.26299e-06)
(-0.000694469 -0.00039483 3.25022e-05)
(-0.000844373 -0.000449274 7.7039e-05)
(-0.000992057 -0.000483493 0.0001223)
(-0.00112674 -0.000499987 0.000161355)
(-0.00124264 -0.000505584 0.000190131)
(-0.00133997 -0.000507905 0.000208144)
(-0.00142162 -0.000511893 0.000217169)
(-0.00149143 -0.000519536 0.000219692)
(-0.00155364 -0.000531229 0.000217964)
(-0.00161063 -0.000545887 0.000213211)
(-0.00166408 -0.000562641 0.000205829)
(-0.0017148 -0.000580725 0.000195725)
(-0.00176264 -0.000599515 0.000182231)
(-0.00180833 -0.000618432 0.000164275)
(-0.00185259 -0.000636871 0.000140225)
(-0.00189823 -0.000653964 0.00011007)
(-0.00193674 -0.000668237 7.25988e-05)
(-0.00195802 -0.000676726 2.55775e-05)
(-0.000197639 -1.84624e-05 2.71643e-05)
(-0.000258802 -5.0976e-05 -4.30533e-05)
(-0.000275804 -8.61786e-05 -5.30916e-05)
(-0.0003011 -0.000133473 -4.92469e-05)
(-0.000361623 -0.000192607 -3.94999e-05)
(-0.000464836 -0.000262479 -2.34714e-05)
(-0.000603425 -0.000334311 4.33011e-06)
(-0.000761738 -0.000394834 4.32476e-05)
(-0.000917751 -0.000433621 8.64508e-05)
(-0.00106117 -0.000452823 0.000126493)
(-0.00118713 -0.000459678 0.000158407)
(-0.00129348 -0.000461407 0.000180424)
(-0.00138213 -0.000463481 0.000193489)
(-0.00145727 -0.000468757 0.000199766)
(-0.0015225 -0.000477825 0.000201256)
(-0.00158078 -0.000489976 0.000199221)
(-0.00163385 -0.000504326 0.000194071)
(-0.00168295 -0.000520114 0.000185846)
(-0.00172798 -0.000536696 0.000173912)
(-0.00177017 -0.000553446 0.000157251)
(-0.00181077 -0.000569813 0.000134187)
(-0.00185377 -0.000584777 0.000105223)
(-0.00189019 -0.000597415 6.95857e-05)
(-0.00190947 -0.000604782 2.45701e-05)
(-0.000146698 -3.13224e-06 2.70484e-05)
(-0.000205036 -3.14292e-05 -3.97379e-05)
(-0.000219282 -5.81748e-05 -4.91462e-05)
(-0.000232152 -9.37657e-05 -4.82082e-05)
(-0.000274383 -0.000140302 -4.41029e-05)
(-0.000369853 -0.000204272 -3.75742e-05)
(-0.00050662 -0.000275733 -2.09193e-05)
(-0.000662451 -0.000337439 9.93247e-06)
(-0.000826078 -0.000381605 4.96672e-05)
(-0.000980985 -0.000405619 9.00211e-05)
(-0.00111706 -0.000414219 0.000124621)
(-0.0012325 -0.000415531 0.000150639)
(-0.00132908 -0.000415909 0.000168131)
(-0.00140957 -0.000418665 0.000178549)
(-0.00147811 -0.00042508 0.000183678)
(-0.00153732 -0.000434618 0.000184643)
(-0.00158957 -0.000446553 0.000181916)
(-0.00163636 -0.00046008 0.00017568)
(-0.00167783 -0.000474567 0.000165368)
(-0.00171589 -0.000489346 0.000150034)
(-0.00175226 -0.000503865 0.000127923)
(-0.0017927 -0.00051693 0.000100174)
(-0.00182632 -0.000527968 6.64478e-05)
(-0.00184357 -0.00053438 2.35253e-05)
(-9.25074e-05 7.21015e-06 2.57235e-05)
(-0.000144075 -1.5573e-05 -3.48153e-05)
(-0.000158284 -3.55294e-05 -4.29643e-05)
(-0.000167518 -6.06608e-05 -4.19823e-05)
(-0.000200925 -9.387e-05 -4.41943e-05)
(-0.000262953 -0.000142577 -4.75623e-05)
(-0.00038542 -0.000210161 -4.00632e-05)
(-0.000551743 -0.000279341 -1.9424e-05)
(-0.000723373 -0.000329691 1.39808e-05)
(-0.000885751 -0.00035804 5.27965e-05)
(-0.00103206 -0.000369448 8.93117e-05)
(-0.0011575 -0.000371163 0.000119173)
(-0.0012618 -0.000369955 0.000141204)
(-0.0013482 -0.000370362 0.000156167)
(-0.00141977 -0.000374067 0.000165274)
(-0.00147987 -0.000381088 0.000169552)
(-0.00153089 -0.000390696 0.000169433)
(-0.00157497 -0.000402147 0.000165321)
(-0.00161224 -0.00041476 0.000156687)
(-0.00164526 -0.000427753 0.000142673)
(-0.00167641 -0.000440601 0.000121426)
(-0.00171338 -0.000451709 9.48468e-05)
(-0.00174404 -0.000461367 6.31596e-05)
(-0.00175857 -0.000466794 2.24239e-05)
(-4.21129e-05 1.20713e-05 2.26511e-05)
(-8.5971e-05 -3.72444e-06 -3.03612e-05)
(-0.000102542 -1.87338e-05 -4.39825e-05)
(-0.000101031 -3.96044e-05 -4.55709e-05)
(-0.000106758 -6.52096e-05 -3.41728e-05)
(-0.00017946 -9.58537e-05 -3.42078e-05)
(-0.000284271 -0.000147961 -5.08058e-05)
(-0.00042631 -0.000215408 -4.47604e-05)
(-0.000600761 -0.000272869 -1.89476e-05)
(-0.000775343 -0.000309468 1.65043e-05)
(-0.00093249 -0.000325353 5.34232e-05)
(-0.0010675 -0.000328333 8.64206e-05)
(-0.00118044 -0.000326356 0.000113012)
(-0.0012724 -0.00032461 0.00013272)
(-0.00134719 -0.000325852 0.000146154)
(-0.00140755 -0.000330428 0.00015396)
(-0.00145686 -0.000337871 0.000156602)
(-0.00149739 -0.000347392 0.000154688)
(-0.00152948 -0.000358325 0.000147746)
(-0.00155686 -0.000369839 0.000135076)
(-0.00158233 -0.000381371 0.000114634)
(-0.00161599 -0.000390752 8.92389e-05)
(-0.001643 -0.000399132 5.97045e-05)
(-0.00165511 -0.000403807 2.12707e-05)
(-4.21513e-06 1.14794e-05 1.68848e-05)
(-2.39608e-05 7.55683e-07 -2.13351e-05)
(-4.01188e-05 -1.04976e-05 -3.69947e-05)
(-4.81323e-05 -2.6951e-05 -4.24709e-05)
(-4.72738e-05 -3.94615e-05 -3.23398e-05)
(-6.21018e-05 -4.51309e-05 -2.16634e-05)
(-0.000168327 -9.11936e-05 -3.76414e-05)
(-0.000305299 -0.000152497 -5.63863e-05)
(-0.000478796 -0.000216983 -4.66487e-05)
(-0.000654296 -0.000260318 -1.72477e-05)
(-0.000819463 -0.000281716 1.82473e-05)
(-0.000964347 -0.000287496 5.32778e-05)
(-0.00108498 -0.000285409 8.39718e-05)
(-0.00118285 -0.000282228 0.000108542)
(-0.00126017 -0.000281278 0.00012646)
(-0.00132065 -0.000283781 0.000138005)
(-0.00136757 -0.000289284 0.00014349)
(-0.00140412 -0.000297188 0.000143861)
(-0.00143067 -0.000306815 0.000138653)
(-0.0014514 -0.000317063 0.000127284)
(-0.00147003 -0.000327501 0.000107506)
(-0.00149973 -0.000335109 8.32546e-05)
(-0.00152288 -0.000342462 5.60404e-05)
(-0.00153148 -0.00034623 2.00289e-05)
(1.97514e-05 7.95984e-06 1.44302e-05)
(1.52626e-05 2.35873e-06 -1.07858e-05)
(2.15558e-06 -2.44642e-06 -2.00937e-05)
(-1.30566e-05 -1.28766e-05 -2.94707e-05)
(-2.61328e-05 -1.9982e-05 -3.48556e-05)
(-3.69319e-05 -2.43174e-05 -4.03903e-05)
(-6.29132e-05 -6.86102e-05 -3.64408e-05)
(-0.000172033 -9.45623e-05 -3.23642e-05)
(-0.000333322 -0.000148887 -6.03553e-05)
(-0.000517687 -0.000207124 -4.39618e-05)
(-0.000693163 -0.000237352 -1.41659e-05)
(-0.000847317 -0.000247694 2.07341e-05)
(-0.000976659 -0.000247247 5.48049e-05)
(-0.00107932 -0.000243371 8.3973e-05)
(-0.00115907 -0.00024096 0.000106436)
(-0.00121853 -0.000241743 0.000121711)
(-0.00126263 -0.000245682 0.000130066)
(-0.00129436 -0.000252237 0.00013272)
(-0.00131391 -0.000260692 0.000129153)
(-0.00132771 -0.000270015 0.000119113)
(-0.00133932 -0.000279757 9.99268e-05)
(-0.00136528 -0.000285682 7.6832e-05)
(-0.00138415 -0.000292201 5.21273e-05)
(-0.00139054 -0.000295386 1.87104e-05)
(4.1576e-05 9.89099e-06 2.75492e-05)
(4.24686e-05 6.84385e-06 -6.25934e-06)
(3.43661e-05 -5.23868e-07 -8.57932e-06)
(1.93566e-05 -3.63786e-06 -7.14968e-06)
(1.86637e-08 -7.64649e-07 -1.74853e-05)
(-3.25748e-05 -1.16786e-05 -3.86931e-05)
(-4.21927e-05 -3.25522e-05 -4.11743e-05)
(-5.48108e-05 -3.33563e-05 -2.33318e-05)
(-0.000224106 -9.39113e-05 -5.61678e-05)
(-0.000382205 -0.00014638 -6.15125e-05)
(-0.000558961 -0.000192383 -4.23281e-05)
(-0.000721094 -0.00020917 -9.76253e-06)
(-0.000856434 -0.000211355 2.64011e-05)
(-0.000963949 -0.000208236 5.97022e-05)
(-0.00104478 -0.000205108 8.64249e-05)
(-0.00110301 -0.000204937 0.00010535)
(-0.00114325 -0.000207651 0.000116414)
(-0.00116959 -0.000213217 0.000121309)
(-0.00118262 -0.000220967 0.000119415)
(-0.00118836 -0.000229452 0.000110612)
(-0.00119169 -0.0002386 9.18218e-05)
(-0.00121384 -0.00024275 6.98761e-05)
(-0.00122806 -0.000248633 4.79059e-05)
(-0.00122987 -0.000250636 1.72368e-05)
(5.28424e-05 1.33793e-05 3.43386e-05)
(6.34796e-05 6.52403e-06 -1.0439e-05)
(6.39076e-05 -2.71655e-06 -1.48405e-05)
(5.55077e-05 -1.43913e-05 -1.47726e-05)
(3.786e-05 -2.03797e-05 -9.38308e-06)
(1.17814e-05 -1.71804e-05 -1.04046e-06)
(-2.62738e-05 1.6663e-05 -2.29284e-05)
(-4.24157e-05 -1.42586e-05 -5.24641e-05)
(-5.93612e-05 -2.89416e-05 -2.57488e-05)
(-0.000288214 -9.69577e-05 -6.02027e-05)
(-0.000413487 -0.000141632 -6.25703e-05)
(-0.000584293 -0.000169594 -3.64404e-05)
(-0.00072775 -0.000177349 9.81377e-08)
(-0.000837322 -0.000176063 3.64574e-05)
(-0.000918531 -0.000173455 6.6862e-05)
(-0.00097357 -0.000172965 8.89405e-05)
(-0.00100969 -0.000174973 0.000102457)
(-0.00103026 -0.000179922 0.000109463)
(-0.0010345 -0.000186739 0.000108929)
(-0.00103271 -0.00019464 0.000101434)
(-0.00102822 -0.000203425 8.30005e-05)
(-0.00104707 -0.000205718 6.225e-05)
(-0.0010567 -0.000211238 4.33184e-05)
(-0.00105799 -0.000212708 1.56696e-05)
(6.30977e-05 1.19235e-05 3.38234e-05)
(8.10209e-05 4.67358e-06 -1.15816e-05)
(8.71225e-05 -3.21197e-06 -1.87411e-05)
(8.53319e-05 -1.42715e-05 -2.12492e-05)
(7.49753e-05 -2.25315e-05 -2.02077e-05)
(5.23967e-05 -2.4759e-05 -1.83584e-05)
(1.50774e-05 -2.04981e-05 -2.59906e-05)
(-9.96596e-06 -1.11801e-05 -4.21702e-05)
(-4.461e-05 -1.33547e-05 -6.95567e-05)
(-0.00010962 -0.0001433 -7.5556e-05)
(-0.000284498 -0.000107647 -2.99349e-05)
(-0.000448764 -0.000127056 -5.80306e-05)
(-0.000592194 -0.000144127 -2.28059e-05)
(-0.000703938 -0.000146475 1.54065e-05)
(-0.000783508 -0.00014545 4.83943e-05)
(-0.000835112 -0.000145698 7.29856e-05)
(-0.000865961 -0.000147339 8.83853e-05)
(-0.000879549 -0.000151816 9.71797e-05)
(-0.000877301 -0.00015807 9.80546e-05)
(-0.000866984 -0.000165242 9.17149e-05)
(-0.000853297 -0.000173217 7.34008e-05)
(-0.000869421 -0.000173639 5.38955e-05)
(-0.000874071 -0.000178933 3.82843e-05)
(-0.000868918 -0.000178158 1.38222e-05)
(7.25802e-05 7.54017e-06 3.02426e-05)
(9.5541e-05 -1.13001e-06 -1.17393e-05)
(0.000105748 -8.66819e-06 -1.9637e-05)
(0.000107866 -1.94212e-05 -2.43173e-05)
(0.000101996 -2.90909e-05 -2.60743e-05)
(8.7578e-05 -3.49266e-05 -2.58456e-05)
(6.47837e-05 -3.41949e-05 -2.59299e-05)
(3.58769e-05 -2.62566e-05 -3.27949e-05)
(-7.1387e-05 -2.64145e-05 -6.1097e-05)
(-5.28542e-05 -3.29538e-05 -5.43302e-05)
(-0.000132873 -4.46338e-05 -4.49402e-05)
(-0.000312911 -8.87356e-05 -6.68085e-05)
(-0.00045764 -0.000110928 -3.95426e-05)
(-0.000565164 -0.000117707 -2.39241e-06)
(-0.00064128 -0.000119805 3.16075e-05)
(-0.000686802 -0.000121446 5.74203e-05)
(-0.000711825 -0.000122946 7.39262e-05)
(-0.00072006 -0.000127503 8.42506e-05)
(-0.000707611 -0.00013191 8.58142e-05)
(-0.000690618 -0.000138562 8.07993e-05)
(-0.000669515 -0.00014526 6.27417e-05)
(-0.000684561 -0.000144026 4.46585e-05)
(-0.000684728 -0.000149577 3.28181e-05)
(-0.000684117 -0.000147911 1.19727e-05)
(7.80362e-05 4.1724e-06 2.84535e-05)
(0.000105821 -5.1254e-06 -1.14831e-05)
(0.000119205 -1.23452e-05 -2.05048e-05)
(0.000124237 -2.30806e-05 -2.65021e-05)
(0.000121651 -3.37652e-05 -2.94291e-05)
(0.000111668 -4.22886e-05 -2.9368e-05)
(9.41833e-05 -4.78919e-05 -2.69806e-05)
(7.02367e-05 -4.19281e-05 -1.69541e-05)
(2.68932e-05 -4.47932e-05 -1.33921e-06)
(-6.63244e-05 7.6396e-05 -3.31662e-05)
(-7.2149e-05 -2.80854e-05 -6.94487e-05)
(-0.000181536 -6.04364e-05 -5.0351e-05)
(-0.000322442 -7.73236e-05 -4.67689e-05)
(-0.000430614 -9.06413e-05 -1.54906e-05)
(-0.000500268 -9.5989e-05 1.73886e-05)
(-0.000538764 -9.96988e-05 4.31028e-05)
(-0.000558784 -0.000101157 5.96773e-05)
(-0.000557721 -0.000105245 7.06395e-05)
(-0.000540586 -0.00010697 7.31628e-05)
(-0.000517799 -0.000114224 6.92733e-05)
(-0.000487303 -0.000117177 5.12592e-05)
(-0.000502018 -0.000115672 3.46392e-05)
(-0.000498048 -0.000121616 2.67215e-05)
(-0.000486644 -0.000117112 9.59353e-06)
(7.7361e-05 9.6153e-07 2.68853e-05)
(0.000108097 -7.69337e-06 -9.67573e-06)
(0.000123401 -1.41138e-05 -1.95015e-05)
(0.000131457 -2.44379e-05 -2.66082e-05)
(0.000132244 -3.57251e-05 -3.06174e-05)
(0.00012613 -4.57273e-05 -3.13824e-05)
(0.000112962 -5.25599e-05 -2.89223e-05)
(9.23677e-05 -5.18108e-05 -2.348e-05)
(5.31653e-05 -3.76328e-05 -2.60422e-05)
(-3.58585e-05 -4.20366e-05 -4.74463e-05)
(-3.69305e-05 -2.00522e-05 -5.06322e-05)
(-8.5006e-05 -2.56212e-05 -3.71327e-05)
(-0.000205909 -4.61338e-05 -4.84e-05)
(-0.00029275 -6.19761e-05 -2.35155e-05)
(-0.000358281 -7.26568e-05 6.53687e-06)
(-0.000389376 -7.84003e-05 2.96009e-05)
(-0.000399849 -7.97598e-05 4.48149e-05)
(-0.000398518 -8.35005e-05 5.63218e-05)
(-0.000367677 -7.02832e-05 5.81353e-05)
(-0.000341508 -8.63632e-05 5.55469e-05)
(-0.000307154 -7.91665e-05 3.85774e-05)
(-0.000324717 -8.44657e-05 2.39734e-05)
(-0.000317755 -9.22374e-05 2.05512e-05)
(-0.000318902 -8.0878e-05 7.89029e-06)
(7.16516e-05 -2.19799e-06 2.45152e-05)
(0.000103575 -1.01233e-05 -7.10407e-06)
(0.000119616 -1.57046e-05 -1.64959e-05)
(0.00012932 -2.46448e-05 -2.38837e-05)
(0.000133523 -3.54741e-05 -2.88179e-05)
(0.000131343 -4.6213e-05 -3.0736e-05)
(0.000122581 -5.47962e-05 -2.93179e-05)
(0.000106223 -5.84386e-05 -2.48475e-05)
(7.79209e-05 -5.5483e-05 -2.01751e-05)
(4.07302e-05 -4.55164e-05 -1.2575e-05)
(-2.77523e-05 1.5171e-05 -3.33746e-05)
(-2.37368e-05 -3.38624e-06 -2.32988e-05)
(-0.00010071 -2.06849e-05 -3.38233e-05)
(-0.000200056 -2.60464e-05 -2.44143e-05)
(-0.000236056 -4.83779e-05 -3.09435e-06)
(-0.000253322 -5.71647e-05 1.86731e-05)
(-0.00026376 -5.34798e-05 3.15857e-05)
(-0.000249751 -6.08008e-05 4.06743e-05)
(-0.000300504 -3.24454e-05 4.42928e-05)
(-0.000209583 -5.82148e-05 4.31536e-05)
(-0.000213652 -3.45243e-05 2.61112e-05)
(-0.000183604 -4.5743e-05 1.37738e-05)
(-0.000169814 -5.90184e-05 1.46022e-05)
(-0.000178605 -4.74117e-05 5.96092e-06)
(6.40594e-05 -4.70504e-06 2.21076e-05)
(9.53017e-05 -1.24633e-05 -5.0523e-06)
(0.000111072 -1.77013e-05 -1.29829e-05)
(0.00012126 -2.53524e-05 -1.94989e-05)
(0.000127239 -3.46032e-05 -2.44793e-05)
(0.000128731 -4.47906e-05 -2.72056e-05)
(0.000124582 -5.39374e-05 -2.70303e-05)
(0.000113831 -5.99046e-05 -2.40347e-05)
(9.35722e-05 -6.13457e-05 -1.92567e-05)
(6.19034e-05 -5.15619e-05 -1.23196e-05)
(2.87059e-06 -2.78243e-05 -2.004e-05)
(-1.89147e-05 -8.24033e-06 -3.63833e-05)
(-6.34029e-05 -1.2044e-05 -3.82633e-05)
(-9.08079e-05 -2.69947e-05 -1.66546e-05)
(-0.000126343 -2.54683e-05 1.65617e-07)
(-0.000137863 -3.37001e-05 9.64213e-06)
(-0.000146515 -2.92325e-05 1.73529e-05)
(-0.00012548 -3.4773e-05 1.14418e-05)
(-0.000131815 -0.000139882 2.47468e-05)
(-5.39123e-05 -3.25876e-05 2.0648e-05)
(-9.30496e-05 -0.000118469 1.58052e-05)
(-8.07544e-05 -1.7505e-05 9.37664e-06)
(-3.34735e-05 -1.63902e-05 2.9933e-06)
(-5.75829e-05 -3.07963e-05 2.60832e-06)
(5.66303e-05 -6.09837e-06 2.04014e-05)
(8.59166e-05 -1.40933e-05 -3.95733e-06)
(0.000100539 -1.94107e-05 -1.03586e-05)
(0.000110279 -2.63084e-05 -1.54735e-05)
(0.000116643 -3.4247e-05 -1.9556e-05)
(0.000120191 -4.30112e-05 -2.20934e-05)
(0.00011973 -5.16108e-05 -2.23549e-05)
(0.00011416 -5.83801e-05 -2.02296e-05)
(0.000101747 -6.21961e-05 -1.5639e-05)
(7.95214e-05 -5.93582e-05 -1.01765e-05)
(3.91833e-05 -4.43291e-05 -8.19054e-06)
(4.94616e-06 -1.59804e-05 -2.01418e-05)
(-2.75827e-05 -8.5771e-06 -2.64869e-05)
(-4.6566e-05 -2.82308e-05 -1.7607e-05)
(-4.78489e-05 -1.63931e-05 1.97722e-06)
(-3.23183e-05 -1.10421e-05 7.82529e-08)
(-5.07123e-05 -2.25253e-05 5.80941e-06)
(-3.71033e-05 -1.12676e-05 2.1428e-06)
(-4.47398e-05 -4.59696e-05 2.87471e-05)
(-3.12868e-05 -1.37999e-05 6.82616e-06)
(6.46378e-06 -3.5261e-05 1.08751e-05)
(-5.06534e-05 -8.85552e-05 3.4703e-05)
(-1.95125e-05 -4.061e-05 1.14675e-05)
(-2.23167e-05 -2.43309e-05 4.86591e-06)
(4.89334e-05 -6.5695e-06 1.88189e-05)
(7.58852e-05 -1.49362e-05 -3.59171e-06)
(8.90994e-05 -2.06236e-05 -8.68338e-06)
(9.80444e-05 -2.72469e-05 -1.23921e-05)
(0.00010424 -3.43617e-05 -1.51896e-05)
(0.000108452 -4.16927e-05 -1.69052e-05)
(0.000110383 -4.91239e-05 -1.69832e-05)
(0.000108492 -5.53894e-05 -1.50662e-05)
(0.000101856 -6.02695e-05 -1.09319e-05)
(8.74991e-05 -6.13751e-05 -4.72509e-06)
(6.09024e-05 -5.50306e-05 1.32809e-06)
(2.67148e-05 -3.11732e-05 2.95879e-06)
(-3.16826e-06 -1.19253e-05 -6.55735e-06)
(-2.913e-05 7.81286e-06 -1.80975e-05)
(-1.8296e-05 -1.34056e-05 -7.29383e-06)
(-2.34037e-05 -2.25767e-05 -3.24447e-06)
(-2.07201e-05 -2.51876e-05 4.4814e-06)
(-1.29426e-05 -2.22969e-05 1.61999e-05)