/*--------------------------------*- C++ -*----------------------------------*\
  =========                 |
  \\      /  F ield         | OpenFOAM: The Open Source CFD Toolbox
   \\    /   O peration     | Website:  https://openfoam.org
    \\  /    A nd           | Version:  6
     \\/     M anipulation  |
\*---------------------------------------------------------------------------*/
FoamFile
{
    version     2.0;
    format      ascii;
    class       volScalarField;
    location    "5";
    object      yPlus;
}
// * * * * * * * * * * * * * * * * * * * * * * * * * * * * * * * * * * * * * //

dimensions      [0 0 0 0 0 0 0];

internalField   uniform 0;

boundaryField
{
    inlet
    {
        type            calculated;
        value           uniform 0;
    }
    outlet
    {
        type            calculated;
        value           uniform 0;
    }
    roughCylinder
    {
        type            calculated;
        value           nonuniform List<scalar> 
3840
(
46.5995
55.0276
62.9866
70.0228
75.3479
79.3058
82.323
84.7235
86.7876
88.6054
90.2551
91.8002
93.3116
94.8575
96.492
98.2439
100.119
102.105
104.179
106.31
108.456
110.544
112.392
113.609
45.8231
53.9822
61.7244
68.6553
73.943
77.884
80.8978
83.3072
85.3739
87.1767
88.8025
90.3176
91.7955
93.3064
94.903
96.615
98.4473
100.388
102.414
104.495
106.59
108.626
110.427
111.612
44.9734
52.899
60.4426
67.2709
72.5259
76.4594
79.4824
81.9113
83.9848
85.7756
87.3795
88.8674
90.3144
91.7906
93.3507
95.0231
96.8134
98.7092
100.687
102.718
104.762
106.747
108.503
109.655
44.1093
51.805
59.1494
65.8716
71.099
75.0366
78.0826
80.5379
82.6195
84.4079
85.9946
87.4578
88.8749
90.3194
91.8441
93.4789
95.2282
97.0799
99.0116
100.993
102.985
104.919
106.63
107.751
43.2115
50.6761
57.8243
64.4457
69.6569
73.6119
76.692
79.1832
81.284
83.0742
84.6451
86.0872
87.4791
88.893
90.3848
91.9829
93.6929
95.5023
97.3874
99.3208
101.263
103.148
104.814
105.904
42.3131
49.5384
56.4812
62.9997
68.204
72.1902
75.3153
77.8451
79.9621
81.7628
83.3309
84.7568
86.1245
87.512
88.9726
90.537
92.2092
93.9772
95.8182
97.703
99.5958
101.431
103.053
104.112
41.4029
48.363
55.0912
61.5088
66.7189
70.7503
73.929
76.5091
78.6647
80.48
82.0471
83.4615
84.8125
86.175
87.6078
89.1391
90.7748
92.5027
94.2995
96.1388
97.9834
99.7721
101.351
102.38
40.4722
47.1672
53.6666
59.9813
65.2107
69.305
72.5531
75.1876
77.3665
79.2058
80.7909
82.2034
83.5391
84.8827
86.2894
87.7915
89.393
91.0819
92.8364
94.6284
96.4249
98.1653
99.7016
100.7
39.55
45.9242
52.167
58.3672
63.6267
67.8044
71.1325
73.8355
76.083
77.9571
79.5535
80.9728
82.3043
83.6308
85.0166
86.4898
88.0577
89.7089
91.4206
93.1677
94.9178
96.613
98.1075
99.0755
38.5444
44.6245
50.5981
56.6845
61.9915
66.2734
69.7086
72.4996
74.781
76.694
78.3318
79.7669
81.0993
82.4178
83.7842
85.2336
86.7709
88.3849
90.0549
91.7548
93.4566
95.1028
96.5557
97.493
37.5702
43.2614
48.908
54.8351
60.1928
64.6226
68.1916
71.0766
73.471
75.4521
77.1154
78.574
79.9187
81.2326
82.5879
84.0133
85.5193
87.0962
88.7227
90.3769
92.0305
93.6337
95.0444
95.9516
36.3668
41.7561
47.0858
52.8672
58.296
62.8842
66.6212
69.6706
72.1242
74.1615
75.8972
77.3936
78.7534
80.0736
81.4176
82.8256
84.3043
85.8456
87.4303
89.0357
90.6388
92.19
93.5609
94.4352
35.2279
40.18
45.0672
50.5887
56.0684
60.9192
64.9084
68.0861
70.719
72.8808
74.665
76.206
77.5996
78.9275
80.2712
81.6605
83.1108
84.6153
86.1553
87.7138
89.2684
90.7786
92.1049
92.9502
33.6191
38.321
42.8175
48.1031
53.6506
58.7124
62.9691
66.496
69.259
71.5053
73.4034
75.0143
76.4412
77.7938
79.136
80.5157
81.9422
83.4129
84.9096
86.4159
87.9167
89.3695
90.6572
91.4665
32.1207
36.3711
40.2634
45.0727
50.5846
56.1278
60.8975
64.5827
67.6298
70.1046
72.098
73.783
75.2745
76.6515
78.0075
79.3748
80.7761
82.2087
83.6586
85.1145
86.5643
87.9786
89.2176
89.9977
30.2186
34.0865
37.3128
41.6287
47.1335
52.8242
58.0289
62.5501
65.9254
68.5475
70.7173
72.5234
74.0745
75.5013
76.8687
78.2359
79.6167
81.0169
82.42
83.8178
85.2069
86.5562
87.7573
88.4954
27.7904
31.4507
33.9608
37.2648
42.2496
49.0058
55.2889
59.9269
63.7908
66.8648
69.2401
71.1725
72.8346
74.3099
75.7106
77.0727
78.4317
79.7905
81.1404
82.4819
83.8156
85.1258
86.2721
86.9818
24.2727
27.7282
29.3559
31.844
36.8893
42.737
49.9372
56.8589
61.5716
64.9432
67.6053
69.7508
71.5174
73.08
74.509
75.8844
77.2243
78.5503
79.8493
81.1207
82.381
83.6191
84.7243
85.3804
18.7573
23.249
24.4534
23.8867
25.109
36.6131
45.8174
52.3302
58.1688
62.588
65.7502
68.1449
70.1066
71.7559
73.2476
74.6254
75.9489
77.2274
78.4567
79.6619
80.8585
82.0496
83.0948
83.7261
3.0908
12.5939
14.9638
16.6383
16.1752
16.7726
33.0146
46.9472
54.8576
59.9152
63.5947
66.3852
68.5386
70.3431
71.8896
73.3006
74.6017
75.842
77.0175
78.1288
79.2277
80.3415
81.3333
81.8829
9.2321
12.0141
11.5939
15.0749
17.2906
16.293
21.3233
35.866
47.6901
55.8194
60.8453
64.2319
66.7776
68.7394
70.3972
71.8185
73.112
74.2968
75.3628
76.3905
77.4107
78.4597
79.3864
79.9349
18.7654
21.9716
22.6364
20.2841
17.0511
21.4594
27.5438
18.4359
42.2246
51.2888
57.5476
61.7597
64.6846
66.9507
68.7174
70.2074
71.4675
72.5925
73.6067
74.4895
75.3616
76.3267
77.1722
77.5581
24.0815
27.6719
29.5012
29.7787
27.7567
24.653
24.8954
25.7521
14.5644
42.5198
52.4386
58.3465
62.2011
64.7743
66.7412
68.2518
69.5143
70.5801
71.3918
72.1539
72.9138
73.7928
74.561
75.04
25.7641
29.8764
32.6963
34.5666
35.0914
33.5578
30.414
22.0064
23.3405
31.8989
46.3262
54.203
58.9438
62.2065
64.4139
66.0552
67.2744
68.2026
68.9719
69.477
69.9703
70.7424
71.3779
71.4682
26.7136
30.8932
33.7226
35.8951
37.2588
37.6496
36.4367
31.6993
33.9971
37.2403
34.2931
47.8195
54.944
58.8059
61.3834
63.0788
64.2773
65.1777
65.5184
65.7832
66.0755
66.7932
67.2807
67.7832
26.0295
30.4382
33.509
36.0147
37.842
38.9456
39.3256
38.6566
35.8967
32.4553
24.7305
37.9347
48.7773
54.6
57.741
59.6164
60.8267
61.3087
61.6434
61.3985
61.115
61.6104
61.8841
61.3732
23.8696
28.6655
32.0431
34.9073
37.149
38.7652
39.8233
40.4186
39.6405
32.5538
29.9078
27.6138
41.8661
48.3743
52.1883
54.3202
55.2532
55.9072
55.213
54.1157
53.5992
54.2944
53.9076
55.1017
21.0964
26.2674
29.8543
32.9596
35.504
37.4953
39.0278
40.2114
40.8298
38.7473
36.4301
5.6383
27.8537
41.5506
46.0938
47.7729
49.4685
48.4155
48.036
46.1338
43.5097
44.3048
43.3699
43.286
18.5529
23.8288
27.3854
30.5118
33.1819
35.4295
37.3476
39.0653
40.4881
40.7387
35.6742
24.1863
28.7449
24.1331
33.6439
37.5369
37.4324
36.8945
38.0855
21.0985
36.5273
24.4131
12.4236
23.5711
16.5714
21.7125
25.0531
28.0149
30.6259
32.9521
35.0841
37.158
39.1712
40.5865
39.2382
31.1648
19.9174
24.4464
19.1573
12.6771
19.9453
17.4372
43.8496
37.4771
41.2399
32.7638
36.0145
30.7718
14.7658
19.7849
22.905
25.6673
28.1479
30.4427
32.6471
34.878
37.1908
39.2972
39.8814
36.0999
24.1103
31.4621
19.3205
30.1208
27.3092
20.2837
37.992
29.6769
42.3822
38.474
33.6041
34.5131
13.4999
18.3126
21.1775
23.703
26.0012
28.1858
30.3544
32.6052
35.0229
37.5144
39.3006
38.4644
31.0166
22.0064
28.02
23.5015
34.531
33.8366
29.8082
37.5104
35.0648
38.6841
42.1496
35.9365
12.5855
17.2224
19.8678
22.1841
24.3043
26.3472
28.4093
30.5822
32.9723
35.6193
38.1169
39.2371
37.2337
31.3049
30.5663
32.913
33.6873
38.0053
40.8922
45.2629
43.4928
44.2199
47.2059
42.3272
12.0526
16.5459
19.0163
21.1636
23.128
25.0211
26.9339
28.9594
31.2271
33.8576
36.707
39.0021
39.6079
38.3125
37.6839
39.8843
39.9537
43.0439
44.7104
47.2037
46.4155
46.0741
48.0707
45.1399
11.7933
16.2011
18.5616
20.6011
22.4545
24.2177
25.9719
27.815
29.8923
32.3715
35.2812
38.1929
40.1688
40.6541
40.7886
42.1444
42.6398
44.4455
45.8603
47.7071
47.2832
46.6645
47.9435
46.2671
11.8254
16.1896
18.4923
20.4742
22.2564
23.9159
25.5245
27.1802
29.0286
31.2555
33.995
37.0799
39.8087
41.3404
42.0141
43.0997
43.715
44.7702
45.9319
47.2447
47.0251
46.412
47.0998
46.1654
12.09
16.4524
18.7474
20.7215
22.476
24.0707
25.5664
27.0539
28.6699
30.5952
33.0072
35.9082
38.8527
40.9882
42.1353
43.1516
43.76
44.3928
45.3205
46.3075
46.2835
45.8161
46.0758
45.5696
12.5699
16.9594
19.2835
21.2888
23.0565
24.6286
26.0538
27.4124
28.8259
30.4569
32.4846
34.9966
37.7587
40.0869
41.5494
42.6286
43.2746
43.7721
44.6096
45.4568
45.6595
45.4092
45.3825
45.1119
13.2089
17.6537
20.0385
22.1098
23.9278
25.5192
26.9223
28.2065
29.4754
30.8659
32.5385
34.6111
36.9934
39.2245
40.8416
42.031
42.8076
43.3881
44.2673
45.1237
45.5545
45.5199
45.334
45.1756
13.9581
18.4926
20.967
23.1307
25.0257
26.6689
28.093
29.3597
30.5545
31.7868
33.1893
34.8812
36.8575
38.8516
40.4921
41.7883
42.7496
43.5301
44.5419
45.4979
46.1325
46.2804
46.0279
45.9055
14.4629
14.7446
15.1923
15.5606
15.9815
16.346
16.7088
17.0262
17.3187
17.575
17.8047
18.0033
18.1743
18.3148
18.4264
18.503
18.539
18.527
18.4664
18.3745
18.3821
18.4854
18.5556
18.5761
18.5475
18.4772
18.3709
18.2351
18.0681
17.873
17.6464
17.3929
17.1029
16.7879
16.4271
16.064
15.6451
15.2776
14.8307
14.5478
19.0683
19.3174
19.7458
20.1037
20.5161
20.8848
21.2557
21.5922
21.9096
22.1971
22.4613
22.6986
22.9104
23.0918
23.2423
23.3546
23.4205
23.4306
23.3821
23.2934
23.3006
23.4008
23.4592
23.4578
23.3993
23.2933
23.1482
22.9715
22.7637
22.5298
22.2684
21.9836
21.6686
21.3341
20.9652
20.598
20.1873
19.8304
19.403
19.1532
21.6178
21.8805
22.3436
22.7345
23.1852
23.5962
24.0116
24.3969
24.7668
25.1109
25.4345
25.7339
26.0109
26.2595
26.4757
26.6508
26.774
26.8346
26.8284
26.7764
26.7835
26.8477
26.8641
26.8126
26.697
26.5284
26.3177
26.0739
25.8009
25.5049
25.1843
24.8429
24.4754
24.0922
23.6788
23.2693
22.8202
22.4301
21.9678
21.704
23.8532
24.1399
24.6423
25.0709
25.5613
26.0133
26.4691
26.8967
27.3095
27.6992
28.0716
28.4241
28.7563
29.0624
29.3355
29.5653
29.7392
29.8458
29.8807
29.8649
29.8718
29.9001
29.8758
29.7785
29.6123
29.3892
29.1216
28.8203
28.4921
28.143
27.7737
27.3868
26.9765
26.5512
26.0975
25.6472
25.1584
24.7307
24.2288
23.9406
25.8091
26.1164
26.6509
27.1117
27.633
28.1166
28.6012
29.0576
29.499
29.9213
30.3296
30.7218
31.096
31.4457
31.7622
32.0338
32.2468
32.3882
32.4538
32.4623
32.4691
32.4732
32.4184
32.2861
32.0811
31.8161
31.505
31.1599
30.7897
30.401
29.9958
29.5765
29.1376
28.6836
28.2012
27.7196
27.2001
26.7402
26.2059
25.8969
27.4998
27.8194
28.3801
28.8699
29.4185
29.9304
30.4397
30.9202
31.3858
31.8357
32.2735
32.6977
33.1049
33.4882
33.8377
34.1403
34.3813
34.547
34.6325
34.6547
34.6614
34.6515
34.5766
34.42
34.1868
33.8906
33.5465
33.1677
32.7644
32.3437
31.909
31.4621
30.9991
30.5211
30.014
29.5042
28.9573
28.4684
27.9077
27.586
28.958
29.2832
29.869
30.3909
30.9706
31.515
32.0524
32.5592
33.0498
33.5251
33.9887
34.4389
34.8718
35.2797
35.6521
35.9753
36.2336
36.4132
36.5087
36.5367
36.5431
36.5271
36.4418
36.2708
36.0199
35.703
35.3358
34.9322
34.5032
34.0564
33.5959
33.1234
32.6355
32.1311
31.5961
31.0535
30.4755
29.9542
29.3679
29.0404
30.2398
30.5621
31.1723
31.7305
32.3471
32.9302
33.5007
34.0368
34.5528
35.0518
35.5371
36.0073
36.4582
36.8819
37.2676
37.6008
37.8663
38.05
38.1471
38.1747
38.1808
38.1645
38.0769
37.9011
37.6426
37.3152
36.9345
36.5149
36.0677
35.6007
35.1185
34.6223
34.1088
33.575
33.0066
32.4253
31.8098
31.2519
30.6407
30.316
31.4147
31.715
32.341
32.935
33.5914
34.2171
34.8249
35.3932
35.9349
36.4556
36.9586
37.4433
37.9052
38.3366
38.7263
39.0605
39.3241
39.504
39.5961
39.6188
39.6245
39.6122
39.5286
39.3559
39.0985
38.7696
38.3843
37.9568
37.4983
37.0167
36.5165
35.9984
35.4591
34.8929
34.2868
33.6622
33.0064
32.4122
31.7849
31.4829
32.5643
32.8046
33.4237
34.0435
34.7366
35.4058
36.0537
36.6573
37.2252
37.7665
38.2844
38.7792
39.2465
39.6789
40.0655
40.3934
40.6484
40.8187
40.9013
40.9164
40.9217
40.9158
40.8406
40.6764
40.4268
40.1036
39.7208
39.2918
38.8275
38.3354
37.82
37.281
36.7151
36.1129
35.466
34.7973
34.1042
33.4838
32.8636
32.624
33.7869
33.9056
34.476
35.0994
35.8176
36.526
37.2143
37.8556
38.4513
39.0127
39.5442
40.0463
40.5154
40.9442
41.3231
41.6399
41.882
42.0393
42.1104
42.117
42.1218
42.1232
42.0582
41.9059
41.6681
41.3551
40.9795
40.5533
40.0867
39.5869
39.0573
38.4976
37.903
37.2623
36.5741
35.8654
35.1466
34.5226
33.9528
33.8402
35.1803
35.1001
35.5624
36.1549
36.8775
37.6139
38.3373
39.015
39.6407
40.2229
40.7678
41.2762
41.7452
42.1686
42.5372
42.8407
43.0681
43.2113
43.2703
43.2686
43.273
43.2813
43.227
43.0876
42.8634
42.5627
42.1963
41.775
41.3077
40.8009
40.2571
39.6758
39.0502
38.3719
37.6476
36.9099
36.1863
35.5945
35.1374
35.2345
36.7783
36.4407
36.7377
37.2599
37.9612
38.71
39.4591
40.168
40.8223
41.4249
41.9833
42.498
42.967
43.3845
43.7428
44.033
44.246
44.3754
44.423
44.4138
44.4177
44.4322
44.3879
44.2609
44.05
43.7614
43.4044
42.988
42.5199
42.0058
41.4478
40.8448
40.1892
39.4785
38.7273
37.9766
37.2749
36.7563
36.4732
36.8447
38.4601
37.8903
38.0123
38.444
39.1049
39.8501
40.6135
41.3453
42.0231
42.6444
43.2154
43.7366
44.206
44.6187
44.968
45.2465
45.4467
45.5643
45.6022
45.5868
45.5901
45.6098
45.5737
45.4573
45.2577
44.9797
44.6306
44.2179
43.7483
43.2267
42.6547
42.0319
41.3514
40.6163
39.8497
39.1023
38.4428
38.02
37.9234
38.5468
39.9657
39.305
39.3306
39.6994
40.3253
41.0611
41.8297
42.5749
43.2684
43.9037
44.4847
45.0113
45.4813
45.8903
46.2324
46.5013
46.6913
46.7995
46.8302
46.8105
46.8133
46.8361
46.8059
46.6976
46.5069
46.2372
45.8941
45.4841
45.0128
44.4845
43.9014
43.2633
42.5657
41.8162
41.0441
40.3077
39.6878
39.3382
39.3576
40.1026
41.255
40.6249
40.6512
41.0107
41.6268
42.3585
43.1285
43.8785
44.5784
45.2208
45.8069
46.3358
46.8047
47.2095
47.5451
47.8062
47.9882
48.0894
48.1154
48.094
48.0963
48.1196
48.0929
47.9903
47.8065
47.5435
47.2058
46.7988
46.3274
45.7957
45.2063
44.56
43.855
43.1003
42.3279
41.5988
40.9957
40.6687
40.709
41.4537
42.5085
41.9349
42.0059
42.3884
43.0138
43.7474
44.5161
45.2635
45.9602
46.6016
47.1864
47.7127
48.1772
48.5758
48.904
49.1572
49.332
49.4276
49.4507
49.4299
49.4317
49.4536
49.4288
49.3307
49.1533
48.8972
48.5661
48.1646
47.6969
47.1673
46.5788
45.933
45.2306
44.4781
43.706
42.9724
42.3539
41.9895
41.9553
42.5877
43.7207
43.2262
43.3691
43.7974
44.4473
45.1894
45.957
46.6977
47.3869
48.0223
48.601
49.1205
49.5774
49.9675
50.2868
50.5315
50.6989
50.7892
50.8104
50.791
50.7925
50.8124
50.7891
50.6958
50.5254
50.2776
49.9552
49.5622
49.1025
48.5801
47.9984
47.3594
46.6655
45.9182
45.1434
44.393
43.7334
43.2917
43.1287
43.5908
44.9084
44.5453
44.7845
45.2595
45.9275
46.6673
47.4218
48.1445
48.8194
49.4418
50.0086
50.5162
50.9612
51.3396
51.6477
51.8821
52.0407
52.1246
52.1426
52.1235
52.1246
52.1435
52.1226
52.0349
51.8724
51.6342
51.3224
50.9403
50.4917
49.9804
49.4096
48.7821
48.1006
47.3679
46.6018
45.8479
45.1633
44.6691
44.4112
44.7593
45.9714
45.7442
46.0814
46.6043
47.2925
48.0316
48.7736
49.4785
50.1384
50.7473
51.3014
51.797
52.2299
52.5967
52.8935
53.1175
53.2671
53.3439
53.3572
53.336
53.3361
53.3555
53.3377
53.2554
53.1001
52.8702
52.5675
52.1948
51.7557
51.2536
50.692
50.0741
49.4028
48.6826
47.9229
47.1644
46.4572
45.9184
45.5826
45.8396
46.5923
46.5056
46.9519
47.5467
48.2783
49.0387
49.7882
50.4949
51.1546
51.7615
52.3122
52.8031
53.2304
53.5908
53.881
54.0982
54.2414
54.3122
54.3202
54.2953
54.2952
54.3169
54.3023
54.2237
54.0724
53.8469
53.5486
53.1802
52.7449
52.2463
51.6879
51.0736
50.4066
49.6927
48.9366
48.1741
47.4493
46.8751
46.4717
46.6327
47.1877
47.1182
47.5859
48.1814
48.9089
49.6585
50.396
51.0945
51.7487
52.3519
52.8998
53.3882
53.8132
54.1711
54.4584
54.6724
54.8118
54.8783
54.8814
54.8514
54.8508
54.8757
54.8633
54.7858
54.6346
54.4081
54.1077
53.7362
53.2968
52.793
52.2286
51.6073
50.933
50.2113
49.4473
48.6723
47.9248
47.3141
46.8486
46.9193
46.8098
46.844
47.384
48.0341
48.7995
49.5767
50.3364
51.0547
51.7262
52.345
52.9068
53.4079
53.844
54.2117
54.5073
54.7282
54.8729
54.9427
54.9472
54.9178
54.922
54.9522
54.9418
54.8635
54.709
54.477
54.169
53.7876
53.3361
52.8179
52.2366
51.5961
50.8996
50.1529
49.3601
48.5528
47.7695
47.1202
46.6174
46.6601
46.5695
46.5263
47.0146
47.6383
48.3946
49.1751
49.9452
50.6778
51.3653
52.0005
52.5785
53.0948
53.5452
53.9258
54.233
54.464
54.6171
54.694
54.7037
54.6791
54.6909
54.7276
54.7206
54.6434
54.4884
54.2547
53.9441
53.5592
53.1038
52.5817
51.9969
51.354
50.6572
49.9138
49.1295
48.3364
47.5716
46.9475
46.4672
46.5351
46.5797
55.0135
62.9773
70.0158
75.3414
79.2993
82.3165
84.717
86.7809
88.5983
90.2478
91.7927
93.3038
94.8494
96.4835
98.2347
100.109
102.092
104.164
106.291
108.434
110.51
112.359
113.589
45.8095
53.9724
61.7178
68.6503
73.9381
77.8785
80.8917
83.3008
85.3674
87.17
88.7955
90.3104
91.7879
93.2985
94.8947
96.606
98.4373
100.376
102.4
104.476
106.567
108.59
110.394
111.592
44.9586
52.8879
60.4338
67.2635
72.5193
76.4533
79.4765
81.905
83.9781
85.7688
87.3724
88.8601
90.307
91.7828
93.3425
95.0145
96.8036
98.6973
100.673
102.699
104.738
106.71
108.467
109.635
44.1055
51.8012
59.1457
65.8677
71.0942
75.0306
78.0759
80.5315
82.6134
84.4012
85.9877
87.4508
88.8674
90.3119
91.8361
93.4701
95.2184
97.0686
98.9973
100.973
102.962
104.881
106.593
107.73
43.1995
50.6661
57.8153
64.4376
69.6499
73.6067
76.6875
79.1775
81.2771
83.0676
84.6384
86.0801
87.4721
88.8854
90.377
91.9747
93.6836
95.4906
97.3736
99.3011
101.239
103.108
104.775
105.883
42.3135
49.5379
56.4801
62.9975
68.1999
72.1831
75.3064
77.8378
79.9565
81.7564
83.3239
84.75
86.1172
87.5049
88.9652
90.5286
92.1996
93.9661
95.8042
97.683
99.5713
101.388
103.013
104.092
41.3898
48.3516
55.0808
61.4993
66.7113
70.7462
73.9275
76.5051
78.657
80.4733
82.0411
83.455
84.8062
86.1679
87.6004
89.1314
90.7663
92.4917
94.286
96.118
97.9586
99.7266
101.308
102.359
40.472
47.1667
53.6656
59.9794
65.2064
69.2959
72.5399
75.1774
77.362
79.2
80.7837
82.1969
83.5321
84.8762
86.2827
87.7838
89.3837
91.0713
92.823
94.6077
96.3999
98.1167
99.6567
100.68
39.5384
45.9132
52.1568
58.358
63.6195
67.8024
71.136
73.8354
76.0742
77.9497
79.5487
80.967
82.299
83.6245
85.0097
86.4828
88.0504
89.6985
91.4073
93.1468
94.8925
96.5601
98.0599
99.0563
38.5371
44.6178
50.5909
56.6765
61.9817
66.2586
69.6877
72.4827
74.777
76.6894
78.3239
79.7606
81.0924
82.4121
83.7785
85.2269
86.762
88.375
90.0421
91.7336
93.4302
95.0464
96.5038
97.4751
37.5628
43.2542
48.9026
54.8316
60.1913
64.6261
68.2023
71.085
73.4626
75.4439
77.1124
78.5695
79.915
81.2275
82.5821
84.0075
85.5136
87.0868
88.71
90.3553
92.0059
93.57
94.9898
95.9329
36.3463
41.7352
47.0623
52.8418
58.2701
62.8566
66.5887
69.6391
72.1163
74.1568
75.8881
77.3874
78.7469
80.0689
81.4133
82.8199
84.296
85.8368
87.4185
89.0133
90.6118
92.1223
93.499
94.421
35.2206
40.1749
45.0664
50.5929
56.0761
60.9285
64.9234
68.1095
70.7166
72.875
74.6651
76.2037
77.5982
78.9241
80.2668
81.6568
83.1076
84.6076
86.144
87.691
89.2452
90.6992
92.0402
92.9324
33.5804
38.2804
42.7704
48.0506
53.5988
58.67
62.9299
66.4411
69.2377
71.4941
73.3912
75.0078
76.4351
77.7904
79.1333
80.5107
81.9344
83.4051
84.8998
86.3923
87.8871
89.2854
90.5813
91.4572
32.0923
36.344
40.2405
45.0585
50.578
56.1125
60.8898
64.6227
67.642
70.1091
72.1044
73.7842
75.2767
76.6507
78.005
79.3746
80.7766
82.2039
83.6489
85.091
86.5452
87.8775
89.1385
89.9818
30.1603
34.0332
37.2558
41.5662
47.0695
52.808
58.0106
62.4607
65.876
68.5188
70.6987
72.5168
74.0688
75.4998
76.8688
78.2316
79.6094
81.0103
82.4132
83.7939
85.1753
86.4452
87.6603
88.4938
27.6509
31.2974
33.7779
37.0497
42.068
48.7691
55.1657
59.9836
63.8312
66.8925
69.2583
71.1799
72.8429
74.3126
75.7094
77.0775
78.4373
79.7898
81.1332
82.4565
83.8032
84.9948
86.1725
86.9694
24.2058
27.6878
29.3757
31.9554
36.8786
43.0826
50.0198
56.6722
61.4481
64.8743
67.5759
69.7443
71.5129
73.0818
74.515
75.8812
77.2181
78.5458
79.8473
81.0983
82.3501
83.4594
84.595
85.3913
17.82
22.6639
23.9071
22.8688
25.3607
35.1138
45.147
52.4403
58.3038
62.6796
65.795
68.1661
70.125
71.7637
73.2459
74.6372
75.9612
77.2322
78.4537
79.6319
80.856
81.8785
82.9644
83.7178
1.55356
10.7134
11.9626
17.3706
21.4569
14.8869
33.7285
46.3883
54.4538
59.721
63.535
66.3753
68.5372
70.3508
71.9068
73.2997
74.5974
75.842
77.0221
78.1121
79.2073
80.0886
81.1496
81.9212
3.68307
9.10266
17.1978
20.3436
17.3125
16.8656
12.5571
35.6537
48.2362
56.1307
60.9873
64.297
66.8162
68.7547
70.3916
71.8415
73.135
74.3078
75.3688
76.352
77.4247
78.2262
79.2122
79.9223
19.5151
22.0131
21.9747
20.6592
14.4704
15.9676
24.7247
14.2871
40.3309
50.6493
57.3558
61.7267
64.6879
66.9692
68.753
70.2099
71.4645
72.6029
73.6183
74.4856
75.3745
75.8885
76.8836
77.6647
24.7567
28.4807
30.5242
30.8666
29.8251
25.2302
22.1043
25.9767
20.2895
43.7255
53.0256
58.5457
62.2895
64.8033
66.7304
68.2979
69.5592
70.5972
71.4189
72.1061
72.971
73.44
74.3307
74.9912
26.5944
30.7293
33.4685
35.3921
36.1229
34.9212
30.1824
27.1995
28.1154
26.0795
45.4094
54.1368
58.9568
62.241
64.47
66.0626
67.2679
68.2481
68.9931
69.4985
70.0727
69.8977
70.8506
71.7402
27.0315
31.2869
34.3585
36.6857
38.1367
38.5496
37.3046
31.9588
27.7538
8.62106
35.8516
48.0931
55.1318
58.8654
61.3806
63.1854
64.3697
65.1835
65.5826
65.7552
66.2866
66.2024
67.015
67.6156
26.4864
30.9127
34.0524
36.6307
38.5164
39.6298
39.8767
38.74
33.5585
25.998
14.4855
39.5023
48.9
54.6403
57.7993
59.637
60.8179
61.5279
61.7013
61.491
61.4507
59.7528
60.6975
62.0084
24.203
29.0137
32.4346
35.3488
37.6295
39.2516
40.2395
40.5759
39.5689
34.3936
5.23691
20.0544
42.0472
48.5094
52.2818
54.6359
55.4243
55.7734
55.2257
54.5432
54.2665
53.9731
54.0702
54.6095
21.3189
26.4971
30.1102
33.2479
35.8209
37.8173
39.3071
40.3767
40.8572
38.9377
31.9707
28.812
28.2725
41.2405
46.3267
47.8712
49.6577
50.3002
48.6159
46.2845
44.2088
39.3949
40.384
42.8612
18.7023
23.9824
27.5499
30.6893
33.3691
35.6101
37.4885
39.1278
40.4857
41.0013
37.4555
19.1993
3.14605
24.5438
32.0273
38.7222
36.6949
35.0557
30.0379
33.3514
27.4437
41.1349
21.5021
24.0412
16.6626
21.8057
25.1522
28.1178
30.7254
33.0316
35.1156
37.1073
39.0199
40.4742
39.7419
29.6974
20.6836
26.258
32.6279
18.6347
25.6164
30.2131
29.2303
39.4222
35.6318
42.372
24.2659
28.8011
14.8265
19.8453
22.9674
25.7286
28.1999
30.4701
32.6273
34.7848
37.0055
39.0829
39.9053
36.6955
25.5645
27.7404
36.4099
10.7294
28.044
35.6187
30.5898
41.0464
27.7042
32.5732
31.6669
38.9831
13.5339
18.3485
21.2163
23.7415
26.0318
28.1956
30.3254
32.5152
34.8567
37.3104
39.237
38.8534
30.4747
22.0824
31.7953
27.5155
32.6106
29.4716
29.7274
31.6883
39.7106
31.6508
42.8856
39.1606
12.602
17.2407
19.8893
22.2068
24.3223
26.351
28.3852
30.5123
32.8419
35.4436
37.9939
39.3058
36.475
32.3453
29.6786
31.4685
32.7226
34.0382
40.9531
39.7685
44.6655
40.2978
47.1267
44.971
12.0515
16.5461
19.0201
21.1698
23.1326
25.0176
26.9123
28.9051
31.1251
33.7046
36.5382
38.8643
39.0489
37.9933
35.559
37.2006
39.3583
41.6302
44.5581
43.4308
46.0088
44.1903
48.1706
46.66
11.7738
16.1826
18.5464
20.5887
22.4426
24.202
25.9454
27.7664
29.8057
32.2288
35.0712
37.8952
39.5591
39.9018
38.9577
40.1046
42.0423
44.1169
45.6859
44.9693
46.2488
45.9646
47.8694
47.0311
11.7891
16.1532
18.4583
20.4427
22.2263
23.8849
25.4883
27.1306
28.9513
31.1282
33.7854
36.7371
39.2033
40.5126
40.5158
41.4583
43.1443
44.9066
45.8013
45.4246
45.9963
46.238
46.832
46.4791
12.0372
16.3993
18.6958
20.6719
22.4283
24.024
25.5188
27.0003
28.5994
30.4881
32.8294
35.605
38.3421
40.2873
41.0218
41.9037
43.2718
44.6943
45.2885
45.2069
45.4755
45.8747
45.7318
45.6461
12.5044
16.8933
19.218
21.2244
22.9935
24.5676
25.9949
27.3534
28.7603
30.3708
32.3523
34.7749
37.3917
39.5785
40.7759
41.7113
42.8888
44.0794
44.6685
44.9065
45.1144
45.5623
45.1016
45.0987
13.1333
17.5778
19.9625
22.034
23.8529
25.4466
26.8533
28.1414
29.4115
30.7955
32.4457
34.4677
36.7634
38.9019
40.3512
41.4126
42.5373
43.6329
44.3864
44.9403
45.2319
45.7226
45.197
45.1553
13.8762
18.4104
20.8841
23.0472
24.9424
26.5875
28.0158
29.2881
30.489
31.7246
33.1224
34.7938
36.7282
38.6708
40.2115
41.4109
42.5845
43.71
44.6892
45.5259
45.9757
46.5208
46.0491
45.9112
46.5756
44.8722
44.0227
42.3576
41.419
39.7867
38.8339
37.3346
36.2837
34.9055
33.9272
32.7192
31.8679
30.8763
30.0756
29.2156
28.5258
27.9073
27.5371
27.3372
27.0278
27.4977
27.8679
28.448
29.1224
29.9245
30.8375
31.8449
32.7588
33.8985
34.895
36.2924
37.393
38.7881
39.8017
41.3692
42.4416
44.058
44.8926
46.592
55.2029
53.6561
52.8229
51.3779
50.4487
49.0634
48.1611
46.8768
45.8556
44.7193
43.8064
42.8498
42.0774
41.2458
40.4947
39.7182
39.1461
38.6679
38.4365
38.2427
38.1982
38.4859
38.7098
39.1628
39.7594
40.4115
41.2347
42.0874
42.8537
43.8172
44.7171
45.8214
46.888
48.0748
49.0531
50.4051
51.4264
52.8469
53.6696
55.2141
63.2831
61.8141
60.9716
59.6
58.6519
57.3689
56.4029
55.2278
54.2423
53.1981
52.291
51.3834
50.5769
49.803
49.0978
48.4474
47.9155
47.49
47.2081
47.0397
47.0373
47.2256
47.5035
47.9299
48.4654
49.0862
49.8067
50.5877
51.386
52.2993
53.2054
54.2393
55.2278
56.3807
57.3681
58.6391
59.6118
60.9807
61.8218
63.2898
70.3131
68.8285
67.9001
66.5069
65.4907
64.2013
63.1671
61.9955
60.9852
59.9415
59.0063
58.0952
57.2687
56.5006
55.8113
55.2018
54.6916
54.2877
54.0059
53.8536
53.8544
54.01
54.2914
54.6981
55.21
55.8155
56.5062
57.2749
58.0993
59.0112
59.9465
60.9896
61.9984
63.1662
64.2045
65.492
66.5122
67.9048
68.834
70.3176
75.5919
74.053
73.0317
71.5917
70.5029
69.1819
68.0884
66.896
65.8479
64.7883
63.8289
62.9087
62.0729
61.3051
60.6223
60.0272
59.5322
59.1452
58.8767
58.735
58.7355
58.8783
59.1473
59.5362
60.0324
60.6269
61.3097
62.0775
62.9129
63.8333
64.7928
65.8525
66.9002
68.0922
69.1864
70.5073
71.5971
73.0365
74.0586
75.5966
79.51
77.9286
76.8363
75.3655
74.221
72.882
71.7472
70.5434
69.4698
68.403
67.4312
66.5086
65.6711
64.9074
64.2323
63.6488
63.1667
62.793
62.5359
62.4015
62.4018
62.5369
62.7947
63.1697
63.6528
64.2363
64.9115
65.6752
66.5128
67.4356
68.4076
69.4746
70.5481
71.752
72.8869
74.226
75.371
76.8416
77.9343
79.5154
82.4964
80.8891
79.742
78.2575
77.0706
75.7246
74.5618
73.3531
72.2641
71.1944
70.2168
69.2947
68.4583
67.6993
67.0308
66.4559
65.983
65.6185
65.3689
65.2394
65.2397
65.3699
65.6201
65.9857
66.4593
67.0344
67.7031
68.4623
69.2988
70.2212
71.199
72.269
73.358
74.5669
75.7299
77.076
78.263
79.7477
80.895
82.5023
84.8667
83.2439
82.0531
80.5648
79.3481
77.999
76.818
75.6056
74.5068
73.4343
72.4526
71.5301
70.6936
69.9367
69.2713
68.7006
68.2323
67.8723
67.6263
67.499
67.4993
67.6272
67.8739
68.2347
68.7036
69.2747
69.9404
70.6975
71.5342
72.4571
73.439
74.5118
75.6106
76.8233
78.0044
79.3537
80.5705
82.059
83.2499
84.8729
86.9068
85.2661
84.0413
82.5427
81.3037
79.9454
78.7492
77.5283
76.4189
75.3394
74.3502
73.4224
72.5811
71.8207
71.1526
70.5802
70.1107
69.75
69.5035
69.3757
69.376
69.5044
69.7516
70.113
70.583
71.1558
71.8243
72.585
73.4266
74.3547
75.3441
76.4239
77.5335
78.7546
79.9509
81.3096
82.5486
84.0474
85.2724
86.9133
88.7192
87.0504
85.8046
84.2879
83.0318
81.6597
80.4488
79.2164
78.0945
77.0049
76.0052
75.0685
74.2185
73.4505
72.7755
72.197
71.7223
71.3573
71.1075
70.9773
70.9777
71.1084
71.3589
71.7246
72.1998
72.7787
73.4541
74.2224
75.0727
76.0098
77.0097
78.0996
79.2218
80.4544
81.6655
83.0377
84.2941
85.8109
87.057
88.7259
90.3726
88.6743
87.4101
85.8732
84.5993
83.2111
81.9837
80.7369
79.5999
78.4969
77.4837
76.5345
75.6724
74.8932
74.2076
73.6194
73.1361
72.7639
72.5084
72.3746
72.3749
72.5094
72.7655
73.1383
73.6221
74.2107
74.8967
75.6764
76.5388
77.4883
78.5018
79.6052
80.7423
81.9894
83.217
84.6055
85.8796
87.4167
88.6811
90.3795
91.9263
90.1968
88.917
87.357
86.0658
84.6585
83.4138
82.1498
80.9962
79.8769
78.8479
77.8835
77.0066
76.2132
75.5141
74.9134
74.4189
74.0371
73.7743
73.6355
73.6359
73.7753
74.0387
74.4211
74.9161
75.5173
76.2168
77.0106
77.8879
78.8527
79.882
81.0015
82.1554
83.4198
84.6646
86.0723
87.3636
88.9239
90.2038
91.9336
93.4485
91.6861
90.392
88.8067
87.4981
86.0695
84.8065
83.5231
82.3512
81.2138
80.1669
79.1851
78.2911
77.4812
76.7661
76.1506
75.6425
75.2492
74.9774
74.833
74.8333
74.9785
75.2508
75.6448
76.1533
76.7694
77.4849
78.2952
79.1896
80.1718
81.219
82.3567
83.5289
84.8126
86.0759
87.5048
88.8135
90.3992
91.6934
93.4561
95.0069
93.2093
91.9012
90.2882
88.9614
87.5095
86.2266
84.922
83.73
82.5724
81.5058
80.5044
79.5913
78.7627
78.0295
77.3967
76.873
76.4661
76.1839
76.0328
76.0332
76.185
76.4678
76.8753
77.3996
78.0329
78.7665
79.5956
80.5091
81.5108
82.5778
83.7357
84.928
86.233
87.5161
88.9684
90.2954
91.9086
93.2169
95.0148
96.6537
94.8191
93.4954
91.8529
90.5061
89.0287
87.7241
86.3962
85.1821
84.0023
82.9139
81.8909
80.9566
80.1069
79.3533
78.701
78.1592
77.7366
77.4424
77.2837
77.2841
77.4435
77.7385
78.1616
78.704
79.3568
80.1109
80.961
81.8958
82.9191
84.0079
85.1881
86.4025
87.7308
89.0356
90.5134
91.8604
93.5033
94.8271
96.662
98.4181
96.5443
95.2034
93.5289
92.1602
90.6551
89.3268
87.9733
86.7352
85.5309
84.4187
83.372
82.4141
81.5412
80.7647
80.0904
79.528
79.0873
78.779
78.6116
78.6121
78.7802
79.0893
79.5306
80.0936
80.7685
81.5454
82.4188
83.3772
84.4242
85.5369
86.7416
87.98
89.3339
90.6625
92.168
93.5369
95.2118
96.5528
98.4272
100.306
98.3906
97.0309
95.3226
93.9302
92.3954
91.0416
89.6606
88.3965
87.1659
86.0278
84.9554
83.9719
83.0735
82.2719
81.5729
80.9871
80.5256
80.2007
80.0232
80.0238
80.2021
80.5278
80.99
81.5764
82.276
83.0781
83.977
84.961
86.0338
87.1723
88.4033
89.6679
91.0493
92.4036
93.9387
95.3315
97.0403
98.4002
100.316
102.305
100.348
98.9678
97.2244
95.8067
94.2413
92.8601
91.4507
90.1589
88.9005
87.7351
86.6355
85.6247
84.699
83.8701
83.1439
82.5318
82.0463
81.702
81.5126
81.5132
81.7035
82.0487
82.535
83.1478
83.8746
84.7041
85.6303
86.6417
87.7418
88.9077
90.1666
91.4588
92.8692
94.2505
95.8165
97.2343
98.9783
100.358
102.316
104.392
102.393
100.993
99.2139
97.7709
96.1742
94.7654
93.3262
92.0064
90.7193
89.5259
88.3978
87.3588
86.4043
85.5464
84.7909
84.1496
83.6365
83.2692
83.0654
83.0661
83.271
83.6392
84.1532
84.7953
85.5515
86.4103
87.3652
88.4052
89.5334
90.7277
92.0152
93.3355
94.7752
96.1846
97.7823
99.2259
101.005
102.406
104.406
106.536
104.496
103.076
101.263
99.7946
98.167
96.7306
95.2623
93.9143
92.5991
91.3774
90.2211
89.153
88.1697
87.2811
86.4944
85.8211
85.2766
84.8818
84.6604
84.6613
84.8839
85.28
85.8257
86.4999
87.2874
88.1765
89.1606
90.2296
91.3864
92.609
93.9251
95.2736
96.7429
98.1803
99.8089
101.278
103.092
104.513