/*--------------------------------*- C++ -*----------------------------------*\
  =========                 |
  \\      /  F ield         | OpenFOAM: The Open Source CFD Toolbox
   \\    /   O peration     | Website:  https://openfoam.org
    \\  /    A nd           | Version:  6
     \\/     M anipulation  |
\*---------------------------------------------------------------------------*/
FoamFile
{
    version     2.0;
    format      ascii;
    class       volVectorField;
    location    "4";
    object      wallShearStress;
}
// * * * * * * * * * * * * * * * * * * * * * * * * * * * * * * * * * * * * * //

dimensions      [0 2 -2 0 0 0 0];

internalField   uniform (0 0 0);

boundaryField
{
    inlet
    {
        type            calculated;
        value           uniform (0 0 0);
    }
    outlet
    {
        type            calculated;
        value           uniform (0 0 0);
    }
    roughCylinder
    {
        type            calculated;
        value           nonuniform List<vector> 
5120
(
(-0.000255864 -0.000362735 -0.000182425)
(-0.000313172 -0.000468259 -3.88369e-05)
(-0.000348739 -0.000562128 4.47106e-06)
(-0.00039677 -0.000650698 6.0559e-05)
(-0.000455562 -0.00072606 0.000123822)
(-0.000521282 -0.000783937 0.000186254)
(-0.000590086 -0.000822049 0.000243531)
(-0.000657064 -0.000841224 0.000292997)
(-0.000718241 -0.000844425 0.00033272)
(-0.000772474 -0.000837845 0.000362597)
(-0.000820734 -0.000831385 0.000385359)
(-0.00086191 -0.000827025 0.000401526)
(-0.000894997 -0.000826765 0.000410688)
(-0.000922845 -0.000831354 0.000413667)
(-0.000946539 -0.000840344 0.000411652)
(-0.00096748 -0.000852935 0.000405653)
(-0.000987003 -0.000868389 0.000396687)
(-0.00100626 -0.000886079 0.000385573)
(-0.00102609 -0.000905583 0.000372908)
(-0.00104707 -0.000926623 0.000359047)
(-0.00106945 -0.000949036 0.000344132)
(-0.00109331 -0.0009727 0.000328151)
(-0.00111855 -0.000997476 0.000310979)
(-0.00114501 -0.0010232 0.000292402)
(-0.0011724 -0.00104961 0.000272129)
(-0.0012004 -0.00107641 0.000249799)
(-0.00122858 -0.00110313 0.000224878)
(-0.00125642 -0.0011292 0.000196696)
(-0.00128308 -0.00115373 0.00016404)
(-0.00130742 -0.00117563 0.000125595)
(-0.00132669 -0.00119307 7.91936e-05)
(-0.00133806 -0.00120376 2.6616e-05)
(-0.000275854 -0.000352432 -0.00017324)
(-0.000336526 -0.000455485 -4.15131e-05)
(-0.000374779 -0.000548358 -1.33169e-06)
(-0.000425047 -0.000636934 5.16593e-05)
(-0.000485672 -0.000713486 0.000112677)
(-0.000553054 -0.000773156 0.000173673)
(-0.000623307 -0.000813247 0.000230074)
(-0.00069187 -0.000834604 0.000279082)
(-0.000755567 -0.000840942 0.000319002)
(-0.000813599 -0.000838996 0.000350357)
(-0.000865779 -0.00083573 0.000375058)
(-0.000910559 -0.000832226 0.000393071)
(-0.000945161 -0.000830072 0.000402843)
(-0.000974297 -0.000833727 0.00040619)
(-0.000999289 -0.000842111 0.000404403)
(-0.00102147 -0.000854396 0.000398557)
(-0.00104223 -0.00086974 0.000389714)
(-0.00106274 -0.000887436 0.000378728)
(-0.00108387 -0.000906997 0.000366224)
(-0.00110617 -0.00092811 0.000352571)
(-0.00112993 -0.000950583 0.000337924)
(-0.0011552 -0.000974278 0.00032227)
(-0.00118189 -0.000999057 0.000305472)
(-0.0012098 -0.00102474 0.00028732)
(-0.00123864 -0.00105109 0.000267514)
(-0.00126806 -0.00107777 0.000245685)
(-0.00129762 -0.00110434 0.000221295)
(-0.00132676 -0.00113023 0.000193675)
(-0.00135463 -0.00115455 0.000161605)
(-0.00138001 -0.00117624 0.000123788)
(-0.00140009 -0.00119349 7.80463e-05)
(-0.00141203 -0.00120411 2.62013e-05)
(-0.000296157 -0.000337156 -0.000156937)
(-0.000359871 -0.000437462 -4.47467e-05)
(-0.000400615 -0.000528603 -7.81462e-06)
(-0.00045273 -0.000616525 4.18907e-05)
(-0.000514886 -0.000693748 0.0001004)
(-0.000583774 -0.000754973 0.00015977)
(-0.000655589 -0.00079727 0.000215261)
(-0.000726193 -0.000821633 0.000264052)
(-0.000792969 -0.000832073 0.000304724)
(-0.000854874 -0.000834672 0.000337763)
(-0.000910746 -0.000834285 0.000364144)
(-0.000958469 -0.000831794 0.000383405)
(-0.000995622 -0.000828416 0.000393948)
(-0.00102608 -0.00083097 0.000397705)
(-0.00105243 -0.000838587 0.000396137)
(-0.00107592 -0.000850429 0.000390484)
(-0.00109797 -0.000865517 0.000381803)
(-0.00111979 -0.000883074 0.000370995)
(-0.00114224 -0.000902548 0.000358708)
(-0.00116591 -0.00092358 0.000345318)
(-0.00119107 -0.000945962 0.00033099)
(-0.00121777 -0.000969529 0.000315714)
(-0.0012459 -0.000994137 0.000299349)
(-0.00127524 -0.00101961 0.000281676)
(-0.0013055 -0.00104569 0.000262392)
(-0.00133631 -0.00107207 0.00024112)
(-0.0013672 -0.00109831 0.000217318)
(-0.0013976 -0.00112382 0.000190319)
(-0.0014266 -0.00114777 0.000158896)
(-0.00145299 -0.00116909 0.000121777)
(-0.00147382 -0.00118602 7.67654e-05)
(-0.00148631 -0.0011965 2.57377e-05)
(-0.000314624 -0.000317742 -0.000136044)
(-0.000381042 -0.000414844 -4.80804e-05)
(-0.000423894 -0.000503578 -1.45803e-05)
(-0.000477335 -0.000590277 3.16742e-05)
(-0.000540666 -0.000667757 8.74411e-05)
(-0.000610946 -0.000730456 0.000144956)
(-0.000684524 -0.000775287 0.000199441)
(-0.000757588 -0.000803276 0.000248113)
(-0.000827678 -0.000818249 0.00028971)
(-0.000893311 -0.000825165 0.000324416)
(-0.00095267 -0.000827405 0.000352336)
(-0.00100337 -0.000826006 0.000372609)
(-0.00104393 -0.000822612 0.000384266)
(-0.0010759 -0.000823718 0.000388473)
(-0.00110366 -0.000830451 0.000387154)
(-0.00112853 -0.000841711 0.000381733)
(-0.00115194 -0.000856433 0.00037327)
(-0.00117511 -0.000873749 0.0003627)
(-0.00119892 -0.000893027 0.000350677)
(-0.00122396 -0.000913874 0.000337606)
(-0.0012505 -0.00093604 0.000323648)
(-0.00127859 -0.000959354 0.000308797)
(-0.0013081 -0.00098366 0.000292909)
(-0.00133882 -0.00100878 0.00027576)
(-0.00137042 -0.00103445 0.000257037)
(-0.00140251 -0.00106037 0.000236356)
(-0.00143462 -0.00108611 0.000213175)
(-0.00146615 -0.00111111 0.000186824)
(-0.00149618 -0.00113453 0.000156077)
(-0.00152344 -0.00115535 0.000119685)
(-0.00154494 -0.00117186 7.54305e-05)
(-0.00155794 -0.00118214 2.52519e-05)
(-0.000330722 -0.000294964 -0.000112819)
(-0.000399454 -0.000388304 -5.12075e-05)
(-0.000443926 -0.000474002 -2.13069e-05)
(-0.000498136 -0.000558886 2.13339e-05)
(-0.000562255 -0.000636156 7.40929e-05)
(-0.000633802 -0.000700179 0.000129469)
(-0.000709297 -0.000747729 0.000182767)
(-0.000785101 -0.00077964 0.000231293)
(-0.000858607 -0.000799141 0.000273802)
(-0.000927805 -0.000809995 0.000310031)
(-0.000990508 -0.000814646 0.00033938)
(-0.00104443 -0.000814519 0.000360683)
(-0.00108857 -0.000811903 0.000373539)
(-0.00112285 -0.00081141 0.00037837)
(-0.00115213 -0.000817144 0.000377451)
(-0.00117849 -0.000827663 0.00037234)
(-0.00120332 -0.000841869 0.000364169)
(-0.00122786 -0.000858801 0.000353896)
(-0.00125304 -0.000877753 0.000342202)
(-0.00127943 -0.000898279 0.000329504)
(-0.00130731 -0.000920091 0.000315972)
(-0.00133672 -0.000943008 0.000301597)
(-0.00136753 -0.000966856 0.000286232)
(-0.0013995 -0.000991453 0.000269645)
(-0.00143231 -0.00101656 0.000251517)
(-0.00146556 -0.00104186 0.000231462)
(-0.00149876 -0.00106695 0.000208926)
(-0.00153127 -0.00109126 0.00018325)
(-0.00156219 -0.00111401 0.000153199)
(-0.00159019 -0.0011342 0.000117553)
(-0.00161223 -0.0011502 7.40645e-05)
(-0.0016257 -0.0011602 2.47508e-05)
(-0.00034389 -0.000269632 -8.87326e-05)
(-0.000414531 -0.000358731 -5.39516e-05)
(-0.000460129 -0.00044086 -2.7784e-05)
(-0.000514575 -0.000523415 1.10624e-05)
(-0.000579125 -0.000600091 6.05235e-05)
(-0.000651854 -0.000665337 0.000113456)
(-0.000729414 -0.000715734 0.00016537)
(-0.000808122 -0.000751596 0.000213664)
(-0.000885045 -0.00077531 0.000256963)
(-0.000957711 -0.000789614 0.000294511)
(-0.00102376 -0.000796466 0.000325178)
(-0.00108108 -0.000797657 0.0003476)
(-0.00112866 -0.000795918 0.000361481)
(-0.00116653 -0.000794778 0.000367349)
(-0.00119753 -0.000798981 0.000366978)
(-0.00122547 -0.000808509 0.000362263)
(-0.0012518 -0.000822015 0.000354476)
(-0.00127776 -0.0008384 0.000344584)
(-0.00130431 -0.000856882 0.000333294)
(-0.00133203 -0.000876939 0.000321038)
(-0.00136121 -0.000898258 0.00030799)
(-0.00139187 -0.000920629 0.000294144)
(-0.00142389 -0.000943872 0.000279351)
(-0.00145701 -0.0009678 0.00026337)
(-0.00149089 -0.000992178 0.000245874)
(-0.00152513 -0.0010167 0.00022647)
(-0.00155923 -0.00104097 0.000204605)
(-0.00159255 -0.00106444 0.00017962)
(-0.00162416 -0.00108636 0.000150278)
(-0.00165273 -0.0011058 0.000115392)
(-0.00167517 -0.00112117 7.26744e-05)
(-0.00168906 -0.00113086 2.42357e-05)
(-0.000353717 -0.00024264 -6.48932e-05)
(-0.000425756 -0.000327006 -5.62238e-05)
(-0.000471899 -0.000405054 -3.38676e-05)
(-0.000525955 -0.000484727 1.00806e-06)
(-0.000590425 -0.000560311 4.6841e-05)
(-0.000664035 -0.000626471 9.69549e-05)
(-0.000743544 -0.000679551 0.000147185)
(-0.000825149 -0.000719182 0.000195036)
(-0.000905532 -0.000746808 0.000238931)
(-0.000981806 -0.000764287 0.000277622)
(-0.00105142 -0.00077327 0.000309535)
(-0.00111237 -0.000775836 0.000333154)
(-0.00116362 -0.000774987 0.000348089)
(-0.00120541 -0.000774012 0.000355129)
(-0.00123914 -0.000776525 0.000355586)
(-0.00126887 -0.000784861 0.000351466)
(-0.00129682 -0.000797416 0.000344166)
(-0.00132428 -0.000813052 0.000334749)
(-0.00135223 -0.000830881 0.00032395)
(-0.00138126 -0.000850329 0.000312211)
(-0.00141167 -0.000871012 0.000299715)
(-0.00144349 -0.000892702 0.00028646)
(-0.00147658 -0.000915208 0.000272288)
(-0.00151069 -0.000938342 0.000256953)
(-0.00154547 -0.000961864 0.000240124)
(-0.00158052 -0.000985484 0.000221401)
(-0.00161535 -0.00100883 0.000200229)
(-0.00164929 -0.00103136 0.000175954)
(-0.00168142 -0.00105237 0.000147337)
(-0.00171039 -0.00107093 0.000113221)
(-0.00173308 -0.0010856 7.1269e-05)
(-0.00174734 -0.00109492 2.37083e-05)
(-0.00035941 -0.000214356 -4.20549e-05)
(-0.000432335 -0.0002936 -5.79299e-05)
(-0.000478468 -0.000367112 -3.94169e-05)
(-0.000531522 -0.000443407 -8.68772e-06)
(-0.000595396 -0.000517436 3.31828e-05)
(-0.000669601 -0.000584226 8.00937e-05)
(-0.000751006 -0.000639832 0.000128312)
(-0.000835512 -0.00068302 0.000175444)
(-0.000919346 -0.000714194 0.000219668)
(-0.00099925 -0.000734503 0.000259253)
(-0.00107257 -0.000745497 0.000292296)
(-0.00113734 -0.000749459 0.000317167)
(-0.00119248 -0.000749507 0.000333316)
(-0.00123819 -0.000748955 0.000341507)
(-0.00127593 -0.000750789 0.000343182)
(-0.00130782 -0.000757176 0.000339826)
(-0.00133754 -0.00076851 0.000333172)
(-0.00136661 -0.000783234 0.000324361)
(-0.001396 -0.000800265 0.000314158)
(-0.00142632 -0.000818944 0.000303023)
(-0.00145791 -0.000838861 0.00029116)
(-0.00149079 -0.000859739 0.000278562)
(-0.00152482 -0.000881379 0.000265067)
(-0.00155975 -0.000903589 0.000250425)
(-0.00159524 -0.000926125 0.000234298)
(-0.00163086 -0.000948712 0.000216278)
(-0.00166615 -0.00097099 0.000195816)
(-0.00170045 -0.000992445 0.000172263)
(-0.00173285 -0.0010124 0.000144379)
(-0.00176196 -0.00103008 0.000111043)
(-0.00178472 -0.00104404 6.98499e-05)
(-0.00179928 -0.00105301 2.3168e-05)
(-0.000360845 -0.000185521 -2.08457e-05)
(-0.00043404 -0.000259289 -5.90602e-05)
(-0.000479548 -0.000327878 -4.43534e-05)
(-0.000530884 -0.000400268 -1.78734e-05)
(-0.000593423 -0.000472119 1.97281e-05)
(-0.000667586 -0.000538928 6.29954e-05)
(-0.000750397 -0.000596529 0.000108737)
(-0.000837508 -0.000642803 0.000154721)
(-0.000924784 -0.000677233 0.000198904)
(-0.00100861 -0.000700312 0.000239159)
(-0.00108602 -0.000713368 0.000273252)
(-0.00115493 -0.00071881 0.000299413)
(-0.00121424 -0.000719815 0.000316959)
(-0.00126405 -0.000719705 0.00032647)
(-0.00130566 -0.000721353 0.000329367)
(-0.00134124 -0.000726575 0.000327211)
(-0.00137318 -0.000736193 0.000321447)
(-0.00140395 -0.000749458 0.000313369)
(-0.00143482 -0.000765364 0.000303887)
(-0.00146642 -0.000783129 0.000293475)
(-0.0014991 -0.000802138 0.000282332)
(-0.0015329 -0.000822137 0.00027047)
(-0.00156768 -0.000842907 0.000257719)
(-0.00160319 -0.0008642 0.00024382)
(-0.00163913 -0.000885806 0.000228437)
(-0.00167508 -0.000907439 0.000211154)
(-0.00171059 -0.00092874 0.000191428)
(-0.00174499 -0.000949214 0.00016861)
(-0.00177742 -0.000968209 0.000141466)
(-0.00180632 -0.000984909 0.000108898)
(-0.00182881 -0.000998073 6.84322e-05)
(-0.00184352 -0.0010066 2.26168e-05)
(-0.000357141 -0.000156448 -1.70991e-06)
(-0.000429982 -0.000224393 -5.95544e-05)
(-0.000474274 -0.000287768 -4.85374e-05)
(-0.000523193 -0.000355755 -2.63714e-05)
(-0.00058365 -0.000424815 6.68414e-06)
(-0.000657198 -0.000491096 4.58694e-05)
(-0.000741157 -0.000550322 8.86468e-05)
(-0.000830872 -0.00059945 0.000133024)
(-0.000921622 -0.000636889 0.000176753)
(-0.00100936 -0.000662486 0.000217343)
(-0.00109098 -0.000677488 0.000252315)
(-0.00116427 -0.000684358 0.000279748)
(-0.001228 -0.000686326 0.000298807)
(-0.00128213 -0.000686678 0.000309857)
(-0.00132778 -0.000688214 0.000314168)
(-0.00136694 -0.000692736 0.000313295)
(-0.00140197 -0.000701046 0.000308711)
(-0.00143522 -0.000712974 0.00030171)
(-0.00146791 -0.000727665 0.000293193)
(-0.00150075 -0.000744276 0.000283628)
(-0.00153444 -0.000762274 0.000273313)
(-0.00156891 -0.000781252 0.000262253)
(-0.00160403 -0.000800966 0.000250272)
(-0.00163968 -0.000821179 0.000237127)
(-0.00167551 -0.000841663 0.00022248)
(-0.00171115 -0.000862133 0.000205917)
(-0.00174623 -0.00088226 0.000186908)
(-0.00178007 -0.000901563 0.000164813)
(-0.00181192 -0.000919414 0.000138409)
(-0.00184024 -0.000935001 0.000106635)
(-0.00186222 -0.000947283 6.69199e-05)
(-0.00187701 -0.000955274 2.20205e-05)
(-0.000348143 -0.000127944 1.48856e-05)
(-0.000420405 -0.000189741 -5.95497e-05)
(-0.000462701 -0.00024784 -5.19329e-05)
(-0.000508485 -0.000310909 -3.40024e-05)
(-0.000565903 -0.000376461 -5.68427e-06)
(-0.000637821 -0.000441344 2.89767e-05)
(-0.000722009 -0.000501336 6.81653e-05)
(-0.000813643 -0.000552638 0.00011026)
(-0.000907683 -0.00059279 0.000152974)
(-0.000999713 -0.000621016 0.000193566)
(-0.00108609 -0.000638146 0.000229281)
(-0.00116425 -0.000646554 0.00025799)
(-0.00123279 -0.000649497 0.00027866)
(-0.00129154 -0.000650297 0.000291446)
(-0.00134142 -0.000651707 0.000297405)
(-0.00138432 -0.0006556 0.000298031)
(-0.00142253 -0.000662892 0.000294817)
(-0.00145825 -0.000673634 0.000289075)
(-0.00149276 -0.000687061 0.000281677)
(-0.00152693 -0.000702411 0.000273131)
(-0.00156145 -0.000719217 0.000263758)
(-0.00159636 -0.000736987 0.00025358)
(-0.00163159 -0.000755426 0.000242433)
(-0.00166704 -0.000774333 0.000230084)
(-0.00170245 -0.000793477 0.000216213)
(-0.00173749 -0.000812593 0.000200401)
(-0.00177183 -0.000831366 0.000182141)
(-0.00180481 -0.000849336 0.000160802)
(-0.00183583 -0.000865942 0.000135175)
(-0.00186331 -0.00088038 0.000104243)
(-0.00188448 -0.000891704 6.53015e-05)
(-0.0018994 -0.00089914 2.13746e-05)
(-0.000331607 -9.98367e-05 2.86375e-05)
(-0.000404975 -0.000156062 -5.87645e-05)
(-0.000444039 -0.000208422 -5.44922e-05)
(-0.000485753 -0.000266084 -4.05539e-05)
(-0.000539097 -0.000327371 -1.70596e-05)
(-0.000608419 -0.000390017 1.26563e-05)
(-0.000692322 -0.000450211 4.76195e-05)
(-0.000785886 -0.000503499 8.67654e-05)
(-0.000883321 -0.000546287 0.000127869)
(-0.000979506 -0.000576948 0.000167969)
(-0.00107063 -0.000596098 0.000204125)
(-0.00115387 -0.000605993 0.000234006)
(-0.00122758 -0.000609864 0.000256341)
(-0.00129129 -0.000611035 0.000271025)
(-0.00134579 -0.000612304 0.000278893)
(-0.00139269 -0.000615556 0.000281281)
(-0.00143419 -0.000621825 0.000279663)
(-0.00147244 -0.000631301 0.000275352)
(-0.0015088 -0.00064338 0.000269238)
(-0.00154421 -0.000657362 0.000261862)
(-0.00157945 -0.000672825 0.000253567)
(-0.00161464 -0.000689232 0.000244381)
(-0.00164979 -0.000706291 0.000234161)
(-0.00168485 -0.000723795 0.000222688)
(-0.00171957 -0.000741494 0.000209649)
(-0.00175364 -0.000759139 0.000194626)
(-0.00178685 -0.000776433 0.000177145)
(-0.00181855 -0.000792962 0.00015659)
(-0.00184826 -0.000808195 0.000131773)
(-0.00187443 -0.000821396 0.00010172)
(-0.00189453 -0.00083174 6.35727e-05)
(-0.00190944 -0.000838526 2.06739e-05)
(-0.000308585 -7.31767e-05 3.95436e-05)
(-0.000383404 -0.000124251 -5.72295e-05)
(-0.0004191 -0.00017068 -5.614e-05)
(-0.000455888 -0.000222681 -4.58634e-05)
(-0.000504078 -0.000279005 -2.70923e-05)
(-0.000569434 -0.00033835 -2.62404e-06)
(-0.000651554 -0.000397557 2.74125e-05)
(-0.000745671 -0.000451804 6.26977e-05)
(-0.000845844 -0.000496779 0.000101355)
(-0.000946605 -0.00053013 0.000140427)
(-0.00104314 -0.000551648 0.000176734)
(-0.00113212 -0.000563273 0.000207694)
(-0.00121149 -0.000568128 0.000231741)
(-0.00128061 -0.000569604 0.000248476)
(-0.00133998 -0.000570575 0.00025846)
(-0.00139117 -0.000573079 0.00026288)
(-0.00143625 -0.000578265 0.000263135)
(-0.00147725 -0.00058643 0.000260509)
(-0.00151552 -0.000597049 0.000255888)
(-0.00155218 -0.000609559 0.000249865)
(-0.00158801 -0.000623537 0.000242791)
(-0.00162326 -0.000638457 0.000234711)
(-0.00165798 -0.000654 0.0002255)
(-0.00169221 -0.00066995 0.000214956)
(-0.00172578 -0.000686093 0.000202793)
(-0.00175846 -0.000702181 0.000188594)
(-0.00179017 -0.000717957 0.000171929)
(-0.00182022 -0.00073301 0.000152194)
(-0.00184835 -0.000746883 0.000128231)
(-0.00187289 -0.000758889 9.90987e-05)
(-0.00189156 -0.000768231 6.17474e-05)
(-0.00190659 -0.000774387 1.99217e-05)
(-0.000278711 -4.87791e-05 4.7387e-05)
(-0.000354194 -9.43954e-05 -5.47984e-05)
(-0.000386654 -0.000134961 -5.66453e-05)
(-0.000417814 -0.000180978 -4.96216e-05)
(-0.000459526 -0.000231497 -3.53458e-05)
(-0.000519406 -0.000286383 -1.6305e-05)
(-0.000598754 -0.000343709 8.14225e-06)
(-0.000693396 -0.00039871 3.8683e-05)
(-0.000796482 -0.000445931 7.40364e-05)
(-0.000901317 -0.000481749 0.000111309)
(-0.00100307 -0.000505576 0.000147241)
(-0.00109785 -0.000518937 0.000178995)
(-0.00118327 -0.000524817 0.000204707)
(-0.00125824 -0.000526563 0.000223614)
(-0.00132307 -0.000527196 0.000235976)
(-0.00137899 -0.00052885 0.000242731)
(-0.00142788 -0.000532805 0.000245148)
(-0.0014717 -0.000539477 0.000244463)
(-0.00151197 -0.000548519 0.000241585)
(-0.0015498 -0.000559426 0.000237118)
(-0.00158611 -0.000571821 0.000231433)
(-0.0016212 -0.000585167 0.000224593)
(-0.00165527 -0.000599155 0.000216494)
(-0.00168844 -0.000613557 0.00020696)
(-0.00172054 -0.000628136 0.000195729)
(-0.00175143 -0.000642655 0.000182384)
(-0.00178113 -0.000656865 0.000166551)
(-0.00180898 -0.000670416 0.000147647)
(-0.00183492 -0.000682873 0.000124556)
(-0.00185723 -0.000693656 9.63709e-05)
(-0.00187416 -0.000702026 5.9813e-05)
(-0.00188917 -0.000707472 1.91079e-05)
(-0.000243385 -2.77357e-05 5.20852e-05)
(-0.000318146 -6.74268e-05 -5.15357e-05)
(-0.000347909 -0.000102462 -5.60762e-05)
(-0.000373552 -0.000142589 -5.18253e-05)
(-0.000408145 -0.000186914 -4.15636e-05)
(-0.000461088 -0.000236335 -2.78021e-05)
(-0.000535424 -0.000290206 -9.42327e-06)
(-0.000627889 -0.000344252 1.53532e-05)
(-0.000732205 -0.00039282 4.62477e-05)
(-0.00084159 -0.000431509 8.0852e-05)
(-0.000949217 -0.000458163 0.000115809)
(-0.00105057 -0.000473727 0.000148052)
(-0.00114261 -0.00048085 0.000175327)
(-0.00122394 -0.000482914 0.000196484)
(-0.00129445 -0.000483041 0.000211395)
(-0.00135532 -0.000483647 0.000220749)
(-0.00140834 -0.000486217 0.000225651)
(-0.00145533 -0.000491295 0.000227239)
(-0.00149768 -0.000498628 0.000226379)
(-0.00153669 -0.00050784 0.000223703)
(-0.00157329 -0.000518554 0.00021958)
(-0.00160794 -0.000530262 0.000214107)
(-0.00164091 -0.000542627 0.000207196)
(-0.00167245 -0.000555419 0.000198711)
(-0.00170254 -0.000568408 0.000188442)
(-0.00173111 -0.000581375 0.000175967)
(-0.0017584 -0.000594089 0.000160996)
(-0.00178367 -0.000606221 0.000142949)
(-0.00180718 -0.000617401 0.000120773)
(-0.00182693 -0.000627092 9.35698e-05)
(-0.00184172 -0.000634544 5.77815e-05)
(-0.00185693 -0.000639319 1.82353e-05)
(-0.000202384 -1.05617e-05 5.34066e-05)
(-0.000274484 -4.38038e-05 -4.72222e-05)
(-0.000301883 -7.34054e-05 -5.41838e-05)
(-0.000322 -0.000107538 -5.22086e-05)
(-0.000348327 -0.000144987 -4.52529e-05)
(-0.000392162 -0.000187527 -3.62814e-05)
(-0.000459772 -0.000236596 -2.41926e-05)
(-0.00055006 -0.000289354 -6.13322e-06)
(-0.000655729 -0.000339287 1.90713e-05)
(-0.000768059 -0.000380275 4.97957e-05)
(-0.00088105 -0.000409821 8.28874e-05)
(-0.000988832 -0.000427772 0.000115008)
(-0.00108778 -0.000436411 0.000143565)
(-0.00117594 -0.000438976 0.000166952)
(-0.00125295 -0.00043876 0.000184631)
(-0.00131945 -0.000438337 0.000196903)
(-0.00137693 -0.000439394 0.000204619)
(-0.0014271 -0.000442673 0.00020878)
(-0.0014716 -0.000448169 0.000210233)
(-0.00151167 -0.000455575 0.000209581)
(-0.0015484 -0.000464565 0.000207217)
(-0.00158236 -0.000474628 0.000203253)
(-0.00161399 -0.000485425 0.000197632)
(-0.00164368 -0.000496714 0.000190273)
(-0.00167141 -0.000508223 0.000181011)
(-0.00169722 -0.000519748 0.000169426)
(-0.00172152 -0.000531023 0.000155312)
(-0.00174355 -0.000541801 0.00013812)
(-0.00176386 -0.000551695 0.000116865)
(-0.0017803 -0.000560344 9.06612e-05)
(-0.00179256 -0.000566959 5.56217e-05)
(-0.00180787 -0.000570989 1.72857e-05)
(-0.000157726 2.06256e-06 5.15973e-05)
(-0.000225015 -2.44427e-05 -4.19465e-05)
(-0.000250766 -4.87623e-05 -5.1115e-05)
(-0.000266668 -7.72816e-05 -5.10388e-05)
(-0.000285687 -0.00010818 -4.65567e-05)
(-0.00032022 -0.00014357 -4.14773e-05)
(-0.000378205 -0.00018615 -3.53546e-05)
(-0.000460667 -0.000234441 -2.45736e-05)
(-0.000563958 -0.000283853 -6.28231e-06)
(-0.000680275 -0.000327874 1.92153e-05)
(-0.000798767 -0.000360822 4.92768e-05)
(-0.000913545 -0.000381898 8.05505e-05)
(-0.00101993 -0.000392574 0.000109959)
(-0.00111533 -0.000395947 0.000135418)
(-0.00119877 -0.000395372 0.00015587)
(-0.00127089 -0.000393805 0.000171234)
(-0.00133303 -0.000393252 0.000182063)
(-0.00138681 -0.000394711 0.000189164)
(-0.00143352 -0.000398288 0.000193237)
(-0.00147464 -0.000403855 0.000194876)
(-0.00151125 -0.000411088 0.000194454)
(-0.00154413 -0.000419515 0.00019212)
(-0.00157385 -0.00042877 0.000187847)
(-0.00160097 -0.000438559 0.000181625)
(-0.00162568 -0.000448656 0.000173382)
(-0.00164809 -0.000458828 0.000162679)
(-0.00166898 -0.000468836 0.00014944)
(-0.00168742 -0.000478449 0.000133126)
(-0.0017044 -0.000487319 0.000112847)
(-0.00171723 -0.000495139 8.7679e-05)
(-0.00172659 -0.000501048 5.33447e-05)
(-0.00174229 -0.000504369 1.62609e-05)
(-0.000109839 1.01287e-05 4.68799e-05)
(-0.000169661 -9.44598e-06 -3.54711e-05)
(-0.000194117 -2.83119e-05 -4.64794e-05)
(-0.000206691 -5.10692e-05 -4.79998e-05)
(-0.000217724 -7.46554e-05 -4.51072e-05)
(-0.000239619 -0.000100825 -4.23056e-05)
(-0.000284698 -0.000134812 -4.07151e-05)
(-0.000362432 -0.000179684 -3.76822e-05)
(-0.000463232 -0.000228604 -2.81653e-05)
(-0.000577919 -0.000273636 -9.53423e-06)
(-0.000701166 -0.000310469 1.61756e-05)
(-0.000822513 -0.000335152 4.53523e-05)
(-0.000936332 -0.000348565 7.48217e-05)
(-0.00103936 -0.000353377 0.00010196)
(-0.00113031 -0.00035307 0.000125178)
(-0.00120896 -0.000350732 0.000143837)
(-0.00127622 -0.000348692 0.000158069)
(-0.00133344 -0.000348241 0.000168381)
(-0.00138234 -0.000349876 0.000175371)
(-0.00142425 -0.000353571 0.000179534)
(-0.0014605 -0.000359093 0.000181246)
(-0.00149201 -0.000365976 0.000180677)
(-0.00151954 -0.000373838 0.000177835)
(-0.00154395 -0.000382349 0.000172816)
(-0.00156531 -0.000391236 0.000165628)
(-0.00158392 -0.000400264 0.000155808)
(-0.00160078 -0.000409143 0.000143423)
(-0.00161485 -0.000417704 0.000127968)
(-0.00162751 -0.000425563 0.000108658)
(-0.00163583 -0.000432639 8.45449e-05)
(-0.00164179 -0.00043792 5.08863e-05)
(-0.00165791 -0.000440487 1.51344e-05)
(-6.32213e-05 1.34207e-05 4.08631e-05)
(-0.000113141 6.34033e-07 -2.76867e-05)
(-0.000136508 -1.28999e-05 -4.02659e-05)
(-0.000148064 -3.08474e-05 -4.31313e-05)
(-0.000156167 -4.88321e-05 -4.06231e-05)
(-0.000183213 -6.99885e-05 -3.75456e-05)
(-0.000225174 -9.43206e-05 -4.16879e-05)
(-0.000268261 -0.000127864 -4.72769e-05)
(-0.00034896 -0.000171231 -4.35879e-05)
(-0.000467518 -0.000219523 -3.36789e-05)
(-0.000592458 -0.000259311 -1.47632e-05)
(-0.000719605 -0.000288602 1.1013e-05)
(-0.00084105 -0.000305659 3.94969e-05)
(-0.000951822 -0.000312636 6.76283e-05)
(-0.00104954 -0.00031285 9.32071e-05)
(-0.00113411 -0.000309873 0.000115055)
(-0.00120626 -0.000306463 0.000132816)
(-0.00126732 -0.000304322 0.00014664)
(-0.00131835 -0.000304102 0.000156817)
(-0.00136099 -0.000306038 0.000163748)
(-0.00139652 -0.000309937 0.000167753)
(-0.0014261 -0.000315372 0.000169032)
(-0.00145075 -0.000321945 0.000167632)
(-0.00147154 -0.00032924 0.000163778)
(-0.00148876 -0.000337027 0.000157621)
(-0.00150285 -0.000345061 0.000148649)
(-0.00151528 -0.00035302 0.000137123)
(-0.00152477 -0.000360787 0.000122553)
(-0.00153331 -0.000367971 0.0001043)
(-0.00153692 -0.000374554 8.12891e-05)
(-0.00153933 -0.0003794 4.82651e-05)
(-0.00155613 -0.000381201 1.39092e-05)
(-2.15562e-05 1.25633e-05 2.94106e-05)
(-5.54723e-05 6.12232e-06 -1.96305e-05)
(-7.60798e-05 -1.45931e-06 -3.13499e-05)
(-8.83715e-05 -1.33673e-05 -3.79463e-05)
(-9.58876e-05 -2.28186e-05 -5.76346e-05)
(-8.7889e-05 -5.81184e-05 -6.54032e-05)
(-9.41803e-05 -9.24652e-05 -2.97441e-05)
(-0.000161296 -0.000102487 -7.68089e-06)
(-0.000245008 -0.000116733 -3.50379e-05)
(-0.000338876 -0.000157259 -5.1255e-05)
(-0.000468975 -0.000205385 -3.95511e-05)
(-0.0006016 -0.000239483 -2.03517e-05)
(-0.000729468 -0.000261386 5.10596e-06)
(-0.000847858 -0.000271778 3.3039e-05)
(-0.000953809 -0.000273902 6.03883e-05)
(-0.00104559 -0.000271293 8.52615e-05)
(-0.00112327 -0.00026712 0.000106629)
(-0.00118763 -0.000263484 0.000124069)
(-0.00124054 -0.000261621 0.000137618)
(-0.00128338 -0.000261941 0.000147468)
(-0.00131781 -0.000264404 0.000153891)
(-0.00134517 -0.000268615 0.000157104)
(-0.00136668 -0.000274148 0.000157179)
(-0.00138389 -0.000280522 0.00015453)
(-0.00139682 -0.000287484 0.00014943)
(-0.00140608 -0.000294756 0.000141285)
(-0.00141352 -0.000301964 0.000130576)
(-0.00141762 -0.000309021 0.000116856)
(-0.00142074 -0.000315466 9.96379e-05)
(-0.00141868 -0.000321557 7.77591e-05)
(-0.00141686 -0.000325963 4.53653e-05)
(-0.00143466 -0.00032703 1.25519e-05)
(-4.38175e-06 1.0334e-05 2.1489e-05)
(-1.34721e-05 2.34403e-06 -1.11394e-05)
(-2.0239e-05 -1.00413e-07 -1.67857e-05)
(-2.6886e-05 -4.96804e-06 -2.746e-05)
(-4.41883e-05 -2.29327e-05 -3.97684e-05)
(-5.05194e-05 -3.79212e-05 -3.78332e-05)
(-4.6924e-05 -4.25867e-05 -3.07059e-05)
(-7.09971e-05 -5.5812e-05 -2.30095e-05)
(-0.000116923 -6.50076e-05 -2.35538e-05)
(-0.000248841 -0.000102588 -4.94653e-05)
(-0.000343335 -0.000146211 -6.01599e-05)
(-0.000473988 -0.00018988 -4.65665e-05)
(-0.000610006 -0.00021773 -2.57119e-05)
(-0.000736338 -0.000232696 7.54707e-08)
(-0.000848551 -0.000237217 2.80394e-05)
(-0.000945808 -0.000235405 5.52962e-05)
(-0.00102782 -0.000230923 8.00141e-05)
(-0.00109573 -0.000226422 0.000101128)
(-0.00115021 -0.00022331 0.000118137)
(-0.00119307 -0.000222368 0.000131017)
(-0.00122588 -0.000223659 0.000139907)
(-0.00125025 -0.000226838 0.000145036)
(-0.00126777 -0.000231493 0.000146497)
(-0.00128028 -0.000236999 0.000144921)
(-0.00128798 -0.000243205 0.000140801)
(-0.00129176 -0.000249833 0.000133415)
(-0.00129395 -0.000256463 0.000123514)
(-0.00129274 -0.000263012 0.000110688)
(-0.00129131 -0.000269057 9.46506e-05)
(-0.00128374 -0.000274796 7.39845e-05)
(-0.00127805 -0.000278993 4.2229e-05)
(-0.00129686 -0.000279242 1.10732e-05)
(1.64659e-05 6.78897e-06 2.01381e-05)
(1.25308e-05 2.09807e-06 -6.26219e-06)
(7.99706e-06 5.00098e-07 -1.16156e-05)
(2.07271e-06 -3.41218e-06 -1.62891e-05)
(-2.84775e-06 -9.13688e-06 -1.18942e-05)
(-1.55632e-05 -2.42326e-06 -1.19759e-05)
(-2.93224e-05 -2.82275e-06 -2.90927e-05)
(-3.62469e-05 -1.41145e-05 -3.98117e-05)
(-3.73658e-05 -2.15054e-05 -3.05115e-05)
(-8.76948e-05 -6.43717e-05 -3.2136e-05)
(-0.000224843 -9.9308e-05 -3.81143e-05)
(-0.00034411 -0.00013093 -6.23169e-05)
(-0.000476248 -0.000169969 -5.28592e-05)
(-0.000607907 -0.00019142 -2.98197e-05)
(-0.000728793 -0.000200421 -2.7434e-06)
(-0.000833475 -0.000201221 2.60281e-05)
(-0.000920883 -0.000197747 5.37053e-05)
(-0.000991126 -0.000192992 7.81978e-05)
(-0.00104651 -0.000189188 9.85449e-05)
(-0.00108849 -0.000187385 0.000114361)
(-0.00111909 -0.000187862 0.000125657)
(-0.00114023 -0.00019036 0.000132665)
(-0.00115365 -0.00019444 0.000135438)
(-0.001162 -0.000199392 0.000134936)
(-0.00116478 -0.00020511 0.000131817)
(-0.00116295 -0.000211207 0.000125135)
(-0.00115956 -0.000217376 0.00011598)
(-0.00115237 -0.000223335 0.000103996)
(-0.00114474 -0.000228675 8.90882e-05)
(-0.00113065 -0.000233702 6.96803e-05)
(-0.00112016 -0.000237476 3.8662e-05)
(-0.00114077 -0.000237101 9.44201e-06)
(3.20705e-05 7.15357e-06 3.05688e-05)
(3.85966e-05 5.116e-06 -5.46023e-06)
(3.76508e-05 9.77811e-07 -1.12411e-05)
(3.25983e-05 -5.3603e-06 -1.20829e-05)
(2.37865e-05 -8.69452e-06 -9.97971e-06)
(5.75279e-06 -8.40702e-06 -7.2891e-06)
(-8.97007e-06 -1.61052e-06 -9.25027e-06)
(-2.21482e-05 7.04059e-06 -3.0886e-05)
(-3.07058e-05 -1.35557e-05 -4.33159e-05)
(-3.89772e-05 -3.74373e-05 -3.78576e-05)
(-7.19769e-05 -4.69771e-05 -2.6284e-05)
(-0.000209004 -8.20252e-05 -5.46501e-05)
(-0.000342818 -0.000115033 -6.64307e-05)
(-0.000481558 -0.000150868 -5.46265e-05)
(-0.000606601 -0.000165133 -3.03882e-05)
(-0.000714899 -0.000169087 -1.14568e-06)
(-0.00080443 -0.000167231 2.87257e-05)
(-0.000876954 -0.000163291 5.61314e-05)
(-0.000932565 -0.000159536 7.94783e-05)
(-0.000973262 -0.000157495 9.80265e-05)
(-0.00100104 -0.000157604 0.000111537)
(-0.00101796 -0.000159655 0.000120198)
(-0.00102626 -0.000163281 0.000124004)
(-0.001029 -0.00016758 0.000124276)
(-0.00102568 -0.000172648 0.000121987)
(-0.00101801 -0.000178158 0.000115923)
(-0.0010091 -0.00018391 0.000107486)
(-0.000996595 -0.000189272 9.64266e-05)
(-0.0009848 -0.000194152 8.28998e-05)
(-0.000965403 -0.000198263 6.49103e-05)
(-0.000951612 -0.000202021 3.47874e-05)
(-0.000973225 -0.000200747 7.69234e-06)
(4.50242e-05 1.09394e-05 4.13265e-05)
(5.92049e-05 6.45571e-06 -8.65476e-06)
(6.395e-05 1.50823e-06 -1.45672e-05)
(6.37268e-05 -6.37279e-06 -1.7512e-05)