/*--------------------------------*- C++ -*----------------------------------*\
  =========                 |
  \\      /  F ield         | OpenFOAM: The Open Source CFD Toolbox
   \\    /   O peration     | Website:  https://openfoam.org
    \\  /    A nd           | Version:  6
     \\/     M anipulation  |
\*---------------------------------------------------------------------------*/
FoamFile
{
    version     2.0;
    format      ascii;
    class       volScalarField;
    location    "4";
    object      yPlus;
}
// * * * * * * * * * * * * * * * * * * * * * * * * * * * * * * * * * * * * * //

dimensions      [0 0 0 0 0 0 0];

internalField   uniform 0;

boundaryField
{
    inlet
    {
        type            calculated;
        value           uniform 0;
    }
    outlet
    {
        type            calculated;
        value           uniform 0;
    }
    roughCylinder
    {
        type            calculated;
        value           nonuniform List<scalar> 
5120
(
43.5847
51.382
57.5909
63.6136
68.7443
72.8657
76.1478
78.7882
80.9435
82.7527
84.339
85.7595
87.0538
88.2526
89.3853
90.481
91.569
92.676
93.8237
95.027
96.293
97.6229
99.0122
100.453
101.935
103.445
104.968
106.48
107.944
109.299
110.403
111.062
42.9299
50.4514
56.4695
62.3601
67.422
71.5095
74.7727
77.4029
79.556
81.3711
82.9622
84.3814
85.663
86.8444
87.9561
89.0283
90.0913
91.1721
92.2923
93.4668
94.7028
96.0012
97.3576
98.7644
100.21
101.683
103.167
104.639
106.064
107.383
108.455
109.097
42.2246
49.5012
55.3377
61.094
66.0841
70.1379
73.3863
76.015
78.1782
80.0085
81.6089
83.0287
84.2997
85.4663
86.5594
87.6102
88.6492
89.7044
90.7977
91.9439
93.1502
94.4174
95.7409
97.1128
98.5228
99.9582
101.403
102.837
104.223
105.505
106.547
107.172
41.482
48.5334
54.1931
59.8159
64.7377
68.7651
72.0075
74.6434
76.8237
78.6738
80.2864
81.7082
82.9731
84.1271
85.2027
86.2326
87.2493
88.2803
89.348
90.4669
91.6446
92.8814
94.173
95.5114
96.886
98.2839
99.6908
101.085
102.433
103.678
104.689
105.297
40.725
47.5581
53.0372
58.5204
63.3708
67.374
70.6166
73.2694
75.478
77.3565
78.9863
80.4145
81.6792
82.8232
83.8848
84.8977
85.8937
86.9021
87.9452
89.0383
90.1881
91.3955
92.6556
93.9606
95.3
96.662
98.031
99.3874
100.697
101.907
102.888
103.479
39.9401
46.5647
51.8623
57.205
61.9903
65.9819
69.2393
71.9188
74.158
76.0629
77.7105
79.1483
80.4169
81.5563
82.6065
83.6026
84.5802
85.5679
86.5886
87.6569
88.7804
89.9595
91.1896
92.4628
93.7686
95.0942
96.4259
97.7435
99.0151
100.188
101.139
101.714
39.1542
45.57
50.6772
55.8691
60.583
64.5627
67.8373
70.5489
72.8286
74.772
76.4467
77.9013
79.1792
80.3202
81.363
82.3487
83.3106
84.2797
85.2792
86.3246
87.4227
88.5744
89.7747
91.0156
92.2871
93.5781
94.8733
96.1542
97.3887
98.5279
99.4486
100.008
38.3308
44.5437
49.4555
54.4922
59.1404
63.1257
66.4403
69.2008
71.5243
73.5009
75.2006
76.6745
77.966
79.1142
80.1568
81.1326
82.0816
83.0346
84.0156
85.0394
86.114
87.2396
88.4117
89.6227
90.8618
92.1173
93.3751
94.6178
95.8142
96.9171
97.808
98.3515
37.5085
43.5142
48.2191
53.0852
57.6563
61.6413
64.9915
67.7997
70.1772
72.208
73.9506
75.4558
76.7688
77.9301
78.9775
79.9524
80.8937
81.8342
82.7984
83.803
84.8548
85.9549
87.0984
88.2776
89.4832
90.7041
91.9261
93.1325
94.2929
95.3613
96.2216
96.7515
36.622
42.4231
46.911
51.5946
56.0876
60.092
63.514
66.4051
68.851
70.9283
72.7079
74.2446
75.5839
76.7645
77.8247
78.8028
79.7397
80.6707
81.6221
82.6086
83.6399
84.716
85.8328
86.9831
88.1563
89.3415
90.5259
91.6924
92.813
93.8437
94.6735
95.1868
35.7223
41.3142
45.5754
50.0577
54.4547
58.4656
61.946
64.9075
67.4299
69.5892
71.4371
73.0259
74.4031
75.611
76.6871
77.6752
78.6159
79.5445
80.4855
81.4574
82.4686
83.5205
84.6083
85.7255
86.8636
88.0121
89.1593
90.2879
91.3719
92.368
93.1658
93.6671
34.6992
40.0894
44.1091
48.3648
52.6483
56.6794
60.2715
63.3746
66.0149
68.2483
70.1542
71.7927
73.2138
74.4567
75.5618
76.5668
77.5134
78.4399
79.3745
80.3326
81.3263
82.3557
83.4181
84.5069
85.6121
86.724
87.8308
88.9177
89.9587
90.9136
91.6791
92.1638
33.6215
38.8167
42.5871
46.5969
50.7442
54.7762
58.4537
61.6629
64.421
66.7899
68.8071
70.5313
72.0142
73.3037
74.4386
75.4655
76.4276
77.3621
78.293
79.2419
80.2182
81.2248
82.2577
83.3116
84.3798
85.4526
86.5207
87.5679
88.5716
89.4904
90.2215
90.6967
32.3494
37.3545
40.848
44.5586
48.5118
52.5288
56.3609
59.8146
62.7893
65.2862
67.4056
69.2122
70.7673
72.1156
73.3028
74.3664
75.3486
76.2895
77.2217
78.1615
79.1237
80.1096
81.1181
82.1442
83.1783
84.2128
85.2368
86.2376
87.193
88.0655
88.7612
89.2204
30.9449
35.7735
38.992
42.3899
46.1309
50.1148
54.0512
57.6553
60.8253
63.5749
65.885
67.8365
69.4945
70.9188
72.1545
73.2547
74.2667
75.2299
76.1672
77.1045
78.0524
79.0163
79.9939
80.9814
81.9747
82.9652
83.9478
84.9059
85.8227
86.6559
87.3135
87.7667
29.1928
33.8604
36.7706
39.7577
43.1334
46.967
51.0801
55.1243
58.712
61.6853
64.2033
66.3133
68.098
69.6232
70.949
72.1166
73.17
74.1509
75.0993
76.0331
76.9708
77.9157
78.8689
79.8286
80.7857
81.7347
82.6673
83.5716
84.4301
85.2088
85.8247
86.2633
27.0995
31.6483
34.2737
36.8616
39.8998
43.6287
47.818
51.9879
55.9153
59.4501
62.3186
64.6885
66.6586
68.313
69.7167
70.941
72.0419
73.0648
74.0303
74.9701
75.8969
76.8193
77.7384
78.6528
79.5619
80.4593
81.3445
82.2012
83.0196
83.7526
84.3257
84.7611
24.2264
28.7443
31.082
33.1277
35.4353
38.5311
42.8039
47.9594
52.7387
56.6032
59.9771
62.7087
64.9307
66.7748
68.3421
69.6872
70.8655
71.9223
72.9119
73.8549
74.7751
75.6801
76.5739
77.4595
78.3285
79.1781
80.0043
80.7945
81.5375
82.2015
82.7199
83.1472
20.3388
25.0563
27.1958
28.7442
30.5431
33.6538
37.9279
42.3351
47.7425
53.2592
57.2851
60.5279
63.1327
65.2271
66.9283
68.3639
69.614
70.7426
71.7663
72.7264
73.6393
74.5185
75.3713
76.1994
77.0072
77.7925
78.5605
79.2938
79.9951
80.602
81.0717
81.4985
13.2804
18.8714
21.2302
22.5122
22.9632
22.0888
23.7219
34.0194
42.3391
47.5973
53.3071
57.5127
60.6758
63.1611
65.1918
66.8588
68.2567
69.4454
70.512
71.4834
72.393
73.2558
74.0799
74.8773
75.6389
76.3635
77.057
77.7023
78.2966
78.8071
79.1976
79.6308
5.47854
9.82504
10.8808
11.1339
14.7781
19.2736
20.1651
22.8545
28.1352
42.3378
48.3376
53.8174
58.0085
61.1055
63.4079
65.238
66.7495
68.0624
69.1901
70.1943
71.0999
71.9281
72.6965
73.4121
74.0861
74.7249
75.3399
75.91
76.4604
76.8939
77.2247
77.6625
6.06674
10.4683
10.7641
10.1487
7.64449
10.5472
15.9264
18.9582
12.8148
21.5539
40.7197
48.5161
53.8961
57.8324
60.8814
63.202
65.0212
66.4461
67.6497
68.677
69.5807
70.3912
71.1239
71.8071
72.4251
72.975
73.4853
73.9272
74.3073
74.5838
74.7831
75.2657
16.5312
20.7958
22.3086
22.4998
21.4848
19.6967
17.3922
18.2964
15.0123
18.6065
20.6598
39.2956
48.6701
54.5919
58.3119
60.9843
62.997
64.6548
65.9697
67.0557
67.9588
68.7144
69.3577
69.9033
70.3764
70.8004
71.1895
71.5152
71.8468
72.0134
72.1329
72.629
21.7477
26.5201
28.9675
30.5768
31.2113
30.7109
29.0197
26.2572
19.5835
22.5018
10.7881
20.6895
39.7106
48.1591
53.9283
57.7725
60.5043
62.3816
63.8398
64.9686
65.8659
66.5954
67.1867
67.7104
68.1101
68.3761
68.5957
68.7034
68.7285
68.5743
68.4218
69.097
23.2
28.2413
31.1232
33.405
35.0303
35.9244
35.9264
34.6881
31.9723
27.9201
29.8241
19.2931
29.3025
41.7843
49.5372
54.3327
57.3924
59.769
61.439
62.6714
63.5688
64.1913
64.6114
64.8373
64.9535
65.0159
64.9981
64.9022
64.8526
64.578
64.3306
65.0027
23.8117
28.9129
31.9411
34.4472
36.3899
37.7501
38.5136
38.6363
37.9252
35.7663
32.3602
30.986
32.2707
31.5584
40.7823
48.2845
53.2991
56.0724
58.0281
59.3392
60.1982
60.7704
61.0888
61.4042
61.4283
61.1157
60.7918
60.2187
59.5541
58.4229
57.3075
58.8498
23.1664
28.4169
31.5928
34.2972
36.4854
38.1407
39.2635
39.8725
40.0068
39.6275
38.0097
34.0216
32.47
29.6665
30.4837
42.7705
47.7439
51.8211
54.1989
55.6508
56.51
56.7909
56.7276
56.1242
55.4095
54.8904
53.811
52.8539
52.0061
51.5306
50.411
51.8432
21.9973
27.3746
30.626
33.4252
35.734
37.5373
38.8426
39.6848
40.1323
40.2703
40.0247
38.3594
31.1148
29.9262
10.4431
26.3002
40.3309
44.7372
47.6269
49.3176
49.8623
50.0705
49.8255
50.1073
49.81
47.9624
46.1297
44.1076
41.1274
36.0126
32.3424
36.6393
20.496
25.9492
29.2031
32.0127
34.3551
36.2218
37.6132
38.5628
39.1557
39.5402
39.8544
39.8414
37.9913
33.2273
18.9038
20.1219
29.0606
37.7635
41.6741
43.0386
43.7388
43.0902
41.0196
38.156
33.7074
31.3251
26.505
18.9503
32.2565
38.7967
20.041
38.4304
19.0114
24.4193
27.5713
30.2861
32.5605
34.3951
35.7865
36.7541
37.3798
37.8316
38.3538
38.9956
38.9347
35.4798
23.2459
23.5207
27.1438
17.9217
23.8024
25.697
25.3259
21.4134
26.0287
21.1115
25.0056
33.3403
33.7042
22.7582
43.8622
39.4026
33.594
39.307
17.7629
23.0536
26.0493
28.6117
30.7564
32.4907
33.8084
34.7134
35.2776
35.6815
36.2287
37.1133
37.7852
36.289
29.7813
22.4352
18.2233
26.5403
13.4002
27.4295
6.27953
23.2642
34.615
24.8305
29.4285
35.8819
28.2344
33.8681
41.1137
32.5429
35.6128
32.6631
16.833
21.9942
24.8325
27.2341
29.2316
30.839
32.0505
32.8611
33.3261
33.6267
34.1155
35.1195
36.3615
36.4772
33.4306
25.887
26.5405
23.9753
19.8703
24.9839
22.8374
28.9836
35.6207
33.4573
29.3578
31.3488
36.637
39.0613
40.7852
43.808
43.1556
39.0122
16.1158
21.1738
23.8822
26.1466
28.0137
29.5043
30.6173
31.3463
31.7333
31.9517
32.364
33.3803
34.9755
36.308
35.8779
32.1029
27.4539
25.1987
27.6472
24.3739
29.5015
32.2983
35.3216
37.3186
39.5083
41.6414
44.2345
45.5478
45.8156
47.8334
46.4768
44.1622
15.5271
20.505
23.1089
25.2617
27.0221
28.418
29.4546
30.1305
30.4845
30.681
31.066
32.0517
33.7469
35.7084
37.1028
37.0815
35.9986
35.8231
35.6585
37.5345
39.1453
41.0953
42.5981
43.0314
44.2557
45.3052
46.4525
47.3698
47.2454
48.9249
47.8144
45.9755
14.9739
19.8877
22.4075
24.4704
26.1459
27.4689
28.4515
29.1009
29.4606
29.6901
30.1097
31.098
32.7905
34.9023
36.9048
38.309
39.1156
39.94
40.4604
41.7209
42.5702
43.8126
44.8319
45.0353
45.8689
46.5616
47.3042
48.0331
47.6287
48.5688
47.7472
46.7278
14.3832
19.2381
21.6842
23.6706
25.2763
26.5429
27.4902
28.1354
28.531
28.8329
29.3276
30.3421
32.0238
34.1974
36.4647
38.4286
39.9399
41.1586
42.035
43.0964
43.8101
44.742
45.4955
45.738
46.2629
46.7465
47.3065
47.8378
47.297
47.4654
46.8041
46.6206
13.696
18.4859
20.8601
22.7757
24.3206
25.5432
26.4708
27.1319
27.5913
28.0008
28.6037
29.6529
31.2727
33.378
35.7057
37.9213
39.7812
41.2375
42.3027
43.255
43.9279
44.6543
45.2581
45.5526
45.936
46.359
46.8545
47.2657
46.6938
46.3116
45.72
46.1605
12.8825
17.59
19.8869
21.7319
23.2214
24.4103
25.3346
26.0358
26.5909
27.1433
27.8844
28.9902
30.5474
32.5144
34.7292
36.9471
38.9205
40.5064
41.6914
42.6378
43.3378
44.0061
44.5933
45.0025
45.4252
45.911
46.4307
46.8035
46.2994
45.6598
45.1001
45.8425
11.9411
16.5374
18.7488
20.5236
21.9655
23.1364
24.0834
24.8622
25.5577
26.2915
27.1944
28.371
29.8769
31.6989
33.7411
35.8335
37.7742
39.4061
40.6861
41.7094
42.5254
43.2778
43.9755
44.575
45.1633
45.7974
46.4082
46.8186
46.4606
45.8126
45.2903
46.0503
10.9559
15.3808
17.505
19.2188
20.6319
21.8152
22.8288
23.7393
24.6255
25.5697
26.6416
27.8954
29.3708
31.0742
32.9548
34.9008
36.7634
38.4098
39.7858
40.9418
41.9351
42.8625
43.751
44.5845
45.3976
46.2225
46.9692
47.4779
47.3212
46.818
46.3554
46.9642
9.88259
8.42614
8.0424
8.63202
8.35518
9.10935
9.95971
10.7509
11.437
11.9538
12.5105
12.9585
13.3562
13.6984
13.9926
14.2378
14.4323
14.5642
14.6219
14.6044
14.6023
14.6382
14.5982
14.4813
14.2989
14.0642
13.7814
13.4483
13.0653
12.6199
12.107
11.526
10.8958
10.1356
9.31208
8.50388
8.45171
8.01088
8.33986
9.71557
14.1871
12.4866
11.7512
11.8833
12.4358
13.2149
14.0704
14.9085
15.6499
16.2969
16.8796
17.3737
17.8117
18.1953
18.5313
18.8191
19.0542
19.2216
19.3037
19.2963
19.295
19.3231
19.2609
19.1098
18.8875
18.611
18.2864
17.9129
17.4889
17.0031
16.4486
15.8012
15.0817
14.2664
13.4123
12.6291
12.0401
11.8113
12.3978
14.0018
16.2376
14.414
13.5454
13.5571
14.4651
15.2774
16.1614
17.0445
17.831
18.5277
19.1461
19.6841
20.1649
20.5932
20.9759
21.3126
21.5966
21.8097
21.9304
21.9523
21.954
21.9536
21.8541
21.6581
21.3875
21.062
20.6906
20.2727
19.8055
19.2787
18.6828
17.9988
17.233
16.3717
15.4793
14.683
13.8452
13.6508
14.3261
16.0399
17.9054
16.0375
15.2033
15.2867
16.2133
17.0826
17.9994
18.916
19.7378
20.4709
21.1226
21.6983
22.2161
22.6833
23.1081
23.4898
23.819
24.0751
24.2337
24.2879
24.2926
24.2606
24.1238
23.8854
23.5699
23.1995
22.7855
22.3289
21.8244
21.262
20.6302
19.9143
19.1144
18.2192
17.2944
16.4535
15.5563
15.3111
15.9527
17.7002
19.3096
17.4734
16.7567
16.9318
17.7924
18.6954
19.6391
20.5707
21.4142
22.171
22.8462
23.4478
23.991
24.4865
24.9436
25.3608
25.7262
26.0168
26.2064
26.287
26.2939
26.236
26.0687
25.7962
25.4447
25.0386
24.5919
24.1068
23.5767
22.9899
22.3333
21.5951
20.7738
19.8626
18.9181
18.0367
17.1706
16.8662
17.4016
19.1067
20.5286
18.7867
18.208
18.4411
19.2408
20.1451
21.1009
22.0334
22.888
23.6594
24.3502
24.9685
25.5287
26.0458
26.5278
26.9727
27.3657
27.6823
27.8948
27.994
28.0021
27.9263
27.7363
27.4381
27.0591
26.6253
26.1532
25.6463
25.099
24.4958
23.8233
23.0707
22.2371
21.3235
20.3731
19.4778
18.6611
18.3256
18.7383
20.3408
21.6283
20.0286
19.5765
19.8267
20.5694
21.4547
22.407
23.3344
24.1948
24.9765
25.6786
26.3093
26.8824
27.4168
27.9184
28.384
28.7968
29.1311
29.358
29.468
29.4768
29.3903
29.186
28.8703
28.4716
28.0172
27.5251
27.0007
26.4396
25.8241
25.1397
24.3768
23.5354
22.6251
21.6802
20.7941
20.0302
19.6995
20.0081
21.469
22.6724
21.2385
20.8799
21.1106
21.7956
22.6534
23.5925
24.5135
25.378
26.1678
26.8792
27.5195
28.1037
28.6513
29.1673
29.6464
30.0712
30.4147
30.6481
30.7623
30.7711
30.6802
30.4693
30.1445
29.734
29.2658
28.7594
28.2213
27.6483
27.0228
26.3283
25.5565
24.709
23.8024
22.8697
22.0048
21.2945
20.9991
21.2427
22.5517
23.7202
22.4413
22.1318
22.3206
22.9511
23.7786
24.6998
25.6143
26.481
27.2763
27.9947
28.6415
29.2337
29.7899
30.3139
30.7994
31.2279
31.5722
31.8048
31.9175
31.9259
31.8357
31.6255
31.2995
30.8852
30.4107
29.896
29.349
28.7674
28.1344
27.4318
26.6529
25.801
24.8978
23.9801
23.1416
22.482
22.2376
22.4605
23.6399
24.8174
23.6516
23.3517
23.4934
24.0749
24.8699
25.7699
26.6752
27.5401
28.3368
29.0581
29.7072
30.3028
30.8619
31.3874
31.8717
32.296
32.6337
32.8585
32.9651
32.9729
32.8877
32.6843
32.3646
31.9544
31.481
30.9646
30.4143
29.8284
29.1921
28.485
27.7023
26.8497
25.952
25.0517
24.2428
23.6301
23.4384
23.6739
24.7695
25.9946
24.8889
24.5709
24.6683
25.2028
25.9618
26.8362
27.7271
28.5838
29.3763
30.095
30.7411
31.3347
31.8907
32.4109
32.8868
33.2998
33.6239
33.8354
33.9324
33.9391
33.8622
33.6711
33.3643
32.965
32.4998
31.9884
31.4407
30.8558
30.2209
29.5144
28.7333
27.8857
26.9987
26.12
25.3444
24.7785
24.6356
24.9052
25.9658
27.285
26.185
25.8279
25.8798
26.3641
27.0821
27.9251
28.7942
29.6354
30.4169
31.1267
31.7645
32.3506
32.8976
33.406
33.867
34.2621
34.5672
34.7612
34.8457
34.8514
34.7851
34.6102
34.3214
33.9395
33.4887
32.9885
32.4491
31.8708
31.2424
30.5425
29.7694
28.9337
28.0647
27.2137
26.4766
25.9615
25.8691
26.1896
27.2623
28.7232
27.5773
27.157
27.154
27.5814
28.2527
29.0575
29.8972
30.7154
31.4791
32.1738
32.7977
33.3706
33.903
34.3942
34.8347
35.2069
35.4888
35.6624
35.7331
35.7377
35.6832
35.5269
35.2603
34.9004
34.4695
33.986
33.4602
32.8936
32.2771
31.5898
30.8316
30.0153
29.172
28.3559
27.6634
27.206
27.1731
27.5657
28.6963
30.3252
29.088
28.5783
28.5077
28.8712
29.49
30.2502
31.0538
31.8425
32.5817
33.255
33.8599
34.4152
34.9281
35.3974
35.8131
36.1588
36.4149
36.5668
36.6234
36.6268
36.5843
36.448
36.2056
35.8712
35.4643
35.0019
34.4944
33.9441
33.3445
32.6759
31.9392
31.1492
30.3388
29.5643
28.9229
28.5302
28.5685
29.0569
30.2865
32.0669
30.7098
30.0927
29.9458
30.241
30.8036
31.515
32.2775
33.0312
33.7405
34.3873
34.969
35.5026
35.9925
36.4365
36.8246
37.1417
37.3711
37.5015
37.5452
37.5474
37.5157
37.3989
37.1817
36.8746
36.4943
36.0562
35.5707
35.0406
34.4618
33.8172
33.1078
32.35
31.5782
30.8504
30.2643
29.9406
30.058
30.6574
32.011
33.8792
32.4026
31.6794
31.458
31.6873
32.1941
32.856
33.5749
34.2903
34.9658
35.5823
36.1386
36.6478
37.1125
37.5293
37.8885
38.1768
38.38
38.4905
38.5233
38.5247
38.5016
38.4027
38.2099
37.9303
37.5777
37.1657
36.7043
36.197
35.6418
35.0252
34.3472
33.6257
32.8956
32.2164
31.6858
31.4285
31.6219
32.3285
33.8023
35.6623
34.1009
33.2989
33.02
33.1953
33.6529
34.2684
34.9445
35.621
36.2614
36.8464
37.3763
37.8603
38.299
38.6882
39.0191
39.2796
39.4588
39.5519
39.5772
39.5778
39.5602
39.4765
39.3061
39.0526
38.7272
38.3417
37.9052
37.422
36.8917
36.3046
35.66
34.9758
34.2875
33.6545
33.1734
32.9708
33.2219
34.0059
35.5614
37.3162
35.7339
34.9041
34.6003
34.7432
35.1645
35.7413
36.3792
37.0194
37.6257
38.1797
38.6837
39.1429
39.5564
39.9194
40.2236
40.4589
40.617
40.6964
40.7176
40.7176
40.7023
40.6301
40.479
40.2493
39.9494
39.5891
39.1768
38.7175
38.2117
37.6546
37.0428
36.3942
35.7439
35.1499
34.7062
34.5366
34.8123
35.621
37.1921
38.7834
37.2544
36.4591
36.1716
36.3101
36.7122
37.2614
37.868
38.4763
39.0514
39.5764
40.0564
40.4925
40.883
41.2222
41.5026
41.7162
41.8569
41.9265
41.9464
41.9459
41.9301
41.866
41.7305
41.5212
41.2437
40.9063
40.5162
40.0791
39.5967
39.0678
38.4866
37.8697
37.2513
36.686
36.2629
36.0995
36.3595
37.1314
38.6447
40.0727
38.6584
37.9532
37.7206
37.8813
38.2819
38.8149
39.3974
39.978
40.5247
41.0261
41.4856
41.902
42.2723
42.591
42.8514
43.047
43.1743
43.2374
43.2581
43.2571
43.2391
43.1797
43.0561
42.8633
42.6048
42.287
41.9163
41.4985
41.0362
40.5303
39.9773
39.3884
38.795
38.2479
37.8292
37.6468
37.8552
38.5396
39.9403
41.2351
39.9746
39.3972
39.247
39.4508
39.8639
40.3905
40.9561
41.5142
42.0371
42.5199
42.9624
43.3623
43.7158
44.0174
44.2613
44.4428
44.5602
44.6195
44.6419
44.6404
44.6195
44.5624
44.4472
44.2673
44.0242
43.7226
43.3681
42.9662
42.5206
42.0334
41.5042
40.9383
40.3632
39.8249
39.3975
39.1774
39.3094
39.8722
41.1224
42.317
41.2327
40.8045
40.7542
41.0151
41.4522
41.9812
42.5361
43.0766
43.581
44.0492
44.478
44.8645
45.204
45.4916
45.7224
45.8929
46.003
46.0602
46.0845
46.0826
46.0586
46.0023
45.893
45.723
45.4919
45.2033
44.8621
44.4731
44.041
43.5686
43.0584
42.5107
41.9478
41.4104
40.9645
40.6952
40.7381
41.1642
42.2503
43.3649
42.4628
42.1911
42.2473
42.5722
43.0392
43.5759
44.1244
44.6516
45.1456
45.6037
46.0226
46.3984
46.7268
47.0031
47.2233
47.3851
47.4897
47.5457
47.5716
47.5693
47.5428
47.4866
47.3814
47.2188
46.9972
46.7189
46.3879
46.0089
45.5861
45.1235
44.6242
44.0907
43.5362
42.9949
42.5254
42.2015
42.1506
42.4342
43.3503
44.3788
43.6664
43.5548
43.7203
44.1133
44.6155
45.1653
45.7127
46.2327
46.7209
47.1726
47.5845
47.9523
48.2719
48.5391
48.7508
48.9054
49.0056
49.0602
49.0869
49.0842
49.0561
49.0001
48.8983
48.7414
48.5272
48.2567
47.9333
47.5612
47.1447
46.688
46.1949
45.6698
45.1176
44.5662
44.0675
43.6853
43.5385
43.6773
44.4161
45.3453
44.8331
44.8842
45.1586
45.6205
46.1597
46.7254
47.2762
47.7982
48.2862
48.7364
49.1448
49.5076
49.821
50.0813
50.2862
50.435
50.5311
50.5838
50.6103
50.6074
50.5788
50.5239
50.4251
50.2728
50.0639
49.7988
49.4801
49.1114
48.6968
48.2404
47.7465
47.2192
46.6643
46.0995
45.5693
45.1283
44.8885
44.8874
45.4551
46.3026
45.9721
46.1698
46.5417
47.0672
47.6431
48.2277
48.7871
49.3162
49.8091
50.2621
50.6712
51.0327
51.3432
51.5995
51.7997
51.944
52.0364
52.0866
52.112
52.1091
52.0818
52.0291
51.9333
51.7846
51.5791
51.3165
50.9988
50.6293
50.2116
49.7499
49.2484
48.7114
48.1458
47.5603
46.9938
46.4942
46.169
46.046
46.4698
47.1109
46.9753
47.3223
47.793
48.3847
49.0009
49.6108
50.1902
50.7349
51.24
51.702
52.1174
52.4825
52.7945
53.0503
53.2486
53.39
53.4789
53.5258
53.5489
53.5468
53.5227
53.4738
53.3814
53.235
53.0302
52.7663
52.4448
52.0685
51.6408
51.1654
50.6464
50.088
49.4967
48.8783
48.2657
47.7016
47.2919
47.0598
47.3631
47.8994
47.8483
48.28
48.8203
49.4688
50.1289
50.7732
51.3838
51.9559
52.4846
52.9665
53.3981
53.776
54.0974
54.3595
54.5612
54.7034
54.7906
54.8343
54.8549
54.8553
54.8381
54.7958
54.708
54.5634
54.3572
54.0884
53.7584
53.3695
52.9248
52.4277
51.8819
51.291
50.6604
49.9947
49.3208
48.6771
48.1693
47.8188
48.0011
48.4086
48.4491
48.9652
49.5736
50.2799
50.9872
51.6716
52.3191
52.9246
53.4834
53.9916
54.4458
54.8426
55.179
55.4524
55.6613
55.8065
55.8927
55.932
55.9482
55.9526
55.9468
55.9146
55.8328
55.6893
55.4795
55.2025
54.8593
54.4524
53.9842
53.4577
52.8755
52.2401
51.5544
50.8197
50.0558
49.2945
48.6378
48.101
48.0727
48.5278
48.6395
49.2337
49.9162
50.6905
51.458
52.1967
52.893
53.5423
54.14
54.6825
55.1665
55.5886
55.9457
56.235
56.4547
56.6052
56.6904
56.7228
56.7306
56.7401
56.7508
56.7321
56.6573
56.5147
56.2998
56.0126
55.6541
55.2267
54.7328
54.1747
53.5545
52.8726
52.13
51.3234
50.4666
49.5838
48.7723
48.039
47.7884
48.3182
48.5142
49.1869
49.9364
50.77
51.5891
52.3737
53.1111
53.7973
54.428
55.0001
55.5098
55.9539
56.3291
56.632
56.8606
57.0142
57.0956
57.1167
57.11
57.1236
57.1527
57.1462
57.0749
56.9283
56.7034
56.4006
56.0216
55.569
55.0453
54.4526
53.7927
53.065
52.2697
51.4006
50.4712
49.5053
48.6009
47.7658
47.4145
47.9343
48.194
48.93
49.7372
50.621
51.4828
52.3021
53.0679
53.7778
54.4283
55.0167
55.5398
55.9943
56.3768
56.6842
56.9136
57.064
57.137
57.1429
57.1153
57.1237
57.1602
57.1553
57.079
56.9222
56.6834
56.3636
55.9652
55.4915
54.9456
54.3311
53.6509
52.9073
52.1037
51.2403
50.3374
49.4296
48.6268
47.9476
47.8054
43.6
51.3959
57.6038
63.6259
68.7566
72.8783
76.1607
78.8012
80.9564
82.7657
84.3525
85.7735
87.0686
88.268
89.4016
90.4983
91.5873
92.6956
93.8449
95.0499
96.3181
97.6507
99.0436
100.489
101.977
103.496
105.028
106.553
108.034
109.404
110.524
111.179
42.9438
50.4637
56.4807
62.3703
67.432
71.5196
74.7831
77.4138
79.5676
81.3833
82.975
84.3948
85.677
86.8591
87.9717
89.045
90.1092
91.1912
92.313
93.4893
94.7276
96.0288
97.3889
98.8002
100.252
101.733
103.228
104.714
106.156
107.492
108.581
109.218
42.239
49.5142
55.3498
61.1057
66.0961
70.1505
73.3993
76.028
78.1908
80.0207
81.6213
83.0417
84.3135
85.481
86.575
87.6267
88.6668
89.7233
90.8181
91.9661
93.1747
94.4448
95.772
97.1486
98.5653
100.009
101.465
102.913
104.318
105.617
106.678
107.297
41.4961
48.5453
54.2035
59.8251
64.7461
68.7732
72.0156
74.6518
76.8331
78.6847
80.2986
81.7212
82.9866
84.1412
85.2177
86.2488
87.2666
88.2989
89.3681
90.4889
91.6688
92.9085
94.2039
95.5473
96.9286
98.3357
99.7538
101.164
102.53
103.795
104.825
105.426
40.7375
47.5694
53.0479
58.531
63.3821
67.3864
70.6301
73.2833
75.4914
77.3687
78.9978
80.4262
81.6919
82.8371
83.8997
84.9135
85.9106
86.9203
87.965
89.0598
90.212
91.4223
92.6863
93.9963
95.3427
96.7137
98.0947
99.4678
100.797
102.027
103.03
103.612
39.9546
46.5766
51.8722
57.2132
61.9971
65.9877
69.2441
71.9233
74.1635
76.071
77.7212
79.1608
80.4301
81.5698
82.6206
83.6178
84.5966
85.5856
86.6078
87.678
88.8038
89.9858
91.2199
92.4983
93.8108
95.1463
96.4904
97.8254
99.1183
100.314
101.287
101.852
39.1636
45.5786
50.6852
55.877
60.5922
64.5739
67.8508
70.5641
72.8438
74.7853
76.4576
77.9113
79.1898
80.3325
81.3768
82.3636
83.3266
84.297
85.298
86.3451
87.4457
88.6003
89.8045
91.0508
92.3295
93.6302
94.9382
96.2372
97.4941
98.6571
99.603
100.15
38.3457
44.5555
49.4652
54.4996
59.146
63.1296
66.4418
69.2004
71.5241
73.5042
75.2088
76.6862
77.9791
79.1275
80.17
81.1467
82.0969
83.0511
84.0337
85.0595
86.1363
87.2648
88.441
89.6572
90.9037
92.1691
93.4412
94.7033
95.9241
97.0535
97.9694
98.4986
37.5145
43.5191
48.2231
53.089
57.6611
61.6488
65.0032
67.8156
70.195
72.2235
73.9615
75.4637
76.7766
77.9396
78.9895
79.9662
80.9085
81.8504
82.8161
83.8222
84.8765
85.9795
87.127
88.3118
89.5247
90.756
91.9918
93.2187
94.4047
95.502
96.3918
96.9032
36.6364
42.4346
46.9205
51.6021
56.0932
60.0952
63.5135
66.4001
68.8439
70.9251
72.7124
74.2552
75.5973
76.7783
77.8374
78.8154
79.7535
80.6857
81.6385
82.6272
83.6605
84.7395
85.8604
87.0161
88.1973
89.3927
90.5926
91.7817
92.9312
93.9952
94.8543
95.3466
35.7247
41.3147
45.5742
50.055
54.452
58.4655
61.9518
64.9214
67.4494
69.6071
71.4479
73.0308
74.4066
75.6158
76.6959
77.6872
78.6291
79.559
80.5017
81.4747
82.4884
83.543
84.635
85.7578
86.9033
88.0637
89.2254
90.3782
91.4921
92.5236
93.3577
93.8318
34.711
40.0993
44.118
48.3728
52.6556
56.685
60.2722
63.3671
66.0014
68.2378
70.1545
71.8031
73.2286
74.4726
75.5752
76.5778
77.5254
78.4527
79.3887
80.3492
81.3445
82.3767
83.4431
84.5376
85.6516
86.7739
87.8976
89.0107
90.0872
91.0846
91.8853
92.3395
33.6208
38.8135
42.5802
46.5854
50.729
54.7613
58.4458
61.6682
64.4376
66.8074
68.8154
70.5299
72.0102
73.3008
74.4416
75.4748
76.4387
77.3746
78.3072
79.2566
80.2355
81.2446
82.2818
83.3413
84.4165
85.5027
86.5865
87.6622
88.7014
89.6663
90.4436
90.8782
32.3557
37.3597
40.854
44.5668
48.5236
52.5424
56.3688
59.8093
62.774
65.2721
67.4041
69.2256
70.787
72.1369
73.3193
74.3763
75.3584
76.2999
77.2329
78.1755
79.1388
80.1273
81.1396
82.1715
83.2155
84.2599
85.3029
86.3354
87.3354
88.2642
89.0026
89.4165
30.9432
35.7688
38.9814
42.3685
46.096
50.0714
54.0158
57.6406
60.8252
63.5788
65.8815
67.8208
69.4759
70.9023
72.1472
73.2599
74.2752
75.2399
76.1789
77.1156
78.0661
79.0324
80.0141
81.007
82.0066
83.0125
84.0121
85.0044
85.9647
86.86
87.5781
87.969
29.1869
33.8528
36.7652
39.7607
43.153
47.0002
51.1017
55.1237
58.7078
61.6846
64.2117
66.3388
68.1305
69.6568
70.9743
72.127
73.1775
74.1581
75.1066
76.0437
76.9817
77.9288
78.8856
79.8511
80.8196
81.7776
82.7304
83.6747
84.5919
85.4463
86.1161
86.4852
27.1046
31.6531
34.2735
36.8421
39.8404
43.5343
47.7501
51.9495
55.8616
59.3944
62.2723
64.6373
66.6092
68.2702
69.69
70.9389
72.0469
73.0717
74.0389
74.9764
75.9056
76.8302
77.7534
78.6727
79.5866
80.5009
81.4053
82.3039
83.1767
83.9967
84.6522
84.9923
24.1914
28.7021
31.0367
33.0962
35.46
38.6039
42.7647
47.9018
52.7812
56.6708
60.0259
62.7667
64.9954
66.8385
68.3891
69.7021
70.871
71.9258
72.9139
73.8609
74.7804
75.6867
76.5837
77.4748
78.3573
79.2143
80.061
80.9025
81.7267
82.4971
83.0863
83.4035
20.3793
25.1043
27.2585
28.7971
30.489
33.5375
38.2325
42.482
47.4917
52.9858
57.1167
60.4004
63.0216
65.1304
66.8626
68.3485
69.6139
70.7452
71.7709
72.7257
73.6409
74.5224
75.3788
76.2111
77.0211
77.824
78.6133
79.4002
80.1717
80.9069
81.493
81.7695
13.0786
18.7972
21.0762
22.302
22.9765
23.3093
23.5787
34.5014
42.901
47.8628
53.3828
57.5972
60.7986
63.2979
65.2943
66.8885
68.2618
69.4444
70.5064
71.4832
72.3903
73.2527
74.0797
74.8809
75.6589
76.3885
77.1013
77.814
78.5267
79.1951
79.6822
79.9337
6.78441
9.80984
11.1087
11.4954
11.0012
11.4646
9.45827
14.7253
20.548
40.5391
47.9466
53.6897
57.8429
60.9024
63.2562
65.1956
66.7408
68.0584
69.1889
70.1831
71.0901
71.9214
72.6928
73.4122
74.0839
74.7377
75.3759
76.0173
76.6643
77.2968
77.804
77.9925
6.7789
10.6488
11.087
9.93901
6.81682
18.4111
16.1258
19.2171
22.6484
22.6408
40.2348
48.206
54.0129
58.1533
61.1348
63.2735
65.0298
66.439
67.6319
68.6675
69.5658
70.3729
71.108
71.789
72.428
72.9794
73.5037
74.0388
74.6033
75.1362
75.4762
75.6346
16.2672
20.5311
21.9207
21.9942
21.0787
19.9237
16.0882
22.5355
26.4741
26.4427
24.1907
41.1813
48.9975
54.1888
57.9397
60.8747
62.968
64.6381
65.9598
67.0263
67.9291
68.6897
69.3356
69.8872
70.3495
70.7747
71.1889
71.6143
72.0968
72.5912
73.0103
73.057
21.8085
26.5903
29.0259
30.5516
30.9688
30.1544
28.2925
24.5888
23.4424
23.2025
26.9883
23.1118
39.7436
49.057
54.6323
57.9581
60.5267
62.3656
63.7987
64.944
65.829
66.5511
67.1429
67.6424
68.0734
68.3377
68.5503
68.8074
69.1417
69.4702
69.5562
69.5502
23.4415
28.5062
31.4223
33.7481
35.4374
36.4288
36.6279
35.7911
33.2095
27.2312
25.7981
12.2963
22.7607
40.3758
48.3711
53.9862
57.2936
59.7211
61.4157
62.6073
63.4994
64.1319
64.5556
64.8061
64.8947
64.8853
64.9134
64.9646
65.2033
65.4808
65.8236
65.6005
24.0917
29.2279
32.3021
34.8606
36.8653
38.3052
39.1723
39.4162
38.8393
36.7691
30.7096
29.9559
17.5884
27.4102
42.8456
48.8972
53.4007
56.0504
57.9414
59.2885
60.1172
60.6723
60.9847
61.1778
61.2641
60.982
60.561
60.279
60.2099
60.1682
59.7313
59.2696
23.3706
28.655
31.8678
34.6136
36.8505
38.5669
39.7685
40.4668
40.6434
40.1153
38.0596
32.6077
27.5851
8.68995
26.0191
41.2374
47.2952
51.693
54.1477
55.5347
56.3438
56.6692
56.5989
56.1563
55.4371
54.2758
53.4624
53.0666
52.5716
52.5471
52.7804
52.0312
22.0984
27.5027
30.7768
33.5989
35.9356
37.7758
39.1317
40.0436
40.5783
40.7894
40.5214
38.7093
34.6676
16.4467
9.41303
29.0932
41.1322
44.7206
47.5672
49.1548
49.7883
49.7984
49.4908
49.1217
49.1082
47.2647
45.5433
43.5055
43.2112
41.2639
41.394
37.8862
20.5348
25.9964
29.256
32.0714
34.4235
36.3076
37.727
38.7196
39.3728
39.8317
40.2145
40.2342
38.4102
28.9447
21.8804
21.0747
25.3855
37.7368
41.633
43.2157
43.2122
42.9475
40.9287
38.5107
33.3202
29.0068
21.6396
26.6246
18.4796
32.3465
15.8138
4.44408
19.0332
24.4357
27.5818
30.2909
32.5627
34.4007
35.8043
36.7973
37.4674
37.9887
38.606
39.3414
39.276
35.9987
27.2842
28.9148
19.3448
15.379
23.228
25.338
26.5421
20.738
20.2453
17.2969
33.4125
33.2167
22.0054
33.631
18.4199
41.6575
23.9313
17.5681
17.7914
23.0719
26.0583
28.6106
30.7466
32.4751
33.7914
34.7033
35.2879
35.733
36.3559
37.3665
38.224
37.1011
30.5976
28.0753
16.8917
19.0964
25.6888
22.856
31.6787
18.74
30.895
19.0076
31.5517
25.6418
32.6759
38.8662
35.5429
39.3728
35.7886
32.3732
16.8726
22.0242
24.854
27.2464
29.2345
30.8325
32.0349
32.8378
33.2987
33.601
34.1055
35.1643
36.5452
36.9266
34.0526
27.7716
24.9333
15.9218
28.5378
22.4575
31.0369
27.7069
32.5463
32.694
27.7203
35.7024
37.7343
36.4654
38.8625
39.873
39.1839
44.3209
16.1728
21.2229
23.9251
26.183
28.0429
29.5248
30.6262
31.3398
31.7062
31.8953
32.2721
33.264
34.8807
36.3247
36.093
33.0538
28.8198
25.0816
21.1959
28.5151
27.1089
33.3742
36.0388
38.5094
40.2319
44.164
44.4417
44.2468
44.5213
45.6397
44.1097
47.5253
15.6053
20.5775
23.1786
25.3285
27.0852
28.475
29.501
30.159
30.4825
30.6297
30.9458
31.8604
33.4993
35.4293
36.8367
36.9696
35.9093
35.0719
34.2071
36.5749
38.9154
41.2247
42.7945
43.9342
44.8458
46.4039
46.2537
46.8045
46.2511
47.1322
46.0495
48.3477
15.0762
19.988
22.5087
24.5728
26.2484
27.5685
28.5429
29.1747
29.5004
29.6706
30.0056
30.9064
32.5326
34.5946
36.5557
37.972
38.7763
39.4046
39.8227
41.1196
42.4417
43.6478
44.7418
45.5576
46.2396
47.071
46.7661
47.5504
46.9984