/*--------------------------------*- C++ -*----------------------------------*\
  =========                 |
  \\      /  F ield         | OpenFOAM: The Open Source CFD Toolbox
   \\    /   O peration     | Website:  https://openfoam.org
    \\  /    A nd           | Version:  6
     \\/     M anipulation  |
\*---------------------------------------------------------------------------*/
FoamFile
{
    version     2.0;
    format      ascii;
    class       volVectorField;
    location    "1";
    object      wallShearStress;
}
// * * * * * * * * * * * * * * * * * * * * * * * * * * * * * * * * * * * * * //

dimensions      [0 2 -2 0 0 0 0];

internalField   uniform (0 0 0);

boundaryField
{
    inlet
    {
        type            calculated;
        value           uniform (0 0 0);
    }
    outlet
    {
        type            calculated;
        value           uniform (0 0 0);
    }
    roughCylinder
    {
        type            calculated;
        value           nonuniform List<vector> 
3840
(
(-0.000338337 -0.000495884 -0.000206468)
(-0.000413715 -0.000623317 -7.78002e-06)
(-0.000481965 -0.000750696 6.61998e-05)
(-0.000574163 -0.000848326 0.000150657)
(-0.000671661 -0.000908563 0.000228126)
(-0.000764139 -0.000932051 0.000289673)
(-0.000844896 -0.000929665 0.00033386)
(-0.00091362 -0.000921216 0.000364843)
(-0.000967904 -0.000916753 0.000384477)
(-0.00101066 -0.000920344 0.000393566)
(-0.00104535 -0.000931966 0.000393792)
(-0.00107484 -0.000950127 0.000387278)
(-0.00110228 -0.000973167 0.000376013)
(-0.00113021 -0.000999875 0.000361476)
(-0.00116029 -0.0010296 0.000344481)
(-0.00119335 -0.00106212 0.000325284)
(-0.00122967 -0.00109737 0.000303803)
(-0.00126918 -0.00113523 0.000279771)
(-0.00131158 -0.00117542 0.000252775)
(-0.00135627 -0.0012173 0.000222272)
(-0.00140216 -0.00125968 0.000187206)
(-0.00144721 -0.00130043 0.00014586)
(-0.00148664 -0.00133565 9.45073e-05)
(-0.00151221 -0.00135853 3.26669e-05)
(-0.000366671 -0.000488006 -0.000202724)
(-0.000446863 -0.00061367 -1.24535e-05)
(-0.000518511 -0.000741633 5.80302e-05)
(-0.000613833 -0.000840696 0.000140452)
(-0.000714144 -0.000903194 0.00021711)
(-0.000809985 -0.000929798 0.000278394)
(-0.000895614 -0.000932878 0.000323818)
(-0.000969339 -0.00092855 0.000357099)
(-0.00102724 -0.00092345 0.000378225)
(-0.00107137 -0.00092541 0.000387682)
(-0.00110747 -0.000936151 0.000387903)
(-0.0011384 -0.000953905 0.000381291)
(-0.00116736 -0.000976819 0.000369893)
(-0.00119693 -0.00100353 0.00035527)
(-0.00122878 -0.00103331 0.000338261)
(-0.00126379 -0.00106588 0.000319156)
(-0.00130223 -0.00110118 0.000297873)
(-0.00134403 -0.00113907 0.000274148)
(-0.00138887 -0.00117927 0.000247576)
(-0.00143611 -0.00122116 0.000217623)
(-0.00148462 -0.00126355 0.000183256)
(-0.0015322 -0.00130427 0.000142795)
(-0.00157383 -0.00133945 9.25203e-05)
(-0.00160085 -0.0013623 3.19649e-05)
(-0.00039607 -0.000473844 -0.000192318)
(-0.000480635 -0.000597637 -1.77264e-05)
(-0.000555778 -0.000725367 4.90932e-05)
(-0.000654007 -0.000825542 0.000129257)
(-0.000757335 -0.000890698 0.000205162)
(-0.00085719 -0.000921445 0.000266793)
(-0.000947883 -0.000930069 0.000313863)
(-0.0010262 -0.00092938 0.000348965)
(-0.00108802 -0.000924494 0.000371459)
(-0.00113337 -0.000924694 0.000381142)
(-0.0011708 -0.000934413 0.000381239)
(-0.00120315 -0.000951597 0.000374497)
(-0.00123363 -0.000974198 0.000362983)
(-0.00126485 -0.00100072 0.000348298)
(-0.00129851 -0.00103034 0.000331318)
(-0.00133548 -0.00106275 0.000312342)
(-0.00137606 -0.00109785 0.0002913)
(-0.00142016 -0.00113553 0.000267933)
(-0.00146746 -0.00117549 0.00024184)
(-0.00151728 -0.00121711 0.000212502)
(-0.00156841 -0.00125922 0.000178907)
(-0.00161855 -0.00129966 0.000139419)
(-0.00166239 -0.00133457 9.03313e-05)
(-0.00169088 -0.00135724 3.11919e-05)
(-0.00042477 -0.000455073 -0.000177376)
(-0.000512905 -0.000576178 -2.32766e-05)
(-0.000591243 -0.00070289 3.96842e-05)
(-0.000692137 -0.00080398 0.000117399)
(-0.000798735 -0.000872187 0.000192503)
(-0.000902947 -0.000907743 0.000254758)
(-0.000998681 -0.000921788 0.000303626)
(-0.00108156 -0.000924562 0.000340403)
(-0.00114763 -0.000920866 0.000364359)
(-0.00119432 -0.000918894 0.00037417)
(-0.00123302 -0.000927552 0.00037411)
(-0.00126679 -0.00094405 0.000367234)
(-0.00129878 -0.000966214 0.000355613)
(-0.00133163 -0.000992409 0.000340884)
(-0.00136706 -0.00102173 0.000323955)
(-0.00140596 -0.0010538 0.000305139)
(-0.00144862 -0.00108853 0.000284369)
(-0.00149496 -0.00112578 0.000261389)
(-0.00154464 -0.00116527 0.000235805)
(-0.00159696 -0.00120639 0.000207116)
(-0.00165064 -0.00124799 0.000174332)
(-0.00170326 -0.00128792 0.000135867)
(-0.00174925 -0.00132236 8.80277e-05)
(-0.00177917 -0.00134473 3.03779e-05)
(-0.000451431 -0.000431509 -0.000159443)
(-0.000542938 -0.000549614 -2.88194e-05)
(-0.000624206 -0.000674758 3.00279e-05)
(-0.000727596 -0.000776619 0.000105104)
(-0.000837682 -0.000848042 0.000179315)
(-0.000946397 -0.000888531 0.000242242)
(-0.00104703 -0.000907607 0.000292881)
(-0.0011344 -0.000913549 0.000331317)
(-0.00120428 -0.000911174 0.000356526)
(-0.00125328 -0.000907332 0.000366656)
(-0.00129325 -0.000914794 0.000366541)
(-0.00132841 -0.00093045 0.000359539)
(-0.00136187 -0.000952037 0.00034784)
(-0.0013963 -0.000977746 0.000333103)
(-0.00143344 -0.00100657 0.000316256)
(-0.00147418 -0.00103812 0.000297625)
(-0.00151882 -0.00107226 0.000277153)
(-0.0015673 -0.00110885 0.000254586)
(-0.00161924 -0.00114764 0.000229538)
(-0.00167394 -0.00118801 0.000201523)
(-0.00173006 -0.00122884 0.000169582)
(-0.00178505 -0.001268 0.000132178)
(-0.00183309 -0.00130176 8.56333e-05)
(-0.00186439 -0.00132367 2.95312e-05)
(-0.000476695 -0.000405011 -0.00014011)
(-0.000570715 -0.000519188 -3.42234e-05)
(-0.000654416 -0.000642131 2.0272e-05)
(-0.000760035 -0.00074452 9.24905e-05)
(-0.000873684 -0.000819112 0.000165685)
(-0.000986968 -0.000864326 0.000229244)
(-0.00109245 -0.000887878 0.000281559)
(-0.00118427 -0.000896547 0.000321617)
(-0.0012578 -0.000895223 0.000347842)
(-0.00131003 -0.000890236 0.00035857)
(-0.00135124 -0.000896213 0.000358532)
(-0.00138778 -0.00091085 0.000351427)
(-0.00142266 -0.000931689 0.000339686)
(-0.00145861 -0.000956734 0.000324972)
(-0.00149738 -0.0009849 0.000308239)
(-0.00153987 -0.00101572 0.000289826)
(-0.00158639 -0.00104905 0.000269681)
(-0.00163687 -0.00108476 0.000247551)
(-0.00169094 -0.00112259 0.000223061)
(-0.00174788 -0.00116196 0.000195744)
(-0.0018063 -0.00120175 0.000164671)
(-0.00186354 -0.0012399 0.000128362)
(-0.00191353 -0.00127275 8.31556e-05)
(-0.00194614 -0.00129408 2.86538e-05)
(-0.000499299 -0.000375608 -0.000119933)
(-0.000595619 -0.000485546 -3.93679e-05)
(-0.000681308 -0.000605801 1.05039e-05)
(-0.000788842 -0.00070845 7.96164e-05)
(-0.000905967 -0.00078599 0.00015161)
(-0.0010238 -0.000835554 0.000215696)
(-0.00113412 -0.00086301 0.00026956)
(-0.00123043 -0.000873963 0.000311162)
(-0.00130776 -0.000873447 0.000338297)
(-0.00136401 -0.000867951 0.000349911)
(-0.00140654 -0.000872209 0.000350067)
(-0.00144442 -0.000885641 0.000342883)
(-0.00148069 -0.000905561 0.00033115)
(-0.0015181 -0.000929784 0.000316498)
(-0.00155842 -0.000957109 0.000299917)
(-0.00160255 -0.000987025 0.000281755)
(-0.00165082 -0.00101935 0.000261964)
(-0.00170317 -0.00105397 0.000240297)
(-0.00175923 -0.00109063 0.000216388)
(-0.00181825 -0.00112875 0.00018979)
(-0.00187882 -0.00116728 0.000159609)
(-0.00193818 -0.00120418 0.000124429)
(-0.00198999 -0.00123592 8.05991e-05)
(-0.00202385 -0.00125653 2.77476e-05)
(-0.000519917 -0.000344631 -9.97708e-05)
(-0.000617471 -0.000449504 -4.42629e-05)
(-0.000704437 -0.000566445 8.1709e-07)
(-0.000813384 -0.000668924 6.65567e-05)
(-0.000933725 -0.00074901 0.000137113)
(-0.001056 -0.000802435 0.000201535)
(-0.00117114 -0.000833261 0.000256779)
(-0.001272 -0.000846125 0.000299845)
(-0.00135349 -0.000846395 0.00032793)
(-0.0014144 -0.000841279 0.00034069)
(-0.00145845 -0.000843131 0.000341068)
(-0.00149767 -0.00085517 0.000333898)
(-0.00153529 -0.000873986 0.000322226)
(-0.0015741 -0.000897216 0.000307686)
(-0.00161587 -0.000923546 0.000291301)
(-0.00166152 -0.000952387 0.000273427)
(-0.00171139 -0.000983534 0.000254021)
(-0.00176543 -0.00101687 0.00023284)
(-0.0018233 -0.00105214 0.000209532)
(-0.00188421 -0.00108881 0.000183671)
(-0.00194677 -0.00112585 0.000154403)
(-0.00200807 -0.00116129 0.000120381)
(-0.00206157 -0.00119173 7.79657e-05)
(-0.00209659 -0.00121151 2.68122e-05)
(-0.00053718 -0.00031173 -7.9827e-05)
(-0.0006357 -0.000411368 -4.8873e-05)
(-0.000723337 -0.000524533 -8.71144e-06)
(-0.000833101 -0.000626362 5.34042e-05)
(-0.000956257 -0.000708469 0.000122246)
(-0.00108278 -0.000765199 0.000186751)
(-0.0012027 -0.000798885 0.000243157)
(-0.00130824 -0.000813381 0.000287603)
(-0.00139417 -0.000814394 0.000316778)
(-0.00145932 -0.000809743 0.000330539)
(-0.00150626 -0.000809341 0.000331409)
(-0.00154681 -0.000819761 0.000324449)
(-0.00158579 -0.000837258 0.000312904)
(-0.00162592 -0.000859337 0.00029854)
(-0.00166902 -0.000884516 0.000282402)
(-0.00171604 -0.000912121 0.000264857)
(-0.00176734 -0.000941936 0.000245869)
(-0.00182287 -0.000973837 0.0002252)
(-0.00188233 -0.00100757 0.000202511)
(-0.00194493 -0.00104261 0.000177403)
(-0.00200927 -0.00107798 0.000149066)
(-0.00207232 -0.00111177 0.000116228)
(-0.00212736 -0.00114075 7.52603e-05)
(-0.00216346 -0.00115957 2.58494e-05)
(-0.000551931 -0.000278023 -6.07075e-05)
(-0.000650316 -0.000371921 -5.32061e-05)
(-0.000737776 -0.000480706 -1.78934e-05)
(-0.000847556 -0.000581209 4.03313e-05)
(-0.000972927 -0.000664689 0.000107093)
(-0.00110341 -0.000724136 0.000171346)
(-0.00122808 -0.000760233 0.00022865)
(-0.00133844 -0.000776131 0.000274367)
(-0.00142901 -0.0007778 0.000304743)
(-0.00149838 -0.000773416 0.000319428)
(-0.00154929 -0.000771617 0.000321121)
(-0.00159125 -0.000779857 0.000314519)
(-0.00163154 -0.000795826 0.000303185)
(-0.00167292 -0.000816579 0.000289074)
(-0.00171722 -0.000840465 0.00027324)
(-0.00176544 -0.000866726 0.000256071)
(-0.00181794 -0.000895064 0.000237533)
(-0.00187471 -0.000925352 0.000217393)
(-0.00193549 -0.000957362 0.000195337)
(-0.00199951 -0.00099059 0.000170993)
(-0.00206537 -0.00102409 0.0001436)
(-0.00212997 -0.00105605 0.000111973)
(-0.00218637 -0.0010834 7.24828e-05)
(-0.00222345 -0.00110117 2.48589e-05)
(-0.000562678 -0.000243607 -4.27748e-05)
(-0.000660911 -0.000331527 -5.68339e-05)
(-0.000747491 -0.000435431 -2.65229e-05)
(-0.000856339 -0.000533887 2.75297e-05)
(-0.000983141 -0.000618003 9.17535e-05)
(-0.00111718 -0.000679599 0.000155324)
(-0.00124652 -0.000717717 0.00021321)
(-0.00136186 -0.000734827 0.000260068)
(-0.00145725 -0.000737051 0.000291704)
(-0.00153097 -0.00073279 0.000307418)
(-0.00158605 -0.000730229 0.000310062)
(-0.00163027 -0.000736048 0.000304028)
(-0.00167186 -0.000750181 0.000293062)
(-0.0017144 -0.000769438 0.000279294)
(-0.00175974 -0.000791883 0.000263831)
(-0.00180893 -0.000816642 0.000247085)
(-0.00186238 -0.000843467 0.000229036)
(-0.00192014 -0.000872234 0.000209459)
(-0.00198198 -0.000902587 0.000188055)
(-0.00204716 -0.00093403 0.000164485)
(-0.00211429 -0.000965649 0.000138044)
(-0.00218021 -0.000995665 0.000107642)
(-0.00223776 -0.00102126 6.96506e-05)
(-0.00227572 -0.00103787 2.38456e-05)
(-0.000570348 -0.000210069 -2.69385e-05)
(-0.000667695 -0.000291105 -5.90112e-05)
(-0.000752405 -0.000389265 -3.41982e-05)
(-0.000859081 -0.000484796 1.52991e-05)
(-0.000986305 -0.000568739 7.63297e-05)
(-0.00112334 -0.000631953 0.000138676)
(-0.00125727 -0.000671791 0.000196777)
(-0.00137772 -0.000689976 0.000244622)
(-0.00147811 -0.000692658 0.000277562)
(-0.00155638 -0.000688394 0.000294498)
(-0.0016155 -0.000685258 0.000298149)
(-0.00166298 -0.000689328 0.000292957)
(-0.00170613 -0.000701337 0.000282554)
(-0.0017497 -0.00071885 0.000269238)
(-0.00179592 -0.000739837 0.000254236)
(-0.00184589 -0.000763183 0.000237979)
(-0.00189983 -0.000788422 0.000220431)
(-0.00195785 -0.000815418 0.000201381)
(-0.00202002 -0.000843867 0.000180595)
(-0.00208569 -0.000873301 0.000157778)
(-0.00215356 -0.000902825 0.00013229)
(-0.00222043 -0.000930748 0.000103145)
(-0.00227891 -0.000954468 6.67036e-05)
(-0.00231764 -0.000969847 2.27887e-05)
(-0.000573478 -0.000178191 -1.37503e-05)
(-0.000670407 -0.000250966 -5.85206e-05)
(-0.000752277 -0.00034241 -4.0667e-05)
(-0.000855348 -0.000434262 3.82147e-06)
(-0.000981794 -0.00051725 6.08795e-05)
(-0.0011212 -0.00058166 0.000121362)
(-0.00125955 -0.000623008 0.000179277)
(-0.00138526 -0.000642166 0.000227948)
(-0.00149088 -0.000645193 0.000262218)
(-0.00157388 -0.00064079 0.000280561)
(-0.00163708 -0.000637058 0.000285406)
(-0.00168764 -0.000639768 0.000281156)
(-0.00173276 -0.000649864 0.000271502)
(-0.00177744 -0.000665567 0.00025881)
(-0.00182412 -0.000684897 0.00024434)
(-0.00187418 -0.000706605 0.000228572)
(-0.00192813 -0.000730034 0.000211518)
(-0.00198612 -0.000755008 0.000193008)
(-0.00204831 -0.000781307 0.00017286)
(-0.00211414 -0.000808486 0.000150813)
(-0.00218244 -0.000835701 0.000126305)
(-0.00224997 -0.000861374 9.84639e-05)
(-0.00230913 -0.000883116 6.36301e-05)
(-0.00234852 -0.000897176 2.16837e-05)
(-0.000573621 -0.000147601 -3.28955e-06)
(-0.000669178 -0.000212586 -5.65309e-05)
(-0.000746803 -0.000295624 -4.54875e-05)
(-0.000844628 -0.000382933 -6.69946e-06)
(-0.000968981 -0.000464172 4.54784e-05)
(-0.00111002 -0.000529356 0.000103377)
(-0.00125263 -0.000572036 0.000160667)
(-0.00138375 -0.00059208 0.000209978)
(-0.00149484 -0.000595334 0.000245587)
(-0.0015828 -0.000590626 0.000265497)
(-0.00165017 -0.000586168 0.000271757)
(-0.00170376 -0.000587546 0.000268617)
(-0.00175075 -0.000595868 0.000259837)
(-0.00179634 -0.000609732 0.000247872)
(-0.00184327 -0.000627219 0.000234017)
(-0.00189317 -0.000647039 0.000218795)
(-0.00194681 -0.000668473 0.000202275)
(-0.00200443 -0.000691253 0.000184336)
(-0.0020663 -0.00071525 0.000164852)
(-0.00213195 -0.000740012 0.000143599)
(-0.00220036 -0.000764771 0.000120102)
(-0.00226826 -0.000788071 9.36098e-05)
(-0.00232784 -0.000807735 6.04361e-05)
(-0.00236777 -0.000820411 2.05315e-05)
(-0.000570735 -0.000115518 6.3431e-06)
(-0.00066249 -0.00017629 -5.76202e-05)
(-0.000734704 -0.000250675 -4.8795e-05)
(-0.00082616 -0.000332021 -1.60043e-05)
(-0.000947169 -0.000410549 3.03837e-05)
(-0.0010891 -0.000475901 8.48857e-05)
(-0.00123577 -0.00051967 0.000140992)
(-0.00137243 -0.00054049 0.000190687)
(-0.00148928 -0.00054383 0.000227608)
(-0.00158247 -0.000538618 0.000249215)
(-0.00165414 -0.000533233 0.000257106)
(-0.0017108 -0.000533177 0.000255287)
(-0.00175959 -0.000539699 0.000247543)
(-0.00180595 -0.000551645 0.000236424)
(-0.00185288 -0.000567159 0.000223275)
(-0.00190234 -0.00058496 0.000208676)
(-0.00195529 -0.000604273 0.00019274)
(-0.0020122 -0.000624756 0.000175407)
(-0.00207336 -0.00064633 0.000156612)
(-0.00213844 -0.000668566 0.000136168)
(-0.00220662 -0.000690762 0.000113703)
(-0.00227457 -0.00071159 8.85992e-05)
(-0.00233433 -0.000729101 5.71304e-05)
(-0.0023747 -0.000740319 1.93348e-05)
(-0.000560084 -8.2158e-05 1.67177e-05)
(-0.000650504 -0.000140437 -6.14648e-05)
(-0.000715363 -0.000207886 -5.18166e-05)
(-0.000799444 -0.000282399 -2.44342e-05)
(-0.000915822 -0.000357308 1.57851e-05)
(-0.00105779 -0.000422136 6.60778e-05)
(-0.00120826 -0.000466711 0.000120343)
(-0.00135062 -0.000488207 0.000170074)
(-0.00147353 -0.000491513 0.000208235)
(-0.00157224 -0.000485574 0.000231648)
(-0.00164839 -0.000479005 0.000241378)
(-0.00170818 -0.000477337 0.000241117)
(-0.00175875 -0.000481957 0.000234616)
(-0.00180571 -0.000491897 0.000224497)
(-0.00185241 -0.000505348 0.00021217)
(-0.00190108 -0.000521035 0.000198275)
(-0.00195298 -0.000538166 0.00018297)
(-0.00200876 -0.000556293 0.000166268)
(-0.0020688 -0.000575388 0.000148177)
(-0.00213295 -0.000595039 0.00012855)
(-0.00220055 -0.000614601 0.000107132)
(-0.00226825 -0.00063289 8.34488e-05)
(-0.00232792 -0.000648204 5.37223e-05)
(-0.00236864 -0.000657902 1.80958e-05)
(-0.000541744 -5.0578e-05 2.55087e-05)
(-0.000632654 -0.000105664 -6.39804e-05)
(-0.000689156 -0.000166681 -5.47716e-05)
(-0.000764499 -0.000234533 -3.22313e-05)
(-0.000874714 -0.000305178 1.80952e-06)
(-0.00101561 -0.000368832 4.71415e-05)
(-0.00116949 -0.000413962 9.88299e-05)
(-0.00131764 -0.000436073 0.000148168)
(-0.00144694 -0.000439254 0.000187437)
(-0.00155149 -0.000432398 0.000212745)
(-0.00163235 -0.000424362 0.00022453)
(-0.00169537 -0.000420854 0.000226084)
(-0.00174768 -0.00042343 0.000221067)
(-0.00179508 -0.00043126 0.000212139)
(-0.00184127 -0.000442588 0.000200764)
(-0.00188881 -0.000456133 0.000187655)
(-0.00193924 -0.000471063 0.000173019)
(-0.00199352 -0.000486847 0.000156965)
(-0.00205205 -0.000503471 0.000139588)
(-0.00211483 -0.000520534 0.000120775)
(-0.00218152 -0.000537438 0.000100409)
(-0.00224866 -0.000553159 7.81739e-05)
(-0.00230799 -0.000566239 5.02192e-05)
(-0.00234899 -0.000574381 1.68152e-05)
(-0.00051543 -2.19574e-05 3.2369e-05)
(-0.000608292 -7.2841e-05 -6.4901e-05)
(-0.000656453 -0.000127831 -5.72955e-05)
(-0.000721594 -0.000189254 -3.90246e-05)
(-0.000823891 -0.000254992 -1.12062e-05)
(-0.000962295 -0.00031681 2.83981e-05)
(-0.00111894 -0.000362232 7.66549e-05)
(-0.00127291 -0.000384939 0.000125045)
(-0.00140892 -0.00038797 0.000165216)
(-0.00151968 -0.000380033 0.000192476)
(-0.0016055 -0.00037027 0.000206533)
(-0.00167186 -0.000364668 0.000210188)
(-0.00172588 -0.000365043 0.000206925)
(-0.00177355 -0.00037068 0.000199398)
(-0.00181893 -0.000379864 0.00018912)
(-0.00186497 -0.000391284 0.000176875)
(-0.00191351 -0.000404061 0.000162935)
(-0.00196587 -0.000417568 0.000147535)
(-0.00202244 -0.000431777 0.000130872)
(-0.0020835 -0.000446305 0.000112864)
(-0.00214894 -0.000460581 9.35507e-05)
(-0.00221522 -0.000473731 7.27872e-05)
(-0.00227395 -0.000484583 4.66269e-05)
(-0.00231518 -0.000491127 1.54944e-05)
(-0.000481864 3.18766e-06 3.73255e-05)
(-0.000576919 -4.28819e-05 -6.47357e-05)
(-0.00061738 -9.22784e-05 -5.90509e-05)
(-0.000671174 -0.000147465 -4.45114e-05)
(-0.000763594 -0.000207703 -2.2864e-05)
(-0.000897701 -0.000266946 1.02712e-05)
(-0.00105622 -0.000312354 5.41141e-05)
(-0.00121593 -0.000335665 0.00010085)
(-0.00135895 -0.000338575 0.000141613)
(-0.00147633 -0.000329462 0.000170837)
(-0.00156741 -0.000317753 0.000187384)
(-0.00163726 -0.000309828 0.000193446)
(-0.00169295 -0.000307847 0.000192233)
(-0.00174068 -0.000311226 0.000186337)
(-0.00178494 -0.000318292 0.000177301)
(-0.00182906 -0.000327666 0.000165995)
(-0.00187527 -0.000338392 0.000152767)
(-0.0019253 -0.00034974 0.000138017)
(-0.00197952 -0.000361658 0.000122061)
(-0.00203841 -0.000373744 0.000104837)
(-0.00210227 -0.000385446 8.65717e-05)
(-0.0021674 -0.000396065 6.72999e-05)
(-0.00222528 -0.000404713 4.29502e-05)
(-0.0022667 -0.000409627 1.4133e-05)
(-0.000441788 2.41641e-05 4.03409e-05)
(-0.000538284 -1.66071e-05 -6.36919e-05)
(-0.000572063 -6.08317e-05 -5.98815e-05)
(-0.000613873 -0.000110027 -4.84679e-05)
(-0.000694341 -0.000164264 -3.27247e-05)
(-0.000821999 -0.000220135 -6.71258e-06)
(-0.000981123 -0.000265132 3.16197e-05)
(-0.00114634 -0.000289074 7.58246e-05)
(-0.0012967 -0.000291964 0.000116742)
(-0.0014211 -0.000281654 0.000147874)
(-0.00151775 -0.000267843 0.000167112)
(-0.00159121 -0.000257418 0.000175898)
(-0.00164851 -0.000252964 0.000177051)
(-0.00169608 -0.000254068 0.000173026)
(-0.00173882 -0.000259084 0.000165373)
(-0.0017806 -0.000266543 0.000155069)
(-0.00182401 -0.000275385 0.000142553)
(-0.00187128 -0.00028473 0.000128434)
(-0.00192269 -0.000294515 0.000113174)
(-0.00197907 -0.000304312 9.67111e-05)
(-0.00204103 -0.000313537 7.94823e-05)
(-0.00210472 -0.000321695 6.17194e-05)
(-0.00216153 -0.000328206 3.91922e-05)
(-0.00220312 -0.000331461 1.27307e-05)
(-0.000396004 4.03489e-05 4.14189e-05)
(-0.000492591 5.22176e-06 -6.18814e-05)
(-0.000520943 -3.42071e-05 -5.97848e-05)
(-0.000550688 -7.77825e-05 -5.0786e-05)
(-0.000617174 -0.000125613 -4.03437e-05)
(-0.000735656 -0.000177239 -2.19031e-05)
(-0.000893685 -0.000221297 9.74051e-06)
(-0.0010639 -0.000245873 5.03295e-05)
(-0.00122186 -0.000248923 9.07995e-05)
(-0.00135376 -0.000237505 0.000123701)
(-0.00145633 -0.000221539 0.0001458)
(-0.00153353 -0.000208517 0.00015763)
(-0.0015923 -0.000201537 0.000161468)
(-0.00163938 -0.000200407 0.000159552)
(-0.00168023 -0.000203511 0.000153413)
(-0.00171922 -0.000209245 0.000144154)
(-0.00175935 -0.000216419 0.00013233)
(-0.00180346 -0.000223968 0.000118813)
(-0.00185168 -0.000231831 0.000104234)
(-0.00190508 -0.000239507 8.8494e-05)
(-0.00196487 -0.000246395 7.22909e-05)
(-0.00202687 -0.000252199 5.60559e-05)
(-0.00208235 -0.000256659 3.53555e-05)
(-0.00212411 -0.000258234 1.12867e-05)
(-0.000345239 5.12404e-05 4.06238e-05)
(-0.00044017 2.19556e-05 -5.93134e-05)
(-0.000464429 -1.29218e-05 -5.87883e-05)
(-0.000482685 -5.13357e-05 -5.14961e-05)
(-0.000533563 -9.25946e-05 -4.53618e-05)
(-0.000639834 -0.000139044 -3.45214e-05)
(-0.000794388 -0.000181496 -1.07695e-05)
(-0.000968842 -0.000206662 2.49143e-05)
(-0.00113455 -0.000210115 6.41313e-05)
(-0.00127432 -0.000197781 9.85344e-05)
(-0.00138311 -0.000179736 0.000123611)
(-0.00146409 -0.000164131 0.000138781)
(-0.00152418 -0.000154675 0.000145614)
(-0.00157042 -0.000151445 0.000146023)
(-0.00160888 -0.000152843 0.000141495)
(-0.00164457 -0.000157098 0.000133303)
(-0.00168094 -0.000162874 0.000122124)
(-0.0017215 -0.000168852 0.000109165)
(-0.00176607 -0.000175034 9.52447e-05)
(-0.00181625 -0.00018082 8.01959e-05)
(-0.00187355 -0.000185527 6.50021e-05)
(-0.00193357 -0.000189114 5.03139e-05)
(-0.00198751 -0.000191653 3.14428e-05)
(-0.00202949 -0.000191538 9.80002e-06)
(-0.000290468 5.65483e-05 3.81029e-05)
(-0.000381839 3.30774e-05 -5.60205e-05)
(-0.000403417 2.66306e-06 -5.69901e-05)
(-0.000411512 -3.10744e-05 -5.07678e-05)
(-0.000445823 -6.59155e-05 -4.7607e-05)
(-0.000536232 -0.000106159 -4.37154e-05)
(-0.000684023 -0.000146091 -2.88797e-05)
(-0.000861327 -0.000171725 3.35418e-07)
(-0.00103484 -0.000175908 3.72463e-05)
(-0.00118301 -0.000163024 7.27335e-05)
(-0.00129829 -0.000143142 0.00010082)
(-0.00138305 -0.000125135 0.000119578)
(-0.0014441 -0.000113388 0.000129666)
(-0.00148903 -0.000108306 0.000132568)
(-0.00152461 -0.000108293 0.000129707)
(-0.00155652 -0.000111372 0.000122563)
(-0.00158866 -0.000116066 0.000111955)
(-0.00162532 -0.000120719 9.94955e-05)
(-0.00166594 -0.000125504 8.62204e-05)
(-0.00171239 -0.000129624 7.18137e-05)
(-0.00176706 -0.000132349 5.7622e-05)
(-0.00182491 -0.000133895 4.45037e-05)
(-0.00187706 -0.00013468 2.74582e-05)
(-0.00191929 -0.000132877 8.27094e-06)
(-0.00023285 5.6259e-05 3.41284e-05)
(-0.000318566 3.83176e-05 -5.2022e-05)
(-0.000338795 1.24819e-05 -5.44414e-05)
(-0.000338858 -1.69618e-05 -4.8824e-05)
(-0.000356771 -4.5809e-05 -4.71148e-05)
(-0.000428346 -7.9191e-05 -4.87802e-05)
(-0.000564768 -0.000115307 -4.32969e-05)
(-0.000742706 -0.000141164 -2.23207e-05)
(-0.000923674 -0.000146437 1.09124e-05)
(-0.00108044 -0.000133494 4.6856e-05)
(-0.00120241 -0.000112223 7.78603e-05)
(-0.00129074 -9.21949e-05 0.000100359)
(-0.00135237 -7.85306e-05 0.000113883)
(-0.00139542 -7.19818e-05 0.000119364)
(-0.0014275 -7.09379e-05 0.000118141)
(-0.0014551 -7.31967e-05 0.000111978)
(-0.00148252 -7.71471e-05 0.000101828)
(-0.00151502 -8.07216e-05 8.97984e-05)
(-0.00155127 -8.43958e-05 7.71527e-05)
(-0.0015939 -8.71193e-05 6.33555e-05)
(-0.00164559 -8.80671e-05 5.01551e-05)
(-0.00170101 -8.77779e-05 3.86334e-05)
(-0.00175115 -8.70256e-05 2.34074e-05)
(-0.00179368 -8.35659e-05 6.70072e-06)
(-0.000173945 5.05668e-05 2.90333e-05)
(-0.000251973 3.75907e-05 -4.73867e-05)
(-0.000272034 1.67041e-05 -5.12438e-05)
(-0.000266798 -8.54014e-06 -4.601e-05)
(-0.000269557 -3.18516e-05 -4.4172e-05)
(-0.000319608 -5.80114e-05 -4.91723e-05)
(-0.000439254 -8.89782e-05 -5.25291e-05)
(-0.000613787 -0.000114345 -4.15148e-05)
(-0.000801718 -0.000121293 -1.38273e-05)
(-0.000967461 -0.000109043 2.16939e-05)
(-0.00109614 -8.70895e-05 5.53524e-05)
(-0.00118772 -6.56859e-05 8.15959e-05)
(-0.00124923 -5.06858e-05 9.85823e-05)
(-0.00128968 -4.32119e-05 0.000106588)
(-0.00131768 -4.16076e-05 0.000106877)
(-0.00134053 -4.34361e-05 0.000101574)
(-0.00136286 -4.70034e-05 9.17326e-05)
(-0.00139096 -4.97154e-05 8.00508e-05)
(-0.00142265 -5.25824e-05 6.80407e-05)
(-0.00146101 -5.41519e-05 5.48095e-05)
(-0.00150975 -5.35709e-05 4.26126e-05)
(-0.00156256 -5.16935e-05 3.27216e-05)
(-0.00161047 -4.96769e-05 1.93048e-05)
(-0.00165337 -4.46367e-05 5.09463e-06)
(-0.000114787 3.96558e-05 2.31061e-05)
(-0.000182883 3.14436e-05 -4.14291e-05)
(-0.000203996 1.62327e-05 -4.73259e-05)
(-0.000197204 -4.54946e-06 -4.26924e-05)
(-0.000188101 -2.25149e-05 -3.92962e-05)
(-0.000215134 -4.05087e-05 -4.4698e-05)
(-0.000313131 -6.4812e-05 -5.53059e-05)
(-0.00047862 -9.04124e-05 -5.55612e-05)
(-0.000671038 -9.96439e-05 -3.55342e-05)
(-0.00084567 -8.91315e-05 -1.66793e-06)
(-0.000980894 -6.74973e-05 3.4182e-05)
(-0.00107507 -4.56416e-05 6.39455e-05)
(-0.0011357 -3.01309e-05 8.4209e-05)
(-0.00117271 -2.24261e-05 9.44967e-05)
(-0.00119599 -2.08057e-05 9.60206e-05)
(-0.00121355 -2.2586e-05 9.13689e-05)
(-0.0012304 -2.61135e-05 8.16432e-05)
(-0.00125413 -2.81374e-05 7.02308e-05)
(-0.00128093 -3.04768e-05 5.88727e-05)
(-0.00131506 -3.11392e-05 4.61909e-05)
(-0.00136049 -2.92706e-05 3.50121e-05)
(-0.00141049 -2.60875e-05 2.67925e-05)
(-0.00145587 -2.31514e-05 1.51704e-05)
(-0.00149911 -1.66733e-05 3.46156e-06)
(-5.76139e-05 2.6426e-05 1.73355e-05)
(-0.000114704 2.03836e-05 -3.61042e-05)
(-0.000137276 1.16823e-05 -4.32283e-05)
(-0.00013296 -4.0829e-06 -3.95115e-05)
(-0.000117482 -1.65699e-05 -3.27463e-05)
(-0.000137296 -2.37918e-05 -3.57076e-05)
(-0.00022144 -4.10429e-05 -5.10442e-05)
(-0.00034227 -6.69971e-05 -6.21019e-05)
(-0.000534193 -7.99223e-05 -5.24238e-05)
(-0.000716841 -7.27415e-05 -2.18356e-05)
(-0.000857974 -5.27689e-05 1.54782e-05)
(-0.00095375 -3.17003e-05 4.821e-05)
(-0.00101236 -1.67134e-05 7.12338e-05)
(-0.00104503 -9.59759e-06 8.32959e-05)
(-0.00106292 -8.51635e-06 8.55988e-05)
(-0.00107511 -1.06143e-05 8.13431e-05)
(-0.00108626 -1.44106e-05 7.15069e-05)
(-0.00110557 -1.58203e-05 6.02804e-05)
(-0.00112749 -1.78918e-05 4.96356e-05)
(-0.00115713 -1.78608e-05 3.74957e-05)
(-0.0011994 -1.49761e-05 2.73874e-05)
(-0.00124633 -1.07821e-05 2.08862e-05)
(-0.00128904 -7.38909e-06 1.1043e-05)
(-0.00133273 2.84066e-07 1.81978e-06)
(-8.09316e-06 1.25255e-05 1.66838e-05)
(-4.95495e-05 8.43768e-06 -2.89771e-05)
(-7.24038e-05 6.82113e-06 -3.99571e-05)
(-7.32149e-05 -9.31627e-07 -3.89042e-05)
(-6.35734e-05 -7.99752e-06 -4.57578e-05)
(-6.18397e-05 -3.01945e-05 -4.83358e-05)
(-0.000115134 -7.98891e-05 -3.57141e-05)
(-0.000221547 -5.17391e-05 -2.45197e-05)
(-0.000396143 -5.93059e-05 -6.07383e-05)
(-0.000584078 -5.85447e-05 -3.68538e-05)
(-0.000729999 -4.19729e-05 6.81343e-07)
(-0.000825977 -2.31668e-05 3.53993e-05)
(-0.000881302 -9.88645e-06 6.0254e-05)
(-0.000908472 -4.19004e-06 7.32512e-05)
(-0.000920686 -4.21526e-06 7.5685e-05)
(-0.000926905 -6.85362e-06 7.14529e-05)
(-0.000932328 -1.11411e-05 6.12622e-05)
(-0.000947681 -1.19166e-05 5.01732e-05)
(-0.000964645 -1.3943e-05 4.03357e-05)
(-0.000989862 -1.33629e-05 2.87678e-05)
(-0.00102871 -9.72427e-06 1.97974e-05)
(-0.0010725 -4.82742e-06 1.50675e-05)
(-0.00111204 -1.56274e-06 6.97657e-06)
(-0.00115586 6.92215e-06 1.96085e-07)
(1.63741e-05 2.3786e-06 1.13279e-05)
(5.04044e-06 -6.71367e-06 -1.73048e-05)
(-1.67208e-05 -2.82701e-06 -2.29257e-05)
(-3.69548e-05 -1.97771e-06 -3.89527e-05)
(-3.23346e-05 -1.78738e-05 -5.12573e-05)
(-4.64347e-05 -4.72466e-05 -5.90242e-05)
(-5.85688e-05 -7.64468e-05 -2.72687e-05)
(-0.000102165 -4.4943e-05 -9.43765e-06)
(-0.000263245 -3.98103e-05 -5.14008e-05)
(-0.000450614 -4.48588e-05 -4.43198e-05)
(-0.000598945 -3.39428e-05 -8.61724e-06)
(-0.000693026 -1.90288e-05 2.65093e-05)
(-0.000743544 -8.61327e-06 5.17411e-05)
(-0.000764616 -5.11321e-06 6.44955e-05)
(-0.000770333 -6.57289e-06 6.61561e-05)
(-0.000771483 -9.91129e-06 6.16179e-05)
(-0.000771108 -1.47959e-05 5.08182e-05)
(-0.000782862 -1.47802e-05 3.9847e-05)
(-0.000794893 -1.68828e-05 3.09744e-05)
(-0.000816028 -1.59342e-05 2.00598e-05)
(-0.000851443 -1.17691e-05 1.23321e-05)
(-0.00089141 -6.28311e-06 9.42021e-06)
(-0.000927915 -4.05733e-06 3.05782e-06)
(-0.000971961 4.68067e-06 -1.36589e-06)
(3.23893e-05 -4.09625e-06 1.04453e-05)
(2.84431e-05 -1.3078e-05 -1.32846e-05)
(1.75365e-05 -8.6719e-06 -2.66764e-05)
(1.18663e-05 -3.41799e-05 -3.49049e-05)
(-1.44801e-06 -4.26229e-05 -2.56559e-05)
(-2.10372e-05 -2.63687e-05 -3.26718e-05)
(-5.36826e-06 -2.98025e-05 -4.37391e-05)
(-4.01709e-05 -3.81522e-05 -3.57775e-05)
(-0.000150609 -3.39219e-05 -2.7371e-05)
(-0.000322567 -3.01519e-05 -4.25799e-05)
(-0.000469296 -2.78275e-05 -1.11675e-05)
(-0.000558426 -1.80626e-05 2.24637e-05)
(-0.000602511 -1.1487e-05 4.61061e-05)
(-0.00061553 -1.03553e-05 5.704e-05)
(-0.000616244 -1.3776e-05 5.69631e-05)
(-0.000611304 -1.74805e-05 5.16622e-05)
(-0.000606101 -2.30282e-05 4.01165e-05)
(-0.000614985 -2.18088e-05 2.93344e-05)
(-0.000622992 -2.42579e-05 2.16443e-05)
(-0.000639476 -2.28427e-05 1.15034e-05)
(-0.000671554 -1.82746e-05 5.16358e-06)
(-0.000707948 -1.22211e-05 4.09089e-06)
(-0.000740744 -1.23541e-05 -5.95184e-07)
(-0.000784177 -4.17092e-06 -2.80485e-06)
(4.88997e-05 -1.61928e-05 1.20232e-05)
(4.71719e-05 -1.6234e-05 -1.17988e-05)
(4.24286e-05 -3.25827e-05 -3.18691e-05)
(5.02723e-05 -3.90065e-05 -1.73278e-05)
(2.68354e-05 -2.71907e-05 -8.20548e-06)
(1.16575e-05 -1.83048e-05 -1.4955e-06)
(-5.65237e-06 4.10284e-05 -3.55183e-05)
(-1.32933e-05 -3.08778e-05 -5.50858e-05)
(-7.28209e-05 -1.82969e-05 -1.68532e-05)
(-0.000208327 -1.94507e-05 -3.19255e-05)
(-0.0003452 -2.30245e-05 -5.65099e-06)
(-0.000425691 -1.95955e-05 2.36996e-05)
(-0.000461149 -1.69153e-05 4.34344e-05)
(-0.000468484 -1.84607e-05 5.08337e-05)
(-0.000461158 -2.30113e-05 4.77155e-05)
(-0.00045427 -2.7002e-05 4.16079e-05)
(-0.000443723 -3.29379e-05 2.9196e-05)
(-0.000451648 -3.04313e-05 1.87538e-05)
(-0.000454254 -3.30241e-05 1.2499e-05)
(-0.000468722 -3.12902e-05 3.39336e-06)
(-0.000496607 -2.68232e-05 -1.53519e-06)