/*--------------------------------*- C++ -*----------------------------------*\
  =========                 |
  \\      /  F ield         | OpenFOAM: The Open Source CFD Toolbox
   \\    /   O peration     | Website:  https://openfoam.org
    \\  /    A nd           | Version:  6
     \\/     M anipulation  |
\*---------------------------------------------------------------------------*/
FoamFile
{
    version     2.0;
    format      ascii;
    class       volScalarField;
    location    "41";
    object      yPlus;
}
// * * * * * * * * * * * * * * * * * * * * * * * * * * * * * * * * * * * * * //

dimensions      [0 0 0 0 0 0 0];

internalField   uniform 0;

boundaryField
{
    inlet
    {
        type            calculated;
        value           uniform 0;
    }
    outlet
    {
        type            calculated;
        value           uniform 0;
    }
    roughCylinder
    {
        type            calculated;
        value           nonuniform List<scalar> 
3840
(
45.88
54.294
62.2111
69.2295
74.559
78.5292
81.5584
83.9667
86.0307
87.8484
89.4988
91.045
92.5579
94.107
95.7454
97.5045
99.3913
101.395
103.494
105.657
107.835
109.959
111.828
113.065
45.0897
53.2223
60.9206
67.8348
73.1269
77.0804
80.1078
82.5271
84.5961
86.4021
88.0295
89.5472
91.0286
92.5428
94.1454
95.8659
97.7114
99.6714
101.723
103.837
105.964
108.038
109.861
111.066
44.214
52.1071
59.6025
66.4138
71.6755
75.6244
78.6635
81.1027
83.1799
84.9791
86.5883
88.0807
89.5319
91.0142
92.5807
94.2629
96.0679
97.9848
99.9903
102.055
104.132
106.155
107.932
109.106
43.3296
50.9728
58.267
64.975
70.2106
74.1642
77.2276
79.6974
81.789
83.5899
85.1825
86.6519
88.0763
89.5267
91.0604
92.7067
94.4721
96.3462
98.3063
100.323
102.35
104.323
106.055
107.197
42.3685
49.7927
56.8886
63.4973
68.7223
72.6989
75.8001
78.3062
80.418
82.2259
83.8098
85.2615
86.6611
88.0851
89.5863
91.1973
92.9251
94.7586
96.6744
98.6445
100.623
102.548
104.234
105.346
41.4664
48.6099
55.4907
61.9949
67.2146
71.2237
74.3719
76.9252
79.0649
80.8864
82.4688
83.9065
85.287
86.6838
88.1572
89.7367
91.4282
93.2219
95.0946
97.0186
98.9478
100.825
102.467
103.548
40.439
47.3577
54.0244
60.4319
65.6672
69.7318
72.9424
75.5461
77.7199
79.5611
81.1549
82.5865
83.9504
85.3285
86.7743
88.3219
89.9794
91.7352
93.5667
95.4463
97.3285
99.1599
100.759
101.81
39.5491
46.1201
52.5313
58.823
64.0775
68.2094
71.4918
74.1629
76.3824
78.2543
79.8611
81.295
82.6519
84.0101
85.4345
86.9562
88.5811
90.3001
92.0903
93.9252
95.7605
97.5455
99.1011
100.123
38.4166
44.7514
50.9188
57.1085
62.4079
66.6387
70.0196
72.7629
75.0362
76.9442
78.5815
80.03
81.3836
82.7346
84.138
85.632
87.2268
88.9107
90.662
92.4547
94.2438
95.9843
97.4985
98.491
37.5223
43.422
49.2621
55.3038
60.6477
64.9965
68.4878
71.3335
73.6802
75.6452
77.3122
78.7781
80.1428
81.4858
82.8766
84.3518
85.9177
87.5674
89.2783
91.0268
92.7689
94.4629
95.9342
96.8972
36.1876
41.8553
47.4066
53.3098
58.7221
63.2352
66.8967
69.8568
72.2901
74.3128
76.0362
77.5391
78.9156
80.2662
81.6456
83.0983
84.6379
86.2545
87.9276
89.6339
91.3292
92.9823
94.4117
95.345
35.1414
40.35
45.4789
51.1676
56.6377
61.3437
65.1761
68.3044
70.8605
72.9834
74.759
76.2977
77.7046
79.0578
80.4355
81.8775
83.3929
84.9777
86.6104
88.2721
89.9208
91.5239
92.9108
93.8144
33.8148
38.6105
43.2458
48.6567
54.1817
59.1505
63.3156
66.6517
69.3555
71.5681
73.4399
75.0473
76.4848
77.8651
79.2419
80.6679
82.1614
83.7151
85.3114
86.9312
88.5316
90.0977
91.4409
92.3143
32.422
36.846
40.9333
45.9574
51.5062
56.7778
61.191
64.825
67.7515
70.1483
72.1057
73.7731
75.2689
76.6647
78.0535
79.4786
80.9531
82.4778
84.033
85.6058
87.1585
88.6698
89.97
90.8121
30.4573
34.5198
37.9628
42.4355
47.9022
53.5703
58.728
62.7894
65.9992
68.542
70.668
72.4557
74.0061
75.4571
76.8596
78.2772
79.735
81.2305
82.7498
84.2809
85.7812
87.2592
88.5132
89.3233
28.2975
32.1614
34.9862
38.8098
44.1866
50.2951
55.6897
60.3544
64.0079
66.9219
69.1952
71.0784
72.732
74.2165
75.649
77.078
78.523
79.9916
81.4672
82.9462
84.3958
85.8124
87.0191
87.7962
24.79
28.4148
30.409
32.9963
37.6271
44.3789
51.8515
57.4305
61.7229
64.911
67.5031
69.6073
71.3505
72.9307
74.3976
75.8304
77.2645
78.7059
80.1444
81.5812
82.9732
84.3554
85.5159
86.2562
20.0104
24.6704
26.2396
28.0871
32.8052
39.7529
46.3031
53.5537
58.8328
62.8515
65.7312
67.9969
69.9274
71.5733
73.0965
74.5576
75.9868
77.4019
78.7917
80.1653
81.4969
82.8149
83.9147
84.619
11.2245
14.4189
15.4148
11.5243
9.06273
21.3719
39.3194
48.1857
55.2912
59.9253
63.5048
66.2182
68.3022
70.1075
71.6961
73.1768
74.6021
75.9918
77.3405
78.6724
79.9422
81.2103
82.2683
82.9278
5.41508
11.0847
11.7614
13.1894
22.0164
23.6521
23.0199
40.9731
50.0758
56.9167
61.0568
64.0927
66.5536
68.4951
70.1892
71.7255
73.1569
74.5188
75.807
77.0507
78.2343
79.4498
80.4195
81.033
15.918
18.198
18.1247
21.9926
26.3679
26.2822
26.9771
24.3287
43.4953
51.4248
57.596
61.6833
64.4397
66.6654
68.475
70.056
71.4933
72.8311
74.0711
75.282
76.4047
77.5196
78.4545
79.0177
23.7656
27.0461
28.1344
27.0527
25.0642
20.7409
19.509
25.6867
29.2104
47.1785
53.4777
58.3485
61.9837
64.5104
66.5401
68.2314
69.6939
70.9994
72.1495
73.2075
74.1874
75.2916
76.094
76.5741
25.893
29.8538
32.2958
33.6292
33.2428
30.5931
24.1834
18.4092
16.3386
29.1167
46.5172
54.4911
58.8153
61.9386
64.1718
65.953
67.4407
68.7235
69.8107
70.8811
71.8027
72.6896
73.4574
73.8906
26.7101
30.8112
33.5965
35.6017
36.6214
36.4562
34.2173
27.6927
24.8281
26.9534
35.1763
48.1369
54.7881
58.5694
61.3248
63.3498
64.8998
66.1372
67.0615
67.7959
68.4723
69.419
69.9841
70.2385
26.3724
30.6252
33.542
35.8089
37.2938
37.9348
37.5716
35.0814
26.5201
34.1484
22.8744
39.6583
49.0214
54.4409
57.5327
59.6991
61.323
62.5527
63.3566
64.2914
64.8857
65.4183
65.93
66.0958
24.3115
28.8943
32.0655
34.657
36.552
37.7447
38.2492
37.794
34.6242
32.999
29.3653
29.9747
42.073
48.0288
52.5858
55.4387
57.1951
58.321
58.766
58.7697
58.9922
59.5004
59.6894
59.5013
21.4225
26.3754
29.7573
32.5957
34.8122
36.4258
37.5316
38.1193
37.4783
31.5026
36.1697
7.73103
25.7321
40.7895
45.653
48.1619
50.1896
51.6257
51.4316
52.574
52.5095
53.0733
53.1563
51.8191
18.4323
23.5933
27.0077
29.9251
32.3297
34.2787
35.8872
37.2415
38.0658
36.7889
31.462
23.17
28.0857
23.1119
35.6231
40.9809
43.1912
43.7426
43.0208
41.2281
42.066
37.4548
37.2146
37.2794
15.8247
20.9185
24.1605
26.9709
29.4009
31.5506
33.5441
35.4989
37.3314
38.3659
36.9741
31.0739
20.2943
28.3368
17.9537
14.3928
20.7781
30.0954
16.0415
21.9766
23.6504
32.0722
32.1551
36.1486
13.4758
18.4024
21.399
24.0261
26.3926
28.6268
30.8527
33.1784
35.6257
37.862
39.0086
37.5115
30.7365
21.4607
25.4314
7.58975
17.3364
35.8881
8.58188
24.0906
29.05
33.7059
35.887
19.4243
11.7762
16.4157
19.1166
21.5116
23.7505
25.9647
28.2597
30.724
33.4248
36.2626
38.6985
39.7534
37.7156
29.5346
34.8992
23.9253
23.3245
37.4223
25.3928
32.3384
41.0514
27.1851
30.1865
32.3298
10.793
15.1102
17.5532
19.744
21.8465
23.9708
26.1912
28.5808
31.2255
34.177
37.2307
39.6124
40.2431
38.2461
32.1714
31.5066
30.0117
28.2395
36.4816
35.3456
34.2112
38.7547
38.466
42.3979
10.3604
14.5325
16.8047
18.8639
20.8613
22.8684
24.9275
27.0981
29.4749
32.1787
35.2438
38.3128
40.3843
40.8182
37.3562
38.8536
39.1714
37.5886
42.8282
41.1028
35.1803
43.3512
43.0491
44.755
10.4681
14.5542
16.7613
18.7764
20.7199
22.6244
24.5077
26.4193
28.4497
30.7292
33.3977
36.4337
39.2756
41.0484
40.206
41.2983
41.7928
41.1755
43.9029
42.4712
38.3377
43.7859
43.4773
44.5335
10.902
15.0046
17.2386
19.2816
21.2197
23.0578
24.7997
26.4876
28.2001
30.0477
32.1793
34.7305
37.5601
40.0729
40.8424
41.954
42.4622
41.9762
43.5898
42.4048
39.4464
42.9289
42.609
43.3527
11.5341
15.7442
18.0504
20.1639
22.1372
23.9525
25.6062
27.137
28.6117
30.1141
31.7616
33.7092
36.0365
38.5349
40.1759
41.5634
42.1231
41.6504
42.4094
41.2857
39.056
41.2327
40.8937
41.5187
12.4085
16.7002
19.0886
21.2861
23.3108
25.1308
26.7427
28.185
29.5131
30.7844
32.0772
33.5128
35.2217
37.2286
38.9905
40.4958
41.1155
40.6327
40.7661
39.6509
37.9314
39.278
39.0003
39.6158
13.4497
17.8007
20.278
22.563
24.6444
26.4839
28.0846
29.489
30.7449
31.8876
32.9605
34.0395
35.2363
36.6459
38.0713
39.3767
39.9434
39.4586
39.1538
38.0676
36.761
37.5705
37.4507
38.1131
14.5483
18.9873
21.5621
23.936
26.0763
27.9453
29.5561
30.9569
32.1908
33.2786
34.238
35.1071
35.9561
36.8748
37.8291
38.7296
39.0974
38.5748
37.9798
36.9321
35.9263
36.4294
36.5263
37.2528
15.6643
20.2188
22.9007
25.3657
27.5671
29.4726
31.108
32.5277
33.7708
34.8491
35.7652
36.5316
37.1803
37.7672
38.3118
38.7771
38.8565
38.2385
37.4418
36.4152
35.6091
35.9595
36.2826
37.0706
16.3587
16.801
17.2617
17.6066
17.9227
18.1563
18.3571
18.4983
18.6065
18.6718
18.7085
18.7107
18.6861
18.6325
18.5534
18.4505
18.3272
18.1882
18.0465
17.942
17.9942
18.1429
18.3056
18.4586
18.593
18.7063
18.7941
18.8556
18.8877
18.8919
18.861
18.8008
18.6951
18.5536
18.3507
18.111
17.7865
17.429
16.9532
16.4921
21.0224
21.4526
21.9215
22.2826
22.6242
22.8919
23.1301
23.3153
23.4688
23.5825
23.668
23.7205
23.7441
23.7366
23.6985
23.6302
23.534
23.4132
23.2799
23.1763
23.2327
23.3834
23.5378
23.6723
23.7797
23.858
23.9042
23.9194
23.9029
23.8566
23.7766
23.6667
23.514
23.3271
23.0852
22.8098
22.4582
22.083
21.5979
21.1478
23.7766
24.2276
24.7324
25.1281
25.5147
25.8325
26.1255
26.3709
26.5879
26.7671
26.9187
27.0389
27.1296
27.1875
27.2114
27.2
27.1538
27.0761
26.9787
26.9028
26.9516
27.0758
27.1962
27.289
27.3474
27.3697
27.3551
27.3063
27.2243
27.1118
26.9668
26.7917
26.576
26.33
26.0337
25.7086
25.312
24.9017
24.3804
23.9082
26.286
26.7445
27.2702
27.6863
28.1029
28.455
28.7874
29.0776
29.3448
29.579
29.787
29.9646
30.112
30.2256
30.3026
30.341
30.3402
30.3036
30.2439
30.1996
30.238
30.3304
30.4154
30.4685
30.4825
30.4558
30.3893
30.286
30.148
29.9793
29.7791
29.5505
29.2868
28.9983
28.6634
28.3052
27.8795
27.4495
26.9075
26.4275
28.5072
28.9506
29.4756
29.8923
30.3191
30.6888
31.0475
31.3709
31.6755
31.9518
32.2039
32.427
32.6197
32.7774
32.8969
32.9751
33.0106
33.0065
32.9755
32.9521
32.9844
33.0534
33.1101
33.1313
33.1093
33.0431
32.9346
32.7874
32.6046
32.3911
32.1473
31.8777
31.5781
31.2578
30.8989
30.526
30.0916
29.6619
29.121
28.6563
30.4219
30.8377
31.3533
31.7653
32.1999
32.5861
32.9673
33.3197
33.6567
33.9691
34.2588
34.5205
34.7514
34.9465
35.1013
35.2118
35.2761
35.2967
35.2857
35.2744
35.3034
35.3577
35.3938
35.3899
35.3386
35.2397
35.0957
34.911
34.69
34.4376
34.1564
33.8513
33.52
33.1715
32.7915
32.4032
31.9634
31.5401
31.0094
30.5729
32.0689
32.4581
32.9685
33.3829
33.8271
34.2306
34.633
35.0115
35.377
35.7205
36.0423
36.3366
36.5994
36.8251
37.0083
37.1445
37.2308
37.2692
37.271
37.2664
37.2939
37.3393
37.3613
37.3385
37.2644
37.139
36.9659
36.75
36.4967
36.2115
35.898
35.5619
35.2022
34.8278
34.427
34.0224
33.5734
33.1499
32.6258
32.2168
33.5071
33.8734
34.3831
34.8013
35.2553
35.6744
36.0952
36.4957
36.8847
37.2536
37.6012
37.9216
38.2097
38.4594
38.6645
38.82
38.9224
38.9733
38.9836
38.9825
39.009
39.049
39.0611
39.0247
38.9332
38.7875
38.5916
38.3511
38.0718
37.7601
37.4204
37.0585
36.6752
36.2787
35.8597
35.4398
34.9814
34.5547
34.0323
33.6465
34.7692
35.1135
35.621
36.042
36.5038
36.9354
37.3708
37.7889
38.1966
38.5854
38.9532
39.2935
39.6008
39.8685
40.0901
40.2601
40.3748
40.4354
40.4526
40.455
40.4802
40.5149
40.5186
40.471
40.3662
40.205
39.9917
39.7323
39.4331
39.1007
38.7403
38.3582
37.9559
37.5417
37.1078
36.6754
36.2093
35.7801
35.2598
34.8971
35.862
36.1799
36.6823
37.1043
37.5716
38.0134
38.4608
38.8931
39.3156
39.7199
40.1032
40.4588
40.7807
41.0619
41.2961
41.4774
41.6025
41.6726
41.6983
41.7062
41.7291
41.7558
41.7498
41.6918
41.5756
41.4019
41.1751
40.9011
40.5865
40.2381
39.8615
39.4633
39.0458
38.6172
38.1712
37.7286
37.2566
36.8265
36.3109
35.9742
36.7809
37.0653
37.5581
37.9789
38.4506
38.9014
39.3594
39.8041
40.2394
40.6567
41.0526
41.4202
41.7534
42.0452
42.2894
42.4805
42.6155
42.6962
42.7327
42.748
42.7679
42.7837
42.7658
42.6964
42.5695
42.3851
42.1471
41.8615
41.5346
41.1733
40.7834
40.3717
39.9411
39.4995
39.0427
38.5907
38.1142
37.6845
37.1776
36.8727
37.5227
37.7607
38.2362
38.6535
39.1284
39.5882
40.0567
40.5136
40.961
41.3902
41.7972
42.1752
42.518
42.8188
43.0717
43.2718
43.4167
43.5086
43.5569
43.5798
43.5965
43.6006
43.5694
43.488
43.3503
43.1558
42.908
42.6123
42.2748
41.9021
41.5004
41.0761
40.6328
40.1788
39.711
39.2495
38.7692
38.3421
37.85
37.5898
38.0922
38.2556
38.7012
39.1097
39.5857
40.0543
40.5341
41.0038
41.4637
41.9049
42.3228
42.7107
43.0624
43.3715
43.6325
43.8411
43.9956
44.0983
44.1573
44.1866
44.2003
44.1938
44.1497
44.0562
43.9078
43.7036
43.4465
43.1413
42.7937
42.4102
41.9967
41.5597
41.1034
40.6362
40.1569
39.6861
39.2033
38.7827
38.3174
38.1304
38.5059
38.5431
38.9304
39.3217
39.7938
40.2703
40.7611
41.2446
41.7179
42.1719
42.6014
42.9993
43.36
43.6773
43.9461
44.1629
44.3262
44.4384
44.5062
44.5403
44.5514
44.5358
44.4802
44.3755
44.2166
44.0028
43.7363
43.4214
43.0636
42.6688
42.2429
41.7926
41.3223
40.841
40.35
39.8701
39.3888
38.9824
38.574
38.5145
38.7743
38.6188
38.9019
39.2549
39.7165
40.1974
40.6986
41.1956
41.683
42.1506
42.5924
43.0014
43.3716
43.6975
43.9742
44.1987
44.37
44.4902
44.5648
44.6023
44.6109
44.5878
44.5223
44.4073
44.2383
44.0148
43.7386
43.4134
43.0445
42.6376
42.1983
41.7336
41.2487
40.7532
40.2511
39.7647
39.2918
38.9243
38.6221
38.7604
38.8558
38.4635
38.5992
38.8845
39.3204
39.8021
40.3102
40.8196
41.3202
41.8012
42.2553
42.6754
43.0554
43.3899
43.6744
43.9061
44.0842
44.2107
44.2902
44.3298
44.3362
44.3069
44.2329
44.1087
43.9302
43.6968
43.4103
43.0744
42.6938
42.2739
41.8209
41.3415
40.8423
40.3331
39.822
39.3335
38.8892
38.5977
38.4578
38.858
38.5654
37.991
37.9926
38.2019
38.6001
39.0737
39.5861
40.1035
40.6138
41.105
41.5692
41.9984
42.3866
42.7283
43.0192
43.2566
43.4396
43.5703
43.6528
43.6933
43.6977
43.6634
43.5829
43.4508
43.264
43.0218
42.7259
42.3798
41.9882
41.5567
41.0913
40.5994
40.088
39.5684
39.0497
38.5711
38.1729
37.9762
38.0044
38.6424
37.8017
37.1466
37.0746
37.2311
37.5971
38.0577
38.5694
39.0899
39.6043
40.1
40.5686
41.0021
41.394
41.7388
42.0321
42.2713
42.4556
42.587
42.6696
42.7095
42.712
42.6746
42.5902
42.4534
42.2613
42.0132
41.711
41.358
40.959
40.5196
40.046
39.5448
39.0242
38.4933
37.9723
37.5081
37.1493
37.0203
37.1468
37.9008
36.8257
36.1187
35.9967
36.108
36.4406
36.8802
37.3816
37.8991
38.4108
38.9049
39.3717
39.8035
40.1934
40.5357
40.8261
41.0618
41.2421
41.3692
41.4481
41.4856
41.4871
41.4498
41.3658
41.2292
41.037
40.7881
40.4847
40.13
39.729
39.287
38.8104
38.3059
37.781
37.2484
36.7354
36.2935
35.9743
35.9044
36.108
36.9636
36.0524
35.242
35.049
35.106
35.3989
35.8099
36.2912
36.7948
37.2957
37.7803
38.2383
38.6612
39.042
39.3747
39.6549
39.8798
40.0488
40.1648
40.2341
40.2664
40.2687
40.2367
40.1604
40.0319
39.8472
39.6056
39.309
38.9612
38.5669
38.1318
37.6621
37.1651
36.6482
36.1276
35.6324
35.2137
34.9211
34.8774
35.0943
35.9504
35.1738
34.5071
34.4037
34.5044
34.8127
35.2202
35.6875
36.1717
36.6524
37.1161
37.5529
37.9545
38.3138
38.625
38.8836
39.0867
39.2333
39.327
39.3767
39.3983
39.4037
39.3853
39.3262
39.2152
39.0477
38.8231
38.5438
38.2137
37.8376
37.4218
36.9729
36.4982
36.0069
35.5127
35.0428
34.6459
34.3651
34.3178
34.4968
35.2777
35.3188
34.7004
34.6298
34.734
35.028
35.4053
35.8353
36.2797
36.7231
37.151
37.5535
37.922
38.2495
38.5301
38.759
38.9329
39.0503
39.1136
39.1333
39.1348
39.1445
39.1455
39.108
39.0178
38.8707
38.6671
38.4097
38.103
37.752
37.3629
36.943
36.5005
36.046
35.5935
35.1637
34.8031
34.553
34.533
34.7355
35.5561
36.3762
35.737
35.6314
35.6744
35.9028
36.2101
36.5759
36.9644
37.3584
37.7419
38.1039
38.4355
38.7293
38.9791
39.1801
39.3283
39.4217
39.4617
39.458
39.4436
39.4648
39.489
39.4743
39.4068
39.2835
39.1058
38.8767
38.6006
38.2828
37.9289
37.5459
37.1421
36.7269
36.3147
35.9204
35.5804
35.3253
35.2671
35.3852
36.0707
36.8738
36.3035
36.2512
36.3347
36.5854
36.9021
37.2674
37.6486
38.0304
38.3986
38.743
39.0559
39.3307
39.5616
39.7443
39.8753
39.9525
39.9773
39.9589
39.9321
39.9527
39.982
39.9736
39.914
39.8004
39.6344
39.4189
39.1585
38.8581
38.5238
38.1626
37.7826
37.3943
37.0121
36.6523
36.3478
36.1219
36.0861
36.2109
36.8955
45.8505
54.2474
62.1581
69.1745
74.5026
78.4724
81.5022
83.9112
85.9752
87.7931
89.4436
90.9898
92.5026
94.0518
95.6902
97.4493
99.336
101.34
103.437
105.598
107.774
109.892
111.763
112.997
45.0206
53.148
60.8517
67.7726
73.0676
77.0224
80.0504
82.4701
84.5392
86.3452
87.9726
89.4905
90.9721
92.4864
94.089
95.8096
97.655
99.6149
101.666
103.777
105.902
107.968
109.793
110.995
44.145
52.0337
59.5325
66.3489
71.6125
75.562
78.6022
81.0425
83.1202
84.9201
86.5299
88.0226
89.4739
90.9564
92.5231
94.2056
96.0105
97.9265
99.9313
101.994
104.068
106.084
107.863
109.033
43.2477
50.8928
58.1907
64.9046
70.1451
74.1012
77.1656
79.6357
81.7278
83.5294
85.1221
86.592
88.017
89.4678
91.0017
92.6481
94.4135
96.2876
98.2466
100.261
102.284
104.25
105.983
107.122
42.3085
49.7273
56.8195
63.4274
68.6529
72.6298
75.7323
78.2404
80.3534
82.1624
83.7477
85.2003
86.6002
88.0245
89.5262
91.1376
92.8655
94.6983
96.6134
98.5811
100.556
102.472
104.161
105.269
41.3956
48.5359
55.4133
61.9179
67.1413
71.1541
74.3042
76.8577
78.9983
80.8211
82.4044
83.8429
85.2246
86.6222
88.0961
89.6757
91.3674
93.1609
95.0324
96.9539
98.8791
100.747
102.392
103.469
40.3893
47.2964
53.9538
60.3563
65.5898
69.6536
72.8654
75.4724
77.6489
79.4921
81.0882
82.5215
83.8861
85.2649
86.7115
88.2599
89.9177
91.6729
93.5031
95.3804
97.2591
99.0794
100.681
101.729
39.4763
46.0389
52.4427
58.7324
63.9906
68.1293
71.4163
74.0884
76.3088
78.1824
79.7913
81.2267
82.5857
83.9454
85.3707
86.8927
88.5179
90.2368
92.0259
93.8581
95.6881
97.4613
99.0207
100.039
38.3615
44.6812
50.8376
57.0224
62.3202
66.5483
69.9293
72.6775
74.9559
76.8685
78.509
79.9602
81.3153
82.6673
84.0722
85.5674
87.1627
88.846
90.5962
92.3857
94.171
95.8976
97.4152
98.4044
37.426
43.3149
49.1445
55.1824
60.532
64.8961
68.4001
71.2497
73.5977
75.5641
77.2346
78.7033
80.0713
81.4174
82.8094
84.2852
85.8517
87.5015
89.2115
90.9565
92.6914
94.3716
95.8468
96.8073
36.1138
41.7661
47.3083
53.2121
58.6275
63.1326
66.7878
69.7535
72.1962
74.2281
75.9561
77.4632
78.8424
80.1943
81.5759
83.0303
84.5708
86.1869
87.8585
89.5617
91.2527
92.8866
94.3208
95.2509
35.0021
40.197
45.3065
50.9805
56.4534
61.1966
65.0659
68.2077
70.766
72.889
74.6707
76.2136
77.6251
78.9837
80.3633
81.8072
83.3233
84.9081
86.5403
88.1974
89.8359
91.423
92.8138
93.7163
33.7107
38.4937
43.1253
48.5572
54.1076
59.0488
63.1826
66.5204
69.2416
71.4718
73.3492
74.9629
76.4058
77.7873
79.1677
80.5953
82.0904
83.6439
85.2382
86.8553
88.4502
89.9896
91.3406
92.2105
32.2204
36.6328
40.6765
45.6333
51.1407
56.5106
61.032
64.707
67.6374
70.0316
72.0019
73.677
75.1778
76.5823
77.9742
79.4031
80.8789
82.4034
83.9586
85.526
87.0629
88.5548
89.8587
90.7035
30.2986
34.3432
37.7973
42.3759
47.9802
53.5273
58.5643
62.6131
65.8572
68.4346
70.5634
72.3582
73.9192
75.3722
76.7799
78.1987
79.6589
81.1544
82.671
84.1997
85.695
87.1341
88.4006
89.2073
28.0015
31.8857
34.6342
38.1693
43.2134
49.6934
55.4196
60.1913
63.8543
66.7605
69.0662
70.9675
72.6254
74.1217
75.5588
76.9955
78.4426
79.9105
81.3873
82.8591
84.284
85.6771
86.8874
87.6723
24.5343
28.1063
30.0881
33.136
38.5575
44.6093
51.6314
57.18
61.5401
64.7982
67.3825
69.488
71.2505
72.8358
74.3116
75.7438
77.1816
78.6229
80.0587
81.4942
82.8816
84.2081
85.3855
86.1244
19.6614
24.3953
25.7815
26.7383
29.9719
38.3051
45.7787
53.2609
58.586
62.5985
65.5563
67.8683
69.8018
71.4609
72.9893
74.4655
75.8982
77.3117
78.7039
80.0682
81.3616
82.6477
83.7534
84.4719
9.21882
14.8089
16.9299
15.2257
3.94269
22.0247
39.2662
47.902
55.0468
59.8086
63.3644
66.061
68.1787
69.9971
71.6042
73.0789
74.5098
75.8988
77.2459
78.5768
79.8401
81.0322
82.1091
82.7762
12.214
16.4439
19.8695
19.6969
19.2076
24.0082
19.5221
40.0238
49.532
56.4652
60.7987
63.9432
66.4009
68.3567
70.0522
71.6193
73.0575
74.4156
75.7088
76.9427
78.0699
79.2295
80.2143
80.8494
16.3034
18.8471
19.6883
16.8549
12.5325
16.4807
13.4224
23.0086
43.1677
51.2838
57.4426
61.4604
64.28
66.5292
68.3818
69.9417
71.3876
72.7228
73.9641
75.1664
76.2735
77.2957
78.2473
78.8367
23.7309
26.9984
28.3043
28.0866
25.1138
20.7932
23.1047
18.0699
26.3164
46.1661
53.0547
58.1796
61.7701
64.3229
66.3434
68.1025
69.5802
70.8761
72.0389
73.0963
73.9903
74.9766
75.8112
76.337
25.8735
29.7906
32.301
33.7617
33.643
31.0118
25.0753
22.6034
23.52
28.715
46.8497
54.1996
58.6223
61.7625
64.0942
65.813
67.3151
68.5889
69.6866
70.7085
71.6013
72.3843
73.1655
73.6534
26.7273
30.8268
33.6172
35.6619
36.763
36.7305
34.8788
28.3709
25.8427
26.5282
33.9119
47.9522
54.3517
58.2592
60.9885
63.178
64.7668
65.9778
66.9378
67.7136
68.2113
68.9167
69.5369
69.9337
26.3666
30.6211
33.5505
35.8468
37.3779
38.0898
37.8821
35.9221
29.5961
33.3318
31.1549
40.2591
48.9987
54.2106
57.53
59.5148
61.1752
62.3623
63.224
63.9516
64.5622
64.9157
65.4609
65.7658
24.2644
28.8622
32.0578
34.6854
36.6293
37.8873
38.4966
38.2443
35.213
32.7886
32.4174
24.9743
39.9292
47.2742
51.8383
55.172
57.0341
58.0727
58.6362
58.8283
58.4216
58.5725
58.8268
59.2655
21.2962
26.2799
29.6859
32.5569
34.8224
36.5056
37.7192
38.528
38.4283
34.6101
31.7078
5.86375
27.0101
41.1597
45.8479
47.9042
50.1667
51.1621
51.421
51.8069
52.4412
51.5012
52.0768
51.7135
18.2649
23.4376
26.8562
29.7862
32.222
34.2283
35.9289
37.4637
38.6899
38.523
33.4677
29.1619
4.71928
20.4164
32.9402
40.5153
42.568
43.2475
42.958
40.5243
37.3748
36.8655
35.7086
39.7554
15.6017
20.691
23.9206
26.7271
29.1696
31.3538
33.4103
35.4825
37.5524
39.0979
38.7968
33.3042
17.2455
14.9881
14.5686
12.4065
27.7485
23.9804
20.9137
27.9397
28.9886
15.3771
26.4836
44.4585
13.2486
18.1519
21.121
23.7279
26.0882
28.3334
30.5906
32.978
35.5488
38.0326
39.5755
37.6796
29.1449
30.5638
13.8429
9.2538
36.1457
30.097
13.3146
36.8201
33.4286
27.3867
33.7783
41.4023
11.5934
16.1975
18.8634
21.2294
23.449
25.6539
27.9486
30.4256
33.1655
36.1094
38.7398
39.6124
37.4512
29.5487
26.5619
16.2174
32.405
32.1152
31.766
37.2223
37.6167
38.0443
30.3302
29.7156
10.6757
14.9586
17.3696
19.5333
21.6135
23.718
25.918
28.2866
30.9151
33.8755
37.0001
39.4062
40.1842
36.1207
34.3393
31.7594
28.7539
31.5665
34.5722
36.2339
38.0228
40.5837
37.7637
38.7093
10.2893
14.438
16.6911
18.7331
20.7137
22.7015
24.7363
26.875
29.2135
31.8806
34.9343
38.0287
40.2528
39.7024
39.3604
39.6752
37.6349
39.6505
40.2637
42.4368
39.1545
43.7458
41.2074
42.7303
10.4271
14.4993
16.6982
18.7051
20.6387
22.5299
24.3955
26.282
28.2777
30.514
33.1406
36.1627
39.1122
40.4788
41.0814
41.7739
40.8878
41.9657
41.6815
43.3115
40.0742
43.7633
41.6384
43.2484
10.8757
14.9645
17.1961
19.2363
21.1704
23.0036
24.7383
26.4136
28.1054
29.924
32.0207
34.5462
37.4296
39.7751
41.2374
42.1888
41.7672
42.1846
41.6296
42.7668
39.949
42.5546
41.1064
42.4846
11.5321
15.706
18.0107
20.1221
22.093
23.9077
25.562
27.0918
28.5608
30.0522
31.6841
33.6172
35.9676
38.392
40.3539
41.629
41.5644
41.4682
40.7473
41.3911
39.0062
40.5044
39.7892
40.8283
12.3499
16.6526
19.0413
21.2348
23.2561
25.0766
26.6923
28.14
29.4726
30.7474
32.0422
33.4805
35.2072
37.1875
39.0907
40.4839
40.6438
40.24
39.4139
39.6529
37.6524
38.3487
38.3247
39.0321
13.3896
17.7426
20.2159
22.4939
24.5701
26.4095
28.0148
29.4273
30.6924
31.8471
32.9334
34.0279
35.2463
36.6575
38.1395
39.3415
39.5641
39.0252
38.164
38.0508
36.4123
36.6684
37.1604
37.6512
14.4612
18.9074
21.4779
23.8436
25.9776
27.8456
29.4605
30.8701
32.115
33.218
34.1967
35.0882
35.9635
36.8995
37.8798
38.7013
38.8274
38.2232
37.3406
36.9412
35.6145
35.7131
36.5269
36.9412
15.5548
20.1167
22.7926
25.248
27.442
29.3459
30.9847
32.4131
33.6677
34.762
35.6992
36.4904
37.1679
37.781
38.3457
38.7643
38.6938
38.0162
37.0905
36.4707
35.3926
35.4872
36.4764
36.9131
45.8836
44.2047
43.3166
41.7816
40.792
39.2165
38.1598
36.7424
35.6635
34.3679
33.3996
32.18
31.2532
30.2522
29.3454
28.6199
27.9124
27.3621
26.9931
26.5597
26.5648
26.9897
27.4159
27.8921
28.6272
29.3512
30.3508
31.2841
32.2139
33.4352
34.4044
35.768
36.7357
38.2139
39.2187
40.7904
41.8066
43.4697
44.2319
45.8932
54.4895
52.9892
52.1537
50.8033
49.8568
48.5029
47.4914
46.3217
45.3212
44.2744
43.3405
42.3497
41.5516
40.7051
40.0011
39.3294
38.7739
38.3121
38.0946
37.8173
37.8204
38.1012
38.3305
38.7695
39.3543
40.0478
40.8317
41.5895
42.3854
43.3589
44.2866
45.4263
46.3445
47.5206
48.5082
49.8438
50.8433
52.2443
53.0073
54.5103
62.5102
61.0866
60.269
58.952
58.0212
56.7667
55.7948
54.6699
53.7137
52.7054
51.803
50.9035
50.1038
49.3361
48.6614
48.0473
47.5278
47.1119
46.8375
46.6538
46.6562
46.8445
47.1219
47.5417
48.0635
48.688
49.3834
50.1308
50.929
51.8287
52.7315
53.7643
54.7074
55.8245
56.7957
58.0423
58.9897
60.3261
61.1244
62.5501
69.5123
68.0746
67.1833
65.833
64.846
63.5897
62.5774
61.4374
60.4519
59.4323
58.5156
57.6215
56.8107
56.0578
55.3857
54.7929
54.2942
53.8988
53.6223
53.4711
53.4733
53.6286
53.9082
54.3071
54.8081
55.4051
56.0814
56.834
57.6464
58.5419
59.4612
60.4861
61.472
62.6118
63.6259
64.8832
65.8744
67.2308
68.1215
69.5621
74.7929
73.3022
72.3202
70.9203
69.8629
68.5756
67.5084
66.3441
65.3196
64.2832
63.344
62.4423
61.6231
60.8712
60.2033
59.6216
59.1373
58.7582
58.4954
58.3569
58.3589
58.5011
58.7671
59.1493
59.6364
60.2212
60.8917
61.6457
62.4669
63.3704
64.3121
65.3514
66.3775
67.5439
68.6133
69.9033
70.9636
72.3663
73.3511
74.8451
78.7221
77.1886
76.1361
74.7048
73.5919
72.2856
71.1778
70.0011
68.9507
67.9065
66.9547
66.0509
65.23
64.4821
63.8211
63.25
62.778
62.4122
62.1606
62.0298
62.0316
62.1659
62.4206
62.7895
63.2642
63.8381
64.5016
65.252
66.0749
66.9809
67.935
68.9818
70.0342
71.2134
72.3234
73.6326
74.7481
76.182
77.2378
78.7743
81.7184
80.1572
79.0501
77.6048
76.4503
75.1358
74.0001
72.818
71.7521
70.7047
69.747
68.8435
68.0238
67.2803
66.6256
66.0627
65.5998
65.243
64.9991
64.8732
64.8749
65.0041
65.2511
65.6108
66.0764
66.642
67.2993
68.0452
68.8672
69.7729
70.733
71.7828
72.8509
74.0355
75.1736
76.4908
77.648
79.0961
80.2064
81.7707
84.0952
82.5149
81.3624
79.9115
78.727
77.4097
76.2556
75.0701
73.9946
72.9448
71.9831
71.0795
70.2599
69.5185
68.8668
68.3081
67.8499
67.4978
67.2577
67.1341
67.1358
67.2625
67.5057
67.8607
68.3217
68.883
69.5372
70.281
71.1029
72.0089
72.9729
74.0252
75.103
76.2911
77.4475
78.7677
79.9547
81.4086
82.5641
84.1474
86.1342
84.5362
83.3484
81.8871
80.6794
79.3531
78.1839
76.9902
75.9042
74.8475
73.8785
72.9698
72.1456
71.4008
70.7465
70.1861
69.7268
69.3741
69.1337
69.0097
69.0114
69.1385
69.382
69.7376
70.1996
70.7626
71.4195
72.1667
72.9933
73.9045
74.8757
75.9349
77.0232
78.2196
79.3912
80.7204
81.9305
83.3948
84.5856
86.1867
87.9439
86.3186
85.108
83.6291
82.4036
81.0639
79.88
78.6749
77.5766
76.51
75.5308
74.6133
73.7806
73.0283
72.3672
71.8009
71.3365
70.9797
70.736
70.6098
70.6115
70.7409
70.9876
71.3473
71.8145
72.3835
73.0471
73.8019
74.637
75.5569
76.5384
77.6075
78.7082
79.9159
81.1021
82.4448
83.6727
85.1548
86.3681
87.9967
89.5957
87.9411
86.7112
85.212
83.9685
82.6124
81.4121
80.1926
79.0794
77.9994
77.0068
76.0769
75.2322
74.4687
73.7971
73.2213
72.7484
72.3845
72.1353
72.0055
72.0072
72.1403
72.3926
72.7594
73.235
73.8135
74.4878
75.2537
76.1009
77.0332
78.0281
79.1106
80.2261
81.4483
82.651
84.0099
85.2559
86.7582
87.9908
89.6487
91.1496
89.4632
88.2171
86.6943
85.4333
84.0578
82.8401
81.6031
80.4732
79.377
78.3685
77.4233
76.5637
75.7861
75.101
74.5126
74.0286
73.6553
73.3988
73.2642
73.266
73.404
73.6635
74.0398
74.5266
75.1177
75.8054
76.5855
77.4476
78.3952
79.406
80.5048
81.637
82.8766
84.0967
85.475
86.7384
88.2642
89.513
91.2026
92.6729
90.9528
89.6917
88.1431
86.8642
85.4671
84.2306
82.974
81.8255
80.7108
79.6842
78.7214
77.8445
77.0502
76.3491
75.7458
75.2483
74.8635
74.5981
74.4578
74.4596
74.6034
74.8719
75.2597
75.7601
76.3661
77.0698
77.8667
78.746
79.7112
80.7401
81.8573
83.0082
84.2674
85.5062
86.9062
88.1875
89.7392
91.0028
92.7261
94.2328
92.4773
91.2009
89.6242
88.3262
86.9052
85.6483
84.37
83.201
82.0657
81.0189
80.0363
79.14
78.3267
77.6072
76.9866
76.4733
76.0749
75.7992
75.6523
75.6542
75.8046
76.0836
76.485
77.0012
77.6245
78.3466
79.1624
80.0612
81.0463
82.0953
83.2331
84.4045
85.6854
86.9446
88.3684
89.6687
91.2484
92.5274
94.286
95.8834
94.0894
92.7967
91.1892
89.8706
88.4233
87.1441
85.8417
84.6501
83.4919
82.423
81.4182
80.5001
79.6654
78.9253
78.2849
77.7534
77.3393
77.0514
76.897
76.899
77.0571
77.3482
77.7654
78.2998
78.9429
79.6857
80.5228
81.4433
82.4505
83.5218
84.6824
85.8763
87.1813
88.4628
89.913
91.2339
92.8443
94.1395
95.9366
97.6544
95.8197
94.5087
92.8682
91.5267
90.0507
88.747
87.4183
86.2018
85.0186
83.9251
82.896
81.9538
81.0955
80.332
79.6693
79.1169
78.6846
78.3826
78.2196
78.2216
78.3884
78.6938
79.1292
79.6845
80.35
81.116
81.9768
82.9213
83.9529
85.0487
86.2344
87.4531
88.7844
90.0905
91.5692
92.913
94.5565
95.87
97.7077
99.5534
97.6761
96.3449
94.6691
93.3028
91.796
90.4657
89.1085
87.8652
86.6548
85.5347
84.4792
83.5108
82.6264
81.8373
81.1495
80.5734
80.1201
79.8015
79.6283
79.6304
79.8075
80.1296
80.5861
81.1651
81.8555
82.6472
83.534
84.5048
85.5627
86.6851
87.898
89.1435
90.5033
91.8359
93.3454
94.7141
96.3928
97.7265
99.6068
101.57
99.649
98.2961
96.5839
95.1912
93.652
92.2936
90.9064
89.6347
88.3956
87.2473
86.1636
85.1672
84.2548
83.4377
82.7223
82.1195
81.6419
81.3037
81.1186
81.1209
81.3101
81.6518
82.1326
82.7382
83.4564
84.2759
85.1908
86.1895
87.2756
88.4261
89.6677
90.9417
92.3313
93.6924
95.2339
96.629
98.3445
99.6996
101.624
103.682
101.717
100.342
98.5929
97.173
95.6009
94.2135
92.7957
91.4947
90.226
89.0486
87.9359
86.91
85.9683
85.1214
84.376
83.7435
83.238
82.8767
82.6772
82.6796
82.8834
83.2483
83.7571
84.3924
85.1405
85.9898
86.9342
87.962
89.0771
90.2568
91.528
92.8315
94.2518
95.6418
97.2162
98.6385
100.391
101.768
103.737
105.859
103.85
102.453
100.668
99.221
97.6165
96.2002
94.7515
93.4213
92.1232
90.9163
89.7741
88.7188
87.7465
86.8689
86.0916
85.4265
84.8891
84.5
84.2831
84.2857
84.5072
84.9001
85.4408
86.1085
86.8888
87.769
88.7435
89.801
90.9454
92.1547
93.4556
94.7882
96.2394
97.658
99.2655
100.715