/*--------------------------------*- C++ -*----------------------------------*\
  =========                 |
  \\      /  F ield         | OpenFOAM: The Open Source CFD Toolbox
   \\    /   O peration     | Website:  https://openfoam.org
    \\  /    A nd           | Version:  6
     \\/     M anipulation  |
\*---------------------------------------------------------------------------*/
FoamFile
{
    version     2.0;
    format      ascii;
    class       volVectorField;
    location    "0.8";
    object      wallShearStress;
}
// * * * * * * * * * * * * * * * * * * * * * * * * * * * * * * * * * * * * * //

dimensions      [0 2 -2 0 0 0 0];

internalField   uniform (0 0 0);

boundaryField
{
    inlet
    {
        type            calculated;
        value           uniform (0 0 0);
    }
    outlet
    {
        type            calculated;
        value           uniform (0 0 0);
    }
    roughCylinder
    {
        type            calculated;
        value           nonuniform List<vector> 
5120
(
(-0.000537631 -0.000760876 -0.000389859)
(-0.000507645 -0.000702605 -3.20728e-05)
(-0.000465272 -0.000684063 2.11535e-05)
(-0.000516418 -0.000743688 7.75204e-05)
(-0.000595657 -0.00081355 0.000134804)
(-0.000673154 -0.000859494 0.000183358)
(-0.000745328 -0.000882015 0.000221205)
(-0.000809825 -0.000887877 0.000248837)
(-0.000868236 -0.000889588 0.000269956)
(-0.000920403 -0.000890934 0.000286762)
(-0.000964068 -0.000894076 0.000298395)
(-0.0010017 -0.00090134 0.000305131)
(-0.0010337 -0.000912777 0.000307871)
(-0.00106112 -0.00092779 0.000307441)
(-0.00108539 -0.000945559 0.00030471)
(-0.00110809 -0.000965301 0.000300357)
(-0.00113054 -0.000986449 0.000294784)
(-0.00115362 -0.0010087 0.000288174)
(-0.00117778 -0.00103193 0.000280563)
(-0.00120321 -0.00105613 0.000271928)
(-0.00122992 -0.00108132 0.000262234)
(-0.00125793 -0.00110747 0.000251428)
(-0.00128716 -0.00113452 0.000239423)
(-0.00131748 -0.00116233 0.000226074)
(-0.00134872 -0.0011907 0.000211152)
(-0.00138053 -0.0012193 0.000194324)
(-0.00141244 -0.00124768 0.000175108)
(-0.00144369 -0.00127522 0.000152938)
(-0.00147321 -0.00130099 0.000127052)
(-0.00149951 -0.00132372 9.68519e-05)
(-0.00152025 -0.00134168 6.09947e-05)
(-0.00153234 -0.00135238 2.06258e-05)
(-0.000729808 -0.000931431 -0.000492071)
(-0.000549859 -0.000708848 -3.53813e-05)
(-0.000503226 -0.000679569 1.4963e-05)
(-0.000551097 -0.000735639 6.90943e-05)
(-0.000632211 -0.000805999 0.000125726)
(-0.00071235 -0.000853122 0.000173995)
(-0.000787752 -0.000877897 0.000211632)
(-0.000856666 -0.000888164 0.000239967)
(-0.000919518 -0.000893433 0.000262426)
(-0.00097536 -0.000896266 0.000280634)
(-0.00102065 -0.00089771 0.000292793)
(-0.00105932 -0.000903739 0.000299669)
(-0.0010924 -0.000914196 0.000302438)
(-0.00112084 -0.000928496 0.000301973)
(-0.00114612 -0.000945736 0.000299152)
(-0.00116981 -0.000965062 0.000294687)
(-0.00119325 -0.000985856 0.000289017)
(-0.00121733 -0.00100776 0.000282344)
(-0.00124253 -0.00103065 0.000274719)
(-0.00126905 -0.0010545 0.000266126)
(-0.00129693 -0.00107931 0.000256526)
(-0.00132615 -0.00110507 0.000245867)
(-0.00135666 -0.00113172 0.000234058)
(-0.00138832 -0.00115912 0.000220953)
(-0.00142092 -0.00118706 0.000206325)
(-0.00145415 -0.00121524 0.000189844)
(-0.00148748 -0.00124322 0.000171033)
(-0.00152014 -0.00127038 0.000149341)
(-0.00155099 -0.00129582 0.000124026)
(-0.00157849 -0.00131825 9.45201e-05)
(-0.0016002 -0.00133601 5.951e-05)
(-0.0016129 -0.00134659 2.0117e-05)
(-0.000721354 -0.000832295 -0.000435827)
(-0.000593964 -0.000698714 -3.9796e-05)
(-0.000542162 -0.000669242 7.75605e-06)
(-0.000586614 -0.000721444 6.00237e-05)
(-0.000669255 -0.00079159 0.000115906)
(-0.00075224 -0.000840402 0.000164015)
(-0.000831347 -0.000868244 0.000201916)
(-0.000904791 -0.000882798 0.000231316)
(-0.00097191 -0.000891235 0.000255085)
(-0.00103078 -0.000895428 0.000274241)
(-0.00107833 -0.000895975 0.000286917)
(-0.00111782 -0.000900601 0.000293871)
(-0.00115178 -0.000909936 0.000296566)
(-0.00118111 -0.00092337 0.000296018)
(-0.00120729 -0.000939914 0.000293097)
(-0.00123189 -0.00095865 0.000288526)
(-0.00125624 -0.000978909 0.000282767)
(-0.00128126 -0.00100029 0.000276043)
(-0.00130744 -0.00102266 0.000268416)
(-0.00133497 -0.00104596 0.000259876)
(-0.00136393 -0.00107022 0.000250385)
(-0.00139429 -0.00109539 0.000239888)
(-0.00142599 -0.00112142 0.000228294)
(-0.0014589 -0.0011482 0.000215453)
(-0.00149279 -0.00117551 0.000201141)
(-0.00152734 -0.00120306 0.000185032)
(-0.00156201 -0.00123042 0.000166657)
(-0.00159599 -0.001257 0.000145478)
(-0.00162809 -0.00128191 0.000120777)
(-0.00165672 -0.00130389 9.20157e-05)
(-0.00167935 -0.00132131 5.79142e-05)
(-0.00169263 -0.0013317 1.95702e-05)
(-0.000675037 -0.000706609 -0.000352534)
(-0.000631908 -0.000668809 -4.58157e-05)
(-0.000578236 -0.000651586 2.65593e-07)
(-0.000620152 -0.00070119 5.06626e-05)
(-0.000704602 -0.000771438 0.000105633)
(-0.000790681 -0.000822351 0.000153535)
(-0.000873711 -0.00085371 0.000191878)
(-0.000951568 -0.000872357 0.000222467)
(-0.00102266 -0.000883612 0.000247544)
(-0.00108449 -0.000889018 0.000267495)
(-0.00113479 -0.000889533 0.000280865)
(-0.00117511 -0.000892692 0.00028795)
(-0.00120983 -0.000900826 0.000290503)
(-0.00123995 -0.000913303 0.000289849)
(-0.00126695 -0.000929051 0.000286821)
(-0.00129238 -0.000947094 0.00028215)
(-0.00131757 -0.000966703 0.000276316)
(-0.00134345 -0.000987459 0.000269553)
(-0.00137051 -0.00100918 0.000261936)
(-0.00139898 -0.00103182 0.00025346)
(-0.00142892 -0.00105537 0.000244088)
(-0.00146031 -0.00107982 0.000233764)
(-0.00149309 -0.0011051 0.000222393)
(-0.00152712 -0.00113111 0.000209825)
(-0.00156219 -0.00115763 0.000195838)
(-0.00159795 -0.0011844 0.000180109)
(-0.00163384 -0.001211 0.000162179)
(-0.00166904 -0.00123684 0.000141525)
(-0.0017023 -0.00126108 0.000117451)
(-0.00173197 -0.00128249 8.94508e-05)
(-0.00175546 -0.00129948 5.62791e-05)
(-0.00176929 -0.00130961 1.90099e-05)
(-0.000899708 -0.000836432 -0.000409579)
(-0.000675489 -0.000655109 -5.01677e-05)
(-0.000616181 -0.000630404 -6.97234e-06)
(-0.000652299 -0.000676381 4.09573e-05)
(-0.000737644 -0.000746309 9.4846e-05)
(-0.000827062 -0.000799393 0.000142555)
(-0.000914113 -0.000834228 0.000181434)
(-0.000996169 -0.000856517 0.00021324)
(-0.00107094 -0.000870175 0.000239582)
(-0.00113581 -0.00087679 0.000260319)
(-0.0011892 -0.000878023 0.000274539)
(-0.00123044 -0.000879326 0.000281792)
(-0.00126583 -0.000886193 0.000284233)
(-0.00129667 -0.000897591 0.000283475)
(-0.0013244 -0.000912428 0.00028035)
(-0.00135057 -0.00092966 0.000275598)
(-0.00137651 -0.000948509 0.000269705)
(-0.00140315 -0.000968511 0.000262921)
(-0.001431 -0.000989462 0.000255329)
(-0.00146028 -0.00101131 0.000246931)
(-0.00149108 -0.00103403 0.000237691)
(-0.00152338 -0.00105762 0.000227549)
(-0.00155711 -0.001082 0.00021641)
(-0.00159214 -0.00110708 0.000204123)
(-0.00162825 -0.00113266 0.000190465)
(-0.00166508 -0.00115848 0.000175122)
(-0.00170207 -0.00118415 0.000157642)
(-0.00173837 -0.00120911 0.00013752)
(-0.00177268 -0.00123253 0.00011408)
(-0.00180331 -0.00125324 8.6849e-05)
(-0.00182758 -0.00126969 5.46192e-05)
(-0.00184194 -0.00127952 1.844e-05)
(-0.000875005 -0.000724284 -0.000343283)
(-0.000713393 -0.000628731 -5.35242e-05)
(-0.000648008 -0.000600962 -1.45496e-05)
(-0.00068169 -0.000646814 3.09871e-05)
(-0.000768294 -0.000716901 8.36203e-05)
(-0.000861013 -0.000772185 0.000131115)
(-0.000952023 -0.000810236 0.000170597)
(-0.0010381 -0.000835647 0.000203612)
(-0.00111642 -0.000851314 0.00023118)
(-0.00118442 -0.000858978 0.000252759)
(-0.00124046 -0.000860845 0.000267646)
(-0.00128362 -0.000860771 0.000275263)
(-0.00131963 -0.000866184 0.000277727)
(-0.00135113 -0.000876337 0.000276879)
(-0.00137951 -0.00089013 0.00027368)
(-0.00140633 -0.000906427 0.000268865)
(-0.00143293 -0.000924398 0.000262935)
(-0.00146023 -0.000943533 0.000256149)
(-0.00148876 -0.000963599 0.000248602)
(-0.00151875 -0.000984523 0.000240299)
(-0.00155029 -0.00100629 0.000231202)
(-0.00158336 -0.00102888 0.000221255)
(-0.00161791 -0.00105222 0.000210356)
(-0.0016538 -0.00107623 0.000198355)
(-0.00169081 -0.00110073 0.000185032)
(-0.00172859 -0.00112546 0.000170079)
(-0.00176655 -0.00115005 0.000153053)
(-0.00180382 -0.00117397 0.000133465)
(-0.00183909 -0.00119645 0.000110667)
(-0.00187058 -0.00121633 8.4214e-05)
(-0.00189558 -0.00123215 5.29362e-05)
(-0.00191041 -0.00124162 1.78619e-05)
(-0.000921542 -0.000684486 -0.000298329)
(-0.000768373 -0.000603036 -5.98391e-05)
(-0.000684208 -0.000574488 -2.24796e-05)
(-0.000709317 -0.000614503 2.09402e-05)
(-0.000796143 -0.000683822 7.21055e-05)
(-0.000891965 -0.000741165 0.000119297)
(-0.000986771 -0.000782114 0.000159371)
(-0.00107671 -0.000810162 0.000193531)
(-0.00115855 -0.00082752 0.000222266)
(-0.00122969 -0.000836031 0.000244729)
(-0.00128839 -0.000838248 0.000260159)
(-0.00133419 -0.000837551 0.000268354)
(-0.00137085 -0.000841222 0.00027097)
(-0.00140296 -0.000849985 0.000270047)
(-0.00143193 -0.0008626 0.000266801)
(-0.00145934 -0.000877848 0.000261953)
(-0.00148651 -0.000894826 0.00025601)
(-0.00151437 -0.000912989 0.000249245)
(-0.00154346 -0.000932064 0.000241762)
(-0.00157404 -0.000951961 0.000233569)
(-0.00160619 -0.000972656 0.000224631)
(-0.00163989 -0.000994126 0.000214887)
(-0.00167512 -0.00101632 0.000204237)
(-0.00171173 -0.00103914 0.000192529)
(-0.0017495 -0.00106242 0.000179545)
(-0.00178808 -0.00108593 0.000164983)
(-0.00182688 -0.00110932 0.000148414)
(-0.00186501 -0.00113209 0.000129366)
(-0.00190111 -0.00115349 0.000107212)
(-0.00193338 -0.00117244 8.15462e-05)
(-0.00195903 -0.00118754 5.12311e-05)
(-0.00197431 -0.00119659 1.72754e-05)
(-0.000953816 -0.000627986 -0.000251767)
(-0.000800978 -0.000561357 -6.38166e-05)
(-0.000713314 -0.000539925 -3.00243e-05)
(-0.000733647 -0.000578833 1.07689e-05)
(-0.000820418 -0.000647585 6.02849e-05)
(-0.000919075 -0.000706647 0.000107088)
(-0.00101747 -0.000750044 0.000147694)
(-0.00111115 -0.000780289 0.000182905)
(-0.00119649 -0.000799058 0.000212748)
(-0.0012708 -0.000808235 0.00023611)
(-0.00133237 -0.000810697 0.000252108)
(-0.00138114 -0.000809984 0.000260988)
(-0.00141887 -0.000811648 0.000263866)
(-0.00145153 -0.000818871 0.000262948)
(-0.00148105 -0.00083017 0.000259696)
(-0.00150897 -0.00084425 0.000254845)
(-0.00153662 -0.000860141 0.00024892)
(-0.00156495 -0.000877238 0.000242204)
(-0.00159451 -0.000895238 0.000234808)
(-0.00162555 -0.000914023 0.000226745)
(-0.00165817 -0.000933561 0.000217983)
(-0.00169237 -0.000953823 0.000208455)
(-0.00172812 -0.000974759 0.00019806)
(-0.00176529 -0.000996282 0.000186648)
(-0.00180367 -0.00101824 0.000174005)
(-0.0018429 -0.00104042 0.000159837)
(-0.00188239 -0.0010625 0.000143727)
(-0.00192124 -0.001084 0.000125221)
(-0.00195807 -0.00110423 0.000103718)
(-0.00199101 -0.00112215 7.88454e-05)
(-0.00201723 -0.00113645 4.95023e-05)
(-0.00203292 -0.00114505 1.66801e-05)
(-0.00100727 -0.000584895 -0.00021017)
(-0.000846505 -0.000525962 -6.91086e-05)
(-0.000744284 -0.000505964 -3.76442e-05)
(-0.000755197 -0.000541094 6.47773e-07)
(-0.000840702 -0.000608548 4.82997e-05)
(-0.000941753 -0.000668895 9.4547e-05)
(-0.0010435 -0.000714316 0.000135559)
(-0.0011408 -0.000746339 0.000171704)
(-0.00122963 -0.000766249 0.000202573)
(-0.00130717 -0.000775957 0.000226845)
(-0.00137173 -0.000778548 0.000243521)
(-0.00142324 -0.00077781 0.000252984)
(-0.00146305 -0.000777922 0.000256325)
(-0.00149629 -0.000783378 0.000255565)
(-0.0015263 -0.000793168 0.000252343)
(-0.00155467 -0.000805973 0.000247538)
(-0.00158272 -0.000820686 0.000241669)
(-0.00161141 -0.000836635 0.000235032)
(-0.00164129 -0.000853477 0.000227749)
(-0.00167265 -0.000871073 0.000219837)
(-0.00170559 -0.000889377 0.000211265)
(-0.00174013 -0.000908361 0.000201966)
(-0.00177623 -0.00092797 0.000191833)
(-0.0018138 -0.000948126 0.000180721)
(-0.00185262 -0.000968691 0.00016842)
(-0.00189234 -0.000989457 0.000154646)
(-0.00193237 -0.00101013 0.000138995)
(-0.0019718 -0.00103027 0.000121033)
(-0.00200922 -0.00104924 0.000100185)
(-0.00204273 -0.00106605 7.61116e-05)
(-0.00206946 -0.00107949 4.77508e-05)
(-0.0020855 -0.00108759 1.60763e-05)
(-0.00104341 -0.000531853 -0.000161354)
(-0.00087995 -0.000478386 -7.37848e-05)
(-0.000770322 -0.000467767 -4.49086e-05)
(-0.000772985 -0.000500861 -9.42584e-06)
(-0.000856392 -0.000566815 3.61435e-05)
(-0.000959323 -0.000628073 8.16569e-05)
(-0.00106409 -0.000675107 0.00012292)
(-0.00116489 -0.000708567 0.000159862)
(-0.00125724 -0.000729395 0.000191682)
(-0.00133806 -0.000739505 0.000216865)
(-0.0014057 -0.000742128 0.000234324)
(-0.00145998 -0.000741212 0.000244356)
(-0.00150247 -0.00074052 0.00024829)
(-0.00153658 -0.000743808 0.000247827)
(-0.00156708 -0.000752055 0.000244735)
(-0.00159582 -0.000763434 0.000240018)
(-0.00162418 -0.000776869 0.000234251)
(-0.00165312 -0.000791604 0.000227731)
(-0.00168321 -0.000807242 0.000220592)
(-0.00171475 -0.000823602 0.000212856)
(-0.00174785 -0.000840621 0.000204491)
(-0.00178253 -0.000858261 0.000195429)
(-0.0018188 -0.000876474 0.000185563)
(-0.00185656 -0.000895185 0.000174751)
(-0.00189563 -0.000914272 0.000162791)
(-0.00193566 -0.000933548 0.000149408)
(-0.00197608 -0.000952737 0.000134216)
(-0.00201593 -0.00097144 0.0001168)
(-0.00205381 -0.000989065 9.66106e-05)
(-0.00208778 -0.00100471 7.33441e-05)
(-0.00211492 -0.00101723 4.59749e-05)
(-0.00213128 -0.00102479 1.54632e-05)
(-0.00093366 -0.00041104 -0.000100682)
(-0.000886821 -0.000420439 -7.57661e-05)
(-0.000791773 -0.00042603 -5.15202e-05)
(-0.000787296 -0.000458915 -1.9308e-05)
(-0.000867202 -0.000523002 2.3957e-05)
(-0.000971296 -0.000584631 6.84965e-05)
(-0.00107875 -0.000632865 0.000109801)
(-0.0011829 -0.000667441 0.000147373)
(-0.00127876 -0.000688964 0.000180053)
(-0.00136295 -0.000699358 0.000206136)
(-0.00143372 -0.000701931 0.000224464)
(-0.00149081 -0.000700696 0.000235183)
(-0.00153579 -0.000699421 0.00023966)
(-0.00157192 -0.000701176 0.0002397)
(-0.00160278 -0.000707279 0.000236835)
(-0.00163187 -0.000717116 0.000232284)
(-0.00166045 -0.000729192 0.000226671)
(-0.00168951 -0.000742641 0.000220311)
(-0.00171965 -0.000757005 0.000213346)
(-0.00175119 -0.000772076 0.000205809)
(-0.00178425 -0.000787781 0.000197673)
(-0.00181889 -0.000804137 0.000188865)
(-0.00185513 -0.000821017 0.000179272)
(-0.00189291 -0.000838333 0.000168762)
(-0.00193204 -0.000855974 0.00015714)
(-0.00197221 -0.00087376 0.000144145)
(-0.00201283 -0.00089145 0.000129408)
(-0.00205295 -0.000908674 0.000112537)
(-0.00209115 -0.000924904 9.30051e-05)
(-0.00212545 -0.000939298 7.05494e-05)
(-0.00215293 -0.000950839 4.41791e-05)
(-0.00216956 -0.000957841 1.4842e-05)
(-0.00119632 -0.000440678 -8.99849e-05)
(-0.000912545 -0.000381095 -7.76291e-05)
(-0.00080953 -0.000381793 -5.74254e-05)
(-0.00079708 -0.000415323 -2.88387e-05)
(-0.000872425 -0.000477468 1.18491e-05)
(-0.000976932 -0.000538897 5.5115e-05)
(-0.00108669 -0.000587908 9.62002e-05)
(-0.00119401 -0.000623291 0.000134198)
(-0.00129339 -0.000645336 0.000167631)
(-0.00138106 -0.0006559 0.000194602)
(-0.00145502 -0.000658341 0.000213855)
(-0.00151497 -0.00065671 0.000225405)
(-0.0015624 -0.000654785 0.000230514)
(-0.00160044 -0.000655455 0.000231027)
(-0.00163275 -0.000659897 0.0002286)
(-0.00166218 -0.00066798 0.000224346)
(-0.00169088 -0.000678533 0.000218948)
(-0.00171994 -0.000690669 0.000212803)
(-0.00175 -0.000703808 0.000206058)
(-0.00178138 -0.000717667 0.000198751)
(-0.00181418 -0.000732098 0.000190858)
(-0.00184835 -0.000747059 0.000182284)
(-0.00188413 -0.000762504 0.000172939)
(-0.00192151 -0.000778339 0.000162704)
(-0.00196033 -0.000794449 0.0001514)
(-0.00200031 -0.000810678 0.000138782)
(-0.00204088 -0.0008268 0.000124496)
(-0.00208107 -0.000842493 0.000108174)
(-0.00211943 -0.000857287 8.93137e-05)
(-0.00215399 -0.000870411 6.76863e-05)
(-0.00218173 -0.000880951 4.2338e-05)
(-0.00219857 -0.000887362 1.42044e-05)
(-0.00111609 -0.000342197 -4.57371e-05)
(-0.000935977 -0.000334171 -7.95368e-05)
(-0.000824307 -0.000337475 -6.3258e-05)
(-0.000802589 -0.000370809 -3.78511e-05)
(-0.000872015 -0.000430479 1.33e-08)
(-0.000975967 -0.000491281 4.16353e-05)
(-0.00108754 -0.000540725 8.21786e-05)
(-0.00119784 -0.000576689 0.000120368)
(-0.00130072 -0.000599098 0.000154426)
(-0.00139193 -0.000609712 0.000182254)
(-0.00146916 -0.000611914 0.000202466)
(-0.00153199 -0.000609795 0.000214952)
(-0.00158183 -0.000607152 0.000220833)
(-0.0016217 -0.000606791 0.000221913)
(-0.00165526 -0.00060995 0.000219943)
(-0.00168531 -0.000616452 0.000216065)
(-0.00171419 -0.000625517 0.000210986)
(-0.00174306 -0.00063627 0.000205117)
(-0.00177267 -0.000648094 0.000198613)
(-0.00180345 -0.000660651 0.000191532)
(-0.00183561 -0.000673734 0.000183864)
(-0.00186913 -0.00068721 0.000175524)
(-0.00190425 -0.000701121 0.00016643)
(-0.00194101 -0.000715376 0.000156473)
(-0.00197933 -0.00072987 0.000145491)
(-0.00201894 -0.000744465 0.000133253)
(-0.00205926 -0.000758967 0.000119429)
(-0.00209935 -0.000773084 0.000103671)
(-0.00213771 -0.00078641 8.55023e-05)
(-0.00217235 -0.000798241 6.47298e-05)
(-0.00220025 -0.000807764 4.04341e-05)
(-0.00221727 -0.000813551 1.3544e-05)
(-0.000965721 -0.00024259 -6.43719e-07)
(-0.000930692 -0.000271926 -8.12755e-05)
(-0.000832856 -0.000291971 -6.83942e-05)
(-0.000803463 -0.000325438 -4.62374e-05)
(-0.000865484 -0.000382376 -1.13939e-05)
(-0.000967729 -0.000442097 2.81811e-05)
(-0.00108054 -0.000491662 6.77931e-05)
(-0.00119354 -0.000528016 0.000105879)
(-0.00129989 -0.000550683 0.0001404)
(-0.00139473 -0.000561262 0.000169035)
(-0.00147535 -0.000563127 0.000190229)
(-0.00154114 -0.000560431 0.00020373)
(-0.00159342 -0.000556996 0.000210516)
(-0.00163512 -0.000555603 0.000212304)
(-0.0016698 -0.00055752 0.000210868)
(-0.00170038 -0.000562592 0.00020741)
(-0.00172929 -0.000570229 0.000202697)
(-0.00175781 -0.000579567 0.000197142)
(-0.00178681 -0.000589993 0.000190915)
(-0.00181681 -0.000601147 0.000184087)
(-0.0018481 -0.000612802 0.000176657)
(-0.00188078 -0.000624776 0.000168564)
(-0.00191504 -0.000637115 0.000159733)
(-0.001951 -0.000649755 0.000150061)
(-0.00198862 -0.0006626 0.000139406)
(-0.00202765 -0.00067553 0.000127557)
(-0.00206755 -0.000688383 0.000114206)
(-0.00210737 -0.000700901 9.90286e-05)
(-0.00214556 -0.000712727 8.15727e-05)
(-0.00218016 -0.000723247 6.16808e-05)
(-0.0022081 -0.000731728 3.84676e-05)
(-0.00222526 -0.000736874 1.28601e-05)
(-0.00121077 -0.000228747 2.83294e-05)
(-0.000949952 -0.000230239 -8.24833e-05)
(-0.000837026 -0.000245029 -7.24846e-05)
(-0.000798995 -0.00027962 -5.38723e-05)
(-0.000852657 -0.00033409 -2.22884e-05)
(-0.000952081 -0.000392199 1.48547e-05)
(-0.00106547 -0.000441488 5.31404e-05)
(-0.00118088 -0.000478024 9.08046e-05)
(-0.00129061 -0.000500836 0.000125592)
(-0.00138912 -0.000511293 0.000154957)
(-0.00147323 -0.000512717 0.000177143)
(-0.00154204 -0.000509309 0.000191721)
(-0.00159677 -0.000504961 0.000199513)
(-0.00164027 -0.000502472 0.00020214)
(-0.00167603 -0.000503123 0.000201347)
(-0.00170706 -0.000506805 0.000198393)
(-0.00173586 -0.000513018 0.000194097)
(-0.00176388 -0.000520931 0.000188897)
(-0.00179209 -0.000529936 0.000182984)
(-0.00182111 -0.000539661 0.000176442)
(-0.00185132 -0.000549857 0.000169276)
(-0.00188291 -0.000560332 0.000161443)
(-0.00191609 -0.000571095 0.000152879)
(-0.00195104 -0.000582114 0.000143496)
(-0.00198776 -0.000593303 0.00013317)
(-0.00202604 -0.000604567 0.000121715)
(-0.00206535 -0.00061576 0.000108846)
(-0.00210471 -0.000626667 9.42611e-05)
(-0.00214261 -0.000636987 7.75364e-05)
(-0.00217702 -0.000646178 5.85474e-05)
(-0.00220492 -0.000653608 3.64432e-05)
(-0.00222218 -0.000658096 1.21545e-05)
(-0.00102883 -0.000138762 5.3514e-05)
(-0.000942459 -0.000177182 -8.21481e-05)
(-0.000837866 -0.000199181 -7.65169e-05)
(-0.000790496 -0.000234644 -6.06091e-05)
(-0.000833527 -0.000286016 -3.23079e-05)
(-0.000928474 -0.000342003 1.93914e-06)
(-0.00104156 -0.00039066 3.83778e-05)
(-0.00115897 -0.000427206 7.52164e-05)
(-0.00127198 -0.000450086 0.000110016)
(-0.00137423 -0.000460372 0.000139991)
(-0.00146197 -0.000461292 0.000163159)
(-0.00153394 -0.000457068 0.00017887)
(-0.00159122 -0.000451694 0.000187771)
(-0.00163653 -0.000448012 0.000191362)
(-0.00167333 -0.000447342 0.000191336)
(-0.00170474 -0.000449634 0.000188995)
(-0.00173334 -0.000454428 0.000185199)
(-0.00176071 -0.000460915 0.000180413)
(-0.00178794 -0.000468509 0.000174861)
(-0.00181578 -0.000476814 0.000168639)
(-0.0018447 -0.000485571 0.000161759)
(-0.00187498 -0.000494574 0.000154195)
(-0.00190688 -0.000503801 0.000145898)
(-0.00194062 -0.000513228 0.0001368)
(-0.00197626 -0.000522788 0.000126802)
(-0.0020136 -0.000532403 0.000115741)
(-0.00205214 -0.000541952 0.000103359)
(-0.00209091 -0.000551259 8.93784e-05)
(-0.00212834 -0.000560074 7.34003e-05)
(-0.00216246 -0.000567938 5.53358e-05)
(-0.00219022 -0.000574311 3.43647e-05)
(-0.00220756 -0.000578132 1.1428e-05)
(-0.00119696 -9.58293e-05 9.39592e-05)
(-0.000946642 -0.000129813 -8.42267e-05)
(-0.00083002 -0.000153594 -7.90001e-05)
(-0.000775556 -0.000190157 -6.61584e-05)
(-0.000807907 -0.000238891 -4.13379e-05)
(-0.000897047 -0.000292355 -1.0386e-05)
(-0.00100889 -0.000340028 2.3697e-05)
(-0.00112782 -0.000376409 5.92671e-05)
(-0.00124394 -0.000399299 9.37785e-05)
(-0.00134995 -0.000409375 0.00012421)
(-0.00144139 -0.000409721 0.000148314)
(-0.0015166 -0.000404581 0.000165197)
(-0.00157646 -0.000398047 0.0001753)
(-0.00162359 -0.000393054 0.000179979)
(-0.00166141 -0.000390978 0.000180856)
(-0.00169313 -0.000391849 0.000179244)
(-0.00172139 -0.00039522 0.000176041)
(-0.00174795 -0.000400309 0.000171747)
(-0.00177402 -0.000406522 0.000166609)
(-0.00180047 -0.000413449 0.000160737)
(-0.00182785 -0.000420816 0.000154156)
(-0.00185658 -0.000428406 0.00014686)
(-0.00188699 -0.000436158 0.000138821)
(-0.00191933 -0.000444055 0.000129999)
(-0.0019537 -0.00045205 0.000120321)
(-0.00198995 -0.00046006 0.000109653)
(-0.00202758 -0.000468002 9.776e-05)
(-0.00206561 -0.000475736 8.43932e-05)
(-0.00210247 -0.000483068 6.91761e-05)
(-0.00213615 -0.000489612 5.20537e-05)
(-0.00216367 -0.000494925 3.2236e-05)
(-0.00218107 -0.000498073 1.06817e-05)
(-0.0010527 -3.06778e-05 0.000108387)
(-0.000941885 -8.1384e-05 -8.31493e-05)
(-0.000822779 -0.000109773 -8.18454e-05)
(-0.0007571 -0.000147318 -7.09131e-05)
(-0.000776228 -0.000193284 -4.92344e-05)
(-0.000857537 -0.000243836 -2.18607e-05)
(-0.000966852 -0.000290158 9.32327e-06)
(-0.0010866 -0.000326203 4.31088e-05)
(-0.00120557 -0.000349065 7.69587e-05)
(-0.00131536 -0.000358949 0.000107634)
(-0.00141065 -0.000358718 0.0001326)
(-0.00148931 -0.000352618 0.000150685)
(-0.00155187 -0.000344834 0.000162085)
(-0.00160086 -0.000338425 0.000167983)
(-0.00163969 -0.000334866 0.000169902)
(-0.00167166 -0.000334287 0.000169154)
(-0.00169948 -0.000336242 0.000166658)
(-0.00172507 -0.000339965 0.000162937)
(-0.00174979 -0.00034486 0.000158266)
(-0.00177462 -0.00035049 0.000152771)
(-0.00180027 -0.000356557 0.000146498)
(-0.00182724 -0.000362831 0.000139461)
(-0.00185595 -0.000369212 0.000131666)
(-0.00188671 -0.000375672 0.000123106)
(-0.00191965 -0.00038217 0.000113737)
(-0.00195465 -0.000388648 0.000103456)
(-0.00199123 -0.000395041 9.20543e-05)
(-0.00202838 -0.000401247 7.93089e-05)
(-0.00206452 -0.000407118 6.4866e-05)
(-0.00209767 -0.000412375 4.87045e-05)
(-0.00212488 -0.000416639 3.00585e-05)
(-0.00214232 -0.000419111 9.91525e-06)
(-0.000886877 1.97289e-05 0.000114069)
(-0.000891653 -3.29286e-05 -8.04235e-05)
(-0.000800255 -6.72199e-05 -8.24986e-05)
(-0.000732734 -0.000106452 -7.42118e-05)
(-0.000738918 -0.000150101 -5.56647e-05)
(-0.000810557 -0.000197457 -3.21081e-05)
(-0.000915905 -0.000242018 -4.36934e-06)
(-0.00103566 -0.00027753 2.70392e-05)
(-0.00115713 -0.00030034 5.97752e-05)
(-0.00127062 -0.000310052 9.04208e-05)
(-0.00136983 -0.000309245 0.000116126)
(-0.00145198 -0.000302138 0.000135403)
(-0.00151732 -0.000293026 0.000148178)
(-0.00156823 -0.000285115 0.000155422)
(-0.00160805 -0.000280011 0.000158534)
(-0.00164016 -0.000277948 0.00015879)
(-0.00166741 -0.000278499 0.000157114)
(-0.00169186 -0.000280922 0.000154052)
(-0.00171502 -0.000284592 0.000149899)
(-0.001738 -0.000289035 0.0001448)
(-0.00176165 -0.000293916 0.000138826)
(-0.00178663 -0.000298991 0.00013203)
(-0.00181343 -0.000304122 0.000124455)
(-0.00184244 -0.000309259 0.000116134)
(-0.0018738 -0.000314365 0.00010706)
(-0.00190741 -0.000319398 9.71585e-05)
(-0.00194281 -0.000324313 8.62497e-05)
(-0.00197897 -0.000329049 7.41336e-05)
(-0.0020143 -0.000333523 6.04779e-05)
(-0.0020468 -0.000337511 4.52932e-05)
(-0.00207362 -0.000340753 2.7835e-05)
(-0.00209111 -0.000342543 9.12985e-06)
(-0.000858653 6.23564e-05 0.000130109)
(-0.0008582 9.44276e-06 -7.79158e-05)
(-0.0007727 -2.73393e-05 -8.30124e-05)
(-0.000702256 -6.82348e-05 -7.63705e-05)
(-0.000695842 -0.000109924 -6.04875e-05)
(-0.000756069 -0.000153915 -4.08128e-05)
(-0.000855713 -0.000196289 -1.70252e-05)
(-0.000974349 -0.000231022 1.13593e-05)
(-0.00109779 -0.000253737 4.24315e-05)
(-0.0012149 -0.00026335 7.26874e-05)
(-0.00131816 -0.000262045 9.89538e-05)
(-0.00140402 -0.000253964 0.00011939)
(-0.00147229 -0.000243509 0.000133605)
(-0.00152514 -0.000234049 0.00014232)
(-0.00156594 -0.000227364 0.000146778)
(-0.00159816 -0.000223822 0.000148189)
(-0.00162471 -0.000223021 0.000147458)
(-0.00164781 -0.000224227 0.000145137)
(-0.00166918 -0.000226794 0.000141546)
(-0.00169009 -0.000230196 0.000136853)
(-0.00171156 -0.000234052 0.000131168)
(-0.00173434 -0.000238077 0.000124582)
(-0.00175906 -0.000242101 0.000117195)
(-0.00178615 -0.000246047 0.000109088)
(-0.00181579 -0.00024988 0.000100291)
(-0.0018479 -0.00025357 9.07616e-05)
(-0.001882 -0.000257098 8.03453e-05)
(-0.00191706 -0.000260439 6.88662e-05)
(-0.00195145 -0.000263566 5.60116e-05)
(-0.00198323 -0.000266341 4.18211e-05)
(-0.00200958 -0.00026859 2.55656e-05)
(-0.00202709 -0.000269691 8.3242e-06)
(-0.000958633 0.000116832 0.000169381)
(-0.000839852 4.99688e-05 -7.77171e-05)
(-0.00074454 8.83461e-06 -8.29867e-05)
(-0.000669317 -3.34229e-05 -7.76546e-05)
(-0.00064908 -7.36089e-05 -6.38103e-05)
(-0.000695486 -0.000114157 -4.77154e-05)
(-0.000787332 -0.000153954 -2.8228e-05)
(-0.000903494 -0.000187624 -3.51447e-06)
(-0.00102822 -0.000210197 2.52748e-05)
(-0.0011487 -0.000219774 5.47016e-05)
(-0.00125601 -0.000218054 8.12845e-05)
(-0.00134563 -0.000209047 0.000102795)
(-0.00141691 -0.000197258 0.000118489)
(-0.00147179 -0.000186251 0.000128794)
(-0.00151355 -0.000177992 0.000134748)
(-0.00154568 -0.000172996 0.000137457)
(-0.00157131 -0.000170916 0.000137784)
(-0.00159288 -0.000171037 0.000136285)
(-0.0016122 -0.000172657 0.000133286)
(-0.00163078 -0.000175194 0.000128991)
(-0.00164976 -0.000178196 0.000123554)
(-0.00167013 -0.00018134 0.000117135)
(-0.00169258 -0.000184412 0.000109893)
(-0.00171761 -0.000187313 0.000101967)
(-0.00174543 -0.000190006 9.34297e-05)
(-0.00177592 -0.00019247 8.42636e-05)
(-0.00180862 -0.00019471 7.43423e-05)
(-0.00184249 -0.000196747 6.35102e-05)
(-0.00187589 -0.000198604 5.14716e-05)
(-0.00190682 -0.000200221 3.82915e-05)
(-0.00193263 -0.000201512 2.32515e-05)
(-0.00195023 -0.00020193 7.49864e-06)
(-0.000774426 0.000132218 0.000151272)
(-0.000775974 8.0616e-05 -7.23676e-05)
(-0.000699599 4.03624e-05 -8.09153e-05)
(-0.00062722 -2.82666e-06 -7.70508e-05)
(-0.000597021 -4.1826e-05 -6.50695e-05)
(-0.000629073 -7.89813e-05 -5.2285e-05)
(-0.000710911 -0.00011576 -3.73535e-05)
(-0.000822869 -0.00014798 -1.70185e-05)
(-0.0009479 -0.000170289 8.73406e-06)
(-0.00107143 -0.000179917 3.67578e-05)
(-0.00118285 -0.000177935 6.33197e-05)
(-0.00127643 -0.000168133 8.57671e-05)
(-0.00135081 -0.000155093 0.000102941)
(-0.00140769 -0.00014259 0.000114928)
(-0.00145034 -0.000132823 0.000122522)
(-0.00148236 -0.000126471 0.000126677)
(-0.00150692 -0.000123252 0.000128179)
(-0.00152662 -0.000122452 0.000127556)
(-0.00154364 -0.000123325 0.000125162)
(-0.00155962 -0.000125205 0.000121236)
(-0.00157598 -0.000127568 0.000116002)
(-0.00159376 -0.000130019 0.000109692)
(-0.00161382 -0.000132313 0.000102547)
(-0.00163669 -0.000134327 9.47669e-05)
(-0.00166255 -0.000136014 8.64679e-05)
(-0.00169135 -0.000137382 7.76601e-05)
(-0.0017226 -0.000138446 6.82386e-05)
(-0.00175517 -0.000139273 5.80645e-05)
(-0.00178747 -0.000139946 4.68578e-05)
(-0.00181751 -0.000140479 3.4707e-05)
(-0.00184272 -0.00014086 2.08936e-05)
(-0.00186035 -0.000140584 6.65242e-06)
(-0.000756555 0.000164931 0.000166139)
(-0.00072051 0.000108779 -6.96929e-05)
(-0.000655049 6.66037e-05 -7.86825e-05)
(-0.000584489 2.32121e-05 -7.5807e-05)
(-0.000543305 -1.5044e-05 -6.48518e-05)
(-0.000559007 -4.9103e-05 -5.45231e-05)
(-0.000628287 -8.25209e-05 -4.39865e-05)
(-0.000733915 -0.000112891 -2.85877e-05)
(-0.000857985 -0.000134776 -6.66886e-06)
(-0.000984022 -0.000144521 1.92895e-05)
(-0.0010994 -0.000142422 4.54019e-05)
(-0.00119699 -0.000131983 6.85813e-05)
(-0.00127461 -0.000117835 8.72071e-05)
(-0.00133357 -0.000103969 0.000100958)
(-0.00137696 -9.28194e-05 0.000110311)
(-0.00140849 -8.52561e-05 0.000116023)
(-0.00143163 -8.10833e-05 0.000118779)
(-0.00144927 -7.95928e-05 0.000119076)
(-0.00146366 -7.99587e-05 0.000117265)
(-0.00147678 -8.14226e-05 0.000113648)
(-0.00149018 -8.33603e-05 0.00010853)
(-0.0015052 -8.53186e-05 0.000102253)
(-0.00152273 -8.70081e-05 9.51443e-05)
(-0.00154333 -8.82886e-05 8.74739e-05)
(-0.00156722 -8.91207e-05 7.93993e-05)
(-0.00159425 -8.95202e-05 7.09458e-05)
(-0.00162392 -8.95286e-05 6.20295e-05)
(-0.00165516 -8.92607e-05 5.253e-05)
(-0.00168627 -8.8845e-05 4.21723e-05)
(-0.0017153 -8.8373e-05 3.10693e-05)
(-0.00173986 -8.79079e-05 1.84933e-05)
(-0.00175762 -8.69451e-05 5.78598e-06)
(-0.000736355 0.000196693 0.000173113)
(-0.000663494 0.000127515 -6.43352e-05)
(-0.000598244 8.72662e-05 -7.48152e-05)
(-0.000533328 4.41389e-05 -7.3135e-05)
(-0.000486023 6.48631e-06 -6.29919e-05)
(-0.000486051 -2.49078e-05 -5.4335e-05)
(-0.000540488 -5.47754e-05 -4.7676e-05)
(-0.000637132 -8.27908e-05 -3.7532e-05)
(-0.000758623 -0.000104033 -2.02935e-05)
(-0.000886401 -0.000113938 2.79975e-06)