/*--------------------------------*- C++ -*----------------------------------*\
  =========                 |
  \\      /  F ield         | OpenFOAM: The Open Source CFD Toolbox
   \\    /   O peration     | Website:  https://openfoam.org
    \\  /    A nd           | Version:  6
     \\/     M anipulation  |
\*---------------------------------------------------------------------------*/
FoamFile
{
    version     2.0;
    format      ascii;
    class       volScalarField;
    location    "0.8";
    object      yPlus;
}
// * * * * * * * * * * * * * * * * * * * * * * * * * * * * * * * * * * * * * //

dimensions      [0 0 0 0 0 0 0];

internalField   uniform 0;

boundaryField
{
    inlet
    {
        type            calculated;
        value           uniform 0;
    }
    outlet
    {
        type            calculated;
        value           uniform 0;
    }
    roughCylinder
    {
        type            calculated;
        value           nonuniform List<scalar> 
5120
(
77.5897
64.3789
56.6287
59.4064
64.6625
69.047
72.6912
75.8078
78.5927
81.1486
83.5398
85.8022
87.9569
90.0223
92.0279
94.011
96.0082
98.0463
100.141
102.3
104.525
106.816
109.167
111.569
114.005
116.45
118.867
121.2
123.37
125.27
126.746
127.598
99.1174
64.6092
56.163
58.3568
63.4405
67.7515
71.3515
74.444
77.2079
79.7338
82.077
84.2827
86.373
88.3698
90.3034
92.212
94.1325
96.0918
98.1062
100.184
102.325
104.531
106.796
109.111
111.46
113.82
116.153
118.406
120.502
122.339
123.767
124.591
88.3581
64.3672
55.7163
57.3535
62.2318
66.4794
70.0478
73.127
75.8734
78.3679
80.6614
82.8082
84.8341
86.7619
88.6235
90.4576
92.3012
94.1818
96.1156
98.1108
100.169
102.29
104.469
106.697
108.959
111.232
113.481
115.654
117.676
119.449
120.828
121.625
74.7214
63.0315
55.0991
56.3388
61.057
65.2508
68.7984
71.8715
74.6026
77.065
79.3104
81.3995
83.3609
85.2207
87.0117
88.7729
90.5416
92.3453
94.2007
96.1155
98.0924
100.131
102.226
104.369
106.546
108.735
110.902
112.996
114.947
116.658
117.99
118.761
95.6224
63.2635
54.7862
55.4245
59.9238
64.0723
67.6062
70.6761
73.3924
75.8238
78.0257
80.0568
81.956
83.7499
85.4725
87.1635
88.8599
90.5894
92.3688
94.2063
96.1041
98.0619
100.076
102.137
104.232
106.34
108.428
110.447
112.328
113.979
115.265
116.01
85.6775
63.0064
54.0839
54.4906
58.8338
62.9426
66.466
69.5336
72.2357
74.6386
76.8007
78.7779
80.6172
82.3474
84.0046
85.6278
87.2549
88.9133
90.6199
92.383
94.2053
96.0859
98.021
100.004
102.019
104.049
106.06
108.007
109.821
111.414
112.657
113.378
85.4451
64.2198
54.0949
53.6802
57.7956
61.8655
65.3798
68.4438
71.1321
73.509
75.6342
77.562
79.3447
81.015
82.6091
84.1681
85.7288
87.319
88.9556
90.647
92.3961
94.2022
96.0628
97.9691
99.9091
101.863
103.801
105.678
107.428
108.966
110.167
110.865
83.8092
63.6012
53.663
52.8868
56.8013
60.833
64.3377
67.3974
70.074
72.428
74.5207
76.4067
78.1365
79.7495
81.2846
82.7819
84.2795
85.8047
87.3746
88.9978
90.6771
92.4123
94.2
96.0334
97.9
99.7819
101.65
103.46
105.149
106.634
107.795
108.471
84.9178
64.4961
53.6994
52.1975
55.8561
59.8448
63.34
66.3952
69.0615
71.3962
73.4608
75.31
76.9916
78.5522
80.0306
81.4702
82.9077
84.3709
85.8769
87.4343
89.0464
90.713
92.4314
94.1947
95.9915
97.8039
99.6045
101.351
102.981
104.416
105.538
106.194
84.7678
64.4868
53.6061
51.5491
54.9433
58.8871
62.3724
65.4239
68.0835
70.4034
72.4454
74.2636
75.9047
77.4163
78.8438
80.2285
81.6091
83.0134
84.4586
85.9535
87.5014
89.1021
90.7531
92.4488
94.1781
95.9243
97.66
99.345
100.919
102.306
103.392
104.028
71.5641
62.6793
53.4459
50.9859
54.0723
57.9602
61.4371
64.4868
67.1424
69.452
71.476
73.2676
74.8741
76.3432
77.7216
79.0557
80.3827
81.7309
83.1175
84.5519
86.0376
87.5747
89.1611
90.7918
92.4562
94.1379
95.8117
97.438
98.9592
100.3
101.351
101.968
92.6589
63.1274
53.3198
50.4511
53.2185
57.0437
60.5147
63.5657
66.2224
68.528
70.5401
72.3113
73.8889
75.3215
76.6582
77.9448
79.2214
80.5163
81.8472
83.2237
84.6495
86.1242
87.6474
89.2137
90.8145
92.4341
94.0477
95.6177
97.0874
98.3842
99.4031
100.003
83.7557
63.7154
53.3743
49.9875
52.3925
56.1414
59.6096
62.6667
65.3292
67.6361
69.6409
71.3961
72.9493
74.3498
75.6486
76.8921
78.1213
79.3651
80.6416
81.9609
83.3274
84.7414
86.2021
87.706
89.2448
90.8035
92.3593
93.8747
95.2954
96.5499
97.5374
98.1206
70.0204
62.1591
53.3451
49.5794
51.5746
55.2272
58.6955
61.7647
64.4407
66.7565
68.7616
70.5076
72.0426
73.4164
74.6816
75.8853
77.0701
78.2649
79.4884
80.7517
82.0601
83.4147
84.8148
86.2574
87.7359
89.2358
90.7355
92.1987
93.5718
94.7864
95.7443
96.3116
91.1121
63.2234
53.3462
49.1799
50.7638
54.3071
57.7786
60.8685
63.5655
65.8966
67.9075
69.6489
71.1697
72.5209
73.7556
74.9224
76.0647
77.2121
78.384
79.5923
80.8432
82.1391
83.4797
84.8628
86.282
87.7252
89.1706
90.5832
91.9114
93.0869
94.0164
94.5696
76.0599
62.7163
53.5423
48.9004
49.9567
53.3473
56.8223
59.9431
62.6721
65.029
67.0556
68.801
70.3149
71.6489
72.8575
73.9907
75.093
76.1944
77.316
78.4705
79.6653
80.9033
82.1857
83.5106
84.8726
86.2603
87.6532
89.0173
90.3013
91.4405
92.3427
92.8829
92.7809
63.6169
53.5383
48.5695
49.1382
52.3556
55.8359
58.9996
61.7724
64.1644
66.2135
67.9678
69.4789
70.8002
71.9861
73.0884
74.152
75.2092
76.2812
77.3822
78.5205
79.7011
80.9254
82.1929
83.499
84.8329
86.175
87.4927
88.7349
89.8383
90.7147
91.243
82.3774
64.6565
54.0933
48.3972
48.3146
51.2919
54.7705
57.989
60.8219
63.2643
65.3494
67.1246
68.6417
69.9557
71.1233
72.1981
73.2259
74.2395
75.2628
76.3109
77.3941
78.5174
79.6847
80.8956
82.1465
83.428
84.7209
85.9931
87.1949
88.2647
89.1165
89.6342
70.3205
62.4433
53.9663
48.2023
47.4907
50.1676
53.6347
56.9235
59.8348
62.3421
64.4729
66.275
67.8037
69.116
70.2693
71.3184
72.3108
73.2823
74.2568
75.2516
76.2774
77.3429
78.4522
79.6066
80.8036
82.0335
83.2789
84.5076
85.6715
86.7079
87.5365
88.0459
71.4674
62.4456
53.9977
47.9681
46.6166
48.9289
52.3637
55.7357
58.7477
61.3442
63.5414
65.387
66.9379
68.2541
69.3974
70.4254
71.3858
72.3146
73.2403
74.1812
75.1513
76.1585
77.2102
78.3082
79.4508
80.6304
81.8293
83.0158
84.1415
85.1478
85.9541
86.4548
87.0497
64.263
54.5206
47.9631
45.798
47.6021
50.9621
54.4323
57.5737
60.2821
62.5625
64.4622
66.0447
67.3741
68.5119
69.5179
70.4441
71.3319
72.2072
73.0923
74.0014
74.9483
75.9398
76.9806
78.07
79.1993
80.3522
81.4983
82.5886
83.5638
84.3498
84.8462
73.3499
62.8123
54.1509
47.601
44.8383
46.0982
49.3375
52.917
56.2229
59.0825
61.48
63.4588
65.0855
66.4327
67.5709
68.5631
69.46
70.3021
71.1255
71.9521
72.8023
73.687
74.6182
75.6008
76.6348
77.7146
78.8237
79.9289
80.9847
81.9321
82.6978
83.1882
78.6139
62.5753
54.3636
47.6065
43.9869
44.4698
47.4854
51.1788
54.691
57.7455
60.2902
62.3711
64.0629
65.4438
66.5854
67.5566
68.418
69.2182
69.9854
70.7499
71.5306
72.349
73.2153
74.1377
75.118
76.1473
77.2099
78.2777
79.2987
80.2171
80.9653
81.456
85.0411
62.7717
53.828
47.1515
42.9524
42.5977
45.2638
49.0606
52.8484
56.1664
58.9201
61.141
62.914
64.3345
65.4917
66.4574
67.2878
68.0313
68.7371
69.4321
70.1463
70.8939
71.6937
72.5535
73.4746
74.4538
75.4754
76.5029
77.4947
78.3879
79.1169
79.6077
75.5987
61.1955
53.4476
46.799
41.9058
40.5009
42.6384
46.5228
50.627
54.3063
57.3338
59.749
61.6482
63.1346
64.3039
65.2456
66.0367
66.7352
67.372
67.9916
68.6195
69.2905
70.0171
70.8113
71.6768
72.6045
73.5784
74.5717
75.5265
76.3923
77.1091
77.6031
75.0546
60.4821
53.1024
46.4017
40.7697
38.0799
39.3516
43.1932
47.8083
51.9849
55.4253
58.101
60.1539
61.7241
62.9346
63.8769
64.6221
65.2348
65.7886
66.3166
66.8647
67.4474
68.0954
68.8193
69.6207
70.4962
71.4299
72.3831
73.317
74.1611
74.8576
75.3671
73.3024
59.2656
52.1549
45.6326
39.4507
35.3102
35.3317
39.0608
44.1438
49.0687
53.0708
56.1584
58.4486
60.1361
61.371
62.2877
62.99
63.5519
64.0078
64.4309
64.8564
65.3463
65.9081
66.5575
67.2978
68.1221
69.0152
69.9406
70.8379
71.6604
72.3572
72.8702
70.593
58.7028
51.5281
44.7549
37.8841
31.9759
29.9435
32.9873
38.9622
45.0999
50.0775
53.7113
56.3422
58.2112
59.5237
60.4207
61.0234
61.4312
61.7644
62.0587
62.3886
62.755
63.2175
63.7855
64.4611
65.2304
66.0718
66.9592
67.8436
68.6441
69.3179
69.8782
63.4099
56.5001
50.3941
43.5845
35.9475
27.7693
21.9147
24.4144
32.2693
39.6251
46.0477
50.7088
53.8115
55.879
57.2535
58.1534
58.7136
59.0444
59.1875
59.293
59.4053
59.649
60.001
60.4809
61.0822
61.8104
62.6593
63.5463
64.421
65.2418
65.9427
66.5242
53.4043
52.447
48.2357
41.8619
33.4664
22.0813
15.6269
13.7743
14.6786
31.8481
40.5595
46.6062
50.5812
53.0547
54.5053
55.2347
55.5322
55.5714
55.5621
55.4878
55.5027
55.5607
55.7832
56.1687
56.7278
57.4051
58.1578
58.9926
59.8571
60.6121
61.3086
61.9586
42.4628
47.1488
45.0054
39.4167
30.3453
10.8174
19.0917
8.54646
19.8874
10.7941
32.7509
41.4084
46.3502
49.187
50.8421
51.7153
51.9353
51.6644
51.0296
50.4627
49.9701
49.7819
49.8276
50.1293
50.5967
51.2944
52.2291
53.2744
54.248
55.2315
55.9923
56.8863
32.265
41.3495
40.9207
36.1734
26.406
10.2318
19.5352
9.60291
9.1469
20.9946
18.2056
34.0686
41.0415
44.4856
45.8618
45.8431
45.2512
44.6566
44.0961
43.3674
42.8258
42.5682
42.5135
42.5918
43.1367
43.8059
44.6252
45.2353
46.1657
46.9713
47.8931
48.6377
23.3486
35.4229
36.1908
32.1522
21.6152
8.60054
20.0381
21.7693
12.0395
9.40506
22.0526
23.7093
33.4085
37.5113
39.3585
39.9552
38.9537
34.9948
30.7762
27.3956
25.3315
21.8974
21.0036
23.0941
23.6955
25.17
26.4828
29.6904
32.813
34.0369
35.2287
37.3963
16.8312
29.9184
31.1675
27.3959
14.6186
20.3562
21.561
15.6565
14.5259
12.7081
21.7843
17.6708
20.7555
24.7531
22.9105
14.6693
26.9926
15.5958
21.434
6.25619
28.4969
17.9149
18.0758
29.8433
29.454
30.1769
11.2162
24.463
33.6233
3.63528
11.1142
22.1471
12.8672
25.4406
26.4091
22.1325
20.8749
13.7333
22.4603
5.25036
23.6403
22.8947
21.2918
21.6759
15.0311
14.3587
24.2326
13.175
24.3004
25.4954
28.1271
17.9329
17.8259
19.7583
20.2795
18.0691
29.2048
29.6885
23.3394
22.4389
21.5832
21.8977
6.06727
7.44163
11.1427
22.5212
22.523
16.1515
20.4161
15.04
23.6873
9.58118
24.5424
4.87224
22.2445
21.8029
22.6038
13.6002
13.9864
14.7289
4.75169
28.2231
21.1493
30.7233
15.8777
16.6738
16.0294
24.3814
31.0879
31.3323
15.2872
13.7303
14.2055
34.9132
27.8157
34.5146
10.9805
20.9023
19.2977
8.4026
2.33715
22.6091
14.5146
12.9101
19.2219
24.5263
10.3706
16.5674
12.6643
25.4815
21.6666
29.5371
23.1432
22.5115
10.3212
23.1712
29.005
21.9299
15.3626
30.4691
13.2993
16.0572
24.7101
21.5569
13.5203
28.6665
23.4119
30.6802
11.5011
19.9947
16.9332
4.3107
13.4295
18.9894
5.71091
14.4764
20.6213
25.0286
11.6571
5.669
4.07852
15.2745
27.0898
27.0575
37.4994
38.7484
40.5364
35.2466
36.2639
32.3665
20.7442
29.6775
16.5076
32.1201
25.6639
13.0864
16.2958
30.9415
24.2925
29.2358
11.0863
19.0585
16.321
17.4669
12.1659
12.3442
10.1902
20.105
9.9354
13.8629
23.9604
11.2625
15.0244
28.2539
36.0368
48.8317
51.8611
53.4939
52.1922
51.6923
46.4097
42.47
40.8408
36.987
38.8184
30.2614
30.489
31.4384
20.8583
11.9499
23.7265
24.4813
11.887
21.0488
21.2922
16.9747
19.5602
14.0042
15.3511
20.0262
21.3031
19.6181
18.8381
14.6571
24.4589
32.4286
43.1171
50.6542
53.0912
51.2289
50.3678
49.2689
49.3229
47.8989
46.2486
43.6739
41.3072
43.6589
39.9367
37.4185
40.4311
39.5892
31.7128
28.0175
6.01406
7.78136
21.7122
51.5229
78.1745
87.6647
88.5246
99.6658
91.6688
73.8513
52.2904
67.221
16.6182
45.5023
11.8297
16.6541
15.3446
11.6705
11.7453
10.8835
10.8785
11.7456
11.4997
16.2847
14.0486
11.6283
46.0035
17.5297
68.1593
50.6365
72.8841
91.2589
99.4542
88.415
87.5353
78.0034
51.3364
21.6535
7.85077
6.26582
16.4785
12.0259
32.7829
54.0672
63.5295
60.8607
54.2466
48.6414
39.7751
33.8061
30.05
34.4679
3.68747
30.4887
15.7914
23.8032
22.3273
22.7732
23.5404
23.6871
23.6722
23.5018
22.7569
22.2372
23.8888
15.1734
30.1818
12.3849
35.2215
30.2375
33.5933
39.4701
48.4491
54.0943
60.7761
63.4555
53.963
32.6885
12.4156
16.8773
18.5875
9.88297
29.1852
48.2177
49.7008
43.3483
35.7447
31.1633
28.2343
28.7045
26.9125
28.0164
24.4306
27.6879
25.2313
27.3172
27.546
28.4092
29.2611
29.6733
29.6569
29.2182
28.3666
27.4494
27.3304
25.0717
27.7193
24.2187
28.0432
26.9499
28.6548
28.1286
31.0543
35.6687
43.3485
49.6726
48.1602
29.021
11.9333
19.064
18.2392
18.6763
16.007
38.0207
35.1919
34.3707
30.7759
30.4943
30.9095
31.7132
30.621
30.7384
29.636
30.3711
30.1164
31.0205
31.8099
32.8668
33.8761
34.4526
34.4366
33.8307
32.806
31.7268
30.9722
30.0179
30.3344
29.5684
30.6934
30.6017
31.6683
30.8604
30.4461
30.7106
34.3541
35.1357
37.9816
15.7589
7.13429
18.6802
14.0665
14.0061
13.2608
23.0448
28.7899
33.8806
32.2916
33.0674
34.9582
35.5967
35.2115
34.4496
33.5558
33.5029
33.447
34.0557
35.0024
36.2236
37.4302
38.1525
38.1366
37.3813
36.1527
34.9199
33.9816
33.3612
33.435
33.5001
34.3734
35.2027
35.4941
34.9787
32.9228
32.3621
33.6943
28.8872
22.8313
13.2418
14.9385
15.8183
15.9591
6.68388
21.3874
21.4964
27.9665
34.7929
34.753
35.3658
38.2371
38.8691
39.073
37.7385
36.7252
36.1313
36.0089
36.3962
37.4249
38.8009
40.2491
41.133
41.117
40.196
38.7228
37.3391
36.3076
35.9287
36.0406
36.6743
37.6345
39.072
38.7354
38.2708
35.2086
34.7084
34.7865
28.1974
9.54775
20.742
21.7765
21.2169
8.28734
21.7319
22.0745
11.2405
27.1126
35.9264
36.6096
37.3802
40.5672
41.2388
41.9796
40.5732
39.2234
38.2866
37.9379
38.2225
39.264
40.8306
42.56
43.6344
43.6179
42.5025
40.7464
39.1727
38.1287
37.849
38.1929
39.1544
40.4772
41.9561
41.1058
40.5828
37.2231
36.6766
35.8511
26.6866
10.5478
22.0803
6.17621
17.8099
23.6234
22.8885
12.2894
23.9014
23.8004
37.0296
38.0872
39.1845
42.029
43.0598
43.8427
42.6809
41.1544
39.9169
39.3639
39.632
40.6653
42.4835
44.5346
45.8295
45.8126
44.4727
42.3948
40.5679
39.5325
39.2723
39.8114
41.0866
42.5756
43.8051
42.9473
41.9999
39.0975
37.9575
36.9832
23.306
23.7918
12.252
24.3707
19.1285
25.7089
25.2363
14.0639
24.2615
15.3297
38.192
38.9613
40.8817
42.6933
44.239
44.6092
44.0469
42.3306
41.0312
40.3754
40.6727
41.7793
43.8977
46.3272
47.8577
47.8407
46.2638
43.8028
41.6822
40.5636
40.2805
40.9164
42.2531
43.9426
44.5511
44.1484
42.5938
40.8769
38.747
38.2251
13.956
24.3996
12.8
17.6585
22.4926
24.163
20.3489
17.0464
11.0726
25.8698
37.8297
40.2035
41.8654
43.1168
44.5225
44.8417
44.2761
42.7037
41.5641
40.8753
41.4399
42.7237
45.2274
48.0661
49.8237
49.8079
48.002
45.137
42.6199
41.3333
40.7596
41.4503
42.6042
44.1709
44.7654
44.4273
43.0475
41.7015
40.5177
35.7482
19.1585
15.3645
15.5722
21.1264
12.4777
19.666
18.8805
26.8379
24.0036
25.1854
35.4819
41.7805
42.6618
42.0846
44.7498
43.5529
43.7579
42.1549
41.4021
41.0489
42.0032
43.699
46.6107
49.8696
51.7877
51.774
49.8139
46.5234
43.6092
41.8889
40.9369
41.2683
42.0456
43.637
43.4621
44.653
41.9507
42.6568
41.6836
34.7703
24.9728
24.8452
18.2959
24.9666
15.51
12.8462
27.4097
27.711
23.8215
21.9164
38.277
45.4945
40.2825
43.4189
41.822
42.0682
42.1003
40.7651
40.9048
41.0849
42.7298
44.9195
48.233
51.8429
53.7793
53.7695
51.7967
48.1681
44.842
42.634
40.9816
40.7499
40.6587
41.9239
41.979
41.688
43.3245
40.1525
45.3145
38.8456
24.9268
23.5022
6.60117
17.5566
11.1253
14.8966
23.6924
21.1665
11.0124
32.152
48.1516
40.7774
39.9292
38.5303
37.5443
39.92
39.0345
39.8687
40.4275
41.8215
43.9961
46.6967
50.3499
54.0195
55.8298
55.8236
53.9901
50.3104
46.6396
43.9583
41.705
40.3635
39.6687
38.9258
39.7006
37.3692
38.3948
39.7282
40.6874
47.9785
31.4138
19.1854
12.1
17.9053
20.6966
26.6765
21.2405
19.8415
29.6561
42.5971
37.9913
31.0274
32.6009
31.9125
34.7567
37.5083
37.6616
40.5237
41.1852
44.0199
46.1804
49.4688
53.0358
56.3971
57.9628
57.9606
56.3838
53.0134
49.4694
46.1388
44.0336
41.0738
40.5178
37.4352
37.4484
34.4685
31.632
32.564
30.6594
37.4548
42.5465
29.9359
20.09
19.4695
28.7232
34.6372
19.7647
26.6806
35.2224
31.8205
21.9926
27.7396
29.6099
33.0097
36.2248
38.7236
40.4048
43.1305
44.5325
47.5512
49.8107
53.0823
56.1866
58.9011
60.1778
60.1791
58.8982
56.186
53.092
49.8436
47.5534
44.5846
43.0667
40.4949
38.4741
36.429
32.5105
29.7337
27.7342
21.0919
31.7272
35.0421
26.9085
20.4671
35.4004
41.1557
22.3647
28.8388
27.9744
19.6802
28.4741
33.0787
35.3445
39.3566
41.4679
43.7488
45.7902
47.7909
49.7866
52.1831
54.4358
57.0657
59.4707
61.4658
62.4101
62.4127
61.4733
59.477
57.0833
54.4935
52.2038
49.8589
47.8221
45.8448
43.7432
41.5657
39.1897
35.6154
32.6128
29.1713
18.0271
29.0064
27.3456
23.9992
41.7996
40.4901
14.6705
29.8099
22.0276
30.7342
38.1594
39.3994
43.8059
45.8431
48.0918
49.9358
51.7651
53.4919
55.3411
57.1881
59.04
60.8988
62.6032
63.9354
64.5657
64.5698
63.9421
62.6199
60.9181
59.078
57.2508
55.3467
53.6179
51.7204
50.0652
48.0865
45.8582
43.9148
39.288
38.3083
30.5592
22.9655
28.2627
17.0276
39.5859
36.4959
16.9223
33.3624
29.1786
40.9844
42.7659
46.6162
49.5684
51.5212
53.6902
55.251
56.9933
58.5388
60.089
61.583
62.9305
64.2214
65.3508
66.1729
66.5591
66.5637
66.179
65.3692
64.2378
62.9647
61.6218
60.1172
58.5908
57.0147
55.2749
53.75
51.4456
49.7305
46.3528
43.1831
40.2726
30.5817
32.1321
18.3237
36.6978
36.1025
24.3888
35.2351
35.6932
44.1617
46.6074
50.6109
53.2063
55.3878
57.4833
59.0446
60.8175
62.2294
63.687
64.9136
65.9477
66.8801
67.6167
68.1204
68.339
68.3435
68.128
67.6296
66.9012
65.9671
64.9469
63.7049
62.2548
60.8368
59.0372
57.5161
55.3216
53.2607
50.4638
46.6917
43.9159
35.84
35.0533
24.5426
36.11
38.1933
27.2703
36.1179
37.3381
45.2554
48.2628
52.3515
55.2082
57.5194
59.8054
61.4407
63.322
64.7224
66.1752
67.2632
68.1628
68.8935
69.412
69.7445
69.8641
69.8684
69.7528
69.4243
68.9109
68.1845
67.2797
66.2
64.7242
63.336
61.4247
59.8003
57.4742
55.1852
52.2364
48.2663
44.9557
37.5109
35.8171
27.2348
38.5075
39.3151
29.4756
35.2919
37.3689
44.7315
48.5598
52.6443
55.9921
58.4588
60.9842
62.8195
64.777
66.3017
67.7429
68.8213
69.6752
70.3186
70.7376
70.988
71.0579
71.0624
70.996
70.7534
70.3321
69.7032
68.8296
67.7718
66.2948
64.7899
62.7959
60.9719
58.4106
55.9481
52.5511
48.4729
44.578
37.2497
35.1644
29.4457
39.4509
40.4843
29.8516
34.8471
36.8142
43.4748
48.1943
52.1936
56.0074
58.6737
61.4084
63.4506
65.5047
67.144
68.6151
69.7069
70.5785
71.1812
71.5679
71.7784
71.826
71.8311
71.7875
71.5856
71.1995
70.6058
69.7243
68.6405
67.1499
65.5143
63.4342
61.401
58.6202
55.9857
52.0661
48.1848
43.1964
36.9532
34.4225
29.9154
40.8427
41.0966
31.0237
33.4298
37.0248
41.9704
47.7835
51.459
55.7411
58.4867
61.4488
63.5889
65.7591
67.4396
68.9498
70.0798
70.9569
71.5405
71.9087
72.0942
72.1293
72.1349
72.1058
71.9265
71.5705
70.9769
70.1232
68.9524
67.4941
65.7192
63.6585
61.3419
58.5923
55.5136
51.6582
47.3245
42.414
36.1981
34.0636
30.7829
40.7429
40.4111
31.2634
33.7437
36.3252
41.6969
47.0523
51.1856
55.2812
58.3514
61.2629
63.5782
65.7143
67.4593
68.9689
70.1086
70.962
71.5161
71.853
72.0114
72.0333
72.0396
72.0248
71.8759
71.5474
70.997
70.1458
69.0033
67.4886
65.739
63.5862
61.2746
58.3148
55.2956
51.0451
47.1613
41.2464
36.9027
32.6729
31.7541
41.3719
39.5462
33.2316
32.7441
36.612
41.5334
46.7413
51.1169
55.0254
58.3006
61.1077
63.5409
65.6133
67.4034
68.8539
69.973
70.7598
71.2638
71.546
71.6679
71.6711
71.678
71.6831
71.5734
71.2993
70.8043
70.0158
68.9044
67.435
65.6627
63.5438
61.1555
58.2523
55.0761
50.9933
46.7889
41.4108
36.3057
33.7602
30.8615
42.171
40.9009
32.4457
32.9712
37.2846
41.2183
47.0814
50.9894
55.1812
58.2593
61.1783
63.5103
65.6122
67.3241
68.7361
69.7659
70.476
70.8955
71.1096
71.1814
71.1614
71.1687
71.1988
71.139
70.9395
70.5213
69.8304
68.7796
67.3978
65.6339
63.5889
61.1546
58.3504
55.0685
51.1345
46.7869
41.5172
36.7708
32.9732
33.2818
39.7949
40.1558
33.0639
33.7816
37.0707
41.7414
47.1195
51.2336
55.2976
58.4007
61.2723
63.5692
65.6301
67.2722
68.6068
69.5354
70.1447
70.4664
70.5993
70.614
70.5669
70.5745
70.6325
70.6315
70.5128
70.2001
69.6015
68.6742
67.3394
65.6971
63.617
61.3346
58.4
55.3702
51.122
47.2863
41.3315
37.5678
33.2012
32.5387
42.2276
41.0333
33.4607
34.0662
37.4864
42.0181
47.3351
51.4576
55.4571
58.5604
61.3756
63.6388
65.6389
67.2125
68.4527
69.2771
69.7745
69.9944
70.041
69.9962
69.921
69.9286
70.0157
70.0751
70.0457
69.834
69.3591
68.5228
67.3122
65.7002
63.7382
61.4142
58.6361
55.4737
51.466
47.3826
41.8183
37.7318
33.8452
32.5905
43.3276
42.374
34.3223
33.8804
38.238
42.1325
47.6262
51.6291
55.6131
58.688
61.4566
63.6813
65.6183
67.1267
68.2709
68.9959
69.3829
69.5041
69.4671
69.3641
69.2617
69.2693
69.3841
69.5027
69.5584
69.4512
69.0838
68.3648
67.229
65.7258
63.7659
61.5722
58.7111
55.7549
51.5141
47.8664
41.6989
38.7698
32.7515
35.8242
39.7034
42.3744
35.4337
33.8597
38.9123
42.3515
47.8879
51.8197
55.7395
58.7947
61.5077
63.7011
65.5785
67.0346
68.0954
68.7374
69.0285
69.064
68.9534
68.7992
68.6726
68.6798
68.8186
68.9892
69.1182
69.1036
68.8277
68.2045
67.1468
65.6986
63.8123
61.6085
58.8857
55.7813
51.8972
47.7563
42.5843
38.1718
34.5918
35.5034
39.6271
37.1129
37.598
34.4544
38.8856
42.8544
47.9482
52.0352
55.814
58.8704
61.5398
63.7008
65.5489
66.9599
67.9734
68.5524
68.7788
68.7502
68.5851
68.3924
68.2481
68.2558
68.4137
68.6246
68.8113
68.8632
68.6591
68.0985
67.0971
65.6898
63.8383
61.6657
58.9754
55.8958
52.0767
47.939
42.8899
38.4519
35.2198
35.5105
40.9708
41.3532
36.4768
34.9958
38.9806
42.7648
47.8766
51.9744
55.7291
58.8001
61.4438
63.6127
65.4362
66.8447
67.8257
68.3789
68.5618
68.4926
68.2888
68.0679
67.9099
67.9177
68.0899
68.3303
68.5571
68.6545
68.4935
67.9692
66.9902
65.6068
63.7463
61.6174
58.8602
55.9063
51.8563
48.1223
42.3069
39.2395
34.4143
36.6028
40.3463
84.5012
65.7533
56.7659
59.3878
64.651
69.0422
72.6911
75.8109
78.5982
81.156
83.5488
85.8128
87.9688
90.0358
92.043
94.0279
96.0269
98.0669
100.164
102.325
104.553
106.846
109.2
111.605
114.044
116.493
118.914
121.251
123.424
125.328
126.807
127.658
100.429
65.4465
56.3214
58.3391
63.4242
67.7409
71.345
74.4407
77.2069
79.7346
82.0791
84.2859
86.3773
88.3751
90.3099
92.2196
94.1414
96.102
98.118
100.197
102.34
104.548
106.815
109.132
111.484
113.846
116.182
118.438
120.536
122.376
123.806
124.629
89.0879
64.6166
55.7128
57.3287
62.2162
66.47
70.0429
73.1252
75.8739
78.3701
80.6649
82.8126
84.8394
86.768
88.6305
90.4656
92.3103
94.192
96.1272
98.1237
100.183
102.306
104.487
106.717
108.982
111.257
113.509
115.684
117.709
119.484
120.865
121.661
75.1362
63.2487
55.1111
56.3099
61.0423
65.2423
68.7944
71.8708
74.6041
77.0681
79.3147
81.4047
83.3668
85.2273
87.019
88.781
90.5508
92.3556
94.212
96.1284
98.1064
100.146
102.243
104.388
106.568
108.759
110.928
113.025
114.977
116.691
118.024
118.794
95.6761
63.2606
54.7526
55.3987
59.908
64.0637
67.6027
70.6759
73.3945
75.8274
78.0304
80.0623
81.9621
83.7567
85.4799
87.1716
88.8688
90.5993
92.3797
94.2184
96.1176
98.077
100.092
102.155
104.253
106.362
108.452
110.473
112.357
114.009
115.297
116.041
85.7847
63.2424
54.1317
54.4665
58.8205
62.9355
66.4636
69.5344
72.2386
74.6429
76.806
78.7839
80.6236
82.3544
84.0121
85.6358
87.2637
88.9229
90.6304
92.3946
94.2177
96.0999
98.037
100.021
102.039
104.07
106.083
108.031
109.848
111.443
112.687
113.406
85.5851
64.2214
54.1409
53.6681
57.7795
61.858
65.3777
68.4449
71.1353
73.5135
75.6395
77.5679
79.3511
81.0219
82.6163
84.1758
85.7372
87.3281
88.9656
90.6581
92.4081
94.2157
96.0774
97.9855
99.927
101.883
103.822
105.701
107.453
108.993
110.195
110.891
84.4072
63.8724
53.7003
52.8742
56.7908
60.8275
64.3364
67.3992
70.0778
72.4331
74.5265
76.413
78.1431
79.7564
81.2919
82.7896
84.2876
85.8136
87.3842
89.0083
90.6886
92.4248
94.2136
96.0486
97.9169
99.8002
101.669
103.481
105.171
106.658
107.819
108.494
84.7167
64.6747
53.8327
52.1905
55.839
59.8376
63.3384
66.3968
69.0651
71.401
73.4663
75.316
76.998
78.5588
80.0375
81.4775
82.9154
84.3792
85.8858
87.444
89.057
90.7247
92.4441
94.2085
96.0067
97.8205
99.622
101.369
103.001
104.437
105.561
106.214
82.9776
63.9316
53.5516
51.5562
54.9371
58.8828
62.3716
65.426
68.0875
70.4086
72.4512
74.2698
75.9111
77.423
78.8506
80.2355
81.6165
83.0213
84.467
85.9626
87.5113
89.1129
90.7649
92.4617
94.192
95.9388
97.6759
99.3614
100.937
102.325
103.412
104.045
83.481
64.5074
53.5884
50.9576
54.0518
57.9518
61.4348
64.4879
67.1455
69.4565
71.4812
73.2733
74.88
76.3493
77.7279
79.0621
80.3895
81.738
83.1252
84.5601
86.0464
87.5843
89.1716
90.803
92.468
94.1508
95.8252
97.4524
98.9741
100.316
101.368
101.983
83.7333
64.6457
53.6814
50.4827
53.2135
57.0391
60.5134
63.5672
66.2259
68.5327
70.5455
72.3171
73.8949
75.3276
76.6643
77.9511
79.2278
80.523
81.8543
83.2312
84.6575
86.1328
87.6566
89.2236
90.8246
92.4448
94.0591
95.6293
97.0996
98.3974
99.4166
100.014
70.7795
62.6809
53.4811
49.9859
52.3718
56.131
59.6058
62.6665
65.3314
67.6397
69.6453
71.401
72.9545
74.3551
75.6541
76.8975
78.1269
79.3709
80.6477
81.9673
83.3342
84.7484
86.2096
87.7138
89.2528
90.8118
92.3678
93.8832
95.3041
96.5593
97.5474
98.1279
91.6136
63.4044
53.5316
49.608
51.5682
55.2216
58.6931
61.7652
64.4433
66.7605
68.7663
70.5127
72.0478
73.4216
74.6868
75.8905
77.0753
78.27
79.4937
80.7572
82.0658
83.4203
84.8204
86.2635
87.7415
89.2417
90.7408
92.2039
93.5774
94.7927
95.7509
96.3158
82.1966
63.7336
53.582
49.2178
50.746
54.2933
57.7722
60.8664
63.566
65.8988
67.9107
69.6527
71.174
72.5252
73.7599
74.9266
76.0688
77.2161
78.388
79.5963
80.8471
82.1429
83.4832
84.8661
86.285
87.7278
89.1731
90.5852
91.9134
93.0893
94.0195
94.5704
69.3615
62.3035
53.6136
48.9164
49.9488
53.3403
56.8184
59.9422
62.6735
65.0319
67.0594
68.8051
70.3191
71.6531
72.8615
73.9945
75.0964
76.1976
77.3189
78.4732
79.6676
80.9053
82.1871
83.5113
84.8726
86.2595
87.652
89.0153
90.2997
91.4393
92.3427
92.8806
88.0884
63.1318
53.7424
48.6407
49.1244
52.3381
55.8261
58.9949
61.7709
64.1649
66.2152
67.9702
69.4818
70.8031
71.9889
73.0909
74.1542
75.2109
76.2826
77.3831
78.5208
79.7007
80.9243
82.1908
83.4958
84.8288
86.17
87.487
88.7296
89.8339
90.7115
91.2383
77.7671
62.883
53.7579
48.3902
48.3118
51.2841
54.7647
57.9863
60.8218
63.2659
65.3519
67.1275
68.6446
69.9585
71.1257
72.2001
73.2272
74.2402
75.2627
76.3101
77.3924
78.5147
79.6808
80.8903
82.14
83.4201
84.7121
85.9839
87.1863
88.2574
89.1117
89.6274
67.1229
61.6101
53.8495
48.2116
47.4722
50.145
53.6204
56.9152
59.8304
62.3403
64.4727
66.2758
67.8049
69.1174
70.2703
71.3188
72.3107
73.2812
74.2548
75.2484
76.2731
77.3373
78.4452
79.5982
80.7934
82.0219
83.2662
84.4945
85.6594
86.698
87.5292
88.0374
81.4918
62.0628
53.8042
47.9808
46.6216
48.919
52.3544
55.7303
58.7455
61.344
63.5424
65.3885
66.9393
68.2552
69.3981
70.4252
71.3842
72.3121
73.2365
74.1759
75.1445
76.1501
77.1998
78.2958
79.4369
80.6149
81.8126
82.999
84.1265
85.1353
85.9467
86.4462
70.7436
61.6267
53.9703
47.8892
45.7728
47.5749
50.9421
54.4191
57.5656
60.2775
62.5602
64.4612
66.0443
67.3735
68.5104
69.5157
70.4414
71.3272
72.2009
73.0842
73.9913
74.9362
75.9257
76.9647
78.0518
79.1794
80.3314
81.4779
82.5708
83.5499
84.3401
84.8369
83.6587
63.245
54.2116
47.6647
44.8559
46.0865
49.3231
52.9078
56.218
59.08
61.4791
63.4583
65.0847
66.4316
67.5697
68.5604
69.4548
70.2959
71.1171
71.9415
72.7894
73.6715
74.6002
75.5799
76.6124
77.6909
78.7993
79.9057
80.9652
81.9172
82.6924
83.1832
70.0444
61.6971
54.2362
47.6205
43.9771
44.4426
47.4605
51.1603
54.6786
57.738
60.2855
62.3683
64.061
65.4413
66.5808
67.5512
68.4124
69.2091
69.974
70.7359
71.5136
72.3291
73.1927
74.1133
75.0907
76.1185
77.1811
78.2512
79.2777
80.203
80.9571
81.4512
70.3278
61.9127
54.266
47.4383
43.0385
42.5955
45.2471
49.0483
52.8406
56.1609
58.9166
61.1379
62.9103
64.3308
65.4888
66.452
67.2781
68.021
68.7234
69.4152
70.1261
70.8703
71.6668
72.523
73.4432
74.4222
75.4446
76.4752
77.4739
78.375
79.1224
79.6151
82.2965
62.8615
54.1896
47.1769
42.0365
40.506
42.6121
46.4981
50.6094
54.296
57.3268
59.7445
61.6453
63.1305
64.2953
65.2366
66.0284
66.7207
67.3547
67.9706
68.5944
69.2615
69.9849
70.7773
71.6401
72.5669
73.5422
74.5422
75.5068
76.3843
77.1069
77.6094
70.0238
61.5989
53.8811
46.7816
40.9196
38.1009
39.3307
43.1713
47.7933
51.9729
55.4174
58.0941
60.146
61.7168
62.9306
63.8683
64.6061
65.2201
65.7687
66.2922
66.8359
67.4145
68.0587
68.7791
69.5802
70.4575
71.3951
72.3527
73.3003
74.1564
74.8887
75.4009
69.4001
58.6825
52.2373
45.766
39.5201
35.305
35.2861
39.0172
44.1138
49.0536
53.0607
56.1523
58.4458
60.1311
61.3578
62.276
62.9807
63.5309
63.9839
64.4021
64.8223
65.3074
65.8654
66.5124
67.2521
68.0771
68.9733
69.9176
70.8281
71.67
72.3696
72.9001
71.3242
59.3689
51.9725
44.9622
37.9517
31.9614
29.8975
32.9344
38.9274
45.0729
50.0625
53.6995
56.3285
58.1996
59.5188
60.4065
60.9976
61.4121
61.7372
62.0254
62.3499
62.7115
63.1702
63.7375
64.4122
65.1865
66.0383
66.9236
67.8398
68.6585
69.3955
69.9567
64.6886
57.5067
51.0689
43.9336
36.0847
27.7757
21.7881
24.3171
32.2104
39.602
46.0324
50.7018
53.8113
55.8751
57.2374
58.144
58.7091
59.016
59.1564
59.2554
59.3607
59.5986
59.9473
60.4214
61.0292
61.7629
62.6151
63.5578
64.4405
65.288
66.003
66.617
54.0857
53.0931
48.742
42.1858
33.6455
22.1182
15.6016
13.7028
14.4167
31.7744
40.5355
46.5897
50.5614
53.0394
54.4982
55.2079
55.4869
55.549
55.5263
55.4439
55.4524
55.5054
55.7245
56.118
56.6727
57.3585
58.1371
58.9407
59.8791
60.6778
61.4353
62.0792
42.5993
47.3856
45.2324
39.5927
30.4651
10.9041
19.3454
8.6998
19.8809
10.5538
32.7109
41.4039
46.3598
49.188
50.8317
51.7237
51.9555
51.6252
50.9897
50.4129
49.9109
49.7171
49.7646
50.0498
50.5446
51.2627
52.1942
53.3799
54.3632
55.3409
56.2789
57.2425
32.1473
41.3213
40.9182
36.1825
26.4358
11.6747
11.5032
9.56752
9.16338
21.0119
18.1746
34.0566
41.0201
44.4739
45.8469
45.7831
45.148
44.6358
44.0506
43.3125
42.7635
42.5016
42.444
42.5746
43.087
43.7627
44.6436
45.1486
46.2202
47.23
47.9664
48.5503
23.1164
35.2945
36.0825
32.0452
21.5049
20.8609
11.5482
12.2279
11.8816
9.97557
22.0858
23.7374
33.4546
37.5314
39.3877
40.0429
39.0931
34.941
30.7152
27.3064
25.2225
21.7924
20.959
22.7536
23.7177
25.363
26.5654
31.2539
33.4283
34.2545
36.1907
39.0857
16.6217
29.7625
31.0198
27.2289
14.228
20.6325
14.0583
23.4832
15.2553
22.5232
21.3282
17.657
20.7863
24.7783
22.859
14.2389
27.2673
15.4821
21.4206
6.24402
28.4863
17.9274
18.2058
29.0892
29.4533
30.2006
11.8305
32.5761
33.5326
10.0641
21.626
31.1966
12.8398
25.4255
26.4052
22.1154
20.2218
3.05296
16.6841
23.7501
23.8171
23.0482
21.2895
21.6722
15.0441
14.3942
24.2594
14.6482
11.1463
25.6594
28.3284
17.9503
17.8555
19.3024
19.1023
28.8316
28.9692
30.0339