/*--------------------------------*- C++ -*----------------------------------*\
  =========                 |
  \\      /  F ield         | OpenFOAM: The Open Source CFD Toolbox
   \\    /   O peration     | Website:  https://openfoam.org
    \\  /    A nd           | Version:  6
     \\/     M anipulation  |
\*---------------------------------------------------------------------------*/
FoamFile
{
    version     2.0;
    format      ascii;
    class       volVectorField;
    location    "12";
    object      wallShearStress;
}
// * * * * * * * * * * * * * * * * * * * * * * * * * * * * * * * * * * * * * //

dimensions      [0 2 -2 0 0 0 0];

internalField   uniform (0 0 0);

boundaryField
{
    inlet
    {
        type            calculated;
        value           uniform (0 0 0);
    }
    outlet
    {
        type            calculated;
        value           uniform (0 0 0);
    }
    roughCylinder
    {
        type            calculated;
        value           nonuniform List<vector> 
5120
(
(-0.000252004 -0.000359066 -0.00018512)
(-0.000308854 -0.000463769 -4.20327e-05)
(-0.000342639 -0.000557915 -4.32381e-07)
(-0.000388675 -0.000648202 5.45691e-05)
(-0.000446008 -0.000726494 0.000118024)
(-0.000511047 -0.000788314 0.000181732)
(-0.000580291 -0.000830839 0.000241153)
(-0.000649048 -0.000854525 0.000293518)
(-0.000713237 -0.000861886 0.000336739)
(-0.000770829 -0.000858074 0.000370135)
(-0.000822102 -0.000851474 0.000395275)
(-0.000867264 -0.000847534 0.000413972)
(-0.000903456 -0.000846442 0.000425018)
(-0.000933954 -0.000850811 0.000429511)
(-0.000960054 -0.000859873 0.000428509)
(-0.0009831 -0.000872914 0.000423063)
(-0.00100452 -0.000889157 0.000414235)
(-0.00102555 -0.000907945 0.000402916)
(-0.00104714 -0.000928799 0.00038978)
(-0.00106993 -0.000951428 0.000375241)
(-0.00109427 -0.000975653 0.000359498)
(-0.00112027 -0.00100134 0.000342576)
(-0.00114789 -0.00102837 0.000324371)
(-0.00117697 -0.00105657 0.000304687)
(-0.00120724 -0.00108571 0.000283244)
(-0.0012384 -0.00111546 0.000259702)
(-0.00126999 -0.00114535 0.000233525)
(-0.0013015 -0.00117478 0.000204093)
(-0.00133191 -0.00120269 0.000170135)
(-0.00136009 -0.00122794 0.00013028)
(-0.00138262 -0.00124819 8.2321e-05)
(-0.00139575 -0.00126044 2.77624e-05)
(-0.000270761 -0.000347487 -0.000174987)
(-0.000330737 -0.000449438 -4.45333e-05)
(-0.000367112 -0.000542281 -6.22006e-06)
(-0.000415277 -0.00063229 4.53913e-05)
(-0.000474305 -0.000711601 0.000106235)
(-0.000540904 -0.000775212 0.000168169)
(-0.000611554 -0.000819906 0.000226456)
(-0.000681816 -0.000846015 0.000278208)
(-0.000748232 -0.000856457 0.000321448)
(-0.000809271 -0.000856955 0.000355928)
(-0.000864727 -0.000854395 0.00038307)
(-0.000913458 -0.000851999 0.000403629)
(-0.000952405 -0.000849577 0.000415733)
(-0.000984438 -0.000852848 0.000420797)
(-0.00101206 -0.000861209 0.000420103)
(-0.00103654 -0.000873897 0.000414881)
(-0.00105936 -0.000890015 0.000406224)
(-0.00108181 -0.000908812 0.000395075)
(-0.00110485 -0.000929755 0.000382129)
(-0.00112914 -0.000952495 0.000367832)
(-0.00115504 -0.000976823 0.000352385)
(-0.00118265 -0.0010026 0.000335817)
(-0.00121192 -0.00102969 0.00031802)
(-0.00124269 -0.00105791 0.000298797)
(-0.00127466 -0.00108703 0.000277858)
(-0.00130751 -0.00111673 0.000254862)
(-0.00134076 -0.00114653 0.000229264)
(-0.00137389 -0.00117586 0.000200459)
(-0.00140581 -0.00120363 0.000167162)
(-0.00143539 -0.00122876 0.000128041)
(-0.00145899 -0.00124889 8.09128e-05)
(-0.00147279 -0.00126106 2.72686e-05)
(-0.000289346 -0.000330636 -0.000157532)
(-0.000352122 -0.000429619 -4.75477e-05)
(-0.000390914 -0.000520416 -1.26695e-05)
(-0.000440817 -0.000609489 3.53333e-05)
(-0.000501245 -0.000689303 9.32698e-05)
(-0.000569254 -0.000754474 0.000153191)
(-0.000641387 -0.000801509 0.00021027)
(-0.000713524 -0.000830701 0.000261567)
(-0.000782702 -0.00084516 0.000305276)
(-0.000847475 -0.00085027 0.000341208)
(-0.00090684 -0.00085131 0.000370144)
(-0.000958824 -0.000850394 0.000391984)
(-0.00100129 -0.000847902 0.000405358)
(-0.00103497 -0.000849682 0.000410945)
(-0.00106414 -0.000857156 0.000410554)
(-0.00109014 -0.000869308 0.000405594)
(-0.00111445 -0.000885133 0.00039716)
(-0.00113839 -0.000903788 0.000386235)
(-0.00116295 -0.000924655 0.000373547)
(-0.00118879 -0.000947341 0.000359549)
(-0.00121628 -0.000971608 0.000344459)
(-0.00124553 -0.000997295 0.000328304)
(-0.00127647 -0.00102425 0.000310977)
(-0.00130892 -0.00105231 0.000292276)
(-0.00134259 -0.00108121 0.000271903)
(-0.00137711 -0.00111065 0.000249513)
(-0.001412 -0.00114017 0.000224554)
(-0.00144672 -0.00116917 0.000196439)
(-0.00148012 -0.00119662 0.000163869)
(-0.00151105 -0.00122144 0.000125558)
(-0.0015357 -0.00124129 7.93519e-05)
(-0.00155014 -0.00125331 2.67218e-05)
(-0.000305965 -0.000309928 -0.000135597)
(-0.000371116 -0.000405408 -5.06474e-05)
(-0.000411867 -0.000493417 -1.93766e-05)
(-0.000462914 -0.000580895 2.48499e-05)
(-0.000524295 -0.000660697 7.96086e-05)
(-0.000593494 -0.000727227 0.000137246)
(-0.000667183 -0.000776779 0.000192958)
(-0.000741525 -0.000809564 0.000243814)
(-0.000813779 -0.000828553 0.000288132)
(-0.000882268 -0.000838304 0.000325566)
(-0.000945346 -0.000842679 0.000356158)
(-0.00100076 -0.000843439 0.0003792)
(-0.00104695 -0.000841836 0.000393885)
(-0.00108309 -0.000842002 0.000400123)
(-0.00111394 -0.000848499 0.000400156)
(-0.00114159 -0.000859964 0.000395512)
(-0.0011675 -0.00087536 0.000387372)
(-0.001193 -0.000893742 0.000376737)
(-0.00121912 -0.000914424 0.000364368)
(-0.00124654 -0.000936933 0.000350728)
(-0.00127563 -0.000961008 0.000336048)
(-0.0013065 -0.000986468 0.000320361)
(-0.00133908 -0.00101315 0.000303554)
(-0.00137315 -0.00104087 0.00028542)
(-0.00140843 -0.0010694 0.000265654)
(-0.00144454 -0.00109842 0.000243909)
(-0.00148097 -0.00112747 0.000219624)
(-0.00151719 -0.00115599 0.000192235)
(-0.00155195 -0.00118294 0.000160424)
(-0.00158417 -0.00120732 0.00012296)
(-0.00160979 -0.00122679 7.77196e-05)
(-0.00162484 -0.00123858 2.61498e-05)
(-0.000319433 -0.000285525 -0.000111273)
(-0.000386581 -0.00037699 -5.34607e-05)
(-0.000428819 -0.000461566 -2.59849e-05)
(-0.000480444 -0.000546851 1.42666e-05)
(-0.000542375 -0.000626166 6.55536e-05)
(-0.000612615 -0.000693892 0.000120583)
(-0.000687996 -0.000746142 0.000174698)
(-0.000764846 -0.000782846 0.000225039)
(-0.00084036 -0.000806467 0.000269928)
(-0.000912462 -0.000820594 0.000308724)
(-0.000979113 -0.000828059 0.000340835)
(-0.00103806 -0.000830576 0.000365125)
(-0.00108776 -0.000830067 0.000380917)
(-0.00112773 -0.00082971 0.000388271)
(-0.0011605 -0.000834734 0.000388872)
(-0.00118994 -0.000845274 0.000384641)
(-0.00121754 -0.000860071 0.000376884)
(-0.00124467 -0.000878029 0.000366628)
(-0.00127238 -0.000898353 0.000354644)
(-0.00130139 -0.000920543 0.000341431)
(-0.00133205 -0.000944279 0.000327225)
(-0.0013645 -0.000969352 0.000312061)
(-0.00139863 -0.000995595 0.000295825)
(-0.00143425 -0.00102282 0.000278306)
(-0.00147104 -0.0010508 0.000259188)
(-0.00150863 -0.00107921 0.000238125)
(-0.00154648 -0.00110761 0.000214543)
(-0.00158405 -0.00113549 0.000187906)
(-0.00162005 -0.00116178 0.000156877)
(-0.00165344 -0.00118555 0.000120282)
(-0.00167993 -0.00120451 7.60394e-05)
(-0.00169553 -0.001216 2.55602e-05)
(-0.000329879 -0.000258985 -8.63847e-05)
(-0.000398493 -0.000345871 -5.58722e-05)
(-0.00044163 -0.000426447 -3.22985e-05)
(-0.000493202 -0.000508939 3.82425e-06)
(-0.000555199 -0.000587251 5.13437e-05)
(-0.000626228 -0.000655893 0.000103419)
(-0.000703291 -0.00071079 0.000155654)
(-0.000782739 -0.000751396 0.000205288)
(-0.00086156 -0.00077945 0.0002506)
(-0.000937265 -0.000797558 0.00029056)
(-0.00100751 -0.000807873 0.000324041)
(-0.0010701 -0.000812163 0.000349611)
(-0.00112353 -0.000812783 0.000366503)
(-0.00116764 -0.000812817 0.000375115)
(-0.00120336 -0.000816157 0.000376569)
(-0.00123477 -0.000825609 0.000372949)
(-0.00126421 -0.000839511 0.000365678)
(-0.00129306 -0.000856809 0.000355896)
(-0.00132242 -0.000876625 0.000344393)
(-0.00135301 -0.000898326 0.000331683)
(-0.00138522 -0.000921557 0.000318017)
(-0.00141918 -0.000946083 0.000303438)
(-0.0014548 -0.00097171 0.000287826)
(-0.00149185 -0.00099826 0.000270966)
(-0.00153001 -0.00102549 0.000252535)
(-0.00156892 -0.00105311 0.000232184)
(-0.00160803 -0.0010807 0.000209332)
(-0.00164679 -0.00110774 0.000183471)
(-0.00168386 -0.00113319 0.000153238)
(-0.00171833 -0.00115623 0.000117536)
(-0.00174557 -0.00117455 7.43177e-05)
(-0.00176166 -0.00118568 2.49551e-05)
(-0.000335902 -0.000230456 -6.18411e-05)
(-0.000405493 -0.000312316 -5.76882e-05)
(-0.000448961 -0.000388343 -3.81001e-05)
(-0.000499846 -0.000467457 -6.30479e-06)
(-0.000561368 -0.000544233 3.70858e-05)
(-0.000632898 -0.000613484 8.57763e-05)
(-0.000711607 -0.000670958 0.000135762)
(-0.000793764 -0.000715441 0.000184437)
(-0.000876003 -0.000747733 0.000229947)
(-0.000955406 -0.000769524 0.000270843)
(-0.0010294 -0.000782522 0.000305549)
(-0.00109582 -0.000788613 0.000332418)
(-0.00115324 -0.000790427 0.000350555)
(-0.00120149 -0.00079119 0.000360389)
(-0.0012416 -0.000794022 0.000363165)
(-0.00127537 -0.000801446 0.000360307)
(-0.00130682 -0.000814287 0.000353698)
(-0.00133755 -0.000830748 0.000344516)
(-0.0013686 -0.000849811 0.000333591)
(-0.00140079 -0.00087084 0.000321473)
(-0.00143453 -0.0008934 0.000308426)
(-0.00146994 -0.000917215 0.000294498)
(-0.00150694 -0.000942087 0.00027957)
(-0.00154531 -0.00096781 0.000263423)
(-0.00158471 -0.000994161 0.00024572)
(-0.00162479 -0.00102086 0.000226117)
(-0.00166497 -0.00104747 0.000204017)
(-0.00170477 -0.00107353 0.000178954)
(-0.00174275 -0.001098 0.000149531)
(-0.00177811 -0.00112014 0.000114733)
(-0.00180601 -0.00113773 7.25628e-05)
(-0.0018225 -0.00114843 2.43369e-05)
(-0.000337841 -0.000201256 -3.86919e-05)
(-0.000407742 -0.000277641 -5.89319e-05)
(-0.000450908 -0.000348675 -4.33009e-05)
(-0.00050041 -0.000423857 -1.59412e-05)
(-0.000560805 -0.000498502 2.30147e-05)
(-0.000632341 -0.000567864 6.7892e-05)
(-0.000712383 -0.000627532 0.000115194)
(-0.000797026 -0.000675506 0.00016251)
(-0.000882568 -0.000711648 0.000207855)
(-0.00096574 -0.000736845 0.000249402)
(-0.00104372 -0.000752443 0.000285191)
(-0.00111427 -0.000760399 0.000313372)
(-0.00117597 -0.0007635 0.000332924)
(-0.00122847 -0.000764979 0.000344106)
(-0.00127279 -0.000767885 0.000348187)
(-0.00131071 -0.000774215 0.000346625)
(-0.00134449 -0.000785163 0.000340866)
(-0.00137723 -0.00080022 0.000332409)
(-0.00141009 -0.000818388 0.00032222)
(-0.00144393 -0.000838574 0.000310799)
(-0.00147916 -0.000860303 0.000298461)
(-0.00151594 -0.00088325 0.000285259)
(-0.00155421 -0.000907198 0.000271077)
(-0.00159372 -0.000931939 0.000255692)
(-0.00163415 -0.000957236 0.000238755)
(-0.00167515 -0.000982827 0.000219924)
(-0.00171621 -0.00100832 0.000198601)
(-0.0017568 -0.00103334 0.000174357)
(-0.00179546 -0.00105676 0.000145753)
(-0.00183163 -0.00107793 0.000111877)
(-0.00186 -0.00109469 7.07767e-05)
(-0.00187683 -0.00110498 2.37069e-05)
(-0.000334033 -0.0001712 -1.74095e-05)
(-0.000403691 -0.000241819 -5.94031e-05)
(-0.000445931 -0.000307384 -4.7692e-05)
(-0.000493304 -0.000378029 -2.48725e-05)
(-0.000551799 -0.000449833 9.31223e-06)
(-0.000622722 -0.000518686 4.98699e-05)
(-0.000703773 -0.000580149 9.39476e-05)
(-0.000790881 -0.000631416 0.000139423)
(-0.000879883 -0.00067128 0.000184201)
(-0.000967036 -0.000699764 0.00022608)
(-0.00104926 -0.000717913 0.000262759)
(-0.00112421 -0.000727748 0.000292211)
(-0.0011904 -0.000732171 0.000313284)
(-0.0012475 -0.000734476 0.000326073)
(-0.00129616 -0.000737525 0.000331624)
(-0.00133812 -0.000743361 0.000331425)
(-0.0013756 -0.000753031 0.000326924)
(-0.00141124 -0.000766756 0.000319603)
(-0.00144595 -0.000783466 0.000310278)
(-0.00148144 -0.000802491 0.000299671)
(-0.00151813 -0.000823188 0.000288145)
(-0.0015562 -0.000845149 0.000275759)
(-0.00159558 -0.0008681 0.000262398)
(-0.00163607 -0.000891826 0.000247837)
(-0.00167735 -0.000916081 0.000231716)
(-0.00171911 -0.000940614 0.000213698)
(-0.00176075 -0.000964981 0.000193167)
(-0.00180176 -0.000988794 0.000169735)
(-0.00184077 -0.00101105 0.000141938)
(-0.00187748 -0.0010311 0.000108983)
(-0.00190617 -0.00104699 6.89705e-05)
(-0.0019231 -0.00105676 2.30663e-05)
(-0.000325571 -0.000141921 1.30981e-06)
(-0.000394014 -0.000206048 -5.93982e-05)
(-0.000434726 -0.000266173 -5.12636e-05)
(-0.000479331 -0.000331774 -3.29331e-05)
(-0.000535095 -0.000400053 -3.70785e-06)
(-0.000604593 -0.000467628 3.21071e-05)
(-0.000685974 -0.000530168 7.23767e-05)
(-0.000774968 -0.000584065 0.00011538)
(-0.000867025 -0.000627121 0.000158998)
(-0.000958129 -0.000658676 0.00020077)
(-0.00104488 -0.000679392 0.00023812)
(-0.00112467 -0.000691208 0.000268815)
(-0.00119586 -0.000697065 0.000291527)
(-0.00125775 -0.000700138 0.00030608)
(-0.001311 -0.000703367 0.000313352)
(-0.00135709 -0.000708771 0.00031471)
(-0.00139827 -0.000717567 0.000311654)
(-0.00143685 -0.000730089 0.000305614)
(-0.00147408 -0.000745442 0.000297439)
(-0.0015115 -0.000763213 0.000287876)
(-0.00154967 -0.000782709 0.000277314)
(-0.00158886 -0.000803495 0.000265843)
(-0.00162908 -0.000825265 0.00025337)
(-0.00167012 -0.000847762 0.000239672)
(-0.00171172 -0.000870754 0.000224385)
(-0.00175361 -0.000893961 0.00020718)
(-0.00179537 -0.000917038 0.000187448)
(-0.00183646 -0.000939465 0.000164857)
(-0.00187548 -0.00096037 0.000137895)
(-0.0019126 -0.000979282 0.000105916)
(-0.00194134 -0.00099418 6.70532e-05)
(-0.00195831 -0.00100335 2.23849e-05)
(-0.000308669 -0.000112486 1.70677e-05)
(-0.000377804 -0.000170724 -5.84963e-05)
(-0.000415535 -0.000224817 -5.38765e-05)
(-0.000456405 -0.000284695 -3.9824e-05)
(-0.000508364 -0.000348544 -1.57163e-05)
(-0.000575371 -0.000413845 1.48646e-05)
(-0.000656361 -0.000476716 5.06202e-05)
(-0.000747107 -0.000532962 9.04247e-05)
(-0.000842571 -0.000579306 0.000132273)
(-0.000938016 -0.000614076 0.000173482)
(-0.00102963 -0.000637457 0.000211217)
(-0.00111454 -0.00065127 0.000243024)
(-0.00119085 -0.000658425 0.000267355)
(-0.00125799 -0.000662308 0.000283862)
(-0.00131615 -0.000665705 0.000293106)
(-0.00136672 -0.00067073 0.000296308)
(-0.00141172 -0.000678675 0.000294921)
(-0.00145344 -0.000690039 0.000290363)
(-0.00149314 -0.000704044 0.000283507)
(-0.00153245 -0.00072047 0.000275156)
(-0.00157205 -0.000738629 0.000265706)
(-0.00161225 -0.000758063 0.000255274)
(-0.0016531 -0.00077845 0.000243785)
(-0.00169451 -0.000799542 0.000231032)
(-0.00173621 -0.000821088 0.000216645)
(-0.00177807 -0.00084285 0.000200312)
(-0.00181955 -0.000864396 0.000181405)
(-0.00186045 -0.000885324 0.000159699)
(-0.00189925 -0.000904814 0.000133616)
(-0.00193641 -0.000922435 0.000102655)
(-0.00196504 -0.000936303 6.50162e-05)
(-0.00198193 -0.000944804 2.16581e-05)
(-0.000285628 -8.44985e-05 2.9827e-05)
(-0.000355944 -0.000137498 -5.68595e-05)
(-0.00039047 -0.000185309 -5.55886e-05)
(-0.000426782 -0.000239213 -4.54598e-05)
(-0.000473976 -0.000297962 -2.63478e-05)
(-0.000537366 -0.000360012 -1.26756e-06)
(-0.000616819 -0.000422156 2.93367e-05)
(-0.000708171 -0.000479746 6.50807e-05)
(-0.00080598 -0.000528554 0.000104272)
(-0.000905306 -0.00056621 0.000144222)
(-0.00100189 -0.000592308 0.00018192)
(-0.00109241 -0.000608324 0.000214693)
(-0.00117476 -0.000617111 0.000240754)
(-0.00124751 -0.000621725 0.000259332)
(-0.00131096 -0.000625211 0.000270772)
(-0.00136624 -0.00062976 0.000276081)
(-0.00141536 -0.000636823 0.000276641)
(-0.00146029 -0.000646901 0.00027378)
(-0.00150264 -0.00065953 0.000268473)
(-0.0015439 -0.000674499 0.000261513)
(-0.00158486 -0.000691168 0.000253324)
(-0.00162594 -0.000709101 0.000244062)
(-0.00166726 -0.000727965 0.000233667)
(-0.00170872 -0.000747481 0.00022194)
(-0.00175016 -0.000767415 0.000208508)
(-0.00179146 -0.000787511 0.000193076)
(-0.00183244 -0.000807464 0.000175046)
(-0.00187276 -0.000826777 0.000154269)
(-0.00191087 -0.000844708 0.000129088)
(-0.00194799 -0.000861039 9.92039e-05)
(-0.00197619 -0.000873782 6.28567e-05)
(-0.00199295 -0.000881591 2.08858e-05)
(-0.000254624 -5.83055e-05 3.9257e-05)
(-0.00032528 -0.000105711 -5.40875e-05)
(-0.000356593 -0.000147099 -5.59142e-05)
(-0.000387484 -0.000194476 -4.93201e-05)
(-0.000428508 -0.000247039 -3.50385e-05)
(-0.000486609 -0.000304399 -1.57014e-05)
(-0.000563166 -0.000364563 9.00484e-06)
(-0.000654744 -0.000423042 3.96922e-05)
(-0.000755568 -0.000474712 7.53295e-05)
(-0.000859469 -0.000515744 0.000113319)
(-0.000961532 -0.000544925 0.0001505)
(-0.00105801 -0.000563329 0.000183958)
(-0.00114607 -0.000573461 0.000211539)
(-0.00122486 -0.000578824 0.000232287)
(-0.00129401 -0.00058234 0.000246139)
(-0.0013545 -0.000586371 0.00025386)
(-0.00140799 -0.000592424 0.000256649)
(-0.00145655 -0.000601186 0.000255805)
(-0.00150158 -0.000612273 0.000252267)
(-0.0015448 -0.000625638 0.000246896)
(-0.00158709 -0.000640686 0.000240148)
(-0.00162891 -0.000656981 0.000232199)
(-0.00167044 -0.000674186 0.000223012)
(-0.00171171 -0.000692041 0.000212409)
(-0.00175261 -0.000710297 0.000200009)
(-0.00179321 -0.000728733 0.000185547)
(-0.00183315 -0.000746939 0.000168411)
(-0.00187253 -0.000764572 0.0001486)
(-0.00190975 -0.000780973 0.000124356)
(-0.00194636 -0.000795867 9.55776e-05)
(-0.001974 -0.000807499 6.05902e-05)
(-0.00199042 -0.000814534 2.0071e-05)
(-0.00021913 -3.57867e-05 4.54022e-05)
(-0.000288827 -7.71435e-05 -5.05478e-05)
(-0.000317641 -0.000112651 -5.52512e-05)
(-0.00034338 -0.000153749 -5.16563e-05)
(-0.000377731 -0.000199826 -4.16545e-05)
(-0.000429331 -0.000251563 -2.78382e-05)
(-0.00050131 -0.000308363 -9.41936e-06)
(-0.000590935 -0.000366112 1.52819e-05)
(-0.000692212 -0.000419018 4.61712e-05)
(-0.000799262 -0.000462719 8.11281e-05)
(-0.000906361 -0.000494945 0.000117007)
(-0.00100895 -0.000515999 0.0001507)
(-0.00110424 -0.000528284 0.000179825)
(-0.00118967 -0.000534573 0.000202808)
(-0.001265 -0.000538105 0.000219263)
(-0.00133089 -0.000541436 0.000229627)
(-0.00138913 -0.000546364 0.000234957)
(-0.00144131 -0.000553571 0.000236382)
(-0.00148933 -0.000563046 0.000234912)
(-0.00153464 -0.000574698 0.00023137)
(-0.00157819 -0.000587994 0.00022625)
(-0.00162059 -0.00060254 0.00021977)
(-0.00166212 -0.000618004 0.000211916)
(-0.00170281 -0.000634089 0.000202518)
(-0.00174267 -0.000650558 0.000191196)
(-0.00178188 -0.000667168 0.000177711)
(-0.00182051 -0.000683655 0.000161513)
(-0.00185858 -0.000699592 0.000142704)
(-0.00189425 -0.000714342 0.000119395)
(-0.00193035 -0.000727869 9.17762e-05)
(-0.00195702 -0.00073832 5.82094e-05)
(-0.00197314 -0.000744623 1.92123e-05)
(-0.000176551 -1.68216e-05 4.76107e-05)
(-0.000242971 -5.13243e-05 -4.55383e-05)
(-0.000269143 -8.07489e-05 -5.27737e-05)
(-0.00028929 -0.000115057 -5.16277e-05)
(-0.000315639 -0.000153543 -4.52301e-05)
(-0.000358452 -0.000197818 -3.65175e-05)
(-0.000423474 -0.000249256 -2.46868e-05)
(-0.00051025 -0.000305366 -7.02982e-06)
(-0.000613461 -0.000360365 1.78035e-05)
(-0.000724698 -0.000407576 4.85378e-05)
(-0.000837513 -0.000443567 8.22467e-05)
(-0.000946853 -0.000467884 0.00011562)
(-0.00104824 -0.000481963 0.000145747)
(-0.00114041 -0.000489278 0.000170848)
(-0.00122224 -0.000492905 0.00019001)
(-0.00129423 -0.000495632 0.000203309)
(-0.00135741 -0.00049929 0.000211451)
(-0.00141383 -0.000504942 0.000215504)
(-0.0014648 -0.000512605 0.000216355)
(-0.00151214 -0.000522377 0.000214875)
(-0.00155692 -0.00053382 0.000211597)
(-0.00159974 -0.000546538 0.000206752)
(-0.00164096 -0.000560178 0.000200352)
(-0.00168079 -0.000574493 0.000192264)
(-0.00171933 -0.000589209 0.000182094)
(-0.001757 -0.000604123 0.000169648)
(-0.00179375 -0.000618831 0.000154389)
(-0.00182999 -0.000633067 0.000136601)
(-0.00186404 -0.000646313 0.000114256)
(-0.00189907 -0.000658365 8.78105e-05)
(-0.00192465 -0.000667712 5.57283e-05)
(-0.00194018 -0.000673206 1.831e-05)
(-0.000132447 -3.07062e-06 4.65204e-05)
(-0.00019374 -3.05267e-05 -3.97199e-05)
(-0.000218731 -5.4479e-05 -4.93287e-05)
(-0.000235383 -8.29459e-05 -5.0304e-05)
(-0.000254957 -0.000114552 -4.6644e-05)
(-0.000288843 -0.000151276 -4.19818e-05)
(-0.00034526 -0.000196167 -3.61966e-05)
(-0.000425263 -0.000248 -2.6068e-05)
(-0.000523784 -0.000301231 -8.4999e-06)
(-0.000635833 -0.000350361 1.66452e-05)
(-0.000752973 -0.000389857 4.68867e-05)
(-0.000868144 -0.000417563 7.89486e-05)
(-0.000977744 -0.000434899 0.000109775)
(-0.00107743 -0.000443871 0.000136821)
(-0.00116626 -0.000447902 0.000158714)
(-0.00124418 -0.000449937 0.000175034)
(-0.00131279 -0.000452361 0.000186268)
(-0.00137324 -0.000456233 0.00019317)
(-0.00142753 -0.000462056 0.000196657)
(-0.0014771 -0.000469903 0.000197515)
(-0.001523 -0.000479401 0.000196285)
(-0.001566 -0.000490222 0.00019324)
(-0.00160668 -0.000502049 0.000188428)
(-0.00164516 -0.000514563 0.000181725)
(-0.00168176 -0.000527512 0.00017274)
(-0.00171705 -0.000540652 0.000161315)
(-0.00175156 -0.000553678 0.000147016)
(-0.00178566 -0.000566314 0.000130286)
(-0.00181719 -0.000577963 0.000108879)
(-0.00185118 -0.000588674 8.36621e-05)
(-0.00187521 -0.000596892 5.31254e-05)
(-0.00189029 -0.000601664 1.73587e-05)
(-8.35772e-05 6.47655e-06 4.17098e-05)
(-0.000136529 -1.3308e-05 -3.18911e-05)
(-0.000158471 -3.07499e-05 -4.32828e-05)
(-0.000170375 -5.23166e-05 -4.55434e-05)
(-0.000182356 -7.57745e-05 -4.34864e-05)
(-0.000205308 -0.000102961 -4.18963e-05)
(-0.000247666 -0.000138102 -4.12263e-05)
(-0.000318896 -0.000184509 -3.82698e-05)
(-0.000418988 -0.000238785 -2.9549e-05)
(-0.000533247 -0.000290533 -1.2504e-05)
(-0.000654767 -0.000334363 1.25779e-05)
(-0.000777092 -0.000366877 4.22051e-05)
(-0.000892498 -0.000387103 7.26582e-05)
(-0.000999277 -0.00039817 0.000101103)
(-0.00109503 -0.000403001 0.00012549)
(-0.00117984 -0.00040491 0.000144944)
(-0.00125383 -0.000406149 0.000159388)
(-0.00131903 -0.000408451 0.000169456)
(-0.00137648 -0.000412319 0.000175802)
(-0.00142805 -0.000418126 0.000179213)
(-0.00147498 -0.000425651 0.000180252)
(-0.00151801 -0.000434593 0.000179186)
(-0.00155772 -0.000444596 0.000176077)
(-0.00159454 -0.000455405 0.000170865)
(-0.00162887 -0.000466722 0.000163129)
(-0.00166166 -0.000478311 0.00015277)
(-0.00169345 -0.00048974 0.00013943)
(-0.0017247 -0.000500809 0.000123757)
(-0.00175381 -0.000511133 0.000103319)
(-0.00178618 -0.000520453 7.93414e-05)
(-0.00180856 -0.000527675 5.04149e-05)
(-0.00182285 -0.000531658 1.63558e-05)
(-4.1908e-05 1.02688e-05 3.41365e-05)
(-8.25481e-05 -3.63128e-06 -2.30336e-05)
(-0.000106591 -1.60808e-05 -3.25887e-05)
(-0.000121772 -3.18206e-05 -3.89969e-05)
(-0.000129962 -4.95057e-05 -4.06537e-05)
(-0.000142867 -6.97348e-05 -3.79184e-05)
(-0.000178549 -9.47719e-05 -3.84346e-05)
(-0.000234957 -0.000129462 -4.57294e-05)
(-0.00031134 -0.000175375 -4.72501e-05)
(-0.000420198 -0.000229055 -3.72675e-05)
(-0.000544008 -0.000276608 -1.87782e-05)
(-0.000669829 -0.000313265 6.65958e-06)
(-0.000793698 -0.00033869 3.57224e-05)
(-0.000907784 -0.000352858 6.4756e-05)
(-0.00101076 -0.000359323 9.12074e-05)
(-0.00110134 -0.000361216 0.000113465)
(-0.00118118 -0.000361716 0.000131179)
(-0.00125054 -0.000362415 0.000144469)
(-0.00131152 -0.000364515 0.000153926)
(-0.00136535 -0.000368411 0.000160145)
(-0.00141315 -0.000373991 0.00016365)
(-0.00145583 -0.000381065 0.000164708)
(-0.00149431 -0.00038936 0.000163432)
(-0.00152887 -0.000398524 0.00015977)
(-0.00156021 -0.000408285 0.000153295)
(-0.00158954 -0.000418345 0.000143953)
(-0.00161798 -0.000428267 0.000131554)
(-0.00164626 -0.000437999 0.00011699)
(-0.0016718 -0.000446915 9.74735e-05)
(-0.00170259 -0.000455027 7.47997e-05)
(-0.00172276 -0.000461263 4.75499e-05)
(-0.00173648 -0.000464566 1.52884e-05)
(-1.6234e-05 9.59832e-06 2.47937e-05)
(-2.84927e-05 1.44451e-06 -1.27745e-05)
(-3.69881e-05 -2.88404e-06 -2.41427e-05)
(-3.99384e-05 -1.44972e-05 -2.76102e-05)
(-4.10712e-05 -2.26096e-05 -2.16323e-05)
(-4.8588e-05 -2.91401e-05 -1.99001e-05)
(-6.05466e-05 -3.88974e-05 -2.18879e-05)
(-0.00011668 -7.47336e-05 -3.29733e-05)
(-0.000212775 -0.000119371 -4.53197e-05)
(-0.000299732 -0.000162057 -5.27543e-05)
(-0.000420389 -0.000214781 -4.43324e-05)
(-0.000552908 -0.000258335 -2.49805e-05)
(-0.000680163 -0.000288071 6.97261e-07)
(-0.000801287 -0.000306706 2.90378e-05)
(-0.000910794 -0.000315727 5.65556e-05)
(-0.00100871 -0.000319037 8.12167e-05)
(-0.00109371 -0.000319206 0.000101894)
(-0.001168 -0.000318941 0.000118495)
(-0.00123197 -0.000319386 0.000131121)
(-0.00128747 -0.000321418 0.000140257)
(-0.0013359 -0.000325169 0.000146392)
(-0.00137806 -0.000330541 0.000149733)
(-0.00141474 -0.000337214 0.00015037)
(-0.00144671 -0.00034493 0.000148347)
(-0.00147471 -0.000353358 0.000143176)
(-0.00150047 -0.000362188 0.000134868)
(-0.00152549 -0.000370845 0.000123426)
(-0.0015498 -0.000379259 0.000109948)
(-0.00157217 -0.000387128 9.14002e-05)
(-0.0016008 -0.000394047 7.00522e-05)
(-0.00161887 -0.000399524 4.45543e-05)
(-0.0016317 -0.000402087 1.41551e-05)
(8.07187e-06 1.10851e-05 2.29867e-05)
(-2.62066e-06 4.69353e-06 -1.48403e-05)
(-9.73357e-06 -3.7771e-06 -2.03469e-05)
(-1.32658e-05 -7.90293e-06 -2.22551e-05)
(-1.93987e-05 -1.36231e-05 -2.53851e-05)
(-2.31994e-05 -1.71964e-05 -2.31913e-05)
(-3.17442e-05 -2.86864e-05 -2.83232e-05)
(-5.42439e-05 -4.89207e-05 -3.88633e-05)
(-7.3468e-05 -7.0615e-05 -2.512e-05)
(-0.000194948 -0.000107082 -3.0348e-05)
(-0.000301794 -0.000149478 -5.87294e-05)
(-0.000425621 -0.000199022 -5.00768e-05)
(-0.000560356 -0.000237267 -2.98595e-05)
(-0.0006852 -0.000260565 -4.22092e-06)
(-0.000800485 -0.000273404 2.31494e-05)
(-0.000902434 -0.000278258 4.90957e-05)
(-0.000993142 -0.000279185 7.22677e-05)
(-0.00107104 -0.000278278 9.18528e-05)
(-0.00113837 -0.000277682 0.000107686)
(-0.00119589 -0.000278298 0.000119862)
(-0.00124471 -0.000280467 0.000128741)
(-0.0012857 -0.000284278 0.000134435)
(-0.00132036 -0.000289583 0.000137075)
(-0.001349 -0.000295989 0.000136708)
(-0.00137288 -0.000303231 0.000132818)
(-0.00139405 -0.000310925 0.000125446)
(-0.00141457 -0.000318313 0.000114885)
(-0.00143513 -0.000325729 0.000102572)
(-0.00145288 -0.00033241 8.49381e-05)
(-0.00147953 -0.000338376 6.50128e-05)
(-0.0014946 -0.000343071 4.13395e-05)
(-0.00150679 -0.000344982 1.29277e-05)
(2.09122e-05 7.40615e-06 2.31566e-05)
(2.47473e-05 4.13993e-06 -1.07307e-06)
(1.79298e-05 6.15848e-06 -1.21051e-06)
(6.95496e-06 7.28547e-06 -8.75545e-06)
(-4.47674e-07 3.00246e-06 -1.6958e-05)
(-5.91875e-06 -4.0895e-06 -1.95432e-05)
(-1.16439e-05 -9.50503e-06 -2.17948e-05)
(-2.75554e-05 -2.07788e-05 -2.75622e-05)
(-4.36885e-05 -3.9986e-05 -3.55474e-05)
(-5.18658e-05 -4.76556e-05 -2.36619e-05)
(-0.000170413 -9.24526e-05 -4.27869e-05)
(-0.000296519 -0.000137143 -6.14416e-05)
(-0.000422461 -0.000180617 -5.22984e-05)
(-0.000554948 -0.000211649 -3.15522e-05)
(-0.00067522 -0.000229237 -7.12493e-06)
(-0.000784665 -0.000238617 1.84954e-05)
(-0.000879269 -0.000241089 4.30454e-05)
(-0.000961695 -0.00024081 6.52248e-05)
(-0.001031 -0.000239577 8.39466e-05)
(-0.00108924 -0.000239087 9.89962e-05)
(-0.00113788 -0.000239998 0.000110606)
(-0.00117754 -0.000242616 0.000118721)
(-0.00120932 -0.000246742 0.00012334)
(-0.00123442 -0.000252126 0.000124672)
(-0.00125382 -0.00025843 0.000122063)
(-0.00127041 -0.000265328 0.000115601)
(-0.00128711 -0.000271792 0.000105976)
(-0.00130283 -0.000278188 9.47974e-05)
(-0.00131697 -0.000284074 7.81707e-05)
(-0.00134073 -0.000289072 5.97065e-05)
(-0.00135345 -0.000293318 3.79567e-05)
(-0.00136489 -0.00029458 1.1613e-05)
(3.46793e-05 1.35549e-05 3.9669e-05)
(4.4611e-05 1.09862e-05 -7.77644e-06)
(4.44593e-05 5.23133e-06 -1.23253e-05)
(4.0019e-05 -3.25351e-06 -1.44136e-05)
(3.32421e-05 -1.04197e-05 -1.43812e-05)
(2.44329e-05 -1.42127e-05 -1.12853e-05)
(1.01051e-05 -1.08897e-05 -1.09419e-05)
(-1.28843e-06 -1.01896e-05 -1.28246e-05)
(-2.1921e-05 -9.8886e-06 -2.74218e-05)
(-2.7347e-05 -2.90801e-05 -3.50023e-05)
(-5.0374e-05 -3.69037e-05 -2.45857e-05)
(-0.000169453 -8.01842e-05 -5.14947e-05)
(-0.000303087 -0.000124408 -6.20543e-05)
(-0.000426048 -0.000161412 -5.30908e-05)
(-0.000548331 -0.000187067 -3.28722e-05)
(-0.000655834 -0.000198987 -9.30221e-06)
(-0.000755174 -0.000204717 1.53916e-05)
(-0.000839392 -0.000205641 3.92405e-05)
(-0.000911309 -0.000205016 6.04724e-05)
(-0.000970851 -0.000204318 7.82008e-05)
(-0.00101902 -0.000204508 9.24396e-05)
(-0.00105633 -0.000206197 0.000102873)
(-0.00108516 -0.000209568 0.000109452)
(-0.00110581 -0.000214076 0.000112401)
(-0.00112003 -0.000219589 0.000110995)
(-0.00113103 -0.000225789 0.000105273)
(-0.00114235 -0.000231132 9.64324e-05)
(-0.00115349 -0.000236715 8.64782e-05)
(-0.00116203 -0.00024139 7.08126e-05)
(-0.00118404 -0.000245865 5.40179e-05)
(-0.00119295 -0.000249486 3.42588e-05)
(-0.00120374 -0.000250193 1.01617e-05)
(4.63062e-05 1.59732e-05 4.7788e-05)
(6.2983e-05 1.31884e-05 -8.31627e-06)
(6.91445e-05 9.27692e-06 -1.62526e-05)
(7.07406e-05 1.46615e-06 -2.05997e-05)
(6.83198e-05 -7.66381e-06 -2.22557e-05)
(6.19364e-05 -1.62146e-05 -2.18766e-05)
(5.05567e-05 -2.3239e-05 -2.05933e-05)
(3.73748e-05 -2.61756e-05 -1.62108e-05)
(1.69829e-05 -2.25004e-05 -9.66108e-06)
(-5.28178e-06 -4.31739e-06 -1.82574e-05)
(-2.75904e-05 -2.22834e-05 -3.95447e-05)
(-3.94553e-05 -1.97213e-05 -2.0565e-05)
(-0.000163145 -6.78248e-05 -5.37729e-05)
(-0.000287449 -0.000107509 -6.17621e-05)
(-0.000398751 -0.000136707 -4.96022e-05)
(-0.000521615 -0.000159764 -3.12692e-05)
(-0.000622795 -0.000168938 -9.35853e-06)
(-0.000710343 -0.000173034 1.51431e-05)
(-0.000781701 -0.000173455 3.79608e-05)
(-0.000839795 -0.000172978 5.76765e-05)
(-0.000886377 -0.000172959 7.41731e-05)
(-0.000921271 -0.000174244 8.67788e-05)
(-0.000945942 -0.00017711 9.50743e-05)
(-0.000962177 -0.000181039 9.95715e-05)
(-0.000971003 -0.000185897 9.93037e-05)
(-0.000976701 -0.000191742 9.42367e-05)
(-0.000984403 -0.000196315 8.63065e-05)
(-0.000990881 -0.000201129 7.76183e-05)
(-0.000996344 -0.000205042 6.31122e-05)
(-0.00101374 -0.000208411 4.79776e-05)
(-0.00102038 -0.000211826 3.03521e-05)
(-0.0010309 -0.00021227 8.60257e-06)
(5.50438e-05 1.51337e-05 4.93285e-05)
(7.6826e-05 1.22594e-05 -7.6283e-06)
(8.69155e-05 8.62699e-06 -1.67571e-05)
(9.24984e-05 1.05999e-06 -2.25369e-05)