/*--------------------------------*- C++ -*----------------------------------*\
  =========                 |
  \\      /  F ield         | OpenFOAM: The Open Source CFD Toolbox
   \\    /   O peration     | Website:  https://openfoam.org
    \\  /    A nd           | Version:  6
     \\/     M anipulation  |
\*---------------------------------------------------------------------------*/
FoamFile
{
    version     2.0;
    format      ascii;
    class       volVectorField;
    location    "40";
    object      wallShearStress;
}
// * * * * * * * * * * * * * * * * * * * * * * * * * * * * * * * * * * * * * //

dimensions      [0 2 -2 0 0 0 0];

internalField   uniform (0 0 0);

boundaryField
{
    inlet
    {
        type            calculated;
        value           uniform (0 0 0);
    }
    outlet
    {
        type            calculated;
        value           uniform (0 0 0);
    }
    roughCylinder
    {
        type            calculated;
        value           nonuniform List<vector> 
3840
(
(-0.000269987 -0.00039625 -0.000163163)
(-0.000326211 -0.000509635 -2.21191e-05)
(-0.000375419 -0.000630784 4.18928e-05)
(-0.000450386 -0.000734026 0.000123658)
(-0.000538317 -0.000807929 0.000205971)
(-0.000629516 -0.000848253 0.000278062)
(-0.000714351 -0.000859005 0.000334756)
(-0.000788066 -0.000851516 0.000374595)
(-0.000851104 -0.000845104 0.000401866)
(-0.000899686 -0.000843714 0.000416179)
(-0.00093838 -0.000851368 0.000419532)
(-0.000970544 -0.00086652 0.000414087)
(-0.000999261 -0.000887553 0.00040239)
(-0.00102744 -0.000912978 0.000386509)
(-0.0010571 -0.000941858 0.000367876)
(-0.00108938 -0.000973684 0.000347142)
(-0.00112461 -0.00100813 0.000324392)
(-0.00116261 -0.00104487 0.000299309)
(-0.00120288 -0.00108338 0.000271311)
(-0.0012446 -0.00112284 0.000239529)
(-0.00128663 -0.00116205 0.000202577)
(-0.00132693 -0.00119893 0.000158253)
(-0.00136168 -0.00123039 0.000102818)
(-0.00138379 -0.0012505 3.57103e-05)
(-0.000289546 -0.000383881 -0.000155657)
(-0.000349088 -0.000494112 -2.61205e-05)
(-0.000400847 -0.000614897 3.33491e-05)
(-0.00047817 -0.000719365 0.000111635)
(-0.000568021 -0.000795859 0.000191977)
(-0.00066119 -0.000839153 0.000262989)
(-0.000749035 -0.000854018 0.000319655)
(-0.000827675 -0.000852659 0.000361528)
(-0.000895656 -0.000849453 0.000391343)
(-0.000948233 -0.000846848 0.000407171)
(-0.000988905 -0.000853176 0.000411173)
(-0.00102301 -0.00086767 0.000406047)
(-0.00105361 -0.000888495 0.000394584)
(-0.00108371 -0.000913936 0.000378928)
(-0.00111537 -0.000942937 0.000360583)
(-0.00114974 -0.000974886 0.000340228)
(-0.00118715 -0.00100943 0.000317956)
(-0.00122741 -0.0010462 0.000293446)
(-0.00126996 -0.00108469 0.000266108)
(-0.00131395 -0.00112409 0.000235059)
(-0.00135818 -0.00116316 0.00019892)
(-0.0014005 -0.00119986 0.000155491)
(-0.00143695 -0.00123114 0.000101059)
(-0.00146011 -0.0012511 3.5099e-05)
(-0.000309143 -0.000366097 -0.000142582)
(-0.000371336 -0.000472929 -3.06781e-05)
(-0.000425441 -0.000592268 2.39616e-05)
(-0.000504624 -0.000697289 9.84016e-05)
(-0.000596297 -0.000776232 0.000176503)
(-0.000691799 -0.000823227 0.000246565)
(-0.000783353 -0.000843339 0.000303867)
(-0.000866896 -0.000847911 0.000347857)
(-0.000939417 -0.000847613 0.000379547)
(-0.000996678 -0.000845023 0.00039705)
(-0.00103945 -0.000849655 0.00040169)
(-0.00107558 -0.000863292 0.000396903)
(-0.00110818 -0.000883687 0.00038574)
(-0.0011403 -0.000908954 0.000370396)
(-0.00117402 -0.000937849 0.000352416)
(-0.00121053 -0.000969699 0.000332519)
(-0.00125017 -0.0010041 0.000310806)
(-0.00129269 -0.00104066 0.00028695)
(-0.00133753 -0.00107888 0.000260351)
(-0.00138377 -0.00111792 0.000230116)
(-0.00143017 -0.0011566 0.000194874)
(-0.00147445 -0.00119286 0.000152432)
(-0.00151254 -0.00122372 9.91109e-05)
(-0.00153674 -0.0012434 3.44224e-05)
(-0.000326557 -0.000343982 -0.000125848)
(-0.000390656 -0.000446794 -3.5353e-05)
(-0.000446562 -0.00056369 1.4138e-05)
(-0.000526995 -0.000668718 8.43724e-05)
(-0.000620403 -0.000750095 0.000159926)
(-0.000718585 -0.000801409 0.000229017)
(-0.000814173 -0.000827397 0.000287157)
(-0.000902542 -0.000837673 0.000333182)
(-0.000979754 -0.000840465 0.000366619)
(-0.00104212 -0.000839217 0.000385989)
(-0.00108768 -0.000841672 0.000391289)
(-0.00112596 -0.000854238 0.000386954)
(-0.00116071 -0.00087402 0.00037618)
(-0.00119491 -0.00089892 0.000361223)
(-0.00123076 -0.000927566 0.000343695)
(-0.00126942 -0.000959151 0.000324331)
(-0.00131124 -0.000993222 0.000303246)
(-0.00135597 -0.00102938 0.000280107)
(-0.001403 -0.00106709 0.000254305)
(-0.00145137 -0.00110556 0.000224934)
(-0.00149981 -0.00114361 0.000190638)
(-0.00154593 -0.00117922 0.000149233)
(-0.00158556 -0.00120949 9.70736e-05)
(-0.00161069 -0.00122876 3.37156e-05)
(-0.000340828 -0.000318077 -0.000107168)
(-0.000406303 -0.000416382 -3.97983e-05)
(-0.000463345 -0.000529857 4.25505e-06)
(-0.000544399 -0.000634279 6.98862e-05)
(-0.000639447 -0.000717987 0.000142506)
(-0.000740577 -0.00077396 0.000210461)
(-0.000840359 -0.000805963 0.000269356)
(-0.000933488 -0.000821605 0.00031724)
(-0.00101544 -0.000827492 0.000352449)
(-0.00108241 -0.000827731 0.000373383)
(-0.00113249 -0.000828658 0.000379834)
(-0.00117316 -0.000839975 0.000376216)
(-0.0012102 -0.000858864 0.000365929)
(-0.00124659 -0.000883213 0.000351476)
(-0.00128456 -0.000911386 0.000334485)
(-0.00132535 -0.000942495 0.000315734)
(-0.00136929 -0.000976024 0.00029535)
(-0.00141612 -0.00101155 0.000272992)
(-0.00146521 -0.00104853 0.000248042)
(-0.00151557 -0.00108618 0.000219581)
(-0.00156589 -0.00112338 0.000186272)
(-0.00161368 -0.0011581 0.000145939)
(-0.00165469 -0.0011876 9.4978e-05)
(-0.00168066 -0.00120634 3.29899e-05)
(-0.000351976 -0.000289802 -8.7836e-05)
(-0.000417793 -0.000382703 -4.38928e-05)
(-0.000475184 -0.000491901 -5.45379e-06)
(-0.000556236 -0.0005951 5.51636e-05)
(-0.000652751 -0.000680936 0.000124393)
(-0.000756929 -0.000741607 0.000190933)
(-0.000860968 -0.000779389 0.000250334)
(-0.000958871 -0.000799977 0.000299835)
(-0.00104567 -0.000808854 0.000336798)
(-0.00111751 -0.000810685 0.000359225)
(-0.00117333 -0.000811684 0.000367406)
(-0.00121673 -0.000820684 0.00036459)
(-0.00125625 -0.000838458 0.000354956)
(-0.00129492 -0.00086193 0.000341132)
(-0.00133507 -0.000889436 0.000324794)
(-0.00137797 -0.000919864 0.000306752)
(-0.00142396 -0.000952631 0.000287147)
(-0.00147277 -0.000987281 0.000265635)
(-0.00152375 -0.00102329 0.000241588)
(-0.0015759 -0.00105989 0.000214078)
(-0.0016279 -0.00109599 0.000181793)
(-0.00167714 -0.00112962 0.000142565)
(-0.00171936 -0.00115815 9.28327e-05)
(-0.00174605 -0.00117625 3.22477e-05)
(-0.000358534 -0.000259258 -6.84849e-05)
(-0.000424318 -0.000346518 -4.74437e-05)
(-0.000481256 -0.000450622 -1.48058e-05)
(-0.000561572 -0.000551933 4.03341e-05)
(-0.000659195 -0.000639544 0.000105642)
(-0.000766383 -0.000704756 0.00017036)
(-0.000874796 -0.000748064 0.000229925)
(-0.000977651 -0.00077329 0.000280788)
(-0.00106955 -0.000785114 0.000319476)
(-0.00114655 -0.000788591 0.000343539)
(-0.00120786 -0.000790273 0.000353444)
(-0.00125594 -0.00079735 0.000351944)
(-0.00129819 -0.000813381 0.00034321)
(-0.00133937 -0.000835795 0.000330188)
(-0.00138171 -0.000862327 0.000314622)
(-0.00142667 -0.000891835 0.000297386)
(-0.00147462 -0.00092363 0.000278648)
(-0.00152527 -0.00095721 0.000258053)
(-0.00157797 -0.000992054 0.000234966)
(-0.00163172 -0.0010274 0.00020845)
(-0.00168517 -0.0010622 0.000177223)
(-0.00173565 -0.00109454 0.000139128)
(-0.00177889 -0.00112193 9.06481e-05)
(-0.00180615 -0.00113929 3.14927e-05)
(-0.000361433 -0.00022822 -4.99919e-05)
(-0.000425602 -0.000308862 -5.04839e-05)
(-0.000481013 -0.000407059 -2.36085e-05)
(-0.000559692 -0.000505619 2.56504e-05)
(-0.000657873 -0.000594406 8.6414e-05)
(-0.000767866 -0.000663798 0.000148744)
(-0.000880599 -0.000712234 0.000207991)
(-0.000988555 -0.000741813 0.000259883)
(-0.00108583 -0.000756539 0.000300224)
(-0.00116845 -0.000761803 0.000326142)
(-0.00123536 -0.0007643 0.000337832)
(-0.00128911 -0.00077063 0.000338074)
(-0.0013351 -0.000784531 0.000330596)
(-0.0013789 -0.000805096 0.000318546)
(-0.00142359 -0.000830481 0.000303936)
(-0.00147062 -0.00085887 0.000287637)
(-0.00152041 -0.000889483 0.000269861)
(-0.00157272 -0.000921781 0.000250257)
(-0.0016269 -0.000955238 0.000228183)
(-0.00168195 -0.000989142 0.0002027)
(-0.00173658 -0.00102256 0.000172569)
(-0.001788 -0.0010535 0.000135633)
(-0.00183204 -0.00107967 8.84286e-05)
(-0.00185973 -0.00109627 3.07276e-05)
(-0.000357669 -0.000195728 -3.25144e-05)
(-0.00042048 -0.000269826 -5.25751e-05)
(-0.00047355 -0.000361449 -3.17009e-05)
(-0.000549606 -0.000456492 1.12608e-05)
(-0.000647576 -0.000545711 6.68366e-05)
(-0.000759985 -0.000618766 0.000126081)
(-0.000877078 -0.000672054 0.000184423)
(-0.000990402 -0.000705863 0.000236968)
(-0.00109352 -0.000723563 0.000278872)
(-0.0011821 -0.00073065 0.000306783)
(-0.00125496 -0.000734052 0.000320521)
(-0.00131431 -0.000740127 0.000322677)
(-0.00136519 -0.000752586 0.000316878)
(-0.00141279 -0.000771495 0.000306275)
(-0.0014598 -0.000795143 0.000292782)
(-0.00150883 -0.000822092 0.000277545)
(-0.00156035 -0.000851367 0.000260843)
(-0.00161411 -0.000882295 0.000242317)
(-0.00166953 -0.000914337 0.000221319)
(-0.00172558 -0.000946757 0.000196902)
(-0.00178089 -0.000978567 0.000167868)
(-0.00183283 -0.00100794 0.000132098)
(-0.00187729 -0.00103276 8.61793e-05)
(-0.0019051 -0.00104846 2.99514e-05)
(-0.00035075 -0.000164421 -1.68483e-05)
(-0.000409376 -0.000231108 -5.4409e-05)
(-0.000458825 -0.000315393 -3.86373e-05)
(-0.000531047 -0.000405615 -2.31976e-06)
(-0.000627772 -0.000494211 4.72606e-05)
(-0.00074205 -0.00057027 0.00010256)
(-0.000863234 -0.000627961 0.000159238)
(-0.000982084 -0.000665864 0.000211946)
(-0.00109137 -0.00068653 0.000255215)
(-0.00118647 -0.00069556 0.000285244)
(-0.00126565 -0.000699869 0.00030131)
(-0.00133082 -0.000705793 0.000305662)
(-0.00138668 -0.000717199 0.000301806)
(-0.00143803 -0.000734568 0.000292863)
(-0.00148802 -0.00075649 0.000280806)
(-0.00153919 -0.000781847 0.000266864)
(-0.00159221 -0.000809533 0.000251368)
(-0.001647 -0.00083884 0.000233998)
(-0.00170305 -0.000869189 0.000214116)
(-0.00175948 -0.000899843 0.000190788)
(-0.00181509 -0.000929815 0.000162902)
(-0.00186714 -0.000957422 0.000128356)
(-0.00191169 -0.000980724 8.37935e-05)
(-0.00193944 -0.000995437 2.91281e-05)
(-0.000334173 -0.000133744 -2.99303e-06)
(-0.000391453 -0.000191274 -5.36756e-05)
(-0.000435953 -0.000268298 -4.47841e-05)
(-0.000503046 -0.000353016 -1.51539e-05)
(-0.00059717 -0.000439921 2.79355e-05)
(-0.000712457 -0.000518176 7.83275e-05)
(-0.000837715 -0.000580119 0.000132465)
(-0.000962331 -0.000622175 0.00018474)
(-0.00107836 -0.000646022 0.000229159)
(-0.00118038 -0.000656984 0.00026132)
(-0.00126645 -0.000662226 0.000279984)
(-0.00133788 -0.000668029 0.000286881)
(-0.00139889 -0.00067838 0.000285271)
(-0.00145428 -0.000694222 0.000278255)
(-0.00150716 -0.000714346 0.000267851)
(-0.00156033 -0.000737896 0.000255391)
(-0.00161469 -0.000763774 0.000241261)
(-0.00167027 -0.000791214 0.000225166)
(-0.00172666 -0.000819631 0.000206487)
(-0.00178315 -0.000848311 0.000184315)
(-0.0018387 -0.00087628 0.000157647)
(-0.00189049 -0.000902005 0.000124397)
(-0.00193482 -0.000923683 8.12646e-05)
(-0.00196226 -0.00093731 2.82554e-05)
(-0.000312085 -0.000105583 5.20134e-06)
(-0.000369214 -0.000155978 -5.01288e-05)
(-0.000406883 -0.000222214 -4.89311e-05)
(-0.000466546 -0.000300359 -2.64672e-05)
(-0.000556274 -0.000384147 9.41326e-06)
(-0.000671396 -0.000463598 5.38498e-05)
(-0.000799809 -0.000529115 0.000104342)
(-0.000930191 -0.00057533 0.000155423)
(-0.00105324 -0.000602476 0.000200601)
(-0.00116294 -0.0006156 0.000234915)
(-0.00125634 -0.000621679 0.000256373)
(-0.00133443 -0.000627254 0.000266143)
(-0.00140106 -0.000636532 0.000267153)
(-0.00146056 -0.000650669 0.000262351)
(-0.00151655 -0.000668921 0.000253888)
(-0.00157179 -0.000690535 0.000243141)
(-0.00162732 -0.000714398 0.000230539)
(-0.00168338 -0.000739775 0.000215844)
(-0.0017397 -0.000766068 0.000198453)
(-0.00179576 -0.000792568 0.000177494)
(-0.00185078 -0.000818378 0.000152111)
(-0.0019018 -0.000842075 0.000120219)
(-0.0019455 -0.000862021 7.85875e-05)
(-0.00197245 -0.000874514 2.73329e-05)
(-0.000280938 -7.71117e-05 1.24482e-05)
(-0.00033964 -0.000123594 -4.82835e-05)
(-0.000369835 -0.000178678 -5.06793e-05)
(-0.000420168 -0.000248255 -3.52203e-05)
(-0.000503364 -0.000326845 -7.48594e-06)
(-0.000616661 -0.000406037 2.97038e-05)
(-0.000748298 -0.000475113 7.52775e-05)
(-0.000884521 -0.000525652 0.000124171)
(-0.00101512 -0.000556504 0.000169609)
(-0.00113277 -0.000571857 0.000205903)
(-0.00123425 -0.000578872 0.000230356)
(-0.00131963 -0.000584162 0.000243354)
(-0.00139216 -0.000592171 0.000247341)
(-0.00145631 -0.000604549 0.000245154)
(-0.0015154 -0.000620706 0.000238913)
(-0.00157253 -0.000640141 0.000230089)
(-0.00162906 -0.00066183 0.000219204)
(-0.00168528 -0.000684994 0.000206047)
(-0.00174114 -0.000709039 0.000190037)
(-0.0017964 -0.000733276 0.000170361)
(-0.00185048 -0.000756854 0.00014633)
(-0.00190032 -0.000778479 0.000115854)
(-0.00194305 -0.000796662 7.57874e-05)
(-0.00196919 -0.000807967 2.63679e-05)
(-0.000244143 -5.08356e-05 1.83878e-05)
(-0.000303656 -9.44776e-05 -4.72887e-05)
(-0.00032738 -0.000139584 -5.07325e-05)
(-0.000367126 -0.000199178 -4.12661e-05)
(-0.000441438 -0.000270628 -2.19628e-05)
(-0.000550886 -0.000347833 6.85919e-06)
(-0.000683077 -0.000418738 4.59486e-05)
(-0.000824646 -0.000473559 9.14144e-05)
(-0.000962867 -0.000508427 0.000136338)
(-0.00108944 -0.000526595 0.00017442)
(-0.00119935 -0.000534571 0.000201916)
(-0.00129241 -0.000539439 0.00021842)
(-0.00137146 -0.000546093 0.000225804)
(-0.00144029 -0.000556421 0.000226574)
(-0.0015028 -0.000570388 0.000222914)
(-0.00156199 -0.000587562 0.000216306)
(-0.00161927 -0.000606918 0.000207327)
(-0.00167528 -0.000627741 0.000195843)
(-0.00173017 -0.000649431 0.000181291)
(-0.00178404 -0.000671296 0.000162935)
(-0.00183659 -0.000692561 0.000140307)
(-0.00188465 -0.000712059 0.000111297)
(-0.0019259 -0.000728415 7.28511e-05)
(-0.00195106 -0.000738553 2.53579e-05)
(-0.00020062 -2.8166e-05 2.24891e-05)
(-0.000258897 -6.7563e-05 -4.5303e-05)
(-0.000277073 -0.000103736 -4.9186e-05)
(-0.000305215 -0.00015214 -4.42096e-05)
(-0.000367446 -0.000213939 -3.28947e-05)
(-0.000469816 -0.000286656 -1.34508e-05)
(-0.000603582 -0.000359923 1.74752e-05)
(-0.000750151 -0.000419197 5.7889e-05)
(-0.000896241 -0.000458748 0.000101281)
(-0.00103138 -0.00047992 0.000140549)
(-0.00115061 -0.000489353 0.000171095)
(-0.0012521 -0.000493965 0.000191375)
(-0.00133789 -0.000499083 0.00020249)
(-0.00141205 -0.000507321 0.000206662)
(-0.00147795 -0.000518865 0.000205903)
(-0.00153888 -0.000533537 0.000201752)
(-0.00159673 -0.000550476 0.000194892)
(-0.00165218 -0.000568909 0.000185228)
(-0.00170564 -0.000588229 0.000172218)
(-0.0017577 -0.000607749 0.000155234)
(-0.00180834 -0.000626758 0.000134073)
(-0.00185419 -0.000644199 0.000106578)
(-0.00189363 -0.000658791 6.98052e-05)
(-0.00191744 -0.000667755 2.43097e-05)
(-0.0001531 -1.08274e-05 2.39346e-05)
(-0.000209576 -4.52193e-05 -4.23253e-05)
(-0.000225213 -7.42221e-05 -4.67779e-05)
(-0.000243344 -0.000112077 -4.4484e-05)
(-0.00029185 -0.000162669 -3.96665e-05)
(-0.000384378 -0.000228652 -3.00238e-05)
(-0.00051139 -0.000299338 -8.91734e-06)
(-0.000661158 -0.000362649 2.4762e-05)
(-0.000814507 -0.000407292 6.51642e-05)
(-0.000959551 -0.000432794 0.000104961)
(-0.00108779 -0.000443936 0.000138178)
(-0.00119776 -0.000448404 0.00016228)
(-0.00129099 -0.000452138 0.000177478)
(-0.0013704 -0.000458068 0.000185366)
(-0.00144001 -0.000467147 0.00018789)
(-0.00150295 -0.000479332 0.000186524)
(-0.00156105 -0.000493777 0.000181983)
(-0.00161546 -0.000509789 0.000174274)
(-0.00166688 -0.000526757 0.000162864)
(-0.00171645 -0.000543929 0.000147267)
(-0.00176444 -0.000560677 0.000127608)
(-0.00180733 -0.000576085 0.000101666)
(-0.00184439 -0.000588931 6.66152e-05)
(-0.00186667 -0.000596812 2.32142e-05)
(-0.000101359 2.38126e-06 2.36863e-05)
(-0.00015205 -2.48458e-05 -3.73306e-05)
(-0.00016533 -4.68081e-05 -4.29749e-05)
(-0.000172437 -7.33985e-05 -4.15594e-05)
(-0.000204604 -0.000110359 -4.07218e-05)
(-0.000279189 -0.000164673 -3.93907e-05)
(-0.000407399 -0.000236806 -2.9854e-05)
(-0.000558515 -0.000303325 -6.14207e-06)
(-0.000718542 -0.000354131 2.93501e-05)
(-0.000871398 -0.000384113 6.81971e-05)
(-0.00101 -0.000398445 0.000103603)
(-0.00112934 -0.000403553 0.000131448)
(-0.00122983 -0.000405983 0.000150838)
(-0.00131515 -0.000409816 0.000162811)
(-0.0013883 -0.000416323 0.000168912)
(-0.00145271 -0.000425852 0.000170558)
(-0.00151081 -0.000437827 0.000168552)
(-0.00156378 -0.000451486 0.000162947)
(-0.00161263 -0.000466223 0.000153201)
(-0.00165929 -0.000481188 0.00013902)
(-0.00170433 -0.000495874 0.000120935)
(-0.0017439 -0.000509452 9.65937e-05)
(-0.00177823 -0.000520684 6.33103e-05)
(-0.0017986 -0.000527512 2.20788e-05)
(-5.23861e-05 7.9783e-06 2.03128e-05)
(-9.8134e-05 -1.30897e-05 -3.09412e-05)
(-0.000114671 -2.9117e-05 -3.66191e-05)
(-0.00012342 -4.79042e-05 -3.67249e-05)
(-0.000141082 -7.21478e-05 -3.73721e-05)
(-0.000210102 -0.00011542 -4.35185e-05)
(-0.000296761 -0.000170898 -4.68545e-05)
(-0.000445361 -0.000242241 -3.25245e-05)
(-0.000609437 -0.000298757 -4.39469e-06)
(-0.000772253 -0.000335762 3.19875e-05)
(-0.000918507 -0.000353374 6.82564e-05)
(-0.00104608 -0.000359603 9.92667e-05)
(-0.00115454 -0.000361477 0.000122878)
(-0.0012453 -0.0003633 0.000139052)
(-0.00132226 -0.000367431 0.000149035)
(-0.00138848 -0.000374519 0.000154006)
(-0.00144613 -0.000384083 0.000154712)
(-0.00149706 -0.000395479 0.000151329)
(-0.00154257 -0.000408112 0.000143268)
(-0.00158559 -0.000420967 0.000130486)
(-0.00162677 -0.000433652 0.000114002)
(-0.00166204 -0.000445459 9.12846e-05)
(-0.00169311 -0.000455178 5.98271e-05)
(-0.00171137 -0.00046108 2.08836e-05)
(-1.057e-05 7.78906e-06 1.41572e-05)
(-3.27637e-05 -1.7604e-06 -1.82049e-05)
(-4.73512e-05 -1.15248e-05 -3.21216e-05)
(-3.7956e-05 -2.32402e-05 -2.5163e-05)
(-4.26189e-05 -2.66934e-05 -2.23743e-05)
(-7.21941e-05 -6.23724e-05 -2.77531e-05)
(-0.000195608 -0.000115943 -3.32422e-05)
(-0.000322167 -0.000173126 -5.00158e-05)
(-0.000487761 -0.000240157 -3.29446e-05)
(-0.000654592 -0.000283204 -2.1862e-06)
(-0.000811939 -0.000307733 3.33635e-05)
(-0.000949324 -0.000317008 6.65984e-05)
(-0.00106466 -0.00031891 9.39632e-05)
(-0.00116139 -0.000319442 0.000114392)
(-0.00124162 -0.000321386 0.000128379)
(-0.00130866 -0.000326051 0.000136796)
(-0.00136549 -0.000333402 0.000140379)
(-0.00141394 -0.000342756 0.000139345)
(-0.00145558 -0.00035355 0.000132996)
(-0.00149459 -0.00036451 0.000121608)
(-0.00153174 -0.000375493 0.000106814)
(-0.00156269 -0.000385878 8.57868e-05)
(-0.00159006 -0.000394241 5.61949e-05)
(-0.00160592 -0.000399305 1.96378e-05)
(8.22991e-06 1.05206e-05 1.08589e-05)
(-3.74651e-07 -1.27976e-06 -1.65832e-05)
(-1.27161e-05 -1.0683e-05 -2.60728e-05)
(-1.89151e-05 -1.84054e-05 -3.00992e-05)
(-3.35688e-05 -2.98431e-05 -3.15658e-05)
(-4.92675e-05 -4.87922e-05 -3.06424e-05)
(-6.91876e-05 -5.07025e-05 -2.0988e-05)
(-0.000229598 -0.00011658 -4.59931e-05)
(-0.000363297 -0.000176417 -5.37185e-05)
(-0.000536579 -0.000232414 -3.19111e-05)
(-0.00069555 -0.000262322 4.93713e-07)
(-0.000838618 -0.000275091 3.43712e-05)
(-0.000961403 -0.000278611 6.48102e-05)
(-0.00106288 -0.000278454 8.91065e-05)
(-0.00114647 -0.000278869 0.000107139)
(-0.00121474 -0.000281675 0.000119189)
(-0.00127017 -0.000287097 0.000125735)
(-0.00131533 -0.000294617 0.000127106)
(-0.00135216 -0.000303808 0.00012242)
(-0.00138644 -0.000313008 0.00011236)
(-0.00141859 -0.000322397 9.92854e-05)
(-0.00144381 -0.000331336 7.99481e-05)
(-0.00146717 -0.000338523 5.23132e-05)
(-0.00148037 -0.000342844 1.83067e-05)
(3.01118e-05 1.06308e-05 2.31264e-05)
(3.15643e-05 3.522e-06 -6.25009e-06)
(2.06803e-05 1.33533e-06 -5.20176e-06)
(7.09118e-07 4.52643e-06 -1.36176e-05)
(-5.69127e-06 -5.68913e-06 -1.53138e-05)
(-1.90929e-05 -3.97207e-06 -2.09422e-05)
(-4.20544e-05 -2.68685e-05 -5.06707e-05)
(-7.55597e-05 -7.69048e-05 -4.1149e-05)
(-0.00023371 -0.000122983 -4.03177e-05)
(-0.000395117 -0.000171152 -5.23808e-05)
(-0.000565011 -0.000214792 -2.72283e-05)
(-0.000717718 -0.000233976 4.32316e-06)
(-0.000845283 -0.000240113 3.6277e-05)
(-0.000951748 -0.000240703 6.38308e-05)
(-0.00103744 -0.000240203 8.56066e-05)
(-0.00110524 -0.000241441 0.000101139)
(-0.00115859 -0.000245364 0.000110647)
(-0.0012001 -0.000251451 0.000114485)
(-0.00123164 -0.000259415 0.00011141)
(-0.00126103 -0.000267076 0.000102628)
(-0.00128823 -0.000275219 9.13909e-05)
(-0.00130837 -0.000283095 7.38472e-05)
(-0.00132736 -0.000289282 4.82199e-05)
(-0.00133775 -0.000292938 1.6904e-05)
(4.46898e-05 1.63985e-05 3.38683e-05)
(5.32404e-05 9.68004e-06 -1.08859e-05)
(5.11122e-05 6.24257e-07 -1.55315e-05)
(4.02735e-05 -1.22168e-05 -1.71076e-05)
(3.08448e-05 -1.66817e-05 -1.67493e-05)
(1.01259e-05 -1.60034e-05 -1.9402e-05)
(-2.64723e-05 -2.28356e-05 -3.65051e-05)
(-4.88357e-05 -4.73692e-05 -4.33e-05)
(-0.000102283 -5.82244e-05 -3.49937e-05)
(-0.000285148 -0.000117807 -5.92796e-05)
(-0.000433567 -0.000164889 -4.86645e-05)
(-0.000586148 -0.000191916 -2.22505e-05)
(-0.00071936 -0.000203166 9.68631e-06)
(-0.000828147 -0.000205478 3.91948e-05)
(-0.000915848 -0.000205304 6.4209e-05)
(-0.000983677 -0.000205968 8.30951e-05)
(-0.00103426 -0.000208972 9.54372e-05)
(-0.00107102 -0.000213882 0.00010166)
(-0.00109618 -0.00022088 0.000100015)
(-0.00112008 -0.000227075 9.23668e-05)
(-0.0011414 -0.000234064 8.30174e-05)
(-0.00115467 -0.000240528 6.72384e-05)
(-0.00116891 -0.00024591 4.37497e-05)
(-0.0011765 -0.000248938 1.53748e-05)
(5.82002e-05 1.72879e-05 3.86028e-05)
(7.39972e-05 1.13225e-05 -1.20427e-05)
(7.82819e-05 3.58896e-06 -1.98596e-05)
(7.5715e-05 -8.10939e-06 -2.27322e-05)
(6.7256e-05 -1.93816e-05 -2.20191e-05)
(5.14232e-05 -2.4832e-05 -1.64028e-05)
(2.56719e-05 -2.81908e-05 -2.06206e-06)
(-3.09507e-05 1.47977e-05 -1.76135e-05)
(-6.19981e-05 -1.99145e-05 -5.48843e-05)
(-0.00013884 -6.88257e-05 -4.98393e-05)
(-0.000297712 -0.000116785 -5.53169e-05)
(-0.000453101 -0.000150261 -4.30464e-05)
(-0.000585253 -0.000166476 -1.36372e-05)
(-0.000696689 -0.000172606 1.62858e-05)
(-0.000783859 -0.000173584 4.34972e-05)
(-0.000848868 -0.000174119 6.508e-05)
(-0.000895554 -0.000176835 7.98991e-05)
(-0.000927476 -0.000181081 8.84183e-05)
(-0.000945961 -0.000187431 8.80189e-05)
(-0.000964782 -0.000192342 8.14026e-05)
(-0.000980657 -0.000198506 7.41023e-05)
(-0.000988542 -0.000203539 6.02459e-05)
(-0.000998883 -0.00020876 3.90066e-05)
(-0.00100325 -0.00021104 1.37448e-05)
(6.74373e-05 1.54849e-05 3.8787e-05)
(8.85497e-05 9.97792e-06 -1.13198e-05)
(9.72476e-05 2.51587e-06 -2.0591e-05)
(9.88332e-05 -9.18791e-06 -2.49221e-05)
(9.3843e-05 -2.06233e-05 -2.56033e-05)
(8.19674e-05 -2.90082e-05 -2.27816e-05)
(6.00348e-05 -2.86879e-05 -1.59779e-05)
(1.18839e-05 -2.46556e-05 -2.17637e-05)
(-1.72326e-05 -1.35578e-05 -3.3702e-05)
(-7.58781e-05 -4.68252e-05 -4.77926e-05)
(-0.000161735 -6.84365e-05 -4.53316e-05)
(-0.000312694 -0.000104868 -5.37594e-05)
(-0.00045051 -0.00013039 -3.16056e-05)
(-0.000558169 -0.000140418 -3.88181e-06)
(-0.000644783 -0.000144185 2.42151e-05)
(-0.000707888 -0.000145817 4.78213e-05)
(-0.000749973 -0.000149059 6.46046e-05)
(-0.000775661 -0.00015274 7.50975e-05)
(-0.000786348 -0.000158371 7.55635e-05)
(-0.000799601 -0.000161982 6.9715e-05)
(-0.000809281 -0.000167367 6.45327e-05)
(-0.000809889 -0.000169439 5.25389e-05)
(-0.000814459 -0.00017497 3.36856e-05)
(-0.000816628 -0.000176283 1.19381e-05)
(7.23926e-05 1.31941e-05 3.76947e-05)
(9.62096e-05 7.65554e-06 -1.06091e-05)
(0.000107899 1.163e-06 -2.03856e-05)
(0.000112369 -1.01494e-05 -2.58267e-05)
(0.000110197 -2.21426e-05 -2.73383e-05)
(0.000101698 -3.20564e-05 -2.49868e-05)
(8.59628e-05 -3.76906e-05 -1.99369e-05)
(5.82677e-05 -3.32512e-05 -1.25288e-05)
(1.45181e-05 -1.89451e-05 -1.90582e-05)
(-3.25224e-05 -1.49838e-07 -3.28515e-05)
(-4.87709e-05 -1.89504e-05 -2.31343e-05)
(-0.000200995 -5.92016e-05 -5.06552e-05)
(-0.000312613 -9.09562e-05 -4.44242e-05)
(-0.000421636 -0.000109618 -1.97262e-05)
(-0.00050292 -0.000115935 7.14608e-06)
(-0.00055926 -0.000118325 3.14265e-05)
(-0.00059523 -0.00012296 4.92264e-05)
(-0.000615204 -0.000126348 6.13401e-05)
(-0.000618092 -0.00013089 6.23053e-05)
(-0.000627895 -0.000133768 5.71321e-05)
(-0.000632469 -0.000138754 5.42641e-05)
(-0.000628743 -0.000137444 4.44171e-05)
(-0.000632424 -0.000144746 2.8193e-05)
(-0.000631989 -0.000145375 1.00323e-05)
(7.07872e-05 1.02792e-05 3.55051e-05)
(9.65909e-05 5.23092e-06 -9.13998e-06)
(0.000109211 -1.4613e-07 -1.91649e-05)
(0.000116258 -1.05563e-05 -2.54364e-05)
(0.000117012 -2.27686e-05 -2.78429e-05)
(0.000111842 -3.40403e-05 -2.62611e-05)
(0.00010042 -4.18797e-05 -2.08038e-05)
(8.10944e-05 -4.45846e-05 -1.19041e-05)
(4.63789e-05 -2.92946e-05 5.33585e-06)
(-2.71577e-05 1.55045e-05 -2.82794e-05)
(-3.05128e-05 -3.92115e-06 -3.43641e-05)
(-7.66805e-05 -3.3915e-05 -3.27015e-05)
(-0.000206543 -5.36266e-05 -4.07066e-05)
(-0.0002863 -7.60069e-05 -3.15012e-05)
(-0.000364319 -8.8239e-05 -6.61921e-06)
(-0.000417581 -9.28324e-05 1.70008e-05)
(-0.000446287 -9.88884e-05 3.47478e-05)
(-0.000459311 -0.000101911 4.78828e-05)
(-0.000453416 -0.000103658 4.88082e-05)
(-0.000458151 -0.000106521 4.37999e-05)
(-0.000457611 -0.000110936 4.32285e-05)
(-0.000434936 -9.01655e-05 3.53906e-05)
(-0.000442407 -0.000113681 2.17455e-05)
(-0.000435961 -0.00011092 7.86927e-06)
(6.40075e-05 6.76145e-06 3.18635e-05)
(9.0743e-05 2.68085e-06 -6.54499e-06)
(0.000104025 -1.70088e-06 -1.61979e-05)
(0.000112232 -1.04342e-05 -2.28488e-05)
(0.000116167 -2.18717e-05 -2.6359e-05)
(0.000114755 -3.3579e-05 -2.61914e-05)
(0.000107875 -4.29604e-05 -2.22274e-05)
(9.39544e-05 -4.80891e-05 -1.50063e-05)
(6.9847e-05 -4.06369e-05 -1.64734e-06)
(1.27795e-05 -1.84842e-05 -1.52276e-05)
(-1.8979e-05 -1.03868e-05 -4.45488e-05)
(-3.9256e-05 -2.85176e-05 -3.84965e-05)
(-8.58144e-05 -3.62898e-05 -2.72969e-05)
(-0.000178011 -4.59633e-05 -2.94802e-05)
(-0.000236685 -5.94759e-05 -1.70359e-05)
(-0.000270967 -6.30305e-05 4.55382e-06)
(-0.000296098 -7.3595e-05 2.06925e-05)
(-0.000301638 -7.4815e-05 3.39912e-05)
(-0.000290816 -6.60785e-05 3.46147e-05)
(-0.000295251 -7.52763e-05 3.01041e-05)
(-0.000292242 -8.19633e-05 3.27507e-05)
(-0.000357088 -2.66378e-05 2.72452e-05)
(-0.000282034 -7.8975e-05 1.57857e-05)
(-0.000293613 -6.72385e-05 6.17268e-06)
(5.52542e-05 3.7598e-06 2.7946e-05)
(8.13935e-05 7.14162e-08 -4.40631e-06)
(9.45978e-05 -3.69893e-06 -1.27261e-05)
(0.000103387 -1.09991e-05 -1.87988e-05)
(0.000109095 -2.06324e-05 -2.27767e-05)
(0.000111405 -3.16028e-05 -2.40525e-05)
(0.00010914 -4.15411e-05 -2.21999e-05)
(0.000100991 -4.8371e-05 -1.74391e-05)
(8.44831e-05 -4.7524e-05 -9.97531e-06)
(4.70316e-05 -3.79277e-05 -1.10143e-05)
(2.15641e-05 -2.61118e-05 -2.05314e-05)
(-1.96553e-05 -5.69508e-06 -3.92121e-05)
(-4.06668e-05 -2.60143e-05 -3.49876e-05)
(-6.71927e-05 -2.45991e-05 -2.01552e-05)
(-0.000128497 -3.50886e-05 -1.66792e-05)
(-0.000179712 -2.57967e-05 -3.09711e-06)
(-0.00017482 -4.74265e-05 8.12627e-06)
(-0.00018327 -4.61398e-05 2.17017e-05)
(-0.000208371 -3.22146e-05 2.08301e-05)
(-0.000170214 -3.88835e-05 1.68955e-05)
(-0.000152763 -4.9921e-05 1.08477e-05)
(-0.000211472 -0.000116175 1.46128e-05)
(-0.000142485 -4.45099e-05 1.5479e-05)
(-0.00014037 -5.67841e-05 2.77346e-06)
(4.62001e-05 1.8925e-06 2.44186e-05)
(7.05829e-05 -1.92137e-06 -3.20891e-06)
(8.29807e-05 -5.68383e-06 -9.95495e-06)
(9.16962e-05 -1.20407e-05 -1.48302e-05)
(9.82005e-05 -2.01477e-05 -1.83875e-05)
(0.000103069 -2.95035e-05 -2.03052e-05)
(0.000105003 -3.88292e-05 -2.013e-05)
(0.000102566 -4.63476e-05 -1.79849e-05)
(9.33796e-05 -4.94414e-05 -1.3911e-05)
(7.15243e-05 -4.75193e-05 -1.31354e-05)
(4.67711e-05 -3.6173e-05 -1.51078e-05)
(9.70128e-06 -2.42268e-05 -1.744e-05)
(-2.25599e-05 5.00643e-06 -3.46896e-05)
(-3.3601e-05 -1.71747e-05 -3.1064e-05)
(-3.7862e-05 -1.20991e-05 -1.4733e-05)
(-7.3816e-05 -3.05339e-05 -8.95856e-06)
(-6.41137e-05 -1.92156e-05 2.21411e-06)
(-5.26032e-05 -2.09751e-05 -1.24492e-06)
(-9.61945e-05 -0.00010408 4.68602e-06)
(-7.22816e-05 -3.36997e-05 1.19854e-05)
(-4.53106e-05 -2.03861e-05 -7.0153e-06)
(-9.89528e-05 -0.0001339 1.13676e-05)
(-4.30122e-05 -3.22638e-05 1.57565e-05)
(-5.25742e-05 -5.10126e-05 2.59706e-06)
(3.73315e-05 7.78435e-07 2.08978e-05)
(5.93742e-05 -3.3997e-06 -2.76134e-06)
(7.05975e-05 -7.5339e-06 -8.04433e-06)
(7.88852e-05 -1.34945e-05 -1.16012e-05)
(8.56991e-05 -2.06257e-05 -1.4217e-05)
(9.17921e-05 -2.8401e-05 -1.59587e-05)
(9.67995e-05 -3.64301e-05 -1.66365e-05)
(9.88683e-05 -4.34356e-05 -1.6214e-05)
(9.61721e-05 -4.83414e-05 -1.4894e-05)
(8.46993e-05 -5.00478e-05 -1.42677e-05)
(6.64886e-05 -4.58132e-05 -1.56868e-05)
(3.59126e-05 -3.37451e-05 -1.64379e-05)
(-1.0222e-07 -1.7312e-05 -2.30355e-05)
(-1.22948e-05 -1.01337e-06 -3.57849e-05)
(-1.8533e-05 -8.65461e-06 -2.13607e-05)
(-3.14688e-05 -2.98824e-05 -1.88201e-05)
(-1.53847e-05 -1.1591e-05 -1.88409e-06)
(-3.26202e-05 -1.81222e-05 -1.3813e-05)
(-1.50259e-05 -3.60213e-05 -6.8387e-07)
(-2.43595e-05 -5.42061e-05 1.8055e-05)
(-1.56269e-05 -2.11449e-05 -1.92854e-06)
(-3.4911e-05 1.04972e-05 1.3799e-05)
(-1.20719e-05 -2.81517e-05 1.65154e-05)
(-1.78013e-05 -9.12633e-06 4.12618e-06)
(3.01843e-05 -3.76411e-08 1.77231e-05)
(4.95829e-05 -4.77605e-06 -2.82182e-06)
(5.94371e-05 -9.47453e-06 -6.86844e-06)
(6.70583e-05 -1.54039e-05 -9.22901e-06)
(7.38403e-05 -2.19872e-05 -1.08111e-05)
(8.04941e-05 -2.87206e-05 -1.19842e-05)
(8.69129e-05 -3.52698e-05 -1.28105e-05)
(9.17527e-05 -4.12147e-05 -1.32689e-05)
(9.34943e-05 -4.60752e-05 -1.35086e-05)
(8.97259e-05 -4.96663e-05 -1.41569e-05)
(7.88708e-05 -4.96027e-05 -1.56713e-05)
(5.78788e-05 -4.44381e-05 -1.86409e-05)
(2.70818e-05 -3.12191e-05 -2.43961e-05)
(5.30855e-06 -1.86994e-05 -3.16932e-05)
(-2.18821e-06 -1.55865e-05 -2.65594e-05)
(-1.94432e-05 1.48134e-05 -2.71043e-05)
(-3.79492e-06 -1.11976e-05 -2.17399e-05)