/*--------------------------------*- C++ -*----------------------------------*\
  =========                 |
  \\      /  F ield         | OpenFOAM: The Open Source CFD Toolbox
   \\    /   O peration     | Website:  https://openfoam.org
    \\  /    A nd           | Version:  6
     \\/     M anipulation  |
\*---------------------------------------------------------------------------*/
FoamFile
{
    version     2.0;
    format      ascii;
    class       volScalarField;
    location    "25";
    object      omega;
}
// * * * * * * * * * * * * * * * * * * * * * * * * * * * * * * * * * * * * * //

dimensions      [0 0 -1 0 0 0 0];

internalField   nonuniform List<scalar> 
380496
(
843.917
843.917
843.917
843.917
843.917
843.917
843.917
843.917
843.917
843.917
843.917
843.917
843.917
843.917
843.917
843.917
843.917
843.917
843.917
843.917
843.917
843.917
843.917
843.917
843.917
843.917
843.917
843.917
843.917
843.917
843.917
843.917
843.917
843.917
843.917
843.917
843.917
843.917
843.917
843.917
843.917
843.917
843.917
843.917
843.917
843.917
843.917
843.917
843.917
843.917
843.917
843.917
843.917
843.917
843.917
843.917
843.917
843.917
843.917
843.917
843.917
843.917
843.917
843.917
843.917
843.917
843.917
843.917
843.917
843.917
843.917
843.917
843.917
843.917
843.917
843.917
843.917
843.917
843.917
843.917
843.917
843.917
843.917
843.917
843.917
843.917
843.917
843.917
843.917
843.917
843.917
843.917
843.917
843.917
843.917
843.917
843.917
843.917
843.917
843.917
843.917
843.917
843.917
843.917
843.917
843.917
843.917
843.917
843.917
843.917
843.917
843.917
843.917
843.917
843.917
843.917
843.917
843.917
843.917
843.917
843.917
843.917
843.917
843.917
843.917
843.917
843.917
843.917
843.917
843.917
843.917
843.917
843.917
843.917
843.917
843.917
843.917
843.917
843.917
843.917
843.917
843.917
843.917
843.917
843.917
843.917
843.917
843.917
843.917
843.917
843.917
843.917
843.917
843.917
843.917
843.917
843.917
843.917
843.917
843.917
843.917
843.917
843.917
843.917
843.917
843.917
843.917
843.917
843.917
843.917
843.917
843.917
843.917
843.917
843.917
843.917
843.917
843.917
843.917
843.917
843.917
843.917
843.917
843.917
843.917
843.917
843.917
843.917
843.917
843.917
843.917
843.917
843.917
843.917
843.917
843.917
843.917
843.917
843.917
843.917
843.917
843.917
843.917
843.917
843.917
843.917
843.917
843.917
843.917
843.917
843.917
843.917
843.917
843.917
843.917
843.917
843.917
843.917
843.917
843.917
843.917
843.917
843.917
843.917
843.917
843.917
843.917
843.917
843.917
843.917
843.917
843.917
843.917
843.917
843.917
843.917
843.917
843.917
843.917
843.917
843.917
843.917
843.917
843.917
843.917
843.917
843.917
843.917
843.917
843.917
843.917
843.917
843.917
843.917
843.917
843.917
843.917
843.917
843.917
843.917
843.917
843.917
843.917
843.917
843.917
843.917
843.917
843.917
843.917
843.917
843.917
843.917
843.917
843.917
843.917
843.917
843.917
843.917
843.917
843.917
843.917
843.917
843.917
843.917
843.917
843.917
843.917
843.917
843.917
843.917
843.917
843.917
843.917
843.917
843.917
843.917
843.917
843.917
843.917
843.917
843.917
843.917
843.917
843.917
843.917
843.917
843.917
843.917
843.917
843.917
843.917
843.917
843.917
843.917
843.917
843.917
843.917
843.917
843.917
843.917
843.917
843.917
843.917
843.917
843.917
843.917
843.917
843.917
843.917
843.917
843.917
843.917
843.917
843.917
843.917
843.917
843.917
843.917
843.917
843.917
843.917
843.917
843.917
843.917
843.917
843.917
843.917
843.917
843.917
843.917
843.917
843.917
843.917
843.917
843.917
843.917
843.917
843.917
843.917
843.917
843.917
843.917
843.917
843.917
843.917
843.917
843.917
843.917
843.917
843.917
843.917
843.917
843.917
843.917
843.917
843.917
843.917
843.917
843.917
843.917
843.917
843.917
843.917
843.917
843.917
843.917
843.917
843.917
843.917
843.917
843.917
843.917
843.917
843.917
843.917
843.917
843.917
843.917
843.917
843.917
843.917
843.917
843.917
843.917
843.917
843.917
843.917
843.917
843.917
843.917
843.917
843.917
843.917
843.917
843.917
843.917
843.917
843.917
843.917
843.917
843.917
843.917
843.917
843.917
843.917
843.917
843.917
843.917
843.917
843.917
843.917
843.917
843.917
843.917
843.917
843.917
843.917
843.917
843.917
843.917
843.917
843.917
843.917
843.917
843.917
843.917
843.917
843.917
843.917
843.917
843.917
843.917
843.917
843.917
843.917
843.917
843.917
843.917
843.917
843.917
843.917
843.917
843.917
843.917
843.917
843.917
843.917
843.917
843.917
843.917
843.917
843.917
843.917
843.917
843.917
843.917
843.917
843.917
843.917
843.917
843.917
843.917
843.917
843.917
843.917
843.917
843.917
843.917
843.917
843.917
843.917
843.917
843.917
843.917
843.917
843.917
843.917
843.917
843.917
843.917
843.917
843.917
843.917
843.917
843.917
843.917
843.917
843.917
843.917
843.917
843.917
843.917
843.917
843.917
843.917
843.917
843.917
843.917
843.917
843.917
843.917
843.917
843.917
843.917
843.917
843.917
843.917
843.917
843.917
843.917
843.917
843.917
843.917
843.917
843.917
843.917
843.917
843.917
843.917
843.917
843.917
843.917
843.917
843.917
843.917
843.917
843.917
843.917
843.917
843.917
843.917
843.917
843.917
843.917
843.917
843.917
843.917
843.917
843.917
843.917
843.917
843.917
843.917
843.917
843.917
843.917
843.917
843.917
843.917
843.917
843.917
843.917
843.917
843.917
843.917
843.917
843.917
843.917
843.917
843.917
843.917
843.917
843.917
843.917
843.917
843.917
843.917
843.917
843.917
843.917
843.917
843.917
843.917
843.917
843.917
843.917
843.917
843.917
843.917
843.917
843.917
843.917
843.917
843.917
843.917
843.917
843.917
843.917
843.917
843.917
843.917
843.917
843.917
843.917
843.917
843.917
843.917
843.917
843.917
843.917
843.917
843.917
843.917
843.917
843.917
843.917
843.917
843.917
843.917
843.917
843.917
843.917
843.917
843.917
843.917
843.917
843.917
843.917
843.917
843.917
843.917
843.917
843.917
843.917
843.917
843.917
843.917
843.917
843.917
843.917
843.917
843.917
843.917
843.917
843.917
843.917
843.917
843.917
843.917
843.917
843.917
843.917
843.917
843.917
843.917
843.917
843.917
843.917
843.917
843.917
843.917
843.917
843.917
843.917
843.917
843.917
843.917
843.917
843.917
843.917
843.917
843.917
843.917
843.917
843.917
843.917
843.917
843.917
843.917
843.917
843.917
843.917
843.917
843.917
843.917
843.917
843.917
843.917
843.917
843.917
423.923
423.923
423.923
423.923
423.923
423.923
423.923
423.923
423.923
423.923
423.923
423.923
423.923
423.923
423.923
423.923
423.923
423.923
423.923
423.923
423.923
423.923
423.923
423.923
423.923
423.923
423.923
423.923
423.923
423.923
423.923
423.923
423.923
423.923
423.923
281.629
267.584
268.719
269.798
269.895
269.74
269.634
269.572
269.547
269.527
269.526
269.522
269.531
269.534
269.548
269.556
269.572
269.584
269.602
269.619
269.638
269.662
269.682
269.713
269.735
269.774
269.795
269.844
269.862
269.921
269.932
270
269.998
270.081
270.044
281.467
267.569
268.642
269.674
269.745
269.588
269.475
269.418
269.387
269.376
269.37
269.376
269.381
269.397
269.407
269.429
269.442
269.471
269.485
269.52
269.538
269.579
269.6
269.648
269.673
269.728
269.756
269.818
269.847
269.916
269.939
270.016
270.015
270.12
270.006
281.132
267.393
268.468
269.467
269.514
269.35
269.234
269.178
269.149
269.143
269.141
269.155
269.166
269.192
269.209
269.242
269.264
269.305
269.33
269.379
269.407
269.465
269.498
269.566
269.602
269.68
269.719
269.806
269.846
269.943
269.979
270.087
270.1
270.243
270.15
280.564
267.015
268.171
269.145
269.158
268.981
268.863
268.81
268.784
268.786
268.79
268.814
268.834
268.87
268.897
268.942
268.975
269.028
269.066
269.128
269.171
269.243
269.292
269.375
269.428
269.523
269.58
269.687
269.744
269.863
269.915
270.05
270.071
270.254
270.153
280.147
266.779
267.823
268.729
268.723
268.543
268.424
268.373
268.351
268.357
268.368
268.399
268.426
268.472
268.508
268.564
268.607
268.674
268.723
268.8
268.856
268.946
269.009
269.111
269.181
269.296
269.371
269.499
269.578
269.718
269.795
269.951
270.001
270.21
270.134
279.34
266.187
267.269
268.13
268.092
267.902
267.786
267.74
267.727
267.743
267.767
267.809
267.85
267.908
267.958
268.028
268.085
268.167
268.232
268.325
268.398
268.506
268.587
268.708
268.797
268.933
269.028
269.179
269.278
269.443
269.538
269.725
269.79
270.039
269.965
278.498
265.569
266.588
267.379
267.314
267.118
267.005
266.964
266.96
266.986
267.021
267.074
267.127
267.197
267.261
267.344
267.417
267.513
267.594
267.704
267.795
267.92
268.02
268.161
268.271
268.427
268.544
268.717
268.839
269.028
269.147
269.36
269.448
269.731
269.67
277.443
264.75
265.703
266.42
266.327
266.127
266.018
265.987
265.994
266.031
266.079
266.146
266.212
266.296
266.374
266.471
266.56
266.671
266.769
266.896
267.005
267.148
267.268
267.428
267.558
267.736
267.874
268.069
268.212
268.426
268.567
268.806
268.914
269.23
269.177
276.189
263.73
264.626
265.263
265.14
264.937
264.839
264.82
264.843
264.896
264.961
265.042
265.125
265.223
265.318
265.43
265.535
265.663
265.779
265.922
266.05
266.211
266.35
266.53
266.68
266.879
267.037
267.254
267.419
267.655
267.817
268.08
268.208
268.555
268.509
274.955
262.702
263.448
263.996
263.853
263.653
263.564
263.555
263.591
263.654
263.732
263.825
263.921
264.03
264.138
264.263
264.383
264.523
264.655
264.813
264.957
265.135
265.292
265.489
265.657
265.874
266.051
266.287
266.47
266.726
266.907
267.191
267.336
267.709
267.668
273.277
261.257
261.953
262.423
262.252
262.057
261.988
262.002
262.061
262.146
262.245
262.356
262.471
262.598
262.724
262.865
263.001
263.158
263.308
263.483
263.645
263.84
264.015
264.231
264.418
264.653
264.85
265.105
265.307
265.582
265.781
266.087
266.248
266.646
266.61
271.66
259.849
260.311
260.677
260.492
260.307
260.252
260.28
260.352
260.45
260.562
260.685
260.813
260.952
261.091
261.244
261.396
261.566
261.731
261.921
262.1
262.31
262.503
262.735
262.94
263.193
263.408
263.681
263.901
264.195
264.412
264.736
264.913
265.335
265.302
269.373
257.803
258.186
258.474
258.271
258.108
258.087
258.149
258.254
258.38
258.518
258.664
258.814
258.972
259.131
259.303
259.473
259.661
259.845
260.052
260.251
260.479
260.692
260.941
261.166
261.438
261.672
261.964
262.203
262.516
262.75
263.094
263.287
263.731
263.701
267.102
255.733
255.824
256.005
255.796
255.657
255.661
255.745
255.871
256.016
256.172
256.334
256.5
256.673
256.848
257.034
257.222
257.424
257.626
257.849
258.066
258.31
258.542
258.809
259.053
259.342
259.595
259.905
260.163
260.494
260.746
261.108
261.317
261.782
261.755
264.032
252.896
252.815
252.921
252.715
252.619
252.674
252.804
252.968
253.148
253.333
253.521
253.711
253.906
254.103
254.309
254.517
254.739
254.961
255.202
255.44
255.702
255.955
256.24
256.505
256.812
257.087
257.415
257.693
258.042
258.314
258.694
258.92
259.406
259.381
260.551
249.611
249.24
249.273
249.085
249.042
249.146
249.323
249.524
249.738
249.95
250.165
250.378
250.594
250.811
251.036
251.263
251.503
251.744
252.002
252.26
252.539
252.813
253.115
253.401
253.725
254.021
254.367
254.666
255.032
255.324
255.721
255.964
256.47
256.447
256.376
245.605
244.856
244.809
244.652
244.679
244.842
245.069
245.305
245.552
245.787
246.027
246.256
246.493
246.725
246.967
247.209
247.464
247.722
247.996
248.271
248.566
248.858
249.176
249.483
249.824
250.141
250.504
250.823
251.215
251.522
251.948
252.208
252.741
252.729
249.996
239.623
238.826
238.83
238.738
238.862
239.11
239.413
239.704
240.001
240.269
240.541
240.79
241.051
241.296
241.559
241.812
242.086
242.355
242.647
242.937
243.252
243.563
243.907
244.237
244.607
244.951
245.346
245.694
246.112
246.452
246.899
247.195
247.74
247.768
240.797
231.46
230.49
230.663
230.742
230.998
231.315
231.648
231.944
232.236
232.49
232.753
232.987
233.243
233.478
233.741
233.989
234.27
234.538
234.841
235.139
235.488
235.832
236.215
236.587
236.994
237.386
237.815
238.217
238.672
239.07
239.554
239.92
240.485
240.63
214.295
212.13
212.39
213.322
213.964
214.707
215.436
216.115
216.721
217.296
217.817
218.331
218.807
219.291
219.747
220.221
220.671
221.147
221.6
222.085
222.547
223.043
223.517
224.023
224.508
225.022
225.516
226.03
226.529
227.037
227.535
228.025
228.516
228.936
229.59
9.02162
7.66349
7.59099
7.55807
7.61081
7.68288
7.77485
7.86704
7.96875
8.06177
8.15967
8.24625
8.33741
8.41716
8.50295
8.57775
8.66051
8.73227
8.8142
8.88411
8.96705
9.03541
9.12095
9.18683
9.2767
9.33783
9.43453
9.48675
9.59432
9.63057
9.75563
9.76326
9.91701
9.86764
10.0689
135.248
128.879
128.552
129.046
129.245
129.241
129.192
129.146
129.113
129.089
129.072
129.062
129.056
129.055
129.056
129.061
129.068
129.077
129.089
129.103
129.12
129.139
129.161
129.185
129.215
129.243
129.282
129.314
129.365
129.402
129.467
129.509
129.589
129.641
129.742
135.076
128.678
128.312
128.782
128.969
128.96
128.907
128.86
128.825
128.802
128.786
128.777
128.773
128.774
128.779
128.786
128.797
128.81
128.827
128.845
128.867
128.89
128.919
128.947
128.983
129.017
129.061
129.101
129.155
129.2
129.266
129.318
129.388
129.466
129.496
134.794
128.386
128.004
128.46
128.637
128.624
128.569
128.521
128.487
128.465
128.451
128.446
128.446
128.451
128.461
128.474
128.491
128.51
128.533
128.558
128.588
128.618
128.655
128.691
128.737
128.779
128.835
128.882
128.949
129.002
129.081
129.142
129.224
129.318
129.356
134.361
127.975
127.613
128.065
128.231
128.211
128.152
128.104
128.07
128.051
128.041
128.041
128.046
128.057
128.072
128.091
128.114
128.139
128.169
128.201
128.238
128.276
128.32
128.364
128.418
128.468
128.532
128.587
128.663
128.722
128.811
128.876
128.968
129.06
129.112
134.043
127.65
127.238
127.653
127.803
127.775
127.713
127.662
127.628
127.61
127.601
127.603
127.611
127.625
127.644
127.668
127.695
127.726
127.762
127.8
127.843
127.887
127.939
127.99
128.051
128.109
128.18
128.245
128.327
128.397
128.49
128.569
128.662
128.775
128.817
133.489
127.122
126.72
127.123
127.258
127.221
127.155
127.105
127.073
127.058
127.054
127.062
127.075
127.096
127.121
127.152
127.186
127.224
127.266
127.311
127.362
127.414
127.473
127.532
127.601
127.667
127.746
127.818
127.909
127.986
128.088
128.172
128.272
128.39
128.438
132.924
126.585
126.159
126.53
126.645
126.597
126.527
126.475
126.444
126.432
126.432
126.444
126.463
126.489
126.52
126.556
126.596
126.64
126.689
126.741
126.798
126.858
126.924
126.991
127.067
127.141
127.228
127.308
127.406
127.491
127.599
127.693
127.797
127.927
127.973
132.248
125.942
125.496
125.832
125.925
125.866
125.791
125.739
125.71
125.701
125.706
125.723
125.747
125.779
125.816
125.858
125.904
125.955
126.01
126.069
126.133
126.2
126.274
126.348
126.432
126.513
126.607
126.695
126.799
126.893
127.006
127.109
127.215
127.356
127.4
131.463
125.209
124.747
125.047
125.114
125.043
124.964
124.913
124.888
124.885
124.896
124.919
124.95
124.989
125.032
125.081
125.134
125.192
125.254
125.32
125.391
125.465
125.546
125.628
125.718
125.808
125.908
126.004
126.115
126.216
126.335
126.446
126.555
126.707
126.748
130.701
124.495
123.979
124.227
124.267
124.184
124.102
124.051
124.029
124.029
124.045
124.073
124.109
124.153
124.201
124.256
124.314
124.378
124.445
124.518
124.595
124.675
124.762
124.851
124.947
125.043
125.15
125.252
125.369
125.477
125.601
125.718
125.831
125.992
126.029
129.711
123.569
123.042
123.255
123.267
123.172
123.088
123.041
123.026
123.035
123.059
123.096
123.14
123.192
123.248
123.31
123.376
123.447
123.522
123.601
123.685
123.773
123.866
123.962
124.066
124.169
124.282
124.392
124.515
124.629
124.758
124.883
124.998
125.169
125.204
128.745
122.677
122.06
122.2
122.179
122.072
121.986
121.941
121.93
121.943
121.973
122.015
122.065
122.122
122.184
122.252
122.323
122.4
122.481
122.566
122.656
122.751
122.851
122.953
123.063
123.173
123.293
123.409
123.538
123.659
123.793
123.925
124.043
124.223
124.254
127.448
121.46
120.821
120.918
120.866
120.748
120.665
120.629
120.63
120.655
120.696
120.749
120.81
120.876
120.947
121.023
121.103
121.188
121.277
121.37
121.468
121.57
121.678
121.788
121.905
122.023
122.15
122.273
122.409
122.537
122.677
122.817
122.938
123.129
123.155
126.136
120.247
119.484
119.493
119.402
119.273
119.191
119.161
119.17
119.204
119.254
119.315
119.383
119.457
119.536
119.619
119.706
119.798
119.894
119.995
120.1
120.21
120.325
120.443
120.567
120.693
120.826
120.957
121.1
121.235
121.382
121.529
121.654
121.855
121.877
124.43
118.648
117.81
117.755
117.63
117.495
117.423
117.408
117.432
117.482
117.546
117.62
117.7
117.785
117.874
117.968
118.064
118.165
118.27
118.38
118.493
118.612
118.735
118.861
118.994
119.128
119.269
119.409
119.559
119.702
119.856
120.011
120.14
120.353
120.37
122.481
116.821
115.842
115.702
115.539
115.401
115.339
115.341
115.382
115.447
115.526
115.613
115.706
115.802
115.901
116.004
116.11
116.22
116.334
116.451
116.573
116.7
116.831
116.966
117.107
117.249
117.399
117.546
117.704
117.856
118.017
118.18
118.315
118.538
118.55
120.129
114.623
113.443
113.187
112.977
112.839
112.795
112.817
112.875
112.957
113.048
113.148
113.249
113.355
113.461
113.572
113.684
113.801
113.921
114.046
114.176
114.31
114.449
114.591
114.74
114.89
115.049
115.205
115.372
115.533
115.704
115.878
116.023
116.26
116.275
116.507
111.184
110.004
109.761
109.55
109.429
109.407
109.453
109.529
109.628
109.73
109.841
109.949
110.063
110.176
110.294
110.413
110.538
110.666
110.8
110.938
111.082
111.232
111.387
111.55
111.715
111.889
112.062
112.245
112.423
112.611
112.799
112.963
113.21
113.244
111.046
106.318
104.834
104.5
104.274
104.177
104.179
104.249
104.341
104.459
104.577
104.709
104.836
104.975
105.11
105.258
105.403
105.561
105.717
105.886
106.058
106.236
106.416
106.603
106.795
106.992
107.194
107.397
107.608
107.816
108.033
108.25
108.454
108.718
108.828
95.7374
95.7833
94.6644
94.3748
94.1703
94.1469
94.2628
94.4608
94.6935
94.9516
95.212
95.4819
95.7458
96.0158
96.2786
96.5475
96.8098
97.0787
97.3421
97.6125
97.8785
98.1513
98.4209
98.6968
98.9703
99.2487
99.5248
99.8043
100.081
100.359
100.635
100.903
101.188
101.408
101.783
11.4423
9.87604
9.84123
9.88559
10.0017
10.1248
10.2605
10.3878
10.5213
10.6403
10.7628
10.8696
10.9808
11.077
11.1798
11.2686
11.3665
11.4505
11.5464
11.6276
11.7239
11.8026
11.9013
11.9768
12.08
12.1499
12.2604
12.3204
12.4426
12.4852
12.6261
12.6392
12.809
12.7703
12.9777
79.7825
77.2361
76.6742
76.767
76.8938
76.9391
76.934
76.9132
76.8884
76.8679
76.8493
76.8362
76.8247
76.818
76.8123
76.8106
76.8096
76.8116
76.8149
76.8198
76.8273
76.8344
76.8466
76.8554
76.8734
76.8828
76.9083
76.9175
76.9525
76.9609
77.0076
77.0159
77.0754
77.0854
77.165
79.595
77.0487
76.4701
76.5475
76.666
76.7056
76.6979
76.6739
76.6486
76.626
76.6084
76.594
76.5848
76.5772
76.575
76.5725
76.5758
76.5772
76.5855
76.5901
76.603
76.6104
76.628
76.6379
76.6607
76.6729
76.7018
76.7157
76.7522
76.7673
76.8123
76.8303
76.8788
76.9084
76.9503
79.3539
76.8066
76.2182
76.2866
76.3993
76.4348
76.4244
76.3983
76.3721
76.3491
76.3321
76.3185
76.3111
76.3052
76.3055
76.3054
76.3119
76.316
76.3282
76.3356
76.3533
76.3632
76.3868
76.3989
76.4289
76.4427
76.4802
76.4954
76.541
76.5582
76.6116
76.6347
76.6881
76.7314
76.7696
79.0384
76.493
75.9086
75.9762
76.0852
76.1163
76.1027
76.0745
76.0476
76.0246
76.0089
75.9968
75.9917
75.9882
75.9914
75.9942
76.0041
76.0115
76.0272
76.0384
76.0598
76.0739
76.1015
76.1179
76.1523
76.1704
76.2128
76.2313
76.2836
76.3015
76.3646
76.3831
76.4512
76.4804
76.5426
78.7526
76.2179
75.616
75.6639
75.7597
75.7826
75.7636
75.7319
75.7026
75.6784
75.6622
75.6504
75.6461
75.6438
75.6486
75.6531
75.6653
75.6748
75.6935
75.7069
75.7318
75.7486
75.7799
75.7995
75.8376
75.8595
75.9053
75.929
75.9831
76.0085
76.0703
76.1006
76.1624
76.2103
76.2584
78.3535
75.8242
75.2266
75.2706
75.3591
75.3755
75.3517
75.3172
75.2868
75.2628
75.2477
75.2378
75.2358
75.2363
75.2441
75.2518
75.2673
75.2803
75.3024
75.3196
75.3481
75.3688
75.4039
75.4275
75.4698
75.4954
75.5458
75.5725
75.6321
75.659
75.7277
75.7572
75.8274
75.8707
75.9301
77.928
75.4142
74.8112
74.8407
74.9158
74.9224
74.892
74.8536
74.8211
74.7966
74.7819
74.7733
74.7729
74.7756
74.7857
74.7962
74.8142
74.8303
74.8552
74.8758
74.9074
74.9316
74.9701
74.9973
75.0431
75.0725
75.1265
75.157
75.22
75.251
75.3224
75.3565
75.428
75.477
75.5362
77.4333
74.9364
74.3305
74.3453
74.4055
74.401
74.3633
74.3208
74.2863
74.2615
74.2474
74.2405
74.2421
74.2473
74.2599
74.2733
74.2942
74.3135
74.3415
74.3654
74.4003
74.4281
74.47
74.5008
74.5502
74.5832
74.6408
74.6749
74.7414
74.7757
74.8503
74.8876
74.9613
75.0136
75.0736
76.8736
74.4022
73.7982
73.7988
73.8426
73.8255
73.7797
73.733
73.6969
73.6726
73.6599
73.6554
73.6596
73.6679
73.6835
73.7002
73.7242
73.747
73.7782
73.8057
73.8439
73.8753
73.9206
73.955
74.0079
74.0445
74.1056
74.1431
74.213
74.2507
74.3282
74.369
74.4445
74.5008
74.5613
76.3105
73.8743
73.2583
73.2339
73.2567
73.2256
73.1717
73.1208
73.0828
73.0585
73.0467
73.0438
73.0499
73.0607
73.0785
73.0981
73.1246
73.1503
73.1842
73.2148
73.2558
73.2905
73.3387
73.3765
73.4324
73.4723
73.5365
73.5771
73.65
73.6907
73.7708
73.8148
73.8918
73.9516
74.012
75.627
73.2228
72.6136
72.5759
72.5807
72.5354
72.4731
72.4186
72.3802
72.3575
72.3483
72.3489
72.3584
72.373
72.3944
72.4178
72.4478
72.4773
72.5146
72.5489
72.5933
72.6316
72.6833
72.7247
72.784
72.8274
72.895
72.939
73.0151
73.0591
73.142
73.1893
73.2681
73.3318
73.3922
74.9229
72.5724
71.939
71.8628
71.8378
71.7745
71.7029
71.6443
71.6048
71.5828
71.5753
71.5783
71.5903
71.6079
71.6321
71.6586
71.6915
71.7243
71.7646
71.8024
71.8499
71.8918
71.9466
71.9915
72.0542
72.101
72.1719
72.2193
72.2987
72.3458
72.4317
72.4823
72.5628
72.6305
72.6907
74.0388
71.7344
71.1044
71.01
70.9623
70.8824
70.8026
70.7417
70.7034
70.6846
70.6813
70.6889
70.7056
70.7279
70.7564
70.7875
70.8245
70.8617
70.9059
70.948
70.9993
71.0454
71.104
71.1531
71.2194
71.2703
71.3449
71.3961
71.4792
71.5299
71.6191
71.6734
71.7561
71.8284
71.8885
73.1016
70.871
70.2027
70.057
69.9711
69.8697
69.7804
69.7166
69.679
69.6629
69.6631
69.6748
69.6956
69.7223
69.7549
69.7904
69.8313
69.8729
69.921
69.9674
70.0225
70.0729
70.1353
70.1886
70.2588
70.3138
70.3923
70.4475
70.5344
70.589
70.6818
70.7399
70.825
70.9021
70.9618
71.9317
69.7753
69.0898
68.9087
68.7897
68.6684
68.5715
68.5072
68.473
68.4619
68.4679
68.4855
68.512
68.5443
68.5822
68.6229
68.6686
68.7152
68.7677
68.819
68.8783
68.9335
69
69.0581
69.1323
69.192
69.2746
69.3342
69.4253
69.4839
69.5808
69.6431
69.7313
69.8138
69.8738
70.575
68.5118
67.7777
67.541
67.38
67.2361
67.1312
67.0665
67.0361
67.0305
67.0427
67.0664
67.099
67.1369
67.1801
67.226
67.2762
67.3277
67.3842
67.4402
67.5031
67.5631
67.6331
67.696
67.7738
67.8383
67.9247
67.9889
68.0841
68.1471
68.2484
68.3148
68.4067
68.4941
68.5549
68.9305
66.9872
66.1747
65.8559
65.6371
65.466
65.3533
65.2891
65.2628
65.2616
65.2786
65.306
65.3422
65.3828
65.4287
65.4769
65.5295
65.5833
65.6422
65.7013
65.767
65.8308
65.9038
65.9713
66.0525
66.1219
66.2127
66.2809
66.3832
66.4473
66.5585
66.625
66.7267
66.8185
66.8836
66.5752
64.6698
63.8503
63.527
63.289
63.1028
62.982
62.9125
62.8826
62.8775
62.8916
62.9156
62.9499
62.9885
63.0346
63.0829
63.1378
63.1941
63.2571
63.3207
63.3919
63.4616
63.5418
63.6155
63.705
63.7814
63.8816
63.958
64.0698
64.1437
64.2649
64.3399
64.455
64.5508
64.634
63.0742
61.5357
60.4582
59.9533
59.6047
59.3619
59.2139
59.1329
59.1016
59.1016
59.1268
59.1653
59.2187
59.278
59.3485
59.4212
59.5039
59.587
59.6796
59.7713
59.8743
59.9717
60.0774
60.1774
60.2886
60.3919
60.5107
60.6142
60.7427
60.8414
60.9794
61.0746
61.2133
61.319
61.4455
55.4845
57.2201
56.1494
55.3623
54.7644
54.3542
54.1158
53.9911
53.9525
53.9616
54.0127
54.0811
54.1735
54.2697
54.3828
54.4932
54.6179
54.7365
54.8689
54.9931
55.1308
55.2592
55.4009
55.5337
55.6786
55.8159
55.9624
56.1038
56.2509
56.3944
56.5439
56.6798
56.8485
56.9471
57.1843
13.0137
11.4072
11.4202
11.5489
11.7331
11.9059
12.0797
12.2338
12.3887
12.5228
12.6584
12.7742
12.894
12.9956
13.1045
13.1965
13.2988
13.3848
13.484
13.5662
13.6652
13.7443
13.8453
13.921
14.0262
14.0961
14.2085
14.2687
14.3925
14.4363
14.5776
14.5952
14.7615
14.7379
14.9306
52.8625
51.861
51.4542
51.3867
51.4239
51.4593
51.4698
51.4654
51.4516
51.4375
51.4218
51.4095
51.3969
51.3882
51.3795
51.3741
51.3691
51.3662
51.3645
51.3633
51.3651
51.3647
51.3703
51.3697
51.38
51.378
51.3941
51.3895
51.4128
51.4051
51.4362
51.4263
51.4656
51.454
51.5062
52.6912
51.6999
51.2902
51.2149
51.2472
51.2775
51.2861
51.2782
51.2641
51.2472
51.2325
51.2177
51.2073
51.1964
51.1908
51.1832
51.182
51.177
51.1796
51.1766
51.1829
51.1813
51.1911
51.1904
51.2041
51.2034
51.2218
51.2203
51.2442
51.2414
51.2713
51.2675
51.302
51.2975
51.34
52.4926
51.5063
51.0936
51.0133
51.042
51.0691
51.0753
51.065
51.0495
51.0312
51.0161
51.0008
50.9909
50.98
50.9756
50.9685
50.969
50.9646
50.9697
50.9671
50.9766
50.975
50.989
50.9877
51.0066
51.005
51.029
51.027
51.0562
51.0545
51.0875
51.0894
51.1217
51.1327
51.1626
52.2551
51.2694
50.8582
50.7778
50.8054
50.8302
50.8342
50.8216
50.8048
50.7853
50.7701
50.7546
50.7455
50.7353
50.7322
50.7262
50.7284
50.7256
50.7325
50.7319
50.7434
50.744
50.7603
50.7612
50.7829
50.7831
50.8112
50.8095
50.845
50.8404
50.8839
50.877
50.9262
50.9187
50.9757
52.0125
51.0413
50.6277
50.539
50.5583
50.5765
50.5754
50.5591
50.5395
50.5181
50.5016
50.4854
50.4761
50.4658
50.4632
50.4576
50.4609
50.4586
50.4672
50.4671
50.4806
50.4821
50.5004
50.5027
50.5262
50.5287
50.5576
50.5598
50.5943
50.5964
50.6357
50.6399
50.6799
50.6898
50.7311
51.7113
50.7438
50.3339
50.2451
50.2615
50.2758
50.2707
50.2512
50.2292
50.2065
50.1892
50.173
50.1641
50.1546
50.1531
50.1488
50.1536
50.1529
50.1631
50.1649
50.1803
50.1836
50.2042
50.2083
50.2344
50.2384
50.2706
50.2734
50.3126
50.3136
50.3595
50.36
50.4091
50.4115
50.4653
51.381
50.4248
50.017
49.9235
49.9327
49.9401
49.929
49.9053
49.8801
49.8554
49.837
49.8205
49.8115
49.8026
49.8017
49.7985
49.8043
49.805
49.8164
49.8198
49.8366
49.8417
49.8639
49.8697
49.8977
49.9034
49.9377
49.9423
49.9834
49.9865
50.0339
50.0369
50.087
50.0924
50.1465
51.0013
50.0571
49.6534
49.5558
49.5573
49.5568
49.5389
49.5103
49.4815
49.4548
49.4351
49.4184
49.4095
49.4014
49.4013
49.3993
49.4062
49.4084
49.4213
49.4264
49.4449
49.4517
49.4758
49.4834
49.5134
49.5209
49.5574
49.5637
49.6072
49.6118
49.6616
49.6658
49.7181
49.7244
49.7805
50.5805
49.6502
49.2537
49.1534
49.1468
49.1373
49.1119
49.0778
49.0454
49.0167
48.996
48.9793
48.9706
48.9635
48.9644
48.9639
48.9721
48.976
48.9903
48.9971
49.0172
49.0259
49.0517
49.0612
49.0932
49.1024
49.141
49.1489
49.1946
49.2007
49.2526
49.2583
49.3124
49.3201
49.3779
50.1474
49.2386
48.8454
48.7365
48.7176
48.6971
48.6632
48.6236
48.5875
48.5569
48.5351
48.5184
48.51
48.5038
48.5055
48.5063
48.5157
48.5211
48.5368
48.5453
48.5669
48.5773
48.6048
48.616
48.6498
48.6607
48.7012
48.7108
48.7584
48.766
48.8199
48.827
48.8828
48.8917
48.9508
49.6404
48.7496
48.3677
48.2578
48.2302
48.1995
48.157
48.1115
48.0716
48.0392
48.0167
48.0004
47.9926
47.9878
47.9907
47.9932
48.0041
48.0114
48.0287
48.0391
48.0624
48.0747
48.104
48.1171
48.1528
48.1656
48.2081
48.2194
48.2691
48.2783
48.3342
48.3428
48.4003
48.4107
48.4712
49.0986
48.2405
47.8585
47.7331
47.6866
47.6402
47.5871
47.5352
47.4915
47.4577
47.4346
47.4189
47.412
47.4086
47.4128
47.4172
47.4295
47.4388
47.4578
47.4702
47.4953
47.5097
47.5409
47.556
47.5937
47.6084
47.653
47.6661
47.7181
47.7289
47.7869
47.7973
47.8565
47.8685
47.9304
48.4419
47.6137
47.2449
47.1167
47.0581
46.9985
46.935
46.8765
46.8292
46.7939
46.7705
46.7557
46.7499
46.7484
46.7542
46.7608
46.7749
46.7865
46.8073
46.8221
46.8491
46.8658
46.899
46.9164
46.9562
46.973
47.02
47.035
47.0894
47.1021
47.1625
47.1746
47.2359
47.2498
47.3133
47.7237
46.9425
46.5694
46.4184
46.334
46.2543
46.1783
46.1128
46.0621
46.026
46.0031
45.9898
45.9857
45.9865
45.9944
46.0036
46.0198
46.0342
46.057
46.0746
46.1037
46.1231
46.1584
46.1784
46.2205
46.2398
46.2891
46.3064
46.3634
46.378
46.4411
46.4551
46.5187
46.5345
46.5997
46.8461
46.1178
45.7525
45.5889
45.4832
45.3844
45.2957
45.2229
45.1688
45.1316
45.1091
45.0972
45.0946
45.0977
45.1074
45.1192
45.1372
45.1543
45.1789
45.1993
45.2301
45.2523
45.2894
45.3121
45.3562
45.378
45.4297
45.4492
45.5088
45.5254
45.5914
45.6072
45.6736
45.6914
45.7592
45.8228
45.1592
44.7864
44.5955
44.4588
44.3358
44.2325
44.1513
44.0936
44.0553
44.0333
44.0227
44.0219
44.0269
44.0384
44.0524
44.072
44.0914
44.1173
44.1401
44.172
44.1968
44.235
44.2604
44.3058
44.3303
44.3837
44.4058
44.4677
44.4865
44.5554
44.5729
44.6427
44.6617
44.7331
44.5801
44.0028
43.6094
43.3736
43.1919
43.0368
42.9156
42.8239
42.7616
42.7199
42.6966
42.6842
42.6826
42.6862
42.6969
42.71
42.7288
42.7481
42.7734
42.7971
42.8288
42.8555
42.8939
42.9221
42.9682
42.9959
43.0512
43.0755
43.1416
43.161
43.2356
43.2536
43.3287
43.3502
43.4265
43.0294
42.415
41.9892
41.7319
41.5223
41.339
41.1959
41.0842
41.007
40.9503
40.9166
40.8929
40.8844
40.8804
40.8876
40.8965
40.9146
40.9329
40.9596
40.9849
41.0193
41.0496
41.0918
41.1247
41.1748
41.2081
41.2674
41.2986
41.3684
41.3956
41.4749
41.4993
41.5821
41.6071
41.6944
40.8418
40.5279
39.9109
39.4666
39.12
38.8462
38.649
38.5029
38.409
38.3423
38.3096
38.2881
38.2904
38.2953
38.3188
38.3402
38.3775
38.4103
38.4574
38.4984
38.5536
38.601
38.6597
38.7094
38.7718
38.8232
38.8913
38.9417
39.0178
39.0636
39.1479
39.1889
39.2792
39.3169
39.4171
37.8608
40.6879
39.8749
38.9233
38.1229
37.5073
37.0703
36.7566
36.5483
36.3998
36.3118
36.2492
36.2251
36.2084
36.2198
36.2292
36.2618
36.2869
36.3329
36.3683
36.4231
36.4661
36.5267
36.5762
36.6405
36.6963
36.7626
36.8243
36.8919
36.9571
37.0291
37.0891
37.1798
37.2148
37.3572
14.2727
12.6912
12.77
12.9812
13.2318
13.4507
13.6581
13.8337
14.0047
14.1482
14.2917
14.4109
14.5344
14.6365
14.7468
14.8375
14.9399
15.0234
15.122
15.2009
15.2987
15.3743
15.4736
15.5455
15.6487
15.7152
15.8251
15.8826
16.0029
16.0461
16.1816
16.2028
16.3587
16.3481
16.5229
37.6239
37.2103
36.9818
36.8886
36.8736
36.8849
36.8933
36.8953
36.889
36.881
36.8696
36.8599
36.8488
36.8403
36.8312
36.8244
36.8179
36.8126
36.8088
36.8041
36.8033
36.7985
36.801
36.7951
36.8016
36.7933
36.8047
36.7931
36.8098
36.7946
36.8166