/*--------------------------------*- C++ -*----------------------------------*\
  =========                 |
  \\      /  F ield         | OpenFOAM: The Open Source CFD Toolbox
   \\    /   O peration     | Website:  https://openfoam.org
    \\  /    A nd           | Version:  6
     \\/     M anipulation  |
\*---------------------------------------------------------------------------*/
FoamFile
{
    version     2.0;
    format      ascii;
    class       volScalarField;
    location    "25";
    object      p;
}
// * * * * * * * * * * * * * * * * * * * * * * * * * * * * * * * * * * * * * //

dimensions      [0 2 -2 0 0 0 0];

internalField   nonuniform List<scalar> 
380496
(
0.0126628
0.0130155
0.0127754
0.0127073
0.0126603
0.0126108
0.012565
0.0125188
0.0124719
0.0124246
0.0123771
0.0123294
0.0122818
0.0122343
0.0121869
0.0121397
0.0120923
0.0120446
0.0119963
0.0119469
0.0118961
0.0118432
0.0117878
0.0117291
0.0116665
0.0115993
0.011527
0.0114485
0.0113636
0.011271
0.0111718
0.0110627
0.0109508
0.0108227
0.0107117
0.0126393
0.012983
0.012754
0.0126914
0.0126482
0.0126014
0.0125566
0.0125104
0.0124624
0.0124132
0.012363
0.012312
0.0122604
0.0122083
0.0121558
0.0121027
0.012049
0.0119944
0.0119386
0.0118812
0.0118219
0.0117601
0.0116954
0.011627
0.0115546
0.0114773
0.0113947
0.011306
0.0112111
0.0111084
0.0109995
0.0108787
0.010757
0.0106069
0.0104859
0.012612
0.0129492
0.0127307
0.0126743
0.0126353
0.012591
0.0125473
0.0125007
0.0124513
0.0123997
0.0123462
0.0122912
0.012235
0.0121776
0.0121192
0.0120595
0.0119986
0.0119362
0.011872
0.0118055
0.0117366
0.0116644
0.0115889
0.0115092
0.011425
0.0113355
0.0112406
0.0111392
0.0110317
0.0109163
0.0107955
0.0106627
0.0105322
0.0103721
0.0102507
0.0125774
0.0129118
0.012706
0.0126572
0.0126234
0.0125824
0.0125401
0.0124935
0.0124429
0.0123893
0.0123331
0.0122746
0.0122143
0.0121523
0.0120887
0.0120234
0.0119564
0.0118873
0.0118159
0.0117419
0.011665
0.0115846
0.0115005
0.0114119
0.0113187
0.0112201
0.011116
0.0110055
0.0108892
0.0107649
0.0106359
0.0104943
0.0103563
0.0101851
0.0100581
0.0125456
0.0128709
0.0126807
0.0126404
0.0126122
0.0125745
0.0125335
0.0124867
0.0124348
0.0123789
0.0123196
0.0122575
0.0121929
0.012126
0.0120571
0.0119859
0.0119125
0.0118365
0.0117579
0.0116762
0.0115912
0.0115023
0.0114093
0.0113117
0.0112093
0.0111013
0.0109879
0.0108681
0.0107426
0.0106094
0.010472
0.0103223
0.010178
0.00999962
0.00987135
0.0125017
0.0128265
0.012654
0.0126238
0.0126021
0.0125684
0.0125289
0.0124821
0.012429
0.0123709
0.0123088
0.0122432
0.0121746
0.0121033
0.0120295
0.011953
0.011874
0.0117919
0.0117069
0.0116184
0.0115264
0.0114302
0.0113298
0.0112246
0.0111146
0.010999
0.0108781
0.0107509
0.0106184
0.0104784
0.0103348
0.0101787
0.0100295
0.0098445
0.00971411
0.0124562
0.0127785
0.0126268
0.0126081
0.0125936
0.012564
0.012526
0.012479
0.0124245
0.0123642
0.0122991
0.0122299
0.0121574
0.0120817
0.012003
0.0119214
0.0118367
0.0117488
0.0116576
0.0115626
0.0114638
0.0113607
0.0112533
0.0111409
0.0110236
0.0109009
0.0107729
0.0106389
0.0104998
0.0103535
0.0102042
0.0100426
0.00988935
0.00969934
0.0095686
0.0124024
0.0127274
0.0126
0.0125942
0.0125875
0.012562
0.0125254
0.0124781
0.0124222
0.0123595
0.0122916
0.0122191
0.0121428
0.012063
0.0119799
0.0118935
0.0118038
0.0117106
0.0116139
0.0115131
0.0114084
0.0112993
0.0111857
0.0110672
0.0109438
0.0108151
0.0106814
0.0105418
0.0103975
0.0102461
0.0100925
0.00992669
0.00977046
0.00957628
0.00944557
0.0123406
0.0126744
0.0125737
0.0125822
0.0125839
0.0125625
0.0125272
0.0124795
0.012422
0.0123571
0.0122864
0.0122107
0.012131
0.0120474
0.0119604
0.0118697
0.0117756
0.0116778
0.0115761
0.0114704
0.0113606
0.0112463
0.0111275
0.0110037
0.0108753
0.0107415
0.010603
0.0104587
0.0103102
0.0101548
0.00999775
0.00982852
0.00967009
0.00947265
0.00934239
0.0122806
0.0126263
0.0125523
0.0125744
0.0125837
0.0125654
0.0125309
0.0124825
0.0124234
0.0123564
0.0122831
0.0122047
0.012122
0.0120352
0.0119448
0.0118506
0.0117528
0.0116511
0.0115455
0.0114357
0.0113218
0.0112032
0.0110802
0.0109524
0.0108199
0.0106822
0.0105399
0.0103922
0.0102405
0.0100822
0.00992267
0.00975101
0.00959117
0.00939126
0.00926175
0.0122047
0.0125756
0.0125304
0.012568
0.0125856
0.0125706
0.0125367
0.0124874
0.0124266
0.0123574
0.0122817
0.0122006
0.0121151
0.0120254
0.0119318
0.0118345
0.0117333
0.0116282
0.0115191
0.0114057
0.0112881
0.011166
0.0110394
0.010908
0.010772
0.0106311
0.0104857
0.0103351
0.0101807
0.0100201
0.00985863
0.0096851
0.00952428
0.00932243
0.00919388
0.0121306
0.0125301
0.0125135
0.0125661
0.0125908
0.0125779
0.012544
0.0124935
0.0124309
0.0123595
0.0122814
0.0121979
0.0121098
0.0120175
0.0119212
0.0118211
0.0117171
0.011609
0.0114969
0.0113805
0.0112598
0.0111346
0.011005
0.0108706
0.0107318
0.0105882
0.0104404
0.0102875
0.0101312
0.00996877
0.00980592
0.00963106
0.0094697
0.00926639
0.00913895
0.0120353
0.0124845
0.0124972
0.0125665
0.0125988
0.0125877
0.0125534
0.0125015
0.0124368
0.0123632
0.0122828
0.012197
0.0121065
0.0120117
0.011913
0.0118104
0.0117038
0.0115932
0.0114785
0.0113594
0.0112361
0.0111083
0.0109761
0.0108393
0.0106982
0.0105524
0.0104025
0.0102478
0.0100899
0.00992624
0.00976244
0.00958669
0.00942512
0.00922083
0.00909461
0.0119403
0.0124464
0.0124855
0.0125707
0.0126089
0.0125985
0.0125634
0.0125098
0.012443
0.0123673
0.0122848
0.0121968
0.0121042
0.0120074
0.0119066
0.0118018
0.0116931
0.0115803
0.0114634
0.0113422
0.0112167
0.0110867
0.0109525
0.0108136
0.0106706
0.010523
0.0103716
0.0102155
0.0100565
0.00989195
0.00972757
0.00955136
0.00938983
0.009185
0.00905985
0.011825
0.0124135
0.012477
0.0125795
0.012623
0.0126124
0.0125758
0.0125199
0.0124509
0.0123729
0.0122882
0.0121982
0.0121037
0.0120049
0.0119022
0.0117956
0.011685
0.0115703
0.0114515
0.0113285
0.0112012
0.0110695
0.0109335
0.010793
0.0106484
0.0104995
0.0103468
0.0101897
0.0100299
0.00986481
0.00970016
0.00952392
0.00936269
0.00915807
0.00903407
0.0117024
0.0123891
0.0124705
0.0125893
0.0126368
0.0126255
0.0125873
0.0125293
0.0124581
0.0123781
0.0122916
0.0121998
0.0121036
0.0120032
0.011899
0.0117908
0.0116787
0.0115626
0.0114423
0.0113178
0.011189
0.0110559
0.0109185
0.0107768
0.010631
0.010481
0.0103274
0.0101697
0.0100094
0.00984399
0.0096793
0.00950338
0.00934241
0.0091384
0.00901447
0.0115693
0.0123771
0.0124718
0.012607
0.0126559
0.0126421
0.0126013
0.0125405
0.0124668
0.0123847
0.0122963
0.0122028
0.012105
0.0120033
0.0118976
0.0117881
0.0116747
0.0115574
0.0114359
0.0113102
0.0111803
0.011046
0.0109076
0.0107649
0.0106182
0.0104674
0.0103132
0.0101549
0.00999433
0.00982893
0.00966445
0.00948931
0.0093289
0.00912721
0.00900347
0.0114184
0.0123724
0.0124692
0.0126211
0.0126713
0.0126556
0.0126125
0.0125493
0.0124737
0.0123898
0.0122999
0.0122052
0.0121063
0.0120034
0.0118968
0.0117863
0.0116721
0.0115537
0.0114314
0.0113049
0.0111741
0.0110391
0.0108999
0.0107565
0.0106092
0.0104579
0.0103032
0.0101447
0.00998391
0.00981873
0.00965446
0.0094804
0.00931986
0.00912067
0.00899206
0.0112725
0.0123884
0.01248
0.0126447
0.012692
0.0126725
0.0126261
0.0125602
0.0124823
0.0123966
0.0123053
0.0122092
0.0121093
0.0120054
0.011898
0.0117867
0.0116717
0.0115527
0.0114297
0.0113025
0.0111713
0.0110356
0.0108959
0.010752
0.0106043
0.0104526
0.0102977
0.010139
0.00997824
0.00981334
0.00964954
0.00947691
0.00931751
0.00912412
0.00899284
0.0111183
0.0123962
0.0124797
0.0126609
0.0127063
0.0126844
0.0126357
0.0125678
0.0124885
0.0124017
0.0123095
0.0122127
0.0121122
0.0120078
0.0118999
0.0117881
0.0116727
0.0115533
0.0114299
0.0113023
0.0111707
0.0110347
0.0108947
0.0107506
0.0106026
0.0104507
0.0102956
0.0101369
0.0099761
0.00981158
0.00964795
0.009477
0.00931689
0.00912941
0.00898519
0.0110412
0.0124213
0.0124914
0.0126811
0.0127231
0.0126986
0.0126477
0.0125778
0.012497
0.012409
0.0123158
0.0122182
0.012117
0.0120121
0.0119037
0.0117916
0.0116758
0.0115561
0.0114325
0.0113047
0.0111729
0.0110367
0.0108966
0.0107523
0.0106043
0.0104524
0.0102973
0.0101386
0.00997798
0.0098136
0.00965062
0.00948045
0.00932475
0.00914179
0.00903225
0.0126621
0.0130141
0.0127753
0.0127074
0.0126603
0.0126108
0.012565
0.0125188
0.0124719
0.0124246
0.012377
0.0123294
0.0122818
0.0122343
0.0121869
0.0121397
0.0120923
0.0120446
0.0119963
0.0119469
0.0118961
0.0118432
0.0117878
0.0117291
0.0116666
0.0115994
0.0115271
0.0114486
0.0113637
0.0112712
0.011172
0.0110629
0.010951
0.010823
0.010712
0.0126383
0.0129816
0.0127539
0.0126915
0.0126483
0.0126014
0.0125566
0.0125104
0.0124624
0.0124132
0.012363
0.012312
0.0122604
0.0122083
0.0121558
0.0121027
0.012049
0.0119944
0.0119386
0.0118813
0.011822
0.0117602
0.0116954
0.011627
0.0115546
0.0114773
0.0113948
0.0113061
0.0112113
0.0111085
0.0109996
0.0108789
0.0107572
0.0106071
0.0104862
0.012611
0.0129478
0.0127307
0.0126743
0.0126353
0.012591
0.0125473
0.0125007
0.0124513
0.0123997
0.0123462
0.0122912
0.012235
0.0121776
0.0121192
0.0120595
0.0119987
0.0119362
0.011872
0.0118055
0.0117366
0.0116645
0.011589
0.0115092
0.0114251
0.0113356
0.0112407
0.0111393
0.0110318
0.0109164
0.0107956
0.0106629
0.0105324
0.0103724
0.010251
0.0125765
0.0129104
0.0127059
0.0126572
0.0126234
0.0125824
0.0125401
0.0124935
0.0124429
0.0123893
0.0123331
0.0122746
0.0122144
0.0121523
0.0120887
0.0120234
0.0119564
0.0118873
0.011816
0.011742
0.0116651
0.0115846
0.0115005
0.0114119
0.0113187
0.0112201
0.0111161
0.0110056
0.0108893
0.0107651
0.0106361
0.0104945
0.0103565
0.0101854
0.0100583
0.0125445
0.0128696
0.0126807
0.0126405
0.0126122
0.0125745
0.0125335
0.0124867
0.0124348
0.0123789
0.0123196
0.0122575
0.0121929
0.012126
0.0120571
0.0119859
0.0119125
0.0118365
0.0117579
0.0116762
0.0115912
0.0115023
0.0114094
0.0113117
0.0112093
0.0111014
0.0109879
0.0108682
0.0107427
0.0106095
0.0104722
0.0103224
0.0101781
0.00999983
0.00987158
0.0125007
0.0128252
0.012654
0.0126239
0.0126022
0.0125684
0.0125289
0.0124821
0.012429
0.0123709
0.0123088
0.0122432
0.0121746
0.0121034
0.0120295
0.0119531
0.011874
0.011792
0.0117069
0.0116185
0.0115264
0.0114303
0.0113299
0.0112247
0.0111146
0.0109991
0.0108782
0.010751
0.0106185
0.0104785
0.0103349
0.0101788
0.0100296
0.0098447
0.0097143
0.0124551
0.0127773
0.0126268
0.0126082
0.0125937
0.012564
0.012526
0.012479
0.0124245
0.0123642
0.0122991
0.0122299
0.0121574
0.0120817
0.0120031
0.0119214
0.0118368
0.0117488
0.0116576
0.0115626
0.0114639
0.0113608
0.0112533
0.0111409
0.0110237
0.0109009
0.010773
0.010639
0.0104999
0.0103536
0.0102043
0.0100427
0.00988946
0.00969951
0.00956876
0.0124013
0.0127262
0.0125999
0.0125942
0.0125876
0.012562
0.0125254
0.0124781
0.0124222
0.0123595
0.0122916
0.0122191
0.0121428
0.012063
0.0119799
0.0118935
0.0118038
0.0117106
0.0116139
0.0115132
0.0114085
0.0112993
0.0111857
0.0110672
0.0109439
0.0108152
0.0106814
0.0105418
0.0103975
0.0102462
0.0100926
0.00992679
0.00977056
0.00957644
0.00944571
0.0123395
0.0126732
0.0125736
0.0125822
0.012584
0.0125625
0.0125272
0.0124795
0.012422
0.0123571
0.0122864
0.0122107
0.012131
0.0120474
0.0119604
0.0118697
0.0117756
0.0116778
0.0115762
0.0114705
0.0113607
0.0112463
0.0111275
0.0110038
0.0108753
0.0107416
0.010603
0.0104588
0.0103102
0.0101549
0.00999782
0.00982861
0.00967017
0.00947279
0.00934251
0.0122794
0.0126252
0.0125522
0.0125744
0.0125837
0.0125654
0.0125309
0.0124825
0.0124234
0.0123564
0.0122831
0.0122047
0.012122
0.0120352
0.0119448
0.0118506
0.0117528
0.0116511
0.0115455
0.0114357
0.0113218
0.0112033
0.0110803
0.0109524
0.0108199
0.0106822
0.01054
0.0103923
0.0102405
0.0100823
0.00992273
0.00975109
0.00959124
0.00939138
0.00926185
0.0122036
0.0125745
0.0125303
0.012568
0.0125856
0.0125706
0.0125367
0.0124874
0.0124266
0.0123574
0.0122817
0.0122006
0.0121151
0.0120254
0.0119318
0.0118345
0.0117333
0.0116282
0.0115191
0.0114058
0.0112882
0.011166
0.0110394
0.010908
0.010772
0.0106311
0.0104857
0.0103351
0.0101808
0.0100202
0.00985868
0.00968517
0.00952434
0.00932253
0.00919397
0.0121293
0.0125291
0.0125134
0.0125661
0.0125908
0.0125779
0.012544
0.0124935
0.0124309
0.0123595
0.0122814
0.0121979
0.0121098
0.0120175
0.0119212
0.0118211
0.0117171
0.011609
0.0114969
0.0113805
0.0112598
0.0111346
0.011005
0.0108707
0.0107319
0.0105882
0.0104404
0.0102875
0.0101312
0.00996882
0.00980597
0.00963112
0.00946975
0.00926648
0.00913903
0.0120342
0.0124836
0.0124971
0.0125665
0.0125988
0.0125877
0.0125534
0.0125015
0.0124368
0.0123632
0.0122828
0.012197
0.0121065
0.0120117
0.011913
0.0118104
0.0117038
0.0115932
0.0114785
0.0113594
0.0112362
0.0111084
0.0109762
0.0108393
0.0106982
0.0105524
0.0104025
0.0102479
0.01009
0.00992628
0.00976247
0.00958674
0.00942516
0.00922092
0.00909467
0.0119391
0.0124456
0.0124854
0.0125707
0.0126089
0.0125985
0.0125634
0.0125098
0.012443
0.0123673
0.0122848
0.0121968
0.0121042
0.0120074
0.0119066
0.0118018
0.0116931
0.0115803
0.0114634
0.0113422
0.0112167
0.0110868
0.0109525
0.0108137
0.0106706
0.010523
0.0103716
0.0102156
0.0100566
0.00989199
0.00972761
0.00955141
0.00938987
0.00918508
0.0090599
0.0118239
0.0124127
0.012477
0.0125795
0.012623
0.0126124
0.0125758
0.0125199
0.0124509
0.0123729
0.0122882
0.0121982
0.0121037
0.0120049
0.0119022
0.0117956
0.011685
0.0115703
0.0114515
0.0113285
0.0112012
0.0110695
0.0109335
0.010793
0.0106484
0.0104995
0.0103468
0.0101898
0.01003
0.00986484
0.00970019
0.00952396
0.00936272
0.00915814
0.00903412
0.0117013
0.0123884
0.0124705
0.0125893
0.0126368
0.0126255
0.0125873
0.0125292
0.012458
0.0123781
0.0122915
0.0121998
0.0121036
0.0120032
0.011899
0.0117908
0.0116787
0.0115626
0.0114423
0.0113178
0.011189
0.0110559
0.0109186
0.0107768
0.0106311
0.0104811
0.0103275
0.0101697
0.0100094
0.00984402
0.00967933
0.00950342
0.00934243
0.00913847
0.00901452
0.0115682
0.0123765
0.0124718
0.012607
0.0126559
0.0126421
0.0126013
0.0125405
0.0124668
0.0123847
0.0122963
0.0122028
0.012105
0.0120032
0.0118976
0.0117881
0.0116748
0.0115574
0.0114359
0.0113102
0.0111803
0.0110461
0.0109076
0.0107649
0.0106182
0.0104675
0.0103132
0.010155
0.00999435
0.00982897
0.00966448
0.00948935
0.00932893
0.00912728
0.00900352
0.0114176
0.0123719
0.0124691
0.0126211
0.0126713
0.0126556
0.0126125
0.0125493
0.0124737
0.0123898
0.0122999
0.0122052
0.0121063
0.0120034
0.0118968
0.0117864
0.0116721
0.0115538
0.0114314
0.0113049
0.0111741
0.0110391
0.0109
0.0107566
0.0106092
0.0104579
0.0103032
0.0101447
0.00998395
0.00981877
0.00965449
0.00948044
0.0093199
0.00912074
0.00899211
0.0112717
0.012388
0.0124799
0.0126447
0.012692
0.0126725
0.0126261
0.0125602
0.0124823
0.0123966
0.0123053
0.0122093
0.0121093
0.0120055
0.011898
0.0117867
0.0116717
0.0115527
0.0114298
0.0113026
0.0111713
0.0110357
0.010896
0.0107521
0.0106043
0.0104527
0.0102977
0.0101391
0.00997828
0.00981339
0.00964958
0.00947696
0.00931755
0.00912419
0.00899286
0.0111174
0.0123962
0.0124798
0.012661
0.0127065
0.0126845
0.0126358
0.0125679
0.0124886
0.0124018
0.0123096
0.0122128
0.0121122
0.0120078
0.0118999
0.0117882
0.0116728
0.0115533
0.0114299
0.0113024
0.0111707
0.0110348
0.0108948
0.0107506
0.0106026
0.0104508
0.0102956
0.010137
0.00997614
0.00981163
0.00964799
0.00947705
0.00931695
0.00912945
0.00898516
0.0110425
0.0124218
0.0124916
0.0126812
0.0127231
0.0126986
0.0126476
0.0125777
0.0124969
0.0124089
0.0123157
0.0122182
0.012117
0.012012
0.0119036
0.0117915
0.0116758
0.011556
0.0114324
0.0113046
0.0111728
0.0110367
0.0108966
0.0107523
0.0106043
0.0104523
0.0102972
0.0101386
0.00997791
0.00981354
0.00965055
0.00948039
0.00932468
0.00914175
0.00903226
0.0126646
0.0130114
0.0127751
0.0127075
0.0126604
0.0126109
0.012565
0.0125188
0.0124719
0.0124246
0.012377
0.0123294
0.0122818
0.0122343
0.0121869
0.0121397
0.0120923
0.0120446
0.0119963
0.0119469
0.0118961
0.0118432
0.0117878
0.0117291
0.0116666
0.0115994
0.0115271
0.0114486
0.0113637
0.0112712
0.011172
0.0110629
0.010951
0.010823
0.0107121
0.0126409
0.012979
0.0127537
0.0126915
0.0126483
0.0126014
0.0125566
0.0125104
0.0124624
0.0124132
0.012363
0.012312
0.0122604
0.0122083
0.0121558
0.0121027
0.012049
0.0119944
0.0119386
0.0118813
0.011822
0.0117602
0.0116954
0.0116271
0.0115546
0.0114774
0.0113948
0.0113062
0.0112113
0.0111085
0.0109997
0.010879
0.0107573
0.0106072
0.0104863
0.0126135
0.0129453
0.0127305
0.0126744
0.0126354
0.012591
0.0125473
0.0125007
0.0124512
0.0123997
0.0123462
0.0122912
0.012235
0.0121776
0.0121192
0.0120595
0.0119987
0.0119362
0.011872
0.0118055
0.0117366
0.0116645
0.011589
0.0115092
0.0114251
0.0113356
0.0112407
0.0111393
0.0110319
0.0109164
0.0107956
0.0106629
0.0105324
0.0103724
0.0102511
0.0125789
0.0129079
0.0127057
0.0126573
0.0126235
0.0125825
0.0125401
0.0124935
0.0124429
0.0123893
0.0123331
0.0122746
0.0122143
0.0121523
0.0120887
0.0120234
0.0119564
0.0118873
0.011816
0.011742
0.0116651
0.0115847
0.0115005
0.0114119
0.0113187
0.0112201
0.0111161
0.0110057
0.0108894
0.0107651
0.0106361
0.0104945
0.0103565
0.0101855
0.0100584
0.0125469
0.0128673
0.0126805
0.0126405
0.0126122
0.0125745
0.0125335
0.0124867
0.0124348
0.0123789
0.0123196
0.0122575
0.0121929
0.012126
0.0120571
0.0119859
0.0119125
0.0118365
0.0117579
0.0116762
0.0115912
0.0115023
0.0114094
0.0113117
0.0112093
0.0111014
0.010988
0.0108682
0.0107427
0.0106095
0.0104722
0.0103225
0.0101781
0.00999988
0.00987165
0.0125031
0.0128229
0.0126538
0.0126239
0.0126022
0.0125684
0.0125289
0.0124821
0.012429
0.0123709
0.0123088
0.0122432
0.0121746
0.0121033
0.0120295
0.0119531
0.011874
0.011792
0.0117069
0.0116185
0.0115264
0.0114303
0.0113299
0.0112247
0.0111146
0.0109991
0.0108782
0.010751
0.0106185
0.0104785
0.0103349
0.0101789
0.0100296
0.00984476
0.00971439
0.0124574
0.0127751
0.0126266
0.0126082
0.0125937
0.012564
0.012526
0.012479
0.0124245
0.0123641
0.0122991
0.0122299
0.0121574
0.0120817
0.0120031
0.0119214
0.0118368
0.0117488
0.0116576
0.0115627
0.0114639
0.0113608
0.0112533
0.0111409
0.0110237
0.010901
0.010773
0.010639
0.0104999
0.0103536
0.0102043
0.0100428
0.00988949
0.00969957
0.00956885
0.0124035
0.012724
0.0125998
0.0125943
0.0125876
0.012562
0.0125254
0.0124781
0.0124222
0.0123595
0.0122915
0.0122191
0.0121428
0.012063
0.0119799
0.0118935
0.0118038
0.0117106
0.0116139
0.0115132
0.0114085
0.0112993
0.0111857
0.0110672
0.0109439
0.0108152
0.0106814
0.0105418
0.0103976
0.0102463
0.0100927
0.00992684
0.00977058
0.00957651
0.00944582
0.0123417
0.0126712
0.0125735
0.0125823
0.012584
0.0125625
0.0125272
0.0124795
0.012422
0.0123571
0.0122863
0.0122107
0.012131
0.0120474
0.0119604
0.0118697
0.0117756
0.0116778
0.0115762
0.0114705
0.0113607
0.0112463
0.0111275
0.0110038
0.0108753
0.0107416
0.010603
0.0104588
0.0103102
0.0101549
0.00999785
0.00982865
0.00967019
0.00947286
0.00934262
0.0122815
0.0126233
0.012552
0.0125745
0.0125837
0.0125654
0.0125309
0.0124825
0.0124234
0.0123564
0.0122831
0.0122047
0.012122
0.0120352
0.0119448
0.0118506
0.0117528
0.0116511
0.0115455
0.0114357
0.0113218
0.0112033
0.0110803
0.0109524
0.0108199
0.0106823
0.01054
0.0103923
0.0102405
0.0100823
0.00992275
0.00975114
0.00959127
0.00939146
0.00926196
0.0122056
0.0125726
0.0125302
0.0125681
0.0125857
0.0125706
0.0125367
0.0124874
0.0124266
0.0123574
0.0122817
0.0122006
0.0121151
0.0120254
0.0119318
0.0118345
0.0117333
0.0116282
0.0115191
0.0114058
0.0112882
0.011166
0.0110394
0.010908
0.010772
0.0106311
0.0104857
0.0103352
0.0101808
0.0100202
0.00985871
0.00968521
0.00952436
0.00932261
0.00919408
0.0121312
0.0125274
0.0125133
0.0125661
0.0125908
0.0125779
0.012544
0.0124935
0.0124308
0.0123595
0.0122814
0.0121979
0.0121098
0.0120175
0.0119212
0.0118211
0.0117171
0.011609
0.0114969
0.0113805
0.0112598
0.0111346
0.011005
0.0108707
0.0107319
0.0105883
0.0104404
0.0102876
0.0101312
0.00996885
0.00980599
0.00963117
0.00946977
0.00926656
0.00913914
0.0120361
0.0124819
0.012497
0.0125666
0.0125988
0.0125877
0.0125534
0.0125015
0.0124368
0.0123632
0.0122828
0.012197
0.0121065
0.0120117
0.011913
0.0118104
0.0117038
0.0115932
0.0114785
0.0113595
0.0112362
0.0111084
0.0109762
0.0108394
0.0106982
0.0105524
0.0104025
0.0102479
0.01009
0.00992632
0.0097625
0.00958679
0.00942518
0.009221
0.00909478
0.0119407
0.0124441
0.0124853
0.0125707
0.0126089
0.0125985
0.0125634
0.0125097
0.012443
0.0123673
0.0122848
0.0121968
0.0121042
0.0120074
0.0119066
0.0118018
0.0116931
0.0115803
0.0114634
0.0113422
0.0112167
0.0110868
0.0109525
0.0108137
0.0106706
0.0105231
0.0103716
0.0102156
0.0100566
0.00989202
0.00972763
0.00955145
0.00938989
0.00918516
0.00906002
0.0118255
0.0124114
0.0124769
0.0125795
0.012623
0.0126124
0.0125758
0.0125199
0.0124508
0.0123729
0.0122882
0.0121982
0.0121036
0.0120049
0.0119022
0.0117956
0.011685
0.0115703
0.0114515
0.0113285
0.0112012
0.0110695
0.0109335
0.010793
0.0106484
0.0104995
0.0103468
0.0101898
0.01003
0.00986488
0.00970022
0.00952401
0.00936275
0.00915823
0.00903424
0.0117027
0.0123872
0.0124704
0.0125893
0.0126368
0.0126254
0.0125872
0.0125292
0.012458
0.012378
0.0122915
0.0121998
0.0121035
0.0120032
0.011899
0.0117908
0.0116787
0.0115626
0.0114423
0.0113178
0.011189
0.0110559
0.0109186
0.0107769
0.0106311
0.0104811
0.0103275
0.0101697
0.0100094
0.00984406
0.00967936
0.00950347
0.00934246
0.00913857
0.00901464
0.0115695
0.0123756
0.0124718
0.012607
0.0126559
0.0126421
0.0126012
0.0125405
0.0124668
0.0123847
0.0122963
0.0122028
0.012105
0.0120032
0.0118976
0.0117881
0.0116747
0.0115574
0.0114359
0.0113102
0.0111803
0.0110461
0.0109076
0.0107649
0.0106183
0.0104675
0.0103132
0.010155
0.00999438
0.00982902
0.00966451
0.00948941
0.00932896
0.00912739
0.00900365
0.0114187
0.012371
0.0124691
0.0126211
0.0126713
0.0126556
0.0126124
0.0125493
0.0124736
0.0123898
0.0122999
0.0122052
0.0121063
0.0120034
0.0118968
0.0117864
0.0116721
0.0115538
0.0114314
0.0113049
0.0111742
0.0110392
0.0109
0.0107566
0.0106093
0.010458
0.0103033
0.0101448
0.00998399
0.00981883
0.00965454
0.00948052
0.00931994
0.00912085
0.00899222
0.0112725
0.0123876
0.0124799
0.0126446
0.012692
0.0126725
0.0126261
0.0125602
0.0124823
0.0123966
0.0123053
0.0122093
0.0121093
0.0120055
0.011898
0.0117868
0.0116718
0.0115528
0.0114298
0.0113026
0.0111713
0.0110357
0.010896
0.0107521
0.0106044
0.0104527
0.0102978
0.0101391
0.00997834
0.00981346
0.00964964
0.00947704
0.0093176
0.0091243
0.00899295
0.011118
0.012396
0.0124801
0.0126612
0.0127067
0.0126847
0.012636
0.0125681
0.0124887
0.0124019
0.0123097
0.0122129
0.0121123
0.0120079
0.0119
0.0117882
0.0116728
0.0115534
0.01143
0.0113024
0.0111708
0.0110348
0.0108948
0.0107506
0.0106027
0.0104508
0.0102957
0.010137
0.0099762
0.00981168
0.00964805
0.0094771
0.009317
0.00912944
0.00898469
0.0110436
0.0124222
0.0124917
0.0126812
0.0127231
0.0126985
0.0126475
0.0125777
0.0124968
0.0124088
0.0123156
0.0122181
0.0121169
0.012012
0.0119036
0.0117914
0.0116757
0.0115559
0.0114323
0.0113046
0.0111727
0.0110366
0.0108965
0.0107522
0.0106042
0.0104523
0.0102971
0.0101385
0.00997783
0.00981346
0.00965047
0.00948032
0.00932458
0.00914174
0.00903251
0.0126681
0.0130079
0.0127749
0.0127075
0.0126604
0.0126109
0.012565
0.0125188
0.0124719
0.0124246
0.012377
0.0123294
0.0122818
0.0122343
0.0121869
0.0121397
0.0120923
0.0120446
0.0119963
0.0119469
0.0118961
0.0118432
0.0117878
0.0117291
0.0116666
0.0115994
0.0115271
0.0114486
0.0113637
0.0112712
0.011172
0.011063
0.010951
0.0108231
0.0107123
0.0126442
0.0129756
0.0127535
0.0126916
0.0126484
0.0126014
0.0125566
0.0125104
0.0124624
0.0124132
0.012363
0.012312
0.0122604
0.0122083
0.0121558
0.0121027
0.012049
0.0119944
0.0119386
0.0118813
0.011822
0.0117602
0.0116954
0.0116271
0.0115547
0.0114774
0.0113949
0.0113062
0.0112113
0.0111086
0.0109997
0.010879
0.0107573
0.0106073
0.0104865
0.0126168
0.012942
0.0127303
0.0126744
0.0126354
0.0125911
0.0125473
0.0125006
0.0124512
0.0123996
0.0123462
0.0122912
0.012235
0.0121776
0.0121192
0.0120595
0.0119986
0.0119362
0.011872
0.0118055
0.0117366
0.0116645
0.011589
0.0115093
0.0114251
0.0113356
0.0112407
0.0111394
0.0110319
0.0109164
0.0107957
0.010663
0.0105324
0.0103725
0.0102512
0.0125822
0.0129046
0.0127055
0.0126573
0.0126235
0.0125825
0.0125401
0.0124935
0.0124429
0.0123893
0.0123331
0.0122746
0.0122143
0.0121523
0.0120887
0.0120234
0.0119564
0.0118873
0.011816
0.011742
0.0116651
0.0115847
0.0115005
0.011412
0.0113188
0.0112202
0.0111161
0.0110057
0.0108894
0.0107651
0.0106361
0.0104946
0.0103566
0.0101856
0.0100586
0.0125501
0.0128641
0.0126803
0.0126406
0.0126123
0.0125746
0.0125335
0.0124867
0.0124348
0.0123789
0.0123196
0.0122575
0.0121929
0.012126
0.0120571
0.0119859
0.0119125
0.0118365
0.0117579
0.0116762
0.0115912
0.0115023
0.0114094
0.0113118
0.0112093
0.0111014
0.010988
0.0108682
0.0107427
0.0106095
0.0104722
0.0103225
0.0101782
0.00999997
0.00987183
0.0125062
0.0128197
0.0126536
0.012624
0.0126023
0.0125685
0.0125289
0.0124821
0.012429
0.0123709
0.0123088
0.0122432
0.0121746
0.0121033
0.0120295
0.0119531
0.011874
0.011792
0.0117069
0.0116185
0.0115264
0.0114303
0.0113299
0.0112247
0.0111147
0.0109991
0.0108782
0.0107511
0.0106186
0.0104785
0.010335
0.010179
0.0100297
0.00984487
0.00971459
0.0124604
0.012772
0.0126264
0.0126083
0.0125937
0.012564
0.012526
0.012479
0.0124245
0.0123641
0.012299
0.0122299
0.0121574
0.0120817
0.012003
0.0119214
0.0118367
0.0117488
0.0116576
0.0115627
0.0114639
0.0113608
0.0112533
0.011141
0.0110237
0.010901
0.010773
0.010639
0.0105
0.0103536
0.0102044
0.0100428
0.00988952
0.00969967
0.00956906
0.0124064
0.0127211
0.0125996
0.0125943
0.0125876
0.012562
0.0125254
0.0124781
0.0124221
0.0123595
0.0122915
0.0122191
0.0121428
0.012063
0.0119799
0.0118935
0.0118038
0.0117106
0.0116139
0.0115132
0.0114085
0.0112993
0.0111858
0.0110673
0.0109439
0.0108152
0.0106815
0.0105419
0.0103976
0.0102463
0.0100927
0.00992689
0.00977062
0.00957661
0.00944604
0.0123445
0.0126683
0.0125733
0.0125823
0.012584
0.0125625
0.0125272
0.0124795
0.012422
0.0123571
0.0122863
0.0122107
0.012131
0.0120474
0.0119604
0.0118697
0.0117756
0.0116778
0.0115762
0.0114705
0.0113607
0.0112463
0.0111275
0.0110038
0.0108753
0.0107416
0.010603
0.0104588
0.0103103
0.010155
0.00999787
0.0098287
0.00967022
0.00947296
0.00934284
0.0122841
0.0126206
0.0125519
0.0125745
0.0125838
0.0125654
0.0125309
0.0124825
0.0124234
0.0123563
0.0122831
0.0122047
0.0121219
0.0120352
0.0119448
0.0118506
0.0117528
0.0116511
0.0115455
0.0114358
0.0113218
0.0112033
0.0110803
0.0109524
0.0108199
0.0106823
0.01054
0.0103923
0.0102406
0.0100823
0.00992277
0.00975119
0.00959129
0.00939156
0.00926219
0.0122082
0.01257
0.0125301
0.0125681
0.0125857
0.0125706
0.0125367
0.0124874
0.0124266
0.0123574
0.0122817
0.0122006
0.012115
0.0120254
0.0119318
0.0118345
0.0117333
0.0116282
0.0115191
0.0114058
0.0112882
0.011166
0.0110394
0.010908
0.010772
0.0106311
0.0104857
0.0103352
0.0101808
0.0100202
0.00985873
0.00968526
0.00952438
0.00932272
0.00919432
0.0121336
0.012525
0.0125131
0.0125661
0.0125908
0.0125779
0.012544
0.0124935
0.0124308
0.0123595
0.0122814
0.0121979
0.0121098
0.0120175
0.0119212
0.0118211
0.0117171
0.011609
0.0114969
0.0113805
0.0112598
0.0111346
0.011005
0.0108707
0.0107319
0.0105883
0.0104404
0.0102876
0.0101312
0.00996889
0.00980601
0.00963121
0.00946979
0.00926667
0.00913938
0.0120384
0.0124796
0.0124969
0.0125666
0.0125988
0.0125877
0.0125534
0.0125014
0.0124368
0.0123632
0.0122828
0.0121969
0.0121064
0.0120117
0.011913
0.0118104
0.0117038
0.0115932
0.0114785
0.0113595
0.0112362
0.0111084
0.0109762
0.0108394
0.0106982
0.0105524
0.0104025
0.0102479
0.01009
0.00992634
0.00976251
0.00958683
0.0094252
0.00922111
0.00909503
0.0119428
0.012442
0.0124852
0.0125707
0.0126089
0.0125985
0.0125634
0.0125097
0.012443
0.0123673
0.0122847
0.0121968
0.0121042
0.0120074
0.0119066
0.0118018
0.0116931
0.0115803
0.0114634
0.0113422
0.0112167
0.0110868
0.0109525
0.0108137
0.0106706
0.0105231
0.0103716
0.0102156
0.0100566
0.00989205
0.00972764
0.0095515
0.0093899
0.00918527
0.00906026
0.0118275
0.0124094
0.0124769
0.0125795
0.012623
0.0126124
0.0125757
0.0125199
0.0124508
0.0123729
0.0122882
0.0121982
0.0121036
0.0120049
0.0119022
0.0117956
0.011685
0.0115703
0.0114515
0.0113285
0.0112012
0.0110695
0.0109335
0.010793
0.0106484
0.0104995
0.0103468
0.0101898
0.01003
0.0098649
0.00970023
0.00952405
0.00936276
0.00915834
0.00903449
0.0117045
0.0123855
0.0124703
0.0125893
0.0126368
0.0126254
0.0125872
0.0125292
0.012458
0.012378
0.0122915
0.0121997
0.0121035
0.0120032
0.0118989
0.0117908
0.0116787
0.0115625
0.0114423
0.0113178
0.011189
0.0110559
0.0109186
0.0107769
0.0106311
0.0104811
0.0103275
0.0101698
0.0100094
0.00984409
0.00967937
0.00950351
0.00934247
0.00913868
0.00901489
0.011571
0.0123741
0.0124718
0.012607
0.0126559
0.0126421
0.0126012
0.0125404
0.0124667
0.0123846
0.0122962
0.0122028
0.012105
0.0120032
0.0118976
0.0117881
0.0116747
0.0115573
0.0114359
0.0113102
0.0111803
0.0110461
0.0109076
0.0107649
0.0106183
0.0104675
0.0103132
0.010155
0.0099944
0.00982906
0.00966453
0.00948946
0.00932898
0.00912751
0.00900391
0.0114201
0.0123698
0.0124692
0.0126211
0.0126713
0.0126556
0.0126124
0.0125493
0.0124736
0.0123897
0.0122999
0.0122051
0.0121062
0.0120034
0.0118968
0.0117864
0.0116721
0.0115538
0.0114314
0.0113049
0.0111742
0.0110392
0.0109
0.0107566
0.0106093
0.010458
0.0103033
0.0101448
0.00998403
0.00981888
0.00965458
0.00948059
0.00931998
0.00912098
0.00899244
0.0112738
0.0123869
0.0124801
0.0126447
0.012692
0.0126724
0.0126261
0.0125602
0.0124823
0.0123966
0.0123053
0.0122093
0.0121093
0.0120055
0.0118981
0.0117868
0.0116718
0.0115528
0.0114298
0.0113027
0.0111714
0.0110358
0.0108961
0.0107522
0.0106044
0.0104528
0.0102978
0.0101392
0.0099784
0.00981353
0.00964969
0.00947711
0.00931765
0.00912442
0.00899314
0.01112
0.0123955
0.0124803
0.0126615
0.012707
0.0126849
0.0126362
0.0125682
0.0124888
0.012402
0.0123098
0.012213
0.0121124
0.012008
0.0119001
0.0117883
0.0116729
0.0115534
0.01143
0.0113025
0.0111708
0.0110348
0.0108948
0.0107507
0.0106027
0.0104508
0.0102957
0.010137
0.00997621
0.00981169
0.00964807
0.00947711
0.009317
0.00912934
0.00898373
0.0110434
0.0124228
0.012492
0.0126813
0.0127232
0.0126985
0.0126475
0.0125776
0.0124967
0.0124087
0.0123156
0.012218
0.0121168
0.0120119
0.0119035
0.0117914
0.0116756
0.0115559
0.0114323
0.0113045
0.0111727
0.0110366
0.0108964
0.0107522
0.0106041
0.0104522