/*--------------------------------*- C++ -*----------------------------------*\
  =========                 |
  \\      /  F ield         | OpenFOAM: The Open Source CFD Toolbox
   \\    /   O peration     | Website:  https://openfoam.org
    \\  /    A nd           | Version:  6
     \\/     M anipulation  |
\*---------------------------------------------------------------------------*/
FoamFile
{
    version     2.0;
    format      ascii;
    class       volScalarField;
    location    "1.2";
    object      k;
}
// * * * * * * * * * * * * * * * * * * * * * * * * * * * * * * * * * * * * * //

dimensions      [0 2 -2 0 0 0 0];

internalField   nonuniform List<scalar> 
63400
(
0.000413535
0.000397868
0.000388973
0.000377254
0.000373358
0.000367228
0.000365363
0.000364693
0.000378765
0.000371037
0.000364349
0.000357441
0.000350461
0.000347726
0.000340747
0.000345963
0.000327882
0.000325902
0.00032346
0.000323047
0.000320149
0.000322193
0.000316825
0.000324413
0.000302397
0.000299318
0.000295314
0.000294701
0.000291192
0.000293909
0.000289101
0.000297165
0.000270244
0.000270634
0.000268777
0.000269796
0.000267612
0.000270481
0.000266502
0.000273653
0.000235179
0.000235856
0.000235409
0.000237767
0.000237774
0.000242256
0.00024045
0.000248366
0.000219034
0.000218338
0.000216452
0.000217306
0.000216535
0.000220163
0.000218603
0.000225927
0.000193939
0.000195085
0.000194637
0.000195553
0.000194351
0.000196886
0.000194756
0.000201474
0.000171286
0.000172878
0.000173169
0.000174839
0.000173968
0.000175765
0.000173129
0.000178233
0.000147043
0.000148776
0.000149319
0.000151133
0.000151147
0.000153613
0.000152265
0.000157735
0.000128239
0.000129669
0.000129926
0.000131016
0.00013058
0.000132711
0.00013196
0.000137427
0.000108014
0.000109487
0.000110568
0.000112915
0.000114032
0.000117114
0.000117248
0.000122212
9.37812e-05
9.44784e-05
9.50669e-05
9.72978e-05
9.88269e-05
0.000102248
0.000102831
0.000107171
8.72817e-05
8.77303e-05
8.77146e-05
8.8838e-05
8.91397e-05
9.11346e-05
9.07605e-05
9.38665e-05
7.48478e-05
7.56741e-05
7.58997e-05
7.67719e-05
7.66452e-05
7.78142e-05
7.68407e-05
7.89495e-05
6.33566e-05
6.40904e-05
6.43058e-05
6.51172e-05
6.505e-05
6.59764e-05
6.51369e-05
6.65453e-05
5.00958e-05
5.07376e-05
5.1017e-05
5.17681e-05
5.18399e-05
5.26788e-05
5.19986e-05
5.31971e-05
3.95897e-05
4.00239e-05
4.02357e-05
4.0827e-05
4.11477e-05
4.2045e-05
4.17971e-05
4.27247e-05
2.62472e-05
2.65658e-05
2.67584e-05
2.72225e-05
2.7697e-05
2.87001e-05
2.88978e-05
2.9952e-05
1.26192e-05
1.2901e-05
1.27752e-05
1.24433e-05
1.22525e-05
1.28036e-05
1.37772e-05
1.55718e-05
4.09522e-05
4.19348e-05
4.2325e-05
4.23488e-05
4.20006e-05
4.32141e-05
4.42719e-05
4.74129e-05
0.00109291
0.00108763
0.00108799
0.00108283
0.00108189
0.00107767
0.00107402
0.00107436
0.00107624
0.00107409
0.00107284
0.00107154
0.00106922
0.00106897
0.00106401
0.00106574
0.00105487
0.00105499
0.00105353
0.00105373
0.00105101
0.00105274
0.00104845
0.00105283
0.00103741
0.00103822
0.00103622
0.00103795
0.00103519
0.00103803
0.00103398
0.00103869
0.00101677
0.00101876
0.00101718
0.00101936
0.0010176
0.00102107
0.00101819
0.00102404
0.000992547
0.00099463
0.000993153
0.000995339
0.000993645
0.000997767
0.000995649
0.0010028
0.0009741
0.000975744
0.000973726
0.000975154
0.000973062
0.000977132
0.000975789
0.000984093
0.000949729
0.000952712
0.000952873
0.000956025
0.000954287
0.000958083
0.000954762
0.000962477
0.000920801
0.00092477
0.000925837
0.000931255
0.000931905
0.000936942
0.000933408
0.000939666
0.000887658
0.000892799
0.000894298
0.000899164
0.000899245
0.000904097
0.000900597
0.000907812
0.000851911
0.00085786
0.000860464
0.000865404
0.000864021
0.000867624
0.000863601
0.000871526
0.000809625
0.000812582
0.000813065
0.000818351
0.000819723
0.000827342
0.000827746
0.000838678
0.000772261
0.000773373
0.000771907
0.000776754
0.000779493
0.000790403
0.000794264
0.000807772
0.000746648
0.000748734
0.00074793
0.000752145
0.00075302
0.000761417
0.000762632
0.000774389
0.000708124
0.000712464
0.000713601
0.000718431
0.000718384
0.000724878
0.000722806
0.000731729
0.0006572
0.000661826
0.00066322
0.000668357
0.000668813
0.000675082
0.000673675
0.000681454
0.000594195
0.000598575
0.0006002
0.00060547
0.000606524
0.00061324
0.00061156
0.000619311
0.000522088
0.000525887
0.000527355
0.000531671
0.000534268
0.000542618
0.000544005
0.00055265
0.000417357
0.000420738
0.000422269
0.000426163
0.000430334
0.000441094
0.000445536
0.000457279
0.000257605
0.00026286
0.000262397
0.000257019
0.000251295
0.000255825
0.000266783
0.000289774
0.000137115
0.000138178
0.000137898
0.000136833
0.000134783
0.000135904
0.00013629
0.000140584
0.00117028
0.00116533
0.00116877
0.00116396
0.00116507
0.00116125
0.00115769
0.00115878
0.00114978
0.00114917
0.00114974
0.00115011
0.00114897
0.00115078
0.00114577
0.0011487
0.00112613
0.00112814
0.00112771
0.0011298
0.00112725
0.00113112
0.00112646
0.00113246
0.0011066
0.00110989
0.00110853
0.00111263
0.00110983
0.00111474
0.00111029
0.00111619
0.00108452
0.00108871
0.00108768
0.00109202
0.00109037
0.00109605
0.0010931
0.00110062
0.00106086
0.00106505
0.00106372
0.00106766
0.00106541
0.00107108
0.00106837
0.00107673
0.00104104
0.00104503
0.00104348
0.00104669
0.00104406
0.00104951
0.00104748
0.00105686
0.00101752
0.00102214
0.00102256
0.0010279
0.00102589
0.00103167
0.0010276
0.00103622
0.00098884
0.000994553
0.00099562
0.00100327
0.00100444
0.00101248
0.00100924
0.00101708
0.000959227
0.000966137
0.000967646
0.00097444
0.000974529
0.000981758
0.000977856
0.000986015
0.000924312
0.000932424
0.000936027
0.000944152
0.000943249
0.000948834
0.000943458
0.000950512
0.000888708
0.000892369
0.000891387
0.00089715
0.000896915
0.000905508
0.00090497
0.000915798
0.000856253
0.000858369
0.000854744
0.00085861
0.000858238
0.000869463
0.000872987
0.000887867
0.000826217
0.000829739
0.000828265
0.000833483
0.000833111
0.000843176
0.000844826
0.000858923
0.000796614
0.000802122
0.000802902
0.000809474
0.000808968
0.000817724
0.000816198
0.000827169
0.000746649
0.000752728
0.000754086
0.000761028
0.000761438
0.000769792
0.00076953
0.000780418
0.000698275
0.000703596
0.000704825
0.000711033
0.00071153
0.000720125
0.000719859
0.000730038
0.000623753
0.000628641
0.000630196
0.000634876
0.000636292
0.000646097
0.000649779
0.000663114
0.000548843
0.000552218
0.000552879
0.000555386
0.000556557
0.000566405
0.000572122
0.000587832
0.000425269
0.000432414
0.000435757
0.000431608
0.000418548
0.000411718
0.000409952
0.000424958
0.000191421
0.000192451
0.00019195
0.000190461
0.000187327
0.000187944
0.000187612
0.000192189
0.00118515
0.00118134
0.00118781
0.00118421
0.00118736
0.00118488
0.00118166
0.00118403
0.00116312
0.00116425
0.00116674
0.00116894
0.00116935
0.0011734
0.00116932
0.00117336
0.00113943
0.00114322
0.00114391
0.00114778
0.00114582
0.00115153
0.00114748
0.0011546
0.00111884
0.00112437
0.00112388
0.00113001
0.00112776
0.00113426
0.00113044
0.00113701
0.00109643
0.00110239
0.00110208
0.00110822
0.00110713
0.00111446
0.00111231
0.00112093
0.00107341
0.0010795
0.00107855
0.00108398
0.00108183
0.00108858
0.00108613
0.00109516
0.00105248
0.00105847
0.00105769
0.00106242
0.00105981
0.0010661
0.0010642
0.00107378
0.00102941
0.00103529
0.00103598
0.0010431
0.00104126
0.00104837
0.00104466
0.00105329
0.00100011
0.00100724
0.00100835
0.00101745
0.00101914
0.0010293
0.00102725
0.00103627
0.000971767
0.000980116
0.000981834
0.000990049
0.00099053
0.000999654
0.000996589
0.00100571
0.000935751
0.000945257
0.000949559
0.000960279
0.00096064
0.000968293
0.000963452
0.000970169
0.00090362
0.000908444
0.000907029
0.000913535
0.000912646
0.000921708
0.000921313
0.000931551
0.000872609
0.000876332
0.000872221
0.000875887
0.000873448
0.000883926
0.0008873
0.000902268
0.000837842
0.000842598
0.000840968
0.000847003
0.000845903
0.000856397
0.000858698
0.000873558
0.000811904
0.000818217
0.000818814
0.000826612
0.000826013
0.000835841
0.000835205
0.000846973
0.000760165
0.000767204
0.000768714
0.00077685
0.000777551
0.000786669
0.000787114
0.000799416
0.000718728
0.000724786
0.00072611
0.000732887
0.000733166
0.00074209
0.000742744
0.000753731
0.000641216
0.000646631
0.000648509
0.000653571
0.000654028
0.000663095
0.000667006
0.000681762
0.000594244
0.000597356
0.000597411
0.000599063
0.00059791
0.000604531
0.000607947
0.000622581
0.000504705
0.000512326
0.000517812
0.000515861
0.00049977
0.000487149
0.000476119
0.00048307
0.000243218
0.000244195
0.000243684
0.000242162
0.000238109
0.000237994
0.000236745
0.000241232
0.00117699
0.00117452
0.00118351
0.00118145
0.00118638
0.00118591
0.00118317
0.00118731
0.00115439
0.0011571
0.00116137
0.00116528
0.00116712
0.00117342
0.00117072
0.00117624
0.00113106
0.00113646
0.00113832
0.00114384
0.00114272
0.00115011
0.00114709
0.00115544
0.00110998
0.00111737
0.00111784
0.00112564
0.00112423
0.00113206
0.0011293
0.00113668
0.00108775
0.00109511
0.0010956
0.0011032
0.00110289
0.00111147
0.00111041
0.00112013
0.00106523
0.00107297
0.00107267
0.00107931
0.00107771
0.00108534
0.00108348
0.0010932
0.00104374
0.00105129
0.00105155
0.00105758
0.00105539
0.00106221
0.00106076
0.00107032
0.00102123
0.00102809
0.00102902
0.00103749
0.00103618
0.00104411
0.00104125
0.00104965
0.000991493
0.00099975
0.00100096
0.00101083
0.00101293
0.00102441
0.00102383
0.00103387
0.000964189
0.000973522
0.000975569
0.000984664
0.000985634
0.00099612
0.000994383
0.00100464
0.000927447
0.000937574
0.00094219
0.000954699
0.000956651
0.00096622
0.000962899
0.00097002
0.000898509
0.000904447
0.000903165
0.000910279
0.000909332
0.000918317
0.000918428
0.000928071
0.000868584
0.000873929
0.000870354
0.00087417
0.000870492
0.000879357
0.000882264
0.000896395
0.000830402
0.000836058
0.000834627
0.000841123
0.000839746
0.000849662
0.000852419
0.000867013
0.00080744
0.000814001
0.000814485
0.000822868
0.000822537
0.000832474
0.000832813
0.0008446
0.000755631
0.000762934
0.000764639
0.000773244
0.000774531
0.000783545
0.000784376
0.000796934
0.000720929
0.000727164
0.000728816
0.000735595
0.000736031
0.000744203
0.000745438
0.000756164
0.00064716
0.000652311
0.000654298
0.000659257
0.000659038
0.000665959
0.000668826
0.000682197
0.000635789
0.000638345
0.000637723
0.000638532
0.000635703
0.000638313
0.000637707
0.000647246
0.000575476
0.000582888
0.000589954
0.000591017
0.000573689
0.000557593
0.000539342
0.000539075
0.000294155
0.000294986
0.000294532
0.000293316
0.000288638
0.000287682
0.000285365
0.000289327
0.00115726
0.00115609
0.00116702
0.00116662
0.00117292
0.0011748
0.00117259
0.00117864
0.00113503
0.00113898
0.00114472
0.00115016
0.00115309
0.00116145
0.00116021
0.00116745
0.00111244
0.00111912
0.00112207
0.00112905
0.00112874
0.00113761
0.00113572
0.00114538
0.0010914
0.00110018
0.0011016
0.00111068
0.00111016
0.00111905
0.00111743
0.00112575
0.00106985
0.00107824
0.00107946
0.00108816
0.00108862
0.0010981
0.00109802
0.00110884
0.00104791
0.00105689
0.00105739
0.00106495
0.00106402
0.00107239
0.00107111
0.00108162
0.00102636
0.00103493
0.00103629
0.00104345
0.00104189
0.00104904
0.00104804
0.00105761
0.00100457
0.00101219
0.00101331
0.00102266
0.00102205
0.00103043
0.00102854
0.00103668
0.000974778
0.000983897
0.000985237
0.000995378
0.000997659
0.00100978
0.00101048
0.00102132
0.000948667
0.000958518
0.00096093
0.000970476
0.000971798
0.00098312
0.000982635
0.000994109
0.000911966
0.000922102
0.000926606
0.000939981
0.000943352
0.000954558
0.000953069
0.000961382
0.000886056
0.000892829
0.000892
0.000899532
0.000898903
0.00090754
0.000908074
0.000917479
0.000857071
0.000863756
0.000861329
0.00086562
0.000861542
0.000868549
0.000870545
0.000883314
0.000817133
0.000823319
0.000822293
0.000828934
0.00082762
0.000836422
0.000839174
0.000852851
0.000797059
0.000803375
0.000803724
0.000812052
0.000812158
0.000821629
0.0008227
0.000834013
0.000747595
0.000754522
0.000756306
0.000764694
0.000766593
0.000775124
0.00077592
0.00078786
0.000720179
0.000725953
0.000727933
0.000734225
0.000734989
0.000741893
0.000743171
0.00075291
0.000658199
0.000662398
0.000664061
0.000668375
0.000667676
0.000671935
0.000672881
0.000682658
0.000684591
0.000686588
0.000685251
0.000685355
0.000681531
0.000680857
0.000676054
0.000678554
0.000640632
0.000647658
0.000655757
0.000660311
0.000643032
0.000625502
0.000602146
0.000596652
0.000344866
0.000345476
0.000345007
0.000344307
0.000339389
0.000337694
0.000334326
0.000337422
0.00113147
0.00113134
0.00114355
0.00114471
0.00115188
0.00115611
0.0011544
0.00116216
0.00111039
0.0011151
0.00112186
0.00112859
0.00113216
0.00114216
0.00114222
0.00115113
0.00108888
0.00109636
0.00110015
0.00110833
0.00110866
0.00111869
0.00111781
0.00112868
0.0010683
0.00107792
0.0010801
0.00109013
0.00109034
0.00110002
0.00109938
0.00110859
0.00104784
0.00105684
0.00105859
0.00106803
0.00106912
0.00107917
0.00107976
0.00109145
0.00102664
0.0010363
0.00103756
0.0010458
0.00104544
0.00105442
0.00105356
0.0010648
0.00100539
0.0010144
0.0010167
0.00102483
0.00102393
0.00103133
0.00103063
0.00104026
0.00098445
0.000992573
0.00099382
0.00100363
0.0010037
0.00101229
0.00101123
0.00101913
0.000955006
0.000964726
0.000966193
0.000976266
0.000978485
0.000990652
0.000992224
0.00100345
0.000930372
0.000940315
0.000943001
0.000952708
0.000954136
0.000965798
0.000966197
0.000978608
0.000894625
0.000904363
0.000908374
0.000921735
0.000925967
0.000938355
0.000938514
0.000948475
0.000871567
0.000878757
0.000878467
0.000886218
0.000886063
0.000894302
0.000894952
0.000904478
0.000843431
0.00085097
0.000849897
0.000854892
0.00085116
0.000856581
0.000857371
0.00086851
0.000803501
0.000809857
0.000809295
0.000815828
0.000814781
0.000822314
0.00082461
0.000836877
0.000786551
0.000792248
0.00079239
0.000800077
0.000800558
0.00080923
0.000810711
0.000821126
0.000742156
0.000748209
0.000749843
0.000757413
0.000759661
0.000767556
0.000768069
0.000778651
0.000722925
0.000727663
0.00072972
0.000735115
0.000736132
0.000741588
0.000742468
0.000750594
0.000679744
0.000682603
0.000683496
0.000686731
0.000685602
0.000687306
0.000686162
0.000691039
0.000738962
0.000740666
0.000738736
0.00073843
0.000734067
0.000731503
0.000723597
0.000719403
0.000695756
0.000702412
0.000711118
0.000719434
0.000703087
0.000685783
0.000659197
0.000650757
0.000395142
0.000395549
0.000394952
0.000394774
0.000389964
0.000387806
0.000383624
0.000385741
0.00110331
0.00110378
0.00111658
0.00111902
0.00112656
0.00113284
0.00113158
0.00114063
0.00108388
0.00108882
0.00109603
0.00110376
0.00110756
0.00111864
0.00111965
0.00112987
0.00106366
0.00107136
0.00107559
0.00108472
0.00108543
0.00109623
0.00109611
0.00110792
0.00104378
0.00105365
0.00105628
0.00106694
0.00106767
0.00107782
0.00107791
0.0010878
0.00102468
0.00103382
0.00103583
0.00104569
0.00104719
0.00105752
0.00105841
0.00107057
0.00100439
0.00101408
0.0010159
0.00102462
0.00102464
0.00103405
0.0010334
0.00104512
0.00098361
0.00099251
0.000995391
0.00100431
0.00100403
0.00101162
0.00101103
0.00102072
0.000963538
0.000971899
0.000973177
0.00098309
0.000983726
0.000992328
0.000991892
0.000999585
0.000934868
0.000944892
0.000946439
0.000956238
0.000958218
0.000969961
0.000971974
0.000983052
0.000911979
0.000921667
0.000924423
0.000934092
0.000935409
0.000946955
0.000947829
0.000960581
0.0008781
0.000887213
0.000890482
0.000903127
0.0009075
0.000920438
0.000921764
0.000933309
0.000857761
0.0008649
0.000865051
0.000872818
0.000873116
0.000881011
0.000881441
0.00089123
0.000830479
0.000838267
0.000838414
0.000844148
0.000841319
0.000845705
0.000845287
0.000854752
0.000792259
0.00079842
0.000798264
0.000804475
0.000803797
0.000810126
0.000811725
0.000822228
0.000778907
0.000783707
0.000783575
0.000790141
0.000790772
0.000798391
0.000800043
0.000809171
0.000742274
0.000747108
0.000748333
0.000754619
0.000756787
0.000763863
0.0007641
0.000772756
0.000732201
0.000735523
0.000737254
0.000741415
0.000742447
0.000746396
0.000746673
0.000752635
0.000711805
0.000713304
0.000713157
0.000715107
0.000713536
0.00071311
0.000710314
0.000710055
0.000793245
0.000795063
0.00079284
0.000792594
0.000787923
0.000784845
0.00077547
0.000766604
0.000736084
0.000742265
0.000751263
0.000763548
0.000748703
0.000732868
0.000704615
0.000695429
0.000444219
0.000444525
0.000443779
0.000443984
0.000439446
0.000437099
0.000432486
0.000433757
0.00107499
0.0010756
0.00108837
0.00109168
0.00109915
0.00110701
0.00110615
0.00111598
0.0010574
0.00106213
0.00106922
0.0010776
0.00108129
0.00109291
0.00109445
0.00110543
0.00103848
0.00104593
0.00105013
0.0010599
0.00106081
0.00107194
0.00107231
0.00108466
0.00101942
0.00102903
0.00103172
0.00104271
0.00104375
0.00105407
0.00105461
0.00106493
0.00100178
0.00101064
0.00101261
0.00102258
0.00102429
0.00103466
0.00103558
0.00104771
0.000982527
0.000991686
0.000993721
0.00100273
0.00100294
0.0010126
0.00101199
0.00102384
0.000962245
0.000970623
0.000973614
0.000983053
0.00098331
0.000991085
0.000990471
0.00100013
0.000943001
0.000951319
0.000952528
0.000962243
0.000963287
0.000971769
0.00097174
0.000979269
0.000915558
0.000925539
0.000927086
0.000936465
0.00093814
0.000949118
0.000951226
0.000961679
0.000894622
0.000903791
0.00090637
0.000915808
0.000916904
0.000927933
0.00092899
0.000941352
0.000863471
0.000871832
0.000874271
0.000885736
0.000889605
0.000902364
0.000904265
0.000916829
0.000845828
0.000852482
0.000852876
0.00086044
0.000861058
0.000868653
0.000868622
0.000878525
0.000819618
0.000827014
0.000828029
0.000834303
0.00083267
0.000836603
0.000835235
0.000843173
0.000784676
0.000790246
0.00079036
0.000796027
0.000795745
0.000801007
0.000801909
0.000810486
0.0007756
0.000779259
0.000778815
0.000783916
0.000784428
0.000790716
0.000792399
0.000799928
0.000749045
0.000752442
0.00075304
0.000757722
0.000759402
0.000765321
0.00076544
0.000771843
0.000748829
0.000750612
0.000751635
0.000754304
0.000755071
0.000757479
0.000757168
0.00076058
0.000751202
0.000751625
0.000750433
0.000751162
0.00074918
0.000747189
0.000743479
0.000738784
0.000840917
0.00084324
0.000841135
0.000841603
0.000836762
0.000834233
0.000824923
0.000814235
0.000758052
0.000763233
0.000772143
0.000788682
0.000775771
0.000762179
0.00073338
0.000725339
0.000491294
0.000491527
0.000490756
0.000491241
0.000486971
0.000484511
0.000479787
0.000480433
0.0010472
0.00104761
0.00105985
0.00106363
0.00107069
0.0010796
0.00107909
0.00108927
0.00103136
0.00103567
0.00104217
0.00105081
0.00105419
0.00106588
0.00106762
0.00107877
0.00101366
0.00102055
0.00102432
0.00103439
0.00103538
0.00104648
0.00104708
0.00105955
0.000995426
0.00100443
0.00100682
0.00101781
0.00101903
0.00102928
0.00103001
0.0010405
0.000979255
0.000987532
0.000989194
0.000998979
0.00100073
0.00101095
0.00101176
0.00102345
0.000961057
0.000969331
0.000971222
0.000980315
0.000980597
0.000990288
0.000989669
0.00100127
0.000941282
0.000948914
0.000951577
0.000961198
0.00096187
0.000969803
0.000969124
0.000978626
0.000922887
0.000930894
0.000931939
0.000941202
0.000942483
0.000950743
0.000950929
0.000958341
0.000897201
0.000906759
0.000908207
0.000917012
0.000918396
0.000928395
0.00093037
0.000939887
0.000878426
0.000886874
0.000889059
0.000898013
0.000898869
0.000909037
0.000910134
0.000921456
0.000850818
0.000858322
0.000859973
0.000870007
0.000872956
0.000884818
0.000886753
0.000899422
0.000836
0.000841825
0.000842245
0.000849366
0.000850126
0.000857381
0.000856792
0.000866389
0.000811406
0.00081782
0.000819258
0.000825669
0.000825249
0.00082914
0.000827219
0.000833846
0.000781179
0.000785731
0.000785931
0.00079079
0.000790871
0.00079516
0.000795528
0.0008022
0.000777194
0.000779473
0.000778689
0.000782108
0.000782289
0.000786936
0.000788558
0.000794272
0.0007623
0.000764155
0.000763989
0.000766887
0.000767817
0.000772156
0.000772294
0.000776346
0.000771922
0.000772292
0.000772399
0.000773454
0.000773727
0.000774597
0.000773857
0.00077461
0.000793111
0.000792939
0.000790955
0.000790777
0.000788506
0.000785602
0.000781742
0.000773955
0.00087619
0.000879284
0.000877658
0.000879623
0.000874817
0.000873547
0.000865324
0.000855689
0.000760401
0.000763481
0.000771418
0.000792565
0.000782272
0.000771323
0.000742372
0.000736565
0.000536063
0.000536014
0.000535321
0.000536145
0.000532191
0.000529491
0.000524733
0.000524778
0.00101939
0.00101944
0.00103083
0.00103475
0.00104117
0.0010506
0.00105043
0.00106066
0.00100507
0.00100892
0.00101455
0.0010231
0.00102604
0.00103746
0.00103919
0.00105004
0.000988411
0.0009947
0.000997762
0.00100779
0.0010088
0.00101961
0.00102026
0.00103246
0.00097103
0.000979292
0.000981116
0.000991799
0.000993086
0.00100307
0.00100383
0.00101427
0.000956309
0.000963842
0.000965032
0.000974359
0.000976021
0.000985937
0.00098659
0.000997577
0.000939146
0.000946424
0.000947899
0.000956826
0.000957118
0.000966644
0.000966032
0.000977071
0.000919977
0.000926805
0.000928831
0.000938249
0.000939173
0.000947188
0.000946486
0.00095569
0.000902622
0.000910083
0.000910883
0.000919465
0.000920804
0.000928738
0.000928986
0.000936286
0.000879354
0.000888105
0.000889342
0.000897378
0.000898499
0.000907391
0.000909098
0.000917535
0.000863064
0.000870604
0.000872254
0.000880395
0.000881026
0.00089002
0.000891109
0.000900939
0.000839793
0.000846309
0.000847282
0.000855766
0.000857647
0.000867991
0.000869575
0.000881316
0.000828073
0.000832841
0.000833111
0.000839534
0.000840267
0.000847013
0.000845925
0.000854612
0.000805988
0.000810964
0.000812402
0.000818425
0.000818998
0.000822981
0.00082091
0.000826375
0.000781783
0.000784906
0.000784991
0.000788743
0.000789084
0.000792401
0.000792443
0.000797328
0.000783659
0.000784364
0.000783201
0.000784834
0.000784572
0.000787303
0.000788772
0.000792531
0.000780934
0.000781274
0.000780309
0.000781374
0.000781489
0.000783896
0.000784078
0.000785853
0.00079925
0.000798528
0.00079776
0.000797283
0.000796936
0.000796379
0.00079543
0.000793773
0.000832266
0.000832064
0.000829716
0.000829142
0.000826779
0.000823679
0.000820303
0.000811094
0.000895281
0.000899291
0.000898259
0.000902444
0.000898053
0.000898538
0.000891721
0.000885326
0.000745424
0.000745224
0.000750163
0.000775772
0.000769487
0.000761808
0.000732337
0.000728239
0.000578884
0.0005782
0.000577409
0.000578638
0.000575295
0.000572279
0.000567383
0.000566472
0.000990283
0.000989982
0.00100034
0.00100417
0.00100988
0.00101935
0.00101951
0.00102961
0.000977249
0.000980724
0.000985427
0.000993579
0.000996012
0.0010069
0.00100851
0.00101877
0.0009615
0.000967287
0.00096956
0.000979221
0.000980214
0.00099056
0.000991166
0.00100278
0.000945042
0.000952564
0.000953719
0.000963792
0.000965058
0.00097466
0.000975309
0.000985528
0.000931794
0.000938556
0.00093922
0.000947862
0.000949301
0.000958755
0.000959271
0.000969428
0.000915692
0.000922044
0.000922973
0.000931469
0.000931735
0.000940886
0.00094034
0.0009506
0.000897405
0.000903465
0.000904711
0.000913547
0.000914534
0.000922462
0.000921812
0.000930574
0.000881544
0.000888241
0.000888722
0.000896407
0.000897615
0.000905076
0.00090527
0.000912364
0.000861492
0.000869081
0.000869988
0.00087701
0.000877852
0.000885528
0.000886887
0.000894176
0.000848213
0.000854644
0.000855704
0.000862655
0.000863049
0.00087056
0.000871606
0.000879675
0.000830042
0.00083542
0.000835842
0.000842695
0.000843583
0.00085192
0.000852966
0.000862831
0.00082178
0.000825383
0.000825406
0.000830869
0.000831452
0.0008374
0.000835994
0.000843123
0.000803351
0.000806621
0.000807737
0.000812833
0.000814032
0.000817951
0.000816062
0.000820361
0.000786256
0.000787638
0.000787426
0.000789782
0.000790225
0.000792475
0.000792367
0.00079558
0.000794429
0.000793488
0.00079191
0.000791752
0.000791042
0.000791703
0.000792913
0.000794654
0.000803054
0.000802065
0.000800385
0.000799711
0.000799102
0.000799461
0.000799614
0.000799304
0.000827604
0.000826246
0.000824862
0.000823184
0.000822221
0.000820498
0.000819555
0.0008161
0.000863955
0.000864285
0.000862055
0.000861695
0.000859455
0.000856875
0.000854416
0.000845486
0.000897451
0.000902564
0.000901902
0.00090865
0.000905144
0.000907859
0.000902223
0.000900069
0.000719158
0.000716021
0.000714946
0.000743052
0.000742425
0.000739812
0.00070975
0.000704975
0.000620406
0.000618959
0.000617631
0.000619009
0.000616669
0.000613544
0.000608544
0.000606114
0.000958519
0.000957942
0.000967228
0.000970822
0.000975837
0.000984949
0.000985417
0.00099526
0.000946607
0.000949808
0.000953646
0.000961197
0.000963096
0.000973234
0.000974697
0.000984241
0.000931762
0.000937177
0.000938734
0.000947743
0.000948687
0.000958406
0.000958953
0.000969729
0.000916374
0.00092321
0.000923734
0.000932939
0.00093409
0.000943194
0.000943673
0.000953473
0.000904689
0.000910723
0.000910898
0.000918677
0.000919788
0.000928587
0.000928974
0.000938227
0.000889819
0.000895383
0.000895767
0.000903568
0.000903782
0.000912326
0.000911894
0.000921208
0.000872901
0.000878222
0.000878691
0.000886598
0.00088746
0.000895038
0.000894497
0.000902653
0.000859268
0.000864976
0.000865061
0.000871624
0.000872516
0.000879274
0.00087933
0.000885992
0.000843334
0.000849457
0.000849906
0.000855627
0.000856121
0.00086242
0.000863372
0.000869415
0.000833787
0.00083889
0.00083937
0.000844758
0.000844863
0.000850564
0.000851491
0.000857611
0.000821371
0.000825472
0.000825473
0.000830603
0.0008307
0.000836685
0.00083717
0.000844438
0.000816935
0.000819354
0.000819127
0.000823383
0.000823761
0.000828545
0.000827066
0.000832092
0.000803341
0.000804829
0.000805447
0.000809177
0.0008106
0.00081408
0.000812588
0.000815592
0.000794013
0.000793527
0.000792893
0.000793657
0.000794026
0.000795066
0.000794913
0.000796527
0.000808281
0.000805811
0.000803822
0.000801982
0.000800894
0.00079953
0.000800388
0.000800148
0.00082606
0.000824085
0.000821897
0.000819746
0.000818594
0.000817096
0.000817123
0.000815043
0.000853277
0.00085179
0.000850179
0.00084785
0.000846395
0.000843922
0.000843139
0.000838763
0.000884883
0.000886204
0.000884509
0.000884957
0.000882998
0.000881531
0.000880194
0.000873006
0.000885295
0.000891868
0.00089123
0.000900278
0.000897892
0.000903293
0.000898527
0.00090045
0.0006892
0.000686234
0.000677326
0.000703687
0.00070861
0.000713601
0.000684929
0.000677056
0.000661021
0.000659117
0.000656965
0.000657873
0.000656606
0.000653732
0.000649019
0.00064476
0.000923032
0.000922271
0.000930485
0.000933726
0.000938143
0.000946575
0.000947298
0.000956747
0.000912204
0.00091516
0.000918259
0.000925061
0.000926453
0.000935646
0.000936924
0.000945704
0.000898418
0.000903512
0.000904513
0.000912635
0.000913478
0.0009224
0.000922901
0.000932657
0.00088433
0.000890501
0.00089052
0.000898649
0.000899585
0.000908044
0.000908334
0.000917498
0.000874374
0.000879724
0.000879494
0.000886269
0.000886982
0.000894897
0.000895138
0.000903384
0.000861119
0.000865989
0.000865912
0.000872757
0.000872887
0.000880565
0.000880265
0.000888466
0.000846256
0.000850776
0.00085056
0.000857241
0.000857813
0.000864698
0.000864277
0.000871624
0.000835799
0.000840268
0.000839874
0.000845073
0.00084548
0.000851215
0.000851065
0.00085695
0.000824897
0.000829319
0.0008292
0.000833312
0.00083335
0.000838033
0.000838523
0.000843112
0.000819879
0.000823458
0.00082341
0.000826919
0.000826669
0.000830234
0.000830914
0.000834881
0.000813638
0.000816384
0.000816102
0.000819416
0.000818971
0.00082239
0.0008224
0.00082663
0.000813317
0.000814593
0.000814193
0.000817054
0.00081724
0.000820494
0.000819174
0.000821765
0.000805463
0.000805266
0.00080536
0.000807465
0.000808785
0.000811372
0.000810364
0.00081191
0.000803894
0.000801641
0.00080055
0.000799689
0.000799846
0.000799571
0.000799407
0.000799486
0.000823215
0.000819524
0.000817204
0.000813936
0.000812586
0.000809473
0.000809927
0.000807894
0.000846826
0.000844315
0.000841911
0.000838718
0.000837238
0.000834356
0.0008342
0.000830804
0.00087268
0.000871528
0.00087007
0.000867758
0.000866027
0.000863307
0.000862749
0.000858409
0.000893711
0.000896264
0.000895353
0.000897078
0.000895465
0.000895433
0.0008952
0.000890758
0.000863811
0.000872166
0.000871425
0.000882128
0.000880602
0.000888788
0.000884848
0.000890083
0.00066173
0.000662976
0.000647827
0.000668379
0.000675841
0.000689229
0.000665565
0.000654868
0.00070076
0.000698838
0.000696028
0.000695896
0.000695323
0.000692825
0.00068895
0.000683096
0.000883181
0.000882298
0.000889459
0.000892234
0.000896153
0.000903652
0.000904566
0.000913429
0.000873537
0.000876184
0.000878664
0.000884592
0.00088554
0.000893611
0.000894643
0.000902614
0.000861132
0.000865835
0.000866446
0.00087349
0.000874171
0.000882089
0.000882546
0.000891126
0.000848664
0.000854109
0.000853778
0.00086067
0.000861292
0.000868898
0.000869005
0.000877281
0.00084068
0.000845333
0.000844801
0.000850442
0.000850726
0.000857508
0.00085756
0.000864626
0.00082963
0.000833791
0.000833371
0.000839011
0.000839011
0.000845533
0.000845351
0.000852233
0.00081767
0.000821214
0.000820431
0.000825638
0.000825786
0.000831585
0.000831247
0.000837522
0.000811412
0.000814383
0.000813432
0.000817017
0.0008168
0.000821131
0.000820709
0.000825391
0.000806335
0.000808909
0.000808161
0.000810377
0.000809848
0.00081262
0.000812592
0.000815406
0.000806507
0.000808448
0.000807964
0.000809388
0.000808738
0.0008099
0.00081019
0.000811753
0.000806506
0.000807904
0.000807498
0.00080895
0.000808213
0.000808993
0.00080866
0.000809686
0.000810391
0.00081061
0.000810167
0.000811546
0.000811615
0.000813068
0.000812065
0.000812152
0.000808614
0.000806967
0.000806627
0.000807078
0.000808107
0.000809431
0.000808884
0.000808885
0.000813966
0.000810267
0.000808782
0.000806468
0.000806352
0.000804791
0.000804601
0.000803272
0.000836477
0.00083202
0.000829527
0.000825231
0.000823758
0.000819382
0.000819438
0.00081598
0.00086204
0.000859469
0.000857152
0.000853472
0.000851873
0.000848257
0.00084793
0.000843788
0.00088297
0.00088248
0.000881419
0.000879745
0.000877992
0.000875526
0.000875158
0.000871659
0.000891027
0.000894747
0.000894614
0.000897874
0.000896623
0.00089799
0.000898635
0.000897352
0.000838463
0.000848507
0.000847759
0.000859544
0.000858356
0.000868786
0.000865788
0.000873543
0.000640159
0.000647596
0.000630011
0.000643565
0.000649651
0.00066931
0.000653156
0.000642404
0.000739527