/*--------------------------------*- C++ -*----------------------------------*\
  =========                 |
  \\      /  F ield         | OpenFOAM: The Open Source CFD Toolbox
   \\    /   O peration     | Website:  https://openfoam.org
    \\  /    A nd           | Version:  6
     \\/     M anipulation  |
\*---------------------------------------------------------------------------*/
FoamFile
{
    version     2.0;
    format      ascii;
    class       volScalarField;
    location    "1.2";
    object      p;
}
// * * * * * * * * * * * * * * * * * * * * * * * * * * * * * * * * * * * * * //

dimensions      [0 2 -2 0 0 0 0];

internalField   nonuniform List<scalar> 
63400
(
0.00112992
0.00115459
0.00119407
0.00124434
0.00130522
0.00137215
0.00144406
0.00153521
0.00124612
0.00125374
0.00127446
0.00130687
0.00134672
0.0013991
0.0014416
0.0015263
0.00137982
0.00137393
0.00137993
0.00139829
0.00142143
0.00146135
0.00148284
0.00156219
0.00149647
0.00147825
0.00147078
0.00147608
0.00148453
0.00151305
0.00151685
0.00159089
0.00160737
0.00157956
0.00156146
0.00155585
0.00155164
0.00156941
0.00155781
0.00162395
0.00170403
0.00166756
0.00164036
0.00162594
0.00161188
0.00162123
0.0015981
0.00165827
0.00179901
0.00175502
0.00171933
0.00169617
0.00167256
0.00167313
0.0016391
0.00169204
0.00187646
0.00182723
0.00178563
0.00175636
0.00172587
0.00172033
0.00167811
0.00172611
0.0019473
0.00189253
0.00184498
0.00180971
0.00177258
0.00176179
0.00171187
0.00175894
0.00200116
0.00194272
0.00189119
0.0018521
0.00181059
0.00179677
0.00174089
0.00178908
0.00205088
0.00198843
0.00193244
0.00188911
0.00184309
0.00182609
0.0017651
0.00181464
0.00209053
0.00202584
0.00196736
0.00192127
0.00187207
0.00185191
0.00178726
0.00183225
0.00212456
0.0020572
0.00199563
0.00194632
0.00189378
0.00187049
0.00180351
0.00184657
0.00215388
0.00208471
0.00202088
0.00196897
0.00191376
0.0018876
0.00181825
0.00185739
0.00217385
0.00210295
0.00203702
0.00198279
0.00192534
0.0018975
0.00182763
0.00186942
0.00219238
0.00212008
0.00205243
0.00199588
0.00193613
0.00190542
0.0018342
0.00187217
0.00220332
0.00212973
0.00206069
0.00200187
0.00193944
0.00190614
0.00183593
0.00187769
0.00221389
0.00213945
0.00206936
0.00200918
0.00194521
0.00190751
0.00183656
0.00186823
0.00221762
0.00214272
0.00207157
0.00200826
0.00194035
0.00189845
0.0018302
0.00186275
0.00222312
0.00214767
0.00207617
0.00201476
0.00194961
0.0019059
0.00183796
0.00185453
0.00221868
0.00214303
0.00207059
0.00200596
0.00193733
0.00189009
0.00182663
0.00182693
0.00112943
0.00115415
0.00119366
0.00124398
0.00130489
0.00137188
0.00144381
0.00153504
0.00124574
0.00125336
0.0012741
0.00130653
0.00134642
0.00139881
0.00144139
0.00152607
0.00137957
0.00137368
0.00137969
0.00139806
0.00142122
0.00146113
0.0014827
0.00156202
0.00149624
0.00147802
0.00147056
0.00147588
0.00148435
0.00151286
0.00151672
0.00159072
0.00160719
0.00157937
0.00156129
0.00155567
0.00155149
0.00156923
0.0015577
0.00162379
0.00170388
0.00166742
0.00164023
0.0016258
0.00161177
0.0016211
0.00159802
0.00165815
0.00179887
0.00175489
0.00171921
0.00169606
0.00167247
0.00167302
0.00163905
0.00169193
0.00187635
0.00182711
0.00178551
0.00175624
0.00172576
0.0017202
0.00167804
0.00172599
0.00194721
0.00189244
0.0018449
0.00180961
0.00177248
0.00176165
0.00171179
0.00175879
0.00200109
0.00194263
0.0018911
0.001852
0.00181049
0.00179665
0.00174083
0.00178897
0.00205082
0.00198836
0.00193236
0.00188901
0.00184299
0.00182599
0.00176507
0.00181457
0.00209046
0.00202578
0.00196731
0.00192123
0.00187204
0.00185188
0.00178728
0.00183221
0.00212449
0.00205714
0.0019956
0.00194631
0.00189379
0.00187049
0.00180353
0.00184651
0.00215383
0.00208466
0.00202084
0.00196893
0.00191374
0.00188756
0.00181824
0.0018573
0.00217381
0.0021029
0.00203696
0.00198272
0.00192527
0.00189741
0.00182758
0.0018693
0.00219235
0.00212003
0.00205238
0.00199581
0.00193606
0.00190533
0.00183415
0.00187203
0.00220327
0.00212967
0.00206062
0.00200179
0.00193937
0.00190605
0.00183588
0.00187759
0.00221386
0.00213941
0.00206931
0.00200913
0.00194518
0.00190745
0.00183651
0.0018681
0.00221758
0.00214265
0.0020715
0.0020082
0.00194032
0.0018984
0.00183018
0.00186265
0.0022232
0.00214773
0.00207622
0.00201483
0.00194971
0.001906
0.0018381
0.00185468
0.00221882
0.00214322
0.00207081
0.00200613
0.00193739
0.0018902
0.0018268
0.00182762
0.00112938
0.00115411
0.00119359
0.00124392
0.00130481
0.00137179
0.00144374
0.00153514
0.00124564
0.00125324
0.00127397
0.00130641
0.00134629
0.00139866
0.00144126
0.00152592
0.00137951
0.0013736
0.00137961
0.00139797
0.00142114
0.00146104
0.00148265
0.00156198
0.00149617
0.00147794
0.00147049
0.00147579
0.00148428
0.00151277
0.00151666
0.00159068
0.00160712
0.00157929
0.00156121
0.0015556
0.00155142
0.00156915
0.00155766
0.00162376
0.0017038
0.00166731
0.00164013
0.0016257
0.00161168
0.00162101
0.00159799
0.00165814
0.00179881
0.0017548
0.00171913
0.00169598
0.00167241
0.00167297
0.00163905
0.00169195
0.00187627
0.00182703
0.00178544
0.00175615
0.00172569
0.00172012
0.00167801
0.00172595
0.00194716
0.00189239
0.00184486
0.00180957
0.00177243
0.00176156
0.00171172
0.00175868
0.00200103
0.00194256
0.00189103
0.00185192
0.0018104
0.00179653
0.00174076
0.00178889
0.0020508
0.00198833
0.00193231
0.0018889
0.00184288
0.00182585
0.00176501
0.00181455
0.00209037
0.00202568
0.00196724
0.00192116
0.00187202
0.00185185
0.00178731
0.00183227
0.00212439
0.00205703
0.00199554
0.00194628
0.00189383
0.00187053
0.00180361
0.00184656
0.00215377
0.0020846
0.00202081
0.0019689
0.00191374
0.00188755
0.00181828
0.00185728
0.00217376
0.00210284
0.0020369
0.00198263
0.0019252
0.00189731
0.00182754
0.0018692
0.00219232
0.00211998
0.00205232
0.00199572
0.00193598
0.00190522
0.0018341
0.0018719
0.00220322
0.00212959
0.00206054
0.00200168
0.00193926
0.00190592
0.00183582
0.0018775
0.00221384
0.00213935
0.00206924
0.00200906
0.00194515
0.00190739
0.00183651
0.00186798
0.00221753
0.00214256
0.00207139
0.00200809
0.00194027
0.00189835
0.00183021
0.00186256
0.00222332
0.00214783
0.00207628
0.0020149
0.00194982
0.00190612
0.00183828
0.00185483
0.00221928
0.0021437
0.00207129
0.00200657
0.00193781
0.00189068
0.00182751
0.00182859
0.00112928
0.00115401
0.00119347
0.00124381
0.00130468
0.00137168
0.00144362
0.00153534
0.00124543
0.00125301
0.00127373
0.00130616
0.00134604
0.00139839
0.00144103
0.00152574
0.0013794
0.00137346
0.00137947
0.00139781
0.00142101
0.00146088
0.00148255
0.00156199
0.00149608
0.00147782
0.00147038
0.00147567
0.00148418
0.00151264
0.00151658
0.0015907
0.00160703
0.00157919
0.00156111
0.00155548
0.00155134
0.00156904
0.00155761
0.00162381
0.00170373
0.0016672
0.00164003
0.00162558
0.00161159
0.0016209
0.00159795
0.00165822
0.00179875
0.00175472
0.00171904
0.00169588
0.00167236
0.00167291
0.00163906
0.00169208
0.00187619
0.00182694
0.00178536
0.00175605
0.00172562
0.00172002
0.00167798
0.00172603
0.00194713
0.00189234
0.00184483
0.00180952
0.0017724
0.00176146
0.00171168
0.00175869
0.00200099
0.00194249
0.00189096
0.00185182
0.00181033
0.0017964
0.00174071
0.00178896
0.00205081
0.00198831
0.00193228
0.00188881
0.00184278
0.0018257
0.00176495
0.00181467
0.00209029
0.00202558
0.00196717
0.00192109
0.001872
0.00185183
0.00178737
0.0018325
0.00212432
0.00205693
0.00199547
0.00194624
0.00189387
0.00187058
0.00180374
0.00184679
0.00215374
0.00208456
0.0020208
0.00196889
0.00191379
0.00188757
0.00181838
0.00185743
0.00217374
0.00210281
0.00203688
0.00198256
0.00192515
0.0018972
0.00182752
0.00186925
0.00219232
0.00211997
0.00205231
0.00199566
0.00193591
0.00190511
0.00183408
0.00187192
0.00220319
0.00212955
0.00206048
0.00200156
0.00193916
0.00190575
0.00183575
0.00187753
0.00221386
0.00213934
0.00206921
0.00200898
0.0019451
0.00190731
0.00183652
0.00186801
0.00221754
0.00214252
0.0020713
0.00200794
0.00194013
0.00189816
0.00183016
0.00186256
0.00222338
0.0021479
0.0020763
0.0020149
0.00194984
0.00190608
0.00183819
0.00185467
0.00221964
0.00214406
0.00207164
0.00200688
0.00193814
0.00189094
0.0018279
0.00182865
0.00112933
0.00115406
0.00119349
0.00124385
0.00130468
0.00137169
0.00144363
0.00153578
0.00124528
0.00125283
0.00127351
0.00130593
0.00134582
0.00139813
0.00144079
0.00152563
0.00137935
0.00137338
0.00137936
0.00139767
0.0014209
0.00146074
0.00148247
0.0015621
0.00149605
0.00147775
0.00147031
0.00147557
0.0014841
0.00151254
0.00151653
0.00159085
0.00160699
0.00157912
0.00156104
0.00155539
0.00155128
0.00156897
0.0015576
0.00162401
0.00170371
0.00166712
0.00163995
0.00162548
0.00161152
0.00162081
0.00159794
0.00165843
0.00179873
0.00175467
0.00171898
0.0016958
0.00167232
0.00167286
0.0016391
0.00169236
0.00187615
0.00182687
0.00178532
0.00175596
0.00172557
0.00171994
0.00167799
0.00172624
0.00194713
0.00189231
0.00184482
0.0018095
0.00177241
0.0017614
0.00171169
0.00175885
0.00200098
0.00194244
0.00189092
0.00185175
0.00181029
0.00179629
0.00174071
0.00178916
0.00205083
0.00198833
0.00193231
0.00188877
0.00184273
0.00182558
0.00176491
0.00181491
0.00209025
0.00202549
0.0019671
0.00192101
0.00187197
0.0018518
0.00178745
0.00183288
0.00212427
0.00205684
0.0019954
0.00194617
0.0018939
0.00187065
0.00180392
0.00184721
0.00215371
0.00208453
0.00202082
0.0019689
0.00191386
0.00188763
0.00181854
0.00185777
0.00217373
0.0021028
0.00203691
0.00198253
0.00192514
0.00189712
0.00182754
0.00186944
0.00219235
0.00211999
0.00205234
0.00199563
0.00193588
0.001905
0.00183408
0.00187209
0.00220321
0.00212956
0.00206048
0.00200149
0.00193907
0.00190557
0.00183566
0.0018776
0.00221393
0.0021394
0.00206923
0.00200892
0.00194504
0.00190717
0.00183649
0.00186814
0.00221763
0.00214256
0.00207129
0.00200782
0.00193994
0.0018978
0.00182989
0.00186241
0.00222346
0.00214801
0.00207631
0.00201481
0.00194975
0.00190595
0.00183798
0.00185434
0.00221988
0.0021443
0.00207188
0.00200712
0.00193846
0.0018912
0.00182823
0.00182816
0.00112955
0.00115428
0.00119367
0.00124404
0.00130486
0.00137186
0.00144379
0.00153652
0.00124517
0.00125269
0.00127332
0.00130572
0.00134561
0.00139788
0.00144055
0.00152561
0.00137936
0.00137335
0.00137929
0.00139756
0.00142082
0.00146062
0.00148241
0.00156235
0.00149608
0.00147775
0.00147029
0.00147551
0.00148407
0.00151248
0.00151653
0.00159116
0.00160701
0.00157909
0.00156101
0.00155533
0.00155126
0.00156892
0.00155765
0.00162438
0.00170375
0.00166711
0.00163991
0.0016254
0.00161149
0.00162075
0.00159799
0.0016588
0.00179876
0.00175467
0.00171895
0.00169573
0.0016723
0.00167283
0.00163919
0.0016928
0.00187616
0.00182684
0.0017853
0.0017559
0.00172555
0.00171988
0.00167804
0.0017266
0.00194717
0.00189231
0.00184483
0.00180949
0.00177247
0.00176139
0.00171178
0.00175917
0.002001
0.00194243
0.0018909
0.0018517
0.0018103
0.00179623
0.00174077
0.00178954
0.00205088
0.00198836
0.00193238
0.00188879
0.00184275
0.00182549
0.00176492
0.00181531
0.00209025
0.00202544
0.00196706
0.00192093
0.00187194
0.00185176
0.00178754
0.00183343
0.00212427
0.00205678
0.00199535
0.00194609
0.00189389
0.00187068
0.00180413
0.00184781
0.00215371
0.00208451
0.00202084
0.00196891
0.00191394
0.00188771
0.00181877
0.00185829
0.00217374
0.00210282
0.00203698
0.00198256
0.00192518
0.00189708
0.00182762
0.00186978
0.0021924
0.00212005
0.00205243
0.00199567
0.00193589
0.0019049
0.00183412
0.00187243
0.00220328
0.00212965
0.00206057
0.00200148
0.00193904
0.0019054
0.00183558
0.00187772
0.00221403
0.00213952
0.00206933
0.0020089
0.00194499
0.00190699
0.00183637
0.00186832
0.0022178
0.00214273
0.0020714
0.00200781
0.00193981
0.00189737
0.00182939
0.001862
0.00222352
0.00214818
0.00207633
0.00201456
0.0019494
0.00190558
0.00183764
0.00185389
0.00222001
0.00214446
0.00207204
0.00200729
0.00193882
0.00189153
0.00182867
0.00182721
0.00112994
0.00115469
0.00119404
0.00124443
0.00130523
0.00137223
0.00144415
0.0015376
0.0012451
0.0012526
0.00127318
0.00130552
0.00134542
0.00139765
0.00144032
0.00152574
0.00137943
0.00137338
0.00137928
0.00139749
0.00142077
0.00146053
0.00148238
0.00156275
0.00149618
0.00147781
0.00147034
0.0014755
0.00148409
0.00151246
0.00151659
0.00159167
0.00160706
0.00157911
0.00156102
0.00155529
0.00155127
0.0015689
0.00155776
0.00162496
0.00170385
0.00166716
0.00163992
0.00162536
0.00161149
0.00162071
0.00159808
0.00165937
0.00179881
0.00175471
0.00171897
0.00169567
0.00167229
0.00167281
0.00163932
0.00169342
0.00187621
0.00182684
0.00178532
0.00175587
0.00172555
0.00171984
0.00167815
0.00172711
0.00194726
0.00189233
0.00184487
0.00180951
0.00177256
0.00176143
0.00171196
0.00175969
0.00200106
0.00194246
0.00189093
0.00185168
0.00181035
0.00179621
0.00174092
0.00179013
0.00205094
0.00198842
0.00193249
0.00188886
0.00184284
0.00182545
0.00176502
0.0018159
0.0020903
0.00202542
0.00196704
0.00192086
0.00187191
0.0018517
0.00178766
0.00183416
0.00212433
0.00205677
0.00199532
0.00194601
0.00189388
0.00187068
0.00180434
0.00184859
0.00215373
0.0020845
0.00202087
0.00196893
0.00191403
0.0018878
0.00181906
0.00185902
0.00217378
0.00210287
0.0020371
0.00198265
0.00192531
0.00189709
0.00182778
0.00187027
0.00219246
0.00212014
0.00205257
0.00199577
0.00193599
0.00190483
0.00183421
0.00187296
0.00220339
0.00212982
0.00206075
0.00200159
0.00193912
0.00190528
0.00183552
0.0018779
0.00221415
0.0021397
0.00206949
0.00200894
0.00194499
0.0019068
0.0018362
0.00186854
0.00221802
0.00214301
0.00207167
0.00200797
0.00193986
0.00189704
0.00182885
0.00186136
0.00222352
0.00214841
0.00207641
0.00201417
0.00194875
0.00190493
0.00183724
0.00185341
0.00222002
0.0021445
0.00207209
0.00200737
0.00193916
0.00189188
0.00182922
0.00182573
0.00113048
0.00115528
0.00119461
0.00124503
0.00130583
0.00137283
0.00144472
0.00153905
0.00124505
0.00125255
0.00127307
0.00130535
0.00134524
0.00139744
0.0014401
0.00152606
0.00137952
0.00137346
0.00137933
0.00139745
0.00142076
0.00146047
0.00148237
0.00156332
0.00149631
0.00147793
0.00147045
0.00147555
0.00148416
0.00151249
0.00151671
0.00159239
0.00160714
0.00157917
0.00156106
0.00155529
0.00155131
0.0015689
0.00155791
0.00162576
0.00170397
0.00166728
0.00164
0.00162536
0.00161154
0.00162069
0.00159823
0.00166015
0.00179888
0.00175479
0.00171904
0.00169566
0.0016723
0.00167278
0.00163949
0.00169424
0.0018763
0.00182688
0.00178537
0.00175588
0.0017256
0.00171982
0.0016783
0.00172779
0.00194737
0.00189238
0.00184492
0.00180953
0.00177269
0.0017615
0.00171222
0.0017604
0.00200116
0.00194253
0.00189101
0.0018517
0.00181046
0.00179622
0.00174116
0.00179098
0.00205101
0.00198848
0.00193262
0.00188898
0.00184301
0.00182548
0.00176522
0.00181676
0.00209039
0.00202546
0.00196706
0.00192082
0.00187189
0.00185161
0.0017878
0.00183512
0.00212445
0.00205682
0.00199534
0.00194595
0.00189387
0.00187065
0.00180457
0.00184954
0.00215376
0.0020845
0.00202089
0.00196893
0.00191413
0.00188786
0.00181939
0.00185995
0.00217387
0.00210296
0.00203726
0.0019828
0.00192553
0.00189716
0.00182803
0.00187094
0.00219253
0.00212025
0.00205275
0.00199592
0.00193619
0.00190483
0.00183437
0.00187371
0.00220355
0.00213006
0.00206105
0.00200181
0.00193935
0.00190525
0.00183555
0.00187816
0.00221426
0.00213993
0.00206973
0.00200905
0.00194506
0.00190668
0.00183607
0.00186885
0.00221824
0.0021434
0.0020721
0.00200832
0.00194017
0.00189698
0.00182854
0.00186066
0.0022234
0.00214869
0.00207661
0.00201376
0.00194795
0.00190405
0.00183687
0.00185292
0.00221986
0.0021444
0.00207199
0.0020073
0.00193943
0.00189219
0.0018298
0.0018236
0.00113116
0.00115603
0.00119538
0.00124584
0.00130667
0.00137367
0.00144552
0.00154085
0.00124502
0.00125251
0.001273
0.0013052
0.00134508
0.00139723
0.00143985
0.00152659
0.00137962
0.00137357
0.00137943
0.00139745
0.00142077
0.00146044
0.00148237
0.0015641
0.00149647
0.0014781
0.00147062
0.00147565
0.0014843
0.00151257
0.00151688
0.00159335
0.00160722
0.00157924
0.00156115
0.00155531
0.00155138
0.00156891
0.00155809
0.0016268
0.00170412
0.00166746
0.00164016
0.00162542
0.00161163
0.0016207
0.00159843
0.00166118
0.00179894
0.00175489
0.00171917
0.00169568
0.00167235
0.00167276
0.0016397
0.00169527
0.00187643
0.00182696
0.00178548
0.00175592
0.0017257
0.00171982
0.00167849
0.00172863
0.00194751
0.00189246
0.00184501
0.00180957
0.00177286
0.00176159
0.00171254
0.00176131
0.00200131
0.00194264
0.00189114
0.00185175
0.00181062
0.00179626
0.00174146
0.00179209
0.00205111
0.00198855
0.00193277
0.00188912
0.00184326
0.00182556
0.00176554
0.00181792
0.00209053
0.00202554
0.00196713
0.00192081
0.00187192
0.00185152
0.00178797
0.00183637
0.00212462
0.00205695
0.00199544
0.00194595
0.0018939
0.0018706
0.0018048
0.00185069
0.00215382
0.00208452
0.00202094
0.00196894
0.00191424
0.00188792
0.00181974
0.00186107
0.002174
0.00210309
0.00203746
0.001983
0.00192585
0.00189732
0.00182839
0.00187178
0.00219261
0.00212038
0.00205297
0.00199612
0.00193649
0.00190492
0.00183463
0.00187469
0.00220375
0.00213037
0.00206144
0.00200216
0.00193976
0.00190537
0.00183571
0.00187853
0.00221433
0.00214019
0.00207004
0.00200922
0.00194525
0.00190667
0.00183609
0.00186935
0.00221838
0.00214382
0.00207268
0.00200885
0.00194079
0.0018973
0.00182874
0.0018601
0.00222311
0.00214898
0.00207695
0.00201343
0.00194718
0.00190314
0.00183668
0.00185243
0.00221952
0.00214415
0.00207175
0.00200707
0.00193961
0.00189237
0.00183036
0.0018207
0.00113195
0.00115692
0.00119632
0.00124686
0.00130775
0.00137477
0.00144656
0.00154299
0.001245
0.00125248
0.00127296
0.00130507
0.00134493
0.00139705
0.00143957
0.00152736
0.00137971
0.00137369
0.00137957
0.00139749
0.00142081
0.00146043
0.00148238
0.0015651
0.00149664
0.0014783
0.00147087
0.00147582
0.0014845
0.00151272
0.00151709
0.00159456
0.00160729
0.00157933
0.00156126
0.00155536
0.00155149
0.00156895
0.00155828
0.00162809
0.00170427
0.00166767
0.00164039
0.00162554
0.0016118
0.00162075
0.00159866
0.00166247
0.00179899
0.00175498
0.00171933
0.00169575
0.00167246
0.00167276
0.00163993
0.00169652
0.0018766
0.00182709
0.00178563
0.00175602
0.00172586
0.00171986
0.00167873
0.00172966
0.00194764
0.00189256
0.00184514
0.00180964
0.00177306
0.00176171
0.0017129
0.00176242
0.0020015
0.00194279
0.00189132
0.00185186
0.00181086
0.00179635
0.00174181
0.00179349
0.00205121
0.00198864
0.00193294
0.00188927
0.00184357
0.00182571
0.00176595
0.00181943
0.0020907
0.00202567
0.00196725
0.00192083
0.00187202
0.00185144
0.00178818
0.00183795
0.00212483
0.00205714
0.00199562
0.00194601
0.00189403
0.00187057
0.00180506
0.00185206
0.0021539
0.00208457
0.002021
0.00196895
0.00191439
0.00188797
0.00182013
0.00186239
0.00217418
0.00210329
0.00203773
0.00198325
0.00192626
0.00189756
0.00182887
0.0018728
0.00219271
0.00212053
0.00205322
0.00199636
0.00193689
0.00190513
0.00183505
0.00187592
0.00220397
0.00213072
0.00206192
0.00200262
0.00194036
0.00190568
0.00183607
0.00187905
0.00221434
0.00214044
0.00207043
0.00200948
0.00194557
0.00190683
0.00183641
0.00187012
0.0022184
0.00214419
0.00207335
0.00200957
0.00194172
0.00189799
0.00182955
0.00185983
0.0022226
0.0021492
0.00207744
0.00201329
0.00194661
0.00190235
0.00183682
0.00185194
0.00221898
0.00214377
0.00207138
0.00200668
0.00193966
0.0018924
0.00183082
0.001817
0.00113284
0.00115793
0.0011974
0.00124805
0.00130903
0.00137612
0.00144781
0.00154542
0.00124503
0.00125247
0.00127294
0.00130498
0.0013448
0.0013969
0.00143926
0.00152839
0.00137982
0.00137381
0.00137972
0.00139756
0.00142088
0.00146045
0.00148236
0.00156635
0.00149682
0.00147852
0.00147116
0.00147607
0.00148479
0.00151294
0.00151735
0.00159605
0.00160735
0.00157941
0.00156138
0.00155543
0.00155164
0.00156902
0.00155847
0.00162962
0.00170446
0.00166791
0.00164069
0.00162573
0.00161205
0.00162086
0.00159892
0.00166404
0.00179903
0.00175505
0.0017195
0.00169588
0.00167266
0.00167281
0.00164019
0.00169801
0.00187683
0.00182726
0.00178583
0.00175616
0.0017261
0.00171994
0.00167902
0.00173091
0.00194778
0.00189268
0.0018453
0.00180973
0.00177331
0.00176186
0.00171331
0.00176374
0.00200175
0.00194299
0.00189157
0.00185202
0.00181116
0.0017965
0.00174221
0.00179514
0.00205134
0.00198876
0.00193313
0.00188943
0.00184394
0.00182591
0.00176643
0.0018213
0.00209091
0.00202586
0.00196743
0.00192091
0.0018722
0.00185141
0.00178843
0.00183991
0.00212507
0.00205741
0.00199591
0.00194617
0.00189427
0.0018706
0.00180537
0.00185372
0.00215399
0.00208466
0.00202111
0.00196898
0.00191457
0.00188803
0.00182054
0.00186393
0.00217444
0.00210357
0.00203806
0.00198354
0.00192676
0.00189789
0.00182947
0.001874
0.00219281
0.0021207
0.00205352
0.00199664
0.00193738
0.00190546
0.00183564
0.00187738
0.00220423
0.0021311
0.00206246
0.00200319
0.00194116
0.00190619
0.00183669
0.0018797
0.00221428
0.00214064
0.00207086
0.00200984
0.00194606
0.00190717
0.00183708
0.00187116
0.00221831
0.00214439
0.00207403
0.00201044
0.00194295
0.00189898
0.00183093
0.00185976
0.00222184
0.00214923
0.00207807
0.00201343
0.00194635
0.00190174
0.00183731
0.00185138
0.00221821
0.00214328
0.00207093
0.00200615
0.0019396
0.00189225
0.00183117
0.00181253
0.00113384
0.00115903
0.00119861
0.00124937
0.00131047
0.00137768
0.00144927
0.00154809
0.00124511
0.00125249
0.00127295
0.00130493
0.00134472
0.00139681
0.00143891
0.00152968
0.00137996
0.00137392
0.00137987
0.00139765
0.00142097
0.00146051
0.0014823
0.00156783
0.00149705
0.00147877
0.0014715
0.00147638
0.00148516
0.00151325
0.00151764
0.00159783
0.00160742
0.00157948
0.00156151
0.00155552
0.00155184
0.00156916
0.00155866
0.00163141
0.00170471
0.00166819
0.00164105
0.00162599
0.00161239
0.00162106
0.00159919
0.00166588
0.00179908
0.00175512
0.00171969
0.00169603
0.00167293
0.00167293
0.00164048
0.00169976
0.00187712
0.00182749
0.00178609
0.00175636
0.00172643
0.00172011
0.00167936
0.00173241
0.00194792
0.00189281
0.00184549
0.00180987
0.00177362
0.00176206
0.00171374
0.00176529
0.00200207
0.00194326
0.00189189
0.00185224
0.00181155
0.00179673
0.00174265
0.00179705
0.0020515
0.00198892
0.00193337
0.00188962
0.00184436
0.00182619
0.00176696
0.0018235
0.00209118
0.0020261
0.00196769
0.00192104
0.00187248
0.00185147
0.00178873
0.00184224
0.00212537
0.00205775
0.00199629
0.00194644
0.00189467
0.00187075
0.00180576
0.00185568
0.00215412
0.00208479
0.00202128
0.00196905
0.00191483
0.00188812
0.001821
0.00186568
0.00217478
0.00210393
0.00203849
0.0019839
0.00192735
0.00189829
0.00183019
0.00187533
0.00219296
0.00212092
0.00205386
0.00199696
0.00193796
0.00190588
0.00183642
0.00187899
0.00220452
0.00213151
0.00206305
0.00200383
0.00194214
0.00190691
0.0018376
0.00188041
0.0022142
0.00214078
0.00207133
0.0020103
0.00194676
0.00190767
0.00183811
0.00187233
0.00221822
0.00214439
0.0020746
0.00201145
0.00194452
0.00190023
0.00183268
0.00185963
0.00222095
0.0021489
0.00207867
0.00201394
0.00194657
0.00190132
0.00183794
0.00185046
0.00221721
0.00214271
0.0020705
0.00200555
0.00193947
0.00189194
0.00183142
0.00180746
0.00113491
0.00116021
0.00119988
0.00125078
0.00131202
0.00137938
0.00145086
0.00155091
0.00124528
0.00125258
0.00127301
0.00130494
0.0013447
0.00139681
0.00143855
0.00153126
0.00138016
0.00137406
0.00138002
0.00139775
0.00142108
0.00146061
0.00148217
0.00156955
0.00149734
0.00147906
0.00147188
0.00147675
0.00148561
0.00151368
0.00151795
0.00159991
0.00160752
0.00157956
0.00156165
0.00155563
0.00155208
0.00156937
0.00155884
0.00163347
0.00170506
0.00166852
0.00164146
0.00162632
0.00161283
0.00162138
0.00159949
0.001668
0.00179917
0.00175519
0.00171988
0.00169621
0.00167329
0.00167317
0.00164079
0.00170178
0.00187749
0.0018278
0.00178641
0.00175661
0.00172685
0.00172036
0.00167975
0.00173421
0.00194809
0.00189296
0.00184572
0.00181006
0.00177401
0.00176232
0.0017142
0.00176712
0.00200247
0.0019436
0.00189227
0.00185252
0.00181201
0.00179705
0.00174314
0.00179919
0.00205172
0.00198914
0.00193367
0.00188984
0.00184484
0.00182654
0.00176752
0.00182598
0.00209154
0.00202642
0.00196803
0.00192123
0.00187287
0.00185165
0.00178909
0.00184488
0.00212574
0.00205815
0.00199678
0.00194681
0.00189522
0.00187105
0.00180624
0.00185793
0.00215432
0.00208499
0.00202153
0.00196919
0.00191518
0.00188828
0.00182151
0.00186762
0.00217522
0.00210439
0.00203901
0.00198435
0.00192805
0.00189876
0.00183101
0.00187674
0.00219317
0.00212119
0.00205427
0.00199734
0.00193863
0.00190637
0.00183738
0.0018806
0.00220486
0.00213197
0.00206371
0.00200454
0.0019433
0.00190781
0.00183882
0.00188106
0.00221415
0.00214088
0.0020718
0.00201088
0.00194772
0.00190837
0.00183947
0.00187334
0.00221828
0.00214429
0.00207499
0.00201248
0.00194645
0.00190176
0.00183466
0.00185908
0.00222017
0.00214816
0.00207897
0.00201474
0.00194749
0.00190127
0.00183851
0.00184879
0.00221594
0.00214203
0.00207014
0.00200502
0.00193932
0.00189148
0.00183156
0.00180201
0.00113605
0.00116143
0.0012012
0.00125223
0.00131359
0.00138114
0.00145252
0.00155382
0.00124556
0.00125277
0.00127315
0.00130503
0.00134475
0.00139692
0.0014382
0.00153312
0.00138044
0.00137424
0.00138018
0.00139786
0.00142119
0.00146076
0.00148198
0.00157148
0.00149771
0.00147942
0.00147231
0.00147718
0.00148614
0.00151422
0.00151825
0.0016023
0.00160769
0.00157968
0.00156182
0.00155576
0.00155235
0.00156966
0.00155901
0.0016358
0.00170554
0.00166895
0.00164193
0.00162673
0.00161335
0.00162182
0.00159979
0.00167037
0.0017993
0.0017553
0.0017201
0.00169643
0.00167372
0.00167353
0.00164112
0.00170407
0.00187797
0.00182819
0.00178682
0.00175693
0.00172735
0.00172073
0.00168016
0.00173633
0.00194832
0.00189316
0.001846
0.0018103
0.00177446
0.00176267
0.00171467
0.00176927
0.00200298
0.00194404
0.00189273
0.00185289
0.00181256
0.00179747
0.00174366
0.00180155
0.00205204
0.00198945
0.00193406
0.00189013
0.00184538
0.00182697
0.00176809
0.00182862
0.00209203
0.00202685
0.00196848
0.00192152
0.00187336
0.00185197
0.00178951
0.00184772
0.00212622
0.00205865
0.00199736
0.00194729
0.00189592
0.00187151
0.00180682
0.00186039
0.00215462
0.00208528
0.00202188
0.00196943
0.00191565
0.00188853
0.00182209
0.00186965
0.00217577
0.00210496
0.00203966
0.0019849
0.00192886
0.00189928
0.00183191
0.00187808
0.00219345
0.00212154
0.00205478
0.00199782
0.00193944
0.00190693
0.0018385
0.001882
0.00220526
0.00213249
0.00206445
0.00200534
0.00194462
0.00190887
0.00184034
0.00188146
0.00221418
0.00214098
0.00207228
0.00201155
0.00194897
0.0019093
0.00184108
0.00187386
0.00221855
0.00214426
0.00207523
0.00201342
0.00194865
0.00190362
0.0018368
0.0018579
0.00221972
0.00214727
0.00207882
0.00201553
0.00194906
0.00190183
0.00183911
0.00184619
0.00221446
0.00214119
0.00206988
0.00200469
0.00193928
0.00189089
0.00183155
0.00179641
0.00113722
0.00116268
0.0012025
0.00125364
0.00131512
0.00138286
0.00145413
0.00155676
0.001246
0.0012531
0.00127342
0.00130524
0.00134492
0.00139717
0.00143791
0.00153529
0.00138081
0.0013745
0.00138038
0.001398
0.00142132
0.00146097
0.0014817
0.00157362
0.0014982
0.00147988
0.00147281
0.00147768
0.00148674
0.00151488
0.00151855
0.00160498
0.00160797
0.00157988
0.00156203
0.00155594
0.00155267
0.00157005
0.00155914
0.00163841
0.00170618
0.0016695
0.0016425
0.00162722
0.00161394
0.0016224
0.0016001
0.00167299
0.0017995
0.00175548
0.00172037
0.00169668
0.0016742
0.00167402
0.00164147
0.00170661
0.00187856
0.00182868
0.00178732
0.00175732
0.00172793
0.00172122
0.00168058
0.00173877
0.00194864
0.00189345
0.00184634
0.00181059
0.00177499
0.00176311
0.00171514
0.00177174
0.00200363
0.00194461
0.0018933
0.00185334
0.00181319
0.00179798
0.0017442
0.0018041
0.00205249
0.00198988
0.00193455
0.00189053
0.001846
0.0018275
0.00176867
0.00183132
0.00209268
0.00202743
0.00196906
0.00192192
0.00187396
0.00185242
0.00179002
0.00185056
0.00212683
0.00205926
0.00199805
0.00194786
0.00189674
0.00187211
0.00180752
0.00186287
0.00215503
0.00208572
0.00202237
0.00196979
0.00191625
0.00188887
0.00182274
0.00187161
0.00217641
0.00210565
0.00204044
0.00198558
0.00192981
0.00189988
0.00183289
0.00187919
0.00219379
0.00212199
0.00205542
0.00199843
0.0019404
0.00190754
0.00183974
0.00188294
0.00220569
0.00213307
0.0020653
0.00200625
0.00194609
0.00191002
0.00184211
0.00188146
0.00221429
0.00214116
0.0020728
0.00201231
0.00195046
0.00191045
0.00184292
0.00187371
0.00221893
0.00214445
0.00207545
0.00201422
0.00195094
0.00190574
0.00183911
0.00185619
0.0022195
0.00214655
0.00207837
0.00201606
0.00195092
0.00190301
0.00183993
0.00184297
0.0022129
0.00214019
0.0020697
0.00200462
0.00193947
0.00189027
0.00183132
0.00179076
0.0011384
0.00116392
0.00120377
0.00125497
0.0013165
0.00138444
0.00145559
0.00155968
0.0012466
0.00125361
0.00127384
0.00130561
0.00134522
0.00139759
0.00143769
0.00153777
0.00138129
0.00137485
0.00138064
0.00139818
0.00142146
0.00146123
0.00148134
0.00157594
0.00149881
0.00148047
0.00147341
0.00147826
0.00148739
0.00151565
0.0015188
0.00160791
0.00160838
0.00158019
0.00156233
0.00155619
0.00155303
0.00157054
0.00155923
0.00164126
0.00170697
0.0016702
0.00164317
0.0016278
0.00161462
0.0016231
0.0016004
0.00167583
0.00179979
0.00175576
0.00172072
0.00169701
0.00167473
0.00167462
0.00164182
0.00170937
0.00187928
0.0018293
0.00178793
0.00175782
0.00172858
0.00172182
0.001681
0.00174148
0.00194908
0.00189386
0.00184679
0.00181097
0.00177559
0.00176366
0.0017156
0.00177449
0.00200442
0.00194532
0.001894
0.0018539
0.00181391
0.00179859
0.00174475
0.00180673
0.0020531
0.00199046
0.00193518
0.00189105
0.00184673
0.00182812
0.00176929
0.0018339
0.00209346
0.00202816
0.00196978
0.00192245
0.00187466
0.00185296
0.00179061
0.00185315
0.00212755
0.00206003
0.00199887
0.00194855
0.00189765
0.0018728
0.00180831
0.00186512
0.00215555
0.00208631
0.00202303
0.00197031
0.001917
0.0018893
0.00182349
0.00187325
0.00217707
0.00210646
0.00204138
0.00198639
0.00193091
0.00190053
0.00183396
0.00187985
0.00219415
0.00212254
0.00205622
0.00199919
0.00194154
0.00190821
0.00184108
0.00188322
0.00220608
0.00213369
0.00206627
0.00200729
0.00194769
0.00191122
0.00184404
0.00188097
0.00221438
0.00214143
0.00207342
0.00201315
0.0019521
0.00191177
0.00184492
0.00187291
0.00221926
0.00214487
0.0020758
0.00201491
0.00195311
0.00190794
0.00184151
0.00185423
0.00221934
0.00214617
0.00207796
0.00201633
0.00195271
0.0019045
0.001841
0.00183971
0.00221143
0.00213911
0.00206953
0.00200483
0.00193995
0.00188969
0.0018308
0.00178516
0.00113958
0.00116513
0.00120495
0.00125616