/*--------------------------------*- C++ -*----------------------------------*\
  =========                 |
  \\      /  F ield         | OpenFOAM: The Open Source CFD Toolbox
   \\    /   O peration     | Website:  https://openfoam.org
    \\  /    A nd           | Version:  6
     \\/     M anipulation  |
\*---------------------------------------------------------------------------*/
FoamFile
{
    version     2.0;
    format      ascii;
    class       surfaceScalarField;
    location    "1.2";
    object      phi;
}
// * * * * * * * * * * * * * * * * * * * * * * * * * * * * * * * * * * * * * //

dimensions      [0 3 -1 0 0 0 0];

internalField   nonuniform List<scalar> 
184750
(
9.76417e-07
2.20661e-07
8.80822e-10
-2.33946e-07
9.90631e-07
2.4172e-07
8.14499e-10
-2.56749e-07
1.00663e-06
2.63269e-07
9.15727e-10
-2.8018e-07
1.02444e-06
2.84885e-07
8.60719e-10
-3.03561e-07
1.04425e-06
3.07019e-07
9.48499e-10
-3.27777e-07
1.06566e-06
3.29058e-07
8.22608e-10
-3.51286e-07
1.08897e-06
3.51762e-07
1.04541e-09
-3.76126e-07
3.73792e-07
-5.81388e-10
1.11376e-06
-3.97999e-07
9.67854e-07
2.05255e-07
1.36442e-09
9.83016e-07
2.25042e-07
1.51586e-09
9.99583e-07
2.45085e-07
1.61812e-09
1.01747e-06
2.6531e-07
1.68587e-09
1.03715e-06
2.85651e-07
1.69053e-09
1.05834e-06
3.06188e-07
1.68361e-09
1.08177e-06
3.2671e-07
1.61448e-09
3.47848e-07
1.56277e-10
1.10756e-06
9.52146e-07
1.89418e-07
9.13466e-10
9.68459e-07
2.07661e-07
1.06805e-09
9.86298e-07
2.26112e-07
1.13467e-09
1.00548e-06
2.449e-07
1.22703e-09
1.02628e-06
2.63683e-07
1.17198e-09
1.04834e-06
2.82833e-07
1.29275e-09
1.07222e-06
3.01573e-07
1.25811e-09
3.21298e-07
-2.0506e-10
1.09897e-06
9.41509e-07
1.74509e-07
7.6046e-10
9.57166e-07
1.91119e-07
8.84991e-10
9.74521e-07
2.0786e-07
8.96893e-10
9.93422e-07
2.24984e-07
1.01551e-09
1.01408e-06
2.42068e-07
9.57585e-10
1.03619e-06
2.59625e-07
1.09749e-09
1.06e-06
2.76659e-07
1.10908e-09
2.94824e-07
-4.33254e-10
1.0869e-06
9.27969e-07
1.58794e-07
5.75683e-10
9.44384e-07
1.73971e-07
7.33011e-10
9.62208e-07
1.89239e-07
7.96346e-10
9.81409e-07
2.0487e-07
9.12658e-10
1.00216e-06
2.20454e-07
8.63382e-10
1.02426e-06
2.3652e-07
1.0075e-09
1.04788e-06
2.52012e-07
1.02875e-09
2.68638e-07
-6.51342e-10
1.07471e-06
9.09293e-07
1.43384e-07
3.53958e-10
9.25844e-07
1.56904e-07
5.17429e-10
9.44107e-07
1.70505e-07
4.70591e-10
9.63978e-07
1.84499e-07
5.01253e-10
9.85521e-07
1.98545e-07
3.66093e-10
1.0084e-06
2.13174e-07
4.62625e-10
1.03261e-06
2.27306e-07
5.05304e-10
2.42535e-07
-1.2648e-09
1.05997e-06
8.98447e-07
1.28893e-07
3.74355e-10
9.1392e-07
1.40879e-07
5.5234e-10
9.31045e-07
1.52851e-07
5.28706e-10
9.49967e-07
1.65109e-07
4.67695e-10
9.70856e-07
1.77419e-07
2.36341e-10
9.93369e-07
1.90362e-07
2.98965e-10
1.01736e-06
2.02968e-07
3.47053e-10
2.16682e-07
-1.28613e-09
1.0445e-06
8.81328e-07
1.13737e-07
-9.23272e-11
8.9761e-07
1.24551e-07
4.57353e-11
9.14935e-07
1.35316e-07
2.10629e-10
9.33343e-07
1.46224e-07
4.7623e-10
9.53319e-07
1.57002e-07
4.42044e-10
9.74818e-07
1.68223e-07
6.40399e-10
9.98092e-07
1.79091e-07
6.02783e-10
1.91022e-07
-1.12786e-09
1.02488e-06
7.55615e-07
1.00243e-07
5.47895e-11
7.70091e-07
1.09975e-07
9.91992e-11
7.8553e-07
1.19723e-07
1.53741e-10
8.01676e-07
1.29624e-07
4.55536e-10
8.18677e-07
1.39315e-07
6.85452e-10
8.36599e-07
1.49246e-07
1.05452e-09
8.5596e-07
1.5866e-07
1.06914e-09
1.69004e-07
-7.23386e-10
8.78701e-07
7.05354e-07
8.7321e-08
-1.17695e-10
7.19239e-07
9.59436e-08
1.46753e-10
7.34091e-07
1.0455e-07
3.20845e-10
7.49854e-07
1.13266e-07
5.94394e-10
7.66687e-07
1.21769e-07
7.12364e-10
7.845e-07
1.30498e-07
9.35568e-10
8.03653e-07
1.3867e-07
8.37725e-10
1.47785e-07
-1.3622e-09
8.26234e-07
6.58947e-07
7.53355e-08
5.97608e-12
6.71635e-07
8.2937e-08
3.18574e-10
6.85083e-07
9.0484e-08
6.18173e-10
6.994e-07
9.8034e-08
9.15369e-10
7.15092e-07
1.05267e-07
8.10991e-10
7.32209e-07
1.12677e-07
7.03633e-10
7.50944e-07
1.1955e-07
3.85241e-10
1.27516e-07
-2.09664e-09
7.7331e-07
6.1e-07
6.32994e-08
2.35929e-10
6.23094e-07
6.96598e-08
1.8385e-10
6.3744e-07
7.6133e-08
5.18637e-12
6.52728e-07
8.27936e-08
-4.8464e-11
6.68985e-07
8.92588e-08
-2.48266e-10
6.86013e-07
9.58726e-08
-2.24205e-10
7.0393e-07
1.01884e-07
-2.51719e-10
1.08733e-07
-2.11971e-09
7.24833e-07
5.66099e-07
5.30044e-08
1.17061e-10
5.77876e-07
5.79464e-08
-6.33139e-11
5.91429e-07
6.30749e-08
-4.94843e-10
6.06401e-07
6.86166e-08
-7.95161e-10
6.22468e-07
7.42562e-08
-1.06429e-09
6.38991e-07
8.01938e-08
-8.44768e-10
6.55833e-07
8.55642e-08
-5.22151e-10
9.14738e-08
-1.81484e-09
6.74907e-07
5.35104e-07
4.40408e-08
-1.30714e-10
5.45175e-07
4.80458e-08
-1.70575e-10
5.56411e-07
5.21956e-08
-3.5687e-10
5.68685e-07
5.67642e-08
-4.21759e-10
5.81972e-07
6.15141e-08
-5.44855e-10
5.95803e-07
6.66051e-08
-2.42304e-10
6.10191e-07
7.11142e-08
6.27305e-11
7.59341e-08
-1.02234e-09
6.26753e-07
4.92837e-07
3.51608e-08
-3.32744e-10
5.02585e-07
3.85367e-08
-2.38489e-10
5.12949e-07
4.20852e-08
-2.54118e-10
5.23767e-07
4.60757e-08
-1.29245e-10
5.35148e-07
5.02252e-08
-9.23638e-11
5.4679e-07
5.46013e-08
3.61966e-10
5.5906e-07
5.81481e-08
6.96429e-10
6.18522e-08
-5.49815e-10
5.73692e-07
4.53033e-07
2.69685e-08
-2.59521e-10
4.62024e-07
2.97229e-08
-1.76855e-10
4.71614e-07
3.27119e-08
-2.16945e-10
4.81567e-07
3.62387e-08
-1.16668e-10
4.91837e-07
4.00181e-08
-6.23335e-11
5.02068e-07
4.39825e-08
3.88206e-10
5.12582e-07
4.67727e-08
8.60344e-10
4.93898e-08
-6.51213e-11
5.2511e-07
4.0396e-07
1.95109e-08
-2.87273e-10
4.12344e-07
2.1632e-08
-2.93101e-10
4.21321e-07
2.41068e-08
-3.71396e-10
4.3055e-07
2.72438e-08
-2.34117e-10
4.39957e-07
3.07192e-08
-1.08707e-10
4.49047e-07
3.43949e-08
4.9767e-10
4.58229e-07
3.65925e-08
9.99092e-10
3.86502e-08
-1.14936e-10
4.69083e-07
3.62762e-07
1.28144e-08
-1.81294e-10
3.70209e-07
1.43343e-08
-1.49645e-10
3.78395e-07
1.62104e-08
-2.89966e-10
3.87051e-07
1.89035e-08
-3.1581e-10
3.9584e-07
2.21858e-08
-2.55069e-10
4.04038e-07
2.57666e-08
4.30364e-10
4.11951e-07
2.75629e-08
1.11622e-09
2.90289e-08
7.16991e-10
4.20856e-07
2.99989e-07
6.96999e-09
-2.58083e-10
3.06666e-07
7.91339e-09
-2.56367e-10
3.14244e-07
9.07779e-09
-4.45141e-10
3.22561e-07
1.09854e-08
-3.99179e-10
3.31195e-07
1.36665e-08
-1.1465e-10
3.39074e-07
1.70199e-08
8.67604e-10
3.465e-07
1.86807e-08
1.45678e-09
2.09686e-08
6.41199e-10
3.53919e-07
2.17398e-07
4.80411e-09
-1.83517e-09
2.20855e-07
5.44023e-09
-9.83161e-10
2.24654e-07
5.68885e-09
-4.10743e-10
2.31062e-07
5.44743e-09
-8.69339e-10
2.41438e-07
5.16816e-09
-1.8785e-09
2.5507e-07
6.02704e-09
-2.63826e-09
2.70197e-07
6.96228e-09
-3.40929e-09
1.02095e-08
-4.10795e-09
2.85064e-07
3.12707e-07
-2.4706e-09
3.20618e-07
-2.47051e-09
3.28498e-07
-2.19125e-09
3.36121e-07
-2.17522e-09
3.44519e-07
-3.23017e-09
3.54979e-07
-4.4326e-09
3.67833e-07
-5.89198e-09
-4.42842e-09
3.82471e-07
1.93848e-06
4.49183e-07
-1.78852e-09
-4.75097e-07
1.97012e-06
4.90271e-07
-1.74416e-09
-5.1935e-07
2.00484e-06
5.32106e-07
-1.4616e-09
-5.64454e-07
2.04263e-06
5.74375e-07
-1.35603e-09
-6.0994e-07
2.08354e-06
6.17379e-07
-1.03418e-09
-6.5631e-07
2.12739e-06
6.6048e-07
-9.69911e-10
-7.02538e-07
2.17418e-06
7.04557e-07
-4.07345e-10
-7.49891e-07
7.47541e-07
-2.92207e-09
2.22396e-06
-7.94982e-07
1.93054e-06
4.21007e-07
-3.36721e-10
1.96294e-06
4.5951e-07
-1.26184e-10
1.99805e-06
4.98523e-07
9.57912e-11
2.03589e-06
5.37936e-07
2.8086e-10
2.07675e-06
5.77752e-07
4.54634e-10
2.12055e-06
6.17761e-07
6.09371e-10
2.16756e-06
6.58171e-07
9.91168e-10
6.98614e-07
-1.67648e-09
2.21832e-06
1.91499e-06
3.91443e-07
-4.01501e-10
1.94858e-06
4.27128e-07
-1.39574e-10
1.98491e-06
4.63279e-07
4.5751e-11
2.02391e-06
4.99909e-07
2.60397e-10
2.06572e-06
5.36816e-07
2.94518e-10
2.11025e-06
5.7403e-07
4.91059e-10
2.15766e-06
6.11208e-07
8.16583e-10
6.48802e-07
-1.97767e-09
2.20924e-06
1.90284e-06
3.62721e-07
-5.46586e-10
1.93578e-06
3.95403e-07
-3.29043e-10
1.97169e-06
4.28473e-07
-2.15194e-10
2.01055e-06
4.6204e-07
3.18614e-11
2.05242e-06
4.95852e-07
4.88232e-11
2.0972e-06
5.30099e-07
2.44411e-10
2.14478e-06
5.64169e-07
5.70204e-10
5.98842e-07
-2.36801e-09
2.19667e-06
1.88765e-06
3.32711e-07
-5.39623e-10
1.92133e-06
3.62741e-07
-2.91648e-10
1.9577e-06
3.93042e-07
-1.40437e-10
1.99678e-06
4.23772e-07
9.79165e-11
2.03873e-06
4.54688e-07
8.30183e-11
2.0835e-06
4.86074e-07
2.62882e-10
2.13093e-06
5.17198e-07
5.64212e-10
5.48994e-07
-2.69093e-09
2.18282e-06
1.86592e-06
3.02728e-07
-8.47077e-10
1.89991e-06
3.29811e-07
-5.38578e-10
1.9368e-06
3.57104e-07
-4.88366e-10
1.97662e-06
3.84794e-07
-3.37165e-10
2.0194e-06
4.12715e-07
-4.38833e-10
2.065e-06
4.4125e-07
-3.14396e-10
2.11309e-06
4.69644e-07
-3.41576e-11
4.98796e-07
-3.51571e-09
2.16554e-06
1.85206e-06
2.73771e-07
-6.07034e-10
1.88478e-06
2.97964e-07
-3.23824e-10
1.9204e-06
3.22238e-07
-2.29733e-10
1.95908e-06
3.46759e-07
-1.7638e-10
2.00104e-06
3.71441e-07
-4.44197e-10
2.04618e-06
3.96811e-07
-4.07787e-10
2.0941e-06
4.2228e-07
-2.07397e-10
4.48671e-07
-3.64351e-09
2.14658e-06
1.83078e-06
2.43747e-07
-1.30179e-09
1.86437e-06
2.65556e-07
-1.13757e-09
1.90034e-06
2.87408e-07
-9.32511e-10
1.93871e-06
3.09368e-07
-5.00075e-10
1.97984e-06
3.31262e-07
-5.1503e-10
2.02395e-06
3.53593e-07
-2.47772e-10
2.07099e-06
3.75929e-07
-8.26505e-11
3.99166e-07
-3.48782e-09
2.12285e-06
1.583e-06
2.1687e-07
-6.66366e-10
1.61274e-06
2.36566e-07
-6.50927e-10
1.64454e-06
2.56421e-07
-6.65694e-10
1.67824e-06
2.76468e-07
-3.42124e-10
1.71393e-06
2.96414e-07
-1.54773e-10
1.75172e-06
3.16553e-07
3.07285e-10
1.79183e-06
3.36333e-07
5.56152e-10
3.56707e-07
-2.70718e-09
1.83627e-06
1.49439e-06
1.90977e-07
-1.01856e-09
1.52321e-06
2.086e-07
-7.04471e-10
1.55407e-06
2.26391e-07
-5.1246e-10
1.5869e-06
2.4437e-07
-1.39168e-10
1.6218e-06
2.6221e-07
2.37179e-11
1.6587e-06
2.80151e-07
4.32335e-10
1.69769e-06
2.97522e-07
6.62958e-10
3.154e-07
-3.27358e-09
1.7409e-06
1.41082e-06
1.66664e-07
-6.26547e-10
1.43767e-06
1.82392e-07
-3.27242e-10
1.46643e-06
1.98275e-07
-2.33713e-11
1.49708e-06
2.1419e-07
4.4622e-10
1.52995e-06
2.29696e-07
4.56991e-10
1.56521e-06
2.45064e-07
5.28238e-10
1.60295e-06
2.59716e-07
4.54734e-10
2.75075e-07
-4.07213e-09
1.64525e-06
1.32506e-06
1.4267e-07
-2.73153e-10
1.35181e-06
1.56006e-07
-1.75002e-10
1.38078e-06
1.69585e-07
-2.74107e-10
1.4117e-06
1.83412e-07
-1.96957e-10
1.44454e-06
1.97043e-07
-4.27447e-10
1.47919e-06
2.10606e-07
-4.16012e-10
1.51558e-06
2.23437e-07
-3.64809e-10
2.36761e-07
-4.2134e-09
1.55599e-06
1.24554e-06
1.21317e-07
-4.01437e-10
1.27002e-06
1.31888e-07
-4.27159e-10
1.29732e-06
1.42609e-07
-8.2623e-10
1.32723e-06
1.53838e-07
-1.12379e-09
1.35938e-06
1.65432e-07
-1.60235e-09
1.39317e-06
1.775e-07
-1.53644e-09
1.42816e-06
1.89171e-07
-1.24311e-09
2.01112e-07
-4.22657e-09
1.46622e-06
1.18389e-06
1.01916e-07
-6.56999e-10
1.20576e-06
1.10505e-07
-6.5418e-10
1.22978e-06
1.19142e-07
-9.17213e-10
1.25593e-06
1.28293e-07
-1.02829e-09
1.28416e-06
1.38005e-07
-1.34456e-09
1.31405e-06
1.48468e-07
-1.10154e-09
1.34528e-06
1.58726e-07
-7.14875e-10
1.69082e-07
-3.21246e-09
1.37949e-06
1.10767e-06
8.27763e-08
-1.07787e-09
1.12901e-06
8.99572e-08
-1.02693e-09
1.1518e-06
9.72886e-08
-1.19421e-09
1.17588e-06
1.05213e-07
-1.1192e-09
1.20125e-06
1.13729e-07
-1.19196e-09
1.22774e-06
1.22941e-07
-6.01727e-10
1.25549e-06
1.31659e-07
1.03239e-11
1.40222e-07
-2.52343e-09
1.28633e-06
1.03487e-06
6.47897e-08
-8.4619e-10
1.05491e-06
7.06082e-08
-8.64541e-10
1.07634e-06
7.67328e-08
-1.08962e-09
1.09887e-06
8.36216e-08
-1.06222e-09
1.12236e-06
9.13118e-08
-1.12785e-09
1.14646e-06
9.98225e-08
-5.91612e-10
1.17133e-06
1.07494e-07
1.51098e-10
1.14472e-07
-1.89042e-09
1.19891e-06
9.48512e-07
4.8178e-08
-1.0724e-09
9.67381e-07
5.26421e-08
-1.19607e-09
9.87641e-07
5.75694e-08
-1.46765e-09
1.00892e-06
6.35144e-08
-1.40454e-09
1.03098e-06
7.05337e-08
-1.38773e-09
1.05323e-06
7.85779e-08
-5.14476e-10
1.07576e-06
8.54202e-08
5.41417e-10
9.13785e-08
-1.43149e-09
1.10017e-06
8.7305e-07
3.27414e-08
-6.57366e-10
8.90352e-07
3.60115e-08
-8.21561e-10
9.09087e-07
3.96675e-08
-1.12321e-09
9.28989e-07
4.44445e-08
-1.14808e-09
9.49675e-07
5.08149e-08
-1.22131e-09
9.70305e-07
5.88393e-08
-4.61911e-10
9.90789e-07
6.55362e-08
5.16618e-10
7.0909e-08
-6.42435e-10
1.01262e-06
7.62463e-07
1.8913e-08
-1.04421e-09
7.78553e-07
2.10136e-08
-1.348e-09
7.96227e-07
2.33057e-08
-1.75746e-09
8.15358e-07
2.65984e-08
-1.68392e-09
8.35556e-07
3.18629e-08
-1.36109e-09
8.55619e-07
3.95654e-08
7.8212e-11
8.75311e-07
4.60347e-08
1.26666e-09
5.21373e-08
9.2311e-11
8.94632e-07
6.09168e-07
9.15298e-09
-2.8704e-09
6.20778e-07
1.02834e-08
-1.86349e-09
6.3304e-07
1.0919e-08
-2.85804e-10
6.47916e-07
1.08476e-08
5.61018e-12
6.684e-07
1.09529e-08
-1.45308e-09
6.95327e-07
1.31671e-08
-3.16695e-09
7.26749e-07
1.5998e-08
-4.79414e-09
2.14543e-08
-5.91023e-09
7.59234e-07
4.99797e-07
-2.96949e-09
5.10444e-07
-2.83401e-09
5.21397e-07
-2.22515e-09
5.32114e-07
-2.04434e-09
5.43453e-07
-3.61691e-09
5.57122e-07
-4.93426e-09
5.74029e-07
-6.80124e-09
-2.40428e-09
5.93459e-07
2.73477e-06
6.43054e-07
-4.78033e-09
-6.80722e-07
2.77968e-06
6.99918e-07
-4.74865e-09
-7.41824e-07
2.82887e-06
7.57717e-07
-4.39879e-09
-8.03973e-07
2.88229e-06
8.16167e-07
-4.2262e-09
-8.66717e-07
2.93996e-06
8.75541e-07
-3.76764e-09
-9.30474e-07
3.00169e-06
9.35201e-07
-3.54817e-09
-9.94354e-07
3.06738e-06
9.9605e-07
-2.71903e-09
-1.05943e-06
1.05578e-06
-5.74747e-09
3.13704e-06
-1.12261e-06
2.72425e-06
6.02977e-07
-2.55297e-09
2.77014e-06
6.56302e-07
-2.40115e-09
2.8198e-06
7.10288e-07
-2.12736e-09
2.8733e-06
7.64824e-07
-1.88088e-09
2.93096e-06
8.19951e-07
-1.61453e-09
2.99274e-06
8.75384e-07
-1.35329e-09
3.05887e-06
9.31423e-07
-5.11378e-10
9.87393e-07
-4.14295e-09
3.12972e-06
2.70458e-06
5.61079e-07
-2.18782e-09
2.75209e-06
6.1059e-07
-1.93589e-09
2.80337e-06
6.60725e-07
-1.6761e-09
2.85835e-06
7.11461e-07
-1.35238e-09
2.91717e-06
7.62646e-07
-1.22025e-09
2.97979e-06
8.1421e-07
-9.56118e-10
3.04638e-06
8.65901e-07
-2.49494e-10
9.17885e-07
-4.12187e-09
3.11803e-06
2.68846e-06
5.20099e-07
-2.24066e-09
2.73521e-06
5.65538e-07
-2.02611e-09
2.78605e-06
6.11512e-07
-1.84672e-09
2.84095e-06
6.5809e-07
-1.49952e-09
2.89999e-06
7.05078e-07
-1.41741e-09
2.96306e-06
7.52578e-07
-1.19999e-09
3.03007e-06
8.00061e-07
-5.92863e-10
8.48026e-07
-4.66233e-09
3.10222e-06
2.66896e-06
4.77524e-07
-2.02277e-09
2.71662e-06
5.19346e-07
-1.7644e-09
2.768e-06
5.61546e-07
-1.5511e-09
2.82315e-06
6.04231e-07
-1.19536e-09
2.88225e-06
6.47232e-07
-1.16955e-09
2.94532e-06
6.90769e-07
-9.96426e-10
3.0122e-06
7.34204e-07
-4.56878e-10
7.78203e-07
-4.99997e-09
3.08433e-06
2.64159e-06
4.34974e-07
-2.48866e-09
2.68973e-06
4.72818e-07
-2.1529e-09
2.7418e-06
5.10977e-07
-1.98986e-09
2.79783e-06
5.49542e-07
-1.67494e-09
2.85789e-06
5.884e-07
-1.67232e-09
2.92192e-06
6.27915e-07
-1.48854e-09
2.98957e-06
6.67478e-07
-9.58413e-10
7.07765e-07
-5.82902e-09
3.06232e-06
2.62325e-06
3.93663e-07
-1.9025e-09
2.66983e-06
4.27547e-07
-1.63378e-09
2.72041e-06
4.61601e-07
-1.43155e-09
2.77508e-06
4.95881e-07
-1.18803e-09
2.83409e-06
5.30318e-07
-1.37997e-09
2.89752e-06
5.65429e-07
-1.3428e-09
2.96494e-06
6.0085e-07
-1.0065e-09
6.37254e-07
-6.01267e-09
3.03782e-06
2.59638e-06
3.51001e-07
-2.81548e-09
2.64395e-06
3.81509e-07
-2.66533e-09
2.69496e-06
4.12131e-07
-2.47231e-09
2.74942e-06
4.42852e-07
-1.93433e-09
2.80764e-06
4.73495e-07
-1.91039e-09
2.86993e-06
5.04514e-07
-1.6194e-09
2.93627e-06
5.35696e-07
-1.26835e-09
5.67809e-07
-6.03077e-09
3.00826e-06
2.24817e-06
3.12807e-07
-1.58049e-09
2.29031e-06
3.40336e-07
-1.61304e-09
2.33538e-06
3.68111e-07
-1.72065e-09
2.38326e-06
3.96113e-07
-1.48304e-09
2.43402e-06
4.24073e-07
-1.49353e-09
2.48778e-06
4.52209e-07
-1.14328e-09
2.54469e-06
4.80086e-07
-7.4716e-10
5.0845e-07
-5.11657e-09
2.60646e-06
2.12694e-06
2.75967e-07
-2.13192e-09
2.16786e-06
3.00603e-07
-1.88223e-09
2.21168e-06
3.25537e-07
-1.76701e-09
2.25832e-06
3.50756e-07
-1.41215e-09
2.30779e-06
3.75931e-07
-1.3053e-09
2.36006e-06
4.01184e-07
-8.16856e-10
2.41511e-06
4.25881e-07
-1.85294e-10
4.50862e-07
-5.30195e-09
2.47473e-06
2.01203e-06
2.41259e-07
-1.37706e-09
2.05031e-06
2.63238e-07
-1.2463e-09
2.09142e-06
2.85561e-07
-1.15896e-09
2.13527e-06
3.0807e-07
-7.1321e-10
2.182e-06
3.30241e-07
-5.85709e-10
2.23184e-06
3.52122e-07
-2.43759e-10
2.28487e-06
3.7312e-07
1.86263e-10
3.94497e-07
-5.73787e-09
2.3429e-06
1.89547e-06
2.07521e-07
-1.21078e-09
1.93313e-06
2.26316e-07
-9.16449e-10
1.97379e-06
2.45435e-07
-8.03994e-10
2.01724e-06
2.6489e-07
-4.67037e-10
2.06337e-06
2.84238e-07
-5.54786e-10
2.11215e-06
3.03422e-07
-4.91597e-10
2.16343e-06
3.21742e-07
-2.73135e-10
3.40248e-07
-5.80392e-09
2.21927e-06
1.7867e-06
1.77268e-07
-1.33342e-09
1.82123e-06
1.92431e-07
-1.07036e-09
1.85938e-06
2.0762e-07
-1.16198e-09
1.90109e-06
2.23245e-07
-1.18637e-09
1.94604e-06
2.39345e-07
-1.66093e-09
1.99368e-06
2.56051e-07
-1.80834e-09
2.04336e-06
2.72542e-07
-1.72085e-09
2.89211e-07
-6.40292e-09
2.09658e-06
1.69962e-06
1.49381e-07
-1.32423e-09
1.73085e-06
1.61744e-07
-1.19291e-09
1.76501e-06
1.73966e-07
-1.41695e-09
1.80217e-06
1.86558e-07
-1.50866e-09
1.84233e-06
1.99818e-07
-1.96993e-09
1.88513e-06
2.14094e-07
-1.94476e-09
1.93004e-06
2.28585e-07
-1.67366e-09
2.43268e-07
-5.61446e-09
1.97839e-06
1.59619e-06
1.21876e-07
-1.93782e-09
1.62672e-06
1.32116e-07
-1.93547e-09
1.65941e-06
1.42375e-07
-2.294e-09
1.6941e-06
1.53133e-07
-2.37651e-09
1.73072e-06
1.64634e-07
-2.62626e-09
1.76915e-06
1.77166e-07
-2.11111e-09
1.80945e-06
1.8969e-07
-1.38799e-09
2.02191e-07
-5.10062e-09
1.8531e-06
1.49631e-06
9.58814e-08
-1.47717e-09
1.52513e-06
1.04076e-07
-1.64322e-09
1.55602e-06
1.12528e-07
-2.12783e-09
1.58867e-06
1.21715e-07
-2.29909e-09
1.62283e-06
1.31917e-07
-2.56646e-09
1.65817e-06
1.43391e-07
-2.1596e-09
1.69474e-06
1.54637e-07
-1.36657e-09
1.65356e-07
-4.58406e-09
1.73427e-06
1.38028e-06
7.17729e-08
-1.98202e-09
1.40745e-06
7.79886e-08
-2.27822e-09
1.43667e-06
8.4645e-08
-2.80736e-09
1.46761e-06
9.23358e-08
-2.9612e-09
1.4999e-06
1.01418e-07
-3.17852e-09
1.53293e-06
1.12165e-07
-2.32472e-09
1.56652e-06
1.2246e-07
-8.68479e-10
1.3203e-07
-3.47026e-09
1.60189e-06
1.27642e-06
4.91439e-08
-1.08818e-09
1.30154e-06
5.36292e-08
-1.5825e-09
1.32868e-06
5.85174e-08
-2.13831e-09
1.35764e-06
6.44148e-08
-2.18277e-09
1.38802e-06
7.21825e-08
-2.36523e-09
1.41898e-06
8.25671e-08
-1.83222e-09
1.45002e-06
9.28307e-08
-8.94589e-10
1.02118e-07
-3.13194e-09
1.48242e-06
1.12627e-06
2.86248e-08
-1.75007e-09
1.14974e-06
3.14121e-08
-2.59836e-09
1.17543e-06
3.44623e-08
-3.39083e-09
1.20327e-06
3.82772e-08
-3.38425e-09
1.23296e-06
4.42529e-08
-3.12467e-09
1.26339e-06
5.38684e-08
-1.65436e-09
1.29376e-06
6.38011e-08
-7.19043e-11
7.39098e-08
-1.34358e-09
1.3234e-06
9.17307e-07
1.27449e-08
-3.12701e-09
9.35244e-07
1.41581e-08
-2.54688e-09
9.54644e-07
1.51237e-08
-3.46997e-10
9.76691e-07
1.50399e-08
1.19572e-09
1.00459e-06
1.48472e-08
5.21812e-11
1.04057e-06
1.72951e-08
-2.56731e-09
1.08356e-06
2.13653e-08
-5.35769e-09
2.89837e-08
-7.02735e-09
1.12961e-06
6.69059e-07
-2.22329e-09
6.82365e-07
-1.98215e-09
6.96303e-07
-1.04002e-09
7.10097e-07
-7.98018e-10
7.24423e-07
-3.0955e-09
7.41331e-07
-4.54689e-09
7.62197e-07
-6.30284e-09
2.44522e-09
7.86332e-07
3.56486e-06
8.48323e-07
-7.60171e-09
-8.98755e-07
3.62358e-06
9.21414e-07
-7.71713e-09
-9.77168e-07
3.68779e-06
9.95591e-07
-7.43139e-09
-1.05677e-06
3.75739e-06
1.07059e-06
-7.27821e-09
-1.13714e-06
3.83233e-06
1.14666e-06
-6.79019e-09
-1.21858e-06
3.91243e-06
1.22317e-06
-6.46293e-09
-1.30036e-06
3.99752e-06
1.30106e-06
-5.465e-09
-1.38341e-06
1.37781e-06
-8.7902e-09
4.08758e-06
-1.46483e-06
3.551e-06
7.95367e-07
-4.79787e-09
3.6109e-06
8.63938e-07
-4.81869e-09
3.67566e-06
9.33286e-07
-4.58297e-09
3.74539e-06
1.0033e-06
-4.3267e-09
3.82041e-06
1.07407e-06
-4.03968e-09
3.90074e-06
1.14524e-06
-3.75824e-09
3.9866e-06
1.21722e-06
-2.53099e-09
1.28908e-06
-6.93902e-09
4.07813e-06
3.52654e-06
7.40251e-07
-4.04381e-09
3.58848e-06
8.03989e-07
-3.93062e-09
3.65527e-06
8.68483e-07
-3.66421e-09
3.72681e-06
9.33672e-07
-3.26004e-09
3.80323e-06
9.99458e-07
-3.03446e-09
3.88455e-06
1.0657e-06
-2.72672e-09
3.97097e-06
1.13222e-06
-1.66775e-09
1.19897e-06
-6.38996e-09
4.06335e-06
3.50554e-06
6.86099e-07
-3.93379e-09
3.56666e-06
7.4468e-07
-3.84624e-09
3.63305e-06
8.03921e-07
-3.67091e-09
3.70464e-06
8.63851e-07
-3.26485e-09
3.78147e-06
9.24336e-07
-3.12611e-09
3.86347e-06
9.85409e-07
-2.90636e-09
3.95056e-06
1.0466e-06
-2.06784e-09
1.10824e-06
-7.03513e-09
4.04366e-06
3.4808e-06
6.30095e-07
-3.50505e-09
3.543e-06
6.84052e-07
-3.33673e-09
3.60999e-06
7.3849e-07
-3.10961e-09
3.68185e-06
7.93455e-07
-2.65875e-09
3.75875e-06
8.48838e-07
-2.57771e-09
3.84077e-06
9.04826e-07
-2.43068e-09
3.9278e-06
9.60845e-07
-1.7269e-09
1.01742e-06
-7.29889e-09
4.02091e-06
3.44683e-06
5.74136e-07
-4.18612e-09
3.50966e-06
6.23042e-07
-3.96991e-09
3.5775e-06
6.72393e-07
-3.73311e-09
3.65036e-06
7.22165e-07
-3.24642e-09
3.72836e-06
7.72266e-07
-3.09629e-09
3.81148e-06
8.23044e-07
-2.82765e-09
3.89943e-06
8.74001e-07
-2.06344e-09
9.25744e-07
-7.99725e-09
3.99327e-06
3.4229e-06
5.19655e-07
-3.17441e-09
3.48384e-06
5.63512e-07
-3.05071e-09
3.54996e-06
6.07655e-07
-2.8127e-09
3.62128e-06
6.52032e-07
-2.36981e-09
3.69803e-06
6.9654e-07
-2.409e-09
3.78041e-06
7.41654e-07
-2.33089e-09
3.8681e-06
7.87176e-07
-1.8717e-09
8.33807e-07
-8.1158e-09
3.96214e-06
3.3894e-06
4.63552e-07
-4.34683e-09
3.4515e-06
5.03015e-07
-4.26425e-09
3.51812e-06
5.42673e-07
-4.11761e-09
3.5893e-06
5.8244e-07
-3.52357e-09
3.66526e-06
6.22107e-07
-3.43535e-09
3.74637e-06
6.62041e-07
-3.11856e-09
3.83273e-06
7.02173e-07
-2.62181e-09
7.43305e-07
-8.37964e-09
3.92558e-06
2.93611e-06
4.13321e-07
-2.47032e-09
2.99119e-06
4.4891e-07
-2.5908e-09
3.05013e-06
4.8481e-07
-2.79801e-09
3.1128e-06
5.20969e-07
-2.67951e-09
3.17922e-06
5.57123e-07
-2.92916e-09
3.24949e-06
5.93418e-07
-2.79245e-09
3.3238e-06
6.295e-07
-2.38462e-09
6.66051e-07
-7.57045e-09
3.40351e-06
2.78008e-06
3.64822e-07
-3.23796e-09
2.83359e-06
3.96646e-07
-3.12603e-09
2.89092e-06
4.28853e-07
-3.14091e-09
2.95191e-06
4.61435e-07
-2.86227e-09
3.01651e-06
4.94079e-07
-2.86173e-09
3.08468e-06
5.26816e-07
-2.39011e-09
3.15643e-06
5.59018e-07
-1.4536e-09
5.91416e-07
-7.33773e-09
3.2331e-06
2.63156e-06
3.19016e-07
-2.05768e-09
2.68177e-06
3.47336e-07
-2.14473e-09
2.73569e-06
3.76142e-07
-2.37043e-09
2.7932e-06
4.05322e-07
-2.108e-09
2.85432e-06
4.34331e-07
-1.9619e-09
2.91926e-06
4.63024e-07
-1.39391e-09
2.98822e-06
4.90689e-07
-4.37189e-10
5.18502e-07
-7.20799e-09
3.0626e-06
2.48163e-06
2.74937e-07
-2.31343e-09
2.53061e-06
2.99312e-07
-1.87323e-09
2.58341e-06
3.2407e-07
-1.52696e-09
2.63988e-06
3.49269e-07
-8.89453e-10
2.69987e-06
3.74507e-07
-7.20275e-10
2.76334e-06
3.99581e-07
-5.11856e-10
2.83016e-06
4.23659e-07
-6.96884e-11
4.47682e-07
-6.86811e-09
2.90205e-06
2.34157e-06
2.35322e-07
-2.47458e-09
2.38645e-06
2.55298e-07
-1.94206e-09
2.43581e-06
2.7519e-07
-1.64126e-09
2.48975e-06
2.95386e-07
-1.24637e-09
2.54802e-06
3.1608e-07
-1.49897e-09
2.61004e-06
3.37477e-07
-1.72149e-09
2.67502e-06
3.58797e-07
-1.8415e-09
3.80312e-07
-7.99589e-09
2.74398e-06
2.22715e-06
1.98571e-07
-2.02852e-09
2.26804e-06
2.14935e-07
-1.71154e-09
2.31263e-06
2.30982e-07
-1.80161e-09
2.36115e-06
2.47161e-07
-1.80451e-09
2.41363e-06
2.63947e-07
-2.32299e-09
2.46978e-06
2.81899e-07
-2.51768e-09
2.52897e-06
3.00416e-07
-2.47655e-09
3.19379e-07
-7.70351e-09
2.59199e-06
2.09459e-06
1.62327e-07
-2.81521e-09
2.13459e-06
1.75788e-07
-2.78937e-09
2.17745e-06
1.89126e-07
-3.2951e-09
2.22304e-06
2.02773e-07
-3.58363e-09
2.27128e-06
2.17146e-07
-4.06315e-09
2.32204e-06
2.32759e-07
-3.7323e-09
2.37532e-06
2.48794e-07
-3.05184e-09
2.65148e-07
-7.71173e-09
2.43217e-06
1.96493e-06
1.27939e-07
-2.03715e-09
2.00278e-06
1.386e-07
-2.30579e-09
2.04338e-06
1.49445e-07
-3.05355e-09
2.08646e-06
1.60916e-07
-3.51246e-09
2.13167e-06
1.73443e-07
-4.07235e-09
2.17863e-06
1.87543e-07
-3.90729e-09
2.22732e-06
2.01958e-07
-3.21801e-09
2.16301e-07
-7.48609e-09
2.27907e-06
1.8161e-06
9.59511e-08
-2.81857e-09
1.85175e-06
1.03952e-07
-3.28615e-09
1.89015e-06
1.12353e-07
-4.11157e-09
1.93098e-06
1.21722e-07
-4.59471e-09
1.97381e-06
1.32597e-07
-5.16758e-09
2.01795e-06
1.45593e-07
-4.51728e-09
2.06307e-06
1.58847e-07
-2.87476e-09
1.71949e-07
-5.83156e-09
2.10978e-06
1.6792e-06
6.57727e-08
-1.29394e-09
1.7123e-06
7.14151e-08
-2.14797e-09
1.74806e-06
7.75197e-08
-3.06444e-09
1.78635e-06
8.45075e-08
-3.2571e-09
1.82682e-06
9.33594e-08
-3.60394e-09
1.86858e-06
1.05421e-07
-3.41778e-09
1.91078e-06
1.18469e-07
-2.71147e-09
1.31493e-07
-5.95543e-09
1.95406e-06
1.48158e-06
3.82644e-08
-2.08544e-09
1.51238e-06
4.16062e-08
-3.58727e-09
1.54608e-06
4.53753e-08
-4.95195e-09
1.58276e-06
4.97217e-08
-5.26982e-09
1.62231e-06
5.60581e-08
-5.37571e-09
1.66366e-06
6.66796e-08
-4.26757e-09
1.70565e-06
7.90011e-08
-2.58702e-09
9.28668e-08
-3.47279e-09
1.7464e-06
1.21034e-06
1.66142e-08
-2.87233e-09
1.23415e-06
1.82418e-08
-2.9864e-09
1.26005e-06
1.96611e-08
-5.37605e-10
1.28891e-06
1.98566e-08
2.20265e-09
1.32412e-06
1.93698e-08
1.52977e-09
1.36899e-06
2.14525e-08
-2.20482e-09
1.42359e-06
2.58834e-08
-6.84175e-09
3.53327e-08
-9.24169e-09
1.48334e-06
8.78491e-07
-6.27335e-10
8.95143e-07
-3.9203e-10
9.12885e-07
8.78243e-10
9.30768e-07
1.17653e-09
9.49119e-07
-2.07734e-09
9.70219e-07
-4.19479e-09
9.95912e-07
-6.11217e-09
7.64057e-09
1.02605e-06
4.4972e-06
1.08144e-06
-9.94324e-09
-1.14667e-06
4.57155e-06
1.17269e-06
-1.03233e-08
-1.24444e-06
4.65272e-06
1.26515e-06
-1.02369e-08
-1.34351e-06
4.74052e-06
1.35859e-06
-1.01912e-08
-1.44348e-06
4.83484e-06
1.45321e-06
-9.76777e-09
-1.54455e-06
4.9355e-06
1.54837e-06
-9.38675e-09
-1.64611e-06
5.04226e-06
1.64511e-06
-8.29371e-09
-1.74904e-06
1.74067e-06
-1.17814e-08
5.15505e-06
-1.85047e-06
4.47893e-06
1.0136e-06
-6.78663e-09
4.55465e-06
1.09922e-06
-7.06694e-09
4.63647e-06
1.18572e-06
-6.97446e-09
4.72452e-06
1.27298e-06
-6.76485e-09
4.81907e-06
1.36112e-06
-6.5105e-09
4.92019e-06
1.44978e-06
-6.2896e-09
5.02813e-06
1.53943e-06
-4.78531e-09
1.62891e-06
-9.84807e-09
5.1428e-06
4.44865e-06
9.43318e-07
-5.72803e-09
4.52685e-06
1.02296e-06
-5.86793e-09
4.61111e-06
1.10348e-06
-5.68959e-09
4.7013e-06
1.18478e-06
-5.24947e-09
4.79754e-06
1.2668e-06
-4.94442e-09
4.89985e-06
1.34936e-06
-4.6173e-09
5.00853e-06
1.43233e-06
-3.2532e-09
1.51553e-06
-8.64557e-09
5.12416e-06
4.42163e-06
8.74048e-07
-5.41431e-09
4.49899e-06
9.47332e-07
-5.5777e-09
4.58292e-06
1.02139e-06
-5.50731e-09
4.67331e-06
1.09622e-06
-5.09599e-09
4.77018e-06
1.17172e-06
-4.91339e-09
4.87342e-06
1.24791e-06
-4.68986e-09
4.98302e-06
1.32432e-06
-3.65505e-09
1.4012e-06
-9.33286e-09
5.09965e-06
4.39045e-06
8.02717e-07
-4.78978e-09
4.46903e-06
8.70226e-07
-4.81485e-09
4.55363e-06
9.38327e-07
-4.65056e-09
4.64434e-06
1.007e-06
-4.14501e-09
4.7413e-06
1.07618e-06
-3.99901e-09
4.84461e-06
1.14603e-06
-3.86195e-09
4.95424e-06
1.21601e-06
-3.04888e-09
1.28663e-06
-9.44836e-09
5.07096e-06
4.34872e-06
7.31477e-07
-5.72606e-09
4.42803e-06
7.92712e-07
-5.76864e-09
4.51362e-06
8.54552e-07
-5.55088e-09
4.60543e-06
9.16863e-07
-4.91579e-09
4.70359e-06
9.79523e-07
-4.59831e-09
4.80813e-06
1.04287e-06
-4.21165e-09
4.91885e-06
1.10647e-06
-3.23078e-09
1.17098e-06
-9.96255e-09
5.03645e-06
4.31787e-06
6.61974e-07
-4.26253e-09
4.39497e-06
7.16957e-07
-4.39495e-09
4.47858e-06
7.72368e-07
-4.24021e-09
4.56866e-06
8.28064e-07
-3.64792e-09
4.6654e-06
8.83869e-07
-3.49829e-09
4.76907e-06
9.40194e-07
-3.31842e-09
4.87947e-06
9.96918e-07
-2.73027e-09
1.0549e-06
-9.88853e-09
4.99733e-06
4.27643e-06
5.90576e-07
-5.75073e-09
4.35488e-06
6.40049e-07
-5.80533e-09
4.43907e-06
6.89801e-07
-5.74342e-09
4.52905e-06
7.39702e-07
-5.13608e-09
4.62497e-06
7.89483e-07
-4.973e-09
4.72723e-06
8.39413e-07
-4.58936e-09
4.83603e-06
8.89464e-07
-3.97017e-09
9.40571e-07
-1.04061e-08
4.95238e-06
3.70498e-06
5.26661e-07
-3.23501e-09
3.77467e-06
5.71276e-07
-3.50912e-09
3.84926e-06
6.16243e-07
-3.83307e-09
3.92861e-06
6.61506e-07
-3.83014e-09
4.01267e-06
7.06787e-07
-4.29938e-09
4.10151e-06
7.5217e-07
-4.38977e-09
4.19535e-06
7.97316e-07
-4.07406e-09
8.42937e-07
-9.87338e-09
4.29529e-06
3.50959e-06
4.64909e-07
-4.23884e-09
3.57727e-06
5.04782e-07
-4.31337e-09
3.6498e-06
5.45071e-07
-4.49633e-09
3.72695e-06
5.85815e-07
-4.31863e-09
3.80859e-06
6.26724e-07
-4.44216e-09
3.89464e-06
6.67775e-07
-4.04517e-09
3.98515e-06
7.08298e-07
-2.94986e-09
7.49007e-07
-9.36666e-09
4.08111e-06
3.32285e-06
4.06489e-07
-2.62521e-09
3.38654e-06
4.4187e-07
-2.92576e-09
3.4549e-06
4.77815e-07
-3.47402e-09
3.52778e-06
5.14316e-07
-3.48543e-09
3.60512e-06
5.50871e-07
-3.44549e-09
3.68705e-06
5.87202e-07
-2.75921e-09
3.7739e-06
6.224e-07
-1.38541e-09
6.576e-07
-8.64189e-09
3.86674e-06
3.13495e-06
3.50655e-07
-3.41736e-09
3.19663e-06
3.81243e-07
-2.92281e-09
3.26305e-06
4.12258e-07
-2.39388e-09
3.33415e-06
4.43811e-07
-1.48389e-09
3.40974e-06
4.75584e-07
-1.0231e-09
3.48972e-06
5.07297e-07
-5.84587e-10
3.57401e-06
5.37912e-07
1.21488e-10
5.683e-07
-7.56893e-09
3.66401e-06
2.95953e-06
3.00402e-07
-3.68562e-09
3.01602e-06
3.25791e-07
-2.97822e-09
3.07791e-06
3.51042e-07
-2.32064e-09
3.14551e-06
3.76446e-07
-1.47448e-09
3.21865e-06
4.02302e-07
-1.36259e-09
3.29675e-06
4.28928e-07
-1.45301e-09
3.3789e-06
4.55574e-07
-1.65028e-09
4.82503e-07
-8.94888e-09
3.46565e-06
2.81363e-06
2.53657e-07
-2.75722e-09
2.86538e-06
2.74567e-07
-2.2344e-09
2.92169e-06
2.95048e-07
-2.12035e-09
2.98292e-06
3.15382e-07
-1.96564e-09
3.04921e-06
3.36138e-07
-2.45275e-09
3.12031e-06
3.58092e-07
-2.77933e-09
3.19552e-06
3.80865e-07
-2.98548e-09
4.04417e-07
-9.29169e-09
3.2752e-06
2.64814e-06
2.076e-07
-3.70517e-09
2.69875e-06
2.2473e-07
-3.5615e-09
2.75299e-06
2.41627e-07
-4.10961e-09
2.81078e-06
2.58597e-07
-4.58711e-09
2.87205e-06
2.76144e-07
-5.34031e-09
2.93665e-06
2.95016e-07
-5.25802e-09
3.00456e-06
3.14643e-07
-4.74141e-09
3.35031e-07
-1.01256e-08
3.07636e-06
2.48401e-06
1.63773e-07
-2.52709e-09
2.53201e-06
1.77241e-07
-2.80792e-09
2.58351e-06
1.90823e-07
-3.75551e-09
2.63825e-06
2.04885e-07
-4.53519e-09
2.69587e-06
2.19934e-07
-5.49169e-09
2.75593e-06
2.36726e-07
-5.67242e-09
2.8183e-06
2.54263e-07
-5.21172e-09
2.723e-07