/*--------------------------------*- C++ -*----------------------------------*\
  =========                 |
  \\      /  F ield         | OpenFOAM: The Open Source CFD Toolbox
   \\    /   O peration     | Website:  https://openfoam.org
    \\  /    A nd           | Version:  6
     \\/     M anipulation  |
\*---------------------------------------------------------------------------*/
FoamFile
{
    version     2.0;
    format      ascii;
    class       volScalarField;
    location    "8";
    object      yPlus;
}
// * * * * * * * * * * * * * * * * * * * * * * * * * * * * * * * * * * * * * //

dimensions      [0 0 0 0 0 0 0];

internalField   uniform 0;

boundaryField
{
    inlet
    {
        type            calculated;
        value           uniform 0;
    }
    outlet
    {
        type            calculated;
        value           uniform 0;
    }
    roughCylinder
    {
        type            calculated;
        value           nonuniform List<scalar> 
5120
(
42.8531
50.6281
56.8089
62.8247
67.9676
72.1105
75.416
78.0788
80.2543
82.0795
83.6745
85.1034
86.4047
87.6103
88.7497
89.8528
90.9492
92.0655
93.2243
94.4412
95.7243
97.0754
98.4911
99.9643
101.485
103.041
104.615
106.186
107.713
109.129
110.29
110.972
42.1869
49.6768
55.6611
61.5403
66.6115
70.7185
74.0037
76.6566
78.8314
80.6634
82.2653
83.6962
84.9877
86.178
87.2986
88.3802
89.4528
90.5447
91.6777
92.8672
94.1218
95.4431
96.8277
98.268
99.7546
101.275
102.813
104.346
105.837
107.218
108.351
109.015
41.4153
48.6639
54.4677
60.2151
65.2189
69.298
72.5742
75.2296
77.416
79.2639
80.8778
82.3118
83.5963
84.7746
85.8785
86.9398
87.9908
89.0583
90.1656
91.3287
92.5553
93.8471
95.2005
96.6087
98.0612
99.546
101.048
102.545
103.999
105.346
106.45
107.097
40.6607
47.6717
53.2901
58.8976
63.8287
67.8783
71.1457
73.807
76.0116
77.8827
79.5128
80.9532
82.2372
83.4054
84.4946
85.5384
86.5682
87.614
88.6981
89.8356
91.0352
92.2985
93.6221
94.998
96.4171
97.8672
99.3326
100.793
102.211
103.525
104.601
105.23
39.8136
46.6088
52.0458
57.515
62.3809
66.4156
69.6938
72.3799
74.6166
76.5178
78.1687
79.6201
80.908
82.07
83.1483
84.1763
85.1888
86.2135
87.2741
88.3879
89.5619
90.7977
92.0916
93.4373
94.8236
96.2397
97.6704
99.0953
100.479
101.759
102.808
103.42
39.0105
45.5817
50.8259
56.146
60.9413
64.9606
68.2489
70.9583
73.2271
75.1617
76.8377
78.3043
79.6004
80.764
81.8352
82.8519
83.8475
84.8545
85.8963
86.9873
88.1369
89.3466
90.6131
91.9278
93.2826
94.6652
96.061
97.4501
98.799
100.047
101.069
101.664
38.0993
44.4621
49.5117
54.6801
59.4108
63.4326
66.7572
69.5162
71.8357
73.8117
75.5179
77.006
78.3164
79.4871
80.5563
81.5641
82.5488
83.5395
84.5609
85.6314
86.7583
87.9429
89.1815
90.4682
91.7921
93.1423
94.5047
95.8601
97.1756
98.3912
99.3871
99.9656
37.2436
43.3853
48.2262
53.2286
57.8875
61.9107
65.2687
68.0693
70.4335
72.4545
74.1981
75.7135
77.0434
78.2273
79.3034
80.3096
81.2845
82.2632
83.2715
84.3233
85.4286
86.5898
87.8035
89.0606
90.354
91.6718
93.0007
94.3214
95.6031
96.7877
97.7575
98.3202
36.244
42.1765
46.7998
51.6249
56.211
60.2538
63.6804
66.5652
69.0078
71.0881
72.876
74.4269
75.7852
76.9889
78.0755
79.0854
80.0585
81.0287
82.0205
83.0559
84.1423
85.2809
86.468
87.6991
88.9629
90.2494
91.5457
92.834
94.0835
95.2374
96.182
96.728
35.2986
41.006
45.3989
50.0288
54.5302
58.5888
62.0784
65.0308
67.5368
69.6833
71.5301
73.1274
74.5209
75.7515
76.8584
77.8802
78.8559
79.8229
80.8099
81.8318
82.9001
84.0179
85.1828
86.385
87.6188
88.8728
90.1356
91.3898
92.6051
93.7288
94.6475
95.1776
34.1321
39.6281
43.7759
48.186
52.5868
56.6743
60.276
63.3714
66.0103
68.2506
70.1653
71.8178
73.2575
74.5248
75.6565
76.6937
77.6793
78.6478
79.6246
80.6357
81.6893
82.7871
83.9258
85.1028
86.3073
87.5296
88.7596
89.9808
91.1651
92.2582
93.1536
93.6662
32.9893
38.2748
42.1686
46.3394
50.6206
54.7269
58.4274
61.6307
64.3663
66.7151
68.7295
70.4612
71.9614
73.275
74.4442
75.5095
76.5098
77.4846
78.4672
79.4716
80.511
81.5906
82.7099
83.8584
85.0322
86.2214
87.4173
88.6035
89.7532
90.8154
91.6849
92.1817
31.5085
36.5922
40.1974
44.074
48.1861
52.3071
56.178
59.6346
62.6184
65.1298
67.2553
69.0744
70.6468
72.0202
73.2341
74.33
75.354
76.3425
77.3203
78.3193
79.3492
80.4123
81.5054
82.6292
83.7745
84.9316
86.0939
87.2469
88.3657
89.3984
90.2449
90.7246
30.0133
34.9132
38.2405
41.8115
45.7284
49.836
53.8323
57.4466
60.5809
63.2967
65.609
67.572
69.2518
70.7042
71.9803
73.1266
74.1824
75.1891
76.1872
77.1884
78.2088
79.2561
80.3333
81.4291
82.5415
83.6639
84.7906
85.9069
86.9898
87.9899
88.8106
89.2725
27.9117
32.6319
35.6115
38.7515
42.3376
46.3785
50.6262
54.7279
58.3761
61.3878
63.8979
66.0126
67.8101
69.3586
70.7096
71.9083
73.0064
74.0439
75.0436
76.046
77.0629
78.0982
79.1482
80.2184
81.3032
82.3916
83.4831
84.5653
85.6169
86.5881
87.385
87.8315
25.6664
30.3015
33.0315
35.8142
39.0923
43.0127
47.3193
51.5461
55.3978
58.8801
61.788
64.1879
66.1929
67.8865
69.3423
70.6251
71.7798
72.8514
73.8919
74.909
75.9225
76.944
77.982
79.0248
80.0721
81.1223
82.1752
83.2166
84.23
85.1642
85.936
86.3598
21.9857
26.5776
28.8924
30.9515
33.4071
36.9203
41.7048
47.1613
52.2549
56.2347
59.5403
62.2547
64.4786
66.3387
67.9239
69.2961
70.5214
71.6496
72.6992
73.7251
74.7426
75.7578
76.7662
77.7799
78.7999
79.8126
80.8266
81.8323
82.8132
83.7183
84.4643
84.8773
17.5523
22.6888
25.0938
27.0605
29.5041
32.919
37.0145
41.5503
46.655
52.1521
56.3982
59.7208
62.3851
64.5388
66.3167
67.8335
69.1565
70.3416
71.4637
72.5232
73.5452
74.5477
75.5484
76.5343
77.509
78.4767
79.4467
80.4041
81.3411
82.2029
82.924
83.305
2.93876
11.2476
14.6157
15.6892
12.3815
12.1781
20.3386
32.5312
41.7671
47.2779
52.6945
56.8843
60.0516
62.5495
64.5808
66.2651
67.7115
68.9988
70.1393
71.2165
72.2528
73.2568
74.2222
75.1718
76.1176
77.0408
77.9661
78.8843
79.7876
80.6179
81.3095
81.6883
7.97091
10.5892
11.3692
11.7373
10.9113
11.1705
16.7749
14.6127
24.1648
40.1271
47.1712
52.7201
56.9222
60.061
62.4805
64.4352
66.0602
67.4427
68.7122
69.8549
70.9066
71.8969
72.8595
73.7795
74.6663
75.5317
76.4011
77.2578
78.105
78.8821
79.5501
79.8782
9.23865
14.0561
14.3126
13.3144
14.498
12.2941
11.9649
11.6837
19.3366
21.0894
38.8725
47.1591
52.8783
56.9812
60.0248
62.3535
64.2241
65.808
67.1097
68.2831
69.3654
70.3696
71.2848
72.1526
73.0053
73.8117
74.6283
75.4376
76.2541
76.9911
77.6223
77.968
19.1633
23.31
24.8578
24.9175
23.3954
21.3695
22.0945
14.2358
16.4354
22.8457
22.7293
39.6222
47.59
53.0331
56.8761
59.7542
61.9859
63.7378
65.2891
66.5901
67.7063
68.6915
69.6099
70.4439
71.2111
71.9342
72.6664
73.3926
74.12
74.7912
75.4031
75.6572
21.6269
26.5198
29.0813
30.8085
31.537
31.0243
28.9172
25.6016
18.3113
20.7005
24.0954
12.3479
37.0499
46.6049
52.5514
56.4853
59.2932
61.5063
63.1097
64.466
65.6445
66.6671
67.5119
68.2555
68.9758
69.6072
70.2783
70.9337
71.6573
72.2609
72.821
73.1391
22.5385
27.5405
30.3718
32.5875
34.1565
35.0489
35.1621
34.2969
31.7207
25.9859
22.0817
10.7661
21.8282
39.162
47.0107
52.1447
55.8092
58.3181
60.4746
62.0948
63.3411
64.3304
65.1848
65.8856
66.4594
66.9496
67.4626
67.9992
68.5263
69.06
69.6121
69.7525
22.1714
27.2968
30.3005
32.7687
34.6714
36.0079
36.7857
36.9898
36.4584
34.5237
29.9475
29.5326
13.0508
21.2426
37.2134
45.9468
51.0437
54.8447
57.0313
58.758
60.144
61.2112
61.9316
62.4341
62.9344
63.2598
63.6948
64.1035
64.7719
65.1576
65.6324
65.8997
20.7674
26.0353
29.1542
31.7928
33.9289
35.5716
36.749
37.4992
37.8386
37.6519
36.2563
32.6865
26.5115
30.3298
23.8392
36.3912
44.8162
48.9642
52.6687
54.9918
56.477
57.4889
58.208
58.6386
58.8249
58.8215
58.9428
59.1235
59.1988
59.5529
59.9976
60.0757
18.8363
24.2129
27.3786
30.0923
32.3483
34.1659
35.5849
36.6689
37.4922
38.0913
38.3226
37.36
33.2857
29.9779
23.9296
21.9361
34.5131
43.441
46.2527
48.6257
50.5902
51.6582
52.1484
51.98
51.9882
51.8515
51.5614
51.822
52.5686
53.3094
53.4206
52.7496
16.6109
21.9995
25.1192
27.8108
30.095
32.011
33.6063
34.9469
36.1169
37.185
38.1269
38.6607
37.8465
32.3948
30.8852
15.6597
15.2985
27.3963
38.0524
42.6643
44.2365
45.2536
45.856
45.1209
44.6861
43.2674
42.634
40.8191
40.596
38.1706
39.5233
42.0853
14.383
19.6341
22.5938
25.1515
27.3593
29.2784
30.9688
32.4956
33.9397
35.3747
36.8149
38.142
38.9306
37.8831
32.4684
26.5697
12.8875
21.6699
22.8791
24.3103
28.7475
30.5527
29.0488
27.5494
23.0741
24.0768
18.1706
25.5868
22.348
36.8169
30.7001
19.4713
12.4074
17.3999
20.1219
22.4691
24.5247
26.3673
28.0656
29.6835
31.2869
32.9477
34.7019
36.4951
38.1017
38.9237
37.6077
32.6539
21.7572
25.9705
30.059
19.6241
29.6147
19.7482
30.3753
16.176
21.4341
29.2161
16.8238
34.4927
25.4687
41.3419
36.1496
23.5101
10.8773
15.5398
18.0006
20.1083
21.9742
23.6892
25.3258
26.9435
28.594
30.334
32.2158
34.2482
36.3203
38.0948
38.8968
37.6914
32.3914
23.8528
28.2779
21.5625
26.993
21.198
33.4593
25.8063
28.5334
36.4624
34.091
37.7247
35.5963
39.0767
38.092
34.5615
9.70425
14.1273
16.3571
18.2507
19.9407
21.5223
23.0645
24.6178
26.2221
27.9213
29.7684
31.8146
34.0539
36.3123
38.1662
38.9644
37.8664
32.4182
28.2418
24.5447
18.4825
30.2165
25.8588
35.3856
33.2451
33.2622
36.415
37.4696
37.5837
37.0856
37.3989
36.9111
8.99029
13.2078
15.2585
16.9932
18.5533
20.028
21.4749
22.9322
24.4299
26.0037
27.7037
29.5963
31.739
34.1032
36.4519
38.2884
39.0281
37.7115
35.8718
34.2592
32.9982
33.8344
35.4059
37.1709
40.7265
40.5015
41.6274
43.0139
42.495
43.1656
43.054
41.4733
8.63748
12.7349
14.6818
16.3297
17.8205
19.2312
20.6042
21.9652
23.3366
24.7485
26.2464
27.8949
29.7721
31.9363
34.335
36.6688
38.4162
38.9577
38.7845
38.4088
38.3659
38.609
39.7176
39.8824
42.3736
42.5612
42.5674
43.8152
43.4449
44.5887
44.3641
42.9559
8.59824
12.6473
14.5563
16.1803
17.655
19.0426
20.3715
21.6571
22.9169
24.1773
25.4762
26.8669
28.4215
30.2246
32.3307
34.6555
36.8639
38.4014
39.1921
39.4763
39.6986
39.8476
40.5753
40.5299
42.4073
42.7615
42.4313
43.374
43.1739
44.3558
44.1782
43.2827
8.79597
12.8537
14.7773
16.4279
17.9286
19.3274
20.6418
21.8821
23.0626
24.2063
25.3443
26.5175
27.7813
29.2103
30.8881
32.8526
34.9914
36.9372
38.3832
39.2413
39.7213
39.888
40.3224
40.3516
41.4937
41.7673
41.4137
42.1039
42.0299
43.1131
43.0483
42.6182
9.18256
13.2849
15.2552
16.9637
18.5178
19.9534
21.28
22.5039
23.6389
24.7065
25.7333
26.7498
27.795
28.9231
30.2056
31.713
33.4588
35.2908
36.9461
38.1611
38.8906
39.1297
39.3901
39.4334
40.0612
40.2438
40.0111
40.5894
40.6345
41.6029
41.6605
41.5376
9.7187
13.8884
15.9238
17.7078
19.3311
20.8183
22.1734
23.4025
24.5205
25.5494
26.5128
27.4338
28.3376
29.2592
30.249
31.3688
32.6692
34.1232
35.5988
36.8508
37.6956
38.0317
38.2379
38.2904
38.6249
38.7927
38.759
39.3224
39.519
40.3757
40.5578
40.6235
10.3692
14.6267
16.74
18.6097
20.3093
21.854
23.2458
24.4927
25.6134
26.6317
27.5699
28.4452
29.2734
30.0739
30.8778
31.7283
32.6741
33.7341
34.8671
35.9229
36.7174
37.1091
37.3124
37.3925
37.6105
37.8316
38.0033
38.6068
38.9639
39.745
40.0404
40.2206
11.0833
15.4654
17.6726
19.6351
21.4123
23.0147
24.4456
25.7174
26.8534
27.8798
28.8183
29.6826
30.4821
31.2257
31.9301
32.6206
33.3324
34.0931
34.9031
35.6911
36.3316
36.7038
36.9048
37.0209
37.2246
37.5262
37.8746
38.5377
39.0433
39.7899
40.1834
40.438
11.5548
11.8527
12.2752
12.6231
12.9986
13.3217
13.6226
13.8749
14.0951
14.2719
14.4136
14.5171
14.586
14.6186
14.6193
14.5886
14.528
14.4414
14.34
14.2582
14.3013
14.4197
14.5377
14.6344
14.7025
14.7394
14.7441
14.7152
14.6489
14.5472
14.4057
14.227
14.003
13.7447
13.4352
13.1016
12.7152
12.3518
11.9258
11.5974
16.0907
16.4075
16.8445
17.2125
17.605
17.947
18.2694
18.5457
18.7913
18.9959
19.1666
19.3004
19.3999
19.4622
19.4891
19.4807
19.4364
19.3589
19.2583
19.1725
19.2197
19.3452
19.4628
19.5504
19.6021
19.6169
19.5951
19.5365
19.4397
19.3077
19.1369
18.9302
18.6804
18.3975
18.066
17.7126
17.3079
16.9245
16.4777
16.142
18.3698
18.7141
19.1789
19.5736
19.9929
20.362
20.7151
21.0257
21.3087
21.5542
21.7687
21.9483
22.0955
22.2056
22.2781
22.3118
22.3049
22.2583
22.181
22.1093
22.1544
22.2658
22.3604
22.4176
22.4325
22.4058
22.339
22.2334
22.0902
21.9132
21.6996
21.4528
21.1664
20.8499
20.4882
20.1077
19.6758
19.2653
18.7874
18.4265
20.3881
20.7563
21.2454
21.662
22.1043
22.498
22.8798
23.2229
23.5422
23.8281
24.0861
24.3112
24.5055
24.6637
24.7829
24.86
24.8926
24.8804
24.8323
24.7832
24.8219
24.9109
24.9775
25.001
24.9772
24.9076
24.795
24.6426
24.4536
24.2323
23.9763
23.6906
23.3692
23.0213
22.632
22.2276
21.7729
21.3406
20.8366
20.4514
22.2031
22.5825
23.0834
23.5099
23.9638
24.3718
24.7715
25.137
25.4826
25.7989
26.0915
26.3545
26.588
26.7862
26.9448
27.0592
27.126
27.1446
27.1237
27.0963
27.1286
27.1953
27.2357
27.2292
27.1717
27.0654
26.9141
26.7226
26.4955
26.2375
25.9487
25.6341
25.2878
24.919
24.5129
24.0953
23.6293
23.1876
22.671
22.2736
23.8276
24.2035
24.7035
25.1285
25.584
25.9973
26.4066
26.7868
27.1527
27.4948
27.8166
28.1121
28.3793
28.612
28.8043
28.9508
29.0469
29.0918
29.0939
29.083
29.1109
29.1593
29.177
29.1446
29.0579
28.9197
28.7349
28.5096
28.2494
27.9601
27.6433
27.3045
26.9399
26.5578
26.1435
25.7217
25.2549
24.815
24.299
23.9043
25.2698
25.6308
26.1225
26.5402
26.9928
27.4085
27.8257
28.2209
28.6064
28.9728
29.3216
29.6467
29.9441
30.2073
30.4293
30.6036
30.7249
30.7915
30.8114
30.812
30.8371
30.8721
30.8717
30.8172
30.7052
30.5392
30.3247
30.069
29.7787
29.4604
29.1173
28.7554
28.3724
27.9774
27.557
27.1342
26.671
26.2389
25.7309
25.3503
26.5483
26.889
27.3709
27.7812
28.2323
28.6533
29.0814
29.4929
29.8983
30.2879
30.6619
31.0138
31.3383
31.6283
31.876
32.0739
32.2158
32.2996
32.3326
32.3405
32.364
32.3901
32.3758
32.3036
32.1704
31.9803
31.7399
31.4573
31.1399
30.7949
30.4269
30.0423
29.6404
29.23
28.8002
28.3741
27.9135
27.4892
26.9908
26.6298
27.6906
28.0104
28.4846
28.8911
29.3446
29.7744
30.215
30.6431
31.0673
31.4782
31.8749
32.2501
32.598
32.9107
33.1796
33.3967
33.5549
33.6515
33.6933
33.7051
33.7279
33.7486
33.7246
33.6387
33.4886
33.2786
33.0166
32.7109
32.3698
32.0015
31.6109
31.2053
30.7848
30.3586
29.9172
29.4833
29.0217
28.602
28.111
27.7703
28.7246
29.0249
29.4941
29.8999
30.3586
30.7981
31.2509
31.6944
32.1356
32.565
32.981
33.3757
33.7428
34.0738
34.3597
34.5915
34.7617
34.8671
34.914
34.9275
34.95
34.9682
34.9379
34.8422
34.6791
34.4537
34.1743
33.8497
33.4891
33.1008
32.6911
32.2668
31.8296
31.3882
30.935
30.492
30.0262
29.6078
29.1214
28.8
29.6706
29.9515
30.4171
30.8242
31.2881
31.737
32.201
32.658
33.1137
33.5587
33.9904
34.4009
34.7833
35.1283
35.4267
35.6691
35.8477
35.9587
36.0079
36.0212
36.044
36.0614
36.0276
35.9252
35.7529
35.5161
35.2234
34.8842
34.508
34.1035
33.6777
33.2378
32.786
32.3313
31.867
31.4151
30.944
30.5254
30.0424
29.7397
30.5405
30.8002
31.2615
31.6694
32.1382
32.5957
33.0697
33.5385
34.0064
34.4643
34.9087
35.3314
35.7252
36.0805
36.3878
36.6374
36.8212
36.9354
36.9856
36.9981
37.0208
37.0383
37.0023
36.8958
36.7173
36.4724
36.17
35.8199
35.4317
35.0146
34.5757
34.1228
33.6587
33.1922
32.7179
32.2576
31.7816
31.3623
30.8828
30.6006
31.3391
31.5733
32.0288
32.4366
32.9098
33.3751
33.8581
34.3374
34.8159
35.2845
35.7389
36.1711
36.5732
36.9357
37.2489
37.5031
37.6901
37.8063
37.8572
37.8696
37.8919
37.9086
37.8709
37.7615
37.5788
37.3285
37.0196
36.6616
36.2644
35.8374
35.388
34.9242
34.4492
33.9722
33.4888
33.0205
32.5399
32.1201
31.6454
31.3877
32.0695
32.2713
32.7181
33.1248
33.6019
34.0748
34.5666
35.0557
35.5437
36.0214
36.4841
36.9236
37.3317
37.699
38.0158
38.2727
38.4617
38.5794
38.6321
38.6458
38.6671
38.6814
38.6412
38.5293
38.3439
38.0902
37.7767
37.4132
37.0094
36.5745
36.1165
35.6431
35.1585
34.6714
34.1791
33.7027
33.2176
32.7972
32.33
32.1039
32.737
32.8941
33.3272
33.732
34.2127
34.6936
35.1944
35.6932
36.1904
36.6765
37.1463
37.5916
38.0042
38.3746
38.6935
38.9516
39.142
39.2616
39.3171
39.3338
39.3534
39.3634
39.3196
39.2053
39.0178
38.7619
38.4456
38.0783
37.6694
37.2282
36.7625
36.2804
35.7862
35.2893
34.7877
34.3028
33.8132
33.3927
32.938
32.7561
33.3534
33.4458
33.8551
34.2561
34.7398
35.2292
35.7395
36.2487
36.7553
37.2498
37.7264
38.1768
38.5928
38.9654
39.2854
39.5444
39.7357
39.8574
39.9167
39.937
39.9548
39.9592
39.9112
39.7941
39.6049
39.3476
39.0294
38.6591
38.2459
37.7991
37.3262
36.8355
36.3317
35.824
35.3124
34.8181
34.3231
33.9049
33.4732
33.3561
33.9353
33.9327
34.3009
34.6925
35.1794
35.678
36.1991
36.7196
37.2366
37.7399
38.2235
38.679
39.0982
39.4726
39.7934
40.0527
40.245
40.3689
40.4322
40.4564
40.4721
40.4707
40.418
40.2981
40.1072
39.8486
39.5288
39.1561
38.739
38.2867
37.8065
37.3065
36.7922
36.2731
35.7501
35.2458
34.746
34.3362
33.9451
33.9241
34.5039
34.3683
34.6706
35.0421
35.5286
36.0369
36.5696
37.1026
37.631
38.1442
38.6355
39.0965
39.5193
39.8955
40.2171
40.4769
40.67
40.7962
40.8632
40.8906
40.9046
40.8978
40.8404
40.7175
40.5249
40.265
39.9436
39.5682
39.1471
38.6887
38.2004
37.6905
37.1645
36.6322
36.0968
35.5801
35.0795
34.6899
34.3658
34.4806
35.0691
34.7644
34.9715
35.3068
35.7858
36.304
36.8488
37.3956
37.9365
38.4606
38.9604
39.4277
39.8546
40.2332
40.5559
40.8164
41.0104
41.1385
41.2086
41.2385
41.2509
41.2396
41.178
41.0522
40.8578
40.5963
40.2728
39.8944
39.4686
39.0034
38.5065
37.9855
37.447
36.9004
36.3522
35.8244
35.3311
34.9783
34.751
35.0399
35.6033
35.1187
35.2123
35.4974
35.9599
36.4842
37.0413
37.6021
38.1559
38.6915
39.2004
39.6744
40.1059
40.4872
40.8113
41.0726
41.2674
41.397
41.4693
41.501
41.5121
41.4971
41.432
41.3037
41.1073
40.844
40.5182
40.1362
39.7052
39.2329
38.7265
38.1939
37.6419
37.081
36.5181
35.9845
35.5092
35.2095
35.1006
35.5784
36.0611
35.4187
35.4016
35.6303
36.0694
36.5943
37.1624
37.7355
38.3016
38.8476
39.3652
39.8457
40.2815
40.6653
40.9906
41.2522
41.4473
41.5775
41.651
41.6837
41.694
41.6763
41.6086
41.4784
41.2805
41.0155
40.6875
40.3021
39.8662
39.3869
38.8717
38.3282
37.7639
37.1901
36.6157
36.0816
35.6304
35.3892
35.3939
36.0326
36.3866
35.6424
35.5474
35.7309
36.1484
36.6702
37.2448
37.8263
38.401
38.9546
39.4782
39.9628
40.4011
40.7859
41.1111
41.3718
41.5659
41.6952
41.7683
41.8012
41.8108
41.7917
41.7231
41.5922
41.3938
41.1283
40.7991
40.4116
39.9723
39.4881
38.966
38.414
37.8398
37.2543
36.6734
36.1434
35.7156
35.5213
35.6014
36.3305
36.5705
35.798
35.6757
35.8367
36.2404
36.7572
37.3327
37.9184
38.4962
39.0523
39.577
40.0615
40.4986
40.8811
41.2032
41.4606
41.6513
41.7774
41.848
41.8798
41.8893
41.8706
41.803
41.6735
41.4769
41.2131
40.8853
40.4988
40.0595
39.5743
39.0501
38.4945
37.9158
37.3247
36.742
36.2171
35.8045
35.6359
35.7491
36.513
36.6837
35.9437
35.8392
36.0022
36.4026
36.9146
37.4859
38.0682
38.6418
39.193
39.7122
40.1905
40.6207
40.9961
41.311
41.5613
41.745
41.8648
41.9301
41.9594
41.9694
41.953
41.8892
41.764
41.5723
41.3137
40.9914
40.6103
40.1764
39.6961
39.1763
38.6245
38.0492
37.4611
36.8831
36.3655
35.9611
35.7991
35.9084
36.662
36.8662
36.1833
36.1145
36.2899
36.6902
37.1949
37.7558
38.3265
38.8883
39.4274
39.9341
40.3999
40.8175
41.1806
41.4836
41.7226
41.8959
42.0059
42.063
42.0879
42.0992
42.0877
42.0306
41.9132
41.7298
41.4805
41.1682
40.7978
40.3748
39.9055
39.3969
38.856
38.2918
37.7144
37.147
36.6384
36.2383
36.0726
36.1637
36.8922
37.2274
36.5972
36.5604
36.7458
37.1427
37.6353
38.1796
38.7316
39.2748
39.7956
40.284
40.732
41.1323
41.4787
41.7659
41.9901
42.1495
42.2468
42.2927
42.3114
42.3247
42.3206
42.2729
42.1659
41.9938
41.7572
41.4589
41.1034
40.6963
40.2437
39.7523
39.2294
38.6833
38.1255
37.5765
37.083
36.6906
36.5204
36.5857
37.2689
37.7741
37.1821
37.1664
37.3568
37.7467
38.2248
38.7498
39.2815
39.8045
40.3048
40.773
41.201
41.5819
41.9097
42.1794
42.3872
42.5315
42.6147
42.6478
42.659
42.6758
42.6811
42.6445
42.5494
42.3908
42.169
41.8872
41.5496
41.1616
40.7289
40.2584
39.757
39.2332
38.6986
38.1702
37.6911
37.3026
37.1186
37.1419
37.7483
38.4145
37.8796
37.8958
38.0971
38.4835
38.948
39.4538
39.9653
40.4674
40.9466
41.3937
41.8008
42.1614
42.4699
42.7214
42.9123
43.041
43.1096
43.1292
43.1315
43.1515
43.1658
43.1395
43.0555
42.9093
42.7014
42.435
42.1143
41.7442
41.3305
40.8795
40.3987
39.8965
39.3851
38.8785
38.4177
38.0416
37.8613
37.8755
38.4597
39.1547
38.6555
38.6929
38.9008
39.2831
39.7358
40.2246
40.7185
41.2022
41.6628
42.0912
42.4798
42.8223
43.1134
43.3485
43.5242
43.6391
43.6947
43.7023
43.6966
43.7204
43.7432
43.7259
43.6518
43.5169
43.3218
43.0697
42.7643
42.4104
42.0134
41.5794
41.1153
40.6291
40.1325
39.6377
39.1821
38.8001
38.5979
38.5683
39.08
39.9451
39.4638
39.5069
39.7106
40.0818
40.5191
40.9911
41.4686
41.9359
42.3804
42.7927
43.1653
43.4922
43.7684
43.9894
44.1521
44.2549
44.2997
44.2969
44.2838
44.3093
44.3369
44.325
44.257
44.1292
43.9424
43.6993
43.4037
43.06
42.6733
42.2492
41.7947
41.3175
40.8292
40.342
39.8914
39.5122
39.3118
39.2858
39.8112
40.5038
40.093
40.1788
40.4015
40.7777
41.2103
41.6733
42.1387
42.5927
43.0228
43.4203
43.7783
44.0909
44.3533
44.5613
44.712
44.8039
44.8387
44.8271
44.8073
44.8327
44.8624
44.8532
44.7887
44.6655
44.4841
44.2472
43.9582
43.6214
43.2416
42.8242
42.3755
41.903
41.4176
40.9308
40.4754
40.0846
39.8629
39.8035
40.2801
40.7195
40.3534
40.4819
40.7405
41.1427
41.5923
42.0646
42.5342
42.9885
43.4163
43.8098
44.1624
44.4691
44.725
44.9265
45.0708
45.1567
45.1858
45.1688
45.145
45.1694
45.1989
45.19
45.1265
45.0046
44.8253
44.5907
44.3045
43.9708
43.594
43.1797
42.7338
42.2638
41.7801
41.2941
40.8369
40.4409
40.2092
40.1324
40.5833
42.8089
50.5853
56.7661
62.7817
67.924
72.0657
75.3698
78.0312
80.2055
82.0298
83.6241
85.0522
86.353
87.5579
88.6967
89.7992
90.895
92.0108
93.1691
94.3855
95.6681
97.0187
98.4338
99.9062
101.426
102.98
104.553
106.121
107.645
109.057
110.212
110.889
42.14
49.6308
55.6143
61.4925
66.5625
70.6685
73.9533
76.6064
78.7811
80.6129
82.2142
83.6445
84.9353
86.1247
87.2446
88.3257
89.3977
90.4891
91.6216
92.8106
94.0647
95.3855
96.7694
98.209
99.6942
101.213
102.749
104.28
105.768
107.145
108.271
108.93
41.3708
48.6206
54.4243
60.1716
65.1747
69.2527
72.5274
75.1811
77.3658
79.2126
80.8255
82.2587
83.5425
84.7203
85.8237
86.8844
87.9346
89.0017
90.1086
91.2713
92.4975
93.7887
95.1417
96.5488
98.0002
99.4839
100.984
102.478
103.929
105.271
106.369
107.01
40.6115
47.6235
53.2412
58.8475
63.7772
67.8255
71.0926
73.7541
75.9594
77.8306
79.4605
80.9003
82.1835
83.3508
84.4392
85.4824
86.5118
87.5571
88.6407
89.7776
90.9768
92.2397
93.5624
94.9377
96.3557
97.8044
99.268
100.725
102.14
103.449
104.518
105.141
39.7688
46.5649
52.0018
57.4708
62.3362
66.3702
69.6471
72.3312
74.5656
76.4649
78.1147
79.5651
80.8522
82.0138
83.092
84.1194
85.1312
86.1555
87.2159
88.3292
89.5028
90.7381
92.0318
93.3763
94.7619
96.1765
97.6054
99.0277
100.407
101.683
102.724
103.33
38.9586
45.531
50.7746
56.0935
60.8872
64.9051
68.1927
70.9027
73.1729
75.1084
76.7843
78.2505
79.5461
80.7087
81.7786
82.7946
83.7899
84.7966
85.8378
86.9283
88.0774
89.2869
90.5523
91.8667
93.2202
94.6013
95.9952
97.3817
98.7263
99.9696
100.983
101.571
38.0538
44.4173
49.4666
54.6347
59.3651
63.3867
66.7104
69.4674
71.7837
73.7571
75.462
76.9489
78.2583
79.4287
80.4982
81.5058
82.49
83.4803
84.5015
85.5718
86.6984
87.8825
89.1211
90.4065
91.7293
93.078
94.4386
95.7914
97.1022
98.3131
99.2999
99.8713
37.1889
43.3319
48.1723
53.1736
57.8309
61.8525
65.2095
68.0108
70.3773
72.4002
74.1438
75.6589
76.9888
78.172
79.2464
80.2516
81.226
82.2046
83.2122
84.2635
85.3685
86.5295
87.7419
88.9988
90.291
91.607
92.9338
94.2519
95.5293
96.7088
97.6688
98.2223
36.1963
42.1291
46.752
51.5768
56.1628
60.2058
63.6323
66.5153
68.9537
71.0302
72.8169
74.3673
75.7244
76.9275
78.0149
79.0255
79.9987
80.9683
81.9602
82.9956
84.0818
85.2197
86.4073
87.637
88.8997
90.1846
91.4792
92.7649
94.0088
95.1577
96.0917
96.629
35.2408
40.9494
45.3418
49.9711
54.4713
58.5283
62.0165
64.9696
67.4796
69.6295
71.4763
73.0725
74.4659
75.6966
76.8019
77.8219
78.7968
79.7637
80.7501
81.7716
82.8394
83.9575
85.1206
86.3229
87.5555
88.808
90.069
91.3198
92.5304
93.6486
94.5559
95.074
34.0792
39.5753
43.7221
48.1314
52.5322
56.6204
60.223
63.3174
65.9508
68.1856
70.0999
71.7539
73.1936
74.4599
75.5924
76.6316
77.6182
78.5864
79.5636
80.575
81.6287
82.7256
83.8655
85.0411
86.2441
87.4649
88.6933
89.9123
91.0898
92.1778
93.0594
93.5617
32.9273
38.2141
42.1079
46.2791
50.5604
54.6661
58.3652
61.569
64.311
66.6661
68.68
70.408
71.9065
73.221
74.3894
75.4521
76.4507
77.4252
78.4072
79.4112
80.4503
81.5308
82.6478
83.7964
84.9692
86.1569
87.3506
88.533
89.678
90.7348
91.5892
92.0711
31.4455
36.5285
40.1311
44.0051
48.1156
52.2364
56.1092
59.567
62.5443
65.0486
67.1761
69.0015
70.5778
71.9508
73.1648
74.2641
75.291
76.2801
77.2588
78.2587
79.2889
80.3508
81.4461
82.5688
83.7118
84.8674
86.0283
87.179
88.2906
89.3174
90.147
90.6123
29.9426
34.8455
38.1749
41.7498
45.6716
49.7841
53.7825
57.3956
60.5382
63.2629
65.5719
67.5258
69.1989
70.6514
71.9287
73.0717
74.1238
75.1297
76.1271
77.128
78.1482
79.1976
80.2715
81.3672
82.4793
83.6
84.7246
85.8369
86.9137
87.9087
88.7096
89.1524
27.8293
32.5475
35.52
38.6506
42.2269
46.257
50.4999
54.612
58.2603
61.269
63.7893
65.9199
67.7305
69.2828
70.6328
71.8361
72.9403
73.98
74.9814
75.9854
77.0034
78.0367
79.0905
80.1603
81.2414
82.3284
83.4191
84.4992
85.5431
86.507
87.2828
87.7077
25.5787
30.2227
32.9616
35.7565
39.0507
43.0059
47.3472
51.56
55.4028
58.8832
61.7772
64.159
66.1478
67.8361
69.2956
70.5754
71.7231
72.7924
73.8321
74.8489
75.8626
76.8877
77.9213
78.9631
80.0111
81.0594
82.1105
83.1479
84.1529
85.0842
85.8272
86.2279
21.8559
26.4392
28.7269
30.7623
33.2144
36.6546
41.3305
46.8526
52.021
56.0409
59.3805
62.124
64.3756
66.2511
67.8356
69.2132
70.4501
71.5834
72.636
73.6647
74.684
75.6964
76.7109
77.7255
78.7396
79.7508
80.7653
81.769
82.7417
83.638
84.3574
84.7365
17.5638
22.663
25.1405
27.1277
29.3855
32.8931
37.426
41.8606
46.7713
52.1856
56.4064
59.7167
62.3588
64.4958
66.2788
67.7937
69.1037
70.2835
71.4043
72.4636
73.487
74.4956
75.4896
76.4734
77.4497
78.4156
79.3844
80.3379
81.2627
82.1259
82.8041
83.155
4.76578
11.2465
13.2264
12.7097
12.8698
12.9334
18.5621
31.6589
41.4512
47.0983
52.5106
56.7023
59.9031
62.4376
64.4728
66.1632
67.6311
68.9286
70.0744
71.1565
72.1953
73.1951
74.1702
75.1233
76.0598
76.9808
77.9088
78.8254
79.7205
80.5399
81.1973
81.5212
8.91449
11.2803
10.8821
10.1019
12.0903
15.8326
17.0231
14.4094
23.436
39.6998
47.0313
52.6898
56.9165
60.0338
62.459
64.4147
66.0136
67.3859
68.6529
69.7958
70.8517
71.8524
72.8049
73.7201
74.609
75.4733
76.3431
77.1964
78.0253
78.8123
79.4123
79.7
9.02987
14.1088
14.6174
14.0259
11.7583
7.88399
11.393
14.0459
17.5732
21.1385
38.6238
47.0496
52.7059
56.837
59.8864
62.2186
64.1298
65.7297
67.041
68.2238
69.3091
70.3062
71.2376
72.1138
72.9515
73.7535
74.5766
75.3866
76.1927
76.9175
77.5037
77.7574
19.2984
23.459
25.0785
25.3143
24.2339
21.563
16.8063
12.7207
14.8422
10.8862
20.3616
38.2814
47.3801
52.9754
56.8754
59.7688
61.943
63.6804
65.2274
66.5304
67.658
68.6617
69.5636
70.3864
71.1553
71.88
72.617
73.3384
74.041
74.7384
75.2333
75.4273
21.8188
26.7183
29.3153
31.1146
31.9916
31.7656
30.0508
26.1789
19.0042
21.6249
25.0861
25.3236
37.5738
46.6972
52.4294
56.309
59.1884
61.4102
63.0316
64.4091
65.5895
66.5978
67.4713
68.235
68.927
69.5487
70.2338
70.8992
71.5949
72.1917
72.689
72.8514
22.7991
27.8154
30.6821
32.9463
34.5778
35.5492
35.7739
34.989
32.4577
26.5099
27.8344
29.8645
26.5889
38.3742
46.8947
52.1827
55.7171
58.2406
60.3982
62.0288
63.3108
64.3308
65.1548
65.8282
66.404
66.9011
67.4312
67.9519
68.4689
69.0497
69.3855
69.4007
22.3588
27.5028
30.5371
33.0474
35.0061
36.4157
37.2852
37.5958
37.1893
35.3648
30.1006
30.0728
26.9653
23.6087
37.9566
45.8933
51.0398
54.7031
56.9223
58.7104
60.0857
61.1269
61.8951
62.4513
62.8807
63.1911
63.6609
64.1087
64.6382
65.0682
65.4097
65.5124
20.8809
26.1623
29.2998
31.964
34.1365
35.8272
37.067
37.8944
38.3174
38.1863
36.7657
31.7669
29.4838
18.3315
16.8653
35.9633
44.152
48.7309
52.5305
54.8909
56.5119
57.5527
58.2125
58.5796
58.7693
58.783
58.9465
59.075
59.3055
59.6482
59.767
59.2175
18.8703
24.2578
27.4347
30.1637
32.4421
34.2914
35.7513
36.887
37.773
38.4326
38.6681
37.6288
33.0692
27.4874
21.0949
23.0016
36.1928
42.8921
45.9163
48.6465
50.488
51.5781
51.9799
52.0075
51.8295
51.6249
51.5319
51.6763
51.7936
52.489
52.0183
53.2375
16.6064
21.9959
25.1166
27.8113
30.102
32.0289
33.6393
34.9981
36.1902
37.2871
38.2679
38.8296
38.0142
33.4817
30.798
10.2112
27.8001
27.0625
38.0568
42.3473
44.2807
45.3588
45.6305
45.2017
44.3749
43.5099
42.7095
41.7698
41.4765
40.4651
40.9612
36.8725
14.3508
19.5978
22.5538
25.1087
27.315
29.2335
30.9231
32.4479
33.8868
35.3132
36.7419
38.057
38.8354
37.8791
33.1959
21.5438
16.0794
12.7907
17.5647
24.6442
30.1241
31.4708
28.8514
26.0377
22.189
21.4642
16.7965
14.3138
13.4941
24.3817
13.8092
28.5802
12.3717
17.3551
20.0705
22.4118
24.4622
26.2991
27.9898
29.5967
31.1849
32.8261
34.5556
36.321
37.902
38.6943
37.3359
31.2606
31.6267
16.7079
25.5976
18.499
21.7499
33.9209
15.059
1.76625
5.38921
24.7165
9.80245
19.4774
10.5715
32.2303
14.5448
33.7452
10.8448
15.4973
17.9515
20.0535
21.9141
23.6229
25.2512
26.8574
28.4922
30.2119
32.0662
34.0642
36.0962
37.808
38.4681
36.9369
31.5582
24.4685
24.5251
25.3137
16.1719
33.1157
17.6751
21.3529
23.9178
35.668
31.9264
33.3094
32.6396
38.2909
33.6188
28.9081
9.68043
14.0951
16.3203
18.21
19.8961
21.473
23.0089
24.5535
26.1461
27.8296
29.6545
31.6693
33.8664
36.0621
37.8071
38.4242
36.465
33.6825
28.0156
28.0002
25.8518
24.5419
25.2517
30.5313
34.132
32.8201
37.3329
38.3415
38.3185
37.1708
39.3695
39.6521
8.97455
13.187
15.236
16.9695
18.5282
20.0006
21.4439
22.8962
24.3867
25.9501
27.6343
29.503
31.6092
33.9164
36.1727
37.8613
38.2446
37.9599
36.6523
33.9455
33.4169
34.3075
37.487
39.9814
41.2689
39.912
42.7558
43.3798
42.5662
42.7058
43.046
44.1363
8.62689
12.7223
14.6703
16.3197
17.8114
19.2221
20.5944
21.9539
23.3224
24.7288
26.2174
27.8499
29.6998
31.8176
34.1423
36.3703
37.9577
38.8433
38.9902
38.3277
38.1041
39.2429
40.6866
41.9245
42.5391
41.968
43.3923
43.9205
43.1904
43.8279
43.4685
45.0545
8.58793
12.6371
14.5491
16.1762
17.6532
19.0427
20.3732
21.6603
22.9212
24.1812
25.4772
26.8604
28.3994
30.1718
32.2244
34.4709
36.5905
38.2342
39.2117
39.4559
39.5373
40.405
41.2819
42.0171
42.3192
42.2246
42.9943