/*--------------------------------*- C++ -*----------------------------------*\
  =========                 |
  \\      /  F ield         | OpenFOAM: The Open Source CFD Toolbox
   \\    /   O peration     | Website:  https://openfoam.org
    \\  /    A nd           | Version:  6
     \\/     M anipulation  |
\*---------------------------------------------------------------------------*/
FoamFile
{
    version     2.0;
    format      ascii;
    class       volVectorField;
    location    "43";
    object      wallShearStress;
}
// * * * * * * * * * * * * * * * * * * * * * * * * * * * * * * * * * * * * * //

dimensions      [0 2 -2 0 0 0 0];

internalField   uniform (0 0 0);

boundaryField
{
    inlet
    {
        type            calculated;
        value           uniform (0 0 0);
    }
    outlet
    {
        type            calculated;
        value           uniform (0 0 0);
    }
    roughCylinder
    {
        type            calculated;
        value           nonuniform List<vector> 
5120
(
(-0.000431146 -0.000621862 -0.000323342)
(-0.000383778 -0.000551809 -3.89823e-05)
(-0.00034395 -0.000538727 1.4177e-06)
(-0.000383573 -0.000603217 4.94143e-05)
(-0.000450484 -0.00068183 0.000104729)
(-0.00052094 -0.000742118 0.000157058)
(-0.000592212 -0.000782044 0.00020323)
(-0.000659951 -0.000803757 0.000241966)
(-0.000721645 -0.000811224 0.000272502)
(-0.000777244 -0.000812039 0.000295638)
(-0.000827753 -0.000813449 0.000313375)
(-0.000870293 -0.000816031 0.000324947)
(-0.000906148 -0.000822871 0.000330689)
(-0.000936795 -0.00083408 0.000331621)
(-0.000963264 -0.000849053 0.000328881)
(-0.000987182 -0.000867018 0.000323577)
(-0.00100999 -0.000887109 0.000316519)
(-0.00103314 -0.000908954 0.000308319)
(-0.00105729 -0.000932147 0.0002992)
(-0.00108283 -0.000956549 0.000289237)
(-0.00110988 -0.000982123 0.000278416)
(-0.00113842 -0.00100883 0.00026667)
(-0.00116831 -0.00103656 0.000253886)
(-0.00119938 -0.00106515 0.000239911)
(-0.00123134 -0.00109434 0.000224495)
(-0.00126383 -0.00112376 0.000207279)
(-0.00129636 -0.00115293 0.000187711)
(-0.00132823 -0.00118117 0.00016504)
(-0.00135843 -0.00120756 0.000138139)
(-0.00138545 -0.00123081 0.000105849)
(-0.00140656 -0.00124922 6.64571e-05)
(-0.00141811 -0.00125993 2.22232e-05)
(-0.000552595 -0.00072325 -0.000377171)
(-0.00041991 -0.000554041 -4.3376e-05)
(-0.000368649 -0.000528964 -4.37251e-06)
(-0.000403097 -0.000585955 4.02727e-05)
(-0.000471165 -0.000664572 9.3443e-05)
(-0.000543594 -0.000726603 0.000144477)
(-0.000616813 -0.000768727 0.000189803)
(-0.000686913 -0.000793133 0.000228127)
(-0.000751931 -0.000804416 0.00025899)
(-0.000811844 -0.000809501 0.000283409)
(-0.000866047 -0.000813163 0.000302525)
(-0.000912012 -0.000815489 0.000315284)
(-0.000949594 -0.000821014 0.000321624)
(-0.000981762 -0.000831204 0.000322853)
(-0.00100976 -0.000845528 0.000320348)
(-0.00103506 -0.000862984 0.000315174)
(-0.00105941 -0.000882883 0.000308288)
(-0.00108382 -0.000904404 0.000300199)
(-0.00110928 -0.000927321 0.000291241)
(-0.00113622 -0.000951511 0.000281516)
(-0.00116474 -0.000976875 0.000270998)
(-0.00119478 -0.00100333 0.000259608)
(-0.0012262 -0.00103078 0.000247233)
(-0.00125879 -0.00105905 0.00023371)
(-0.00129227 -0.00108787 0.00021879)
(-0.00132626 -0.0011169 0.000202111)
(-0.00136025 -0.00114566 0.000183123)
(-0.00139352 -0.00117348 0.000161082)
(-0.001425 -0.00119947 0.000134875)
(-0.00145313 -0.00122235 0.000103371)
(-0.00147511 -0.00124047 6.48946e-05)
(-0.00148714 -0.00125101 2.16901e-05)
(-0.000590637 -0.000692642 -0.000356442)
(-0.000439914 -0.000530645 -4.62768e-05)
(-0.000388112 -0.000506862 -1.06924e-05)
(-0.000421119 -0.000562536 3.04467e-05)
(-0.000490099 -0.000640962 8.12011e-05)
(-0.000564136 -0.000704236 0.000130752)
(-0.000639201 -0.000748538 0.000175203)
(-0.00071205 -0.000776344 0.000213394)
(-0.000780888 -0.000792036 0.000244992)
(-0.000844834 -0.000800995 0.000270631)
(-0.00090268 -0.000806901 0.000290789)
(-0.000952372 -0.000810279 0.000304686)
(-0.000992032 -0.000814124 0.000311565)
(-0.00102583 -0.000823277 0.00031318)
(-0.00105535 -0.000836672 0.000310912)
(-0.00108221 -0.000853539 0.00030597)
(-0.00110777 -0.000872753 0.000299207)
(-0.00113367 -0.000893919 0.000291338)
(-0.0011606 -0.00091651 0.000282634)
(-0.00118892 -0.000940284 0.000273186)
(-0.0012188 -0.000965185 0.000262995)
(-0.00125026 -0.000991158 0.000251995)
(-0.00128311 -0.00101809 0.000240063)
(-0.00131716 -0.00104582 0.000227037)
(-0.00135211 -0.00107407 0.00021266)
(-0.00138753 -0.00110251 0.000196565)
(-0.00142291 -0.00113066 0.000178203)
(-0.00145748 -0.00115787 0.000156839)
(-0.00149016 -0.00118328 0.000131379)
(-0.00151934 -0.00120564 0.000100718)
(-0.00154213 -0.00122335 6.3224e-05)
(-0.0015546 -0.00123362 2.11214e-05)
(-0.000636226 -0.000670034 -0.000330211)
(-0.000474883 -0.000518662 -5.08297e-05)
(-0.000410196 -0.000486886 -1.76453e-05)
(-0.000434919 -0.000533302 2.00841e-05)
(-0.000503825 -0.000610484 6.81279e-05)
(-0.000579634 -0.000675406 0.000116033)
(-0.000657114 -0.000722711 0.000159621)
(-0.000733031 -0.000754431 0.000197735)
(-0.000805429 -0.000774402 0.000230039)
(-0.000873399 -0.000787254 0.000256914)
(-0.000934894 -0.000795417 0.000278098)
(-0.000987808 -0.000799975 0.000292819)
(-0.0010311 -0.000803461 0.000300634)
(-0.00106658 -0.000811026 0.00030269)
(-0.00109782 -0.000823398 0.000300764)
(-0.00112612 -0.000839327 0.000296068)
(-0.00115346 -0.000858101 0.000289639)
(-0.00118069 -0.000878622 0.000282004)
(-0.00120888 -0.000900582 0.000273557)
(-0.00123859 -0.000923835 0.000264448)
(-0.00126994 -0.00094823 0.000254661)
(-0.00130283 -0.000973647 0.000244109)
(-0.00133712 -0.000999969 0.000232675)
(-0.00137256 -0.00102702 0.000220182)
(-0.00140886 -0.00105455 0.000206377)
(-0.0014456 -0.00108222 0.000190892)
(-0.00148223 -0.00110959 0.000173178)
(-0.001518 -0.00113604 0.000152512)
(-0.00155176 -0.00116072 0.000127817)
(-0.00158186 -0.00118242 9.80166e-05)
(-0.00160537 -0.00119961 6.15249e-05)
(-0.00161822 -0.00120957 2.0544e-05)
(-0.000618065 -0.00057979 -0.000270635)
(-0.000482245 -0.00047682 -5.24807e-05)
(-0.000424092 -0.000456191 -2.45383e-05)
(-0.00044458 -0.000499768 9.59441e-06)
(-0.000512968 -0.00057566 5.4734e-05)
(-0.000590068 -0.000641681 0.000100691)
(-0.000669414 -0.0006914 0.00014309)
(-0.000748254 -0.000726889 0.000180954)
(-0.000824599 -0.000751439 0.000213969)
(-0.000896219 -0.000767776 0.000241895)
(-0.000961254 -0.000778144 0.0002641)
(-0.00101786 -0.000784225 0.000279716)
(-0.00106492 -0.000788215 0.000288505)
(-0.00110331 -0.000794317 0.00029132)
(-0.0011363 -0.000805358 0.000289864)
(-0.00116654 -0.000820394 0.000285605)
(-0.00119509 -0.000838027 0.000279435)
(-0.0012239 -0.000857884 0.000272173)
(-0.00125367 -0.000879297 0.00026413)
(-0.00128475 -0.000901873 0.000255417)
(-0.00131734 -0.000925496 0.000246052)
(-0.00135148 -0.000950116 0.000235976)
(-0.00138701 -0.000975604 0.000225063)
(-0.00142372 -0.00100179 0.000213141)
(-0.00146127 -0.00102843 0.000199943)
(-0.00149921 -0.00105519 0.000185098)
(-0.00153698 -0.00108163 0.000168059)
(-0.00157378 -0.00110714 0.00014811)
(-0.0016085 -0.00113093 0.000124198)
(-0.00163943 -0.00115184 9.5276e-05)
(-0.00166356 -0.00116841 5.98044e-05)
(-0.00167673 -0.00117799 1.9961e-05)
(-0.00074441 -0.000618232 -0.000272993)
(-0.000513703 -0.000460714 -5.64876e-05)
(-0.000437469 -0.000425754 -3.14148e-05)
(-0.000448443 -0.000462034 -8.76904e-07)
(-0.00051473 -0.000535248 4.08905e-05)
(-0.000593145 -0.000602442 8.45442e-05)
(-0.000675189 -0.000655421 0.000125644)
(-0.000757547 -0.00069511 0.000163198)
(-0.000837182 -0.000723356 0.00019659)
(-0.000912606 -0.00074308 0.000225456)
(-0.000981409 -0.000755763 0.000248711)
(-0.00104144 -0.000763039 0.000265202)
(-0.0010925 -0.000768066 0.000274969)
(-0.00113482 -0.000773736 0.000278816)
(-0.00117031 -0.000782953 0.000278078)
(-0.00120214 -0.000796438 0.000274285)
(-0.00123292 -0.000813376 0.000268707)
(-0.0012632 -0.000832247 0.000261871)
(-0.00129416 -0.00085263 0.000254227)
(-0.00132658 -0.00087435 0.000245984)
(-0.0013606 -0.000897194 0.000237148)
(-0.00139609 -0.000920967 0.000227628)
(-0.00143292 -0.000945551 0.000217304)
(-0.00147083 -0.000970755 0.000205993)
(-0.0015095 -0.000996349 0.000193432)
(-0.00154848 -0.00102201 0.000179249)
(-0.00158723 -0.00104734 0.000162901)
(-0.00162495 -0.00107178 0.000143684)
(-0.00166047 -0.00109454 0.000120563)
(-0.00169209 -0.00111452 9.25249e-05)
(-0.00171675 -0.00113037 5.80804e-05)
(-0.00173018 -0.00113953 1.93781e-05)
(-0.000655054 -0.000487275 -0.000193516)
(-0.000522663 -0.000417716 -5.87285e-05)
(-0.000441415 -0.000389027 -3.77218e-05)
(-0.000446607 -0.00042179 -1.09938e-05)
(-0.000510899 -0.000492565 2.70095e-05)
(-0.000590046 -0.000560486 6.79509e-05)
(-0.000673593 -0.000615567 0.000107278)
(-0.000758367 -0.000658346 0.000144061)
(-0.000842142 -0.000690784 0.000177784)
(-0.000921328 -0.000713574 0.000207377)
(-0.000993728 -0.000728301 0.000231548)
(-0.00105806 -0.000737347 0.000249198)
(-0.00111292 -0.000743146 0.000259975)
(-0.00115945 -0.000749204 0.000264921)
(-0.00119865 -0.000757356 0.000265197)
(-0.00123343 -0.000769361 0.000262286)
(-0.00126551 -0.000784276 0.000257188)
(-0.00129755 -0.000801996 0.000250954)
(-0.00133035 -0.000821566 0.000243932)
(-0.00136418 -0.000842326 0.000236251)
(-0.00139932 -0.000864066 0.000227962)
(-0.0014359 -0.000886721 0.000219026)
(-0.00147376 -0.000910144 0.000209315)
(-0.00151269 -0.000934175 0.000198651)
(-0.00155234 -0.000958573 0.000186765)
(-0.00159226 -0.000983029 0.000173279)
(-0.00163184 -0.00100713 0.000157651)
(-0.0016703 -0.00103034 0.000139184)
(-0.0017065 -0.00105196 0.000116874)
(-0.0017387 -0.00107092 8.9736e-05)
(-0.00176379 -0.00108596 5.63363e-05)
(-0.00177737 -0.00109465 1.879e-05)
(-0.000575626 -0.000382332 -0.000130668)
(-0.000523436 -0.000370471 -6.08693e-05)
(-0.000444427 -0.000354324 -4.36581e-05)
(-0.000437308 -0.000378578 -2.05203e-05)
(-0.00049725 -0.000445081 1.31417e-05)
(-0.000576465 -0.000513184 5.07284e-05)
(-0.000662381 -0.000571215 8.7926e-05)
(-0.000751137 -0.000618321 0.000123823)
(-0.000837943 -0.000653801 0.000157335)
(-0.000921056 -0.000679552 0.000187445)
(-0.000997935 -0.00069679 0.000212589)
(-0.00106598 -0.000707078 0.000231275)
(-0.00112539 -0.000714044 0.000243373)
(-0.00117575 -0.000720201 0.00024945)
(-0.00121914 -0.000728173 0.00025093)
(-0.00125681 -0.000738653 0.000248942)
(-0.00129259 -0.000752685 0.00024497)
(-0.00132665 -0.000768912 0.000239523)
(-0.00136062 -0.000786839 0.0002331)
(-0.00139577 -0.000806287 0.000226058)
(-0.00143238 -0.000826926 0.000218458)
(-0.00147026 -0.000848448 0.000210212)
(-0.0015093 -0.000870702 0.0002012)
(-0.00154924 -0.000893483 0.000191239)
(-0.00158975 -0.000916565 0.000180059)
(-0.00163039 -0.000939662 0.000167289)
(-0.00167061 -0.000962402 0.000152393)
(-0.00170967 -0.000984285 0.000134687)
(-0.00174638 -0.00100462 0.000113189)
(-0.00177899 -0.00102244 8.69516e-05)
(-0.00180438 -0.00103659 5.45997e-05)
(-0.00181804 -0.00104483 1.82073e-05)
(-0.000603862 -0.000351215 -0.000105957)
(-0.000506565 -0.000322009 -5.99939e-05)
(-0.000437161 -0.000314042 -4.84563e-05)
(-0.000422817 -0.000335333 -2.94897e-05)
(-0.000476862 -0.000397036 -3.81868e-07)
(-0.000555739 -0.000464952 3.34426e-05)
(-0.000642402 -0.000524414 6.79036e-05)
(-0.000732192 -0.000573306 0.000102039)
(-0.000823373 -0.000612737 0.000135162)
(-0.000910812 -0.00064155 0.000165542)
(-0.000991539 -0.000660682 0.000191352)
(-0.00106484 -0.00067308 0.000211355)
(-0.0011285 -0.000680863 0.000224798)
(-0.00118371 -0.000687625 0.000232405)
(-0.00123071 -0.000695037 0.000235131)
(-0.00127283 -0.000705195 0.000234536)
(-0.00131065 -0.000717569 0.000231502)
(-0.00134714 -0.000732406 0.000227034)
(-0.00138369 -0.000749257 0.000221592)
(-0.00142065 -0.000767447 0.000215395)
(-0.00145839 -0.000786632 0.000208539)
(-0.00149724 -0.000806719 0.000201031)
(-0.0015371 -0.00082752 0.000192756)
(-0.00157777 -0.000848852 0.00018354)
(-0.00161896 -0.000870508 0.000173118)
(-0.00166019 -0.000892175 0.000161112)
(-0.0017009 -0.00091348 0.000146985)
(-0.00174034 -0.000933945 0.000130066)
(-0.00177741 -0.000952964 0.000109408)
(-0.00181036 -0.000969606 8.41029e-05)
(-0.00183595 -0.000982844 5.28299e-05)
(-0.00184946 -0.000990549 1.76152e-05)
(-0.000645402 -0.000327524 -8.55564e-05)
(-0.000504127 -0.000287183 -6.02966e-05)
(-0.000424509 -0.000273849 -5.23646e-05)
(-0.000398891 -0.000289696 -3.74139e-05)
(-0.000444646 -0.000345138 -1.32504e-05)
(-0.00052098 -0.000411141 1.60346e-05)
(-0.000608844 -0.000472427 4.70944e-05)
(-0.000703513 -0.000526033 7.92898e-05)
(-0.000797367 -0.000568002 0.000111241)
(-0.000888761 -0.000599508 0.000141457)
(-0.000975147 -0.000621602 0.000168036)
(-0.0010526 -0.000635207 0.000189061)
(-0.00112174 -0.000644341 0.000204132)
(-0.00118118 -0.00065116 0.0002133)
(-0.00123321 -0.00065867 0.000217751)
(-0.00127801 -0.000667443 0.00021842)
(-0.00132011 -0.000679284 0.00021688)
(-0.00135934 -0.000692877 0.000213581)
(-0.00139729 -0.000707997 0.000209082)
(-0.00143573 -0.000724704 0.000203828)
(-0.00147514 -0.000742661 0.000197927)
(-0.00151535 -0.000761464 0.00019132)
(-0.0015563 -0.000780926 0.000183913)
(-0.00159781 -0.000800851 0.000175539)
(-0.00163949 -0.000820984 0.000165927)
(-0.00168104 -0.000841093 0.000154721)
(-0.00172194 -0.000860855 0.000141394)
(-0.00176155 -0.000879851 0.000125296)
(-0.00179872 -0.000897477 0.000105507)
(-0.00183176 -0.000912897 8.11621e-05)
(-0.00185735 -0.000925165 5.10048e-05)
(-0.00187065 -0.000932272 1.70062e-05)
(-0.000622896 -0.000274778 -5.58616e-05)
(-0.000490301 -0.000247961 -6.03961e-05)
(-0.000407478 -0.00023558 -5.57678e-05)
(-0.000369542 -0.000245801 -4.41077e-05)
(-0.000405129 -0.000294025 -2.48041e-05)
(-0.000479278 -0.000358365 -6.07741e-07)
(-0.000566887 -0.000420246 2.63168e-05)
(-0.000659747 -0.000473572 5.5269e-05)
(-0.000758177 -0.000519476 8.56432e-05)
(-0.000854835 -0.000554529 0.000115367)
(-0.000945168 -0.000578427 0.000142129)
(-0.00102923 -0.000594615 0.000164469)
(-0.00110328 -0.000604554 0.000181078)
(-0.00116874 -0.000612173 0.000192247)
(-0.00122467 -0.000618957 0.000198421)
(-0.00127517 -0.000627716 0.000201079)
(-0.00131933 -0.000637702 0.000200857)
(-0.00136105 -0.00064979 0.000198881)
(-0.00140207 -0.000663891 0.000195732)
(-0.00144252 -0.000679261 0.000191626)
(-0.00148288 -0.00069553 0.000186697)
(-0.00152378 -0.000712655 0.000181017)
(-0.00156522 -0.000730429 0.000174507)
(-0.00160699 -0.000748651 0.000167007)
(-0.00164897 -0.000767165 0.000158275)
(-0.00169067 -0.000785668 0.000147936)
(-0.00173158 -0.000803833 0.000135468)
(-0.00177104 -0.000821256 0.000120236)
(-0.00180809 -0.000837439 0.000101369)
(-0.00184103 -0.000851605 7.8044e-05)
(-0.00186647 -0.000862868 4.9071e-05)
(-0.00187943 -0.000869331 1.63621e-05)
(-0.000472312 -0.000179263 -2.51274e-05)
(-0.00043694 -0.000196264 -5.55254e-05)
(-0.00037334 -0.000193089 -5.64754e-05)
(-0.00033181 -0.000202113 -4.89156e-05)
(-0.000353103 -0.000240621 -3.43042e-05)
(-0.000419726 -0.000299307 -1.58527e-05)
(-0.000505866 -0.000360839 5.87622e-06)
(-0.000605695 -0.000420149 3.1092e-05)
(-0.000706033 -0.000468179 5.87725e-05)
(-0.000806157 -0.000505724 8.71905e-05)
(-0.000903798 -0.000533547 0.000114193)
(-0.000992382 -0.000551026 0.000137327)
(-0.00107321 -0.000562652 0.000155744)
(-0.00114337 -0.000570166 0.000168802)
(-0.00120574 -0.000577265 0.000177289)
(-0.00125879 -0.000584247 0.000181667)
(-0.00130834 -0.000593781 0.000183506)
(-0.00135355 -0.000604655 0.000183198)
(-0.00139587 -0.000616737 0.000181322)
(-0.00143772 -0.000630348 0.000178435)
(-0.00147991 -0.000645248 0.000174728)
(-0.00152221 -0.000660952 0.000170176)
(-0.00156462 -0.00067724 0.000164718)
(-0.00160711 -0.000693946 0.000158223)
(-0.0016492 -0.000710771 0.000150423)
(-0.00169073 -0.000727553 0.000140982)
(-0.00173132 -0.000744035 0.000129397)
(-0.00177047 -0.000759875 0.000115062)
(-0.00180713 -0.000774572 9.71352e-05)
(-0.0018397 -0.000787427 7.48512e-05)
(-0.00186479 -0.000797645 4.7093e-05)
(-0.00187734 -0.000803457 1.57059e-05)
(-0.000453084 -0.000148652 -5.91929e-06)
(-0.000399127 -0.00015662 -5.41699e-05)
(-0.000335281 -0.000155832 -5.65683e-05)
(-0.00028547 -0.000159786 -5.08753e-05)
(-0.000295201 -0.000189925 -4.07693e-05)
(-0.000356651 -0.000244441 -2.87944e-05)
(-0.000441263 -0.000305418 -1.31226e-05)
(-0.000532984 -0.000360469 6.98789e-06)
(-0.000638062 -0.000412795 3.11842e-05)
(-0.000744801 -0.000455053 5.7689e-05)
(-0.000845819 -0.000484681 8.39161e-05)
(-0.000942752 -0.000505742 0.000108016)
(-0.0010291 -0.000518378 0.000127951)
(-0.0011069 -0.000527138 0.00014338)
(-0.00117333 -0.000533214 0.000154001)
(-0.00123387 -0.000540477 0.000161027)
(-0.00128553 -0.000547832 0.000164683)
(-0.0013333 -0.000556891 0.000166134)
(-0.00137949 -0.00056793 0.000166059)
(-0.00142384 -0.000580132 0.000164682)
(-0.00146683 -0.000593103 0.0001622)
(-0.00150951 -0.000606888 0.000158777)
(-0.00155205 -0.00062129 0.000154387)
(-0.00159425 -0.00063607 0.000148894)
(-0.00163623 -0.000651151 0.000142098)
(-0.00167747 -0.000666226 0.000133629)
(-0.00171757 -0.000681026 0.000122989)
(-0.00175601 -0.000695202 0.000109589)
(-0.00179204 -0.000708391 9.26554e-05)
(-0.00182407 -0.000719947 7.14732e-05)
(-0.00184866 -0.000729115 4.50044e-05)
(-0.00186065 -0.000734251 1.50151e-05)
(-0.00033182 -9.28994e-05 9.56457e-06)
(-0.000327143 -0.000111599 -4.93663e-05)
(-0.000285779 -0.000120138 -5.50404e-05)
(-0.000238344 -0.000123361 -5.14196e-05)
(-0.000224805 -0.000137924 -4.25294e-05)
(-0.000270459 -0.000180633 -3.64502e-05)
(-0.000348272 -0.000237159 -2.79338e-05)
(-0.000452913 -0.000301908 -1.49778e-05)
(-0.000557491 -0.000355358 4.03258e-06)
(-0.000665884 -0.000399775 2.73425e-05)
(-0.000776514 -0.000435244 5.25224e-05)
(-0.00087773 -0.000457972 7.66731e-05)
(-0.000972434 -0.000473264 9.82358e-05)
(-0.00105505 -0.000481972 0.000115651)
(-0.00112978 -0.000488907 0.000129061)
(-0.00119231 -0.000493917 0.000138205)
(-0.00125071 -0.00050094 0.000144494)
(-0.00130306 -0.000508845 0.00014816)
(-0.00135033 -0.000517542 0.000149727)
(-0.00139589 -0.00052769 0.000149878)
(-0.001441 -0.000539196 0.00014892)
(-0.00148528 -0.000551493 0.000146878)
(-0.00152877 -0.000564322 0.000143738)
(-0.00157168 -0.000577582 0.000139426)
(-0.00161337 -0.000590901 0.000133683)
(-0.00165394 -0.000604197 0.000126206)
(-0.00169315 -0.000617264 0.00011652)
(-0.00173078 -0.000629847 0.000104077)
(-0.00176592 -0.000641523 8.81418e-05)
(-0.00179711 -0.00065175 6.80663e-05)
(-0.00182099 -0.000659862 4.2901e-05)
(-0.00183236 -0.000664357 1.4323e-05)
(-0.000193185 -4.41142e-05 1.6404e-05)
(-0.000230922 -6.86472e-05 -4.11254e-05)
(-0.000216082 -8.28906e-05 -5.0227e-05)
(-0.000180112 -8.76526e-05 -4.78632e-05)
(-0.000159281 -9.45195e-05 -3.9836e-05)
(-0.000191787 -0.00012613 -3.90169e-05)
(-0.000267541 -0.00018117 -3.97967e-05)
(-0.000348108 -0.000232261 -3.2842e-05)
(-0.00045925 -0.00029215 -2.05108e-05)
(-0.000576313 -0.00034351 -2.07251e-06)
(-0.000687915 -0.000380667 2.0476e-05)
(-0.000799672 -0.000409086 4.43671e-05)
(-0.000899782 -0.000426066 6.68174e-05)
(-0.000992015 -0.000437273 8.65251e-05)
(-0.00107023 -0.000443132 0.000102194)
(-0.00114264 -0.000449185 0.000114465)
(-0.0012029 -0.000453822 0.000122984)
(-0.00125751 -0.000459601 0.000128786)
(-0.0013097 -0.000467323 0.000132597)
(-0.00135846 -0.000476074 0.00013464)
(-0.00140414 -0.000485458 0.000135168)
(-0.00144838 -0.000495638 0.000134455)
(-0.00149159 -0.000506462 0.000132555)
(-0.00153349 -0.000517624 0.000129366)
(-0.00157463 -0.00052917 0.000124749)
(-0.00161443 -0.000540764 0.000118342)
(-0.00165263 -0.000552176 0.000109676)
(-0.00168892 -0.00056311 9.82248e-05)
(-0.0017229 -0.00057331 8.33421e-05)
(-0.00175311 -0.000582265 6.44429e-05)
(-0.00177612 -0.000589353 4.06682e-05)
(-0.00178668 -0.000593207 1.35904e-05)
(-7.33051e-05 -1.23857e-05 1.34474e-05)
(-0.000130383 -3.46843e-05 -2.74441e-05)
(-0.000137718 -4.77551e-05 -4.09398e-05)
(-0.000123279 -5.64754e-05 -4.31019e-05)
(-7.06434e-05 -4.15151e-05 -2.48167e-05)
(-7.00637e-05 -4.69184e-05 -2.13669e-05)
(-0.000130142 -9.00671e-05 -3.12123e-05)
(-0.0002513 -0.000169666 -4.39087e-05)
(-0.000351667 -0.000225935 -4.06017e-05)
(-0.000466233 -0.000279362 -2.84011e-05)
(-0.000591333 -0.000326303 -9.98486e-06)
(-0.000705259 -0.000356965 1.2147e-05)
(-0.000815536 -0.00037882 3.5031e-05)
(-0.000911466 -0.000390551 5.61094e-05)
(-0.00100025 -0.00039878 7.44518e-05)
(-0.00107291 -0.000402376 8.88807e-05)
(-0.00114138 -0.000407231 0.00010033)
(-0.00120194 -0.000412252 0.000108751)
(-0.00125465 -0.00041742 0.000114492)
(-0.00130414 -0.000423903 0.00011832)
(-0.00135233 -0.00043183 0.000120654)
(-0.00139852 -0.000440576 0.000121573)
(-0.00144272 -0.00044986 0.000121121)
(-0.00148554 -0.000459637 0.000119297)
(-0.00152599 -0.000469463 0.000115848)
(-0.00156455 -0.000479335 0.000110518)
(-0.00160126 -0.000489087 0.000102865)
(-0.00163624 -0.000498535 9.24181e-05)
(-0.00166878 -0.000507314 7.85758e-05)
(-0.00169766 -0.000515012 6.08385e-05)
(-0.0017196 -0.000521107 3.84505e-05)
(-0.00172936 -0.000524405 1.2867e-05)
(-1.84778e-05 -8.28636e-07 1.29112e-05)
(-4.11809e-05 -9.52711e-06 -9.25824e-06)
(-5.18441e-05 -1.4915e-05 -2.28425e-05)
(-4.19601e-05 -1.83033e-05 -2.3392e-05)
(-3.9761e-05 -2.53253e-05 -2.30022e-05)
(-5.88144e-05 -4.51375e-05 -2.86562e-05)
(-5.7782e-05 -4.43905e-05 -2.14134e-05)
(-8.14555e-05 -5.75791e-05 -2.3075e-05)
(-0.000229466 -0.00014992 -4.82567e-05)
(-0.000352325 -0.000213839 -4.89089e-05)
(-0.000472124 -0.000262494 -3.6196e-05)
(-0.000600578 -0.000303581 -1.77114e-05)
(-0.000714168 -0.000328358 4.07722e-06)
(-0.000821999 -0.000345313 2.60678e-05)
(-0.000911912 -0.000352932 4.59466e-05)
(-0.000997456 -0.000359425 6.32364e-05)
(-0.00106669 -0.000362138 7.69036e-05)
(-0.00112843 -0.000365014 8.75399e-05)
(-0.00118725 -0.000369626 9.57831e-05)
(-0.00124089 -0.000374997 0.00010179)
(-0.00128923 -0.00038076 0.000105813)
(-0.00133469 -0.000387298 0.000108222)
(-0.00137803 -0.000394555 0.000109151)
(-0.00141881 -0.000402171 0.00010854)
(-0.00145821 -0.000410321 0.000106326)
(-0.00149551 -0.000418633 0.000102153)
(-0.00153065 -0.000426895 9.55812e-05)
(-0.00156359 -0.000434832 8.61678e-05)
(-0.0015944 -0.000442282 7.34318e-05)
(-0.00162183 -0.000448832 5.69463e-05)
(-0.00164254 -0.000454007 3.60576e-05)
(-0.00165121 -0.000456745 1.20874e-05)
(2.17231e-06 3.30278e-06 1.69405e-05)
(-2.39605e-06 8.87478e-07 -1.04589e-06)
(-7.47763e-06 -1.48053e-06 -1.24305e-05)
(-1.46649e-05 -1.04172e-05 -2.17598e-05)
(-1.70708e-05 -1.67378e-05 -2.08333e-05)
(-2.8755e-05 -3.09394e-05 -2.69147e-05)
(-4.3034e-05 -4.16849e-05 -2.85287e-05)
(-4.85112e-05 -3.93882e-05 -2.30295e-05)
(-7.22428e-05 -5.00436e-05 -2.45396e-05)
(-0.000218657 -0.000133752 -5.19697e-05)
(-0.000357055 -0.000199996 -5.59362e-05)
(-0.000478474 -0.000243442 -4.22842e-05)
(-0.000605283 -0.000277875 -2.37029e-05)
(-0.000713109 -0.00029652 -2.46093e-06)
(-0.000816579 -0.00030971 1.84133e-05)
(-0.00089822 -0.000313982 3.70016e-05)
(-0.000977177 -0.000318417 5.31003e-05)
(-0.00104646 -0.000321656 6.62481e-05)
(-0.00110447 -0.00032385 7.64163e-05)
(-0.0011577 -0.000326981 8.42651e-05)
(-0.00120895 -0.00033158 9.02596e-05)
(-0.0012569 -0.000336984 9.4491e-05)
(-0.00130144 -0.000342931 9.70324e-05)
(-0.00134355 -0.000349469 9.79527e-05)
(-0.00138182 -0.000356092 9.70054e-05)
(-0.00141726 -0.000362874 9.39711e-05)
(-0.00145023 -0.000369691 8.84503e-05)
(-0.00148139 -0.000376389 8.00736e-05)
(-0.00151022 -0.000382624 6.84088e-05)
(-0.00153584 -0.000388096 5.31357e-05)
(-0.00155509 -0.000392419 3.37179e-05)
(-0.00156281 -0.000394717 1.13304e-05)
(6.8406e-06 8.23036e-06 2.52703e-05)
(1.57122e-05 7.1154e-06 -1.83067e-06)
(1.76318e-05 4.19567e-06 -1.15567e-05)
(1.82988e-05 -3.02822e-06 -1.8838e-05)
(1.19278e-05 -1.17398e-05 -2.22473e-05)
(1.76177e-06 -2.01258e-05 -2.36661e-05)
(-1.20185e-05 -2.75913e-05 -2.53341e-05)
(-3.1989e-05 -3.60716e-05 -2.94042e-05)
(-6.13592e-05 -4.84461e-05 -3.44767e-05)
(-0.000117558 -7.46407e-05 -4.47067e-05)
(-0.000202736 -0.000115039 -5.21832e-05)
(-0.000356368 -0.000182382 -5.75931e-05)
(-0.00047818 -0.000220737 -4.5162e-05)
(-0.00060177 -0.000249954 -2.72623e-05)
(-0.000700431 -0.000263232 -7.10011e-06)
(-0.000799443 -0.000274082 1.23594e-05)
(-0.000876244 -0.000277191 2.97279e-05)
(-0.000944135 -0.000278805 4.45162e-05)
(-0.00100962 -0.000281564 5.69446e-05)
(-0.00106815 -0.0002844 6.69655e-05)
(-0.00111867 -0.000287095 7.46674e-05)
(-0.00116465 -0.000290416 8.04195e-05)
(-0.00120721 -0.000294476 8.43828e-05)
(-0.00124594 -0.000298968 8.65426e-05)
(-0.00128254 -0.000304173 8.68924e-05)
(-0.00131617 -0.000309694 8.5071e-05)
(-0.00134698 -0.000315321 8.06713e-05)
(-0.00137529 -0.000320762 7.33496e-05)
(-0.0014018 -0.000325921 6.28409e-05)
(-0.0014255 -0.000330472 4.89049e-05)
(-0.00144317 -0.000334052 3.11169e-05)
(-0.00144952 -0.000335899 1.0486e-05)
(1.65366e-05 1.21578e-05 3.12217e-05)
(2.8594e-05 1.09562e-05 -4.20819e-06)
(3.27498e-05 7.77626e-06 -1.25011e-05)
(3.21023e-05 1.22081e-06 -1.55938e-05)
(3.19667e-05 -6.58129e-06 -1.74844e-05)
(2.08849e-05 -1.13391e-05 -1.40109e-05)
(1.0686e-05 -1.46293e-05 -1.21053e-05)
(-1.54487e-06 -1.62751e-05 -1.17871e-05)
(-1.76685e-05 -1.90938e-05 -1.65352e-05)
(-4.07499e-05 -2.82524e-05 -2.34453e-05)
(-9.83472e-05 -5.6022e-05 -3.72614e-05)
(-0.00020505 -0.000104413 -5.22215e-05)
(-0.000353854 -0.000164028 -5.75933e-05)
(-0.000467446 -0.000195635 -4.4995e-05)
(-0.000585693 -0.000220499 -2.87134e-05)
(-0.000671898 -0.000229085 -1.00825e-05)
(-0.000760695 -0.000236907 7.6786e-06)
(-0.000838085 -0.000241104 2.38033e-05)
(-0.000899934 -0.000242061 3.75624e-05)
(-0.000955671 -0.000243101 4.90607e-05)
(-0.00100943 -0.000245415 5.8599e-05)
(-0.00105866 -0.000248319 6.61757e-05)
(-0.00110307 -0.000251696 7.18188e-05)
(-0.00114357 -0.000255618 7.55869e-05)
(-0.0011786 -0.000259685 7.72482e-05)
(-0.00120966 -0.000264027 7.65833e-05)
(-0.00123756 -0.000268553 7.32328e-05)
(-0.00126372 -0.000273129 6.69598e-05)
(-0.00128774 -0.00027739 5.75396e-05)
(-0.00130917 -0.000281123 4.48625e-05)
(-0.00132505 -0.000284054 2.86331e-05)
(-0.0013304 -0.000285611 9.68599e-06)
(2.60681e-05 1.33221e-05 3.34418e-05)
(5.231e-05 1.54049e-05 -6.07749e-06)
(6.71849e-05 1.24071e-05 -1.8489e-05)
(6.94823e-05 3.84037e-06 -2.29478e-05)
(5.50565e-05 -5.29395e-06 -1.99314e-05)
(3.4958e-05 -1.02704e-05 -1.32686e-05)
(3.51333e-05 -1.99925e-05 -1.29802e-05)
(1.56143e-05 -1.59435e-05 -5.77953e-06)
(3.88654e-06 -2.40476e-05 -9.54875e-06)
(-2.56995e-05 -2.45847e-05 -2.03315e-05)
(-6.54737e-05 -3.69059e-05 -3.48273e-05)
(-6.96072e-05 -3.55299e-05 -2.58087e-05)
(-0.000203079 -9.33729e-05 -4.95403e-05)
(-0.000346224 -0.000145973 -5.53695e-05)
(-0.000445 -0.00016991 -4.30739e-05)
(-0.000558572 -0.000191846 -2.88482e-05)
(-0.000638597 -0.000199002 -1.19489e-05)
(-0.000709461 -0.000202421 4.29936e-06)
(-0.000780686 -0.000206145 1.91221e-05)
(-0.000843286 -0.000208538 3.21625e-05)
(-0.000894507 -0.000209622 4.30519e-05)
(-0.000939503 -0.000210867 5.19024e-05)
(-0.000979496 -0.000212636 5.87595e-05)
(-0.00101506 -0.000214919 6.36581e-05)
(-0.0010475 -0.000217999 6.6561e-05)
(-0.00107616 -0.000221533 6.70881e-05)
(-0.00110135 -0.000225301 6.48484e-05)
(-0.00112372 -0.000228948 5.96181e-05)
(-0.00114482 -0.000232455 5.14032e-05)
(-0.00116389 -0.000235561 4.0171e-05)
(-0.00117788 -0.000237968 2.57354e-05)
(-0.00118155 -0.000239172 8.74209e-06)
(3.33155e-05 1.35566e-05 3.48054e-05)
(7.15865e-05 1.81375e-05 -5.01934e-06)
(9.44836e-05 1.61532e-05 -2.01862e-05)
(0.000106125 7.42788e-06 -2.90754e-05)
(0.000106363 -5.23593e-06 -3.24502e-05)
(9.26153e-05 -1.76471e-05 -2.92915e-05)
(5.30165e-05 -1.97035e-05 -1.65424e-05)
(2.98509e-05 -1.88943e-05 -8.22278e-06)
(1.88953e-05 -2.10164e-05 -3.20309e-06)
(4.33658e-06 -2.29992e-05 -1.73881e-06)
(-1.88482e-05 -1.61482e-05 -1.07132e-05)
(-4.15633e-05 -2.16067e-05 -2.02166e-05)
(-6.83406e-05 -3.14441e-05 -2.38077e-05)
(-0.000185008 -7.92174e-05 -4.42061e-05)
(-0.000325856 -0.00012648 -5.10061e-05)
(-0.000405064 -0.000142745 -3.98612e-05)
(-0.000503845 -0.000160012 -2.7185e-05)
(-0.000587831 -0.000169517 -1.25728e-05)
(-0.000649485 -0.000172059 2.18857e-06)
(-0.000704801 -0.000173421 1.56789e-05)
(-0.000759593 -0.000175631 2.76664e-05)
(-0.000808989 -0.000177795 3.79243e-05)
(-0.000852742 -0.000180155 4.63027e-05)
(-0.000890122 -0.000182595 5.26688e-05)
(-0.000920736 -0.000185165 5.68137e-05)
(-0.000946045 -0.000187993 5.8416e-05)
(-0.000967557 -0.000191077 5.71529e-05)
(-0.000987665 -0.000194315 5.29499e-05)
(-0.00100596 -0.000197292 4.58218e-05)
(-0.00102237 -0.000199876 3.58839e-05)
(-0.00103432 -0.000201861 2.30862e-05)
(-0.00103715 -0.000202919 7.88736e-06)
(3.93616e-05 1.36758e-05 3.74771e-05)
(8.05784e-05 1.91707e-05 -2.66142e-06)
(0.000108678 1.93181e-05 -1.91637e-05)
(0.000125442 1.24533e-05 -3.00169e-05)
(0.000129852 1.32796e-07 -3.61381e-05)
(0.000123677 -1.41393e-05 -3.72296e-05)
(0.000109211 -2.80906e-05 -3.35368e-05)
(7.40801e-05 -3.2872e-05 -2.11031e-05)
(4.94818e-05 -3.50882e-05 -1.00801e-05)
(2.13886e-05 -2.46304e-05 -2.05299e-07)
(3.31787e-06 -1.52928e-05 1.22112e-06)
(-2.20768e-05 -1.70719e-05 -1.01627e-05)
(-6.6057e-05 -3.28765e-05 -3.12407e-05)
(-8.85853e-05 -3.94094e-05 -2.97276e-05)
(-0.000155882 -6.18854e-05 -3.61053e-05)
(-0.000298606 -0.000107524 -4.72253e-05)
(-0.000371169 -0.000121972 -3.74856e-05)
(-0.000439315 -0.000131119 -2.48922e-05)
(-0.000515622 -0.000140191 -1.19397e-05)
(-0.000580094 -0.000145503 1.33743e-06)
(-0.000628725 -0.000147329 1.37374e-05)
(-0.000669956 -0.000148424 2.45579e-05)
(-0.00070403 -0.00014933 3.34835e-05)
(-0.000734913 -0.000150813 4.0581e-05)
(-0.000761343 -0.000152894 4.56422e-05)
(-0.000783676 -0.000155463 4.82459e-05)
(-0.00080204 -0.000158245 4.79808e-05)
(-0.000817254 -0.000160822 4.47485e-05)
(-0.000832003 -0.000163336 3.88777e-05)
(-0.000845742 -0.000165568 3.05308e-05)
(-0.000855564 -0.000167226 1.97427e-05)
(-0.000856396 -0.000167958 6.78178e-06)
(4.33073e-05 1.35675e-05 4.09582e-05)
(8.22492e-05 1.93128e-05 2.45916e-07)