/*--------------------------------*- C++ -*----------------------------------*\
  =========                 |
  \\      /  F ield         | OpenFOAM: The Open Source CFD Toolbox
   \\    /   O peration     | Website:  https://openfoam.org
    \\  /    A nd           | Version:  6
     \\/     M anipulation  |
\*---------------------------------------------------------------------------*/
FoamFile
{
    version     2.0;
    format      ascii;
    class       volScalarField;
    location    "43";
    object      yPlus;
}
// * * * * * * * * * * * * * * * * * * * * * * * * * * * * * * * * * * * * * //

dimensions      [0 0 0 0 0 0 0];

internalField   uniform 0;

boundaryField
{
    inlet
    {
        type            calculated;
        value           uniform 0;
    }
    outlet
    {
        type            calculated;
        value           uniform 0;
    }
    roughCylinder
    {
        type            calculated;
        value           nonuniform List<scalar> 
5120
(
76.723
60.0318
52.1659
55.552
61.5747
66.6527
70.8697
74.4052
77.4114
80.0374
82.4126
84.5987
86.6402
88.5817
90.4448
92.2739
94.098
95.9749
97.9186
99.9422
102.054
104.254
106.535
108.887
111.293
113.726
116.151
118.514
120.742
122.725
124.28
125.148
93.4523
61.2327
51.7429
54.0865
59.9022
64.9401
69.1375
72.6559
75.6518
78.2858
80.6504
82.8059
84.8132
86.6983
88.5075
90.2692
92.0444
93.8446
95.7117
97.6645
99.7059
101.831
104.036
106.308
108.631
110.981
113.322
115.606
117.757
119.672
121.173
122.01
92.3809
59.8563
50.5688
52.6192
58.256
63.2181
67.3702
70.8876
73.9084
76.5436
78.907
81.0521
83.0141
84.8597
86.6105
88.3221
90.0134
91.7569
93.5642
95.4447
97.4075
99.4545
101.579
103.77
106.012
108.28
110.539
112.742
114.818
116.666
118.114
118.92
93.6821
61.1365
50.305
51.1048
56.4858
61.429
65.6045
69.1433
72.1676
74.8308
77.1969
79.3156
81.2577
83.053
84.7607
86.4043
88.0632
89.735
91.465
93.2785
95.1775
97.156
99.2088
101.324
103.486
105.673
107.852
109.976
111.978
113.761
115.156
115.931
85.0932
58.8733
49.3485
49.6408
54.7873
59.6733
63.8087
67.3539
70.4406
73.1195
75.4898
77.62
79.5311
81.3042
82.9613
84.5752
86.1474
87.77
89.4545
91.2037
93.0276
94.931
96.907
98.9465
101.032
103.143
105.245
107.293
109.224
110.943
112.289
113.033
100.682
60.9275
48.9363
48.0988
52.8905
57.766
61.9748
65.598
68.6906
71.4115
73.8099
75.9181
77.8349
79.572
81.2075
82.7535
84.3184
85.8811
87.4889
89.177
90.948
92.7926
94.7061
96.6766
98.6897
100.724
102.75
104.726
106.587
108.245
109.541
110.257
84.4791
60.2739
48.0369
46.5711
51.0919
55.941
60.1202
63.7288
66.9244
69.6843
72.0898
74.2429
76.1425
77.8886
79.4845
81.0342
82.5105
84.0322
85.6142
87.2498
88.9495
90.7232
92.5637
94.4629
96.4056
98.3696
100.325
102.229
104.024
105.623
106.872
107.559
71.787
59.3872
47.8418
44.9222
48.9724
53.8031
58.109
61.8961
65.1014
67.9148
70.3923
72.529
74.4635
76.1857
77.7964
79.2771
80.781
82.2623
83.7674
85.3473
87.0075
88.734
90.5227
92.362
94.2378
96.131
98.0152
99.8525
101.582
103.123
104.326
104.986
76.2314
57.5836
47.1742
43.4762
46.9596
51.8011
56.1177
59.8321
63.1996
66.1029
68.5889
70.8203
72.7534
74.5203
76.0973
77.631
79.0471
80.4954
82.0013
83.5457
85.1382
86.7969
88.5156
90.2862
92.0967
93.9255
95.7439
97.5135
99.1815
100.668
101.827
102.458
85.0854
58.8719
46.7785
41.7378
44.4639
49.2059
53.7011
57.7982
61.1969
64.1662
66.8025
69.0248
71.0356
72.7874
74.4242
75.8763
77.3616
78.7982
80.2259
81.7191
83.289
84.9152
86.5938
88.3167
90.0655
91.8276
93.5786
95.2853
96.8919
98.3224
99.4374
100.041
87.0165
59.9466
46.8931
40.215
41.9911
46.798
51.423
55.3157
58.9878
62.1589
64.8036
67.2011
69.2312
71.0834
72.6848
74.2557
75.6455
77.0501
78.5126
79.9928
81.4972
83.056
84.6662
86.3176
88.0066
89.7087
91.3979
93.0389
94.5863
95.965
97.0378
97.6123
69.4019
56.9474
45.8661
38.4836
38.7896
43.2256
48.083
52.8465
56.6129
59.8692
62.8152
65.2153
67.3939
69.2372
70.9696
72.432
73.9453
75.3781
76.7545
78.1823
79.6841
81.2289
82.8124
84.4328
86.0645
87.7021
89.3257
90.9077
92.3955
93.7204
94.7499
95.2974
76.6734
58.0836
45.686
36.4015
35.4293
39.9534
45.2468
49.4386
53.7532
57.4692
60.4217
63.1479
65.3763
67.4158
69.1003
70.7836
72.1891
73.5833
75.0407
76.488
77.9241
79.3982
80.9128
82.4532
84.0294
85.6119
87.1773
88.6937
90.1236
91.3988
92.387
92.9052
65.8412
55.1421
45.2095
35.0621
30.5251
33.919
39.5185
46.0438
50.5806
54.4353
58.03
60.7818
63.2971
65.3278
67.2649
68.7871
70.3948
71.8799
73.2357
74.6228
76.0835
77.5701
79.0757
80.6095
82.133
83.6524
85.1527
86.6136
87.9848
89.2062
90.1516
90.6432
47.9395
47.6971
41.9475
32.3719
25.8907
28.3247
35.4542
40.0876
46.215
51.2219
54.821
58.2417
60.8591
63.2711
65.1259
67.0401
68.5172
69.9427
71.448
72.9045
74.2958
75.7011
77.1337
78.5693
80.0408
81.5096
82.9548
84.3473
85.6613
86.8338
87.7382
88.1984
25.6162
36.4873
35.6685
29.5475
13.781
8.98128
19.78
34.5301
40.9164
46.4001
51.5982
55.092
58.3206
60.7168
63.0562
64.7048
66.5101
68.1297
69.5026
70.8781
72.3332
73.792
75.2408
76.708
78.1315
79.5364
80.9145
82.2556
83.5104
84.6275
85.488
85.9225
15.359
19.5692
20.2195
13.4916
8.31112
15.9446
8.20884
12.3731
32.0211
41.015
46.3967
51.5995
55.0396
58.2269
60.4003
62.7624
64.3884
65.9002
67.5319
69.0583
70.4333
71.7865
73.1499
74.4838
75.8572
77.216
78.5413
79.8063
81.0018
82.0696
82.8884
83.2865
11.3708
5.98247
5.37999
13.9618
4.29585
15.9504
16.8555
6.77336
5.39481
30.6102
41.2281
46.5388
51.5702
54.7294
57.9077
59.7813
61.9727
63.863
65.3008
66.6996
68.2004
69.6753
71.099
72.5245
73.8556
75.1462
76.3982
77.6173
78.7513
79.7599
80.5319
80.906
11.4645
10.2771
8.27021
14.5534
16.0453
17.1915
17.9866
18.3757
18.2311
21.9973
27.9579
40.8306
46.3171
51.4136
54.2048
57.5008
59.3949
61.0749
62.9707
64.6677
66.0632
67.3809
68.6799
69.9144
71.1937
72.4428
73.6438
74.77
75.8387
76.7958
77.5233
77.8514
3.6324
11.2603
10.6607
11.1173
13.9514
12.1659
11.8888
11.2236
10.0892
6.02915
17.7891
28.3149
40.6435
45.6712
50.9253
53.1804
56.1954
58.6322
60.2012
61.669
63.3035
64.8699
66.3332
67.7447
68.9931
70.1642
71.2786
72.3692
73.3725
74.2632
74.939
75.2467
6.63777
15.9045
19.341
20.2474
16.6461
6.32864
16.8894
6.69837
22.2494
21.5198
20.9781
10.557
28.3039
40.5085
44.668
50.3525
52.7194
54.7191
57.1855
59.2571
60.7288
62.0268
63.2398
64.3877
65.5713
66.7076
67.7736
68.7365
69.6606
70.495
71.1206
71.3622
7.99637
18.3579
23.2162
26.6845
28.5982
27.3019
16.903
11.8917
13.135
19.0616
14.6768
12.1757
6.94768
26.2789
39.7863
42.566
47.8303
51.5432
53.336
54.9595
56.9245
58.744
60.4049
61.8388
63.0289
64.0685
65.0216
65.9744
66.8309
67.5872
68.1532
68.3856
7.8123
18.2677
24.0207
28.2176
30.7944
31.9232
31.768
24.5833
21.3915
14.5912
10.4999
18.0635
22.7444
17.0657
23.0164
39.0866
42.1814
44.9423
48.9514
51.8946
53.5406
54.8457
55.8781
56.9769
58.0468
59.0672
59.9798
60.7267
61.4722
62.1637
62.6698
62.7896
7.46274
17.1248
23.1737
27.8892
31.3483
33.3785
33.5864
32.7944
26.986
13.9277
15.607
12.124
17.2917
15.4366
5.82773
12.5714
32.905
40.2666
42.3567
44.4298
47.3596
49.865
52.2048
53.7636
54.9879
55.8754
56.6188
57.4336
58.1224
58.7176
59.1526
59.2994
6.70154
15.5873
21.5653
26.2601
29.8327
32.415
34.0351
34.0765
32.999
28.6694
6.9113
17.5677
27.3586
10.2259
16.188
12.6955
5.49223
23.8464
34.1851
40.2129
42.2817
43.6725
44.0813
45.2476
46.1303
47.0438
47.7866
48.1698
48.6505
49.1788
49.5317
49.4234
5.99166
14.3662
20.0088
24.491
27.9992
30.6618
32.4491
33.4512
33.2574
32.1935
31.025
14.1837
18.8719
26.9863
12.2352
16.2094
14.5111
24.5286
22.5694
20.1761
27.698
33.8148
38.9115
40.9193
42.5532
43.2829
43.6463
44.3502
44.9485
45.2355
45.5691
45.5803
5.23765
13.2418
18.2642
22.2611
25.4552
28.0255
30.0081
31.2523
31.8234
31.6838
30.6415
31.9739
22.4421
12.6061
26.7538
25.5657
24.6387
23.2183
16.2201
25.2579
21.5579
9.41692
7.17207
14.3894
14.0712
15.603
16.1895
16.7182
14.3178
16.8737
14.7106
15.286
4.6487
12.2965
16.0994
19.1875
21.8472
24.1842
26.1363
27.6305
28.589
29.236
30.0792
29.4683
31.3365
26.904
14.7538
20.2803
21.7364
25.202
19.1473
4.47178
26.5046
7.66911
18.7083
27.8787
20.2479
7.80149
21.1555
30.0243
8.37965
31.0294
22.5058
31.4392
4.35214
11.8094
13.6681
15.3108
17.0509
18.8944
20.7414
22.4369
23.9714
25.4676
26.8696
29.154
29.8174
31.4555
30.4509
17.3087
28.9818
25.6634
8.01446
25.6899
20.2751
26.9719
9.83464
20.1259
6.42636
27.8147
30.2533
21.1858
29.6303
22.7815
11.8359
22.672
3.94237
11.8263
12.1217
12.5541
13.1363
14.0073
15.3164
17.0676
19.0712
21.2107
23.6155
25.517
28.2182
29.9373
31.1838
32.8451
26.3132
8.55538
18.4086
28.2574
19.3817
17.9368
6.27288
9.10765
25.0754
4.20488
19.5394
8.70974
31.9951
21.0524
31.7326
12.7452
3.64568
11.3382
11.9193
11.8237
11.9766
12.1983
13.0339
14.6392
16.6143
18.6952
20.7382
23.2849
25.3597
27.8277
30.2452
31.1245
32.4298
30.7542
20.4521
24.6897
21.046
27.0782
27.5968
31.2858
14.3236
27.5978
8.7173
19.2943
27.9657
20.4398
14.774
7.60479
3.55356
11.3624
11.494
11.7355
11.8616
12.1214
13.2964
15.1312
16.9763
18.6287
20.2686
21.7081
23.6602
25.5841
27.5641
30.2456
31.686
32.318
32.5869
29.3411
21.3423
16.1325
23.5464
27.9839
7.61575
29.2837
22.9176
8.12754
34.4402
29.3927
26.677
29.5792
2.45976
9.17229
11.3762
11.6715
11.6421
11.988
13.7958
15.9794
17.9033
19.5098
20.8265
22.1476
23.2138
24.4856
26.1005
27.6398
29.8262
31.785
32.4715
32.3972
32.3729
29.8464
26.3875
23.2445
20.4481
19.2283
17.8168
18.837
19.7643
18.338
18.3884
19.7729
2.22417
8.45493
10.7729
11.6136
11.7647
13.1656
15.524
17.6631
19.3926
20.8023
22.0194
22.9789
23.9154
24.6922
25.4027
26.5852
27.9358
29.567
31.4292
32.5598
32.3701
32.0442
31.3896
30.9979
30.8098
30.504
30.0683
29.7541
29.379
29.2429
29.347
29.4002
2.8711
9.70302
11.4987
11.5626
12.8416
15.2299
17.5263
19.4361
21.0152
22.3391
23.4361
24.3955
25.1069
25.6728
26.163
26.4773
27.0884
28.1605
29.4264
30.7146
31.6836
31.911
31.3982
30.4688
29.3065
28.1535
26.9683
26.1071
25.5178
25.345
25.5453
25.8381
3.7184
11.2611
11.5693
13.0869
15.437
17.7348
19.7143
21.3912
22.8163
24.0323
25.0824
25.932
26.6292
27.1102
27.3537
27.5336
27.6139
27.783
28.3862
29.3009
30.084
30.4693
30.3837
29.9341
29.1725
28.2026
27.0802
26.1667
25.6375
25.5711
25.7817
26.0073
3.82598
11.3648
13.4966
15.7813
17.9791
19.955
21.7039
23.2419
24.5954
25.785
26.8133
27.6886
28.3489
28.7944
29.0394
29.0243
28.8787
28.7179
28.6029
28.7137
29.0762
29.4139
29.3441
28.7809
27.7476
26.3869
24.8646
23.6566
23.0097
23.0122
23.419
23.8667
4.27965
12.3982
15.5912
18.0954
20.1801
21.9972
23.6212
25.082
26.398
27.5767
28.6212
29.4965
30.1896
30.6593
30.8734
30.8773
30.6583
30.2606
29.8282
29.458
29.1851
28.9826
28.7037
28.1779
27.307
26.1468
24.8505
23.7722
23.2581
23.4096
23.9054
24.3665
5.53445
14.6187
17.8116
20.1413
22.0569
23.7752
25.3563
26.8103
28.1469
29.3645
30.4497
31.3799
32.1093
32.6146
32.8895
32.8987
32.6684
32.2394
31.639
30.9515
30.2786
29.6536
29.0075
28.2158
27.1731
25.878
24.4691
23.322
22.8101
23.0362
23.6585
24.236
6.7084
16.1518
19.4201
21.7659
23.6968
25.4291
27.0237
28.5044
29.8841
31.1539
32.2961
33.2742
34.0618
34.629
34.9507
35.0288
34.8507
34.4152
33.7658
32.951
32.0254
31.0504
30.0485
28.9909
27.8148
26.5184
25.2086
24.1762
23.7746
24.0887
24.7584
25.343
8.04062
9.37953
10.7085
11.4751
11.6599
11.3611
11.7212
11.6415
11.7853
11.7995
11.909
11.5011
11.3419
11.2258
10.407
9.92526
9.50233
9.20423
9.00786
8.91245
8.91257
9.00814
9.20473
9.50301
9.92672
10.4042
11.2467
11.4527
11.787
11.6995
11.5263
11.46
11.892
11.7181
11.8528
11.2438
11.4702
10.7171
9.3834
8.04202
17.4245
18.2193
18.8705
19.2329
19.5073
19.6545
19.7607
19.7758
19.7654
19.714
19.6331
19.5176
19.4009
19.2583
19.114
19.0125
18.92
18.8548
18.8098
18.7881
18.7881
18.81
18.8551
18.9204
19.0131
19.1139
19.2619
19.3968
19.5231
19.6313
19.7028
19.7592
19.7722
19.7627
19.665
19.5008
19.2374
18.8759
18.223
17.4263
20.6376
21.2487
21.7521
22.0294
22.2612
22.3625
22.4339
22.4292
22.4097
22.3525
22.2897
22.2084
22.1305
22.0473
21.9735
21.9115
21.8587
21.82
21.7929
21.7791
21.7792
21.7931
21.8203
21.8591
21.912
21.974
22.0483
22.1307
22.2097
22.2903
22.3524
22.4106
22.4296
22.4355
22.3637
22.2623
22.0316
21.7549
21.2513
20.6391
22.9067
23.4302
23.883
24.1524
24.384
24.5044
24.6047
24.6418
24.6679
24.6627
24.6569
24.6377
24.6202
24.599
24.5791
24.5628
24.5487
24.539
24.5317
24.5275
24.5276
24.5319
24.5393
24.5491
24.5633
24.5798
24.5997
24.621
24.6387
24.6579
24.6637
24.669
24.6429
24.606
24.5056
24.3853
24.1537
23.8846
23.4319
22.908
24.8041
25.2945
25.7385
26.0222
26.2769
26.4365
26.5817
26.6766
26.7649
26.8259
26.8854
26.9324
26.9776
27.0169
27.052
27.0841
27.1106
27.1322
27.1463
27.1526
27.1528
27.1466
27.1324
27.111
27.0846
27.0527
27.0177
26.9784
26.9334
26.8864
26.827
26.7661
26.6778
26.583
26.4378
26.2782
26.0235
25.7399
25.2959
24.8054
26.535
27.0029
27.4571
27.7603
28.054
28.2634
28.4694
28.6273
28.7837
28.9133
29.0414
29.1558
29.2658
29.3664
29.458
29.5395
29.6081
29.662
29.6981
29.7152
29.7153
29.6983
29.6622
29.6085
29.54
29.4586
29.3671
29.2667
29.1567
29.0425
28.9144
28.7848
28.6285
28.4706
28.2647
28.0553
27.7617
27.4585
27.0043
26.5364
28.1519
28.6035
29.0859
29.4158
29.7625
30.0223
30.2904
30.5094
30.7313
30.926
31.1195
31.2972
31.4682
31.6261
31.7704
31.8981
32.0054
32.089
32.1453
32.1719
32.172
32.1454
32.0893
32.0058
31.8986
31.7711
31.6268
31.4691
31.2981
31.1205
30.927
30.7323
30.5106
30.2915
30.0236
29.7638
29.4171
29.0873
28.6048
28.1533
29.6745
30.1185
30.6412
31.0008
31.3982
31.7047
32.0286
32.3028
32.583
32.8358
33.0871
33.321
33.546
33.754
33.9443
34.1117
34.2523
34.3613
34.4344
34.4686
34.4687
34.4345
34.3615
34.2528
34.1123
33.9448
33.7546
33.5467
33.3219
33.088
32.8368
32.584
32.3038
32.0297
31.7058
31.3993
31.0021
30.6425
30.1197
29.6759
31.1072
31.5473
32.1123
32.4964
32.9388
33.2851
33.6567
33.978
34.3076
34.6097
34.9097
35.1909
35.4608
35.7105
35.9385
36.1385
36.3059
36.435
36.5212
36.5614
36.5615
36.5214
36.4353
36.3063
36.1389
35.939
35.7111
35.4616
35.1918
34.9106
34.6107
34.3085
33.9791
33.6579
33.2862
32.94
32.4975
32.1136
31.5485
31.1085
32.4333
32.8707
33.4717
33.8761
34.3555
34.7348
35.1452
35.5056
35.8751
36.2177
36.557
36.8764
37.1821
37.4646
37.7221
37.9474
38.1353
38.2797
38.3759
38.4202
38.4203
38.3761
38.28
38.1356
37.9478
37.7226
37.4652
37.1827
36.8772
36.5579
36.2186
35.8761
35.5065
35.1462
34.7358
34.3565
33.8772
33.4728
32.8718
32.4343
33.6257
34.0588
34.6902
35.111
35.6199
36.0265
36.4681
36.8601
37.2618
37.6366
38.007
38.3562
38.6892
38.9969
39.2762
39.52
39.7226
39.878
39.9812
40.0285
40.0285
39.9813
39.8782
39.7229
39.5204
39.2767
38.9973
38.6898
38.3568
38.0077
37.6375
37.2627
36.861
36.469
36.0274
35.6208
35.1119
34.6912
34.0598
33.6266
34.6554
35.0807
35.741
36.1747
36.7092
37.1387
37.6063
38.0244
38.4522
38.8529
39.2475
39.6197
39.9735
40.2994
40.5945
40.8512
41.064
41.2265
41.3341
41.3833
41.3833
41.3343
41.2268
41.0642
40.8516
40.5949
40.3
39.974
39.6202
39.2482
38.8536
38.453
38.0252
37.6071
37.1395
36.7101
36.1755
35.7417
35.0815
34.6561
35.4896
35.9133
36.6005
37.0487
37.6069
38.0578
38.549
38.9903
39.4406
39.863
40.2775
40.6681
41.0379
41.3777
41.6842
41.9499
42.1694
42.3366
42.447
42.4972
42.4973
42.4472
42.3368
42.1696
41.9502
41.6845
41.3782
41.0384
40.6686
40.2782
39.8636
39.4412
38.9911
38.5497
38.0586
37.6078
37.0494
36.6011
35.914
35.4901
36.1067
36.5379
37.2538
37.7215
38.3044
38.7787
39.293
39.7571
40.2285
40.6708
41.1032
41.5094
41.8925
42.2434
42.5586
42.831
43.0552
43.2257
43.3379
43.3889
43.3889
43.3381
43.2258
43.0555
42.8313
42.559
42.2439
41.893
41.5099
41.1036
40.6714
40.2291
39.7577
39.2937
38.7793
38.3051
37.7221
37.2544
36.5384
36.1072
36.4966
36.9395
37.6944
38.186
38.7991
39.2993
39.8394
40.3273
40.8205
41.2826
41.7319
42.153
42.5481
42.9088
43.2314
43.5092
43.7371
43.91
44.0237
44.0752
44.0752
44.0238
43.9102
43.7374
43.5094
43.2317
42.9092
42.5486
42.1534
41.7324
41.2831
40.8211
40.3279
39.84
39.2998
38.7997
38.1865
37.6949
36.9399
36.4968
36.6368
37.1148
37.913
38.4393
39.0871
39.6186
40.1876
40.702
41.2183
41.701
42.1678
42.6035
43.0105
43.3804
43.7098
43.9926
44.224
44.3991
44.514
44.5662
44.5662
44.5142
44.3992
44.2242
43.9929
43.7102
43.3808
43.0108
42.6039
42.1682
41.7015
41.2188
40.7024
40.1882
39.6191
39.0875
38.4397
37.9133
37.115
36.6368
36.5213
37.0517
37.901
38.4736
39.1608
39.7302
40.3312
40.8753
41.4167
41.9215
42.4066
42.8576
43.2766
43.6559
43.9923
44.2801
44.5148
44.6921
44.8085
44.8614
44.8614
44.8085
44.6923
44.515
44.2803
43.9926
43.6562
43.2769
42.8579
42.407
41.9219
41.4171
40.8757
40.3316
39.7305
39.1611
38.4739
37.9012
37.0518
36.521
36.1492
36.73
37.6459
38.2722
39.0065
39.6185
40.2558
40.8325
41.4014
41.9301
42.4347
42.9019
43.3337
43.723
44.0668
44.36
44.5985
44.7783
44.8964
44.9502
44.9503
44.8965
44.7785
44.5987
44.3601
44.0671
43.7232
43.334
42.9023
42.4351
41.9304
41.4018
40.8328
40.2562
39.6187
39.0068
38.2723
37.646
36.7298
36.1491
35.5195
36.1438
37.1232
37.8153
38.6014
39.2615
39.9383
40.551
41.1497
41.7042
42.2302
42.7149
43.1608
43.5611
43.9133
44.2127
44.4556
44.6386
44.7587
44.8138
44.8138
44.7587
44.6387
44.4557
44.2128
43.9134
43.5614
43.161
42.7153
42.2304
41.7046
41.15
40.5513
39.9386
39.2618
38.6016
37.8153
37.123
36.1436
35.5188
34.6538
35.2976
36.317
37.0744
37.9194
38.6322
39.3516
40.0029
40.6336
41.2162
41.7652
42.2694
42.7309
43.1438
43.5057
43.8126
44.0611
44.2481
44.3708
44.4276
44.4276
44.3709
44.2482
44.0612
43.8127
43.5059
43.144
42.7311
42.2697
41.7655
41.2165
40.6339
40.0031
39.3519
38.6324
37.9196
37.0744
36.3168
35.297
34.653
33.6044
34.2132
35.2383
36.0408
36.9365
37.7072
38.4697
39.1614
39.8252
40.4376
41.0112
41.5367
42.0157
42.4429
42.8163
43.1322
43.3876
43.5796
43.7058
43.7645
43.7646
43.7058
43.5797
43.3876
43.1323
42.8165
42.4432
42.0159
41.537
41.0115
40.4379
39.8255
39.1617
38.4699
37.7073
36.9366
36.0406
35.2379
34.2124
33.6031
32.4311
32.9364
33.921
34.7311
35.656
36.4738
37.279
38.009
38.7052
39.3471
39.946
40.4937
40.9913
41.4344
41.8207
42.1471
42.4105
42.6086
42.739
42.8002
42.8002
42.7391
42.6087
42.4106
42.1471
41.8209
41.4346
40.9915
40.4939
39.9463
39.3474
38.7054
38.0094
37.2791
36.4738
35.6557
34.731
33.9203
32.9357
32.4291
31.1787
31.525
32.4189
33.1908
34.1116
34.9526
35.79
36.5508
37.2741
37.942
38.564
39.1327
39.6488
40.1079
40.5078
40.8452
41.1177
41.3225
41.4576
41.5215
41.5215
41.4577
41.3225
41.1177
40.8453
40.5079
40.108
39.649
39.1329
38.5642
37.9422
37.2744
36.5509
35.79
34.9525
34.1114
33.1901
32.4182
31.5232
31.1773
29.8606
30.0279
30.7932
31.4851
32.3643
33.1949
34.0417
34.8237
35.5652
36.2517
36.8915
37.4774
38.0091
38.4825
38.8949
39.2431
39.5242
39.7358
39.8756
39.9422
39.9422
39.8756
39.7358
39.5243
39.2432
38.8951
38.4826
38.0093
37.4775
36.8917
36.2519
35.5653
34.8238
34.0417
33.1948
32.3639
31.4845
30.7922
30.0268
29.8591
28.4656
28.4824
29.1115
29.7029
30.5144
31.3063
32.1375
32.9198
33.6655
34.3593
35.0079
35.6039
36.146
36.6295
37.0513
37.4077
37.6959
37.913
38.0569
38.126
38.126
38.057
37.9131
37.696
37.4078
37.0514
36.6296
36.1462
35.6041
35.0082
34.3595
33.6658
32.92
32.1378
31.3063
30.5144
29.7028
29.1115
28.4825
28.4658
27.0066
26.9433
27.4569
27.9579
28.6935
29.4315
30.2275
30.9906
31.7283
32.4179
33.0658
33.6634
34.2088
34.6964
35.1226
35.4835
35.7757
35.9962
36.1426
36.2132
36.2132
36.1426
35.9962
35.7758
35.4836
35.1228
34.6966
34.209
33.6638
33.0662
32.4185
31.7289
30.9912
30.2282
29.4324
28.6944
27.9593
27.4582
26.946
27.0095
25.5983
25.5402
25.9746
26.4243
27.0957
27.7857
28.5404
29.2744
29.9912
30.6661
31.3036
31.8942
32.4348
32.9194
33.3438
33.7038
33.9957
34.2161
34.3628
34.4339
34.4339
34.3629
34.2162
33.9959
33.704
33.3441
32.9197
32.4352
31.8948
31.3043
30.667
29.9922
29.2755
28.5416
27.7869
27.097
26.4252
25.9758
25.54
25.5986
24.5297
24.522
24.9249
25.3594
25.9887
26.6429
27.3567
28.0551
28.7391
29.3896
30.007
30.5809
31.1077
31.5808
31.9958
32.3482
32.6341
32.8502
32.994
33.0638
33.0638
32.9939
32.8501
32.6339
32.348
31.9957
31.5807
31.1076
30.5809
30.0069
29.3896
28.7391
28.0549
27.3562
26.6422
25.9874
25.358
24.9219
24.5193
24.5231
24.1303
24.1798
24.5716
25.002
25.5953
26.2126
26.8779
27.5302
28.1742
28.791
29.3781
29.9254
30.4283
30.8805
31.2775
31.6149
31.8886
32.0957
32.2334
32.3001
32.3
32.2332
32.0953
31.8881
31.6142
31.2768
30.8797
30.4275
29.9244
29.377
28.7899
28.173
27.5289
26.8763
26.2108
25.5931
24.9996
24.5685
24.1769
24.1262
24.478
24.541
24.9226
25.3295
25.8823
26.4504
27.0604
27.6617
28.2605
28.8364
29.3859
29.8992
30.3713
30.7963
31.1695
31.4868
31.7444
31.9392
32.0687
32.1311
32.131
32.0684
31.9386
31.7436
31.4859
31.1684
30.7949
30.3699
29.8976
29.3843
28.8346
28.2587
27.6598
27.0582
26.4481
25.8792
25.3267
24.9181
24.5378
24.4708
25.1927
25.246
25.6202
25.9969
26.5149
27.0378
27.6045
28.1645
28.7249
29.2641
29.7796
30.2613
30.7047
31.104
31.4548
31.7531
31.9954
32.1785
32.3
32.3583
32.3582
32.2996
32.1778
31.9944
31.7518
31.4532
31.1022
30.7026
30.259
29.7771
29.2616
28.7223
28.1618
27.6017
27.0348
26.512
25.9939
25.6176
25.2431
25.1914
25.8232
25.8497
26.2246
26.5744
27.0733
27.5671
28.1108
28.6461
29.184
29.701
30.196
30.6585
31.0847
31.4684
31.8058
32.0927
32.3256
32.5017
32.6184
32.6743
32.6742
32.6181
32.5011
32.3248
32.0916
31.8045
31.467
31.083
30.6568
30.1942
29.6991
29.182
28.6441
28.1089
27.5653
27.0715
26.5728
26.2229
25.8484
25.8216
95.0997
61.0784
52.3208
55.55
61.567
66.6467
70.865
74.4021
77.4099
80.0366
82.412
84.5982
86.6399
88.5815
90.4445
92.2737
94.098
95.975
97.9186
99.9425
102.054
104.254
106.535
108.887
111.293
113.726
116.151
118.515
120.742
122.726
124.28
125.149
81.7556
61.2463
52.0252
54.1035
59.8929
64.9353
69.1359
72.6551
75.6507
78.2845
80.6495
82.8054
84.8128
86.6981
88.5075
90.2693
92.0444
93.8445
95.7117
97.6643
99.7059
101.831
104.036
106.308
108.631
110.981
113.323
115.606
117.757
119.673
121.174
122.011
77.9373
59.6129
50.8946
52.6606
58.2495
63.213
67.3654
70.8836
73.9065
76.5429
78.9067
81.0518
83.0141
84.8596
86.6103
88.3219
90.0133
91.757
93.5642
95.445
97.4075
99.4545
101.579
103.77
106.012
108.28
110.539
112.742
114.818
116.667
118.115
118.92
78.4903
60.5558
50.385
51.0876
56.4761
61.4249
65.604
69.1443
72.168
74.8299
77.1962
79.3154
81.2574
83.0528
84.7608
86.4046
88.0634
89.7349
91.4651
93.2781
95.1776
97.156
99.2088
101.324
103.486
105.673
107.852
109.977
111.979
113.761
115.157
115.932
72.6183
58.9769
49.8195
49.7387
54.7883
59.6717
63.8055
67.3498
70.4381
73.1192
75.49
77.62
79.5313
81.3044
82.9612
84.575
86.1471
87.7701
89.4545
91.2043
93.0274
94.931
96.907
98.9465
101.033
103.143
105.245
107.293
109.224
110.944
112.289
113.034
88.0603
59.1939
48.5774
48.0243
52.881
57.7625
61.9755
65.6012
68.6933
71.4117
73.8094
75.918
77.8348
79.5718
81.2076
82.7537
84.3187
85.881
87.489
89.1763
90.9482
92.7926
94.7061
96.6766
98.6897
100.724
102.751
104.726
106.587
108.245
109.541
110.257
82.421
57.9907
48.0926
46.6292
51.0931
55.9415
60.1181
63.7243
66.9206
69.6837
72.0906
74.2433
76.1429
77.8891
79.4846
81.0339
82.51
84.0323
85.614
87.2507
88.9493
90.7232
92.5637
94.4629
96.4056
98.3696
100.324
102.23
104.024
105.623
106.872
107.56
78.1414
59.1986
47.5943
44.9167
48.9724
53.8015
58.1116
61.9022
65.1073
67.9166
70.392
72.5289
74.4634
76.1854
77.7964
79.2773
80.7816
82.2622
83.7676
85.3462
87.0077
88.734
90.5225
92.362
94.2378
96.1314
98.0164
99.8525
101.583
103.123
104.326
104.986
71.1969
57.9389
47.2828
43.4848
46.9617
51.8042
56.1167
59.8267
63.1933
66.1011
68.5899
70.8209
72.7539
74.5209
76.0976
77.6309
79.0464
80.4956
82.0009
83.547
85.138
86.7968
88.5154
90.2862
92.0967
93.9255
95.7435
97.5143
99.1819
100.668
101.827
102.458
70.3986
57.0296
46.1973
41.6176
44.4574
49.2076
53.7055
57.8072
61.2073
64.1706
66.8025
69.0247
71.0355
72.7868
74.4239
75.8763
77.3624
78.7979
80.2263
81.7173
83.2892
84.9153
86.5946
88.3162
90.066
91.828
93.5798
95.2853
96.8919
98.3228
99.4378
100.042
75.1329
57.8561
46.5399
40.1083
41.9778
46.7954
51.421
55.3079
58.9765
62.154
64.8043
67.2018
69.2315
71.0842
72.6853
74.2557
75.6444
77.0502
78.5119
79.9947
81.4967
83.0554
84.664
86.3181
88.0065
89.7083
91.3966
93.0393
94.5863
95.9659
97.0382
97.6131
75.462
55.8709
45.0698
38.2037
38.7608
43.2409
48.0929
52.8613
56.631
59.8783
62.8159
65.215
67.3938
69.2362
70.969
72.4318
73.9466
75.3776
76.7552
78.1795
79.6842
81.2295
82.8164
84.4317
86.0647
87.7029
89.3278
90.9073
92.3955
93.7204
94.7503
95.2982
75.6863
56.9704
45.0115
36.1233
35.3574
39.9387
45.2429
49.4218
53.7315
57.4579
60.4214
63.1485
65.3765
67.4168
69.101
70.7836
72.187
73.5835
75.0394
76.491
77.9235
79.3966
80.9053
82.4544
84.029
85.6112
87.1751
88.6941
90.1236
91.3992
92.387
92.906
65.5741
54.9294
45.0983
35.03
30.5491
33.9
39.5282
46.0759
50.6159
54.455
58.0319
60.7809
63.2963
65.326
67.2635
68.7865
70.3977
71.8791
73.2369
74.6185
76.0836
77.5716
79.0872
80.6074
82.1331
83.6534
85.156
86.6128
87.9852
89.2062
90.1521
90.644
47.8613
47.7207
42.0231
32.4285
25.8915
28.586
35.4997
40.0915
46.1856
51.1958
54.8181
58.2429
60.8605
63.2731
65.1274
67.0406
68.5125
69.9431
71.4457
72.9092
74.295
75.6982
77.1154
78.5715
80.0403
81.5085
82.9513
84.3483
85.6614
86.8342
87.7382
88.1993
25.5868
36.5647
35.7551
29.7527
14.0897
8.29097
19.7219
34.3301
40.8674
46.4214
51.6031
55.0898
58.3172
60.7131
63.0535
64.7032
66.516
68.1287
69.5049
70.8711
72.3331
73.7947
75.2655
76.7043
78.1316
79.5381
80.92
82.2544
83.5104
84.6271
85.4889
85.9233
4.66195
19.6956
20.3943
11.346
7.35728
15.8769
8.62967
14.6159
32.5004
41.1316
46.4008
51.6006
55.0438
58.2314
60.4033
62.7644
64.38
65.9004
67.5279
69.0665
70.4326
71.7822
73.1164
74.4874
75.8564
77.214
78.5352
79.8079
81.0017
82.0706
82.8878
83.2877
9.98534
11.0971
13.3717
5.90281
4.71895
15.9719
16.8343
4.15572
21.9251
29.5827
41.1142
46.546
51.5643
54.7227
57.903
59.7772
61.9821
63.8616
65.3052
66.6874
68.1997
69.6787
71.1367
72.5181
73.8558
75.149
76.4077
77.6152
78.7512
79.7591
80.5331
80.9069
8.46051
6.8257
4.75812
14.1191
15.7551
17.0881
6.28419
6.0242
6.49313
10.3532
28.9713
40.7313
46.3203
51.4217
54.2103
57.5059
59.3828
61.076
62.9632
64.6827
66.063
67.376
68.6418
69.9213
71.1923
72.4395
73.633
74.7728
75.8384
76.7973
77.5219
77.853
5.42841
11.0886
10.9594
16.1095
5.19441
18.644
19.5774
19.7863
19.8668
9.7785
22.6765
29.2352
40.6795
45.6606
50.918
53.1727
56.2096
58.6284
60.2108
61.6467
63.3015
64.8724
66.3518
67.7323
68.9933
70.1691
71.2959
72.3654
73.3722
74.2615
74.941
75.2479
6.62419
16.0222
19.5939
20.7855
16.8704
14.6778
12.7145
22.5727
21.9156
20.9543
19.9637
22.856
27.7375
40.4954
44.6846
50.3604
52.6928
54.7236
57.1664
59.2859
60.7296
62.023
63.2632
64.4011
65.5686
66.7019
67.7532
68.7414
69.66
70.4978
71.1178
71.3645
7.99096
18.331
23.1436
26.6315
28.5817
26.9191
16.8101
17.6411
12.5707
24.9147
13.1643
9.697
18.7341
26.9086
39.712
42.5546
47.9014
51.5344
53.3695
54.9153
56.9204
58.7447
60.2929
61.8186
63.0294
64.078
65.056
65.9673
66.8301
67.5829
68.1571
68.3876
7.83237
18.304
24.0681
28.2525
30.8154
31.9505
31.7889
24.384
16.2896
22.4849
18.9447
24.1912
21.3754
22.8172
23.7441
39.0858
41.9275
44.9375
48.89
51.9559
53.5436
54.8402
56.1182
56.9885
58.0411
59.0552
59.9364
60.736
61.4711
62.171
62.6632
62.7932
7.47438
17.1404
23.1861
27.9026
31.3614
33.39
33.5905
32.8158
26.8615
20.7434
23.5313
20.8719
24.7191
21.8911
22.2641
13.1985
33.8132
40.3426
42.36
44.3187
47.3516
49.8718
51.7968
53.7624
54.9908
55.8959
56.6978
57.4205
58.1192
58.7072
59.1622
59.3025
6.70709
15.5995
21.5787
26.2729
29.8446
32.426
34.0458
34.0838
33.0507
28.0169
16.1321
18.6415
23.1676
19.3884
22.4077
21.7311
25.2385
22.7037
35.0989
40.4193
42.2906
43.6529
44.6693
45.1983
46.1043
47.0253
47.6682
48.1797
48.6598
49.1854
49.5126
49.4344
5.98865
14.3666
20.0119
24.4952
28.0036
30.6654
32.4514
33.4512
33.25
32.1978
29.4956
14.4292
21.1632
18.379
24.1504
23.5669
13.559
16.7012
26.2532
19.2178
27.6804
33.8327
38.1535
40.9369
42.6097
43.2413
43.8883
44.415
44.8913
45.3199
45.6
45.577
5.23878
13.2313
18.2645
22.2636
25.458
28.0283
30.01
31.2534
31.8229
31.697
30.9581
31.9207
22.3445
18.919
27.2183
20.335
7.99338
16.2092
23.391
25.472
21.6483
9.44039
13.0268
14.1645
13.8848
17.303
15.3704
14.8376
14.3604
14.7117
14.5566
15.4016
4.62709
12.1999
16.0823
19.1866
21.8489
24.1859
26.1373
27.6303
28.5859
29.2197
30.0468
29.4771
31.4105
26.7217
10.5488
24.2084
15.933
19.8432
25.3115
17.0425
26.8345
8.47872
18.585
19.8777
6.69688
28.8552
21.4126
7.4453
22.273
8.30231
22.6556
31.2864
4.21967
11.4297
13.6004
15.3042
17.0532
18.8969
20.7423
22.4349
23.9681
25.4636
26.8406
29.139
29.74
31.4116
30.9468
17.5216
26.8348
28.0185
15.9187
12.1513
20.6277
27.5149
13.0277
6.56047
27.4952
19.1533
10.9299
30.4315
12.4479
30.5833
12.2513
20.8974
4.04011
11.614
12.117
12.5501
13.1351
14.0052
15.3119
17.0607
19.0603
21.1996
23.611
25.4953
28.2383
29.9317
31.1272
32.8251
25.7565
14.9748
28.6009
24.514
19.6832
23.0105
11.3096
24.0353
4.48397
24.1927
30.0557
25.9527
9.07476
19.2453
31.9413
26.2479
3.75788
11.2875
11.5547
11.8041
11.977
12.1964
13.0283
14.6315
16.6072
18.6854
20.729
23.2833
25.3334
27.8178
30.2214
31.1342
32.4632
30.2943
21.1263
28.4139
20.7277
30.0224
13.4446
27.2767
29.8049
32.4056
31.4426
20.0312
31.8404
24.4947
15.9005
30.5668
3.55728
11.3688
11.612
11.7583
11.8556
12.1157
13.2891
15.1241
16.9696
18.6231
20.2607
21.6948
23.6587
25.5797
27.5701
30.2322
31.7152
32.3756
32.6134
29.7002
21.0413
18.4492
26.6264
21.131
31.3995
24.7595
20.0851
7.42991
4.5072
32.2498
15.3535
23.7882
2.45727
9.16559
11.3632
11.5431
11.5449
11.978
13.7882
15.9728
17.8982
19.5057
20.8234
22.1472
23.2066
24.4758
26.0904
27.6415
29.8148
31.816
32.4622
32.4548
32.3438
29.596
26.8358
22.8509
20.9221
18.4879
17.4173
19.0437
19.0978
19.2536
18.4493
19.0288
2.22031
8.44508
10.7611
11.4383
11.6491
13.1571
15.5182
17.6585
19.3888
20.7991
22.0167
22.9744
23.9147
24.6932
25.4019
26.5815
27.9432
29.5653
31.4385
32.5452
32.4007
32.0703
31.2887
31.0204
30.7799
30.4797
30.2023
29.7127
29.4203
29.2432
29.4659
29.4546
2.86819
9.70065
11.511
11.5655
12.8353
15.2223
17.5215
19.4327
21.0125
22.3369
23.4341
24.3952
25.1046
25.6701
26.1612
26.4772
27.0878
28.1661
29.4244
30.7365
31.6675
31.9457
31.5005
30.4954
29.3183
28.1202
26.964
26.1675
25.5065
25.3936
25.4903
25.8343
3.72624
11.2893
11.6504
13.1102