/*--------------------------------*- C++ -*----------------------------------*\
  =========                 |
  \\      /  F ield         | OpenFOAM: The Open Source CFD Toolbox
   \\    /   O peration     | Website:  https://openfoam.org
    \\  /    A nd           | Version:  6
     \\/     M anipulation  |
\*---------------------------------------------------------------------------*/
FoamFile
{
    version     2.0;
    format      ascii;
    class       volScalarField;
    location    "0.6";
    object      omega;
}
// * * * * * * * * * * * * * * * * * * * * * * * * * * * * * * * * * * * * * //

dimensions      [0 0 -1 0 0 0 0];

internalField   nonuniform List<scalar> 
380496
(
843.917
843.917
843.917
843.917
843.917
843.917
843.917
843.917
843.917
843.917
843.917
843.917
843.917
843.917
843.917
843.917
843.917
843.917
843.917
843.917
843.917
843.917
843.917
843.917
843.917
843.917
843.917
843.917
843.917
843.917
843.917
843.917
843.917
843.917
843.917
843.917
843.917
843.917
843.917
843.917
843.917
843.917
843.917
843.917
843.917
843.917
843.917
843.917
843.917
843.917
843.917
843.917
843.917
843.917
843.917
843.917
843.917
843.917
843.917
843.917
843.917
843.917
843.917
843.917
843.917
843.917
843.917
843.917
843.917
843.917
843.917
843.917
843.917
843.917
843.917
843.917
843.917
843.917
843.917
843.917
843.917
843.917
843.917
843.917
843.917
843.917
843.917
843.917
843.917
843.917
843.917
843.917
843.917
843.917
843.917
843.917
843.917
843.917
843.917
843.917
843.917
843.917
843.917
843.917
843.917
843.917
843.917
843.917
843.917
843.917
843.917
843.917
843.917
843.917
843.917
843.917
843.917
843.917
843.917
843.917
843.917
843.917
843.917
843.917
843.917
843.917
843.917
843.917
843.917
843.917
843.917
843.917
843.917
843.917
843.917
843.917
843.917
843.917
843.917
843.917
843.917
843.917
843.917
843.917
843.917
843.917
843.917
843.917
843.917
843.917
843.917
843.917
843.917
843.917
843.917
843.917
843.917
843.917
843.917
843.917
843.917
843.917
843.917
843.917
843.917
843.917
843.917
843.917
843.917
843.917
843.917
843.917
843.917
843.917
843.917
843.917
843.917
843.917
843.917
843.917
843.917
843.917
843.917
843.917
843.917
843.917
843.917
843.917
843.917
843.917
843.917
843.917
843.917
843.917
843.917
843.917
843.917
843.917
843.917
843.917
843.917
843.917
843.917
843.917
843.917
843.917
843.917
843.917
843.917
843.917
843.917
843.917
843.917
843.917
843.917
843.917
843.917
843.917
843.917
843.917
843.917
843.917
843.917
843.917
843.917
843.917
843.917
843.917
843.917
843.917
843.917
843.917
843.917
843.917
843.917
843.917
843.917
843.917
843.917
843.917
843.917
843.917
843.917
843.917
843.917
843.917
843.917
843.917
843.917
843.917
843.917
843.917
843.917
843.917
843.917
843.917
843.917
843.917
843.917
843.917
843.917
843.917
843.917
843.917
843.917
843.917
843.917
843.917
843.917
843.917
843.917
843.917
843.917
843.917
843.917
843.917
843.917
843.917
843.917
843.917
843.917
843.917
843.917
843.917
843.917
843.917
843.917
843.917
843.917
843.917
843.917
843.917
843.917
843.917
843.917
843.917
843.917
843.917
843.917
843.917
843.917
843.917
843.917
843.917
843.917
843.917
843.917
843.917
843.917
843.917
843.917
843.917
843.917
843.917
843.917
843.917
843.917
843.917
843.917
843.917
843.917
843.917
843.917
843.917
843.917
843.917
843.917
843.917
843.917
843.917
843.917
843.917
843.917
843.917
843.917
843.917
843.917
843.917
843.917
843.917
843.917
843.917
843.917
843.917
843.917
843.917
843.917
843.917
843.917
843.917
843.917
843.917
843.917
843.917
843.917
843.917
843.917
843.917
843.917
843.917
843.917
843.917
843.917
843.917
843.917
843.917
843.917
843.917
843.917
843.917
843.917
843.917
843.917
843.917
843.917
843.917
843.917
843.917
843.917
843.917
843.917
843.917
843.917
843.917
843.917
843.917
843.917
843.917
843.917
843.917
843.917
843.917
843.917
843.917
843.917
843.917
843.917
843.917
843.917
843.917
843.917
843.917
843.917
843.917
843.917
843.917
843.917
843.917
843.917
843.917
843.917
843.917
843.917
843.917
843.917
843.917
843.917
843.917
843.917
843.917
843.917
843.917
843.917
843.917
843.917
843.917
843.917
843.917
843.917
843.917
843.917
843.917
843.917
843.917
843.917
843.917
843.917
843.917
843.917
843.917
843.917
843.917
843.917
843.917
843.917
843.917
843.917
843.917
843.917
843.917
843.917
843.917
843.917
843.917
843.917
843.917
843.917
843.917
843.917
843.917
843.917
843.917
843.917
843.917
843.917
843.917
843.917
843.917
843.917
843.917
843.917
843.917
843.917
843.917
843.917
843.917
843.917
843.917
843.917
843.917
843.917
843.917
843.917
843.917
843.917
843.917
843.917
843.917
843.917
843.917
843.917
843.917
843.917
843.917
843.917
843.917
843.917
843.917
843.917
843.917
843.917
843.917
843.917
843.917
843.917
843.917
843.917
843.917
843.917
843.917
843.917
843.917
843.917
843.917
843.917
843.917
843.917
843.917
843.917
843.917
843.917
843.917
843.917
843.917
843.917
843.917
843.917
843.917
843.917
843.917
843.917
843.917
843.917
843.917
843.917
843.917
843.917
843.917
843.917
843.917
843.917
843.917
843.917
843.917
843.917
843.917
843.917
843.917
843.917
843.917
843.917
843.917
843.917
843.917
843.917
843.917
843.917
843.917
843.917
843.917
843.917
843.917
843.917
843.917
843.917
843.917
843.917
843.917
843.917
843.917
843.917
843.917
843.917
843.917
843.917
843.917
843.917
843.917
843.917
843.917
843.917
843.917
843.917
843.917
843.917
843.917
843.917
843.917
843.917
843.917
843.917
843.917
843.917
843.917
843.917
843.917
843.917
843.917
843.917
843.917
843.917
843.917
843.917
843.917
843.917
843.917
843.917
843.917
843.917
843.917
843.917
843.917
843.917
843.917
843.917
843.917
843.917
843.917
843.917
843.917
843.917
843.917
843.917
843.917
843.917
843.917
843.917
843.917
843.917
843.917
843.917
843.917
843.917
843.917
843.917
843.917
843.917
843.917
843.917
843.917
843.917
843.917
843.917
843.917
843.917
843.917
843.917
843.917
843.917
843.917
843.917
843.917
843.917
843.917
843.917
843.917
843.917
843.917
843.917
843.917
843.917
843.917
843.917
843.917
843.917
843.917
843.917
843.917
843.917
843.917
843.917
843.917
843.917
843.917
843.917
843.917
843.917
843.917
843.917
843.917
843.917
843.917
843.917
843.917
843.917
843.917
843.917
843.917
843.917
843.917
843.917
843.917
843.917
843.917
843.917
843.917
843.917
843.917
843.917
843.917
423.923
423.923
423.923
423.923
423.923
423.923
423.923
423.923
423.923
423.923
423.923
423.923
423.923
423.923
423.923
423.923
423.923
423.923
423.923
423.923
423.923
423.923
423.923
423.923
423.923
423.923
423.923
423.923
423.923
423.923
423.923
423.923
423.923
423.923
423.923
281.474
269.11
271.377
272.234
271.842
271.507
271.416
271.401
271.488
271.238
271.487
272.199
272.449
272.154
271.776
271.564
271.493
271.471
271.454
271.435
271.42
271.41
271.405
271.406
271.401
271.427
271.407
271.444
271.502
271.497
271.452
271.439
271.465
271.572
271.64
281.256
268.823
271.006
271.978
271.709
271.419
271.332
271.332
271.39
271.31
271.553
272.011
272.13
271.903
271.624
271.46
271.402
271.391
271.39
271.389
271.388
271.388
271.391
271.399
271.4
271.432
271.415
271.457
271.521
271.521
271.46
271.495
271.419
271.741
271.448
281.181
269.471
271.535
271.97
271.339
270.953
270.883
270.9
270.976
270.835
271.103
271.6
271.743
271.572
271.366
271.247
271.193
271.163
271.142
271.13
271.129
271.136
271.151
271.174
271.191
271.244
271.246
271.315
271.402
271.417
271.388
271.425
271.443
271.674
271.587
280.574
268.801
270.89
271.494
271.029
270.721
270.679
270.709
270.852
270.6
271.001
271.789
271.972
271.613
271.233
271.051
271.011
271.015
271.022
271.027
271.035
271.049
271.067
271.092
271.111
271.165
271.166
271.234
271.32
271.331
271.309
271.315
271.386
271.515
271.575
280.074
268.302
270.372
271.152
270.828
270.569
270.542
270.601
270.699
270.691
270.982
271.378
271.43
271.21
270.988
270.886
270.878
270.906
270.936
270.964
270.99
271.017
271.047
271.083
271.111
271.174
271.184
271.26
271.354
271.373
271.362
271.375
271.452
271.644
271.553
279.524
268.282
270.092
270.387
269.798
269.481
269.471
269.537
269.709
269.485
269.965
270.718
270.831
270.491
270.176
270.05
270.043
270.067
270.089
270.111
270.139
270.173
270.215
270.265
270.31
270.391
270.417
270.517
270.629
270.664
270.651
270.726
270.736
271.062
270.903
278.566
267.439
269.282
269.666
269.197
268.991
269.068
269.198
269.385
269.26
269.71
270.357
270.442
270.135
269.857
269.752
269.755
269.79
269.827
269.864
269.904
269.948
269.995
270.049
270.096
270.178
270.205
270.305
270.416
270.452
270.435
270.532
270.51
270.915
270.633
277.769
267.032
268.371
268.238
267.532
267.278
267.371
267.518
267.738
267.583
268.098
268.758
268.837
268.573
268.354
268.284
268.297
268.33
268.361
268.394
268.436
268.487
268.545
268.614
268.676
268.777
268.82
268.943
269.072
269.119
269.125
269.207
269.271
269.549
269.501
276.37
265.752
267.176
267.216
266.721
266.646
266.861
267.077
267.342
267.181
267.757
268.483
268.522
268.183
267.927
267.862
267.896
267.95
268
268.05
268.104
268.163
268.226
268.297
268.36
268.46
268.503
268.624
268.75
268.797
268.8
268.896
268.948
269.274
269.146
275.377
265.032
265.686
265.125
264.434
264.359
264.609
264.85
265.099
265.03
265.528
266.083
266.167
266.005
265.876
265.845
265.864
265.897
265.936
265.983
266.041
266.11
266.186
266.272
266.353
266.471
266.531
266.677
266.818
266.875
266.896
267.006
267.069
267.415
267.269
273.546
263.269
263.974
263.707
263.366
263.552
263.955
264.265
264.592
264.412
265.085
265.813
265.812
265.486
265.28
265.257
265.313
265.379
265.44
265.503
265.571
265.645
265.722
265.807
265.886
266.001
266.057
266.199
266.336
266.39
266.405
266.525
266.577
266.964
266.78
272.184
262.046
261.662
260.776
260.33
260.572
261.02
261.349
261.621
261.617
262.092
262.575
262.689
262.62
262.556
262.54
262.554
262.586
262.633
262.695
262.769
262.854
262.946
263.047
263.144
263.275
263.349
263.513
263.663
263.727
263.765
263.892
263.982
264.329
264.195
269.747
259.53
259.133
258.834
259.001
259.619
260.239
260.627
260.976
260.83
261.53
262.189
262.163
261.885
261.74
261.753
261.828
261.909
261.987
262.066
262.149
262.237
262.329
262.428
262.521
262.648
262.718
262.877
263.021
263.08
263.112
263.247
263.325
263.722
263.545
267.762
257.408
255.646
254.889
255.108
255.824
256.473
256.855
257.141
257.144
257.646
258.117
258.243
258.209
258.167
258.155
258.171
258.213
258.277
258.358
258.45
258.55
258.657
258.772
258.885
259.028
259.117
259.3
259.456
259.526
259.584
259.728
259.845
260.193
260.068
264.561
253.826
251.997
252.367
253.558
254.741
255.538
255.955
256.291
256.205
256.88
257.444
257.394
257.152
257.054
257.11
257.223
257.334
257.436
257.533
257.632
257.733
257.839
257.951
258.059
258.197
258.282
258.459
258.609
258.674
258.727
258.875
258.983
259.373
259.216
261.421
250.174
246.849
247.159
248.59
249.864
250.641
251.013
251.295
251.266
251.833
252.308
252.411
252.36
252.314
252.314
252.357
252.43
252.524
252.628
252.739
252.855
252.977
253.106
253.234
253.387
253.494
253.693
253.853
253.932
254.014
254.177
254.329
254.659
254.601
257.206
244.955
241.818
244.159
246.893
248.607
249.439
249.808
250.097
250.096
250.716
251.167
251.015
250.728
250.689
250.864
251.077
251.244
251.37
251.483
251.595
251.712
251.832
251.958
252.083
252.231
252.334
252.528
252.682
252.756
252.84
252.999
253.158
253.479
253.407
251.329
238.677
233.968
236.483
239.275
240.851
241.549
241.831
242.083
242.02
242.583
243.091
243.252
243.17
243.052
243.037
243.127
243.262
243.402
243.539
243.675
243.816
243.962
244.114
244.27
244.442
244.58
244.804
244.973
245.076
245.206
245.418
245.599
246.024
245.701
243.596
227.324
217.791
220.135
223.305
224.961
225.582
225.777
225.955
225.933
226.046
227.152
228.328
228.374
227.673
227.125
227
227.121
227.304
227.486
227.664
227.846
228.035
228.232
228.435
228.646
228.842
229.115
229.287
229.41
229.647
230.011
230.373
230.712
230.774
225.689
212.119
208.797
216.845
221.07
222.313
222.694
222.895
223.085
223.14
223.446
223.599
223.562
223.471
223.558
223.808
224.081
224.306
224.494
224.67
224.848
225.031
225.22
225.414
225.613
225.818
226.015
226.276
226.421
226.534
226.798
227.201
227.603
227.825
228.33
10.379
10.7926
11.0442
10.8881
10.8737
10.912
10.9371
10.9674
10.9293
11.158
10.5539
10.5727
10.8354
10.9732
11.0064
11.0031
10.9931
10.9823
10.9704
10.9589
10.9468
10.9342
10.9216
10.909
10.8941
10.8908
10.8509
10.8844
10.828
10.7674
10.7565
10.7727
10.8198
10.801
10.9228
135.038
128.995
129.208
129.782
129.768
129.595
129.491
129.454
129.436
129.366
129.388
129.557
129.686
129.66
129.557
129.477
129.446
129.442
129.444
129.444
129.445
129.447
129.452
129.458
129.47
129.478
129.491
129.514
129.538
129.552
129.562
129.573
129.604
129.638
129.698
134.826
128.702
128.935
129.597
129.654
129.507
129.407
129.369
129.355
129.328
129.367
129.477
129.538
129.5
129.421
129.366
129.35
129.358
129.372
129.385
129.396
129.406
129.419
129.43
129.448
129.462
129.48
129.507
129.54
129.551
129.581
129.569
129.635
129.665
129.683
134.637
128.633
128.733
129.115
128.968
128.751
128.653
128.629
128.623
128.585
128.623
128.751
128.848
128.857
128.819
128.78
128.756
128.743
128.737
128.735
128.739
128.748
128.761
128.775
128.796
128.814
128.837
128.871
128.906
128.928
128.95
128.965
129.005
129.061
129.081
134.174
128.137
128.295
128.787
128.737
128.571
128.49
128.479
128.486
128.436
128.483
128.676
128.81
128.787
128.688
128.618
128.599
128.607
128.62
128.632
128.644
128.658
128.674
128.69
128.713
128.732
128.755
128.789
128.823
128.848
128.86
128.884
128.91
128.96
129.001
133.794
127.696
127.929
128.559
128.595
128.452
128.375
128.367
128.381
128.387
128.453
128.558
128.594
128.545
128.481
128.454
128.467
128.497
128.528
128.555
128.579
128.601
128.625
128.648
128.678
128.703
128.733
128.774
128.813
128.847
128.862
128.906
128.923
129.03
129.012
133.356
127.382
127.425
127.775
127.644
127.453
127.38
127.385
127.409
127.372
127.445
127.636
127.757
127.739
127.665
127.616
127.609
127.624
127.641
127.658
127.677
127.697
127.721
127.746
127.778
127.807
127.839
127.883
127.928
127.956
127.986
128
128.044
128.107
128.094
132.695
126.732
126.903
127.344
127.261
127.107
127.071
127.107
127.152
127.15
127.232
127.396
127.479
127.447
127.382
127.35
127.36
127.388
127.417
127.443
127.468
127.494
127.522
127.55
127.584
127.614
127.648
127.692
127.739
127.767
127.804
127.82
127.878
127.961
127.949
132.154
126.301
126.18
126.293
126.044
125.852
125.823
125.871
125.922
125.917
126.007
126.185
126.301
126.304
126.259
126.23
126.23
126.246
126.265
126.284
126.306
126.331
126.36
126.39
126.427
126.461
126.499
126.548
126.597
126.631
126.657
126.689
126.709
126.805
126.762
131.248
125.431
125.464
125.704
125.536
125.406
125.431
125.52
125.599
125.608
125.714
125.899
125.988
125.955
125.896
125.881
125.905
125.94
125.972
126
126.028
126.058
126.09
126.122
126.159
126.194
126.232
126.281
126.33
126.366
126.393
126.433
126.455
126.589
126.537
130.637
124.964
124.572
124.397
124.069
123.929
123.978
124.079
124.158
124.181
124.275
124.437
124.557
124.591
124.575
124.558
124.558
124.57
124.588
124.61
124.636
124.666
124.701
124.736
124.778
124.816
124.86
124.913
124.966
125.003
125.034
125.067
125.099
125.189
125.142
129.521
123.891
123.609
123.578
123.381
123.349
123.476
123.624
123.73
123.753
123.872
124.065
124.158
124.135
124.093
124.09
124.12
124.156
124.189
124.219
124.25
124.283
124.319
124.355
124.397
124.435
124.477
124.53
124.582
124.619
124.651
124.69
124.721
124.855
124.796
128.74
123.278
122.393
121.893
121.573
121.566
121.73
121.888
121.99
122.036
122.126
122.274
122.411
122.48
122.486
122.471
122.464
122.471
122.489
122.514
122.545
122.58
122.619
122.658
122.704
122.746
122.793
122.851
122.905
122.946
122.979
123.019
123.049
123.152
123.09
127.335
121.914
121.03
120.736
120.672
120.85
121.113
121.317
121.444
121.483
121.608
121.793
121.886
121.877
121.85
121.857
121.89
121.929
121.964
121.999
122.035
122.072
122.112
122.152
122.197
122.238
122.284
122.341
122.394
122.434
122.468
122.512
122.543
122.683
122.62
126.261
120.991
119.299
118.56
118.457
118.701
119.004
119.21
119.325
119.379
119.462
119.61
119.767
119.854
119.864
119.845
119.834
119.843
119.866
119.898
119.935
119.975
120.018
120.062
120.111
120.156
120.208
120.269
120.326
120.37
120.407
120.453
120.485
120.595
120.528
124.515
119.239
117.347
116.967
117.322
117.837
118.243
118.481
118.613
118.663
118.786
118.961
119.049
119.037
119.013
119.03
119.076
119.126
119.17
119.212
119.253
119.295
119.339
119.383
119.432
119.476
119.527
119.587
119.642
119.685
119.723
119.771
119.805
119.948
119.88
122.883
117.723
114.812
114.126
114.566
115.175
115.605
115.826
115.939
115.989
116.061
116.213
116.382
116.467
116.467
116.446
116.443
116.465
116.501
116.542
116.586
116.632
116.68
116.728
116.781
116.83
116.887
116.951
117.009
117.057
117.099
117.152
117.191
117.308
117.253
120.706
115.339
111.998
112.013
113.165
114.085
114.583
114.806
114.926
114.971
115.11
115.29
115.327
115.247
115.211
115.27
115.367
115.448
115.507
115.555
115.601
115.648
115.696
115.745
115.799
115.848
115.904
115.968
116.025
116.073
116.114
116.179
116.2
116.375
116.255
117.564
112.495
107.731
107.42
108.605
109.533
109.996
110.171
110.269
110.299
110.334
110.523
110.767
110.849
110.788
110.725
110.726
110.772
110.832
110.89
110.945
111.001
111.059
111.118
111.182
111.242
111.31
111.384
111.451
111.505
111.564
111.632
111.706
111.861
111.753
113.404
107.759
99.466
98.6892
100.268
101.386
101.854
101.988
102.089
102.081
101.746
102.113
103.014
103.395
103.108
102.715
102.541
102.547
102.614
102.684
102.749
102.813
102.88
102.949
103.024
103.094
103.17
103.268
103.336
103.356
103.401
103.533
103.71
103.909
103.959
103.867
100.155
93.0805
95.3994
98.1423
99.1767
99.4792
99.5932
99.6982
99.7682
99.8606
99.8952
99.9551
99.9417
99.9226
99.9784
100.079
100.175
100.254
100.323
100.39
100.458
100.528
100.599
100.675
100.745
100.823
100.924
100.983
100.988
101.033
101.184
101.419
101.544
101.875
13.2063
13.6229
13.9016
13.7729
13.7438
13.7836
13.8143
13.8537
13.7979
14.0728
13.474
13.4118
13.6729
13.845
13.8987
13.9013
13.8922
13.8819
13.8709
13.8597
13.8481
13.8362
13.8241
13.8128
13.7967
13.7985
13.7527
13.788
13.75
13.685
13.6597
13.6628
13.7164
13.6876
13.8256
79.6202
76.909
76.6211
76.9194
77.0126
76.949
76.8777
76.8445
76.8047
76.7943
76.7563
76.7334
76.7778
76.8316
76.8421
76.8264
76.8146
76.814
76.8183
76.8226
76.8262
76.8296
76.835
76.8376
76.849
76.8487
76.8605
76.8738
76.88
76.8859
76.9002
76.9068
76.93
76.9277
76.9553
79.4093
76.6823
76.4286
76.7866
76.9237
76.8756
76.8058
76.7682
76.7379
76.7305
76.7117
76.6973
76.7143
76.7344
76.7346
76.7265
76.7261
76.7351
76.7477
76.7594
76.7695
76.7782
76.7881
76.7945
76.8099
76.8124
76.8287
76.8433
76.8587
76.8541
76.9005
76.8634
76.9518
76.8929
76.9668
79.2029
76.4902
76.1387
76.3281
76.3335
76.2333
76.1598
76.1326
76.1035
76.1015
76.0779
76.0628
76.1011
76.156
76.184
76.1856
76.179
76.1739
76.1721
76.173
76.1765
76.1818
76.1904
76.1965
76.2125
76.2154
76.2329
76.2502
76.2615
76.2689
76.2953
76.2963
76.3355
76.3218
76.3674
78.87
76.1527
75.848
76.107
76.1712
76.1017
76.0385
76.0199
75.9872
75.9995
75.958
75.925
75.9763
76.0465
76.0689
76.06
76.0545
76.0603
76.0708
76.081
76.0902
76.0989
76.1096
76.1171
76.134
76.1376
76.1551
76.1736
76.1817
76.196
76.2078
76.2284
76.2411
76.2429
76.2713
78.5468
75.815
75.5838
75.9441
76.0673
76.0111
75.9472
75.9233
75.9092
75.9177
75.9143
75.9042
75.9079
75.9142
75.915
75.9206
75.9375
75.9611
75.984
76.0032
76.0194
76.0338
76.0491
76.0607
76.0814
76.0889
76.1094
76.1332
76.1418
76.1669
76.1723
76.2161
76.2161
76.2525
76.2734
78.1995
75.5062
75.15
75.3236
75.3276
75.2342
75.1692
75.1583
75.1295
75.1551
75.1186
75.0843
75.14
75.2131
75.2412
75.2402
75.24
75.2488
75.2612
75.2732
75.2848
75.2965
75.3107
75.3216
75.3429
75.3496
75.3727
75.3936
75.4097
75.4167
75.4556
75.4442
75.4993
75.475
75.4925
77.7086
75.0229
74.7839
75.043
75.0741
74.9883
74.9366
74.9387
74.93
74.9632
74.942
74.9109
74.9397
74.9861
75.0094
75.0195
75.0344
75.0548
75.0747
75.0919
75.1074
75.1222
75.1385
75.1513
75.1736
75.1814
75.2056
75.2266
75.2458
75.25
75.3003
75.2794
75.3595
75.331
75.3791
77.276
74.6519
74.2349
74.2616
74.172
74.0575
74.0085
74.0187
74.0052
74.0475
74.017
73.995
74.0606
74.1374
74.1676
74.1684
74.169
74.1769
74.1883
74.2
74.2123
74.2252
74.2408
74.2533
74.2767
74.2842
74.3102
74.3334
74.3471
74.3623
74.3895
74.4074
74.4193
74.4437
74.4223
76.6333
74.0328
73.7576
73.8928
73.8406
73.7423
73.7149
73.7468
73.748
73.8071
73.7796
73.7429
73.7861
73.8427
73.8693
73.8843
73.9051
73.929
73.9501
73.9674
73.9833
73.9988
74.0161
74.03
74.054
74.0625
74.0889
74.1123
74.1272
74.1435
74.1722
74.1951
74.2082
74.2581
74.24
76.1543
73.6551
73.1245
72.976
72.8021
72.6894
72.6754
72.7129
72.721
72.7703
72.7452
72.7373
72.8143
72.8968
72.9296
72.9299
72.9272
72.9314
72.9403
72.9515
72.9643
72.9785
72.9953
73.0094
73.034
73.0424
73.0707
73.0938
73.1086
73.1237
73.1594
73.1649
73.2022
73.1924
73.1982
75.3835
72.9342
72.5253
72.4651
72.3412
72.2688
72.2903
72.3576
72.3696
72.4514
72.4143
72.3804
72.4397
72.5069
72.5373
72.5535
72.5735
72.5952
72.6142
72.6306
72.6465
72.6626
72.6808
72.696
72.7212
72.73
72.7587
72.782
72.7973
72.813
72.8497
72.8621
72.8928
72.9229
72.9078
74.7888
72.4629
71.7077
71.3299
71.0977
71.03
71.076
71.1473
71.1752
71.2297
71.204
71.2066
71.2991
71.3921
71.4267
71.4225
71.4134
71.4127
71.4196
71.4308
71.4447
71.4601
71.4779
71.4932
71.5183
71.5275
71.5575
71.5804
71.5951
71.6137
71.6486
71.6597
71.6883
71.6894
71.6852
73.8282
71.6031
70.9021
70.6057
70.4739
70.4911
70.5902
70.6942
70.7211
70.8121
70.7716
70.7472
70.8176
70.888
70.9179
70.933
70.9511
70.971
70.9893
71.0063
71.0233
71.0407
71.0598
71.0761
71.1017
71.1113
71.1417
71.1647
71.1798
71.1985
71.2354
71.2496
71.2769
71.3088
71.288
73.0367
70.9643
69.7983
69.1733
68.9736
69.023
69.1536
69.2588
69.297
69.3588
69.3194
69.3247
69.4353
69.5384
69.571
69.5605
69.547
69.5451
69.5532
69.5666
69.5825
69.5996
69.6185
69.6352
69.6606
69.6706
69.7022
69.7242
69.7387
69.7604
69.7955
69.8088
69.8349
69.8396
69.834
71.8437
69.9368
68.6832
68.1555
68.15
68.3415
68.5371
68.6673
68.7047
68.7914
68.7507
68.7397
68.8149
68.8773
68.899
68.9119
68.932
68.9553
68.9769
68.9965
69.0155
69.0345
69.0546
69.0723
69.0983
69.1089
69.141
69.1632
69.1779
69.1999
69.2363
69.253
69.2761
69.312
69.2827
70.6805
68.9613
67.106
66.2935
66.2909
66.5422
66.7652
66.8896
66.9258
66.9957
66.9302
66.9324
67.0576
67.1627
67.1878
67.1736
67.1628
67.1665
67.18
67.1975
67.2161
67.235
67.2549
67.2731
67.2985
67.3099
67.3429
67.3636
67.3785
67.4037
67.4372
67.4554
67.4751
67.4936
67.4842
69.1921
67.6548
65.4684
64.8499
65.1902
65.6299
65.9083
66.0388
66.0761
66.1383
66.1136
66.1281
66.1844
66.2027
66.2028
66.2265
66.2689
66.3087
66.3382
66.361
66.3818
66.4026
66.4241
66.4437
66.4706
66.4831
66.5174
66.5393
66.5535
66.5819
66.6091
66.6507
66.6313
66.7317
66.6352
67.1156
65.8839
62.8003
61.7859
62.0843
62.5502
62.8272
62.9339
62.9578
63.026
62.9239
62.9356
63.1052
63.2204
63.2164
63.1734
63.1553
63.167
63.191
63.216
63.2395
63.2623
63.2857
63.3082
63.3365
63.3534
63.3903
63.413
63.4339
63.46
63.5011
63.5093
63.567
63.5726
63.6011
64.353
63.2861
58.3265
56.9466
57.4637
58.0669
58.3673
58.4444
58.5151
58.5041
58.2105
58.2625
58.7438
59.0719
59.0154
58.8142
58.6861
58.656
58.6704
58.692
58.7109
58.7284
58.7466
58.7639
58.788
58.8
58.8301
58.8544
58.8738
58.8721
58.8686
58.889
58.9708
59.0358
59.117
59.5228
60.0344
54.5648
54.4414
55.8321
56.5413
56.7654
56.8233
56.868
56.9213
56.9277
56.921
56.9933
57.0206
56.9881
56.9712
56.9904
57.0236
57.0542
57.0797
57.1028
57.1254
57.1489
57.1707
57.1999
57.2156
57.2497
57.2826
57.3038
57.2931
57.2832
57.3185
57.4368
57.4851
57.6929
14.8561
15.3594
15.7248
15.6439
15.6007
15.6332
15.6648
15.7117
15.6429
15.9331
15.4156
15.286
15.5028
15.684
15.7553
15.767
15.761
15.7522
15.743
15.7335
15.7236
15.7136
15.7032
15.6946
15.6785
15.6857
15.6401
15.6701
15.6526
15.5957
15.5627
15.5503
15.6032
15.5664
15.7034
52.7683
51.5023
51.2288
51.3725
51.4623
51.4467
51.4061
51.3824
51.3487
51.3545
51.3152
51.2587
51.2726
51.3293
51.3635
51.3661
51.3598
51.3578
51.3601
51.3632
51.3659
51.3681
51.3715
51.3719
51.3795
51.3766
51.3828
51.3904
51.3904
51.3885
51.3993
51.3984
51.417
51.4034
51.4133
52.5835
51.3256
51.0862
51.2726
51.3916
51.3861
51.3457
51.3176
51.2914
51.2901
51.2652
51.2276
51.2279
51.2545
51.2732
51.2779
51.28
51.2857
51.2938
51.3017
51.3085
51.314
51.3202
51.3228
51.333
51.3312
51.3412
51.3473
51.3585
51.3386
51.389
51.3343
51.4241
51.3439
51.4173
52.401
51.1339
50.8286
50.907
50.9365
50.8912
50.8447
50.8234
50.7969
50.8027
50.7755
50.736
50.7508
50.7999
50.835
50.8447
50.842
50.8378
50.8356
50.8354
50.8366
50.8389
50.8432
50.8448
50.8546
50.8522
50.8616
50.8703
50.8736
50.869
50.8917
50.8801
50.9208
50.8773
50.9329
52.1528
50.896
50.6278
50.751
50.8171
50.7913
50.7516
50.7348
50.7026
50.7239
50.6791
50.6115
50.6313
50.6991
50.7398
50.7455
50.742
50.7432
50.7485
50.7544
50.7596
50.7642
50.7698
50.7722
50.7824
50.7805
50.7893
50.8
50.7983
50.8032
50.8087
50.8191
50.8334
50.8115
50.8337
51.8876
50.6339
50.4263
50.6254
50.7354
50.7197
50.6779
50.6555
50.6376
50.644
50.6291
50.5969
50.589
50.6022
50.6159
50.6266
50.6394
50.6546
50.6693
50.6814
50.6911
50.6991
50.7076
50.7123
50.7246
50.7252
50.7349
50.7504
50.7452
50.763
50.756
50.7886
50.7914
50.7876
50.8175
51.6134
50.3771
50.089
50.1611
50.1844
50.1377
50.0924
50.0785
50.0468
50.0754
50.0323
49.9694
49.9962
50.0648
50.1036
50.1093
50.107
50.1091
50.1149
50.1212
50.1272
50.1327
50.1396
50.1432
50.1553
50.1542
50.1668
50.176
50.1832
50.1734
50.2113
50.1827
50.2385
50.1944
50.2115
51.24
50.0072
49.8106
49.9541
49.9977
49.9505
49.9087
49.8998
49.8819
49.9119
49.8806
49.8234
49.8312
49.876
49.9073
49.9207
49.9306
49.9423
49.954
49.9638
49.9722
49.9796
49.9879
49.9926
50.0055
50.005
50.0186
50.0271
50.0385
50.0227
50.0753
50.0307
50.1135
50.0573
50.103
50.8957
49.704
49.3967
49.3841
49.3382
49.2653
49.2228
49.2189
49.1983
49.2327
49.1942
49.1473
49.1852
49.2536
49.2884
49.2912
49.287
49.2874
49.2915
49.2967
49.3019
49.3073
49.3141
49.318
49.3302
49.3292
49.3423
49.3531
49.3554
49.3568
49.3749
49.382
49.3901
49.3879
49.3851
50.4202
49.2406
49.0434
49.1129
49.0906
49.0213
48.9868
48.9939
48.9809
49.0295
48.992
48.9324
48.9532
49.0063
49.037
49.0489
49.0593
49.0719
49.0835
49.0927
49.1005
49.1076
49.1157
49.1207
49.1337
49.1334
49.1472
49.1586
49.1616
49.1643
49.1832
49.1955
49.202
49.2199
49.2159
50.038
48.9322
48.5873
48.4694
48.3529
48.265
48.2374
48.2484
48.2434
48.2782
48.2432
48.2126
48.2609
48.329
48.3602
48.36
48.353
48.3504
48.3522
48.356
48.3607
48.366
48.3728
48.377
48.3892
48.3881
48.4023
48.4117
48.4153
48.4134
48.4432
48.4304
48.4692
48.431
48.4489
49.4719
48.4039
48.1548
48.0954
48.0015
47.9292
47.919
47.9474
47.9428
48.0048
47.961
47.9058
47.9407
48.0005
48.0303
48.0397
48.0478
48.0578
48.0669
48.0745
48.0815
48.0883
48.0962
48.1015
48.1145
48.114
48.1288
48.1389
48.1428
48.1425
48.1712
48.1681
48.1936
48.1942
48.1863
48.9967
48.0321
47.5866
47.3118
47.1268
47.0479
47.0531
47.0847
47.0949
47.1296
47.0945
47.0765
47.1366
47.2078
47.2364
47.2314
47.2195
47.2131
47.2126
47.2154
47.22
47.2254
47.2322
47.2367
47.2485
47.2474
47.2622
47.271
47.2734
47.2746
47.3022
47.2944
47.3248
47.293
47.3104
48.2857
47.4154
47.0273
46.7891
46.6449
46.6076
46.6434
46.6962
46.7028
46.7685
46.7223
46.6782
46.7231
46.7828
46.8086
46.8149
46.8203
46.8279
46.8356
46.8427
46.8497
46.8567
46.8647
46.8702
46.8828
46.8824
46.8979
46.9072
46.9103
46.9124
46.9406
46.9382
46.9608
46.9626
46.9475
47.6568
46.9302
46.2761
45.8042
45.5906
45.5665
45.6245
45.6794
45.6987
45.7364
45.6921
45.678
45.7497
45.8255
45.8509
45.8409
45.8253
45.8174
45.8169
45.8205
45.8257
45.8316
45.8385
45.8435
45.8546
45.8537
45.8689
45.8763
45.8779
45.8814
45.908
45.9012
45.9292
45.8985
45.9173
46.7591
46.215
45.5299
45.072
44.94
44.9942
45.0942
45.1675
45.1828
45.2424
45.1964
45.1645
45.2138
45.267
45.2857
45.2886
45.2936
45.3021
45.3109
45.3191
45.3269
45.3344
45.3425
45.3486
45.3607
45.3607
45.3767
45.3848
45.3869
45.3916
45.418
45.4174
45.4351
45.4412
45.4175
45.8552
45.4993
44.4649
43.7873
43.6319
43.7227
43.8458
43.9174
43.9367
43.9795
43.9189
43.9015
43.98
44.055
44.0748
44.0624
44.0485
44.0438
44.0463
44.0519
44.0584
44.0649
44.0717
44.0771
44.0875
44.0872
44.1026
44.1084
44.1094
44.1159
44.1387
44.1366
44.155
44.1378
44.1523
44.7127
44.6243
43.3878
42.7327
42.7323
42.9363
43.1
43.18
43.1941
43.237
43.1979
43.1802
43.2219
43.2516
43.2551
43.2602
43.2762
43.2943
43.3084
43.3185
43.327
43.3351
43.3435
43.3504
43.3621
43.3632
43.3797
43.3874
43.3874
43.4002
43.4102
43.4398
43.4074
43.476
43.4076
43.3033
43.4383
41.6568
40.6908
40.6406
40.8667
41.0378
41.1069
41.1128
41.1645
41.0827
41.0511
41.1425
41.2294
41.2433
41.2183
41.199
41.1968
41.2041
41.2133
41.2217
41.2293
41.2368
41.2438
41.2536
41.2564
41.272
41.277
41.2818
41.2878
41.3122
41.2953
41.3417
41.3037
41.3607
41.483
41.9962
39.2031
37.9557
38.0216
38.3484
38.5483
38.5914
38.6546
38.6299
38.4403
38.393
38.6274
38.8647
38.8972
38.8011
38.7123
38.6744
38.6678
38.6694
38.6702
38.6696
38.6693
38.6667
38.6709
38.6627
38.6706
38.6705
38.6707
38.6588
38.6425
38.6195
38.6604
38.6653
38.7424
39.6003
40.9096
37.048
36.2268
36.8804
37.3481
37.513
37.543
37.5705
37.5912
37.6089
37.6287
37.6841
37.6955
37.6515
37.6102
37.5982
37.6046
37.6146
37.6226
37.6289
37.6343
37.6406
37.644
37.6554
37.6527
37.6663
37.6763
37.6825
37.6704
37.6495
37.6448
37.6999
37.7191
37.8465
16.0615
16.6585
17.1501
17.1351
17.0834
17.1057
17.1358
17.1894
17.1122
17.3983
16.9816
16.8088
16.97
17.145
17.2286
17.2498
17.2481
17.2416
17.2344
17.227
17.2193
17.2116
17.2033
17.1978
17.1825
17.1941
17.1527
17.1746
17.1734
17.1297
17.0962
17.0708
17.1202
17.0778
17.2043
37.5769
36.9492
36.7828
36.8558
36.9184
36.9183
36.898
36.8808
36.8609
36.867
36.8377
36.7971
36.8084
36.8515
36.8787
36.8806
36.8734
36.8688
36.868
36.8689
36.8698
36.8706
36.8718
36.8711
36.875
36.8717
36.874
36.8774
36.8765
36.8703
36.8785
36.8712
36.8859
36.8716
36.8746
37.4216
36.8072