/*--------------------------------*- C++ -*----------------------------------*\
  =========                 |
  \\      /  F ield         | OpenFOAM: The Open Source CFD Toolbox
   \\    /   O peration     | Website:  https://openfoam.org
    \\  /    A nd           | Version:  6
     \\/     M anipulation  |
\*---------------------------------------------------------------------------*/
FoamFile
{
    version     2.0;
    format      ascii;
    class       volVectorField;
    location    "0.6";
    object      wallShearStress;
}
// * * * * * * * * * * * * * * * * * * * * * * * * * * * * * * * * * * * * * //

dimensions      [0 2 -2 0 0 0 0];

internalField   uniform (0 0 0);

boundaryField
{
    inlet
    {
        type            calculated;
        value           uniform (0 0 0);
    }
    outlet
    {
        type            calculated;
        value           uniform (0 0 0);
    }
    roughCylinder
    {
        type            calculated;
        value           nonuniform List<vector> 
3840
(
(-0.000179328 -0.000241043 -0.000111701)
(-0.000259885 -0.000433133 -4.07288e-05)
(-0.000347918 -0.000567685 5.37744e-05)
(-0.000421252 -0.000627747 0.000117292)
(-0.000487659 -0.000650303 0.000162453)
(-0.000532448 -0.000638039 0.000186764)
(-0.000569643 -0.00062441 0.000201199)
(-0.000594509 -0.000611601 0.000209631)
(-0.0006127 -0.000604251 0.000213983)
(-0.000623252 -0.000599112 0.000213047)
(-0.000629942 -0.000597385 0.000208377)
(-0.000634759 -0.000598636 0.000200718)
(-0.000637557 -0.000600797 0.000190302)
(-0.000643127 -0.000606688 0.000178803)
(-0.000661321 -0.000625224 0.000168817)
(-0.000653336 -0.000620663 0.000151236)
(-0.000657972 -0.000627572 0.000135852)
(-0.000656534 -0.000629007 0.000118725)
(-0.000652633 -0.000627995 0.000101122)
(-0.000647276 -0.000625193 8.3335e-05)
(-0.000642466 -0.000622566 6.54235e-05)
(-0.000638267 -0.00062035 4.7718e-05)
(-0.000632659 -0.000616091 3.00037e-05)
(-0.000629734 -0.000613537 1.06081e-05)
(-0.000272176 -0.000326722 -0.000150271)
(-0.000283229 -0.000430357 -4.83717e-05)
(-0.00037655 -0.000567917 4.52558e-05)
(-0.000453692 -0.000632702 0.000110599)
(-0.000523092 -0.000657591 0.000156539)
(-0.000571416 -0.000649424 0.000181942)
(-0.000611994 -0.000639402 0.000198129)
(-0.000639305 -0.000627025 0.000208292)
(-0.000657425 -0.000617762 0.000213018)
(-0.000667972 -0.000611608 0.000212125)
(-0.000675367 -0.000609917 0.000207674)
(-0.000681798 -0.000612248 0.000200397)
(-0.000686221 -0.000615719 0.000190307)
(-0.000691319 -0.000621004 0.000178522)
(-0.000711461 -0.000640439 0.000168619)
(-0.00070326 -0.000636174 0.000151109)
(-0.000708934 -0.000643895 0.000135863)
(-0.000708044 -0.000645979 0.000118851)
(-0.000704494 -0.000645582 0.000101364)
(-0.000700312 -0.000644168 8.37596e-05)
(-0.000695968 -0.000642299 6.58673e-05)
(-0.000692419 -0.000640941 4.81439e-05)
(-0.0006872 -0.000637329 3.03422e-05)
(-0.000684714 -0.000635341 1.07539e-05)
(-0.000364693 -0.000387306 -0.000170928)
(-0.000306656 -0.000419523 -5.6353e-05)
(-0.000406494 -0.000563456 3.56063e-05)
(-0.000487372 -0.000632328 0.000102725)
(-0.00056025 -0.000660608 0.0001498)
(-0.000612768 -0.000657481 0.000176947)
(-0.000656657 -0.000651041 0.000194983)
(-0.000686416 -0.000639743 0.000206825)
(-0.000704282 -0.000628086 0.000211776)
(-0.000714817 -0.000620976 0.000210879)
(-0.000723248 -0.000619461 0.000206677)
(-0.000731629 -0.000622946 0.00019979)
(-0.000737725 -0.000627586 0.000189977)
(-0.000742072 -0.000632077 0.000177889)
(-0.000764336 -0.000652313 0.000168085)
(-0.000755761 -0.000648276 0.000150654)
(-0.000762834 -0.000656992 0.000135626)
(-0.000762374 -0.000659591 0.000118731)
(-0.000759063 -0.000659711 0.000101377)
(-0.000756395 -0.00065987 8.40127e-05)
(-0.000752623 -0.000658811 6.61798e-05)
(-0.000749835 -0.000658355 4.84729e-05)
(-0.000745031 -0.000655404 3.06185e-05)
(-0.000743135 -0.000654076 1.08799e-05)
(-0.000465929 -0.000434792 -0.0001777)
(-0.000330944 -0.000405642 -6.51099e-05)
(-0.000435837 -0.000554391 2.52934e-05)
(-0.000520647 -0.000627129 9.37462e-05)
(-0.000597387 -0.000659869 0.000142213)
(-0.000654652 -0.000662543 0.00017158)
(-0.000701863 -0.000659582 0.000191679)
(-0.000733729 -0.000649417 0.000205011)
(-0.000752034 -0.000635851 0.000210311)
(-0.00076277 -0.000627892 0.000209527)
(-0.000772488 -0.000626572 0.000205561)
(-0.000782973 -0.000631114 0.000199011)
(-0.000790624 -0.000636672 0.000189393)
(-0.000794349 -0.000640557 0.000177084)
(-0.000818557 -0.000661272 0.000167322)
(-0.000809642 -0.00065755 0.000150008)
(-0.000818523 -0.000667451 0.000135261)
(-0.000818377 -0.000670463 0.000118479)
(-0.000815379 -0.00067117 0.000101284)
(-0.000814529 -0.000672999 8.41842e-05)
(-0.000811549 -0.000672874 6.64393e-05)
(-0.000809625 -0.00067334 4.87611e-05)
(-0.000805397 -0.000671162 3.08725e-05)
(-0.000804341 -0.000670637 1.10009e-05)
(-0.000488233 -0.000396487 -0.000145945)
(-0.000357677 -0.000392259 -7.4324e-05)
(-0.000463808 -0.000539688 1.43202e-05)
(-0.000552932 -0.000617251 8.37168e-05)
(-0.000633981 -0.000655213 0.00013377)
(-0.00069642 -0.00066411 0.000165689)
(-0.000746925 -0.000664409 0.00018803)
(-0.000780945 -0.00065531 0.000202741)
(-0.000800295 -0.000640597 0.000208615)
(-0.000811395 -0.000631751 0.00020808)
(-0.000822606 -0.000630587 0.00020433)
(-0.000835096 -0.000635896 0.000198029)
(-0.000844053 -0.000642045 0.000188523)
(-0.000847545 -0.000645673 0.000176116)
(-0.000873183 -0.000666342 0.000166298)
(-0.00086413 -0.000663147 0.000149172)
(-0.00087498 -0.000674176 0.000134723)
(-0.000875061 -0.000677552 0.000118067)
(-0.000872635 -0.000679035 0.00010108)
(-0.000873708 -0.000682456 8.42467e-05)
(-0.000871667 -0.000683306 6.66163e-05)
(-0.000870628 -0.000684644 4.89831e-05)
(-0.000867251 -0.000683402 3.10904e-05)
(-0.00086708 -0.000683638 1.11082e-05)
(-0.00057476 -0.000403044 -0.000128837)
(-0.00038177 -0.000373132 -8.22352e-05)
(-0.000490286 -0.000519994 2.3892e-06)
(-0.000583886 -0.000603192 7.26813e-05)
(-0.000669597 -0.000646757 0.000124446)
(-0.000737602 -0.000662055 0.00015919)
(-0.00079147 -0.000665339 0.000183894)
(-0.000827948 -0.000657355 0.000199954)
(-0.00084903 -0.000642343 0.000206679)
(-0.000860829 -0.000632546 0.000206552)
(-0.000873583 -0.000631358 0.000202975)
(-0.000887769 -0.000636995 0.000196802)
(-0.000897789 -0.000643446 0.000187352)
(-0.000901561 -0.0006472 0.000174984)
(-0.000927984 -0.000667277 0.000165018)
(-0.000919263 -0.000664975 0.000148187)
(-0.000932064 -0.000676942 0.000134024)
(-0.000932471 -0.00068077 0.000117535)
(-0.00093104 -0.000683299 0.000100806)
(-0.000933964 -0.000688106 8.42214e-05)
(-0.000933035 -0.000689982 6.67294e-05)
(-0.000932902 -0.00069214 4.91535e-05)
(-0.000930654 -0.000691957 3.12801e-05)
(-0.000931422 -0.000692907 1.12048e-05)
(-0.000683118 -0.000410963 -0.000105386)
(-0.000414569 -0.000358013 -9.14772e-05)
(-0.000514485 -0.00049591 -1.03339e-05)
(-0.000613028 -0.00058528 6.06841e-05)
(-0.000703682 -0.000634736 0.000114255)
(-0.000777619 -0.000656428 0.000152025)
(-0.000835107 -0.000662522 0.000179179)
(-0.000874591 -0.000655898 0.00019667)
(-0.000897904 -0.000641391 0.000204463)
(-0.000910924 -0.000630405 0.000204873)
(-0.00092523 -0.000628964 0.000201462)
(-0.000940683 -0.000634446 0.000195307)
(-0.000951567 -0.000640957 0.000185887)
(-0.000956101 -0.000645109 0.000173665)
(-0.000982608 -0.000664129 0.00016348)
(-0.00097477 -0.000663051 0.000147046)
(-0.000989157 -0.000675558 0.000133121)
(-0.000990093 -0.000679982 0.000116853)
(-0.000990151 -0.000683807 0.000100437)
(-0.000994758 -0.000689755 8.40824e-05)
(-0.000995097 -0.000692684 6.67554e-05)
(-0.000995901 -0.000695621 4.92572e-05)
(-0.000995021 -0.000696557 3.14287e-05)
(-0.000996632 -0.000698068 1.12842e-05)
(-0.000727584 -0.000371247 -6.51092e-05)
(-0.000443939 -0.000335946 -9.96936e-05)
(-0.000535915 -0.000467895 -2.34088e-05)
(-0.000639592 -0.000563492 4.77242e-05)
(-0.000735373 -0.000619055 0.000103184)
(-0.000815601 -0.000647002 0.000144064)
(-0.000877112 -0.000655858 0.000173742)
(-0.000920185 -0.00065085 0.000192851)
(-0.000945978 -0.00063718 0.000201751)
(-0.000961331 -0.000625369 0.000202907)
(-0.0009771 -0.000623354 0.000199744)
(-0.000993343 -0.000628198 0.000193511)
(-0.00100501 -0.000634631 0.000184134)
(-0.00101066 -0.000639323 0.000172134)
(-0.00103668 -0.000656996 0.00016171)
(-0.00103042 -0.000657487 0.000145777)
(-0.00104601 -0.000670208 0.000132053)
(-0.00104783 -0.00067544 0.000116069)
(-0.00104976 -0.000680677 9.99944e-05)
(-0.00105579 -0.000687507 8.38447e-05)
(-0.00105755 -0.000691502 6.67043e-05)
(-0.00105937 -0.000695216 4.9305e-05)
(-0.00105995 -0.000697187 3.15372e-05)
(-0.00106236 -0.00069917 1.13473e-05)
(-0.000772299 -0.000329076 -2.36366e-05)
(-0.000478972 -0.000314602 -0.000108595)
(-0.000554446 -0.000436341 -3.66488e-05)
(-0.000662905 -0.000537927 3.38102e-05)
(-0.000763986 -0.000599732 9.12486e-05)
(-0.000850852 -0.000633675 0.000135211)
(-0.000916948 -0.000645373 0.00016748)
(-0.000964251 -0.000642228 0.000188419)
(-0.000992989 -0.000629528 0.000198469)
(-0.00101152 -0.000617527 0.000200596)
(-0.00102868 -0.000614421 0.000197757)
(-0.00104534 -0.000618272 0.000191407)
(-0.00105777 -0.000624512 0.000182108)
(-0.00106468 -0.000629731 0.000170371)
(-0.00108978 -0.000645919 0.000159726)
(-0.00108559 -0.000648123 0.00014436)
(-0.00110188 -0.000660722 0.000130799)
(-0.0011049 -0.000666909 0.000115153)
(-0.00110899 -0.000673602 9.94413e-05)
(-0.0011163 -0.000681189 8.34922e-05)
(-0.00111965 -0.000686298 6.65643e-05)
(-0.00112267 -0.000690842 4.92917e-05)
(-0.0011247 -0.000693726 3.16e-05)
(-0.00112781 -0.000696051 1.13916e-05)
(-0.000826317 -0.000287701 1.96271e-05)
(-0.000513144 -0.000288708 -0.000116564)
(-0.000569583 -0.000401397 -4.97488e-05)
(-0.000682093 -0.000508541 1.90479e-05)
(-0.000788649 -0.000576642 7.84273e-05)
(-0.000882488 -0.000616289 0.000125354)
(-0.000953784 -0.000630935 0.000160256)
(-0.00100591 -0.000629801 0.000183199)
(-0.00103821 -0.000618236 0.000194551)
(-0.00106039 -0.000606619 0.000197778)
(-0.0010793 -0.000602037 0.000195368)
(-0.0010961 -0.000604658 0.000188962)
(-0.00110935 -0.000610595 0.000179797)
(-0.00111756 -0.000616255 0.000168356)
(-0.00114151 -0.000631001 0.000157555)
(-0.00113987 -0.000635024 0.000142811)
(-0.00115656 -0.000647405 0.000129414)
(-0.00116108 -0.000654638 0.000114146)
(-0.00116734 -0.000662625 9.8787e-05)
(-0.00117576 -0.000670833 8.3033e-05)
(-0.0011808 -0.000677007 6.63332e-05)
(-0.00118517 -0.0006824 4.9213e-05)
(-0.00118854 -0.000686018 3.1611e-05)
(-0.00119237 -0.000688643 1.14164e-05)
(-0.000862329 -0.000237824 6.29246e-05)
(-0.000546472 -0.000258921 -0.000123932)
(-0.000581382 -0.000363788 -6.23001e-05)
(-0.000696454 -0.000475505 3.57897e-06)
(-0.00080866 -0.000549894 6.46964e-05)
(-0.000909807 -0.000594942 0.000114424)
(-0.000987017 -0.000612666 0.000151991)
(-0.00104464 -0.000613645 0.000177106)
(-0.00108111 -0.000603332 0.000189986)
(-0.00110694 -0.000592196 0.000194288)
(-0.00112829 -0.000586504 0.000192489)
(-0.0011452 -0.000587499 0.000186179)
(-0.00115931 -0.000593072 0.000177213)
(-0.00116871 -0.000599013 0.000166092)
(-0.00119142 -0.000612416 0.000155217)
(-0.00119246 -0.000618103 0.000141105)
(-0.00120926 -0.000630168 0.000127882)
(-0.00121542 -0.000638537 0.000113019)
(-0.0012238 -0.000647861 9.80147e-05)
(-0.00123334 -0.000656844 8.24727e-05)
(-0.00124015 -0.000664203 6.60187e-05)
(-0.00124611 -0.000670581 4.90781e-05)
(-0.00125072 -0.000674782 3.1577e-05)
(-0.00125527 -0.00067766 1.14237e-05)
(-0.000853084 -0.000178519 9.93788e-05)
(-0.000577777 -0.000224412 -0.000129363)
(-0.000589413 -0.000323861 -7.44007e-05)
(-0.000705062 -0.000438823 -1.24516e-05)
(-0.000823022 -0.000519485 4.99912e-05)
(-0.000931817 -0.000569649 0.000102327)
(-0.00101567 -0.000590517 0.00014255)
(-0.00107941 -0.000593609 0.00016997)
(-0.00112064 -0.000584613 0.000184605)
(-0.00115032 -0.000573993 0.000190069)
(-0.00117427 -0.000567654 0.00018897)
(-0.00119191 -0.000567124 0.000182985)
(-0.00120692 -0.000571967 0.000174322)
(-0.00121741 -0.000578065 0.00016357)
(-0.00123898 -0.000590467 0.000152743)
(-0.00124276 -0.000597859 0.00013928)
(-0.00125959 -0.000609892 0.000126279)
(-0.00126723 -0.000619266 0.000111816)
(-0.0012772 -0.000629545 9.71176e-05)
(-0.00128759 -0.000639157 8.17731e-05)
(-0.00129589 -0.000647495 6.55616e-05)
(-0.00130344 -0.000654739 4.88232e-05)
(-0.00130917 -0.000659401 3.14542e-05)
(-0.00131455 -0.000662532 1.13988e-05)
(-0.000820858 -0.000120527 0.000127932)
(-0.000609061 -0.000187084 -0.000132339)
(-0.000593556 -0.000281812 -8.56707e-05)
(-0.000707288 -0.000398707 -2.88475e-05)
(-0.000830949 -0.000485638 3.4295e-05)
(-0.000947766 -0.000540674 8.9018e-05)
(-0.0010391 -0.00056474 0.000131873)
(-0.00110964 -0.000569886 0.000161714)
(-0.0011562 -0.000562204 0.000178311)
(-0.00118982 -0.000552046 0.000185099)
(-0.00121626 -0.000545244 0.000184774)
(-0.0012352 -0.000543761 0.000179292)
(-0.00125151 -0.000548047 0.000171129)
(-0.00126297 -0.000554186 0.000160849)
(-0.00128329 -0.000565661 0.000150166)
(-0.00128927 -0.000574332 0.000137293)
(-0.00130565 -0.000586217 0.000124487)
(-0.00131464 -0.00059639 0.000110398)
(-0.00132601 -0.000607258 9.59908e-05)
(-0.00133732 -0.000617383 8.08662e-05)
(-0.00134709 -0.00062652 6.49181e-05)
(-0.00135636 -0.00063451 4.84217e-05)
(-0.00136322 -0.000639567 3.12307e-05)
(-0.00136951 -0.000642944 1.13368e-05)
(-0.000876646 -7.55273e-05 0.000168638)
(-0.00064529 -0.000149713 -0.000133909)
(-0.000595098 -0.000238294 -9.56127e-05)
(-0.000702459 -0.000355429 -4.52368e-05)
(-0.000831371 -0.000448433 1.76571e-05)
(-0.000956599 -0.000508184 7.44489e-05)
(-0.0010562 -0.000535418 0.000119866)
(-0.00113414 -0.000542464 0.000152196)
(-0.00118656 -0.000536004 0.000170931)
(-0.00122442 -0.000526321 0.00017925)
(-0.00125344 -0.000519197 0.000179887)
(-0.00127384 -0.000517127 0.000175087)
(-0.00129131 -0.000521 0.000167514)
(-0.00130365 -0.000527139 0.000157768)
(-0.00132292 -0.000537787 0.000147337)
(-0.00133075 -0.000547258 0.000135024)
(-0.00134666 -0.000558925 0.000122445)
(-0.00135681 -0.000569655 0.000108723)
(-0.00136942 -0.000580886 9.46117e-05)
(-0.00138163 -0.000591402 7.97323e-05)
(-0.0013927 -0.000601144 6.40683e-05)
(-0.00140367 -0.000609699 4.78521e-05)
(-0.00141167 -0.000615105 3.08927e-05)
(-0.00141897 -0.000618735 1.1233e-05)
(-0.000818554 -2.16168e-05 0.000186855)
(-0.000674592 -0.000109665 -0.000132016)
(-0.000593091 -0.000193052 -0.000103434)
(-0.000690043 -0.000309434 -6.1049e-05)
(-0.000823442 -0.000408109 2.3987e-07)
(-0.000957449 -0.000472564 5.8626e-05)
(-0.00106625 -0.000502978 0.000106517)
(-0.00115228 -0.000511731 0.000141383)
(-0.00121116 -0.00050634 0.000162416)
(-0.0012535 -0.000497055 0.000172466)
(-0.00128514 -0.00048966 0.00017427)
(-0.00130718 -0.000487187 0.000170348)
(-0.00132562 -0.000490623 0.000163446)
(-0.00133868 -0.000496701 0.000154295)
(-0.00135711 -0.000506666 0.000144225)
(-0.00136645 -0.000516579 0.000132459)
(-0.00138173 -0.000527996 0.000120139)
(-0.0013928 -0.000539052 0.000106788)
(-0.00140631 -0.000550371 9.29711e-05)
(-0.00141934 -0.000561145 7.83583e-05)
(-0.00143155 -0.000571326 6.30021e-05)
(-0.00144415 -0.000580266 4.71038e-05)
(-0.00145342 -0.000586027 3.04347e-05)
(-0.0014618 -0.000589884 1.10846e-05)
(-0.000858814 2.86105e-05 0.000227042)
(-0.000707486 -6.95994e-05 -0.000129791)
(-0.000591151 -0.000147769 -0.000109087)
(-0.000670047 -0.000261437 -7.55728e-05)
(-0.000806086 -0.000364875 -1.77113e-05)
(-0.000949137 -0.000434172 4.15689e-05)
(-0.00106807 -0.000467738 9.17825e-05)
(-0.00116286 -0.000477916 0.000129184)
(-0.00122877 -0.00047334 0.000152642)
(-0.00127593 -0.000464337 0.000164627)
(-0.00131049 -0.000456784 0.000167862)
(-0.00133439 -0.00045401 0.000165034)
(-0.00135369 -0.000457004 0.000158926)
(-0.00136734 -0.000462973 0.00015046)
(-0.00138488 -0.000472281 0.000140835)
(-0.00139512 -0.000482256 0.000129591)
(-0.0014096 -0.00049341 0.000117565)
(-0.00142136 -0.000504578 0.000104586)
(-0.00143567 -0.000515866 9.10784e-05)
(-0.00144935 -0.000526766 7.67471e-05)
(-0.0014625 -0.000537236 6.1719e-05)
(-0.00147655 -0.000546344 4.61694e-05)
(-0.0014871 -0.000552419 2.98467e-05)
(-0.00149661 -0.000556457 1.08869e-05)
(-0.000777073 7.23231e-05 0.000234206)
(-0.000725576 -2.75344e-05 -0.000124249)
(-0.000586987 -0.000102515 -0.00011195)
(-0.000642219 -0.000212078 -8.78835e-05)
(-0.000778484 -0.000319204 -3.57949e-05)
(-0.000930657 -0.000393557 2.33651e-05)
(-0.00106081 -0.000430358 7.5669e-05)
(-0.00116523 -0.000441679 0.000115608)
(-0.00123882 -0.000437559 0.000141601)
(-0.0012913 -0.000428697 0.000155748)
(-0.00132889 -0.000420896 0.000160666)
(-0.00135465 -0.000417792 0.000159141)
(-0.00137461 -0.000420297 0.000153972)
(-0.00138871 -0.00042611 0.000146302)
(-0.00140545 -0.000434825 0.000137221)
(-0.00141609 -0.000444616 0.000126487)
(-0.00142946 -0.000455495 0.000114766)
(-0.00144141 -0.000466526 0.000102137)
(-0.00145594 -0.000477529 8.89171e-05)
(-0.00147007 -0.000488456 7.48791e-05)
(-0.00148397 -0.000499113 6.02018e-05)
(-0.00149928 -0.000508209 4.50327e-05)
(-0.00151125 -0.000514588 2.91182e-05)
(-0.00152195 -0.000518758 1.06355e-05)
(-0.000797307 0.00012231 0.000270585)
(-0.000741611 1.43101e-05 -0.000118733)
(-0.000583407 -5.89369e-05 -0.000112332)
(-0.000607482 -0.000162346 -9.70609e-05)
(-0.000739876 -0.000271712 -5.34629e-05)
(-0.000900774 -0.000351227 4.19231e-06)
(-0.00104325 -0.000391443 5.81579e-05)
(-0.00115827 -0.00040364 0.000100623)
(-0.00124027 -0.000399509 0.000129269)
(-0.0012983 -0.000390433 0.000145755)
(-0.00133924 -0.000382306 0.000152641)
(-0.00136707 -0.000378852 0.000152682)
(-0.00138752 -0.000380829 0.000148634)
(-0.00140169 -0.000386383 0.000141865)
(-0.00141721 -0.000394412 0.000133375)
(-0.00142762 -0.00040384 0.000123132)
(-0.00143971 -0.000414544 0.000111735)
(-0.00145162 -0.000425331 9.94496e-05)
(-0.00146621 -0.000435987 8.65165e-05)
(-0.00148052 -0.000446897 7.27738e-05)
(-0.00149498 -0.000457663 5.84618e-05)
(-0.00151127 -0.000466575 4.36972e-05)
(-0.00152461 -0.000473164 2.82447e-05)
(-0.00153646 -0.000477376 1.0327e-05)
(-0.000706156 0.000150867 0.000267155)
(-0.000743676 5.54215e-05 -0.000111385)
(-0.000578659 -1.76366e-05 -0.000110184)
(-0.000567044 -0.0001133 -0.000102329)
(-0.000689953 -0.000223367 -6.98444e-05)
(-0.000858592 -0.000307876 -1.56354e-05)
(-0.00101449 -0.000351843 3.92993e-05)
(-0.00114139 -0.000364815 8.42934e-05)
(-0.00123259 -0.00036001 0.00011574)
(-0.00129679 -0.000350318 0.000134725)
(-0.00134134 -0.000341745 0.000143871)
(-0.00137095 -0.000337735 0.000145732)
(-0.00139166 -0.000339143 0.000143001)
(-0.00140562 -0.000344393 0.000137253)
(-0.00141977 -0.00035179 0.000129425)
(-0.0014292 -0.000360718 0.00011963)
(-0.00143955 -0.000371302 0.000108528)
(-0.00145068 -0.000381626 9.65263e-05)
(-0.00146459 -0.000391761 8.38347e-05)
(-0.00147877 -0.000402663 7.03909e-05)
(-0.00149359 -0.000413513 5.64667e-05)
(-0.00151063 -0.00042214 4.21386e-05)
(-0.00152531 -0.000428813 2.72084e-05)
(-0.00153833 -0.000432979 9.95403e-06)
(-0.000703221 0.000192934 0.000294002)
(-0.00073767 9.43218e-05 -0.000103942)
(-0.000571829 2.05374e-05 -0.000105687)
(-0.000523176 -6.66078e-05 -0.000103233)
(-0.000628495 -0.000175105 -8.36375e-05)
(-0.000803097 -0.0002642 -3.56422e-05)
(-0.000973316 -0.000312272 1.92012e-05)
(-0.00111353 -0.000326123 6.64981e-05)
(-0.00121501 -0.000320487 0.000100896)
(-0.00128573 -0.000309525 0.000122763)
(-0.00133378 -0.000299709 0.000134429)
(-0.00136523 -0.000294989 0.000138329)
(-0.0013859 -0.000295823 0.000137131)
(-0.00139903 -0.000300671 0.000132488)
(-0.00141115 -0.000307488 0.000125317)
(-0.00141911 -0.000316189 0.000115957)
(-0.00142753 -0.000326968 0.000105152)
(-0.00143754 -0.000336971 9.34076e-05)
(-0.00145043 -0.000346658 8.09397e-05)
(-0.00146411 -0.0003575 6.77845e-05)
(-0.00147903 -0.000368301 5.42482e-05)
(-0.00149648 -0.0003765 4.03726e-05)
(-0.00151236 -0.000383077 2.60129e-05)
(-0.0015265 -0.000387054 9.51658e-06)
(-0.000615507 0.000205633 0.000281913)
(-0.000723247 0.000130369 -9.60831e-05)
(-0.000564063 5.52174e-05 -9.97134e-05)
(-0.000478298 -2.40225e-05 -9.98457e-05)
(-0.000556788 -0.000128131 -9.34077e-05)
(-0.000733722 -0.000221148 -5.50622e-05)
(-0.000918983 -0.000273572 -1.89798e-06)
(-0.00107422 -0.000288608 4.73161e-05)
(-0.00118718 -0.000281919 8.48118e-05)
(-0.0012651 -0.000269369 0.000109899)
(-0.00131704 -0.000258072 0.00012449)
(-0.0013499 -0.000252285 0.000130733)
(-0.00137003 -0.000252456 0.000131247)
(-0.0013818 -0.000257017 0.000127792)
(-0.00139137 -0.000263472 0.000121294)
(-0.001397 -0.000272049 0.000112299)
(-0.00140297 -0.000283104 0.000101717)
(-0.00141119 -0.000292787 9.01455e-05)
(-0.00142242 -0.000302038 7.78453e-05)
(-0.00143517 -0.00031275 6.49541e-05)
(-0.00144982 -0.000323343 5.1798e-05)
(-0.00146738 -0.000331004 3.83901e-05)
(-0.00148428 -0.000337282 2.46484e-05)
(-0.00149948 -0.000340932 9.00973e-06)
(-0.00058908 0.00023197 0.000293352)
(-0.000698233 0.000161498 -8.80129e-05)
(-0.000552346 8.57919e-05 -9.22948e-05)
(-0.000434034 1.30384e-05 -9.25255e-05)
(-0.000477278 -8.40956e-05 -9.78293e-05)
(-0.000649686 -0.000179482 -7.26636e-05)
(-0.000850518 -0.000236489 -2.36072e-05)
(-0.00102249 -0.00025299 2.68914e-05)
(-0.00114835 -0.000245081 6.76152e-05)
(-0.00123404 -0.000230639 9.62396e-05)
(-0.00128992 -0.000217706 0.000114171)
(-0.00132383 -0.000210725 0.000123097)
(-0.00134293 -0.00021029 0.000125517)
(-0.00135257 -0.000214654 0.000123295)
(-0.00135886 -0.000220981 0.000117426)
(-0.00136135 -0.000229587 0.000108695)
(-0.00136437 -0.000240973 9.82312e-05)
(-0.00137016 -0.000250391 8.67329e-05)
(-0.00137917 -0.00025927 7.45387e-05)
(-0.00139055 -0.000269802 6.1882e-05)
(-0.00140457 -0.000280051 4.90982e-05)
(-0.00142196 -0.000287101 3.61755e-05)
(-0.00143964 -0.000292885 2.31014e-05)
(-0.00145585 -0.000296065 8.42781e-06)
(-0.000514787 0.000232469 0.000275119)
(-0.000664368 0.000186312 -7.9386e-05)
(-0.000536825 0.000111959 -8.38499e-05)
(-0.000392081 4.35692e-05 -8.20034e-05)
(-0.000393053 -4.48265e-05 -9.58881e-05)
(-0.000551965 -0.000140202 -8.68315e-05)
(-0.000767321 -0.000201871 -4.53179e-05)
(-0.000958324 -0.000220066 5.50918e-06)
(-0.00109873 -0.000210946 4.95513e-05)
(-0.00119289 -0.000194252 8.212e-05)
(-0.00125266 -0.000179564 0.000103811)
(-0.00128707 -0.000171422 0.000115734)
(-0.00130435 -0.000170536 0.000120206)
(-0.00131097 -0.000174901 0.0001192)
(-0.00131315 -0.000181404 0.000113851)
(-0.00131172 -0.000190283 0.000105234)
(-0.00131115 -0.000202057 9.47383e-05)
(-0.00131385 -0.00021132 8.31913e-05)
(-0.00132003 -0.000219935 7.10259e-05)
(-0.00132954 -0.000230229 5.85623e-05)
(-0.00134246 -0.000240005 4.61378e-05)
(-0.00135935 -0.00024639 3.3718e-05)
(-0.00137756 -0.000251513 2.13631e-05)
(-0.00139472 -0.0002541 7.76683e-06)
(-0.000497666 0.000252202 0.000283201)
(-0.000628699 0.000206601 -7.16277e-05)
(-0.000517271 0.00013323 -7.46404e-05)
(-0.000353028 6.71141e-05 -6.9032e-05)
(-0.000309126 -1.22918e-05 -8.74739e-05)
(-0.000441735 -0.000104394 -9.54297e-05)
(-0.000668701 -0.00017022 -6.60348e-05)
(-0.000881198 -0.00019036 -1.64718e-05)
(-0.00103786 -0.000180104 3.09311e-05)
(-0.00114112 -0.000160837 6.79361e-05)
(-0.00120442 -0.00014438 9.37696e-05)
(-0.00123862 -0.000135296 0.000108941)
(-0.0012532 -0.000134273 0.000115527)
(-0.00125575 -0.000138971 0.000115628)
(-0.00125294 -0.000146033 0.000110608)
(-0.0012468 -0.000155482 0.000101899)
(-0.00124207 -0.000167718 9.1198e-05)
(-0.00124113 -0.000177019 7.9477e-05)
(-0.00124397 -0.000185545 6.7264e-05)
(-0.00125109 -0.000195568 5.49517e-05)
(-0.00126245 -0.000204782 4.28805e-05)
(-0.00127855 -0.000210472 3.09913e-05)
(-0.00129703 -0.000214795 1.94157e-05)
(-0.00131509 -0.000216679 7.02022e-06)
(-0.000443863 0.000248365 0.00026484)
(-0.000585096 0.000218834 -6.32032e-05)
(-0.000493751 0.000149607 -6.49419e-05)
(-0.000317345 8.38724e-05 -5.46214e-05)
(-0.000229918 1.20145e-05 -7.32868e-05)
(-0.000323594 -7.37274e-05 -9.65691e-05)
(-0.000555198 -0.000142072 -8.43151e-05)
(-0.000791662 -0.000164363 -3.85177e-05)
(-0.000966792 -0.000152984 1.23917e-05)
(-0.00107987 -0.000131182 5.43898e-05)
(-0.00114612 -0.000113034 8.46955e-05)
(-0.00117896 -0.000103433 0.000103232)
(-0.00118963 -0.000102737 0.000111838)
(-0.00118706 -0.000108244 0.000112808)
(-0.0011784 -0.000116367 0.000107826)
(-0.00116675 -0.000126752 9.8734e-05)
(-0.00115713 -0.000139536 8.7594e-05)
(-0.00115198 -0.000149077 7.55603e-05)
(-0.00115104 -0.000157707 6.32248e-05)
(-0.00115529 -0.000167443 5.10273e-05)
(-0.00116464 -0.000176043 3.93101e-05)
(-0.00117964 -0.000181017 2.79856e-05)
(-0.00119815 -0.00018444 1.72553e-05)
(-0.00121701 -0.000185527 6.1871e-06)
(-0.000390544 0.000237035 0.000240759)
(-0.000539387 0.000225217 -5.5068e-05)
(-0.000465683 0.000160722 -5.46747e-05)
(-0.000284388 9.4463e-05 -3.95591e-05)
(-0.00015894 2.73811e-05 -5.48396e-05)
(-0.000203219 -4.95754e-05 -8.87011e-05)
(-0.000427366 -0.000117453 -9.79181e-05)
(-0.000689936 -0.000141941 -5.97125e-05)
(-0.000885887 -0.000129525 -5.20282e-06)
(-0.00100868 -0.000105696 4.23156e-05)
(-0.001077 -8.6211e-05 7.73182e-05)
(-0.00110724 -7.67652e-05 9.90912e-05)
(-0.0011127 -7.70924e-05 0.000109393)
(-0.00110377 -8.40134e-05 0.000110787)
(-0.00108839 -9.37218e-05 0.000105427)
(-0.0010706 -0.0001054 9.56248e-05)
(-0.00105564 -0.000118781 8.38133e-05)
(-0.00104589 -0.000128624 7.13343e-05)
(-0.00104083 -0.000137413 5.88067e-05)
(-0.00104176 -0.000146731 4.66987e-05)
(-0.0010487 -0.00015465 3.53624e-05)
(-0.00106236 -0.000158924 2.46626e-05)
(-0.00108066 -0.000161435 1.48642e-05)
(-0.00110024 -0.000161731 5.26297e-06)
(-0.000364658 0.000236622 0.000228448)
(-0.000494664 0.000226859 -4.77857e-05)
(-0.000435015 0.000167281 -4.41246e-05)
(-0.000253713 0.000100037 -2.47265e-05)
(-9.85634e-05 3.42774e-05 -3.44004e-05)
(-8.91116e-05 -3.29022e-05 -7.13807e-05)
(-0.000290236 -9.65036e-05 -0.000104413)
(-0.000577975 -0.00012264 -7.86188e-05)
(-0.000797507 -0.000109556 -2.0504e-05)
(-0.00092969 -8.44352e-05 3.31287e-05)
(-0.000998535 -6.46865e-05 7.26945e-05)
(-0.00102429 -5.63359e-05 9.72116e-05)
(-0.00102301 -5.85611e-05 0.000108565)
(-0.00100661 -6.75402e-05 0.000109742)
(-0.000983734 -7.9099e-05 0.000103422)
(-0.000959251 -9.2064e-05 9.24685e-05)
(-0.000938582 -0.000105894 7.97234e-05)
(-0.000924027 -0.000116054 6.66849e-05)
(-0.000914713 -0.000125039 5.39245e-05)
(-0.000912035 -0.000133889 4.19076e-05)
(-0.000916233 -0.000141122 3.10011e-05)
(-0.000928315 -0.000144751 2.10083e-05)
(-0.000946196 -0.000146414 1.22442e-05)
(-0.000966366 -0.000145982 4.2516e-06)
(-0.000364284 0.000250085 0.000228101)
(-0.00045711 0.000227948 -4.21628e-05)
(-0.000403944 0.000170979 -3.43717e-05)
(-0.000225339 0.000102532 -1.12732e-05)
(-4.96011e-05 3.44539e-05 -1.49566e-05)
(5.07874e-06 -2.20659e-05 -4.55141e-05)
(-0.000150926 -7.8047e-05 -0.000100185)
(-0.000457624 -0.000104781 -9.26346e-05)
(-0.000702904 -9.22136e-05 -3.14462e-05)
(-0.000842642 -6.70903e-05 2.85945e-05)
(-0.000909749 -4.85546e-05 7.19221e-05)
(-0.000929245 -4.26369e-05 9.81241e-05)
(-0.000919721 -4.75579e-05 0.000109439)
(-0.000894895 -5.89959e-05 0.000109472)
(-0.000864165 -7.25628e-05 0.000101498)
(-0.000832816 -8.67144e-05 8.89185e-05)
(-0.000806313 -0.000100762 7.49955e-05)
(-0.00078697 -0.000111103 6.13371e-05)
(-0.000773422 -0.00012019 4.83607e-05)
(-0.000767046 -0.00012851 3.64994e-05)
(-0.000768378 -0.000135091 2.61313e-05)
(-0.000778736 -0.000138167 1.69787e-05)
(-0.000795989 -0.000139117 9.38663e-06)
(-0.000816562 -0.000138094 3.15503e-06)
(-0.000327218 0.000237642 0.000204051)
(-0.000415649 0.000224912 -3.79898e-05)
(-0.00037037 0.000172398 -2.66044e-05)
(-0.000198415 0.000104327 -5.78784e-07)
(-1.25189e-05 3.25136e-05 -1.21134e-06)
(4.93009e-05 -1.18497e-05 -2.07571e-05)
(-2.64914e-05 -5.9975e-05 -8.13901e-05)
(-0.000335431 -8.62973e-05 -9.83253e-05)
(-0.000605761 -7.66375e-05 -3.51035e-05)
(-0.000750381 -5.3564e-05 3.09407e-05)
(-0.000812578 -3.80844e-05 7.63307e-05)
(-0.000823368 -3.59423e-05 0.000102399)
(-0.000804271 -4.43034e-05 0.000112101)
(-0.00077022 -5.84085e-05 0.000109752)
(-0.000731441 -7.38289e-05 9.92887e-05)
(-0.000693626 -8.88274e-05 8.46274e-05)
(-0.000661763 -0.000102737 6.93511e-05)
(-0.000637932 -0.000112951 5.50634e-05)
(-0.000620389 -0.000121899 4.1945e-05)
(-0.000610354 -0.000129562 3.0361e-05)
(-0.000608778 -0.000135506 2.06926e-05)
(-0.000617318 -0.000138154 1.25633e-05)
(-0.0006338 -0.000138625 6.31245e-06)
(-0.00065457 -0.000137252 1.98854e-06)
(-0.000291227 0.000226749 0.00018356)
(-0.000374986 0.000222132 -3.57443e-05)
(-0.000336973 0.000174651 -2.27458e-05)
(-0.00017398 0.000109107 6.1754e-06)
(1.40593e-05 3.64641e-05 2.06351e-06)
(6.37506e-05 -6.95416e-06 -1.64651e-05)
(5.05722e-05 -3.99966e-05 -5.46568e-05)
(-0.000222315 -6.57047e-05 -9.18669e-05)
(-0.000507846 -6.19857e-05 -2.76405e-05)
(-0.000651908 -4.37469e-05 4.21638e-05)
(-0.000705773 -3.34855e-05 8.66769e-05)
(-0.000706098 -3.63248e-05 0.000109984)
(-0.000676494 -4.85147e-05 0.000116008)
(-0.000633434 -6.50872e-05 0.000109875)
(-0.000587173 -8.17617e-05 9.60499e-05)
(-0.000543351 -9.67814e-05 7.88539e-05)
(-0.000506827 -0.000109829 6.21559e-05)
(-0.000479383 -0.000119368 4.73804e-05)
(-0.00045859 -0.000127762 3.43328e-05)
(-0.000445481 -0.00013459 2.32803e-05)
(-0.000441265 -0.000139903 1.45743e-05)
(-0.00044794 -0.000142294 7.73568e-06)
(-0.000463347 -0.000142613 3.04615e-06)
(-0.000483868 -0.000141252 7.71992e-07)
(-0.000273297 0.000233508 0.000183475)
(-0.000336037 0.000222255 -3.44901e-05)
(-0.000301483 0.000176711 -2.21808e-05)
(-0.000149684 0.000117874 9.40505e-06)
(3.51047e-05 4.54865e-05 -7.29087e-06)
(0.000101727 -9.68524e-06 -3.04264e-05)
(8.33622e-05 -2.66618e-05 -4.32597e-05)
(-0.000139166 -4.55158e-05 -6.92089e-05)
(-0.000415025 -4.90721e-05 -5.32409e-06)
(-0.000549732 -3.84403e-05 6.34274e-05)
(-0.000591027 -3.53117e-05 0.000103093)
(-0.000579163 -4.37063e-05 0.000120322)
(-0.00053889 -5.94132e-05 0.000120287)
(-0.000487026 -7.7459e-05 0.00010873)
(-0.000434754 -9.41339e-05 9.07726e-05)
(-0.000387221 -0.000108014 7.09136e-05)