/*--------------------------------*- C++ -*----------------------------------*\
  =========                 |
  \\      /  F ield         | OpenFOAM: The Open Source CFD Toolbox
   \\    /   O peration     | Website:  https://openfoam.org
    \\  /    A nd           | Version:  6
     \\/     M anipulation  |
\*---------------------------------------------------------------------------*/
FoamFile
{
    version     2.0;
    format      ascii;
    class       volScalarField;
    location    "0.6";
    object      yPlus;
}
// * * * * * * * * * * * * * * * * * * * * * * * * * * * * * * * * * * * * * //

dimensions      [0 0 0 0 0 0 0];

internalField   uniform 0;

boundaryField
{
    inlet
    {
        type            calculated;
        value           uniform 0;
    }
    outlet
    {
        type            calculated;
        value           uniform 0;
    }
    roughCylinder
    {
        type            calculated;
        value           nonuniform List<scalar> 
3840
(
23.0123
34.067
41.8666
44.6965
46.5784
47.0416
47.6533
47.7864
47.9722
47.8512
47.6642
47.4791
47.1901
47.1495
48.1998
46.959
46.7707
46.0533
45.1274
44.1092
43.1769
42.3749
41.5507
41.0774
33.945
33.9347
41.6939
44.6251
46.48
47.002
47.603
47.7398
47.8737
47.7265
47.5808
47.5111
47.3415
47.227
48.3235
47.1037
46.966
46.2921
45.4084
44.5012
43.6237
42.8846
42.1106
41.6801
43.0978
33.5472
41.5861
44.5743
46.4145
47.004
47.5899
47.7258
47.795
47.6301
47.5455
47.6009
47.5367
47.3358
48.4795
47.2682
47.1995
46.5546
45.701
44.9144
44.092
43.415
42.6871
42.3038
52.0047
33.3084
41.5215
44.5491
46.3822
47.0504
47.6201
47.7515
47.7572
47.5906
47.574
47.7468
47.7642
47.4959
48.6656
47.4643
47.483
46.8552
46.0333
45.3717
44.6105
43.9938
43.3162
42.9891
49.8525
33.508
41.4397
44.5527
46.3868
47.1436
47.6962
47.8244
47.7725
47.6132
47.6678
47.9358
48.0071
47.7045
48.8625
47.6839
47.7896
47.1721
46.3951
45.8499
45.1508
44.5878
43.9711
43.6955
55.3436
33.5231
41.3521
44.582
46.4203
47.2761
47.8126
47.9409
47.8464
47.7099
47.8288
48.1592
48.2624
47.9619
49.0694
47.941
48.123
47.5212
46.8101
46.3644
45.7295
45.2145
44.6669
44.439
62.7214
34.4733
41.2436
44.635
46.4885
47.4498
47.9744
48.1116
47.9906
47.8826
48.0575
48.4155
48.5339
48.2634
49.2855
48.2347
48.4646
47.8902
47.2662
46.9006
46.3314
45.8608
45.3872
45.196
62.911
35.1075
41.1197
44.6986
46.5827
47.6534
48.1722
48.3278
48.2015
48.1319
48.3493
48.7018
48.8292
48.605
49.5201
48.578
48.8319
48.3024
47.7784
47.4724
46.9704
46.5435
46.1398
45.979
63.3475
36.3479
41.0019
44.7714
46.7069
47.8874
48.4108
48.5986
48.4825
48.4521
48.6988
49.0238
49.1571
48.9833
49.7799
48.964
49.2152
48.7456
48.3285
48.0709
47.6395
47.2611
46.9204
46.7815
64.918
37.5559
40.8712
44.8373
46.8482
48.1396
48.6786
48.9079
48.8178
48.8305
49.0928
49.3771
49.5183
49.3924
50.0734
49.3985
49.6368
49.2383
48.9223
48.7039
48.3421
48.0165
47.7268
47.6086
64.9506
38.8216
40.7669
44.8964
47.0103
48.4132
48.9814
49.2631
49.2093
49.2591
49.5259
49.7671
49.918
49.8317
50.4052
49.87
50.0868
49.7658
49.5443
49.3663
49.0758
48.811
48.5638
48.4632
61.723
39.8926
40.6765
44.9283
47.1772
48.6955
49.3051
49.6439
49.6337
49.7197
49.9842
50.1876
50.3487
50.297
50.7806
50.3815
50.5814
50.3372
50.1991
50.0623
49.8391
49.6381
49.4255
49.3455
57.712
40.8516
40.5848
44.9272
47.3479
48.9891
49.6564
50.057
50.0951
50.2091
50.4656
50.6416
50.8118
50.7881
51.1994
50.9252
51.1111
50.9432
50.8777
50.7866
50.6285
50.4953
50.3158
50.257
62.0743
42.1629
40.5745
44.8729
47.5003
49.2782
50.017
50.479
50.5675
50.7095
50.9595
51.1206
51.3005
51.3046
51.6631
51.4976
51.6758
51.5787
51.5808
51.537
51.4377
51.3699
51.2227
51.1882
57.853
43.0294
40.5179
44.7441
47.624
49.5597
50.3914
50.9181
51.06
51.2263
51.4659
51.623
51.8093
51.8402
52.1665
52.0965
52.27
52.24
52.2992
52.3037
52.2598
52.2559
52.1466
52.1381
62.7194
44.4424
40.6394
44.5417
47.6871
49.8126
50.758
51.3501
51.5472
51.7369
51.9767
52.1404
52.3332
52.3924
52.6974
52.7037
52.878
52.9129
53.0328
53.0853
53.0931
53.1475
53.0781
53.0959
57.8027
45.1492
40.6991
44.2208
47.6646
50.0257
51.1165
51.7819
52.0364
52.2574
52.4949
52.6673
52.865
52.9558
53.2583
53.3295
53.5049
53.5946
53.7608
53.8604
53.9193
54.0284
54.0066
54.0527
62.5018
46.1987
40.8997
43.7953
47.5159
50.1669
51.4424
52.1914
52.511
52.7566
53.0008
53.1941
53.3981
53.517
53.8148
53.9383
54.1244
54.2731
54.4919
54.6386
54.7485
54.9061
54.9331
55.0054
57.4301
46.788
41.1155
43.2367
47.2043
50.213
51.7293
52.5837
52.9644
53.2507
53.515
53.7208
53.9314
54.0834
54.3881
54.5469
54.741
54.9305
55.1845
55.3795
55.5446
55.7488
55.8288
55.9284
61.2521
47.3546
41.3173
42.5491
46.6688
50.113
51.9423
52.9359
53.3966
53.7153
53.9868
54.2179
54.4392
54.6148
54.9192
55.1154
55.3335
55.57
55.8624
56.1074
56.3295
56.5763
56.7079
56.8327
56.6169
47.9211
41.6644
41.7791
45.8584
49.8269
52.0629
53.253
53.8158
54.1787
54.4668
54.7127
54.9418
55.1438
55.4515
55.6749
55.9219
56.1974
56.5204
56.8148
57.0931
57.3787
57.5607
57.709
58.7201
48.1899
41.9483
40.9285
44.7146
49.2588
52.0347
53.4956
54.1914
54.6114
54.9231
55.183
55.4228
55.6476
55.9559
56.1994
56.4795
56.7885
57.1371
57.4827
57.8182
58.1413
58.3703
58.5409
55.0884
48.2808
42.2165
40.0601
43.1349
48.3257
51.8132
53.6578
54.5328
55.0324
55.3758
55.6489
55.8967
56.1389
56.4441
56.7008
57.0146
57.3481
57.7153
58.1114
58.5019
58.8595
59.1326
59.3244
58.6221
48.6389
42.4629
39.1845
41.1651
46.7997
51.2826
53.6747
54.7978
55.3951
55.7791
56.0695
56.3266
56.5785
56.874
57.1391
57.489
57.8415
58.2221
58.6654
59.1083
59.5
59.8142
60.028
56.862
48.5281
42.6656
38.3677
38.8143
44.5736
50.3254
53.518
54.9976
55.7276
56.1675
56.4716
56.7315
56.9885
57.2676
57.5276
57.9039
58.2691
58.6631
59.1557
59.6494
60.0727
60.4245
60.6584
54.0921
48.2745
42.6676
37.5498
36.0596
41.3228
48.6059
53.0594
55.0517
55.9606
56.4638
56.7942
57.0524
57.2989
57.559
57.8161
58.2199
58.5896
58.9908
59.5233
60.0645
60.5194
60.9065
61.1624
54.8045
47.927
42.5387
36.6794
32.8933
36.4447
45.8913
52.2051
54.9717
56.148
56.7312
57.0714
57.3232
57.5563
57.7806
58.015
58.4335
58.7967
59.204
59.7681
60.3496
60.8338
61.2566
61.5387
59.4792
48.1342
42.3851
35.7585
29.0969
28.1856
41.3442
50.634
54.6239
56.1552
56.8506
57.2191
57.451
57.654
57.8318
58.019
58.4231
58.7608
59.1663
59.7519
60.3727
60.8887
61.3502
61.6655
56.6948
47.5296
41.8888
34.6697
24.7469
15.8106
33.7086
48.1962
54.033
56.0717
56.891
57.2608
57.4519
57.583
57.6741
57.7934
58.1623
58.4425
58.8298
59.4109
60.0626
60.6144
61.1297
61.4973
54.1618
47.0442
41.6062
33.9419
22.126
9.61043
24.3057
44.8376
53.0095
55.6893
56.667
57.0399
57.1486
57.1846
57.1368
57.0827
57.3325
57.5143
57.8724
58.4362
59.1221
59.7183
60.3025
60.7435
57.3088
47.2773
41.5157
33.839
23.3643
16.9559
22.214
41.8378
51.8691
55.1692
56.2242
56.5277
56.4772
56.262
55.9873
55.7352
55.8102
55.8158
56.1129
56.5946
57.2921
57.9401
58.626
59.1878
57.5111
47.4072
41.5962
34.314
24.8994
20.3586
27.2032
40.7955
50.7353
54.1844
55.2549
55.3741
55.022
54.4731
53.8259
53.1939
52.8836
52.5097
52.5841
52.8053
53.4246
54.1573
55.0677
55.9047
56.3438
47.2902
41.6101
34.9358
23.2567
22.37
32.0629
42.0069
50.0085
52.8438
53.5233
53.2415
52.4
51.1597
49.5838
47.9059
46.5295
45.1833
44.5526
44.1488
44.5512
45.4891
47.0211
48.5374
54.8526
47.0715
41.6745
35.4513
18.9378
25.3344
35.7179
42.9065
48.4005
50.3193
50.4226
49.0682
46.2295
42.4072
38.2381
34.2234
30.9081
28.0344
26.3724
25.0989
25.6163
26.7791
30.0211
32.3213
53.0268
46.1855
41.0355
34.3134
13.7351
27.696
36.6309
41.5707
44.6447
44.0598
40.6674
34.8274
27.3899
20.0058
12.3205
1.30035
20.8313
21.0417
21.3261
21.3957
5.18703
21.7658
10.3989
2.85938
52.4655
45.4791
40.056
29.9623
20.7125
23.1796
26.972
27.1525
24.8891
16.1101
20.7545
11.3952
10.9651
16.3903
20.0509
24.1657
22.0068
25.0703
27.6749
28.3989
30.4847
28.2099
29.4414
23.0446
52.3412
44.1795
37.4181
21.446
13.8895
11.7663
5.09022
0.134972
6.59743
17.4534
12.2478
22.165
31.5294
36.0684
36.0976
34.5544
36.4072
37.0649
37.9386
38.92
38.8207
40.9899
38.5391
39.7807
54.3841
43.8155
35.4547
17.2285
12.5168
16.5109
6.10759
10.0035
18.9475
24.4788
30.155
37.2729
42.4929
43.3407
43.533
44.0317
42.8122
43.1076
43.7369
44.8454
45.3473
43.8163
44.905
43.7269
56.7549
43.964
34.7322
17.4393
12.9133
19.0136
19.8584
26.3213
29.6595
29.8444
33.2234
39.5406
46.2255
48.353
48.169
46.7844
46.8021
47.0412
47.782
47.5933
48.3861
48.6494
48.1751
48.3244
61.9312
47.6803
38.2038
25.5551
21.9355
28.5223
30.9563
33.1548
35.8582
37.7511
36.385
40.246
44.4935
44.8215
44.5813
44.5734
44.5901
45.2022
45.7726
47.1768
48.2429
48.7469
49.2538
49.3489
60.1017
46.4553
25.0766
2.62072
12.4069
16.6146
34.4528
29.0115
26.8615
22.2035
25.3491
12.7293
23.1657
10.465
16.8851
11.4546
12.9484
10.6687
11.472
9.17339
9.18457
11.4313
10.7525
12.9347
11.4261
17.0072
10.2706
23.2663
12.7448
25.4198
22.2719
26.9614
29.1255
34.4777
16.9432
11.6156
13.4308
24.8656
46.8497
60.413
51.4281
48.3598
38.6675
16.064
12.49
24.2455
28.1031
22.254
22.0713
21.5997
21.6334
19.5377
21.0158
18.6099
20.2454
18.9696
19.7915
20.0549
20.4244
21.0035
21.0106
20.4268
20.0913
19.8198
19.0073
20.3156
18.6443
21.0817
19.5959
21.6796
21.6545
22.1271
22.2884
28.0812
24.3431
12.4799
16.3298
38.7815
48.6312
51.6011
43.7639
45.7253
40.6582
13.5139
12.1108
27.0956
26.8745
25.6013
23.4279
25.4852
25.5962
23.931
24.3768
23.4564
23.478
23.456
23.4285
24.03
24.3314
24.9079
24.9169
24.3497
24.0554
23.4717
23.4948
23.5211
23.5176
24.3986
23.9935
25.6284
25.5303
23.4798
25.6081
26.86
27.1134
12.1438
13.8467
40.8216
45.9213
43.8337
34.7189
41.2828
40.1544
9.61188
9.3763
29.319
28.5918
30.2197
26.9193
28.4516
28.8949
27.3027
26.5738
25.9366
25.3747
25.3737
25.1499
25.6723
26.0211
26.609
26.6213
26.0481
25.7043
25.2001
25.4081
25.4291
25.974
26.6026
27.3639
28.9109
28.5159
26.9459
30.2208
28.565
29.3016
9.31922
10.1399
40.2994
41.4085
34.73
28.0906
36.6553
38.5369
18.4817
13.4389
30.607
31.6538
34.1622
31.9582
32.4492
32.3602
29.5656
28.7361
27.3611
26.671
26.3946
26.1256
26.5946
27.0767
27.7607
27.7758
27.1111
26.6335
26.1795
26.4357
26.7191
27.3955
28.7757
29.606
32.4014
32.4975
31.9757
34.1607
31.6162
30.5693
13.4394
18.5427
38.6635
36.7217
28.0462
28.6312
34.2266
36.6051
9.85826
12.8687
31.8682
34.384
36.6269
36.0048
35.944
35.9926
32.1412
30.5288
28.7608
27.6688
27.2041
27.0426
27.5317
28.274
29.1262
29.144
28.3107
27.5786
27.0927
27.25
27.7091
28.8055
30.553
32.2037
36.0189
35.9974
36.0093
36.6309
34.3303
31.8181
12.8115
9.90167
36.6916
34.2123
28.5507
31.7335
34.1271
34.4968
7.56738
7.45807
32.1349
35.3432
38.1202
37.8936
38.0926
37.5262
33.8517
31.5913
29.677
28.464
28.2159
28.2117
28.9113
29.9116
30.9557
30.9753
29.9546
28.9562
28.273
28.2528
28.5151
29.7001
31.6307
33.8939
37.5584
38.1249
37.8892
38.1263
35.2687
32.0823
7.37876
7.63812
34.5656
34.1348
31.7615
35.1883
36.1237
32.0746
4.2229
15.8667
31.7009
35.7027
38.3886
38.4716
38.343
37.1435
33.3633
31.4679
29.8879
29.1014
29.3468
29.7884
30.6947
31.9675
33.0913
33.1134
32.0099
30.7547
29.8476
29.4027
29.1386
29.9238
31.4844
33.4034
37.1503
38.368
38.4432
38.3828
35.6107
31.5712
15.8134
4.34808
32.1266
36.1178
35.1661
38.6416
37.9898
24.8996
19.6573
11.3547
29.8395
32.6998
37.8577
36.6943
36.6336
34.7223
31.7893
30.5083
30.0357
30.0536
30.9548
31.649
32.8609
34.1722
35.2966
35.317
34.2223
32.9181
31.7295
31.0186
30.1127
30.0664
30.5209
31.8071
34.7143
36.6368
36.6646
37.8409
32.5466
29.7192
11.321
19.6835
25.0755
38.0028
38.6543
38.5465
32.6935
14.8632
17.8077
11.3494
23.2691
32.0175
34.5728
33.5987
33.4783
31.7887
30.5228
30.5632
31.1565
32.0414
32.9636
34.1355
35.1744
36.549
37.4253
37.4448
36.5907
35.239
34.218
33.0448
32.123
31.2085
30.5947
30.5351
31.7684
33.4555
33.5525
34.5038
31.913
22.8432
11.1263
17.8015
14.9881
32.7189
38.3604
30.4092
19.1836
3.75081
9.12182
20.7173
30.714
30.9864
31.1099
30.9878
30.7958
30.881
31.6529
32.442
33.7134
34.579
35.7454
36.8508
37.8005
38.9874
39.562
39.5775
39.0202
37.8648
36.92
35.8456
34.646
33.8134
32.4702
31.7288
30.8456
30.83
30.8948
31.1073
30.77
30.6398
20.2399
8.88644
3.83791
19.1243
29.4989
20.7583
9.87177
16.4905
26.9183
30.8721
30.9663
28.6631
31.3
30.4198
32.3368
33.3248
34.744
35.7436
36.9115
37.7313
38.8606
39.7375
40.5924
41.4016
41.7615
41.7725
41.4364
40.6312
39.8228
38.9258
37.8315
36.9736
35.8334
34.781
33.389
32.3278
30.4669
31.2738
28.6101
30.8957
30.691
26.8894
16.0636
9.49059
21.5937
20.722
21.2804
31.1073
29.8057
28.5441
29.2385
32.3117
33.4825
34.5129
36.7031
37.5098
38.8578
39.5375
40.3484
41.0586
41.8113
42.5778
43.118
43.6836
43.8789
43.8901
43.7141
43.1546
42.6629
41.8716
41.1656
40.4055
39.6427
38.8962
37.5974
36.7066
34.5781
33.4665
32.3288
29.1963
28.3424
29.6874
30.9895
21.3587
20.7016
23.9219
25.182
31.4512
25.0613
27.3874
33.7112
36.1068
37.3498
39.6833
40.4969
41.6779
42.1316
42.7673
43.1077
43.6587
44.1147
44.6933
45.0576
45.4024
45.5442
45.5564
45.4288
45.1065
44.771
44.1984
43.7565
43.1989
42.8605
42.2142
41.7547
40.5526
39.7354
37.3707
36.1176
33.7156
27.2306
24.8495
31.2997
25.0712
24.1172
26.3318
24.5068
29.092
21.7743
28.493
36.1425
38.2344
40.4681
42.1743
42.9941
43.8382
44.0963
44.5604
44.7466
45.1645
45.5154
46.0084
46.3523
46.5774
46.7695
46.7814
46.6028
46.4075
46.0879
45.6123
45.269
44.8561
44.6636
44.2005
43.9257
43.0774
42.2313
40.5192
38.2536
36.1679
28.3928
21.5753
28.9449
24.4107
26.4852
28.3379
22.7371
27.8035
20.2518
25.8534
37.4652
38.2456
41.8502
42.8758
44.0406
44.6753
44.9508
45.3798
45.5397
45.9902
46.3754
46.9484
47.3817
47.569
47.8628
47.8736
47.5949
47.4432
47.0352
46.4829
46.1055
45.6603
45.4952
45.0636
44.7751
44.1283
42.9455
41.8957
38.2955
37.4729
25.7788
20.0823
27.6664
22.6174
28.4437
29.2753
21.2093
27.1583
17.3526
22.2802
36.8431
38.2594
42.0452
43.1432
44.3567
45.0835
45.3288
45.8516
46.0353
46.6258
47.1254
47.8653
48.4408
48.6508
49.0366
49.0477
48.6788
48.5124
47.9678
47.2508
46.7613
46.1718
45.9888
45.4445
45.2156
44.4175
43.2691
42.0484
38.3219
36.908
22.3712
17.157
26.8859
22.174
29.9505
31.5597
22.246
26.4091
15.9195
17.6102
35.5185
38.8193
41.5676
43.6739
44.2294
45.5879
45.4509
46.3899
46.4146
47.3269
47.8797
48.8812
49.6146
49.8947
50.3367
50.3491
49.9273
49.703
49.0049
48.0355
47.4872
46.5873
46.5387
45.6187
45.6776
44.4211
43.5883
41.9556
38.3236
36.297
16.1713
15.8993
26.7078
21.9536
31.2093
33.5615
21.5588
26.7383
17.2085
9.05892
35.2535
38.8573
41.3092
43.9361
44.308
45.7434
45.8291
46.6747
47.0106
47.9079
48.7841
49.9112
50.9204
51.2555
51.7394
51.7534
51.2958
51.025
50.0612
48.9741
48.1037
47.2233
46.8514
46.0419
45.8315
44.5601
43.8206
41.6547
38.7708
35.1837
7.25804
16.5464
26.6037
21.5571
33.6261
33.7293
19.9957
27.0286
19.9124
23.4253
33.3874
39.3301
40.9532
44.1603
44.3091
45.9017
46.1499
46.9466
47.6072
48.5002
49.7106
50.9756
52.2679
52.7583
53.2087
53.2243
52.8074
52.3937
51.1536
49.9375
48.7353
47.8598
47.1698
46.3753
46.0752
44.4617
44.2682
41.0257
39.4182
33.4871
23.5569
19.5254
26.9674
19.9983
33.9228
37.5136
22.9413
27.6399
22.0285
23.325
31.2932
39.4853
40.9722
43.8598
44.6464
45.7407
46.6359
47.0718
48.2993
49.0404
50.7028
52.0504
53.6726
54.3076
54.704
54.7212
54.3628
53.8209
52.2516
50.9725
49.3062
48.6087
47.3128
46.9404
45.8751
44.9374
43.8214
41.167
39.8117
29.9882
19.988
22.3446
27.6437
23.2762
37.7418
39.6379
23.777
27.3073
25.0148
23.6232
28.7794
39.7098
40.6257
43.6571
44.8815
45.6419
46.9849
47.3881
48.8115
49.7369
51.5812
53.1443
55.0189
55.8129
56.1757
56.1829
55.9086
55.125
53.4689
51.7369
50.2512
48.8686
48.0617
46.8279
46.379
44.6455
43.9609
40.8652
39.8812
27.5969
23.2705
24.0405
26.3182
20.8429
38.8882
42.5015
25.0089
25.7974
26.4076
6.42554
23.4324
40.1811
39.8683
44.0535
44.3478
46.2564
46.7507
48.1499
48.9245
50.6473
52.1273
54.2215
56.0819
57.1258
57.422
57.4388
57.1972
56.2703
54.4407
52.5202
50.8666
49.4922
48.1864
47.5166
45.9262
45.3197
43.3313
40.878
39.3896
25.107
1.45192
26.1735
25.0253
23.8238
42.0941
44.5616
27.2645
25.0764
27.1921
12.6193
19.1405
39.2069
40.5834
43.1226
45.0192
45.9818
47.1866
48.3721
49.3002
51.1508
52.6288
54.9026
56.8313
57.9975
58.2637
58.2803
58.0735
57.017
55.1634
52.969
51.5087
49.6896
48.7229
47.5608
46.2004
45.376
43.0222
41.1231
38.693
20.8655
9.58654
26.8856
23.392
25.707
43.7656
27.8652
33.9141
41.7787
44.5503
46.34
46.7246
47.2096
47.1439
47.1473
47.2572
47.8294
48.1879
48.1303
47.5685
47.5628
47.22
46.5592
45.5692
43.5663
44.5217
43.2414
42.4245
41.5586
41.1947
16.7569
34.3933
41.5754
44.4499
46.2038
46.629
47.0844
47.023
47.0394
47.2501
47.8432
48.2054
48.1686
47.5813
47.6004
47.3747
46.7294
45.7866
43.8794
44.8878
43.6626
42.9039
42.0654
41.755
27.9614
34.1565
41.4338
44.3986
46.1193
46.6154
47.0572
47.0271
47.0627
47.3381
47.9001
48.2291
48.2344
47.6212
47.6766
47.5979
46.9574
46.0582
44.2865
45.301
44.1413
43.4322
42.6422
42.3782
44.8326
34.0687
41.3275
44.3786
46.0922
46.6772
47.124
47.1396
47.1926
47.4956
47.9907
48.258
48.3236
47.696
47.799
47.8719
47.2326
46.3747
44.7722
45.7291
44.6522
43.9695
43.2394
43.0133
32.2644
33.8399
41.2842
44.3955
46.1195
46.8164
47.28
47.3494
47.4097
47.7031
48.1235
48.3149
48.4534
47.8307
47.9874
48.1896
47.5575
46.7455
45.3408
46.1812
45.2142
44.5449
43.8936
43.7002
43.4357
34.0487
41.1966
44.4387
46.1895
47.0082
47.4941
47.6162
47.675
47.9392
48.2905
48.4037
48.6202
48.0227
48.2323
48.525
47.9186
47.1603
45.9638
46.6377
45.8009
45.1342
44.5625
44.3966
46.5709
34.3126
41.1176
44.5166
46.2986
47.2474
47.758
47.9316
47.9806
48.2018
48.5031
48.5484
48.8388
48.2836
48.538
48.8731
48.312
47.6181
46.6317
47.1152
46.4259
45.7689
45.2791
45.1402
62.534
35.0466
41.0198
44.6062
46.4358
47.5117
48.0452
48.2649
48.3036
48.485
48.7537
48.7457
49.0998
48.5994
48.8863
49.2257
48.7348
48.1159
47.3263
47.6136
47.073
46.4366
46.0167
45.9043
60.2216
36.2825
40.9659
44.7135
46.601
47.8002
48.3565
48.6224
48.6509
48.7974
49.0479
49.0077
49.408
48.9694
49.2731
49.5852
49.1776
48.6413
48.0345
48.1458
47.7496
47.1568
46.799
46.7153
59.0944
37.0103
40.8638
44.8148
46.7847
48.0978
48.6766
48.9849
49.0097
49.1359
49.3757
49.3214
49.7501
49.3773
49.6861
49.9601
49.6484
49.1989
48.7514
48.7178
48.4482
47.9167
47.608
47.5539
62.552
38.2645
40.8191
44.9169
46.9855
48.4089
49.0138
49.3664
49.3956
49.509
49.7408
49.689
50.1274
49.8194
50.1213
50.3519
50.1336
49.7715
49.4662
49.3301
49.1703
48.7201
48.4555
48.4321
59.2624
39.5081
40.7412
44.9871
47.192
48.7218
49.3579
49.7529
49.7961
49.9093
50.1347
50.0979
50.5299
50.2878
50.5799
50.7758
50.6496
50.3708
50.1861
49.9916
49.9191
49.5597
49.3341
49.3401
61.7629
40.684
40.6923
45.0282
47.3952
49.0375
49.7168
50.1577
50.2248
50.3413
50.5587
50.5462
50.9586
50.778
51.0575
51.2287
51.1833
50.9831
50.9024
50.6887
50.6867
50.4246
50.2397
50.2737
60.1053
42.2845
40.7046
45.0032
47.5786
49.3444
50.0796
50.5657
50.6646
50.7944
51.007
51.0254
51.4131
51.2938
51.5635
51.7202
51.7462
51.6172
51.6246
51.4284
51.4808
51.313
51.1692
51.2276
56.0647
43.0711
40.6924
44.9021
47.7221
49.6345
50.4481
50.9855
51.1256
51.2721
51.4769
51.5284
51.8864
51.8238
52.0877
52.2435
52.327
52.2624
52.342
52.1862
52.2821
52.2038
52.1064
52.1868
61.3664
44.5034
40.7943
44.7106
47.8018
49.8948
50.8102
51.4017
51.5891
51.7565
51.9646
52.0521
52.3831
52.3744
52.6334
52.7934
52.9254
52.9222
53.0672
52.9736
53.1073
53.1089
53.0586
53.1568
56.2901
45.0785
40.8565
44.3923
47.7835
50.1062
51.1583
51.8157
52.0573
52.2568
52.4656
52.5836
52.8903
52.9328
53.1946
53.3705
53.5357
53.584
53.777
53.7525
53.9193
53.9925
53.994
54.1088
61.1477
46.1425
41.0635
43.9649
47.6383
50.2485
51.4799
52.2154
52.52
52.7464
52.9666
53.1222
53.4109
53.4961
53.7554
53.9503
54.1471
54.2526
54.4952
54.5479
54.7484
54.8832
54.9354
55.0637
56.51
46.5831
41.1995
43.3845
47.3174
50.2868
51.7569
52.5948
52.9613
53.2323
53.4766
53.6567
53.9329
54.061
54.3254
54.5382
54.749
54.8975
55.173
55.3007
55.5362
55.7268
55.8308
55.9736
61.7215
47.683
41.5112
42.6956
46.7777
50.1856
51.9688
52.9441
53.3907
53.6975
53.9536
54.1696
54.4409
54.5988
54.8618
55.103
55.3372
55.5387
55.8517
56.0525
56.3257
56.5657
56.7188
56.8741
56.2046
47.8831
41.7482
41.8935
45.9503
49.8883
52.0814
53.2528
53.8032
54.1579
54.4354
54.6729
54.9402
55.1276
55.3954
55.6597
55.9142
56.1631
56.5077
56.7738
57.0837
57.3669
57.5659
57.7341
60.5595
48.6609
42.0891
41.0315
44.7984
49.3186
52.0558
53.4981
54.1819
54.5961
54.9012
55.158
55.4265
55.6386
55.9123
56.1957
56.4714
56.7652
57.1387
57.4653
57.815
58.139
58.3806
58.5611
54.2809
48.478
42.335
40.1409
43.2008
48.3733
51.8277
53.6547
54.5191
55.0157
55.3563
55.63
55.8985
56.1281
56.4079
56.7032
56.9997
57.3298
57.7264
58.1062
58.4935
58.854
59.1346
59.3273
56.583
48.3872
42.5084
39.2511
41.2229
46.8458
51.3016
53.6777
54.7907
55.3859
55.7692
56.0629
56.3327
56.5719
56.8551
57.1564
57.4786
57.8402
58.2536
58.6805
59.1053
59.502
59.8197
60.0258
54.7613
48.5532
42.664
38.394
38.8453
44.6041
50.3378
53.5169
54.9877
55.7166
56.1583
56.4665
56.7326
56.9762
57.2595
57.5504
57.8931
58.2784
58.7065
59.1814
59.6413
60.0707
60.4216
60.6372
55.3507
48.1513
42.6414
37.5618
36.082
41.3466
48.6219
53.0654
55.0496
55.9573
56.4627
56.7971
57.0535
57.286
57.5692
57.8495
58.2197
58.6188
59.0495
59.5669
60.0601
60.5232
60.9068
61.1327
60.0224
48.382
42.5717
36.7037
32.9034
36.4397
45.8954
52.2068
54.9671
56.1431
56.7293
57.072
57.3163
57.5344
57.8028
58.0504
58.4421
58.8419
59.2649
59.8232
60.342
60.8346
61.2508
61.4866
53.725
47.7102
42.2653
35.743
29.1079
28.1536
41.3389
50.6413
54.627
56.1571
56.8548
57.224
57.4398
57.6268
57.8696
58.0583
58.4492
58.8302
59.226
59.8259
60.3676
60.8947
61.348
61.5954
58.2883
47.7547
41.9956
34.7233
24.7591
15.7457
33.6598
48.1945
54.0338
56.0724
56.8943
57.2622
57.4322
57.5462
57.7237
57.8316
58.2089
58.5388
58.8753
59.5049
60.0579
60.6206
61.1253
61.3952
57.9182
47.094
41.5141
33.9509
22.1712
9.74604
24.261
44.8372
53.0171
55.6965
56.6754
57.0437
57.1217
57.14
57.1975
57.1202
57.4073
57.6484
57.89
58.5606
59.1214
59.7317
60.3029
60.5998
58.7305
47.3952
41.4479
33.8553
23.4291
17.044
22.2374
41.8334
51.8757
55.1762
56.2332
56.5289
56.4444
56.209
56.0611
55.7714
55.923
56.0008
56.0727
56.7566
57.2974
57.9568
58.6272
58.9759
56.9725
47.2951
41.5925
34.3773
24.9697
20.4114
27.2643
40.8114
50.7529
54.1994
55.2696
55.3784
54.9812
54.4134
53.9045
53.2232
53.0345
52.7559
52.4505
53.0026
53.4396
54.1797
55.069
55.5889
55.014
46.7566
41.4689
34.9463
23.2774
22.3901
32.0994
42.0304
50.0274
52.8612
53.5422
53.2454
52.3572
51.1002
49.6577
47.9287
46.6968
45.4902
44.3398
44.3672
44.5868
45.4904
47.0107
48.1021
53.5666
46.3615
41.4123
35.4327
18.9369
25.3829
35.7715
42.9462
48.4309
50.346
50.4499
49.0846
46.2038
42.359
38.2986
34.2338
31.0603
28.4205
26.0889
25.411
25.6782
26.5649
29.9638
31.8375
52.341
45.6649
40.7891
34.2847
13.7021
27.7297
36.6689
41.6019
44.6758
44.0976
40.712
34.8703
27.4276
19.9604
12.4503
1.6944
20.8171
21.0274
21.345
21.4007
5.32821
21.6524
10.1602
2.62411
52.1549
45.2327
39.9654
30.0082
20.7213
23.2469
27.0142
27.1734
24.8911
16.4305
20.6247
11.3107
11.1057
16.2703
20.0544
24.1799
22.1107
25.1234
27.6326
28.5559
30.4711
27.8247
29.4212
23.2649
52.1608
44.0488
37.3455
21.3642
13.8668
11.7194
4.87115
2.30791
6.5905
15.4991
9.49789
21.9666
31.6312
35.999
36.0835
34.5532
36.422
37.0953
37.9114
38.9626
38.7988
41.0036
38.5057
39.7011
54.2515
43.778
35.4741
17.2986
12.3917
16.6168
7.11078
17.1015
14.0013
22.6082
30.3836
36.9841
42.4801
43.2945
43.4939
44.0031
42.7902
43.1011
43.7409
44.7727
45.3023
43.9246
44.9356
43.7364
56.5059
43.8805
34.6746
17.2923
13.3732
19.9356
21.021
27.0418
30.537
31.46
33.3025
39.4826
46.0889
48.2989
48.1098
46.7376
46.7629
47.0853
47.7699
47.5173
48.3312
48.8826
48.2501
48.4123
61.6543
47.5838
38.2348
25.6598
22.1366
28.7154
30.8775
32.7685
35.4672
36.6815
35.8507
40.702
44.2647
44.6965
44.4748
44.4871
44.4321
45.3309
45.7262
47.044
48.1425
48.994
49.3883
49.8607
20.768
15.3307
18.6185
4.85675
16.2722
2.7281
11.1703
12.0543
9.42924
13.6764
7.20585
12.1232
7.38114
6.64356
10.1213
6.02773
8.21528
7.56332
4.63985
4.53892
4.63892
4.6112
5.56935
8.12083
0.89888
10.0519
6.27008
11.7522
5.03958
7.12916
5.69696
11.6401
5.19705
12.2506
14.1322
16.6392
16.314
14.2649
26.3746
38.3248
33.6782
31.8273
30.3146
28.9107
27.3446
25.6013
24.1118
22.4318
21.3131
19.9124
18.769
17.6689
16.7385
16.1103
14.8736
14.9618
13.7893
14.0419
12.7727
13.0365
13.1914
13.1166
13.6738
13.5287
15.0184
15.0083
16.1623
17.0244
17.7198
18.972
19.9672
21.5345
22.2524
24.6693
24.7015
28.433
27.7967
31.1025
31.7064
32.9799
41.3372
39.6831
38.7054
37.0858
36.1223
34.6574
33.6943
32.3436
31.4699
30.3046
29.5364
28.6737
27.8938
27.255
26.6293
26.1083
25.8303
25.5513
25.2378
25.15
25.204
25.3122
25.485
25.903
26.2882
26.7359
27.3801
27.9422
28.7465
29.623
30.369
31.4798
32.4504
33.5164
34.8436
35.8438
37.2497
38.6147
39.7137
41.4361
44.0101
42.4157
41.2085
39.7429
38.5606
37.2021
36.0471
34.8707
33.75
32.8649
31.816
31.1362
30.2562
29.7134
28.9844
28.6102
28.1411
28.0367
27.6073
27.6018
27.6697
27.7295
27.9837
28.2045
28.7161
29.0772
29.7296
30.3155
31.1809
31.8521
32.8929
33.7665
34.8025
36.0456
37.0857
38.5831
39.7153
41.2806
42.5115
44.1524
45.8245
44.3678
43.1882
41.8574
40.7121
39.4975
38.3752
37.2551
36.2125
35.2447
34.3783
33.5882
32.8571
32.256
31.6058
31.1374
30.757
30.5687
30.2747
30.1995
30.2653
30.3605
30.5583
30.8681
31.2933
31.6621
32.2992
32.8904
33.6212
34.4154
35.234
36.1909
37.2186
38.3074
39.4695
40.698
41.8984
43.2804
44.508
46.0213
46.175
44.7886
43.5693
42.3
41.1294
39.9673
38.8525
37.8084
36.7577
35.9021
34.9369
34.275
33.4571
32.9708
32.3126
31.8784
31.4468
31.3048
30.995
30.9517
31.0272
31.105
31.3201
31.569
31.9894
32.3639
32.9737
33.4974
34.2967
34.9326
35.8856
36.7204
37.742
38.7952
39.9234
41.1276
42.338
43.6802
44.9572
46.4362
46.7059
45.4345
44.2413
43.0572
41.8917
40.7793
39.6587
38.6466
37.5968
36.7461
35.8317
35.1205
34.383
33.8324
33.2168
32.7753
32.3483
32.1616
31.9062
31.8272
31.9134
32.0106
32.2076
32.4839
32.9127
33.2463
33.8686
34.4197
35.1462
35.8476
36.7196
37.5469
38.5867
39.5991
40.739
41.883
43.0863
44.3616
45.6387
47.0538
46.6592
45.4709
44.3014
43.1705
41.9975
40.9013
39.7631
38.7856
37.7369
36.916
35.9585
35.287
34.5099
34.0283
33.4008
32.9671
32.5176
32.3329
32.0706
32.0033
32.1038
32.1991
32.4055
32.6728
33.0711
33.457
34.0633
34.5705
35.3185
35.9638
36.8767
37.6757
38.7241
39.7005
40.8497
41.9627
43.177
44.4487
45.7546
47.1711
46.6781
45.5903
44.4791
43.4493
42.3014
41.2376
40.0591
39.085
38.0367
37.2364
36.2752
35.5746
34.8123
34.2821
33.6882
33.2798
32.8014
32.578
32.3445
32.2509
32.3692
32.4829
32.675
32.9609
33.4104
33.7518
34.3611
34.8762
35.6049
36.2982
37.1928
37.9725
39.0343
39.9876
41.1499
42.2137
43.4428
44.6959
46.0116
47.3967
46.6716
45.5026
44.3436
43.3223
42.2179
41.2167
40.0306
39.0211
37.9677
37.1737
36.2224
35.5098
34.7291
34.2179
33.5809
33.209
32.7216
32.4798
32.2343
32.1446
32.2791
32.3986
32.5882
32.9165
33.3176
33.6884
34.3137
34.8026
35.5529
36.258
37.1181
37.8919
38.9684
39.9195
41.0609
42.096
43.3678
44.6252
45.9695
47.3088
47.1543
45.8145
44.4997
43.3339
42.142
41.1477
40.0255
39.0551
37.9175
37.138
36.2196
35.5097
34.6813
34.1907
33.5316
33.1759
32.6783
32.4148
32.1802
32.0708
32.2158
32.3476
32.5333
32.8826
33.2922
33.6578
34.3113
34.7501
35.5548
36.2354
37.0307
37.7941
38.9245
39.8243
40.911
41.9621
43.2487
44.4927
45.8141
47.107
47.4657
46.0196
44.6029
43.3256
42.0144
40.9511
39.7931
38.8863
37.7477
36.903
35.9948
35.339
34.4817
33.975
33.3144
32.9522
32.4748
32.1987
31.9453
31.8462
31.9785
32.104
32.3086
32.6936
33.0255
33.4227
34.1281
34.4755
35.4003
35.8807
36.6476
37.53
38.6175
39.4978
40.6073
41.68
42.9523
44.1802
45.5075
46.8268
47.4096
45.9887
44.6065
43.3533
42.0197
40.8547
39.5607
38.5947
37.5326
36.7597
35.735
35.0579
34.3481
33.737
33.0977
32.7437
32.2646
32.0202
31.7564
31.6595
31.7439
31.855
32.1187
32.4314
32.696
33.2139
33.8432
34.2646
35.0523
35.3864
36.2986
37.2191
38.345
39.2488
40.3521
41.3742
42.5723
43.7498
45.0694
46.4271
46.8678
45.4842
44.0875
42.8905
41.6284
40.596
39.3646
38.3421
37.1929
36.4623
35.4926
34.7152
34.017
33.5028
32.7593
32.4868
31.9691
31.773
31.5164
31.4318
31.4398
31.525
31.8619
31.9397
32.3827
32.8332
33.5026
33.9396
34.5735
35.1134
36.1622
37.1195
38.3043
39.2451
40.3653
41.3361
42.5501
43.7219
45.092
46.4407
46.8418
45.4257
43.9709
42.6827
41.3246
40.2251
38.9959
38.0254
36.8563
36.0782
35.051
34.4429
33.5234
33.0977
32.4075
32.0355
31.6189
31.3614
31.162
31.0664
31.0357
31.1317
31.3294
31.5309
32.0322
32.3387
33.0321
33.5452
34.4663
35.191
36.262
37.0665
38.1794
39.2002
40.4988
41.7602
43.1546
44.532
45.9674
47.4332
46.4298
45.0077
43.5668
42.2639
40.8979
39.7546
38.4817
37.5128
36.3198
35.5689
34.435
33.8836
32.9308
32.4686
31.768
31.4207
30.9465
30.754
30.4796
30.4157
30.422
30.4468
30.6727
30.9093
31.3914
31.7514
32.4558
32.9075
33.8328
34.4127
35.4606
36.2576
37.4027
38.3536
39.6208
40.7359
42.0686
43.3344
44.7454
46.1765
45.7511
44.3292
42.8705
41.5789
40.1866
39.0472
37.7486
36.7892
35.5846
34.804
33.7212
33.0827
32.1661
31.6632
30.9182
30.5752
30.0171
29.8292
29.5052
29.441
29.5013
29.5809
29.8793
30.0875
30.5974
30.9562
31.6764
32.1968
33.098
33.7564
34.8485
35.6435
36.874
37.8723
39.1719
40.3513
41.7434
43.0677
44.5287
45.9663
44.7213
43.3183
41.824
40.5522
39.126
38.0073
36.6999
35.7865
34.636
33.9056
32.823
32.2391
31.2677
30.8194
29.9643
29.6851
28.9868
28.8549
28.4254
28.3743
28.4917
28.5377
28.9189
29.0839
29.6607
29.9948
30.7542
31.2465
32.1729
32.8354
33.9278
34.7534
35.9949
36.9903
38.3312
39.5219
40.9432
42.2775
43.7587
45.2049
42.6771
41.3748
39.8545
38.6082
37.1304
36.0202
34.7485
33.9588
32.9528
32.38
31.4069
30.8613
29.9193
29.4875
28.5299
28.158
27.3342
27.0541
26.5906
26.4202
26.6839
26.9263
27.4684
27.5745
28.2257
28.5251
29.3347
29.7946
30.7768
31.4512
32.6059
33.4671
34.7513
35.7793
37.1961
38.3984
39.8813
41.2205
42.7589
44.2286
43.5399
42.0865
40.5109
39.1847
37.678
36.4775
35.0301
33.951
32.5662
31.6255
30.3787
29.6234
28.5835
28.052
27.2961
26.9724
26.5012
26.4255
26.2323
26.4016
26.1879
26.0822
26.2884
26.3714
26.9828
27.3035
28.1038
28.5864
29.6058
30.3234
31.5238
32.4019
33.6915
34.7128
36.0896
37.2747