/*--------------------------------*- C++ -*----------------------------------*\
  =========                 |
  \\      /  F ield         | OpenFOAM: The Open Source CFD Toolbox
   \\    /   O peration     | Website:  https://openfoam.org
    \\  /    A nd           | Version:  6
     \\/     M anipulation  |
\*---------------------------------------------------------------------------*/
FoamFile
{
    version     2.0;
    format      ascii;
    class       volScalarField;
    location    "39";
    object      omega;
}
// * * * * * * * * * * * * * * * * * * * * * * * * * * * * * * * * * * * * * //

dimensions      [0 0 -1 0 0 0 0];

internalField   nonuniform List<scalar> 
380496
(
843.917
843.917
843.917
843.917
843.917
843.917
843.917
843.917
843.917
843.917
843.917
843.917
843.917
843.917
843.917
843.917
843.917
843.917
843.917
843.917
843.917
843.917
843.917
843.917
843.917
843.917
843.917
843.917
843.917
843.917
843.917
843.917
843.917
843.917
843.917
843.917
843.917
843.917
843.917
843.917
843.917
843.917
843.917
843.917
843.917
843.917
843.917
843.917
843.917
843.917
843.917
843.917
843.917
843.917
843.917
843.917
843.917
843.917
843.917
843.917
843.917
843.917
843.917
843.917
843.917
843.917
843.917
843.917
843.917
843.917
843.917
843.917
843.917
843.917
843.917
843.917
843.917
843.917
843.917
843.917
843.917
843.917
843.917
843.917
843.917
843.917
843.917
843.917
843.917
843.917
843.917
843.917
843.917
843.917
843.917
843.917
843.917
843.917
843.917
843.917
843.917
843.917
843.917
843.917
843.917
843.917
843.917
843.917
843.917
843.917
843.917
843.917
843.917
843.917
843.917
843.917
843.917
843.917
843.917
843.917
843.917
843.917
843.917
843.917
843.917
843.917
843.917
843.917
843.917
843.917
843.917
843.917
843.917
843.917
843.917
843.917
843.917
843.917
843.917
843.917
843.917
843.917
843.917
843.917
843.917
843.917
843.917
843.917
843.917
843.917
843.917
843.917
843.917
843.917
843.917
843.917
843.917
843.917
843.917
843.917
843.917
843.917
843.917
843.917
843.917
843.917
843.917
843.917
843.917
843.917
843.917
843.917
843.917
843.917
843.917
843.917
843.917
843.917
843.917
843.917
843.917
843.917
843.917
843.917
843.917
843.917
843.917
843.917
843.917
843.917
843.917
843.917
843.917
843.917
843.917
843.917
843.917
843.917
843.917
843.917
843.917
843.917
843.917
843.917
843.917
843.917
843.917
843.917
843.917
843.917
843.917
843.917
843.917
843.917
843.917
843.917
843.917
843.917
843.917
843.917
843.917
843.917
843.917
843.917
843.917
843.917
843.917
843.917
843.917
843.917
843.917
843.917
843.917
843.917
843.917
843.917
843.917
843.917
843.917
843.917
843.917
843.917
843.917
843.917
843.917
843.917
843.917
843.917
843.917
843.917
843.917
843.917
843.917
843.917
843.917
843.917
843.917
843.917
843.917
843.917
843.917
843.917
843.917
843.917
843.917
843.917
843.917
843.917
843.917
843.917
843.917
843.917
843.917
843.917
843.917
843.917
843.917
843.917
843.917
843.917
843.917
843.917
843.917
843.917
843.917
843.917
843.917
843.917
843.917
843.917
843.917
843.917
843.917
843.917
843.917
843.917
843.917
843.917
843.917
843.917
843.917
843.917
843.917
843.917
843.917
843.917
843.917
843.917
843.917
843.917
843.917
843.917
843.917
843.917
843.917
843.917
843.917
843.917
843.917
843.917
843.917
843.917
843.917
843.917
843.917
843.917
843.917
843.917
843.917
843.917
843.917
843.917
843.917
843.917
843.917
843.917
843.917
843.917
843.917
843.917
843.917
843.917
843.917
843.917
843.917
843.917
843.917
843.917
843.917
843.917
843.917
843.917
843.917
843.917
843.917
843.917
843.917
843.917
843.917
843.917
843.917
843.917
843.917
843.917
843.917
843.917
843.917
843.917
843.917
843.917
843.917
843.917
843.917
843.917
843.917
843.917
843.917
843.917
843.917
843.917
843.917
843.917
843.917
843.917
843.917
843.917
843.917
843.917
843.917
843.917
843.917
843.917
843.917
843.917
843.917
843.917
843.917
843.917
843.917
843.917
843.917
843.917
843.917
843.917
843.917
843.917
843.917
843.917
843.917
843.917
843.917
843.917
843.917
843.917
843.917
843.917
843.917
843.917
843.917
843.917
843.917
843.917
843.917
843.917
843.917
843.917
843.917
843.917
843.917
843.917
843.917
843.917
843.917
843.917
843.917
843.917
843.917
843.917
843.917
843.917
843.917
843.917
843.917
843.917
843.917
843.917
843.917
843.917
843.917
843.917
843.917
843.917
843.917
843.917
843.917
843.917
843.917
843.917
843.917
843.917
843.917
843.917
843.917
843.917
843.917
843.917
843.917
843.917
843.917
843.917
843.917
843.917
843.917
843.917
843.917
843.917
843.917
843.917
843.917
843.917
843.917
843.917
843.917
843.917
843.917
843.917
843.917
843.917
843.917
843.917
843.917
843.917
843.917
843.917
843.917
843.917
843.917
843.917
843.917
843.917
843.917
843.917
843.917
843.917
843.917
843.917
843.917
843.917
843.917
843.917
843.917
843.917
843.917
843.917
843.917
843.917
843.917
843.917
843.917
843.917
843.917
843.917
843.917
843.917
843.917
843.917
843.917
843.917
843.917
843.917
843.917
843.917
843.917
843.917
843.917
843.917
843.917
843.917
843.917
843.917
843.917
843.917
843.917
843.917
843.917
843.917
843.917
843.917
843.917
843.917
843.917
843.917
843.917
843.917
843.917
843.917
843.917
843.917
843.917
843.917
843.917
843.917
843.917
843.917
843.917
843.917
843.917
843.917
843.917
843.917
843.917
843.917
843.917
843.917
843.917
843.917
843.917
843.917
843.917
843.917
843.917
843.917
843.917
843.917
843.917
843.917
843.917
843.917
843.917
843.917
843.917
843.917
843.917
843.917
843.917
843.917
843.917
843.917
843.917
843.917
843.917
843.917
843.917
843.917
843.917
843.917
843.917
843.917
843.917
843.917
843.917
843.917
843.917
843.917
843.917
843.917
843.917
843.917
843.917
843.917
843.917
843.917
843.917
843.917
843.917
843.917
843.917
843.917
843.917
843.917
843.917
843.917
843.917
843.917
843.917
843.917
843.917
843.917
843.917
843.917
843.917
843.917
843.917
843.917
843.917
843.917
843.917
843.917
843.917
843.917
843.917
843.917
843.917
843.917
843.917
843.917
843.917
843.917
843.917
843.917
843.917
843.917
843.917
843.917
843.917
843.917
843.917
843.917
843.917
843.917
843.917
843.917
843.917
843.917
843.917
843.917
843.917
843.917
843.917
843.917
843.917
843.917
843.917
843.917
843.917
843.917
843.917
843.917
843.917
843.917
843.917
843.917
843.917
843.917
843.917
843.917
843.917
843.917
843.917
843.917
423.923
423.923
423.923
423.923
423.923
423.923
423.923
423.923
423.923
423.923
423.923
423.923
423.923
423.923
423.923
423.923
423.923
423.923
423.923
423.923
423.923
423.923
423.923
423.923
423.923
423.923
423.923
423.923
423.923
423.923
423.923
423.923
423.923
423.923
423.923
281.629
267.586
268.728
269.812
269.911
269.755
269.647
269.579
269.546
269.521
269.51
269.501
269.502
269.503
269.509
269.518
269.529
269.544
269.558
269.578
269.596
269.62
269.643
269.671
269.698
269.732
269.763
269.803
269.838
269.884
269.921
269.975
270.005
270.078
270.077
281.466
267.571
268.65
269.688
269.76
269.6
269.484
269.419
269.38
269.36
269.346
269.345
269.343
269.354
269.358
269.378
269.387
269.414
269.426
269.461
269.476
269.517
269.536
269.583
269.606
269.661
269.687
269.75
269.778
269.85
269.876
269.957
269.964
270.078
269.975
281.132
267.396
268.476
269.48
269.526
269.358
269.237
269.173
269.135
269.12
269.109
269.115
269.117
269.137
269.147
269.177
269.193
269.231
269.252
269.299
269.325
269.38
269.41
269.474
269.509
269.582
269.621
269.705
269.746
269.841
269.878
269.99
270.004
270.159
270.065
280.564
267.017
268.178
269.155
269.168
268.986
268.86
268.798
268.763
268.754
268.749
268.763
268.773
268.802
268.821
268.861
268.887
268.937
268.969
269.028
269.065
269.134
269.177
269.256
269.304
269.394
269.446
269.548
269.603
269.716
269.769
269.898
269.927
270.104
270.016
280.147
266.781
267.83
268.738
268.73
268.544
268.418
268.356
268.323
268.317
268.318
268.337
268.355
268.391
268.419
268.467
268.504
268.564
268.607
268.678
268.728
268.811
268.867
268.962
269.025
269.132
269.201
269.321
269.393
269.528
269.597
269.751
269.795
270.007
269.923
279.34
266.189
267.275
268.137
268.096
267.898
267.773
267.716
267.691
267.695
267.706
267.736
267.766
267.813
267.854
267.915
267.965
268.038
268.095
268.181
268.246
268.345
268.417
268.529
268.608
268.734
268.82
268.959
269.049
269.204
269.292
269.469
269.529
269.77
269.692
278.499
265.571
266.593
267.385
267.316
267.111
266.987
266.934
266.917
266.928
266.95
266.99
267.031
267.089
267.143
267.216
267.279
267.365
267.438
267.538
267.618
267.732
267.822
267.951
268.048
268.192
268.296
268.456
268.565
268.742
268.849
269.049
269.127
269.4
269.328
277.443
264.752
265.708
266.424
266.325
266.115
265.995
265.95
265.943
265.965
265.998
266.05
266.104
266.174
266.241
266.327
266.405
266.505
266.592
266.707
266.804
266.934
267.041
267.187
267.302
267.464
267.587
267.767
267.894
268.092
268.218
268.441
268.536
268.837
268.77
276.189
263.733
264.631
265.266
265.136
264.922
264.81
264.777
264.784
264.821
264.87
264.936
265.005
265.089
265.171
265.271
265.364
265.479
265.582
265.712
265.826
265.972
266.096
266.259
266.392
266.573
266.714
266.912
267.058
267.275
267.42
267.665
267.776
268.104
268.042
274.955
262.704
263.452
263.998
263.846
263.634
263.531
263.506
263.525
263.571
263.632
263.709
263.79
263.885
263.98
264.091
264.197
264.324
264.441
264.584
264.712
264.873
265.012
265.191
265.34
265.536
265.694
265.909
266.072
266.307
266.467
266.731
266.857
267.209
267.149
273.277
261.26
261.956
262.423
262.242
262.035
261.95
261.946
261.987
262.055
262.136
262.231
262.33
262.442
262.553
262.679
262.801
262.943
263.076
263.235
263.379
263.556
263.711
263.906
264.072
264.286
264.46
264.692
264.872
265.125
265.302
265.584
265.724
266.099
266.041
271.661
259.851
260.314
260.676
260.48
260.281
260.21
260.219
260.272
260.352
260.445
260.551
260.663
260.785
260.909
261.047
261.182
261.336
261.483
261.655
261.814
262.004
262.176
262.385
262.567
262.796
262.987
263.236
263.432
263.701
263.894
264.193
264.346
264.743
264.686
269.373
257.805
258.188
258.471
258.256
258.078
258.039
258.082
258.167
258.274
258.393
258.522
258.654
258.796
258.938
259.093
259.246
259.416
259.581
259.768
259.945
260.151
260.34
260.566
260.766
261.012
261.221
261.486
261.699
261.985
262.194
262.511
262.679
263.097
263.041
267.103
255.735
255.826
256.001
255.78
255.623
255.608
255.672
255.777
255.902
256.039
256.183
256.331
256.487
256.644
256.812
256.981
257.164
257.345
257.546
257.74
257.96
258.167
258.408
258.626
258.888
259.114
259.396
259.626
259.929
260.154
260.487
260.669
261.107
261.052
264.032
252.898
252.816
252.915
252.695
252.581
252.615
252.724
252.867
253.026
253.192
253.362
253.533
253.71
253.888
254.074
254.262
254.462
254.662
254.88
255.093
255.33
255.556
255.813
256.051
256.329
256.575
256.873
257.122
257.441
257.684
258.034
258.232
258.689
258.635
260.551
249.614
249.241
249.266
249.062
248.999
249.081
249.236
249.415
249.609
249.802
249.997
250.191
250.388
250.584
250.788
250.994
251.21
251.427
251.66
251.891
252.143
252.388
252.661
252.918
253.212
253.477
253.792
254.06
254.395
254.656
255.021
255.235
255.709
255.655
256.377
245.608
244.857
244.799
244.625
244.631
244.77
244.975
245.189
245.415
245.63
245.85
246.059
246.274
246.484
246.704
246.922
247.152
247.383
247.63
247.877
248.143
248.405
248.692
248.968
249.276
249.561
249.891
250.179
250.529
250.811
251.191
251.426
251.917
251.871
249.996
239.625
238.825
238.817
238.705
238.806
239.031
239.31
239.579
239.855
240.101
240.353
240.58
240.818
241.039
241.276
241.503
241.75
241.991
242.254
242.513
242.796
243.075
243.381
243.676
244.006
244.313
244.67
244.982
245.362
245.668
246.078
246.339
246.848
246.841
240.798
231.46
230.487
230.649
230.708
230.942
231.238
231.55
231.826
232.099
232.333
232.575
232.788
233.021
233.232
233.472
233.694
233.949
234.191
234.466
234.73
235.028
235.317
235.654
235.985
236.353
236.705
237.096
237.462
237.871
238.235
238.67
238.997
239.518
239.623
214.293
212.124
212.376
213.29
213.91
214.63
215.336
215.993
216.577
217.128
217.625
218.113
218.563
219.021
219.449
219.895
220.315
220.76
221.181
221.632
222.061
222.521
222.96
223.43
223.878
224.353
224.809
225.285
225.746
226.216
226.675
227.127
227.58
227.961
228.586
9.02103
7.66119
7.58769
7.55355
7.60474
7.67514
7.76536
7.85572
7.95546
8.04635
8.14191
8.22595
8.31434
8.3911
8.47369
8.54506
8.62422
8.69214
8.77009
8.83577
8.91437
8.97818
9.05912
9.12015
9.2052
9.26118
9.35293
9.39982
9.50226
9.53309
9.65285
9.65472
9.80352
9.74693
9.94442
135.248
128.88
128.553
129.047
129.243
129.234
129.178
129.124
129.082
129.049
129.024
129.006
128.993
128.984
128.979
128.978
128.979
128.982
128.988
128.996
129.006
129.018
129.032
129.048
129.067
129.088
129.113
129.14
129.172
129.205
129.246
129.289
129.339
129.397
129.457
135.076
128.679
128.314
128.784
128.967
128.953
128.893
128.837
128.793
128.76
128.735
128.718
128.707
128.701
128.699
128.7
128.705
128.711
128.722
128.733
128.748
128.763
128.784
128.803
128.83
128.853
128.887
128.914
128.957
128.99
129.041
129.082
129.133
129.203
129.207
134.794
128.386
128.006
128.461
128.635
128.616
128.553
128.496
128.452
128.421
128.399
128.385
128.377
128.375
128.377
128.383
128.393
128.406
128.422
128.44
128.462
128.485
128.514
128.541
128.576
128.608
128.652
128.688
128.743
128.783
128.849
128.896
128.965
129.04
129.07
134.361
127.975
127.614
128.066
128.229
128.201
128.135
128.077
128.034
128.005
127.986
127.977
127.973
127.976
127.984
127.996
128.012
128.031
128.053
128.078
128.107
128.136
128.172
128.207
128.25
128.289
128.341
128.385
128.447
128.495
128.567
128.623
128.694
128.781
128.804
134.043
127.65
127.239
127.654
127.8
127.765
127.695
127.635
127.591
127.562
127.544
127.536
127.535
127.542
127.553
127.569
127.589
127.613
127.641
127.671
127.706
127.742
127.784
127.826
127.876
127.923
127.982
128.034
128.104
128.16
128.241
128.305
128.384
128.48
128.511
133.489
127.122
126.721
127.123
127.254
127.21
127.135
127.075
127.033
127.008
126.994
126.992
126.997
127.009
127.026
127.048
127.075
127.105
127.14
127.177
127.219
127.263
127.312
127.361
127.419
127.474
127.54
127.6
127.677
127.741
127.828
127.901
127.983
128.091
128.12
132.924
126.585
126.16
126.53
126.64
126.585
126.506
126.444
126.403
126.38
126.37
126.372
126.381
126.398
126.42
126.448
126.481
126.517
126.558
126.602
126.65
126.7
126.757
126.813
126.878
126.94
127.014
127.081
127.165
127.238
127.331
127.412
127.5
127.618
127.648
132.247
125.943
125.497
125.832
125.919
125.853
125.768
125.706
125.666
125.647
125.641
125.648
125.662
125.685
125.713
125.747
125.785
125.828
125.875
125.925
125.98
126.037
126.1
126.164
126.235
126.305
126.385
126.46
126.551
126.631
126.73
126.819
126.91
127.039
127.066
131.463
125.209
124.748
125.046
125.108
125.028
124.94
124.878
124.842
124.828
124.828
124.841
124.862
124.891
124.926
124.966
125.011
125.06
125.114
125.171
125.232
125.296
125.366
125.437
125.515
125.592
125.679
125.761
125.858
125.945
126.05
126.147
126.242
126.38
126.406
130.701
124.496
123.979
124.226
124.26
124.169
124.077
124.015
123.981
123.97
123.975
123.992
124.018
124.052
124.092
124.138
124.187
124.242
124.301
124.364
124.431
124.501
124.576
124.653
124.737
124.82
124.913
125.002
125.105
125.198
125.308
125.412
125.509
125.657
125.679
129.711
123.569
123.043
123.253
123.259
123.155
123.061
123.003
122.976
122.974
122.987
123.013
123.047
123.089
123.136
123.189
123.246
123.308
123.373
123.443
123.516
123.593
123.675
123.758
123.849
123.939
124.038
124.133
124.242
124.342
124.457
124.568
124.668
124.826
124.845
128.745
122.677
122.061
122.198
122.171
122.054
121.957
121.901
121.878
121.88
121.898
121.929
121.969
122.016
122.069
122.127
122.19
122.257
122.328
122.403
122.483
122.566
122.653
122.743
122.839
122.936
123.041
123.143
123.257
123.364
123.484
123.601
123.705
123.872
123.888
127.449
121.461
120.821
120.915
120.856
120.729
120.635
120.587
120.575
120.589
120.619
120.661
120.711
120.768
120.829
120.896
120.966
121.041
121.12
121.203
121.289
121.379
121.474
121.571
121.674
121.778
121.89
121.999
122.12
122.233
122.359
122.484
122.591
122.768
122.78
126.136
120.248
119.484
119.489
119.391
119.252
119.159
119.117
119.113
119.135
119.174
119.224
119.282
119.346
119.415
119.489
119.566
119.648
119.733
119.823
119.916
120.013
120.114
120.219
120.329
120.439
120.558
120.674
120.802
120.923
121.054
121.187
121.297
121.484
121.492
124.43
118.648
117.81
117.751
117.618
117.472
117.388
117.361
117.373
117.411
117.464
117.527
117.596
117.672
117.751
117.834
117.92
118.011
118.104
118.202
118.303
118.408
118.517
118.629
118.747
118.866
118.992
119.116
119.251
119.38
119.518
119.659
119.773
119.972
119.975
122.481
116.821
115.841
115.697
115.526
115.377
115.303
115.292
115.32
115.374
115.441
115.518
115.6
115.686
115.775
115.867
115.962
116.061
116.162
116.267
116.376
116.488
116.605
116.725
116.851
116.977
117.111
117.243
117.385
117.522
117.667
117.816
117.935
118.145
118.142
120.129
114.623
113.442
113.181
112.962
112.813
112.756
112.765
112.811
112.881
112.961
113.049
113.14
113.235
113.331
113.43
113.531
113.635
113.742
113.854
113.969
114.089
114.212
114.34
114.472
114.607
114.748
114.889
115.039
115.184
115.338
115.495
115.623
115.845
115.843
116.507
111.184
110.002
109.753
109.533
109.399
109.364
109.397
109.461
109.548
109.639
109.738
109.835
109.938
110.039
110.145
110.251
110.363
110.477
110.597
110.72
110.848
110.981
111.119
111.263
111.409
111.564
111.719
111.884
112.045
112.216
112.387
112.536
112.767
112.786
111.046
106.317
104.831
104.49
104.253
104.144
104.132
104.188
104.267
104.373
104.479
104.599
104.713
104.84
104.962
105.097
105.228
105.371
105.513
105.666
105.818
105.982
106.145
106.316
106.491
106.67
106.853
107.038
107.231
107.42
107.619
107.817
108.001
108.247
108.338
95.7362
95.7786
94.6555
94.3575
94.1412
94.1044
94.2071
94.3923
94.6126
94.8584
95.1061
95.3627
95.613
95.869
96.1172
96.3709
96.6173
96.8696
97.1158
97.3681
97.6157
97.8694
98.1196
98.3758
98.6292
98.8874
99.1434
99.4028
99.6597
99.9181
100.174
100.423
100.69
100.892
101.25
11.4416
9.87336
9.83729
9.8802
9.99442
10.1155
10.2491
10.3742
10.5053
10.6219
10.7416
10.8455
10.9534
11.0462
11.1453
11.2302
11.3239
11.4036
11.495
11.5714
11.6628
11.7364
11.8299
11.9
11.9978
12.0621
12.1671
12.2211
12.3377
12.3744
12.5096
12.5163
12.6811
12.6343
12.8379
79.7825
77.2362
76.6746
76.7671
76.8918
76.9331
76.923
76.896
76.8654
76.8386
76.8147
76.7958
76.7798
76.7679
76.7585
76.7518
76.7475
76.7448
76.7443
76.7446
76.7471
76.7501
76.7552
76.7605
76.7682
76.776
76.7869
76.797
76.8121
76.8248
76.8455
76.8619
76.8895
76.9097
76.9549
79.5949
77.0487
76.4707
76.548
76.6645
76.7002
76.6871
76.6568
76.625
76.5961
76.5727
76.5528
76.5387
76.5264
76.52
76.5133
76.5129
76.5101
76.5145
76.5143
76.5229
76.5247
76.5371
76.5404
76.5571
76.5615
76.5831
76.5886
76.6159
76.6228
76.6554
76.6671
76.6979
76.7259
76.7406
79.3539
76.8066
76.2188
76.2871
76.3977
76.4291
76.4132
76.3809
76.3484
76.319
76.2962
76.277
76.2646
76.2537
76.2498
76.2451
76.2477
76.2474
76.2555
76.2583
76.2712
76.2763
76.2937
76.3004
76.323
76.3306
76.3594
76.3672
76.4039
76.4113
76.4567
76.4661
76.5148
76.5373
76.578
79.0384
76.493
75.9092
75.9768
76.0837
76.1107
76.0914
76.0569
76.0235
75.9942
75.9725
75.9547
75.9445
75.936
75.9348
75.933
75.9389
75.9418
75.9536
75.9599
75.9769
75.9856
76.0076
76.018
76.0455
76.0569
76.0908
76.1028
76.144
76.1565
76.2046
76.2209
76.2684
76.3001
76.3341
78.7525
76.2179
75.6167
75.6646
75.7582
75.7771
75.7525
75.7144
75.6785
75.6479
75.6255
75.6079
75.5982
75.591
75.5911
75.5913
75.5991
75.6045
75.6187
75.6279
75.6478
75.6597
75.6851
75.6988
75.7302
75.7451
75.7833
75.7987
75.8449
75.8603
75.9147
75.9327
75.9882
76.0205
76.0654
78.3535
75.8242
75.2272
75.2712
75.3575
75.3696
75.34
75.2992
75.2622
75.2319
75.2106
75.195
75.1875
75.183
75.1859
75.1893
75.2003
75.2092
75.2269
75.2397
75.2633
75.279
75.3084
75.3261
75.3616
75.3805
75.423
75.4423
75.4928
75.5121
75.5703
75.5925
75.6505
75.6873
75.733
77.9279
75.4141
74.8118
74.8413
74.9142
74.9165
74.8803
74.8355
74.7964
74.7654
74.7444
74.73
74.7241
74.7218
74.727
74.733
74.7466
74.7586
74.7792
74.7954
74.8222
74.8414
74.8741
74.8954
74.9345
74.9571
75.0034
75.0264
75.0807
75.1037
75.1657
75.1916
75.2531
75.2936
75.3428
77.4332
74.9364
74.3312
74.3459
74.4038
74.3949
74.3514
74.3024
74.2612
74.23
74.2096
74.1968
74.1928
74.1929
74.2006
74.2096
74.2261
74.2413
74.265
74.2846
74.3147
74.3374
74.3736
74.3985
74.4412
74.4674
74.5173
74.5439
74.6019
74.6284
74.6937
74.7233
74.7871
74.8316
74.8818
76.8736
74.4022
73.7989
73.7994
73.8408
73.8191
73.7674
73.7142
73.6715
73.6406
73.6217
73.6113
73.6099
73.6131
73.6238
73.6361
73.6558
73.6745
73.7014
73.7245
73.7578
73.7841
73.8236
73.8521
73.8982
73.9279
73.9814
74.0115
74.0729
74.1029
74.1714
74.2046
74.2708
74.3195
74.3706
76.3105
73.8742
73.259
73.2344
73.2547
73.219
73.1591
73.1017
73.057
73.0261
73.008
72.9993
72.9998
73.0055
73.0186
73.0337
73.056
73.0776
73.1072
73.1333
73.1695
73.1988
73.2413
73.2729
73.3221
73.355
73.4115
73.4447
73.5093
73.5423
73.6137
73.6501
73.7181
73.7706
73.8221
75.627
73.2228
72.6143
72.5764
72.5784
72.5283
72.46
72.3989
72.3539
72.3247
72.3093
72.304
72.3081
72.3176
72.3343
72.3533
72.379
72.4043
72.4373
72.4671
72.5065
72.5394
72.5851
72.6203
72.6727
72.7091
72.7689
72.8055
72.8734
72.9097
72.9841
73.0239
73.094
73.1505
73.2024
74.9228
72.5723
71.9397
71.8631
71.8354
71.7671
71.6894
71.6242
71.578
71.5495
71.5358
71.533
71.5397
71.5523
71.5719
71.5941
71.6227
71.6513
71.6872
71.7202
71.7626
71.7989
71.8477
71.8862
71.9418
71.9815
72.0446
72.0845
72.1557
72.1953
72.2727
72.3159
72.3881
72.4487
72.5008
74.0388
71.7344
71.1052
71.0102
70.9594
70.8744
70.7884
70.7208
70.6759
70.6508
70.6414
70.6434
70.6548
70.6722
70.6962
70.7229
70.7556
70.7885
70.8281
70.8653
70.9113
70.9516
71.0039
71.0464
71.1056
71.1492
71.216
71.2597
71.3346
71.3778
71.4588
71.5057
71.5803
71.6455
71.6978
73.1016
70.8709
70.2033
70.0571
69.968
69.8613
69.7656
69.6951
69.6508
69.6284
69.6228
69.629
69.6447
69.6666
69.6948
69.7259
69.7624
69.7995
69.8428
69.8841
69.9336
69.978
70.0339
70.0804
70.1433
70.191
70.2616
70.3092
70.388
70.435
70.5197
70.5705
70.6477
70.7179
70.7699
71.9316
69.7753
69.0904
68.9085
68.7861
68.6593
68.5559
68.4848
68.4441
68.427
68.4273
68.4396
68.4611
68.4887
68.5221
68.5584
68.5995
68.6415
68.6889
68.7348
68.7882
68.8372
68.8969
68.948
69.0148
69.0669
69.1416
69.1935
69.2765
69.3276
69.4164
69.4714
69.5518
69.6274
69.6798
70.575
68.5117
67.7783
67.5406
67.3759
67.2263
67.1147
67.0433
67.0065
66.995
67.0018
67.0204
67.0482
67.0815
67.12
67.1613
67.2068
67.2533
67.3044
67.3547
67.4114
67.4648
67.5278
67.5835
67.6536
67.7104
67.7888
67.8452
67.9323
67.9876
68.0809
68.1399
68.224
68.3046
68.3575
68.9305
66.987
66.175
65.8549
65.6323
65.4553
65.3358
65.2649
65.2325
65.2257
65.2374
65.2599
65.2913
65.3272
65.3683
65.4116
65.4591
65.5076
65.5606
65.6136
65.6727
65.7296
65.7954
65.8553
65.9287
65.9902
66.0723
66.1338
66.2253
66.2859
66.3843
66.4482
66.5388
66.625
66.6835
66.5753
64.6694
63.8501
63.5252
63.283
63.0907
62.9631
62.8871
62.8514
62.841
62.8501
62.8691
62.8985
62.932
62.973
63.016
63.0654
63.1159
63.1728
63.2297
63.2939
63.3566
63.4285
63.4958
63.5765
63.646
63.7378
63.8064
63.9098
63.9761
64.0889
64.1564
64.2637
64.3522
64.4277
63.0743
61.5353
60.4573
59.9499
59.5959
59.3461
59.1908
59.103
59.0655
59.0599
59.0795
59.1125
59.1603
59.2136
59.278
59.3444
59.4204
59.4964
59.5816
59.6655
59.7587
59.849
59.9502
60.046
60.152
60.2484
60.3584
60.454
60.5715
60.6651
60.792
60.8826
61.0126
61.1112
61.2308
55.4841
57.2189
56.1474
55.3568
54.753
54.3361
54.0916
53.9616
53.9182
53.9227
53.969
54.0321
54.1188
54.209
54.3158
54.4196
54.5374
54.6487
54.7734
54.8895
55.0188
55.1387
55.2715
55.3949
55.5304
55.6579
55.7948
55.9264
56.0638
56.1979
56.3378
56.465
56.6234
56.7156
56.9389
13.0131
11.4046
11.4163
11.5435
11.7258
11.8965
12.0681
12.2201
12.3726
12.5042
12.637
12.7498
12.8664
12.9646
13.0697
13.1578
13.256
13.3376
13.4324
13.5097
13.6038
13.6779
13.7738
13.844
13.9439
14.0081
14.1151
14.1694
14.2876
14.3255
14.4612
14.4722
14.6337
14.6021
14.7913
52.8625
51.861
51.4544
51.387
51.4236
51.457
51.4646
51.4565
51.4392
51.4211
51.4024
51.3864
51.3718
51.3598
51.3497
51.3414
51.3351
51.3296
51.3264
51.3232
51.3221
51.3209
51.3214
51.3215
51.3235
51.3246
51.3285
51.3298
51.3363
51.3376
51.3478
51.3487
51.3648
51.3629
51.3941
52.6912
51.6998
51.2905
51.2156
51.2473
51.2758
51.2812
51.2697
51.2515
51.2307
51.2124
51.1945
51.1815
51.1679
51.1605
51.1506
51.148
51.1408
51.1422
51.1367
51.1414
51.1368
51.1445
51.1404
51.1509
51.1466
51.1605
51.1556
51.1729
51.1679
51.1879
51.1848
51.2039
51.2057
51.2236
52.4925
51.5062
51.094
51.0141
51.0422
51.0673
51.0705
51.0565
51.0371
51.0149
50.9965
50.9779
50.9655
50.9518
50.9456
50.936
50.935
50.9285
50.9319
50.9273
50.9345
50.931
50.9418
50.9384
50.9531
50.9488
50.9682
50.9621
50.9873
50.9787
51.0101
51.0004
51.0355
51.0276
51.0682
52.255
51.2693
50.8586
50.7788
50.8059
50.8288
50.8295
50.8133
50.7924
50.7692
50.7505
50.7319
50.72
50.7071
50.7021
50.6938
50.6945
50.6894
50.695
50.692
50.7018
50.6998
50.7136
50.7119
50.7298
50.7274
50.75
50.7464
50.774
50.7692
50.8011
50.7974
50.8297
50.8302
50.8634
52.0124
51.0411
50.6282
50.5401
50.559
50.5753
50.5711
50.5511
50.5275
50.5023
50.4822
50.4629
50.4507
50.438
50.4332
50.4256
50.427
50.423
50.4296
50.428
50.4392
50.4387
50.4544
50.454
50.4743
50.4732
50.4986
50.4959
50.5273
50.5226
50.5598
50.5547
50.5946
50.5918
50.636
51.7113
50.7437
50.3345
50.2463
50.2622
50.2746
50.2663
50.2432
50.2172
50.1908
50.17
50.1508
50.139
50.1271
50.1233
50.1171
50.1199
50.1176
50.126
50.1261
50.1394
50.1408
50.1587
50.1603
50.1831
50.1839
50.212
50.2113
50.2454
50.2429
50.2824
50.2797
50.3213
50.3211
50.3661
51.3809
50.4246
50.0175
49.9248
49.9336
49.9391
49.9249
49.8975
49.8684
49.84
49.818
49.7985
49.7867
49.7754
49.7723
49.7672
49.7711
49.7702
49.7799
49.7817
49.7966
49.7997
49.8194
49.8227
49.8474
49.85
49.8803
49.8813
49.9178
49.9168
49.9591
49.9576
50.0024
50.003
50.0518
51.0013
50.057
49.654
49.5573
49.5583
49.5558
49.5349
49.5026
49.4699
49.4396
49.4164
49.3967
49.385
49.3745
49.3722
49.3684
49.3735
49.3742
49.3855
49.389
49.4056
49.4105
49.4321
49.4373
49.4641
49.4685
49.5011
49.5038
49.5427
49.5434
49.5881
49.5884
49.6352
49.6373
49.6879
50.5804
49.6501
49.2544
49.1549
49.1478
49.1364
49.1078
49.0701
49.0339
49.0016
48.9775
48.9578
48.9465
48.9371
48.9358
48.9335
48.94
48.9424
48.9553
48.9606
48.9788
48.9856
49.009
49.016
49.0447
49.0509
49.0856
49.09
49.1311
49.1334
49.1803
49.1823
49.2311
49.2349
49.2873
50.1474
49.2385
48.8461
48.7381
48.7187
48.6962
48.6592
48.6159
48.576
48.5419
48.5168
48.4972
48.4862
48.4777
48.4774
48.4765
48.4843
48.4883
48.5026
48.5095
48.5294
48.5378
48.5629
48.5715
48.6021
48.6099
48.6465
48.6525
48.6957
48.6996
48.7486
48.752
48.8027
48.8079
48.862
49.6404
48.7495
48.3684
48.2594
48.2313
48.1985
48.1528
48.1036
48.06
48.0243
47.9986
47.9794
47.9692
47.9622
47.9632
47.9641
47.9734
47.9793
47.9952
48.004
48.0255
48.0358
48.0627
48.0731
48.1056
48.1152
48.1539
48.1616
48.2069
48.2124
48.2636
48.2686
48.3212
48.328
48.3837
49.0986
48.2403
47.8593
47.7347
47.6876
47.6391
47.5828
47.5272
47.48
47.4427
47.4166
47.3982
47.3889
47.3835
47.3859
47.3887
47.3996
47.4075
47.425
47.4359
47.4591
47.4714
47.5
47.5124
47.5469
47.5583
47.5991
47.6086
47.6562
47.6634
47.7169
47.7235
47.7782
47.7867
47.8441
48.4419
47.6136
47.2457
47.1183
47.059
46.9971
46.9304
46.8683
46.8174
46.7789
46.7528
46.7355
46.7274
46.7239
46.7281
46.7331
46.7458
46.756
46.7752
46.7884
46.8134
46.8279
46.8584
46.873
46.9095
46.9231
46.9661
46.9776
47.0277
47.0367
47.0928
47.1012
47.1582
47.1685
47.2278
47.7237
46.9424
46.5702
46.42
46.3348
46.2528
46.1735
46.1044
46.0503
46.0111
45.9855
45.9699
45.9637
45.9628
45.969
45.9768
45.9915
46.0045
46.0257
46.0415
46.0684
46.0855
46.118
46.1351
46.1738
46.1897
46.2352
46.2489
46.3016
46.3126
46.3715
46.3819
46.4412
46.4537
46.5147
46.8461
46.1177
45.7534
45.5905
45.4838
45.3825
45.2905
45.2141
45.1568
45.1168
45.0918
45.0778
45.0734
45.0748
45.0829
45.0932
45.1097
45.1252
45.1481
45.1665
45.195
45.2147
45.249
45.2687
45.3093
45.3277
45.3754
45.3913
45.4468
45.4598
45.5215
45.5338
45.5961
45.6105
45.6743
45.8228
45.159
44.7872
44.597
44.4592
44.3336
44.2269
44.1422
44.0815
44.0405
44.0164
44.0039
44.0014
44.0049
44.0148
44.0273
44.0451
44.0628
44.0867
44.1074
44.1368
44.159
44.1942
44.2165
44.2583
44.2793
44.3288
44.3472
44.405
44.42
44.4848
44.4987
44.5644
44.5801
44.6473
44.5801
44.0026
43.6102
43.3749
43.1919
43.0341
42.9095
42.8145
42.7494
42.7054
42.6802
42.6661
42.6629
42.6649
42.6739
42.6853
42.7022
42.7196
42.7427
42.764
42.793
42.8169
42.8522
42.8771
42.9196
42.9437
42.9945
43.0163
43.0762
43.0946
43.1626
43.1793
43.2496
43.2679
43.3415
43.0294
42.4148
41.9898
41.7329
41.5218
41.3357
41.1891
41.0743
40.9947
40.936
40.9007
40.8754
40.8654
40.8596
40.8649
40.8719
40.8879
40.904
40.9283
40.9511
40.9825
41.0101
41.0485
41.0789
41.1251
41.1557
41.2115
41.2397
41.3055
41.3295
41.4046
41.4256
41.5044
41.526
41.6093
40.8418
40.528
39.9118
39.4671
39.1182
38.8408
38.6399
38.4906
38.3942
38.3256
38.2912
38.268
38.2684
38.271
38.2921
38.3109
38.3455
38.3754
38.4193
38.4573
38.5083
38.552
38.6091
38.6583
38.7199
38.7693
38.8339
38.8811
38.9515
38.9952
39.074
39.1129
39.1997
39.2344
39.332
37.8607
40.6889
39.8766
38.9238
38.1202
37.501
37.0612
36.7457
36.5364
36.3872
36.2982
36.2341
36.2082
36.1895
36.1988
36.2058
36.236
36.2586
36.302
36.3347
36.3865
36.4263
36.4836
36.5294
36.5901
36.6419
36.7043
36.7618
36.8254
36.8867
36.9544
37.0111
37.0966
37.13
37.2653
14.2722
12.6887
12.7662
12.976
13.2248
13.4417
13.6469
13.8204
13.9892
14.1303
14.2711
14.3874
14.5078
14.6065
14.7133
14.8001
14.8986
14.9779
15.0721
15.1464
15.2396
15.3102
15.4047
15.4713
15.5695
15.6303
15.735
15.7868
15.9018
15.9391
16.0695
16.0842
16.2356
16.2171
16.3887
37.6239
37.2102
36.9819
36.8892
36.8743
36.8851
36.8921
36.892
36.8839
36.8733
36.8606
36.8485
36.8368
36.8263
36.8172
36.8089
36.8024
36.7961
36.7919
36.7873
36.7846
36.7814
36.7799
36.7776
36.7772
36.7749
36.7761
36.7729