/*--------------------------------*- C++ -*----------------------------------*\
  =========                 |
  \\      /  F ield         | OpenFOAM: The Open Source CFD Toolbox
   \\    /   O peration     | Website:  https://openfoam.org
    \\  /    A nd           | Version:  6
     \\/     M anipulation  |
\*---------------------------------------------------------------------------*/
FoamFile
{
    version     2.0;
    format      ascii;
    class       volScalarField;
    location    "39";
    object      yPlus;
}
// * * * * * * * * * * * * * * * * * * * * * * * * * * * * * * * * * * * * * //

dimensions      [0 0 0 0 0 0 0];

internalField   uniform 0;

boundaryField
{
    inlet
    {
        type            calculated;
        value           uniform 0;
    }
    outlet
    {
        type            calculated;
        value           uniform 0;
    }
    roughCylinder
    {
        type            calculated;
        value           nonuniform List<scalar> 
3840
(
16.2969
29.6177
40.2701
43.0984
45.747
46.1099
46.9368
47.0559
47.6455
47.3825
46.9404
46.2134
46.0133
45.7926
45.6437
44.7051
43.934
43.4035
43.1228
43.2944
42.7002
41.9599
41.517
41.0369
14.76
29.3455
39.9996
43.0327
45.6565
46.0475
46.8965
46.9209
47.3513
46.9819
46.7562
46.2234
46.0322
45.8187
45.4986
44.6843
43.917
43.6047
43.4928
43.5642
43.2167
42.5759
42.226
41.7737
9.37629
28.8358
39.645
42.8624
45.5698
46.0707
46.8496
46.942
47.3955
47.2548
46.94
46.3928
46.2135
45.991
45.5601
44.9229
44.2291
44.19
44.2134
43.9389
43.6149
42.9366
42.6109
42.2092
9.74591
28.5307
39.3097
42.7413
45.4692
46.0717
46.9408
46.9335
47.3103
46.9996
46.9469
46.6162
46.4599
46.1873
45.6086
45.0392
44.2969
44.4817
44.6518
44.2377
44.1962
43.6034
43.3593
43.0068
7.88715
27.7195
38.8004
42.5079
45.3744
46.1404
46.977
47.1444
47.512
47.4401
47.2733
46.8986
46.7501
46.4403
45.8242
45.3736
44.6936
45.1392
45.4311
44.7307
44.7033
44.0631
43.8153
43.5136
15.3621
27.2494
38.3447
42.2764
45.1838
46.119
47.1399
47.2028
47.5827
47.3414
47.4226
47.2436
47.1238
46.7727
46.0849
45.628
44.911
45.5167
45.8706
45.069
45.3333
44.7633
44.5887
44.3482
7.61949
26.2619
37.6179
41.9115
45.0425
46.1768
47.1588
47.4997
47.8863
47.8685
47.7997
47.5237
47.4029
47.0512
46.401
46.0372
45.4368
46.2345
46.6376
45.6577
45.9188
45.2917
45.0933
44.8935
10.7478
25.4455
36.9753
41.5366
44.7227
46.0642
47.3272
47.5544
47.9919
47.8417
47.9984
47.8991
47.8276
47.4695
46.8092
46.4155
45.827
46.6817
47.0372
46.0214
46.5667
46.0096
45.8842
45.7461
11.9325
24.3448
35.9865
40.9617
44.486
46.0719
47.2606
47.8289
48.3175
48.3543
48.3358
48.1183
48.0401
47.73
47.1577
46.8848
46.4783
47.4366
47.7649
46.6763
47.2053
46.586
46.4217
46.3054
12.5832
23.3017
35.0566
40.3577
43.9759
45.8025
47.3716
47.8299
48.3547
48.3205
48.5343
48.5007
48.5025
48.2023
47.6632
47.371
47.0026
47.9091
48.1097
47.046
47.829
47.2972
47.2087
47.1482
15.3667
22.0532
33.7293
39.4529
43.5441
45.6946
47.1639
47.9972
48.6485
48.7627
48.7954
48.648
48.6307
48.4134
48.0004
47.8616
47.7068
48.6439
48.7836
47.7324
48.4816
47.8831
47.7415
47.6803
18.3074
21.0983
32.3633
38.4593
42.7193
45.1799
47.1547
47.914
48.5551
48.6799
48.9899
49.0522
49.1361
48.9202
48.5656
48.4048
48.2723
49.0711
49.0571
48.0816
49.0236
48.5462
48.487
48.4755
21.7609
20.1448
30.6539
37.0572
41.9405
44.8427
46.7295
47.902
48.7862
49.0264
49.1577
49.1141
49.166
49.0534
48.8492
48.8425
48.9227
49.7208
49.6667
48.7701
49.6389
49.0862
48.956
48.9218
25.9462
19.5367
28.656
35.4173
40.5558
43.9255
46.5109
47.6952
48.5095
48.8572
49.3316
49.5367
49.7007
49.5757
49.4281
49.3716
49.4282
50.0262
49.8343
49.0499
50.0149
49.6315
49.5953
49.6094
30.7071
19.7668
26.685
33.3021
39.2036
43.1603
45.7146
47.4006
48.6505
49.077
49.3508
49.4403
49.5777
49.5726
49.5797
49.6575
49.9056
50.5184
50.3497
49.695
50.5513
50.0767
49.9524
49.9308
33.139
20.0514
23.9818
30.6487
36.7286
41.4929
45.1077
46.9698
48.0992
48.7858
49.4856
49.854
50.0859
50.0621
50.095
50.1041
50.2898
50.6753
50.3983
49.8668
50.711
50.4695
50.4549
50.4872
35.3428
20.4864
22.0316
27.4958
34.444
39.8839
43.5784
46.1611
48.0753
48.8084
49.2916
49.5215
49.7631
49.8679
50.0529
50.1945
50.5441
50.9951
50.8209
50.4535
51.1281
50.74
50.6108
50.5865
37.4228
20.9907
18.4498
23.1594
29.5534
36.5673
42.154
45.2505
46.9801
48.287
49.3299
49.9088
50.2233
50.3097
50.4781
50.5352
50.75
50.914
50.6353
50.3614
50.8956
50.8505
50.8585
50.9062
38.8488
21.6558
16.4915
17.5265
25.1611
32.9979
38.9007
43.3424
46.6052
47.8636
48.6919
49.1068
49.5132
49.7546
50.0567
50.2654
50.6239
50.9589
50.8743
50.7982
51.1096
50.7785
50.5783
50.5177
39.5844
22.0364
10.1583
7.95436
13.8155
24.1414
35.4022
41.3276
44.2855
46.824
48.4574
49.3935
49.8422
50.0652
50.3087
50.4356
50.5308
50.428
50.1168
49.9462
49.9182
50.0924
50.1095
50.1693
38.9952
22.0497
10.861
0.861131
9.43776
9.59687
26.0995
36.5601
43.2172
45.3747
46.8023
47.4946
48.2065
48.6274
48.9841
49.265
49.4756
49.7467
49.7596
49.8667
49.6101
49.1508
48.6686
48.4471
38.6395
21.682
4.37908
12.2176
12.5509
13.1669
10.4707
31.9585
37.6784
43.1392
45.8925
47.4951
48.1169
48.4924
48.7507
48.9688
48.6682
48.0552
47.3804
46.7293
45.5525
45.8663
45.8294
45.8894
36.8923
22.4484
12.0981
8.72483
13.2097
12.9356
14.4095
16.034
35.9033
39.0643
41.4991
42.6045
43.9806
44.6495
44.9509
45.1269
44.7678
44.9811
45.015
44.9882
43.8227
42.1791
40.0972
38.4226
34.1836
21.846
15.0633
3.61916
4.45983
14.2286
8.97254
9.64041
16.249
32.6554
38.743
42.0117
42.7264
43.1743
43.2835
43.4591
41.8791
39.149
35.1064
28.6719
18.0297
11.6237
21.8633
19.2928
30.4099
22.4422
13.0799
3.82397
10.9114
12.7532
12.8132
14.7845
14.6548
2.2947
10.1049
17.5262
24.8237
26.5803
25.7274
21.7077
11.5427
21.1451
14.3777
16.4235
7.14786
18.2741
16.7458
19.7044
18.5453
21.6978
12.1435
11.6581
18.6241
21.5709
19.3157
7.33601
15.4845
4.50544
11.3542
10.5561
12.0593
6.70105
18.714
12.7021
4.13629
16.9297
14.4886
11.6476
11.2149
17.4913
5.83977
20.1885
8.44619
18.2382
12.1841
12.2615
21.2306
26.8943
28.4698
26.8688
16.223
9.5375
17.0349
12.76
18.7396
18.4575
15.777
16.4778
10.8966
12.1501
10.8852
15.1214
20.0515
22.8994
24.89
26.1275
10.6899
16.8175
13.5628
11.7137
20.0426
27.1597
30.5937
28.8117
24.8645
26.446
26.8466
25.6248
24.958
23.5509
22.6675
23.1694
24.3183
25.7443
27.9717
28.6464
28.4339
28.1142
27.6583
27.1507
11.4283
18.3579
17.9816
15.3289
19.7273
26.2398
30.0131
28.1707
25.8403
27.6382
28.2546
28.3017
28.8562
29.3948
29.485
29.3872
29.1826
29.1962
29.1819
29.6135
29.477
28.9233
28.0302
27.5061
10.6954
19.0805
20.9659
20.0894
21.6317
25.6444
27.6975
25.9017
26.5727
28.8008
28.5153
28.1423
29.3313
30.5758
31.1578
31.1873
30.8467
30.618
30.3562
29.5739
28.1031
26.0575
23.7115
22.2394
8.88608
18.2809
21.4508
22.3948
23.1147
24.7673
25.1521
24.4738
25.2186
24.0315
19.1172
17.23
21.3267
25.8465
28.5627
29.4049
28.9716
28.2243
27.311
25.9914
24.3553
22.3242
20.5611
19.8325
6.1531
15.9049
19.9389
22.1545
23.2233
23.9422
24.0071
24.3655
24.4105
22.0151
17.6712
16.9635
18.787
21.6492
24.4227
25.954
26.2463
25.9991
25.381
24.3356
23.1004
21.4553
20.2008
19.6807
3.90954
12.6115
17.0462
20.2583
22.1935
23.2063
23.7505
24.3237
24.0812
20.9436
15.9206
15.8058
19.6046
22.861
24.8073
25.6633
25.6503
25.1886
24.3331
22.868
21.2953
20.042
19.3195
19.0387
3.38373
11.2212
14.0837
17.611
20.2488
21.8547
22.8301
23.1921
22.152
17.6429
13.7775
16.1728
19.0005
21.5866
23.5243
24.3425
24.1373
23.3942
22.3848
21.2359
20.218
19.4049
18.9996
18.9007
3.42517
10.0753
11.7675
14.7662
17.6225
19.552
20.6211
20.6711
18.8502
13.9642
14.0496
17.4392
20.266
22.0792
23.1634
23.5964
23.3855
22.7468
21.8783
20.8896
20.0871
19.6457
19.5248
19.5774
3.06247
8.36709
10.5188
12.0738
14.5028
16.4271
17.3602
17.3549
14.7386
12.4263
15.7826
19.2719
21.5598
23.0873
23.9334
24.0945
23.6957
22.9637
22.1252
21.3095
20.7125
20.4135
20.3991
20.5172
2.67451
7.5071
9.67439
11.3425
12.4891
13.8579
14.692
14.4831
12.3803
14.8836
18.7326
21.4433
23.3255
24.4977
25.0472
25.0307
24.551
23.7946
22.9734
22.2182
21.7242
21.5519
21.6345
21.8071
2.46457
7.54998
9.59737
11.6009
12.7853
13.7861
14.5183
13.8368
15.3872
18.828
21.5412
23.6373
25.1974
26.1881
26.5978
26.4671
25.9105
25.1069
24.2785
23.5741
23.1643
23.0846
23.2444
23.4649
2.56533
8.36028
10.3416
11.9152
13.347
14.5831
15.3062
16.7059
19.6307
22.0634
24.137
25.9336
27.3105
28.1684
28.4878
28.3062
27.7215
26.9055
26.0794
25.4139
25.0719
25.0651
25.2792
25.5322
2.90284
9.51519
11.5606
12.7589
14.2413
15.8469
17.7868
20.5667
22.8373
24.8403
26.7239
28.3482
29.5916
30.3819
30.6745
30.4886
29.9117
29.1077
28.3001
27.6791
27.3981
27.4502
27.7008
27.9749
2.80459
2.08548
2.37801
2.92062
3.13153
2.90591
3.22217
4.28425
5.74114
7.07263
8.04724
8.73362
9.12683
9.40681
9.68071
10.0148
10.4597
11.0719
11.6153
11.7398
12.2061
12.8181
13.3826
13.921
14.4057
14.8468
15.1656
15.3624
15.3683
15.0835
14.5834
13.6631
12.1801
11.698
10.5062
7.59354
4.9636
3.30482
3.06385
3.04086
10.7939
8.2006
8.10718
9.51528
11.227
11.6072
12.3687
14.2151
15.5949
16.5305
17.1372
17.5888
17.9834
18.3372
18.6509
18.9435
19.2307
19.5123
19.807
20.1065
20.401
20.6689
20.9237
21.1575
21.3549
21.5149
21.62
21.6573
21.6065
21.4516
21.1524
20.7282
20.0197
19.171
18.0644
16.6187
14.7891
12.3576
11.514
10.5754
12.1102
11.3253
11.3953
11.554
12.9512
14.9222
16.7707
18.2054
19.2445
19.9964
20.5842
21.0788
21.5346
21.9501
22.3144
22.643
22.9494
23.2319
23.5132
23.8029
24.0848
24.3499
24.5852
24.7826
24.9334
25.034
25.0639
25.0147
24.8701
24.6275
24.2516
23.759
23.0683
22.2172
21.1022
19.7634
18.1203
16.0717
14.0245
12.296
11.9354
11.5101
11.9347
14.3641
16.8032
18.7332
20.2375
21.3626
22.2526
23.0097
23.6927
24.3022
24.8403
25.3111
25.707
26.0547
26.3649
26.6411
26.8994
27.1435
27.3854
27.6215
27.838
28.0079
28.1221
28.1692
28.1345
28.0151
27.7987
27.4785
27.0353
26.4627
25.7218
24.808
23.6746
22.2993
20.67
18.7578
16.5128
14.1456
11.5099
12.6996
15.9942
18.6256
20.6076
22.1181
23.3061
24.2678
25.121
25.9014
26.6084
27.2534
27.8232
28.3048
28.6809
29.0083
29.2865
29.5348
29.7726
30.0035
30.2266
30.4453
30.6388
30.7933
30.8871
30.8949
30.8066
30.6207
30.3351
29.9494
29.4519
28.8262
28.0513
27.1117
25.9712
24.6252
23.0045
21.1745
19.0498
16.2861
14.3552
17.8347
20.5301
22.4387
23.9256
25.0962
26.0784
26.9528
27.7677
28.5304
29.2405
29.8988
30.4728
30.9094
31.1845
31.4347
31.6837
31.9289
32.1663
32.3938
32.6089
32.8097
32.9915
33.1925
33.3121
33.305
33.1728
32.9254
32.5736
32.1208
31.5652
30.8942
30.0838
29.1304
27.989
26.6695
25.13
23.2928
21.4539
18.6856
20.1619
22.3937
24.2546
25.601
26.7437
27.6787
28.5431
29.3491
30.1236
30.8684
31.5797
32.2402
32.7728
33.0546
33.3109
33.5751
33.8336
34.0858
34.3282
34.5563
34.7663
34.9567
35.1307
35.2698
35.4557
35.4597
35.2953
34.9938
34.5795
34.0667
33.4561
32.7433
31.9069
30.9354
29.8059
28.4995
27.0309
25.2849
23.4358
21.3198
24.4635
25.8312
27.1928
28.1684
29.096
29.8885
30.68
31.4316
32.1793
32.9134
33.6281
34.2863
34.7422
34.9781
35.2382
35.5158
35.7878
36.0509
36.3006
36.531
36.7375
36.9203
37.0751
37.2192
37.3266
37.3873
37.2039
36.8542
36.3833
35.816
35.1603
34.4127
33.5575
32.579
31.4619
30.188
28.7625
27.1423
25.3336
23.4136
27.4702
28.4207
29.4709
30.2361
31.0348
31.7488
32.4873
33.2051
33.9385
34.6716
35.3985
36.0737
36.5272
36.7368
36.9883
37.2723
37.556
37.8305
38.0884
38.3223
38.5278
38.7043
38.8473
38.9848
39.0699
39.138
38.9126
38.5111
37.9898
37.3779
36.6862
35.9136
35.0481
34.0735
32.9727
31.7442
30.3672
28.8611
27.1503
25.3687
29.6212
30.3542
31.2217
31.8831
32.6085
33.2778
33.9829
34.6854
35.4148
36.1555
36.9018
37.6135
38.1535
38.3496
38.5705
38.8485
39.1393
39.4244
39.6913
39.9306
40.1378
40.3123
40.4517
40.5775
40.6853
40.6932
40.4158
39.9667
39.405
38.7589
38.04
37.2503
36.3789
35.4132
34.3352
33.1542
31.8374
30.4349
28.839
27.2387
31.1565
31.7619
32.551
33.1636
33.8504
34.5
35.1915
35.8934
36.6281
37.3818
38.1481
38.8963
39.5542
39.8421
40.0113
40.2583
40.5446
40.8364
41.1127
41.3601
41.5735
41.7515
41.897
42.007
42.1853
42.0681
41.7241
41.2333
40.6401
39.97
39.2333
38.4328
37.5585
36.6023
35.5467
34.4086
33.1492
31.8429
30.355
28.9423
32.1963
32.7457
33.514
34.1104
34.7887
35.4396
36.1356
36.8492
37.5981
38.3691
39.1546
39.9284
40.6453
41.1824
41.3572
41.5431
41.7977
42.0832
42.365
42.6222
42.8467
43.0338
43.1942
43.3224
43.4486
43.2497
42.8546
42.3314
41.717
41.0316
40.2832
39.4754
38.5986
37.648
36.6071
35.4995
34.2844
33.0532
31.6575
30.401
32.795
33.3505
34.1332
34.7482
35.4402
36.1125
36.8281
37.565
38.3363
39.1303
39.9375
40.7331
41.4814
42.1304
42.5856
42.7631
42.9531
43.1999
43.4689
43.7292
43.9647
44.1717
44.3352
44.5581
44.4855
44.2133
43.7928
43.2604
42.6407
41.9504
41.1963
40.3821
39.4991
38.545
37.5052
36.4092
35.2151
34.028
32.6897
31.5428
32.9569
33.5775
34.4103
35.0796
35.807
36.5186
37.2674
38.0377
38.8398
39.6634
40.4985
41.3222
42.1001
42.786
43.3444
43.7996
44.0471
44.2523
44.4782
44.7171
44.9536
45.1756
45.3914
45.4093
45.2619
44.9668
44.5446
44.0169
43.4016
42.7121
41.9545
41.1316
40.2346
39.2642
38.2079
37.0979
35.8949
34.711
33.3853
32.2905
32.6834
33.3927
34.3173
35.0799
35.8732
36.6408
37.4366
38.2497
39.0894
39.9482
40.8174
41.6775
42.4982
43.2347
43.8358
44.3036
44.6939
45.0381
45.3398
45.5892
45.7766
45.8981
45.9567
45.9395
45.7923
45.509
45.1016
44.5864
43.9784
43.2891
42.5238
41.684
40.76
39.7561
38.6618
37.5104
36.2663
35.0445
33.6885
32.589
31.9845
32.7733
33.8088
34.6993
35.6005
36.4516
37.3099
38.1753
39.0589
39.9559
40.8606
41.7581
42.6253
43.427
44.1138
44.6371
45.0329
45.3577
45.635
45.8673
46.0519
46.1874
46.2705
46.2696
46.1355
45.863
45.4637
44.9527
44.3433
43.6448
42.861
41.9912
41.0251
39.9696
38.8178
37.6016
36.2914
35.0012
33.5842
32.4394
30.9094
31.7538
32.8853
33.9083
34.9481
35.9236
36.8726
37.8046
38.7396
39.6782
40.6174
41.5474
42.4519
43.3067
44.0761
44.7157
45.1875
45.5316
45.7977
46.0132
46.1901
46.332
46.4305
46.4218
46.2804
46.0043
45.6025
45.087
44.4679
43.7521
42.9403
42.0294
41.0114
39.8936
38.6723
37.3788
35.9897
34.6159
33.1235
31.9112
29.571
30.4456
31.6442
32.7775
33.9488
35.07
36.1455
37.1711
38.1714
39.1583
40.1341
41.0934
42.0256
42.9143
43.7366
44.4645
45.0678
45.5191
45.8383
46.0709
46.2512
46.394
46.4665
46.4277
46.2626
45.9708
45.558
45.0318
44.3984
43.6611
42.8176
41.8613
40.789
39.6075
38.3154
36.943
35.4739
34.0146
32.4454
31.1581
28.1808
29.068
30.3049
31.5187
32.7893
34.035
35.2421
36.3837
37.4679
38.5124
39.5292
40.5186
41.4743
42.3855
43.2371
44.0113
44.691
45.2583
45.7052
46.0405
46.2743
46.4144
46.4528
46.3793
46.1884
45.8792
45.4538
44.9156
44.267
43.5086
42.6352
41.6389
40.5182
39.2797
37.9244
36.4805
34.9388
33.4004
31.7607
30.3996
26.9804
27.8697
29.1206
30.3873
31.7244
33.0566
34.3641
35.6116
36.7857
37.8941
38.9543
39.9745
40.9532
41.8836
42.7551
43.5562
44.2758
44.9023
45.424
45.8318
46.1243
46.3012
46.3607
46.3004
46.1198
45.8187
45.3989
44.8622
44.2097
43.4407
42.5493
41.5275
40.3734
39.093
37.6892
36.1887
34.5873
32.9796
31.2747
29.8382
26.2809
27.1531
28.3874
29.6653
31.0237
32.3929
33.7483
35.0556
36.2905
37.4469
38.5391
39.5805
40.574
41.5161
42.3992
43.2137
43.9508
44.6012
45.1549
45.6029
45.9397
46.1607
46.2614
46.2387
46.0911
45.8184
45.4216
44.9022
44.261
43.4974
42.6066
41.5811
40.4164
39.118
37.6903
36.1584
34.521
32.8673
31.1152
29.6165
25.91
26.7743
27.992
29.2693
30.6321
32.0143
33.3892
34.7236
35.9908
37.1757
38.2857
39.3365
40.3349
41.2798
42.1657
42.9847
43.7285
44.3887
44.9566
45.4235
45.784
46.0335
46.1659
46.1765
46.0624
45.8222
45.4556
44.9629
44.3449
43.6006
42.7274
41.7181
40.566
39.2761
37.8535
36.3212
34.68
33.0135
31.2435
29.7112
25.7375
26.5973
27.8008
29.0726
30.4316
31.8145
33.1935
34.536
35.8158
37.0129
38.1294
39.1806
40.1763
41.1173
41.9998
42.8167
43.5606
44.2237
44.7978
45.2748
45.6501
45.9185
46.0731
46.1081
46.0198
45.8058
45.465
44.9971
44.4025
43.6808
42.8298
41.8444
40.7173
39.4519
38.0526
36.5419
34.9205
33.2693
31.509
29.9765
25.7134
26.5722
27.7665
29.0292
30.3783
31.7523
33.1234
34.4603
35.7368
36.9322
38.0453
39.0906
40.0796
41.014
41.891
42.7041
43.4462
44.1099
44.6874
45.171
45.5565
45.8387
46.0097
46.0631
45.9947
45.8014
45.4816
45.0347
44.4606
43.7592
42.9289
41.9657
40.8634
39.622
38.2462
36.7582
35.1581
33.5254
31.7791
30.255
16.4799
27.7311
39.1186
42.1954
45.0133
45.4939
46.1407
45.8674
45.927
45.8078
45.9283
45.7405
45.5348
44.9772
44.1004
42.9266
41.5835
41.9299
41.1146
41.4245
42.2874
41.1789
40.917
40.1433
10.1948
27.3536
38.6931
41.9431
44.7789
45.3112
46.0542
45.7653
45.9584
45.8503
45.8981
45.7992
45.6512
45.0179
44.0829
42.7882
41.5675
42.5461
41.5321
42.0827
42.7354
41.6067
41.3576
40.6305
8.35457
26.5242
38.1688
41.6296
44.4435
45.0876
45.7853
45.691
45.9781
45.9059
46.0588
46.0469
45.9262
45.1976
44.1711
42.7223
41.5718
43.0243
41.8591
42.6594
43.1577
42.1301
41.9328
41.276
15.5114
25.8078
37.644
41.2903
44.2192
44.9424
45.8123
45.7784
46.1664
46.1249
46.1625
46.1448
46.0077
45.3046
44.3037
42.8554
41.8856
43.6292
42.3983
43.2711
43.6637
42.6438
42.414
41.8344
10.4645
24.9034
36.9354
40.9458
43.8532
44.7716
45.6528
45.7949
46.2598
46.1717
46.3057
46.3322
46.2172
45.5451
44.5301
43.0759
42.2316
44.0493
42.8392
43.7957
44.1678
43.2637
43.0368
42.5461
7.45313
23.2527
36.2117
40.4501
43.6209
44.6958
45.7629
46.0129
46.52
46.5116
46.527
46.4704
46.2993
45.7381
44.8005
43.4998
42.8624
44.5889
43.4596
44.3388
44.7181
43.8296
43.5432
43.1535
7.33748
22.7452
35.2188
40.0327
43.2384
44.5431
45.6886
46.0603
46.6342
46.5206
46.6113
46.5888
46.4722
46.0279
45.1126
43.9271
43.4383
44.9575
43.9673
44.8241
45.2753
44.5031
44.1901
43.9034
4.62069
19.6939
34.1339
39.2591
42.8829
44.4691
45.7726
46.293
46.8705
46.9083
46.926
46.8077
46.6294
46.3004
45.4689
44.5111
44.2169
45.4794
44.6344
45.3489
45.8462
45.0922
44.7157
44.5382
10.608
19.6758
32.6416
38.574
42.3832
44.2058
45.6871
46.287
46.9537
46.864
46.929
46.8718
46.8003
46.609
45.8248
45.0143
44.8504
45.8508
45.1739
45.8432
46.4224
45.7821
45.3754
45.2997
12.9056
15.0299
30.9183
37.2819
41.6682
43.9855
45.5971
46.4123
47.0822
47.2247
47.3092
47.1921
47.0667
46.9355
46.2355
45.6376
45.6175
46.3939
45.8499
46.3832
46.9704
46.3544
45.9018
45.9219
12.7319
13.6277
28.526
35.9279
40.8012
43.3752
45.3672
46.2736
47.0847
47.1076
47.2119
47.1911
47.2169
47.2132
46.5981
46.1169
46.1753
46.7708
46.3697
46.8865
47.5137
47.0128
46.5546
46.6535
12.1215
14.3131
25.6365
33.6608
39.3105
42.8143
44.9381
46.1708
47.0291
47.3646
47.6126
47.5925
47.5673
47.5546
47.0275
46.7102
46.8471
47.3176
47.0064
47.4218
47.9822
47.5096
47.0424
47.1992
11.8866
11.3891
21.619
30.8713
37.624
41.4105
44.3481
45.7954
46.8985
47.1411
47.3664
47.461
47.6182
47.7366
47.3414
47.101
47.2631
47.6412
47.4329
47.8655
48.4194
48.0686
47.644
47.8351
12.1048
5.04361
15.8974
26.6651
34.3587
40.1662
43.2875
45.2842
46.5568
47.221
47.726
47.8744
47.9749
48.0317
47.7179
47.6032
47.7946
48.1215
47.9608
48.3203
48.7582
48.4339
48.0487
48.243
11.6712
12.6655
12.1168
19.6211
30.8011
36.7658
41.8724
44.4224
46.1669
46.8366
47.281
47.5295
47.815
48.0251
47.8824
47.8336
48.0427
48.32
48.2419
48.6419
49.0567
48.8686
48.5828
48.7595
11.4333
11.7249
11.8116
8.92385
21.1095
33.934
39.2791
43.061
45.286
46.5868
47.5175
47.907
48.1421
48.2562
48.1697
48.2219
48.4345
48.7061
48.641
48.9473
49.1939
48.9996
48.7941
48.9176
11.569
5.1162
11.2894
11.5337
14.6895
21.0333
35.6109
41.0305
44.2854
45.8101
46.6962
47.2037
47.6639
47.9887
48.1145
48.2166
48.4359
48.6553
48.655
48.9735
49.2362
49.2066
49.1581
49.2161
7.62688
11.2279
4.72679
11.7551
12.0562
15.8444
26.0122
37.392
42.2266
44.8572
46.5615
47.3731
47.8167
48.0376
48.1754
48.3692
48.6005
48.8242
48.8163
48.9576
48.9583
48.8193
48.8534
48.7766
6.5481
3.9091
7.80844
12.7129
8.20617
6.36656
14.7606
31.8725
39.7016
43.1245
44.8468
45.8433
46.6472
47.1892
47.578
47.8095
48.0248
48.0839
48.0898
48.1751
48.3032
48.3805
48.6477
48.4594
6.465
11.002
6.59573
4.69145
11.0635
7.86628
15.1039
21.164
34.8853
40.472
43.7986
45.4113
46.2211
46.6449
46.9844
47.2992
47.5499
47.6229
47.603
47.2589
46.8544
46.4901
46.7157
46.2221
9.11642
9.16799
8.54959
11.6004
11.5325
11.8603
14.3015
10.9275
28.896
36.3787
39.5136
41.5438
43.1943
44.2077
44.8431
45.1412
45.2396
44.7333
44.4825
43.9883
43.8877
43.9683
44.5507
43.9011
6.7849
10.8288
10.0986
15.7737
19.8765
11.4285
7.9194
9.41122
7.03889
25.612
35.5082
39.5055
40.9774
41.7353
42.1968
42.5331
42.7145
42.2988
41.9917
39.8526
37.6023
34.7979
33.583
31.4414
2.73068
10.8749
11.4234
13.6598
17.3992
21.9132
11.8554
11.3173
8.37793
10.7719
16.3113
19.9696
28.5436
31.9144
32.7496
32.3452
30.7618
25.5077
19.2552
13.741
19.3864
14.3805
17.0989
19.6243
9.03937
15.6567
17.5097
18.8506
20.7329
21.2546
19.887
15.8144
16.3448
11.5622
9.77042
1.45536
17.1441
5.74696
8.19649
16.246
12.9024
18.1398
7.01652
7.76639
4.68709
8.74932
14.5369
18.045
13.27
21.6279
24.5559
26.1371
26.6567
25.9656
22.5474
17.0177
8.7732
14.5444
12.7204
18.0587
1.03682
17.5049
17.4646
5.38417
10.6117
5.26865
7.14498
17.7638
3.00272
11.9516
15.2349
16.8432
12.541
21.8957
25.6066
27.7408
28.1602
26.8068
24.0313
22.7001
26.3434
27.8626
28.791
28.6497
26.8084
24.468
22.5706
21.3658
21.1665
21.7672
23.9163
25.645
28.1173
27.9078
27.8737
27.602
11.2126
20.8821
24.7177
26.9225
27.3539
26.1161
24.4265
24.5386
25.6997
27.0609
28.5796
29.8865
30.3143
30.1486
29.6358
29.4441
29.1689
29.5115
29.4202
29.6318
28.7847
28.422
27.6481
27.2265
9.60851
19.493
23.408
25.7313
26.4586
25.8409
24.7712
23.7356
22.7607
21.9653
24.6151
28.7097
30.7182
31.2247
30.9541
30.6569
30.2624
30.3271
30.2049
30.1244
29.2266
27.6921
26.2349
25.1381
8.46344
18.3214
22.3348
24.8914
26.0629
26.0148
25.0987
23.4792
20.6726
16.7335
14.1308
17.9486
22.7436
26.0717
27.7939
28.8138
29.0757
29.1553
28.3007
26.9871
24.8983
22.6391
20.3231
18.9661
7.97
17.7769
21.8933
24.6766
26.2293
26.6979
26.4185
25.5168
23.255
21.3894
22.3243
23.2242
23.5801
23.7335
24.2346
24.947
25.5548
25.945
25.4682
24.3655
22.9501
21.4075
20.3501
19.9077
7.77711
17.5341
21.6842
24.55
26.231
26.8111
26.3614
24.1089
18.4154
11.0326
6.61052
15.1303
20.6982
23.8641
25.3497
25.9837
26.0704
25.8487
24.9381
23.6464
22.1116
20.7251
19.6488
18.9867
7.4996
17.143
21.2597
24.1291
25.8534
26.4893
25.8965
22.8918
17.9042
16.6762
18.757
18.9404
19.3334
20.5136
21.9049
23.0054
23.5131
23.434
22.606
21.5149
20.3809
19.3416
18.5984
18.2278
7.21285
16.7509
20.8833
23.8497
25.75
26.5654
25.6531
21.6238
16.5016
14.1622
15.5775
18.7023
21.0081
22.2942
22.7899
22.8719
22.7403
22.3736
21.6378
20.8222
20.0085
19.2991
18.8247
18.5397
7.12552
16.6488
20.8512
23.9505
25.9685
26.5385
24.1949
18.676
13.8067
14.647
17.452
19.0205
20.0534
21.0625
21.9342
22.4451
22.5156
22.189
21.4914
20.7156
20.0192
19.439
19.0219
18.7854
7.06492
16.4587
20.7433
23.9481
25.7971
25.1773
20.6979
14.8859
13.6033
16.8719
19.7704
21.6362
22.7162
23.168
23.2266
23.0678
22.7369
22.2176
21.4928
20.7646
20.1995
19.7445
19.4469
19.2806
7.39083
16.6222
20.8375
23.772
24.5917
21.5595
16.3082
12.8019
15.0709
18.8382
21.1802
22.4992
23.2344
23.6805
23.8565
23.7265
23.3088
22.6593
21.8423
21.0665
20.5332
20.1412
19.8904
19.7573
7.75164
16.829
20.6894
22.7884
21.4592
17.7225
13.7961
12.865
17.4273
21.2077
23.535
24.8956
25.5589
25.6732
25.4096
24.906
24.2153
23.3679
22.4313
21.5965
21.0848
20.7487
20.5596
20.4767
6.9729
16.4605
19.9841
20.8264
18.5627
15.3508
11.6666
15.0075
20.2851
23.5571
25.4631
26.5711
27.1267
27.2689
27.0234
26.4286
25.5621
24.5187
23.428
22.4868
21.9473
21.6291
21.4645
21.4075
4.98527
14.5588
18.1311
17.9157
15.5001
11.9141
12.2562
18.5573
22.9975
25.7796
27.5849
28.7027
29.2612
29.3172
28.9481
28.2267
27.2203
26.0209
24.7879
23.7347
23.1442
22.8204
22.6666
22.632
3.17994
11.8206
15.2866
14.7973
12.5638
11.4373
16.2969
21.8095
25.5092
27.9692
29.6097
30.6508
31.2178
31.343
31.0227
30.2834
29.1977
27.8833
26.5352
25.3827
24.7291
24.382
24.2215
24.196
12.6677
11.042
3.31685
8.94858
13.8224
4.58314
10.4012
12.4607
9.55836
11.2088
10.8865
9.9245
9.69665
5.46101
4.15677
2.12072
1.62625
5.90666
5.86423
5.63092
5.36157
5.70176
1.18214
6.42313
7.90621
7.53675
4.64407
9.27748
11.2348
12.1859
8.35644
12.2139
4.0943
10.573
11.7805
14.8283
14.3801
4.80399
12.9738
11.239
27.7672
25.7633
25.2423
22.9742
22.2628
19.995
19.0974
16.9874
16.3156
14.5784
13.8558
12.4452
11.7473
11.4833
11.5005
9.38394
8.44616
7.6469
8.0763
7.20631
5.6136
6.93494
7.92068
9.38552
10.6902
11.6094
11.2701
12.8835
12.9532
14.6333
15.0671
17.469
18.2209
20.5596
21.2775
23.4551
24.3588
26.4269
27.3974
29.365
38.9734
37.4541
36.6087
35.1856
34.2517
32.9696
31.9972
30.9265
29.9313
29.1412
28.1552
27.4934
26.4396
25.7917
25.0662
24.7895
24.3514
24.2283
24.1142
23.9913
24.0615
24.2583
24.3754
24.5182
24.7746
25.2625
25.9396
26.6296
27.4756
28.4303
29.4043
30.5213
31.4605
32.7171
33.6198
35.0612
35.9161
37.4897
38.365
40.0085
41.8438
40.26
39.1908
37.7208
36.6258
35.3131
34.2153
33.1159
32.1378
31.3114
30.5089
29.8426
29.0838
28.4701
27.8934
27.3664
26.8588
26.6948
26.6668
26.3599
26.2215
26.4461
26.6205
26.8114
27.3281
27.8914
28.4111
29.1137
29.6758
30.6089
31.3872
32.559
33.4693
34.7685
35.7625
37.193
38.2632
39.8441
40.9486
42.6489
44.6219
43.1577
42.032
40.689
39.5597
38.3662
37.22
36.1838
35.1026
34.3378
33.4613
32.8766
32.0117
31.4196
30.8492
30.4968
29.9554
29.8609
29.8669
29.6407
29.5998
29.6907
29.7238
29.8555
30.2689
30.6703
31.3604
31.9533
32.6826
33.547
34.4622
35.5153
36.4623
37.6377
38.6779
39.987
41.1171
42.5177
43.7056
45.2126
45.0555
43.6136
42.4508
41.1398
39.9701
38.834
37.6413
36.6452
35.5379
34.7996
34.0196
33.5294
32.8193
32.1817
31.7015
31.3799
30.7855
30.7049
30.7985
30.5638
30.4448
30.4165
30.4167
30.5303
30.9639
31.4639
32.1804
32.7267
33.4485
34.2837
35.1619
36.1002
37.0188
38.123
39.1808
40.4559
41.6053
42.9336
44.1336
45.5334
45.7502
44.37
43.1822
41.966
40.7326
39.6713
38.4186
37.4418
36.2729
35.526
34.7455
34.3403
33.6872
33.0801
32.6073
32.5024
31.8351
31.7486
31.9095
31.8187
31.6503
31.4942
31.4186
31.4809
31.9238
32.3866
33.1843
33.6987
34.6178
35.4596
36.386
37.2526
38.2078
39.2748
40.3972
41.65
42.7942
44.0519
45.1632
46.4721
45.3377
44.1138
42.8369
41.7403
40.4548
39.4434
38.1559
37.189
36.0087
35.2526
34.5131
34.1966
33.704
33.066
32.606
32.6903
32.0283
31.82
31.9793
32.0462
31.7138
31.4955
31.4178
31.4955
31.9474
32.4806
33.3046
33.8839
35.0178
35.7879
36.7916
37.5322
38.6118
39.5788
40.845
41.9533
43.1905
44.2741
45.4236
46.5759
45.3304
44.0984
42.8395
41.7757
40.539
39.5665
38.3136
37.3586
36.2007
35.3989
34.57
34.2066
33.8433
33.2779
32.6607
32.9464
32.394
31.9778
31.9653
32.302
31.7116
31.5922
31.6269
31.7528
32.2522
32.7265
33.5127
34.2649
35.5279
36.2687
37.3552
38.0554
39.259
40.1154
41.4641
42.3539
43.7282
44.633
46.0115
47.0287
45.098
43.8907
42.5586
41.5829
40.3871
39.5558
38.4292
37.5679
36.4387
35.5943
34.6689
34.1482
33.7057
33.3868
32.5961
32.5795
32.4482
31.771
31.3657
31.9251
31.004
31.1377
31.6019
31.9169
32.405
32.7824
33.4727
34.2695
35.4596
36.1403
37.2362
37.8466
38.9794
39.7109
40.9291
41.7657
43.129
44.0728
45.563
46.5611
45.1466
43.9773
42.6583
41.7202
40.6242
39.855
38.8487
38.0425
36.9202
35.9734
34.9244
34.4811
33.8924
33.7863
33.157
32.5263
32.5551
32.1264
31.471
31.9073
31.0389
31.2466
32.023
32.2997
32.7717
33.2411
33.7468
34.3152
35.3683
35.9011
36.719
37.1
38.1258
38.8242
40.1983
41.1319
42.6088
43.6235
45.1008
46.1965
44.848
43.564
42.184
41.1973
40.0756
39.3139
38.2864
37.538
36.431
35.5064
34.322
33.7848
33.3332
33.2194
33.3632
32.8158
32.1436
32.3336
31.7514
31.7581
31.4926
31.5
32.0865
32.1845
32.6401
32.6383
33.1891
33.824
34.8722
35.3137
35.8518
36.403
37.5501
38.6523
39.952
40.9654
42.1687
43.1528
44.4237
45.5452
44.5737
43.1461
41.646
40.457
39.1529
38.1774
37.049
36.379
35.6228
35.2155
34.2727
33.4437
32.3635
31.8541
31.6921
32.278
31.7733
31.4681
31.0956
31.2117
31.1558
30.6781
30.8543
30.7288
31.0939
31.2444
32.2408
32.9117
34.0096
34.4525
35.382
36.196
37.7155
38.7906
40.1304
41.0303
42.2276
43.1114
44.3415
45.3742
44.1858
42.8679
41.4856
40.3403
39.0298
37.8876
36.4205
35.2139
33.8967
33.2311
32.3509
31.8833
31.1084
30.8736
30.5227
30.2134
30.1306
30.3873
29.6952
30.2785
29.3182
29.2778
29.4798
30.4246
31.3929
32.2283
32.9954
33.3932
34.1443
34.6681
35.7358
36.4932
37.7091
38.4323
39.5578
40.3486
41.6124
42.579
43.9457
45.0728
43.4478
42.185
40.7738
39.5717
38.27
37.2421
35.9898
34.9883
33.8311
33.2844
32.5144
32.0673
31.461
31.0691
30.5689
30.3164
29.4366
30.0147
29.7893
29.193
28.6046
28.5377
29.1007
29.3588
29.8939
30.1894
30.9221
31.4673
32.4515
33.0855
34.2416
35.0092
36.2931
37.1513
38.6403
39.7415
41.3457
42.4702
43.9455
45.0355
42.4984
41.4372
40.0858
38.8794
37.4119
36.275
34.9821
34.0477
32.8483
32.1731
31.4042
31.2699
30.6824
30.1497
29.0701
28.9562
27.7883
28.0239
29.1761
27.6221
27.5933
27.6872
28.2981
28.7524
29.3897
29.7995
30.6236
31.062
31.9975
32.5581
33.6845
34.3728
35.6665
36.4698
37.8214
38.6804
40.1583
41.225
42.7619
43.9173
41.1781
40.1923
38.9459
37.8482
36.4822
35.4328
34.1842
33.2814
32.0935
31.1737
30.004
29.1796
28.4072
28.1736
27.745
27.6338
26.8458
26.9099
26.9247
25.4396
25.4306
24.8411
25.7297
26.4959
27.3026
27.8324
28.8063
29.3955
30.4839
31.1529
32.4534
33.291
34.7531
35.627
37.1028
37.9545
39.4038
40.3534
41.8983
43.0373
40.9048
39.4194
38.077
37.0084
35.9537
35.1498
34.121
33.3234
32.1602
31.2446
29.8731
28.9505
27.8984
27.9739
27.5223
27.3123
26.8795
26.5367
25.6951
26.0105
27.0737
26.1173
26.8857
26.8286
26.8004
26.9155
27.689
28.1383
28.9691
29.6083
30.8629
31.8819
33.4179
34.4981
36.0029
36.9949
38.4593
39.492
41.0801
42.2916
40.3275
39.0319
37.7698
36.677
35.602
34.7583
33.8698
33.2413
32.4228
31.858
30.9104
30.215
29.027
28.4009
27.5054
27.2244
26.5931
26.7838
26.8085
27.2269
26.6559
27.192
27.4403
27.1743
27.6415
28.0337
28.8256
29.7678
30.8189
31.5795
32.4052
32.9971
33.8237
34.5118
35.5777
36.486
37.8506
38.972
40.6021
41.9103
40.2733
38.6542
37.1621
35.9259
34.8098
33.964
33.0842
32.4178
31.5368
30.8572
29.8478
29.2032
28.331
27.9556
27.1512
26.9356
26.3517
26.3716
26.0183
25.5759
25.9032
25.8527
26.0765
26.4846
26.9887
27.588
28.213
28.8712
29.5466
30.3243
31.1968
32.1632
33.2424
34.3573
35.5992
36.8321
38.2085