/*--------------------------------*- C++ -*----------------------------------*\
  =========                 |
  \\      /  F ield         | OpenFOAM: The Open Source CFD Toolbox
   \\    /   O peration     | Website:  https://openfoam.org
    \\  /    A nd           | Version:  6
     \\/     M anipulation  |
\*---------------------------------------------------------------------------*/
FoamFile
{
    version     2.0;
    format      ascii;
    class       surfaceScalarField;
    location    "1.4";
    object      phi;
}
// * * * * * * * * * * * * * * * * * * * * * * * * * * * * * * * * * * * * * //

dimensions      [0 3 -1 0 0 0 0];

internalField   nonuniform List<scalar> 
184155
(
1.04477e-06
-2.38072e-09
-3.10476e-07
5.63292e-09
1.08442e-06
-9.16977e-09
-4.36911e-08
1.32102e-08
1.07514e-06
-1.14415e-08
5.03876e-09
1.56827e-08
1.06546e-06
-1.3734e-08
5.20369e-09
1.82145e-08
1.05805e-06
-1.67521e-08
2.70186e-09
2.14547e-08
1.05136e-06
-1.94806e-08
2.11437e-09
2.40626e-08
1.04537e-06
-2.06943e-08
1.95851e-09
2.47279e-08
1.04058e-06
-2.00264e-08
1.52044e-09
2.32937e-08
1.03697e-06
-1.80927e-08
1.05484e-09
2.06482e-08
1.03426e-06
-1.58776e-08
6.56289e-10
1.79304e-08
1.03218e-06
-1.41165e-08
3.11695e-10
1.58858e-08
1.03041e-06
-1.31137e-08
1.33895e-10
1.47487e-08
1.0287e-06
-1.28478e-08
1.32534e-10
1.44229e-08
1.02698e-06
-1.31538e-08
1.78216e-10
1.47007e-08
1.02529e-06
-1.38607e-08
1.58935e-10
1.53921e-08
1.0237e-06
-1.48542e-08
6.00719e-11
1.63837e-08
1.02223e-06
-1.60623e-08
-6.71277e-11
1.75961e-08
1.02085e-06
-1.7444e-08
-1.66667e-10
1.89944e-08
1.01951e-06
-1.8957e-08
-2.18744e-10
2.05095e-08
1.01817e-06
-2.05743e-08
-2.14401e-10
2.21318e-08
1.01686e-06
-2.22624e-08
-2.16791e-10
2.37844e-08
1.01554e-06
-2.40065e-08
-1.57826e-10
2.54921e-08
1.01436e-06
-2.57815e-08
-2.26254e-10
2.7189e-08
1.01317e-06
-2.75806e-08
-1.33632e-10
2.89017e-08
1.01223e-06
-2.93714e-08
-2.78609e-10
3.05857e-08
1.01136e-06
-3.11618e-08
-2.18316e-10
3.22524e-08
1.01074e-06
-3.29021e-08
-3.29263e-10
3.38564e-08
1.01028e-06
-3.46177e-08
-3.50859e-10
3.54206e-08
1.0101e-06
-3.62451e-08
-4.46188e-10
3.68759e-08
1.0101e-06
-3.7829e-08
-4.496e-10
3.82768e-08
1.01052e-06
-3.9295e-08
-6.14278e-10
3.94846e-08
1.01107e-06
-4.07015e-08
-5.48125e-10
4.07014e-08
1.01251e-06
-4.20697e-08
-7.93721e-10
4.14268e-08
1.0138e-06
-4.31669e-08
-6.61467e-10
4.25364e-08
-4.51157e-08
5.45498e-10
1.01613e-06
4.22464e-08
1.0541e-06
3.63816e-10
-3.16251e-07
1.09555e-06
-5.5684e-09
-4.50492e-08
1.08714e-06
-7.96934e-09
4.93788e-09
1.07902e-06
-1.05912e-08
4.96825e-09
1.07436e-06
-1.39363e-08
1.84789e-09
1.07096e-06
-1.69372e-08
8.56429e-10
1.06789e-06
-1.83811e-08
7.60319e-10
1.06504e-06
-1.79123e-08
7.38141e-10
1.06242e-06
-1.61509e-08
6.7572e-10
1.06005e-06
-1.40752e-08
5.64664e-10
1.05795e-06
-1.24112e-08
3.94929e-10
1.05603e-06
-1.14621e-08
2.65214e-10
1.05417e-06
-1.12114e-08
2.29768e-10
1.05227e-06
-1.15044e-08
2.45517e-10
1.05036e-06
-1.2193e-08
2.47943e-10
1.04848e-06
-1.31769e-08
2.01975e-10
1.0467e-06
-1.4403e-08
1.13565e-10
1.04506e-06
-1.5818e-08
1.6661e-11
1.04358e-06
-1.73953e-08
-7.98284e-11
1.04221e-06
-1.90726e-08
-1.30234e-10
1.04099e-06
-2.08424e-08
-2.02111e-10
1.0398e-06
-2.26487e-08
-1.66075e-10
1.03877e-06
-2.44971e-08
-2.54497e-10
1.0377e-06
-2.63592e-08
-1.52296e-10
1.0368e-06
-2.82235e-08
-2.47188e-10
1.03592e-06
-3.00898e-08
-1.90233e-10
1.03517e-06
-3.19283e-08
-2.29936e-10
1.03455e-06
-3.37424e-08
-2.54807e-10
1.03411e-06
-3.5501e-08
-3.03217e-10
1.0338e-06
-3.71946e-08
-3.18436e-10
1.03374e-06
-3.88195e-08
-4.24005e-10
1.03373e-06
-4.02835e-08
-4.0789e-10
1.03405e-06
-4.18257e-08
-5.60768e-10
1.03423e-06
-4.28143e-08
-5.31829e-10
-4.49343e-08
-7.64573e-10
1.03481e-06
1.06103e-06
2.82363e-09
-3.15879e-07
1.10396e-06
-2.60235e-09
-4.58972e-08
1.09597e-06
-4.97784e-09
4.99552e-09
1.08761e-06
-7.71817e-09
5.48872e-09
1.0825e-06
-1.11773e-08
2.35199e-09
1.07861e-06
-1.42911e-08
1.24117e-09
1.07508e-06
-1.58858e-08
1.03435e-09
1.07194e-06
-1.56257e-08
8.54588e-10
1.06923e-06
-1.41134e-08
6.73184e-10
1.06688e-06
-1.22771e-08
5.58953e-10
1.06489e-06
-1.08002e-08
3.77923e-10
1.06312e-06
-9.96701e-09
2.68071e-10
1.06136e-06
-9.76944e-09
3.2114e-10
1.05952e-06
-1.00759e-08
4.13526e-10
1.05766e-06
-1.07587e-08
4.26397e-10
1.05587e-06
-1.17307e-08
3.37667e-10
1.05423e-06
-1.29438e-08
1.84422e-10
1.05273e-06
-1.43574e-08
4.14999e-11
1.05134e-06
-1.59356e-08
-6.66137e-11
1.05002e-06
-1.76373e-08
-1.19094e-10
1.04873e-06
-1.94252e-08
-1.27901e-10
1.04749e-06
-2.12723e-08
-1.32146e-10
1.04624e-06
-2.31534e-08
-1.02718e-10
1.04506e-06
-2.50608e-08
-1.14043e-10
1.04391e-06
-2.69793e-08
-9.51259e-11
1.04285e-06
-2.89027e-08
-1.24493e-10
1.04188e-06
-3.08242e-08
-1.36141e-10
1.04104e-06
-3.2726e-08
-1.72655e-10
1.04037e-06
-3.46049e-08
-2.26525e-10
1.03987e-06
-3.64302e-08
-2.69749e-10
1.03959e-06
-3.82134e-08
-3.27067e-10
1.03962e-06
-3.98658e-08
-4.40072e-10
1.03969e-06
-4.14821e-08
-4.18062e-10
1.04029e-06
-4.27842e-08
-6.29068e-10
-4.40894e-08
-1.04997e-09
1.04049e-06
1.06871e-06
4.85791e-09
-3.20077e-07
1.11326e-06
-1.31846e-10
-4.70222e-08
1.10568e-06
-2.35926e-09
4.95996e-09
1.09699e-06
-4.82822e-09
5.80237e-09
1.09091e-06
-7.92861e-09
2.82717e-09
1.08564e-06
-1.08812e-08
1.86064e-09
1.08074e-06
-1.26687e-08
1.68262e-09
1.07661e-06
-1.28765e-08
1.37932e-09
1.07346e-06
-1.1914e-08
9.54783e-10
1.07104e-06
-1.0535e-08
6.76054e-10
1.06917e-06
-9.35454e-09
4.22858e-10
1.0676e-06
-8.67351e-09
2.76096e-10
1.06605e-06
-8.5363e-09
3.18307e-10
1.06443e-06
-8.86051e-09
4.09519e-10
1.06279e-06
-9.54156e-09
4.17558e-10
1.06125e-06
-1.05012e-08
3.14726e-10
1.05984e-06
-1.16857e-08
1.53304e-10
1.05855e-06
-1.30651e-08
-2.12731e-12
1.0573e-06
-1.45971e-08
-9.73933e-11
1.05606e-06
-1.62635e-08
-1.30423e-10
1.05476e-06
-1.80153e-08
-1.13807e-10
1.05341e-06
-1.98501e-08
-6.37249e-11
1.05201e-06
-2.17289e-08
-3.30901e-11
1.0506e-06
-2.36575e-08
1.08185e-11
1.04922e-06
-2.56114e-08
8.32135e-12
1.0479e-06
-2.7591e-08
1.59597e-11
1.04667e-06
-2.95764e-08
-2.02114e-11
1.04555e-06
-3.15669e-08
-3.57823e-11
1.04457e-06
-3.35397e-08
-9.0644e-11
1.04376e-06
-3.54885e-08
-1.3095e-10
1.04314e-06
-3.74079e-08
-1.89089e-10
1.04276e-06
-3.92446e-08
-2.36087e-10
1.04265e-06
-4.10689e-08
-3.03096e-10
1.0429e-06
-4.26685e-08
-3.68293e-10
-4.42518e-08
-1.90744e-10
1.04325e-06
1.07686e-06
6.42229e-09
-3.27762e-07
1.12251e-06
2.10514e-09
-4.78854e-08
1.11453e-06
1.13471e-11
5.61092e-09
1.10526e-06
-2.13532e-09
6.57746e-09
1.09873e-06
-4.80205e-09
3.40343e-09
1.09309e-06
-7.539e-09
2.29771e-09
1.08792e-06
-9.49931e-09
1.99651e-09
1.08359e-06
-1.01829e-08
1.63819e-09
1.08028e-06
-9.77454e-09
1.17294e-09
1.07779e-06
-8.85367e-09
8.03877e-10
1.07589e-06
-7.97489e-09
5.26515e-10
1.07431e-06
-7.46688e-09
3.70113e-10
1.07285e-06
-7.42273e-09
3.44915e-10
1.07142e-06
-7.79344e-09
3.65939e-10
1.07001e-06
-8.49245e-09
3.55738e-10
1.06868e-06
-9.45086e-09
2.86984e-10
1.06742e-06
-1.06165e-08
1.88564e-10
1.06622e-06
-1.19586e-08
8.72573e-11
1.06504e-06
-1.34456e-08
3.2468e-11
1.06382e-06
-1.50551e-08
1.63813e-11
1.06254e-06
-1.67681e-08
2.44009e-11
1.06117e-06
-1.85624e-08
8.81712e-11
1.05981e-06
-2.04357e-08
6.25029e-11
1.05836e-06
-2.23649e-08
1.64171e-10
1.05702e-06
-2.43472e-08
6.92964e-11
1.05565e-06
-2.63705e-08
1.56283e-10
1.05443e-06
-2.8414e-08
5.25803e-11
1.05327e-06
-3.04821e-08
7.20204e-11
1.05228e-06
-3.25477e-08
-4.72793e-13
1.05142e-06
-3.4607e-08
-1.63731e-11
1.05081e-06
-3.66727e-08
-1.24243e-10
1.05031e-06
-3.86554e-08
-8.84014e-11
1.05033e-06
-4.07959e-08
-2.96527e-10
1.05044e-06
-4.25318e-08
-2.45999e-10
-4.52188e-08
9.51207e-11
1.05131e-06
1.08285e-06
7.56722e-09
-3.30129e-07
1.1307e-06
3.83031e-09
-4.95739e-08
1.12397e-06
1.77674e-09
4.96416e-09
1.11589e-06
-4.23876e-10
6.36272e-09
1.11153e-06
-3.14036e-09
2.69873e-09
1.10872e-06
-5.90372e-09
1.17599e-09
1.10622e-06
-7.89156e-09
8.95208e-10
1.10381e-06
-8.64372e-09
8.71445e-10
1.10156e-06
-8.33722e-09
8.07435e-10
1.09949e-06
-7.53046e-09
7.44248e-10
1.09763e-06
-6.75391e-09
6.43878e-10
1.09591e-06
-6.32417e-09
5.80679e-10
1.09421e-06
-6.3274e-09
6.03045e-10
1.0925e-06
-6.71103e-09
6.24264e-10
1.09081e-06
-7.39852e-09
5.9289e-10
1.08919e-06
-8.33267e-09
5.07081e-10
1.08765e-06
-9.47553e-09
3.9681e-10
1.08621e-06
-1.079e-08
2.76365e-10
1.08484e-06
-1.22597e-08
1.77735e-10
1.0835e-06
-1.38443e-08
1.29174e-10
1.08221e-06
-1.55447e-08
6.72252e-11
1.08085e-06
-1.7324e-08
1.20668e-10
1.07955e-06
-1.91868e-08
5.66139e-11
1.07815e-06
-2.11118e-08
1.39563e-10
1.07679e-06
-2.30918e-08
1.07326e-10
1.07542e-06
-2.5119e-08
1.21857e-10
1.07405e-06
-2.71816e-08
1.3516e-10
1.07272e-06
-2.927e-08
1.14944e-10
1.07148e-06
-3.13808e-08
8.1602e-11
1.07026e-06
-3.34843e-08
9.45797e-11
1.06919e-06
-3.56167e-08
1.48178e-11
1.06815e-06
-3.76579e-08
3.59757e-11
1.06725e-06
-3.98544e-08
-3.88509e-11
1.06641e-06
-4.16388e-08
-5.2842e-11
-4.43338e-08
-3.68657e-10
1.06589e-06
1.08742e-06
8.5097e-09
-3.29907e-07
1.13651e-06
5.11922e-09
-5.03844e-08
1.13003e-06
3.16529e-09
5.08937e-09
1.12171e-06
9.62237e-10
6.94263e-09
1.11714e-06
-1.7577e-09
3.18646e-09
1.1143e-06
-4.4962e-09
1.43149e-09
1.11184e-06
-6.45862e-09
1.02141e-09
1.10948e-06
-7.22148e-09
9.37668e-10
1.10737e-06
-6.98741e-09
7.63222e-10
1.10541e-06
-6.29455e-09
7.29241e-10
1.10369e-06
-5.63743e-09
5.93946e-10
1.10217e-06
-5.29474e-09
4.93775e-10
1.10052e-06
-5.33771e-09
6.66321e-10
1.0987e-06
-5.72759e-09
8.30076e-10
1.09689e-06
-6.40217e-09
8.17084e-10
1.09518e-06
-7.31266e-09
6.84971e-10
1.09362e-06
-8.42132e-09
5.10415e-10
1.09218e-06
-9.6995e-09
3.4473e-10
1.09084e-06
-1.11233e-08
2.11971e-10
1.08952e-06
-1.26698e-08
1.42381e-10
1.08818e-06
-1.43245e-08
1.16026e-10
1.0868e-06
-1.60684e-08
1.31593e-10
1.08534e-06
-1.78938e-08
1.58953e-10
1.08383e-06
-1.97866e-08
1.92913e-10
1.08226e-06
-2.17397e-08
2.13753e-10
1.08065e-06
-2.37452e-08
2.35353e-10
1.07903e-06
-2.57956e-08
2.37284e-10
1.07741e-06
-2.78827e-08
2.27183e-10
1.07582e-06
-3.00055e-08
2.19751e-10
1.0743e-06
-3.21395e-08
1.7729e-10
1.07282e-06
-3.43062e-08
1.64032e-10
1.07151e-06
-3.64288e-08
7.71861e-11
1.07015e-06
-3.86043e-08
1.11336e-10
1.06914e-06
-4.05899e-08
-3.75856e-11
-4.27883e-08
-5.51784e-10
1.06815e-06
1.09266e-06
9.15612e-09
-3.32696e-07
1.14311e-06
6.03352e-09
-5.13687e-08
1.13695e-06
4.21974e-09
5.10635e-09
1.12833e-06
2.23544e-09
7.35018e-09
1.12312e-06
-1.7012e-10
3.62402e-09
1.1194e-06
-2.66563e-09
1.88594e-09
1.11607e-06
-4.59589e-09
1.46958e-09
1.11306e-06
-5.51782e-09
1.30564e-09
1.11067e-06
-5.55035e-09
9.49792e-10
1.1087e-06
-5.12357e-09
8.01778e-10
1.10712e-06
-4.66688e-09
6.09483e-10
1.10579e-06
-4.43437e-09
4.74837e-10
1.10429e-06
-4.51356e-09
6.73978e-10
1.10258e-06
-4.90422e-09
8.79219e-10
1.10087e-06
-5.56508e-09
8.78627e-10
1.09927e-06
-6.44833e-09
7.36578e-10
1.09781e-06
-7.51256e-09
5.46952e-10
1.09647e-06
-8.73177e-09
3.71069e-10
1.0952e-06
-1.0082e-08
2.2999e-10
1.09391e-06
-1.15538e-08
1.71408e-10
1.09257e-06
-1.31266e-08
1.45743e-10
1.09111e-06
-1.47992e-08
1.9512e-10
1.08954e-06
-1.6552e-08
2.29584e-10
1.08785e-06
-1.83852e-08
2.87569e-10
1.08606e-06
-2.02853e-08
3.34677e-10
1.08421e-06
-2.22487e-08
3.45979e-10
1.08231e-06
-2.42665e-08
3.74108e-10
1.08039e-06
-2.63346e-08
3.73193e-10
1.07848e-06
-2.84447e-08
3.47796e-10
1.07658e-06
-3.0589e-08
3.4772e-10
1.07473e-06
-3.27691e-08
3.1827e-10
1.07298e-06
-3.49496e-08
2.73855e-10
1.07126e-06
-3.71655e-08
2.8003e-10
1.06976e-06
-3.92995e-08
2.01354e-10
-4.15087e-08
5.72965e-11
1.06843e-06
1.09836e-06
9.44174e-09
-3.38032e-07
1.14962e-06
6.72552e-09
-5.1957e-08
1.1431e-06
5.03419e-09
5.70884e-09
1.13391e-06
3.29861e-09
8.12973e-09
1.12833e-06
1.26076e-09
4.14447e-09
1.12436e-06
-9.48437e-10
2.25788e-09
1.12086e-06
-2.81569e-09
1.7133e-09
1.11781e-06
-3.89768e-09
1.4351e-09
1.11536e-06
-4.20083e-09
1.09882e-09
1.11341e-06
-4.03875e-09
8.58551e-10
1.11185e-06
-3.77503e-09
6.75187e-10
1.11048e-06
-3.65841e-09
5.93255e-10
1.10909e-06
-3.79698e-09
6.6962e-10
1.10763e-06
-4.20227e-09
7.56887e-10
1.10616e-06
-4.84673e-09
7.51508e-10
1.10474e-06
-5.68839e-09
6.6686e-10
1.10337e-06
-6.69966e-09
5.50191e-10
1.10205e-06
-7.84831e-09
4.40244e-10
1.10075e-06
-9.12732e-09
3.43936e-10
1.0994e-06
-1.05135e-08
3.15656e-10
1.098e-06
-1.20054e-08
2.76778e-10
1.09645e-06
-1.359e-08
3.40882e-10
1.09483e-06
-1.52606e-08
3.28767e-10
1.09304e-06
-1.70163e-08
4.13754e-10
1.09119e-06
-1.88452e-08
4.14778e-10
1.08924e-06
-2.07484e-08
4.53497e-10
1.08722e-06
-2.27144e-08
4.63874e-10
1.08516e-06
-2.47431e-08
4.65342e-10
1.08309e-06
-2.68255e-08
4.55235e-10
1.08101e-06
-2.89564e-08
4.46672e-10
1.07898e-06
-3.11461e-08
4.06297e-10
1.07697e-06
-3.33485e-08
4.07754e-10
1.07516e-06
-3.56789e-08
3.24906e-10
1.07339e-06
-3.78594e-08
3.25464e-10
-4.0604e-08
4.11309e-10
1.07208e-06
1.1036e-06
9.38972e-09
-3.41956e-07
1.15746e-06
7.15895e-09
-5.42941e-08
1.15203e-06
5.57246e-09
4.89035e-09
1.14307e-06
3.85854e-09
8.39944e-09
1.13855e-06
1.8229e-09
3.96104e-09
1.13638e-06
-3.50475e-10
1.56895e-09
1.13474e-06
-2.14457e-09
9.68229e-10
1.1331e-06
-3.17294e-09
9.2057e-10
1.13143e-06
-3.45475e-09
9.26189e-10
1.12977e-06
-3.29915e-09
9.16194e-10
1.12816e-06
-3.0548e-09
8.92301e-10
1.12658e-06
-2.9688e-09
8.90535e-10
1.125e-06
-3.13881e-09
9.14223e-10
1.12344e-06
-3.54412e-09
9.11212e-10
1.12187e-06
-4.14824e-09
8.66656e-10
1.12031e-06
-4.92256e-09
7.98728e-10
1.11874e-06
-5.8594e-09
7.20969e-10
1.11718e-06
-6.93266e-09
6.47137e-10
1.11562e-06
-8.14162e-09
5.72832e-10
1.11404e-06
-9.45728e-09
5.30392e-10
1.11242e-06
-1.08815e-08
4.88037e-10
1.11073e-06
-1.23917e-08
4.95088e-10
1.10897e-06
-1.39889e-08
4.85127e-10
1.10709e-06
-1.56614e-08
5.24433e-10
1.10513e-06
-1.74086e-08
5.28166e-10
1.10303e-06
-1.92242e-08
5.72579e-10
1.10085e-06
-2.11078e-08
5.80994e-10
1.09855e-06
-2.30536e-08
6.10852e-10
1.09617e-06
-2.50631e-08
6.11316e-10
1.09371e-06
-2.71244e-08
6.30777e-10
1.0912e-06
-2.92562e-08
6.14633e-10
1.08864e-06
-3.14014e-08
6.2044e-10
1.08603e-06
-3.36887e-08
6.19865e-10
1.08338e-06
-3.58082e-08
5.94267e-10
-3.85443e-08
3.41088e-10
1.08098e-06
1.10622e-06
9.11609e-09
-3.41643e-07
1.16107e-06
7.20497e-09
-5.48977e-08
1.15592e-06
5.76214e-09
4.95844e-09
1.14681e-06
4.10765e-09
8.86453e-09
1.1422e-06
2.10164e-09
4.32265e-09
1.14014e-06
-1.21973e-11
1.73098e-09
1.13867e-06
-1.70443e-09
1.02514e-09
1.13719e-06
-2.63475e-09
9.41955e-10
1.1357e-06
-2.8564e-09
8.88028e-10
1.13419e-06
-2.68449e-09
8.94526e-10
1.13279e-06
-2.45077e-09
8.0515e-10
1.13144e-06
-2.38014e-09
7.52409e-10
1.12987e-06
-2.55202e-09
9.85706e-10
1.12805e-06
-2.93695e-09
1.21615e-09
1.1262e-06
-3.49828e-09
1.20259e-09
1.12446e-06
-4.21553e-09
1.03071e-09
1.12284e-06
-5.08244e-09
8.43684e-10
1.12129e-06
-6.08086e-09
6.93636e-10
1.11976e-06
-7.20422e-09
5.90233e-10
1.11822e-06
-8.43235e-09
5.23845e-10
1.11659e-06
-9.7599e-09
5.02016e-10
1.11486e-06
-1.11729e-08
5.09229e-10
1.113e-06
-1.26669e-08
5.39777e-10
1.111e-06
-1.42353e-08
5.795e-10
1.10884e-06
-1.5875e-08
6.24242e-10
1.10654e-06
-1.75821e-08
6.56152e-10
1.1041e-06
-1.93578e-08
6.94935e-10
1.10153e-06
-2.11964e-08
7.1258e-10
1.09883e-06
-2.3104e-08
7.3331e-10
1.09604e-06
-2.50683e-08
7.33138e-10
1.09315e-06
-2.71064e-08
7.44589e-10
1.09021e-06
-2.91785e-08
7.13732e-10
1.08715e-06
-3.13568e-08
7.29547e-10
1.08415e-06
-3.34645e-08
6.59856e-10
-3.59404e-08
2.71224e-10
1.08127e-06
1.10895e-06
8.7276e-09
-3.41554e-07
1.16499e-06
6.97891e-09
-5.58123e-08
1.16022e-06
5.70559e-09
4.82028e-09
1.15088e-06
4.20939e-09
9.24144e-09
1.14587e-06
2.38501e-09
4.7303e-09
1.14336e-06
4.53658e-10
2.03651e-09
1.14149e-06
-1.11784e-09
1.28766e-09
1.13966e-06
-1.99693e-09
1.19679e-09
1.13807e-06
-2.23708e-09
9.64636e-10
1.13654e-06
-2.12299e-09
9.68697e-10
1.13529e-06
-1.9545e-09
7.51842e-10
1.13432e-06
-1.91055e-09
5.06783e-10
1.13285e-06
-2.05616e-09
9.69003e-10
1.13082e-06
-2.39901e-09
1.49196e-09
1.12873e-06
-2.91868e-09
1.51075e-09
1.12688e-06
-3.58768e-09
1.22546e-09
1.12525e-06
-4.38724e-09
9.34277e-10
1.12375e-06
-5.30294e-09
7.22709e-10
1.12228e-06
-6.32512e-09
5.87195e-10
1.12079e-06
-7.44506e-09
5.05337e-10
1.1192e-06
-8.65403e-09
4.86804e-10
1.11747e-06
-9.94692e-09
5.05518e-10
1.11555e-06
-1.13148e-08
5.60788e-10
1.11345e-06
-1.27565e-08
6.21878e-10
1.11115e-06
-1.42657e-08
6.87966e-10
1.10868e-06
-1.58424e-08
7.39126e-10
1.10602e-06
-1.74861e-08
7.85353e-10
1.1032e-06
-1.91938e-08
8.16336e-10
1.10022e-06
-2.09699e-08
8.40998e-10
1.09711e-06
-2.28082e-08
8.50089e-10
1.09386e-06
-2.47153e-08
8.65801e-10
1.09051e-06
-2.66775e-08
8.45873e-10
1.08699e-06
-2.87117e-08
8.73612e-10
1.08347e-06
-3.07633e-08
8.18472e-10
-3.30062e-08
4.65488e-10
1.08007e-06
1.11239e-06
8.11608e-09
-3.44362e-07
1.16908e-06
6.5522e-09
-5.62604e-08
1.16419e-06
5.42082e-09
5.17126e-09
1.15443e-06
4.13299e-09
9.83265e-09
1.14907e-06
2.59495e-09
5.15022e-09
1.14622e-06
9.41507e-10
2.361e-09
1.14402e-06
-4.59102e-10
1.54263e-09
1.14198e-06
-1.29893e-09
1.34843e-09
1.14024e-06
-1.59824e-09
1.10288e-09
1.13871e-06
-1.5833e-09
9.88987e-10
1.13746e-06
-1.5039e-09
7.95573e-10
1.13641e-06
-1.50565e-09
6.48383e-10
1.13502e-06
-1.64718e-09
9.74906e-10
1.13321e-06
-1.9563e-09
1.37403e-09
1.1313e-06
-2.42753e-09
1.41928e-09
1.12954e-06
-3.03582e-09
1.20826e-09
1.12794e-06
-3.75627e-09
9.67198e-10
1.12643e-06
-4.57789e-09
7.81296e-10
1.12493e-06
-5.48908e-09
6.62359e-10
1.12339e-06
-6.4897e-09
5.89461e-10
1.12173e-06
-7.56861e-09
5.77159e-10
1.11991e-06
-8.72524e-09
5.95827e-10
1.11789e-06
-9.95103e-09
6.52739e-10
1.11566e-06
-1.12444e-08
7.15137e-10
1.11322e-06
-1.26031e-08
7.7881e-10
1.11057e-06
-1.40269e-08
8.42372e-10
1.10772e-06
-1.55155e-08
8.78203e-10
1.10467e-06
-1.70698e-08
9.26111e-10
1.10144e-06
-1.86901e-08
9.452e-10
1.09805e-06
-2.03762e-08
9.58256e-10
1.09449e-06
-2.21287e-08
9.79116e-10
1.09079e-06
-2.39462e-08
9.64837e-10
1.08692e-06
-2.58256e-08
9.86602e-10
1.08294e-06
-2.77507e-08
9.59593e-10
-2.9808e-08
7.74091e-10
1.07897e-06
1.11603e-06
7.2939e-09
-3.47794e-07
1.17333e-06
5.98695e-09
-5.67316e-08
1.16824e-06
4.98521e-09
5.52901e-09
1.15804e-06
3.94345e-09
1.0387e-08
1.15237e-06
2.76591e-09
5.49579e-09
1.14927e-06
1.44506e-09
2.598e-09
1.14685e-06
2.32793e-10
1.72893e-09
1.14468e-06
-5.94611e-10
1.46194e-09
1.14285e-06
-9.93076e-10
1.22724e-09
1.14133e-06
-1.10407e-09
1.03951e-09
1.14006e-06
-1.11752e-09
8.84583e-10
1.13889e-06
-1.16911e-09
8.358e-10
1.13757e-06
-1.32753e-09
9.97968e-10
1.13605e-06
-1.61752e-09
1.18475e-09
1.13445e-06
-2.03486e-09
1.20433e-09
1.13289e-06
-2.56409e-09
1.08403e-09
1.13139e-06
-3.18889e-09
9.3611e-10
1.1299e-06
-3.90042e-09
8.1246e-10
1.12837e-06
-4.69016e-09
7.34535e-10
1.12674e-06
-5.55667e-09
6.91547e-10
1.12498e-06
-6.49393e-09
6.8877e-10
1.12303e-06
-7.49841e-09
7.20026e-10
1.12089e-06
-8.56912e-09
7.60125e-10
1.11852e-06
-9.69961e-09
8.26943e-10
1.11594e-06
-1.08946e-08
8.69461e-10
1.11313e-06
-1.21498e-08
9.35032e-10
1.11012e-06
-1.34676e-08
9.59233e-10
1.10689e-06
-1.48492e-08
1.00957e-09
1.10347e-06
-1.62939e-08
1.02452e-09
1.09986e-06
-1.7804e-08
1.04327e-09
1.09605e-06
-1.93828e-08
1.05822e-09
1.09207e-06
-2.1025e-08
1.05647e-09
1.08795e-06
-2.27587e-08
1.05861e-09
1.08366e-06
-2.4512e-08
1.05003e-09
-2.65457e-08
1.04511e-09
1.07935e-06
1.11938e-06
6.27187e-09
-3.50641e-07
1.17905e-06
5.29383e-09
-5.89807e-08
1.17484e-06
4.45366e-09
4.74012e-09
1.1642e-06
3.53162e-09
1.10528e-08
1.1587e-06
2.4694e-09
5.80166e-09
1.15652e-06
1.30132e-09
2.32602e-09
1.15516e-06
2.58705e-10
1.32553e-09
1.15382e-06
-4.4019e-10
1.18696e-09
1.15243e-06
-7.67483e-10
1.16944e-09
1.15103e-06
-8.48432e-10
1.138e-09
1.14966e-06
-8.46703e-10
1.10687e-09
1.14826e-06
-8.94922e-10
1.11901e-09
1.14681e-06
-1.05757e-09
1.17918e-09
1.1453e-06
-1.32577e-09
1.21898e-09
1.14375e-06
-1.6766e-09
1.1962e-09
1.14216e-06
-2.10439e-09
1.12612e-09
1.14054e-06
-2.61421e-09
1.0502e-09
1.13886e-06
-3.2026e-09
9.81064e-10
1.1371e-06
-3.87003e-09
9.35814e-10
1.13524e-06
-4.60677e-09
9.10924e-10
1.13326e-06
-5.41139e-09
8.98755e-10
1.13111e-06
-6.27368e-09
9.27382e-10
1.1288e-06
-7.19188e-09
9.34599e-10
1.12627e-06
-8.16151e-09
9.90464e-10
1.12354e-06
-9.18281e-09
1.02104e-09
1.12058e-06
-1.02558e-08
1.06014e-09
1.11739e-06
-1.13829e-08
1.1085e-09
1.11397e-06
-1.25649e-08
1.13499e-09
1.11032e-06
-1.38055e-08
1.16626e-09
1.10642e-06
-1.51041e-08
1.19425e-09
1.1023e-06
-1.64678e-08
1.20642e-09
1.09794e-06
-1.78859e-08
1.22108e-09
1.09334e-06
-1.93946e-08
1.23299e-09
1.0885e-06
-2.09034e-08
1.2327e-09
-2.26977e-08
1.13535e-09
1.08352e-06
1.12022e-06
5.1261e-09
-3.50456e-07
1.18037e-06
4.38162e-09
-5.92397e-08
1.17638e-06
3.71631e-09
4.72297e-09
1.16575e-06
2.93779e-09
1.12263e-08
1.16029e-06
2.00564e-09
5.92711e-09
1.15824e-06
9.93241e-10
2.3555e-09
1.15706e-06
1.24348e-10
1.31238e-09
1.15587e-06
-4.28831e-10
1.17655e-09
1.15463e-06
-6.61529e-10
1.14048e-09
1.15335e-06
-6.92539e-10
1.11855e-09
1.15215e-06
-6.62023e-10
1.01512e-09
1.151e-06
-6.86999e-10
9.42872e-10
1.14957e-06
-8.22927e-10
1.19686e-09
1.14775e-06
-1.04668e-09
1.53748e-09
1.14581e-06
-1.32768e-09
1.59477e-09
1.14397e-06
-1.66514e-09
1.3988e-09
1.14226e-06
-2.06967e-09
1.16449e-09
1.14061e-06
-2.54195e-09
9.95159e-10
1.13891e-06
-3.08163e-09
9.0757e-10
1.13712e-06
-3.68053e-09
8.64354e-10
1.13518e-06
-4.33558e-09
8.66038e-10
1.13305e-06
-5.03878e-09
8.9377e-10
1.13071e-06
-5.7878e-09
9.36887e-10
1.12813e-06
-6.57925e-09
9.97441e-10
1.12531e-06
-7.41324e-09
1.05026e-09
1.12224e-06
-8.28979e-09
1.10717e-09
1.11891e-06
-9.21115e-09
1.15184e-09
1.11533e-06
-1.01786e-08
1.19574e-09
1.11149e-06
-1.11956e-08
1.22832e-09
1.1074e-06
-1.22624e-08
1.2519e-09
1.10304e-06
-1.33853e-08
1.27686e-09
1.09843e-06
-1.45575e-08
1.28093e-09
1.09354e-06
-1.58021e-08
1.2971e-09
1.08842e-06
-1.70615e-08
1.28265e-09
-1.85193e-08
1.1735e-09
1.08306e-06
1.1211e-06
3.93396e-09
-3.50395e-07
1.18175e-06
3.35244e-09
-5.96167e-08
1.17794e-06
2.85516e-09
4.66998e-09
1.16722e-06
2.24686e-09
1.14081e-08
1.16163e-06
1.49838e-09
6.10152e-09
1.15947e-06
6.88715e-10
2.46169e-09
1.1582e-06
5.68415e-12
1.38365e-09
1.15693e-06
-4.11877e-10
1.25223e-09
1.1557e-06
-5.69841e-10
1.13812e-09
1.15445e-06
-5.71879e-10
1.13707e-09
1.15339e-06
-5.35022e-10
9.32655e-10
1.1526e-06
-5.39657e-10
6.36042e-10
1.15131e-06
-6.1835e-10
1.08689e-09
1.1492e-06
-7.68223e-10
1.82997e-09
1.14685e-06
-9.77214e-10
2.0003e-09
1.14477e-06
-1.24012e-09
1.66193e-09
1.14299e-06
-1.55502e-09
1.26362e-09
1.14136e-06
-1.91921e-09
1.00264e-09
1.13973e-06
-2.33011e-09
8.7772e-10
1.13801e-06
-2.78324e-09
8.22452e-10
1.13613e-06
-3.27665e-09
8.24044e-10
1.13404e-06
-3.8066e-09
8.61408e-10
1.1317e-06
-4.37213e-09
9.19091e-10
1.1291e-06
-4.97155e-09
9.96483e-10
1.12622e-06
-5.6051e-09
1.06663e-09
1.12307e-06
-6.27249e-09
1.1332e-09
1.11965e-06
-6.97527e-09
1.19136e-09
1.11594e-06
-7.71424e-09
1.23859e-09
1.11196e-06
-8.49164e-09
1.2759e-09
1.1077e-06
-9.30836e-09
1.30523e-09
1.10316e-06
-1.01683e-08
1.32854e-09
1.09833e-06
-1.10689e-08
1.33942e-09
1.0932e-06
-1.20227e-08
1.35503e-09
1.08779e-06
-1.29996e-08
1.34859e-09
-1.41122e-08
1.27066e-09
1.08211e-06
1.12213e-06
2.67794e-09
-3.50838e-07
1.18312e-06
2.23282e-09
-5.98657e-08
1.17934e-06
1.90639e-09
4.72626e-09
1.16847e-06
1.48541e-09
1.16304e-08
1.16274e-06
9.46549e-10
6.28381e-09
1.16048e-06
3.65473e-10
2.58166e-09
1.15913e-06
-1.17765e-10
1.47005e-09
1.15779e-06
-3.97258e-10
1.32381e-09
1.15654e-06
-4.85848e-10
1.17347e-09
1.15527e-06
-4.67718e-10
1.16228e-09
1.15424e-06
-4.34369e-10
9.33062e-10
1.15354e-06
-4.24035e-10
5.78262e-10
1.15231e-06
-4.42828e-10
1.06008e-09
1.15016e-06
-5.14349e-10
1.89262e-09
1.14774e-06
-6.49905e-10
2.09458e-09
1.14561e-06
-8.37594e-10
1.73071e-09
1.14381e-06
-1.06051e-09
1.30131e-09
1.14218e-06
-1.31206e-09
1.02447e-09
1.14054e-06
-1.58941e-09
8.93836e-10
1.13882e-06
-1.89158e-09
8.3669e-10
1.13692e-06
-2.21948e-09
8.37626e-10
1.13481e-06
-2.57165e-09
8.75201e-10
1.13245e-06
-2.94885e-09
9.35524e-10
1.12981e-06
-3.34993e-09
1.01631e-09
1.12689e-06
-3.77505e-09
1.09062e-09
1.12368e-06
-4.22384e-09
1.1622e-09
1.12018e-06
-4.69735e-09
1.22354e-09
1.11639e-06
-5.19584e-09
1.2747e-09
1.1123e-06
-5.72064e-09
1.3141e-09
1.10792e-06
-6.27262e-09
1.34512e-09
1.10324e-06
-6.85407e-09
1.36912e-09
1.09825e-06
-7.46437e-09
1.38195e-09
1.09294e-06
-8.1099e-09
1.39427e-09
1.08733e-06
-8.77523e-09
1.39167e-09
-9.52817e-09
1.34293e-09
1.0814e-06
1.12339e-06
1.35164e-09
-3.52029e-07
1.1846e-06
1.06196e-09
-6.00329e-08
1.18074e-06
9.01777e-10
4.86411e-09
1.16966e-06
6.8531e-10
1.18734e-08
1.16378e-06
3.91373e-10
6.4373e-09
1.16138e-06
7.09166e-11
2.69764e-09
1.15988e-06
-1.94111e-10
1.57243e-09
1.15845e-06
-3.41977e-10
1.37416e-09
1.15709e-06
-3.80719e-10
1.25491e-09
1.15582e-06
-3.60293e-10
1.16565e-09
1.15471e-06
-3.32675e-10
1.00703e-09
1.15372e-06
-3.13367e-10
8.80202e-10
1.1524e-06
-3.01736e-10
1.17523e-09
1.15057e-06
-3.18767e-10
1.63418e-09
1.14855e-06
-3.78663e-10
1.75407e-09
1.14664e-06
-4.72716e-10
1.53937e-09
1.14491e-06
-5.86017e-10
1.25678e-09
1.14325e-06
-7.11885e-10
1.05929e-09
1.14156e-06
-8.48681e-10
9.51484e-10
1.13975e-06
-9.96711e-10
9.11625e-10
1.13778e-06
-1.15716e-09
9.10749e-10
1.13559e-06
-1.32993e-09
9.46539e-10
1.13316e-06
-1.51553e-09
1.0037e-09
1.13045e-06
-1.71369e-09
1.0688e-09
1.12746e-06
-1.92455e-09
1.14008e-09
1.12418e-06
-2.148e-09
1.20289e-09
1.12061e-06
-2.38448e-09
1.25911e-09
1.11674e-06
-2.63404e-09
1.30639e-09
1.11257e-06
-2.89714e-09
1.34541e-09
1.1081e-06
-3.17419e-09
1.3752e-09
1.10331e-06
-3.4662e-09
1.39816e-09
1.09821e-06
-3.77319e-09
1.41326e-09
1.09277e-06
-4.09796e-09
1.42246e-09
1.08701e-06
-4.43395e-09
1.42224e-09
-4.81378e-09
1.39867e-09
1.0809e-06
1.12467e-06
-3.53288e-07
1.18603e-06
-6.01962e-08
1.182e-06
5.03394e-09
1.17067e-06
1.21264e-08
1.16459e-06
6.59939e-09
1.16204e-06
2.80827e-09
1.1604e-06
1.6624e-09
1.15886e-06
1.42895e-09
1.15742e-06
1.31353e-09
1.15609e-06
1.20156e-09
1.15488e-06
1.09902e-09
1.1537e-06
1.07694e-09
1.15236e-06
1.21701e-09
1.15083e-06
1.38805e-09
1.14918e-06
1.41928e-09
1.14753e-06
1.31674e-09
1.14589e-06
1.17892e-09
1.14422e-06
1.07481e-09
1.14247e-06
1.01249e-09
1.14057e-06
9.9405e-10
1.1385e-06
1.00068e-09
1.13622e-06
1.03414e-09
1.13369e-06
1.08244e-09
1.13091e-06
1.13468e-09
1.12786e-06
1.19287e-09
1.12452e-06
1.24418e-09
1.1209e-06
1.29151e-09
1.11698e-06
1.33231e-09
1.11276e-06
1.36709e-09
1.10823e-06
1.39456e-09
1.10339e-06
1.41542e-09
1.09822e-06
1.43028e-09
1.09272e-06
1.4379e-09
1.08688e-06
1.43846e-09
1.42518e-09
1.08067e-06
2.12598e-06
-1.97254e-10
-3.92663e-07
6.46274e-09
2.14669e-06
-1.13916e-08
-7.1696e-08
1.86863e-08
2.14095e-06
-1.69188e-08
2.97643e-09
2.47259e-08
2.12989e-06
-2.16788e-08
7.87521e-09
3.00608e-08
2.11926e-06
-2.76983e-08
4.31079e-09
3.67208e-08
2.10938e-06
-3.39043e-08
2.82605e-09
4.30755e-08
2.10031e-06
-3.7902e-08
2.52888e-09
4.63963e-08
2.09257e-06
-3.82742e-08
2.06536e-09
4.54696e-08
2.08632e-06
-3.55391e-08
1.53258e-09
4.1314e-08
2.08129e-06
-3.14129e-08
1.04729e-09
3.60524e-08
2.07712e-06
-2.75533e-08
5.53016e-10
3.14793e-08
2.07346e-06
-2.48904e-08
2.39906e-10
2.84481e-08
2.06998e-06
-2.36231e-08
2.2803e-10
2.70109e-08
2.06649e-06
-2.35313e-08
3.56867e-10
2.68355e-08
2.063e-06
-2.42872e-08
3.97769e-10
2.75372e-08
2.05958e-06
-2.56349e-08
2.64196e-10
2.88511e-08
2.05629e-06
-2.74117e-08
2.98715e-11
3.06077e-08
2.05311e-06
-2.95259e-08
-1.8734e-10
3.27262e-08
2.05002e-06
-3.19019e-08
-3.21847e-10
3.50981e-08
2.04695e-06
-3.44841e-08
-3.42185e-10
3.76836e-08
2.04392e-06
-3.72152e-08
-3.47583e-10
4.03684e-08
2.04089e-06
-4.00571e-08
-2.1943e-10
4.31528e-08
2.03798e-06
-4.29739e-08
-2.90792e-10
4.5954e-08
2.0351e-06
-4.59357e-08
-9.55504e-11
4.87769e-08
2.03239e-06
-4.89121e-08
-2.39947e-10
5.15797e-08
2.02984e-06
-5.18772e-08
-1.3727e-10
5.43486e-08
2.02746e-06
-5.47979e-08
-2.0163e-10
5.70454e-08
2.02531e-06
-5.76531e-08
-2.1394e-10
5.9664e-08
2.02341e-06
-6.04083e-08
-2.79891e-10
6.21455e-08
2.02175e-06
-6.30539e-08
-2.49477e-10
6.45131e-08
2.02043e-06
-6.55567e-08
-3.73228e-10
6.66336e-08
2.01939e-06
-6.78994e-08
-2.92635e-10
6.86915e-08
2.01901e-06
-7.01974e-08
-3.9636e-10
7.01745e-08
2.01877e-06
-7.20515e-08
-3.0671e-10
7.19341e-08
-7.47916e-08
2.40812e-09
2.01941e-06
7.2288e-08
2.13608e-06
5.1011e-09
-3.97865e-07
2.15781e-06
-4.9531e-09
-7.32178e-08
2.15325e-06
-1.03763e-08
2.95594e-09
2.14413e-06
-1.54966e-08
7.91188e-09
2.13649e-06
-2.19832e-08
3.76528e-09
2.13035e-06
-2.86012e-08
1.70179e-09
2.12493e-06
-3.29519e-08
1.22487e-09
2.11999e-06
-3.36622e-08
1.07129e-09
2.11547e-06
-3.12716e-08
9.25218e-10
2.11133e-06
-2.74771e-08
7.63757e-10
2.10754e-06
-2.38963e-08
5.29019e-10
2.10403e-06
-2.14312e-08
3.21319e-10
2.10065e-06
-2.02754e-08
2.58998e-10
2.09727e-06
-2.0222e-08
3.14812e-10
2.09384e-06
-2.09798e-08
3.73648e-10
2.09038e-06
-2.23237e-08
3.45833e-10
2.08699e-06
-2.41273e-08
2.25421e-10
2.0837e-06
-2.6295e-08
7.4807e-11
2.08056e-06
-2.87729e-08
-7.35581e-11
2.07755e-06
-3.14654e-08
-1.31861e-10
2.07469e-06
-3.43369e-08
-2.19747e-10
2.07188e-06
-3.73012e-08
-1.17261e-10
2.06921e-06
-4.03436e-08
-2.16004e-10
2.06657e-06
-4.34193e-08
-2.53102e-11
2.06401e-06
-4.65087e-08
-9.15515e-11
2.06154e-06
-4.95975e-08
2.16648e-12
2.05913e-06
-5.266e-08
3.70766e-11
2.05686e-06
-5.5677e-08
4.44954e-11
2.05472e-06
-5.86264e-08
5.39166e-11
2.05272e-06
-6.14686e-08
9.74773e-11
2.0509e-06
-6.4218e-08
5.61144e-11
2.04917e-06
-6.67282e-08
1.50205e-10
2.04761e-06
-6.93024e-08
1.00468e-10
2.046e-06
-7.11794e-08
2.12099e-10
-7.41989e-08
2.37342e-10
2.0444e-06
2.14381e-06
9.6878e-09
-3.97352e-07
2.16648e-06
3.57132e-10
-7.38806e-08
2.16279e-06
-4.852e-09
3.16318e-09
2.15422e-06
-1.00489e-08
8.60715e-09
2.14681e-06
-1.66603e-08
4.44364e-09
2.14067e-06
-2.34073e-08
2.18944e-09
2.13518e-06
-2.79575e-08
1.52989e-09
2.13022e-06
-2.89963e-08
1.14594e-09
2.12586e-06
-2.70457e-08
8.11223e-10
2.12199e-06
-2.37149e-08
6.68043e-10
2.11852e-06
-2.05295e-08
4.77451e-10
2.11539e-06
-1.83381e-08
3.04119e-10
2.11242e-06
-1.73332e-08
3.49724e-10
2.10941e-06
-1.73418e-08
5.43887e-10
2.1063e-06
-1.81126e-08
6.71321e-10
2.10315e-06
-1.94505e-08
6.08476e-10
2.10008e-06
-2.1243e-08
3.72756e-10