/*--------------------------------*- C++ -*----------------------------------*\
  =========                 |
  \\      /  F ield         | OpenFOAM: The Open Source CFD Toolbox
   \\    /   O peration     | Website:  https://openfoam.org
    \\  /    A nd           | Version:  6
     \\/     M anipulation  |
\*---------------------------------------------------------------------------*/
FoamFile
{
    version     2.0;
    format      ascii;
    class       volScalarField;
    location    "20";
    object      yPlus;
}
// * * * * * * * * * * * * * * * * * * * * * * * * * * * * * * * * * * * * * //

dimensions      [0 0 0 0 0 0 0];

internalField   uniform 0;

boundaryField
{
    inlet
    {
        type            calculated;
        value           uniform 0;
    }
    outlet
    {
        type            calculated;
        value           uniform 0;
    }
    roughCylinder
    {
        type            calculated;
        value           nonuniform List<scalar> 
3840
(
45.8607
54.2765
62.1905
69.2067
74.5354
78.5053
81.5347
83.9433
86.0074
87.8253
89.4757
91.0219
92.5349
94.0841
95.7225
97.4817
99.3686
101.373
103.471
105.634
107.813
109.935
111.803
113.038
45.0678
53.199
60.8966
67.811
73.1031
77.0567
80.0843
82.5036
84.5724
86.3783
88.0056
89.5236
91.0051
92.5194
94.1221
95.8427
97.6884
99.6485
101.7
103.814
105.942
108.014
109.835
111.038
44.1864
52.0783
59.5745
66.3867
71.6485
75.5978
78.6374
81.0771
83.1546
84.9543
86.564
88.0564
89.5079
90.9904
92.5569
94.2393
96.0444
97.9612
99.9672
102.032
104.109
106.131
107.906
109.076
43.3019
50.9448
58.2398
64.9493
70.1858
74.1393
77.2025
79.6722
81.7639
83.5649
85.1573
86.6272
88.0517
89.5023
91.0363
92.6826
94.4483
96.3224
98.283
100.3
102.327
104.298
106.028
107.167
42.34
49.7629
56.8571
63.4652
68.6904
72.6681
75.7708
78.278
80.3904
82.1988
83.7839
85.2358
86.6359
88.0602
89.5614
91.1727
92.9007
94.7341
96.6509
98.621
100.599
102.523
104.207
105.315
41.4444
48.586
55.4654
61.9697
67.1899
71.1984
74.3454
76.898
79.0379
80.8602
82.4422
83.8807
85.2613
86.6582
88.1322
89.7117
91.4036
93.1972
95.0704
96.9943
98.9245
100.8
102.44
103.517
40.4117
47.3262
53.9879
60.3922
65.627
69.6937
72.9078
75.5143
77.6894
79.5312
81.127
82.5589
83.9236
85.3025
86.7482
88.2963
89.954
91.7101
93.5422
95.4218
97.3045
99.1342
100.731
101.778
39.5299
46.0976
52.5072
58.7995
64.0548
68.1854
71.4646
74.1334
76.3527
78.2262
79.8328
81.268
82.6251
83.9833
85.4085
86.9302
88.5555
90.2743
92.0655
93.9
95.7367
97.5187
99.0726
100.089
38.3811
44.7102
50.8703
57.055
62.3533
66.5879
69.9759
72.7256
75.0023
76.911
78.5511
79.9999
81.355
82.7072
84.1107
85.6054
87.2003
88.8847
90.637
92.4297
94.2192
95.9581
97.4689
98.4564
37.5016
43.398
49.2374
55.2812
60.6277
64.9755
68.4614
71.3017
73.6464
75.614
77.2813
78.7495
80.1145
81.4578
82.8495
84.3246
85.8911
87.5401
89.2525
91.0002
92.7441
94.4356
95.904
96.8611
36.1369
41.7973
47.339
53.2358
58.6471
63.1655
66.838
69.8097
72.2519
74.2762
76.0028
77.5062
78.885
80.2371
81.6168
83.0702
84.6102
86.2272
87.9015
89.6082
91.3044
92.9546
94.3795
95.3074
35.1154
40.3218
45.45
51.1399
56.6127
61.3209
65.1504
68.2725
70.8214
72.9467
74.7244
76.2664
77.6737
79.0278
80.4064
81.849
83.3648
84.9483
86.5837
88.2438
89.8944
91.4963
92.8786
93.7752
33.7424
38.5283
43.1506
48.5577
54.0885
59.0634
63.2372
66.5863
69.3098
71.5288
73.403
75.0117
76.453
77.8343
79.2118
80.638
82.132
83.6861
85.284
86.9047
88.5073
90.0683
91.4062
92.2727
32.3879
36.8136
40.8973
45.9082
51.4439
56.7252
61.1546
64.7944
67.7064
70.1015
72.066
73.7376
75.2327
76.6313
78.0214
79.4483
80.9232
82.4455
84.0049
85.576
87.1295
88.6421
89.9348
90.7687
30.3444
34.3929
37.8213
42.3137
47.8176
53.4848
58.6304
62.6941
65.9399
68.5024
70.6273
72.4176
73.9753
75.4257
76.8288
78.245
79.7037
81.1988
82.7206
84.2526
85.7585
87.2276
88.475
89.2768
28.271
32.1407
34.9511
38.6802
43.976
50.1403
55.6106
60.3193
63.9526
66.8575
69.1491
71.0386
72.6868
74.1765
75.6113
77.0451
78.4906
79.9552
81.4374
82.9147
84.3624
85.7844
86.9803
87.7469
24.5771
28.2235
30.1986
32.9496
37.654
44.2909
51.7082
57.281
61.6413
64.8718
67.4588
69.5648
71.3235
72.9009
74.3678
75.7956
77.2309
78.6698
80.1131
81.5497
82.9534
84.3225
85.4721
86.2031
20.5696
24.8396
26.3426
27.2919
32.27
39.521
46.1319
53.48
58.7434
62.7624
65.6819
67.9593
69.8705
71.5226
73.0497
74.5211
75.9514
77.3595
78.7594
80.1322
81.4557
82.7868
83.8704
84.5601
5.55443
15.3145
16.6955
18.8308
7.39214
21.0581
39.2647
47.9785
55.1707
59.8814
63.4524
66.1629
68.2792
70.0808
71.6695
73.1395
74.5659
75.9486
77.3067
78.6348
79.9269
81.1764
82.2157
82.8663
6.53835
9.44308
18.4375
21.4946
20.7983
10.2968
19.0527
40.3449
49.8164
56.758
61.0394
64.087
66.4883
68.4303
70.1291
71.6839
73.1178
74.4669
75.7716
77.0173
78.1807
79.4226
80.3657
80.9597
15.5695
17.985
17.7611
20.0964
17.8121
15.6187
7.24036
22.6675
42.7866
51.44
57.5418
61.5902
64.4111
66.6382
68.4529
70.0166
71.4556
72.776
74.0335
75.2288
76.3921
77.4851
78.3924
78.9428
23.4015
26.6701
27.8701
27.157
25.2235
21.6668
22.3454
27.4643
29.5747
46.1021
53.6557
58.4861
61.9278
64.4312
66.4625
68.1834
69.6504
70.93
72.1122
73.1826
74.1162
75.2715
76.0146
76.482
25.7183
29.665
32.0456
33.3187
32.925
30.2417
23.4581
24.1543
27.4283
32.7443
46.8992
54.3319
58.7487
61.8873
64.1536
65.9131
67.4057
68.6458
69.7662
70.7817
71.775
72.6486
73.3944
73.7877
26.932
30.958
33.5646
35.4299
36.4151
36.2642
34.2633
27.976
15.738
10.974
38.5603
48.7621
54.746
58.4826
61.2256
63.2967
64.8538
66.0298
67.0283
67.8089
68.3727
69.4364
69.8306
70.134
26.4085
30.6424
33.5134
35.7317
37.2064
37.9349
37.8296
36.0475
27.9384
20.7295
19.1707
40.5538
48.8914
54.2331
57.504
59.6729
61.3093
62.4261
63.3044
64.0548
64.7611
65.3173
65.8933
65.9477
24.4448
28.9951
32.1363
34.6973
36.5802
37.8141
38.5061
38.5949
36.7557
28.4137
17.4609
24.8609
41.0076
48.0155
52.506
55.3984
57.1566
58.0938
58.7627
58.907
58.8011
59.7087
59.3118
59.5179
21.5944
26.5213
29.8825
32.6971
34.896
36.5186
37.713
38.6106
38.8279
34.9971
30.4095
29.3905
28.5496
39.8913
45.3828
48.3249
50.3003
51.2696
51.4565
51.9484
51.7379
52.2255
53.0876
51.9066
18.5565
23.7093
27.1159
30.0196
32.4087
34.3514
35.9886
37.4878
38.7529
38.7663
33.5388
34.3295
18.5714
22.7046
35.6492
40.848
43.1878
43.3253
42.944
41.4158
40.8441
39.7503
37.3577
38.9044
15.8731
20.972
24.2102
27.0092
29.4228
31.5557
33.541
35.5291
37.4999
38.9306
38.086
32.0263
28.1493
12.8985
12.5122
27.3171
22.5386
24.2066
28.1647
21.5399
8.73465
22.6828
25.3095
43.7874
13.4556
18.3827
21.3713
23.9848
26.3332
28.5451
30.7456
33.0517
35.5063
37.8438
39.1959
37.7476
31.2273
23.6582
26.0032
37.9596
17.7408
26.0159
41.3488
28.5173
20.3152
31.5983
33.0333
39.6967
11.7105
16.3405
19.0283
21.4075
23.6272
25.8164
28.0762
30.4926
33.135
35.9411
38.4313
39.6822
37.6281
31.1666
30.5176
32.1968
25.476
33.3487
35.3029
36.1932
29.9428
39.3967
31.3511
30.2309
10.7189
15.0157
17.4418
19.616
21.7
23.8
25.9835
28.3155
30.8754
33.726
36.7258
39.2593
40.0318
38.1013
33.8017
30.5757
29.6623
31.5141
35.1156
35.8364
36.8896
38.1874
38.5879
40.9806
10.2864
14.4375
16.696
18.7427
20.726
22.7129
24.7399
26.8579
29.1527
31.739
34.676
37.7471
39.9752
40.5157
38.8632
38.3236
38.3064
39.3842
41.8988
42.0952
41.5674
42.3383
42.9767
44.1979
10.4073
14.4731
16.6707
18.6783
20.6127
22.5026
24.3619
26.2336
28.1992
30.3786
32.9119
35.8489
38.749
40.613
40.7724
41.0561
41.2491
42.0616
43.0743
43.5048
42.3848
42.6784
43.4503
44.2694
10.8594
14.9379
17.1666
19.2066
21.1408
22.9712
24.6985
26.3597
28.0273
29.8029
31.8271
34.2577
37.0477
39.6063
40.9333
41.6894
41.912
42.5487
42.7511
43.1456
42.0414
41.6334
42.469
43.1668
11.5237
15.6902
17.9946
20.1079
22.0801
23.8922
25.5386
27.0545
28.5021
29.9589
31.5346
33.3869
35.6413
38.1277
40.0743
41.2667
41.5791
41.9234
41.6312
41.6971
40.6774
39.9398
40.6462
41.3444
12.3629
16.6569
19.0465
21.2446
23.269
25.088
26.6969
28.1322
29.4466
30.6928
31.943
33.3168
34.9628
36.9326
38.8362
40.1981
40.5935
40.6833
40.1058
39.7953
38.8936
38.121
38.7375
39.4588
13.4245
17.7704
20.2473
22.5319
24.6127
26.4519
28.052
29.454
30.7044
31.8357
32.8864
33.9306
35.0841
36.4552
37.9203
39.1076
39.4848
39.3842
38.6592
38.0462
37.2726
36.6642
37.266
38.0096
14.5249
18.9628
21.5378
23.911
26.0505
27.9194
29.5309
30.932
32.1653
33.2494
34.1993
35.0514
35.8744
36.762
37.7074
38.5129
38.7347
38.4653
37.6506
36.8394
36.1794
35.7945
36.4565
37.2317
15.6433
20.198
22.8797
25.3437
27.544
29.4496
31.0866
32.5082
33.7536
34.8326
35.7462
36.506
37.141
37.7062
38.2265
38.6209
38.598
38.1467
37.2478
36.316
35.7382
35.5625
36.3222
37.1397
16.4363
16.8857
17.3523
17.7014
18.0202
18.2554
18.4563
18.597
18.7038
18.7667
18.801
18.8006
18.7731
18.7164
18.6341
18.5274
18.3999
18.2554
18.1049
17.9804
17.9924
18.127
18.2829
18.4316
18.5631
18.6738
18.7596
18.8196
18.8505
18.8538
18.8221
18.7614
18.6559
18.5155
18.3141
18.077
17.7555
17.4015
16.9288
16.4699
21.093
21.5319
22.0075
22.3736
22.7185
22.9884
23.2271
23.4121
23.5646
23.6763
23.7593
23.8092
23.8301
23.8197
23.7786
23.7069
23.6068
23.4811
23.3395
23.2153
23.2301
23.3666
23.5149
23.6459
23.7507
23.8269
23.8719
23.886
23.8685
23.8215
23.7408
23.6308
23.4786
23.293
23.0528
22.7798
22.4309
22.0587
21.5759
21.1272
23.8493
24.3096
24.8211
25.2219
25.6116
25.9311
26.2243
26.4688
26.6845
26.8613
27.0101
27.1271
27.2146
27.2693
27.29
27.2751
27.225
27.1422
27.0363
26.9405
26.9539
27.0638
27.178
27.2672
27.3231
27.3436
27.3277
27.2775
27.1941
27.0805
26.9344
26.759
26.5436
26.2983
26.0031
25.68
25.2856
24.8779
24.3586
23.8878
26.3627
26.8305
27.3627
27.7834
28.2024
28.5555
28.8876
29.1757
29.4407
29.6718
29.8765
30.0506
30.1948
30.3049
30.3787
30.4134
30.4087
30.3667
30.298
30.2351
30.2462
30.3243
30.4026
30.4523
30.4639
30.4354
30.3675
30.2627
30.1234
29.9531
29.7515
29.5222
29.2579
28.9692
28.6348
28.2778
27.8536
27.4255
26.885
26.4061
28.5873
29.0399
29.5709
29.9917
30.42
30.7892
31.1465
31.4672
31.7689
32.0417
32.2903
32.5097
32.6989
32.8533
32.9696
33.0442
33.0759
33.0667
33.027
32.9866
32.9965
33.0522
33.1024
33.1202
33.0961
33.0284
32.9186
32.77
32.586
32.3709
32.1257
31.855
31.5542
31.233
30.8734
30.5005
30.0666
29.638
29.0981
28.634
30.5032
30.9277
31.4488
31.8639
32.2987
32.6838
33.0629
33.4122
33.7457
34.0545
34.3405
34.5987
34.8263
35.0182
35.1699
35.2774
35.3383
35.3542
35.335
35.3082
35.3177
35.3597
35.3899
35.3831
35.3303
35.2302
35.0853
34.8996
34.6776
34.424
34.1414
33.8349
33.5022
33.1523
32.7712
32.382
31.9416
31.5181
30.9876
30.5511
32.1494
32.5467
33.0614
33.4777
33.9218
34.3234
34.7233
35.0985
35.4604
35.8003
36.1184
36.4093
36.6691
36.8919
37.0726
37.2062
37.2897
37.3241
37.3186
37.2996
37.309
37.3434
37.3602
37.3352
37.2601
37.1343
36.9608
36.7444
36.4903
36.2042
35.8895
35.5521
35.191
34.815
34.4129
34.0069
33.5567
33.1321
32.6073
32.1974
33.5833
33.9577
34.4714
34.8907
35.3441
35.761
36.1789
36.576
36.9615
37.3267
37.671
37.9881
38.2734
38.5206
38.7237
38.8773
38.9777
39.0253
39.0291
39.0148
39.0242
39.0541
39.062
39.0241
38.9324
38.7869
38.5912
38.3507
38.0712
37.7588
37.4182
37.0554
36.6707
36.2727
35.8522
35.4306
34.9707
34.5424
34.0185
33.6303
34.8397
35.191
35.7025
36.1243
36.5853
37.0145
37.4469
37.8614
38.2655
38.6506
39.0151
39.3525
39.6574
39.9232
40.1434
40.3121
40.4255
40.4836
40.4953
40.4855
40.4949
40.5206
40.5209
40.4728
40.3685
40.2081
39.9956
39.7368
39.4378
39.1053
38.7444
38.3615
37.9579
37.5423
37.107
36.6728
36.205
35.7737
35.251
34.8848
35.9232
36.2488
36.7553
37.1777
37.6442
38.0833
38.5275
38.9562
39.375
39.7759
40.1562
40.5091
40.8289
41.1088
41.342
41.5228
41.6472
41.7157
41.7368
41.7339
41.7432
41.7621
41.7536
41.6957
41.5807
41.4086
41.1832
40.9105
40.5966
40.2486
39.8719
39.4731
39.0545
38.6246
38.1772
37.7325
37.2586
36.8258
36.3071
35.965
36.8289
37.1227
37.6201
38.0418
38.5123
38.9605
39.4152
39.8561
40.2878
40.7017
41.0947
41.46
41.7916
42.0827
42.3266
42.5177
42.6527
42.7323
42.7652
42.7717
42.7809
42.7905
42.7708
42.7023
42.5773
42.3951
42.1594
41.8755
41.55
41.1895
40.7999
40.3879
39.9563
39.5136
39.0552
38.6011
38.1222
37.6889
37.1777
36.865
37.5561
37.8048
38.2856
38.7038
39.1776
39.6344
40.0995
40.5526
40.9963
41.4222
41.8266
42.2026
42.5443
42.8449
43.0982
43.299
43.4445
43.5362
43.5819
43.5983
43.6072
43.6072
43.5752
43.4954
43.3603
43.1689
42.9241
42.6308
42.2952
41.9239
41.5228
41.0984
40.6544
40.1991
39.7295
39.2656
38.7822
38.3504
37.8525
37.5813
38.1076
38.283
38.7357
39.1455
39.6204
40.0858
40.5619
41.0275
41.4837
41.9217
42.3372
42.7234
43.0745
43.3839
43.6459
43.856
44.012
44.1154
44.1733
44.1985
44.2074
44.1987
44.1552
44.0643
43.9194
43.7191
43.4657
43.1637
42.8187
42.437
42.0245
41.5877
41.1306
40.6619
40.1803
39.7062
39.2193
38.7924
38.3188
38.116
38.5026
38.5523
38.9474
39.3407
39.8116
40.2847
40.7713
41.2504
41.7198
42.1705
42.5977
42.9945
43.355
43.6732
43.9439
44.163
44.3288
44.4429
44.5112
44.5435
44.5525
44.537
44.4836
44.3827
44.2285
44.0195
43.7577
43.4469
43.0923
42.6998
42.2752
41.825
41.3539
40.8705
40.3764
39.8921
39.4051
38.9898
38.5689
38.4869
38.7506
38.6095
38.9005
39.2549
39.7152
40.192
40.6882
41.1803
41.6634
42.1276
42.5672
42.9752
43.3459
43.6733
43.9528
44.1807
44.3556
44.479
44.556
44.594
44.6032
44.5825
44.521
44.4113
44.2484
44.0309
43.7603
43.4403
43.0752
42.6711
42.2334
41.7688
41.2826
40.7841
40.2775
39.7847
39.3029
38.9213
38.6007
38.7087
38.8382
38.4506
38.5872
38.868
39.2987
39.7741
40.2757
40.7789
41.2744
41.7517
42.2036
42.6231
43.0041
43.3411
43.6293
43.8657
44.0488
44.1802
44.2641
44.3066
44.316
44.2913
44.2235
44.1063
43.9355
43.7097
43.4303
43.1005
42.7249
42.3087
41.8577
41.3787
40.8782
40.3657
39.8495
39.3524
38.8943
38.5802
38.4085
38.7586
38.6451
38.0215
37.9911
38.1757
38.5574
39.0186
39.5217
40.0313
40.536
41.0234
41.4855
41.9147
42.3047
42.65
42.9459
43.1893
43.379
43.5164
43.6052
43.651
43.6607
43.6334
43.5611
43.4382
43.2609
43.028
42.7409
42.4024
42.0171
41.5904
41.1282
40.6375
40.1253
39.6026
39.0783
38.5888
38.1716
37.9418
37.9197
38.4783
38.0076
37.2454
37.1008
37.2045
37.5363
37.9742
38.471
38.9817
39.4891
39.9808
40.4477
40.8817
41.2765
41.626
41.9258
42.1726
42.3653
42.5053
42.5961
42.6435
42.6536
42.6254
42.5514
42.4259
42.2454
42.0086
41.7168
41.3733
40.9822
40.5491
40.0803
39.5826
39.0641
38.5348
38.0137
37.5458
37.1782
37.0316
37.1318
37.8459
36.9369
36.1481
35.9702
36.0399
36.3444
36.7646
37.2527
37.761
38.2659
38.7559
39.2211
39.6537
40.0467
40.3944
40.692
40.9364
41.1263
41.2633
41.3517
41.3979
41.4085
41.3821
41.3106
41.1876
41.0089
40.7736
40.4827
40.1396
39.7486
39.3154
38.8464
38.3485
37.8302
37.3028
36.7919
36.3471
36.0171
35.9237
36.0857
36.87
35.957
35.1601
34.9668
35.0109
35.2901
35.6874
36.1572
36.651
37.1435
37.6225
38.0773
38.4998
38.8828
39.2203
39.5075
39.741
39.9199
40.0458
40.1247
40.1656
40.1772
40.1572
40.0948
39.9816
39.8123
39.5858
39.3032
38.9678
38.5844
38.1582
37.6959
37.2047
36.6931
36.175
35.678
35.2516
34.944
34.8754
35.0612
35.8763
35.5708
34.7211
34.4941
34.5048
34.7522
35.1172
35.5557
36.0202
36.4883
36.945
37.379
37.7814
38.1447
38.4628
38.7306
38.9443
39.1029
39.2083
39.2683
39.298
39.3125
39.3071
39.2639
39.1701
39.0199
38.812
38.5481
38.232
37.8684
37.4633
37.0235
36.5569
36.0735
35.586
35.1203
34.7245
34.4413
34.389
34.5669
35.3571
35.3436
34.6909
34.5919
34.6756
34.9542
35.3205
35.7416
36.179
36.6172
37.0416
37.4428
37.8121
38.1428
38.429
38.6658
38.8494
38.9778
39.0523
39.0814
39.0876
39.1025
39.1166
39.0967
39.0258
38.8983
38.7138
38.4746
38.1848
37.8491
37.4735
37.0648
36.6312
36.1826
35.7333
35.3001
34.9248
34.6423
34.5633
34.6743
35.3487
36.0971
35.5337
35.4833
35.5736
35.8357
36.1675
36.5467
36.9421
37.3388
37.7229
38.0853
38.4176
38.7134
38.9671
39.1739
39.3299
39.4327
39.4826
39.4867
39.4719
39.4904
39.525
39.527
39.4783
39.3744
39.2159
39.0054
38.7469
38.4453
38.1062
37.7363
37.3439
36.9387
36.5352
36.149
35.8133
35.5545
35.4812
35.5662
36.1948
36.7726
36.2521
36.2288
36.3307
36.5915
36.9123
37.2764
37.6539
38.0311
38.3951
38.7372
39.0497
39.3265
39.5625
39.7529
39.8943
39.9841
40.0225
40.0161
39.9917
40.0088
40.0506
40.0623
40.0252
39.9349
39.7921
39.5993
39.3605
39.0802
38.7641
38.4186
38.0518
37.6734
37.2976
36.9398
36.633
36.3965
36.3368
36.4221
37.0431
45.8421
54.2422
62.1638
69.1876
74.519
78.4896
81.5193
83.9279
85.9916
87.8088
89.4586
91.0042
92.5166
94.0648
95.7023
97.4605
99.3462
101.349
103.446
105.606
107.785
109.9
111.767
113
45.0404
53.1698
60.8734
67.7931
73.0874
77.041
80.068
82.4872
84.5559
86.3615
87.9884
89.5057
90.9864
92.4999
94.1016
95.821
97.6653
99.6237
101.675
103.785
105.913
107.977
109.797
110.998
44.1673
52.0591
59.5556
66.3688
71.632
75.5819
78.622
81.0617
83.1387
84.9376
86.5463
88.0383
89.4889
90.9704
92.5359
94.2173
96.0211
97.9361
99.9407
102.003
104.079
106.093
107.867
109.036
43.2912
50.9337
58.2269
64.9345
70.1704
74.1234
77.1857
79.6547
81.7461
83.5472
85.1397
86.6086
88.0324
89.4823
91.0152
92.6601
94.4243
96.2971
98.2559
100.269
102.296
104.259
105.988
107.125
42.3366
49.7561
56.8462
63.4505
68.6742
72.652
75.7552
78.2627
80.3748
82.1822
83.7656
85.2173
86.6165
88.0395
89.5397
91.1499
92.8765
94.7082
96.6236
98.5897
100.568
102.482
104.166
105.272
41.4404
48.5785
55.4546
61.9557
67.174
71.1816
74.3276
76.879
79.0184
80.8408
82.424
83.8613
85.2413
86.6378
88.1105
89.6883
91.3784
93.1704
95.042
96.9625
98.8928
100.758
102.396
103.473
40.4066
47.3174
53.9764
60.3779
65.6107
69.6771
72.8919
75.4992
77.6745
79.5152
81.1081
82.5401
83.9038
85.281
86.7256
88.2727
89.9289
91.683
93.514
95.3889
97.2726
99.0914
100.686
101.732
39.5214
46.085
52.4918
58.782
64.0362
68.1664
71.4449
74.1125
76.3308
78.2043
79.8136
81.2475
82.6041
83.9623
85.3862
86.9058
88.5292
90.2461
92.0353
93.8665
95.7037
97.4736
99.0257
100.043
38.3699
44.6961
50.8554
57.0394
62.3369
66.571
69.9595
72.7104
74.988
76.8965
78.532
79.981
81.335
82.6849
84.0871
85.5807
87.174
88.8562
90.6079
92.395
94.1861
95.9116
97.421
98.4077
37.4814
43.3749
49.2118
55.2549
60.6019
64.9516
68.4386
71.2782
73.6217
75.5882
77.2604
78.7275
80.0922
81.4359
82.8264
84.2989
85.8631
87.5101
89.2204
90.9635
92.7102
94.3867
95.8522
96.811
36.1273
41.7846
47.3264
53.224
58.6353
63.1507
66.8214
69.7945
72.2383
74.2641
75.9841
77.4873
78.8647
80.2141
81.5919
83.0442
84.5822
86.1969
87.8717
89.5721
91.2707
92.9034
94.327
95.2542
35.0722
40.276
45.401
51.0894
56.564
61.2834
65.1219
68.2446
70.7919
72.9148
74.7
76.2423
77.6498
79.0046
80.3821
81.8213
83.3346
84.9158
86.5478
88.2026
89.8598
91.4422
92.8204
93.7196
33.7486
38.5339
43.1591
48.5733
54.1091
59.0648
63.2217
66.5707
69.298
71.5218
73.3869
74.9929
76.4321
77.8103
79.1853
80.61
82.1015
83.6534
85.2536
86.867
88.4715
90.0105
91.3468
92.2146
32.3104
36.7309
40.8002
45.7896
51.3088
56.6383
61.1132
64.7615
67.6688
70.0572
72.0335
73.7104
75.2076
76.6067
77.9952
79.4179
80.8898
82.4095
83.9642
85.5275
87.0945
88.5804
89.8687
90.706
30.3824
34.4332
37.8819
42.4304
47.998
53.5697
58.6245
62.6721
65.9301
68.5069
70.6188
72.3999
73.9525
75.3999
76.8003
78.2141
79.6693
81.1627
82.6891
84.214
85.7203
87.1619
88.4052
89.2126
28.1594
32.0318
34.8086
38.3923
43.4838
49.8698
55.5358
60.2856
63.9029
66.7867
69.0993
71.0053
72.6618
74.1514
75.5831
77.011
78.4524
79.9142
81.3909
82.8564
84.3279
85.711
86.9041
87.6731
24.6643
28.2676
30.2346
33.298
38.5911
44.7372
51.7294
57.2322
61.6273
64.9043
67.4666
69.5515
71.2968
72.8711
74.3357
75.7598
77.1905
78.6287
80.0792
81.5083
82.9117
84.2477
85.3864
86.1319
20.5929
24.9268
26.5918
27.42
30.9905
38.9163
46.1074
53.4779
58.6737
62.6209
65.5963
67.914
69.8472
71.4988
73.0201
74.4823
75.9053
77.3113
78.7061
80.0636
81.425
82.6939
83.78
84.4713
7.32752
15.3026
15.4154
14.6927
5.2639
19.374
38.6744
47.7921
55.1227
59.9961
63.4963
66.1596
68.2474
70.0445
71.6309
73.094
74.5153
75.8997
77.2678
78.5838
79.8776
81.0917
82.1071
82.7845
11.5009
13.8927
18.9298
19.9578
19.2335
19.4417
23.5252
40.569
49.6987
56.3768
60.8679
64.0208
66.468
68.4099
70.0998
71.6396
73.058
74.4073
75.7106
76.9411
78.162
79.2979
80.2515
80.8516
15.5219
18.2065
18.7482
18.9163
15.3455
21.5908
17.0448
28.1513
42.7981
51.8699
57.6814
61.6115
64.377
66.593
68.4033
69.9511
71.3844
72.7141
73.9849
75.1548
76.326
77.3861
78.2485
78.8403
23.4977
26.6245
27.754
27.1195
24.6217
22.01
27.0941
30.3957
29.0294
44.5054
53.2613
58.3754
61.9123
64.4158
66.4374
68.1326
69.564
70.851
72.0418
73.1035
74.1261
75.0939
75.8608
76.3499
25.8341
29.8005
32.3868
33.8328
33.622
30.9471
23.7809
28.8863
27.2967
34.6119
47.2514
54.4492
58.7245
61.8345
64.0872
65.806
67.284
68.5585
69.7006
70.6571
71.6752
72.5293
73.1769
73.6494
26.9743
31.0645
33.9418
36.0178
37.0922
36.9344
34.7246
26.0154
28.7307
6.91644
38.222
48.452
54.7608
58.4733
61.2171
63.234
64.7063
65.9127
66.9441
67.7386
68.4388
69.15
69.6189
69.9566
26.8532
31.1132
34.0755
36.391
37.9271
38.6346
38.3973
36.3793
28.804
15.7705
18.7098
41.1415
48.839
54.1878
57.4225
59.4764
61.0314
62.2813
63.2102
63.7888
64.5907
65.2098
65.4691
65.7861
24.759
29.3561
32.5649
35.1999
37.1495
38.4242
39.0883
38.9691
36.4937
31.7522
12.5775
22.5633
41.7518
48.0135
52.5684
55.3272
56.86
57.8946
58.6589
58.9256
58.9605
59.111
59.0537
59.1635
21.6966
26.6779
30.0964
32.9757
35.2474
36.9452
38.2145
39.1865
39.4372
36.1886
27.7646
20.7789
24.8562
39.9439
45.5172
47.8999
49.4548
50.9824
51.2714
50.9284
51.4203
52.7832
51.6347
52.4116
18.5403
23.7218
27.1593
30.104
32.5518
34.5753
36.3138
37.9464
39.4084
39.664
34.9519
28.6958
22.6766
23.0445
35.5703
41.1416
42.6703
43.0476
42.9816
41.985
40.1475
37.0382
38.0623
36.1148
15.8141
20.9164
24.1602
26.9774
29.4306
31.632
33.7211
35.8582
38.0421
39.7816
39.5842
32.5125
30.0999
19.3469
23.6304
18.4856
28.781
23.4968
20.1622
34.1999
6.09787
31.631
17.8656
33.9335
13.3994
18.317
21.2988
23.916
26.2864
28.5458
30.8277
33.2593
35.8997
38.4827
40.149
38.6247
31.234
27.2471
32.4758
31.4898
35.8074
29.7955
33.0293
17.5815
34.1346
34.7324
30.3334
39.0173
11.6851
16.301
18.9775
21.3525
23.5806
25.796
28.1071
30.6111
33.391
36.3848
39.0727
40.1604
37.7456
30.1951
33.2738
28.6596
31.6059
33.4356
29.3303
32.047
30.8818
29.226
40.8563
28.9818
10.7187
15.006
17.4233
19.5927
21.6782
23.7892
25.9982
28.3804
31.0282
34.0075
37.1342
39.5621
40.0566
37.581
31.3545
30.2016
29.9148
30.2662
34.4429
38.6326
39.7747
38.2919
37.5855
37.4404
10.305
14.4507
16.7045
18.7475
20.7293
22.7188
24.7564
26.899
29.2422
31.9082
34.9356
37.963
40.0009
40.2017
37.3616
36.2719
39.5724
38.4211
40.5759
42.3776
43.5326
42.9845
40.9473
41.9176
10.4291
14.4957
16.6925
18.698
20.6303
22.5198
24.3833
26.2673
28.2589
30.4839
33.0784
36.0208
38.8125
40.4195
39.9088
39.5826
42.0745
41.3578
42.0348
42.4791
43.5981
43.3685
41.9588
42.6614
10.8753
14.9607
17.1902
19.2287
21.161
22.9912
24.7211
26.3897
28.0725
29.8755
31.9412
34.3994
37.1527
39.522
40.3914
40.8025
42.5481
42.1377
42.0248
41.6088
42.7735
42.2837
41.4275
41.9307
11.5339
15.7099
18.0131
20.1242
22.0945
23.9067
25.5558
27.0774
28.5355
30.0109
31.6161
33.5001
35.7587
38.137
39.7746
40.8404
42.0717
41.7559
41.1813
40.3463
41.2238
40.3779
39.8801
40.2919
12.3824
16.6698
19.0563
21.2511
23.2736
25.0929
26.7042
28.1442
29.4664
30.7262
31.9984
33.4017
35.0701
37
38.7254
40.051
41.0011
40.7024
39.8553
38.8775
39.3728
38.3471
38.1483
38.5562
13.4224
17.7698
20.2449
22.5264
24.6052
26.4445
28.0467
29.4524
30.7088
31.8502
32.9174
33.9864
35.1677
36.5413
37.931
39.1216
39.8318
39.5213
38.5538
37.5635
37.6936
36.735
36.8286
37.2808
14.515
18.9522
21.5236
23.8927
26.0298
27.8985
29.5115
30.9154
32.1529
33.2444
34.2065
35.0782
35.9278
36.837
37.7692
38.5995
39.0247
38.6542
37.6425
36.6643
36.5313
35.7923
36.1564
36.6801
15.6196
20.1744
22.8525
25.3121
27.5098
29.4148
31.0526
32.4759
33.7243
34.8085
35.7308
36.5056
37.1627
37.7542
38.2908
38.7208
38.8283
38.3373
37.2937
36.3153
36.0195
35.546
36.1364
36.7433
45.8844
44.2843
43.4269
41.7076
40.7321
39.1819
38.1986
36.718
35.7113
34.4666
33.4362
32.2403
31.3918
30.3057
29.3741
28.5679
27.8997
27.3966
26.9843
26.5613
26.5626
26.9885
27.3974
27.8499
28.6674
29.3802
30.282
31.3575
32.2277
33.4291
34.3976
35.6867
36.7931
38.197
39.2198
40.7767
41.739
43.3617
44.1762
45.8628
54.4752
53.0082
52.2228
50.7439
49.7859
48.4664
47.5123
46.309
45.3766
44.3337
43.3258
42.3914
41.6162
40.6941
40.0113
39.3215
38.7543
38.3189
38.0937
37.8162
37.8173
38.0973
38.3249
38.7855
39.3299
40.018
40.7017
41.6217
42.3948
43.3508
44.2932
45.3343
46.361
47.5477
48.4913
49.83
50.7717
52.179
52.9758
54.4906
62.5123
61.0986
60.296
58.9392
58.0066
56.7657
55.8043
54.678
53.734
52.7242
51.8018
50.9152
50.1195
49.332
48.6646
48.0476
47.528
47.1112
46.837
46.652
46.653
46.8402
47.1159
47.5395
48.0504
48.6722
49.3434
50.1322
50.9247
51.8203
52.724
53.7305
54.6944
55.827
56.7812
58.0247
58.9586
60.2951
61.1009
62.5295
69.5254
68.0885
67.1987
65.8404
64.8524
63.5971
62.5853
61.4453
60.4604
59.4398
58.5192
57.6269
56.8157
56.0589
55.3884
54.7952
54.2949
53.8985
53.6216
53.4692
53.4701
53.6242
53.9026
54.3003
54.8002
55.3957
56.0686
56.8267
57.6375
58.5317
59.4495
60.4703
61.4573
62.5995
63.6105
64.8652
65.8536
67.2098
68.1007
69.5405
74.8084
73.3164
72.3338
70.932
69.8731
68.5847
67.517
66.3519
65.3269
64.2897
63.349
62.4472
61.6274
60.874
60.2061
59.624
59.1382
58.7583
58.4946
58.355
58.3558
58.4968
58.7618
59.1427
59.6293
60.2131
60.8826
61.6371
62.4572
63.3596
64.3001
65.3379
66.3634
67.529
68.597
69.8858
70.9447
72.3467
73.3303
74.8234
78.7374
77.2029
76.1494
74.717
73.6027
72.2952
71.1867
70.009
68.958
67.913
66.9602
66.0558
65.2343
64.4853
63.824
63.2523
62.7791
62.4123
62.1599
62.028
62.0287
62.1618
62.4155
62.7833
63.2574
63.8305
64.4933
65.2431
66.0651
66.97
67.9231
68.9687
70.0202
71.1983
72.3072
73.6153
74.7298
76.1627
77.2169
78.7527
81.7336
80.1714
79.0633
77.6169
76.4612
75.1457
74.009
72.8261
71.7595
70.7113
69.7526
68.8486
68.0281
67.2838
66.6284
66.0649
65.601
65.2433
64.9983
64.8714
64.872
65.0002
65.2462
65.6049
66.0698
66.6346
67.2912
68.0363
68.8573
69.762
70.7211
71.7699
72.837
74.0206
75.1577
76.4738
77.63
79.077
80.1856
81.749
84.1102
82.529
81.3754
79.9234
78.7379
77.4195
76.2646
75.0783
74.002
72.9513
71.9888
71.0845
70.2642
69.522
68.8697
68.3102
67.851
67.498
67.2569
67.1323
67.1329
67.2587
67.5009
67.8549
68.3151
68.8756
69.529
70.272
71.093
71.998
72.961
74.0124
75.0892
76.2762
77.4316
78.7507
79.9367
81.3893
82.5434
84.1257
86.1491
84.5501
83.3611
81.8988
80.6902
79.3629
78.1928
76.9982
75.9115
74.854
73.8843
72.9748
72.1498
71.4043
70.7493
70.1881
69.7279
69.3743
69.1329
69.0079
69.0085
69.1347
69.3772
69.7318
70.193
70.7552
71.4112
72.1575
72.9832
73.8934
74.8638
75.9219
77.0092
78.2046
79.3752
80.7032
81.9124
83.3753
84.565
86.1648
87.9585
86.3321
85.1205
83.6406
82.4142
81.0735
79.8888
78.6829
77.5838
76.5164
75.5364
74.6182
73.7848
73.0318
72.3699
71.8028
71.3375
70.9798
70.7352
70.6079
70.6085
70.737
70.9827
71.3415
71.8078
72.3759
73.0386
73.7925
74.6267
75.5457
76.5263
77.5944
78.6941
79.9008
81.086
82.4276
83.6545
85.1352
86.3474
87.9746
89.61
87.9542
86.7234
85.2232
83.9789
82.6219
81.4208
80.2004
79.0865
78.0057
77.0124
76.0818
75.2363
74.4721
73.7997
73.223
72.7493
72.3846
72.1345
72.0035
72.0042
72.1363
72.3875
72.7534
73.2281
73.8058
74.4791
75.2441
76.0904
77.0218
78.0159
79.0974
80.212
81.4331
82.6348
83.9926
85.2375
86.7385
87.97
89.6265
91.1633
89.4758
88.2289
86.7051
85.4434
84.0671
82.8485
81.6108
80.4802
79.3832
78.374
77.4281
76.5677
75.7893
75.1035
74.5143
74.0295
73.6553
73.3978
73.2622
73.2628
73.3998
73.6584
74.0337
74.5196
75.1097
75.7966
76.5758
77.437
78.3837
79.3936
80.4914
81.6227
82.8613
84.0804
85.4576
86.72
88.2445
89.4922
91.1805
92.686
90.965
89.7031
88.1536
86.8739
85.476
84.2387
82.9814
81.8322
80.7168
79.6895
78.726
77.8485
77.0534
76.3515
75.7475
75.2491
74.8634
74.5971
74.4557
74.4564
74.5991
74.8666
75.2535
75.753
76.358
77.0608
77.8568
78.7352
79.6995
80.7276
81.8438
82.9938
84.2519
85.4898
86.8886
88.169
89.7194
90.982
92.7039
94.2453
92.4889
91.2117
89.6342
88.3355
86.9137
85.6562
84.3771
83.2075
82.0714
81.0241
80.0407
79.1437
78.3297
77.6095
76.9881
76.474
76.0747
75.798
75.65
75.6508
75.8002
76.0782
76.4786
76.9939
77.6163
78.3374
79.1524
80.0503
81.0345
82.0827
83.2195
84.39
85.6699
86.9281
88.3508
89.6502
91.2287
92.5066
94.2639
95.895
94.1002
92.8068
91.1986
89.8794
88.4313
87.1515
85.8485
84.6562
83.4974
82.4278
81.4224
80.5037
79.6683
78.9274
78.2863
77.754
77.339
77.0502
76.8946
76.8954
77.0524
77.3426
77.7588
78.2923
78.9345
79.6764
80.5127
81.4323
82.4386
83.5091
84.6687
85.8617
87.1657
88.4463
89.8953
91.2153
92.8246
94.1187
95.9145
97.6651
95.8298
94.5182
92.8769
91.5349
90.0582
88.7539
87.4246
86.2076
85.0237
83.9296
82.8999
81.9571
81.0981
80.334
79.6706
79.1174
78.6842
78.3812
78.217
78.2179
78.3837
78.688
79.1225
79.6768
80.3414
81.1065
81.9665
82.9102
83.9409
85.0358
86.2206
87.4385
88.7688
90.0739
91.5516
92.8945
94.5368
95.8493
97.6857
99.5632
97.6852
96.3535
94.6772
93.3103
91.803
90.4721
89.1143
87.8705
86.6595
85.5389
84.4828
83.5138
82.6288
81.8391
81.1505
80.5737
80.1195
79.7999
79.6256
79.6265
79.8025
80.1236
80.5791
81.1572
81.8468
82.6376
83.5236
84.4935
85.5506
86.6722
87.8842
89.1288
90.4877
91.8194
93.3279
94.6956
96.3731
97.7058
99.585
101.579
99.6573
98.3038
96.5911
95.1978
93.6585
92.2996
90.9116
89.6395
88.3998
87.251
86.1668
85.1699
84.2569
83.4393
82.7231
82.1196
81.6411
81.302
81.1157
81.1167
81.3048
81.6455
82.1254
82.7301
83.4474
84.2661
85.1801
86.1781
87.2633
88.4131
89.6538
90.9269
92.3157
93.6757
95.2166
96.6105
98.3249
99.6792
101.602
103.69
101.725
100.349
98.5994
97.1794
95.6068
94.2189
92.8006
91.4991
90.23
89.0521
87.9385
86.9126
85.9702
85.1227
84.3766
83.7435
83.2371
82.8748
82.6742
82.6752
82.8779
83.2418
83.7496
84.3841
85.1314
85.9799
86.9234
87.9503
89.0648
90.2441
91.5142
92.8167
94.236
95.625
97.1987
98.6203
100.371
101.748
103.715
105.866
103.857
102.46
100.674
99.2264
97.6219
96.205
94.7558
93.4252
92.1262
90.9193
89.7766
88.7205
87.7482
86.8697
86.092
85.4261
84.8879
84.4979
84.2797
84.281
84.5013
84.8934
85.4328
86.1
86.879
87.7588
88.7324
89.789
90.933
92.1413
93.4413
94.7733
96.2235
97.6415
99.248
100.697
102.484
103.883
105.893
108.062
106.011