/*--------------------------------*- C++ -*----------------------------------*\
  =========                 |
  \\      /  F ield         | OpenFOAM: The Open Source CFD Toolbox
   \\    /   O peration     | Website:  https://openfoam.org
    \\  /    A nd           | Version:  6
     \\/     M anipulation  |
\*---------------------------------------------------------------------------*/
FoamFile
{
    version     2.0;
    format      ascii;
    class       volVectorField;
    location    "25";
    object      wallShearStress;
}
// * * * * * * * * * * * * * * * * * * * * * * * * * * * * * * * * * * * * * //

dimensions      [0 2 -2 0 0 0 0];

internalField   uniform (0 0 0);

boundaryField
{
    inlet
    {
        type            calculated;
        value           uniform (0 0 0);
    }
    outlet
    {
        type            calculated;
        value           uniform (0 0 0);
    }
    roughCylinder
    {
        type            calculated;
        value           nonuniform List<vector> 
3840
(
(-0.000463866 -0.000670511 -0.000281783)
(-0.000330739 -0.000502829 -1.79941e-05)
(-0.000364945 -0.000578928 4.12093e-05)
(-0.000451844 -0.000683758 0.000110037)
(-0.000544152 -0.000754999 0.000175857)
(-0.000635081 -0.000794616 0.000231519)
(-0.000717633 -0.000808023 0.000274019)
(-0.000789657 -0.000809085 0.000303812)
(-0.000851259 -0.000812142 0.00032349)
(-0.000899929 -0.000820667 0.000332794)
(-0.000940145 -0.000836721 0.000333628)
(-0.000974255 -0.000858802 0.000328566)
(-0.00100581 -0.000885253 0.00031982)
(-0.00103777 -0.000914883 0.00030886)
(-0.00107181 -0.000947045 0.000296297)
(-0.0011085 -0.000981453 0.000282238)
(-0.00114798 -0.00101802 0.000266575)
(-0.00118988 -0.00105642 0.000249)
(-0.00123369 -0.00109608 0.000228942)
(-0.0012785 -0.00113611 0.000205388)
(-0.00132294 -0.00117515 0.000176505)
(-0.00136477 -0.00121114 0.000139698)
(-0.00139967 -0.00124109 9.10091e-05)
(-0.00142067 -0.00125958 3.13737e-05)
(-0.00051848 -0.000683533 -0.000290122)
(-0.000357007 -0.000498085 -2.23483e-05)
(-0.000383775 -0.000561766 3.33614e-05)
(-0.000472745 -0.000666956 9.8989e-05)
(-0.000567484 -0.000740491 0.000163083)
(-0.000661386 -0.000783424 0.000217926)
(-0.000747889 -0.000801347 0.000260617)
(-0.000825172 -0.000807383 0.000292045)
(-0.000892018 -0.00081226 0.000313765)
(-0.000943305 -0.000818801 0.000323793)
(-0.0009853 -0.000833581 0.000324921)
(-0.00102139 -0.000854941 0.00032008)
(-0.00105486 -0.000880973 0.000311519)
(-0.00108861 -0.000910203 0.000300731)
(-0.00112445 -0.000941976 0.000288424)
(-0.00116318 -0.000976106 0.000274768)
(-0.00120468 -0.00101229 0.000259591)
(-0.00124867 -0.00105024 0.000242601)
(-0.00129455 -0.00108939 0.000223204)
(-0.00134143 -0.00112887 0.00020039)
(-0.00138784 -0.00116733 0.000172335)
(-0.00143147 -0.00120279 0.000136474)
(-0.00146786 -0.00123229 8.89263e-05)
(-0.00148973 -0.00125048 3.06494e-05)
(-0.000535365 -0.000633646 -0.000270662)
(-0.00037574 -0.00048085 -2.63483e-05)
(-0.000401845 -0.000539277 2.49023e-05)
(-0.000491797 -0.000643683 8.69857e-05)
(-0.000588822 -0.00071934 0.000149249)
(-0.000685604 -0.000765665 0.000203373)
(-0.000776652 -0.000788814 0.00024673)
(-0.000859272 -0.000799914 0.000279755)
(-0.000930705 -0.000807003 0.000302898)
(-0.000985341 -0.000811723 0.000313626)
(-0.00102958 -0.000825311 0.000315318)
(-0.00106767 -0.000845647 0.000310737)
(-0.00110295 -0.000870872 0.000302386)
(-0.00113863 -0.000899551 0.000291881)
(-0.00117645 -0.000930839 0.000279941)
(-0.00121698 -0.000964277 0.000266698)
(-0.00126043 -0.000999784 0.000252065)
(-0.00130641 -0.001037 0.00023571)
(-0.00135431 -0.00107537 0.000217039)
(-0.00140314 -0.00111402 0.000195026)
(-0.00145142 -0.00115166 0.000167862)
(-0.00149674 -0.00118633 0.000133015)
(-0.00153453 -0.00121517 8.66946e-05)
(-0.00155722 -0.00123293 2.98745e-05)
(-0.00049724 -0.000531743 -0.000217296)
(-0.000398426 -0.000460039 -3.20823e-05)
(-0.000414912 -0.000511166 1.56443e-05)
(-0.000506013 -0.000614063 7.42957e-05)
(-0.000605331 -0.000692019 0.000134482)
(-0.000705847 -0.000742979 0.000188026)
(-0.000801488 -0.000771541 0.000232117)
(-0.000888944 -0.000787132 0.000266539)
(-0.000964376 -0.000795989 0.000290627)
(-0.00102437 -0.000801192 0.000302749)
(-0.00107065 -0.000812704 0.00030494)
(-0.00111085 -0.000831763 0.000300705)
(-0.00114827 -0.000856165 0.000292734)
(-0.00118579 -0.000884018 0.00028256)
(-0.00122533 -0.000914452 0.000271006)
(-0.00126789 -0.000947227 0.000258309)
(-0.00131327 -0.000981913 0.000244285)
(-0.00136117 -0.00101822 0.000228626)
(-0.00141091 -0.00105558 0.000210716)
(-0.00146155 -0.00109318 0.000189537)
(-0.00151153 -0.00112975 0.000163291)
(-0.00155838 -0.00116342 0.000129485)
(-0.00159742 -0.00119144 8.44188e-05)
(-0.00162083 -0.00120867 2.90857e-05)
(-0.000596771 -0.000572091 -0.000222585)
(-0.000415365 -0.000433821 -3.7807e-05)
(-0.000424399 -0.000479131 6.81992e-06)
(-0.000515036 -0.000579539 6.11753e-05)
(-0.000616632 -0.000659705 0.00011899)
(-0.000720116 -0.000714458 0.00017154)
(-0.000820331 -0.000748413 0.000216224)
(-0.000912818 -0.000768562 0.000252009)
(-0.000993325 -0.000780059 0.00027733)
(-0.00105771 -0.000785816 0.00029062)
(-0.00110775 -0.00079542 0.000293696)
(-0.00115031 -0.000813128 0.000290048)
(-0.00118968 -0.000836173 0.000282487)
(-0.00122923 -0.000863079 0.000272795)
(-0.00127084 -0.000892718 0.000261793)
(-0.00131501 -0.000924362 0.000249635)
(-0.00136212 -0.000957955 0.000236268)
(-0.00141173 -0.000993079 0.000221343)
(-0.00146321 -0.00102923 0.000204246)
(-0.00151548 -0.00106555 0.00018394)
(-0.00156698 -0.00110085 0.000158642)
(-0.0016152 -0.00113332 0.000125901)
(-0.00165536 -0.00116034 8.21121e-05)
(-0.0016794 -0.00117694 2.82875e-05)
(-0.000563722 -0.000482306 -0.000180248)
(-0.000426803 -0.000404004 -4.21453e-05)
(-0.000427831 -0.000442295 -2.38401e-06)
(-0.000517417 -0.000540092 4.75611e-05)
(-0.000620808 -0.000622046 0.000102572)
(-0.000728467 -0.00068172 0.00015411)
(-0.000833384 -0.000720867 0.000199189)
(-0.00093053 -0.000744928 0.000236088)
(-0.00101496 -0.000758032 0.000262385)
(-0.00108516 -0.000765784 0.000277168)
(-0.00114011 -0.00077438 0.000281471)
(-0.00118519 -0.000789644 0.000278543)
(-0.00122713 -0.000811488 0.000271682)
(-0.00126866 -0.000837094 0.000262563)
(-0.00131185 -0.000865361 0.000252119)
(-0.00135806 -0.000895992 0.000240683)
(-0.00140694 -0.000928359 0.000228062)
(-0.00145825 -0.000962172 0.000213943)
(-0.00151124 -0.000996855 0.000197691)
(-0.00156495 -0.00103167 0.000178285)
(-0.00161777 -0.00106546 0.000153954)
(-0.00166717 -0.00109651 0.00012229)
(-0.0017083 -0.00112236 7.97918e-05)
(-0.00173286 -0.00113823 2.74862e-05)
(-0.000489735 -0.000374836 -0.000127295)
(-0.000430277 -0.000364461 -4.69927e-05)
(-0.00042636 -0.000403735 -1.11941e-05)
(-0.000513179 -0.000497349 3.37959e-05)
(-0.000618529 -0.00058129 8.55816e-05)
(-0.000728658 -0.000644224 0.000135409)
(-0.000837923 -0.000688013 0.000180472)
(-0.000940079 -0.000715969 0.000218336)
(-0.00103077 -0.000732283 0.000246205)
(-0.00110511 -0.000740678 0.000262105)
(-0.00116566 -0.000749532 0.000267893)
(-0.00121536 -0.000763091 0.000266226)
(-0.00125955 -0.00078246 0.000260129)
(-0.00130335 -0.000806549 0.000251793)
(-0.00134886 -0.000833693 0.000242166)
(-0.00139647 -0.000862729 0.000231434)
(-0.00144685 -0.000893578 0.000219609)
(-0.00149956 -0.000925777 0.000206334)
(-0.00155397 -0.000958849 0.000190989)
(-0.00160894 -0.000991983 0.000172524)
(-0.00166291 -0.0010241 0.000149189)
(-0.00171333 -0.00105359 0.000118626)
(-0.00175529 -0.00107814 7.74428e-05)
(-0.00178024 -0.00109319 2.66768e-05)
(-0.000595831 -0.000403034 -0.000127705)
(-0.000433555 -0.000331565 -5.11761e-05)
(-0.000417356 -0.00036181 -1.9458e-05)
(-0.000500473 -0.000451155 1.99471e-05)
(-0.000606027 -0.000535566 6.76933e-05)
(-0.00072029 -0.00060312 0.000115564)
(-0.000834439 -0.000651651 0.000160299)
(-0.000941897 -0.00068334 0.000198905)
(-0.00103641 -0.000700927 0.00022773)
(-0.0011176 -0.000711624 0.000245518)
(-0.00118328 -0.000720548 0.00025281)
(-0.00123765 -0.000732958 0.000252554)
(-0.00128631 -0.000750795 0.000247841)
(-0.00133264 -0.000772884 0.000240507)
(-0.00137961 -0.000797922 0.000231674)
(-0.00142936 -0.00082552 0.000221889)
(-0.00148141 -0.000854756 0.000210978)
(-0.00153559 -0.000885278 0.00019864)
(-0.00159113 -0.000916492 0.000184229)
(-0.00164713 -0.000947737 0.000166729)
(-0.001702 -0.000977973 0.000144404)
(-0.0017532 -0.00100567 0.000114948)
(-0.0017958 -0.00102874 7.50864e-05)
(-0.00182104 -0.00104293 2.58675e-05)
(-0.000575112 -0.000342504 -0.000100503)
(-0.000425093 -0.000293311 -5.42546e-05)
(-0.000401971 -0.000319059 -2.70684e-05)
(-0.000478733 -0.000402418 6.33537e-06)
(-0.000585606 -0.000488193 4.94744e-05)
(-0.000701321 -0.000557951 9.44056e-05)
(-0.000819551 -0.000610394 0.00013812)
(-0.000932132 -0.000645487 0.000177055)
(-0.00103475 -0.000667061 0.000207619)
(-0.00112049 -0.000678283 0.000226892)
(-0.0011922 -0.000687695 0.00023611)
(-0.00125203 -0.00069958 0.000237645)
(-0.00130427 -0.000715693 0.000234336)
(-0.00135384 -0.000735975 0.000228303)
(-0.00140396 -0.000759563 0.000220724)
(-0.00145509 -0.000785073 0.000211911)
(-0.00150848 -0.000812375 0.000201992)
(-0.00156373 -0.000840907 0.000190642)
(-0.00162035 -0.000870207 0.000177253)
(-0.00167721 -0.000899472 0.000160776)
(-0.00173282 -0.000927754 0.000139506)
(-0.00178473 -0.000953634 0.000111197)
(-0.00182789 -0.000975202 7.26946e-05)
(-0.00185321 -0.000988467 2.50479e-05)
(-0.000554414 -0.000289393 -8.06079e-05)
(-0.000406903 -0.000253214 -5.49207e-05)
(-0.000378265 -0.000274585 -3.39286e-05)
(-0.00044779 -0.000351889 -6.89274e-06)
(-0.000551716 -0.000435653 3.06995e-05)
(-0.00067112 -0.000509406 7.21301e-05)
(-0.000794308 -0.000566261 0.000114298)
(-0.000913418 -0.000605483 0.000153387)
(-0.00101965 -0.000627866 0.000184647)
(-0.00111379 -0.000641725 0.000206224)
(-0.00119158 -0.000651388 0.000217587)
(-0.00125633 -0.000662294 0.000221078)
(-0.00131353 -0.000677326 0.00021965)
(-0.00136644 -0.000695844 0.000215134)
(-0.00141816 -0.000717112 0.000208761)
(-0.00147182 -0.000741074 0.000201269)
(-0.00152687 -0.000766571 0.000192533)
(-0.00158342 -0.000793209 0.000182318)
(-0.00164071 -0.000820385 0.000170002)
(-0.00169807 -0.000847536 0.000154597)
(-0.00175406 -0.000873762 0.000134426)
(-0.00180631 -0.000897757 0.000107305)
(-0.00184973 -0.000917754 7.02145e-05)
(-0.00187495 -0.000930015 2.41994e-05)
(-0.000462685 -0.000212358 -5.15588e-05)
(-0.000387878 -0.000214108 -5.65335e-05)
(-0.000347236 -0.00023095 -3.98116e-05)
(-0.000405184 -0.000298847 -1.88743e-05)
(-0.000509472 -0.000383022 1.2319e-05)
(-0.000628407 -0.000457556 4.89755e-05)
(-0.00075527 -0.000517889 8.8584e-05)
(-0.000879263 -0.00056016 0.000126959)
(-0.000996214 -0.000587665 0.000159858)
(-0.0010955 -0.000601903 0.000183153)
(-0.00118022 -0.000611976 0.000197021)
(-0.00125163 -0.000622551 0.000203051)
(-0.00131276 -0.000635728 0.000203591)
(-0.00136914 -0.000652381 0.000200854)
(-0.00142461 -0.000672252 0.0001962)
(-0.00147931 -0.0006938 0.000189976)
(-0.0015353 -0.00071704 0.00018247)
(-0.00159238 -0.000741381 0.000173432)
(-0.00165028 -0.000766404 0.000162302)
(-0.00170789 -0.000791366 0.000148051)
(-0.00176395 -0.000815457 0.000129046)
(-0.00181625 -0.000837505 0.000103184)
(-0.00185969 -0.000855891 6.75881e-05)
(-0.00188466 -0.000867102 2.33024e-05)
(-0.000425509 -0.000168686 -3.31887e-05)
(-0.000353965 -0.000173482 -5.74801e-05)
(-0.000308331 -0.000188334 -4.37625e-05)
(-0.000354648 -0.000246969 -2.91002e-05)
(-0.000450071 -0.000324607 -5.24844e-06)
(-0.0005721 -0.000402462 2.55218e-05)
(-0.000703592 -0.000466996 6.15541e-05)
(-0.000835871 -0.000514501 9.89465e-05)
(-0.000955738 -0.000542391 0.000131961)
(-0.00106547 -0.000559852 0.000157768)
(-0.00115771 -0.000570327 0.000174401)
(-0.00123462 -0.000579678 0.000183061)
(-0.00130181 -0.000591763 0.000186206)
(-0.0013622 -0.000606567 0.000185586)
(-0.0014189 -0.000623676 0.000182512)
(-0.00147647 -0.000643531 0.000177982)
(-0.00153415 -0.000664789 0.000171945)
(-0.00159234 -0.000687065 0.000164264)
(-0.00165034 -0.000709731 0.000154364)
(-0.00170781 -0.000732373 0.00014131)
(-0.00176357 -0.000754243 0.000123507)
(-0.00181555 -0.000774266 9.89337e-05)
(-0.00185869 -0.000790968 6.48793e-05)
(-0.00188324 -0.000801099 2.23791e-05)
(-0.000379384 -0.000128049 -2.14372e-05)
(-0.000313674 -0.000138334 -5.58544e-05)
(-0.00026148 -0.000146672 -4.56866e-05)
(-0.000289053 -0.000191541 -3.59915e-05)
(-0.000384846 -0.000268782 -2.09636e-05)
(-0.000502368 -0.000344603 2.52385e-06)
(-0.000636781 -0.000412452 3.36034e-05)
(-0.000772742 -0.000462746 6.85259e-05)
(-0.000906881 -0.00049783 0.000102515)
(-0.00102221 -0.000515798 0.000130015)
(-0.00112233 -0.000526669 0.000149593)
(-0.00120745 -0.000535802 0.000161546)
(-0.00127914 -0.000545781 0.000167366)
(-0.00134337 -0.000558428 0.000169114)
(-0.00140492 -0.000574167 0.000168318)
(-0.0014632 -0.000591248 0.000165386)
(-0.00152139 -0.000609941 0.000160831)
(-0.00157952 -0.000629642 0.000154518)
(-0.00163767 -0.000650018 0.000145975)
(-0.00169478 -0.000670335 0.000134202)
(-0.00174993 -0.000689956 0.000117666)
(-0.00180131 -0.000707943 9.44499e-05)
(-0.00184395 -0.000722957 6.2024e-05)
(-0.00186789 -0.000731993 2.14081e-05)
(-0.000281156 -8.03876e-05 -9.75331e-06)
(-0.000256701 -0.000102459 -5.13499e-05)
(-0.000209111 -0.00010854 -4.49454e-05)
(-0.000222604 -0.000141594 -3.97267e-05)
(-0.000296673 -0.000203535 -3.23904e-05)
(-0.000418314 -0.0002832 -1.82336e-05)
(-0.000555905 -0.000354907 5.981e-06)
(-0.000702554 -0.000412673 3.76423e-05)
(-0.000837237 -0.000447708 7.05265e-05)
(-0.000965377 -0.000470339 0.00010022)
(-0.00107469 -0.000482273 0.000122915)
(-0.00116582 -0.000490058 0.000138073)
(-0.00124468 -0.000498894 0.000147192)
(-0.00131386 -0.000509625 0.000151711)
(-0.00137602 -0.000522088 0.000152903)
(-0.00143776 -0.000537401 0.000152088)
(-0.00149783 -0.000554031 0.000149317)
(-0.00155705 -0.000571614 0.000144604)
(-0.0016147 -0.000589499 0.000137445)
(-0.00167101 -0.000607418 0.000126981)
(-0.00172515 -0.000624767 0.000111733)
(-0.00177553 -0.000640683 8.98878e-05)
(-0.0018173 -0.000653968 5.91173e-05)
(-0.00184046 -0.000661913 2.04222e-05)
(-0.000189785 -4.57739e-05 -1.19389e-07)
(-0.000195423 -7.08602e-05 -4.68649e-05)
(-0.000153525 -7.50649e-05 -4.19304e-05)
(-0.000132471 -8.24055e-05 -3.29908e-05)
(-0.000215766 -0.000147066 -3.89346e-05)
(-0.000321594 -0.000217955 -3.49511e-05)
(-0.000460783 -0.000293621 -1.94861e-05)
(-0.000607482 -0.000353573 6.60724e-06)
(-0.000761632 -0.000399929 3.83331e-05)
(-0.000894788 -0.000423815 6.89242e-05)
(-0.00101235 -0.00043679 9.44657e-05)
(-0.00111323 -0.000444952 0.000113329)
(-0.00119709 -0.000451691 0.000125693)
(-0.00127027 -0.00046003 0.000133103)
(-0.00133888 -0.000471301 0.000137147)
(-0.00140082 -0.000483526 0.000138262)
(-0.00146084 -0.000497353 0.000137226)
(-0.00151922 -0.000512163 0.000134063)
(-0.00157658 -0.000527739 0.000128429)
(-0.00163189 -0.000543339 0.000119362)
(-0.00168469 -0.000558457 0.000105466)
(-0.00173382 -0.000572364 8.50647e-05)
(-0.00177455 -0.000583977 5.60476e-05)
(-0.00179673 -0.000590863 1.93832e-05)
(-7.67045e-05 -1.52205e-05 7.79269e-06)
(-0.000115564 -3.78053e-05 -3.62061e-05)
(-9.79312e-05 -4.54826e-05 -3.72816e-05)
(-6.11511e-05 -3.82789e-05 -2.2597e-05)
(-7.4524e-05 -5.22053e-05 -2.13267e-05)
(-0.000211941 -0.000146773 -4.16471e-05)
(-0.000350487 -0.00022577 -3.92275e-05)
(-0.000513201 -0.000298948 -2.21357e-05)
(-0.000661277 -0.000344194 6.15277e-06)
(-0.000809832 -0.000375901 3.71361e-05)
(-0.000937849 -0.000391729 6.51174e-05)
(-0.00104458 -0.000399181 8.71552e-05)
(-0.00113651 -0.000405242 0.000103126)
(-0.00121559 -0.000411902 0.000113772)
(-0.00128351 -0.00041946 0.00012011)
(-0.00134974 -0.000430012 0.000123738)
(-0.001412 -0.000441836 0.000124796)
(-0.00147169 -0.00045465 0.000123483)
(-0.0015279 -0.00046775 0.000119376)
(-0.00158167 -0.000481033 0.00011172)
(-0.00163273 -0.000493975 9.91788e-05)
(-0.00168013 -0.000505898 8.02122e-05)
(-0.00171942 -0.000515854 5.29554e-05)
(-0.00174047 -0.000521732 1.83395e-05)
(-8.00861e-06 3.36969e-07 9.61596e-06)
(-2.51178e-05 -7.10145e-06 -1.18746e-05)
(-4.16352e-05 -1.94296e-05 -2.70554e-05)
(-5.00507e-05 -3.51366e-05 -3.1002e-05)
(-4.98644e-05 -3.9432e-05 -2.30327e-05)
(-0.000100811 -7.40375e-05 -3.17766e-05)
(-0.000236868 -0.000154386 -4.87124e-05)
(-0.000385073 -0.00022656 -4.44075e-05)
(-0.000562328 -0.000292682 -2.30087e-05)
(-0.000712311 -0.00032684 6.31648e-06)
(-0.000847734 -0.000345676 3.557e-05)
(-0.000965204 -0.000355267 6.05971e-05)
(-0.0010618 -0.000359934 7.97211e-05)
(-0.00114458 -0.000364463 9.34197e-05)
(-0.00122116 -0.000371467 0.000103018)
(-0.00128666 -0.000378798 0.000108816)
(-0.00134806 -0.000387744 0.000111809)
(-0.00140576 -0.000397701 0.000112181)
(-0.00146123 -0.000408651 0.000109753)
(-0.00151332 -0.000419793 0.000103594)
(-0.00156227 -0.000430703 9.24752e-05)
(-0.00160773 -0.000440795 7.50295e-05)
(-0.00164544 -0.000449225 4.9654e-05)
(-0.00166514 -0.000454159 1.72263e-05)
(6.61596e-06 6.30512e-06 1.53385e-05)
(4.69358e-06 7.29851e-07 -7.78656e-06)
(-3.85661e-06 -8.2442e-06 -2.05033e-05)
(-1.69769e-05 -2.33094e-05 -2.75353e-05)
(-3.48771e-05 -3.75491e-05 -3.01284e-05)
(-4.40826e-05 -3.66927e-05 -2.32532e-05)
(-0.00013241 -8.99399e-05 -4.48599e-05)
(-0.000279051 -0.000165108 -5.72835e-05)
(-0.000431104 -0.000225762 -4.54398e-05)
(-0.000601672 -0.000275359 -2.12256e-05)
(-0.000747382 -0.000300289 7.41601e-06)
(-0.000868831 -0.000310963 3.40461e-05)
(-0.000974237 -0.000316645 5.60587e-05)
(-0.00106349 -0.00032047 7.28437e-05)
(-0.00113671 -0.000323629 8.47104e-05)
(-0.00120756 -0.000329788 9.32582e-05)
(-0.00127166 -0.000337067 9.85686e-05)
(-0.00133131 -0.00034544 0.00010102)
(-0.00138483 -0.000354123 0.000100232)
(-0.00143458 -0.000363207 9.55558e-05)
(-0.00148098 -0.000372232 8.58362e-05)
(-0.00152398 -0.000380591 6.98766e-05)
(-0.00155965 -0.000387563 4.63645e-05)
(-0.00157787 -0.000391654 1.61199e-05)
(1.28477e-05 1.12295e-05 2.17346e-05)
(2.41813e-05 7.53202e-06 -7.55414e-06)
(2.2021e-05 -2.00445e-07 -1.49319e-05)
(1.26539e-05 -9.57921e-06 -1.62026e-05)
(-6.59077e-07 -2.49586e-05 -2.43735e-05)
(-2.89773e-05 -3.36412e-05 -2.94026e-05)
(-6.8864e-05 -5.26032e-05 -3.80965e-05)
(-8.16186e-05 -4.90832e-05 -2.59088e-05)
(-0.000322078 -0.000168381 -5.92031e-05)
(-0.000480453 -0.000220637 -4.31778e-05)
(-0.000632099 -0.000252877 -1.76102e-05)
(-0.000765134 -0.000269245 9.02022e-06)
(-0.000872561 -0.000275038 3.26849e-05)
(-0.000964115 -0.000277839 5.18396e-05)
(-0.00104905 -0.000281986 6.68739e-05)
(-0.00111732 -0.000285154 7.75677e-05)
(-0.0011793 -0.000289815 8.48646e-05)
(-0.00123496 -0.000295417 8.90076e-05)
(-0.00128728 -0.000302348 9.00004e-05)
(-0.00133461 -0.000309689 8.68834e-05)
(-0.00137806 -0.000317057 7.86305e-05)
(-0.0014184 -0.000323929 6.4265e-05)
(-0.00145196 -0.000329655 4.27795e-05)
(-0.00146846 -0.000332986 1.49126e-05)
(2.31447e-05 1.31872e-05 2.38787e-05)
(3.74152e-05 1.04349e-05 -8.90566e-06)
(5.35289e-05 3.81307e-06 -2.03286e-05)
(3.55209e-05 -7.99991e-06 -1.58036e-05)
(2.20233e-05 -1.50367e-05 -1.25572e-05)
(4.11281e-06 -2.55341e-05 -1.83699e-05)
(-2.01477e-05 -1.95606e-05 -1.70497e-05)
(-5.27585e-05 -3.3128e-05 -2.48165e-05)
(-0.000144249 -7.46015e-05 -4.0053e-05)
(-0.000353991 -0.000162883 -5.5415e-05)
(-0.000510867 -0.000205496 -3.76317e-05)
(-0.000642396 -0.000225275 -1.32581e-05)
(-0.000760192 -0.000235639 1.06616e-05)
(-0.000858517 -0.000239918 3.1581e-05)
(-0.000934881 -0.000240522 4.82264e-05)
(-0.00100987 -0.000243779 6.14881e-05)
(-0.00107488 -0.00024756 7.10786e-05)
(-0.00113387 -0.000252454 7.74426e-05)
(-0.00118317 -0.000257567 8.00972e-05)
(-0.00122725 -0.000263326 7.84768e-05)
(-0.00126733 -0.000269281 7.16313e-05)
(-0.00130444 -0.000274835 5.87842e-05)
(-0.00133534 -0.000279426 3.92636e-05)
(-0.0013501 -0.000282138 1.37316e-05)
(3.28838e-05 1.41599e-05 2.50512e-05)
(7.40544e-05 1.62709e-05 -1.40203e-05)
(8.47895e-05 6.0989e-06 -2.37884e-05)
(6.16699e-05 -7.31088e-06 -1.90844e-05)
(6.17023e-05 -2.36803e-05 -1.93769e-05)
(2.60358e-05 -2.28384e-05 -7.00199e-06)
(1.31146e-06 -2.41524e-05 -9.41945e-06)
(-4.32082e-05 -3.00673e-05 -2.79349e-05)
(-0.000107488 -5.68095e-05 -4.31031e-05)
(-0.000205865 -9.52384e-05 -4.8668e-05)
(-0.000375491 -0.000153144 -4.87113e-05)
(-0.00052358 -0.000185331 -3.14003e-05)
(-0.000636564 -0.000197306 -9.03334e-06)
(-0.000733249 -0.000202317 1.22388e-05)
(-0.00082597 -0.000206899 3.09239e-05)
(-0.000894689 -0.00020784 4.57992e-05)
(-0.000955597 -0.000209756 5.71001e-05)
(-0.00100694 -0.000212144 6.4878e-05)
(-0.0010546 -0.000216233 6.92816e-05)
(-0.00109543 -0.000220864 6.91919e-05)
(-0.00113165 -0.000225708 6.38099e-05)
(-0.00116541 -0.000230263 5.26272e-05)
(-0.00119371 -0.000234006 3.53051e-05)
(-0.00120636 -0.000236176 1.2394e-05)
(3.89985e-05 1.44261e-05 2.6854e-05)
(9.20721e-05 1.90942e-05 -1.26127e-05)
(0.000111908 9.80228e-06 -2.71154e-05)
(0.00011214 -7.10542e-06 -3.19733e-05)
(8.43396e-05 -2.22405e-05 -2.4159e-05)
(3.31564e-05 -1.80819e-05 -7.61591e-06)
(3.14624e-05 -3.5603e-05 -2.97263e-06)
(-6.63104e-06 -1.94397e-05 -4.97431e-06)
(-4.03421e-05 -2.297e-05 -2.0231e-05)
(-8.17773e-05 -3.84618e-05 -2.73371e-05)
(-0.000249101 -0.000101979 -4.95661e-05)
(-0.000377297 -0.000137192 -4.19077e-05)
(-0.000505839 -0.000159746 -2.47346e-05)
(-0.000610577 -0.000169726 -4.85183e-06)
(-0.000684796 -0.000171014 1.39425e-05)
(-0.000762406 -0.000174438 3.03574e-05)
(-0.000826447 -0.000176938 4.34072e-05)
(-0.000883981 -0.000180214 5.33114e-05)
(-0.000927099 -0.000183176 5.92057e-05)
(-0.000963633 -0.000186879 6.05066e-05)
(-0.000995734 -0.000190918 5.64735e-05)
(-0.00102552 -0.000194666 4.6809e-05)
(-0.00105057 -0.000197682 3.15397e-05)
(-0.00106138 -0.000199485 1.11249e-05)
(4.44015e-05 1.46635e-05 2.93083e-05)
(0.000102531 2.15407e-05 -1.05114e-05)
(0.000129046 1.50354e-05 -2.82873e-05)
(0.000133908 -1.38484e-06 -3.63507e-05)
(0.000121288 -2.08768e-05 -3.52936e-05)
(8.38872e-05 -3.27785e-05 -2.29893e-05)
(2.97944e-05 -2.18835e-05 -4.83741e-06)
(1.17324e-05 -1.85452e-05 2.15529e-06)
(-1.75485e-05 -2.27764e-05 -8.13421e-06)
(-4.74493e-05 -2.39225e-05 -2.09628e-05)
(-7.41296e-05 -3.11867e-05 -2.13446e-05)
(-0.000261966 -9.67706e-05 -4.58949e-05)
(-0.000370428 -0.000121122 -3.53047e-05)
(-0.000466617 -0.000133889 -1.83399e-05)
(-0.000566243 -0.000144252 -5.58714e-07)
(-0.000630488 -0.000146031 1.62154e-05)
(-0.000686932 -0.000147738 3.01013e-05)
(-0.000730198 -0.000148731 4.06207e-05)
(-0.000771188 -0.000151698 4.79205e-05)
(-0.000803684 -0.000155036 5.05314e-05)
(-0.000830993 -0.000158558 4.78665e-05)
(-0.000856801 -0.000161839 3.99348e-05)
(-0.000878871 -0.000164462 2.70716e-05)
(-0.000887235 -0.000165903 9.59886e-06)
(4.87262e-05 1.5033e-05 3.29512e-05)
(0.00010145 2.19242e-05 -7.43673e-06)
(0.00013027 1.90507e-05 -2.6638e-05)
(0.000142986 5.98693e-06 -3.78248e-05)
(0.000137106 -1.34528e-05 -4.00909e-05)
(0.000117116 -3.19247e-05 -3.40801e-05)
(7.27546e-05 -3.7156e-05 -1.76455e-05)
(2.50511e-05 -2.28573e-05 -2.15482e-06)
(1.05679e-05 -2.81894e-05 4.02912e-06)
(-2.19746e-05 -1.71464e-05 -9.74395e-06)
(-7.59219e-05 -3.5928e-05 -3.09641e-05)
(-7.52799e-05 -2.86671e-05 -1.95274e-05)
(-0.000239999 -8.12735e-05 -3.77908e-05)
(-0.000341973 -0.000102976 -2.8184e-05)
(-0.000403079 -0.000108393 -1.1921e-05)
(-0.000481667 -0.000116595 3.68348e-06)
(-0.000542529 -0.000121337 1.78327e-05)
(-0.000597582 -0.000125682 2.98731e-05)
(-0.000632369 -0.00012837 3.81647e-05)
(-0.000659415 -0.000131382 4.18466e-05)
(-0.000682118 -0.000134701 4.03578e-05)
(-0.000703413 -0.000137626 3.3881e-05)
(-0.000721731 -0.000139903 2.30991e-05)
(-0.000728397 -0.000141149 8.24702e-06)
(4.96894e-05 1.44207e-05 3.55076e-05)
(9.63029e-05 2.12816e-05 -4.32601e-06)
(0.000124935 2.08775e-05 -2.34317e-05)
(0.000138018 1.15541e-05 -3.52126e-05)
(0.000139918 -4.67338e-06 -4.06726e-05)
(0.000127558 -2.32978e-05 -3.82104e-05)
(0.000106718 -3.89861e-05 -2.97412e-05)
(6.03272e-05 -3.71721e-05 -1.26011e-05)
(4.59723e-05 -4.73825e-05 -1.22348e-06)
(5.38165e-06 -2.65076e-05 -2.92661e-08)
(-3.33409e-05 -2.22482e-05 -2.02108e-05)
(-7.8672e-05 -3.60982e-05 -3.16606e-05)
(-0.000139387 -5.17785e-05 -3.4081e-05)
(-0.000189596 -6.03526e-05 -2.65808e-05)
(-0.000299026 -8.50939e-05 -2.07795e-05)
(-0.000350478 -9.07166e-05 -6.33883e-06)
(-0.000394661 -9.50049e-05 6.92618e-06)
(-0.000425103 -9.65843e-05 1.79863e-05)
(-0.000456575 -0.000100352 2.66312e-05)
(-0.000479205 -0.000103509 3.10008e-05)
(-0.000496207 -0.000106783 3.06193e-05)
(-0.000512929 -0.00010942 2.59523e-05)
(-0.000528095 -0.000111658 1.78608e-05)
(-0.000532313 -0.000112584 6.4208e-06)
(4.97081e-05 1.42279e-05 3.89247e-05)
(8.82556e-05 2.05665e-05 -1.92665e-06)
(0.000115545 2.17134e-05 -2.01902e-05)
(0.000128567 1.4763e-05 -3.14466e-05)
(0.000131861 2.13829e-06 -3.75889e-05)
(0.000128147 -1.43146e-05 -3.86034e-05)
(0.000113727 -3.03029e-05 -3.32307e-05)
(9.66419e-05 -4.28777e-05 -2.53009e-05)
(5.23835e-05 -3.6051e-05 -1.11661e-05)
(2.38788e-05 -2.95839e-05 -3.87095e-06)
(-1.28686e-06 -1.69171e-05 -7.09958e-06)
(-2.05268e-05 -1.28351e-05 -1.39398e-05)
(-5.66286e-05 -2.48737e-05 -2.23951e-05)
(-0.000121094 -4.4067e-05 -2.80817e-05)
(-8.5675e-05 -2.61608e-05 -1.10065e-05)
(-0.000194712 -5.52557e-05 -1.10373e-05)
(-0.000256745 -6.73338e-05 -1.23775e-06)
(-0.000305986 -7.64062e-05 9.44601e-06)
(-0.000329764 -8.00545e-05 1.82816e-05)
(-0.000347622 -8.36105e-05 2.30992e-05)
(-0.000358388 -8.62529e-05 2.35419e-05)
(-0.000372459 -8.89059e-05 2.01596e-05)
(-0.000383682 -9.092e-05 1.39641e-05)
(-0.000387059 -9.21598e-05 5.05814e-06)
(4.81615e-05 1.51725e-05 4.29509e-05)
(7.88761e-05 2.07791e-05 -8.62063e-07)
(0.000102063 2.21475e-05 -1.74047e-05)
(0.000113416 1.65994e-05 -2.67603e-05)
(0.000118066 6.39127e-06 -3.25488e-05)
(0.000117602 -7.04569e-06 -3.48499e-05)
(0.000113721 -2.2616e-05 -3.33799e-05)
(0.000101794 -3.53707e-05 -2.77024e-05)
(9.00001e-05 -4.51953e-05 -2.25025e-05)
(4.43041e-05 -3.26729e-05 -1.09615e-05)
(1.50587e-05 -2.0083e-05 -6.9681e-06)
(-4.6934e-06 -1.3153e-05 -1.28354e-05)
(-3.84164e-05 -2.20078e-05 -2.95631e-05)
(-3.76517e-05 -1.70823e-05 -1.59341e-05)
(-9.66881e-05 -3.66611e-05 -2.3005e-05)
(-6.40498e-05 -2.20149e-05 -7.84762e-06)
(-7.30231e-05 -2.2193e-05 -3.0563e-06)
(-9.6728e-05 -2.76126e-05 1.1422e-06)
(-0.000131684 -3.60989e-05 6.3829e-06)
(-0.000136562 -3.92015e-05 9.28675e-06)
(-0.000152901 -4.25812e-05 1.08142e-05)
(-0.000153709 -4.36907e-05 8.94272e-06)
(-0.000163366 -4.63035e-05 6.46036e-06)
(-0.000159904 -4.6668e-05 2.29794e-06)
(4.43238e-05 1.72127e-05 4.67343e-05)
(6.49239e-05 2.05968e-05 -7.85484e-07)
(8.23365e-05 2.12665e-05 -1.42395e-05)
(9.16501e-05 1.66532e-05 -2.08219e-05)
(9.70057e-05 8.62832e-06 -2.5254e-05)
(0.000100104 -2.43355e-06 -2.81548e-05)
(0.000101285 -1.59917e-05 -2.85234e-05)
(0.000102626 -2.98134e-05 -2.72421e-05)
(9.44162e-05 -3.83806e-05 -2.39753e-05)
(8.33821e-05 -4.52332e-05 -2.26602e-05)
(3.88534e-05 -3.08159e-05 -1.45741e-05)
(1.433e-05 -2.33856e-05 -1.6411e-05)
(-7.8318e-06 -1.45578e-05 -2.17677e-05)
(-3.08645e-05 -1.88001e-05 -2.98161e-05)
(-5.28769e-05 -2.68105e-05 -2.71051e-05)
(-5.84158e-05 -2.56981e-05 -1.57113e-05)
(-9.12976e-05 -3.81371e-05 -1.16667e-05)
(-5.19414e-05 -1.96254e-05 -1.59608e-06)
(-0.000114025 -4.31593e-05 3.48844e-06)
(-9.52013e-05 -3.64238e-05 6.48725e-06)
(-0.000124579 -4.90144e-05 9.42713e-06)
(-5.87243e-05 -2.37759e-05 3.79555e-06)
(-5.9905e-05 -2.4275e-05 2.7392e-06)
(-0.000110506 -4.4085e-05 1.93173e-06)
(3.81747e-05 1.95892e-05 4.89772e-05)
(5.15966e-05 2.05589e-05 -1.31716e-06)
(6.06582e-05 1.89908e-05 -1.12641e-05)
(6.5733e-05 1.444e-05 -1.46525e-05)
(7.06184e-05 8.21737e-06 -1.71156e-05)
(7.60841e-05 -6.91297e-07 -1.94145e-05)
(8.35713e-05 -1.23797e-05 -2.11143e-05)
(9.08604e-05 -2.42421e-05 -2.1857e-05)
(9.68811e-05 -3.46167e-05 -2.30267e-05)
(8.85363e-05 -3.94216e-05 -2.29908e-05)
(7.4795e-05 -4.31298e-05 -2.51314e-05)
(3.4023e-05 -2.83731e-05 -1.98399e-05)
(1.55323e-05 -2.44135e-05 -2.95439e-05)
(-5.22515e-06 -1.57023e-05 -3.2688e-05)
(-2.05279e-05 -1.81422e-05 -3.22884e-05)
(-1.7704e-05 -1.13454e-05 -1.34162e-05)
(-3.62172e-05 -2.2342e-05 -1.4315e-05)
(-5.60247e-05 -3.12855e-05 -9.50914e-06)
(-2.93552e-05 -1.70281e-05 -6.95606e-07)
(-6.379e-05 -3.51078e-05 3.7237e-06)
(-3.03001e-05 -1.85292e-05 2.51698e-06)
(-5.65324e-05 -3.4666e-05 4.54355e-06)
(-5.73376e-05 -3.3984e-05 3.33479e-06)
(-7.1515e-05 -4.18624e-05 1.67974e-06)
(3.06395e-05 2.15371e-05 4.89887e-05)
(4.01454e-05 2.07032e-05 -2.29236e-06)
(4.34207e-05 1.66698e-05 -9.79662e-06)
(4.41441e-05 1.13297e-05 -1.06891e-05)
(4.64408e-05 5.72557e-06 -1.111e-05)
(5.29959e-05 -1.86039e-06 -1.21427e-05)
(6.38216e-05 -1.18341e-05 -1.3397e-05)
(7.76493e-05 -2.19344e-05 -1.54714e-05)
(8.67132e-05 -2.9909e-05 -1.79722e-05)
(9.15672e-05 -3.69135e-05 -2.15696e-05)
(8.16485e-05 -3.91183e-05 -2.45303e-05)
(6.6012e-05 -4.01926e-05 -3.05209e-05)
(3.19666e-05 -2.75309e-05 -2.87541e-05)
(8.82277e-06 -1.311e-05 -2.13281e-05)
(1.72139e-06 -1.8986e-05 -4.32317e-05)
(-6.28152e-06 -1.35272e-05 -2.79109e-05)
(-6.81068e-06 -9.48737e-06 -1.4932e-05)
(-1.39496e-05 -1.72529e-05 -1.42753e-05)
(-9.39665e-06 -1.15378e-05 -4.66749e-06)
(-9.68178e-06 -1.29859e-05 -1.71074e-06)
(-1.97028e-05 -2.93604e-05 -1.6557e-07)
(-1.34511e-05 -1.88711e-05 6.26558e-07)
(-2.31625e-05 -3.25442e-05 9.54409e-07)
(-9.94734e-06 -1.46573e-05 2.17802e-07)
(2.30889e-05 2.26092e-05 4.62843e-05)
(3.05281e-05 2.05e-05 -3.87285e-06)
(3.16055e-05 1.48213e-05 -9.81833e-06)
(3.1591e-05 8.9296e-06 -9.87025e-06)
(3.28212e-05 2.62145e-06 -9.15193e-06)
(3.95683e-05 -5.56026e-06 -8.78825e-06)
(5.20747e-05 -1.5111e-05 -8.73752e-06)
(6.55242e-05 -2.29548e-05 -9.89654e-06)
(7.82202e-05 -2.92715e-05 -1.3161e-05)
(8.34315e-05 -3.36242e-05 -1.7091e-05)
(8.48821e-05 -3.78246e-05 -2.25623e-05)
(7.49114e-05 -3.84186e-05 -2.88885e-05)
(6.06791e-05 -3.77884e-05 -3.85256e-05)
(3.45492e-05 -2.83044e-05 -4.02137e-05)
(1.73515e-05 -2.21187e-05 -4.04323e-05)
(1.03531e-05 -2.27737e-05 -5.10677e-05)