/*--------------------------------*- C++ -*----------------------------------*\
  =========                 |
  \\      /  F ield         | OpenFOAM: The Open Source CFD Toolbox
   \\    /   O peration     | Website:  https://openfoam.org
    \\  /    A nd           | Version:  6
     \\/     M anipulation  |
\*---------------------------------------------------------------------------*/
FoamFile
{
    version     2.0;
    format      ascii;
    class       volScalarField;
    location    "25";
    object      yPlus;
}
// * * * * * * * * * * * * * * * * * * * * * * * * * * * * * * * * * * * * * //

dimensions      [0 0 0 0 0 0 0];

internalField   uniform 0;

boundaryField
{
    inlet
    {
        type            calculated;
        value           uniform 0;
    }
    outlet
    {
        type            calculated;
        value           uniform 0;
    }
    roughCylinder
    {
        type            calculated;
        value           nonuniform List<scalar> 
3840
(
81.5506
50.2886
53.704
62.008
68.4275
73.5378
77.6539
81.1171
84.1763
86.9562
89.5855
92.106
94.6177
97.2167
99.9593
102.866
105.952
109.196
112.565
115.994
119.375
122.537
125.166
126.771
84.9916
50.4355
52.2413
60.3325
66.6947
71.7946
75.891
79.3358
82.3661
85.1229
87.6604
90.1015
92.5311
95.0304
97.6668
100.48
103.459
106.593
109.846
113.158
116.424
119.48
122.021
123.57
80.8629
49.5674
50.8587
58.6557
64.9517
69.9985
74.1126
77.5837
80.6202
83.288
85.7814
88.1432
90.4773
92.8903
95.4397
98.1396
101.01
104.032
107.172
110.368
113.522
116.472
118.926
120.42
69.1188
49.378
49.3542
56.9046
63.1604
68.2503
72.383
75.8511
78.8444
81.527
83.9374
86.2259
88.492
90.8121
93.2557
95.8727
98.644
101.562
104.589
107.672
110.715
113.562
115.93
117.371
80.6578
48.8706
47.9477
55.1608
61.392
66.4352
70.6043
74.1198
77.165
79.7623
82.1484
84.3783
86.5549
88.8003
91.1745
93.6809
96.3505
99.1606
102.084
105.059
107.995
110.744
113.03
114.418
72.0279
48.3974
46.3948
53.3037
59.5026
64.6523
68.8818
72.4189
75.3991
78.0617
80.3898
82.5584
84.6907
86.8564
89.1265
91.5673
94.1498
96.8677
99.6858
102.556
105.388
108.039
110.245
111.583
59.29
47.2466
44.9364
51.425
57.6692
62.7743
67.0506
70.646
73.7538
76.3301
78.6666
80.8102
82.8628
84.9687
87.1944
89.5279
92.0146
94.6318
97.3555
100.126
102.86
105.419
107.549
108.838
73.5219
47.082
43.2917
49.3943
55.582
60.8736
65.2643
68.9336
71.9435
74.6424
76.9535
79.0555
81.0993
83.1451
85.2659
87.5556
89.9705
92.5087
95.1346
97.8075
100.444
102.914
104.969
106.21
70.8103
46.3167
41.689
47.2093
53.5705
58.8336
63.2973
67.0301
70.2831
72.8977
75.2425
77.3653
79.3448
81.3494
83.4613
85.6453
87.9697
90.412
92.9528
95.5343
98.0802
100.465
102.45
103.644
69.9162
45.253
39.8872
44.8558
51.073
56.6574
61.3217
65.2363
68.3453
71.161
73.5235
75.6156
77.6275
79.5998
81.6019
83.7702
86.0418
88.4207
90.8699
93.36
95.8152
98.116
100.03
101.178
60.4536
44.8402
38.0114
42.0098
48.6542
54.2531
59.0744
63.0603
66.5971
69.3353
71.7604
73.9306
75.8886
77.8348
79.8755
81.936
84.1186
86.4017
88.7759
91.1809
93.55
95.771
97.6187
98.7209
61.0367
43.4651
35.9011
39.0205
45.2522
51.4924
56.6821
61.0705
64.3948
67.4576
69.9696
72.121
74.1606
76.11
78.0226
80.102
82.2556
84.4953
86.7813
89.0989
91.3815
93.5207
95.2994
96.3562
62.5874
42.699
33.3617
34.6358
41.9742
48.2729
53.863
58.3529
62.4502
65.4488
68.0621
70.3734
72.3777
74.3135
76.3339
78.2971
80.3583
82.4971
84.7185
86.9572
89.1572
91.2204
92.936
93.9474
55.8812
40.6553
30.4831
30.233
36.1347
44.1869
50.5616
55.9747
59.7317
63.2847
66.1035
68.4156
70.5637
72.5563
74.4114
76.4426
78.508
80.6319
82.7671
84.9214
87.0368
89.0197
90.667
91.6335
50.5038
39.442
27.4072
20.7209
30.8329
38.7691
46.4445
52.0787
57.4011
60.9205
63.9089
66.5036
68.6479
70.6386
72.7096
74.6056
76.5674
78.5751
80.658
82.739
84.7746
86.6839
88.27
89.1908
32.1361
33.3103
23.5004
10.9307
9.97973
30.3667
40.6547
48.917
53.6142
58.2108
61.6271
64.2621
66.6441
68.769
70.6009
72.6387
74.6535
76.6918
78.6873
80.6842
82.6358
84.4634
85.9804
86.8556
12.8582
12.9952
15.7811
15.802
4.52645
17.8798
33.0506
41.9144
50.5224
55.1371
58.8959
62.0344
64.4495
66.5901
68.8197
70.682
72.5698
74.4543
76.4129
78.3416
80.2133
81.968
83.4253
84.2526
5.71037
11.8777
14.148
16.4449
17.6187
7.58273
23.7926
36.5915
43.9987
51.3402
55.9877
59.2397
62.0968
64.4921
66.3333
68.4606
70.4741
72.4724
74.3364
76.1776
77.9628
79.6317
81.0154
81.7958
4.21088
0.910708
3.09174
11.7222
19.575
19.2928
19.5615
9.5838
39.2721
46.57
52.1989
56.4832
59.3696
61.808
64.3854
66.2503
68.097
69.8524
71.7035
73.4813
75.1829
76.7775
78.102
78.8282
8.94647
12.0108
18.0475
14.5671
14.7867
22.4896
11.1075
11.6729
20.4508
40.4004
47.9387
52.4441
56.3419
59.2947
61.1703
63.5363
65.6236
67.6651
69.4005
71.081
72.6902
74.1896
75.4313
76.1091
11.3966
20.5593
23.4437
17.9786
24.6642
17.3322
23.8327
22.3266
23.1785
28.4729
41.4413
48.8316
52.6149
55.6128
58.9412
60.8494
62.7048
64.2934
66.0647
67.6892
69.2044
70.6264
71.8103
72.4206
11.5229
21.8347
26.585
29.2207
25.0916
4.99233
25.9025
18.2468
14.8884
14.1801
33.9455
41.42
48.0512
52.3193
54.2276
57.173
59.4893
61.7571
63.3637
64.8706
66.2854
67.5956
68.6803
69.2423
11.5669
22.1917
27.961
31.0772
31.968
26.2584
9.9881
7.27654
25.7243
14.4249
5.47508
35.9216
41.9751
46.3824
51.5965
53.5936
55.54
56.8507
58.5971
60.0694
61.3695
62.6001
63.6344
64.102
11.7761
20.4193
26.8201
31.4026
33.2985
32.983
24.5479
5.35523
21.5977
18.224
22.5592
9.58388
33.7493
41.3733
43.1091
47.723
50.7688
53.7377
55.2514
56.5622
57.7551
58.8501
59.7577
60.1817
11.1851
18.5975
25.0554
29.7576
32.8264
33.5045
32.7604
22.1367
30.2098
27.5105
24.0717
22.4974
26.4188
28.2023
40.2842
42.3395
44.3531
45.1558
47.0051
48.3638
49.4093
50.4164
51.3109
51.5905
8.7303
16.7863
23.1102
27.8094
30.9766
32.8006
32.2826
31.846
21.1017
19.3561
18.9314
3.03075
15.8341
25.5299
12.616
29.0284
36.1262
41.0222
42.6513
43.8045
44.6574
45.6329
46.346
46.5688
7.41306
15.3532
20.9879
25.214
28.3894
30.3497
31.3803
30.3361
31.3186
19.9523
15.5561
17.5552
26.0415
5.75204
24.4849
8.80955
10.6202
14.7756
20.26
20.5559
22.9811
22.5366
23.704
23.1566
5.1388
13.4784
18.0176
21.56
24.4619
26.7287
27.9566
29.3222
29.0668
31.624
21.1084
23.1883
22.3226
25.2586
24.9625
19.3523
27.1371
9.40044
28.4667
22.1099
30.1016
10.3305
11.0803
24.5609
4.91125
12.2088
14.7608
16.9014
19.1963
21.457
23.6753
25.4303
28.303
29.0902
32.111
22.4586
29.7547
26.3451
25.8848
11.0914
20.5385
28.2729
10.9942
29.3991
11.3898
24.5967
23.7495
31.5958
3.902
11.6011
12.5122
13.0878
14.1973
16.292
18.8606
22.0285
24.6082
28.3622
29.7599
32.4879
24.1071
13.3577
28.4141
18.6575
11.8062
19.1059
3.0872
1.77333
31.6766
18.1915
33.7138
4.36383
3.39948
11.5899
11.7147
11.8975
12.3664
14.103
16.7315
19.2722
22.5412
25.0947
28.8564
30.5694
32.64
26.1937
22.0626
27.9672
2.33133
13.3417
17.242
28.5868
27.4679
32.7963
29.7338
32.3585
3.02549
11.5475
11.6267
11.7424
12.3775
14.6076
17.0202
19.2958
21.1396
23.8282
26.0231
29.4661
31.317
32.446
29.7029
19.2265
15.8341
7.11914
31.6449
20.4905
9.77466
14.9421
26.5405
14.4705
1.99219
9.46915
11.5545
11.7129
12.6518
15.4433
18.0182
19.9619
21.7958
23.1016
25.1058
26.9741
29.9927
31.8998
32.2643
32.2515
28.0077
23.209
18.3985
13.6079
13.8608
12.1738
11.143
12.0838
2.38814
10.0975
11.3709
11.4949
14.1851
17.1685
19.4634
21.2912
22.6407
23.9854
24.8238
26.2162
27.8452
30.2417
32.2441
31.9785
31.3471
30.8806
30.5204
30.2988
29.8608
29.6029
29.5121
29.7665
3.30924
11.4101
11.651
13.2784
16.358
19.0125
21.1037
22.7375
24.1226
25.0394
25.8682
26.2803
27.1552
28.5622
30.2854
31.6991
31.4666
30.4364
28.7853
27.0929
25.6981
24.7519
24.6514
24.7595
3.46225
11.5383
12.9127
15.9018
18.7025
21.0132
22.8849
24.4356
25.6481
26.6395
27.1454
27.4745
27.5271
27.9384
29.0546
30.0002
30.2571
29.8857
28.9203
27.6522
26.4121
25.7404
25.7513
26.0436
3.93972
11.9993
15.5822
18.4052
20.8204
22.9009
24.6707
26.1626
27.4213
28.3017
28.8783
28.9784
28.8507
28.6132
28.6149
29.1155
29.2993
28.7929
27.3978
25.4613
23.6219
22.6111
22.7003
23.1574
5.80009
14.8975
18.0921
20.582
22.7931
24.7519
26.4665
27.9672
29.21
30.174
30.7019
30.8608
30.5795
30.0466
29.527
29.1184
28.7899
28.2053
27.0466
25.4389
23.8828
23.1406
23.4236
24.0344
7.93398
16.9514
20.0609
22.4238
24.5531
26.4832
28.2197
29.7629
31.0854
32.0703
32.6944
32.8597
32.6102
31.9747
31.0853
30.1978
29.3258
28.3209
26.8975
25.059
23.305
22.465
22.83
23.5773
10.3512
18.8142
21.7555
24.0741
26.2082
28.1628
29.9541
31.5741
32.9554
34.0349
34.7116
34.9799
34.7773
34.1303
33.1345
31.8952
30.5644
29.1608
27.5633
25.7761
24.1916
23.5411
24.0309
24.8374
11.7433
13.1226
15.0991
16.4037
17.34
17.6964
17.6685
17.2487
16.637
15.8613
15.0669
14.2551
13.5097
12.8289
12.2542
11.8017
11.558
11.5311
11.0897
10.8987
10.9017
11.1035
11.4678
11.6916
11.8193
12.2756
12.8551
13.5407
14.2911
15.1079
15.9068
16.6862
17.2998
17.7187
17.7426
17.3778
16.4316
15.1141
13.1206
11.7487
20.056
20.8544
21.4388
21.7275
21.9125
21.919
21.893
21.7792
21.6703
21.5284
21.4076
21.279
21.1681
21.0614
20.9711
20.8918
20.8274
20.7778
20.745
20.7275
20.7282
20.747
20.781
20.8321
20.8975
20.978
21.0694
21.1773
21.2893
21.4191
21.541
21.6845
21.7942
21.9091
21.9352
21.9286
21.7417
21.4516
20.8599
20.0617
22.8565
23.3804
23.7845
24.0137
24.1984
24.2788
24.3453
24.3513
24.3502
24.3155
24.2807
24.2354
24.194
24.1521
24.1155
24.0842
24.0581
24.0388
24.0249
24.017
24.0177
24.0269
24.042
24.0625
24.0898
24.1223
24.16
24.203
24.2454
24.2917
24.3272
24.3627
24.364
24.3584
24.2915
24.2111
24.0249
23.7953
23.387
22.8621
25.1609
25.6312
26.0555
26.3238
26.5641
26.7119
26.8466
26.9337
27.0147
27.0686
27.1183
27.1558
27.1918
27.223
27.2515
27.2775
27.2988
27.3159
27.3269
27.3311
27.3317
27.3287
27.319
27.303
27.2828
27.2581
27.2306
27.2006
27.1656
27.1292
27.0803
27.0273
26.9467
26.8601
26.7254
26.5777
26.336
26.0672
25.6399
25.1681
27.3109
27.7548
28.207
28.5033
28.8027
29.0167
29.2313
29.3987
29.5664
29.7073
29.8456
29.9691
30.0878
30.1963
30.2958
30.3836
30.4573
30.5144
30.5525
30.5696
30.5702
30.554
30.5169
30.4607
30.3881
30.3013
30.2029
30.0953
29.9778
29.8552
29.718
29.5781
29.4109
29.2444
29.03
28.8163
28.5166
28.2198
27.7657
27.3204
29.3081
29.7406
30.2404
30.5794
30.9496
31.23
31.5249
31.7705
32.0214
32.2449
32.4662
32.6705
32.8666
33.0473
33.2126
33.3576
33.479
33.5725
33.6346
33.663
33.6635
33.6358
33.5743
33.4814
33.3608
33.2167
33.0523
32.8726
32.6775
32.4742
32.2539
32.0314
31.7813
31.5365
31.2423
30.9623
30.5919
30.253
29.752
29.3183
31.1678
31.6012
32.1599
32.5363
32.9709
33.3088
33.6717
33.9844
34.3047
34.5978
34.8879
35.159
35.4186
35.6579
35.8761
36.0667
36.2257
36.3474
36.4279
36.4641
36.4644
36.4287
36.3486
36.2272
36.0688
35.8787
35.6614
35.4228
35.1643
34.8941
34.6049
34.3129
33.9934
33.6816
33.3194
32.982
32.5476
32.1713
31.612
31.178
32.8592
33.2949
33.9011
34.3084
34.7923
35.1765
35.5915
35.9569
36.3309
36.6778
37.0201
37.3418
37.6485
37.9312
38.1877
38.4113
38.5967
38.7382
38.8313
38.8727
38.8729
38.8318
38.7388
38.5975
38.4124
38.1893
37.9332
37.6513
37.3454
37.0246
36.6832
36.3373
35.9642
35.5996
35.1852
34.8017
34.3179
33.9109
33.3041
32.868
34.3167
34.7417
35.3921
35.819
36.343
36.7617
37.217
37.6225
38.0367
38.4235
38.804
39.162
39.5019
39.8146
40.0971
40.3424
40.5451
40.6993
40.8003
40.8449
40.845
40.8005
40.6994
40.5453
40.3428
40.0978
39.8157
39.5036
39.1643
38.807
38.4273
38.0414
37.628
37.2234
36.7687
36.3505
35.8268
35.4
34.7491
34.3237
35.4492
35.8794
36.5621
37.0126
37.568
38.0184
38.5061
38.9449
39.3909
39.8089
40.2182
40.6029
40.9665
41.2999
41.5996
41.859
42.0723
42.2339
42.3397
42.3861
42.3861
42.3397
42.2338
42.072
41.8587
41.5996
41.3001
40.9672
40.6041
40.2201
39.8115
39.3942
38.9489
38.5109
38.0237
37.5738
37.0187
36.5681
35.8849
35.4538
36.2159
36.6463
37.377
37.8509
38.4436
38.925
39.4462
39.9159
40.3915
40.837
41.2709
41.6777
42.06
42.4091
42.7215
42.9905
43.211
43.3776
43.4864
43.5342
43.5342
43.4862
43.3773
43.2105
42.9899
42.721
42.4087
42.06
41.6781
41.2719
40.8385
40.3937
39.9186
39.4494
38.9287
38.4478
37.8552
37.3811
36.6499
36.2184
36.5585
37.0268
37.8064
38.3222
38.9562
39.4771
40.0345
40.5386
41.0448
41.518
41.9758
42.4032
42.8025
43.1653
43.4882
43.7652
43.9915
44.1622
44.2734
44.3226
44.3226
44.2733
44.1617
43.9908
43.7645
43.4874
43.1645
42.8019
42.4029
41.9759
41.5186
41.0459
40.5401
40.0366
39.4794
38.9588
38.3246
37.8085
37.0281
36.5584
36.4571
36.983
37.8324
38.4042
39.0909
39.6601
40.2602
40.8032
41.3432
41.8462
42.3289
42.7774
43.1936
43.57
43.9032
44.1878
44.4195
44.594
44.7078
44.7585
44.7584
44.7075
44.5935
44.4187
44.1869
43.9021
43.5689
43.1927
42.7767
42.3286
41.8461
41.3434
40.8039
40.2611
39.6612
39.0921
38.4051
37.8327
36.982
36.4542
35.8822
36.4746
37.413
38.0592
38.8106
39.4376
40.0874
40.675
41.2527
41.7886
42.2987
42.7699
43.2043
43.595
43.9393
44.2322
44.4699
44.6486
44.7653
44.8179
44.8178
44.765
44.648
44.469
44.231
43.938
43.5937
43.203
42.7687
42.2978
41.7879
41.2524
40.6749
40.0875
39.4378
38.8107
38.0587
37.4117
36.4713
35.8774
34.8487
35.491
36.4936
37.2321
38.0563
38.7523
39.4569
40.0953
40.7147
41.2874
41.8277
42.3244
42.7794
43.1867
43.544
43.8467
44.0918
44.2759
44.3963
44.4512
44.4511
44.396
44.2752
44.0908
43.8454
43.5424
43.1852
42.7779
42.323
41.8265
41.2863
40.7139
40.0948
39.4566
38.752
38.0556
37.2306
36.4907
35.4865
34.8424
33.467
34.0598
35.0784
35.8776
36.7716
37.5426
38.3047
38.9968
39.6605
40.2732
40.8467
41.3721
41.8507
42.2775
42.6503
42.9655
43.2201
43.4112
43.5365
43.5943
43.5942
43.5361
43.4104
43.2189
42.9641
42.6488
42.2758
41.8491
41.3706
40.8454
40.272
39.6597
38.9963
38.3042
37.542
36.7704
35.8753
35.0748
34.0544
33.4589
31.8545
32.2907
33.238
34.0314
34.9536
35.7798
36.5965
37.3374
38.043
38.6941
39.301
39.856
40.3599
40.8081
41.1988
41.5285
41.7946
41.9943
42.1257
42.1871
42.187
42.1252
41.9935
41.7933
41.5269
41.197
40.8063
40.3581
39.8543
39.2997
38.693
38.0424
37.337
36.5962
35.779
34.9521
34.0287
33.2337
32.2839
31.8452
30.1075
30.3148
31.1072
31.8154
32.7015
33.5319
34.3737
35.1482
35.883
36.5628
37.1964
37.7763
38.3027
38.7711
39.1791
39.5234
39.8013
40.0102
40.148
40.2132
40.213
40.1474
40.0091
39.7999
39.5216
39.1771
38.7691
38.3008
37.7747
37.195
36.5619
35.8823
35.1478
34.373
33.5306
32.6992
31.8115
31.1009
30.3051
30.093
28.2193
28.2319
28.843
29.4217
30.2195
31.0008
31.823
32.5985
33.339
34.0285
34.6735
35.2665
35.8061
36.2877
36.7078
37.0629
37.3499
37.5662
37.7092
37.7776
37.7774
37.7084
37.5647
37.3481
37.0607
36.7053
36.285
35.8036
35.2642
34.6715
34.0267
33.3374
32.5966
31.8205
30.9972
30.2144
29.4144
28.8326
28.2173
28.1988
26.2251
26.1693
26.6344
27.1089
27.8076
28.5195
29.2917
30.038
30.7628
31.4426
32.0826
32.6741
33.2148
33.6987
34.1221
34.4809
34.7715
34.9907
35.1361
35.2063
35.2059
35.135
34.9887
34.7689
34.4777
34.1186
33.695
33.2109
32.6704
32.079
31.4391
30.7593
30.0338
29.2866
28.5128
27.7992
27.0977
26.6204
26.151
26.2016
24.5181
24.515
24.8998
25.3377
25.9646
26.6238
27.3412
28.0455
28.7345
29.3882
30.0076
30.5833
31.1112
31.5853
32.001
32.3537
32.6398
32.856
32.9997
33.0691
33.0686
32.9982
32.8534
32.6363
32.3494
31.9959
31.5798
31.1057
30.5777
30.0019
29.3825
28.7285
28.039
27.3335
26.6147
25.9532
25.3243
24.8822
24.4953
24.4901
23.818
23.9041
24.2514
24.688
25.26
25.874
26.5281
27.1757
27.8129
28.4251
29.0075
29.551
30.0506
30.5
30.8945
31.2296
31.5015
31.7071
31.8436
31.9095
31.9087
31.8414
31.7034
31.4965
31.2233
30.8873
30.4919
30.042
29.5423
28.9986
28.4162
27.804
27.1667
26.5183
25.8631
25.2473
24.6738
24.2336
23.8848
23.7914
24.3445
24.4501
24.783
25.1926
25.7137
26.2679
26.8532
27.4385
28.0194
28.5808
29.1163
29.6173
30.0783
30.4935
30.8582
31.1682
31.4198
31.6099
31.7359
31.7962
31.7952
31.7329
31.6049
31.413
31.1597
30.8482
30.4823
30.0661
29.6045
29.103
28.5673
28.0058
27.4247
26.8391
26.2531
25.6971
25.1754
24.7613
24.4299
24.3127
25.2066
25.301
25.6264
26.0056
26.4928
27.0033
27.5483
28.0941
28.6379
29.1634
29.6654
30.1353
30.5681
30.958
31.3006
31.592
31.8284
32.0068
32.1249
32.181
32.1798
32.1215
32.0012
31.8207
31.5823
31.2894
30.9454
30.5544
30.1209
29.6505
29.1483
28.6227
28.079
27.5333
26.9882
26.4767
25.9888
25.6064
25.2795
25.1777
83.0837
50.6985
53.7256
62.01
68.4299
73.5412
77.6564
81.1182
84.1762
86.957
89.5858
92.1064
94.6178
97.2168
99.9593
102.867
105.953
109.197
112.567
115.996
119.378
122.54
125.17
126.775
83.3691
49.9542
52.2236
60.3377
66.6971
71.7943
75.8899
79.3357
82.3672
85.1225
87.6603
90.1012
92.5312
95.0307
97.6671
100.48
103.46
106.595
109.848
113.16
116.427
119.483
122.025
123.575
83.0426
49.9779
50.8741
58.6568
64.953
70.0024
74.1166
77.5859
80.6196
83.2886
85.7815
88.1434
90.4774
92.8903
95.44
98.1401
101.011
104.033
107.174
110.371
113.525
116.476
118.93
120.425
81.2815
48.947
49.3038
56.9088
63.1636
68.2495
72.3804
75.8494
78.846
81.5269
83.9375
86.2259
88.4918
90.8123
93.256
95.8732
98.645
101.563
104.591
107.675
110.718
113.566
115.934
117.376
81.1621
49.1539
47.9609
55.1594
61.3919
66.4393
70.6103
74.1242
77.164
79.7627
82.1479
84.3777
86.5553
88.8001
91.1747
93.6813
96.351
99.1615
102.086
105.062
107.999
110.748
113.034
114.423
78.9162
48.1369
46.3645
53.3118
59.5083
64.6527
68.8782
72.4147
75.401
78.0617
80.3905
82.5594
84.69
86.8567
89.1267
91.568
94.1512
96.87
99.6875
102.558
105.391
108.044
110.25
111.588
78.683
48.0729
44.9218
51.4244
57.6714
62.7785
67.0578
70.6533
73.7529
76.3303
78.6654
80.808
82.8635
84.9683
87.1947
89.5283
92.0151
94.6326
97.3577
100.129
102.863
105.424
107.554
108.843
75.3749
47.1105
43.3256
49.4073
55.5868
60.8759
65.261
68.927
71.9449
74.6423
76.9546
79.0581
81.0982
83.1454
85.266
87.5562
89.972
92.5114
95.1368
97.8105
100.448
102.919
104.974
106.215
63.6646
46.0932
41.7113
47.2127
53.5803
58.8376
63.3034
67.0384
70.2825
72.8978
75.2409
77.3615
79.3452
81.349
83.4616
85.6457
87.9703
90.412
92.9554
95.5373
98.0844
100.47
102.455
103.65
61.9746
45.1245
39.8823
44.8795
51.0745
56.6617
61.3212
65.2311
68.346
71.1602
73.5241
75.6188
77.627
79.6
81.6018
83.7708
86.0434
88.4242
90.8721
93.3634
95.8194
98.1212
100.035
101.184
55.3077
44.0476
37.9403
41.9925
48.6686
54.2552
59.0767
63.0624
66.5958
69.3356
71.7591
73.9269
75.8876
77.8342
79.876
81.9364
84.1194
86.4016
88.7789
91.1843
93.555
95.7767
97.6247
98.7276
54.0913
42.8861
35.9197
39.0871
45.2606
51.5025
56.6855
61.0753
64.397
67.4558
69.969
72.1222
74.1619
76.1103
78.0224
80.103
82.2574
84.5
86.7841
89.1032
91.3861
93.5273
95.3059
96.3633
53.8736
42.3151
33.5379
34.5904
41.9769
48.2698
53.862
58.341
62.4445
65.4494
68.0615
70.3728
72.3743
74.3126
76.3344
78.2974
80.3592
82.4963
84.7221
86.9616
89.1632
91.227
92.9429
93.9559
57.5735
41.2822
30.7329
30.4317
36.1773
44.1927
50.5661
55.9915
59.7389
63.2816
66.1015
68.4118
70.5665
72.557
74.4113
76.4443
78.5106
80.6385
82.7706
84.9265
87.0428
89.0276
90.6744
91.642
51.0557
39.8987
27.7508
20.9755
30.897
38.8591
46.4491
52.065
57.3901
60.9219
63.9092
66.5076
68.6447
70.6371
72.71
74.6051
76.5675
78.573
80.6623
82.744
84.7821
86.6915
88.2784
89.2011
32.7684
33.629
23.749
7.24159
9.68563
30.2274
40.7381
48.9116
53.6214
58.2053
61.6229
64.2558
66.6427
68.7701
70.6012
72.6421
74.6591
76.7019
78.6918
80.6908
82.6428
84.4732
85.9897
86.8656
12.5044
13.2976
12.2344
6.11442
7.8973
13.5092
32.1224
41.9271
50.5179
55.1407
58.8981
62.0331
64.4558
66.5885
68.8198
70.6805
72.5662
74.4497
76.4184
78.3477
80.2232
81.9782
83.4355
84.2658
5.51902
6.94077
7.69816
16.7385
17.7072
19.5712
19.1861
36.5596
43.9973
51.335
55.9854
59.2526
62.0788
64.4926
66.3346
68.4653
70.4883
72.4882
74.3426
76.1863
77.9715
79.6444
81.0268
81.8073
6.9689
12.0737
15.428
10.4901
9.28774
8.43043
11.3011
11.0903
39.3173
46.569
52.1784
56.4417
59.3979
61.8079
64.3849
66.25
68.0813
69.844
71.7111
73.4891
75.1967
76.7909
78.115
78.8465
0.467911
11.7056
5.09541
10.923
21.371
21.8843
20.8504
20.9691
19.7604
40.3422
48.0265
52.5228
56.3012
59.2937
61.1733
63.539
65.6632
67.6889
69.4091
71.0934
72.701
74.2066
75.446
76.1225
11.5565
20.6059
23.1771
18.2015
18.365
20.0342
23.9795
22.588
14.4787
29.1391
41.1764
48.72
52.6634
55.6132
58.9397
60.8557
62.6468
64.2812
66.076
67.6996
69.2255
70.6455
71.8284
72.4478
11.5072
21.8898
26.7282
29.2569
24.4469
14.4564
5.85367
19.1668
13.8041
4.58237
34.6341
41.4846
47.9772
52.3238
54.2346
57.1718
59.6141
61.7946
63.3756
64.8891
66.2987
67.6198
68.699
69.2582
11.5178
22.2353
28.0048
31.1622
32.0484
25.9476
10.4249
7.51384
20.3133
22.5556
25.9319
36.3256
42.2052
46.3717
51.5903
53.5985
55.3409
56.8224
58.6174
60.0845
61.406
62.63
63.6644
64.1447
11.45
20.4674
26.889
31.4762
33.4066
33.0806
24.8218
29.8757
16.7224
6.59722
11.6942
26.5443
32.78
41.4343
43.1417
47.7662
51.104
53.8416
55.2674
56.5959
57.7712
58.8882
59.7765
60.2029
11.6776
18.6565
25.1033
29.8158
32.8845
33.5924
32.7638
22.6677
21.6723
15.5841
18.799
12.0731
12.7408
27.3898
40.2121
42.2394
44.0881
44.972
47.0482
48.3772
49.4872
50.4733
51.3985
51.6765
8.71863
16.8055
23.1435
27.8545
31.0392
32.8646
32.401
31.9107
19.6931
29.9222
10.4253
18.3135
16.2481
20.9915
13.5722
29.1821
35.1845
41.5503
42.7493
43.921
44.6777
45.7077
46.216
46.5024
7.37105
15.3512
21.0007
25.2396
28.4237
30.3992
31.4124
30.3684
31.4907
21.1948
18.8725
9.47181
24.9177
25.6174
25.5837
14.5794
24.339
12.2705
18.7488
20.8431
23.2855
22.7797
25.5103
25.176
5.17244
13.4793
18.0189
21.5728
24.4909
26.7657
28.0127
29.3884
29.0779
31.6122
21.0218
19.612
11.0582
19.7065
19.7522
9.07965
28.3321
19.4918
21.3708
8.7227
29.7927
11.0997
31.1025
31.3894
4.89324
12.2156
14.7408
16.8943
19.2045
21.4833
23.7048
25.4568
28.366
29.1596
32.1748
22.1392
11.5312
15.3311
16.3303
26.9105
20.3052
6.34465
29.5479
21.8756
6.60236
22.9234
6.5802
7.72009
3.93234
11.8284
12.5032
13.0699
14.1951
16.3031
18.8855
22.066
24.6257
28.3794
29.7868
32.5467
23.6448
16.4311
0.652434
12.3742
11.1108
16.9254
18.1393
25.2206
18.6766
25.5801
18.5527
19.9663
3.34576
11.8676
11.7053
11.8938
12.3673
14.1133
16.7417
19.28
22.57
25.1303
28.8842
30.6004
32.6573
26.7197
29.788
8.02836
23.0725
24.0616
6.23757
14.9047
14.5876
29.9425
4.45345
20.6112
2.96689
11.2515
11.6037
11.7481
12.3922
14.6233
17.0338
19.312
21.1477
23.8373
26.0401
29.487
31.3457
32.387
30.7265
19.7525
31.172
21.9888
29.4457
15.7784
2.69964
26.4716
24.4589
14.9681
2.00893
9.51952
11.5243
11.7251
12.675
15.4628
18.0306
19.9683
21.8085
23.1192
25.1224
26.9914
30.02
31.9265
32.1959
32.227
28.7853
22.5528
17.671
14.0815
13.6353
11.4977
10.7706
11.8179
2.40212
10.1288
11.6144
11.5205
14.2122
17.1871
19.4758
21.303
22.6487
23.9927
24.835
26.2302
27.8548
30.2748
32.2709
32.0215
31.2532
30.9364
30.5617
30.2972
29.9703
29.6106
29.5805
29.9055
3.32598
11.4519
11.714
13.3084
16.3839
19.0279
21.1129
22.7435
24.1312
25.0509
25.8803
26.2935
27.1689
28.5733
30.3058
31.7592
31.5099
30.5004
28.8894
27.1974
25.8169
24.9094
24.7469
24.8729
3.5024
11.6652
12.9677
15.935
18.7214
21.0237
22.891
24.4413
25.6534
26.6458
27.1542
27.4855
27.5394
27.9513
29.0718
30.0249
30.3107
29.9681
28.9849
27.6919
26.4799
25.8234
25.8233
26.1369
3.95509
12.0207
15.6104
18.4253
20.8317
22.9063
24.6727
26.1638
27.4247
28.3077
28.8861
28.9882
28.8619
28.6266
28.6273
29.1461
29.3288
28.8437
27.4634
25.5315
23.7108
22.6935
22.7696
23.2373
5.82096
14.9201
18.111
20.5936
22.798
24.7524
26.4648
27.9662
29.2101
30.1759
30.7064
30.8679
30.5889
30.0574
29.5409
29.135
28.8207
28.2527
27.0939
25.4746
23.9248
23.1891
23.4575
24.0869
7.95853
16.965
20.0695
22.4272
24.5521
26.4794
28.2145
29.7583
31.083
32.0703
32.6968
32.8646
32.6178
31.9839
31.0953
30.213
29.3438
28.3509
26.9352
25.0982
23.3512
22.5049
22.8766
23.62
10.3699
18.8196
21.7576
24.0725
26.2028
28.1554
29.9461
31.5673
32.9502
34.0318
34.711
34.9822
34.7821
34.1376
33.1432
31.9051
30.5789
29.1825
27.591
25.8043
24.2207
23.57
24.0549
24.8697
81.2478
76.1949
58.5624
68.9983
72.0949
67.3756
65.2163
60.35
57.0237
37.9951
22.2776
41.3146
19.5671
14.7405
18.693
12.3473
15.075
13.7452
13.589
13.4042
13.4104
13.5042
14.2924
12.8518
17.5514
11.6376
18.922
20.7878
5.47405
46.2984
41.9294
54.4427
56.1323
65.7899
59.5213
61.3128
65.3818
70.5181
59.5743
80.3684
49.956
47.945
46.4315
45.1559
43.1479
41.1079
40.1202
37.6274
36.3859
34.5603
34.4562
32.9515
33.1278
32.2429
31.6063
31.37
30.8307
30.6087
30.3908
30.2736
30.2731
30.3999
30.554
31.002
31.0462
31.9717
32.0085
32.9199
33.3625
34.3318
34.9215
35.9886
37.5614
39.9269
40.5748
43.0566
44.5867
47.4185
47.5758
50.1753
54.2386
52.7142
52.2206
50.7569
50.1933
48.8575
48.2575
47.1183
46.5365
45.5547
44.8948
44.0991
43.4651
42.9016
42.4336
41.9581
41.6525
41.3698
41.1901
41.0857
41.0859
41.187
41.3837
41.6169
42.0097
42.3904
42.9037
43.5087
44.0755
44.878
45.5141
46.5583
47.1741
48.2942
48.9098
50.2135
50.7568
52.229
52.6922
54.249
62.6793
61.1758
60.6634
59.2179
58.5718
57.2481
56.5411
55.3763
54.6656
53.6999
53.0249
52.2247
51.6337
51.0233
50.5313
50.1053
49.7528
49.4908
49.3059
49.204
49.204
49.3067
49.4865
49.7623
50.0922
50.5394
51.0211
51.6309
52.2329
53.0136
53.7045
54.6749
55.3784
56.5386
57.2438
58.5631
59.2133
60.6549
61.1722
62.6727
69.0839
67.5352
66.9382
65.4758
64.7557
63.438
62.6609
61.5178
60.7389
59.782
59.049
58.268
57.6266
57.0235
56.5159
56.0741
55.7261
55.4537
55.2688
55.1672
55.1672
55.2681
55.4557
55.722
56.0779
56.5141
57.022
57.6293
58.2666
59.0464
59.7812
60.741
61.5203
62.6631
63.439
64.7568
65.4747
66.9376
67.5325
69.0821
74.1773
72.5898
71.9155
70.4441
69.6494
68.3426
67.4972
66.3703
65.5379
64.5894
63.8233
63.0424
62.3869
61.773
61.2571
60.8129
60.4548
60.1819
59.994
59.8925
59.8925
59.9942
60.1809
60.4563
60.8115
61.2572
61.7731
62.3867
63.0427
63.8222
64.5894
65.5391
66.3713
67.4972
68.342
69.6483
70.4422
71.914
72.5868
74.1763
78.2428
76.6414
75.8871
74.4252
73.5647
72.2752
71.38
70.2647
69.3992
68.4527
67.6679
66.8856
66.2182
65.6019
65.0787
64.6303
64.2701
63.9935
63.8047
63.7028
63.7028
63.8044
63.994
64.2694
64.6306
65.0787
65.6017
66.2182
66.8852
67.6675
68.4526
69.3996
70.2647
71.3799
72.2748
73.5644
74.4243
75.8866
76.6398
78.2428
81.6648
80.0535
79.2422
77.785
76.8809
75.597
74.6715
73.5571
72.6715
71.7218
70.9229
70.1364
69.4595
68.8379
68.3085
67.8556
67.4902
67.2107
67.0188
66.9151
66.9151
67.0189
67.2104
67.4904
67.8554
68.3083
68.8378
69.4594
70.1363
70.9227
71.7216
72.6715
73.557
74.6713
75.5968
76.8805
77.7844
79.2414
80.0527
81.6641
84.7084
83.067
82.2257
80.7561
79.8278
78.5371
77.5918
76.4715
75.5696
74.6139
73.8021
73.009
72.3222
71.694
71.157
70.6981
70.3273
70.0427
69.8468
69.7399
69.7398
69.8467
70.0428
70.3271
70.6981
71.1569
71.6939
72.3221
73.0089
73.8019
74.6137
75.5696
76.4714
77.5916
78.5367
79.8275
80.7557
82.2252
83.0667
84.7077
87.5251
85.8282
84.9793
83.4831
82.5392
81.2343
80.2716
79.1412
78.223
77.2579
76.4324
75.6301
74.9323
74.2955
73.7497
73.2835
72.9058
72.6155
72.4146
72.3033
72.3033
72.4146
72.6154
72.9058
73.2835
73.7497
74.2954
74.9322
75.63
76.4323
77.2577
78.2229
79.141
80.2714
81.234
82.5391
83.4826
84.9792
85.8275
87.5253
90.1711
88.4353
87.5693
86.0502
85.0869
83.7657
82.7842
81.6398
80.7048
79.7268
78.8867
78.0727
77.3627
76.7156
76.16
75.6854
75.3001
75.0031
74.7965
74.6802
74.6802
74.7965
75.0031
75.3
75.6853
76.1599
76.7155
77.3626
78.0726
78.8866
79.7266
80.7047
81.6397
82.784
83.7655
85.0867
86.0499
87.5692
88.435
90.1711
92.7399
90.9401
90.0789
88.518
87.5478
86.1987
85.2041
84.0394
83.0893
82.0953
81.2405
80.4133
79.6904
79.0323
78.4663
77.9827
77.5895
77.2857
77.0732
76.9515
76.9515
77.0732
77.2857
77.5894
77.9827
78.4662
79.0322
79.6903
80.4132
81.2404
82.0951
83.0891
84.0393
85.2039
86.1985
87.5477
88.5177
90.0789
90.9397
92.74
95.3075
93.4405
92.5855
90.9827
90.0034
88.6274
87.6166
86.4326
85.4648
84.4552
83.5842
82.7436
82.0071
81.3376
80.7609
80.2682
79.8669
79.5563
79.3378
79.2109
79.2109
79.3378
79.5562
79.8668
80.2681
80.7608
81.3375
82.0069
82.7435
83.5841
84.4551
85.4647
86.4325
87.6163
88.6272
90.0031
90.9826
92.5853
93.4405
95.3073
97.9556
96.0273
95.1726
93.53
92.5378
91.1347
90.1058
88.9011
87.9146
86.8877
85.9998
85.1444
84.3936
83.7119
83.1239
82.6217
82.212
81.8945
81.6701
81.538
81.538
81.6701
81.8944
82.2119
82.6215
83.1238
83.7118
84.3935
85.1442
85.9996
86.8875
87.9144
88.9009
90.1056
91.1345
92.5376
93.5298
95.1724
96.0271
97.9554
100.749
98.755
97.9005
96.2142
95.2081
93.7746
92.726
91.4978
90.4909
89.4447
88.5379
87.6662
86.9
86.2049
85.6047
85.0921
84.6736
84.3488
84.1185
83.9813
83.9812
84.1184
84.3487
84.6735
85.092
85.6046
86.2047
86.9
87.6662
88.5379
89.4442
90.4905
91.4974
92.7256
93.7741
95.2077
96.2137
97.9
98.755
100.749
103.72
101.649
100.798
99.0607
98.0405
96.5721
95.5019
94.2471
93.2178
92.1499
91.2228
90.3327
89.5493
88.8395
88.2259
87.7021
87.274
86.9414
86.705
86.5627
86.5623
86.7046
86.9414
87.2736
87.7017
88.2255
88.8391
89.5489
90.3323
91.2224
92.1495
93.2174
94.2466
95.5015
96.5716
98.0401
99.0603
100.797
101.648
103.72
106.865
104.717
103.863
102.076
101.035
99.5315
98.4356
97.153
96.098
95.0062
94.0563
93.1467
92.3441
91.6181
90.9899
90.4538
90.0155
89.6749
89.4317
89.2846
89.2846
89.4317
89.6745
90.0155
90.4538
90.9899
91.6177
92.3437
93.1463
94.0559
95.0058
96.0976
97.1526
98.4352
99.5307
101.035
102.075
103.862
104.717
106.865
110.171
107.943
107.084
105.244
104.181
102.639
101.516
100.203
99.1201
98.0033
97.029
96.0974
95.2748
94.531
93.8874
93.3383
92.8889
92.5397
92.2899
92.1375
92.1375
92.2899
92.5393
92.8889
93.3379
93.887
94.5306
95.2744
96.097
97.0282
98.0029
99.1197
100.203
101.515
102.639
104.18
105.243
107.082
107.942
110.17
113.6
111.293
110.425
108.533
107.444
105.865
104.71
103.367
102.254
101.11
100.11
99.1561
98.3118
97.5496
96.8898
96.3267
95.8662
95.5073
95.2508
95.0937
95.0937
95.2508
95.5073
95.8659
96.3263
96.8894
97.5492
98.311
99.1554
100.109
101.11
102.253
103.366
104.709
105.864
107.443
108.531
110.423
111.292
113.599
117.091
114.704
113.825
111.881
110.765
109.148
107.961
106.586
105.443
104.272
103.245
102.267
101.401
100.62
99.9431
99.3661
98.8936
98.526
98.2624
98.1003
98.1003
98.2624
98.5256
98.8932
99.3657
99.9427
100.62
101.4
102.267
103.244
104.271
105.442
106.585
107.96
109.146
110.764
111.879
113.823
114.702
117.089
120.531
118.069
117.177
115.184
114.039
112.385
111.166