/*--------------------------------*- C++ -*----------------------------------*\
  =========                 |
  \\      /  F ield         | OpenFOAM: The Open Source CFD Toolbox
   \\    /   O peration     | Website:  https://openfoam.org
    \\  /    A nd           | Version:  6
     \\/     M anipulation  |
\*---------------------------------------------------------------------------*/
FoamFile
{
    version     2.0;
    format      ascii;
    class       volScalarField;
    location    "0.4";
    object      p;
}
// * * * * * * * * * * * * * * * * * * * * * * * * * * * * * * * * * * * * * //

dimensions      [0 2 -2 0 0 0 0];

internalField   nonuniform List<scalar> 
380496
(
0.0123401
0.0128701
0.0124882
0.0124154
0.0123345
0.0122427
0.0121459
0.0120413
0.0119322
0.0118217
0.0117125
0.0116037
0.0114942
0.011384
0.0112749
0.0111679
0.0110628
0.0109591
0.0108564
0.0107542
0.010652
0.0105494
0.0104459
0.0103408
0.0102337
0.010124
0.0100111
0.00989457
0.00977383
0.00964799
0.00951779
0.00938006
0.00924086
0.00908651
0.00894516
0.0123087
0.0128433
0.012477
0.0124099
0.0123332
0.0122432
0.0121463
0.0120404
0.0119293
0.0118161
0.0117033
0.0115913
0.011479
0.0113665
0.0112546
0.0111439
0.0110344
0.0109259
0.0108179
0.0107103
0.0106025
0.0104942
0.0103848
0.0102739
0.0101611
0.0100457
0.00992742
0.00980567
0.00968047
0.00955012
0.00941818
0.00927616
0.0091461
0.00898286
0.00890288
0.0122741
0.0127886
0.0124457
0.0123946
0.0123287
0.0122438
0.0121477
0.0120405
0.0119271
0.0118111
0.0116954
0.0115795
0.0114623
0.0113443
0.0112267
0.0111107
0.0109959
0.010882
0.0107686
0.0106551
0.0105412
0.0104264
0.0103103
0.0101924
0.0100725
0.00994985
0.00982437
0.00969546
0.00956337
0.00942614
0.00928755
0.00913804
0.00899746
0.00882002
0.00869691
0.0122324
0.0127665
0.0124407
0.0123947
0.0123313
0.0122466
0.0121492
0.0120399
0.0119232
0.0118035
0.0116841
0.0115651
0.0114456
0.0113254
0.0112053
0.011086
0.0109671
0.0108485
0.01073
0.0106113
0.0104922
0.0103721
0.0102508
0.0101278
0.0100028
0.00987542
0.00974536
0.00961214
0.00947599
0.00933501
0.00919235
0.00903973
0.00889266
0.00871603
0.00857201
0.0121697
0.0126985
0.0123987
0.0123765
0.0123301
0.0122521
0.0121554
0.0120442
0.0119253
0.0118033
0.011681
0.0115581
0.0114335
0.0113075
0.0111815
0.0110566
0.010933
0.0108102
0.0106877
0.0105648
0.0104411
0.0103162
0.0101899
0.0100618
0.00993165
0.00979917
0.00966433
0.00952665
0.00938694
0.0092431
0.00910079
0.00894879
0.00881622
0.00864318
0.00856946
0.012134
0.0126781
0.0124086
0.0123926
0.0123456
0.0122639
0.012163
0.0120477
0.0119239
0.0117966
0.0116697
0.0115433
0.011417
0.0112902
0.0111631
0.011036
0.0109087
0.0107811
0.0106532
0.010525
0.0103961
0.0102663
0.0101352
0.0100025
0.0098681
0.00973151
0.00959277
0.00945138
0.00930788
0.00915982
0.00901182
0.00885157
0.00870322
0.00851055
0.00838167
0.0120316
0.0125881
0.0123581
0.0123736
0.0123471
0.0122723
0.0121716
0.0120542
0.0119283
0.0117993
0.0116704
0.0115403
0.0114079
0.0112741
0.0111405
0.0110083
0.0108772
0.0107469
0.0106165
0.0104856
0.0103537
0.0102205
0.010086
0.00994969
0.00981173
0.00967179
0.00953003
0.00938611
0.00924108
0.00909272
0.00894785
0.00879311
0.00866247
0.00848805
0.00841803
0.0119859
0.0125816
0.0123867
0.0124075
0.0123767
0.0122931
0.0121851
0.0120615
0.0119294
0.0117941
0.0116594
0.0115256
0.0113929
0.0112604
0.0111276
0.010994
0.0108595
0.0107244
0.0105889
0.0104529
0.0103163
0.0101789
0.0100402
0.00990022
0.00975877
0.00961559
0.00947082
0.009324
0.0091759
0.00902394
0.00887325
0.0087107
0.00856183
0.00836798
0.00824094
0.0118429
0.0124842
0.0123373
0.0123969
0.0123865
0.0123063
0.0121962
0.0120696
0.0119351
0.0117987
0.011663
0.011526
0.0113867
0.0112464
0.011107
0.0109692
0.0108325
0.0106961
0.0105594
0.010422
0.0102836
0.0101439
0.010003
0.00986058
0.00971685
0.00957156
0.00942498
0.00927677
0.00912814
0.0089767
0.00882948
0.00867286
0.00854089
0.00836587
0.00829716
0.0117751
0.0124954
0.012377
0.012441
0.0124229
0.0123303
0.0122115
0.0120782
0.0119378
0.0117954
0.0116539
0.0115136
0.0113755
0.0112382
0.0111006
0.0109619
0.0108222
0.0106817
0.0105409
0.0103997
0.0102578
0.0101151
0.00997145
0.00982657
0.00968058
0.00953324
0.00938481
0.00923492
0.00908452
0.00893112
0.00878022
0.00861857
0.00847302
0.00828204
0.00816271
0.0115969
0.0124184
0.0123415
0.0124444
0.0124411
0.0123462
0.0122232
0.0120862
0.0119434
0.0118004
0.0116588
0.0115159
0.0113713
0.0112265
0.0110833
0.0109419
0.0108014
0.0106608
0.0105196
0.0103776
0.0102346
0.0100905
0.00994524
0.00979882
0.00965137
0.0095027
0.00935317
0.00920245
0.0090518
0.00889882
0.00875042
0.008593
0.00846054
0.00828476
0.00821704
0.0114863
0.0124541
0.0123899
0.0124985
0.0124836
0.0123723
0.0122393
0.0120953
0.0119468
0.0117983
0.011651
0.0115053
0.0113627
0.0112217
0.0110806
0.0109383
0.0107949
0.0106508
0.0105063
0.0103614
0.0102158
0.0100695
0.00992236
0.00977421
0.00962521
0.00947519
0.00932448
0.00917275
0.00902108
0.008867
0.00871624
0.00855562
0.00841229
0.00822426
0.00810919
0.0112539
0.01242
0.0123724
0.0125171
0.0125086
0.0123893
0.0122504
0.0121025
0.0119517
0.011803
0.0116559
0.0115081
0.0113597
0.0112121
0.0110665
0.0109226
0.0107793
0.0106356
0.0104911
0.0103457
0.0101993
0.010052
0.00990379
0.00975459
0.00960462
0.00945373
0.00930232
0.00915008
0.00899827
0.00884448
0.00869549
0.00853787
0.00840468
0.00822898
0.00816004
0.0110754
0.0124986
0.012429
0.0125806
0.0125546
0.0124149
0.0122655
0.0121109
0.0119553
0.0118021
0.0116499
0.0114997
0.0113536
0.0112095
0.0110656
0.010921
0.0107752
0.0106287
0.0104817
0.0103342
0.0101861
0.0100373
0.00988779
0.00973744
0.00958646
0.00943471
0.00928257
0.00912975
0.00897738
0.00882303
0.0086726
0.00851316
0.00837157
0.00818694
0.00807513
0.0107775
0.0125401
0.0124321
0.0126127
0.012583
0.0124306
0.0122749
0.0121165
0.0119592
0.0118056
0.0116534
0.0115018
0.0113517
0.0112027
0.0110556
0.01091
0.0107647
0.0106187
0.0104717
0.0103239
0.0101752
0.0100257
0.00987541
0.00972438
0.00957278
0.00942049
0.00926794
0.00911483
0.0089624
0.00880825
0.00865897
0.00850156
0.00836708
0.00819182
0.00811809
0.010499
0.0126848
0.012496
0.0126825
0.0126281
0.0124527
0.0122872
0.0121234
0.0119626
0.0118062
0.0116501
0.011496
0.011347
0.0112007
0.0110551
0.0109091
0.010762
0.010614
0.0104654
0.0103162
0.0101664
0.0100159
0.00986486
0.0097131
0.00956089
0.00940808
0.00925509
0.00910171
0.00894897
0.00879458
0.0086446
0.00848651
0.0083465
0.0081658
0.00805723
0.0101384
0.0128357
0.0125224
0.0127257
0.0126564
0.0124655
0.0122942
0.0121272
0.0119655
0.011808
0.0116505
0.0114965
0.0113469
0.0111978
0.0110498
0.010903
0.010756
0.0106083
0.0104596
0.0103101
0.0101599
0.010009
0.00985751
0.00970533
0.0095528
0.00939968
0.00924649
0.00909302
0.00894024
0.00878597
0.00863656
0.00847991
0.00834349
0.00816947
0.00808365
0.00972717
0.0130635
0.0125866
0.0127918
0.0126932
0.012481
0.0123024
0.0121321
0.0119685
0.0118103
0.0116504
0.0114927
0.0113425
0.0111956
0.0110494
0.0109025
0.0107544
0.0106054
0.0104557
0.0103054
0.0101546
0.0100032
0.00985126
0.00969865
0.00954581
0.00939238
0.00923897
0.00908546
0.00893247
0.008778
0.00862861
0.00847198
0.00833498
0.0081588
0.00807566
0.00935147
0.0133378
0.0126459
0.0128431
0.0127177
0.0124898
0.0123071
0.0121343
0.0119714
0.011812
0.0116474
0.0114904
0.011343
0.0111964
0.011049
0.0109011
0.0107525
0.0106032
0.0104533
0.0103029
0.0101518
0.0100002
0.0098481
0.00969528
0.00954241
0.00938878
0.00923537
0.00908212
0.00892892
0.00877432
0.008625
0.00846973
0.00833192
0.008164
0.00805559
0.00884044
0.0135855
0.0126609
0.0128674
0.012732
0.012496
0.0123102
0.0121362
0.0119721
0.0118121
0.0116481
0.0114896
0.0113412
0.0111953
0.0110485
0.0109006
0.0107517
0.010602
0.0104517
0.010301
0.0101497
0.00999791
0.00984564
0.00969265
0.00953968
0.00938589
0.00923244
0.00907934
0.0089259
0.00877105
0.00862122
0.0084671
0.00832609
0.0081618
0.00802341
0.00855373
0.0139699
0.0127491
0.0129092
0.0127429
0.0124966
0.0123114
0.0121379
0.0119737
0.0118177
0.01165
0.0114841
0.0113384
0.0111957
0.0110499
0.0109016
0.0107521
0.010602
0.0104517
0.0103009
0.0101497
0.00999786
0.00984558
0.00969265
0.00953959
0.00938611
0.00923242
0.00907953
0.00892697
0.00877159
0.00862137
0.00846818
0.0083329
0.00817786
0.00809388
0.0123427
0.0128628
0.0124885
0.012416
0.0123346
0.0122427
0.0121459
0.0120413
0.0119322
0.0118217
0.0117124
0.0116037
0.0114942
0.0113841
0.011275
0.0111679
0.0110628
0.0109591
0.0108564
0.0107542
0.010652
0.0105494
0.0104459
0.0103408
0.0102338
0.0101241
0.0100112
0.0098946
0.00977387
0.00964804
0.00951783
0.0093801
0.00924089
0.00908656
0.00894522
0.012311
0.0128363
0.0124774
0.0124104
0.0123333
0.0122432
0.0121463
0.0120404
0.0119293
0.011816
0.0117033
0.0115912
0.011479
0.0113665
0.0112546
0.011144
0.0110345
0.0109259
0.010818
0.0107103
0.0106025
0.0104942
0.0103849
0.010274
0.0101611
0.0100457
0.00992745
0.0098057
0.00968051
0.00955017
0.00941822
0.00927624
0.00914608
0.008983
0.00890283
0.0122763
0.0127816
0.012446
0.0123951
0.0123288
0.0122438
0.0121477
0.0120405
0.0119271
0.0118111
0.0116954
0.0115795
0.0114624
0.0113443
0.0112268
0.0111107
0.0109959
0.0108821
0.0107686
0.0106551
0.0105412
0.0104264
0.0103103
0.0101925
0.0100725
0.00994987
0.00982439
0.00969548
0.0095634
0.00942617
0.00928758
0.00913807
0.00899746
0.00882005
0.00869687
0.0122347
0.0127596
0.0124411
0.0123952
0.0123314
0.0122465
0.0121492
0.0120398
0.0119232
0.0118034
0.011684
0.0115651
0.0114456
0.0113254
0.0112054
0.011086
0.0109671
0.0108485
0.01073
0.0106113
0.0104922
0.0103721
0.0102508
0.0101278
0.0100029
0.00987545
0.0097454
0.00961217
0.00947603
0.00933505
0.0091924
0.00903976
0.0088927
0.00871606
0.00857196
0.0121717
0.0126919
0.0123991
0.012377
0.0123301
0.0122521
0.0121554
0.0120442
0.0119253
0.0118033
0.011681
0.0115581
0.0114335
0.0113076
0.0111816
0.0110567
0.010933
0.0108103
0.0106877
0.0105648
0.0104411
0.0103162
0.0101899
0.0100618
0.00993168
0.0097992
0.00966436
0.00952667
0.00938698
0.00924313
0.00910085
0.00894882
0.00881629
0.00864327
0.00856943
0.0121361
0.0126716
0.0124089
0.012393
0.0123457
0.0122639
0.012163
0.0120477
0.0119239
0.0117966
0.0116696
0.0115433
0.011417
0.0112902
0.0111632
0.011036
0.0109087
0.0107811
0.0106532
0.010525
0.0103962
0.0102663
0.0101353
0.0100026
0.00986812
0.00973154
0.0095928
0.0094514
0.00930791
0.00915985
0.00901185
0.0088516
0.00870319
0.00851057
0.00838156
0.0120333
0.0125818
0.0123585
0.0123741
0.0123472
0.0122723
0.0121716
0.0120542
0.0119283
0.0117993
0.0116703
0.0115403
0.011408
0.0112741
0.0111406
0.0110083
0.0108772
0.0107469
0.0106165
0.0104856
0.0103537
0.0102206
0.010086
0.00994972
0.00981176
0.00967182
0.00953006
0.00938613
0.00924112
0.00909276
0.00894789
0.00879318
0.00866249
0.00848819
0.00841806
0.0119876
0.0125756
0.012387
0.0124079
0.0123767
0.0122931
0.012185
0.0120615
0.0119294
0.0117941
0.0116593
0.0115256
0.0113929
0.0112605
0.0111276
0.010994
0.0108595
0.0107244
0.0105889
0.0104529
0.0103164
0.0101789
0.0100403
0.00990024
0.00975879
0.00961562
0.00947084
0.00932402
0.00917593
0.00902398
0.00887328
0.00871072
0.00856182
0.00836796
0.00824085
0.0118443
0.0124782
0.0123377
0.0123973
0.0123866
0.0123062
0.0121961
0.0120696
0.0119351
0.0117987
0.011663
0.0115259
0.0113867
0.0112464
0.011107
0.0109692
0.0108325
0.0106961
0.0105594
0.010422
0.0102836
0.0101439
0.010003
0.00986061
0.00971688
0.00957159
0.00942501
0.0092768
0.00912818
0.00897675
0.00882953
0.00867291
0.00854094
0.00836596
0.00829723
0.0117765
0.0124897
0.0123772
0.0124413
0.0124229
0.0123303
0.0122115
0.0120782
0.0119377
0.0117954
0.0116538
0.0115136
0.0113755
0.0112382
0.0111006
0.0109619
0.0108222
0.0106818
0.0105409
0.0103997
0.0102579
0.0101152
0.00997147
0.0098266
0.0096806
0.00953326
0.00938484
0.00923494
0.00908456
0.00893115
0.00878025
0.00861859
0.008473
0.00828204
0.00816257
0.0115981
0.0124128
0.0123418
0.0124448
0.0124412
0.0123462
0.0122232
0.0120862
0.0119434
0.0118004
0.0116588
0.0115159
0.0113713
0.0112265
0.0110833
0.010942
0.0108014
0.0106608
0.0105197
0.0103776
0.0102346
0.0100905
0.00994526
0.00979885
0.00965139
0.00950273
0.0093532
0.00920248
0.00905184
0.00889886
0.00875047
0.00859305
0.00846058
0.00828487
0.00821708
0.0114874
0.012449
0.0123902
0.0124988
0.0124836
0.0123723
0.0122393
0.0120953
0.0119468
0.0117983
0.0116509
0.0115053
0.0113628
0.0112218
0.0110806
0.0109383
0.0107949
0.0106508
0.0105063
0.0103614
0.0102158
0.0100695
0.00992238
0.00977423
0.00962523
0.00947522
0.00932451
0.00917278
0.00902111
0.00886703
0.00871627
0.00855564
0.00841228
0.00822426
0.00810905
0.0112548
0.012415
0.0123726
0.0125174
0.0125087
0.0123893
0.0122504
0.0121025
0.0119517
0.011803
0.0116559
0.0115081
0.0113598
0.0112121
0.0110665
0.0109226
0.0107793
0.0106356
0.0104911
0.0103457
0.0101994
0.010052
0.00990381
0.00975462
0.00960464
0.00945376
0.00930235
0.0091501
0.00899831
0.00884452
0.00869553
0.00853791
0.00840471
0.00822908
0.00816007
0.0110763
0.0124941
0.0124292
0.0125809
0.0125547
0.0124149
0.0122655
0.0121108
0.0119553
0.0118021
0.0116499
0.0114997
0.0113536
0.0112095
0.0110656
0.010921
0.0107753
0.0106288
0.0104817
0.0103342
0.0101861
0.0100373
0.0098878
0.00973746
0.00958648
0.00943473
0.00928259
0.00912977
0.00897741
0.00882306
0.00867263
0.00851318
0.00837157
0.00818694
0.008075
0.0107782
0.0125359
0.0124323
0.0126129
0.012583
0.0124306
0.0122749
0.0121165
0.0119592
0.0118056
0.0116533
0.0115018
0.0113518
0.0112027
0.0110556
0.01091
0.0107647
0.0106187
0.0104717
0.0103239
0.0101752
0.0100257
0.00987544
0.0097244
0.00957281
0.00942052
0.00926796
0.00911486
0.00896244
0.00880829
0.00865901
0.0085016
0.00836712
0.00819191
0.00811812
0.0104998
0.0126812
0.0124962
0.0126827
0.0126281
0.0124527
0.0122872
0.0121234
0.0119626
0.0118062
0.0116501
0.011496
0.0113471
0.0112008
0.0110552
0.0109091
0.010762
0.010614
0.0104654
0.0103162
0.0101664
0.0100159
0.00986488
0.00971311
0.00956091
0.0094081
0.00925511
0.00910173
0.008949
0.00879461
0.00864463
0.00848652
0.00834652
0.00816581
0.00805714
0.0101391
0.0128328
0.0125226
0.0127259
0.0126564
0.0124655
0.0122942
0.0121272
0.0119655
0.011808
0.0116504
0.0114964
0.0113469
0.0111979
0.0110498
0.010903
0.0107561
0.0106083
0.0104596
0.0103101
0.0101599
0.010009
0.00985753
0.00970536
0.00955282
0.00939971
0.00924651
0.00909305
0.00894028
0.00878601
0.0086366
0.00847994
0.00834352
0.00816954
0.00808365
0.00972821
0.0130612
0.0125865
0.0127918
0.0126931
0.012481
0.0123024
0.0121321
0.0119685
0.0118103
0.0116504
0.0114926
0.0113425
0.0111956
0.0110494
0.0109025
0.0107544
0.0106054
0.0104557
0.0103054
0.0101546
0.0100032
0.00985127
0.00969866
0.00954582
0.0093924
0.00923898
0.00908547
0.00893249
0.00877801
0.00862863
0.008472
0.00833498
0.00815887
0.00807557
0.00935139
0.0133364
0.0126456
0.012843
0.0127176
0.0124898
0.012307
0.0121343
0.0119713
0.011812
0.0116475
0.0114905
0.011343
0.0111964
0.0110489
0.0109011
0.0107525
0.0106032
0.0104533
0.0103029
0.0101519
0.0100002
0.00984811
0.0096953
0.00954242
0.0093888
0.00923538
0.00908213
0.00892895
0.00877435
0.00862502
0.00846974
0.00833194
0.00816402
0.0080556
0.00884023
0.0135852
0.0126601
0.0128671
0.0127319
0.012496
0.0123102
0.0121362
0.0119721
0.0118122
0.0116481
0.0114896
0.0113412
0.0111953
0.0110486
0.0109007
0.0107517
0.010602
0.0104517
0.010301
0.0101498
0.00999792
0.00984565
0.00969267
0.00953969
0.00938591
0.00923245
0.00907935
0.00892593
0.00877108
0.00862125
0.00846712
0.00832612
0.00816178
0.00802346
0.00857896
0.0139714
0.0127443
0.0129074
0.0127425
0.0124966
0.0123114
0.0121379
0.0119738
0.0118175
0.0116498
0.0114842
0.0113385
0.0111957
0.0110499
0.0109016
0.010752
0.010602
0.0104517
0.0103009
0.0101497
0.00999784
0.00984556
0.00969263
0.00953957
0.00938608
0.00923243
0.00907951
0.00892688
0.00877154
0.00862136
0.00846818
0.00833293
0.00817786
0.00809351
0.0123508
0.0128572
0.0124887
0.0124163
0.0123347
0.0122427
0.0121459
0.0120413
0.0119322
0.0118217
0.0117123
0.0116037
0.0114943
0.0113841
0.011275
0.011168
0.0110629
0.0109592
0.0108564
0.0107542
0.010652
0.0105494
0.0104459
0.0103408
0.0102338
0.0101241
0.0100112
0.0098946
0.00977387
0.00964804
0.00951784
0.00938011
0.00924088
0.00908656
0.00894525
0.0123189
0.0128309
0.0124776
0.0124108
0.0123334
0.0122432
0.0121463
0.0120404
0.0119293
0.011816
0.0117032
0.0115912
0.011479
0.0113666
0.0112547
0.011144
0.0110345
0.0109259
0.010818
0.0107103
0.0106026
0.0104942
0.0103849
0.010274
0.0101611
0.0100458
0.00992747
0.00980572
0.00968053
0.0095502
0.00941824
0.00927629
0.00914608
0.00898306
0.00890295
0.0122841
0.0127761
0.0124461
0.0123953
0.0123289
0.0122438
0.0121476
0.0120405
0.0119271
0.0118111
0.0116953
0.0115795
0.0114624
0.0113443
0.0112268
0.0111107
0.0109959
0.0108821
0.0107686
0.0106551
0.0105412
0.0104264
0.0103103
0.0101925
0.0100725
0.00994988
0.00982439
0.00969548
0.0095634
0.00942617
0.00928758
0.00913807
0.00899745
0.00882003
0.00869684
0.0122424
0.0127544
0.0124413
0.0123955
0.0123315
0.0122465
0.0121491
0.0120398
0.0119232
0.0118034
0.0116839
0.011565
0.0114457
0.0113255
0.0112054
0.011086
0.0109671
0.0108485
0.01073
0.0106114
0.0104922
0.0103721
0.0102509
0.0101278
0.0100029
0.00987546
0.00974541
0.00961218
0.00947605
0.00933506
0.00919242
0.00903976
0.0088927
0.00871604
0.0085719
0.0121792
0.0126867
0.0123993
0.0123772
0.0123302
0.0122521
0.0121554
0.0120442
0.0119253
0.0118033
0.011681
0.0115581
0.0114335
0.0113076
0.0111816
0.0110567
0.0109331
0.0108103
0.0106877
0.0105648
0.0104411
0.0103163
0.0101899
0.0100618
0.00993168
0.00979921
0.00966437
0.00952668
0.009387
0.00924314
0.00910088
0.00894882
0.00881633
0.00864331
0.00856955
0.0121436
0.0126667
0.0124091
0.0123933
0.0123458
0.0122639
0.012163
0.0120476
0.0119239
0.0117965
0.0116695
0.0115432
0.0114171
0.0112903
0.0111632
0.011036
0.0109087
0.0107811
0.0106532
0.010525
0.0103962
0.0102663
0.0101353
0.0100026
0.00986813
0.00973155
0.00959281
0.00945141
0.00930792
0.00915986
0.00901185
0.0088516
0.00870314
0.00851053
0.00838148
0.0120405
0.0125768
0.0123587
0.0123743
0.0123473
0.0122722
0.0121715
0.0120542
0.0119283
0.0117993
0.0116703
0.0115402
0.011408
0.0112742
0.0111406
0.0110083
0.0108773
0.0107469
0.0106165
0.0104856
0.0103537
0.0102206
0.010086
0.00994973
0.00981177
0.00967183
0.00953008
0.00938614
0.00924114
0.00909278
0.00894791
0.00879321
0.00866251
0.00848827
0.00841824
0.0119948
0.0125709
0.0123872
0.0124081
0.0123768
0.0122931
0.012185
0.0120614
0.0119293
0.0117941
0.0116592
0.0115256
0.011393
0.0112605
0.0111276
0.010994
0.0108595
0.0107244
0.0105889
0.010453
0.0103164
0.0101789
0.0100403
0.00990025
0.0097588
0.00961562
0.00947085
0.00932403
0.00917594
0.00902398
0.00887328
0.00871071
0.00856179
0.00836789
0.00824078
0.0118511
0.0124734
0.0123378
0.0123976
0.0123866
0.0123062
0.0121961
0.0120696
0.0119351
0.0117987
0.011663
0.0115259
0.0113867
0.0112464
0.011107
0.0109692
0.0108325
0.0106961
0.0105594
0.010422
0.0102836
0.0101439
0.010003
0.00986062
0.00971689
0.0095716
0.00942502
0.0092768
0.00912819
0.00897676
0.00882955
0.00867293
0.00854098
0.00836601
0.00829743
0.0117833
0.0124854
0.0123775
0.0124415
0.012423
0.0123303
0.0122115
0.0120782
0.0119377
0.0117954
0.0116538
0.0115136
0.0113755
0.0112383
0.0111006
0.0109619
0.0108222
0.0106818
0.0105409
0.0103997
0.0102579
0.0101152
0.00997147
0.0098266
0.0096806
0.00953327
0.00938484
0.00923494
0.00908456
0.00893116
0.00878026
0.00861859
0.00847297
0.00828199
0.00816248
0.0116045
0.0124083
0.0123419
0.012445
0.0124412
0.0123462
0.0122231
0.0120862
0.0119434
0.0118004
0.0116588
0.0115159
0.0113713
0.0112265
0.0110833
0.010942
0.0108014
0.0106608
0.0105197
0.0103777
0.0102346
0.0100905
0.00994527
0.00979886
0.0096514
0.00950274
0.00935321
0.00920249
0.00905186
0.00889888
0.00875049
0.00859307
0.00846061
0.00828492
0.00821727
0.0114938
0.012445
0.0123904
0.012499
0.0124836
0.0123722
0.0122392
0.0120953
0.0119467
0.0117983
0.0116509
0.0115053
0.0113628
0.0112218
0.0110806
0.0109383
0.0107949
0.0106508
0.0105063
0.0103614
0.0102158
0.0100695
0.00992238
0.00977424
0.00962524
0.00947522
0.00932451
0.00917278
0.00902112
0.00886704
0.00871627
0.00855564
0.00841225
0.00822421
0.00810896
0.0112608
0.0124109
0.0123728
0.0125175
0.0125087
0.0123892
0.0122504
0.0121025
0.0119517
0.011803
0.0116559
0.0115081
0.0113598
0.0112121
0.0110665
0.0109226
0.0107793
0.0106356
0.0104912
0.0103457
0.0101994
0.010052
0.00990382
0.00975463
0.00960465
0.00945377
0.00930236
0.00915011
0.00899832
0.00884453
0.00869555
0.00853792
0.00840474
0.00822913
0.00816025
0.0110822
0.0124906
0.0124294
0.012581
0.0125547
0.0124148
0.0122655
0.0121108
0.0119553
0.011802
0.0116498
0.0114997
0.0113536
0.0112095
0.0110657
0.010921
0.0107753
0.0106288
0.0104818
0.0103342
0.0101861
0.0100373
0.00988781
0.00973746
0.00958648
0.00943474
0.0092826
0.00912977
0.00897742
0.00882307
0.00867264
0.00851317
0.00837155
0.00818691
0.00807492
0.0107838
0.0125325
0.0124324
0.012613
0.012583
0.0124305
0.0122749
0.0121165
0.0119592
0.0118055
0.0116533
0.0115017
0.0113518
0.0112027
0.0110556
0.01091
0.0107647
0.0106187
0.0104717
0.0103239
0.0101752
0.0100257
0.00987544
0.00972441
0.00957281
0.00942053
0.00926797
0.00911487
0.00896245
0.0088083
0.00865903
0.00850161
0.00836714
0.00819195
0.00811828
0.0105053
0.0126785
0.0124964
0.0126828
0.0126281
0.0124527
0.0122872
0.0121234
0.0119626
0.0118061
0.0116501
0.011496
0.0113471
0.0112008
0.0110552
0.0109091
0.010762
0.0106141
0.0104654
0.0103162
0.0101664
0.0100159
0.00986488
0.00971312
0.00956091
0.0094081
0.00925512
0.00910173
0.00894901
0.00879461
0.00864463
0.00848652
0.00834651
0.00816578
0.00805708
0.0101443
0.0128305
0.0125227
0.0127259
0.0126563
0.0124654
0.0122942
0.0121272
0.0119655
0.011808
0.0116503
0.0114964
0.0113469
0.0111979
0.0110499
0.010903
0.0107561
0.0106083
0.0104596
0.0103101
0.0101599
0.010009
0.00985754
0.00970537
0.00955283
0.00939972
0.00924652
0.00909306
0.00894029
0.00878602
0.00863661
0.00847995
0.00834354
0.00816957
0.00808377
0.00973337
0.0130596
0.0125865
0.0127916
0.012693
0.0124809
0.0123024
0.0121321
0.0119685
0.0118103
0.0116503
0.0114926
0.0113425
0.0111957
0.0110494
0.0109025
0.0107544
0.0106054
0.0104557
0.0103054
0.0101546
0.0100032
0.00985127
0.00969866
0.00954582
0.0093924
0.00923898
0.00908546
0.00893249
0.00877801
0.00862863
0.00847199
0.00833498
0.00815888
0.00807565
0.00935581
0.0133357
0.0126453
0.0128427
0.0127176
0.0124897
0.012307
0.0121343
0.0119713
0.0118119
0.0116474
0.0114904
0.011343
0.0111964
0.0110489
0.010901
0.0107525
0.0106032
0.0104533
0.0103029
0.0101519
0.0100002
0.00984811
0.0096953
0.00954242
0.00938881
0.00923537
0.00908212
0.00892896
0.00877435
0.00862502
0.00846973
0.00833195
0.00816403
0.00805562
0.00884311
0.0135861
0.0126592
0.0128667
0.0127318
0.012496
0.0123102
0.0121362
0.0119721
0.0118122
0.0116481
0.0114895
0.0113412
0.0111953
0.0110486
0.0109007
0.0107517
0.010602
0.0104517
0.010301
0.0101498
0.00999792
0.00984566
0.00969267
0.00953969
0.00938592
0.00923245
0.00907934
0.00892594
0.00877108
0.00862125
0.00846711
0.00832613
0.00816174
0.00802334
0.00859193
0.0139739
0.0127425
0.0129067
0.0127424
0.0124966
0.0123114
0.0121379
0.0119738
0.0118174
0.0116497
0.0114842
0.0113386
0.0111958
0.0110499
0.0109016
0.010752
0.010602
0.0104517
0.0103009
0.0101497
0.00999784
0.00984556
0.00969263
0.00953957
0.00938607
0.00923244
0.00907951
0.00892684
0.00877152
0.00862136
0.00846818
0.00833294
0.00817791
0.00809343
0.0123557
0.0128516
0.0124885
0.0124164
0.0123348
0.0122427
0.0121459
0.0120412
0.0119322
0.0118216
0.0117123
0.0116036
0.0114943
0.0113842
0.0112751
0.011168
0.0110629
0.0109592
0.0108564
0.0107542
0.010652
0.0105494
0.0104459
0.0103408
0.0102338
0.0101241
0.0100112
0.0098946
0.00977387
0.00964804
0.00951784
0.00938011
0.00924086
0.00908656
0.00894526
0.0123238
0.0128254
0.0124775
0.0124109
0.0123335
0.0122432
0.0121463
0.0120404
0.0119293
0.011816
0.0117032
0.0115911
0.011479
0.0113666
0.0112547
0.011144
0.0110345
0.0109259
0.010818
0.0107103
0.0106026
0.0104942
0.0103849
0.010274
0.0101611
0.0100458
0.00992748
0.00980573
0.00968055
0.00955023
0.00941825
0.00927635
0.00914604
0.00898316
0.00890324
0.0122888
0.0127707
0.0124459
0.0123954
0.012329
0.0122438
0.0121476
0.0120405
0.011927
0.011811
0.0116953
0.0115795
0.0114624
0.0113444
0.0112268
0.0111107
0.0109959
0.0108821
0.0107686
0.0106551
0.0105412
0.0104264
0.0103104
0.0101925
0.0100725
0.00994988
0.0098244
0.00969548
0.0095634
0.00942618
0.00928758
0.00913808
0.00899741
0.00882004
0.00869677
0.0122472
0.0127491
0.0124412
0.0123956
0.0123316
0.0122465
0.0121491
0.0120398
0.0119232
0.0118034
0.0116839
0.011565
0.0114457
0.0113255
0.0112055
0.011086
0.0109672
0.0108486
0.01073
0.0106114
0.0104922
0.0103722
0.0102509
0.0101279
0.0100029
0.00987547
0.00974542
0.00961218
0.00947606
0.00933508
0.00919244
0.00903977
0.00889269
0.00871605
0.0085718
0.0121839
0.0126815
0.0123992
0.0123774
0.0123303
0.0122521
0.0121553
0.0120442
0.0119253
0.0118032
0.0116809
0.011558
0.0114335
0.0113076
0.0111816
0.0110567
0.0109331
0.0108103
0.0106877
0.0105648
0.0104411
0.0103163
0.0101899
0.0100618
0.00993169
0.00979922
0.00966438
0.00952668
0.009387
0.00924315
0.00910089
0.00894882
0.00881634
0.00864338
0.00856976
0.0121482
0.0126616
0.012409
0.0123934
0.0123459
0.0122639
0.0121629
0.0120476
0.0119239
0.0117965
0.0116695
0.0115432
0.0114171
0.0112903
0.0111632
0.011036
0.0109087
0.0107811
0.0106533
0.010525
0.0103962
0.0102663
0.0101353
0.0100026
0.00986813
0.00973155
0.00959281
0.00945141
0.00930792
0.00915987
0.00901185
0.00885162
0.00870308
0.00851054
0.00838144
0.012045
0.0125717
0.0123586
0.0123744
0.0123473
0.0122722
0.0121715
0.0120542
0.0119283
0.0117993
0.0116703
0.0115402
0.011408
0.0112742
0.0111406
0.0110083
0.0108773
0.0107469
0.0106165
0.0104856
0.0103537
0.0102206
0.010086
0.00994973
0.00981177
0.00967184
0.00953008
0.00938614
0.00924114
0.0090928
0.00894791
0.00879325
0.00866246
0.00848836
0.00841849
0.0119992
0.0125661
0.0123872
0.0124082
0.0123768
0.0122931
0.012185
0.0120614
0.0119293
0.011794
0.0116592
0.0115255
0.011393
0.0112606
0.0111277
0.010994
0.0108595
0.0107244
0.0105889
0.010453
0.0103164
0.0101789
0.0100403
0.00990025
0.0097588
0.00961562
0.00947085
0.00932402
0.00917594
0.00902399
0.00887328
0.00871071
0.00856176
0.00836787
0.00824077
0.0118554
0.0124685
0.0123377
0.0123976
0.0123867
0.0123062
0.0121961
0.0120696
0.0119351
0.0117987
0.0116629
0.0115259
0.0113867
0.0112464
0.011107
0.0109692
0.0108325
0.0106961
0.0105594
0.010422
0.0102836
0.0101439
0.010003
0.00986062
0.00971689
0.00957161
0.00942503
0.0092768
0.0091282
0.00897677
0.00882956
0.00867294
0.00854097
0.00836605
0.00829771
0.0117875
0.0124808
0.0123774
0.0124416
0.012423
0.0123303
0.0122115
0.0120782
0.0119377
0.0117953
0.0116537
0.0115136
0.0113756
0.0112383
0.0111006
0.0109619
0.0108222
0.0106818
0.010541
0.0103997
0.0102579
0.0101152
0.00997147
0.0098266
0.0096806
0.00953327
0.00938484
0.00923494
0.00908456
0.00893117
0.00878026
0.0086186
0.00847293
0.00828199
0.00816246
0.0116086
0.0124036
0.0123418
0.012445
0.0124412
0.0123461
0.0122231
0.0120862
0.0119434
0.0118004
0.0116587
0.0115159
0.0113713
0.0112265
0.0110833
0.010942
0.0108014
0.0106608
0.0105197
0.0103777
0.0102346
0.0100905
0.00994527
0.00979886
0.0096514
0.00950274
0.00935322
0.00920249
0.00905186
0.00889889
0.00875049
0.00859309
0.00846058
0.00828497
0.00821752
0.0114977
0.0124408
0.0123903
0.012499
0.0124837
0.0123722
0.0122392
0.0120952
0.0119467
0.0117983
0.0116508
0.0115053
0.0113628
0.0112218
0.0110806
0.0109383
0.0107949
0.0106508
0.0105063
0.0103614
0.0102159
0.0100695
0.00992238
0.00977424
0.00962524
0.00947522
0.00932451
0.00917277
0.00902112
0.00886704
0.00871627
0.00855565
0.00841222
0.00822423
0.00810896
0.0112646
0.0124066
0.0123727
0.0125176
0.0125087
0.0123892
0.0122504
0.0121025
0.0119517
0.0118029
0.0116559
0.0115081
0.0113598
0.0112121
0.0110665
0.0109226
0.0107793
0.0106356
0.0104912
0.0103457
0.0101994
0.010052
0.00990382
0.00975463
0.00960465
0.00945377
0.00930236
0.00915011
0.00899833
0.00884454
0.00869556
0.00853794
0.00840471
0.00822917
0.00816049
0.0110859
0.0124868
0.0124294
0.012581
0.0125547
0.0124148
0.0122654
0.0121108
0.0119553
0.011802
0.0116498
0.0114997
0.0113537
0.0112096
0.0110657
0.010921
0.0107753
0.0106288
0.0104818
0.0103342
0.0101861
0.0100373
0.00988781
0.00973746
0.00958648
0.00943474
0.00928259
0.00912977
0.00897742
0.00882307
0.00867264
0.00851318
0.00837152
0.00818692
0.00807493
0.0107873
0.0125288
0.0124324
0.012613
0.0125831
0.0124305
0.0122748
0.0121165
0.0119592
0.0118055
0.0116533
0.0115017
0.0113518
0.0112028
0.0110556
0.01091
0.0107647
0.0106187
0.0104717
0.0103239
0.0101752
0.0100257
0.00987545
0.00972441
0.00957282
0.00942054
0.00926798
0.00911487
0.00896245
0.00880831
0.00865903
0.00850162
0.00836711
0.008192
0.0081185
0.0105088
0.0126754
0.0124965
0.0126827
0.0126281
0.0124527
0.0122871
0.0121234
0.0119626
0.0118061
0.01165
0.0114959
0.0113471
0.0112008
0.0110552
0.0109091
0.0107621
0.0106141
0.0104654
0.0103162
0.0101664
0.0100159
0.00986488
0.00971312
0.00956091
0.0094081
0.00925511
0.00910172
0.00894901
0.00879461
0.00864463
0.00848652
0.00834648
0.00816579
0.00805708
0.0101476
0.0128279
0.0125228
0.0127258
0.0126564
0.0124654
0.0122942
0.0121272
0.0119655
0.011808
0.0116503
0.0114964
0.0113469
0.011198
0.0110499
0.010903
0.0107561
0.0106083
0.0104596
0.0103101
0.0101599
0.010009
0.00985754
0.00970537
0.00955283
0.00939972
0.00924653
0.00909306
0.00894029
0.00878603
0.00863661
0.00847995
0.00834353
0.00816961
0.00808399
0.00973658
0.0130576
0.0125865
0.0127915
0.012693
0.0124809
0.0123024
0.0121321
0.0119685
0.0118103
0.0116503
0.0114926
0.0113425
0.0111957
0.0110494
0.0109025
0.0107544
0.0106054
0.0104557
0.0103054
0.0101546
0.0100032
0.00985126
0.00969866
0.00954581
0.00939239
0.00923897
0.00908545
0.00893249
0.008778
0.00862861
0.00847199
0.00833495
0.00815892
0.00807586
0.00935835
0.0133347
0.0126452
0.0128425
0.0127176
0.0124897
0.012307
0.0121343
0.0119713
0.0118119
0.0116475
0.0114904
0.011343
0.0111965
0.0110489
0.010901
0.0107525
0.0106032
0.0104533
0.0103029
0.0101519
0.0100002
0.00984811
0.0096953
0.00954241
0.00938882
0.00923536
0.0090821
0.00892899