/*--------------------------------*- C++ -*----------------------------------*\
  =========                 |
  \\      /  F ield         | OpenFOAM: The Open Source CFD Toolbox
   \\    /   O peration     | Website:  https://openfoam.org
    \\  /    A nd           | Version:  6
     \\/     M anipulation  |
\*---------------------------------------------------------------------------*/
FoamFile
{
    version     2.0;
    format      ascii;
    class       volScalarField;
    location    "0.4";
    object      yPlus;
}
// * * * * * * * * * * * * * * * * * * * * * * * * * * * * * * * * * * * * * //

dimensions      [0 0 0 0 0 0 0];

internalField   uniform 0;

boundaryField
{
    inlet
    {
        type            calculated;
        value           uniform 0;
    }
    outlet
    {
        type            calculated;
        value           uniform 0;
    }
    roughCylinder
    {
        type            calculated;
        value           nonuniform List<scalar> 
3840
(
38.3281
46.7751
53.2527
58.5612
62.4941
65.7242
68.6339
71.372
73.9856
76.5016
78.9498
81.3648
83.7741
86.1966
88.6447
91.1256
93.6443
96.204
98.8046
101.444
104.114
106.773
109.258
110.987
37.703
45.8929
52.2266
57.4844
61.4119
64.6199
67.5095
70.2171
72.791
75.2607
77.6587
80.0218
82.3782
84.7481
87.1439
89.5716
92.0364
94.5413
97.0862
99.668
102.28
104.879
107.306
108.995
37.0444
44.9994
51.1915
56.3926
60.3188
63.514
66.3852
69.0613
71.5937
74.0151
76.3606
78.6692
80.9707
83.2863
85.6279
88.0012
90.4108
92.8598
95.3478
97.8711
100.424
102.963
105.333
106.982
36.4134
44.1466
50.2027
55.3474
59.2738
62.4592
65.3125
67.9571
70.447
72.8196
75.1121
77.3662
79.6129
81.8746
84.1628
86.4825
88.8379
91.2322
93.6646
96.1317
98.6259
101.107
103.422
105.032
35.8249
43.344
49.2661
54.3525
58.279
61.4563
64.2913
66.9048
69.3518
71.6754
73.9147
76.114
78.3065
80.5152
82.7507
85.018
87.3207
89.662
92.0407
94.4528
96.8913
99.3154
101.578
103.151
35.2907
42.6011
48.3885
53.4134
57.3379
60.5062
63.3226
65.905
68.3093
70.5836
72.7697
74.9143
77.0528
79.2089
81.3929
83.6088
85.8604
88.1502
90.4767
92.836
95.2209
97.5907
99.8023
101.34
34.8184
41.9243
47.5748
52.5338
56.4525
59.611
62.4082
64.9594
67.3215
69.5463
71.6791
73.7693
75.8541
77.9581
80.0913
82.257
84.4588
86.6986
88.9748
91.2829
93.6157
95.9336
98.096
99.5983
34.412
41.317
46.827
51.7146
55.6236
58.7717
61.5497
64.0701
66.3908
68.5662
70.6458
72.6816
74.7133
76.7658
78.849
80.9654
83.1186
85.3099
87.5373
89.7964
92.0795
94.3469
96.4623
97.9305
34.0718
40.7794
46.1453
50.9561
54.8523
57.989
60.7476
63.2381
65.5185
67.6449
69.6717
71.6537
73.6326
75.6343
77.668
79.7362
81.842
83.9861
86.1662
88.3777
90.6128
92.8318
94.9015
96.3363
33.7957
40.3094
45.5269
50.2552
54.1341
57.2609
60.0022
62.464
64.7059
66.7838
68.7585
70.6874
72.6142
74.5655
76.5505
78.5715
80.6311
82.7293
84.8636
87.0293
89.2182
91.3903
93.4153
94.8182
33.5784
39.9028
44.9682
49.6088
53.4666
56.5873
59.3121
61.7479
63.9529
65.9838
67.9073
69.784
71.6593
73.5608
75.4979
77.4726
79.4869
81.5403
83.63
85.7511
87.8951
90.0224
92.0038
93.3744
33.4153
39.5556
44.4647
49.012
52.8457
55.9647
58.6774
61.0896
63.26
65.2459
67.1196
68.9452
70.7699
72.6221
74.5116
76.4407
78.411
80.4209
82.4673
84.5453
86.6457
88.7288
90.6676
92.007
33.2998
39.2622
44.0117
48.4606
52.2683
55.3905
58.0942
60.4879
62.6268
64.5706
66.3961
68.1715
69.9464
71.7499
73.5926
75.4767
77.4032
79.37
81.374
83.4097
85.4679
87.508
89.4048
90.7129
33.2263
39.0189
43.6051
47.9495
51.73
54.8616
57.5619
59.941
62.0526
63.9578
65.7373
67.4646
69.1906
70.9456
72.7414
74.581
76.4646
78.3897
80.352
82.3459
84.3621
86.3595
88.2153
89.493
33.1908
38.8208
43.2414
47.4743
51.2248
54.3699
57.0726
59.4448
61.5346
63.4057
65.1428
66.8232
68.5013
70.2085
71.9576
73.7523
75.5926
77.4753
79.3964
81.3494
83.324
85.2789
87.0936
88.3403
33.1863
38.6645
42.9167
47.0308
50.7483
53.9147
56.625
58.9956
61.0699
62.9123
64.6109
66.248
67.8794
69.5385
71.2407
72.9904
74.7873
76.6284
78.5084
80.4209
82.3547
84.2675
86.0413
87.2566
33.2108
38.5462
42.6296
46.6154
50.2939
53.4812
56.2075
58.5855
60.6523
62.4729
64.1386
65.7351
67.3213
68.9328
70.5871
72.291
74.0447
75.8436
77.6825
79.5547
81.4477
83.3182
85.05
86.2336
33.2534
38.4594
42.3772
46.2256
49.8568
53.065
55.8181
58.2092
60.2768
62.0832
63.7224
65.2835
66.8276
68.3921
69.9986
71.6561
73.3655
75.1229
76.9214
78.7535
80.6063
82.4347
84.1246
85.2754
33.3066
38.3998
42.1563
45.8592
49.4323
52.6583
55.4443
57.8576
59.9335
61.7353
63.3558
64.8867
66.3923
67.9123
69.4702
71.0796
72.7441
74.4588
76.2162
78.008
79.8201
81.606
83.2529
84.3705
33.3656
38.3645
41.9651
45.5152
49.0174
52.256
55.0851
57.5235
59.6182
61.4219
63.0321
64.5413
66.014
67.4921
69.0035
70.565
72.1826
73.8542
75.5711
77.3232
79.0951
80.8387
82.4423
83.5257
33.4296
38.3509
41.8023
45.1937
48.6108
51.8534
54.7262
57.1994
59.3168
61.135
62.7432
64.2372
65.6843
67.1262
68.5914
70.1033
71.673
73.2994
74.9742
76.6855
78.4164
80.1169
81.6761
82.7245
33.4959
38.3567
41.669
44.8969
48.2121
51.446
54.3606
56.8759
59.0259
60.8615
62.4782
63.9682
65.3975
66.8085
68.2335
69.6981
71.2187
72.799
74.4314
76.1027
77.7932
79.4506
80.965
81.9776
33.5616
38.3765
41.5611
44.6236
47.8217
51.0314
53.9839
56.5472
58.7302
60.5952
62.2253
63.7179
65.1398
66.5302
67.9185
69.3365
70.8072
72.3387
73.9263
75.5552
77.2038
78.8171
80.2853
81.2612
33.6245
38.4078
41.48
44.3773
47.441
50.6057
53.5862
56.198
58.4227
60.3177
61.9731
63.4793
64.9018
66.2792
67.6411
69.0185
70.4411
71.9241
73.4659
75.0526
76.6599
78.2293
79.6512
80.5898
33.6765
38.4405
41.4159
44.1523
47.0687
50.1685
53.1636
55.8195
58.0894
60.02
61.7008
63.2261
64.6608
66.0383
67.3814
68.7236
70.1
71.5319
73.025
74.5666
76.1305
77.6547
79.0284
79.929
33.7196
38.4754
41.371
43.9529
46.7063
49.7152
52.7056
55.4017
57.715
59.683
61.397
62.9493
64.4027
65.789
67.1274
68.445
69.7809
71.1662
72.6116
74.109
75.6304
77.1097
78.4356
79.298
33.7368
38.492
41.3239
43.7636
46.3474
49.2459
52.2114
54.9343
57.2845
59.2934
61.0384
62.6184
64.0986
65.5047
66.8467
68.1482
69.4514
70.7914
72.1883
73.6382
75.1142
76.5472
77.8242
78.6482
33.7418
38.5
41.2854
43.594
45.9944
48.7534
51.667
54.3999
56.7845
58.8213
60.6016
62.2148
63.7246
65.1577
66.5186
67.8218
69.1037
70.4087
71.7627
73.1691
74.6022
75.99
77.2192
78.006
33.6955
38.4631
41.2183
43.4162
45.6353
48.2371
51.0766
53.7986
56.2021
58.2663
60.0674
61.7055
63.2474
64.714
66.1025
67.4152
68.6878
69.9645
71.2785
72.6401
74.0283
75.3707
76.5524
77.3028
33.6438
38.4188
41.1534
43.2515
45.2754
47.6847
50.4177
53.1054
55.5089
57.5864
59.4062
61.0687
62.6398
64.1436
65.5702
66.9133
68.194
69.4581
70.745
72.0726
73.4229
74.7237
75.861
76.5781
33.5168
38.3017
41.0283
43.0523
44.894
47.0945
49.697
52.3254
54.7073
56.7794
58.6019
60.2744
61.8657
63.4014
64.8683
66.2468
67.5464
68.8105
70.08
71.3767
72.6903
73.9519
75.048
75.7351
33.3909
38.1835
40.9031
42.8587
44.5013
46.4452
48.8723
51.416
53.7497
55.7895
57.5923
59.2605
60.867
62.4391
63.9614
65.3965
66.7405
68.0277
69.2998
70.5853
71.8777
73.1106
74.1734
74.8361
33.1409
37.9583
40.6751
42.5926
44.0626
45.7314
47.9504
50.3743
52.6358
54.6229
56.3827
58.0208
59.6168
61.2069
62.7651
64.2524
65.6495
66.978
68.2726
69.5595
70.8399
72.0535
73.0926
73.7397
32.9381
37.7668
40.4609
42.3286
43.607
44.9347
46.8453
49.1239
51.2827
53.1667
54.8391
56.4159
57.9873
59.5928
61.211
62.7935
64.2896
65.698
67.0459
68.3624
69.6565
70.873
71.906
72.5487
32.5919
37.433
40.0924
41.9405
43.0846
44.0714
45.5797
47.5937
49.6084
51.3803
52.9422
54.4243
55.9406
57.5375
59.1948
60.8499
62.4406
63.9452
65.3782
66.7559
68.0925
69.3373
70.3861
71.0411
32.4152
37.21
39.7862
41.5744
42.5452
43.128
44.0981
45.6735
47.3984
48.9447
50.3125
51.65
53.0921
54.7091
56.4785
58.3216
60.1228
61.8228
63.4168
64.9098
66.3302
67.6394
68.7346
69.4212
32.0613
36.7774
39.2409
41.0055
41.8859
42.1066
42.4434
43.3573
44.548
45.6578
46.6656
47.7411
49.0616
50.6993
52.6229
54.7183
56.8161
58.7898
60.6289
62.3115
63.8873
65.3278
66.5241
67.2797
32.0691
36.622
38.8902
40.5202
41.2284
41.0337
40.6178
40.593
40.8671
41.1518
41.4812
42.1169
43.2792
45.0628
47.4263
50.0516
52.6752
55.1558
57.4318
59.4478
61.2821
62.9281
64.2735
65.1213
31.6693
36.0371
38.1008
39.6684
40.3211
39.7879
38.5691
37.3179
36.1366
34.9005
33.8555
33.5243
34.336
36.3942
39.3292
42.9292
46.4001
49.5439
52.5622
55.1357
57.4107
59.4119
61.0172
62.0218
31.9068
36.0935
37.837
39.0896
39.5553
38.7276
36.7836
34.1961
31.0637
27.3562
23.6186
21.3285
22.1347
23.7532
30.2914
34.5273
39.4313
44.1268
48.1912
51.5082
54.3171
56.718
58.5934
59.7392
30.4933
28.3701
26.1513
23.98
22.1373
21.0612
20.9563
21.4166
21.719
21.4216
20.4856
19.0967
17.5562
16.1254
14.9192
13.9479
13.1936
12.642
12.2895
12.1288
12.1293
12.2911
12.6447
13.1964
13.9497
14.9187
16.1214
17.5485
19.0888
20.4825
21.4242
21.725
21.4252
20.9651
21.0639
22.1321
23.9743
26.1496
28.369
30.4884
34.3251
31.9534
29.555
27.2363
25.299
24.3262
24.6837
25.7928
26.717
26.9177
26.307
25.0402
23.4071
21.7172
20.1856
18.8954
17.8636
17.0936
16.5948
16.365
16.3655
16.5964
17.096
17.8654
18.8951
20.1821
21.7105
23.399
25.0344
26.3057
26.9195
26.7206
25.799
24.6912
24.3289
25.2951
27.2323
29.5529
31.95
34.3178
36.0096
33.4323
30.7547
28.1138
25.8401
24.6455
25.1492
26.6934
28.159
28.9219
28.8207
27.9138
26.4326
24.7052
23.0242
21.5588
20.3717
19.4836
18.911
18.6503
18.6507
18.9121
19.4845
20.371
21.5548
23.0168
24.6957
26.4244
27.9101
28.8219
28.9253
28.1633
26.6999
25.1565
24.6476
25.8373
28.1127
30.7545
33.43
36.0046
37.2263
34.5269
31.6015
28.5602
25.7591
24.0624
24.4464
26.2892
28.1036
29.2256
29.5718
29.1378
28.0278
26.5102
24.9096
23.4552
22.2513
21.3395
20.7514
20.4865
20.4866
20.7512
21.3378
22.2462
23.4458
24.897
26.4979
28.0204
29.1375
29.5767
29.2315
28.1096
26.2974
24.4547
24.0654
25.7602
28.5641
31.6051
34.5279
37.2212
37.5469
34.7659
31.7633
28.5633
25.4673
23.3258
23.3897
25.3521
27.4181
28.6564
29.1345
28.9938
28.3088
27.2191
25.9594
24.7393
23.6741
22.833
22.2803
22.0328
22.0324
22.2783
22.8277
23.6635
24.7231
25.9404
27.203
28.3007
28.9942
29.1393
28.6616
27.4241
25.3609
23.3982
23.3302
25.473
28.5725
31.7704
34.7686
37.5325
36.2271
33.1565
30.047
26.912
24.0551
22.1476
22.2689
24.3692
26.6883
28.0501
28.5002
28.4105
27.9773
27.3086
26.5043
25.65
24.8149
24.0945
23.6015
23.3806
23.3794
23.5973
24.0852
24.7985
25.6265
26.4769
27.2831
27.9591
28.4004
28.4952
28.0481
26.69
24.3752
22.2742
22.1506
24.0638
26.928
30.0608
33.1601
36.1974
33.1067
29.2092
25.6956
22.7749
20.8399
20.1231
21.1276
23.7354
26.4465
28.099
28.6395
28.5633
28.2222
27.7543
27.2048
26.5684
25.8709
25.2217
24.7652
24.5608
24.5589
24.7587
25.2089
25.8502
26.5398
27.1702
27.7175
28.1872
28.533
28.6146
28.0805
26.4362
23.7327
21.1269
20.1224
20.8491
22.8005
25.7243
29.2198
33.0608
28.2802
22.6368
18.4144
16.5802
17.4414
19.5652
22.2034
25.2754
28.0683
29.8003
30.3495
30.169
29.7014
29.1101
28.4488
27.7147
26.9422
26.2489
25.7747
25.5643
25.5615
25.7656
26.2328
26.9187
27.6845
28.4126
29.0689
29.6575
30.1248
30.308
29.7649
28.043
25.2606
22.1932
19.5543
17.4393
16.615
18.4716
22.6657
28.2171
21.3267
14.7117
13.5158
12.6205
20.6525
25.0857
27.9641
30.3706
32.3199
33.3878
33.4358
32.8247
31.9529
30.9676
29.9397
28.9077
27.9357
27.1379
26.6187
26.3886
26.3847
26.6063
27.1174
27.9081
28.8746
29.9022
30.9263
31.9083
32.7787
33.391
33.3478
32.2897
30.3519
27.9526
25.0693
20.6329
12.5495
14.1644
14.7502
21.2302
14.7556
24.5853
26.3407
19.3959
28.1589
32.42
34.7924
36.2924
37.1886
37.3107
36.623
35.4438
34.0788
32.6504
31.2497
29.9462
28.8159
27.9483
27.4002
27.1522
27.1469
27.3836
27.9211
28.7797
29.9033
31.2023
32.6001
34.0266
35.3918
36.5733
37.2669
37.1538
36.2698
34.7755
32.4118
28.0744
19.6828
26.5346
24.4972
14.7145
23.1811
7.30306
21.4507
23.1432
34.1334
37.8373
39.7816
40.7432
40.9598
40.4522
39.2474
37.6713
35.9677
34.2558
32.6433
31.2076
30.0161
29.1261
28.5607
28.2937
28.2872
28.5399
29.0918
29.9691
31.1499
32.5777
34.1854
35.8955
37.6004
39.1811
40.3932
40.9122
40.7067
39.7671
37.812
34.1896
23.0782
21.408
1.17458
18.8741
25.468
14.4787
16.6843
26.8442
38.4291
41.0022
43.1103
43.743
43.7873
43.0764
41.737
40.0603
38.2765
36.5031
34.8518
33.396
32.1928
31.2842
30.6872
30.3903
30.3827
30.6632
31.2444
32.1374
33.3264
34.7704
36.4139
38.1842
39.9697
41.6526
43.0025
43.7249
43.7027
43.0777
41.0363
38.374
27.2448
16.2069
12.8998
25.8512
24.4959
14.7042
20.8729
29.399
39.0224
43.4951
45.1246
46.1308
46.2136
45.6584
44.4519
42.9106
41.2426
39.5642
37.9791
36.558
35.3579
34.4244
33.7872
33.4567
33.4485
33.7612
34.3816
35.2983
36.4825
37.8901
39.466
41.1409
42.8115
44.3617
45.5803
46.1546
46.0874
45.1373
43.4813
39.2508
29.4837
20.0334
14.8018
25.0323
30.0836
22.5951
21.9854
29.7002
41.7641
45.2798
47.2888
48.3414
48.638
48.2984
47.327
45.9999
44.5164
42.9837
41.4973
40.1283
38.94
37.989
37.3202
36.9638
36.9554
37.2933
37.945
38.8794
40.052
41.4074
42.885
44.4152
45.9033
47.2419
48.2277
48.5857
48.3034
47.2801
45.2387
41.7784
29.4574
21.5987
23.861
3.7976
34.2744
35.5309
28.9278
31.0764
42.3501
47.5157
49.3869
50.7204
51.1639
51.0317
50.2654
49.1278
47.8046
46.3976
44.9957
43.6727
42.4978
41.5377
40.8493
40.4757
40.4674
40.8226
41.4946
42.439
43.599
44.9098
46.3042
47.7108
49.0415
50.1943
50.9776
51.1314
50.6944
49.3914
47.3915
42.338
29.7702
30.7235
36.9668
35.0056
4.22563
8.85474
28.5973
36.749
45.4514
50.5251
52.2735
53.5081
53.9749
53.9122
53.2607
52.237
51.0154
49.6899
48.3444
47.0532
45.8899
44.9265
44.2275
43.844
43.8364
44.2028
44.887
45.8363
46.9867
48.2675
49.6072
50.9338
52.1642
53.2032
53.8672
53.936
53.4353
52.1072
49.9426
44.0617
31.2613
35.6139
39.0748
36.9544
27.6736
34.7555
34.8807
36.4661
48.7983
53.6137
55.6879
56.6544
57.0168
56.8957
56.2678
55.288
54.1169
52.8385
51.5296
50.263
49.1131
48.1537
47.4528
47.066
47.06
47.4323
48.1213
49.0694
50.2092
51.4678
52.7729
54.0538
55.2351
56.231
56.8745
57.0125
56.6649
55.7112
53.6298
48.8281
36.5145
33.6148
36.2105
27.2693
30.5715
19.4087
25.3384
42.4792
52.6218
57.1896
59.058
59.7701
59.9567
59.7578
59.1408
58.1947
57.0636
55.8271
54.5556
53.3197
52.1925
51.248
50.555
50.1717
50.1679
50.541
51.2262
52.1634
53.2837
54.5141
55.7828
57.0206
58.1577
59.1117
59.733
59.9372
59.756
59.0452
57.1625
52.5627
42.4277
25.3182
18.9351
30.8781
38.1524
27.7928
30.6366
43.986
53.9851
59.1797
61.4001
62.203
62.3882
62.219
61.6968
60.8465
59.7957
58.6306
57.4204
56.2355
55.1489
54.2342
53.5605
53.1877
53.1867
53.5546
54.2255
55.1372
56.2205
57.4018
58.6087
59.7712
60.8202
61.6663
62.1801
62.3442
62.1558
61.346
59.1095
53.8966
43.9047
30.6646
27.9552
38.2313
43.3144
35.0947
35.125
44.6994
54.1368
59.8912
62.6721
63.788
64.1205
64.0765
63.7432
63.0928
62.207
61.1794
60.0823
58.9884
57.9729
57.1106
56.4719
56.118
56.1201
56.4747
57.1156
57.9789
58.9936
60.0843
61.1757
62.195
63.0701
63.7057
64.0251
64.0613
63.7236
62.6019
59.8166
54.064
44.643
35.1323
35.1492
43.3156
47.2981
40.2491
38.6185
44.99
53.3808
59.4116
62.7602
64.3373
64.9671
65.1393
65.0532
64.7078
64.1062
63.3192
62.4199
61.4838
60.5895
59.8154
59.235
58.9122
58.917
59.2458
59.8325
60.6105
61.5052
62.4373
63.3276
64.1011
64.6849
65.0116
65.0859
64.9075
64.2751
62.6999
59.36
53.3456
44.982
38.6479
40.2784
47.2862
50.4991
44.1638
41.5021
45.0968
51.9689
57.9088
61.7024
63.7822
64.8282
65.327
65.5417
65.5489
65.3183
64.8657
64.2489
63.5403
62.8204
62.1723
61.6745
61.3946
61.4014
61.6909
62.1979
62.8517
63.5729
64.2773
64.8841
65.3217
65.5349
65.5138
65.2918
64.7905
63.747
61.6761
57.9
51.9878
45.1469
41.5621
44.2016
50.498
52.8972
46.9919
43.7705
45.337
50.5513
56.0264
60.0428
62.5431
64.0144
64.8917
65.4375
65.7656
65.876
65.7491
65.415
64.9369
64.3948
63.8745
63.4592
63.2213
63.2289
63.478
63.9036
64.4306
64.9751
65.4506
65.7768
65.8921
65.7704
65.4358
64.8875
64.0118
62.547
60.0605
56.0689
50.6273
45.4362
43.8609
47.0522
52.9151
54.3256
48.6214
45.1123
45.5526
49.612
54.5982
58.6519
61.4089
63.1831
64.352
65.156
65.7058
66.0232
66.0905
65.924
65.5796
65.1358
64.6799
64.2985
64.0727
64.081
64.319
64.7106
65.1734
65.6201
65.9632
66.1245
66.0497
65.7262
65.1737
64.3699
63.2048
61.4394
58.6997
54.6764
49.7223
45.6789
45.2241
48.7016
54.3601
38.1558
46.6555
53.1712
58.5147
62.4689
65.7107
68.6286
71.3732
73.9925
76.5138
78.9666
81.3852
83.7968
86.2204
88.6689
91.149
93.6662
96.2238
98.8216
101.457
104.123
106.778
109.257
110.983
37.5114
45.7519
52.1155
57.4001
61.3479
64.5703
67.4686
70.1818
72.7594
75.2316
77.631
79.9943
82.35
84.7182
87.1114
89.5359
91.9968
94.497
97.0367
99.6125
102.218
104.812
107.233
108.917
36.8734
44.8744
51.0946
56.3202
60.2648
63.4733
66.3523
69.033
71.568
73.9908
76.3365
78.6443
80.9439
83.257
85.5952
87.9646
90.3696
92.8135
95.2959
97.8133
100.359
102.892
105.257
106.901
36.2631
44.0368
50.1183
55.2851
59.2285
62.4261
65.286
67.9343
70.426
72.799
75.0907
77.3431
79.5873
81.8458
84.1301
86.4454
88.7959
91.1848
93.6116
96.0725
98.5603
101.035
103.345
104.951
35.6962
43.25
49.1945
54.3007
58.2425
61.4308
64.2714
66.8877
69.3355
71.6585
73.8961
76.093
78.2822
80.487
82.7182
84.9809
87.2785
89.6143
91.9872
94.3933
96.8258
99.2439
101.502
103.071
35.1842
42.5238
48.3305
53.3727
57.3108
60.4887
63.3096
65.8936
68.2977
70.5704
72.7539
74.8953
77.0299
79.1817
81.3611
83.5721
85.8185
88.1027
90.4236
92.777
95.1559
97.5202
99.7273
101.26
34.7342
41.8638
47.5305
52.5042
56.4347
59.6014
62.4017
64.9534
67.3142
69.5367
71.6662
73.7523
75.8327
77.932
80.0603
82.221
84.4175
86.6519
88.9225
91.225
93.5522
95.865
98.0232
99.5216
34.349
41.2724
46.7957
51.6954
55.6141
58.7688
61.5486
64.0684
66.387
68.5593
70.6348
72.6662
74.6929
76.7406
78.8186
80.93
83.0779
85.264
87.4861
89.7398
92.0177
94.2801
96.3917
97.8567
34.0271
40.7482
46.1248
50.9456
54.8496
57.9911
60.7504
63.2396
65.5171
67.6397
69.662
71.6391
73.6128
75.6093
77.6379
79.7011
81.802
83.9411
86.1162
88.3226
90.5528
92.7675
94.8335
96.2655
33.766
40.2889
45.5146
50.251
54.1361
57.2664
60.0075
62.4673
64.7059
66.7796
68.7494
70.6731
72.5945
74.5406
76.5206
78.5367
80.5915
82.685
84.8147
86.9758
89.1598
91.3285
93.3502
94.7503
33.5587
39.8893
44.9612
49.6088
53.4718
56.5949
59.3192
61.7527
63.954
65.9803
67.8988
69.77
71.6399
73.5362
75.4683
77.4383
79.4482
81.4973
83.5827
85.6996
87.8395
89.963
91.9419
93.3096
33.4029
39.5467
44.461
49.0144
52.8528
55.9738
58.6859
61.0956
63.2622
65.2434
67.1118
68.9319
70.7511
72.5982
74.4829
76.4075
78.3736
80.3795
82.4221
84.4963
86.593
88.6726
90.6097
91.9462
33.2905
39.2551
44.0093
48.4642
52.2768
55.4012
58.1044
60.4957
62.6308
64.5697
66.3899
68.1599
69.9293
71.7277
73.5658
75.4457
77.3683
79.3315
81.332
83.3643
85.4191
87.4563
89.3512
90.6568
33.2197
39.0133
43.6036
47.954
51.7396
54.8737
57.5742
59.951
62.0589
63.9593
65.7335
67.4554
69.1761
70.9261
72.7173
74.5529
76.4329
78.3547
80.3139
82.3048
84.318
86.313
88.1668
89.4419
33.1837
38.8147
43.2397
47.4793
51.2356
54.3841
57.0875
59.4578
61.5441
63.4104
65.1424
66.8176
68.4905
70.1928
71.9376
73.7284
75.5654
77.4451
79.3633
81.3136
83.2855
85.238
87.051
88.2954
33.1812
38.6596
42.9158
47.0367
50.7607
53.931
56.6424
59.0116
61.0826
62.9206
64.6144
66.2464
67.8728
69.5271
71.2251
72.9712
74.7649
76.6032
78.4806
80.3907
82.322
84.2326
86.0045
87.2174
33.2038
38.5402
42.6281
46.6218
50.3076
53.4996
56.2277
58.6048
60.6686
62.4852
64.1463
65.7381
67.3197
68.9266
70.5767
72.2771
74.0277
75.824
77.6605
79.5304
81.4213
83.2898
85.0198
86.201
33.2496
38.4553
42.3769
46.233
49.8719
53.0853
55.8406
58.2311
60.2962
62.0988
63.7339
65.2908
66.8305
68.3909
69.9932
71.6472
73.3536
75.1085
76.9048
78.7349
80.5857
82.4124
84.1007
85.2489
33.2998
38.394
42.1552
45.8666
49.4483
52.6802
55.4687
57.8819
59.9555
61.7541
63.3709
64.898
66.3998
67.9158
69.4698
71.0756
72.7371
74.4492
76.2046
77.9947
79.8052
81.5896
83.235
84.3496
33.3638
38.3619
41.9657
45.5234
49.0341
52.2787
55.1105
57.5489
59.6418
61.4426
63.0497
64.5556
66.0251
67.4996
69.0072
70.5652
72.1798
73.849
75.5641
77.3147
79.0853
80.8276
82.4299
83.5101
33.4234
38.3455
41.8013
45.2012
48.6272
51.8763
54.7518
57.2253
59.3411
61.1569
62.7623
64.2537
65.698
67.1367
68.5984
70.1068
71.6734
73.2973
74.9705
76.6806
78.4106
80.1103
81.6686
82.7139
33.4964
38.3556
41.6701
44.9048
48.2282
51.4682
54.3855
56.901
59.0496
60.8831
62.4976
63.9855
65.4126
66.821
68.2429
69.7042
71.2218
72.7997
74.4307
76.101
77.791
79.4481
80.9617
81.9711
33.5556
38.3711
41.5596
44.6299
47.8366
51.0523
54.0074
56.5708
58.7523
60.6153
62.2435
63.7345
65.1547
66.5432
67.9288
69.3437
70.8113
72.3403
73.9267
75.5552
77.2039
78.8177
80.2857
81.2587
33.6262
38.4074
41.4809
44.3836
47.4546
50.6247
53.6074
56.2189
58.4421
60.3353
61.9889
63.494
64.9155
66.2916
67.6517
69.0265
70.4462
71.9268
73.4675
75.054
76.6619
78.2321
79.654
80.5898
33.6703
38.4347
41.4133
44.1566
47.0806
50.1854
53.1822
55.8372
58.1052
60.0338
61.713
63.2372
64.6713
66.0482
67.3901
68.7303
70.1039
71.5337
73.0257
74.5677
76.1331
77.6592
79.0341
79.9324
33.7204
38.4745
41.3708
43.9571
46.7167
49.7296
52.7208
55.4155
57.7267
59.6924
61.4048
62.9563
64.4096
65.796
67.1341
68.4507
69.7843
71.1676
72.612
74.1096
75.6328
77.114
78.4415
79.3018
33.73
38.4859
41.3206
43.766
46.3563
49.2584
52.2236
54.9442
57.2913
59.2974
61.0404
62.6195
64.0998
65.5064
66.8489
68.1503
69.4519
70.7902
72.1864
73.6372
75.116
76.5527
77.8326
78.6555
33.7391
38.4969
41.2835
43.596
46.0019
48.7637
51.6762
54.4058
56.7868
58.8202
60.5983
62.2105
63.7205
65.1545
66.5169
67.8212
69.1024
70.4062
71.7594
73.1663
74.6019
75.993
77.2252
78.0111
33.6887
38.4571
41.2146
43.4171
45.6419
48.2463
51.0836
53.8009
56.1992
58.2591
60.057
61.6936
63.2355
64.7033
66.094
67.409
68.6822
69.9584
71.2722
72.6351
74.027
75.3746
76.561
77.3118
33.636
38.4127
41.1495
43.2517
45.2813
47.6933
50.4234
53.1052
55.5027
57.575
59.3912
61.0518
62.6223
64.1274
65.5566
66.9031
68.1856
69.4501
70.7371
72.0655
73.4185
74.7235
75.8653
76.5826
33.5094
38.2957
41.0246
43.0524
44.8996
47.103
49.702
52.3229
54.6968
56.7622
58.5797
60.2493
61.8394
63.3759
64.8459
66.2289
67.5318
68.7978
70.0684
71.3668
72.6843
73.9517
75.0542
75.743
33.3784
38.175
40.8978
42.8582
44.5074
46.4553
48.8793
51.4147
53.7393
55.7713
57.5685
59.2327
60.837
62.409
63.9337
65.3737
66.7222
68.0126
69.2869
70.5739
71.869
73.1065
74.1745
74.8386
33.1319
37.9523
40.6712
42.5922
44.0685
45.7421
47.9584
50.3728
52.6231
54.6005
56.3528
57.9853
59.578
61.1668
62.7271
64.2197
65.6225
66.9557
68.2541
69.5439
70.8281
72.0474
73.0933
73.743
32.9239
37.7586
40.4561
42.329
43.6155
44.9499
46.86
49.1298
51.2768
53.1501
54.814
56.3839
57.9498
59.5515
61.1691
62.7557
64.2579
65.6728
67.0269
68.347
69.6439
70.8643
71.9025
72.5472
32.583
37.4285
40.089
41.9405
43.0922
44.0864
45.5956
47.6015
49.6032
51.3625
52.9139
54.3874
55.8963
57.4869
59.1421
60.7994
62.3968
63.9089
65.3498
66.7337
68.0742
69.3238
70.3784
71.0362
32.4057
37.2065
39.7842
41.5767
42.5573
43.1507
44.1253
45.6962
47.4103
48.9447
50.3019
51.6289
53.0595
54.6639
56.4244
58.2641
60.0738
61.7837
63.3893
64.8906
66.3146
67.6266
68.7257
69.4136
32.0574
36.7779
39.2404
41.007
41.8956
42.1262
42.4686
43.3796
44.5607
45.6589
46.6551
47.7178
49.0238
50.6396
52.5492
54.6242
56.7444
58.7297
60.5855
62.2816
63.8626
65.3061
66.5057
67.2626
32.0694
36.626
38.8926
40.525
41.2441
41.0641
40.6598
40.6394
40.9106
41.1887
41.5106
42.1307
43.2643
45.0049
47.3228
49.8973
52.5936
55.093
57.393
59.4272
61.2676
62.9144
64.2597
65.1062
31.6716
36.0429
38.1043
39.6717
40.3319
39.8109
38.6035
37.3597
36.1819
34.9466
33.9012
33.5522
34.3323
36.253
39.1095
42.3241
46.2811
49.4334
52.4946
55.1004
57.3848
59.3865
60.989
61.9903
31.9137
36.1022
37.843
39.0964
39.573
38.7616
36.8352
34.2653
31.1526
27.472
23.8635
21.5258
21.9531
23.5343
29.5259
33.9088
39.2603
44.0164
48.1335
51.4922
54.3137
56.7122
58.5805
59.7188
38.1582
37.0078
36.4177
35.2702
34.6259
33.4837
32.7734
31.6294
30.8413
29.6766
28.8214
27.7305
26.9139
25.9456
25.2015
24.415
23.7817
23.1949
22.7722
22.5197
22.5203
22.7781
23.2083
23.8002
24.4426
25.2383
25.9941
26.9716
27.8158
28.9082
29.8004
30.9682
31.7855
32.9392
33.6727
34.8248
35.489
36.6457
37.2447
38.405
46.8277
45.7399
45.137
44.0907
43.4303
42.4255
41.7242
40.758
40.0185
39.0721
38.2762
37.3573
36.5899
35.7824
35.0902
34.4373
33.8799
33.3919
33.0286
32.8145
32.8156
33.031
33.3971
33.888
34.4501
35.1088
35.8089
36.6246
37.4083
38.3314
39.1509
40.0989
40.8613
41.8332
42.5535
43.5662
44.2429
45.2992
45.9075
47.0084
53.4017
52.3268
51.6864
50.6558
49.9635
48.9885
48.2721
47.3574
46.6288
45.7583
44.993
44.1392
43.3801
42.6145
41.9262
41.3024
40.7706
40.3141
39.9775
39.7818
39.783
39.9793
40.3179
40.7769
41.3125
41.9418
42.6372
43.4107
44.1824
45.0408
45.8252
46.6963
47.4453
48.3627
49.0973
50.0764
50.7864
51.8226
52.4715
53.5582
58.7182
57.6046
56.8787
55.8117
55.0422
54.0413
53.2684
52.3497
51.5981
50.7638
50.0414
49.2609
48.5229
47.7892
47.1034
46.4892
45.9789
45.5476
45.2352
45.0567
45.0578
45.2371
45.5513
45.9849
46.4989
47.1185
47.8107
48.5517
49.2991
50.084
50.8214
51.6556
52.4249
53.344
54.1337
55.136
55.9239
56.9911
57.7304
58.8507
62.6267
61.4585
60.6539
59.5491
58.7213
57.6975
56.8758
55.9433
55.1593
54.3251
53.6017
52.8697
52.21
51.5336
50.87
50.258
49.766
49.3559
49.0617
48.8952
48.8963
49.0639
49.3596
49.7718
50.2674
50.8843
51.5534
52.2354
52.9022
53.6375
54.3721
55.2056
56.0046
56.9362
57.7725
58.7966
59.6406
60.7439
61.5629
62.7357
65.8545
64.6494
63.7888
62.6582
61.7819
60.7396
59.8802
58.9335
58.1191
57.2716
56.5245
55.7833
55.1215
54.488
53.8915
53.2833
52.8022
52.4086
52.1266
51.9673
51.9682
52.129
52.4123
52.8076
53.2917
53.9041
54.5051
55.1429
55.8102
56.5539
57.3101
58.157
58.9842
59.9296
60.8021
61.8441
62.7346
63.8632
64.7368
65.9458
68.7588
67.5151
66.6059
65.4462
64.5302
63.4662
62.5764
61.6114
60.773
59.9118
59.1457
58.3926
57.7137
57.0689
56.4782
55.8984
55.4172
55.0322
54.7558
54.5995
54.6003
54.7586
55.0358
55.422
55.9055
56.4889
57.0833
57.7315
58.4152
59.1705
59.9446
60.8054
61.6552
62.6186
63.5205
64.5833
65.5126
66.6692
67.591
68.8372
71.5
70.2109
69.2658
68.0723
67.1258
66.0355
65.1158
64.1293
63.2641
62.3848
61.5965
60.8283
60.1319
59.4731
58.8662
58.2804
57.8026
57.418
57.1421
56.9857
56.9863
57.1455
57.4217
57.8069
58.2867
58.8753
59.4854
60.1474
60.8482
61.6184
62.414
63.2929
64.1684
65.1531
66.0841
67.1724
68.1317
69.3209
70.2787
71.5684
74.1268
72.7908
71.8177
70.5919
69.616
68.4981
67.5497
66.5393
65.6472
64.7459
63.9325
63.1428
62.4223
61.7402
61.1071
60.5163
60.0302
59.6437
59.3644
59.2058
59.2064
59.3687
59.6478
60.0346
60.522
61.1152
61.7516
62.4365
63.1612
63.9527
64.7729
65.6736
66.5752
67.5837
68.5428
69.6578
70.6463
71.8663
72.8531
74.1871
76.663
75.2815
74.2863
73.0244
72.0209
70.8733
69.8958
68.8596
67.9392
67.014
66.1736
65.3595
64.6107
63.8977
63.2224
62.6372
62.1394
61.746
61.461
61.2987
61.2992
61.4663
61.7508
62.1443
62.6431
63.2304
63.9086
64.6243
65.3772
66.193
67.0397
67.9644
68.8936
69.9276
70.9153
72.0591
73.0755
74.3297
75.3398
76.7165
79.1352
77.7104
76.6912
75.3945
74.361
73.1838
72.1753
71.1119
70.1613
69.2095
68.3397
67.4979
66.7179
65.9708
65.2673
64.6688
64.1622
63.7581
63.4653
63.298
63.2986
63.4718
63.764
64.1681
64.6755
65.2757
65.9819
66.7317
67.5156
68.359
69.2347
70.1859
71.1448
72.2058
73.2242
74.3967
75.4432
76.7307
77.7661
79.1829
81.574
80.1044
79.0618
77.728
76.6652
75.456
74.4166
73.3233
72.3417
71.3605
70.4589
69.5849
68.767
67.9734
67.2728
66.6505
66.1323
65.7159
65.4132
65.2398
65.2404
65.4209
65.723
66.1395
66.6584
67.2822
67.9852
68.7814
69.6031
70.4787
71.3859
72.3665
73.3559
74.4465
75.4956
76.6994
77.7754
79.0985
80.1586
81.6172
84.0067
82.4889
81.424
80.0506
78.9588
77.7157
76.6449
75.5204
74.5071
73.4954
72.5614
71.6545
70.7989
69.9702
69.2536
68.6151
68.0791
67.649
67.3347
67.1544
67.1551
67.3437
67.6576
68.0878
68.6245
69.2644
69.9832
70.8144
71.6738
72.5822
73.5215
74.5326
75.5534
76.6751
77.7553
78.9923
80.0975
81.4587
82.5426
84.0464
86.45
84.8828
83.7937
82.3804
81.258
79.9803
78.8767
77.7199
76.6732
75.629
74.6599
73.716
72.8161
71.9814
71.2349
70.5806
70.0248
69.5786
69.2511
69.0629
69.0637
69.2614
69.5888
70.0351
70.5918
71.2475
71.9961
72.8331
73.7367
74.682
75.6563
76.6998
77.7537
78.9075
80.0204
81.2914
82.4276
83.8275
84.9369
86.4873
88.9173
87.3
86.1858
84.7325
83.5788
82.2662
81.1295
79.9402
78.8601
77.7837
76.7802
75.8004
74.8583
74.0085
73.236
72.5605
71.9839
71.5191
71.1766
70.9794
70.9804
71.1883
71.5308
71.9959
72.5735
73.2505
74.025
74.8771
75.8229
76.804
77.8125
78.8882
79.9752
81.1615
82.3075
83.6128
84.7807
86.2195
87.3554
88.9533
91.4152
89.7477
88.6072
87.1134
85.9276
84.5797
83.4094
82.1869
81.073
79.9636
78.925
77.9086
76.9368
76.0628
75.2654
74.5658
73.9662
73.4805
73.121
72.9134
72.9145
73.1338
73.4937
73.98
74.5807
75.282
76.0816
76.9576
77.933
78.9508
79.9941
81.103
82.2235
83.4429
84.6226
85.9628
87.1632
88.6414
89.805
91.4507
93.9495
92.2319
91.0645
89.5302
88.312
86.9285
85.7244
84.4683
83.3205
82.1775
81.1035
80.0494
79.0569
78.1524
77.3305
76.6038
75.9793
75.4699
75.0908
74.8713
74.8726
75.1049
75.4846
75.9947
76.6206
77.3491
78.1733
79.0799
80.0759
81.1315
82.2102
83.3526
84.5071
85.7598
86.9734
88.349
89.5822
91.1
92.292
93.9857
96.5243
94.7568
93.5625
91.9876
90.7374
89.3182
88.0807
86.7912
85.6099
84.4339
83.3254
82.2351
81.2185
80.2839
79.4349
78.6799
78.0278
77.4921
77.0907
76.8571
76.8586
77.106
77.5083
78.045
78.6987
79.4557
80.3071
81.2439
82.264
83.356
84.4689
85.6444
86.8322
88.1185
89.3656
90.7766
92.0424
93.6
94.8202
96.562
99.1399
97.3225
96.1017
94.4863
93.2043
91.7496
90.4792
89.1566
87.9426
86.7342
85.5925
84.4676
83.4249
82.46
81.5825
80.7978
80.1161
79.5513
79.1241
78.8739
78.8756
79.1406
79.569
80.135
80.8186
81.6055
82.4855
83.4527
84.499
85.6256
86.7718
87.9797
89.2003
90.5197
91.8
93.2463
94.5444
96.1418
97.39
99.18
101.794
99.9271
98.6801
97.0251
95.7115
94.2224
92.9195
91.5645
90.3186
89.0787
87.9048
86.7471
85.6771
84.6822
83.7757
82.9605
82.2476
81.6511
81.1945
80.9247
80.9264
81.2123
81.6703
82.2683
82.9833
83.8008
84.71
85.7075
86.7811
87.9407
89.119
90.3585
91.6111
92.9629
94.2759
95.7568
97.087
98.7236
99.9994
101.837
104.48