/*--------------------------------*- C++ -*----------------------------------*\
  =========                 |
  \\      /  F ield         | OpenFOAM: The Open Source CFD Toolbox
   \\    /   O peration     | Website:  https://openfoam.org
    \\  /    A nd           | Version:  6
     \\/     M anipulation  |
\*---------------------------------------------------------------------------*/
FoamFile
{
    version     2.0;
    format      ascii;
    class       volScalarField;
    location    "0";
    object      k;
}
// * * * * * * * * * * * * * * * * * * * * * * * * * * * * * * * * * * * * * //

dimensions      [0 2 -2 0 0 0 0];

internalField   nonuniform List<scalar> 
720
(
0.000393555
0.000385143
0.000393553
0.000301317
0.00028474
0.000301319
0.00026311
0.00024747
0.000263155
0.00032693
0.00032432
0.000326991
0.000259083
0.00024863
0.00025913
0.000235905
0.000229644
0.000235959
0.000262194
0.000258011
0.000262254
0.000131118
0.000130624
0.000131152
0.000139416
0.000139798
0.000139453
2.68371e-05
2.84983e-05
2.68407e-05
0.000568906
0.000572244
0.000568902
0.000586141
0.000594311
0.000586149
0.000495057
0.00050053
0.000495129
0.000464814
0.000464653
0.000464897
0.000482936
0.00048637
0.000483016
0.000413055
0.000414471
0.000413143
0.000405194
0.000405614
0.000405284
0.000262589
0.000261601
0.000262651
0.00023988
0.00023981
0.000239939
0.0001415
0.000101805
0.000141524
0.000827136
0.000832919
0.000827126
0.00081535
0.000822333
0.000815356
0.000693335
0.000690436
0.000693436
0.000678642
0.000672974
0.000678762
0.000679683
0.000677096
0.000679795
0.000599503
0.000599219
0.000599631
0.000598684
0.000597234
0.000598817
0.000396832
0.000398179
0.000396925
0.000375158
0.000377433
0.000375248
0.000192784
0.000149874
0.000192813
0.000899933
0.000902868
0.000899915
0.000885289
0.000889948
0.000885292
0.000764789
0.000765608
0.0007649
0.000753222
0.000753679
0.000753354
0.000751188
0.000752709
0.000751313
0.000670153
0.000673161
0.0006703
0.000669422
0.000671716
0.000669574
0.000471773
0.000476767
0.000471882
0.000451072
0.000457255
0.000451178
0.000266563
0.000219175
0.0002666
0.000924188
0.000926377
0.000924164
0.000906415
0.000909865
0.000906414
0.000788091
0.000788598
0.000788205
0.000779547
0.000780514
0.000779683
0.000774689
0.000776008
0.000774817
0.000697779
0.000700438
0.000697933
0.000697758
0.000700014
0.000697918
0.000522212
0.000528591
0.000522328
0.000504924
0.000512734
0.000505037
0.000315589
0.000265769
0.000315629
0.000927282
0.000929417
0.000927257
0.000909633
0.000913088
0.000909631
0.00079276
0.000793145
0.000792869
0.000784345
0.000785254
0.000784475
0.000779602
0.00078083
0.000779724
0.000708305
0.000710812
0.000708456
0.000707912
0.00070999
0.000708069
0.000562598
0.000569986
0.000562713
0.000548375
0.000557343
0.000548487
0.000355774
0.00031062
0.000355815
0.000923578
0.000925628
0.000923556
0.000905809
0.000909032
0.000905808
0.000791555
0.000791768
0.000791654
0.000783261
0.000784112
0.00078338
0.000779121
0.000780126
0.000779233
0.000716425
0.000718742
0.000716564
0.000715181
0.000717116
0.000715327
0.000602894
0.000611498
0.000603
0.000591718
0.000601791
0.000591822
0.000425379
0.00037629
0.000425417
0.000914528
0.000916522
0.000914512
0.000897503
0.000900647
0.000897504
0.000786935
0.000787008
0.000787022
0.000778499
0.000779123
0.000778602
0.000775169
0.000775964
0.000775267
0.000721645
0.000723565
0.000721767
0.000720198
0.000721745
0.000720325
0.000640367
0.000649425
0.00064046
0.000632328
0.00064295
0.000632419
0.00046618
0.000420864
0.000466212
0.000903066
0.000904978
0.000903055
0.00088638
0.000889271
0.000886383
0.000780729
0.000780389
0.000780802
0.000772261
0.000772546
0.000772348
0.000770168
0.000770462
0.000770249
0.00072696
0.000728437
0.000727061
0.000725255
0.000726359
0.000725361
0.000672237
0.000682088
0.000672316
0.0006666
0.000677892
0.000666679
0.000513282
0.00047133
0.000513309
0.000885655
0.000887557
0.000885648
0.000870973
0.000873944
0.000870977
0.000772734
0.000772286
0.00077279
0.000764
0.000763956
0.000764067
0.000763259
0.000763328
0.000763322
0.000733639
0.000734671
0.000733716
0.000732074
0.000732768
0.000732154
0.000706378
0.000716055
0.000706444
0.000703126
0.000714254
0.00070319
0.000551613
0.000515467
0.000551637
0.000865498
0.000867331
0.000865494
0.000851162
0.000853488
0.000851165
0.000763585
0.000762525
0.000763625
0.000754918
0.000754375
0.000754966
0.000756574
0.000755907
0.000756618
0.000742662
0.000743394
0.000742716
0.000741393
0.000741792
0.000741448
0.000740386
0.00074953
0.000740436
0.000739465
0.000749614
0.000739516
0.000614487
0.000573268
0.000614506
0.000840476
0.000842198
0.000840475
0.000829225
0.000831463
0.000829228
0.000755484
0.000754313
0.00075551
0.000746821
0.000745868
0.000746852
0.000750344
0.000749422
0.000750372
0.000752883
0.000753284
0.000752915
0.000752275
0.000752417
0.000752309
0.000770309
0.000778644
0.000770348
0.000770826
0.000780054
0.000770866
0.000648685
0.000611958
0.000648702
0.00081557
0.000817006
0.000815569
0.000806375
0.00080786
0.000806377
0.000748703
0.000747087
0.000748719
0.000740734
0.000739304
0.000740753
0.00074635
0.000744834
0.000746367
0.000763996
0.000764376
0.000764014
0.000764165
0.000764275
0.000764183
0.000794723
0.000803065
0.000794754
0.000796225
0.000805222
0.000796258
0.000685582
0.000654953
0.000685596
0.000790181
0.000791337
0.00079018
0.000783974
0.000784949
0.000783974
0.000743411
0.000741678
0.000743419
0.000736111
0.000734283
0.000736121
0.000743338
0.000741585
0.000743346
0.000774795
0.000775247
0.000774803
0.000775792
0.000776065
0.0007758
0.000815754
0.000823826
0.000815781
0.000817905
0.000826501
0.000817933
0.00071507
0.000689259
0.000715083
0.00075971
0.000760902
0.000759709
0.000757648
0.000758819
0.000757648
0.000739434
0.00073772
0.000739436
0.000733133
0.000731143
0.000733137
0.000741411
0.000739578
0.000741414
0.00078619
0.000786769
0.000786192
0.000787815
0.000788341
0.000787816
0.000835746
0.000843169
0.00083577
0.000837955
0.000845906
0.000837981
0.000739243
0.000719494
0.000739255
0.000723882
0.000724545
0.000723881
0.000725468
0.00072501
0.000725467
0.000734466
0.000732946
0.000734466
0.000730892
0.000729052
0.000730891
0.000740509
0.000738641
0.000740508
0.000797874
0.000798617
0.000797872
0.000800724
0.000801353
0.000800722
0.000858624
0.000864505
0.000858646
0.000862546
0.000868224
0.000862571
0.000788222
0.000764976
0.000788235
0.000684888
0.000685177
0.000684887
0.000691801
0.000691048
0.0006918
0.000730481
0.00072952
0.000730478
0.000729379
0.000727869
0.000729376
0.000738786
0.000737329
0.000738783
0.000805837
0.00080671
0.000805835
0.000809212
0.000810072
0.000809209
0.000876861
0.000881823
0.000876883
0.000881466
0.000886173
0.00088149
0.000815361
0.000796185
0.000815375
0.000649162
0.000648671
0.000649161
0.000660247
0.000658443
0.000660246
0.000724917
0.000724309
0.000724914
0.000726951
0.000725967
0.000726948
0.000735779
0.000734628
0.000735776
0.000808399
0.000809549
0.000808397
0.00081224
0.000813429
0.000812237
0.000890185
0.000895238
0.000890206
0.000896405
0.000901098
0.000896428
0.000842028
0.000826594
0.000842042
0.000616669
0.000615626
0.000616669
0.000631624
0.00062907
0.000631623
0.000718756
0.000718665
0.000718753
0.000723451
0.000722848
0.000723448
0.000731302
0.000730532
0.000731299
0.000806664
0.000807881
0.000806663
0.000810765
0.000812065
0.000810763
0.000899856
0.000904763
0.000899877
0.000907622
0.000912087
0.000907645
0.000861235
0.000846466
0.000861248
0.000590194
0.000588928
0.000590194
0.000607722
0.000604892
0.000607722
0.000711385
0.000711492
0.000711383
0.000718206
0.000717755
0.000718203
0.000724963
0.000724292
0.000724961
0.000800624
0.000801569
0.000800623
0.000804801
0.000805839
0.0008048
0.000906446
0.000911502
0.000906467
0.000915996
0.000920755
0.000916019
0.000878521
0.000868618
0.000878535
0.000559963
0.000558245
0.000559963
0.000578858
0.00057591
0.000578858
0.000698879
0.000699912
0.000698877
0.00070934
0.000709121
0.000709338
0.000713305
0.000713369
0.000713303
0.000786266
0.000787312
0.000786266
0.000791639
0.000792516
0.000791639
0.00091287
0.000917796
0.000912889
0.000925115
0.000930006
0.000925137
0.000899733
0.000897321
0.000899747
0.000521202
0.00051821
0.000521203
0.000544397
0.000539756
0.000544398
0.000678257
0.000679353
0.000678255
0.000688874
0.000690491
0.000688871
0.000693008
0.000693443
0.000693006
0.000765423
0.00076566
0.000765424
0.000767287
0.000768098
0.000767287
0.00091739
0.000921254
0.000917407
0.000936897
0.000939777
0.000936916
0.000939973
0.000935051
0.000939987
0.0005006
0.000497161
0.000500601
0.000524591
0.000519565
0.000524592
0.000664436
0.000666037
0.000664434
0.000676998
0.000678152
0.000676995
0.000679262
0.000679966
0.00067926
0.000749334
0.000749041
0.000749335
0.000751542
0.000751529
0.000751544
0.000916665
0.000920489
0.00091668
0.000939699
0.000942454
0.000939716
0.00095096
0.00094831
0.000950973
0.000499329
0.000495537
0.00049933
0.000527863
0.000522327
0.000527864
0.000655687
0.000657078
0.000655686
0.000670853
0.000671695
0.00067085
0.000674381
0.000674227
0.000674379
0.000746761
0.000746074
0.000746763
0.00074811
0.000747578
0.000748112
0.000905956
0.000908488
0.000905968
0.000933188
0.000935022
0.000933202
0.000956455
0.000942878
0.000956467
)
;

boundaryField
{
    freeSurface
    {
        type            slip;
    }
    inlet
    {
        type            cyclic;
    }
    outlet
    {
        type            cyclic;
    }
    sidewalls
    {
        type            kqRWallFunction;
        value           nonuniform List<scalar> 
72
(
2.41791e-06
9.80809e-05
0.000127715
0.000188235
0.000250819
0.00028347
0.000350919
0.000384927
0.000451798
0.000484234
0.000546331
0.000575847
0.000631805
0.000658298
0.000683819
0.000731882
0.000754353
0.000795954
0.000814991
0.000832785
0.000849277
0.000889314
0.000898069
0.000903153
2.41787e-06
9.80797e-05
0.000127714
0.000188234
0.00025082
0.000283472
0.000350919
0.000384924
0.000451793
0.000484229
0.000546326
0.000575842
0.0006318
0.000658292
0.000683813
0.000731877
0.000754347
0.000795948
0.000814986
0.00083278
0.000849272
0.00088931
0.000898065
0.00090315
2.41799e-06
9.80839e-05
0.000127719
0.000188241
0.000250828
0.000283481
0.000350929
0.000384933
0.000451801
0.000484237
0.000546333
0.000575848
0.000631806
0.000658298
0.000683819
0.000731882
0.000754353
0.000795954
0.000814991
0.000832785
0.000849277
0.000889314
0.000898068
0.000903153
)
;
    }
    noSlipWalls
    {
        type            kqRWallFunction;
        value           nonuniform List<scalar> 
30
(
1.01546e-05
1.01546e-05
5.97436e-06
5.97436e-06
5.97436e-06
4.77882e-06
4.77882e-06
1.6123e-06
1.6123e-06
2.41791e-06
1.01534e-05
1.01534e-05
5.97584e-06
5.97584e-06
5.97584e-06
4.7802e-06
4.7802e-06
1.61302e-06
1.61302e-06
2.41787e-06
1.01533e-05
1.01533e-05
5.97613e-06
5.97613e-06
5.97613e-06
4.78058e-06
4.78058e-06
1.61306e-06
1.61306e-06
2.41799e-06
)
;
    }
    procBoundary2to1
    {
        type            processor;
        value           nonuniform List<scalar> 
72
(
0.000331734
0.000309415
0.000331732
0.00058922
0.000598592
0.000589217
0.000828718
0.000834955
0.000828709
0.0008995
0.000902943
0.000899485
0.000921656
0.000923833
0.000921636
0.000924766
0.000926907
0.000924746
0.000920824
0.000922763
0.000920808
0.000912101
0.000914031
0.000912089
0.000900535
0.000902254
0.000900527
0.000884112
0.000886045
0.000884108
0.000863438
0.000864858
0.000863437
0.000839689
0.000841212
0.000839688
0.000814992
0.000815959
0.000814991
0.000790487
0.000791166
0.000790486
0.000761352
0.000762471
0.000761352
0.000725635
0.000725447
0.000725634
0.000688001
0.000687796
0.000688
0.000652927
0.000651887
0.000652926
0.000621134
0.000619553
0.000621134
0.000594844
0.000593168
0.000594844
0.000563273
0.000561665
0.000563273
0.000526922
0.000523517
0.000526923
0.000505712
0.000502071
0.000505713
0.000503991
0.00050078
0.000503992
)
;
    }
}


// ************************************************************************* //
