/*--------------------------------*- C++ -*----------------------------------*\
  =========                 |
  \\      /  F ield         | OpenFOAM: The Open Source CFD Toolbox
   \\    /   O peration     | Website:  https://openfoam.org
    \\  /    A nd           | Version:  6
     \\/     M anipulation  |
\*---------------------------------------------------------------------------*/
FoamFile
{
    version     2.0;
    format      ascii;
    class       volScalarField;
    location    "0";
    object      p;
}
// * * * * * * * * * * * * * * * * * * * * * * * * * * * * * * * * * * * * * //

dimensions      [0 2 -2 0 0 0 0];

internalField   nonuniform List<scalar> 
720
(
1.70067e-08
6.04508e-09
2.53265e-09
1.19582e-08
5.29264e-09
1.01258e-08
-4.17713e-09
1.83034e-09
3.66022e-08
-6.9529e-09
-3.01827e-09
4.59263e-08
-6.55973e-09
3.6575e-10
4.15526e-08
-1.03374e-08
-2.71852e-10
4.83465e-08
-1.10037e-08
-1.47161e-09
5.04922e-08
-7.92113e-09
4.26029e-10
4.76887e-08
-7.51176e-09
-8.47284e-11
4.82369e-08
-5.99445e-09
-4.77184e-10
4.64366e-08
1.73932e-08
6.08801e-09
1.76244e-09
1.36845e-08
5.27435e-09
7.94181e-09
-4.53496e-09
7.58083e-10
3.89606e-08
-6.69512e-09
-3.21921e-09
4.62841e-08
-6.25586e-09
-4.79658e-10
4.28831e-08
-1.02499e-08
-8.42436e-10
4.9477e-08
-1.08406e-08
-1.81654e-09
5.10597e-08
-7.3729e-09
1.17555e-10
4.82564e-08
-7.15203e-09
-2.85233e-10
4.86556e-08
-4.57273e-09
-4.82645e-10
4.6755e-08
1.7465e-08
6.29487e-09
9.56824e-10
1.37513e-08
5.40972e-09
7.33147e-09
-4.07604e-09
7.91766e-10
3.8848e-08
-6.10012e-09
-3.16636e-09
4.61572e-08
-5.78473e-09
-4.45733e-10
4.27573e-08
-9.76576e-09
-8.37326e-10
4.92664e-08
-1.03025e-08
-1.80678e-09
5.08386e-08
-6.99204e-09
1.34999e-10
4.81385e-08
-6.73743e-09
-2.64291e-10
4.85425e-08
-4.5067e-09
-5.02781e-10
4.67397e-08
1.72465e-08
6.33241e-09
1.06474e-09
1.36117e-08
5.46345e-09
7.30158e-09
-3.93556e-09
9.39376e-10
3.82309e-08
-5.94077e-09
-2.92006e-09
4.53983e-08
-5.61528e-09
-2.5723e-10
4.20434e-08
-9.55253e-09
-5.94126e-10
4.84601e-08
-1.0091e-08
-1.52911e-09
5.00102e-08
-6.86231e-09
2.73015e-10
4.7582e-08
-6.62242e-09
-1.33508e-10
4.80241e-08
-4.45206e-09
-5.09994e-10
4.65695e-08
1.69717e-08
6.33426e-09
1.28551e-09
1.34153e-08
5.49969e-09
7.35457e-09
-3.83958e-09
1.2294e-09
3.74054e-08
-5.8287e-09
-2.4844e-09
4.43647e-08
-5.49106e-09
9.09286e-11
4.11063e-08
-9.36952e-09
-1.55622e-10
4.73671e-08
-9.91085e-09
-1.0337e-09
4.88565e-08
-6.75427e-09
5.38298e-10
4.68002e-08
-6.52701e-09
1.26736e-10
4.72647e-08
-4.41705e-09
-4.64336e-10
4.62529e-08
1.66202e-08
6.29187e-09
1.66266e-09
1.31351e-08
5.54433e-09
7.50942e-09
-3.94007e-09
1.78833e-09
3.6295e-08
-5.9737e-09
-1.67386e-09
4.29547e-08
-5.58885e-09
7.3241e-10
3.98746e-08
-9.43196e-09
6.72778e-10
4.58058e-08
-9.99429e-09
-9.85498e-11
4.71792e-08
-6.7753e-09
9.99817e-10
4.56939e-08
-6.55573e-09
5.94691e-10
4.61473e-08
-4.4236e-09
-3.84142e-10
4.59462e-08
1.62607e-08
6.2494e-09
2.08009e-09
1.27595e-08
5.70906e-09
7.53823e-09
-4.29519e-09
2.55819e-09
3.48824e-08
-6.45948e-09
-4.80609e-10
4.11368e-08
-5.98865e-09
1.70412e-09
3.81844e-08
-9.84783e-09
1.81671e-09
4.37436e-08
-1.04603e-08
1.18478e-09
4.50172e-08
-6.96849e-09
1.61274e-09
4.42841e-08
-6.72897e-09
1.15063e-09
4.48304e-08
-4.53964e-09
-1.75645e-10
4.508e-08
1.57349e-08
6.3065e-09
2.49104e-09
1.22256e-08
5.94501e-09
7.56982e-09
-4.95558e-09
3.64048e-09
3.30379e-08
-7.31109e-09
1.1394e-09
3.88027e-08
-6.73444e-09
2.97572e-09
3.61007e-08
-1.06461e-08
3.31785e-09
4.11815e-08
-1.13296e-08
2.88958e-09
4.22654e-08
-7.34572e-09
2.28034e-09
4.27806e-08
-7.05451e-09
1.76846e-09
4.33981e-08
-4.60332e-09
-4.66687e-12
4.44712e-08
1.51648e-08
6.47173e-09
2.75413e-09
1.16316e-08
6.28481e-09
7.41247e-09
-5.86193e-09
4.87218e-09
3.10016e-08
-8.44524e-09
2.98131e-09
3.62287e-08
-7.73363e-09
4.4456e-09
3.37553e-08
-1.17195e-08
4.91985e-09
3.85137e-08
-1.24966e-08
4.70673e-09
3.94275e-08
-7.76221e-09
2.91149e-09
4.14256e-08
-7.40249e-09
2.30026e-09
4.22002e-08
-4.64586e-09
2.30205e-10
4.37254e-08
1.42346e-08
6.86264e-09
2.96163e-09
1.07189e-08
6.81496e-09
7.18967e-09
-7.28008e-09
6.65005e-09
2.82936e-08
-1.01834e-08
5.51914e-09
3.28629e-08
-9.27342e-09
6.47604e-09
3.07728e-08
-1.32166e-08
7.16726e-09
3.53369e-08
-1.41095e-08
7.22486e-09
3.60379e-08
-8.24619e-09
3.67121e-09
3.99346e-08
-7.79221e-09
2.95899e-09
4.08387e-08
-4.67137e-09
4.89922e-10
4.30155e-08
1.31682e-08
7.34331e-09
3.13136e-09
9.49522e-09
7.59655e-09
6.69039e-09
-8.92005e-09
8.61562e-09
2.55733e-08
-1.23759e-08
8.62404e-09
2.9135e-08
-1.11005e-08
8.87571e-09
2.76199e-08
-1.47501e-08
9.5786e-09
3.22262e-08
-1.57411e-08
9.91065e-09
3.27836e-08
-8.77846e-09
4.6423e-09
3.81825e-08
-8.14872e-09
3.70281e-09
3.93028e-08
-4.74596e-09
9.61481e-10
4.13173e-08
1.1814e-08
7.98282e-09
3.38351e-09
8.19329e-09
8.40182e-09
6.53061e-09
-1.05406e-08
1.09528e-08
2.29501e-08
-1.44795e-08
1.1931e-08
2.57283e-08
-1.28104e-08
1.14926e-08
2.47404e-08
-1.59626e-08
1.20101e-08
2.93815e-08
-1.70153e-08
1.25517e-08
2.97831e-08
-9.07174e-09
5.49166e-09
3.64865e-08
-8.36267e-09
4.43547e-09
3.76639e-08
-4.82141e-09
1.36265e-09
4.00122e-08
1.05679e-08
8.5425e-09
3.7067e-09
7.02572e-09
9.15997e-09
6.45262e-09
-1.17262e-08
1.30616e-08
2.09884e-08
-1.61011e-08
1.50338e-08
2.29983e-08
-1.40101e-08
1.38382e-08
2.24993e-08
-1.63591e-08
1.36949e-08
2.72294e-08
-1.73926e-08
1.43168e-08
2.75519e-08
-9.12573e-09
6.21313e-09
3.47824e-08
-8.37289e-09
5.06731e-09
3.59975e-08
-4.82326e-09
1.91481e-09
3.82591e-08
9.36565e-09
9.08247e-09
4.04351e-09
5.91103e-09
9.90026e-09
6.41944e-09
-1.24243e-08
1.48015e-08
1.93929e-08
-1.72492e-08
1.77245e-08
2.07136e-08
-1.46746e-08
1.57218e-08
2.06943e-08
-1.60437e-08
1.46182e-08
2.54873e-08
-1.69729e-08
1.51993e-08
2.57821e-08
-8.93085e-09
6.75092e-09
3.31418e-08
-8.19288e-09
5.59309e-09
3.43403e-08
-4.7997e-09
2.42794e-09
3.65815e-08
8.29532e-09
9.51996e-09
4.53786e-09
5.03558e-09
1.04188e-08
6.62322e-09
-1.19975e-08
1.58865e-08
1.78929e-08
-1.71602e-08
1.94156e-08
1.88427e-08
-1.41198e-08
1.68008e-08
1.9073e-08
-1.45095e-08
1.4535e-08
2.39281e-08
-1.52837e-08
1.49547e-08
2.42675e-08
-8.35735e-09
7.12297e-09
3.12518e-08
-7.71409e-09
6.04809e-09
3.2419e-08
-4.67634e-09
2.94412e-09
3.49496e-08
7.6676e-09
9.83248e-09
5.05065e-09
4.93138e-09
1.07205e-08
6.71891e-09
-9.93262e-09
1.58741e-08
1.65648e-08
-1.47203e-08
1.96958e-08
1.68927e-08
-1.16988e-08
1.66433e-08
1.75323e-08
-1.22138e-08
1.41427e-08
2.20388e-08
-1.27174e-08
1.42885e-08
2.24232e-08
-7.26097e-09
7.37334e-09
2.88574e-08
-6.84088e-09
6.52021e-09
2.98318e-08
-4.10373e-09
3.74331e-09
3.14549e-08
8.11663e-09
9.77045e-09
5.36139e-09
5.93007e-09
1.0471e-08
6.79976e-09
-6.33562e-09
1.48281e-08
1.49097e-08
-1.012e-08
1.7909e-08
1.53322e-08
-7.94413e-09
1.5513e-08
1.57633e-08
-9.44046e-09
1.36454e-08
1.9986e-08
-1.00418e-08
1.38529e-08
2.03307e-08
-6.25944e-09
7.87131e-09
2.63562e-08
-5.94626e-09
7.06803e-09
2.73272e-08
-3.45264e-09
4.25694e-09
2.92989e-08
9.71138e-09
9.30964e-09
5.30972e-09
7.93127e-09
9.7794e-09
6.51035e-09
-2.10939e-09
1.30672e-08
1.32075e-08
-4.26036e-09
1.46391e-08
1.36094e-08
-3.57431e-09
1.36923e-08
1.39519e-08
-6.95524e-09
1.34574e-08
1.77184e-08
-7.66863e-09
1.38817e-08
1.79489e-08
-5.12717e-09
8.40194e-09
2.3945e-08
-4.91833e-09
7.65767e-09
2.48522e-08
-2.32764e-09
4.77309e-09
2.67421e-08
1.15522e-08
8.7334e-09
5.22651e-09
9.98415e-09
9.13891e-09
6.21136e-09
1.26906e-09
1.18861e-08
1.14721e-08
3.48121e-10
1.23258e-08
1.19845e-08
-1.04994e-10
1.24782e-08
1.20919e-08
-4.85017e-09
1.35077e-08
1.54369e-08
-5.66005e-09
1.40818e-08
1.55787e-08
-4.02687e-09
8.94601e-09
2.17062e-08
-3.89226e-09
8.23264e-09
2.26219e-08
-1.24481e-09
5.16415e-09
2.45633e-08
1.30866e-08
8.1928e-09
5.24601e-09
1.13525e-08
8.93398e-09
5.90517e-09
3.02977e-09
1.19924e-08
9.78285e-09
2.07956e-09
1.27267e-08
1.00089e-08
1.63326e-09
1.26701e-08
1.0213e-08
-3.67096e-09
1.4127e-08
1.30967e-08
-4.45261e-09
1.4684e-08
1.31951e-08
-3.01619e-09
9.46014e-09
1.97183e-08
-2.8843e-09
8.74308e-09
2.06989e-08
-2.62947e-10
5.6657e-09
2.26895e-08
1.52245e-08
6.69565e-09
6.06586e-09
1.31214e-08
8.03673e-09
6.32542e-09
3.92512e-09
1.31382e-08
7.72095e-09
2.05991e-09
1.49806e-08
7.33174e-09
2.36861e-09
1.40602e-08
7.87286e-09
-3.80296e-09
1.61434e-08
9.88393e-09
-4.44546e-09
1.6562e-08
1.00265e-08
-2.09476e-09
1.03178e-08
1.71062e-08
-1.86338e-09
9.41174e-09
1.8346e-08
7.0681e-10
6.21432e-09
2.0821e-08
1.84115e-08
3.67221e-09
8.35736e-09
1.49719e-08
7.11448e-09
6.92158e-09
5.38037e-09
1.35959e-08
6.33627e-09
3.2729e-09
1.68726e-08
4.42947e-09
3.19367e-09
1.5373e-08
5.69876e-09
-4.20491e-09
1.86664e-08
6.45326e-09
-5.62112e-09
2.01477e-08
5.74141e-09
-1.67275e-09
1.21048e-08
1.33488e-08
-9.68805e-10
1.0935e-08
1.43621e-08
2.30745e-09
7.33174e-09
1.66338e-08
2.06542e-08
7.71629e-10
1.09429e-08
1.69381e-08
5.04112e-09
8.67537e-09
7.16185e-09
1.29969e-08
5.88967e-09
6.22897e-09
1.50236e-08
4.55433e-09
4.80341e-09
1.50339e-08
5.0388e-09
-4.07748e-09
2.00222e-08
4.94669e-09
-5.83509e-09
2.18282e-08
4.17742e-09
-1.46872e-09
1.32298e-08
1.13237e-08
-7.24179e-10
1.19459e-08
1.24393e-08
2.56148e-09
8.08959e-09
1.50182e-08
2.08278e-08
-1.71174e-10
1.20166e-08
1.62877e-08
5.47179e-09
8.56094e-09
8.52719e-09
1.15594e-08
6.6221e-09
8.51677e-09
1.25288e-08
5.3664e-09
5.77372e-09
1.40383e-08
5.60044e-09
-2.40573e-09
1.88164e-08
5.593e-09
-4.45073e-09
2.11397e-08
4.80926e-09
-1.19849e-09
1.36296e-08
1.0716e-08
-6.44702e-10
1.22971e-08
1.18599e-08
2.28474e-09
8.41459e-09
1.43903e-08
)
;

boundaryField
{
    freeSurface
    {
        type            slip;
    }
    inlet
    {
        type            cyclic;
    }
    outlet
    {
        type            cyclic;
    }
    sidewalls
    {
        type            zeroGradient;
    }
    noSlipWalls
    {
        type            zeroGradient;
    }
    procBoundary2to1
    {
        type            processor;
        value           nonuniform List<scalar> 
72
(
1.56435e-08
6.38498e-09
3.9484e-09
1.64386e-08
6.14692e-09
2.97659e-09
1.64981e-08
6.30074e-09
2.31874e-09
1.63083e-08
6.32586e-09
2.42145e-09
1.60667e-08
6.3183e-09
2.6135e-09
1.57548e-08
6.30035e-09
2.92621e-09
1.54003e-08
6.30909e-09
3.25412e-09
1.49037e-08
6.40549e-09
3.55112e-09
1.43626e-08
6.57512e-09
3.71464e-09
1.35018e-08
6.94302e-09
3.81238e-09
1.24503e-08
7.40643e-09
3.84303e-09
1.11959e-08
7.99503e-09
4.00966e-09
1.00593e-08
8.49359e-09
4.27796e-09
8.94583e-09
9.01803e-09
4.53139e-09
7.98292e-09
9.42671e-09
4.94534e-09
7.48711e-09
9.72754e-09
5.35035e-09
8.00304e-09
9.67681e-09
5.59613e-09
9.45306e-09
9.31632e-09
5.51969e-09
1.11798e-08
8.86307e-09
5.37329e-09
1.25763e-08
8.51918e-09
5.28207e-09
1.46639e-08
7.18083e-09
6.09902e-09
1.67304e-08
5.70442e-09
7.29316e-09
1.85846e-08
3.56715e-09
9.25454e-09
1.80011e-08
3.99729e-09
9.21599e-09
)
;
    }
}


// ************************************************************************* //
