/*--------------------------------*- C++ -*----------------------------------*\
  =========                 |
  \\      /  F ield         | OpenFOAM: The Open Source CFD Toolbox
   \\    /   O peration     | Website:  https://openfoam.org
    \\  /    A nd           | Version:  6
     \\/     M anipulation  |
\*---------------------------------------------------------------------------*/
FoamFile
{
    version     2.0;
    format      ascii;
    class       volVectorField;
    location    "23";
    object      wallShearStress;
}
// * * * * * * * * * * * * * * * * * * * * * * * * * * * * * * * * * * * * * //

dimensions      [0 2 -2 0 0 0 0];

internalField   uniform (0 0 0);

boundaryField
{
    inlet
    {
        type            calculated;
        value           uniform (0 0 0);
    }
    outlet
    {
        type            calculated;
        value           uniform (0 0 0);
    }
    roughCylinder
    {
        type            calculated;
        value           nonuniform List<vector> 
5120
(
(-0.000517414 -0.000740845 -0.000390134)
(-0.000391014 -0.000567431 -3.9213e-05)
(-0.000346631 -0.000541492 1.66403e-06)
(-0.000383738 -0.000603485 4.91671e-05)
(-0.000450429 -0.000681935 0.000104581)
(-0.00052096 -0.000742218 0.000157)
(-0.000592252 -0.000782133 0.000203201)
(-0.000660005 -0.000803833 0.000241951)
(-0.00072171 -0.000811286 0.000272491)
(-0.000777317 -0.000812101 0.000295632)
(-0.000827827 -0.000813507 0.000313373)
(-0.000870363 -0.000816089 0.000324945)
(-0.000906215 -0.000822927 0.00033069)
(-0.000936862 -0.000834138 0.000331623)
(-0.000963328 -0.000849112 0.000328883)
(-0.000987248 -0.000867078 0.000323578)
(-0.00101006 -0.000887171 0.000316523)
(-0.0010332 -0.000909015 0.000308322)
(-0.00105735 -0.000932208 0.000299202)
(-0.00108289 -0.000956607 0.000289239)
(-0.00110994 -0.000982182 0.000278418)
(-0.00113848 -0.00100889 0.000266673)
(-0.00116838 -0.00103662 0.000253889)
(-0.00119944 -0.00106522 0.000239913)
(-0.00123141 -0.0010944 0.000224499)
(-0.0012639 -0.00112383 0.000207283)
(-0.00129643 -0.00115299 0.000187714)
(-0.0013283 -0.00118123 0.000165044)
(-0.00135849 -0.00120762 0.000138142)
(-0.00138552 -0.00123087 0.000105853)
(-0.00140663 -0.00124928 6.64597e-05)
(-0.00141818 -0.00125999 2.22241e-05)
(-0.000562062 -0.000732271 -0.000385837)
(-0.000421775 -0.000560283 -4.30245e-05)
(-0.000369166 -0.00052892 -4.34788e-06)
(-0.000403013 -0.000585787 4.00336e-05)
(-0.000471168 -0.000664673 9.3305e-05)
(-0.000543628 -0.000726725 0.000144416)
(-0.000616874 -0.000768843 0.000189773)
(-0.000686991 -0.000793234 0.00022811)
(-0.000752018 -0.000804506 0.000258982)
(-0.000811935 -0.00080958 0.000283408)
(-0.000866137 -0.00081323 0.000302527)
(-0.000912096 -0.000815554 0.000315286)
(-0.000949673 -0.000821075 0.000321628)
(-0.000981838 -0.000831264 0.000322858)
(-0.00100984 -0.000845588 0.000320352)
(-0.00103513 -0.000863048 0.000315175)
(-0.00105948 -0.000882945 0.000308292)
(-0.00108389 -0.000904463 0.000300201)
(-0.00110935 -0.000927384 0.000291244)
(-0.00113629 -0.000951569 0.000281519)
(-0.00116481 -0.000976936 0.000271)
(-0.00119485 -0.0010034 0.00025961)
(-0.00122627 -0.00103085 0.000247235)
(-0.00125886 -0.00105911 0.000233713)
(-0.00129234 -0.00108793 0.000218793)
(-0.00132634 -0.00111696 0.000202115)
(-0.00136033 -0.00114572 0.000183126)
(-0.00139359 -0.00117354 0.000161086)
(-0.00142506 -0.00119953 0.00013488)
(-0.0014532 -0.00122241 0.000103375)
(-0.00147518 -0.00124054 6.48975e-05)
(-0.00148721 -0.00125107 2.16911e-05)
(-0.000598111 -0.00069864 -0.000363601)
(-0.000448424 -0.000544355 -4.61331e-05)
(-0.000392643 -0.000511995 -1.08572e-05)
(-0.000421506 -0.000562947 3.01909e-05)
(-0.000490175 -0.000641116 8.10835e-05)
(-0.000564234 -0.000704407 0.000130717)
(-0.000639309 -0.000748695 0.000175198)
(-0.000712165 -0.000776468 0.000213399)
(-0.000781 -0.000792138 0.000244998)
(-0.000844944 -0.000801086 0.000270643)
(-0.000902787 -0.000806977 0.0002908)
(-0.000952468 -0.000810345 0.000304695)
(-0.000992122 -0.000814186 0.000311572)
(-0.00102591 -0.000823339 0.000313186)
(-0.00105542 -0.000836732 0.000310917)
(-0.00108228 -0.000853599 0.000305974)
(-0.00110784 -0.000872815 0.000299211)
(-0.00113374 -0.000893979 0.000291342)
(-0.00116067 -0.000916569 0.000282637)
(-0.00118899 -0.000940346 0.000273189)
(-0.00121888 -0.000965246 0.000262998)
(-0.00125033 -0.000991221 0.000251998)
(-0.00128318 -0.00101815 0.000240066)
(-0.00131723 -0.00104588 0.000227041)
(-0.00135218 -0.00107414 0.000212664)
(-0.00138761 -0.00110257 0.000196569)
(-0.00142298 -0.00113072 0.000178207)
(-0.00145755 -0.00115793 0.000156844)
(-0.00149023 -0.00118334 0.000131384)
(-0.00151941 -0.0012057 0.000100722)
(-0.0015422 -0.00122341 6.32265e-05)
(-0.00155467 -0.00123368 2.11224e-05)
(-0.000547854 -0.000576462 -0.000285077)
(-0.000469645 -0.00051374 -4.94474e-05)
(-0.000411149 -0.000487764 -1.80445e-05)
(-0.000435067 -0.000533396 1.98549e-05)
(-0.000503921 -0.000610622 6.80812e-05)
(-0.000579746 -0.000675565 0.000116061)
(-0.000657239 -0.00072285 0.000159658)
(-0.00073317 -0.000754557 0.000197773)
(-0.00080557 -0.000774511 0.000230074)
(-0.000873529 -0.000787346 0.000256944)
(-0.000935017 -0.000795497 0.000278123)
(-0.000987918 -0.000800043 0.000292839)
(-0.0010312 -0.000803523 0.000300648)
(-0.00106667 -0.000811085 0.000302701)
(-0.00109791 -0.000823458 0.000300771)
(-0.00112621 -0.000839387 0.000296074)
(-0.00115354 -0.000858161 0.000289642)
(-0.00118077 -0.000878682 0.000282007)
(-0.00120896 -0.000900645 0.000273561)
(-0.00123867 -0.000923895 0.000264452)
(-0.00127001 -0.00094829 0.000254665)
(-0.0013029 -0.000973704 0.000244113)
(-0.00133719 -0.00100003 0.000232678)
(-0.00137263 -0.00102708 0.000220186)
(-0.00140894 -0.00105461 0.000206382)
(-0.00144568 -0.00108228 0.000190897)
(-0.00148231 -0.00110966 0.000173183)
(-0.00151807 -0.0011361 0.000152517)
(-0.00155183 -0.00116078 0.000127822)
(-0.00158194 -0.00118247 9.80212e-05)
(-0.00160544 -0.00119966 6.15276e-05)
(-0.00161829 -0.00120962 2.0545e-05)
(-0.000616572 -0.000580721 -0.000268507)
(-0.000486525 -0.000479009 -5.33113e-05)
(-0.000425508 -0.000458191 -2.47443e-05)
(-0.000444693 -0.000500073 9.58494e-06)
(-0.000513078 -0.000575832 5.47921e-05)
(-0.000590213 -0.000641859 0.000100776)
(-0.000669579 -0.000691558 0.000143173)
(-0.00074842 -0.000727021 0.000181025)
(-0.000824755 -0.000751543 0.000214028)
(-0.000896364 -0.000767864 0.000241942)
(-0.000961388 -0.000778223 0.000264139)
(-0.00101798 -0.000784288 0.000279744)
(-0.00106503 -0.000788277 0.000288524)
(-0.00110341 -0.000794377 0.000291335)
(-0.00113638 -0.000805416 0.000289874)
(-0.00116663 -0.000820452 0.000285612)
(-0.00119517 -0.000838088 0.000279441)
(-0.00122398 -0.000857945 0.000272178)
(-0.00125375 -0.000879355 0.000264135)
(-0.00128482 -0.000901931 0.000255421)
(-0.00131741 -0.000925552 0.000246056)
(-0.00135156 -0.000950176 0.00023598)
(-0.00138709 -0.000975659 0.000225068)
(-0.0014238 -0.00100185 0.000213145)
(-0.00146135 -0.00102849 0.000199947)
(-0.00149929 -0.00105525 0.000185102)
(-0.00153705 -0.00108169 0.000168064)
(-0.00157386 -0.00110719 0.000148115)
(-0.00160857 -0.00113099 0.000124204)
(-0.0016395 -0.0011519 9.52802e-05)
(-0.00166363 -0.00116847 5.98075e-05)
(-0.0016768 -0.00117805 1.9962e-05)
(-0.000754264 -0.000627871 -0.000276909)
(-0.000521818 -0.000467506 -5.69458e-05)
(-0.000440085 -0.000428484 -3.16015e-05)
(-0.000448505 -0.00046217 -9.24371e-07)
(-0.000514814 -0.000535344 4.09304e-05)
(-0.000593285 -0.000602555 8.46219e-05)
(-0.00067535 -0.000655535 0.000125727)
(-0.000757713 -0.000695213 0.000163276)
(-0.000837354 -0.000723457 0.000196661)
(-0.000912762 -0.000743163 0.000225517)
(-0.000981552 -0.000755835 0.00024876)
(-0.00104156 -0.0007631 0.000265238)
(-0.00109261 -0.000768123 0.000274994)
(-0.00113493 -0.000773795 0.000278834)
(-0.0011704 -0.00078301 0.000278091)
(-0.00120223 -0.000796498 0.000274295)
(-0.001233 -0.000813434 0.000268714)
(-0.00126328 -0.000832307 0.000261877)
(-0.00129425 -0.000852688 0.000254232)
(-0.00132666 -0.000874406 0.000245988)
(-0.00136068 -0.000897251 0.000237152)
(-0.00139617 -0.000921024 0.000227633)
(-0.00143301 -0.000945607 0.000217309)
(-0.00147091 -0.000970813 0.000205998)
(-0.00150958 -0.000996404 0.000193437)
(-0.00154857 -0.00102207 0.000179253)
(-0.00158731 -0.0010474 0.000162906)
(-0.00162503 -0.00107183 0.00014369)
(-0.00166055 -0.00109459 0.000120569)
(-0.00169216 -0.00111457 9.25296e-05)
(-0.00171682 -0.00113042 5.80833e-05)
(-0.00173024 -0.00113958 1.93791e-05)
(-0.000641157 -0.000477908 -0.000188253)
(-0.000525507 -0.000418799 -5.86667e-05)
(-0.000445295 -0.00039234 -3.82414e-05)
(-0.000447327 -0.000422427 -1.11513e-05)
(-0.000511102 -0.000492728 2.70646e-05)
(-0.00059028 -0.000560646 6.80716e-05)
(-0.000673821 -0.000615709 0.000107394)
(-0.000758577 -0.000658458 0.000144164)
(-0.000842325 -0.000690873 0.00017787)
(-0.000921493 -0.000713646 0.000207447)
(-0.000993877 -0.000728368 0.000231603)
(-0.00105819 -0.000737402 0.000249239)
(-0.00111303 -0.0007432 0.000260002)
(-0.00115955 -0.000749258 0.000264942)
(-0.00119875 -0.000757407 0.000265212)
(-0.00123352 -0.000769416 0.000262295)
(-0.0012656 -0.000784334 0.000257197)
(-0.00129763 -0.000802049 0.000250962)
(-0.00133043 -0.000821623 0.000243939)
(-0.00136426 -0.000842377 0.000236257)
(-0.0013994 -0.000864118 0.000227967)
(-0.00143598 -0.000886775 0.000219031)
(-0.00147385 -0.0009102 0.00020932)
(-0.00151277 -0.000934228 0.000198656)
(-0.00155243 -0.000958632 0.00018677)
(-0.00159234 -0.000983085 0.000173285)
(-0.00163192 -0.00100719 0.000157657)
(-0.00167038 -0.0010304 0.00013919)
(-0.00170659 -0.00105201 0.00011688)
(-0.00173877 -0.00107097 8.97413e-05)
(-0.00176387 -0.00108602 5.63399e-05)
(-0.00177745 -0.0010947 1.87914e-05)
(-0.00069737 -0.00046349 -0.000155715)
(-0.000536907 -0.000378519 -6.25899e-05)
(-0.000445394 -0.000354913 -4.40798e-05)
(-0.000437501 -0.000378695 -2.06669e-05)
(-0.000497382 -0.000445191 1.31945e-05)
(-0.000576623 -0.000513289 5.084e-05)
(-0.000662555 -0.000571311 8.80346e-05)
(-0.000751313 -0.000618406 0.000123917)
(-0.000838117 -0.000653882 0.000157418)
(-0.000921216 -0.000679621 0.000187515)
(-0.000998073 -0.000696846 0.000212645)
(-0.00106611 -0.000707127 0.000231318)
(-0.00112551 -0.000714092 0.000243401)
(-0.00117586 -0.000720253 0.000249471)
(-0.00121924 -0.000728228 0.000250946)
(-0.0012569 -0.000738708 0.000248954)
(-0.00129268 -0.000752739 0.00024498)
(-0.00132674 -0.000768963 0.000239532)
(-0.0013607 -0.00078689 0.000233106)
(-0.00139586 -0.00080634 0.000226064)
(-0.00143246 -0.000826981 0.000218464)
(-0.00147034 -0.000848501 0.000210217)
(-0.00150939 -0.000870754 0.000201206)
(-0.00154933 -0.000893532 0.000191244)
(-0.00158983 -0.000916615 0.000180065)
(-0.00163047 -0.000939712 0.000167295)
(-0.0016707 -0.000962453 0.000152399)
(-0.00170975 -0.000984338 0.000134694)
(-0.00174645 -0.00100467 0.000113195)
(-0.00177906 -0.00102248 8.6957e-05)
(-0.00180445 -0.00103664 5.46032e-05)
(-0.00181812 -0.00104488 1.82086e-05)
(-0.000643522 -0.000372561 -0.000114367)
(-0.000517426 -0.000330488 -6.08945e-05)
(-0.000439814 -0.000315529 -4.87497e-05)
(-0.000423225 -0.000335585 -2.9647e-05)
(-0.000477031 -0.000397223 -3.86736e-07)
(-0.000555932 -0.000465117 3.35119e-05)
(-0.000642606 -0.000524555 6.79878e-05)
(-0.000732391 -0.000573421 0.000102121)
(-0.000823548 -0.000612826 0.000135234)
(-0.00091097 -0.000641621 0.000165606)
(-0.000991684 -0.000660743 0.000191405)
(-0.00106496 -0.00067313 0.000211395)
(-0.00112862 -0.000680913 0.000224826)
(-0.00118381 -0.000687672 0.000232425)
(-0.00123081 -0.000695087 0.000235147)
(-0.00127292 -0.000705246 0.000234549)
(-0.00131074 -0.000717623 0.000231512)
(-0.00134723 -0.000732457 0.000227042)
(-0.00138378 -0.000749309 0.0002216)
(-0.00142073 -0.000767496 0.000215402)
(-0.00145847 -0.00078668 0.000208545)
(-0.00149732 -0.000806768 0.000201036)
(-0.00153718 -0.000827569 0.000192761)
(-0.00157786 -0.000848903 0.000183546)
(-0.00161904 -0.000870557 0.000173123)
(-0.00166028 -0.000892223 0.000161118)
(-0.00170099 -0.000913532 0.000146992)
(-0.00174042 -0.000933992 0.000130073)
(-0.00177748 -0.000953007 0.000109415)
(-0.00181043 -0.000969649 8.41085e-05)
(-0.00183602 -0.000982889 5.28336e-05)
(-0.00184953 -0.000990593 1.76166e-05)
(-0.000556168 -0.000283031 -7.20409e-05)
(-0.000495969 -0.000281092 -5.9605e-05)
(-0.000422537 -0.000272618 -5.25298e-05)
(-0.000398404 -0.000289416 -3.74497e-05)
(-0.000444725 -0.000345218 -1.31844e-05)
(-0.000521132 -0.000411262 1.6106e-05)
(-0.000608995 -0.000472531 4.71629e-05)
(-0.000703655 -0.000526114 7.93548e-05)
(-0.000797511 -0.000568076 0.0001113)
(-0.000888897 -0.000599573 0.00014151)
(-0.000975274 -0.000621657 0.00016808)
(-0.00105272 -0.000635258 0.000189096)
(-0.00112184 -0.000644389 0.000204161)
(-0.00118128 -0.000651207 0.000213322)
(-0.00123331 -0.000658715 0.000217767)
(-0.0012781 -0.000667487 0.000218431)
(-0.0013202 -0.000679333 0.00021689)
(-0.00135943 -0.000692924 0.000213591)
(-0.00139737 -0.000708045 0.000209089)
(-0.00143581 -0.000724752 0.000203835)
(-0.00147523 -0.000742707 0.000197934)
(-0.00151543 -0.000761512 0.000191326)
(-0.00155639 -0.000780976 0.000183919)
(-0.00159788 -0.000800896 0.000175544)
(-0.00163958 -0.000821034 0.000165934)
(-0.00168112 -0.000841137 0.000154727)
(-0.00172202 -0.000860901 0.000141401)
(-0.00176163 -0.000879898 0.000125304)
(-0.0017988 -0.000897521 0.000105514)
(-0.00183184 -0.000912936 8.11686e-05)
(-0.00185742 -0.000925204 5.10087e-05)
(-0.00187072 -0.000932312 1.70076e-05)
(-0.000568749 -0.000252005 -4.70357e-05)
(-0.000474065 -0.000237088 -5.97613e-05)
(-0.000403348 -0.000233604 -5.56825e-05)
(-0.000369005 -0.0002456 -4.40429e-05)
(-0.000405242 -0.000294168 -2.47319e-05)
(-0.000479443 -0.00035853 -5.42639e-07)
(-0.000567069 -0.0004204 2.63799e-05)
(-0.000659945 -0.000473712 5.53327e-05)
(-0.000758342 -0.000519576 8.56997e-05)
(-0.00085498 -0.000554605 0.000115415)
(-0.000945301 -0.000578493 0.000142169)
(-0.00102935 -0.000594666 0.000164502)
(-0.00110338 -0.000604595 0.000181103)
(-0.00116884 -0.000612216 0.000192266)
(-0.00122477 -0.000619005 0.000198436)
(-0.00127526 -0.00062776 0.000201093)
(-0.00131942 -0.000637746 0.000200867)
(-0.00136113 -0.000649836 0.000198889)
(-0.00140215 -0.000663935 0.000195741)
(-0.00144261 -0.000679305 0.000191633)
(-0.00148297 -0.000695576 0.000186704)
(-0.00152386 -0.000712696 0.000181022)
(-0.00156529 -0.000730472 0.000174511)
(-0.00160709 -0.000748699 0.000167014)
(-0.00164906 -0.000767208 0.000158281)
(-0.00169076 -0.000785708 0.000147943)
(-0.00173167 -0.000803878 0.000135476)
(-0.00177112 -0.000821295 0.000120244)
(-0.00180816 -0.000837482 0.000101376)
(-0.0018411 -0.000851644 7.80503e-05)
(-0.00186653 -0.000862907 4.90752e-05)
(-0.00187949 -0.000869371 1.63636e-05)
(-0.000522368 -0.000197138 -2.62881e-05)
(-0.000433172 -0.000194314 -5.64853e-05)
(-0.0003678 -0.000190603 -5.60312e-05)
(-0.000330092 -0.000201351 -4.86345e-05)
(-0.000352958 -0.000240691 -3.418e-05)
(-0.000419771 -0.000299444 -1.57851e-05)
(-0.000505922 -0.000360939 5.92422e-06)
(-0.000605746 -0.000420217 3.11353e-05)
(-0.000706126 -0.000468251 5.88144e-05)
(-0.000806254 -0.000505785 8.7227e-05)
(-0.000903894 -0.000533598 0.000114225)
(-0.000992478 -0.000551071 0.000137354)
(-0.00107331 -0.000562697 0.000155767)
(-0.00114347 -0.000570212 0.00016882)
(-0.00120583 -0.000577306 0.000177302)
(-0.00125887 -0.000584286 0.000181679)
(-0.00130842 -0.000593818 0.000183516)
(-0.00135364 -0.000604695 0.000183207)
(-0.00139595 -0.000616775 0.000181329)
(-0.0014378 -0.00063039 0.000178442)
(-0.00147999 -0.000645291 0.000174735)
(-0.0015223 -0.000660996 0.000170183)
(-0.00156472 -0.000677286 0.000164726)
(-0.00160718 -0.000693983 0.000158227)
(-0.00164928 -0.000710814 0.000150429)
(-0.00169082 -0.0007276 0.00014099)
(-0.0017314 -0.000744077 0.000129406)
(-0.00177054 -0.000759916 0.000115071)
(-0.0018072 -0.000774605 9.71436e-05)
(-0.00183977 -0.000787461 7.48583e-05)
(-0.00186485 -0.00079768 4.70974e-05)
(-0.0018774 -0.000803492 1.57074e-05)
(-0.000447124 -0.000145304 -6.94714e-06)
(-0.000390675 -0.000154651 -5.36761e-05)
(-0.000329356 -0.00015334 -5.56624e-05)
(-0.000283257 -0.000158826 -5.04018e-05)
(-0.000294866 -0.000189898 -4.06128e-05)
(-0.0003568 -0.000244657 -2.87401e-05)
(-0.000441475 -0.00030563 -1.309e-05)
(-0.000533201 -0.000360654 7.01925e-06)
(-0.000638215 -0.000412914 3.12172e-05)
(-0.00074493 -0.000455138 5.77213e-05)
(-0.000845945 -0.000484751 8.3943e-05)
(-0.000942858 -0.000505799 0.000108038)
(-0.00102919 -0.000518422 0.00012797)
(-0.00110699 -0.000527178 0.000143395)
(-0.00117342 -0.000533251 0.000154015)
(-0.00123397 -0.000540516 0.000161038)
(-0.00128563 -0.000547876 0.000164693)
(-0.00133338 -0.000556931 0.000166144)
(-0.00137957 -0.000567966 0.000166068)
(-0.00142392 -0.000580167 0.000164689)
(-0.0014669 -0.000593142 0.000162207)
(-0.00150958 -0.000606923 0.000158783)
(-0.0015521 -0.000621318 0.00015439)
(-0.00159435 -0.00063611 0.000148901)
(-0.00163631 -0.000651185 0.000142104)
(-0.00167755 -0.000666261 0.000133637)
(-0.00171764 -0.000681061 0.000122998)
(-0.00175608 -0.000695238 0.000109598)
(-0.00179211 -0.000708424 9.2664e-05)
(-0.00182413 -0.000719979 7.14805e-05)
(-0.00184872 -0.000729144 4.50092e-05)
(-0.0018607 -0.00073428 1.50167e-05)
(-0.000326693 -9.08773e-05 8.82405e-06)
(-0.000322109 -0.000110726 -4.88853e-05)
(-0.00028221 -0.000118793 -5.43568e-05)
(-0.000236715 -0.000122665 -5.10172e-05)
(-0.000224547 -0.00013786 -4.2446e-05)
(-0.00027003 -0.00018044 -3.63921e-05)
(-0.0003481 -0.00023712 -2.79067e-05)
(-0.000452844 -0.00030192 -1.49531e-05)
(-0.000557521 -0.000355411 4.05382e-06)
(-0.00066595 -0.000399832 2.73619e-05)
(-0.000776568 -0.000435284 5.25384e-05)
(-0.000877791 -0.000458005 7.66872e-05)
(-0.0009725 -0.000473294 9.8247e-05)
(-0.00105512 -0.000482005 0.000115662)
(-0.00112985 -0.000488942 0.000129071)
(-0.00119237 -0.000493946 0.000138215)
(-0.00125077 -0.000500965 0.000144502)
(-0.00130313 -0.000508878 0.000148169)
(-0.00135041 -0.000517573 0.000149735)
(-0.00139596 -0.000527726 0.000149885)
(-0.00144108 -0.00053923 0.000148928)
(-0.00148536 -0.000551529 0.000146885)
(-0.00152889 -0.000564372 0.000143747)
(-0.00157174 -0.000577609 0.00013943)
(-0.00161346 -0.000590937 0.000133689)
(-0.00165402 -0.000604231 0.000126214)
(-0.00169323 -0.000617295 0.00011653)
(-0.00173084 -0.000629879 0.000104088)
(-0.00176597 -0.00064155 8.81511e-05)
(-0.00179716 -0.000651778 6.8074e-05)
(-0.00182104 -0.000659889 4.29062e-05)
(-0.00183241 -0.000664385 1.43247e-05)
(-0.000190563 -4.34563e-05 1.62514e-05)
(-0.000228461 -6.80552e-05 -4.05956e-05)
(-0.000214081 -8.20932e-05 -4.97977e-05)
(-0.00017857 -8.69088e-05 -4.74825e-05)
(-0.000158719 -9.42505e-05 -3.95352e-05)
(-0.000193008 -0.000126679 -3.92054e-05)
(-0.000267935 -0.000181353 -4.0083e-05)
(-0.00034813 -0.000232324 -3.28545e-05)
(-0.000459337 -0.000292235 -2.05246e-05)
(-0.000576378 -0.000343576 -2.06538e-06)
(-0.000688017 -0.000380733 2.04851e-05)
(-0.000799778 -0.000409144 4.43749e-05)
(-0.000899906 -0.000426127 6.68296e-05)
(-0.000992107 -0.00043731 8.65353e-05)
(-0.00107032 -0.000443168 0.000102204)
(-0.00114273 -0.000449224 0.000114476)
(-0.001203 -0.00045386 0.000122996)
(-0.00125759 -0.000459632 0.000128795)
(-0.00130977 -0.000467355 0.000132606)
(-0.00135854 -0.000476107 0.000134648)
(-0.00140421 -0.000485488 0.000135175)
(-0.00144844 -0.000495664 0.000134461)
(-0.0014916 -0.000506468 0.000132554)
(-0.00153358 -0.000517661 0.000129373)
(-0.0015747 -0.000529198 0.000124753)
(-0.00161451 -0.000540796 0.00011835)
(-0.0016527 -0.000552205 0.000109687)
(-0.00168898 -0.00056314 9.82355e-05)
(-0.00172295 -0.00057334 8.33517e-05)
(-0.00175315 -0.00058229 6.44511e-05)
(-0.00177615 -0.00058938 4.06733e-05)
(-0.00178671 -0.000593234 1.35921e-05)
(-7.23153e-05 -1.21316e-05 1.29961e-05)
(-0.000129176 -3.47969e-05 -2.71385e-05)
(-0.00013658 -4.75127e-05 -4.03195e-05)
(-0.000122309 -5.58962e-05 -4.25506e-05)
(-6.90434e-05 -4.05313e-05 -2.42821e-05)
(-7.0074e-05 -4.68818e-05 -2.1422e-05)
(-0.000129912 -8.99178e-05 -3.11422e-05)
(-0.000252145 -0.000170051 -4.39617e-05)
(-0.000351814 -0.00022599 -4.07571e-05)
(-0.000466313 -0.000279449 -2.84141e-05)
(-0.000591395 -0.000326357 -9.9926e-06)
(-0.000705306 -0.000356996 1.21437e-05)
(-0.000815545 -0.000378828 3.50296e-05)
(-0.000911517 -0.000390576 5.61134e-05)
(-0.0010003 -0.000398803 7.44581e-05)
(-0.00107295 -0.000402396 8.88878e-05)
(-0.00114142 -0.000407249 0.000100338)
(-0.00120201 -0.000412278 0.00010876)
(-0.00125472 -0.000417446 0.0001145)
(-0.0013042 -0.000423929 0.000118327)
(-0.0013524 -0.00043186 0.000120662)
(-0.00139859 -0.000440607 0.00012158)
(-0.00144287 -0.00044991 0.000121132)
(-0.00148558 -0.000459655 0.000119299)
(-0.00152606 -0.000469494 0.000115854)
(-0.00156463 -0.00047936 0.000110526)
(-0.00160132 -0.000489113 0.000102877)
(-0.00163629 -0.00049856 9.24294e-05)
(-0.00166882 -0.000507339 7.85857e-05)
(-0.00169769 -0.000515037 6.08473e-05)
(-0.00171962 -0.00052113 3.84559e-05)
(-0.00172938 -0.000524427 1.28688e-05)
(-1.4621e-05 -6.13498e-07 1.02457e-05)
(-4.11051e-05 -9.67118e-06 -9.35327e-06)
(-5.13123e-05 -1.48005e-05 -2.23963e-05)
(-4.34302e-05 -1.88226e-05 -2.43367e-05)
(-3.97616e-05 -2.54125e-05 -2.3255e-05)
(-5.83162e-05 -4.50603e-05 -2.84281e-05)
(-5.77217e-05 -4.44295e-05 -2.13106e-05)
(-7.70404e-05 -5.4477e-05 -2.18539e-05)
(-0.000229348 -0.000149895 -4.82419e-05)
(-0.000352308 -0.000213868 -4.8914e-05)
(-0.00047202 -0.00026248 -3.62182e-05)
(-0.000600626 -0.000303619 -1.77242e-05)
(-0.000714286 -0.000328416 4.07468e-06)
(-0.000822092 -0.000345354 2.60718e-05)
(-0.000911997 -0.000352965 4.59538e-05)
(-0.000997548 -0.00035946 6.32461e-05)
(-0.00106678 -0.000362173 7.69147e-05)
(-0.00112849 -0.00036504 8.75484e-05)
(-0.00118732 -0.000369654 9.57917e-05)
(-0.00124095 -0.00037502 0.000101798)
(-0.00128928 -0.000380786 0.000105819)
(-0.00133473 -0.000387321 0.000108227)
(-0.00137798 -0.00039455 0.000109146)
(-0.0014189 -0.000402203 0.000108547)
(-0.00145826 -0.000410346 0.000106329)
(-0.00149558 -0.000418656 0.00010216)
(-0.0015307 -0.00042692 9.55949e-05)
(-0.00156363 -0.000434856 8.61802e-05)
(-0.00159443 -0.000442302 7.34425e-05)
(-0.00162185 -0.000448853 5.69552e-05)
(-0.00164255 -0.000454027 3.60632e-05)
(-0.00165122 -0.000456765 1.20892e-05)
(2.17257e-06 3.358e-06 1.6736e-05)
(-2.28884e-06 7.8652e-07 -9.31192e-07)
(-7.41217e-06 -1.39358e-06 -1.2275e-05)
(-1.48193e-05 -1.06168e-05 -2.2459e-05)
(-1.69308e-05 -1.67708e-05 -2.08328e-05)
(-2.86304e-05 -3.09637e-05 -2.6887e-05)
(-4.29375e-05 -4.1624e-05 -2.85425e-05)
(-4.8472e-05 -3.94733e-05 -2.30528e-05)
(-7.22154e-05 -5.00753e-05 -2.44994e-05)
(-0.00021849 -0.000133726 -5.19143e-05)
(-0.000357091 -0.000199918 -5.59414e-05)
(-0.000478632 -0.000243499 -4.23872e-05)
(-0.000605378 -0.000277931 -2.37102e-05)
(-0.000713166 -0.000296544 -2.45903e-06)
(-0.000816632 -0.00030973 1.84202e-05)
(-0.000898258 -0.000313996 3.70103e-05)
(-0.000977199 -0.000318429 5.31084e-05)
(-0.00104651 -0.000321679 6.62577e-05)
(-0.00110452 -0.000323871 7.64236e-05)
(-0.00115774 -0.000327001 8.42716e-05)
(-0.00120901 -0.000331604 9.02667e-05)
(-0.00125697 -0.000337012 9.44969e-05)
(-0.0013016 -0.000342985 9.70428e-05)
(-0.00134358 -0.000349485 9.79543e-05)
(-0.00138189 -0.000356117 9.70096e-05)
(-0.00141733 -0.000362896 9.39787e-05)
(-0.00145027 -0.00036971 8.84651e-05)
(-0.00148141 -0.000376409 8.00871e-05)
(-0.00151024 -0.000382645 6.84202e-05)
(-0.00153584 -0.000388117 5.31453e-05)
(-0.00155509 -0.000392438 3.37237e-05)
(-0.00156281 -0.000394736 1.13323e-05)
(7.12827e-06 8.33147e-06 2.53604e-05)
(1.5494e-05 7.00018e-06 -1.54351e-06)
(1.91048e-05 4.96767e-06 -1.24566e-05)
(1.82194e-05 -3.13861e-06 -1.90083e-05)
(1.18334e-05 -1.16111e-05 -2.1737e-05)
(1.89816e-06 -2.01874e-05 -2.39995e-05)
(-1.18644e-05 -2.7755e-05 -2.53159e-05)
(-3.19908e-05 -3.60642e-05 -2.92604e-05)
(-6.13674e-05 -4.84287e-05 -3.4489e-05)
(-0.000117818 -7.49835e-05 -4.46543e-05)
(-0.000204033 -0.000115132 -5.22959e-05)
(-0.000356399 -0.000182283 -5.79798e-05)
(-0.000478009 -0.000220705 -4.51259e-05)
(-0.000601791 -0.000249976 -2.72545e-05)
(-0.000700483 -0.000263253 -7.0908e-06)
(-0.000799508 -0.000274107 1.23709e-05)
(-0.00087632 -0.00027722 2.97401e-05)
(-0.000944164 -0.00027882 4.45245e-05)
(-0.00100967 -0.000281586 5.69527e-05)
(-0.0010682 -0.000284422 6.69729e-05)
(-0.0011187 -0.000287114 7.46745e-05)
(-0.00116466 -0.000290433 8.04224e-05)
(-0.00120713 -0.00029447 8.43753e-05)
(-0.00124601 -0.000298997 8.65478e-05)
(-0.00128256 -0.000304189 8.68929e-05)
(-0.00131622 -0.000309713 8.50784e-05)
(-0.00134702 -0.000315341 8.06884e-05)
(-0.00137531 -0.00032078 7.3364e-05)
(-0.0014018 -0.000325939 6.28526e-05)
(-0.00142549 -0.00033049 4.89146e-05)
(-0.00144316 -0.00033407 3.11229e-05)
(-0.0014495 -0.000335914 1.04879e-05)
(1.65205e-05 1.22574e-05 3.14429e-05)
(2.86347e-05 1.10728e-05 -4.38286e-06)
(3.28981e-05 7.70205e-06 -1.26854e-05)
(3.82444e-05 1.44999e-06 -1.83071e-05)
(2.75602e-05 -5.56414e-06 -1.52276e-05)
(2.32089e-05 -1.28395e-05 -1.56531e-05)
(1.12814e-05 -1.53849e-05 -1.2512e-05)
(-1.46351e-06 -1.62499e-05 -1.18459e-05)
(-1.7617e-05 -1.91582e-05 -1.63958e-05)
(-4.05572e-05 -2.8039e-05 -2.33485e-05)
(-6.96433e-05 -3.96108e-05 -2.65067e-05)
(-0.000205039 -0.000104545 -5.22308e-05)
(-0.000354353 -0.000164257 -5.75923e-05)
(-0.000467507 -0.000195684 -4.50198e-05)
(-0.000585779 -0.000220535 -2.87092e-05)
(-0.000671961 -0.00022911 -1.00682e-05)
(-0.000760718 -0.00023692 7.69135e-06)
(-0.000838134 -0.000241126 2.38121e-05)
(-0.000899956 -0.000242076 3.75686e-05)
(-0.00095569 -0.000243117 4.90675e-05)
(-0.00100945 -0.000245434 5.86071e-05)
(-0.00105871 -0.000248347 6.61826e-05)
(-0.00110322 -0.000251748 7.18259e-05)
(-0.00114358 -0.000255634 7.55875e-05)
(-0.00117865 -0.000259709 7.72501e-05)
(-0.0012097 -0.000264042 7.6589e-05)
(-0.00123758 -0.000268566 7.32507e-05)
(-0.00126372 -0.000273145 6.69748e-05)
(-0.00128774 -0.000277408 5.75522e-05)
(-0.00130915 -0.000281141 4.4873e-05)
(-0.00132502 -0.000284071 2.86389e-05)
(-0.00133036 -0.000285627 9.68796e-06)
(2.61273e-05 1.33592e-05 3.34776e-05)
(5.24768e-05 1.5437e-05 -6.15762e-06)
(6.76076e-05 1.24681e-05 -1.85202e-05)
(6.96291e-05 3.90451e-06 -2.32298e-05)
(5.53289e-05 -5.62958e-06 -2.00726e-05)
(4.71723e-05 -1.38941e-05 -1.74306e-05)
(2.61063e-05 -1.44919e-05 -9.65955e-06)
(2.11454e-05 -2.22204e-05 -8.09033e-06)
(4.17832e-06 -2.4559e-05 -8.9068e-06)
(-2.5532e-05 -2.34265e-05 -2.01617e-05)
(-6.41815e-05 -3.68174e-05 -3.48214e-05)
(-6.94944e-05 -3.55842e-05 -2.5623e-05)
(-0.000202375 -9.31191e-05 -4.93894e-05)
(-0.000346105 -0.000145879 -5.53581e-05)
(-0.000445136 -0.000170013 -4.3127e-05)
(-0.000558561 -0.000191869 -2.88218e-05)
(-0.000638594 -0.000199011 -1.19325e-05)
(-0.000709473 -0.000202437 4.30763e-06)
(-0.000780681 -0.000206149 1.9127e-05)
(-0.000843319 -0.000208557 3.21705e-05)
(-0.000894519 -0.000209638 4.30613e-05)
(-0.000939443 -0.000210873 5.1903e-05)
(-0.000979321 -0.000212622 5.87447e-05)
(-0.00101507 -0.000214939 6.3659e-05)
(-0.00104748 -0.000218011 6.65568e-05)
(-0.00107621 -0.000221549 6.70938e-05)
(-0.00110138 -0.000225316 6.48695e-05)
(-0.00112371 -0.00022896 5.96344e-05)
(-0.00114479 -0.000232473 5.1416e-05)
(-0.00116385 -0.000235575 4.0181e-05)
(-0.00117782 -0.000237985 2.57409e-05)
(-0.00118149 -0.000239181 8.7439e-06)
(3.33673e-05 1.35905e-05 3.484e-05)
(7.17063e-05 1.81532e-05 -5.06868e-06)
(9.46295e-05 1.61434e-05 -2.01999e-05)
(0.000106228 7.4124e-06 -2.90621e-05)
(0.000106588 -5.33549e-06 -3.22903e-05)
(9.16878e-05 -1.74585e-05 -2.91118e-05)
(5.37903e-05 -2.02035e-05 -1.68646e-05)
(4.74177e-05 -3.0209e-05 -1.26653e-05)
(3.30287e-05 -3.53947e-05 -5.39394e-06)
(3.0675e-06 -1.54207e-05 -1.15567e-06)
(-1.9479e-05 -1.64569e-05 -1.07503e-05)
(-4.56987e-05 -2.3585e-05 -2.21952e-05)
(-6.82685e-05 -3.13391e-05 -2.37665e-05)
(-0.000185792 -7.90507e-05 -4.42989e-05)
(-0.000324806 -0.000126178 -5.11388e-05)
(-0.000405117 -0.000142794 -3.98231e-05)
(-0.000503997 -0.000160065 -2.71783e-05)
(-0.000587797 -0.000169522 -1.25679e-05)
(-0.000649717 -0.00017213 2.19164e-06)
(-0.0007048 -0.000173438 1.56857e-05)
(-0.000759582 -0.000175641 2.7677e-05)
(-0.000809115 -0.00017785 3.7937e-05)
(-0.000853059 -0.000180249 4.6314e-05)
(-0.00089021 -0.000182634 5.26716e-05)
(-0.000920785 -0.000185192 5.68112e-05)
(-0.000946074 -0.000188007 5.84195e-05)
(-0.000967551 -0.000191083 5.71743e-05)
(-0.000987651 -0.000194323 5.29671e-05)
(-0.00100592 -0.00019731 4.58353e-05)
(-0.00102232 -0.000199889 3.58949e-05)
(-0.00103427 -0.000201881 2.30916e-05)
(-0.00103709 -0.000202924 7.88902e-06)
(3.93745e-05 1.371e-05 3.74897e-05)
(8.07297e-05 1.91996e-05 -2.72737e-06)
(0.000108774 1.92961e-05 -1.91958e-05)
(0.00012552 1.2418e-05 -3.00175e-05)
(0.000129904 1.17362e-07 -3.6114e-05)
(0.000123574 -1.41696e-05 -3.72129e-05)
(0.000109196 -2.81215e-05 -3.33524e-05)
(7.40209e-05 -3.27014e-05 -2.11076e-05)
(3.94905e-05 -2.78733e-05 -8.47964e-06)
(2.99298e-05 -3.53241e-05 -4.70642e-07)
(7.42535e-06 -3.0587e-05 3.57463e-06)
(-1.53982e-05 -1.14474e-05 -6.83617e-06)
(-6.26442e-05 -3.05156e-05 -2.97643e-05)
(-6.46764e-05 -2.89496e-05 -2.18221e-05)
(-0.000161669 -6.36098e-05 -3.72578e-05)
(-0.000298707 -0.000107489 -4.75444e-05)
(-0.00037074 -0.000121898 -3.74471e-05)
(-0.000439414 -0.000131096 -2.49005e-05)
(-0.000514942 -0.000140152 -1.19387e-05)
(-0.000580051 -0.000145507 1.36227e-06)
(-0.00062875 -0.000147348 1.37494e-05)
(-0.000669515 -0.000148362 2.45489e-05)
(-0.000703385 -0.000149252 3.34456e-05)
(-0.000734641 -0.000150786 4.05661e-05)
(-0.000761286 -0.000152908 4.56313e-05)
(-0.000783707 -0.000155478 4.82482e-05)
(-0.00080206 -0.000158255 4.80056e-05)
(-0.000817206 -0.000160815 4.47651e-05)
(-0.000831952 -0.000163353 3.88912e-05)
(-0.000845669 -0.000165571 3.05416e-05)
(-0.00085546 -0.000167249 1.97464e-05)
(-0.000856301 -0.000167946 6.78259e-06)
(4.33078e-05 1.35614e-05 4.09392e-05)
(8.23026e-05 1.93166e-05 2.35504e-07)
(0.000111984 2.14399e-05 -1.68644e-05)
(0.000130815 1.71713e-05 -2.87231e-05)