/*--------------------------------*- C++ -*----------------------------------*\
  =========                 |
  \\      /  F ield         | OpenFOAM: The Open Source CFD Toolbox
   \\    /   O peration     | Website:  https://openfoam.org
    \\  /    A nd           | Version:  6
     \\/     M anipulation  |
\*---------------------------------------------------------------------------*/
FoamFile
{
    version     2.0;
    format      ascii;
    class       volScalarField;
    location    "60";
    object      k;
}
// * * * * * * * * * * * * * * * * * * * * * * * * * * * * * * * * * * * * * //

dimensions      [0 2 -2 0 0 0 0];

internalField   nonuniform List<scalar> 
3240
(
0.000110455
0.000110455
0.000110455
0.000271804
0.000271806
0.000271804
0.000336146
0.000336149
0.000336149
0.000384368
0.000384371
0.000384372
0.000423675
0.000423678
0.000423681
0.000456872
0.000456876
0.000456879
0.000485897
0.000485901
0.000485904
0.000512174
0.000512177
0.00051218
0.000536616
0.000536619
0.000536622
0.00055959
0.000559592
0.000559595
0.000580874
0.000580875
0.000580879
0.000599667
0.000599669
0.000599676
0.000614947
0.000614949
0.000614958
0.000625855
0.000625857
0.000625867
0.00063178
0.000631782
0.000631792
0.00063178
0.000631782
0.000631792
0.000625852
0.000625854
0.000625864
0.000614939
0.000614941
0.00061495
0.000599654
0.000599656
0.000599662
0.000580855
0.000580856
0.00058086
0.000559561
0.000559562
0.000559566
0.000536579
0.000536582
0.000536585
0.00051213
0.000512133
0.000512136
0.000485845
0.000485849
0.000485852
0.000456818
0.000456822
0.000456825
0.000423625
0.000423629
0.000423631
0.000384325
0.000384328
0.000384329
0.000336111
0.000336114
0.000336113
0.00027178
0.000271781
0.00027178
0.000110444
0.000110444
0.000110445
0.000162197
0.000162197
0.000162198
0.000880078
0.000880081
0.000880079
0.00103797
0.00103797
0.00103797
0.00114795
0.00114796
0.00114796
0.00123382
0.00123383
0.00123383
0.00130422
0.00130422
0.00130423
0.00136437
0.00136437
0.00136438
0.00141781
0.00141782
0.00141782
0.00146675
0.00146676
0.00146676
0.00151216
0.00151216
0.00151217
0.00155373
0.00155374
0.00155374
0.00159009
0.00159009
0.0015901
0.00161941
0.00161941
0.00161943
0.00164021
0.00164022
0.00164023
0.00165147
0.00165148
0.00165149
0.00165147
0.00165147
0.00165149
0.0016402
0.00164021
0.00164022
0.00161939
0.0016194
0.00161941
0.00159006
0.00159007
0.00159008
0.0015537
0.0015537
0.00155371
0.0015121
0.00151211
0.00151211
0.00146669
0.00146669
0.0014667
0.00141773
0.00141774
0.00141774
0.00136427
0.00136428
0.00136429
0.00130412
0.00130412
0.00130413
0.00123373
0.00123373
0.00123374
0.00114787
0.00114787
0.00114788
0.00103789
0.0010379
0.0010379
0.000880025
0.000880028
0.000880026
0.000162183
0.000162183
0.000162184
0.000190575
0.000190575
0.000190576
0.00097934
0.000979344
0.000979341
0.00113718
0.00113719
0.00113719
0.00125152
0.00125153
0.00125153
0.0013418
0.00134181
0.00134182
0.0014162
0.00141621
0.00141622
0.00147998
0.00147999
0.00148
0.00153679
0.0015368
0.00153681
0.0015889
0.00158891
0.00158892
0.00163729
0.00163729
0.0016373
0.00168163
0.00168163
0.00168164
0.00172041
0.00172041
0.00172043
0.0017517
0.00175171
0.00175172
0.00177391
0.00177392
0.00177394
0.00178594
0.00178594
0.00178596
0.00178594
0.00178594
0.00178596
0.00177391
0.00177391
0.00177393
0.00175169
0.00175169
0.00175171
0.00172038
0.00172039
0.0017204
0.00168159
0.00168159
0.0016816
0.00163723
0.00163723
0.00163724
0.00158883
0.00158883
0.00158884
0.0015367
0.00153671
0.00153671
0.00147987
0.00147988
0.00147989
0.00141609
0.00141609
0.0014161
0.00134169
0.0013417
0.00134171
0.00125142
0.00125143
0.00125143
0.0011371
0.0011371
0.0011371
0.000979278
0.000979282
0.000979278
0.00019056
0.00019056
0.000190561
0.000219685
0.000219685
0.000219686
0.00102847
0.00102848
0.00102847
0.00117927
0.00117928
0.00117928
0.0012935
0.0012935
0.00129351
0.00138482
0.00138483
0.00138484
0.00146049
0.0014605
0.00146051
0.00152558
0.00152559
0.0015256
0.00158368
0.00158369
0.0015837
0.00163705
0.00163705
0.00163706
0.00168663
0.00168664
0.00168664
0.00173209
0.00173209
0.0017321
0.00177187
0.00177187
0.00177189
0.00180396
0.00180397
0.00180399
0.00182675
0.00182676
0.00182678
0.00183909
0.00183909
0.00183911
0.00183909
0.00183909
0.00183911
0.00182675
0.00182675
0.00182677
0.00180395
0.00180395
0.00180397
0.00177184
0.00177184
0.00177186
0.00173205
0.00173205
0.00173206
0.00168656
0.00168657
0.00168658
0.00163696
0.00163697
0.00163698
0.00158358
0.00158358
0.00158359
0.00152546
0.00152547
0.00152547
0.00146037
0.00146037
0.00146038
0.0013847
0.00138471
0.00138472
0.00129339
0.0012934
0.0012934
0.00117919
0.00117919
0.00117919
0.0010284
0.00102841
0.0010284
0.000219668
0.000219668
0.000219669
0.000249691
0.000249691
0.000249692
0.00106149
0.00106149
0.00106149
0.00120207
0.00120208
0.00120208
0.00131416
0.00131416
0.00131417
0.00140518
0.00140519
0.0014052
0.00148112
0.00148113
0.00148114
0.00154669
0.0015467
0.00154671
0.00160538
0.00160539
0.0016054
0.00165937
0.00165937
0.00165938
0.00170956
0.00170957
0.00170958
0.0017556
0.00175561
0.00175562
0.0017959
0.0017959
0.00179592
0.00182841
0.00182842
0.00182844
0.00185151
0.00185151
0.00185154
0.001864
0.001864
0.00186403
0.001864
0.001864
0.00186403
0.0018515
0.0018515
0.00185153
0.0018284
0.0018284
0.00182842
0.00179586
0.00179587
0.00179589
0.00175556
0.00175556
0.00175557
0.00170949
0.00170949
0.0017095
0.00165927
0.00165928
0.00165929
0.00160527
0.00160527
0.00160528
0.00154656
0.00154657
0.00154657
0.00148098
0.00148099
0.00148099
0.00140505
0.00140506
0.00140506
0.00131404
0.00131405
0.00131405
0.00120198
0.00120198
0.00120198
0.00106141
0.00106142
0.00106141
0.000249672
0.000249672
0.000249673
0.000280712
0.000280712
0.000280713
0.00108772
0.00108773
0.00108772
0.00121633
0.00121634
0.00121634
0.00132488
0.00132489
0.00132489
0.00141476
0.00141477
0.00141477
0.0014904
0.00149041
0.00149042
0.00155604
0.00155605
0.00155606
0.00161498
0.00161498
0.00161499
0.00166929
0.0016693
0.00166931
0.00171983
0.00171984
0.00171985
0.00176622
0.00176622
0.00176623
0.00180681
0.00180682
0.00180684
0.00183959
0.00183959
0.00183962
0.00186286
0.00186286
0.00186289
0.00187545
0.00187545
0.00187548
0.00187545
0.00187545
0.00187548
0.00186285
0.00186286
0.00186288
0.00183957
0.00183957
0.0018396
0.00180678
0.00180679
0.0018068
0.00176617
0.00176617
0.00176618
0.00171975
0.00171976
0.00171977
0.00166919
0.00166919
0.0016692
0.00161485
0.00161486
0.00161487
0.00155589
0.0015559
0.00155591
0.00149025
0.00149026
0.00149026
0.00141462
0.00141463
0.00141463
0.00132476
0.00132477
0.00132477
0.00121623
0.00121623
0.00121623
0.00108764
0.00108764
0.00108764
0.000280691
0.000280691
0.000280692
0.000312823
0.000312823
0.000312824
0.00111061
0.00111061
0.00111061
0.00122636
0.00122637
0.00122637
0.00133021
0.00133022
0.00133022
0.00141823
0.00141824
0.00141825
0.00149314
0.00149315
0.00149316
0.00155857
0.00155858
0.00155859
0.00161754
0.00161755
0.00161756
0.00167202
0.00167202
0.00167203
0.00172276
0.00172277
0.00172278
0.00176936
0.00176936
0.00176937
0.00181015
0.00181016
0.00181018
0.00184309
0.00184309
0.00184312
0.00186647
0.00186648
0.00186651
0.00187912
0.00187913
0.00187916
0.00187912
0.00187913
0.00187916
0.00186647
0.00186647
0.0018665
0.00184306
0.00184307
0.0018431
0.00181012
0.00181012
0.00181014
0.0017693
0.00176931
0.00176932
0.00172267
0.00172268
0.00172269
0.00167191
0.00167191
0.00167192
0.00161741
0.00161742
0.00161743
0.00155841
0.00155842
0.00155843
0.00149298
0.00149299
0.001493
0.00141808
0.00141809
0.0014181
0.00133008
0.00133009
0.00133009
0.00122625
0.00122626
0.00122625
0.00111052
0.00111052
0.00111052
0.000312799
0.000312799
0.0003128
0.000346052
0.000346052
0.000346053
0.00113151
0.00113152
0.00113151
0.00123425
0.00123426
0.00123426
0.00133234
0.00133235
0.00133236
0.00141784
0.00141785
0.00141785
0.00149162
0.00149163
0.00149163
0.00155658
0.00155659
0.0015566
0.00161543
0.00161544
0.00161545
0.00166994
0.00166995
0.00166996
0.0017208
0.0017208
0.00172081
0.00176753
0.00176753
0.00176754
0.00180845
0.00180846
0.00180848
0.0018415
0.0018415
0.00184153
0.00186496
0.00186497
0.001865
0.00187764
0.00187765
0.00187768
0.00187764
0.00187765
0.00187768
0.00186495
0.00186496
0.00186499
0.00184147
0.00184148
0.00184151
0.00180841
0.00180842
0.00180844
0.00176747
0.00176747
0.00176748
0.0017207
0.00172071
0.00172072
0.00166982
0.00166983
0.00166984
0.00161529
0.0016153
0.0016153
0.00155641
0.00155642
0.00155643
0.00149144
0.00149145
0.00149146
0.00141767
0.00141768
0.00141769
0.0013322
0.00133221
0.00133221
0.00123413
0.00123414
0.00123413
0.00113142
0.00113142
0.00113142
0.000346026
0.000346026
0.000346027
0.000380378
0.000380378
0.000380379
0.00115093
0.00115093
0.00115093
0.00124112
0.00124113
0.00124113
0.00133251
0.00133252
0.00133252
0.00141477
0.00141478
0.00141479
0.00148701
0.00148702
0.00148703
0.00155127
0.00155128
0.00155129
0.00160985
0.00160986
0.00160987
0.0016643
0.00166431
0.00166432
0.0017152
0.0017152
0.00171521
0.001762
0.00176201
0.00176202
0.00180301
0.00180302
0.00180304
0.00183613
0.00183614
0.00183617
0.00185965
0.00185965
0.00185969
0.00187235
0.00187236
0.00187239
0.00187235
0.00187236
0.00187239
0.00185964
0.00185965
0.00185968
0.00183611
0.00183612
0.00183615
0.00180297
0.00180298
0.001803
0.00176194
0.00176195
0.00176196
0.00171509
0.0017151
0.00171511
0.00166418
0.00166418
0.00166419
0.0016097
0.00160971
0.00160971
0.00155109
0.0015511
0.00155111
0.00148682
0.00148683
0.00148684
0.0014146
0.00141461
0.00141461
0.00133235
0.00133236
0.00133237
0.00124099
0.001241
0.00124099
0.00115083
0.00115083
0.00115082
0.000380349
0.000380349
0.00038035
0.000415718
0.000415719
0.00041572
0.00116888
0.00116888
0.00116888
0.0012476
0.0012476
0.0012476
0.00133146
0.00133147
0.00133148
0.00140978
0.00140979
0.00140979
0.00148002
0.00148003
0.00148004
0.00154331
0.00154332
0.00154333
0.00160147
0.00160148
0.00160149
0.00165577
0.00165578
0.00165579
0.00170664
0.00170664
0.00170665
0.00175348
0.00175348
0.0017535
0.00179454
0.00179455
0.00179457
0.0018277
0.00182771
0.00182774
0.00185125
0.00185126
0.00185129
0.00186396
0.00186397
0.001864
0.00186396
0.00186397
0.001864
0.00185124
0.00185125
0.00185128
0.00182768
0.00182769
0.00182772
0.0017945
0.00179451
0.00179453
0.00175341
0.00175342
0.00175343
0.00170653
0.00170653
0.00170655
0.00165563
0.00165564
0.00165565
0.0016013
0.00160131
0.00160132
0.00154312
0.00154313
0.00154314
0.00147981
0.00147982
0.00147983
0.00140959
0.0014096
0.0014096
0.0013313
0.0013313
0.00133131
0.00124746
0.00124746
0.00124746
0.00116877
0.00116878
0.00116877
0.000415686
0.000415687
0.000415688
0.000451926
0.000451926
0.000451927
0.00118516
0.00118517
0.00118516
0.00125401
0.00125401
0.00125401
0.00132971
0.00132972
0.00132972
0.00140332
0.00140333
0.00140334
0.00147106
0.00147108
0.00147109
0.0015331
0.00153311
0.00153312
0.00159066
0.00159067
0.00159068
0.00164471
0.00164472
0.00164473
0.00169549
0.0016955
0.00169551
0.00174233
0.00174234
0.00174235
0.00178341
0.00178342
0.00178344
0.0018166
0.00181661
0.00181664
0.00184015
0.00184016
0.0018402
0.00185286
0.00185287
0.00185291
0.00185286
0.00185287
0.00185291
0.00184015
0.00184016
0.00184019
0.00181657
0.00181658
0.00181661
0.00178337
0.00178338
0.0017834
0.00174226
0.00174227
0.00174228
0.00169538
0.00169539
0.0016954
0.00164456
0.00164457
0.00164458
0.00159048
0.00159049
0.0015905
0.00153289
0.0015329
0.00153291
0.00147085
0.00147086
0.00147087
0.00140312
0.00140313
0.00140314
0.00132953
0.00132954
0.00132954
0.00125385
0.00125386
0.00125386
0.00118505
0.00118506
0.00118505
0.000451891
0.000451891
0.000451892
0.000488778
0.000488779
0.00048878
0.00119944
0.00119945
0.00119944
0.00126047
0.00126047
0.00126047
0.00132759
0.0013276
0.0013276
0.00139575
0.00139576
0.00139577
0.00146044
0.00146045
0.00146046
0.00152086
0.00152087
0.00152089
0.00157763
0.00157764
0.00157765
0.00163132
0.00163133
0.00163134
0.00168196
0.00168197
0.00168198
0.00172876
0.00172876
0.00172877
0.00176983
0.00176984
0.00176986
0.00180301
0.00180303
0.00180306
0.00182656
0.00182658
0.00182661
0.00183926
0.00183927
0.00183931
0.00183926
0.00183927
0.00183931
0.00182656
0.00182657
0.0018266
0.00180299
0.001803
0.00180303
0.00176978
0.00176979
0.00176981
0.00172868
0.00172869
0.0017287
0.00168184
0.00168185
0.00168186
0.00163117
0.00163118
0.00163119
0.00157745
0.00157746
0.00157747
0.00152064
0.00152065
0.00152067
0.00146021
0.00146022
0.00146023
0.00139554
0.00139555
0.00139556
0.0013274
0.00132741
0.00132741
0.0012603
0.00126031
0.00126031
0.00119932
0.00119933
0.00119932
0.00048874
0.00048874
0.000488741
0.000525978
0.000525979
0.00052598
0.00121131
0.00121131
0.00121131
0.00126693
0.00126694
0.00126694
0.00132533
0.00132534
0.00132535
0.00138732
0.00138733
0.00138734
0.00144833
0.00144834
0.00144835
0.00150675
0.00150676
0.00150678
0.0015625
0.00156251
0.00156252
0.0016157
0.00161571
0.00161572
0.00166613
0.00166613
0.00166615
0.00171283
0.00171284
0.00171285
0.00175387
0.00175388
0.0017539
0.00178703
0.00178704
0.00178707
0.00181056
0.00181057
0.00181061
0.00182323
0.00182324
0.00182328
0.00182323
0.00182324
0.00182328
0.00181055
0.00181057
0.0018106
0.00178701
0.00178702
0.00178705
0.00175382
0.00175383
0.00175385
0.00171276
0.00171276
0.00171277
0.001666
0.00166601
0.00166602
0.00161554
0.00161555
0.00161556
0.00156231
0.00156231
0.00156233
0.00150652
0.00150653
0.00150654
0.00144809
0.0014481
0.00144811
0.00138709
0.0013871
0.00138711
0.00132513
0.00132513
0.00132514
0.00126676
0.00126676
0.00126677
0.00121118
0.00121118
0.00121118
0.000525936
0.000525937
0.000525938
0.000563154
0.000563155
0.000563156
0.00122033
0.00122034
0.00122034
0.00127321
0.00127322
0.00127322
0.00132306
0.00132307
0.00132308
0.00137822
0.00137823
0.00137824
0.00143489
0.0014349
0.00143492
0.00149085
0.00149086
0.00149088
0.00154531
0.00154532
0.00154533
0.00159787
0.00159788
0.00159789
0.00164799
0.001648
0.00164801
0.00169456
0.00169457
0.00169458
0.00173553
0.00173554
0.00173556
0.00176865
0.00176866
0.00176869
0.00179214
0.00179215
0.00179218
0.00180478
0.00180479
0.00180482
0.00180478
0.00180479
0.00180482
0.00179213
0.00179215
0.00179218
0.00176862
0.00176864
0.00176867
0.00173548
0.00173549
0.00173551
0.00169448
0.00169449
0.0016945
0.00164786
0.00164787
0.00164788
0.0015977
0.00159771
0.00159772
0.0015451
0.00154511
0.00154512
0.00149061
0.00149062
0.00149063
0.00143464
0.00143465
0.00143466
0.00137797
0.00137798
0.00137799
0.00132284
0.00132285
0.00132286
0.00127303
0.00127304
0.00127304
0.0012202
0.00122021
0.0012202
0.000563109
0.000563109
0.000563111
0.000599874
0.000599875
0.000599876
0.00122612
0.00122613
0.00122613
0.001279
0.00127901
0.00127901
0.00132081
0.00132082
0.00132083
0.00136859
0.00136859
0.00136861
0.00142024
0.00142025
0.00142027
0.00147322
0.00147323
0.00147324
0.00152605
0.00152606
0.00152607
0.00157779
0.0015778
0.00157781
0.00162752
0.00162752
0.00162754
0.00167389
0.0016739
0.00167391
0.00171476
0.00171477
0.00171479
0.00174781
0.00174782
0.00174785
0.00177123
0.00177125
0.00177128
0.00178383
0.00178384
0.00178388
0.00178383
0.00178384
0.00178388
0.00177123
0.00177124
0.00177127
0.00174778
0.0017478
0.00174782
0.00171471
0.00171472
0.00171474
0.00167381
0.00167382
0.00167383
0.00162738
0.00162739
0.0016274
0.00157761
0.00157762
0.00157763
0.00152583
0.00152584
0.00152585
0.00147296
0.00147297
0.00147299
0.00141997
0.00141998
0.00142
0.00136833
0.00136834
0.00136835
0.00132058
0.00132059
0.0013206
0.00127881
0.00127881
0.00127882
0.00122598
0.00122599
0.00122599
0.000599825
0.000599826
0.000599827
0.000635663
0.000635664
0.000635666
0.00122833
0.00122833
0.00122833
0.00128387
0.00128388
0.00128388
0.00131851
0.00131851
0.00131853
0.00135852
0.00135853
0.00135855
0.00140447
0.00140447
0.00140449
0.00145387
0.00145388
0.0014539
0.0015047
0.00150471
0.00150472
0.0015554
0.00155541
0.00155542
0.00160461
0.00160462
0.00160463
0.00165073
0.00165073
0.00165075
0.00169145
0.00169146
0.00169149
0.0017244
0.00172442
0.00172444
0.00174774
0.00174776
0.00174779
0.00176028
0.0017603
0.00176033
0.00176028
0.0017603
0.00176033
0.00174774
0.00174776
0.00174778
0.00172437
0.00172439
0.00172441
0.0016914
0.00169141
0.00169143
0.00165065
0.00165065
0.00165066
0.00160447
0.00160447
0.00160449
0.00155521
0.00155522
0.00155524
0.00150448
0.00150449
0.0015045
0.00145361
0.00145362
0.00145363
0.00140418
0.00140419
0.00140421
0.00135825
0.00135826
0.00135827
0.00131826
0.00131827
0.00131828
0.00128367
0.00128367
0.00128368
0.00122819
0.00122819
0.00122819
0.000635611
0.000635612
0.000635613
0.000670037
0.000670038
0.00067004
0.00122669
0.0012267
0.0012267
0.00128731
0.00128731
0.00128732
0.00131597
0.00131598
0.00131599
0.00134807
0.00134807
0.00134809
0.00138763
0.00138764
0.00138766
0.00143284
0.00143284
0.00143286
0.00148122
0.00148122
0.00148124
0.00153061
0.00153061
0.00153063
0.00157916
0.00157916
0.00157917
0.00162494
0.00162494
0.00162496
0.00166547
0.00166548
0.0016655
0.00169828
0.0016983
0.00169832
0.00172152
0.00172154
0.00172156
0.00173398
0.001734
0.00173403
0.00173398
0.001734
0.00173403
0.00172151
0.00172153
0.00172156
0.00169825
0.00169827
0.0016983
0.00166541
0.00166542
0.00166545
0.00162485
0.00162486
0.00162487
0.00157901
0.00157901
0.00157903
0.00153041
0.00153042
0.00153043
0.00148098
0.00148099
0.001481
0.00143256
0.00143257
0.00143258
0.00138734
0.00138734
0.00138736
0.00134778
0.00134779
0.00134781
0.00131571
0.00131572
0.00131573
0.00128709
0.0012871
0.00128711
0.00122654
0.00122655
0.00122655
0.000669982
0.000669982
0.000669985
0.000702538
0.000702539
0.000702542
0.00122105
0.00122105
0.00122106
0.00128872
0.00128873
0.00128874
0.0013129
0.00131291
0.00131293
0.00133718
0.00133719
0.00133721
0.00136979
0.0013698
0.00136982
0.00141011
0.00141012
0.00141014
0.00145553
0.00145554
0.00145555
0.00150329
0.0015033
0.00150332
0.00155101
0.00155101
0.00155103
0.00159636
0.00159636
0.00159637
0.00163663
0.00163665
0.00163667
0.00166928
0.00166929
0.00166932
0.00169237
0.00169239
0.00169242
0.00170475
0.00170477
0.0017048
0.00170475
0.00170477
0.0017048
0.00169237
0.00169239
0.00169241
0.00166925
0.00166926
0.00166929
0.00163658
0.00163659
0.00163661
0.00159627
0.00159627
0.00159628
0.00155086
0.00155086
0.00155088
0.0015031
0.0015031
0.00150312
0.00145529
0.00145529
0.00145531
0.00140982
0.00140983
0.00140985
0.00136948
0.00136949
0.00136951
0.00133688
0.00133689
0.00133691
0.00131264
0.00131264
0.00131266
0.0012885
0.00128851
0.00128852
0.0012209
0.0012209
0.0012209
0.00070248
0.000702481
0.000702483
0.000732779
0.00073278
0.000732783
0.00121136
0.00121137
0.00121137
0.00128748
0.00128749
0.0012875
0.0013089
0.0013089
0.00130892
0.00132576
0.00132576
0.00132578
0.00135094
0.00135095
0.00135097
0.00138569
0.0013857
0.00138572
0.00142757
0.00142758
0.0014276
0.00147334
0.00147334
0.00147336
0.00152
0.00152
0.00152002
0.00156479
0.00156479
0.00156481
0.00160475
0.00160476
0.00160478
0.00163717
0.00163719
0.00163721
0.0016601
0.00166012
0.00166014
0.00167237
0.00167239
0.00167241
0.00167237
0.00167239
0.00167241
0.00166009
0.00166011
0.00166013
0.00163714
0.00163716
0.00163718
0.00160469
0.0016047
0.00160472
0.0015647
0.0015647
0.00156472
0.00151984
0.00151985
0.00151986
0.00147313
0.00147314
0.00147315
0.00142732
0.00142733
0.00142735
0.0013854
0.0013854
0.00138542
0.00135062
0.00135063
0.00135065
0.00132544
0.00132545
0.00132547
0.00130862
0.00130862
0.00130864
0.00128725
0.00128726
0.00128727
0.0012112
0.00121121
0.00121121
0.000732718
0.000732719
0.000732722
0.000760483
0.000760484
0.000760488
0.00119772
0.00119772
0.00119773
0.00128294
0.00128295
0.00128296
0.00130341
0.00130342
0.00130344
0.00131357
0.00131357
0.0013136
0.00133106
0.00133107
0.00133109
0.00135957
0.00135957
0.00135959
0.00139727
0.00139728
0.00139729
0.00144059
0.0014406
0.00144061
0.00148593
0.00148594
0.00148595
0.00153003
0.00153003
0.00153005
0.00156958
0.00156959
0.00156961
0.00160172
0.00160174
0.00160176
0.00162444
0.00162446
0.00162448
0.00163658
0.0016366
0.00163662
0.00163658
0.0016366
0.00163662
0.00162443
0.00162445
0.00162447
0.00160169
0.00160171
0.00160173
0.00156952
0.00156953
0.00156955
0.00152994
0.00152994
0.00152995
0.00148578
0.00148578
0.0014858
0.00144038
0.00144039
0.00144041
0.00139702
0.00139702
0.00139704
0.00135926
0.00135927
0.00135929
0.00133073
0.00133073
0.00133076
0.00131324
0.00131325
0.00131327
0.00130312
0.00130313
0.00130315
0.00128271
0.00128271
0.00128272
0.00119756
0.00119756
0.00119757
0.000760419
0.00076042
0.000760424
0.000785515
0.000785516
0.000785521
0.00118033
0.00118034
0.00118035
0.00127448
0.00127449
0.0012745
0.00129582
0.00129582
0.00129585
0.00130028
0.00130029
0.00130031
0.00131004
0.00131005
0.00131007
0.0013317
0.0013317
0.00133172
0.00136455
0.00136456
0.00136457
0.00140491
0.00140492
0.00140494
0.00144862
0.00144863
0.00144864
0.00149183
0.00149184
0.00149185
0.00153087
0.00153088
0.0015309
0.00156266
0.00156268
0.0015627
0.00158513
0.00158515
0.00158516
0.00159712
0.00159714
0.00159716
0.00159712
0.00159714
0.00159716
0.00158512
0.00158514
0.00158516
0.00156263
0.00156265
0.00156267
0.00153081
0.00153082
0.00153084
0.00149174
0.00149174
0.00149176
0.00144846
0.00144847
0.00144848
0.0014047
0.00140471
0.00140473
0.00136429
0.00136429
0.00136431
0.00133138
0.00133139
0.00133141
0.00130969
0.0013097
0.00130972
0.00129994
0.00129995
0.00129997
0.00129552
0.00129552
0.00129554
0.00127424
0.00127425
0.00127426
0.00118017
0.00118018
0.00118018
0.000785449
0.00078545
0.000785455
0.0008079
0.000807901
0.000807906
0.00115956
0.00115957
0.00115958
0.00126156
0.00126157
0.00126158
0.00128539
0.00128539
0.00128542
0.00128543
0.00128544
0.00128546
0.00128769
0.0012877
0.00128772
0.00130202
0.00130203
0.00130205
0.00132933
0.00132934
0.00132935
0.00136616
0.00136616
0.00136618
0.00140785
0.00140785
0.00140787
0.00144995
0.00144995
0.00144997
0.00148834
0.00148835
0.00148837
0.0015197
0.00151972
0.00151973
0.00154186
0.00154188
0.00154189
0.00155367
0.00155368
0.0015537
0.00155367
0.00155369
0.0015537
0.00154185
0.00154187
0.00154188
0.00151967
0.00151969
0.0015197
0.00148828
0.00148829
0.00148831
0.00144985
0.00144986
0.00144987
0.00140769
0.00140769
0.00140771
0.00136594
0.00136595
0.00136597
0.00132906
0.00132907
0.00132909
0.0013017
0.00130171
0.00130173
0.00128734
0.00128734
0.00128737
0.00128508
0.00128509
0.00128512
0.00128508
0.00128508
0.00128511
0.00126131
0.00126132
0.00126133
0.00115939
0.0011594
0.00115941
0.000807832
0.000807833
0.000807838
0.000827814
0.000827814
0.00082782
0.00113586
0.00113587
0.00113588
0.00124374
0.00124375
0.00124377
0.00127135
0.00127136
0.00127138
0.00126844
0.00126844
0.00126847
0.00126374
0.00126374
0.00126377
0.00127043
0.00127044
0.00127046
0.00129153
0.00129153
0.00129155
0.00132418
0.00132419
0.0013242
0.0013634
0.0013634
0.00136342
0.00140411
0.00140411
0.00140413
0.00144169
0.0014417
0.00144171
0.00147251
0.00147253
0.00147254
0.00149429
0.00149431
0.00149432
0.00150589
0.00150591
0.00150592
0.00150589
0.00150591
0.00150592
0.00149429
0.00149431
0.00149432
0.00147248
0.0014725
0.00147251
0.00144162
0.00144164
0.00144165
0.00140401
0.00140402
0.00140403
0.00136324
0.00136324
0.00136326
0.00132396
0.00132397
0.00132399
0.00129126
0.00129126
0.00129128
0.00127011
0.00127011
0.00127013
0.00126337
0.00126338
0.0012634
0.00126808
0.00126808
0.00126811
0.00127103
0.00127104
0.00127106
0.00124349
0.00124349
0.00124351
0.0011357
0.0011357
0.00113571
0.000827745
0.000827745
0.000827751
0.000845562
0.000845562
0.000845569
0.00110982
0.00110982
0.00110984
0.00122076
0.00122076
0.00122078
0.00125292
0.00125293
0.00125295
0.00124859
0.00124859
0.00124862
0.00123777
0.00123777
0.0012378
0.00123677
0.00123678
0.0012368
0.00125106
0.00125107
0.00125109
0.00127885
0.00127886
0.00127887
0.00131506
0.00131507
0.00131508
0.00135404
0.00135404
0.00135405
0.00139059
0.00139061
0.00139062
0.00142076
0.00142078
0.00142079
0.00144209
0.00144211
0.00144212
0.00145343
0.00145345
0.00145346
0.00145343
0.00145345
0.00145346
0.00144208
0.0014421
0.00144211
0.00142073
0.00142075
0.00142076
0.00139053
0.00139055
0.00139056
0.00135394
0.00135395
0.00135396
0.0013149
0.00131491
0.00131492
0.00127864
0.00127864
0.00127866
0.00125079
0.0012508
0.00125081
0.00123644
0.00123645
0.00123647
0.0012374
0.0012374
0.00123743
0.00124822
0.00124823
0.00124825
0.00125259
0.0012526
0.00125263
0.00122049
0.0012205
0.00122052
0.00110965
0.00110965
0.00110967
0.000845491
0.000845492
0.000845498
0.000861533
0.000861533
0.00086154
0.00108207
0.00108208
0.00108209
0.00119251
0.00119252
0.00119254
0.00122937
0.00122937
0.0012294
0.00122508
0.00122508
0.00122511
0.00120926
0.00120927
0.00120929
0.00120082
0.00120082
0.00120084
0.00120784
0.00120785
0.00120787
0.00123007
0.00123008
0.0012301
0.00126266
0.00126267
0.00126268
0.00129947
0.00129948
0.00129949
0.00133475
0.00133476
0.00133477
0.0013641
0.00136411
0.00136412
0.00138487
0.00138489
0.0013849
0.00139591
0.00139593
0.00139594
0.00139591
0.00139593
0.00139594
0.00138487
0.00138488
0.00138489
0.00136407
0.00136408
0.00136409
0.00133469
0.0013347
0.00133471
0.00129938
0.00129938
0.0012994
0.0012625
0.00126251
0.00126252
0.00122986
0.00122986
0.00122988
0.00120757
0.00120757
0.00120759
0.00120048
0.00120048
0.00120051
0.00120889
0.00120889
0.00120892
0.00122471
0.00122471
0.00122474
0.00122903
0.00122904
0.00122907
0.00119225
0.00119225
0.00119228
0.0010819
0.0010819
0.00108192
0.000861461
0.000861462
0.000861469
0.000876145
0.000876145
0.000876153
0.00105333
0.00105334
0.00105335
0.00115913
0.00115913
0.00115916
0.00120006
0.00120007
0.00120009
0.00119707
0.00119707
0.0011971
0.00117758
0.00117758
0.00117761
0.00116225
0.00116225
0.00116227
0.00116178
0.00116178
0.0011618
0.00117778
0.00117779
0.0011778
0.00120606
0.00120606
0.00120608
0.00124019
0.00124019
0.00124021
0.00127385
0.00127386
0.00127387
0.00130218
0.00130219
0.0013022
0.00132229
0.00132231
0.00132231
0.00133298
0.00133299
0.001333
0.00133298
0.00133299
0.001333
0.00132228
0.0013223
0.00132231
0.00130215
0.00130216
0.00130217
0.00127379
0.0012738
0.00127381
0.0012401
0.0012401
0.00124011
0.0012059
0.00120591
0.00120592
0.00117757
0.00117757
0.00117759
0.00116151
0.00116151
0.00116153
0.00116191
0.00116191
0.00116194
0.0011772
0.0011772
0.00117723
0.00119669
0.00119669
0.00119672
0.00119973
0.00119973
0.00119976
0.00115886
0.00115887
0.00115889
0.00105316
0.00105316
0.00105318
0.000876073
0.000876074
0.000876081
0.000889794
0.000889794
0.000889801
0.00102432
0.00102433
0.00102435
0.00112094
0.00112095
0.00112097
0.00116455
0.00116456
0.00116458
0.00116371
0.00116372
0.00116375
0.001142
0.001142
0.00114203
0.0011207
0.0011207
0.00112072
0.00111278
0.00111279
0.0011128
0.00112199
0.001122
0.00112201
0.0011452
0.00114521
0.00114522
0.00117603
0.00117603
0.00117605
0.00120765
0.00120766
0.00120767
0.00123471
0.00123472
0.00123473
0.00125401
0.00125403
0.00125404
0.00126428
0.0012643
0.0012643
0.00126428
0.00126429
0.0012643
0.00125401
0.00125402
0.00125403
0.00123468
0.00123469
0.0012347
0.00120759
0.00120761
0.00120761
0.00117594
0.00117594
0.00117596
0.00114505
0.00114506
0.00114507
0.00112178
0.00112179
0.0011218
0.00111251
0.00111252
0.00111253
0.00112036
0.00112037
0.00112039
0.00114162
0.00114162
0.00114165
0.00116333
0.00116334
0.00116337
0.00116421
0.00116422
0.00116425
0.00112067
0.00112068
0.0011207
0.00102415
0.00102415
0.00102417
0.000889722
0.000889722
0.00088973
0.0009028
0.0009028
0.000902808
0.000995777
0.000995782
0.000995801
0.00107849
0.0010785
0.00107852
0.00112262
0.00112262
0.00112265
0.00112429
0.00112429
0.00112432
0.00110178
0.00110178
0.00110181
0.00107576
0.00107576
0.00107578
0.00106081
0.00106081
0.00106083
0.00106283
0.00106283
0.00106285
0.0010802
0.0010802
0.00108022
0.00110697
0.00110698
0.00110699
0.00113603
0.00113604
0.00113605
0.00116148
0.0011615
0.0011615
0.00117981
0.00117982
0.00117983
0.00118957
0.00118959
0.00118959
0.00118957
0.00118959
0.00118959
0.0011798
0.00117982
0.00117982
0.00116146
0.00116147
0.00116147
0.00113597
0.00113598
0.00113599
0.00110689
0.00110689
0.0011069
0.00108006
0.00108006
0.00108007
0.00106263
0.00106263
0.00106265
0.00106055
0.00106055
0.00106057
0.00107542
0.00107543
0.00107545
0.0011014
0.00110141
0.00110143
0.00112391
0.00112391
0.00112394
0.00112228
0.00112229
0.00112232
0.00107822
0.00107823
0.00107825
0.000995602
0.000995607
0.000995627
0.00090273
0.00090273
0.000902738
0.000915379
0.000915379
0.000915386
0.000968401
0.000968406
0.000968426
0.00103253
0.00103254
0.00103256
0.00107435
0.00107435
0.00107438
0.00107827
0.00107827
0.0010783
0.00105628
0.00105628
0.0010563
0.00102706
0.00102706
0.00102708
0.00100591
0.00100591
0.00100593
0.00100061
0.00100061
0.00100063
0.00101139
0.00101139
0.0010114
0.00103324
0.00103324
0.00103325
0.00105906
0.00105907
0.00105907
0.00108251
0.00108252
0.00108252
0.00109963
0.00109964
0.00109965
0.0011088
0.00110882
0.00110882
0.0011088
0.00110882
0.00110882
0.00109962
0.00109964
0.00109964
0.00108248
0.00108249
0.00108249
0.001059
0.00105901
0.00105902
0.00103316
0.00103316
0.00103317
0.00101125
0.00101126
0.00101127
0.00100042
0.00100042
0.00100044
0.00100565
0.00100565
0.00100567
0.00102673
0.00102673
0.00102675
0.00105591
0.00105591
0.00105593
0.0010779
0.0010779
0.00107793
0.00107401
0.00107402
0.00107405
0.00103226
0.00103227
0.00103229
0.000968229
0.000968234
0.000968254
0.00091531
0.00091531
0.000915318
0.000927617
0.000927617
0.000927625
0.000942893
0.000942899
0.000942919
0.000984025
0.00098403
0.000984057
0.00102021
0.00102021
0.00102024
0.00102552
0.00102553
0.00102555
0.00100511
0.00100511
0.00100514
0.000974427
0.00097443
0.000974448
0.000948336
0.000948338
0.000948353
0.000935955
0.000935957
0.00093597
0.000939494
0.000939497
0.000939509
0.000955462
0.000955464
0.000955475
0.000977225
0.000977232
0.000977239
0.000998143
0.000998152
0.000998156
0.0010138
0.00101381
0.00101381
0.00102226
0.00102227
0.00102228
0.00102226
0.00102227
0.00102228
0.00101379
0.0010138
0.0010138
0.000998118
0.000998127
0.000998131
0.000977175
0.000977182