/*--------------------------------*- C++ -*----------------------------------*\
  =========                 |
  \\      /  F ield         | OpenFOAM: The Open Source CFD Toolbox
   \\    /   O peration     | Website:  https://openfoam.org
    \\  /    A nd           | Version:  6
     \\/     M anipulation  |
\*---------------------------------------------------------------------------*/
FoamFile
{
    version     2.0;
    format      ascii;
    class       volScalarField;
    location    "60";
    object      nut;
}
// * * * * * * * * * * * * * * * * * * * * * * * * * * * * * * * * * * * * * //

dimensions      [0 2 -1 0 0 0 0];

internalField   nonuniform List<scalar> 
3240
(
3.61162e-07
3.61162e-07
3.61164e-07
4.50301e-07
4.50304e-07
4.50301e-07
5.56897e-07
5.56901e-07
5.56901e-07
6.36785e-07
6.3679e-07
6.36792e-07
7.01901e-07
7.01908e-07
7.01911e-07
7.56895e-07
7.56902e-07
7.56906e-07
8.0498e-07
8.04985e-07
8.0499e-07
8.48518e-07
8.48523e-07
8.48528e-07
8.89021e-07
8.89025e-07
8.89031e-07
9.27092e-07
9.27094e-07
9.271e-07
9.6236e-07
9.62362e-07
9.62368e-07
9.935e-07
9.93504e-07
9.93515e-07
1.01882e-06
1.01882e-06
1.01884e-06
1.0369e-06
1.0369e-06
1.03692e-06
1.04672e-06
1.04672e-06
1.04674e-06
1.04671e-06
1.04672e-06
1.04674e-06
1.03689e-06
1.03689e-06
1.03691e-06
1.01881e-06
1.01881e-06
1.01882e-06
9.93478e-07
9.93482e-07
9.93493e-07
9.62328e-07
9.6233e-07
9.62336e-07
9.27041e-07
9.27044e-07
9.2705e-07
8.88959e-07
8.88962e-07
8.88968e-07
8.48443e-07
8.48448e-07
8.48453e-07
8.04892e-07
8.04898e-07
8.04903e-07
7.56804e-07
7.56811e-07
7.56815e-07
7.01818e-07
7.01824e-07
7.01828e-07
6.36713e-07
6.36718e-07
6.3672e-07
5.56839e-07
5.56843e-07
5.56842e-07
4.5026e-07
4.50263e-07
4.5026e-07
3.61128e-07
3.61128e-07
3.6113e-07
1.65906e-05
1.65906e-05
1.65906e-05
5.35477e-06
5.3548e-06
5.35477e-06
5.80851e-06
5.80855e-06
5.80853e-06
6.15479e-06
6.15483e-06
6.15483e-06
6.43151e-06
6.43156e-06
6.43157e-06
6.65948e-06
6.65952e-06
6.65954e-06
6.85446e-06
6.8545e-06
6.85452e-06
7.02764e-06
7.02767e-06
7.0277e-06
7.18571e-06
7.18573e-06
7.18576e-06
7.33137e-06
7.33139e-06
7.33142e-06
7.46385e-06
7.46386e-06
7.4639e-06
7.57889e-06
7.5789e-06
7.57897e-06
7.67114e-06
7.67114e-06
7.67125e-06
7.73638e-06
7.73638e-06
7.7365e-06
7.77157e-06
7.77156e-06
7.77168e-06
7.77156e-06
7.77156e-06
7.77168e-06
7.73636e-06
7.73636e-06
7.73648e-06
7.67108e-06
7.67108e-06
7.67119e-06
7.57878e-06
7.57879e-06
7.57886e-06
7.46368e-06
7.46369e-06
7.46372e-06
7.33109e-06
7.33111e-06
7.33114e-06
7.18535e-06
7.18538e-06
7.18541e-06
7.0272e-06
7.02724e-06
7.02726e-06
6.85394e-06
6.85398e-06
6.85401e-06
6.65895e-06
6.659e-06
6.65901e-06
6.43103e-06
6.43107e-06
6.43108e-06
6.15436e-06
6.1544e-06
6.15439e-06
5.80814e-06
5.80817e-06
5.80815e-06
5.35447e-06
5.35449e-06
5.35446e-06
1.65899e-05
1.65899e-05
1.659e-05
1.79835e-05
1.79835e-05
1.79835e-05
9.39765e-06
9.39771e-06
9.39763e-06
9.87265e-06
9.87272e-06
9.87267e-06
1.03298e-05
1.03299e-05
1.03299e-05
1.07209e-05
1.0721e-05
1.0721e-05
1.1053e-05
1.10531e-05
1.10531e-05
1.13422e-05
1.13423e-05
1.13423e-05
1.16021e-05
1.16022e-05
1.16023e-05
1.1841e-05
1.18411e-05
1.18411e-05
1.20618e-05
1.20619e-05
1.20619e-05
1.22629e-05
1.22629e-05
1.2263e-05
1.24375e-05
1.24375e-05
1.24377e-05
1.25775e-05
1.25775e-05
1.25778e-05
1.26766e-05
1.26766e-05
1.26768e-05
1.27299e-05
1.27299e-05
1.27302e-05
1.27299e-05
1.27299e-05
1.27302e-05
1.26765e-05
1.26765e-05
1.26768e-05
1.25774e-05
1.25774e-05
1.25776e-05
1.24373e-05
1.24373e-05
1.24375e-05
1.22626e-05
1.22626e-05
1.22626e-05
1.20613e-05
1.20613e-05
1.20614e-05
1.18404e-05
1.18404e-05
1.18405e-05
1.16013e-05
1.16014e-05
1.16014e-05
1.13412e-05
1.13413e-05
1.13413e-05
1.1052e-05
1.10521e-05
1.10521e-05
1.072e-05
1.07201e-05
1.07201e-05
1.0329e-05
1.03291e-05
1.0329e-05
9.87193e-06
9.87199e-06
9.87194e-06
9.39703e-06
9.39709e-06
9.397e-06
1.79828e-05
1.79828e-05
1.79828e-05
1.93082e-05
1.93082e-05
1.93083e-05
1.37845e-05
1.37846e-05
1.37844e-05
1.41971e-05
1.41972e-05
1.41971e-05
1.47259e-05
1.4726e-05
1.4726e-05
1.52156e-05
1.52158e-05
1.52158e-05
1.56462e-05
1.56464e-05
1.56464e-05
1.60289e-05
1.6029e-05
1.60291e-05
1.63775e-05
1.63776e-05
1.63777e-05
1.67003e-05
1.67004e-05
1.67005e-05
1.69996e-05
1.69997e-05
1.69998e-05
1.72726e-05
1.72726e-05
1.72727e-05
1.75097e-05
1.75097e-05
1.751e-05
1.76998e-05
1.76998e-05
1.77002e-05
1.78343e-05
1.78343e-05
1.78347e-05
1.79066e-05
1.79066e-05
1.7907e-05
1.79066e-05
1.79066e-05
1.7907e-05
1.78342e-05
1.78342e-05
1.78346e-05
1.76996e-05
1.76996e-05
1.77e-05
1.75094e-05
1.75094e-05
1.75096e-05
1.7272e-05
1.72721e-05
1.72722e-05
1.69987e-05
1.69988e-05
1.69989e-05
1.66992e-05
1.66993e-05
1.66994e-05
1.63762e-05
1.63763e-05
1.63763e-05
1.60273e-05
1.60274e-05
1.60275e-05
1.56446e-05
1.56447e-05
1.56447e-05
1.52141e-05
1.52143e-05
1.52143e-05
1.47245e-05
1.47246e-05
1.47246e-05
1.41959e-05
1.4196e-05
1.41959e-05
1.37835e-05
1.37836e-05
1.37834e-05
1.93075e-05
1.93075e-05
1.93075e-05
2.05847e-05
2.05847e-05
2.05847e-05
1.8638e-05
1.86381e-05
1.86379e-05
1.89329e-05
1.89331e-05
1.8933e-05
1.94886e-05
1.94888e-05
1.94888e-05
2.00583e-05
2.00585e-05
2.00585e-05
2.05815e-05
2.05818e-05
2.05818e-05
2.10587e-05
2.10589e-05
2.1059e-05
2.15004e-05
2.15005e-05
2.15007e-05
2.19132e-05
2.19133e-05
2.19134e-05
2.22976e-05
2.22977e-05
2.22979e-05
2.2649e-05
2.2649e-05
2.26492e-05
2.29544e-05
2.29544e-05
2.29548e-05
2.31992e-05
2.31992e-05
2.31997e-05
2.33723e-05
2.33723e-05
2.33729e-05
2.34653e-05
2.34653e-05
2.34659e-05
2.34653e-05
2.34653e-05
2.34659e-05
2.33723e-05
2.33723e-05
2.33728e-05
2.3199e-05
2.3199e-05
2.31995e-05
2.29539e-05
2.2954e-05
2.29543e-05
2.26482e-05
2.26483e-05
2.26484e-05
2.22964e-05
2.22964e-05
2.22966e-05
2.19116e-05
2.19117e-05
2.19118e-05
2.14984e-05
2.14985e-05
2.14986e-05
2.10563e-05
2.10565e-05
2.10566e-05
2.05791e-05
2.05793e-05
2.05794e-05
2.00561e-05
2.00563e-05
2.00563e-05
1.94867e-05
1.94868e-05
1.94868e-05
1.89311e-05
1.89313e-05
1.89312e-05
1.86364e-05
1.86366e-05
1.86363e-05
2.05839e-05
2.05839e-05
2.05839e-05
2.1826e-05
2.1826e-05
2.1826e-05
2.39998e-05
2.39999e-05
2.39997e-05
2.41636e-05
2.41638e-05
2.41637e-05
2.46956e-05
2.46958e-05
2.46958e-05
2.53192e-05
2.53195e-05
2.53195e-05
2.59254e-05
2.59257e-05
2.59258e-05
2.64964e-05
2.64966e-05
2.64968e-05
2.70358e-05
2.7036e-05
2.70361e-05
2.75457e-05
2.75458e-05
2.7546e-05
2.80233e-05
2.80234e-05
2.80236e-05
2.84611e-05
2.84612e-05
2.84614e-05
2.88419e-05
2.8842e-05
2.88424e-05
2.91473e-05
2.91473e-05
2.9148e-05
2.93631e-05
2.93631e-05
2.93639e-05
2.94789e-05
2.94788e-05
2.94797e-05
2.94789e-05
2.94788e-05
2.94797e-05
2.9363e-05
2.9363e-05
2.93638e-05
2.91469e-05
2.91469e-05
2.91476e-05
2.88413e-05
2.88413e-05
2.88418e-05
2.846e-05
2.84601e-05
2.84603e-05
2.80215e-05
2.80217e-05
2.80219e-05
2.75434e-05
2.75436e-05
2.75438e-05
2.70329e-05
2.70332e-05
2.70333e-05
2.6493e-05
2.64933e-05
2.64934e-05
2.5922e-05
2.59223e-05
2.59223e-05
2.5316e-05
2.53163e-05
2.53163e-05
2.46928e-05
2.4693e-05
2.4693e-05
2.41611e-05
2.41613e-05
2.41611e-05
2.39976e-05
2.39978e-05
2.39975e-05
2.18251e-05
2.18251e-05
2.18252e-05
2.30405e-05
2.30405e-05
2.30406e-05
2.98791e-05
2.98794e-05
2.9879e-05
2.9956e-05
2.99563e-05
2.99561e-05
3.0411e-05
3.04113e-05
3.04113e-05
3.10541e-05
3.10544e-05
3.10545e-05
3.17277e-05
3.17281e-05
3.17282e-05
3.2389e-05
3.23893e-05
3.23895e-05
3.30296e-05
3.30299e-05
3.30301e-05
3.36439e-05
3.36441e-05
3.36444e-05
3.42236e-05
3.42238e-05
3.4224e-05
3.47569e-05
3.4757e-05
3.47572e-05
3.52213e-05
3.52215e-05
3.52221e-05
3.55939e-05
3.55939e-05
3.55948e-05
3.58571e-05
3.58572e-05
3.58582e-05
3.59982e-05
3.59981e-05
3.59992e-05
3.59982e-05
3.59981e-05
3.59992e-05
3.5857e-05
3.58571e-05
3.58581e-05
3.55934e-05
3.55934e-05
3.55944e-05
3.52205e-05
3.52206e-05
3.52212e-05
3.47554e-05
3.47556e-05
3.47558e-05
3.42212e-05
3.42214e-05
3.42217e-05
3.36409e-05
3.36411e-05
3.36413e-05
3.30258e-05
3.30261e-05
3.30263e-05
3.23845e-05
3.23848e-05
3.2385e-05
3.1723e-05
3.17234e-05
3.17236e-05
3.10498e-05
3.10501e-05
3.10502e-05
3.04072e-05
3.04075e-05
3.04074e-05
2.99525e-05
2.99528e-05
2.99526e-05
2.98762e-05
2.98765e-05
2.9876e-05
2.30396e-05
2.30397e-05
2.30397e-05
2.42334e-05
2.42334e-05
2.42334e-05
3.62625e-05
3.62628e-05
3.62623e-05
3.63679e-05
3.63682e-05
3.6368e-05
3.66972e-05
3.66976e-05
3.66976e-05
3.73163e-05
3.73168e-05
3.73169e-05
3.80343e-05
3.80348e-05
3.8035e-05
3.87781e-05
3.87785e-05
3.87788e-05
3.95216e-05
3.95219e-05
3.95222e-05
4.02473e-05
4.02475e-05
4.02478e-05
4.09384e-05
4.09386e-05
4.09389e-05
4.15771e-05
4.15772e-05
4.15775e-05
4.21344e-05
4.21345e-05
4.21353e-05
4.25816e-05
4.25816e-05
4.25828e-05
4.28975e-05
4.28975e-05
4.28989e-05
4.30665e-05
4.30664e-05
4.30679e-05
4.30665e-05
4.30665e-05
4.30679e-05
4.28974e-05
4.28974e-05
4.28988e-05
4.2581e-05
4.2581e-05
4.25822e-05
4.21333e-05
4.21334e-05
4.21342e-05
4.15752e-05
4.15753e-05
4.15757e-05
4.09353e-05
4.09355e-05
4.09358e-05
4.02433e-05
4.02435e-05
4.02438e-05
3.95166e-05
3.9517e-05
3.95172e-05
3.87722e-05
3.87727e-05
3.87729e-05
3.80283e-05
3.80288e-05
3.80289e-05
3.73107e-05
3.73112e-05
3.73112e-05
3.66921e-05
3.66925e-05
3.66924e-05
3.63633e-05
3.63636e-05
3.63633e-05
3.62588e-05
3.62591e-05
3.62586e-05
2.42325e-05
2.42325e-05
2.42325e-05
2.54069e-05
2.54069e-05
2.54069e-05
4.31167e-05
4.31171e-05
4.31165e-05
4.34476e-05
4.3448e-05
4.34477e-05
4.36166e-05
4.36171e-05
4.36171e-05
4.41606e-05
4.41612e-05
4.41613e-05
4.48912e-05
4.48918e-05
4.4892e-05
4.57038e-05
4.57043e-05
4.57046e-05
4.65488e-05
4.65492e-05
4.65496e-05
4.73919e-05
4.73922e-05
4.73926e-05
4.82041e-05
4.82043e-05
4.82047e-05
4.89589e-05
4.89591e-05
4.89595e-05
4.96191e-05
4.96193e-05
4.96203e-05
5.01492e-05
5.01493e-05
5.01508e-05
5.05236e-05
5.05237e-05
5.05254e-05
5.07236e-05
5.07236e-05
5.07253e-05
5.07236e-05
5.07236e-05
5.07254e-05
5.05235e-05
5.05236e-05
5.05252e-05
5.01485e-05
5.01486e-05
5.01501e-05
4.96177e-05
4.96179e-05
4.96189e-05
4.89566e-05
4.89568e-05
4.89572e-05
4.82001e-05
4.82004e-05
4.82008e-05
4.73869e-05
4.73872e-05
4.73876e-05
4.65425e-05
4.6543e-05
4.65433e-05
4.56963e-05
4.56968e-05
4.56971e-05
4.48834e-05
4.4884e-05
4.48842e-05
4.41533e-05
4.41539e-05
4.4154e-05
4.361e-05
4.36105e-05
4.36104e-05
4.34417e-05
4.34421e-05
4.34417e-05
4.31121e-05
4.31125e-05
4.31118e-05
2.54059e-05
2.54059e-05
2.54059e-05
2.65609e-05
2.6561e-05
2.6561e-05
5.03896e-05
5.03901e-05
5.03894e-05
5.12308e-05
5.12313e-05
5.1231e-05
5.12318e-05
5.12324e-05
5.12324e-05
5.16439e-05
5.16446e-05
5.16448e-05
5.23454e-05
5.23461e-05
5.23465e-05
5.32059e-05
5.32065e-05
5.32069e-05
5.41473e-05
5.41478e-05
5.41483e-05
5.51123e-05
5.51126e-05
5.51131e-05
5.60549e-05
5.60552e-05
5.60557e-05
5.69373e-05
5.69375e-05
5.69381e-05
5.77113e-05
5.77116e-05
5.77128e-05
5.83334e-05
5.83335e-05
5.83353e-05
5.87726e-05
5.87727e-05
5.87747e-05
5.90069e-05
5.90069e-05
5.9009e-05
5.90069e-05
5.9007e-05
5.90091e-05
5.87724e-05
5.87726e-05
5.87746e-05
5.83325e-05
5.83326e-05
5.83344e-05
5.77096e-05
5.77099e-05
5.77111e-05
5.69344e-05
5.69346e-05
5.69351e-05
5.605e-05
5.60503e-05
5.60508e-05
5.51059e-05
5.51063e-05
5.51068e-05
5.41394e-05
5.414e-05
5.41404e-05
5.31965e-05
5.31971e-05
5.31975e-05
5.23356e-05
5.23363e-05
5.23366e-05
5.16347e-05
5.16354e-05
5.16355e-05
5.12234e-05
5.1224e-05
5.12239e-05
5.12233e-05
5.12239e-05
5.12234e-05
5.0384e-05
5.03845e-05
5.03837e-05
2.65599e-05
2.65599e-05
2.65599e-05
2.76935e-05
2.76935e-05
2.76935e-05
5.80114e-05
5.8012e-05
5.80111e-05
5.97362e-05
5.97369e-05
5.97365e-05
5.96028e-05
5.96035e-05
5.96035e-05
5.98257e-05
5.98265e-05
5.98268e-05
6.04461e-05
6.04469e-05
6.04473e-05
6.13246e-05
6.13253e-05
6.13259e-05
6.23518e-05
6.23524e-05
6.2353e-05
6.34407e-05
6.34411e-05
6.34417e-05
6.45228e-05
6.45231e-05
6.45238e-05
6.55446e-05
6.55448e-05
6.55455e-05
6.64442e-05
6.64445e-05
6.6446e-05
6.7168e-05
6.71682e-05
6.71703e-05
6.7679e-05
6.76792e-05
6.76815e-05
6.79511e-05
6.79512e-05
6.79537e-05
6.79512e-05
6.79513e-05
6.79538e-05
6.76788e-05
6.7679e-05
6.76813e-05
6.71669e-05
6.71671e-05
6.71692e-05
6.64421e-05
6.64424e-05
6.64438e-05
6.5541e-05
6.55413e-05
6.55419e-05
6.45168e-05
6.45171e-05
6.45177e-05
6.34328e-05
6.34333e-05
6.34339e-05
6.23421e-05
6.23428e-05
6.23432e-05
6.1313e-05
6.13138e-05
6.13142e-05
6.04339e-05
6.04347e-05
6.04351e-05
5.98141e-05
5.98149e-05
5.98152e-05
5.95922e-05
5.95929e-05
5.95929e-05
5.9727e-05
5.97276e-05
5.97271e-05
5.80048e-05
5.80053e-05
5.80044e-05
2.76924e-05
2.76924e-05
2.76924e-05
2.88005e-05
2.88005e-05
2.88006e-05
6.58946e-05
6.58952e-05
6.58943e-05
6.8961e-05
6.89618e-05
6.89613e-05
6.87837e-05
6.87845e-05
6.87846e-05
6.87666e-05
6.87675e-05
6.87679e-05
6.9244e-05
6.92449e-05
6.92455e-05
7.01004e-05
7.01013e-05
7.01019e-05
7.11958e-05
7.11966e-05
7.11973e-05
7.24072e-05
7.24077e-05
7.24085e-05
7.36367e-05
7.36371e-05
7.36379e-05
7.481e-05
7.48103e-05
7.48111e-05
7.58477e-05
7.58481e-05
7.58498e-05
7.66838e-05
7.66841e-05
7.66866e-05
7.7274e-05
7.72743e-05
7.72771e-05
7.75879e-05
7.75881e-05
7.7591e-05
7.7588e-05
7.75882e-05
7.75911e-05
7.72738e-05
7.72741e-05
7.72769e-05
7.66825e-05
7.66828e-05
7.66853e-05
7.58451e-05
7.58456e-05
7.58472e-05
7.48057e-05
7.4806e-05
7.48067e-05
7.36294e-05
7.36299e-05
7.36306e-05
7.23977e-05
7.23982e-05
7.2399e-05
7.1184e-05
7.11848e-05
7.11854e-05
7.00863e-05
7.00872e-05
7.00877e-05
6.92291e-05
6.923e-05
6.92305e-05
6.87524e-05
6.87533e-05
6.87536e-05
6.87707e-05
6.87715e-05
6.87715e-05
6.89498e-05
6.89505e-05
6.895e-05
6.58869e-05
6.58875e-05
6.58865e-05
2.87994e-05
2.87994e-05
2.87994e-05
2.98764e-05
2.98764e-05
2.98764e-05
7.3934e-05
7.39347e-05
7.39337e-05
7.88766e-05
7.88775e-05
7.8877e-05
7.8818e-05
7.8819e-05
7.88191e-05
7.8527e-05
7.85281e-05
7.85286e-05
7.87915e-05
7.87926e-05
7.87933e-05
7.95738e-05
7.95748e-05
7.95756e-05
8.07112e-05
8.07121e-05
8.07129e-05
8.20389e-05
8.20395e-05
8.20404e-05
8.3422e-05
8.34224e-05
8.34233e-05
8.47586e-05
8.4759e-05
8.476e-05
8.59475e-05
8.59481e-05
8.59501e-05
8.69074e-05
8.69079e-05
8.69107e-05
8.75849e-05
8.75853e-05
8.75885e-05
8.79447e-05
8.7945e-05
8.79483e-05
8.79448e-05
8.79451e-05
8.79484e-05
8.75846e-05
8.75851e-05
8.75882e-05
8.69058e-05
8.69062e-05
8.69091e-05
8.59445e-05
8.5945e-05
8.5947e-05
8.47535e-05
8.47539e-05
8.47547e-05
8.34132e-05
8.34137e-05
8.34146e-05
8.20275e-05
8.20281e-05
8.2029e-05
8.0697e-05
8.06979e-05
8.06986e-05
7.95567e-05
7.95577e-05
7.95584e-05
7.87734e-05
7.87745e-05
7.87751e-05
7.85096e-05
7.85106e-05
7.85111e-05
7.88021e-05
7.8803e-05
7.88031e-05
7.88631e-05
7.8864e-05
7.88634e-05
7.39252e-05
7.39259e-05
7.39248e-05
2.98752e-05
2.98752e-05
2.98752e-05
3.09142e-05
3.09142e-05
3.09143e-05
8.20072e-05
8.20081e-05
8.2007e-05
8.94256e-05
8.94267e-05
8.94262e-05
8.97325e-05
8.97337e-05
8.97339e-05
8.91636e-05
8.91649e-05
8.91656e-05
8.91413e-05
8.91425e-05
8.91434e-05
8.97847e-05
8.97858e-05
8.97868e-05
9.09273e-05
9.09283e-05
9.09293e-05
9.23588e-05
9.23595e-05
9.23606e-05
9.38987e-05
9.38993e-05
9.39004e-05
9.54103e-05
9.54107e-05
9.54118e-05
9.67639e-05
9.67646e-05
9.67669e-05
9.78596e-05
9.78602e-05
9.78634e-05
9.86329e-05
9.86335e-05
9.86371e-05
9.9043e-05
9.90434e-05
9.90472e-05
9.90431e-05
9.90436e-05
9.90473e-05
9.86326e-05
9.86332e-05
9.86368e-05
9.78577e-05
9.78583e-05
9.78615e-05
9.67603e-05
9.6761e-05
9.67632e-05
9.54042e-05
9.54046e-05
9.54056e-05
9.38883e-05
9.38889e-05
9.38899e-05
9.23452e-05
9.23459e-05
9.2347e-05
9.09103e-05
9.09114e-05
9.09123e-05
8.97643e-05
8.97654e-05
8.97663e-05
8.91194e-05
8.91207e-05
8.91215e-05
8.91425e-05
8.91437e-05
8.91443e-05
8.97133e-05
8.97144e-05
8.97146e-05
8.94096e-05
8.94107e-05
8.941e-05
8.19973e-05
8.19981e-05
8.19969e-05
3.0913e-05
3.0913e-05
3.0913e-05
3.19062e-05
3.19062e-05
3.19062e-05
8.99752e-05
8.99762e-05
8.99751e-05
0.00010052
0.000100521
0.000100521
0.000101531
0.000101532
0.000101532
0.000100725
0.000100727
0.000100727
0.000100345
0.000100346
0.000100347
0.000100772
0.000100773
0.000100774
0.00010187
0.000101871
0.000101873
0.000103385
0.000103386
0.000103387
0.000105081
0.000105082
0.000105083
0.000106777
0.000106778
0.000106779
0.00010831
0.00010831
0.000108313
0.000109554
0.000109554
0.000109558
0.000110432
0.000110433
0.000110437
0.000110897
0.000110897
0.000110902
0.000110897
0.000110898
0.000110902
0.000110432
0.000110432
0.000110436
0.000109551
0.000109552
0.000109556
0.000108305
0.000108306
0.000108309
0.00010677
0.000106771
0.000106772
0.000105069
0.000105069
0.000105071
0.000103369
0.000103369
0.000103371
0.00010185
0.000101851
0.000101852
0.000100748
0.000100749
0.00010075
0.000100318
0.00010032
0.000100321
0.0001007
0.000100701
0.000100702
0.000101508
0.000101509
0.000101509
0.000100501
0.000100502
0.000100502
8.99641e-05
8.99651e-05
8.99639e-05
3.19049e-05
3.19049e-05
3.19049e-05
3.28442e-05
3.28442e-05
3.28442e-05
9.76841e-05
9.76852e-05
9.76842e-05
0.00011204
0.000112042
0.000112041
0.000114186
0.000114188
0.000114188
0.000113247
0.000113248
0.00011325
0.000112449
0.00011245
0.000112452
0.000112571
0.000112573
0.000112574
0.000113562
0.000113563
0.000113564
0.000115128
0.000115129
0.000115131
0.000116974
0.000116975
0.000116976
0.000118864
0.000118864
0.000118866
0.000120588
0.000120589
0.000120592
0.000121993
0.000121994
0.000121998
0.000122986
0.000122987
0.000122991
0.000123511
0.000123511
0.000123516
0.000123511
0.000123512
0.000123516
0.000122985
0.000122986
0.000122991
0.000121991
0.000121992
0.000121995
0.000120583
0.000120584
0.000120587
0.000118855
0.000118856
0.000118857
0.00011696
0.000116961
0.000116962
0.000115109
0.00011511
0.000115112
0.000113538
0.000113539
0.000113541
0.000112543
0.000112544
0.000112546
0.000112417
0.000112419
0.00011242
0.000113216
0.000113218
0.000113219
0.000114159
0.00011416
0.000114161
0.000112019
0.00011202
0.00011202
9.76718e-05
9.76729e-05
9.76717e-05
3.28428e-05
3.28428e-05
3.28429e-05
3.37205e-05
3.37205e-05
3.37206e-05
0.000104969
0.00010497
0.000104969
0.000123838
0.000123839
0.000123839
0.000127635
0.000127637
0.000127638
0.000126742
0.000126744
0.000126746
0.000125492
0.000125494
0.000125496
0.000125215
0.000125217
0.000125219
0.000126017
0.000126019
0.000126021
0.000127592
0.000127593
0.000127595
0.000129574
0.000129575
0.000129577
0.000131661
0.000131662
0.000131664
0.00013359
0.000133591
0.000133594
0.00013517
0.000135171
0.000135175
0.000136286
0.000136288
0.000136292
0.000136876
0.000136877
0.000136882
0.000136876
0.000136877
0.000136882
0.000136286
0.000136287
0.000136292
0.000135167
0.000135168
0.000135172
0.000133584
0.000133585
0.000133588
0.000131652
0.000131652
0.000131654
0.000129557
0.000129558
0.00012956
0.00012757
0.000127571
0.000127573
0.000125989
0.000125991
0.000125993
0.000125181
0.000125183
0.000125185
0.000125455
0.000125457
0.000125459
0.000126706
0.000126708
0.00012671
0.000127603
0.000127605
0.000127606
0.000123813
0.000123815
0.000123814
0.000104955
0.000104957
0.000104956
3.37191e-05
3.37191e-05
3.37192e-05
3.45286e-05
3.45287e-05
3.45287e-05
0.00011166
0.000111661
0.00011166
0.000135735
0.000135737
0.000135737
0.000141774
0.000141776
0.000141777
0.000141197
0.000141199
0.000141202
0.000139501
0.000139504
0.000139506
0.000138727
0.000138729
0.000138732
0.000139246
0.000139248
0.00013925
0.000140769
0.000140771
0.000140773
0.000142864
0.000142865
0.000142867
0.000145148
0.000145149
0.000145151
0.000147292
0.000147293
0.000147297
0.000149059
0.000149061
0.000149065
0.000150309
0.000150311
0.000150316
0.000150969
0.00015097
0.000150975
0.000150969
0.00015097
0.000150975
0.000150309
0.000150311
0.000150315
0.000149056
0.000149057
0.000149062
0.000147285
0.000147287
0.00014729
0.000145137
0.000145138
0.00014514
0.000142845
0.000142846
0.000142848
0.000140743
0.000140745
0.000140747
0.000139214
0.000139215
0.000139218
0.000138688
0.00013869
0.000138692
0.000139458
0.00013946
0.000139463
0.000141154
0.000141157
0.000141159
0.000141737
0.000141739
0.00014174
0.000135707
0.000135709
0.000135709
0.000111645
0.000111647
0.000111646
3.45272e-05
3.45272e-05
3.45273e-05
3.52639e-05
3.5264e-05
3.5264e-05
0.000117591
0.000117592
0.000117592
0.000147531
0.000147534
0.000147534
0.000156453
0.000156456
0.000156458
0.000156558
0.000156561
0.000156564
0.000154481
0.000154484
0.000154487
0.000153123
0.000153125
0.000153128
0.000153247
0.000153249
0.000153252
0.000154641
0.000154643
0.000154646
0.000156812
0.000156813
0.000156816
0.000159286
0.000159287
0.00015929
0.000161653
0.000161654
0.000161658
0.000163619
0.000163621
0.000163625
0.000165013
0.000165015
0.00016502
0.000165746
0.000165748
0.000165753
0.000165747
0.000165748
0.000165754
0.000165012
0.000165014
0.000165019
0.000163615
0.000163617
0.000163621
0.000161645
0.000161647
0.00016165
0.000159274
0.000159275
0.000159277
0.00015679
0.000156791
0.000156793
0.000154612
0.000154613
0.000154616
0.000153209
0.000153212
0.000153214
0.000153076
0.000153079
0.000153082
0.00015443
0.000154433
0.000154436
0.000156508
0.000156511
0.000156514
0.00015641
0.000156413
0.000156415
0.0001475
0.000147502
0.000147503
0.000117575
0.000117577
0.000117576
3.52625e-05
3.52625e-05
3.52625e-05
3.59243e-05
3.59244e-05
3.59244e-05
0.00012261
0.000122612
0.000122612
0.000159006
0.000159009
0.000159009
0.00017148
0.000171483
0.000171486
0.000172726
0.000172729
0.000172733
0.000170408
0.000170412
0.000170416
0.0001684
0.000168403
0.000168407
0.000168008
0.000168011
0.000168014
0.000169176
0.000169178
0.000169181
0.000171369
0.000171371
0.000171374
0.000174017
0.000174018
0.00017402
0.000176609
0.000176611
0.000176615
0.000178784
0.000178786
0.000178791
0.00018033
0.000180332
0.000180337
0.000181143
0.000181145
0.00018115
0.000181143
0.000181145
0.00018115
0.000180329
0.000180331
0.000180336
0.000178779
0.000178782
0.000178786
0.0001766
0.000176602
0.000176606
0.000174002
0.000174003
0.000174006
0.000171344
0.000171345
0.000171348
0.000169142
0.000169144
0.000169147
0.000167964
0.000167967
0.00016797
0.000168346
0.000168349
0.000168353
0.000170349
0.000170352
0.000170356
0.000172668
0.000172671
0.000172675
0.000171431
0.000171434
0.000171437
0.000158971
0.000158974
0.000158974
0.000122594
0.000122595
0.000122595
3.59228e-05
3.59229e-05
3.59229e-05
3.65108e-05
3.65108e-05
3.65109e-05
0.000126595
0.000126596
0.000126596
0.000169922
0.000169925
0.000169926
0.000186618
0.000186622
0.000186625
0.000189547
0.000189552
0.000189557
0.00018722
0.000187224
0.00018723
0.000184536
0.00018454
0.000184545
0.000183501
0.000183504
0.000183509
0.000184324
0.000184326
0.00018433
0.000186467
0.000186469
0.000186473
0.000189257
0.000189258
0.000189261
0.000192071
0.000192073
0.000192077
0.000194462
0.000194465
0.000194469
0.000196167
0.00019617
0.000196175
0.000197064
0.000197066
0.000197072
0.000197064
0.000197067
0.000197072
0.000196167
0.00019617
0.000196175
0.000194457
0.00019446
0.000194464
0.000192061
0.000192063
0.000192067
0.00018924
0.000189242
0.000189245
0.000186438
0.00018644
0.000186443
0.000184285
0.000184287
0.000184291
0.000183451
0.000183454
0.000183458
0.000184474
0.000184478
0.000184483
0.000187151
0.000187155
0.00018716
0.00018948
0.000189485
0.00018949
0.000186562
0.000186566
0.000186569
0.000169883
0.000169886
0.000169887
0.000126577
0.000126579
0.000126579
3.65092e-05
3.65093e-05
3.65094e-05
3.70273e-05
3.70273e-05
3.70274e-05
0.000129456
0.000129458
0.000129458
0.000180032
0.000180036
0.000180038
0.000201591
0.000201595
0.0002016
0.000206812
0.000206817
0.000206823
0.000204806
0.000204811
0.000204818
0.000201481
0.000201486
0.000201491
0.000199681
0.000199686
0.000199691
0.000200019
0.000200022
0.000200027
0.000202014
0.000202017
0.000202021
0.000204899
0.0002049
0.000204904
0.000207921
0.000207924
0.000207928
0.00021053
0.000210533
0.000210538
0.000212401
0.000212404
0.000212409
0.000213384
0.000213387
0.000213392
0.000213384
0.000213387
0.000213392
0.0002124
0.000212403
0.000212408
0.000210525
0.000210528
0.000210532
0.000207909
0.000207912
0.000207917
0.00020488
0.000204882
0.000204885
0.000201981
0.000201984
0.000201988
0.000199974
0.000199977
0.000199982
0.000199624
0.000199628
0.000199633
0.000201409
0.000201414
0.000201419
0.000204726
0.000204731
0.000204738
0.000206735
0.00020674
0.000206747
0.000201528
0.000201532
0.000201537
0.000179989
0.000179993
0.000179995
0.000129437
0.000129439
0.000129439
3.70257e-05
3.70258e-05
3.70259e-05
3.74808e-05
3.74808e-05
3.7481e-05
0.000131152
0.000131154
0.000131155
0.000189085
0.000189089
0.000189093
0.000216091
0.000216096
0.000216103
0.000224249
0.000224255
0.000224263
0.000222997
0.000223004
0.000223011
0.000219145
0.000219151
0.000219157
0.000216481
0.000216486
0.000216492
0.000216175
0.000216179
0.000216184
0.000217897
0.0002179
0.000217905
0.000220804
0.000220806
0.000220811
0.000224007
0.000224011
0.000224015
0.00022683
0.000226833
0.000226838
0.000228868
0.000228872
0.000228877
0.00022994
0.000229943
0.000229948
0.00022994
0.000229943
0.000229949
0.000228867
0.000228871
0.000228876
0.000226824
0.000226827
0.000226832
0.000223994
0.000223998
0.000224002
0.000220783
0.000220786
0.00022079
0.000217859
0.000217863
0.000217867
0.000216123
0.000216128
0.000216133
0.000216415
0.00021642
0.000216426
0.000219062
0.000219068
0.000219074
0.000222905
0.000222912
0.000222919
0.000224161
0.000224167
0.000224176
0.00021602
0.000216026
0.000216032
0.000189039
0.000189042
0.000189046
0.000131132
0.000131134
0.000131135
3.74792e-05
3.74793e-05
3.74794e-05
3.78804e-05
3.78804e-05
3.78806e-05
0.000131687
0.000131689
0.00013169
0.00019683
0.000196835
0.000196839
0.000229782
0.000229789
0.000229797
0.000241531
0.000241539
0.000241548
0.00024156
0.000241569
0.000241577
0.000237393
0.0002374
0.000237408
0.000233805
0.000233812
0.000233819
0.000232685
0.00023269
0.000232696
0.000233975
0.00023398
0.000233985
0.000236805
0.000236808
0.000236813
0.000240142
0.000240146
0.000240151
0.000243164
0.000243168
0.000243172
0.000245367
0.000245371
0.000245375
0.000246527
0.000246531
0.000246536
0.000246528
0.000246531
0.000246536
0.000245366
0.00024537
0.000245375
0.000243157
0.00024316
0.000243165
0.000240127
0.000240132
0.000240136
0.000236782
0.000236785
0.00023679
0.000233933
0.000233937
0.000233943
0.000232627
0.000232632
0.000232638
0.00023373
0.000233737
0.000233743
0.000237297
0.000237305
0.000237313
0.000241455
0.000241463
0.000241473
0.000241432
0.00024144
0.00024145
0.000229704
0.00022971
0.000229719
0.000196779
0.000196784
0.000196788
0.000131666
0.000131668
0.000131669
3.78788e-05
3.78789e-05
3.7879e-05
3.82364e-05
3.82364e-05
3.82366e-05
0.000131109
0.000131111
0.000131113
0.000203024
0.000203028
0.000203034
0.00024231
0.000242318
0.000242327
0.000258283
0.000258293
0.000258304
0.000260195
0.000260206
0.000260216
0.000256037
0.000256047
0.000256055
0.000251531
0.00025154
0.000251547
0.000249425
0.000249432
0.000249439
0.000250091
0.000250096
0.000250102
0.000252705
0.000252708
0.000252714
0.000256102
0.000256107
0.000256111
0.000259293
0.000259297
0.000259302
0.000261652
0.000261656
0.000261661
0.000262899
0.000262903
0.000262908
0.000262899
0.000262903
0.000262908
0.000261651
0.000261655
0.00026166
0.000259285
0.000259289
0.000259294
0.000256085
0.00025609
0.000256095
0.000252679
0.000252683
0.000252688
0.000250043
0.000250049
0.000250055
0.00024936
0.000249367
0.000249374
0.000251445
0.000251454
0.000251461
0.000255928
0.000255938
0.000255947
0.000260076
0.000260086
0.000260097
0.000258172
0.000258182
0.000258193
0.000242224
0.000242231
0.000242241
0.000202968
0.000202973
0.000202979
0.000131087
0.000131089
0.000131091
3.82348e-05
3.82349e-05
3.8235e-05
3.85593e-05
3.85593e-05
3.85594e-05
0.000129506
0.000129508
0.000129511
0.000207435
0.00020744
0.000207447
0.000253306
0.000253315
0.000253326
0.000274089
0.000274101
0.000274113
0.000278539
0.000278552
0.000278564
0.000274833
0.000274845
0.000274855
0.000269505
0.000269515
0.000269524
0.000266256
0.000266265
0.000266272
0.000266067
0.000266074
0.000266081
0.00026828
0.000268285
0.000268291
0.000271629
0.000271635
0.000271639
0.00027494
0.000274945
0.00027495
0.000277437
0.000277441
0.000277446
0.000278764
0.000278769
0.000278773
0.000278765
0.000278769
0.000278773
0.000277436
0.00027744
0.000277444
0.000274932
0.000274936
0.000274941
0.000271611
0.000271617
0.000271621
0.000268252
0.000268257
0.000268263
0.000266015
0.000266022
0.000266029
0.000266184
0.000266193
0.0002662
0.000269407
0.000269418
0.000269426
0.00027471
0.000274722
0.000274732
0.000278405
0.000278418
0.000278429
0.000273966
0.000273978
0.00027399
0.000253212
0.000253221
0.000253232
0.000207376
0.000207381
0.000207388
0.000129483
0.000129485
0.000129488
3.85577e-05
3.85577e-05
3.85579e-05
3.88584e-05
3.88584e-05
3.88585e-05
0.000126996
0.000126998
0.000127001
0.000209859
0.000209864
0.000209873
0.000262398
0.000262408
0.00026242
0.000288508
0.000288522
0.000288535
0.000296178
0.000296194
0.000296206
0.000293483
0.000293498
0.000293509
0.000287544
0.000287557
0.000287566
0.000283036
0.000283047
0.000283055
0.000281731
0.000281739
0.000281746
0.0002833
0.000283306
0.000283312
0.000286445
0.000286452
0.000286456
0.000289799
0.000289804
0.000289808
0.000292401
0.000292405
0.000292409
0.000293798
0.000293802
0.000293806
0.000293799
0.000293803
0.000293807
0.0002924
0.000292404
0.000292408
0.000289789
0.000289794
0.000289799
0.000286425
0.000286432
0.000286436
0.00028327
0.000283276
0.000283282
0.000281674
0.000281683
0.00028169
0.000282956
0.000282967
0.000282975
0.000287434
0.000287448
0.000287456
0.000293344
0.00029336
0.000293371
0.000296028
0.000296044
0.000296057
0.000288372
0.000288386
0.0002884
0.000262294
0.000262305
0.000262317
0.000209796
0.000209801
0.00020981
0.000126972
0.000126974
0.000126977
3.88568e-05
3.88568e-05
3.8857e-05
3.91413e-05
3.91413e-05
3.91414e-05
0.000123721
0.000123723
0.000123726
0.000210128
0.000210134
0.000210144
0.000269217
0.000269229
0.000269242
0.000301092
0.000301109
0.000301123
0.00031267
0.000312688
0.000312702
0.000311652
0.000311671
0.000311682
0.000305452
0.000305469
0.000305478
0.000299637
0.000299651
0.000299659
0.000296931
0.000296941
0.000296949
0.000297546
0.000297554
0.00029756
0.00030027
0.000300277
0.000300282