/*--------------------------------*- C++ -*----------------------------------*\
  =========                 |
  \\      /  F ield         | OpenFOAM: The Open Source CFD Toolbox
   \\    /   O peration     | Website:  https://openfoam.org
    \\  /    A nd           | Version:  6
     \\/     M anipulation  |
\*---------------------------------------------------------------------------*/
FoamFile
{
    version     2.0;
    format      ascii;
    class       volScalarField;
    location    "60";
    object      p;
}
// * * * * * * * * * * * * * * * * * * * * * * * * * * * * * * * * * * * * * //

dimensions      [0 2 -2 0 0 0 0];

internalField   nonuniform List<scalar> 
3240
(
-1.83588e-18
4.14888e-08
4.79856e-08
2.2643e-10
4.1526e-08
4.79928e-08
3.6792e-10
4.15241e-08
4.79623e-08
4.07477e-10
4.15916e-08
4.79356e-08
3.6268e-10
4.17493e-08
4.78704e-08
1.94989e-10
4.20402e-08
4.7768e-08
-1.6945e-11
4.24334e-08
4.76096e-08
-2.68398e-10
4.28897e-08
4.74244e-08
-4.96552e-10
4.34419e-08
4.71123e-08
-7.48122e-10
4.40156e-08
4.68046e-08
-1.00521e-09
4.45869e-08
4.64944e-08
-1.23632e-09
4.50267e-08
4.63026e-08
-1.64513e-09
4.5564e-08
4.61905e-08
-2.12531e-09
4.60456e-08
4.62289e-08
-2.39128e-09
4.63372e-08
4.62235e-08
-2.40008e-09
4.63889e-08
4.62533e-08
-2.14265e-09
4.6202e-08
4.63037e-08
-1.38514e-09
4.60313e-08
4.6583e-08
6.03871e-10
4.69464e-08
4.82724e-08
-3.69086e-09
4.25324e-08
4.42273e-08
-1.50558e-09
4.35974e-08
4.64417e-08
-9.49143e-10
4.32945e-08
4.70626e-08
-6.94725e-10
4.28243e-08
4.74021e-08
-4.17749e-10
4.23423e-08
4.76528e-08
-1.79563e-10
4.19268e-08
4.78635e-08
1.69351e-11
4.16335e-08
4.79868e-08
1.15178e-10
4.14694e-08
4.80462e-08
1.63142e-10
4.14047e-08
4.80623e-08
1.41525e-10
4.14078e-08
4.80787e-08
1.96022e-10
4.13793e-08
4.80512e-08
8.66375e-12
4.14871e-08
4.79858e-08
2.27352e-10
4.15256e-08
4.79928e-08
3.68644e-10
4.15237e-08
4.79622e-08
4.08269e-10
4.15912e-08
4.79353e-08
3.64034e-10
4.17483e-08
4.787e-08
1.96791e-10
4.20385e-08
4.77679e-08
-1.5e-11
4.24312e-08
4.76099e-08
-2.66624e-10
4.28873e-08
4.74249e-08
-4.94653e-10
4.34394e-08
4.71129e-08
-7.46575e-10
4.40134e-08
4.68052e-08
-1.00385e-09
4.45849e-08
4.6495e-08
-1.23529e-09
4.50238e-08
4.63044e-08
-1.64469e-09
4.55608e-08
4.61933e-08
-2.12521e-09
4.60423e-08
4.62321e-08
-2.39111e-09
4.63337e-08
4.62268e-08
-2.39993e-09
4.63854e-08
4.62566e-08
-2.14257e-09
4.61986e-08
4.63069e-08
-1.38459e-09
4.6028e-08
4.65858e-08
5.93804e-10
4.69337e-08
4.82634e-08
-3.67665e-09
4.25418e-08
4.42401e-08
-1.50402e-09
4.35951e-08
4.64422e-08
-9.47003e-10
4.32919e-08
4.70634e-08
-6.92819e-10
4.28217e-08
4.74028e-08
-4.15622e-10
4.23399e-08
4.7653e-08
-1.77526e-10
4.19252e-08
4.7863e-08
1.85159e-11
4.16326e-08
4.7986e-08
1.16107e-10
4.1469e-08
4.80456e-08
1.63779e-10
4.14043e-08
4.8062e-08
1.42063e-10
4.14074e-08
4.80786e-08
1.97723e-10
4.13773e-08
4.80514e-08
2.97981e-11
4.14862e-08
4.79855e-08
2.29892e-10
4.15248e-08
4.79925e-08
3.70161e-10
4.15231e-08
4.79616e-08
4.09707e-10
4.15907e-08
4.79343e-08
3.66178e-10
4.17472e-08
4.78689e-08
1.99506e-10
4.20365e-08
4.77672e-08
-1.21954e-11
4.24284e-08
4.76099e-08
-2.64136e-10
4.28845e-08
4.74251e-08
-4.92021e-10
4.3436e-08
4.71136e-08
-7.44492e-10
4.40106e-08
4.6806e-08
-1.00211e-09
4.45824e-08
4.64958e-08
-1.2345e-09
4.50204e-08
4.63071e-08
-1.64527e-09
4.55571e-08
4.61976e-08
-2.12649e-09
4.60385e-08
4.62371e-08
-2.39237e-09
4.63297e-08
4.62319e-08
-2.40123e-09
4.63814e-08
4.62617e-08
-2.14393e-09
4.61947e-08
4.63119e-08
-1.38492e-09
4.60244e-08
4.65903e-08
5.68902e-10
4.69072e-08
4.8241e-08
-3.64496e-09
4.25655e-08
4.42692e-08
-1.50191e-09
4.35917e-08
4.64426e-08
-9.4376e-10
4.32886e-08
4.70643e-08
-6.89943e-10
4.28182e-08
4.74035e-08
-4.12352e-10
4.23369e-08
4.76528e-08
-1.74251e-10
4.19232e-08
4.78618e-08
2.12277e-11
4.16314e-08
4.79842e-08
1.17972e-10
4.14684e-08
4.80442e-08
1.65341e-10
4.14036e-08
4.80611e-08
1.4352e-10
4.14063e-08
4.80781e-08
1.99394e-10
4.13755e-08
4.80514e-08
6.12679e-11
4.14869e-08
4.79845e-08
2.34687e-10
4.15235e-08
4.79918e-08
3.72494e-10
4.15224e-08
4.79605e-08
4.1149e-10
4.15906e-08
4.79327e-08
3.68397e-10
4.17469e-08
4.78669e-08
2.02153e-10
4.20355e-08
4.77655e-08
-9.64128e-12
4.24267e-08
4.76089e-08
-2.61984e-10
4.28832e-08
4.74242e-08
-4.89862e-10
4.34337e-08
4.71137e-08
-7.42934e-10
4.40086e-08
4.68063e-08
-1.001e-09
4.45809e-08
4.64962e-08
-1.23526e-09
4.50189e-08
4.63093e-08
-1.64828e-09
4.55559e-08
4.62018e-08
-2.13054e-09
4.60376e-08
4.6242e-08
-2.39656e-09
4.63287e-08
4.62371e-08
-2.40545e-09
4.63803e-08
4.62668e-08
-2.14807e-09
4.61937e-08
4.63167e-08
-1.3875e-09
4.60233e-08
4.65947e-08
5.27721e-10
4.68693e-08
4.82041e-08
-3.59631e-09
4.26052e-08
4.43143e-08
-1.50028e-09
4.3589e-08
4.64423e-08
-9.40558e-10
4.32863e-08
4.70647e-08
-6.87013e-10
4.28156e-08
4.74032e-08
-4.08946e-10
4.23347e-08
4.76514e-08
-1.70644e-10
4.1922e-08
4.78593e-08
2.44559e-11
4.16306e-08
4.79813e-08
1.20574e-10
4.1468e-08
4.8042e-08
1.67906e-10
4.14025e-08
4.80594e-08
1.46124e-10
4.14046e-08
4.80772e-08
2.00374e-10
4.13749e-08
4.80509e-08
9.78611e-11
4.14882e-08
4.79829e-08
2.41767e-10
4.15219e-08
4.79906e-08
3.75659e-10
4.15217e-08
4.79588e-08
4.13602e-10
4.15908e-08
4.79304e-08
3.70704e-10
4.17473e-08
4.78641e-08
2.04784e-10
4.20354e-08
4.7763e-08
-7.2482e-12
4.2426e-08
4.7607e-08
-2.60055e-10
4.28831e-08
4.74221e-08
-4.88061e-10
4.34322e-08
4.71133e-08
-7.41791e-10
4.40074e-08
4.68062e-08
-1.00044e-09
4.45802e-08
4.64964e-08
-1.23742e-09
4.50191e-08
4.63113e-08
-1.65353e-09
4.55571e-08
4.6206e-08
-2.13715e-09
4.60392e-08
4.62469e-08
-2.40349e-09
4.63302e-08
4.62424e-08
-2.4124e-09
4.63817e-08
4.62719e-08
-2.15481e-09
4.61952e-08
4.63214e-08
-1.39211e-09
4.60246e-08
4.65991e-08
4.70605e-10
4.68199e-08
4.81527e-08
-3.53084e-09
4.26604e-08
4.43754e-08
-1.49903e-09
4.35867e-08
4.64412e-08
-9.37252e-10
4.32848e-08
4.70648e-08
-6.83907e-10
4.28136e-08
4.74021e-08
-4.05305e-10
4.23333e-08
4.76491e-08
-1.66647e-10
4.19215e-08
4.78557e-08
2.82186e-11
4.16302e-08
4.79772e-08
1.23907e-10
4.14676e-08
4.80388e-08
1.71441e-10
4.1401e-08
4.80571e-08
1.49852e-10
4.14022e-08
4.80756e-08
2.01525e-10
4.13744e-08
4.80501e-08
1.36784e-10
4.14898e-08
4.79809e-08
2.51191e-10
4.15199e-08
4.79891e-08
3.79719e-10
4.15209e-08
4.79566e-08
4.16069e-10
4.15912e-08
4.79275e-08
3.73175e-10
4.17482e-08
4.78605e-08
2.07516e-10
4.2036e-08
4.77597e-08
-4.86203e-12
4.24261e-08
4.76044e-08
-2.58188e-10
4.2884e-08
4.7419e-08
-4.86451e-10
4.34313e-08
4.71124e-08
-7.40914e-10
4.40067e-08
4.68058e-08
-1.00029e-09
4.45801e-08
4.64963e-08
-1.24083e-09
4.50207e-08
4.63131e-08
-1.66087e-09
4.55603e-08
4.62103e-08
-2.14619e-09
4.60431e-08
4.62519e-08
-2.413e-09
4.63341e-08
4.62479e-08
-2.42194e-09
4.63853e-08
4.62772e-08
-2.164e-09
4.61988e-08
4.63262e-08
-1.39858e-09
4.6028e-08
4.66038e-08
3.99509e-10
4.67603e-08
4.80888e-08
-3.45053e-09
4.27293e-08
4.44503e-08
-1.498e-09
4.35846e-08
4.64396e-08
-9.33636e-10
4.32839e-08
4.70645e-08
-6.80427e-10
4.2812e-08
4.74003e-08
-4.01244e-10
4.23324e-08
4.76458e-08
-1.62113e-10
4.19216e-08
4.78509e-08
3.26233e-11
4.16301e-08
4.7972e-08
1.28028e-10
4.14672e-08
4.80348e-08
1.75976e-10
4.13992e-08
4.8054e-08
1.54712e-10
4.13991e-08
4.80736e-08
2.03089e-10
4.13736e-08
4.80491e-08
1.73866e-10
4.14915e-08
4.79787e-08
2.62869e-10
4.15175e-08
4.79871e-08
3.84746e-10
4.152e-08
4.79539e-08
4.18873e-10
4.15919e-08
4.7924e-08
3.75776e-10
4.17497e-08
4.78562e-08
2.10319e-10
4.20373e-08
4.77556e-08
-2.49978e-12
4.24269e-08
4.76008e-08
-2.5638e-10
4.28859e-08
4.74149e-08
-4.85042e-10
4.3431e-08
4.7111e-08
-7.40304e-10
4.40066e-08
4.68051e-08
-1.00057e-09
4.45807e-08
4.6496e-08
-1.24554e-09
4.50238e-08
4.63147e-08
-1.67034e-09
4.55656e-08
4.62146e-08
-2.1577e-09
4.60494e-08
4.6257e-08
-2.42514e-09
4.63404e-08
4.62536e-08
-2.43411e-09
4.63913e-08
4.62825e-08
-2.1757e-09
4.62049e-08
4.63309e-08
-1.40695e-09
4.60335e-08
4.66085e-08
3.15283e-10
4.66914e-08
4.80132e-08
-3.35647e-09
4.28107e-08
4.4538e-08
-1.49718e-09
4.35827e-08
4.64372e-08
-9.29712e-10
4.32836e-08
4.70638e-08
-6.76562e-10
4.28109e-08
4.73977e-08
-3.96778e-10
4.2332e-08
4.76416e-08
-1.57082e-10
4.19221e-08
4.78451e-08
3.76216e-11
4.16303e-08
4.79658e-08
1.32908e-10
4.14669e-08
4.80299e-08
1.81498e-10
4.1397e-08
4.80503e-08
1.60681e-10
4.13954e-08
4.80712e-08
2.05001e-10
4.13727e-08
4.80478e-08
2.08841e-10
4.14932e-08
4.79763e-08
2.76647e-10
4.15148e-08
4.79848e-08
3.90807e-10
4.1519e-08
4.79508e-08
4.21981e-10
4.1593e-08
4.79198e-08
3.78428e-10
4.17518e-08
4.78512e-08
2.13103e-10
4.20393e-08
4.77507e-08
-2.47558e-13
4.24287e-08
4.75965e-08
-2.54693e-10
4.28888e-08
4.74099e-08
-4.83913e-10
4.34315e-08
4.71091e-08
-7.40021e-10
4.40072e-08
4.68039e-08
-1.00135e-09
4.45821e-08
4.64955e-08
-1.25164e-09
4.50286e-08
4.6316e-08
-1.68202e-09
4.55733e-08
4.62188e-08
-2.17176e-09
4.60585e-08
4.62617e-08
-2.44001e-09
4.63496e-08
4.6259e-08
-2.44901e-09
4.64001e-08
4.62876e-08
-2.18998e-09
4.62137e-08
4.63353e-08
-1.41732e-09
4.60414e-08
4.66133e-08
2.19452e-10
4.66148e-08
4.79273e-08
-3.25066e-09
4.29032e-08
4.46368e-08
-1.49656e-09
4.35812e-08
4.64343e-08
-9.25563e-10
4.32841e-08
4.70628e-08
-6.72353e-10
4.28102e-08
4.73943e-08
-3.91986e-10
4.23322e-08
4.76364e-08
-1.51651e-10
4.19233e-08
4.78382e-08
4.31271e-11
4.16308e-08
4.79585e-08
1.38499e-10
4.14666e-08
4.80242e-08
1.87991e-10
4.13945e-08
4.80459e-08
1.67721e-10
4.1391e-08
4.80682e-08
2.07242e-10
4.13716e-08
4.80463e-08
2.41435e-10
4.14949e-08
4.79738e-08
2.92281e-10
4.15118e-08
4.7982e-08
3.97959e-10
4.15179e-08
4.79471e-08
4.25361e-10
4.15943e-08
4.79151e-08
3.81044e-10
4.17545e-08
4.78455e-08
2.15767e-10
4.20423e-08
4.77451e-08
1.79944e-12
4.24315e-08
4.75913e-08
-2.53196e-10
4.28928e-08
4.74039e-08
-4.83148e-10
4.3433e-08
4.71066e-08
-7.40125e-10
4.40084e-08
4.68024e-08
-1.00271e-09
4.45843e-08
4.64946e-08
-1.25921e-09
4.50353e-08
4.63168e-08
-1.69596e-09
4.55835e-08
4.62227e-08
-2.18841e-09
4.60709e-08
4.62657e-08
-2.45768e-09
4.63621e-08
4.62639e-08
-2.4667e-09
4.64123e-08
4.62921e-08
-2.20689e-09
4.62258e-08
4.63388e-08
-1.4298e-09
4.60519e-08
4.66176e-08
1.13644e-10
4.65322e-08
4.78326e-08
-3.13519e-09
4.30051e-08
4.47446e-08
-1.49609e-09
4.35803e-08
4.64307e-08
-9.21298e-10
4.32855e-08
4.70613e-08
-6.67857e-10
4.28103e-08
4.739e-08
-3.86962e-10
4.2333e-08
4.76303e-08
-1.45931e-10
4.1925e-08
4.78304e-08
4.90382e-11
4.16317e-08
4.79503e-08
1.44741e-10
4.14663e-08
4.80178e-08
1.95423e-10
4.13915e-08
4.80409e-08
1.7576e-10
4.1386e-08
4.80648e-08
2.09825e-10
4.13704e-08
4.80446e-08
2.71562e-10
4.14966e-08
4.79711e-08
3.09461e-10
4.15086e-08
4.79788e-08
4.06239e-10
4.15168e-08
4.7943e-08
4.28989e-10
4.1596e-08
4.79098e-08
3.83532e-10
4.1758e-08
4.78392e-08
2.18207e-10
4.20461e-08
4.77387e-08
3.54249e-12
4.24354e-08
4.75852e-08
-2.51964e-10
4.2898e-08
4.73969e-08
-4.82827e-10
4.34354e-08
4.71035e-08
-7.4067e-10
4.40106e-08
4.68004e-08
-1.0047e-09
4.45876e-08
4.64934e-08
-1.26831e-09
4.50441e-08
4.63171e-08
-1.71216e-09
4.55967e-08
4.6226e-08
-2.20769e-09
4.60868e-08
4.62689e-08
-2.47818e-09
4.63781e-08
4.62681e-08
-2.48723e-09
4.64278e-08
4.62958e-08
-2.22642e-09
4.62413e-08
4.63415e-08
-1.44447e-09
4.60652e-08
4.66214e-08
-5.73824e-13
4.64453e-08
4.77306e-08
-3.01203e-09
4.31148e-08
4.48596e-08
-1.49568e-09
4.35802e-08
4.64267e-08
-9.17039e-10
4.32879e-08
4.70592e-08
-6.63141e-10
4.28112e-08
4.73849e-08
-3.81812e-10
4.23346e-08
4.76233e-08
-1.40045e-10
4.19274e-08
4.78217e-08
5.52405e-11
4.16331e-08
4.79413e-08
1.51565e-10
4.14662e-08
4.80105e-08
2.03748e-10
4.13882e-08
4.80353e-08
1.84699e-10
4.13804e-08
4.80609e-08
2.12765e-10
4.1369e-08
4.80427e-08
2.9927e-10
4.14982e-08
4.79684e-08
3.2783e-10
4.15052e-08
4.79753e-08
4.15645e-10
4.15156e-08
4.79385e-08
4.32839e-10
4.15981e-08
4.79041e-08
3.85786e-10
4.17622e-08
4.78323e-08
2.20297e-10
4.2051e-08
4.77317e-08
4.86576e-12
4.24405e-08
4.75783e-08
-2.51092e-10
4.29043e-08
4.73891e-08
-4.83046e-10
4.34391e-08
4.70996e-08
-7.41716e-10
4.40137e-08
4.67979e-08
-1.0074e-09
4.4592e-08
4.64917e-08
-1.27895e-09
4.50551e-08
4.63167e-08
-1.73058e-09
4.56129e-08
4.62284e-08
-2.22957e-09
4.61062e-08
4.6271e-08
-2.50151e-09
4.63978e-08
4.62714e-08
-2.51058e-09
4.6447e-08
4.62985e-08
-2.24856e-09
4.62604e-08
4.63431e-08
-1.4614e-09
4.60814e-08
4.66241e-08
-1.21628e-10
4.63556e-08
4.76226e-08
-2.88316e-09
4.32307e-08
4.498e-08
-1.49519e-09
4.35812e-08
4.64224e-08
-9.12943e-10
4.32913e-08
4.70565e-08
-6.583e-10
4.28129e-08
4.73789e-08
-3.76664e-10
4.23371e-08
4.76154e-08
-1.34142e-10
4.19306e-08
4.78122e-08
6.15972e-11
4.16349e-08
4.79315e-08
1.58886e-10
4.14661e-08
4.80026e-08
2.12898e-10
4.13845e-08
4.80291e-08
1.94414e-10
4.13745e-08
4.80566e-08
2.16077e-10
4.13674e-08
4.80405e-08
3.24681e-10
4.14996e-08
4.79656e-08
3.47005e-10
4.15018e-08
4.79714e-08
4.26127e-10
4.15145e-08
4.79336e-08
4.36883e-10
4.16006e-08
4.78979e-08
3.87677e-10
4.17671e-08
4.78251e-08
2.21884e-10
4.20568e-08
4.77242e-08
5.62734e-12
4.24469e-08
4.75706e-08
-2.50703e-10
4.29119e-08
4.73804e-08
-4.83916e-10
4.34441e-08
4.70951e-08
-7.43337e-10
4.40178e-08
4.67949e-08
-1.01089e-09
4.45975e-08
4.64897e-08
-1.29115e-09
4.50686e-08
4.63155e-08
-1.75113e-09
4.56324e-08
4.62298e-08
-2.25402e-09
4.61296e-08
4.62718e-08
-2.52765e-09
4.64215e-08
4.62736e-08
-2.53675e-09
4.64701e-08
4.63e-08
-2.27323e-09
4.62834e-08
4.63433e-08
-1.48067e-09
4.61005e-08
4.66254e-08
-2.47986e-10
4.62647e-08
4.75101e-08
-2.7505e-09
4.33513e-08
4.5104e-08
-1.49443e-09
4.35837e-08
4.6418e-08
-9.09197e-10
4.32958e-08
4.7053e-08
-6.53468e-10
4.28158e-08
4.7372e-08
-3.71678e-10
4.23405e-08
4.76067e-08
-1.28406e-10
4.19344e-08
4.78021e-08
6.7942e-11
4.16373e-08
4.79211e-08
1.66601e-10
4.14662e-08
4.79941e-08
2.22779e-10
4.13806e-08
4.80225e-08
2.04753e-10
4.13683e-08
4.8052e-08
2.19771e-10
4.13658e-08
4.80381e-08
3.47952e-10
4.15009e-08
4.79627e-08
3.66591e-10
4.14986e-08
4.79671e-08
4.37569e-10
4.15134e-08
4.79283e-08
4.41076e-10
4.16035e-08
4.78913e-08
3.89042e-10
4.1773e-08
4.78174e-08
2.22771e-10
4.20638e-08
4.77162e-08
5.64519e-12
4.24547e-08
4.75623e-08
-2.50959e-10
4.2921e-08
4.73708e-08
-4.85579e-10
4.34505e-08
4.70897e-08
-7.45626e-10
4.40233e-08
4.67912e-08
-1.01525e-09
4.46045e-08
4.64871e-08
-1.30488e-09
4.50845e-08
4.63132e-08
-1.77367e-09
4.56553e-08
4.62297e-08
-2.28094e-09
4.6157e-08
4.62709e-08
-2.55648e-09
4.64494e-08
4.62741e-08
-2.56561e-09
4.64973e-08
4.62998e-08
-2.30031e-09
4.63105e-08
4.63418e-08
-1.50233e-09
4.61226e-08
4.66248e-08
-3.781e-10
4.6174e-08
4.73943e-08
-2.61594e-09
4.34753e-08
4.52299e-08
-1.49321e-09
4.35882e-08
4.64137e-08
-9.06037e-10
4.33017e-08
4.70487e-08
-6.48823e-10
4.28201e-08
4.73641e-08
-3.67063e-10
4.2345e-08
4.75974e-08
-1.23067e-10
4.19392e-08
4.77914e-08
7.40676e-11
4.16404e-08
4.79103e-08
1.7458e-10
4.14665e-08
4.7985e-08
2.33259e-10
4.13765e-08
4.80153e-08
2.15533e-10
4.1362e-08
4.80469e-08
2.23851e-10
4.13639e-08
4.80354e-08
3.69248e-10
4.1502e-08
4.79597e-08
3.86192e-10
4.14957e-08
4.79625e-08
4.49775e-10
4.15126e-08
4.79226e-08
4.45345e-10
4.1607e-08
4.78843e-08
3.89676e-10
4.17798e-08
4.78096e-08
2.22704e-10
4.20722e-08
4.77078e-08
4.67836e-12
4.24641e-08
4.75533e-08
-2.52079e-10
4.29317e-08
4.73605e-08
-4.88211e-10
4.34588e-08
4.70836e-08
-7.48712e-10
4.40301e-08
4.67869e-08
-1.02059e-09
4.4613e-08
4.6484e-08
-1.32007e-09
4.51031e-08
4.63099e-08
-1.79801e-09
4.56818e-08
4.62279e-08
-2.30991e-09
4.61888e-08
4.62678e-08
-2.58757e-09
4.64816e-08
4.62726e-08
-2.59671e-09
4.65289e-08
4.62975e-08
-2.32934e-09
4.6342e-08
4.63382e-08
-1.52642e-09
4.61475e-08
4.66218e-08
-5.10404e-10
4.6085e-08
4.72766e-08
-2.48141e-09
4.36011e-08
4.53559e-08
-1.49129e-09
4.35952e-08
4.641e-08
-9.03743e-10
4.3309e-08
4.70434e-08
-6.4461e-10
4.28258e-08
4.73554e-08
-3.63091e-10
4.23508e-08
4.75874e-08
-1.18418e-10
4.1945e-08
4.77802e-08
7.97104e-11
4.16443e-08
4.7899e-08
1.82654e-10
4.14671e-08
4.79754e-08
2.44154e-10
4.13725e-08
4.80077e-08
2.2653e-10
4.1356e-08
4.80413e-08
2.28317e-10
4.1362e-08
4.80324e-08
3.88724e-10
4.15031e-08
4.79565e-08
4.05406e-10
4.14934e-08
4.79575e-08
4.62452e-10
4.15123e-08
4.79165e-08
4.49557e-10
4.16113e-08
4.78769e-08
3.89306e-10
4.17879e-08
4.78015e-08
2.21346e-10
4.20821e-08
4.7699e-08
2.40058e-12
4.24753e-08
4.75437e-08
-2.54363e-10
4.29443e-08
4.73494e-08
-4.9205e-10
4.3469e-08
4.70765e-08
-7.52771e-10
4.40387e-08
4.67818e-08
-1.02705e-09
4.46231e-08
4.64803e-08
-1.33669e-09
4.51245e-08
4.63051e-08
-1.82368e-09
4.57118e-08
4.62238e-08
-2.33999e-09
4.62244e-08
4.62618e-08
-2.61993e-09
4.65178e-08
4.62683e-08
-2.62905e-09
4.65644e-08
4.62923e-08
-2.35932e-09
4.63774e-08
4.63318e-08
-1.55273e-09
4.6175e-08
4.66155e-08
-6.43303e-10
4.59993e-08
4.71581e-08
-2.34885e-09
4.37273e-08
4.54803e-08
-1.48848e-09
4.36053e-08
4.6407e-08
-9.02658e-10
4.3318e-08
4.7037e-08
-6.41166e-10
4.28335e-08
4.73458e-08
-3.60132e-10
4.23582e-08
4.75769e-08
-1.14842e-10
4.19523e-08
4.77687e-08
8.45336e-11
4.16493e-08
4.78875e-08
1.9059e-10
4.14683e-08
4.79653e-08
2.55216e-10
4.13689e-08
4.79995e-08
2.37481e-10
4.13504e-08
4.80353e-08
2.33158e-10
4.136e-08
4.8029e-08
4.06517e-10
4.15041e-08
4.7953e-08
4.23824e-10
4.1492e-08
4.79521e-08
4.75202e-10
4.15129e-08
4.79099e-08
4.53487e-10
4.16167e-08
4.78691e-08
3.87575e-10
4.17977e-08
4.77931e-08
2.18238e-10
4.20942e-08
4.76898e-08
-1.66349e-12
4.24889e-08
4.75335e-08
-2.58236e-10
4.29593e-08
4.73375e-08
-4.97412e-10
4.34817e-08
4.70686e-08
-7.58048e-10
4.40494e-08
4.67758e-08
-1.03482e-09
4.46353e-08
4.64759e-08
-1.35462e-09
4.51493e-08
4.62982e-08
-1.84982e-09
4.5746e-08
4.62161e-08
-2.37091e-09
4.62632e-08
4.62536e-08
-2.65328e-09
4.65574e-08
4.62616e-08
-2.66237e-09
4.66031e-08
4.62848e-08
-2.38997e-09
4.64161e-08
4.63232e-08
-1.58068e-09
4.62056e-08
4.66044e-08
-7.7518e-10
4.59187e-08
4.70396e-08
-2.22029e-09
4.38527e-08
4.56013e-08
-1.48462e-09
4.36193e-08
4.64051e-08
-9.03197e-10
4.33291e-08
4.70294e-08
-6.38968e-10
4.28437e-08
4.73354e-08
-3.58724e-10
4.2368e-08
4.75658e-08
-1.12849e-10
4.19615e-08
4.77567e-08
8.81047e-11
4.16559e-08
4.78756e-08
1.98068e-10
4.14705e-08
4.79546e-08
2.66114e-10
4.13659e-08
4.79907e-08
2.48072e-10
4.13458e-08
4.80287e-08
2.38344e-10
4.13581e-08
4.80252e-08
4.22737e-10
4.15053e-08
4.79492e-08
4.41025e-10
4.1492e-08
4.79462e-08
4.87517e-10
4.15146e-08
4.79027e-08
4.56774e-10
4.16236e-08
4.78609e-08
3.83985e-10
4.18097e-08
4.77844e-08
2.12733e-10
4.21092e-08
4.76801e-08
-8.24905e-12
4.25057e-08
4.75227e-08
-2.64337e-10
4.29773e-08
4.73247e-08
-5.0474e-10
4.34972e-08
4.70597e-08
-7.64898e-10
4.40626e-08
4.67688e-08
-1.04414e-09
4.46498e-08
4.64706e-08
-1.37339e-09
4.51777e-08
4.62886e-08
-1.87673e-09
4.5785e-08
4.62043e-08
-2.40285e-09
4.6305e-08
4.62432e-08
-2.68771e-09
4.66e-08
4.62529e-08
-2.69679e-09
4.66449e-08
4.62752e-08
-2.42147e-09
4.6458e-08
4.63126e-08
-1.61087e-09
4.62395e-08
4.65877e-08
-9.04001e-10
4.58448e-08
4.6922e-08
-2.09775e-09
4.39761e-08
4.57171e-08
-1.47968e-09
4.36382e-08
4.64046e-08
-9.05887e-10
4.33428e-08
4.70205e-08
-6.38742e-10
4.28571e-08
4.73238e-08
-3.59672e-10
4.23808e-08
4.75539e-08
-1.13152e-10
4.19733e-08
4.77443e-08
8.98366e-11
4.16647e-08
4.78635e-08
2.04646e-10
4.1474e-08
4.79434e-08
2.76422e-10
4.13641e-08
4.79814e-08
2.57947e-10
4.13424e-08
4.80215e-08
2.43818e-10
4.13564e-08
4.8021e-08
4.37456e-10
4.15068e-08
4.7945e-08
4.56576e-10
4.14936e-08
4.79397e-08
4.98766e-10
4.15182e-08
4.78949e-08
4.58859e-10
4.16326e-08
4.78521e-08
3.77805e-10
4.1825e-08
4.77752e-08
2.03863e-10
4.21281e-08
4.76699e-08
-1.84881e-11
4.25269e-08
4.75112e-08
-2.73674e-10
4.29995e-08
4.7311e-08
-5.14685e-10
4.35167e-08
4.70495e-08
-7.7384e-10
4.40793e-08
4.67604e-08
-1.0553e-09
4.46672e-08
4.64643e-08
-1.39157e-09
4.52086e-08
4.62759e-08
-1.90508e-09
4.58287e-08
4.61894e-08
-2.43512e-09
4.63517e-08
4.62283e-08
-2.72253e-09
4.66459e-08
4.62412e-08
-2.73161e-09
4.66902e-08
4.62625e-08
-2.45306e-09
4.65048e-08
4.62978e-08
-1.64428e-09
4.62763e-08
4.65661e-08
-1.02664e-09
4.57782e-08
4.68063e-08
-1.98329e-09
4.40964e-08
4.58258e-08
-1.47387e-09
4.3663e-08
4.64056e-08
-9.11447e-10
4.336e-08
4.70099e-08
-6.41628e-10
4.28749e-08
4.73112e-08
-3.64194e-10
4.23982e-08
4.75414e-08
-1.16809e-10
4.19891e-08
4.77314e-08
8.88857e-11
4.16767e-08
4.78509e-08
2.09704e-10
4.14796e-08
4.79316e-08
2.85604e-10
4.13641e-08
4.79714e-08
2.66706e-10
4.13407e-08
4.80137e-08
2.49476e-10
4.1355e-08
4.80161e-08
4.50692e-10
4.15089e-08
4.79402e-08
4.70024e-10
4.14975e-08
4.79326e-08
5.08196e-10
4.15243e-08
4.78864e-08
4.58891e-10
4.16448e-08
4.78426e-08
3.67896e-10
4.18449e-08
4.77654e-08
1.9013e-10
4.21526e-08
4.76588e-08
-3.39698e-11
4.25542e-08
4.74988e-08
-2.87658e-10
4.30273e-08
4.72965e-08
-5.28243e-10
4.35413e-08
4.70378e-08
-7.85627e-10
4.41005e-08
4.67504e-08
-1.06863e-09
4.46881e-08
4.64567e-08
-1.40878e-09
4.52417e-08
4.62601e-08
-1.93388e-09
4.58759e-08
4.61713e-08
-2.46711e-09
4.64032e-08
4.62083e-08
-2.75707e-09
4.66968e-08
4.62243e-08
-2.76613e-09
4.67403e-08
4.62447e-08
-2.48409e-09
4.65566e-08
4.6278e-08
-1.68019e-09
4.63149e-08
4.65392e-08
-1.14128e-09
4.57199e-08
4.6694e-08
-1.87889e-09
4.42131e-08
4.59255e-08
-1.46771e-09
4.36953e-08
4.64078e-08
-9.20915e-10
4.33823e-08
4.69973e-08
-6.49218e-10
4.28985e-08
4.72976e-08
-3.74004e-10
4.24217e-08
4.75281e-08
-1.25435e-10
4.20104e-08
4.77179e-08
8.39872e-11
4.16934e-08
4.78377e-08
2.12338e-10
4.14882e-08
4.79192e-08
2.92988e-10
4.13665e-08
4.79607e-08
2.73922e-10
4.13414e-08
4.80051e-08
2.55151e-10
4.13543e-08
4.80106e-08
4.62391e-10
4.1512e-08
4.79347e-08
4.80904e-10
4.15041e-08
4.79247e-08
5.14909e-10
4.15338e-08
4.7877e-08
4.55535e-10
4.16615e-08
4.78323e-08
3.52481e-10
4.18713e-08
4.77547e-08
1.69502e-10
4.21846e-08
4.76472e-08
-5.61858e-11
4.25892e-08
4.74856e-08
-3.07598e-10
4.30623e-08
4.72806e-08
-5.46761e-10
4.35725e-08
4.70243e-08
-8.01205e-10
4.41277e-08
4.67381e-08
-1.08458e-09
4.47134e-08
4.64472e-08
-1.42589e-09
4.52779e-08
4.6241e-08
-1.96201e-09
4.59265e-08
4.61493e-08
-2.49829e-09
4.6458e-08
4.61843e-08
-2.79079e-09
4.67524e-08
4.62018e-08
-2.79983e-09
4.67953e-08
4.62212e-08
-2.51402e-09
4.66118e-08
4.62543e-08
-1.71768e-09
4.63545e-08
4.65061e-08
-1.24762e-09
4.56718e-08
4.65862e-08
-1.78653e-09
4.43259e-08
4.60143e-08
-1.46203e-09
4.37367e-08
4.6411e-08
-9.35649e-10
4.34111e-08
4.69828e-08
-6.62986e-10
4.29298e-08
4.72825e-08
-3.90742e-10
4.24532e-08
4.7514e-08
-1.41214e-10
4.20393e-08
4.77039e-08
7.32192e-11
4.17166e-08
4.78239e-08
2.1118e-10
4.15013e-08
4.7906e-08
2.97752e-10
4.13725e-08
4.79491e-08
2.79143e-10
4.13449e-08
4.79957e-08
2.60585e-10
4.13547e-08
4.80041e-08
4.72387e-10
4.15166e-08
4.79283e-08
4.88752e-10
4.1514e-08
4.79158e-08
5.17836e-10
4.15478e-08
4.78667e-08
4.4672e-10
4.16847e-08
4.78213e-08
3.29158e-10
4.19062e-08
4.77436e-08
1.40242e-10
4.22259e-08
4.76349e-08
-8.60011e-11
4.26335e-08
4.74705e-08
-3.34194e-10
4.31063e-08
4.72623e-08
-5.71391e-10
4.36121e-08
4.70087e-08
-8.21562e-10
4.41624e-08
4.67231e-08
-1.10371e-09
4.47444e-08
4.64353e-08
-1.44282e-09
4.53175e-08
4.62184e-08
-1.98884e-09
4.59799e-08
4.6123e-08
-2.52797e-09
4.6515e-08
4.61565e-08
-2.82311e-09
4.68105e-08
4.61754e-08
-2.83208e-09
4.68528e-08
4.61939e-08
-2.54218e-09
4.66692e-08
4.62271e-08
-1.75631e-09
4.63949e-08
4.64663e-08
-1.34463e-09
4.56353e-08
4.64838e-08
-1.70811e-09
4.4435e-08
4.60908e-08
-1.45788e-09
4.37888e-08
4.64147e-08
-9.56736e-10
4.34485e-08
4.69658e-08
-6.83736e-10
4.29707e-08
4.72649e-08
-4.15412e-10
4.24943e-08
4.74983e-08
-1.66048e-10
4.20778e-08
4.76895e-08
5.40113e-11
4.17485e-08
4.78099e-08
2.04122e-10
4.15211e-08
4.78922e-08
2.98867e-10
4.1383e-08
4.79366e-08
2.81908e-10
4.13518e-08
4.79852e-08
2.65401e-10
4.13567e-08
4.79967e-08
4.80378e-10
4.15235e-08
4.79208e-08
4.93124e-10
4.15277e-08
4.79059e-08
5.15649e-10
4.15679e-08
4.78551e-08
4.29632e-10
4.17166e-08
4.781e-08
2.95966e-10
4.19514e-08
4.77324e-08
1.01596e-10
4.22783e-08
4.76211e-08
-1.23824e-10
4.26888e-08
4.74526e-08
-3.67841e-10
4.31611e-08
4.72404e-08
-6.02633e-10
4.36619e-08
4.69894e-08
-8.47377e-10
4.42061e-08
4.67047e-08
-1.12656e-09
4.47822e-08
4.64202e-08
-1.45922e-09
4.53607e-08
4.61917e-08
-2.01387e-09
4.60358e-08
4.60924e-08
-2.55538e-09
4.65735e-08
4.6125e-08
-2.85321e-09
4.687e-08
4.61454e-08
-2.86207e-09
4.69117e-08
4.61631e-08
-2.56782e-09
4.67282e-08
4.61964e-08
-1.79564e-09
4.64354e-08
4.64198e-08
-1.43105e-09
4.56114e-08
4.6387e-08
-1.64504e-09
4.45411e-08
4.61531e-08
-1.45614e-09
4.38527e-08
4.6418e-08
-9.8449e-10
4.34966e-08
4.6945e-08
-7.11945e-10
4.30227e-08
4.72435e-08
-4.48517e-10
4.2547e-08
4.74797e-08
-2.00837e-10
4.21276e-08
4.76737e-08
2.42304e-11
4.1791e-08
4.77961e-08
1.88305e-10
4.15497e-08
4.78782e-08
2.95015e-10
4.13998e-08
4.79227e-08
2.81758e-10
4.13628e-08
4.79736e-08
2.69074e-10
4.13611e-08
4.7988e-08
4.85885e-10
4.15336e-08
4.79119e-08
4.93567e-10
4.15461e-08
4.78945e-08
5.0659e-10
4.15961e-08
4.78418e-08
4.01915e-10
4.1759e-08
4.77988e-08
2.5227e-10
4.20082e-08
4.77202e-08
5.34782e-11
4.23431e-08
4.76042e-08
-1.70012e-10
4.27569e-08
4.74302e-08
-4.09051e-10
4.32285e-08
4.72136e-08
-6.40736e-10
4.37239e-08
4.69649e-08
-8.79005e-10
4.42595e-08
4.66823e-08
-1.1534e-09
4.48285e-08
4.64007e-08
-1.47457e-09
4.54076e-08
4.61601e-08
-2.03662e-09
4.60937e-08
4.60576e-08
-2.57973e-09
4.66325e-08
4.60899e-08
-2.88024e-09
4.69298e-08
4.6112e-08
-2.88892e-09
4.69711e-08
4.61289e-08
-2.59022e-09
4.67878e-08
4.6162e-08
-1.83513e-09
4.64755e-08
4.63667e-08
-1.50584e-09
4.56008e-08
4.62956e-08
-1.59797e-09
4.46452e-08
4.61995e-08
-1.45757e-09
4.39292e-08
4.64199e-08
-1.01897e-09
4.35576e-08
4.6919e-08
-7.4822e-10
4.30878e-08
4.72169e-08
-4.90463e-10
4.26131e-08
4.74568e-08
-2.45727e-10
4.21905e-08
4.76551e-08
-1.689e-11
4.18456e-08
4.77815e-08
1.61324e-10
4.15893e-08
4.78645e-08
2.84487e-10
4.14249e-08
4.79073e-08
2.78219e-10
4.13786e-08
4.79605e-08
2.70908e-10
4.13687e-08
4.79778e-08
4.88232e-10
4.15479e-08
4.79014e-08
4.89517e-10
4.15699e-08
4.78815e-08
4.8823e-10
4.16345e-08
4.78273e-08
3.62562e-10
4.18134e-08
4.77874e-08
1.98431e-10
4.2078e-08
4.77055e-08
-3.70913e-12
4.24223e-08
4.75822e-08
-2.24872e-10
4.28406e-08
4.74011e-08
-4.58481e-10
4.33101e-08
4.71807e-08
-6.86163e-10
4.37993e-08
4.69342e-08
-9.16929e-10
4.43246e-08
4.66546e-08
-1.18424e-09
4.48844e-08
4.63755e-08
-1.48844e-09
4.5459e-08
4.61227e-08
-2.05669e-09
4.6153e-08
4.60186e-08
-2.60025e-09
4.66911e-08
4.60514e-08
-2.90338e-09
4.69888e-08
4.60756e-08
-2.9118e-09
4.70298e-08
4.60917e-08
-2.60869e-09
4.68467e-08
4.61244e-08
-1.87417e-09
4.65151e-08
4.63072e-08
-1.56817e-09
4.56043e-08
4.62086e-08
-1.56704e-09
4.47489e-08
4.62286e-08
-1.46326e-09
4.402e-08
4.6418e-08
-1.06047e-09
4.36329e-08
4.68872e-08
-7.93312e-10
4.31682e-08
4.71837e-08
-5.41535e-10
4.26952e-08
4.7427e-08
-3.00255e-10
4.22682e-08
4.76314e-08
-6.89895e-11
4.19136e-08
4.77645e-08
1.22124e-10
4.16412e-08
4.78507e-08
2.65093e-10
4.14604e-08
4.78903e-08
2.70694e-10
4.14002e-08
4.79457e-08
2.70015e-10
4.13808e-08
4.79658e-08
4.86522e-10
4.15679e-08
4.7889e-08
4.80192e-10
4.16002e-08
4.78666e-08
4.58512e-10
4.16841e-08
4.78125e-08
3.11915e-10
4.18805e-08
4.77745e-08
1.35512e-10
4.2162e-08
4.76858e-08
-6.80931e-11
4.2521e-08
4.75479e-08
-2.87347e-10
4.29464e-08
4.73574e-08
-5.16166e-10
4.3409e-08
4.71388e-08
-7.39347e-10
4.38915e-08
4.68946e-08
-9.61746e-10
4.44039e-08
4.66196e-08
-1.21915e-09
4.49509e-08
4.63438e-08
-1.50202e-09
4.55169e-08
4.60784e-08
-2.07381e-09
4.62132e-08
4.59757e-08
-2.61619e-09
4.6748e-08
4.601e-08
-2.92183e-09
4.70457e-08
4.60366e-08
-2.92989e-09
4.70865e-08
4.60522e-08
-2.62258e-09
4.69037e-08
4.60838e-08
-1.91219e-09
4.65538e-08
4.62419e-08
-1.61878e-09
4.5623e-08
4.6125e-08
-1.55204e-09
4.48534e-08
4.62401e-08
-1.47458e-09
4.41267e-08
4.641e-08
-1.10916e-09
4.37261e-08
4.68468e-08
-8.47228e-10
4.32664e-08
4.71413e-08
-6.00401e-10
4.28007e-08
4.73819e-08
-3.6229e-10
4.23662e-08
4.7595e-08
-1.30894e-10
4.19965e-08
4.77427e-08
7.09118e-11
4.17064e-08
4.78356e-08
2.34361e-10
4.15076e-08
4.78729e-08
2.58358e-10
4.14284e-08
4.79289e-08
2.65304e-10
4.13988e-08
4.79518e-08
4.79664e-10
4.15949e-08
4.78743e-08
4.64828e-10
4.16379e-08
4.785e-08
4.17259e-10
4.17445e-08
4.77981e-08
2.51307e-10
4.19607e-08
4.77583e-08
6.61035e-11
4.22652e-08
4.76535e-08
-1.36702e-10
4.26452e-08
4.74926e-08
-3.54303e-10
4.30778e-08
4.72926e-08
-5.79663e-10
4.35339e-08
4.70769e-08
-7.99476e-10
4.40105e-08
4.68351e-08
-1.01388e-09
4.45006e-08
4.65745e-08
-1.25852e-09
4.5029e-08
4.63051e-08
-1.51865e-09
4.55859e-08
4.60261e-08
-2.08794e-09
4.62739e-08
4.59293e-08
-2.62675e-09
4.6802e-08
4.59662e-08
-2.93485e-09
4.70991e-08
4.59957e-08
-2.94242e-09
4.71397e-08
4.60109e-08
-2.63122e-09
4.69574e-08
4.60405e-08
-1.94867e-09
4.65916e-08
4.61718e-08
-1.66198e-09
4.56611e-08
4.60432e-08
-1.55258e-09
4.49601e-08
4.62345e-08
-1.49277e-09
4.42518e-08
4.63919e-08
-1.16367e-09
4.3848e-08
4.67864e-08
-9.06955e-10
4.33915e-08
4.70778e-08
-6.63803e-10
4.29329e-08
4.73146e-08
-4.28815e-10
4.2491e-08
4.75366e-08
-1.99869e-10
4.20994e-08
4.77079e-08
9.08675e-12
4.17854e-08
4.78174e-08
1.91547e-10
4.15662e-08
4.78562e-08
2.40253e-10
4.14644e-08
4.79102e-08
2.55498e-10
4.14242e-08
4.79354e-08
4.66503e-10
4.16305e-08
4.78572e-08
4.42859e-10
4.16834e-08
4.78315e-08
3.65861e-10
4.18151e-08
4.77831e-08
1.82547e-10
4.20559e-08
4.77351e-08
-7.3155e-12
4.23911e-08
4.76026e-08
-2.10868e-10
4.27943e-08
4.7418e-08
-4.25892e-10
4.32368e-08
4.72051e-08
-6.4577e-10
4.36925e-08
4.69839e-08
-8.62087e-10
4.416e-08
4.67478e-08
-1.07201e-09
4.46236e-08
4.65092e-08
-1.30273e-09
4.51237e-08
4.62545e-08
-1.54079e-09
4.567e-08
4.59642e-08
-2.09913e-09
4.63346e-08
4.58799e-08
-2.63133e-09
4.68518e-08
4.59205e-08
-2.94171e-09
4.71473e-08
4.59539e-08
-2.94866e-09
4.71879e-08
4.59688e-08
-2.63412e-09
4.70066e-08
4.59951e-08
-1.98308e-09
4.66286e-08
4.6098e-08
-1.70265e-09
4.57232e-08
4.59606e-08
-1.56783e-09
4.50748e-08
4.62087e-08
-1.51703e-09
4.44035e-08
4.63521e-08
-1.2197e-09
4.40023e-08
4.66981e-08
-9.6932e-10
4.35524e-08
4.69815e-08
-7.32586e-10
4.3094e-08
4.72238e-08
-5.01903e-10
4.26418e-08
4.74588e-08
-2.73457e-10
4.22261e-08
4.7654e-08
-6.13578e-11
4.18799e-08
4.77924e-08