/*--------------------------------*- C++ -*----------------------------------*\
  =========                 |
  \\      /  F ield         | OpenFOAM: The Open Source CFD Toolbox
   \\    /   O peration     | Website:  https://openfoam.org
    \\  /    A nd           | Version:  6
     \\/     M anipulation  |
\*---------------------------------------------------------------------------*/
FoamFile
{
    version     2.0;
    format      ascii;
    class       surfaceScalarField;
    location    "60";
    object      phi;
}
// * * * * * * * * * * * * * * * * * * * * * * * * * * * * * * * * * * * * * //

dimensions      [0 3 -1 0 0 0 0];

internalField   nonuniform List<scalar> 
8442
(
2.40833e-07
-6.15576e-14
5.01886e-13
2.40833e-07
-1.03488e-13
-3.78135e-13
-1.34761e-14
5.47728e-14
3.31484e-07
1.01744e-13
-3.19427e-13
3.31485e-07
-2.78949e-13
-1.33235e-13
1.22178e-13
3.29169e-13
4.4854e-07
4.63715e-13
-6.98399e-15
4.48541e-07
-8.93332e-13
-4.2922e-13
3.68612e-13
4.42184e-13
5.70564e-07
9.65168e-13
4.531e-13
5.70566e-07
-1.85034e-12
-9.85525e-13
8.37024e-13
5.19569e-13
7.07145e-07
1.27231e-12
1.11027e-12
7.07148e-07
-2.82007e-12
-1.84221e-12
1.51236e-12
7.19184e-13
8.63334e-07
1.22588e-12
1.72749e-12
8.63337e-07
-3.47506e-12
-2.83323e-12
2.22048e-12
1.09903e-12
1.04415e-06
8.43344e-13
2.26958e-12
1.04416e-06
-3.64516e-12
-3.68914e-12
2.78155e-12
1.41114e-12
1.25524e-06
3.17159e-13
2.54946e-12
1.25524e-06
-3.39793e-12
-4.25578e-12
3.06986e-12
1.69699e-12
1.50287e-06
-1.73122e-13
3.24055e-12
1.50288e-06
-2.86573e-12
-4.78764e-12
3.03178e-12
1.54324e-12
1.79375e-06
-5.2376e-13
3.33237e-12
1.79375e-06
-2.29292e-12
-4.90382e-12
2.81218e-12
1.56888e-12
2.13437e-06
-6.23067e-13
3.78475e-12
2.13438e-06
-1.94559e-12
-5.17973e-12
2.56188e-12
1.39725e-12
2.53035e-06
-5.69721e-13
6.04306e-12
2.53036e-06
-1.67523e-12
-9.88159e-12
2.23845e-12
3.83825e-12
2.98627e-06
-4.88836e-13
8.40192e-12
2.98628e-06
-1.12222e-12
-1.40079e-11
1.60164e-12
5.60894e-12
3.50622e-06
-3.00808e-13
1.00183e-11
3.50624e-06
-5.44856e-13
-1.74142e-11
8.35399e-13
7.39674e-12
4.0939e-06
4.75842e-14
1.24559e-11
4.09392e-06
2.14073e-14
-2.06043e-11
-8.19257e-14
8.15109e-12
4.0939e-06
3.97021e-13
1.24133e-11
4.09392e-06
5.87298e-13
-2.06393e-11
-9.94226e-13
8.22296e-12
3.50621e-06
5.86223e-13
1.00209e-11
3.50623e-06
1.16185e-12
-1.74877e-11
-1.76744e-12
7.47633e-12
2.98624e-06
5.74462e-13
8.53799e-12
2.98626e-06
1.62189e-12
-1.39404e-11
-2.52288e-12
5.70957e-12
2.53032e-06
1.00758e-12
5.58809e-12
2.53033e-06
2.21499e-12
-1.00801e-11
-2.49466e-12
3.43755e-12
2.13434e-06
4.64307e-13
3.92461e-12
2.13434e-06
2.21166e-12
-4.52936e-12
-3.12828e-12
1.78495e-12
1.7937e-06
2.29043e-13
3.19554e-12
1.7937e-06
2.92918e-12
-5.04208e-12
-3.20094e-12
1.43695e-12
1.50282e-06
-2.86131e-13
3.23059e-12
1.50282e-06
3.50464e-12
-4.85247e-12
-3.22414e-12
1.58479e-12
1.25518e-06
-8.82536e-13
2.40615e-12
1.25518e-06
3.82719e-12
-4.29343e-12
-2.94699e-12
1.88399e-12
1.04409e-06
-1.31412e-12
2.19178e-12
1.0441e-06
3.6553e-12
-3.68704e-12
-2.34379e-12
1.49553e-12
8.63276e-07
-1.36729e-12
1.73956e-12
8.6328e-07
2.93679e-12
-2.73919e-12
-1.57187e-12
9.99391e-13
7.07097e-07
-1.04449e-12
1.11751e-12
7.07099e-07
1.89704e-12
-1.70612e-12
-8.48769e-13
5.82463e-13
5.70527e-07
-5.1835e-13
4.39015e-13
5.70529e-07
8.84501e-13
-8.58717e-13
-3.64125e-13
4.21456e-13
4.48513e-07
-1.3156e-13
-5.73835e-14
4.48514e-07
2.50471e-13
-3.37593e-13
-1.17374e-13
3.95464e-13
3.31468e-07
-9.69694e-14
-2.21905e-13
3.31468e-07
7.16121e-14
-7.19992e-14
2.60934e-14
2.94705e-13
2.40826e-07
3.56313e-13
2.40827e-07
-4.16579e-13
6.10017e-14
3.29843e-07
4.67746e-14
9.74563e-13
3.29843e-07
-1.46483e-13
-8.09493e-13
-1.51849e-14
1.28348e-13
5.73432e-07
2.62718e-13
-4.3191e-13
5.73433e-07
-4.75038e-13
-3.93357e-13
1.86544e-13
6.12659e-13
7.57506e-07
7.84732e-13
2.20147e-13
7.57507e-07
-1.45177e-12
-9.12125e-13
5.97217e-13
7.42004e-13
9.47707e-07
1.56307e-12
1.11888e-12
9.47709e-07
-2.96884e-12
-1.92042e-12
1.34166e-12
7.82972e-13
1.16009e-06
2.01557e-12
2.59881e-12
1.16009e-06
-4.47897e-12
-3.69383e-12
2.41374e-12
1.06782e-12
1.40264e-06
1.92533e-12
3.99465e-12
1.40265e-06
-5.48823e-12
-5.86033e-12
3.52296e-12
1.84923e-12
1.68298e-06
1.30722e-12
5.18078e-12
1.68298e-06
-5.73097e-12
-7.83362e-12
4.39594e-12
2.63229e-12
2.00947e-06
4.81966e-13
5.72052e-12
2.00947e-06
-5.29661e-12
-9.18569e-12
4.79968e-12
3.443e-12
2.39145e-06
-2.90173e-13
7.18074e-12
2.39146e-06
-4.44007e-12
-1.03842e-11
4.72152e-12
3.19337e-12
2.83894e-06
-8.34164e-13
7.23513e-12
2.83894e-06
-3.53484e-12
-1.05404e-11
4.36217e-12
3.30078e-12
3.36189e-06
-9.80974e-13
8.00321e-12
3.3619e-06
-3.00401e-12
-1.1027e-11
3.97652e-12
3.02775e-12
3.9694e-06
-9.10036e-13
1.18165e-11
3.96941e-06
-2.5697e-12
-2.04559e-11
3.47133e-12
8.63899e-12
4.66961e-06
-7.86588e-13
1.54471e-11
4.66962e-06
-1.71295e-12
-2.8609e-11
2.4882e-12
1.31677e-11
5.47042e-06
-4.80386e-13
1.79245e-11
5.47043e-06
-8.2961e-13
-3.53252e-11
1.29583e-12
1.74044e-11
6.37969e-06
7.27006e-14
2.23386e-11
6.37971e-06
3.74807e-14
-4.18277e-11
-1.2485e-13
1.94923e-11
6.37969e-06
6.27825e-13
2.22406e-11
6.37971e-06
9.03763e-13
-4.18864e-11
-1.53911e-12
1.96356e-11
5.4704e-06
9.44565e-13
1.7906e-11
5.47042e-06
1.78876e-12
-3.54709e-11
-2.73412e-12
1.75676e-11
4.66958e-06
9.87916e-13
1.571e-11
4.6696e-06
2.5573e-12
-2.84845e-11
-3.84016e-12
1.33759e-11
3.96936e-06
1.32987e-12
1.10538e-11
3.96937e-06
3.20832e-12
-2.07632e-11
-4.09485e-12
7.91666e-12
3.36185e-06
8.59449e-13
8.16641e-12
3.36186e-06
3.50558e-12
-9.80799e-12
-4.73554e-12
3.63563e-12
2.83888e-06
3.96085e-13
7.01106e-12
2.83888e-06
4.55888e-12
-1.08352e-11
-4.96809e-12
3.05721e-12
2.39139e-06
-4.3297e-13
7.20346e-12
2.39139e-06
5.48185e-12
-1.05436e-11
-5.04657e-12
3.2876e-12
2.0094e-06
-1.36572e-12
5.48875e-12
2.0094e-06
6.01245e-12
-9.28624e-12
-4.64316e-12
3.79294e-12
1.68291e-06
-2.06115e-12
5.08523e-12
1.68291e-06
5.76932e-12
-7.83448e-12
-3.70585e-12
2.75076e-12
1.40258e-06
-2.16034e-12
4.06186e-12
1.40258e-06
4.66554e-12
-5.65757e-12
-2.50417e-12
1.59677e-12
1.16003e-06
-1.67547e-12
2.63554e-12
1.16003e-06
3.0429e-12
-3.40188e-12
-1.36286e-12
7.56652e-13
9.47662e-07
-8.40649e-13
1.09311e-12
9.47664e-07
1.43874e-12
-1.65608e-12
-5.9511e-13
5.66309e-13
7.57473e-07
-2.4051e-13
9.10582e-14
7.57474e-07
4.28414e-13
-7.25863e-13
-1.8614e-13
6.36513e-13
5.73412e-07
-1.24918e-13
-2.52123e-13
5.73413e-07
1.02598e-13
-2.8346e-13
2.28148e-14
5.37652e-13
3.29836e-07
7.67572e-13
3.29837e-07
-9.04299e-13
1.37957e-13
4.04365e-07
-4.0892e-15
1.57066e-12
4.04365e-07
-1.85689e-13
-1.28812e-12
-1.0415e-14
2.11077e-13
7.52406e-07
2.71346e-13
-3.55697e-13
7.52407e-07
-6.23448e-13
-7.97213e-13
2.41933e-13
8.50278e-13
9.89213e-07
9.82448e-13
5.96764e-13
9.89215e-07
-1.85973e-12
-1.48494e-12
7.67456e-13
9.37863e-13
1.2326e-06
1.97927e-12
1.97136e-12
1.2326e-06
-3.7793e-12
-2.871e-12
1.71176e-12
8.59495e-13
1.50388e-06
2.54922e-12
4.40034e-12
1.50388e-06
-5.68747e-12
-5.59592e-12
3.07047e-12
1.14789e-12
1.81346e-06
2.43672e-12
6.69773e-12
1.81347e-06
-6.96122e-12
-9.06986e-12
4.47046e-12
2.34194e-12
2.17103e-06
1.65581e-12
8.60822e-12
2.17103e-06
-7.2685e-12
-1.23457e-11
5.57536e-12
3.70024e-12
2.58713e-06
6.14478e-13
9.40865e-12
2.58714e-06
-6.71368e-12
-1.46464e-11
6.07882e-12
5.19867e-12
3.07356e-06
-3.64238e-13
1.16962e-11
3.07356e-06
-5.61743e-12
-1.66326e-11
5.97017e-12
4.91745e-12
3.64294e-06
-1.05384e-12
1.16247e-11
3.64294e-06
-4.46006e-12
-1.67781e-11
5.5048e-12
5.14648e-12
4.30795e-06
-1.24335e-12
1.2606e-11
4.30795e-06
-3.79005e-12
-1.74174e-11
5.02232e-12
4.81733e-12
5.08033e-06
-1.1638e-12
1.7401e-11
5.08034e-06
-3.23496e-12
-3.15354e-11
4.38695e-12
1.41348e-11
5.97086e-06
-1.01193e-12
2.14576e-11
5.97088e-06
-2.14985e-12
-4.35819e-11
3.1465e-12
2.21337e-11
6.99022e-06
-6.19057e-13
2.42124e-11
6.99023e-06
-1.03979e-12
-5.34958e-11
1.63924e-12
2.92915e-11
8.14924e-06
9.24856e-14
3.02382e-11
8.14926e-06
4.51024e-14
-6.33783e-11
-1.5874e-13
3.31448e-11
8.14923e-06
8.09124e-13
3.00741e-11
8.14925e-06
1.13092e-12
-6.3454e-11
-1.94666e-12
3.33553e-11
6.9902e-06
1.23536e-12
2.41396e-11
6.99022e-06
2.26266e-12
-5.37286e-11
-3.4368e-12
2.95239e-11
5.97083e-06
1.27782e-12
2.18788e-11
5.97085e-06
3.23122e-12
-4.33766e-11
-4.84218e-12
2.24935e-11
5.08029e-06
1.55362e-12
1.64356e-11
5.0803e-06
3.93339e-12
-3.18965e-11
-5.30163e-12
1.31496e-11
4.3079e-06
1.14276e-12
1.26973e-11
4.3079e-06
4.47437e-12
-1.57133e-11
-5.92518e-12
5.50345e-12
3.64287e-06
5.34494e-13
1.13252e-11
3.64288e-06
5.7981e-12
-1.72609e-11
-6.24413e-12
4.77221e-12
3.07349e-06
-5.48183e-13
1.18088e-11
3.07349e-06
6.9541e-12
-1.6887e-11
-6.38741e-12
5.0956e-12
2.58706e-06
-1.72959e-12
9.13977e-12
2.58707e-06
7.63078e-12
-1.48426e-11
-5.89605e-12
5.71162e-12
2.17095e-06
-2.60941e-12
8.54434e-12
2.17095e-06
7.32438e-12
-1.23591e-11
-4.71189e-12
3.81834e-12
1.81339e-06
-2.73595e-12
6.85645e-12
1.8134e-06
5.92706e-12
-8.75001e-12
-3.18826e-12
1.89484e-12
1.50382e-06
-2.13036e-12
4.49325e-12
1.50382e-06
3.87353e-12
-5.14068e-12
-1.73709e-12
6.34504e-13
1.23255e-06
-1.07874e-12
1.96254e-12
1.23255e-06
1.84324e-12
-2.46828e-12
-7.60017e-13
5.10669e-13
9.89177e-07
-3.24773e-13
4.45267e-13
9.89178e-07
5.61098e-13
-1.20647e-12
-2.33592e-13
7.64669e-13
7.52384e-07
-1.51946e-13
-7.8986e-14
7.52385e-07
1.28337e-13
-6.51046e-13
2.45005e-14
7.33942e-13
4.04358e-07
1.22725e-12
4.04359e-07
-1.45674e-12
2.31617e-13
4.92408e-07
-4.61191e-14
2.28425e-12
4.92409e-07
-2.21861e-13
-1.82307e-12
-7.78287e-15
3.08202e-13
9.30215e-07
2.8025e-13
-5.73857e-14
9.30216e-07
-7.66901e-13
-1.37403e-12
2.951e-13
1.04457e-12
1.2217e-06
1.17827e-12
1.13754e-12
1.2217e-06
-2.25694e-12
-2.16905e-12
9.30648e-13
1.03766e-12
1.51988e-06
2.38223e-12
3.02374e-12
1.51988e-06
-4.5652e-12
-3.85757e-12
2.07147e-12
7.57159e-13
1.85151e-06
3.06739e-12
6.51464e-12
1.85151e-06
-6.86391e-12
-7.55271e-12
3.71183e-12
9.63558e-13
2.22961e-06
2.93419e-12
9.83799e-12
2.22961e-06
-8.40166e-12
-1.24468e-11
5.40033e-12
2.56105e-12
2.66601e-06
1.997e-12
1.25649e-11
2.66602e-06
-8.7772e-12
-1.71943e-11
6.73398e-12
4.57132e-12
3.17358e-06
7.45088e-13
1.3648e-11
3.17359e-06
-8.10553e-12
-2.0612e-11
7.3351e-12
6.90401e-12
3.76658e-06
-4.36096e-13
1.67989e-11
3.76659e-06
-6.77297e-12
-2.35033e-11
7.19495e-12
6.67427e-12
4.46037e-06
-1.2697e-12
1.6519e-11
4.46038e-06
-5.37088e-12
-2.35888e-11
6.62942e-12
7.06002e-12
5.27039e-06
-1.50486e-12
1.75938e-11
5.27039e-06
-4.56552e-12
-2.42961e-11
6.05682e-12
6.71055e-12
6.21108e-06
-1.41875e-12
2.27962e-11
6.21109e-06
-3.89284e-12
-4.29274e-11
5.29673e-12
2.01328e-11
7.29587e-06
-1.24038e-12
2.65016e-11
7.29589e-06
-2.58044e-12
-5.86261e-11
3.80184e-12
3.21379e-11
8.5382e-06
-7.62015e-13
2.89936e-11
8.53822e-06
-1.24603e-12
-7.15381e-11
1.98359e-12
4.2558e-11
9.95188e-06
1.12119e-13
3.62618e-11
9.9519e-06
5.32981e-14
-8.47803e-11
-1.92326e-13
4.85256e-11
9.95187e-06
9.93236e-13
3.60251e-11
9.95189e-06
1.35425e-12
-8.48659e-11
-2.35568e-12
4.87973e-11
8.53818e-06
1.51721e-12
2.88459e-11
8.5382e-06
2.72158e-12
-7.1863e-11
-4.14715e-12
4.28522e-11
7.29584e-06
1.56713e-12
2.71013e-11
7.29585e-06
3.89861e-12
-5.8324e-11
-5.83737e-12
3.26817e-11
6.21103e-06
1.82752e-12
2.16779e-11
6.21104e-06
4.69489e-12
-4.33346e-11
-6.44477e-12
1.88962e-11
5.27034e-06
1.40234e-12
1.75968e-11
5.27034e-06
5.41299e-12
-2.2142e-11
-7.11297e-12
7.40798e-12
4.4603e-06
6.52141e-13
1.61545e-11
4.46031e-06
7.00115e-12
-2.42921e-11
-7.51293e-12
6.53608e-12
3.76651e-06
-6.6479e-13
1.70446e-11
3.76652e-06
8.39887e-12
-2.38664e-11
-7.7071e-12
6.95266e-12
3.1735e-06
-2.08622e-12
1.33957e-11
3.17351e-06
9.21889e-12
-2.09414e-11
-7.12733e-12
7.57614e-12
2.66594e-06
-3.14241e-12
1.25816e-11
2.66594e-06
8.844e-12
-1.72348e-11
-5.6987e-12
4.65917e-12
2.22953e-06
-3.29448e-12
1.01201e-11
2.22954e-06
7.15449e-12
-1.20114e-11
-3.85627e-12
1.89168e-12
1.85144e-06
-2.57103e-12
6.68737e-12
1.85145e-06
4.67966e-12
-6.93685e-12
-2.10108e-12
2.32751e-13
1.51982e-06
-1.31402e-12
3.05851e-12
1.51982e-06
2.23824e-12
-3.32271e-12
-9.18281e-13
2.70731e-13
1.22166e-06
-4.08177e-13
1.01872e-12
1.22166e-06
6.90661e-13
-1.80671e-12
-2.78735e-13
7.93643e-13
9.30191e-07
-1.78203e-13
3.22258e-13
9.30192e-07
1.51772e-13
-1.20646e-12
2.77223e-14
8.90568e-13
4.92401e-07
1.73873e-12
4.92402e-07
-2.08186e-12
3.46543e-13
5.9642e-07
-6.41756e-14
3.09812e-12
5.96421e-07
-2.54202e-13
-2.4278e-12
-7.54962e-15
4.24989e-13
1.11851e-06
3.13937e-13
4.82086e-13
1.11851e-06
-9.13822e-13
-2.14069e-12
3.46485e-13
1.19924e-12
1.46902e-06
1.39115e-12
1.86246e-12
1.46902e-06
-2.66741e-12
-2.97469e-12
1.09599e-12
1.04527e-12
1.82652e-06
2.79944e-12
4.28482e-12
1.82652e-06
-5.37385e-12
-4.88816e-12
2.44186e-12
4.78944e-13
2.22325e-06
3.60097e-12
8.94398e-12
2.22325e-06
-8.07687e-12
-9.56506e-12
4.37578e-12
5.1413e-13
2.67509e-06
3.44608e-12
1.34235e-11
2.6751e-06
-9.8928e-12
-1.59868e-11
6.3676e-12
2.49458e-12
3.19627e-06
2.349e-12
1.70728e-11
3.19628e-06
-1.03432e-11
-2.23769e-11
7.93979e-12
5.22111e-12
3.80212e-06
8.80228e-13
1.84781e-11
3.80213e-06
-9.54979e-12
-2.70934e-11
8.63978e-12
8.5307e-12
4.50964e-06
-5.10725e-13
2.25138e-11
4.50964e-06
-7.97232e-12
-3.10062e-11
8.46657e-12
8.44887e-12
5.33709e-06
-1.49425e-12
2.19446e-11
5.33709e-06
-6.31939e-12
-3.09815e-11
7.8006e-12
9.02365e-12
6.3029e-06
-1.77976e-12
2.29783e-11
6.30291e-06
-5.37492e-12
-3.16488e-11
7.13885e-12
8.68158e-12
7.42443e-06
-1.68884e-12
2.79924e-11
7.42445e-06
-4.58006e-12
-5.45222e-11
6.25142e-12
2.65331e-11
8.71793e-06
-1.4842e-12
3.05872e-11
8.71795e-06
-3.02909e-12
-7.35584e-11
4.49103e-12
4.29894e-11
1.01998e-05
-9.16756e-13
3.2284e-11
1.01998e-05
-1.45991e-12
-8.92021e-11
2.34785e-12
5.69381e-11
1.18869e-05
1.32537e-13
4.04058e-11
1.18869e-05
6.28141e-14
-1.05723e-10
-2.27266e-13
6.53278e-11
1.18869e-05
1.19009e-12
4.00922e-11
1.18869e-05
1.58731e-12
-1.05811e-10
-2.78794e-12
6.56539e-11
1.01998e-05
1.80959e-12
3.20475e-11
1.01998e-05
3.19607e-12
-8.96186e-11
-4.90034e-12
5.72903e-11
8.7179e-06
1.87405e-12
3.13774e-11
8.71791e-06
4.59956e-12
-7.31498e-11
-6.87851e-12
4.37415e-11
7.42439e-06
2.13695e-12
2.675e-11
7.4244e-06
5.51123e-12
-5.49865e-11
-7.61643e-12
2.50394e-11
6.30285e-06
1.6639e-12
2.29105e-11
6.30286e-06
6.38453e-12
-2.90632e-11
-8.3566e-12
9.35541e-12
5.33702e-06
7.63283e-13
2.15281e-11
5.33702e-06
8.24306e-12
-3.19375e-11
-8.84173e-12
8.3351e-12
4.50956e-06
-7.87497e-13
2.2929e-11
4.50957e-06
9.89923e-12
-3.15012e-11
-9.08011e-12
8.83604e-12
3.80204e-06
-2.45417e-12
1.82987e-11
3.80205e-06
1.08665e-11
-2.75967e-11
-8.40689e-12
9.35459e-12
3.19619e-06
-3.69006e-12
1.72196e-11
3.1962e-06
1.04151e-11
-2.2463e-11
-6.72227e-12
5.25217e-12
2.67501e-06
-3.86813e-12
1.3858e-11
2.67501e-06
8.42022e-12
-1.54451e-11
-4.54769e-12
1.58592e-12
2.22317e-06
-3.02431e-12
9.21763e-12
2.22318e-06
5.51076e-12
-8.79751e-12
-2.47761e-12
-4.41287e-13
1.82646e-06
-1.56045e-12
4.38497e-12
1.82646e-06
2.64822e-12
-4.2311e-12
-1.08053e-12
-1.45742e-13
1.46898e-06
-4.96701e-13
1.81771e-12
1.46898e-06
8.25541e-13
-2.54076e-12
-3.24171e-13
7.31273e-13
1.11849e-06
-2.01914e-13
9.64067e-13
1.11849e-06
1.72352e-13
-1.96785e-12
3.11565e-14
1.01323e-12
5.96412e-07
2.31124e-12
5.96413e-07
-2.79178e-12
4.85544e-13
7.19183e-07
-7.27812e-14
4.00914e-12
7.19184e-07
-2.83018e-13
-3.11518e-12
-8.80055e-15
5.65942e-13
1.32367e-06
3.66634e-13
1.27035e-12
1.32367e-06
-1.06922e-12
-3.10968e-12
3.97901e-13
1.32005e-12
1.73891e-06
1.62498e-12
2.7797e-12
1.73891e-06
-3.1036e-12
-3.90751e-12
1.26901e-12
9.65772e-13
2.162e-06
3.24149e-12
5.75579e-12
2.162e-06
-6.22854e-12
-5.96695e-12
2.83456e-12
2.96451e-14
2.63054e-06
4.16336e-12
1.16891e-11
2.63055e-06
-9.35946e-12
-1.16358e-11
5.08124e-12
-1.9787e-13
3.16359e-06
3.98547e-12
1.74653e-11
3.16359e-06
-1.14738e-11
-1.96946e-11
7.39771e-12
2.13635e-12
3.77801e-06
2.72118e-12
2.21646e-11
3.77802e-06
-1.20076e-11
-2.79042e-11
9.22416e-12
5.62829e-12
4.49189e-06
1.02416e-12
2.39539e-11
4.49189e-06
-1.10862e-11
-3.41187e-11
1.00281e-11
1.0052e-11
5.32523e-06
-5.88931e-13
2.88832e-11
5.32524e-06
-9.25041e-12
-3.91724e-11
9.82069e-12
1.02303e-11
6.29954e-06
-1.73203e-12
2.7947e-11
6.29955e-06
-7.33287e-12
-3.89924e-11
9.0501e-12
1.10283e-11
7.43652e-06
-2.07445e-12
2.87907e-11
7.43653e-06
-6.24011e-12
-3.94863e-11
8.2966e-12
1.07099e-11
8.75673e-06
-1.98075e-12
3.30212e-11
8.75674e-06
-5.31446e-12
-6.625e-11
7.27533e-12
3.3234e-11
1.02795e-05
-1.74946e-12
3.37977e-11
1.02795e-05
-3.50753e-12
-8.82545e-11
5.23166e-12
5.44804e-11
1.20245e-05
-1.08744e-12
3.41974e-11
1.20245e-05
-1.68669e-12
-1.06312e-10
2.74114e-12
7.21424e-11
1.4012e-05
1.54305e-13
4.27829e-11
1.4012e-05
7.35181e-14
-1.25981e-10
-2.64533e-13
8.32119e-11
1.4012e-05
1.40548e-12
4.23895e-11
1.4012e-05
1.83554e-12
-1.26063e-10
-3.25402e-12
8.35845e-11
1.20244e-05
2.12397e-12
3.38617e-11
1.20245e-05
3.70175e-12
-1.06818e-10
-5.71174e-12
7.25485e-11
1.02795e-05
2.20437e-12
3.47888e-11
1.02795e-05
5.35047e-12
-8.77298e-11
-7.99431e-12
5.54636e-11
8.75667e-06
2.47637e-12
3.16728e-11
8.75668e-06
6.39346e-12
-6.67906e-11
-8.86034e-12
3.14717e-11
7.43647e-06
1.9371e-12
2.86851e-11
7.43647e-06
7.4213e-12
-3.64859e-11
-9.68648e-12
1.1341e-11
6.29947e-06
8.76124e-13
2.74916e-11
6.29947e-06
9.56568e-12
-4.0235e-11
-1.02614e-11
1.01606e-11
5.32515e-06
-9.19276e-13
2.95033e-11
5.32516e-06
1.14973e-11
-3.98274e-11
-1.05426e-11
1.07329e-11
4.49181e-06
-2.8431e-12
2.39065e-11
4.49181e-06
1.26176e-11
-3.484e-11
-9.76879e-12
1.10198e-11
3.77792e-06
-4.26639e-12
2.24904e-11
3.77793e-06
1.20795e-11
-2.80594e-11
-7.81041e-12
5.58065e-12
3.1635e-06
-4.47167e-12
1.80782e-11
3.16351e-06
9.75912e-12
-1.90627e-11
-5.28245e-12
9.81045e-13
2.63047e-06
-3.50253e-12
1.20823e-11
2.63047e-06
6.39093e-12
-1.07306e-11
-2.87838e-12
-1.37796e-12
2.16194e-06
-1.82551e-12
5.93972e-12
2.16194e-06
3.08576e-12
-5.20034e-12
-1.25182e-12
-7.29653e-13
1.73886e-06
-5.93922e-13
2.84222e-12
1.73887e-06
9.70377e-13
-3.41736e-12
-3.7093e-13
5.86264e-13
1.32364e-06
-2.22898e-13
1.8526e-12
1.32365e-06
1.89901e-13
-2.94838e-12
3.48482e-14
1.10889e-12
7.19174e-07
2.95362e-12
7.19175e-07
-3.59841e-12
6.51646e-13
8.63853e-07
-7.33243e-14
5.01907e-12
8.63854e-07
-3.07115e-13
-3.90263e-12
-1.14347e-14
7.35331e-13
1.55065e-06
4.396e-13
2.31315e-12
1.55065e-06
-1.23597e-12
-4.28986e-12
4.49995e-13
1.41193e-12
2.03733e-06
1.88468e-12
3.89419e-12
2.03733e-06
-3.5735e-12
-4.97038e-12
1.45278e-12
8.03815e-13
2.53371e-06
3.71561e-12
7.43552e-12
2.53371e-06
-7.14403e-12
-7.09575e-12
3.25722e-12
-5.86136e-13
3.0824e-06
4.76266e-12
1.47512e-11
3.08241e-06
-1.07324e-11
-1.37696e-11
5.84081e-12
-1.1685e-12
3.70592e-06
4.55979e-12
2.19762e-11
3.70593e-06
-1.31691e-11
-2.35827e-11
8.50768e-12
1.48625e-12
4.42411e-06
3.11867e-12
2.78759e-11
4.42412e-06
-1.37962e-11
-3.38001e-11
1.06077e-11
5.78105e-12
5.25813e-06
1.17894e-12
3.01342e-11
5.25814e-06
-1.27403e-11
-4.17295e-11
1.15235e-11
1.14506e-11
6.23136e-06
-6.71718e-13
3.59548e-11
6.23137e-06
-1.06311e-11
-4.8046e-11
1.12822e-11
1.2015e-11
7.3689e-06
-1.98635e-12
3.45778e-11
7.36891e-06
-8.4305e-12
-4.76734e-11
1.04005e-11
1.30742e-11
8.69613e-06
-2.39386e-12
3.50689e-11
8.69613e-06
-7.17592e-12
-4.7835e-11
9.54989e-12
1.27839e-11
1.02371e-05
-2.29977e-12
3.79159e-11
1.02371e-05
-6.10792e-12
-7.8062e-11
8.38568e-12
4.01535e-11
1.20147e-05
-2.04098e-12
3.6207e-11
1.20147e-05
-4.02375e-12
-1.02615e-10
6.03658e-12
6.64381e-11
1.40521e-05
-1.27761e-12
3.48284e-11
1.40521e-05
-1.92954e-12
-1.22721e-10
3.17019e-12
8.79292e-11
1.63734e-05
1.77787e-13
4.34807e-11
1.63734e-05
8.55436e-14
-1.45357e-10
-3.04692e-13
1.01895e-10
1.63734e-05
1.64379e-12
4.30067e-11
1.63734e-05
2.10248e-12
-1.45426e-10
-3.76171e-12
1.02305e-10
1.4052e-05
2.46666e-12
3.43858e-11
1.40521e-05
4.24785e-12
-1.23314e-10
-6.59473e-12
8.83852e-11
1.20147e-05
2.56398e-12
3.74087e-11
1.20147e-05
6.16379e-12
-1.01965e-10
-9.20342e-12
6.76748e-11
1.02371e-05
2.84801e-12
3.64724e-11
1.02371e-05
7.35428e-12
-7.87038e-11
-1.02011e-11
3.81085e-11
8.69607e-06
2.22713e-12
3.4969e-11
8.69607e-06
8.54468e-12
-4.44381e-11
-1.11255e-11
1.33642e-11
7.36883e-06
9.93274e-13
3.40966e-11
7.36883e-06
1.09952e-11
-4.92379e-11
-1.17972e-11
1.20136e-11
6.23128e-06
-1.06186e-12
3.68154e-11
6.23129e-06
1.32201e-11
-4.88933e-11
-1.21192e-11
1.26389e-11
5.25805e-06
-3.25823e-12
3.02805e-11
5.25806e-06
1.44994e-11
-4.27164e-11
-1.1235e-11
1.2555e-11
4.42402e-06
-4.87917e-12
2.84296e-11
4.42403e-06
1.38642e-11
-3.4053e-11
-8.98214e-12
5.63838e-12
3.70583e-06
-5.11363e-12
2.27919e-11
3.70584e-06
1.11938e-11
-2.28821e-11
-6.07456e-12
8.39679e-14
3.08232e-06
-4.01323e-12
1.52803e-11
3.08233e-06
7.33558e-12
-1.2744e-11
-3.31127e-12
-2.56808e-12
2.53364e-06
-2.11444e-12
7.71846e-12
2.53365e-06
3.55919e-12
-6.23446e-12
-1.43528e-12
-1.47267e-12
2.03728e-06
-7.0225e-13
4.08996e-12
2.03729e-06
1.12817e-12
-4.44208e-12
-4.1961e-13
3.66406e-13
1.55063e-06
-2.40061e-13
2.99152e-12
1.55063e-06
2.03419e-13
-4.15752e-12
3.87109e-14
1.18336e-12
8.63843e-07
3.67933e-12
8.63844e-07
-4.5181e-12
8.47698e-13
1.034e-06
-6.58258e-14
6.13156e-12
1.034e-06
-3.24648e-13
-4.81126e-12
-1.54678e-14
9.37414e-13
1.8041e-06
5.35176e-13
3.61578e-12
1.8041e-06
-1.416e-12
-5.68799e-12
5.0299e-13
1.47932e-12
2.36979e-06
2.17487e-12
5.20954e-12
2.36979e-06
-4.08322e-12
-6.1654e-12
1.64941e-12
5.646e-13
2.94848e-06
4.22713e-12
9.3219e-12
2.94848e-06
-8.13125e-12
-8.27685e-12
3.71584e-12
-1.36208e-12
3.58722e-06
5.40416e-12
1.8132e-11
3.58722e-06
-1.22118e-11
-1.59739e-11
6.66557e-12
-2.39121e-12
4.31223e-06
5.17359e-12
2.6972e-11
4.31224e-06
-1.49976e-11
-2.76709e-11
9.71196e-12
5.48617e-13
5.1467e-06
3.54448e-12
3.42472e-11
5.1467e-06
-1.57272e-11
-4.01e-11
1.21059e-11
5.67436e-12
6.11524e-06
1.34563e-12
3.7086e-11
6.11524e-06
-1.45315e-11
-4.99772e-11
1.31444e-11
1.27113e-11
7.24502e-06
-7.60022e-13
4.37853e-11
7.24502e-06
-1.21346e-11
-5.76802e-11
1.28724e-11
1.37996e-11
8.56519e-06
-2.25978e-12
4.1899e-11
8.5652e-06
-9.62885e-12
-5.7092e-11
1.1871e-11
1.51671e-11
1.01052e-05
-2.7423e-12
4.18621e-11
1.01052e-05
-8.19423e-12
-5.6736e-11
1.0915e-11
1.48956e-11
1.18932e-05
-2.65074e-12
4.2729e-11
1.18932e-05
-6.96967e-12
-8.99248e-11
9.59666e-12
4.72054e-11
1.39558e-05
-2.36328e-12
3.7922e-11
1.39558e-05
-4.58437e-12
-1.1656e-10
6.91701e-12
7.86742e-11
1.63203e-05
-1.49069e-12
3.43144e-11
1.63203e-05
-2.19068e-12
-1.38306e-10
3.6407e-12
1.04038e-10
1.90151e-05
2.0328e-13
4.26343e-11
1.90151e-05
9.90191e-14
-1.63681e-10
-3.48112e-13
1.2107e-10
1.90151e-05
1.90906e-12
4.20806e-11
1.90151e-05
2.39069e-12
-1.63729e-10
-4.31754e-12
1.21506e-10
1.63203e-05
2.8429e-12
3.376e-11
1.63203e-05
4.84175e-12
-1.38983e-10
-7.5613e-12
1.04539e-10
1.39558e-05
2.95839e-12
3.93432e-11
1.39558e-05
7.0495e-12
-1.15774e-10
-1.05208e-11
8.01856e-11
1.18932e-05
3.25521e-12
4.11954e-11
1.18932e-05
8.40522e-12
-9.0697e-11
-1.16573e-11
4.48626e-11
1.01052e-05
2.53763e-12
4.18192e-11
1.01052e-05
9.77294e-12
-5.29644e-11
-1.26936e-11
1.54264e-11
8.56511e-06
1.11624e-12
4.14054e-11
8.56512e-06
1.25532e-11
-5.90149e-11
-1.34713e-11
1.39007e-11
7.24493e-06
-1.21619e-12
4.49222e-11
7.24494e-06
1.50888e-11
-5.87564e-11
-1.38299e-11
1.45507e-11
6.11515e-06
-3.70254e-12
3.74903e-11
6.11516e-06
1.65313e-11
-5.12809e-11
-1.2822e-11
1.39457e-11
5.14661e-06
-5.53299e-12
3.50772e-11
5.14661e-06
1.57887e-11
-4.04848e-11
-1.02525e-11
5.42618e-12
4.31214e-06
-5.79941e-12
2.80133e-11
4.31215e-06
1.2741e-11
-2.69282e-11
-6.93539e-12
-1.09427e-12
3.58713e-06
-4.56174e-12
1.88108e-11
3.58714e-06
8.35619e-12
-1.48483e-11
-3.78247e-12
-4.00003e-12
2.94841e-06
-2.4316e-12
9.71554e-12
2.94841e-06
4.07508e-12
-7.33783e-12
-1.63313e-12
-2.36476e-12
2.36974e-06
-8.23699e-13
5.55732e-12
2.36974e-06
1.30117e-12
-5.61972e-12
-4.70476e-13
8.00475e-14
1.80407e-06
-2.51998e-13
4.38288e-12
1.80407e-06
2.11468e-13
-5.60308e-12
4.27961e-14
1.24228e-12
1.03398e-06
4.50505e-12
1.03398e-06
-5.57042e-12
1.07655e-12
1.23361e-06
-5.03715e-14
7.35428e-12
1.23361e-06
-3.33252e-13
-5.86847e-12
-2.09489e-14
1.17648e-12
2.0888e-06
6.5603e-13
5.18454e-12
2.0888e-06
-1.61062e-12
-7.31024e-12
5.56836e-13
1.52599e-12
2.74187e-06
2.50005e-12
6.73122e-12
2.74188e-06
-4.63777e-12
-7.49632e-12
1.86035e-12
2.53455e-13
3.41322e-06
4.78028e-12
1.14148e-11
3.41322e-06
-9.19884e-12
-9.51551e-12
4.21545e-12
-2.29059e-12
4.1535e-06
6.09133e-12
2.18358e-11
4.15351e-06
-1.38105e-11
-1.82615e-11
7.56523e-12
-3.85656e-12
4.99285e-06
5.82943e-12
3.24725e-11
4.99286e-06
-1.69751e-11
-3.19882e-11
1.10242e-11
-6.67009e-13
5.95815e-06
4.00012e-12
4.13226e-11
5.95816e-06
-1.78172e-11
-4.68531e-11
1.37339e-11
5.31372e-12
7.07793e-06
1.52452e-12
4.48806e-11
7.07794e-06
-1.64779e-11
-5.89259e-11
1.49089e-11
1.38267e-11
8.38362e-06
-8.54902e-13
5.24364e-11
8.38363e-06
-1.37802e-11
-6.81389e-11
1.46116e-11
1.55861e-11
9.90895e-06
-2.55458e-12
4.99796e-11
9.90895e-06
-1.09441e-11
-6.7331e-11
1.348e-11
1.73206e-11
1.1688e-05
-3.12391e-12
4.92265e-11
1.1688e-05
-9.30554e-12
-6.62455e-11
1.24066e-11
1.70448e-11
1.37534e-05
-3.0387e-12
4.75165e-11
1.37534e-05
-7.90749e-12
-1.01814e-10
1.09212e-11
5.43089e-11
1.61361e-05
-2.72051e-12
3.90466e-11
1.61361e-05
-5.2032e-12
-1.29998e-10
7.89107e-12
9.09955e-11
1.88679e-05
-1.72962e-12
3.27851e-11
1.88679e-05
-2.48338e-12
-1.52934e-10
4.16902e-12
1.20207e-10
2.19821e-05
2.31003e-13
4.03694e-11
2.19821e-05
1.15076e-13
-1.80785e-10
-3.96068e-13
1.40446e-10
2.19821e-05
2.20461e-12
3.97387e-11
2.19821e-05
2.71564e-12
-1.80807e-10
-4.9402e-12
1.40896e-10
1.88679e-05
3.25727e-12
3.21163e-11
1.88679e-05
5.4985e-12
-1.53692e-10
-8.63087e-12
1.20746e-10
1.6136e-05
3.39323e-12
4.0696e-11
1.6136e-05
8.01608e-12
-1.29067e-10
-1.196e-11
9.28012e-11
1.37533e-05
3.70152e-12
4.58932e-11
1.37533e-05
9.55699e-12
-1.02749e-10
-1.32457e-11
5.16537e-11
1.16879e-05
2.87169e-12
4.92983e-11
1.16879e-05
1.1124e-11
-6.21257e-11
-1.441e-11
1.75359e-11
9.90886e-06
1.24633e-12
4.94879e-11
9.90887e-06
1.42604e-11
-6.96498e-11
-1.53056e-11
1.58376e-11
8.38353e-06
-1.38241e-12
5.3886e-11
8.38354e-06
1.71212e-11
-6.94837e-11
-1.56925e-11
1.64689e-11
7.07784e-06
-4.17734e-12
4.56089e-11
7.07785e-06
1.87295e-11
-6.06023e-11
-1.45445e-11
1.5187e-11
5.95806e-06
-6.23023e-12
4.24768e-11
5.95807e-06
1.78692e-11
-4.74108e-11
-1.16352e-11
4.95661e-12
4.99276e-06
-6.53239e-12
3.37609e-11
4.99277e-06
1.44139e-11
-3.12355e-11
-7.87471e-12
-2.53767e-12
4.15342e-06
-5.15209e-12
2.26757e-11
4.15342e-06
9.46197e-12
-1.70595e-11
-4.29721e-12
-5.65968e-12
3.41315e-06
-2.78099e-12
1.19273e-11
3.41315e-06
4.63901e-12
-8.51776e-12
-1.84698e-12
-3.39497e-12
2.74182e-06
-9.60051e-13
7.24246e-12
2.74183e-06
1.49116e-12
-6.95663e-12
-5.23546e-13
-2.64702e-13
2.08877e-06
-2.57052e-13
6.02918e-12
2.08877e-06
2.12267e-13
-7.29301e-12
4.7256e-14
1.291e-12
1.2336e-06
5.45308e-12
1.2336e-06
-6.78056e-12
1.34114e-12
1.46715e-06
-2.7579e-14
8.6996e-12
1.46715e-06
-3.30123e-13
-7.10842e-12
-2.79013e-14
1.45671e-12
2.40994e-06
8.04809e-13
7.02712e-12
2.40994e-06
-1.82058e-12
-9.16328e-12
6.11258e-13
1.55536e-12
3.15958e-06
2.86471e-12
8.46814e-12
3.15959e-06
-5.24129e-12
-8.97007e-12
2.08651e-12
-1.24159e-13
3.93528e-06
5.37848e-12
1.37182e-11
3.93529e-06
-1.03537e-11
-1.08221e-11
4.7603e-12
-3.3626e-12
4.79032e-06
6.82608e-12
2.58707e-11
4.79033e-06
-1.55384e-11
-2.06527e-11
8.54844e-12
-5.55135e-12
5.75882e-06
6.52802e-12
3.85024e-11
5.75883e-06
-1.91156e-11
-3.65726e-11
1.24581e-11
-2.14694e-12
6.87174e-06
4.48558e-12
4.91519e-11
6.87174e-06
-2.00838e-11
-5.41189e-11
1.55097e-11
4.70927e-12
8.16199e-06
1.71495e-12
5.35964e-11
8.16199e-06
-1.85989e-11
-6.86512e-11
1.68372e-11
1.47944e-11
9.66585e-06
-9.57722e-13
6.19773e-11
9.66586e-06
-1.55877e-11
-7.9498e-11
1.65212e-11
1.73818e-11
1.14222e-05
-2.87291e-12
5.8898e-11
1.14222e-05
-1.23931e-11
-7.84894e-11
1.52469e-11
1.95555e-11
1.34704e-05
-3.543e-12
5.7228e-11
1.34704e-05
-1.05196e-11
-7.64358e-11
1.4039e-11
1.92382e-11
1.5848e-05
-3.46929e-12
5.23467e-11
1.58481e-05
-8.92815e-12
-1.13711e-10
1.23718e-11
6.13783e-11
1.85911e-05
-3.11638e-12
3.97015e-11
1.85912e-05
-5.88807e-12
-1.42836e-10
8.97045e-12
1.03187e-10
2.17366e-05
-1.99601e-12
3.03832e-11
2.17366e-05
-2.81147e-12
-1.66463e-10
4.76075e-12
1.3615e-10
2.5323e-05
2.60982e-13
3.68259e-11
2.5323e-05
1.34165e-13
-1.96492e-10
-4.48866e-13
1.59703e-10
2.5323e-05
2.53213e-12
3.61228e-11
2.5323e-05
3.08196e-12
-1.96481e-10
-5.63593e-12
1.60154e-10
2.17365e-05
3.71366e-12
2.96e-11
2.17365e-05
6.22625e-12
-1.67295e-10
-9.81568e-12
1.3672e-10
1.85911e-05
3.87487e-12
4.15857e-11
1.85911e-05
9.07096e-12
-1.41749e-10
-1.35334e-11
1.05305e-10
1.5848e-05
4.19095e-12
5.06296e-11
1.5848e-05
1.08199e-11
-1.14848e-10
-1.49816e-11
5.83987e-11
1.34703e-05
3.23224e-12
5.74776e-11
1.34703e-05
1.26166e-11
-7.2001e-11
-1.62948e-11
1.97071e-11
1.14221e-05
1.38492e-12
5.84237e-11
1.14221e-05
1.61381e-11
-8.12422e-11
-1.7323e-11
1.78482e-11
9.66576e-06
-1.55979e-12
6.37761e-11
9.66577e-06
1.93386e-11
-8.11549e-11
-1.77287e-11
1.84e-11
8.1619e-06
-4.6823e-12
5.47169e-11
8.16191e-06
2.11123e-11
-7.07603e-11
-1.6421e-11
1.62782e-11
6.87164e-06
-6.9712e-12
5.06779e-11
6.87165e-06
2.01197e-11
-5.48981e-11
-1.31441e-11
4.24744e-12
5.75873e-06
-7.31419e-12
4.00583e-11
5.75874e-06
1.62226e-11
-3.58473e-11
-8.90099e-12
-4.22625e-12
4.79024e-06
-5.78739e-12
2.68807e-11
4.79025e-06
1.06603e-11
-1.94008e-11
-4.85979e-12
-7.52903e-12
3.93521e-06
-3.16643e-12
1.4354e-11
3.93522e-06
5.25576e-12
-9.78685e-12
-2.07785e-12
-4.55099e-12
3.15953e-06
-1.11288e-12
9.14693e-12
3.15954e-06
1.69946e-12
-8.46239e-12
-5.78581e-13
-6.59924e-13
2.40991e-06
-2.53352e-13
7.93414e-12
2.40991e-06
2.03741e-13
-9.23657e-12
5.23398e-14
1.33488e-12
1.46713e-06
6.55163e-12
1.46714e-06
-8.17989e-12
1.64465e-12
1.73955e-06
1.40965e-15
1.01866e-11
1.73955e-06
-3.12104e-13
-8.57395e-12
-3.62764e-14
1.7822e-12
2.7733e-06
9.83946e-13
9.15329e-12
2.7733e-06
-2.04603e-12
-1.1256e-11
6.65775e-13
1.57125e-12
3.62953e-06
3.27328e-12
1.04346e-11
3.62954e-06
-5.89703e-12
-1.05987e-11
2.32816e-12
-5.62708e-13
4.5227e-06
6.02442e-12
1.6243e-11
4.5227e-06
-1.16008e-11
-1.22147e-11