/*--------------------------------*- C++ -*----------------------------------*\
  =========                 |
  \\      /  F ield         | OpenFOAM: The Open Source CFD Toolbox
   \\    /   O peration     | Website:  https://openfoam.org
    \\  /    A nd           | Version:  6
     \\/     M anipulation  |
\*---------------------------------------------------------------------------*/
FoamFile
{
    version     2.0;
    format      ascii;
    class       volScalarField;
    location    "0.8";
    object      nut;
}
// * * * * * * * * * * * * * * * * * * * * * * * * * * * * * * * * * * * * * //

dimensions      [0 2 -1 0 0 0 0];

internalField   nonuniform List<scalar> 
63280
(
5.34043e-07
5.43949e-07
5.49548e-07
5.50782e-07
5.50965e-07
5.52079e-07
5.46515e-07
5.37478e-07
5.26359e-07
5.18659e-07
5.09535e-07
5.01221e-07
4.90123e-07
4.77385e-07
4.64452e-07
4.4742e-07
4.33936e-07
4.40341e-07
4.38792e-07
4.36669e-07
4.31389e-07
4.27954e-07
4.21607e-07
4.12437e-07
3.99249e-07
3.94173e-07
3.89951e-07
3.92154e-07
3.9165e-07
3.93962e-07
3.93882e-07
3.95825e-07
3.94668e-07
3.94762e-07
3.75085e-07
3.76886e-07
3.80204e-07
3.8218e-07
3.87949e-07
3.9448e-07
3.90314e-07
3.77985e-07
3.67446e-07
3.60176e-07
3.54496e-07
3.50877e-07
3.46819e-07
3.43763e-07
3.40599e-07
3.37796e-07
3.37701e-07
3.5071e-07
3.55815e-07
3.58284e-07
3.57575e-07
3.56031e-07
3.54761e-07
3.51393e-07
3.48072e-07
3.45094e-07
3.43798e-07
3.41952e-07
3.40308e-07
3.37383e-07
3.34385e-07
3.305e-07
3.26849e-07
3.20949e-07
3.03751e-07
3.04296e-07
3.03823e-07
2.99949e-07
2.9562e-07
2.8867e-07
2.82112e-07
2.74732e-07
2.72905e-07
2.72305e-07
2.73866e-07
2.76401e-07
2.78075e-07
2.80501e-07
2.81462e-07
2.83847e-07
2.85982e-07
2.58284e-07
2.57957e-07
2.59335e-07
2.61069e-07
2.64625e-07
2.67162e-07
2.65849e-07
2.61456e-07
2.5801e-07
2.54944e-07
2.53241e-07
2.5093e-07
2.50734e-07
2.48399e-07
2.48452e-07
2.46814e-07
2.4817e-07
2.37103e-07
2.3536e-07
2.34542e-07
2.35418e-07
2.37907e-07
2.41051e-07
2.43624e-07
2.45101e-07
2.45493e-07
2.45318e-07
2.44661e-07
2.43888e-07
2.43587e-07
2.42406e-07
2.42266e-07
2.40916e-07
2.39329e-07
2.03137e-07
1.99684e-07
1.96979e-07
1.9492e-07
1.94953e-07
1.9552e-07
1.9528e-07
1.94627e-07
1.95272e-07
1.95653e-07
1.97873e-07
1.98307e-07
2.01043e-07
2.0223e-07
2.03975e-07
2.05962e-07
2.06326e-07
1.83824e-07
1.83379e-07
1.81655e-07
1.79498e-07
1.78666e-07
1.79122e-07
1.79726e-07
1.80406e-07
1.81072e-07
1.81759e-07
1.82552e-07
1.82766e-07
1.83905e-07
1.84195e-07
1.85244e-07
1.85396e-07
1.86788e-07
1.62528e-07
1.60094e-07
1.56263e-07
1.51748e-07
1.48854e-07
1.47104e-07
1.46433e-07
1.45777e-07
1.46964e-07
1.47134e-07
1.49176e-07
1.4999e-07
1.51421e-07
1.53104e-07
1.54784e-07
1.55776e-07
1.56332e-07
1.38561e-07
1.39893e-07
1.41424e-07
1.4162e-07
1.41085e-07
1.39591e-07
1.3775e-07
1.36084e-07
1.35902e-07
1.36029e-07
1.3689e-07
1.37303e-07
1.3814e-07
1.38306e-07
1.39903e-07
1.39428e-07
1.39898e-07
1.23645e-07
1.25663e-07
1.27404e-07
1.27456e-07
1.24606e-07
1.2071e-07
1.14915e-07
1.1185e-07
1.09731e-07
1.09639e-07
1.10762e-07
1.11882e-07
1.12687e-07
1.12764e-07
1.13557e-07
1.15426e-07
1.19007e-07
1.03323e-07
1.03639e-07
1.04191e-07
1.04494e-07
1.05122e-07
1.05564e-07
1.04939e-07
1.04153e-07
1.03461e-07
1.02959e-07
1.02783e-07
1.02523e-07
1.02559e-07
1.0174e-07
1.02069e-07
1.01671e-07
1.03902e-07
9.19682e-08
9.26168e-08
9.32627e-08
9.39803e-08
9.51381e-08
9.65129e-08
9.76674e-08
9.83755e-08
9.85936e-08
9.84828e-08
9.83009e-08
9.81339e-08
9.83905e-08
9.86829e-08
9.93256e-08
9.95674e-08
9.98432e-08
7.44725e-08
7.47089e-08
7.48861e-08
7.47604e-08
7.51084e-08
7.54619e-08
7.55081e-08
7.56217e-08
7.60256e-08
7.65629e-08
7.71663e-08
7.76363e-08
7.84261e-08
7.88272e-08
8.00908e-08
8.00877e-08
8.1259e-08
6.57332e-08
6.62575e-08
6.65678e-08
6.67683e-08
6.7298e-08
6.79115e-08
6.8374e-08
6.87139e-08
6.89678e-08
6.90976e-08
6.91917e-08
6.92386e-08
6.95599e-08
6.98392e-08
7.04876e-08
7.07984e-08
7.12377e-08
5.06557e-08
5.07643e-08
5.06072e-08
5.02071e-08
5.03031e-08
5.03684e-08
5.02006e-08
5.02147e-08
5.05687e-08
5.10274e-08
5.1443e-08
5.17317e-08
5.20886e-08
5.23936e-08
5.28934e-08
5.31748e-08
5.38031e-08
4.16763e-08
4.24035e-08
4.27477e-08
4.2896e-08
4.3178e-08
4.33963e-08
4.35211e-08
4.36579e-08
4.37855e-08
4.37994e-08
4.37906e-08
4.3796e-08
4.40382e-08
4.43079e-08
4.46806e-08
4.50224e-08
4.53188e-08
2.24774e-08
2.26882e-08
2.31794e-08
2.35099e-08
2.37886e-08
2.42617e-08
2.43563e-08
2.43339e-08
2.47018e-08
2.54322e-08
2.60508e-08
2.6405e-08
2.64023e-08
2.65023e-08
2.66388e-08
2.68043e-08
2.72198e-08
2.75613e-08
1.22789e-08
1.17448e-08
1.16151e-08
1.15735e-08
1.15746e-08
1.15515e-08
1.15282e-08
1.15144e-08
1.15252e-08
1.1632e-08
1.18173e-08
1.19407e-08
1.19909e-08
1.20538e-08
1.18193e-08
1.23505e-08
1.15939e-08
1.22963e-08
9.90654e-08
9.70013e-08
9.75946e-08
9.6641e-08
9.62002e-08
9.91905e-08
9.63664e-08
9.04624e-08
8.77656e-08
8.92144e-08
9.28224e-08
9.63536e-08
9.89786e-08
1.00333e-07
1.01296e-07
1.02135e-07
1.02444e-07
1.04453e-07
3.95614e-06
3.96908e-06
3.98381e-06
3.99776e-06
4.00594e-06
4.0133e-06
4.01344e-06
4.01987e-06
4.02446e-06
4.03435e-06
4.03771e-06
4.04256e-06
4.04095e-06
4.03263e-06
4.03529e-06
4.02648e-06
4.02793e-06
3.90136e-06
3.90519e-06
3.91518e-06
3.92117e-06
3.93053e-06
3.92653e-06
3.92916e-06
3.91845e-06
3.92006e-06
3.91918e-06
3.927e-06
3.92964e-06
3.94456e-06
3.95009e-06
3.95737e-06
3.95958e-06
3.95802e-06
3.83485e-06
3.8355e-06
3.83921e-06
3.84122e-06
3.8472e-06
3.85543e-06
3.86717e-06
3.87499e-06
3.87885e-06
3.88145e-06
3.87549e-06
3.87357e-06
3.87281e-06
3.87328e-06
3.88051e-06
3.87614e-06
3.87635e-06
3.7715e-06
3.78588e-06
3.80396e-06
3.81781e-06
3.8226e-06
3.8242e-06
3.82236e-06
3.82663e-06
3.83059e-06
3.83787e-06
3.84077e-06
3.84507e-06
3.84451e-06
3.84497e-06
3.84359e-06
3.85103e-06
3.84571e-06
3.71192e-06
3.71507e-06
3.73161e-06
3.7436e-06
3.75328e-06
3.74342e-06
3.73889e-06
3.72135e-06
3.7161e-06
3.71686e-06
3.71746e-06
3.72957e-06
3.73718e-06
3.75325e-06
3.75662e-06
3.76304e-06
3.76355e-06
3.63576e-06
3.62724e-06
3.62608e-06
3.6285e-06
3.63804e-06
3.64984e-06
3.66514e-06
3.6718e-06
3.67628e-06
3.67228e-06
3.67246e-06
3.66374e-06
3.6715e-06
3.66896e-06
3.67714e-06
3.67397e-06
3.67781e-06
3.57776e-06
3.57407e-06
3.56542e-06
3.55964e-06
3.56234e-06
3.57423e-06
3.59174e-06
3.61007e-06
3.6238e-06
3.63311e-06
3.6371e-06
3.63667e-06
3.64087e-06
3.6383e-06
3.64274e-06
3.64664e-06
3.64738e-06
3.49332e-06
3.48262e-06
3.47065e-06
3.4564e-06
3.44847e-06
3.44961e-06
3.459e-06
3.46627e-06
3.48013e-06
3.48132e-06
3.4978e-06
3.49782e-06
3.5128e-06
3.52343e-06
3.53053e-06
3.54789e-06
3.55418e-06
3.38891e-06
3.40115e-06
3.40367e-06
3.39335e-06
3.38124e-06
3.37813e-06
3.38338e-06
3.39418e-06
3.40473e-06
3.41231e-06
3.42212e-06
3.42419e-06
3.43547e-06
3.44048e-06
3.45222e-06
3.45481e-06
3.47192e-06
3.30994e-06
3.31894e-06
3.31611e-06
3.2921e-06
3.26535e-06
3.24464e-06
3.24257e-06
3.2382e-06
3.25371e-06
3.2528e-06
3.26999e-06
3.27932e-06
3.28895e-06
3.3014e-06
3.31752e-06
3.33234e-06
3.34342e-06
3.15845e-06
3.1651e-06
3.18477e-06
3.19907e-06
3.20555e-06
3.20079e-06
3.19249e-06
3.17871e-06
3.17614e-06
3.17417e-06
3.18263e-06
3.18803e-06
3.20058e-06
3.20088e-06
3.22363e-06
3.22736e-06
3.24368e-06
3.04429e-06
3.05951e-06
3.0896e-06
3.12378e-06
3.12944e-06
3.12377e-06
3.07462e-06
3.0406e-06
3.00926e-06
2.99669e-06
3.00477e-06
3.0202e-06
3.03643e-06
3.03732e-06
3.03468e-06
3.03358e-06
3.0491e-06
2.90598e-06
2.90986e-06
2.92018e-06
2.92645e-06
2.93381e-06
2.94533e-06
2.94748e-06
2.94505e-06
2.93969e-06
2.93364e-06
2.93342e-06
2.93295e-06
2.94156e-06
2.93284e-06
2.93959e-06
2.92426e-06
2.94134e-06
2.77915e-06
2.78832e-06
2.79748e-06
2.80485e-06
2.81661e-06
2.83416e-06
2.85331e-06
2.86935e-06
2.87868e-06
2.88142e-06
2.88158e-06
2.87929e-06
2.88218e-06
2.8847e-06
2.89521e-06
2.90261e-06
2.91074e-06
2.59376e-06
2.60114e-06
2.61024e-06
2.61053e-06
2.61627e-06
2.62629e-06
2.6329e-06
2.6373e-06
2.64375e-06
2.65181e-06
2.66241e-06
2.66955e-06
2.68401e-06
2.68793e-06
2.71264e-06
2.71206e-06
2.73488e-06
2.4498e-06
2.46426e-06
2.47372e-06
2.47777e-06
2.48656e-06
2.49899e-06
2.5105e-06
2.5198e-06
2.52727e-06
2.5322e-06
2.53658e-06
2.53843e-06
2.54539e-06
2.55009e-06
2.56399e-06
2.57179e-06
2.58284e-06
2.21405e-06
2.22513e-06
2.22918e-06
2.22156e-06
2.2244e-06
2.23005e-06
2.229e-06
2.22841e-06
2.23541e-06
2.24676e-06
2.25871e-06
2.26703e-06
2.27664e-06
2.28384e-06
2.29672e-06
2.30279e-06
2.31976e-06
1.99247e-06
2.01859e-06
2.03296e-06
2.03875e-06
2.04742e-06
2.05537e-06
2.06066e-06
2.06585e-06
2.07158e-06
2.07469e-06
2.07679e-06
2.07734e-06
2.08368e-06
2.09086e-06
2.10127e-06
2.11133e-06
2.1218e-06
1.46717e-06
1.4753e-06
1.49765e-06
1.51331e-06
1.52455e-06
1.54607e-06
1.55252e-06
1.54913e-06
1.55826e-06
1.58437e-06
1.60986e-06
1.62791e-06
1.63022e-06
1.6353e-06
1.64049e-06
1.64537e-06
1.66034e-06
1.67392e-06
1.04597e-06
1.01344e-06
1.0059e-06
1.00384e-06
1.00479e-06
1.00379e-06
1.00218e-06
1.00143e-06
1.0026e-06
1.00968e-06
1.02223e-06
1.03107e-06
1.03509e-06
1.0409e-06
1.02281e-06
1.06246e-06
1.00832e-06
1.0513e-06
9.37276e-06
9.26742e-06
9.2532e-06
9.20462e-06
9.1563e-06
9.2494e-06
9.21329e-06
9.06307e-06
8.98956e-06
9.057e-06
9.20889e-06
9.36931e-06
9.51511e-06
9.63392e-06
9.75567e-06
9.88871e-06
1.00071e-05
1.01896e-05
8.47949e-06
8.50035e-06
8.52681e-06
8.5572e-06
8.57487e-06
8.5979e-06
8.60276e-06
8.62097e-06
8.63005e-06
8.65621e-06
8.67166e-06
8.69979e-06
8.72046e-06
8.71521e-06
8.74204e-06
8.73606e-06
8.74987e-06
8.39799e-06
8.39789e-06
8.41702e-06
8.42418e-06
8.44856e-06
8.4421e-06
8.46223e-06
8.44412e-06
8.44566e-06
8.44465e-06
8.46941e-06
8.48124e-06
8.52619e-06
8.55222e-06
8.58071e-06
8.6037e-06
8.60804e-06
8.27333e-06
8.27065e-06
8.27964e-06
8.28467e-06
8.29194e-06
8.30413e-06
8.33308e-06
8.35229e-06
8.35562e-06
8.36894e-06
8.36825e-06
8.3787e-06
8.39745e-06
8.40733e-06
8.44179e-06
8.44426e-06
8.44995e-06
8.15874e-06
8.17781e-06
8.21098e-06
8.244e-06
8.25871e-06
8.26864e-06
8.26593e-06
8.27355e-06
8.2768e-06
8.29382e-06
8.30626e-06
8.33053e-06
8.34516e-06
8.36216e-06
8.36714e-06
8.39952e-06
8.39324e-06
8.07823e-06
8.06899e-06
8.09467e-06
8.11473e-06
8.14796e-06
8.13729e-06
8.14601e-06
8.11396e-06
8.09227e-06
8.09631e-06
8.09249e-06
8.12729e-06
8.14706e-06
8.19503e-06
8.21087e-06
8.23556e-06
8.24271e-06
7.94954e-06
7.92873e-06
7.92081e-06
7.91788e-06
7.92903e-06
7.94805e-06
7.98555e-06
7.99994e-06
8.01011e-06
8.0024e-06
8.01794e-06
8.00828e-06
8.04119e-06
8.04808e-06
8.07687e-06
8.07749e-06
8.09991e-06
7.84547e-06
7.84927e-06
7.8354e-06
7.81715e-06
7.80924e-06
7.82006e-06
7.84738e-06
7.88358e-06
7.91407e-06
7.94052e-06
7.96072e-06
7.96683e-06
7.99044e-06
7.99311e-06
8.00908e-06
8.02721e-06
8.03959e-06
7.71435e-06
7.70244e-06
7.68617e-06
7.65802e-06
7.63274e-06
7.62725e-06
7.64713e-06
7.65217e-06
7.68118e-06
7.67481e-06
7.7217e-06
7.73022e-06
7.7658e-06
7.80265e-06
7.81245e-06
7.85777e-06
7.87129e-06
7.51051e-06
7.54157e-06
7.56343e-06
7.55665e-06
7.5306e-06
7.51403e-06
7.51308e-06
7.52508e-06
7.54234e-06
7.55497e-06
7.5878e-06
7.59854e-06
7.63412e-06
7.65238e-06
7.68685e-06
7.69265e-06
7.73549e-06
7.39231e-06
7.41576e-06
7.43705e-06
7.41597e-06
7.37324e-06
7.32354e-06
7.31632e-06
7.28593e-06
7.31442e-06
7.30517e-06
7.34257e-06
7.3767e-06
7.4013e-06
7.42997e-06
7.4645e-06
7.49439e-06
7.53345e-06
7.13835e-06
7.13887e-06
7.17488e-06
7.20962e-06
7.23382e-06
7.23537e-06
7.22954e-06
7.19285e-06
7.17614e-06
7.16136e-06
7.18252e-06
7.20084e-06
7.24481e-06
7.24304e-06
7.30184e-06
7.31254e-06
7.36113e-06
6.94248e-06
6.95493e-06
6.99844e-06
7.07996e-06
7.11252e-06
7.1568e-06
7.09452e-06
7.03663e-06
6.96908e-06
6.91963e-06
6.92315e-06
6.95368e-06
6.99807e-06
7.0106e-06
7.01232e-06
7.00137e-06
7.01257e-06
6.72704e-06
6.72987e-06
6.75523e-06
6.77463e-06
6.78602e-06
6.81532e-06
6.82652e-06
6.81982e-06
6.80443e-06
6.78803e-06
6.79533e-06
6.80151e-06
6.84073e-06
6.82623e-06
6.858e-06
6.82096e-06
6.84115e-06
6.50184e-06
6.51425e-06
6.53363e-06
6.54698e-06
6.56071e-06
6.58642e-06
6.62021e-06
6.65225e-06
6.67495e-06
6.68618e-06
6.69558e-06
6.69748e-06
6.71107e-06
6.71504e-06
6.73771e-06
6.75575e-06
6.7795e-06
6.2206e-06
6.23498e-06
6.26636e-06
6.27613e-06
6.2866e-06
6.31275e-06
6.3342e-06
6.34016e-06
6.34407e-06
6.35473e-06
6.38139e-06
6.39804e-06
6.43724e-06
6.43629e-06
6.49587e-06
6.49206e-06
6.54487e-06
5.94582e-06
5.97878e-06
6.00651e-06
6.01708e-06
6.02855e-06
6.0505e-06
6.07425e-06
6.09176e-06
6.10547e-06
6.11714e-06
6.13439e-06
6.14501e-06
6.16778e-06
6.17719e-06
6.21052e-06
6.22952e-06
6.25874e-06
5.61739e-06
5.66003e-06
5.69725e-06
5.6953e-06
5.69975e-06
5.72179e-06
5.73069e-06
5.72264e-06
5.72187e-06
5.7377e-06
5.76679e-06
5.79068e-06
5.81671e-06
5.83246e-06
5.86274e-06
5.8735e-06
5.91491e-06
5.20042e-06
5.25812e-06
5.30048e-06
5.31824e-06
5.33464e-06
5.35299e-06
5.36686e-06
5.37552e-06
5.38532e-06
5.39462e-06
5.40759e-06
5.41455e-06
5.4292e-06
5.44369e-06
5.46511e-06
5.48384e-06
5.51414e-06
4.71453e-06
4.71476e-06
4.75557e-06
4.79339e-06
4.81424e-06
4.85832e-06
4.88691e-06
4.88538e-06
4.88004e-06
4.90012e-06
4.93111e-06
4.9758e-06
4.99029e-06
5.0127e-06
5.0236e-06
5.02836e-06
5.04787e-06
5.07221e-06
4.42075e-06
4.33326e-06
4.30329e-06
4.29157e-06
4.29412e-06
4.29106e-06
4.28303e-06
4.28077e-06
4.28886e-06
4.30505e-06
4.33696e-06
4.35901e-06
4.37589e-06
4.40376e-06
4.32493e-06
4.47946e-06
4.30056e-06
4.35626e-06
1.10566e-05
1.0941e-05
1.09243e-05
1.08823e-05
1.08222e-05
1.0917e-05
1.09079e-05
1.07682e-05
1.06829e-05
1.07403e-05
1.08977e-05
1.10733e-05
1.12394e-05
1.13746e-05
1.1514e-05
1.16658e-05
1.17992e-05
1.19983e-05
1.41267e-05
1.41452e-05
1.41757e-05
1.42228e-05
1.42459e-05
1.42818e-05
1.42841e-05
1.43136e-05
1.43245e-05
1.43656e-05
1.43858e-05
1.44372e-05
1.44969e-05
1.44953e-05
1.4561e-05
1.4576e-05
1.46057e-05
1.40406e-05
1.40261e-05
1.40522e-05
1.40559e-05
1.41001e-05
1.40803e-05
1.4118e-05
1.41016e-05
1.40977e-05
1.40867e-05
1.41228e-05
1.4135e-05
1.42102e-05
1.42684e-05
1.43235e-05
1.43835e-05
1.43938e-05
1.38554e-05
1.38392e-05
1.38457e-05
1.38534e-05
1.38616e-05
1.38608e-05
1.38989e-05
1.39444e-05
1.39486e-05
1.39702e-05
1.39691e-05
1.39816e-05
1.40297e-05
1.405e-05
1.41275e-05
1.4154e-05
1.41624e-05
1.36785e-05
1.36901e-05
1.37319e-05
1.37892e-05
1.38176e-05
1.38361e-05
1.38288e-05
1.38403e-05
1.38381e-05
1.38593e-05
1.38715e-05
1.39152e-05
1.39507e-05
1.3995e-05
1.40084e-05
1.40821e-05
1.40801e-05
1.3595e-05
1.35579e-05
1.3583e-05
1.3604e-05
1.367e-05
1.36551e-05
1.3683e-05
1.36537e-05
1.36003e-05
1.36038e-05
1.35768e-05
1.36301e-05
1.36561e-05
1.3747e-05
1.37856e-05
1.38391e-05
1.38587e-05
1.34007e-05
1.33648e-05
1.33405e-05
1.33257e-05
1.33328e-05
1.33425e-05
1.34038e-05
1.34395e-05
1.34635e-05
1.34414e-05
1.34672e-05
1.3448e-05
1.35054e-05
1.35339e-05
1.35948e-05
1.36014e-05
1.36611e-05
1.32288e-05
1.32497e-05
1.32357e-05
1.32025e-05
1.31733e-05
1.31686e-05
1.3195e-05
1.32476e-05
1.32957e-05
1.33394e-05
1.33816e-05
1.3391e-05
1.34403e-05
1.34565e-05
1.34853e-05
1.35222e-05
1.35607e-05
1.30481e-05
1.30403e-05
1.30191e-05
1.298e-05
1.29292e-05
1.28949e-05
1.29262e-05
1.29315e-05
1.29872e-05
1.29586e-05
1.30276e-05
1.30497e-05
1.30971e-05
1.31812e-05
1.31926e-05
1.32728e-05
1.32982e-05
1.27136e-05
1.27638e-05
1.28134e-05
1.28262e-05
1.27896e-05
1.27476e-05
1.27301e-05
1.27369e-05
1.27608e-05
1.2765e-05
1.28209e-05
1.28397e-05
1.29028e-05
1.29434e-05
1.30133e-05
1.30233e-05
1.30938e-05
1.2553e-05
1.25838e-05
1.2635e-05
1.26366e-05
1.25907e-05
1.24957e-05
1.24839e-05
1.24176e-05
1.24552e-05
1.24294e-05
1.24666e-05
1.25335e-05
1.25806e-05
1.26296e-05
1.26903e-05
1.27322e-05
1.28157e-05
1.21867e-05
1.21688e-05
1.22121e-05
1.22749e-05
1.2325e-05
1.23318e-05
1.23402e-05
1.22855e-05
1.22481e-05
1.22001e-05
1.22181e-05
1.22419e-05
1.23345e-05
1.23301e-05
1.24316e-05
1.24551e-05
1.25402e-05
1.18967e-05
1.18928e-05
1.1927e-05
1.20609e-05
1.21201e-05
1.2234e-05
1.21928e-05
1.212e-05
1.20227e-05
1.19154e-05
1.18847e-05
1.19164e-05
1.19981e-05
1.20354e-05
1.20546e-05
1.20379e-05
1.20428e-05
1.15787e-05
1.15705e-05
1.16073e-05
1.16562e-05
1.16713e-05
1.17134e-05
1.17443e-05
1.17442e-05
1.17185e-05
1.16736e-05
1.16738e-05
1.16754e-05
1.17618e-05
1.17467e-05
1.1815e-05
1.17641e-05
1.17751e-05
1.12414e-05
1.12462e-05
1.12736e-05
1.12988e-05
1.13135e-05
1.13403e-05
1.13855e-05
1.14346e-05
1.14724e-05
1.14898e-05
1.15071e-05
1.15113e-05
1.15421e-05
1.15495e-05
1.15852e-05
1.16121e-05
1.16521e-05
1.08483e-05
1.0858e-05
1.09125e-05
1.09478e-05
1.09612e-05
1.09986e-05
1.10505e-05
1.10766e-05
1.10783e-05
1.10749e-05
1.11068e-05
1.11261e-05
1.11993e-05
1.11923e-05
1.12893e-05
1.12888e-05
1.13656e-05
1.04216e-05
1.04659e-05
1.05136e-05
1.0538e-05
1.0549e-05
1.05745e-05
1.06137e-05
1.06458e-05
1.06661e-05
1.06772e-05
1.07028e-05
1.072e-05
1.07641e-05
1.07803e-05
1.08368e-05
1.08704e-05
1.09202e-05
1.00193e-05
1.00888e-05
1.01734e-05
1.01988e-05
1.02008e-05
1.02383e-05
1.02798e-05
1.02819e-05
1.02645e-05
1.02614e-05
1.02925e-05
1.03294e-05
1.03764e-05
1.04063e-05
1.04568e-05
1.04783e-05
1.05407e-05
9.48799e-06
9.55359e-06
9.6167e-06
9.64953e-06
9.67005e-06
9.69385e-06
9.71961e-06
9.73571e-06
9.7453e-06
9.74828e-06
9.76318e-06
9.77394e-06
9.79617e-06
9.81904e-06
9.85097e-06
9.87358e-06
9.92176e-06
9.51929e-06
9.53057e-06
9.58679e-06
9.64031e-06
9.67139e-06
9.73119e-06
9.78232e-06
9.79812e-06
9.78578e-06
9.78423e-06
9.78001e-06
9.82578e-06
9.83441e-06
9.88153e-06
9.89813e-06
9.90394e-06
9.92086e-06
9.93969e-06
9.80109e-06
9.67685e-06
9.61493e-06
9.57822e-06
9.57267e-06
9.56352e-06
9.54844e-06
9.54707e-06
9.57271e-06
9.60266e-06
9.65982e-06
9.67493e-06
9.71583e-06
9.75355e-06
9.59866e-06
9.90703e-06
9.5899e-06
9.59083e-06
1.24464e-05
1.23143e-05
1.22872e-05
1.22552e-05
1.21842e-05
1.2271e-05
1.22952e-05
1.21804e-05
1.20855e-05
1.21224e-05
1.2275e-05
1.24608e-05
1.26494e-05
1.28011e-05
1.29614e-05
1.31299e-05
1.32788e-05
1.34915e-05
2.09146e-05
2.09205e-05
2.09451e-05
2.10087e-05
2.10361e-05
2.10846e-05
2.10761e-05
2.11105e-05
2.11178e-05
2.11729e-05
2.11872e-05
2.12458e-05
2.1353e-05
2.13493e-05
2.1452e-05
2.1505e-05
2.15483e-05
2.083e-05
2.07898e-05
2.08175e-05
2.08112e-05
2.08837e-05
2.08462e-05
2.08896e-05
2.08827e-05
2.08751e-05
2.08464e-05
2.08869e-05
2.08859e-05
2.09757e-05
2.10679e-05
2.11488e-05
2.12595e-05
2.12746e-05
2.05772e-05
2.05386e-05
2.05313e-05
2.0537e-05
2.05541e-05
2.05334e-05
2.05592e-05
2.06373e-05
2.0651e-05
2.06843e-05
2.06826e-05
2.06756e-05
2.07485e-05
2.07712e-05
2.08934e-05
2.09665e-05
2.09791e-05
2.0326e-05
2.03171e-05
2.03553e-05
2.04377e-05
2.04871e-05
2.05186e-05
2.05019e-05
2.05165e-05
2.05078e-05
2.05324e-05
2.05329e-05
2.05842e-05
2.06355e-05
2.07116e-05
2.07291e-05
2.08546e-05
2.08678e-05
2.0249e-05
2.01739e-05
2.01862e-05
2.01953e-05
2.03022e-05
2.02845e-05
2.03237e-05
2.0321e-05
2.0234e-05
2.02389e-05
2.01735e-05
2.02317e-05
2.02462e-05
2.03766e-05
2.0444e-05
2.05364e-05
2.05797e-05
1.99702e-05
1.99237e-05
1.98759e-05
1.98407e-05
1.98449e-05
1.98299e-05
1.99014e-05
1.99669e-05
2.00255e-05
1.99929e-05
2.00229e-05
1.99816e-05
2.00435e-05
2.00935e-05
2.0198e-05
2.02087e-05
2.03262e-05
1.97045e-05
1.97533e-05
1.97483e-05
1.97044e-05
1.96505e-05
1.96183e-05
1.96294e-05
1.96922e-05
1.9759e-05
1.98177e-05
1.98867e-05
1.98933e-05
1.99633e-05
1.99989e-05
2.00411e-05
2.00921e-05
2.0175e-05
1.94749e-05
1.94819e-05
1.94572e-05
1.94122e-05
1.93411e-05
1.92559e-05
1.92859e-05
1.92908e-05
1.93951e-05
1.9349e-05
1.94228e-05
1.94586e-05
1.94948e-05
1.96337e-05
1.96494e-05
1.97637e-05
1.981e-05
1.89913e-05
1.90578e-05
1.91374e-05
1.91857e-05
1.91546e-05
1.90827e-05
1.90371e-05
1.90297e-05
1.90676e-05
1.90556e-05
1.91264e-05
1.91481e-05
1.92286e-05
1.92918e-05
1.94069e-05
1.94257e-05
1.95192e-05
1.87912e-05
1.88222e-05
1.89e-05
1.89403e-05
1.89188e-05
1.87723e-05
1.8751e-05
1.86477e-05
1.86938e-05
1.8658e-05
1.8669e-05
1.87571e-05
1.8828e-05
1.88941e-05
1.89885e-05
1.90353e-05
1.91719e-05
1.83205e-05
1.82743e-05
1.8307e-05
1.83984e-05
1.84884e-05
1.85004e-05
1.8528e-05
1.84693e-05
1.84217e-05
1.83338e-05
1.83268e-05
1.83312e-05
1.84739e-05
1.84682e-05
1.86087e-05
1.865e-05
1.87695e-05
1.79358e-05
1.79048e-05
1.79017e-05
1.80809e-05
1.81709e-05
1.83572e-05
1.83751e-05
1.83098e-05
1.82044e-05
1.80421e-05
1.79497e-05
1.79492e-05
1.80599e-05
1.81297e-05
1.81814e-05
1.81649e-05
1.81631e-05
1.75122e-05
1.74823e-05
1.75148e-05
1.76048e-05
1.76358e-05
1.76818e-05
1.77332e-05
1.77545e-05
1.77359e-05
1.7659e-05
1.76328e-05
1.76022e-05
1.77321e-05
1.77265e-05
1.78356e-05
1.77875e-05
1.77786e-05
1.70698e-05
1.70532e-05
1.70782e-05
1.71182e-05
1.71377e-05
1.71602e-05
1.72099e-05
1.72749e-05
1.73311e-05
1.73538e-05
1.73745e-05
1.7371e-05
1.74167e-05
1.74274e-05
1.74769e-05
1.75088e-05
1.756e-05
1.65905e-05
1.6581e-05
1.66447e-05
1.67169e-05
1.67403e-05
1.67766e-05
1.686e-05
1.69305e-05
1.69508e-05
1.69289e-05
1.69465e-05
1.69484e-05
1.70457e-05
1.70361e-05
1.71588e-05
1.7173e-05
1.72613e-05
1.60302e-05
1.60711e-05
1.61298e-05
1.61721e-05
1.61835e-05
1.62032e-05
1.62537e-05
1.63076e-05
1.63429e-05
1.63512e-05
1.63753e-05
1.63876e-05
1.64463e-05
1.64679e-05
1.65441e-05
1.65933e-05
1.66629e-05
1.56508e-05
1.57288e-05
1.58526e-05
1.59233e-05
1.59269e-05
1.59661e-05
1.6048e-05
1.60894e-05
1.60715e-05
1.60355e-05
1.60409e-05
1.60707e-05
1.61273e-05
1.61738e-05
1.62367e-05
1.62822e-05
1.63453e-05
1.51974e-05
1.52481e-05
1.53084e-05
1.53493e-05
1.5371e-05
1.53896e-05
1.54214e-05
1.54501e-05
1.54659e-05
1.54549e-05
1.5455e-05
1.54539e-05
1.54709e-05
1.54962e-05
1.55321e-05
1.55522e-05
1.56044e-05
1.61056e-05
1.61923e-05
1.6294e-05
1.63581e-05
1.64035e-05
1.64815e-05
1.65438e-05
1.65762e-05
1.65766e-05
1.65754e-05
1.65251e-05
1.65457e-05
1.65149e-05
1.65722e-05
1.65882e-05
1.65919e-05
1.66061e-05
1.66045e-05
1.68706e-05
1.67066e-05
1.66023e-05
1.6534e-05
1.65151e-05
1.65003e-05
1.64783e-05
1.64765e-05
1.65327e-05
1.65928e-05
1.67163e-05
1.67051e-05
1.68237e-05
1.68075e-05
1.66303e-05
1.70731e-05
1.66427e-05
1.65669e-05
1.36724e-05
1.3521e-05
1.34758e-05
1.34543e-05
1.33768e-05
1.34466e-05
1.35025e-05
1.34249e-05
1.33295e-05
1.33417e-05
1.34808e-05
1.36682e-05
1.388e-05
1.40449e-05
1.42311e-05
1.44131e-05
1.45779e-05
1.48039e-05
2.89585e-05
2.89455e-05
2.89543e-05
2.90326e-05
2.90669e-05
2.91334e-05
2.91122e-05
2.91459e-05
2.91432e-05
2.92146e-05
2.92205e-05
2.92642e-05
2.942e-05
2.94095e-05
2.95333e-05
2.96365e-05
2.96896e-05
2.88746e-05
2.88024e-05
2.88263e-05
2.88008e-05
2.89098e-05
2.88641e-05
2.89006e-05
2.8905e-05
2.89004e-05
2.88523e-05
2.88946e-05
2.88727e-05
2.89569e-05
2.9075e-05
2.91733e-05
2.93443e-05
2.93631e-05
2.85477e-05
2.84822e-05
2.84512e-05
2.84443e-05
2.84786e-05
2.84473e-05
2.84417e-05
2.85462e-05
2.85778e-05
2.86301e-05
2.86415e-05
2.85992e-05
2.86846e-05
2.86968e-05
2.88491e-05
2.89882e-05
2.90153e-05
2.82104e-05
2.81724e-05
2.81928e-05
2.82944e-05
2.83727e-05
2.84282e-05
2.84027e-05
2.84193e-05
2.84035e-05
2.84366e-05
2.84225e-05
2.84675e-05
2.85228e-05
2.86296e-05
2.86414e-05
2.8821e-05
2.88661e-05
2.81391e-05
2.80261e-05
2.8017e-05
2.79976e-05
2.81482e-05
2.81395e-05
2.81768e-05
2.82179e-05
2.81039e-05
2.81183e-05
2.80111e-05
2.80633e-05
2.80471e-05
2.82014e-05
2.82944e-05
2.84315e-05
2.85177e-05
2.77536e-05
2.77072e-05
2.7637e-05
2.75714e-05
2.7576e-05
2.7533e-05
2.75956e-05
2.76853e-05
2.77958e-05
2.77702e-05
2.78082e-05
2.77416e-05
2.77832e-05
2.78384e-05
2.79939e-05
2.80044e-05
2.8198e-05
2.73661e-05
2.74532e-05
2.74698e-05
2.74244e-05
2.73503e-05
2.72862e-05
2.72696e-05
2.73323e-05
2.74188e-05
2.74901e-05
2.75918e-05
2.75939e-05
2.76726e-05
2.77273e-05
2.7786e-05
2.78387e-05
2.79826e-05
2.7089e-05
2.71227e-05
2.71017e-05
2.70554e-05
2.69784e-05
2.68338e-05
2.68437e-05
2.6834e-05
2.70009e-05
2.69606e-05
2.70298e-05
2.70822e-05
2.70842e-05
2.72693e-05
2.72937e-05
2.74357e-05
2.7517e-05
2.64509e-05
2.65273e-05
2.66351e-05
2.67287e-05
2.67254e-05
2.66317e-05
2.65524e-05
2.65155e-05
2.65735e-05
2.65478e-05
2.66263e-05
2.66484e-05
2.67313e-05
2.68075e-05
2.69703e-05
2.70067e-05
2.71202e-05
2.62143e-05
2.62389e-05
2.63348e-05
2.64184e-05
2.64523e-05
2.62678e-05
2.62297e-05
2.6089e-05
2.61387e-05
2.61097e-05
2.6084e-05
2.61718e-05
2.62625e-05
2.63368e-05
2.64708e-05
2.65168e-05
2.67055e-05
2.56566e-05
2.55779e-05
2.55807e-05
2.56883e-05
2.583e-05
2.58557e-05
2.59036e-05
2.58502e-05
2.58071e-05
2.56893e-05
2.56467e-05
2.56043e-05
2.57827e-05
2.57777e-05
2.59483e-05
2.6009e-05
2.61584e-05
2.51816e-05
2.51194e-05
2.50565e-05
2.52563e-05
2.53828e-05
2.56324e-05
2.57371e-05
2.57072e-05
2.56173e-05
2.54225e-05
2.52635e-05
2.5196e-05
2.53118e-05
2.54088e-05
2.55068e-05
2.55018e-05
2.54987e-05
2.46659e-05
2.46066e-05
2.46143e-05
2.47411e-05
2.48057e-05
2.48562e-05
2.49208e-05
2.49669e-05
2.4972e-05
2.48761e-05
2.48167e-05
2.47282e-05
2.48763e-05
2.4888e-05
2.50372e-05
2.50131e-05
2.49868e-05
2.41374e-05
2.40885e-05
2.40958e-05
2.41457e-05
2.41758e-05
2.41944e-05
2.42416e-05
2.43169e-05
2.43924e-05
2.44217e-05
2.4444e-05
2.44217e-05
2.44728e-05
2.4482e-05
2.45452e-05
2.458e-05
2.46366e-05
2.36244e-05
2.35852e-05
2.36369e-05
2.37422e-05
2.37868e-05
2.38157e-05
2.39165e-05
2.40387e-05
2.41016e-05
2.4076e-05
2.40686e-05
2.40369e-05
2.41302e-05
2.41243e-05
2.4251e-05
2.42892e-05
2.43832e-05
2.29773e-05
2.3e-05
2.30547e-05
2.31113e-05
2.31271e-05
2.31361e-05
2.31882e-05
2.32632e-05
2.33228e-05
2.33346e-05
2.3352e-05
2.33489e-05
2.34055e-05
2.34282e-05
2.35135e-05
2.3576e-05
2.36647e-05
2.27425e-05
2.28126e-05
2.29527e-05
2.30686e-05
2.30854e-05
2.31152e-05
2.32231e-05
2.33153e-05
2.3324e-05
2.32661e-05
2.32309e-05
2.32309e-05
2.32732e-05
2.33322e-05
2.33894e-05
2.34738e-05
2.35127e-05
2.25357e-05
2.25888e-05
2.26369e-05
2.26772e-05
2.27044e-05
2.27146e-05
2.27409e-05
2.27789e-05
2.28124e-05
2.27946e-05
2.2774e-05
2.27462e-05
2.27397e-05
2.27567e-05
2.2786e-05
2.27992e-05
2.2839e-05
2.41265e-05
2.43624e-05
2.45848e-05
2.46857e-05
2.47625e-05
2.48889e-05
2.49668e-05
2.49997e-05
2.50197e-05
2.50632e-05
2.5012e-05
2.50192e-05
2.49422e-05
2.49804e-05
2.49963e-05
2.49909e-05
2.50065e-05
2.49968e-05
2.4575e-05
2.43044e-05
2.41364e-05
2.40444e-05
2.40178e-05
2.40145e-05
2.40041e-05
2.39965e-05
2.40789e-05
2.41718e-05
2.44394e-05
2.43847e-05
2.4721e-05
2.45187e-05
2.44737e-05
2.49775e-05
2.44394e-05
2.43744e-05
1.47888e-05
1.46179e-05
1.45479e-05
1.45338e-05
1.4456e-05
1.45028e-05
1.45818e-05
1.45485e-05
1.44655e-05
1.44562e-05
1.45761e-05
1.47546e-05
1.49891e-05
1.51607e-05
1.53787e-05
1.55718e-05
1.5751e-05
1.59935e-05
3.83673e-05
3.83352e-05
3.83207e-05
3.84092e-05
3.84522e-05
3.8546e-05
3.85185e-05
3.85513e-05
3.85326e-05
3.86222e-05
3.86287e-05
3.86387e-05
3.88393e-05
3.88235e-05
3.89468e-05
3.91041e-05
3.91618e-05
3.8276e-05
3.81726e-05
3.819e-05
3.81349e-05
3.82803e-05
3.82446e-05
3.82698e-05
3.82832e-05
3.82881e-05
3.82232e-05
3.82695e-05
3.82278e-05
3.82933e-05
3.84264e-05
3.85282e-05
3.87646e-05
3.87863e-05
3.78688e-05
3.77764e-05
3.77171e-05
3.76841e-05
3.77362e-05
3.77142e-05
3.76708e-05
3.77891e-05
3.78403e-05
3.79134e-05
3.79592e-05
3.78807e-05
3.79689e-05
3.79623e-05
3.81188e-05
3.83326e-05
3.83913e-05
3.7434e-05
3.73663e-05
3.73574e-05
3.74651e-05
3.7574e-05
3.76678e-05
3.76417e-05
3.76619e-05
3.7637e-05
3.76832e-05
3.76613e-05
3.76923e-05
3.77389e-05
3.78741e-05
3.78693e-05
3.80956e-05
3.81913e-05
3.73557e-05
3.72157e-05
3.71846e-05
3.71203e-05
3.7305e-05
3.73232e-05
3.7349e-05
3.74418e-05
3.73098e-05
3.73415e-05
3.71999e-05
3.72439e-05
3.71862e-05
3.73465e-05
3.74534e-05
3.76321e-05
3.77858e-05
3.6842e-05
3.68081e-05
3.67265e-05
3.66235e-05
3.66287e-05
3.65642e-05
3.66053e-05
3.67031e-05
3.68676e-05
3.68664e-05
3.69235e-05
3.68429e-05
3.68505e-05
3.68866e-05
3.70933e-05
3.7098e-05
3.738e-05
3.63085e-05
3.64396e-05
3.6492e-05
3.64575e-05
3.63734e-05
3.62805e-05
3.62294e-05
3.62788e-05
3.6384e-05
3.64642e-05
3.66036e-05
3.66068e-05
3.66837e-05
3.6751e-05
3.68327e-05
3.68714e-05
3.70852e-05
3.59857e-05
3.60519e-05
3.60472e-05
3.60049e-05
3.59387e-05
3.57425e-05
3.57197e-05
3.56726e-05
3.58946e-05
3.58852e-05
3.59519e-05
3.60298e-05
3.59878e-05
3.6201e-05
3.62379e-05
3.63961e-05
3.65291e-05
3.52048e-05
3.52784e-05
3.54083e-05
3.55487e-05
3.55944e-05
3.54969e-05
3.53897e-05
3.53072e-05
3.53815e-05
3.5349e-05
3.543e-05
3.54556e-05
3.55312e-05
3.56068e-05
3.58099e-05
3.58732e-05
3.60111e-05
3.49339e-05
3.4943e-05
3.50459e-05
3.51665e-05
3.52781e-05
3.50871e-05
3.5032e-05
3.48551e-05
3.48947e-05
3.48845e-05
3.48303e-05
3.48985e-05
3.50033e-05
3.50748e-05
3.52501e-05
3.52941e-05
3.55259e-05
3.43142e-05
3.42054e-05
3.41645e-05
3.42644e-05
3.44562e-05
3.45087e-05
3.45807e-05
3.45382e-05
3.4508e-05
3.43765e-05
3.43019e-05
3.4196e-05
3.43857e-05
3.43836e-05
3.4575e-05
3.46523e-05
3.48266e-05
3.37616e-05
3.36709e-05
3.3539e-05
3.37183e-05
3.38794e-05
3.41762e-05
3.43801e-05
3.44165e-05
3.43634e-05
3.41631e-05
3.39572e-05
3.3804e-05
3.38945e-05
3.39988e-05
3.41489e-05
3.41719e-05
3.41802e-05
3.31883e-05
3.30962e-05
3.30623e-05
3.32059e-05
3.33144e-05
3.33783e-05
3.34502e-05
3.35137e-05
3.35447e-05
3.34454e-05
3.33592e-05
3.32055e-05
3.33347e-05
3.33647e-05
3.35481e-05
3.35671e-05
3.35432e-05
3.26078e-05
3.25206e-05
3.24957e-05
3.25434e-05
3.25853e-05
3.26036e-05
3.26437e-05
3.272e-05
3.28093e-05
3.28445e-05
3.2869e-05
3.28217e-05
3.28651e-05
3.28645e-05
3.29374e-05
3.29749e-05
3.30335e-05
3.21368e-05
3.20642e-05
3.2085e-05
3.22056e-05
3.22766e-05
3.23014e-05
3.24024e-05
3.25637e-05
3.26778e-05
3.26707e-05
3.26404e-05
3.25747e-05
3.2628e-05
3.26297e-05
3.27353e-05
3.27959e-05
3.28999e-05
3.14713e-05
3.14634e-05
3.14996e-05
3.15606e-05
3.15842e-05
3.15848e-05
3.163e-05
3.1718e-05
3.18042e-05
3.18297e-05
3.18426e-05
3.18226e-05
3.18575e-05
3.18763e-05
3.19539e-05
3.20238e-05
3.21305e-05
3.14598e-05
3.15203e-05
3.16582e-05
3.18049e-05
3.18474e-05
3.18707e-05
3.19832e-05
3.21136e-05
3.21668e-05
3.21145e-05
3.2049e-05
3.20101e-05
3.20139e-05
3.20736e-05
3.21034e-05
3.22305e-05
3.22309e-05
3.14893e-05
3.16071e-05
3.1675e-05
3.17245e-05
3.17757e-05
3.17935e-05
3.18114e-05
3.18503e-05
3.19115e-05
3.19079e-05
3.18825e-05
3.18301e-05
3.17903e-05
3.17908e-05
3.18072e-05
3.18107e-05
3.18323e-05