/*--------------------------------*- C++ -*----------------------------------*\
  =========                 |
  \\      /  F ield         | OpenFOAM: The Open Source CFD Toolbox
   \\    /   O peration     | Website:  https://openfoam.org
    \\  /    A nd           | Version:  6
     \\/     M anipulation  |
\*---------------------------------------------------------------------------*/
FoamFile
{
    version     2.0;
    format      ascii;
    class       volScalarField;
    location    "0.8";
    object      omega;
}
// * * * * * * * * * * * * * * * * * * * * * * * * * * * * * * * * * * * * * //

dimensions      [0 0 -1 0 0 0 0];

internalField   nonuniform List<scalar> 
63280
(
843.917
843.917
843.917
843.917
843.917
843.917
843.917
843.917
843.917
843.917
843.917
843.917
843.917
843.917
843.917
843.917
843.917
843.917
843.917
843.917
843.917
843.917
843.917
843.917
843.917
843.917
843.917
843.917
843.917
843.917
843.917
843.917
843.917
843.917
843.917
843.917
843.917
843.917
843.917
843.917
843.917
843.917
843.917
843.917
843.917
843.917
843.917
843.917
843.917
843.917
843.917
843.917
843.917
843.917
843.917
843.917
843.917
843.917
843.917
843.917
843.917
843.917
843.917
843.917
843.917
843.917
843.917
843.917
843.917
843.917
843.917
843.917
843.917
843.917
843.917
843.917
843.917
843.917
843.917
843.917
843.917
843.917
843.917
843.917
843.917
843.917
843.917
843.917
843.917
843.917
843.917
843.917
843.917
843.917
843.917
843.917
843.917
843.917
843.917
843.917
843.917
843.917
843.917
843.917
843.917
843.917
843.917
843.917
843.917
843.917
843.917
843.917
843.917
843.917
843.917
843.917
843.917
843.917
843.917
843.917
843.917
843.917
843.917
843.917
843.917
843.917
843.917
843.917
843.917
843.917
843.917
843.917
843.917
843.917
843.917
843.917
843.917
843.917
843.917
843.917
843.917
843.917
843.917
843.917
843.917
843.917
843.917
843.917
843.917
843.917
843.917
843.917
843.917
843.917
843.917
843.917
843.917
843.917
843.917
843.917
843.917
843.917
843.917
843.917
843.917
843.917
843.917
843.917
843.917
843.917
843.917
843.917
843.917
843.917
843.917
843.917
843.917
843.917
843.917
843.917
843.917
843.917
843.917
843.917
843.917
843.917
843.917
843.917
843.917
843.917
843.917
843.917
843.917
843.917
843.917
843.917
843.917
843.917
843.917
843.917
843.917
843.917
843.917
843.917
843.917
843.917
843.917
843.917
843.917
843.917
843.917
843.917
843.917
843.917
843.917
843.917
843.917
843.917
843.917
843.917
843.917
843.917
843.917
843.917
843.917
843.917
843.917
843.917
843.917
843.917
843.917
843.917
843.917
843.917
843.917
843.917
843.917
843.917
843.917
843.917
843.917
843.917
843.917
843.917
843.917
843.917
843.917
843.917
843.917
843.917
843.917
843.917
843.917
843.917
843.917
843.917
843.917
843.917
843.917
843.917
843.917
843.917
843.917
843.917
843.917
843.917
843.917
843.917
843.917
843.917
843.917
843.917
843.917
843.917
843.917
843.917
843.917
843.917
843.917
843.917
843.917
843.917
843.917
843.917
843.917
843.917
843.917
843.917
843.917
843.917
843.917
843.917
843.917
843.917
843.917
843.917
843.917
843.917
843.917
843.917
843.917
843.917
843.917
843.917
843.917
843.917
843.917
843.917
843.917
843.917
843.917
843.917
843.917
843.917
843.917
843.917
843.917
843.917
843.917
843.917
843.917
843.917
843.917
843.917
843.917
843.917
843.917
843.917
843.917
843.917
843.917
843.917
843.917
843.917
843.917
843.917
843.917
843.917
843.917
843.917
843.917
843.917
426.066
426.056
426.095
426.093
426.098
426.169
426.103
425.965
425.895
425.912
425.968
426.013
426.029
426.013
425.983
425.946
425.895
425.872
267.057
267.159
267.334
267.549
267.704
267.767
267.839
267.946
268.042
268.032
267.922
267.749
267.578
267.388
267.219
267.141
267.032
266.913
267.021
267.138
267.325
267.489
267.619
267.736
267.875
267.823
267.695
267.518
267.361
267.22
267.148
267.04
266.934
266.768
266.48
266.582
266.603
266.599
266.543
266.518
266.77
267.211
267.441
267.365
267.122
266.819
266.615
266.493
266.45
266.424
266.273
265.552
265.671
265.929
266.227
266.407
266.444
266.482
266.564
266.628
266.591
266.464
266.286
266.125
265.971
265.852
265.778
265.743
265.097
265.084
265.253
265.597
265.872
265.997
266.01
266.031
265.872
265.709
265.55
265.399
265.33
265.309
265.32
265.254
265.132
264.554
264.501
264.388
264.355
264.365
264.461
264.775
265.171
265.332
265.23
264.976
264.726
264.504
264.465
264.416
264.399
264.298
263.666
263.769
263.68
263.54
263.481
263.568
263.794
264.072
264.282
264.35
264.295
264.151
263.985
263.876
263.749
263.701
263.677
262.894
262.992
262.854
262.657
262.418
262.309
262.533
262.902
263.126
263.151
263.008
262.934
262.795
262.81
262.828
262.84
262.921
261.33
261.64
261.805
261.754
261.528
261.357
261.434
261.666
261.858
261.893
261.827
261.749
261.648
261.65
261.67
261.712
261.728
260.336
260.761
260.994
260.878
260.409
259.979
259.925
260.125
260.242
260.297
260.16
260.151
260.135
260.119
260.207
260.413
260.592
258.683
258.638
258.781
259.104
259.294
259.326
259.344
259.345
259.227
259.065
258.889
258.811
258.782
258.784
258.791
259.006
259.115
256.968
256.957
257.291
257.967
258.556
258.697
258.503
257.859
257.308
256.871
256.629
256.693
256.923
257.075
256.939
256.664
256.455
255.452
255.455
255.499
255.607
255.624
255.735
256.066
256.302
256.275
256.025
255.719
255.528
255.475
255.475
255.301
255.135
254.89
253.345
253.549
253.706
253.815
253.908
254.078
254.386
254.726
254.949
254.983
254.873
254.7
254.528
254.435
254.396
254.43
254.427
251.077
251.188
251.264
251.304
251.188
251.259
251.628
251.986
252.113
252.058
251.969
251.929
251.937
252.014
252.068
252.251
252.236
248.465
248.884
249.067
249.135
249.152
249.252
249.496
249.759
249.917
249.943
249.875
249.77
249.67
249.645
249.663
249.77
249.828
245.084
245.358
245.343
245.203
244.926
244.942
245.27
245.549
245.621
245.581
245.535
245.521
245.519
245.554
245.6
245.702
245.77
240.448
241.177
241.478
241.562
241.583
241.682
241.877
242.093
242.251
242.281
242.168
242.01
241.895
241.917
241.997
242.126
242.258
228.773
228.703
228.971
229.305
229.512
229.653
229.922
230.096
230.268
230.719
231.347
231.753
231.804
231.641
231.571
231.66
231.85
232.16
213.867
211.446
210.423
210.11
209.985
209.844
209.925
210.26
210.411
210.491
210.628
210.799
210.832
210.787
210.8
210.755
210.962
210.971
14.968
15.0339
15.2019
15.2569
15.2794
15.4887
15.4046
15.0917
14.8864
14.8755
14.9462
14.9732
14.9256
14.7923
14.6255
14.4354
14.1925
14.0095
129.575
129.714
129.891
130.097
130.285
130.432
130.549
130.676
130.798
130.896
130.915
130.869
130.779
130.657
130.541
130.453
130.404
129.187
129.302
129.42
129.569
129.739
129.889
130.022
130.124
130.193
130.209
130.208
130.178
130.158
130.137
130.113
130.066
129.995
128.706
128.812
128.883
128.917
128.938
129.003
129.187
129.466
129.706
129.806
129.763
129.645
129.531
129.466
129.455
129.453
129.417
127.959
128.067
128.276
128.523
128.715
128.817
128.88
128.97
129.079
129.162
129.176
129.128
129.051
128.97
128.905
128.892
128.892
127.516
127.535
127.68
127.939
128.199
128.346
128.398
128.398
128.375
128.349
128.326
128.304
128.297
128.323
128.341
128.339
128.296
127.029
127.013
126.962
126.945
126.992
127.114
127.34
127.613
127.821
127.887
127.838
127.72
127.62
127.576
127.585
127.593
127.568
126.271
126.386
126.353
126.268
126.243
126.336
126.543
126.804
127.039
127.186
127.229
127.189
127.116
127.049
127.004
127
127.017
125.692
125.816
125.778
125.647
125.503
125.449
125.567
125.809
126.06
126.206
126.255
126.237
126.206
126.209
126.244
126.305
126.388
124.467
124.717
124.881
124.869
124.73
124.616
124.658
124.841
125.055
125.203
125.264
125.264
125.249
125.26
125.316
125.378
125.462
123.761
124.113
124.365
124.343
124.07
123.769
123.662
123.747
123.915
124.037
124.089
124.113
124.125
124.139
124.229
124.407
124.566
122.523
122.497
122.614
122.841
123.036
123.108
123.108
123.084
123.066
123.047
123.03
123.021
123.037
123.057
123.144
123.312
123.494
121.178
121.199
121.481
122.02
122.55
122.817
122.704
122.316
121.905
121.621
121.505
121.566
121.733
121.841
121.767
121.57
121.416
120.178
120.204
120.267
120.344
120.417
120.54
120.722
120.876
120.935
120.886
120.782
120.691
120.681
120.693
120.654
120.516
120.39
118.457
118.618
118.767
118.869
118.967
119.122
119.357
119.627
119.848
119.96
119.967
119.896
119.805
119.753
119.769
119.835
119.887
116.957
117.111
117.246
117.313
117.327
117.407
117.587
117.801
117.977
118.083
118.134
118.153
118.188
118.24
118.345
118.454
118.541
114.674
115.091
115.337
115.447
115.518
115.62
115.777
115.96
116.128
116.25
116.309
116.312
116.297
116.301
116.358
116.456
116.552
112.394
112.823
112.986
112.962
112.885
112.892
112.984
113.118
113.269
113.409
113.51
113.567
113.602
113.636
113.697
113.766
113.862
108.239
108.975
109.386
109.546
109.638
109.745
109.862
110
110.175
110.34
110.421
110.418
110.397
110.428
110.517
110.649
110.807
100.143
100.045
100.328
100.648
100.866
101.084
101.259
101.266
101.288
101.587
102.128
102.601
102.81
102.799
102.762
102.8
102.957
103.179
90.3178
88.6186
87.8986
87.7295
87.7376
87.728
87.7398
87.8625
87.996
88.1896
88.4525
88.7038
88.8345
88.7742
88.8783
88.7596
88.8097
89.0674
17.6519
17.7435
17.9426
18.0335
18.0523
18.2761
18.2384
17.9303
17.685
17.6325
17.6801
17.6907
17.6252
17.4603
17.2568
17.025
16.7292
16.4914
77.2368
77.3447
77.4747
77.6253
77.7713
77.9128
78.0327
78.1605
78.2783
78.4034
78.4909
78.5432
78.5452
78.5066
78.478
78.4299
78.4358
76.9343
77.0256
77.1237
77.2205
77.3449
77.4652
77.6054
77.6842
77.7657
77.826
77.8994
77.9463
78.0107
78.0403
78.0651
78.0688
78.0559
76.5708
76.6478
76.7217
76.7602
76.7795
76.8391
76.9803
77.1544
77.3206
77.4514
77.5079
77.5236
77.515
77.5089
77.5397
77.5513
77.5696
76.043
76.1106
76.2497
76.422
76.5695
76.676
76.7442
76.8171
76.8999
76.9984
77.0742
77.1179
77.1233
77.1105
77.0936
77.1214
77.1421
75.7158
75.73
75.8273
75.9881
76.183
76.3166
76.4034
76.3893
76.3767
76.3911
76.421
76.4792
76.5276
76.5943
76.6239
76.6529
76.6551
75.3357
75.332
75.3101
75.2904
75.3153
75.4152
75.5842
75.7449
75.8832
75.9688
76.0264
76.0173
76.0288
76.0209
76.054
76.0808
76.1031
74.7389
74.8418
74.8426
74.7861
74.7567
74.8126
74.9583
75.154
75.3448
75.497
75.5857
75.6126
75.6193
75.5959
75.5954
75.6229
75.6576
74.3103
74.4153
74.4288
74.3469
74.2441
74.2181
74.2866
74.3982
74.558
74.6878
74.8304
74.8843
74.9352
74.9696
74.9985
75.077
75.1468
73.4055
73.5706
73.7097
73.7203
73.6275
73.5468
73.5534
73.6521
73.7972
73.9436
74.0711
74.1342
74.1919
74.2281
74.2987
74.3604
74.4674
72.8852
73.1153
73.3307
73.3602
73.2103
73.0163
72.9122
72.8794
72.982
73.0786
73.2118
73.3059
73.3572
73.3973
73.4735
73.6101
73.7512
71.9808
71.9589
72.0378
72.1677
72.3021
72.3838
72.3924
72.3245
72.2863
72.2925
72.3636
72.4287
72.5021
72.5319
72.6502
72.776
72.9613
70.9602
70.9796
71.1592
71.5136
71.8777
72.1662
72.126
71.8903
71.5884
71.3713
71.3225
71.4022
71.5421
71.627
71.6125
71.515
71.436
70.1945
70.2198
70.2898
70.3386
70.3934
70.5128
70.6165
70.665
70.6788
70.6831
70.7041
70.7136
70.7645
70.7746
70.819
70.7387
70.6939
68.8369
68.9438
69.07
69.1546
69.2264
69.338
69.4946
69.6689
69.8268
69.9388
70.0057
70.0186
70.0069
69.9883
70.0227
70.0932
70.1694
67.6818
67.8159
67.9697
68.0406
68.0928
68.1928
68.29
68.3643
68.4601
68.5862
68.7207
68.8058
68.8911
68.9225
69.051
69.112
69.2325
65.775
66.1032
66.3462
66.4661
66.5434
66.6392
66.7435
66.8412
66.9465
67.0637
67.1795
67.2568
67.3162
67.3487
67.427
67.5123
67.6125
63.9789
64.3912
64.6415
64.6926
64.7101
64.7643
64.7804
64.779
64.8522
65.0104
65.1862
65.3115
65.3965
65.4398
65.5178
65.5558
65.6791
60.632
61.1856
61.5792
61.7615
61.8691
61.9782
62.0596
62.1159
62.2102
62.3602
62.5108
62.6072
62.6651
62.7175
62.8074
62.9066
63.0651
55.5813
55.4943
55.7263
56.0014
56.191
56.4043
56.5672
56.5552
56.4883
56.5961
56.9213
57.3067
57.5438
57.6324
57.6409
57.6556
57.7487
57.8992
50.1707
49.0493
48.568
48.4573
48.4828
48.5325
48.5589
48.5875
48.6433
48.7857
49.0128
49.2077
49.374
49.261
49.4223
49.2758
49.181
49.5064
19.865
19.9653
20.1772
20.3056
20.318
20.5388
20.56
20.2823
20.0015
19.8936
19.9082
19.9032
19.833
19.6468
19.4229
19.1579
18.8232
18.5398
51.3312
51.4014
51.4863
51.5846
51.6759
51.7804
51.8721
51.9799
52.073
52.182
52.2745
52.3653
52.4224
52.4312
52.4629
52.4515
52.4799
51.1106
51.1679
51.243
51.2978
51.3748
51.442
51.5625
51.6257
51.6881
51.7423
51.8265
51.8927
51.9917
52.0559
52.1072
52.1428
52.157
50.8365
50.8769
50.9358
50.9711
50.9793
51.006
51.1054
51.2221
51.3194
51.4227
51.4953
51.5604
51.6167
51.6481
51.7103
51.7337
51.764
50.4621
50.4945
50.5786
50.6909
50.7878
50.8711
50.9279
50.9839
51.034
51.1082
51.185
51.2639
51.3159
51.3488
51.3611
51.413
51.4372
50.2242
50.2227
50.2804
50.3657
50.4961
50.5889
50.6866
50.6839
50.6565
50.6712
50.6978
50.778
50.8472
50.9407
50.9832
51.0266
51.0466
49.9162
49.9113
49.8991
49.8779
49.8781
49.9353
50.0642
50.1675
50.2466
50.298
50.3773
50.4109
50.4806
50.5116
50.5578
50.5888
50.6372
49.4466
49.5278
49.5445
49.5075
49.4707
49.4879
49.5751
49.71
49.8482
49.9746
50.0711
50.1205
50.1727
50.1836
50.2028
50.2454
50.2892
49.119
49.192
49.2203
49.1723
49.0897
49.0634
49.1142
49.1612
49.2526
49.322
49.4692
49.5544
49.6368
49.7078
49.7301
49.8083
49.8622
48.4446
48.5418
48.6482
48.6739
48.6102
48.5445
48.5307
48.575
48.6586
48.7587
48.8935
48.9779
49.0701
49.1288
49.2069
49.2581
49.361
48.0511
48.1817
48.3437
48.3963
48.3213
48.1895
48.117
48.032
48.0763
48.1227
48.2445
48.3717
48.4475
48.5019
48.5675
48.6635
48.7883
47.3726
47.35
47.3999
47.472
47.5501
47.6121
47.6386
47.5692
47.5133
47.4967
47.5766
47.6666
47.7777
47.808
47.9305
48.0279
48.1859
46.6027
46.6132
46.7123
46.9402
47.1536
47.4085
47.427
47.2934
47.0908
46.9089
46.8631
46.9369
47.0626
47.1356
47.151
47.1148
47.0873
45.9795
45.9946
46.0596
46.1033
46.1299
46.2239
46.299
46.3069
46.2874
46.2783
46.3296
46.3785
46.4751
46.4824
46.5614
46.5247
46.5159
44.9361
44.9939
45.0933
45.1674
45.2156
45.2854
45.3842
45.4914
45.5932
45.6759
45.7503
45.7986
45.8361
45.8417
45.8776
45.9369
46.0129
44.009
44.1008
44.2429
44.3203
44.3741
44.4709
44.5523
44.5797
44.6136
44.6946
44.8286
44.926
45.0442
45.0584
45.1874
45.2208
45.3274
42.497
42.7192
42.9253
43.0436
43.1114
43.1893
43.2689
43.3265
43.3818
43.4586
43.5671
43.6619
43.7577
43.8036
43.8878
43.9597
44.043
41.0987
41.416
41.6759
41.7762
41.8277
41.9065
41.9355
41.904
41.9092
42.0055
42.1597
42.2949
42.403
42.4506
42.537
42.5487
42.674
38.7719
39.1054
39.4073
39.5711
39.6603
39.7503
39.8192
39.8431
39.8704
39.952
40.0764
40.1907
40.2764
40.3335
40.4141
40.4702
40.5957
36.3205
36.2724
36.4392
36.6474
36.7997
36.9639
37.1015
37.1167
37.0442
37.037
37.1665
37.4099
37.5898
37.7079
37.7289
37.7318
37.7708
37.8427
33.9219
33.1539
32.7934
32.6927
32.6947
32.7493
32.7885
32.7986
32.8282
32.9184
33.0748
33.1745
33.3363
33.1582
33.3774
33.1722
33.0578
33.3428
21.8154
21.9151
22.1247
22.29
22.3006
22.5015
22.5808
22.3564
22.0553
21.8861
21.8561
21.8275
21.7593
21.5529
21.3227
21.0262
20.661
20.3395
36.4844
36.5231
36.5743
36.6362
36.6847
36.751
36.8074
36.8867
36.9527
37.0367
37.1084
37.1973
37.2772
37.3021
37.3616
37.3781
37.4102
36.327
36.3515
36.4071
36.4354
36.483
36.5052
36.5905
36.6409
36.6852
36.7228
36.7947
36.8502
36.9445
37.0198
37.0788
37.1298
37.1509
36.1193
36.1287
36.1667
36.1946
36.1993
36.1996
36.2567
36.3391
36.3945
36.4687
36.5305
36.594
36.6714
36.7143
36.7896
36.8238
36.8477
35.8442
35.8517
35.8979
35.9695
36.0288
36.0856
36.1244
36.1665
36.1952
36.2458
36.3021
36.3793
36.4448
36.4981
36.5218
36.5849
36.6073
35.6709
35.6563
35.6888
35.7253
35.8102
35.8615
35.9457
35.963
35.9308
35.9436
35.953
36.0225
36.0819
36.1787
36.2276
36.2763
36.2994
35.4165
35.4084
35.3981
35.3769
35.366
35.3855
35.476
35.5506
35.604
35.6286
35.698
35.7337
35.8117
35.8623
35.9152
35.9401
35.9993
35.0449
35.1036
35.1257
35.1046
35.0687
35.0609
35.1036
35.1918
35.2876
35.3833
35.4715
35.5183
35.5837
35.6146
35.6399
35.6837
35.7329
34.7914
34.837
34.8627
34.8363
34.7735
34.738
34.7752
34.7949
34.8594
34.8869
35.0025
35.0877
35.1613
35.2503
35.2676
35.3361
35.3759
34.2786
34.331
34.4056
34.4383
34.3993
34.3453
34.3209
34.3355
34.3864
34.4442
34.5596
34.6383
34.7302
34.7956
34.8759
34.9148
34.9987
33.9774
34.0442
34.1538
34.208
34.1822
34.0864
34.0447
33.9511
33.9679
33.9848
34.0633
34.1849
34.2646
34.3194
34.3772
34.4385
34.545
33.4509
33.4287
33.4589
33.501
33.5458
33.5809
33.6141
33.5636
33.5172
33.4859
33.5446
33.6207
33.741
33.7641
33.8742
33.9518
34.0734
32.8674
32.8729
32.9195
33.074
33.1835
33.38
33.4284
33.3589
33.2433
33.1039
33.045
33.0918
33.199
33.2619
33.2875
33.2799
33.2816
32.3501
32.3543
32.4045
32.4514
32.4652
32.5297
32.5866
32.5884
32.5696
32.5477
32.5891
32.6299
32.7432
32.747
32.8304
32.8215
32.8224
31.5612
31.5828
31.6537
31.7199
31.7574
31.7997
31.8604
31.9265
31.9924
32.0467
32.1062
32.1551
32.212
32.2309
32.2648
32.3086
32.3707
30.8126
30.8622
30.9736
31.0524
31.1035
31.1823
31.2573
31.2847
31.3018
31.3423
31.4434
31.5154
31.639
31.6399
31.756
31.7766
31.8503
29.6706
29.7997
29.9541
30.0613
30.1202
30.1784
30.2412
30.2852
30.3179
30.3597
30.4379
30.5147
30.6141
30.6589
30.7388
30.798
30.8572
28.6475
28.8528
29.0691
29.1873
29.2487
29.324
29.3718
29.3602
29.3439
29.3818
29.4795
29.5844
29.6867
29.7302
29.815
29.8112
29.9177
27.2875
27.4527
27.6477
27.7726
27.8356
27.8959
27.9509
27.9668
27.9612
27.9832
28.051
28.1367
28.2135
28.2582
28.3227
28.343
28.4213
26.6068
26.6252
26.7539
26.9037
27.0233
27.1412
27.2425
27.2753
27.228
27.1818
27.1914
27.3159
27.4155
27.5231
27.5377
27.5309
27.541
27.5513
26.1092
25.5903
25.2974
25.1866
25.1563
25.1912
25.227
25.2364
25.2627
25.3227
25.4207
25.4416
25.5715
25.3582
25.5832
25.3607
25.25
25.4627
23.5902
23.6858
23.8795
24.0762
24.0942
24.263
24.3872
24.2305
23.9319
23.7059
23.6233
23.5573
23.4942
23.2624
23.0398
22.7121
22.3202
21.9701
27.1609
27.1775
27.2063
27.2467
27.269
27.3083
27.3364
27.3892
27.4313
27.4945
27.5434
27.6126
27.6958
27.7206
27.7826
27.816
27.8442
27.0506
27.0498
27.0897
27.1023
27.1365
27.1335
27.1841
27.2214
27.2528
27.2765
27.3336
27.3727
27.4451
27.5145
27.5686
27.6242
27.6425
26.8907
26.8798
26.8991
26.9172
26.9233
26.913
26.937
26.9948
27.0264
27.0803
27.1317
27.178
27.2515
27.2894
27.3607
27.403
27.4181
26.6788
26.672
26.6943
26.7401
26.776
26.8137
26.8363
26.867
26.883
26.9195
26.9564
27.0181
27.0785
27.1354
27.1581
27.2225
27.2437
26.5513
26.5287
26.548
26.5561
26.6133
26.6364
26.6956
26.7271
26.6977
26.7133
26.7113
26.7634
26.8016
26.885
26.9319
26.9808
27.004
26.3379
26.3282
26.3187
26.2976
26.2859
26.2832
26.3406
26.3951
26.4396
26.4533
26.5107
26.5378
26.6
26.6507
26.7054
26.7202
26.7811
26.0409
26.0812
26.1031
26.094
26.0655
26.0476
26.0617
26.1169
26.1825
26.2516
26.3286
26.3652
26.4254
26.4639
26.4897
26.5257
26.5782
25.8422
25.8691
25.8876
25.8724
25.8292
25.7888
25.8136
25.8178
25.8746
25.886
25.9684
26.0438
26.093
26.1818
26.1953
26.2508
26.2816
25.441
25.4682
25.5176
25.5499
25.5311
25.4906
25.4639
25.4613
25.4979
25.5289
25.6208
25.6862
25.762
25.8206
25.898
25.928
25.9896
25.2072
25.2398
25.3092
25.3513
25.3559
25.2841
25.2649
25.1796
25.1857
25.1953
25.2359
25.3348
25.4069
25.4533
25.5054
25.5407
25.6285
24.7869
24.7657
24.7834
24.8097
24.8398
24.8549
24.8857
24.8524
24.8258
24.7959
24.835
24.8845
24.9966
25.01
25.1004
25.164
25.2531
24.3392
24.3428
24.3577
24.4719
24.5221
24.6608
24.7166
24.6798
24.6254
24.5335
24.4712
24.4879
24.5734
24.6259
24.653
24.6553
24.671
23.9088
23.9046
23.9367
23.9839
23.9966
24.0407
24.0822
24.0833
24.0773
24.0556
24.0837
24.0999
24.2088
24.2096
24.2832
24.2908
24.2913
23.3186
23.3179
23.3628
23.4189
23.4529
23.4816
23.5194
23.5603
23.6047
23.6392
23.6813
23.7159
23.7736
23.796
23.8279
23.859
23.9042
22.7262
22.7428
22.8186
22.8888
22.9375
22.9979
23.0616
23.0957
23.1169
23.137
23.2066
23.2446
23.3549
23.3465
23.4432
23.4603
23.5022
21.9099
21.9695
22.0718
22.1598
22.2108
22.2531
22.3008
22.3381
22.3633
22.3843
22.4338
22.482
22.567
22.6015
22.6704
22.7183
22.7556
21.2408
21.3524
21.5054
21.6143
21.6737
21.733
21.7836
21.7944
21.7817
21.7866
21.8327
21.8966
21.976
22.0095
22.0822
22.0742
22.1509
20.6547
20.7234
20.833
20.9161
20.9554
20.9881
21.0247
21.0369
21.02
21.0066
21.0252
21.0697
21.1212
21.1449
21.1885
21.1851
21.2187
21.043
21.1413
21.2595
21.3689
21.4608
21.5433
21.6103
21.6453
21.6224
21.5749
21.5248
21.5693
21.5978
21.6779
21.6804
21.6628
21.6605
21.6334
21.8107
21.5105
21.2748
21.1494
21.0868
21.0911
21.1101
21.1171
21.1443
21.1898
21.2436
21.2142
21.2882
21.0797
21.2528
21.0549
20.9538
21.0783
25.2253
25.3179
25.4858
25.7028
25.7377
25.8702
26.0186
25.932
25.6597
25.3915
25.2557
25.1364
25.0789
24.8121
24.6079
24.2528
23.8327
23.4651
20.9068
20.9098
20.9245
20.9533
20.9625
20.9866
20.9972
21.0305
21.0542
21.1019
21.1348
21.1812
21.2585
21.2791
21.3304
21.3708
21.3931
20.8301
20.8127
20.8405
20.8438
20.8725
20.8611
20.8864
20.9112
20.9336
20.9472
20.9923
21.0195
21.0696
21.1262
21.1696
21.2238
21.2371
20.7026
20.6813
20.6873
20.6956
20.7031
20.6938
20.6977
20.738
20.7551
20.7937
20.8391
20.8698
20.9317
20.9594
21.0174
21.0635
21.074
20.5314
20.5181
20.5268
20.5569
20.5793
20.606
20.6179
20.6403
20.6481
20.6766
20.7011
20.7464
20.7956
20.8487
20.8649
20.9241
20.9463
20.4358
20.4095
20.423
20.4161
20.4568
20.4659
20.5001
20.5374
20.512
20.5308
20.525
20.5644
20.5838
20.6486
20.688
20.7341
20.7592
20.2532
20.2433
20.2356
20.2148
20.2061
20.1946
20.2286
20.2666
20.3056
20.3157
20.3646
20.386
20.4293
20.4695
20.5228
20.5286
20.5867
20.012
20.0392
20.0587
20.0573
20.0382
20.0202
20.0193
20.0523
20.0977
20.1456
20.212
20.2397
20.2882
20.3267
20.3519
20.3766
20.4301
19.8537
19.8687
19.8809
19.87
19.843
19.8035
19.82
19.8127
19.8642
19.8731
19.9306
19.9975
20.0241
20.1029
20.1144
20.1572
20.1843
19.5293
19.5438
19.5763
19.6041
19.5992
19.5721
19.5499
19.5369
19.5666
19.5825
19.6538
19.7079
19.7659
19.8118
19.8827
19.9084
19.9517
19.3444
19.3611
19.4049
19.4307
19.4507
19.3958
19.392
19.3199
19.3198
19.3316
19.3491
19.4233
19.4856
19.5209
19.569
19.5876
19.6581
19.004
18.983
18.9929
19.01
19.0344
19.0388
19.0652
19.0421
19.0316
19.0102
19.0383
19.0641
19.1622
19.1679
19.2377
19.2907
19.3563
18.6558
18.6584
18.6549
18.7447
18.7667
18.8595
18.9119
18.8886
18.8681
18.8166
18.7632
18.7571
18.8224
18.8649
18.8911
18.8957
18.9166
18.3024
18.2924
18.3081
18.3504
18.3651
18.3979
18.4287
18.4269
18.4299
18.4134
18.4344
18.4283
18.5225
18.5223
18.5818
18.5985
18.5976
17.8675
17.8556
17.8793
17.9229
17.954
17.9767
18.002
18.027
18.0574
18.0784
18.1072
18.1248
18.1747
18.1943
18.2235
18.2463
18.2771
17.423
17.4171
17.4609
17.5154
17.5589
17.6047
17.6547
17.6894
17.7162
17.728
17.7759
17.7868
17.8752
17.8619
17.9363
17.9539
17.9735
16.8854
16.8986
16.9562
17.0204
17.062
17.0922
17.1263
17.1567
17.1782
17.1882
17.2171
17.2396
17.3037
17.3247
17.3786
17.4156
17.4364
16.5367
16.5837
16.677
16.7613
16.8108
16.8518
16.893
16.9139
16.9093
16.9001
16.9112
16.94
16.9904
17.0126
17.064
17.0597
17.1037
16.507
16.5359
16.5914
16.6397
16.6602
16.6719
16.6899
16.6962
16.6771
16.6474
16.634
16.6426
16.6658
16.6685
16.6882
16.6717
16.6696
17.4874
17.6672
17.7951
17.8822
17.9513
18.0068
18.0456
18.0735
18.0649
18.029
17.9548
17.9517
17.9269
17.9742
17.965
17.9356
17.9274
17.8833
19.1466
19.063
18.8988
18.7665
18.6756
18.6459
18.6402
18.638
18.6607
18.7003
18.7192
18.6701
18.6692
18.4981
18.5828
18.4228
18.3427
18.3802
26.7362
26.8304
26.9685
27.1914
27.2489
27.3485
27.5002
27.4745
27.2469
26.9564
26.7761
26.5903
26.5355
26.2245
26.0397
25.6686
25.2153
24.8366
16.4841
16.4796
16.4857
16.5082
16.5122
16.5289
16.5309
16.5522
16.5633
16.5994
16.6234
16.6503
16.7182
16.736
16.7731
16.8139
16.8304
16.4299
16.4041
16.4226
16.4201
16.4456
16.4354
16.4458
16.4606
16.4764
16.4825
16.5181
16.5387
16.5725
16.6168
16.6487
16.699
16.7077
16.3237
16.2991
16.2973
16.2978
16.3045
16.3005
16.2952
16.324
16.333
16.358
16.399
16.4193
16.47
16.4896
16.5316
16.5777
16.5881
16.1803
16.1652
16.167
16.1876
16.2025
16.2232
16.2292
16.2467
16.2492
16.2718
16.2896
16.3219
16.3597
16.4077
16.4172
16.4675
16.4918
16.1068
16.0794
16.0907
16.0773
16.1073
16.112
16.1267
16.1638
16.1416
16.1609
16.155
16.187
16.195
16.2432
16.2736
16.3144
16.344
15.9478
15.938
15.933
15.9131
15.9075
15.8946
15.9144
15.9399
15.9731
15.9807
16.0222
16.0419
16.0716
16.099
16.1493
16.149
16.2026
15.7484
15.7669
15.7834
15.7864
15.7754
15.7616
15.7551
15.774
15.8065
15.8377
15.8944
15.9164
15.9532
15.9877
16.0131
16.0269
16.0786
15.6203
15.6278
15.6358
15.6262
15.6104
15.5748
15.5875
15.5728
15.6165
15.6267
15.666
15.727
15.739
15.805
15.8164
15.8479
15.8751
15.3511
15.3592
15.3815
15.4036
15.4071
15.3906
15.3767
15.3586
15.3833
15.3907
15.4444
15.4902
15.5349
15.568
15.63
15.6543
15.6861
15.2029
15.2123
15.2419
15.2537
15.2786
15.2358
15.2417
15.1843
15.179
15.1934
15.1995
15.2525
15.3062
15.3318
15.3765
15.386
15.4417
14.9285
14.907
14.9115
14.9223
14.9438
14.9432
14.9663
14.9494
14.9481
14.9349
14.958
14.967
15.0502
15.0523
15.104
15.1476
15.1982
14.6567
14.6582
14.6446
14.7152
14.7268
14.7865
14.8325
14.8152
14.8092
14.785
14.747
14.7276
14.7762
14.8095
14.8342
14.8393
14.8611
14.3766
14.3632
14.3664
14.4004
14.4156
14.4416
14.466
14.4606
14.4658
14.4528
14.4705
14.4504
14.526
14.5269
14.5722
14.5931
14.5933
14.0679
14.0519
14.0603
14.0904
14.1164
14.1354
14.1536
14.1681
14.1882
14.1988
14.2183
14.2212
14.2604
14.2741
14.2988
14.316
14.3365
13.7684
13.7489
13.7677
13.8041
13.8386
13.8723
13.9091
13.9387
13.9657
13.9737
14.0062
14.0008
14.0644
14.0499
14.1016
14.1188
14.1261
13.4662
13.4511
13.4742
13.5142
13.5443
13.5643
13.5866
13.6088
13.626
13.6296
13.6446
13.6487
13.6913
13.6994
13.7361
13.7619
13.7713
13.3915
13.401
13.4481
13.5036
13.5388
13.5627
13.5895
13.6096
13.6093
13.5956
13.5861
13.5907
13.6125
13.6253
13.6495
13.6521
13.6661
13.7306
13.7544
13.7826
13.8065
13.8131
13.8103
13.8123
13.8108
13.7916
13.7569
13.7266
13.71
13.7078
13.694
13.6892
13.6669
13.6385
15.0012
15.2526
15.4034
15.4842
15.5369
15.571
15.5877
15.6047
15.6008
15.5774
15.4979
15.4694
15.4095
15.4244
15.4056
15.3642
15.351
15.3027
17.2904
17.4143
17.345
17.2243
17.1136
17.0524
17.0197
17.0027
17.0112
17.0481
17.0361
16.9955
16.9124
16.7935
16.7863
16.6476
16.5985
16.5727
28.1339
28.2366
28.3475
28.5623
28.6432
28.718
28.8567
28.8751
28.7009
28.4082
28.1987
27.9412
27.8812
27.524
27.3446
26.9751
26.4858
26.092
13.219
13.2112
13.2118
13.2304
13.233
13.2466
13.2452
13.2602
13.2636
13.2905
13.3103
13.3231
13.3801
13.3977
13.4224
13.4599
13.4714
13.179
13.151
13.1627
13.1565
13.1787
13.1732
13.1762
13.1842
13.1955
13.1962
13.2237
13.2406
13.2641
13.2995
13.3215
13.3672
13.3727
13.0878
13.0638
13.0582
13.0536
13.0576
13.0587
13.0506
13.0724
13.078
13.0915
13.1272
13.1411
13.1825
13.198
13.226
13.2691
13.2817
12.9652
12.9504
12.9488
12.9638
12.9743
12.9917
12.9946
13.0096
13.0092
13.0267
13.0408
13.0639
13.0918
13.1351
13.1402
13.1803
13.2066
12.9068
12.8803
12.8901
12.8754
12.8976
12.9028
12.9044
12.9381
12.9188
12.9358
12.9304
12.9579
12.9607
12.9969
13.0196
13.0533
13.0877
12.7675
12.7579
12.7552
12.7371
12.7335
12.7223
12.7341
12.7511
12.7785
12.7833
12.8168
12.836
12.8582
12.8747
12.9211
12.9178
12.9661
12.6004
12.6131
12.6268
12.6317
12.6266
12.6178
12.6108
12.6211
12.6458
12.6644
12.7115
12.7303
12.7576
12.7861
12.8126
12.8177
12.865
12.4959
12.4988
12.5042
12.4949
12.4865
12.4555
12.4668
12.4492
12.4837
12.495
12.5205
12.5758
12.5806
12.6341
12.6468
12.6688
12.6974
12.2709
12.2748
12.2909
12.3078
12.3156
12.3061
12.3011
12.2821
12.3025
12.3055
12.3438
12.3826
12.4182
12.4411
12.493
12.5165
12.5428
12.152
12.1574
12.1796
12.1821
12.2062
12.1723
12.183
12.1405
12.1315
12.146
12.1477
12.1835
12.2299
12.2479
12.2888
12.2944
12.3379
11.9366
11.9152
11.9156
11.9214
11.94
11.9368
11.9571
11.945
11.9481
11.9408
11.9614
11.96
12.0282
12.0301
12.0671
12.1015
12.1422
11.7284
11.729
11.711
11.7633
11.7722
11.8088
11.8475
11.8354
11.8345
11.8254
11.8033
11.7786
11.8137
11.8384
11.861
11.8664
11.8876
11.5215
11.5071
11.502
11.5264
11.5398
11.5597
11.5797
11.5721
11.575
11.5628
11.5773
11.5512
11.607
11.6097
11.6426
11.6635
11.667
11.3208
11.3048
11.303
11.3205
11.3393
11.3539
11.367
11.374
11.3857
11.3878
11.3998
11.3921
11.4197
11.4267
11.4448
11.4574
11.4704
11.1612
11.1354
11.1364
11.1557
11.1788
11.2013
11.2259
11.2478
11.27
11.2751
11.2945
11.282
11.3206
11.3073
11.3377
11.351
11.3528
11.055
11.0248
11.0235
11.0418
11.0591
11.0698
11.0817
11.0954
11.1067
11.1062
11.1109
11.1042
11.1266
11.1247
11.1439
11.1579
11.1588
11.2001
11.1925
11.2086
11.2381
11.2577
11.2669
11.2789
11.2918
11.291
11.2767
11.2557
11.2467
11.2432
11.2501
11.2452
11.2542
11.244
11.7659
11.8015
11.8213
11.8307
11.8274
11.8148
11.8045
11.7945
11.7748
11.7402
11.7027
11.6717
11.6488
11.6246
11.5965
11.5726
11.5257
13.1485
13.4504
13.6295
13.7165
13.7609
13.779
13.7782
13.7836
13.7778
13.7636
13.6869
13.6472
13.5672
13.5532
13.5271
13.4745
13.455
13.4078
15.8719
16.1634
16.2028
16.1173
16.0008
15.9152
15.8579
15.8252
15.8107
15.8441
15.7997
15.7886
15.631
15.559
15.4856
15.3379
15.3154
15.2645
29.4314
29.5499
29.6421
29.8389
29.9397
29.9994
30.1156
30.1584
30.0368
29.7573
29.5359
29.2129
29.134
28.7399
28.5393
28.1865
27.6679
27.2457
10.7262
10.7177
10.7146
10.73
10.7326
10.7449
10.7427
10.7544
10.7539
10.7733
10.7913
10.7951
10.8408
10.8594
10.8754
10.9083
10.9155
10.6946
10.6686
10.6752
10.6671
10.685
10.6844
10.6847
10.6886
10.697
10.6943
10.7146
10.7288
10.7462
10.7755
10.7903
10.8313
10.8345
10.6153
10.5938
10.5868
10.5797
10.5805
10.5846
10.5765
10.5936
10.5991
10.604
10.6336
10.6434
10.6768
10.6913
10.7087
10.7468
10.7619
10.5098
10.4961
10.4928
10.5042
10.5121
10.5273
10.5285
10.542
10.5408
10.5537
10.5655
10.5824
10.6019
10.6408
10.644
10.6745
10.7015
10.462
10.4378
10.4459
10.4326
10.4484
10.456
10.45
10.4788
10.4626
10.476
10.4709
10.4947
10.4957
10.5239
10.5411
10.5668
10.6046
10.341
10.3314
10.3303
10.3147
10.3122
10.3035
10.3105
10.3222
10.3445
10.3468
10.3718
10.3898
10.4085
10.4171
10.4588
10.4546
10.4975
10.2002
10.2089
10.22
10.2253
10.224
10.2192
10.2143
10.2193
10.2393
10.2492