/*--------------------------------*- C++ -*----------------------------------*\
  =========                 |
  \\      /  F ield         | OpenFOAM: The Open Source CFD Toolbox
   \\    /   O peration     | Website:  https://openfoam.org
    \\  /    A nd           | Version:  6
     \\/     M anipulation  |
\*---------------------------------------------------------------------------*/
FoamFile
{
    version     2.0;
    format      ascii;
    class       volScalarField;
    location    "0.8";
    object      p;
}
// * * * * * * * * * * * * * * * * * * * * * * * * * * * * * * * * * * * * * //

dimensions      [0 2 -2 0 0 0 0];

internalField   nonuniform List<scalar> 
63280
(
0.00423078
0.0038978
0.00357982
0.00328011
0.00300192
0.00274768
0.00251585
0.00230639
0.0021225
0.00196588
0.00183578
0.00172977
0.00164731
0.00158662
0.00154553
0.00152321
0.00151641
0.00430606
0.00399409
0.00369567
0.00341291
0.00314892
0.00290521
0.00268102
0.00247724
0.00229628
0.00213907
0.00200502
0.0018929
0.00180151
0.00173085
0.00167855
0.001644
0.00162411
0.0043968
0.00409972
0.00381486
0.00354438
0.00329081
0.00305608
0.00283858
0.00263933
0.00246133
0.00230532
0.00217045
0.00205455
0.00195737
0.00187819
0.00181598
0.00177023
0.00173901
0.00446451
0.0041815
0.00390926
0.00365042
0.00340763
0.00318264
0.00297369
0.00278101
0.0026069
0.00245211
0.00231606
0.00219758
0.00209601
0.00201105
0.00194135
0.00188592
0.00184413
0.0045329
0.00426179
0.00400057
0.00375113
0.00351626
0.00329696
0.00309203
0.00290325
0.00273146
0.00257775
0.00244058
0.0023199
0.00221495
0.00212539
0.0020508
0.00198958
0.00194149
0.00459278
0.00433287
0.00408236
0.00384284
0.00361641
0.00340385
0.00320405
0.00301801
0.00284839
0.00269537
0.00255776
0.00243458
0.0023254
0.00222998
0.00214858
0.00207962
0.00202298
0.00464427
0.00439114
0.0041474
0.00391484
0.00369513
0.00348906
0.00329569
0.0031154
0.00294988
0.00279907
0.00266257
0.00253956
0.00242982
0.00233268
0.00224815
0.00217451
0.00211195
0.00469321
0.00444879
0.00421325
0.00398835
0.00377566
0.00357381
0.003382
0.00320141
0.00303531
0.00288375
0.00274527
0.00262
0.00250676
0.00240645
0.00231793
0.00224026
0.00217331
0.00473271
0.00449104
0.00425775
0.0040356
0.00382693
0.00363182
0.00344815
0.0032751
0.00311449
0.00296596
0.00282891
0.00270314
0.00258889
0.00248601
0.00239441
0.00231277
0.00224069
0.00476425
0.00452809
0.0043
0.00408298
0.00387907
0.00368628
0.00350295
0.0033297
0.00316872
0.00301987
0.00288165
0.0027545
0.00263843
0.00253387
0.00244045
0.00235627
0.0022816
0.00479362
0.00456006
0.00433318
0.00411612
0.00391245
0.00372237
0.00354413
0.00337709
0.00322179
0.00307676
0.00294091
0.00281379
0.00269705
0.00259058
0.0024945
0.00240743
0.00232888
0.0048144
0.00458463
0.00436096
0.00414687
0.00394556
0.00375786
0.00358143
0.00341577
0.00326149
0.00311616
0.00297967
0.00285161
0.00273312
0.00262499
0.00252761
0.00243977
0.00236063
0.0048366
0.004608
0.00438575
0.0041728
0.00397173
0.00378321
0.00360659
0.00344234
0.00329088
0.00314947
0.0030163
0.00289016
0.00277251
0.00266356
0.00256437
0.00247379
0.00239113
0.00484935
0.00462203
0.004402
0.00419154
0.00399349
0.00380818
0.00363412
0.00347175
0.00332094
0.00317956
0.00304628
0.00292034
0.00280233
0.00269257
0.00259178
0.00249943
0.00241549
0.00486492
0.00463808
0.00441882
0.00420917
0.00401072
0.00382356
0.00364763
0.00348452
0.00333467
0.00319535
0.00306429
0.00294009
0.00282316
0.00271332
0.00261178
0.00251763
0.0024316
0.00486977
0.00464271
0.0044256
0.00421867
0.00402356
0.00384015
0.00366738
0.00350627
0.00335694
0.0032175
0.00308634
0.00296229
0.0028451
0.00273456
0.00263179
0.00253622
0.0024485
0.00487795
0.00464939
0.00443241
0.00422661
0.004032
0.00384777
0.00367372
0.00351162
0.00336205
0.00322339
0.00309388
0.00297175
0.00285593
0.00274597
0.00264283
0.00254615
0.00245722
0.00487466
0.0046471
0.00443408
0.00423194
0.00404027
0.00385863
0.0036865
0.00352549
0.00337542
0.00323633
0.00310653
0.00298462
0.00286936
0.00275842
0.00265519
0.0025581
0.00246715
0.00512393
0.00487394
0.00464197
0.00442852
0.00422825
0.00403937
0.00386
0.00368855
0.00352679
0.00337552
0.00323607
0.00310774
0.00298803
0.00287416
0.00276421
0.00266044
0.00256155
0.0024707
0.00512864
0.0048833
0.00465553
0.00444306
0.00424117
0.00404901
0.00386711
0.00369467
0.00353281
0.00337909
0.00323952
0.00310957
0.00299048
0.00288042
0.00276682
0.00266678
0.00257079
0.00247413
0.00513684
0.00488035
0.00464442
0.00443021
0.00423194
0.00404517
0.0038666
0.00369455
0.00353274
0.00337956
0.00323944
0.0031092
0.00298941
0.00287828
0.00276603
0.00266414
0.00256655
0.0024715
0.0042311
0.00389803
0.00357997
0.00328019
0.00300196
0.00274765
0.00251571
0.0023062
0.00212231
0.00196566
0.00183551
0.00172944
0.00164693
0.00158623
0.00154512
0.00152281
0.00151602
0.00430617
0.00399418
0.00369571
0.0034129
0.00314886
0.00290508
0.00268084
0.00247709
0.00229617
0.00213896
0.00200489
0.00189274
0.00180132
0.00173064
0.00167832
0.00164375
0.00162388
0.00439691
0.00409982
0.00381494
0.00354446
0.0032909
0.0030561
0.00283847
0.0026392
0.00246122
0.0023052
0.0021703
0.00205439
0.0019572
0.00187803
0.0018158
0.00177006
0.00173887
0.00446467
0.00418162
0.00390933
0.00365043
0.00340762
0.0031826
0.00297364
0.00278096
0.00260685
0.00245204
0.00231594
0.00219742
0.00209583
0.00201086
0.00194117
0.00188572
0.00184395
0.00453298
0.00426188
0.00400062
0.00375111
0.00351617
0.00329684
0.00309191
0.00290317
0.00273143
0.00257771
0.00244054
0.00231983
0.00221487
0.00212529
0.00205068
0.00198946
0.00194139
0.0045928
0.00433291
0.00408242
0.00384291
0.00361647
0.00340387
0.00320403
0.00301799
0.00284836
0.0026953
0.00255765
0.00243448
0.0023253
0.00222987
0.00214848
0.00207952
0.00202289
0.00464427
0.00439112
0.0041474
0.00391488
0.0036952
0.00348914
0.00329576
0.00311543
0.00294987
0.00279902
0.00266249
0.00253947
0.00242972
0.00233258
0.00224806
0.0021744
0.00211185
0.00469319
0.00444876
0.00421322
0.00398834
0.00377567
0.00357383
0.00338203
0.00320146
0.00303533
0.00288374
0.00274523
0.00261994
0.00250671
0.00240637
0.00231787
0.00224017
0.00217322
0.00473276
0.00449103
0.00425769
0.00403554
0.00382689
0.00363182
0.00344817
0.00327513
0.0031145
0.00296595
0.00282886
0.00270309
0.00258883
0.00248594
0.00239435
0.00231271
0.00224063
0.0047643
0.00452809
0.00429993
0.00408288
0.00387899
0.00368625
0.00350296
0.00332975
0.00316874
0.00301986
0.00288163
0.00275444
0.00263838
0.00253381
0.00244039
0.00235619
0.00228149
0.00479368
0.00456013
0.00433323
0.00411611
0.00391238
0.00372228
0.00354406
0.00337707
0.00322177
0.00307674
0.00294088
0.00281375
0.002697
0.00259055
0.00249446
0.00240738
0.00232881
0.00481448
0.00458474
0.00436107
0.0041469
0.00394549
0.00375769
0.00358126
0.00341566
0.00326142
0.00311614
0.00297966
0.00285159
0.00273307
0.00262491
0.00252754
0.00243975
0.00236067
0.00483665
0.00460805
0.00438578
0.00417282
0.00397174
0.0037832
0.00360658
0.00344232
0.00329084
0.00314942
0.00301624
0.00289011
0.00277246
0.00266352
0.00256432
0.00247378
0.00239117
0.00484941
0.00462208
0.00440205
0.0041916
0.00399358
0.00380826
0.00363419
0.00347178
0.00332093
0.00317951
0.00304622
0.00292029
0.00280229
0.00269254
0.00259175
0.00249939
0.00241544
0.00486496
0.00463812
0.00441884
0.00420919
0.00401074
0.00382358
0.00364766
0.00348454
0.00333466
0.00319533
0.00306424
0.00294006
0.00282313
0.00271331
0.00261175
0.0025176
0.00243154
0.00486981
0.00464273
0.00442563
0.00421872
0.00402362
0.00384021
0.00366742
0.0035063
0.00335693
0.00321747
0.00308629
0.00296225
0.00284506
0.00273454
0.00263176
0.00253617
0.00244844
0.00487798
0.00464939
0.0044324
0.00422661
0.00403201
0.00384778
0.00367373
0.00351164
0.00336205
0.00322336
0.00309384
0.00297172
0.0028559
0.00274595
0.0026428
0.00254611
0.00245715
0.00487474
0.00464716
0.00443413
0.00423198
0.00404031
0.00385866
0.00368653
0.0035255
0.00337539
0.00323628
0.00310648
0.00298459
0.00286934
0.00275841
0.00265517
0.00255807
0.00246709
0.00512399
0.00487402
0.00464204
0.00442859
0.00422833
0.00403943
0.00386003
0.00368859
0.00352684
0.00337554
0.00323605
0.00310769
0.00298799
0.00287413
0.00276417
0.00266041
0.00256151
0.00247063
0.00512855
0.00488324
0.0046555
0.00444306
0.00424119
0.00404902
0.0038671
0.00369467
0.00353284
0.00337914
0.00323956
0.00310962
0.00299053
0.00288045
0.00276687
0.00266678
0.00257084
0.00247422
0.00513616
0.00488007
0.00464452
0.00443047
0.00423222
0.00404538
0.00386668
0.00369454
0.00353269
0.00337955
0.00323952
0.00310935
0.00298956
0.00287841
0.00276615
0.00266425
0.00256667
0.00247168
0.00423112
0.00389808
0.00358004
0.00328025
0.00300199
0.00274765
0.00251576
0.00230632
0.00212246
0.00196576
0.00183556
0.00172943
0.00164687
0.0015862
0.00154509
0.00152279
0.00151602
0.0043062
0.00399423
0.00369576
0.00341295
0.00314886
0.00290506
0.00268083
0.00247712
0.00229623
0.002139
0.0020049
0.00189274
0.00180131
0.00173058
0.00167823
0.00164364
0.00162378
0.00439694
0.00409984
0.00381495
0.00354447
0.0032909
0.00305611
0.00283853
0.00263931
0.00246134
0.00230524
0.00217028
0.00205435
0.00195714
0.00187799
0.00181573
0.00176999
0.00173882
0.00446473
0.00418171
0.00390942
0.00365047
0.00340762
0.00318258
0.00297366
0.00278102
0.00260691
0.00245207
0.00231593
0.00219738
0.00209576
0.00201079
0.00194112
0.00188567
0.00184391
0.004533
0.00426197
0.00400073
0.0037512
0.00351617
0.00329679
0.00309185
0.00290313
0.00273145
0.0025777
0.00244055
0.00231983
0.00221486
0.00212525
0.00205061
0.00198937
0.0019413
0.00459277
0.00433289
0.00408243
0.00384295
0.00361652
0.00340393
0.0032041
0.00301806
0.00284839
0.0026953
0.00255761
0.00243443
0.00232525
0.0022298
0.00214841
0.00207944
0.0020228
0.00464428
0.00439107
0.00414734
0.00391486
0.00369524
0.00348923
0.00329587
0.00311553
0.00294993
0.00279904
0.00266246
0.00253943
0.00242965
0.00233252
0.00224801
0.00217435
0.0021118
0.00469321
0.00444872
0.00421317
0.00398829
0.00377566
0.00357387
0.00338211
0.00320156
0.00303539
0.00288378
0.00274522
0.0026199
0.00250669
0.0024063
0.00231782
0.00224011
0.00217317
0.00473286
0.00449107
0.00425764
0.00403542
0.00382679
0.00363177
0.00344819
0.00327518
0.00311455
0.00296598
0.00282886
0.00270307
0.0025888
0.00248591
0.0023943
0.00231269
0.00224062
0.00476443
0.00452817
0.0042999
0.00408275
0.00387885
0.00368618
0.00350295
0.00332981
0.00316878
0.00301988
0.00288166
0.00275441
0.00263834
0.00253377
0.00244035
0.00235614
0.00228137
0.00479373
0.00456024
0.00433333
0.00411614
0.00391232
0.00372216
0.00354393
0.00337698
0.00322173
0.00307673
0.00294087
0.00281374
0.00269696
0.00259053
0.00249445
0.00240735
0.00232875
0.00481457
0.00458493
0.00436131
0.00414704
0.00394549
0.00375751
0.00358099
0.00341545
0.00326125
0.00311609
0.00297968
0.00285162
0.00273303
0.0026248
0.00252742
0.00243967
0.00236069
0.00483672
0.00460815
0.00438587
0.00417286
0.00397176
0.00378318
0.00360653
0.00344227
0.00329078
0.00314937
0.0030162
0.00289009
0.0027724
0.00266347
0.00256426
0.00247376
0.00239126
0.0048495
0.00462217
0.00440215
0.00419169
0.0039937
0.0038084
0.0036343
0.00347184
0.00332094
0.00317947
0.00304615
0.00292023
0.00280223
0.00269251
0.00259173
0.00249937
0.00241542
0.00486506
0.00463822
0.00441892
0.00420924
0.0040108
0.00382361
0.00364768
0.00348456
0.00333466
0.00319531
0.00306421
0.00294004
0.0028231
0.00271332
0.00261174
0.00251757
0.0024315
0.00486993
0.00464282
0.0044257
0.00421879
0.00402372
0.00384031
0.0036675
0.00350635
0.00335694
0.00321745
0.00308625
0.00296222
0.00284503
0.00273452
0.00263174
0.00253613
0.00244838
0.00487813
0.00464948
0.00443242
0.00422663
0.00403204
0.00384778
0.00367373
0.00351164
0.00336205
0.00322335
0.00309381
0.00297169
0.00285587
0.00274593
0.00264276
0.00254607
0.00245706
0.00487496
0.0046473
0.00443423
0.00423207
0.00404039
0.00385872
0.00368656
0.00352552
0.00337538
0.00323623
0.00310642
0.00298455
0.00286933
0.00275839
0.00265514
0.00255804
0.00246701
0.00512412
0.00487416
0.00464218
0.0044287
0.00422847
0.00403955
0.00386009
0.00368866
0.00352691
0.00337557
0.00323603
0.00310763
0.00298794
0.00287411
0.00276414
0.00266037
0.00256145
0.00247051
0.00512849
0.00488318
0.00465542
0.00444302
0.00424117
0.00404898
0.00386708
0.00369468
0.00353289
0.00337921
0.00323964
0.00310968
0.00299061
0.00288047
0.00276698
0.00266676
0.00257081
0.00247439
0.00513547
0.00487959
0.00464432
0.00443043
0.00423237
0.00404556
0.00386672
0.0036945
0.00353268
0.00337961
0.00323968
0.00310963
0.00298991
0.00287878
0.0027665
0.00266458
0.00256703
0.00247212
0.00423123
0.0038982
0.00358017
0.00328035
0.00300206
0.00274767
0.00251578
0.00230638
0.00212255
0.00196585
0.00183563
0.00172947
0.00164682
0.00158615
0.00154502
0.00152269
0.00151596
0.00430625
0.00399429
0.00369582
0.00341299
0.00314883
0.002905
0.00268077
0.00247706
0.00229622
0.00213902
0.00200491
0.00189276
0.0018013
0.0017305
0.00167813
0.00164347
0.00162363
0.004397
0.0040999
0.00381503
0.00354453
0.00329093
0.00305613
0.00283856
0.00263934
0.00246138
0.00230527
0.00217029
0.00205438
0.00195712
0.00187797
0.00181567
0.00176988
0.00173875
0.00446481
0.00418183
0.00390954
0.00365054
0.00340762
0.00318255
0.00297363
0.00278102
0.00260694
0.00245211
0.00231596
0.00219739
0.00209573
0.00201073
0.00194106
0.00188559
0.00184383
0.00453301
0.00426204
0.00400083
0.00375129
0.00351616
0.00329672
0.00309175
0.00290301
0.00273142
0.00257769
0.00244059
0.00231988
0.0022149
0.00212524
0.00205055
0.00198928
0.00194122
0.00459276
0.00433287
0.00408246
0.003843
0.00361657
0.003404
0.00320415
0.00301808
0.0028484
0.00269532
0.00255761
0.00243445
0.00232527
0.00222977
0.00214836
0.00207938
0.00202271
0.00464432
0.00439103
0.00414728
0.00391481
0.00369526
0.00348931
0.00329598
0.00311564
0.00295002
0.00279909
0.00266247
0.00253943
0.00242963
0.00233247
0.00224798
0.00217431
0.00211173
0.00469324
0.00444869
0.00421311
0.00398822
0.00377562
0.0035739
0.00338217
0.00320165
0.00303544
0.00288385
0.00274529
0.00261992
0.00250674
0.00240626
0.0023178
0.00224007
0.00217311
0.00473298
0.00449114
0.00425762
0.0040353
0.00382665
0.00363168
0.00344816
0.0032752
0.00311458
0.00296605
0.00282891
0.00270312
0.00258883
0.00248591
0.00239427
0.00231266
0.00224062
0.00476454
0.00452827
0.00429991
0.00408263
0.00387867
0.00368606
0.0035029
0.00332983
0.00316883
0.00301992
0.00288175
0.00275445
0.00263835
0.00253375
0.0024403
0.0023561
0.00228127
0.0047938
0.00456036
0.00433346
0.00411618
0.00391225
0.00372201
0.00354373
0.00337683
0.00322164
0.00307672
0.00294092
0.00281381
0.00269696
0.00259054
0.00249445
0.00240733
0.00232875
0.00481467
0.0045851
0.00436156
0.00414721
0.00394556
0.00375739
0.00358072
0.00341521
0.00326104
0.00311601
0.00297971
0.00285168
0.00273304
0.00262473
0.00252731
0.00243959
0.00236069
0.00483682
0.00460828
0.004386
0.00417292
0.00397177
0.00378314
0.00360644
0.00344217
0.00329068
0.00314933
0.0030162
0.00289014
0.00277239
0.00266345
0.00256421
0.00247372
0.00239136
0.00484959
0.00462228
0.00440226
0.00419179
0.0039938
0.00380852
0.00363442
0.00347193
0.00332096
0.00317947
0.00304613
0.00292021
0.00280221
0.0026925
0.00259174
0.00249938
0.00241545
0.00486518
0.00463837
0.00441905
0.00420932
0.00401086
0.00382366
0.00364772
0.00348456
0.00333464
0.0031953
0.00306421
0.00294007
0.00282309
0.00271335
0.00261175
0.00251756
0.00243152
0.00487006
0.00464291
0.00442578
0.00421886
0.00402381
0.00384041
0.00366759
0.0035064
0.00335696
0.00321745
0.00308625
0.00296223
0.00284503
0.00273454
0.00263175
0.00253612
0.00244837
0.00487832
0.00464962
0.00443252
0.00422668
0.00403209
0.00384782
0.00367376
0.00351163
0.00336202
0.00322332
0.0030938
0.00297169
0.00285587
0.00274596
0.00264276
0.00254606
0.002457
0.004875
0.00464734
0.00443428
0.00423213
0.00404046
0.00385878
0.00368662
0.00352555
0.00337537
0.0032362
0.0031064
0.00298455
0.00286935
0.00275844
0.00265516
0.00255805
0.00246699
0.00512424
0.00487414
0.00464214
0.0044287
0.00422853
0.00403965
0.00386019
0.00368877
0.00352696
0.00337552
0.00323591
0.00310756
0.00298795
0.00287418
0.00276421
0.00266038
0.00256143
0.00247045
0.00512867
0.0048832
0.00465533
0.00444293
0.00424111
0.00404892
0.00386703
0.00369468
0.00353297
0.00337926
0.00323968
0.00310968
0.00299068
0.00288046
0.0027671
0.00266676
0.00257068
0.00247454
0.0051355
0.00487948
0.00464414
0.00443022
0.00423235
0.00404563
0.00386664
0.00369445
0.00353277
0.00337976
0.00323986
0.0031098
0.0029901
0.002879
0.00276674
0.00266482
0.00256731
0.00247243
0.00423128
0.00389828
0.00358029
0.00328045
0.00300213
0.00274768
0.00251579
0.00230646
0.00212269
0.00196598
0.00183577
0.00172962
0.00164688
0.00158621
0.00154509
0.0015227
0.00151601
0.00430625
0.00399432
0.00369586
0.00341304
0.00314879
0.00290492
0.00268071
0.002477
0.00229621
0.00213905
0.00200493
0.00189279
0.00180135
0.00173048
0.00167807
0.00164334
0.00162351
0.00439702
0.00409994
0.0038151
0.0035446
0.00329094
0.0030561
0.0028386
0.00263939
0.00246145
0.00230532
0.0021703
0.00205445
0.00195715
0.00187802
0.00181568
0.00176979
0.00173868
0.00446485
0.00418192
0.00390967
0.00365063
0.00340764
0.00318249
0.00297359
0.00278103
0.00260698
0.00245215
0.00231602
0.00219746
0.00209576
0.00201072
0.00194107
0.00188556
0.00184377
0.00453297
0.00426205
0.00400092
0.0037514
0.00351617
0.00329665
0.00309169
0.00290288
0.00273136
0.00257766
0.00244061
0.00231993
0.00221498
0.0021253
0.00205054
0.00198922
0.00194113
0.00459273
0.00433281
0.00408244
0.00384303
0.0036166
0.00340404
0.00320423
0.00301816
0.00284842
0.00269533
0.00255762
0.00243449
0.00232535
0.00222981
0.00214835
0.00207936
0.00202262
0.0046444
0.004391
0.00414719
0.00391473
0.00369522
0.00348934
0.00329608
0.00311576
0.00295012
0.00279917
0.0026625
0.00253947
0.00242966
0.00233246
0.00224797
0.00217431
0.00211167
0.0046933
0.00444865
0.00421303
0.00398812
0.00377551
0.00357389
0.00338225
0.0032018
0.00303551
0.0028839
0.00274537
0.00261996
0.00250684
0.00240627
0.0023178
0.00224005
0.00217306
0.00473312
0.00449126
0.00425765
0.00403519
0.00382647
0.00363152
0.00344808
0.00327521
0.0031146
0.0029661
0.00282896
0.00270318
0.0025889
0.00248595
0.00239425
0.00231264
0.00224064
0.00476464
0.00452839
0.00429998
0.00408256
0.00387844
0.0036859
0.00350283
0.00332987
0.00316889
0.00301995
0.00288186
0.00275454
0.0026384
0.00253377
0.00244027
0.00235609
0.00228121
0.00479386
0.00456048
0.00433362
0.00411628
0.00391219
0.00372185
0.00354352
0.00337664
0.0032215
0.00307666
0.00294095
0.00281392
0.002697
0.00259057
0.00249448
0.00240733
0.00232878
0.00481475
0.00458524
0.00436182
0.00414743
0.00394568
0.00375735
0.0035805
0.00341498
0.00326078
0.00311586
0.0029797
0.00285178
0.00273311
0.00262472
0.00252722
0.00243949
0.00236066
0.00483691
0.00460842
0.00438619
0.00417303
0.00397177
0.00378309
0.00360637
0.00344208
0.00329055
0.00314923
0.00301617
0.00289022
0.00277242
0.00266346
0.00256418
0.00247367
0.00239144
0.00484967
0.00462241
0.00440241
0.0041919
0.00399389
0.00380862
0.00363454
0.00347202
0.003321
0.00317947
0.00304611
0.00292022
0.00280222
0.0026925
0.00259175
0.0024994
0.0024155
0.0048653
0.00463853
0.00441923
0.00420943
0.00401091
0.00382373
0.0036478
0.00348461
0.00333461
0.00319527
0.00306418
0.00294011
0.0028231
0.0027134
0.0026118
0.00251759
0.00243158
0.00487022
0.00464302
0.00442586
0.00421892
0.00402387
0.00384049
0.00366769
0.00350647
0.00335697
0.00321744
0.00308623
0.00296225
0.00284505
0.00273459
0.00263179
0.00253614
0.00244839
0.00487854
0.00464978
0.00443263
0.00422673
0.00403212
0.00384789
0.00367385
0.00351168
0.00336198
0.00322326
0.00309377
0.00297171
0.00285592
0.00274603
0.00264281
0.0025461
0.002457
0.00487497
0.00464722
0.0044342
0.00423211
0.00404047
0.00385883
0.0036867
0.00352561
0.00337537
0.00323614
0.00310635
0.00298454
0.0028694
0.00275853
0.0026552
0.00255811
0.00246702
0.00512466
0.00487412
0.0046419
0.00442848
0.00422845
0.00403965
0.00386028
0.00368895
0.00352709
0.00337548
0.00323573
0.00310741
0.00298793
0.00287428
0.00276438
0.00266049
0.00256147
0.00247046
0.00512912
0.0048834
0.00465531
0.00444285
0.004241
0.00404878
0.00386695
0.00369469
0.00353309
0.00337936
0.00323969
0.0031096
0.00299069
0.00288044
0.00276725
0.00266685
0.00257053
0.00247472
0.00513595
0.00487973
0.00464412
0.00443001
0.00423226
0.00404563
0.00386654
0.00369437
0.00353285
0.00337996
0.00324008
0.00310994
0.00299016
0.00287909
0.00276685
0.00266496
0.00256751
0.00247266
0.00423127
0.00389831
0.00358038
0.00328055
0.0030022
0.00274766
0.00251578
0.00230655
0.00212286
0.00196616
0.00183594
0.00172984
0.00164703
0.00158636
0.00154528
0.00152282
0.00151618
0.00430622
0.00399432
0.00369589
0.0034131
0.00314876
0.00290481
0.00268065
0.00247697
0.0022962
0.00213907
0.00200494
0.00189282
0.00180142
0.00173051
0.00167808
0.00164325
0.0016234
0.004397
0.00409994
0.00381515
0.00354467
0.00329094
0.00305601
0.00283861
0.00263948
0.00246156
0.00230539
0.0021703
0.00205452
0.00195721
0.00187811
0.00181577
0.00176976
0.00173861
0.00446483
0.00418198
0.00390982
0.00365077
0.00340768
0.00318243
0.00297352
0.00278102
0.00260701
0.00245219
0.00231606
0.00219754
0.00209583
0.00201076
0.00194112
0.00188557
0.00184373
0.00453289
0.00426202
0.00400096
0.00375153
0.00351621
0.00329659
0.00309165
0.00290278
0.00273131
0.0025776
0.00244061
0.00231998
0.00221507
0.0021254
0.00205059
0.0019892
0.00194103
0.00459272
0.00433273
0.00408238
0.00384304
0.00361659
0.00340404
0.00320432
0.00301829
0.00284848
0.00269535
0.00255762
0.0024345
0.00232545
0.00222991
0.00214838
0.00207938
0.00202255
0.00464454
0.00439102
0.00414712
0.00391461
0.00369514
0.00348933
0.00329616
0.00311589
0.00295023
0.00279927
0.00266253
0.0025395
0.0024297
0.00233247
0.00224796
0.00217434
0.00211161
0.0046934
0.00444863
0.00421295
0.003988
0.00377534
0.00357382
0.00338234
0.00320202
0.00303566
0.00288397
0.00274546
0.00262
0.00250696
0.00240634
0.00231784
0.00224008
0.00217302
0.00473328
0.00449142
0.00425774
0.00403513
0.00382628
0.00363129
0.00344794
0.00327521
0.0031146
0.00296613
0.002829
0.00270322
0.00258897
0.00248602
0.00239427
0.00231261
0.00224064
0.00476473
0.00452853
0.00430011
0.00408256
0.00387821
0.00368568
0.00350275
0.00332993
0.00316899
0.00301997
0.00288196
0.00275467
0.0026385
0.00253383
0.00244027
0.00235611
0.00228122
0.00479389
0.00456057
0.0043338
0.00411643
0.00391217
0.00372168
0.0035433
0.00337644
0.00322133
0.00307653
0.00294091
0.00281401
0.00269706
0.0025906
0.0024945
0.00240734
0.00232883
0.00481481
0.00458534
0.00436206
0.00414769
0.00394587
0.00375741
0.00358037
0.0034148
0.00326055
0.00311566
0.00297962
0.00285186
0.00273324
0.00262478
0.00252718
0.00243938
0.00236056
0.00483698
0.00460856
0.0043864
0.00417319
0.00397178
0.00378302
0.0036063
0.00344203
0.00329042
0.0031491
0.00301607
0.00289028
0.0027725
0.0026635
0.00256418
0.0024736
0.00239148
0.00484975
0.00462255
0.00440258
0.00419203
0.00399395
0.00380866
0.00363463
0.00347213
0.00332106
0.00317947
0.00304609
0.00292023
0.00280224
0.00269252
0.00259176
0.00249942
0.00241556
0.00486543
0.00463869
0.00441943
0.00420957
0.00401095
0.00382378
0.00364795
0.00348475
0.00333463
0.00319521
0.00306413
0.00294014
0.00282314
0.00271348
0.00261188
0.00251765
0.00243168
0.00487044
0.00464315
0.00442595
0.00421897
0.00402388
0.00384052
0.00366778
0.00350657
0.003357
0.00321742
0.0030862
0.00296225
0.00284507
0.00273465
0.00263186
0.0025362
0.00244846
0.00487878
0.00464991
0.00443273
0.00422676
0.00403209
0.00384794
0.00367403
0.00351182
0.00336198
0.00322317
0.0030937
0.00297172
0.00285599
0.00274616
0.00264293
0.00254622
0.00245708
0.00487504
0.00464702
0.00443397
0.00423196
0.00404039
0.00385881
0.00368676
0.0035257
0.0033754
0.00323606
0.00310627
0.00298449
0.00286944
0.00275866
0.00265529
0.00255819
0.00246712
0.00512559
0.00487438
0.00464164
0.00442808
0.00422816
0.00403947
0.00386025
0.00368913
0.0035273
0.00337554
0.00323557
0.00310722
0.00298783
0.00287437
0.00276464
0.00266067
0.00256161
0.00247058
0.00512974
0.00488386
0.00465555
0.00444294
0.00424092
0.00404854
0.00386676
0.00369466
0.00353325
0.00337953
0.00323977
0.00310947
0.00299057
0.00288032
0.00276735
0.00266696
0.0025704
0.00247491
0.00513677
0.00488035
0.00464429
0.0044298
0.00423208
0.00404556
0.00386639
0.00369425
0.0035329
0.00338014
0.00324034
0.00311007
0.00299016
0.00287907
0.00276684
0.002665
0.00256765
0.00247283
0.0042312
0.00389829
0.00358045
0.00328066
0.00300229
0.00274763
0.00251574
0.00230664
0.00212306
0.00196636
0.00183613
0.00173012
0.00164725
0.00158658
0.00154558
0.00152307
0.00151646
0.00430617
0.00399429
0.00369589
0.00341318
0.00314875
0.00290469
0.00268058
0.00247695
0.00229621
0.00213911
0.00200497
0.00189285
0.0018015
0.00173057
0.00167813
0.0016432
0.00162332
0.00439693
0.0040999
0.00381517
0.00354476
0.00329094
0.00305588
0.00283858
0.00263959
0.00246171
0.00230551
0.0021703
0.00205457
0.00195727
0.00187821
0.00181592
0.00176979
0.00173855
0.00446476
0.00418199
0.00390995
0.00365094
0.00340778
0.00318237
0.00297343
0.002781
0.00260705
0.00245223
0.00231609
0.00219762
0.00209592
0.00201082
0.0019412
0.00188564
0.0018437
0.00453281
0.00426193
0.00400097
0.00375167
0.00351631
0.00329655
0.00309165
0.00290273
0.00273128
0.00257756
0.00244059
0.00232
0.00221515
0.00212552
0.0020507
0.00198924
0.00194092
0.00459273
0.00433264
0.00408228
0.00384302
0.00361656
0.00340398
0.00320438
0.00301848
0.00284862
0.00269539
0.00255762
0.00243449
0.00232554
0.00223006
0.00214847
0.00207946
0.00202253
0.00464476
0.00439111
0.00414707
0.0039145
0.00369502
0.00348926
0.0032962
0.00311602
0.00295036
0.00279938
0.00266258
0.00253953
0.00242976
0.0023325
0.00224795
0.00217439
0.00211157
0.00469355
0.00444866
0.00421286
0.00398786
0.00377511
0.00357367
0.00338241
0.00320231
0.00303593
0.00288409
0.00274557
0.00262004
0.00250709
0.00240645
0.00231793
0.00224016
0.002173
0.00473345
0.00449163
0.0042579
0.00403515
0.0038261
0.00363102
0.00344774
0.00327518
0.00311461
0.00296613
0.00282901
0.00270323
0.00258901
0.00248609
0.0023943
0.00231258
0.00224063
0.0047648
0.00452869
0.00430028
0.00408262
0.00387799
0.00368542
0.00350266
0.00333003
0.00316916
0.00302004
0.00288205
0.00275481
0.00263865
0.00253395
0.00244031
0.00235618
0.00228129
0.0047939
0.00456063
0.00433396
0.00411664
0.00391219
0.00372152
0.00354309
0.00337627
0.00322115
0.00307635
0.00294079
0.00281404
0.00269712
0.00259062
0.00249453
0.00240736
0.0023289
0.00481485
0.00458539
0.00436227
0.00414799
0.00394611
0.00375755
0.00358036
0.00341471
0.00326038
0.00311546
0.00297948
0.00285191
0.0027334
0.00262492
0.0025272
0.0024393
0.00236043
0.00483703
0.00460867
0.00438662
0.00417339
0.00397179
0.00378293
0.00360625
0.00344202
0.00329033
0.00314894
0.00301592
0.0028903
0.00277259
0.00266358
0.00256421
0.00247354
0.00239147
0.00484983
0.00462269
0.00440276
0.00419218
0.00399399
0.00380865
0.00363468
0.00347223
0.00332112
0.00317949
0.00304606
0.00292024
0.00280226
0.00269254
0.00259178
0.00249943
0.00241561
0.00486557
0.00463885
0.00441962
0.00420971
0.00401096
0.00382379
0.00364812
0.00348498
0.00333473
0.00319519
0.00306406
0.00294016
0.00282319
0.00271357
0.002612
0.00251778
0.00243184
0.00487075
0.00464334
0.00442604
0.00421899
0.00402382
0.00384047
0.00366783
0.00350666
0.00335705
0.00321739
0.00308614
0.00296223
0.00284507
0.00273471
0.00263194
0.00253629
0.00244857
0.00487912
0.00465005
0.00443277
0.00422673
0.00403199
0.00384792
0.00367422
0.00351206
0.00336208
0.0032231
0.00309362
0.0029717
0.00285606
0.00274633
0.00264312
0.00254641
0.00245725
0.00487551
0.00464697
0.00443369
0.0042317
0.00404018
0.00385867
0.00368676
0.0035258
0.00337548
0.003236
0.00310615
0.00298437
0.00286941
0.00275879
0.00265538
0.00255832
0.00246729
0.00512714
0.00487527
0.0046417
0.00442768
0.0042277
0.00403908
0.00386004
0.00368921
0.00352756
0.00337578
0.00323554
0.00310709
0.00298765
0.00287436
0.00276492
0.00266088
0.00256184
0.00247085
0.00513028
0.00488454
0.00465618
0.00444336
0.00424098
0.00404824
0.00386642
0.00369451
0.0035334
0.0033798
0.00323996
0.0031094
0.00299031
0.00288007
0.00276735
0.00266698
0.00257033
0.00247517
0.00513795
0.0048814
0.00464471
0.00442963
0.0042318
0.00404539
0.00386621
0.00369411
0.00353294
0.00338032
0.00324061
0.00311019
0.00299007
0.00287894
0.00276669
0.00266491
0.00256772
0.00247292
0.00423109
0.00389821
0.00358048
0.00328077
0.00300239
0.00274761
0.00251568
0.00230672
0.00212328
0.00196661
0.00183634
0.00173043
0.00164755
0.00158685
0.00154597
0.00152343
0.00151687
0.00430612
0.00399424
0.00369588
0.00341326
0.00314879
0.00290457
0.00268051
0.00247698
0.00229626
0.00213917
0.00200502
0.00189288
0.00180158
0.00173064
0.00167821
0.00164319
0.00162327
0.00439684
0.00409983
0.00381516
0.00354483
0.00329096
0.00305572
0.00283851
0.00263971
0.00246189
0.00230567
0.00217033
0.0020546
0.00195733
0.00187831
0.00181612
0.00176989
0.00173853
0.00446467
0.00418196
0.00391005
0.00365115
0.00340793
0.00318233
0.00297334
0.00278098
0.0026071
0.00245228
0.0023161
0.00219768
0.00209602
0.00201089
0.00194131
0.00188576
0.0018437
0.00453276
0.00426182
0.00400093
0.00375181
0.00351645
0.00329655
0.00309169
0.00290274
0.00273129
0.00257755
0.00244058
0.00232001
0.00221521
0.00212565
0.00205084
0.00198934
0.00194084
0.00459278
0.00433256
0.00408215
0.00384295
0.00361649
0.00340388
0.00320442
0.00301869
0.00284883
0.0026955
0.00255764
0.00243447
0.00232561
0.00223023
0.00214861
0.00207961
0.00202257
0.00464504
0.00439128
0.00414708
0.0039144
0.00369489
0.00348915
0.0032962
0.00311614
0.0029505
0.00279951
0.00266263
0.00253954
0.00242979
0.00233255
0.00224794
0.00217444
0.00211154
0.00469374
0.00444873
0.00421279
0.00398771
0.00377484
0.00357345
0.00338244
0.00320265
0.0030363
0.00288429
0.00274573
0.00262011
0.00250723
0.00240662
0.00231806
0.00224031
0.00217303
0.00473361
0.00449188
0.00425812
0.00403525
0.00382598
0.00363074
0.00344748
0.00327512
0.0031146
0.0029661
0.00282898
0.0027032
0.00258901
0.00248614
0.00239434
0.00231256
0.00224059
0.00476486
0.00452886
0.00430048
0.00408274
0.00387782
0.00368514
0.00350256
0.00333016
0.00316941
0.00302018
0.00288216
0.00275498
0.00263883
0.00253413
0.00244042
0.0023563
0.00228143
0.0047939
0.00456066
0.0043341
0.00411686