/*--------------------------------*- C++ -*----------------------------------*\
  =========                 |
  \\      /  F ield         | OpenFOAM: The Open Source CFD Toolbox
   \\    /   O peration     | Website:  https://openfoam.org
    \\  /    A nd           | Version:  6
     \\/     M anipulation  |
\*---------------------------------------------------------------------------*/
FoamFile
{
    version     2.0;
    format      ascii;
    class       volScalarField;
    location    "20";
    object      omega;
}
// * * * * * * * * * * * * * * * * * * * * * * * * * * * * * * * * * * * * * //

dimensions      [0 0 -1 0 0 0 0];

internalField   nonuniform List<scalar> 
380496
(
843.917
843.917
843.917
843.917
843.917
843.917
843.917
843.917
843.917
843.917
843.917
843.917
843.917
843.917
843.917
843.917
843.917
843.917
843.917
843.917
843.917
843.917
843.917
843.917
843.917
843.917
843.917
843.917
843.917
843.917
843.917
843.917
843.917
843.917
843.917
843.917
843.917
843.917
843.917
843.917
843.917
843.917
843.917
843.917
843.917
843.917
843.917
843.917
843.917
843.917
843.917
843.917
843.917
843.917
843.917
843.917
843.917
843.917
843.917
843.917
843.917
843.917
843.917
843.917
843.917
843.917
843.917
843.917
843.917
843.917
843.917
843.917
843.917
843.917
843.917
843.917
843.917
843.917
843.917
843.917
843.917
843.917
843.917
843.917
843.917
843.917
843.917
843.917
843.917
843.917
843.917
843.917
843.917
843.917
843.917
843.917
843.917
843.917
843.917
843.917
843.917
843.917
843.917
843.917
843.917
843.917
843.917
843.917
843.917
843.917
843.917
843.917
843.917
843.917
843.917
843.917
843.917
843.917
843.917
843.917
843.917
843.917
843.917
843.917
843.917
843.917
843.917
843.917
843.917
843.917
843.917
843.917
843.917
843.917
843.917
843.917
843.917
843.917
843.917
843.917
843.917
843.917
843.917
843.917
843.917
843.917
843.917
843.917
843.917
843.917
843.917
843.917
843.917
843.917
843.917
843.917
843.917
843.917
843.917
843.917
843.917
843.917
843.917
843.917
843.917
843.917
843.917
843.917
843.917
843.917
843.917
843.917
843.917
843.917
843.917
843.917
843.917
843.917
843.917
843.917
843.917
843.917
843.917
843.917
843.917
843.917
843.917
843.917
843.917
843.917
843.917
843.917
843.917
843.917
843.917
843.917
843.917
843.917
843.917
843.917
843.917
843.917
843.917
843.917
843.917
843.917
843.917
843.917
843.917
843.917
843.917
843.917
843.917
843.917
843.917
843.917
843.917
843.917
843.917
843.917
843.917
843.917
843.917
843.917
843.917
843.917
843.917
843.917
843.917
843.917
843.917
843.917
843.917
843.917
843.917
843.917
843.917
843.917
843.917
843.917
843.917
843.917
843.917
843.917
843.917
843.917
843.917
843.917
843.917
843.917
843.917
843.917
843.917
843.917
843.917
843.917
843.917
843.917
843.917
843.917
843.917
843.917
843.917
843.917
843.917
843.917
843.917
843.917
843.917
843.917
843.917
843.917
843.917
843.917
843.917
843.917
843.917
843.917
843.917
843.917
843.917
843.917
843.917
843.917
843.917
843.917
843.917
843.917
843.917
843.917
843.917
843.917
843.917
843.917
843.917
843.917
843.917
843.917
843.917
843.917
843.917
843.917
843.917
843.917
843.917
843.917
843.917
843.917
843.917
843.917
843.917
843.917
843.917
843.917
843.917
843.917
843.917
843.917
843.917
843.917
843.917
843.917
843.917
843.917
843.917
843.917
843.917
843.917
843.917
843.917
843.917
843.917
843.917
843.917
843.917
843.917
843.917
843.917
843.917
843.917
843.917
843.917
843.917
843.917
843.917
843.917
843.917
843.917
843.917
843.917
843.917
843.917
843.917
843.917
843.917
843.917
843.917
843.917
843.917
843.917
843.917
843.917
843.917
843.917
843.917
843.917
843.917
843.917
843.917
843.917
843.917
843.917
843.917
843.917
843.917
843.917
843.917
843.917
843.917
843.917
843.917
843.917
843.917
843.917
843.917
843.917
843.917
843.917
843.917
843.917
843.917
843.917
843.917
843.917
843.917
843.917
843.917
843.917
843.917
843.917
843.917
843.917
843.917
843.917
843.917
843.917
843.917
843.917
843.917
843.917
843.917
843.917
843.917
843.917
843.917
843.917
843.917
843.917
843.917
843.917
843.917
843.917
843.917
843.917
843.917
843.917
843.917
843.917
843.917
843.917
843.917
843.917
843.917
843.917
843.917
843.917
843.917
843.917
843.917
843.917
843.917
843.917
843.917
843.917
843.917
843.917
843.917
843.917
843.917
843.917
843.917
843.917
843.917
843.917
843.917
843.917
843.917
843.917
843.917
843.917
843.917
843.917
843.917
843.917
843.917
843.917
843.917
843.917
843.917
843.917
843.917
843.917
843.917
843.917
843.917
843.917
843.917
843.917
843.917
843.917
843.917
843.917
843.917
843.917
843.917
843.917
843.917
843.917
843.917
843.917
843.917
843.917
843.917
843.917
843.917
843.917
843.917
843.917
843.917
843.917
843.917
843.917
843.917
843.917
843.917
843.917
843.917
843.917
843.917
843.917
843.917
843.917
843.917
843.917
843.917
843.917
843.917
843.917
843.917
843.917
843.917
843.917
843.917
843.917
843.917
843.917
843.917
843.917
843.917
843.917
843.917
843.917
843.917
843.917
843.917
843.917
843.917
843.917
843.917
843.917
843.917
843.917
843.917
843.917
843.917
843.917
843.917
843.917
843.917
843.917
843.917
843.917
843.917
843.917
843.917
843.917
843.917
843.917
843.917
843.917
843.917
843.917
843.917
843.917
843.917
843.917
843.917
843.917
843.917
843.917
843.917
843.917
843.917
843.917
843.917
843.917
843.917
843.917
843.917
843.917
843.917
843.917
843.917
843.917
843.917
843.917
843.917
843.917
843.917
843.917
843.917
843.917
843.917
843.917
843.917
843.917
843.917
843.917
843.917
843.917
843.917
843.917
843.917
843.917
843.917
843.917
843.917
843.917
843.917
843.917
843.917
843.917
843.917
843.917
843.917
843.917
843.917
843.917
843.917
843.917
843.917
843.917
843.917
843.917
843.917
843.917
843.917
843.917
843.917
843.917
843.917
843.917
843.917
843.917
843.917
843.917
843.917
843.917
843.917
843.917
843.917
843.917
843.917
843.917
843.917
843.917
843.917
843.917
843.917
843.917
843.917
843.917
843.917
843.917
843.917
843.917
843.917
843.917
843.917
843.917
843.917
843.917
843.917
843.917
843.917
843.917
843.917
843.917
843.917
843.917
843.917
843.917
843.917
843.917
843.917
843.917
843.917
843.917
843.917
843.917
843.917
843.917
843.917
843.917
843.917
843.917
843.917
843.917
843.917
843.917
843.917
843.917
843.917
843.917
843.917
843.917
843.917
843.917
843.917
843.917
423.923
423.923
423.923
423.923
423.923
424.288
424.294
424.268
424.272
424.295
424.32
424.34
424.363
424.382
424.405
424.425
424.45
424.471
424.498
424.521
424.551
424.576
424.609
424.636
424.673
424.702
424.742
424.772
424.818
424.846
424.901
424.921
424.989
424.989
425.072
275.638
262.144
263.673
264.573
264.559
264.419
264.334
264.29
264.266
264.255
264.249
264.251
264.252
264.261
264.266
264.281
264.288
264.308
264.318
264.344
264.356
264.39
264.407
264.448
264.471
264.519
264.551
264.607
264.65
264.713
264.767
264.837
264.898
264.984
265.026
275.379
261.96
263.393
264.253
264.226
264.084
263.997
263.955
263.93
263.923
263.918
263.925
263.928
263.944
263.951
263.973
263.985
264.012
264.027
264.06
264.081
264.121
264.148
264.195
264.23
264.286
264.329
264.393
264.445
264.519
264.577
264.662
264.713
264.831
264.79
274.938
261.625
263.023
263.851
263.812
263.667
263.58
263.542
263.521
263.519
263.519
263.534
263.543
263.567
263.582
263.612
263.634
263.67
263.697
263.74
263.774
263.824
263.867
263.926
263.977
264.046
264.107
264.185
264.255
264.345
264.42
264.526
264.59
264.739
264.709
274.255
261.102
262.54
263.341
263.28
263.131
263.045
263.013
262.997
263.004
263.012
263.035
263.054
263.085
263.111
263.15
263.182
263.228
263.266
263.321
263.365
263.43
263.481
263.558
263.616
263.706
263.772
263.875
263.948
264.064
264.142
264.271
264.341
264.512
264.483
273.787
260.732
262.024
262.77
262.702
262.553
262.469
262.439
262.426
262.439
262.451
262.48
262.504
262.544
262.576
262.624
262.664
262.719
262.767
262.832
262.889
262.965
263.031
263.118
263.194
263.293
263.38
263.491
263.587
263.712
263.812
263.955
264.041
264.237
264.209
272.915
260.038
261.328
262.034
261.947
261.796
261.717
261.695
261.693
261.715
261.739
261.779
261.814
261.864
261.907
261.966
262.016
262.085
262.144
262.222
262.29
262.381
262.459
262.561
262.65
262.766
262.865
262.994
263.102
263.245
263.357
263.519
263.615
263.836
263.807
272.061
259.34
260.531
261.181
261.08
260.93
260.857
260.842
260.85
260.881
260.914
260.963
261.007
261.067
261.12
261.189
261.25
261.33
261.4
261.492
261.572
261.676
261.767
261.885
261.987
262.119
262.231
262.377
262.499
262.659
262.786
262.966
263.075
263.319
263.292
271.026
258.479
259.567
260.157
260.044
259.896
259.833
259.829
259.847
259.889
259.933
259.992
260.047
260.117
260.181
260.26
260.333
260.424
260.506
260.609
260.703
260.82
260.925
261.056
261.173
261.319
261.446
261.607
261.743
261.92
262.059
262.257
262.375
262.644
262.611
269.807
257.456
258.457
258.985
258.857
258.716
258.666
258.677
258.712
258.768
258.826
258.897
258.964
259.045
259.121
259.212
259.296
259.399
259.494
259.61
259.716
259.847
259.964
260.11
260.24
260.401
260.541
260.718
260.867
261.059
261.212
261.426
261.555
261.844
261.811
268.657
256.454
257.277
257.74
257.61
257.478
257.442
257.466
257.513
257.579
257.647
257.727
257.804
257.894
257.979
258.079
258.174
258.287
258.392
258.519
258.637
258.779
258.909
259.067
259.209
259.383
259.536
259.726
259.888
260.094
260.257
260.487
260.623
260.933
260.895
267.087
255.101
255.846
256.251
256.111
255.995
255.985
256.033
256.102
256.188
256.274
256.369
256.461
256.563
256.662
256.774
256.881
257.006
257.124
257.264
257.394
257.549
257.692
257.863
258.018
258.206
258.372
258.576
258.749
258.969
259.144
259.389
259.534
259.863
259.821
265.666
253.803
254.279
254.616
254.485
254.389
254.401
254.465
254.549
254.645
254.742
254.847
254.949
255.061
255.169
255.291
255.409
255.545
255.674
255.825
255.967
256.135
256.29
256.474
256.642
256.843
257.021
257.239
257.425
257.658
257.845
258.103
258.257
258.605
258.558
263.602
251.962
252.321
252.61
252.487
252.426
252.48
252.58
252.695
252.817
252.937
253.06
253.179
253.306
253.43
253.566
253.698
253.846
253.99
254.154
254.31
254.491
254.66
254.858
255.039
255.254
255.446
255.678
255.877
256.125
256.323
256.596
256.759
257.126
257.072
261.657
250.111
250.128
250.362
250.265
250.245
250.335
250.462
250.599
250.738
250.874
251.01
251.143
251.282
251.419
251.566
251.712
251.872
252.029
252.205
252.375
252.569
252.752
252.963
253.158
253.388
253.593
253.839
254.051
254.313
254.523
254.812
254.983
255.371
255.307
258.961
247.586
247.371
247.584
247.529
247.577
247.73
247.906
248.083
248.253
248.415
248.572
248.725
248.88
249.034
249.195
249.355
249.528
249.699
249.888
250.072
250.278
250.476
250.701
250.91
251.153
251.372
251.633
251.858
252.136
252.358
252.663
252.844
253.253
253.18
255.939
244.637
244.052
244.272
244.29
244.421
244.642
244.868
245.083
245.283
245.469
245.645
245.815
245.983
246.149
246.32
246.492
246.674
246.857
247.055
247.252
247.469
247.68
247.916
248.14
248.397
248.631
248.907
249.148
249.442
249.679
250.001
250.195
250.626
250.547
252.317
240.988
239.927
240.186
240.311
240.557
240.862
241.145
241.394
241.616
241.813
241.995
242.167
242.336
242.504
242.676
242.852
243.038
243.229
243.434
243.643
243.871
244.098
244.35
244.593
244.867
245.123
245.418
245.681
245.996
246.257
246.601
246.819
247.273
247.209
246.448
235.384
234.178
234.679
234.989
235.387
235.784
236.121
236.391
236.625
236.819
237.002
237.169
237.342
237.513
237.698
237.887
238.093
238.306
238.538
238.776
239.035
239.296
239.58
239.861
240.17
240.465
240.795
241.097
241.447
241.746
242.121
242.382
242.856
242.84
238.155
227.579
225.862
226.733
227.334
227.911
228.379
228.738
229.006
229.249
229.452
229.667
229.865
230.089
230.304
230.55
230.789
231.06
231.326
231.622
231.915
232.237
232.555
232.9
233.239
233.604
233.96
234.343
234.707
235.105
235.467
235.886
236.217
236.718
236.838
218.095
211.367
210.037
211.657
212.786
213.68
214.361
214.897
215.336
215.74
216.089
216.438
216.75
217.081
217.384
217.72
218.032
218.387
218.722
219.104
219.464
219.869
220.257
220.687
221.102
221.551
221.987
222.448
222.899
223.365
223.819
224.282
224.717
225.119
225.372
9.50423
8.83565
9.16122
9.29923
9.37672
9.4257
9.47265
9.50579
9.5364
9.57157
9.61549
9.64923
9.69251
9.72564
9.77084
9.80571
9.85449
9.89229
9.9454
9.98648
10.0442
10.0885
10.1515
10.1983
10.2676
10.3153
10.3924
10.4375
10.5257
10.5621
10.667
10.6844
10.8154
10.7932
10.955
133.591
127.215
127.094
127.665
127.852
127.834
127.782
127.738
127.708
127.688
127.675
127.669
127.666
127.667
127.67
127.676
127.683
127.693
127.704
127.717
127.733
127.75
127.771
127.793
127.82
127.847
127.882
127.917
127.959
128.005
128.055
128.117
128.169
128.262
128.307
133.311
126.951
126.79
127.334
127.509
127.487
127.433
127.389
127.358
127.339
127.328
127.324
127.323
127.327
127.333
127.343
127.354
127.368
127.384
127.402
127.423
127.445
127.472
127.5
127.533
127.567
127.608
127.648
127.7
127.746
127.809
127.864
127.934
128.011
128.05
132.938
126.595
126.417
126.943
127.109
127.085
127.029
126.985
126.956
126.941
126.933
126.933
126.936
126.945
126.957
126.972
126.989
127.009
127.031
127.057
127.085
127.115
127.15
127.187
127.229
127.272
127.323
127.373
127.435
127.491
127.566
127.63
127.714
127.8
127.858
132.435
126.122
125.96
126.48
126.635
126.605
126.547
126.506
126.479
126.468
126.465
126.47
126.48
126.494
126.512
126.533
126.556
126.583
126.612
126.644
126.68
126.717
126.76
126.804
126.855
126.905
126.965
127.022
127.093
127.157
127.238
127.312
127.394
127.5
127.54
132.014
125.739
125.522
126
126.14
126.104
126.044
126.002
125.977
125.967
125.966
125.975
125.987
126.006
126.027
126.053
126.081
126.113
126.147
126.186
126.227
126.272
126.321
126.372
126.43
126.488
126.555
126.621
126.699
126.772
126.861
126.942
127.035
127.143
127.201
131.387
125.155
124.944
125.405
125.53
125.487
125.426
125.387
125.366
125.362
125.367
125.382
125.401
125.426
125.453
125.486
125.52
125.559
125.6
125.645
125.694
125.746
125.802
125.861
125.926
125.993
126.067
126.141
126.226
126.306
126.401
126.491
126.586
126.706
126.76
130.745
124.568
124.324
124.747
124.852
124.801
124.739
124.701
124.684
124.685
124.695
124.715
124.739
124.77
124.803
124.841
124.881
124.926
124.973
125.025
125.08
125.139
125.202
125.269
125.341
125.415
125.497
125.578
125.67
125.758
125.859
125.957
126.057
126.186
126.242
129.997
123.88
123.603
123.985
124.068
124.01
123.947
123.913
123.9
123.907
123.923
123.949
123.979
124.016
124.054
124.099
124.145
124.196
124.25
124.308
124.369
124.435
124.505
124.579
124.658
124.739
124.828
124.916
125.015
125.11
125.217
125.322
125.426
125.563
125.618
129.152
123.104
122.799
123.139
123.199
123.132
123.07
123.041
123.036
123.051
123.075
123.108
123.145
123.189
123.234
123.285
123.338
123.396
123.456
123.521
123.589
123.661
123.738
123.819
123.904
123.993
124.088
124.183
124.289
124.391
124.504
124.616
124.723
124.869
124.923
128.333
122.355
121.978
122.26
122.296
122.223
122.163
122.139
122.141
122.161
122.191
122.23
122.273
122.322
122.373
122.429
122.487
122.55
122.616
122.687
122.76
122.839
122.922
123.008
123.1
123.195
123.296
123.398
123.509
123.617
123.735
123.854
123.964
124.118
124.171
127.304
121.401
120.996
121.234
121.245
121.165
121.112
121.098
121.111
121.143
121.184
121.233
121.284
121.341
121.4
121.463
121.528
121.598
121.67
121.748
121.828
121.914
122.003
122.096
122.195
122.296
122.404
122.512
122.629
122.744
122.867
122.992
123.106
123.268
123.319
126.312
120.489
119.958
120.117
120.1
120.017
119.971
119.966
119.988
120.028
120.076
120.132
120.19
120.253
120.317
120.386
120.457
120.533
120.611
120.695
120.781
120.873
120.968
121.068
121.173
121.281
121.395
121.51
121.633
121.754
121.883
122.014
122.131
122.303
122.351
125.004
119.264
118.671
118.778
118.737
118.654
118.621
118.635
118.674
118.73
118.792
118.859
118.928
119.001
119.074
119.152
119.231
119.315
119.4
119.492
119.585
119.684
119.787
119.894
120.006
120.121
120.242
120.364
120.494
120.621
120.757
120.895
121.016
121.197
121.241
123.705
118.045
117.265
117.276
117.208
117.129
117.114
117.143
117.198
117.267
117.34
117.418
117.496
117.577
117.658
117.743
117.829
117.92
118.013
118.111
118.212
118.318
118.428
118.542
118.661
118.783
118.911
119.04
119.177
119.311
119.453
119.598
119.723
119.915
119.953
122.019
116.445
115.512
115.453
115.365
115.301
115.313
115.371
115.451
115.54
115.631
115.723
115.814
115.906
115.998
116.092
116.186
116.285
116.386
116.492
116.6
116.713
116.83
116.952
117.078
117.208
117.343
117.479
117.623
117.765
117.914
118.067
118.196
118.4
118.434
120.108
114.604
113.423
113.275
113.175
113.137
113.185
113.274
113.38
113.491
113.601
113.707
113.811
113.913
114.013
114.115
114.217
114.322
114.429
114.541
114.656
114.776
114.9
115.029
115.162
115.299
115.441
115.585
115.737
115.887
116.043
116.205
116.341
116.556
116.584
117.825
112.372
110.841
110.583
110.476
110.478
110.574
110.704
110.84
110.973
111.097
111.214
111.325
111.432
111.537
111.642
111.748
111.857
111.968
112.085
112.205
112.332
112.462
112.599
112.74
112.887
113.039
113.194
113.356
113.517
113.684
113.858
114.006
114.236
114.272
114.184
108.832
107.096
106.874
106.837
106.924
107.089
107.27
107.439
107.594
107.73
107.855
107.968
108.079
108.186
108.297
108.408
108.525
108.647
108.775
108.909
109.05
109.197
109.35
109.51
109.675
109.846
110.02
110.201
110.382
110.57
110.761
110.932
111.175
111.228
108.727
103.939
101.682
101.432
101.489
101.683
101.915
102.133
102.312
102.478
102.62
102.763
102.894
103.036
103.171
103.319
103.465
103.623
103.781
103.95
104.121
104.302
104.485
104.677
104.873
105.075
105.281
105.49
105.706
105.92
106.141
106.363
106.573
106.843
106.964
94.0525
94.1823
91.3701
90.7409
90.7688
91.0939
91.5103
91.9159
92.2902
92.6448
92.9661
93.2734
93.5516
93.8232
94.072
94.3215
94.5559
94.797
95.0278
95.265
95.4925
95.7288
95.961
96.2033
96.4437
96.6925
96.9405
97.194
97.4488
97.7027
97.9652
98.2046
98.4886
98.6487
98.9507
11.5219
10.7696
11.096
11.221
11.3001
11.3518
11.4004
11.4367
11.4739
11.506
11.5485
11.5798
11.623
11.6545
11.7004
11.7342
11.7843
11.8213
11.876
11.9164
11.976
12.0196
12.0846
12.1304
12.2017
12.2479
12.3272
12.3699
12.4604
12.4934
12.601
12.6138
12.7473
12.721
12.8846
79.3735
76.7492
76.2134
76.3798
76.5396
76.5868
76.5788
76.5549
76.5315
76.5121
76.4979
76.487
76.4806
76.4756
76.4748
76.4735
76.4771
76.4781
76.4856
76.4882
76.4993
76.5035
76.518
76.5245
76.5422
76.552
76.5724
76.5875
76.6094
76.6332
76.6538
76.6931
76.7071
76.7711
76.7775
79.1304
76.5262
75.9807
76.1315
76.2815
76.3233
76.3122
76.2864
76.2624
76.2425
76.2292
76.2189
76.2142
76.2105
76.212
76.2125
76.2187
76.2222
76.2322
76.2381
76.2518
76.26
76.2775
76.2879
76.3097
76.3224
76.3494
76.3642
76.3977
76.4142
76.4559
76.4741
76.5218
76.5468
76.5944
78.8429
76.2491
75.6996
75.841
75.9839
76.0211
76.0076
75.9805
75.9563
75.9371
75.925
75.9165
75.914
75.9127
75.9169
75.9206
75.9297
75.9371
75.9502
75.9607
75.9778
75.9911
76.0124
76.0284
76.0544
76.073
76.1049
76.1253
76.1655
76.186
76.2375
76.257
76.3191
76.3435
76.4101
78.4942
75.9018
75.3598
75.5004
75.6382
75.6707
75.654
75.6257
75.6018
75.5839
75.5738
75.5679
75.5682
75.5703
75.5778
75.5851
75.598
75.609
75.6267
75.6405
75.6632
75.6791
75.7074
75.7251
75.7597
75.7789
75.8207
75.8415
75.8906
75.9142
75.9689
75.9999
76.0513
76.1032
76.1352
78.1502
75.5902
75.0361
75.1538
75.276
75.3
75.2787
75.2481
75.2232
75.2054
75.1962
75.1915
75.1936
75.1975
75.2073
75.217
75.2325
75.2465
75.2669
75.2845
75.3097
75.3306
75.3609
75.3848
75.4209
75.4474
75.4903
75.5189
75.57
75.5995
75.6602
75.6908
75.7581
75.7961
75.8637
77.7112
75.162
74.6156
74.7272
74.8399
74.8565
74.8309
74.7989
74.7745
74.7584
74.7517
74.7501
74.7555
74.763
74.7764
74.7898
74.8093
74.827
74.8517
74.8731
74.9029
74.9276
74.9629
74.9906
75.0319
75.0623
75.1106
75.143
75.1993
75.2331
75.2977
75.3342
75.4016
75.4494
75.51
77.2391
74.7181
74.1676
74.2598
74.3559
74.3621
74.3311
74.297
74.2726
74.2579
74.2533
74.2544
74.2626
74.2732
74.2898
74.3065
74.3294
74.3504
74.3789
74.4036
74.4376
74.4657
74.5056
74.5367
74.5829
74.6168
74.6701
74.7062
74.7674
74.805
74.8741
74.9146
74.9863
75.0374
75.1036
76.6972
74.2067
73.6529
73.7238
73.8012
73.7957
73.7589
73.7231
73.6992
73.6865
73.6846
73.6889
73.7004
73.7145
73.7345
73.7548
73.7812
73.8061
73.838
73.8669
73.9044
73.9369
73.9804
74.016
74.0661
74.1044
74.1619
74.2019
74.2679
74.3087
74.3831
74.4259
74.5029
74.5553
74.6265
76.0999
73.6405
73.0851
73.1342
73.1911
73.1723
73.1296
73.0926
73.0703
73.0608
73.0625
73.0709
73.0865
73.1047
73.1287
73.153
73.1832
73.212
73.2479
73.2806
73.3222
73.3584
73.4063
73.4457
73.5003
73.5423
73.6043
73.6481
73.7185
73.7631
73.8414
73.8883
73.9681
74.0252
74.0981
75.4988
73.0835
72.509
72.5232
72.5547
72.5223
72.4742
72.4368
72.4161
72.4095
72.4146
72.4265
72.4455
72.4673
72.4946
72.5224
72.5559
72.5881
72.6274
72.6636
72.7087
72.7485
72.8
72.843
72.9014
72.947
73.0131
73.0603
73.1347
73.1826
73.2649
73.3148
73.398
73.4581
73.5335
74.7877
72.4069
71.8275
71.8171
71.8252
71.7785
71.7255
71.6888
71.6718
71.6702
71.6806
71.698
71.7222
71.7489
71.7809
71.8132
71.851
71.8875
71.9309
71.9712
72.0204
72.0643
72.1199
72.1669
72.2295
72.279
72.3493
72.4003
72.479
72.5304
72.6167
72.6702
72.7565
72.8207
72.8977
74.0535
71.7341
71.1101
71.0453
71.0185
70.9556
70.8986
70.8635
70.8504
70.8537
70.869
70.8912
70.9198
70.9509
70.9869
71.0232
71.0649
71.1053
71.1524
71.1966
71.2496
71.2974
71.3569
71.4079
71.4745
71.5279
71.6024
71.6571
71.7401
71.7951
71.8856
71.9427
72.0322
72.1005
72.1787
73.1494
70.8786
70.2307
70.1295
70.0733
69.9955
69.936
69.9051
69.8989
69.9101
69.933
69.9626
69.9979
70.0353
70.077
70.119
70.1657
70.2112
70.2631
70.3121
70.3697
70.4221
70.4862
70.5416
70.6129
70.6706
70.7499
70.8086
70.8964
70.9552
71.0503
71.1113
71.2044
71.2776
71.3568
72.1923
69.9974
69.2694
69.0937
68.9939
68.8996
68.8397
68.8149
68.8169
68.8366
68.8674
68.9044
68.9462
68.9898
69.037
69.0844
69.1359
69.1864
69.2428
69.2965
69.3586
69.4154
69.4841
69.5439
69.6198
69.6817
69.7659
69.8287
69.9215
69.9841
70.0842
70.149
70.246
70.3244
70.404
71.0025
68.881
68.0803
67.8421
67.7033
67.5955
67.539
67.5244
67.5385
67.57
67.6115
67.6581
67.7081
67.7594
67.8132
67.8669
67.924
67.9801
68.0415
68.1003
68.1672
68.229
68.3024
68.367
68.4479
68.5144
68.6038
68.6709
68.7693
68.8359
68.9417
69.0106
69.1125
69.1969
69.2783
69.6099
67.5791
66.6556
66.3306
66.147
66.0288
65.9803
65.9794
66.008
66.0529
66.106
66.1626
66.2211
66.2798
66.3398
66.3994
66.4614
66.5226
66.5884
66.6522
66.7233
66.7901
66.8679
66.9374
67.0231
67.0946
67.1892
67.2611
67.3655
67.4365
67.5491
67.6222
67.7304
67.8202
67.904
67.9186
65.9889
64.882
64.4394
64.1989
64.0706
64.0341
64.0508
64.0961
64.1549
64.2192
64.2845
64.3498
64.4142
64.479
64.5432
64.6092
64.6749
64.7444
64.813
64.8881
64.9603
65.0427
65.1185
65.2096
65.2877
65.3888
65.4676
65.5795
65.6573
65.7787
65.8581
65.9769
66.0743
66.1694
65.3965
63.5126
62.2588
61.7692
61.5195
61.409
61.3992
61.4407
61.5061
61.5805
61.6562
61.73
61.8019
61.8718
61.9416
62.0112
62.0829
62.1554
62.2321
62.3096
62.3934
62.4766
62.569
62.6572
62.7592
62.851
62.9638
63.0566
63.1811
63.2723
63.4078
63.4986
63.634
63.7391
63.8511
61.5623
60.0531
58.4392
57.7749
57.4766
57.38
57.4013
57.4699
57.558
57.651
57.7469
57.841
57.9374
58.0321
58.1307
58.2282
58.3307
58.4322
58.5394
58.6458
58.7583
58.8698
58.9884
59.1046
59.2301
59.3495
59.483
59.6032
59.7464
59.8639
60.0177
60.132
60.2909
60.4142
60.5687
52.9315
55.1642
53.2042
51.9869
51.3897
51.1883
51.2128
51.3257
51.487
51.6576
51.8419
52.0159
52.1956
52.3588
52.528
52.6793
52.8399
52.9831
53.1374
53.2738
53.4216
53.5539
53.6987
53.8321
53.9768
54.1135
54.2592
54.3986
54.5477
54.6844
54.8453
54.9611
55.1595
55.2047
55.4706
13.0788
12.358
12.7412
12.8832
12.967
13.0168
13.0623
13.0938
13.1305
13.1574
13.1966
13.2235
13.265
13.2933
13.3388
13.3702
13.4206
13.4557
13.5115
13.5504
13.6115
13.6537
13.7205
13.7651
13.8385
13.8833
13.9649
14.0059
14.099
14.13
14.2402
14.251
14.3864
14.3604
14.5237
52.7832
51.7579
51.3203
51.2782
51.3467
51.3941
51.4081
51.4019
51.3894
51.3747
51.3628
51.3511
51.3439
51.3358
51.3332
51.3275
51.3289
51.3244
51.3294
51.3256
51.3335
51.3305
51.3405
51.3388
51.3499
51.3506
51.3617
51.3666
51.3756
51.3879
51.3915
51.4163
51.411
51.4525
51.4403
52.5868
51.5748
51.1396
51.0912
51.1538
51.196
51.2073
51.1983
51.185
51.1689
51.1574
51.1452
51.1393
51.1312
51.1303
51.1252
51.1283
51.1253
51.1317
51.13
51.1393
51.1387
51.1508
51.1508
51.1658
51.1661
51.1846
51.1847
51.2078
51.2066
51.2359
51.232
51.2684
51.2597
51.3087
52.3671
51.3604
50.9262
50.8741
50.9322
50.9705
50.9789
50.9679
50.9533
50.9365
50.9251
50.913
50.9079
50.9008
50.9009
50.8975
50.9016
50.901
50.9083
50.9097
50.92
50.9226
50.936
50.9394
50.9563
50.9598
50.9812
50.9834
51.0117
51.0101
51.0484
51.041
51.0906
51.0768
51.142
52.1144
51.1047
50.674
50.6226
50.6789
50.714
50.7196
50.7063
50.6907
50.6735
50.6622
50.6512
50.6469
50.6416
50.6432
50.6418
50.6481
50.649
50.6598
50.6618
50.677
50.6793
50.6991
50.7009
50.7258
50.7268
50.7569
50.7575
50.7919
50.794
50.8298
50.838
50.8684
50.8901
50.9097
51.844
50.8526
50.4247
50.3646
50.4106
50.4379
50.4383
50.4215
50.404
50.3855
50.3742
50.363
50.3597
50.3548
50.3578
50.3574
50.3651
50.3679
50.3796
50.3845
50.3999
50.4062
50.4256
50.4326
50.4564
50.4634
50.4925
50.4985
50.5341
50.5378
50.5816
50.5821
50.6338
50.6306
50.6947
51.5236
50.5345
50.1128
50.0522
50.0935
50.1152
50.1109
50.0912
50.0719
50.0531
50.042
50.0318
50.0298
50.0264
50.0313
50.0326
50.0428
50.0472
50.0618
50.0683
50.087
50.095
50.1178
50.1266
50.1539
50.1628
50.1956
50.2037
50.2428
50.2494
50.2949
50.3009
50.3501
50.3578
50.4107
51.1696
50.1936
49.7765
49.7091
49.7402
49.753
49.7423
49.7188
49.6974
49.6779
49.6669
49.6576
49.6567
49.6548
49.6614
49.6643
49.6766
49.6826
49.6996
49.7076
49.7291
49.7384
49.7645
49.7745
49.8055
49.8157
49.8521
49.8618
49.9043
49.9128
49.9617
49.9695
50.0225
50.0307
50.0901
50.7657
49.8042
49.3929
49.318
49.3373
49.3398
49.3217
49.294
49.2704
49.2504
49.2398
49.2316
49.2321
49.2321
49.2404
49.2455
49.2596
49.268
49.2869
49.2976
49.321
49.3331
49.3612
49.374
49.4074
49.4201
49.4596
49.4711
49.5176
49.5269
49.5808
49.5883
49.6471
49.6541
49.7191
50.3251
49.3784
48.9731
48.8904
48.8966
48.8874
48.8612
48.829
48.8035
48.7833
48.7735
48.7668
48.7692
48.7712
48.7817
48.7889
48.8054
48.8159
48.8373
48.85
48.8761
48.8902
48.9212
48.9359
48.9724
48.987
49.0297
49.0432
49.0928
49.1043
49.1609
49.171
49.232
49.2417
49.3088
49.8716
48.9497
48.5449
48.4466
48.4346
48.4115
48.3769
48.3406
48.3134
48.2935
48.2847
48.2798
48.284
48.2882
48.3007
48.3101
48.3287
48.3414
48.3649
48.3797
48.4081
48.4243
48.4578
48.4747
48.5137
48.5304
48.5759
48.5912
48.644
48.6571
48.7171
48.7284
48.7928
48.8034
48.8738
49.3498
48.4479
48.0479
47.9395
47.9116
47.8746
47.8309
47.7902
47.7616
47.7423
47.735
47.7323
47.7388
47.7457
47.7607
47.7728
47.7938
47.8091
47.8351
47.8525
47.8834
47.902
47.9382
47.9574
47.9993
48.0182
48.0667
48.0841
48.14
48.1551
48.2183
48.2315
48.2988
48.3113
48.3843
48.7893
47.9266
47.5169
47.3802
47.3246
47.2688
47.2153
47.171
47.1419
47.1243
47.1193
47.1196
47.1289
47.1387
47.1564
47.1714
47.195
47.2129
47.2415
47.2614
47.2949
47.316
47.3549
47.3765
47.4213
47.4424
47.494
47.5136
47.5727
47.5897
47.6562
47.6714
47.7416
47.7562
47.8316
48.1201
47.293
46.8805
46.7253
46.6467
46.5732
46.5096
46.4614
46.4319
46.4162
46.4139
46.4177
46.4303
46.4437
46.4647
46.4831
46.5098
46.5309
46.5625
46.5854
46.622
46.6459
46.6879
46.7121
46.7602
46.7839
46.8389
46.8607
46.9236
46.9427
47.0129
47.0301
47.1037
47.1206
47.1986
47.384
46.6132
46.1743
45.9756
45.8588
45.7621
45.6882
45.638
45.6101
45.5985
45.6003
45.609
45.6257
45.6436
45.6681
45.6904
45.7203
45.7449
45.7795
45.8056
45.8451
45.8719
45.917
45.9439
45.9953
46.0214
46.0801
46.1041
46.171
46.192
46.2663
46.2855
46.3627
46.382
46.4626
46.4841
45.7767
45.3134
45.0764
44.9236
44.8041
44.72
44.668
44.6421
44.6348
44.6411
44.6549
44.6758
44.6983
44.7265
44.7529
44.7859
44.8143
44.8518
44.8813
44.9238
44.9539
45.0021
45.032
45.087
45.1158
45.1785
45.2049
45.2762
45.2992
45.3785
45.3996
45.4816
45.5035
45.5883
45.4148
44.7866
44.275
43.9805
43.7816
43.6367
43.5436
43.4914
43.4691
43.4673
43.4787
43.4978
43.5228
43.55
43.5813
43.6118
43.6474
43.6796
43.7194
43.7527
43.7977
43.8315
43.8826
43.9162
43.9745
44.0067
44.0734
44.1028
44.179
44.2046
44.2895
44.3127
44.4006
44.4247
44.5148
44.1
43.5679
42.9759
42.5983
42.3372
42.1594
42.0547
42.0009
41.9817
41.984
41.9998
42.0233
42.052
42.0833
42.1176
42.1524
42.1908
42.2276
42.2702
42.3085
42.3562
42.3955
42.4496
42.4889
42.5508
42.5887
42.6599
42.6948
42.7765
42.8069
42.8988
42.9258
43.0225
43.0503
43.1516
42.3715
41.8215
41.1163
40.6655
40.3557
40.1518
40.0391
39.9835
39.9685
39.9749
39.9974
40.026
40.0614
40.098
40.1388
40.1794
40.2239
40.2678
40.3165
40.3632
40.4171
40.466
40.5264
40.5764
40.6446
40.6939
40.7717
40.8179
40.907
40.9478
41.0485
41.084
41.192
41.2248
41.34
39.7933
39.442
38.4703
37.8254
37.4174
37.1809
37.0766
37.0385
37.051
37.0791
37.1296
37.1786
37.2414
37.2976
37.3651
37.4249
37.4949
37.5574
37.6291
37.6942
37.7678
37.8352
37.9114
37.9805
38.0604
38.1298
38.2155
38.2827
38.3767
38.4386
38.5432
38.598
38.713
38.7624
38.8932
35.627
38.2627
37.0517
35.8411
35.0303
34.5623
34.3387
34.2392
34.229
34.2504
34.3132
34.3751
34.4635
34.5376
34.6339
34.7097
34.8068
34.8807
34.9758
35.0469
35.1378
35.2069
35.2939
35.3637
35.4477
35.5201
35.6024
35.6767
35.7605
35.8316
35.9258
35.9797
36.1039
36.1153
36.2865
14.3882
13.784
14.2555
14.4353
14.5281
14.5734
14.6112
14.6326
14.663
14.6811
14.7143
14.7341
14.7718
14.7948
14.8381
14.8652
14.9148
14.9463
15.002
15.0379
15.0996
15.1392
15.2071
15.2492
15.324
15.3664
15.4497
15.4885
15.5833
15.6124
15.7238
15.734
15.8689
15.8462
16.0051
37.6296
37.2291
36.9732
36.8768
36.8772
36.8994
36.9145
36.9169
36.9129
36.9037
36.8956
36.8853
36.8791
36.87
36.8672
36.8591
36.8597
36.8521
36.8557
36.8484
36.8543
36.8474
36.8546
36.8489
36.8561
36.8524
36.8583
36.8581
36.8607
36.8665
36.8633
36.8775
36.8676