/*--------------------------------*- C++ -*----------------------------------*\
  =========                 |
  \\      /  F ield         | OpenFOAM: The Open Source CFD Toolbox
   \\    /   O peration     | Website:  https://openfoam.org
    \\  /    A nd           | Version:  6
     \\/     M anipulation  |
\*---------------------------------------------------------------------------*/
FoamFile
{
    version     2.0;
    format      ascii;
    class       volScalarField;
    location    "10";
    object      yPlus;
}
// * * * * * * * * * * * * * * * * * * * * * * * * * * * * * * * * * * * * * //

dimensions      [0 0 0 0 0 0 0];

internalField   uniform 0;

boundaryField
{
    inlet
    {
        type            calculated;
        value           uniform 0;
    }
    outlet
    {
        type            calculated;
        value           uniform 0;
    }
    roughCylinder
    {
        type            calculated;
        value           nonuniform List<scalar> 
5120
(
17.9711
20.5117
34.2529
38.5264
41.9317
43.6523
44.794
45.1934
45.4351
45.3693
45.2111
45.1399
45.144
45.0615
44.9091
44.7803
44.5655
44.1731
43.0274
42.1062
42.4987
42.6216
42.5645
41.1055
43.4451
42.0158
41.5147
41.0688
40.635
39.9693
39.492
39.2792
16.4603
20.8795
33.8842
38.2011
41.6224
43.3591
44.5129
44.9869
45.2304
45.243
45.3668
45.4017
45.3982
45.2138
45.0582
44.9912
44.7946
44.372
43.3808
42.5335
42.8562
42.9973
42.9436
41.5371
43.658
42.2933
41.8911
41.3943
41.0181
40.4166
39.952
39.7886
5.58549
19.7174
33.075
37.7528
41.2628
43.1188
44.3502
44.8197
45.1669
45.3311
45.4037
45.4294
45.3394
45.1796
45.1065
45.127
44.8907
44.4591
43.5911
42.818
43.0462
43.2453
43.216
42.0241
44.0096
42.813
42.4817
41.9457
41.6183
41.0808
40.6048
40.4568
10.069
19.2289
32.5873
37.3412
40.9032
42.8074
44.04
44.6448
45.0676
45.249
45.5433
45.6553
45.6113
45.4261
45.3472
45.3653
45.1345
44.7105
44.0155
43.3308
43.43
43.6687
43.6259
42.5688
44.2926
43.1631
42.9235
42.3516
42.0717
41.5996
41.1423
41.034
7.81042
18.3369
31.5012
36.7309
40.4364
42.4928
43.8909
44.5367
45.0387
45.4225
45.6466
45.691
45.5736
45.4361
45.4323
45.5019
45.2409
44.8514
44.2806
43.6725
43.672
43.9555
43.9185
43.144
44.712
43.7462
43.5581
42.9698
42.7185
42.3114
41.8505
41.7541
12.7667
17.56
30.8238
36.1695
40.0002
42.1878
43.582
44.3855
45.029
45.3519
45.7186
45.8662
45.8741
45.7692
45.7369
45.7451
45.5034
45.1556
44.7336
44.2095
44.1302
44.4193
44.361
43.7504
45.0563
44.1449
44.0302
43.4317
43.2166
42.8701
42.4393
42.3722
7.04612
16.2402
29.3609
35.3246
39.3925
41.7691
43.4253
44.3284
44.9827
45.528
45.849
45.9326
45.8701
45.8006
45.8286
45.8844
45.6397
45.3501
45.0161
44.5613
44.452
44.7299
44.6803
44.3545
45.5252
44.7674
44.6821
44.0926
43.8926
43.6081
43.1843
43.1234
12.2941
15.1145
28.4251
34.4866
38.7859
41.43
43.0889
44.1315
45.0011
45.4393
45.8488
46.0551
46.1757
46.1793
46.1812
46.1562
45.9502
45.7083
45.4743
45.098
44.9897
45.2243
45.1716
44.9777
45.914
45.1896
45.1605
44.5821
44.4134
44.18
43.7971
43.7565
12.079
13.9065
26.4159
33.2599
37.9129
40.7805
42.8201
44.0572
44.8658
45.5554
45.9805
46.1551
46.1906
46.2017
46.2573
46.3124
46.1333
45.9493
45.759
45.4458
45.3706
45.5501
45.5261
45.5694
46.4073
45.8234
45.807
45.2577
45.0962
44.9167
44.5503
44.5097
14.7663
12.6648
25.1065
31.8827
36.9141
40.2645
42.3425
43.6897
44.8315
45.4116
45.8979
46.2006
46.4597
46.5864
46.6448
46.622
46.4897
46.3422
46.2097
45.9684
45.9421
46.062
46.0593
46.1637
46.7985
46.2248
46.2536
45.7289
45.5985
45.4581
45.1402
45.1144
16.8602
11.9436
22.3727
30.1071
35.5363
39.1204
41.7681
43.4875
44.5102
45.4015
45.9836
46.3036
46.4589
46.564
46.6739
46.7767
46.6934
46.5955
46.477
46.2874
46.3145
46.3773
46.4171
46.6919
47.2672
46.8262
46.8584
46.3776
46.252
46.1543
45.8599
45.8268
19.4231
11.2164
20.5695
27.6635
33.7412
38.1764
40.9334
42.7476
44.3197
45.1332
45.7753
46.216
46.6338
46.9055
47.0644
47.0935
47.0545
46.9804
46.8987
46.7714
46.8524
46.8796
46.9502
47.208
47.5999
47.1465
47.2116
46.7627
46.6684
46.5959
46.3537
46.3349
21.5965
11.4034
17.2483
25.4082
31.4849
36.0197
39.7118
42.242
43.6322
44.8913
45.734
46.2666
46.559
46.7739
46.9736
47.1738
47.203
47.1778
47.103
47.0126
47.1314
47.1289
47.2344
47.6032
47.9694
47.6525
47.7129
47.3218
47.2333
47.193
46.979
46.9432
23.215
12.3242
14.3833
20.7112
28.1784
34.2412
38.0685
40.6946
43.1011
44.3346
45.2939
45.9609
46.5799
47.0196
47.3098
47.417
47.4788
47.4725
47.4375
47.4054
47.5603
47.5619
47.687
47.9775
48.1846
47.835
47.9154
47.5588
47.5064
47.4817
47.3222
47.3105
22.7105
12.8001
12.4624
18.2695
24.3638
29.7591
35.4333
39.5417
41.5915
43.623
44.9493
45.8522
46.3565
46.716
47.0286
47.347
47.4831
47.5257
47.5026
47.5022
47.6819
47.689
47.8365
48.213
48.4158
48.2226
48.2902
48.0089
47.9635
47.9615
47.8279
47.7813
20.8836
13.3569
12.2795
12.192
17.4406
26.5133
31.7616
35.9017
40.3186
42.3554
43.991
45.1058
46.0982
46.7989
47.2703
47.4702
47.6249
47.688
47.7243
47.7903
47.9905
48.0282
48.1706
48.3875
48.4324
48.1776
48.2169
47.9795
47.9603
47.9593
47.8818
47.8749
18.4186
12.6845
7.29078
10.7313
5.46195
11.3507
24.8118
33.2814
36.4748
40.5707
42.9384
44.579
45.4757
46.1096
46.603
47.1046
47.3695
47.506
47.5661
47.6509
47.8435
47.8864
48.0196
48.3295
48.3934
48.337
48.3707
48.2291
48.2183
48.2331
48.1773
48.0926
15.8256
11.558
8.50001
10.4034
10.1519
10.7225
4.71527
19.3577
33.4678
37.2877
40.7211
42.8414
44.6204
45.804
46.6015
46.9365
47.2148
47.3886
47.5538
47.7385
47.9615
48.0336
48.1354
48.1268
47.9924
47.7993
47.6634
47.5379
47.4971
47.4726
47.4542
47.4407
12.4038
10.8501
8.1848
10.5954
10.5401
10.5424
10.8454
12.89
14.6669
32.5827
37.9107
41.3641
43.0298
44.1963
45.0184
45.8751
46.3643
46.669
46.8493
46.997
47.1443
47.138
47.1509
47.2781
47.229
47.2914
47.2186
47.2199
47.1946
47.1765
47.1733
46.9606
11.0306
11.7731
9.74413
6.97047
9.00756
12.0882
7.33219
12.0335
8.96253
20.1509
32.2791
37.0765
40.8168
43.0118
44.455
44.992
45.471
45.8292
46.186
46.5053
46.7387
46.7389
46.7079
46.157
45.6759
45.3762
44.7172
44.5451
44.245
44.0085
43.8933
43.8361
11.5755
6.95246
5.00787
9.43814
12.4871
9.74954
8.16612
7.55979
5.76651
8.2484
25.5813
33.8315
36.6579
38.8654
40.3613
42.1025
43.1036
43.7262
44.0044
44.0424
43.9435
43.5136
43.0625
42.6957
42.5667
42.672
42.3935
42.4255
42.1694
41.9175
41.7846
40.9371
2.87489
11.0781
1.07834
7.32158
7.95295
10.7804
3.67362
6.83741
12.3498
12.6017
7.51823
15.6968
29.415
35.2141
38.4721
39.2673
40.0719
40.6992
41.2545
41.677
41.8612
41.4632
41.0816
38.8055
36.6666
34.8967
30.7412
28.0024
23.8464
18.808
12.0056
11.5957
3.49794
4.46193
7.65546
9.87621
14.4828
17.4578
16.4176
11.4033
0.513959
7.78251
8.37585
13.7024
15.4914
17.7913
18.2336
27.4344
31.4813
33.0817
32.7404
30.7875
27.9936
22.853
15.4197
20.7447
19.8237
19.621
15.624
4.07063
13.4993
14.6703
6.76268
7.55051
6.01351
10.2585
7.12421
8.39005
17.2837
23.4786
26.3769
27.3922
26.5844
21.3264
9.71616
5.34914
4.33233
8.03724
10.1046
6.15104
17.0185
2.34589
15.3824
11.68
17.154
16.7614
16.2351
10.3352
15.8311
16.4594
14.7194
14.6236
19.7021
17.7421
11.3155
12.6033
8.29589
12.081
11.2808
10.3349
15.758
22.7177
27.1426
29.1039
29.1432
28.1149
25.7766
17.8921
9.85699
4.90844
11.1666
12.1864
14.813
15.0788
10.5969
4.96599
15.7162
9.27591
9.39819
19.2163
3.35831
11.7338
17.4929
21.7581
24.9149
26.81
28.3868
28.8683
7.96122
15.0641
15.8412
14.9831
16.9051
21.6228
26.0102
28.8485
30.0616
29.7305
27.3155
24.3792
23.8216
23.2119
19.1221
11.4
7.97314
12.4524
1.1917
16.1145
12.8727
17.5148
20.3448
23.2222
25.7927
27.5198
28.2839
28.7813
29.3323
29.7437
30.2207
30.5172
6.92497
16.2089
18.9565
19.8845
20.9416
23.3311
26.2363
28.6508
30.0069
29.9602
28.0772
23.8839
22.2557
24.0076
24.7696
24.8339
23.0415
21.7499
23.0733
23.953
25.675
26.02
26.7722
27.5076
27.8335
28.8625
29.797
30.6704
31.3014
31.8398
32.2135
32.3346
5.97554
16.1963
20.0476
22.2926
23.7797
25.2615
26.8264
28.1203
28.4294
26.7292
22.2904
15.7385
17.1961
21.1213
23.1869
23.3512
23.8682
24.0254
24.2992
24.7587
25.5003
26.4946
27.3735
28.2046
28.7513
29.527
29.6086
29.8895
29.965
29.9938
30.0532
30.1183
4.89733
14.8109
19.1543
22.0982
24.0662
25.4089
26.2855
26.5302
25.5855
22.5845
17.7773
8.42554
4.17217
10.4158
14.4354
19.484
21.7863
22.6811
23.2367
23.7626
24.1187
24.4503
25.1794
25.8172
26.2484
26.7791
26.8579
27.6071
28.0876
28.5897
29.0796
29.3337
3.75162
12.1472
16.4354
19.8304
22.2334
23.7469
24.4411
24.1776
22.5435
19.2833
11.6043
1.48591
11.5513
13.2858
10.5513
7.67225
13.708
16.613
17.9405
18.7242
19.6861
21.0925
22.5098
23.7233
24.6527
25.4408
25.9602
26.8515
27.465
27.8879
28.2934
28.5179
3.50675
10.8976
13.0218
16.0529
18.6998
20.3992
21.0367
20.4434
18.328
14.1293
3.2468
10.0372
11.1924
9.87314
13.1935
15.5832
14.6635
15.4297
16.6398
17.9285
19.1173
20.2648
21.4775
22.4833
23.2515
23.8384
24.3264
25.186
25.9872
26.8256
27.5322
27.9066
2.46275
7.98626
10.2087
11.5156
13.4043
14.7848
15.0054
13.6064
11.3163
9.51654
7.86759
9.49708
11.5281
11.6912
10.978
11.1923
13.5919
15.1696
16.0693
16.8537
17.6722
18.6573
19.668
20.6461
21.6886
22.7599
23.8158
25.0194
26.1251
27.129
27.9359
28.354
2.12199
6.87258
8.38636
9.74042
10.8498
11.3268
10.9845
9.66822
6.81696
8.53702
11.1404
11.5968
11.4767
11.5005
11.6442
12.4245
12.96
14.1717
15.237
16.1647
17.0166
17.9398
19.064
20.281
21.5209
22.7581
24.0087
25.3369
26.5821
27.7282
28.6318
29.095
2.40653
7.57495
9.10364
10.1917
11.0256
11.3748
11.4182
11.3203
11.5437
11.5191
11.5294
11.5663
11.5165
11.5614
11.4928
11.5343
12.5642
13.9353
14.9371
15.8637
16.8709
17.9767
19.1525
20.4428
21.8212
23.2281
24.6641
26.1503
27.5514
28.8119
29.8035
30.3133
2.33205
7.6428
9.19743
10.3085
11.1923
11.5273
11.4993
11.5766
11.6172
11.9789
12.5043
12.8042
12.5147
11.5456
11.4996
11.532
12.422
13.7795
14.9938
16.089
17.1719
18.3245
19.6055
21.014
22.5154
24.0616
25.6546
27.3071
28.8982
30.3229
31.4288
31.993
2.24696
7.73257
9.21003
10.1784
11.0183
11.5225
11.7721
12.2057
12.7413
13.2275
13.4556
13.3507
12.9433
12.3182
11.5441
11.5178
12.377
13.8288
15.108
16.3122
17.5468
18.8581
20.2727
21.8228
23.4933
25.2408
27.0426
28.8867
30.6712
32.2635
33.4913
34.1156
2.32698
8.19366
9.52348
10.268
10.9419
11.5203
11.9184
12.4697
12.988
13.463
13.8013
13.892
13.5939
12.7884
11.7675
11.5548
12.3635
13.8532
15.3089
16.6893
18.0931
19.5862
21.198
22.9381
24.7988
26.7493
28.7621
30.8084
32.7936
34.5667
35.9273
36.618
2.53878
8.86075
10.0908
10.708
11.2153
11.5228
11.9854
12.6312
13.3526
14.0618
14.4781
14.5297
14.1854
13.4475
12.4218
11.7446
12.4851
14.0161
15.6217
17.2058
18.8279
20.5366
22.3597
24.3084
26.3776
28.544
30.7752
33.0285
35.2121
37.164
38.6591
39.4198
2.67125
9.11264
10.3307
10.9694
11.4132
11.6291
12.2762
13.103
13.9243
14.5576
14.9309
15.0306
14.7651
14.0376
12.9753
12.2507
12.783
14.3388
16.1096
17.9055
19.7567
21.6971
23.7472
25.914
28.1946
30.5722
33.0144
35.4696
37.8457
39.9725
41.6014
42.434
2.73477
9.2125
10.4099
11.121
11.4994
11.9744
12.7353
13.5602
14.341
15.001
15.4812
15.6634
15.434
14.7383
13.6755
12.832
13.2537
14.8459
16.7799
18.7934
20.8791
23.0516
25.3245
27.7042
30.1896
32.7683
35.4097
38.0564
40.6143
42.9069
44.6654
45.5698
3.19062
3.2567
3.30679
3.36546
3.4128
3.46614
3.51383
3.55874
3.60156
3.64656
3.67811
3.71806
3.75016
3.79886
3.84479
3.89847
3.9434
3.98102
3.98675
3.98217
3.93886
3.87929
3.81717
3.75573
3.70033
3.65424
3.61833
3.57998
3.54552
3.50029
3.45606
3.4083
3.3525
3.28937
3.22619
3.1375
3.03536
2.91319
2.84978
2.77486
10.7226
10.7865
10.85
10.96
11.0265
11.0834
11.0879
11.0386
10.961
10.852
10.721
10.5918
10.4409
10.3134
10.1851
10.0783
9.97598
9.90172
9.86133
9.85609
9.88143
9.93797
10.0203
10.1114
10.2304
10.3667
10.5095
10.6342
10.7519
10.8167
10.8552
10.8431
10.7731
10.6435
10.4884
10.2561
9.99514
9.71375
9.60346
9.43544
11.4121
11.5387
11.4391
11.4853
11.4893
11.5223
11.6028
11.4958
11.5715
11.5121
11.5505
11.5917
11.6213
11.6623
11.6952
11.7279
11.7461
11.7533
11.7536
11.7389
11.7123
11.6739
11.6241
11.5542
11.5364
11.5625
11.5141
11.4897
11.4767
11.472
11.4636
11.4997
11.5265
11.5054
11.5017
11.3943
11.234
11.0248
10.9436
10.7563
11.6591
11.7425
11.8017
11.9139
11.9961
12.1281
12.2439
12.3723
12.5068
12.6452
12.795
12.9572
13.1172
13.2818
13.4352
13.5756
13.6917
13.7679
13.7976
13.7744
13.6979
13.5751
13.4159
13.2336
13.0461
12.8571
12.6669
12.4759
12.2962
12.1104
11.9393
11.7786
11.6096
11.6034
11.5999
11.5069
11.5164
11.5335
11.5344
11.4653
12.5369
12.5652
12.6869
12.8295
12.9769
13.1666
13.3439
13.5531
13.7597
13.9858
14.2167
14.4599
14.7063
14.9528
15.1833
15.3891
15.5538
15.6626
15.7051
15.6748
15.5715
15.4033
15.1835
14.9269
14.6474
14.355
14.0594
13.7618
13.4668
13.1706
12.8808
12.598
12.3269
12.0847
11.8967
11.7355
11.6403
11.5529
11.5877
11.6121
13.6695
13.6394
13.8111
13.9552
14.1426
14.3581
14.5768
14.826
15.0799
15.3572
15.6405
15.9349
16.2307
16.5214
16.7936
17.0343
17.2258
17.352
17.4006
17.3648
17.2445
17.0484
16.7918
16.491
16.161
15.8133
15.4563
15.0945
14.7316
14.3679
14.0089
13.6533
13.3143
12.9844
12.6997
12.4371
12.2645
12.1124
12.1051
12.1102
14.8621
14.7898
14.9886
15.1248
15.3358
15.5612
15.8063
16.0758
16.3571
16.6587
16.9699
17.2915
17.6145
17.9311
18.2277
18.4888
18.6962
18.8325
18.8843
18.8444
18.7128
18.4983
18.217
17.8866
17.5231
17.1393
16.7445
16.344
15.9419
15.5395
15.1415
14.7471
14.37
14.0011
13.6733
13.3611
13.1342
12.9462
12.8807
12.8939
15.9924
15.9183
16.1206
16.2517
16.472
16.6945
16.9481
17.2226
17.516
17.8292
18.1558
18.4932
18.8329
19.1655
19.4769
19.7505
19.9672
20.1092
20.1623
20.1195
19.9804
19.7535
19.4552
19.1037
18.7158
18.3055
17.8828
17.4544
17.0251
16.5974
16.1761
15.7619
15.3668
14.9853
14.644
14.3224
14.0707
13.869
13.7577
13.767
17.0053
16.9573
17.1447
17.2679
17.48
17.6931
17.9455
18.2187
18.5169
18.8359
19.1713
19.5181
19.8678
20.2097
20.5292
20.809
21.0299
21.174
21.2271
21.1823
21.0389
20.8045
20.4956
20.13
19.725
19.2949
18.851
18.4009
17.9502
17.5029
17.0644
16.6374
16.2328
15.8498
15.5076
15.1973
14.9419
14.7527
14.6064
14.6289
17.8569
17.8384
17.9972
18.1142
18.3106
18.5147
18.762
19.0326
19.3323
19.6541
19.9942
20.3457
20.6999
21.0451
21.3665
21.6468
21.8672
22.0102
22.0621
22.0164
21.8718
21.6351
21.3219
20.9494
20.5345
20.0917
19.6326
19.1658
18.6978
18.2339
17.7802
17.3419
16.9289
16.5459
16.2047
15.91
15.6585
15.4928
15.3235
15.3652
18.5005
18.4919
18.6307
18.743
18.926
19.125
19.3681
19.6379
19.9386
20.2622
20.6042
20.9568
21.3107
21.6539
21.9717
22.2474
22.4632
22.6024
22.6523
22.6069
22.4643
22.2304
21.9193
21.547
21.1294
20.6806
20.2123
19.7334
19.2513
18.7723
18.3033
17.8517
17.4272
17.0393
16.6945
16.4083
16.1596
16.0095
15.8326
15.8689
18.8724
18.8606
18.9976
19.1087
19.2884
19.489
19.7338
20.0073
20.3115
20.638
20.9813
21.333
21.6835
22.021
22.3312
22.5986
22.8067
22.9404
22.988
22.9441
22.8065
22.5798
22.2765
21.9106
21.4966
21.0476
20.5749
20.0875
19.5929
19.0984
18.6115
18.1416
17.6987
17.2954
16.9366
16.6442
16.3894
16.2374
16.055
16.0679
18.8918
18.8826
19.038
19.1579
19.3504
19.5636
19.821
20.1064
20.4203
20.7539
21.1011
21.4527
21.7995
22.1299
22.431
22.6885
22.8877
23.0153
23.0612
23.0202
22.89
22.6739
22.3823
22.0274
21.6215
21.1764
20.7022
20.2075
19.6996
19.1859
18.6738
18.1739
17.6978
17.2621
16.8714
16.5505
16.2698
16.0936
15.89
15.8714
18.4442
18.463
18.6583
18.8095
19.0377
19.2834
19.5719
19.8842
20.2201
20.5708
20.9292
21.286
21.6328
21.959
22.2528
22.5018
22.6935
22.8165
22.862
22.8257
22.7048
22.5017
22.2245
21.8832
21.4877
21.0479
20.5723
20.0678
19.5405
18.9972
18.4483
17.9073
17.3861
16.9025
16.4614
16.0895
15.7579
15.5332
15.2816
15.2204
17.4204
17.4938
17.7509
17.9603
18.2491
18.552
18.8959
19.2597
19.6424
20.0322
20.4205
20.7969
21.1553
21.4863
21.7798
22.0263
22.2156
22.3383
22.3872
22.3586
22.2496
22.0616
21.8008
21.4746
21.0901
20.6545
20.1733
19.6514
19.0977
18.5222
17.9357
17.3509
16.7797
16.2402
15.7379
15.3018
14.9035
14.6182
14.3016
14.2064
15.8564
15.98
16.3253
16.6139
16.9892
17.3741
17.797
18.2328
18.6803
19.1268
19.5648
19.9847
20.3777
20.734
21.044
21.3019
21.5008
21.6334
21.6944
21.681
21.5906
21.4239
21.1849
20.8788
20.5091
20.081
19.6024
19.0813
18.5256
17.9438
17.3451
16.7413
16.1435
15.5691
15.0256
14.5435
14.0997
13.779
13.4305
13.3625
14.3763
14.5239
14.9398
15.309
15.7728
16.2485
16.7572
17.2721
17.789
18.295
18.7827
19.2435
19.6705
20.0567
20.3951
20.6789
20.9027
21.0609
21.1499
21.1683
21.1145
20.9886
20.7939
20.5352
20.2175
19.8467
19.4287
18.9694
18.4747
17.9513
17.4065
16.8496
16.2902
15.7433
15.2193
14.7468
14.3163
14.0099
13.6988
13.705
14.4534
14.5929
15.0189
15.4375
15.9471
16.479
17.0353
17.5927
18.1423
18.6728
19.1768
19.6479
20.081
20.4714
20.8146
21.1065
21.3438
21.5232
21.6424
21.7003
21.6961
21.6305
21.5062
21.3264
21.0943
20.8139
20.4889
20.1228
19.7192
19.2822
18.8165
18.3286
17.8265
17.3224
16.8279
16.3677
15.9437
15.625
15.3171
15.313
16.1695
16.3521
16.8042
17.2697
17.8108
18.3727
18.9473
19.5152
20.0657
20.5897
21.0812
21.5356
21.9495
22.3199
22.6443
22.9208
23.1475
23.3228
23.4467
23.5197
23.5413
23.5113
23.431
23.3007
23.1217
22.8969
22.6278
22.3155
21.9618
21.569
21.1401
20.6797
20.1939
19.6927
19.1868
18.6976
18.2308
17.8468
17.4702
17.3728
18.3564
18.6422
19.1744
19.713
20.3074
20.9093
21.5091
22.0897
22.6422
23.1592
23.636
24.0695
24.4577
24.7991
25.0917
25.3375
25.5386
25.6951
25.8076
25.8769
25.902
25.8825
25.8198
25.7143
25.5663
25.3755
25.1395
24.8571
24.5302
24.1596
23.7473
23.2961
22.8107
22.2986
21.7684
21.2384
20.7137
20.2498
19.7767
19.5587
20.6963
21.099
21.7254
22.3363
22.9818
23.6164
24.2331
24.8173
25.3619
25.8613
26.312
26.7118
27.0608
27.364
27.6245
27.8449
28.0258
28.1673
28.2693
28.3326
28.3561
28.339
28.2827
28.1881
28.0559
27.8862
27.6778
27.4289
27.1358
26.7938
26.404
25.9684
25.4896
24.9734
24.4256
23.8618
23.2838
22.7444
22.1713
21.8313
23.1574
23.6672
24.3806
25.0493
25.7312
26.3823
26.9993
27.57
28.0896
28.5538
28.9625
29.3227
29.6404
29.9191
30.1602
30.3647
30.5327
30.6641
30.7589
30.8178
30.8399
30.824
30.7715
30.6832
30.5596
30.401
30.2072
29.9773
29.71
29.4011
29.0451
28.6364
28.1757
27.6665
27.1121
26.5258
25.905
25.302
24.6371
24.187
25.7232
26.3211
27.107
27.8163
28.5195
29.1715
29.7741
30.3169
30.7987
31.2249
31.6041
31.942
32.2414
32.5046
32.7326
32.9261
33.0851
33.2095
33.2991
33.355
33.3763
33.3615
33.3118
33.2281
33.1106
32.9596
32.775
32.5562
32.3017
32.0096
31.6765
31.2969
30.8621
30.3695
29.8186
29.2213
28.5698
27.9175
27.1741
26.6315
28.3846
29.0499
29.8926
30.6271
31.339
31.9811
32.5606
33.0718
33.5264
33.9327
34.2961
34.6205
34.9083
35.1614
35.3808
35.5668
35.7198
35.8394
35.9256
35.9796
36.0006
35.9869
35.9396
35.8593
35.746
35.6
35.421
35.2083
34.9609
34.6769
34.3535
33.987
33.571
33.0978
32.5572
31.9572
31.2852
30.5967
29.7879
29.1702
31.1344
31.8491
32.7359
33.4844
34.1978
34.8251
35.3832
35.8777
36.321
36.7179
37.0735
37.3909
37.6725
37.92
38.1344
38.3162
38.4656
38.5824
38.6665
38.7194
38.7403
38.7278
38.6821
38.6039
38.493
38.3495
38.1731
37.9629
37.7179
37.4363
37.1156
36.7522
36.3411
35.8768
35.3459
34.7477
34.0617
33.3463
32.4827
31.8041
33.9562
34.7085
35.6319
36.3886
37.1007
37.7162
38.2677
38.7588
39.1995
39.5946
39.9485
40.2644
40.5445
40.7905
41.0034
41.184
41.3321
41.448
41.5314
41.5839
41.6051
41.5933
41.5484
41.4708
41.3604
41.217
41.0402
40.8292
40.5827
40.2989
39.9754
39.609
39.1947
38.7281
38.1972
37.5999
36.9028
36.1665
35.2544
34.525
36.8137
37.5993
38.5576
39.322
40.037
40.6534
41.2093
41.7045
42.1497
42.5488
42.9063
43.2253
43.508
43.7561
43.9704
44.1516
44.2999
44.4154
44.4981
44.5499
44.5713
44.5603
44.5163
44.4391
44.3284
44.1837
44.0045
43.7898
43.5387
43.249
42.9185
42.5441
42.1209
41.6452
41.1052
40.5019
39.7923
39.0371
38.0794
37.3051
39.6618
40.477
41.4704
42.245
42.97
43.5957
44.1626
44.6678
45.1226
45.5304
45.8959
46.2216
46.5095
46.761
46.9764
47.1558
47.2988
47.4056
47.4784
47.523
47.5432
47.5373
47.502
47.4334
47.3288
47.1867
47.0066
46.7882
46.5306
46.2324
45.8915
45.5051
45.0684
44.5781
44.0219
43.4037
42.678
41.9033
40.9013
40.0859
42.3922
43.2355
44.2641
45.0535
45.7991
46.4421
47.0263
47.5473
48.017
48.4383
48.8158
49.1513
49.4461
49.6993
49.9089
50.0708
50.1801
50.235
50.246
50.2472
50.2609
50.2872
50.3079
50.2926
50.2263
50.1065
49.9362
49.7185
49.4555
49.1477
48.7939
48.3924
47.9385
47.4297
46.8528
46.2141
45.4645
44.6685
43.6237
42.7708
44.8364
45.7106
46.7776
47.5868
48.357
49.0212
49.6266
50.1671
50.6551
51.0931
51.4847
51.8305
52.129
52.376
52.5634
52.6815
52.7236
52.7018
52.66
52.6339
52.643
52.6877
52.7526
52.8078
52.8102
52.7399
52.5977
52.3912
52.1274
51.8109
51.4434
51.0247
50.5508
50.0203
49.4194
48.756
47.9781
47.1579
46.0705
45.1808
46.7101
47.6109
48.7122
49.5441
50.3397
51.0259
51.6529
52.2134
52.7202
53.175
53.5806
53.9358
54.2366
54.4747
54.6378
54.714
54.7033
54.6363
54.5484
54.4777
54.4785
54.5563
54.6704
54.7743
54.8332
54.8082
54.6929
54.497
54.2319
53.9063
53.5245
53.0883
52.5946
52.0428
51.4186
50.7313
49.9264
49.082
47.9562
47.0339
47.6766
48.5956
49.721
50.5706
51.3846
52.087
52.7297
53.3046
53.825
54.2923
54.7085
55.072
55.3769
55.6129
55.7656
55.8212
55.7818
55.6841
55.557
55.471
55.47
55.5579
55.7048
55.8368
55.9235
55.9208
55.8194
55.6291
55.3634
55.0324
54.6422
54.195
53.6887
53.1227
52.4828
51.7788
50.9547
50.0914
48.9389
47.9938
7.46573
19.9144
34.3914
38.3858
41.7039
43.184
44.1473
44.4186
44.6278
44.7112
44.7662
44.8198
44.7978
44.8987
44.9427
44.888
44.6245
44.1217
43.3408
42.8541
41.4627
41.7384
42.4011
44.1515
42.3905
42.2589
41.1813
40.8686
40.5484
39.8982
39.491
39.1435
0.420247
19.5011
33.9527
38.0615
41.4328
42.9902
43.9834
44.3524
44.5682
44.617
44.8392
44.9381
45.0088
45.0644
45.0847
44.9714
44.7452
44.2286
43.5956
43.1597
41.702
42.1843
42.8338
44.3358
42.7081
42.483
41.586
41.19
40.9244
40.3724
39.9947
39.6864
16.2114
18.8984
33.2174
37.6886
41.1535
42.8554
44.0025
44.3958
44.6557
44.8008
44.8486
44.8906
44.8793
44.9683
45.0332
45.0115
44.7394
44.2481
43.7228
43.2879
41.8909
42.5276
43.2058
44.6127
43.2055
42.9587
42.2096
41.7382
41.5107
41.0055
40.6165
40.3229
14.1928
18.2239
32.6645
37.2782
40.8349
42.6752
43.8367
44.3471
44.6876
44.7485
44.955
45.0684
45.1727
45.2386
45.2842
45.196
44.9632
44.4679
44.0493
43.5679
42.3117
43.0315
43.6463
44.8035
43.62
43.2471
42.6787
42.1437
41.9557
41.5497
41.1861
40.9358
6.63526
17.3015
31.5677
36.7106
40.4424
42.4278
43.8028
44.4024
44.7648
45.0159
45.1136
45.1547
45.1459
45.2164
45.2939
45.3214
45.061
44.5924
44.2262
43.7224
42.6811
43.4241
44.0223
45.0814
44.2007
43.7758
43.3479
42.76
42.589
42.2347
41.858
41.6213
7.57485
16.1921
30.8092
36.0954
39.9576
42.1712
43.5671
44.284
44.8315
44.9852
45.2153
45.3473
45.5006
45.5992
45.6738
45.6103
45.3757
44.9087
44.5849
44.0723
43.2359
43.9531
44.4724
45.2879
44.6739
44.1116
43.8479
43.2259
43.082
42.8168
42.4667
42.2784
9.41661
15.0854
29.2335
35.2219
39.3831
41.7479
43.4151
44.3208
44.8514
45.256
45.4538
45.5377
45.5669
45.6462
45.7313
45.788
45.5412
45.1049
44.7912
44.326
43.7006
44.3666
44.8606
45.5827
45.2889
44.6764
44.5338
43.8887
43.7475
43.5313
43.1708
42.9923
12.0171
13.9009
28.2067
34.2775
38.6239
41.3588
43.0922
44.0798
44.8978
45.2096
45.511
45.697
45.9303
46.0858
46.1992
46.1469
45.9168
45.4891
45.188
44.7927
44.3107
44.9149
45.3369
45.8326
45.7731
45.0438
45.035
44.3877
44.2683
44.1231
43.7947
43.6663
13.0232
12.6308
26.0345
32.9814
37.7931
40.6874
42.7537
44.0628
44.8113
45.4111
45.7556
45.941
46.0414
46.1494
46.244
46.3195
46.1081
45.7258
45.4324
45.1495
44.7961
45.3416
45.7421
46.1692
46.3743
45.6284
45.7101
45.0687
44.9449
44.8379
44.5037
44.3812
14.5701
11.5318
24.6212
31.4794
36.5509
40.0425
42.2735
43.6042
44.7603
45.2885
45.7177
46.0006
46.3352
46.5647
46.7324
46.699
46.5051
46.1443
45.8707
45.7003
45.4044
45.8982
46.2304
46.4654
46.8115
45.9934
46.1676
45.5531
45.452
45.3948
45.1004
45.0257
17.0059
10.2633
21.7714
29.6229
35.2952
38.9215
41.5814
43.4491
44.4797
45.3409
45.8844
46.2247
46.4181
46.5743
46.6915
46.8041
46.669
46.3763
46.1323
46.0877
45.851
46.3015
46.6134
46.8305
47.3474
46.5624
46.7927
46.2089
46.1028
46.0694
45.7734
45.7001
19.6208
9.37903
19.7628
27.1253
33.1363
37.757
40.7579
42.5656
44.2143
45.0477
45.682
46.1027
46.5582
46.8849
47.1376
47.157
47.0456
46.7868
46.5834
46.6419
46.4164
46.8282
47.0679
47.1341
47.6766
46.8681
47.1402
46.607
46.5269
46.5215
46.2753
46.246
21.2889
9.86423
16.4266
24.623
31.1619
35.7072
39.3327
42.1101
43.5559
44.8364
45.6728
46.2342
46.54
46.7656
46.9291
47.1219
47.1103
46.9458
46.7972
46.9506
46.7592
47.1322
47.3534
47.4682
48.086
47.3601
47.6556
47.1717
47.0918
47.0957
46.8492
46.8155
22.3073
11.286
13.6759
20.2479
27.1768
33.5099
37.7558
40.3035
42.8598
44.1816
45.1876
45.8407
46.4691
46.9237
47.2938
47.3943
47.4053
47.2803
47.1894
47.4051
47.2208
47.5556
47.7024
47.6978
48.2472
47.5402
47.8369
47.4185
47.3742
47.3943
47.2131
47.2229
21.6749
12.1468
10.0426
16.9137
24.0584
29.2973
34.619
39.2401
41.3619
43.469
44.8212
45.7739
46.2831
46.6329
46.8698
47.1758
47.3064
47.2836
47.2555
47.5307
47.3948
47.7
47.8491
47.956
48.5099
47.9284
48.2277
47.8705
47.8329
47.847
47.6549
47.6393
19.7173
12.9854
6.44898
11.4629
14.8541
24.8959
31.2604
34.9526
39.7593
41.99
43.765
44.8929
45.8932
46.5863
47.1507
47.3627
47.5045
47.5193
47.5556
47.8482
47.7324
47.9939
48.0714
48.0362
48.4148
47.8853
48.117
47.8427
47.8346
47.8476
47.7516
47.7914
17.2476
12.4278
4.62772
10.8418
8.52871
8.5671
21.907
32.7289
35.8808
40.1904
42.6387
44.3909
45.3104
45.9489
46.3331
46.8285
47.1295
47.2667
47.3649
47.66
47.6015
47.8212
47.9259
48.0713
48.4243
48.0644
48.296
48.0903
48.0957
48.0889
47.9424
47.9047
14.6238
11.0848
10.7031
6.26415
4.90141
5.34673
12.9808
13.6003
32.0871
36.431
40.269
42.4709
44.3077
45.4872
46.4382
46.8188
47.1099
47.273
47.4401
47.7287
47.7087
47.9002
47.9446
47.8076
47.811
47.4859
47.518
47.3686
47.3529
47.2971
47.3014
47.3594
11.7949
11.7135
2.60522
5.01168
8.23568
11.2487
10.9214
4.83715
11.3125
31.7641
37.3006
41.0461
42.7846
44.0233
44.6806
45.5277
46.0635
46.3882
46.5979
46.8242
46.829
46.9317
46.9906
47.1142
47.1459
47.0551
47.1181
47.0534
47.0564
46.9655
46.7931
46.6143
11.5406
8.40818
7.68975
10.6226
10.9326
1.75403
11.5053
5.82787
7.09058
17.4189
31.4757
36.4445
40.3926
42.591
44.3515
44.9585
45.4225
45.7297
46.0232
46.261
46.3324
46.4629
46.4801
45.9002
45.147
44.9144
44.441
44.2259
43.9575
43.602
43.6877
43.817
11.4768
10.7636
9.57629
0.816976
4.6062
8.15472
12.7068
7.92311
4.45501
15.1212
24.8485
33.5161
36.3531
38.7978
39.8489
41.536
42.5234
43.1252
43.3996
43.4083
43.3122
43.082
42.8802
42.8134
42.324
42.5188
42.2067
42.1538
41.9204
41.5181
40.7542
39.5491
5.55191
9.23792
8.63598
11.2214
3.14378
10.2431
8.29524
10.5477
12.9234
12.0922
5.1569
12.8428
28.444
34.0786
38.4966
39.3533
40.0305
40.4414
40.816
40.9478
40.9904
40.9947
40.8706
37.9822
34.5395
32.8847
29.5579
26.116
20.9738
13.2568
10.6759
15.6836
6.73434
9.8614
3.786
8.96697
15.266
18.5738
17.5274
12.9956
7.95931
13.9445
12.6778
6.09838
15.4109
16.8257
12.2035
23.9516
28.1728
30.0273
30.0806
28.1005
25.2779
20.2893
12.9943
15.9794
17.2973
19.3046
19.3063
17.9205
8.19542
9.35274
12.7033
5.15772
6.33437
11.7148
9.18073
11.1526
18.7172
24.119
26.6312
27.3344
25.9225
20.1393
2.45595
14.8578
6.56929
13.8527
14.4705
15.8332
13.1345
10.3016
17.7577
16.9276
16.9509
16.1432
10.441
16.8088
11.8912
3.89518
15.1222
4.34473
16.5954
17.2123
11.9244
14.6277
7.45071
12.0736
11.5694
11.6652
17.6023
23.9105
27.7168
29.2819
29.0684
27.9362
26.3443
20.7503
13.1947
11.4482
14.1796
16.2522
15.6624
15.6847
11.2295
15.5337
11.0223
16.7405
17.7406
5.32953
5.87284
12.33
18.3829
22.6226
25.1195
27.1998
28.7291
28.811
6.97406
14.3544
15.3783
15.1716
18.1213
22.9078
26.8779
29.2508
30.1024
29.6137
27.8099
25.6503
24.2695
24.9429
23.7642
19.7482
12.6653
11.0489
6.83003
7.98052
13.5557
17.4139
20.4096
22.819
25.7281
27.6684
28.1942
28.6542
29.2709
29.7039
30.2724
30.6155
6.11052
15.4734
18.3737
19.528
21.1654
23.9214
26.8033
28.9974
30.1931
30.2933
29.1078
25.5523
22.0783
23.8699
25.2574
25.3643
25.1901
23.4406
23.1826
24.2153
24.7711
25.4662
26.3702
27.2665
27.729
28.3292
29.6617
30.4598
31.1339
31.7851
32.0155
32.0615
5.39836
15.5113
19.4757
21.8301
23.5422
25.2711
26.9782
28.3293
28.7808
27.5591
23.7253
16.2674
13.4199
19.7176
22.7475
23.8311
23.8378
24.0618
23.8835
23.6546
24.1625
25.445
26.6857
27.6806
28.2027
28.8428
29.2055
29.3404
29.4518
29.5052
29.6503
29.7857
4.44894
14.0178
18.4464
21.5328
23.666
25.2004
26.2842
26.7912
26.2458
23.9639
19.1686
12.4385
4.28704
8.56968
4.11003
13.0706
18.3809
21.1987
21.7491
21.7506
22.0413
22.9699
24.2127
24.9751
25.2282
25.8309
26.4617
27.1075
27.6709
28.2277
28.7557
29.0577
3.53723
11.7488
15.5053
19.0031
21.6139
23.3449
24.2688
24.3007
23.0203
20.06
13.1268
8.6428
11.5197
14.1067
15.0639
12.0968
5.9141
11.5648
14.5777
15.6704
17.0244
19.1675
21.2529
22.7817
23.787
24.7368
25.534
26.3331
26.9238
27.3589
27.8305
28.1319
3.13329
9.79015
11.8442
14.9673
17.7667
19.602
20.2925
19.6126
17.3283
11.809
3.3216
7.10731
11.3835
11.452
10.2835
12.3434
16.0459
15.2665
15.6641
16.3857
17.4012
18.6801
20.2294
21.4219
22.1834
22.9379
23.741
24.5782
25.5293
26.3961
27.1732
27.6228
2.14581
6.84661
8.79762
10.6625
11.4839
11.8088
11.4302
8.90103
9.46288
8.1572
8.84172
11.7367
12.6581
13.1377
13.03
11.578
9.80335
12.5562
14.6188
15.4922
16.355
17.5022
18.7454
19.7832
20.802
22.0017
23.2458
24.5076
25.7008
26.7451
27.6114
28.0979
1.73321
5.59625
5.97966
6.26522
6.61289
6.16753
6.84118
6.56279
7.28582
8.05435
12.2197
13.143
13.4731
12.9122
11.8857
11.6153
13.0875
13.0001
14.0905
15.026
15.9493
16.9537
18.1146
19.3766
20.6836
22.0422
23.4518
24.8558
26.2065
27.3974
28.3585
28.8862
2.88208
8.74332
10.4461
11.3611
11.5269
11.5591
11.5814
11.6085
11.8084
13.6471
13.8244
14.2678
14.3809
14.1208
13.2108
11.6009
11.5314
12.2171
13.8286
14.8581
15.8496
17.0143
18.2697
19.6106
21.0524
22.5745
24.1431
25.7177
27.2076
28.5208
29.5671
30.135
2.94155
9.33042
10.9142
11.4762
11.5273
11.4778
11.5726
11.9575
13.0146
13.4126
14.3297
14.9103
14.9678
14.368
13.2975
12.1811
11.5416
12.4785
13.8442
15.0567
16.1887
17.385
18.7126
20.1846
21.776
23.4413
25.1594
26.906
28.5837
30.0627
31.2197