/*--------------------------------*- C++ -*----------------------------------*\
  =========                 |
  \\      /  F ield         | OpenFOAM: The Open Source CFD Toolbox
   \\    /   O peration     | Website:  https://openfoam.org
    \\  /    A nd           | Version:  6
     \\/     M anipulation  |
\*---------------------------------------------------------------------------*/
FoamFile
{
    version     2.0;
    format      ascii;
    class       volScalarField;
    location    "0";
    object      epsilon;
}
// * * * * * * * * * * * * * * * * * * * * * * * * * * * * * * * * * * * * * //

dimensions      [0 2 -3 0 0 0 0];

internalField   nonuniform List<scalar> 
3240
(
0.00230451
0.00230446
0.00230448
0.0116847
0.0116841
0.0116839
0.0143296
0.0143291
0.0143289
0.0162805
0.01628
0.0162798
0.017862
0.0178616
0.0178613
0.0191919
0.0191916
0.0191914
0.0203507
0.0203504
0.0203501
0.0213966
0.0213963
0.021396
0.0223667
0.0223666
0.0223663
0.0232763
0.0232764
0.0232761
0.0241171
0.0241174
0.0241171
0.0248598
0.0248601
0.0248598
0.0254659
0.0254662
0.0254658
0.0259007
0.0259011
0.0259008
0.0261391
0.0261395
0.0261392
0.0261391
0.0261395
0.0261392
0.025901
0.0259014
0.025901
0.0254664
0.0254668
0.0254664
0.0248606
0.024861
0.0248606
0.0241181
0.0241184
0.024118
0.0232775
0.0232776
0.0232773
0.0223683
0.0223682
0.0223678
0.0213983
0.0213981
0.0213978
0.0203524
0.020352
0.0203518
0.0191936
0.0191932
0.019193
0.0178636
0.0178632
0.0178629
0.0162822
0.0162818
0.0162815
0.0143314
0.0143308
0.0143306
0.0116862
0.0116856
0.0116854
0.00230473
0.00230468
0.00230469
0.000772406
0.000772326
0.000772395
0.0102829
0.0102826
0.0102825
0.012953
0.0129527
0.0129527
0.0148239
0.0148236
0.0148235
0.0162998
0.0162996
0.0162995
0.0175207
0.0175206
0.0175205
0.0185717
0.0185716
0.0185714
0.0195116
0.0195115
0.0195113
0.0203784
0.0203784
0.0203782
0.0211891
0.0211892
0.021189
0.0219376
0.0219378
0.0219375
0.0225985
0.0225986
0.0225984
0.0231373
0.0231375
0.0231373
0.0235238
0.023524
0.0235238
0.0237357
0.0237359
0.0237357
0.0237357
0.0237359
0.0237357
0.023524
0.0235242
0.023524
0.0231376
0.0231378
0.0231376
0.022599
0.0225992
0.022599
0.0219383
0.0219384
0.0219382
0.0211899
0.02119
0.0211898
0.0203795
0.0203795
0.0203792
0.0195128
0.0195127
0.0195124
0.0185729
0.0185727
0.0185725
0.0175219
0.0175217
0.0175216
0.0163009
0.0163007
0.0163006
0.0148249
0.0148247
0.0148246
0.012954
0.0129537
0.0129537
0.0102837
0.0102835
0.0102834
0.000772481
0.000772401
0.000772468
0.000278961
0.000278944
0.000278956
0.00813348
0.0081332
0.00813333
0.0103479
0.0103475
0.0103477
0.0119022
0.0119019
0.0119021
0.0131217
0.0131214
0.0131216
0.0141256
0.0141253
0.0141255
0.0149863
0.014986
0.0149861
0.0157535
0.0157532
0.0157533
0.0164597
0.0164595
0.0164596
0.0171199
0.0171196
0.0171198
0.0177295
0.0177293
0.0177295
0.0182681
0.0182679
0.0182681
0.0187075
0.0187073
0.0187075
0.019023
0.0190228
0.019023
0.0191961
0.019196
0.0191961
0.0191961
0.019196
0.0191961
0.0190231
0.0190229
0.0190231
0.0187077
0.0187075
0.0187077
0.0182685
0.0182683
0.0182685
0.01773
0.0177297
0.0177299
0.0171204
0.0171202
0.0171203
0.0164604
0.0164602
0.0164603
0.0157543
0.015754
0.0157541
0.0149871
0.0149868
0.0149869
0.0141264
0.0141261
0.0141262
0.0131224
0.0131221
0.0131223
0.0119029
0.0119026
0.0119027
0.0103485
0.0103482
0.0103483
0.008134
0.00813373
0.00813385
0.00027899
0.000278974
0.000278984
0.000306197
0.000306176
0.000306192
0.00710193
0.00710182
0.00710181
0.00903334
0.00903322
0.00903322
0.0104037
0.0104036
0.0104036
0.0114813
0.0114812
0.0114811
0.0123684
0.0123683
0.0123683
0.0131286
0.0131285
0.0131284
0.013806
0.013806
0.0138058
0.0144296
0.0144297
0.0144295
0.0150127
0.0150128
0.0150126
0.0155514
0.0155515
0.0155514
0.0160276
0.0160277
0.0160275
0.0164161
0.0164162
0.0164161
0.0166949
0.016695
0.0166949
0.0168478
0.016848
0.0168478
0.0168478
0.016848
0.0168478
0.016695
0.0166951
0.016695
0.0164162
0.0164164
0.0164162
0.0160279
0.016028
0.0160279
0.0155518
0.0155519
0.0155518
0.0150132
0.0150133
0.0150131
0.0144302
0.0144302
0.0144301
0.0138067
0.0138067
0.0138065
0.0131293
0.0131293
0.0131291
0.012369
0.012369
0.0123689
0.0114819
0.0114818
0.0114817
0.0104043
0.0104042
0.0104042
0.00903386
0.00903376
0.00903373
0.00710237
0.00710227
0.00710224
0.000306229
0.000306208
0.000306223
0.000331052
0.000331034
0.000331046
0.00545586
0.00545576
0.00545577
0.00688623
0.00688613
0.00688614
0.00794968
0.00794959
0.00794959
0.00879422
0.00879415
0.00879412
0.00949098
0.00949092
0.00949087
0.010088
0.0100879
0.0100879
0.0106197
0.0106197
0.0106196
0.0111091
0.0111091
0.011109
0.0115668
0.0115668
0.0115668
0.01199
0.01199
0.01199
0.0123643
0.0123644
0.0123643
0.0126699
0.01267
0.0126699
0.0128895
0.0128895
0.0128895
0.0130099
0.01301
0.0130099
0.0130099
0.01301
0.0130099
0.0128896
0.0128896
0.0128896
0.0126701
0.0126701
0.0126701
0.0123646
0.0123646
0.0123646
0.0119903
0.0119903
0.0119903
0.0115672
0.0115672
0.0115671
0.0111096
0.0111095
0.0111095
0.0106202
0.0106202
0.0106201
0.0100885
0.0100885
0.0100884
0.00949147
0.00949139
0.00949134
0.00879467
0.0087946
0.00879457
0.0079501
0.00795002
0.00795001
0.00688661
0.00688651
0.00688652
0.00545618
0.00545609
0.00545609
0.000331088
0.00033107
0.000331081
0.000362653
0.000362639
0.000362645
0.0043396
0.00433952
0.00433954
0.00538842
0.00538835
0.00538836
0.00622404
0.00622397
0.00622397
0.00689807
0.00689802
0.00689799
0.00745617
0.00745612
0.00745608
0.00793433
0.00793427
0.00793424
0.00835972
0.00835968
0.00835963
0.00875088
0.00875085
0.0087508
0.00911652
0.00911652
0.00911649
0.00945462
0.00945463
0.00945461
0.00975377
0.00975378
0.00975374
0.00999812
0.00999813
0.00999811
0.0101738
0.0101738
0.0101738
0.0102701
0.0102701
0.0102701
0.0102701
0.0102701
0.0102701
0.0101738
0.0101738
0.0101738
0.00999822
0.00999824
0.00999821
0.00975393
0.00975393
0.00975391
0.00945484
0.00945485
0.00945481
0.0091168
0.0091168
0.00911675
0.00875122
0.00875118
0.00875114
0.00836011
0.00836007
0.00836002
0.00793472
0.00793467
0.00793463
0.00745654
0.00745648
0.00745645
0.00689841
0.00689836
0.00689833
0.00622435
0.00622429
0.00622428
0.00538871
0.00538864
0.00538865
0.00433985
0.00433978
0.00433979
0.000362694
0.00036268
0.000362686
0.000400322
0.000400307
0.000400312
0.00354612
0.00354606
0.00354608
0.00429162
0.00429157
0.00429157
0.00494963
0.00494958
0.00494957
0.00549296
0.00549292
0.0054929
0.00594578
0.00594573
0.00594571
0.00633397
0.00633393
0.00633389
0.00667886
0.00667882
0.00667879
0.0069955
0.00699548
0.00699544
0.00729121
0.00729121
0.00729117
0.00756452
0.00756453
0.0075645
0.00780635
0.00780637
0.00780634
0.00800394
0.00800395
0.00800393
0.00814597
0.00814598
0.00814596
0.00822393
0.00822395
0.00822393
0.00822394
0.00822395
0.00822394
0.00814599
0.00814601
0.00814599
0.00800402
0.00800403
0.00800401
0.00780648
0.00780649
0.00780647
0.00756469
0.0075647
0.00756467
0.00729142
0.00729142
0.00729138
0.00699577
0.00699574
0.00699571
0.00667916
0.00667913
0.00667909
0.00633428
0.00633423
0.0063342
0.00594607
0.00594602
0.00594599
0.00549323
0.00549318
0.00549317
0.00494987
0.00494982
0.00494982
0.00429184
0.00429179
0.0042918
0.00354633
0.00354627
0.00354628
0.00040037
0.000400357
0.00040036
0.000482835
0.000482817
0.000482823
0.00299141
0.00299137
0.00299138
0.0035427
0.00354266
0.00354267
0.00406938
0.00406934
0.00406933
0.00451851
0.00451846
0.00451845
0.00489678
0.00489674
0.00489673
0.0052218
0.00522176
0.00522174
0.00551024
0.0055102
0.00551018
0.00577455
0.00577453
0.0057745
0.00602101
0.00602101
0.00602098
0.00624863
0.00624863
0.00624861
0.00644996
0.00644996
0.00644995
0.00661447
0.00661447
0.00661446
0.00673275
0.00673275
0.00673275
0.0067977
0.0067977
0.0067977
0.0067977
0.0067977
0.0067977
0.00673278
0.00673278
0.00673277
0.00661454
0.00661454
0.00661453
0.00645007
0.00645007
0.00645006
0.00624877
0.00624877
0.00624875
0.0060212
0.00602119
0.00602116
0.00577477
0.00577475
0.00577472
0.00551049
0.00551045
0.00551043
0.00522205
0.00522202
0.00522199
0.00489702
0.00489698
0.00489696
0.00451872
0.00451868
0.00451867
0.00406958
0.00406953
0.00406954
0.00354289
0.00354285
0.00354286
0.00299159
0.00299154
0.00299155
0.000482893
0.000482876
0.00048288
0.000563135
0.000563111
0.000563119
0.00258499
0.00258494
0.00258496
0.00298933
0.00298929
0.00298931
0.00341169
0.00341165
0.00341166
0.00378694
0.00378689
0.0037869
0.00410783
0.00410778
0.00410778
0.00438478
0.00438472
0.00438472
0.00463048
0.00463043
0.00463043
0.00485522
0.00485518
0.00485518
0.00506442
0.00506439
0.0050644
0.00525741
0.0052574
0.0052574
0.00542805
0.00542804
0.00542804
0.00556749
0.00556746
0.00556748
0.00566776
0.00566773
0.00566775
0.00572284
0.00572282
0.00572284
0.00572284
0.00572282
0.00572284
0.00566778
0.00566776
0.00566777
0.00556754
0.00556752
0.00556753
0.00542815
0.00542813
0.00542814
0.00525754
0.00525752
0.00525752
0.00506457
0.00506455
0.00506455
0.00485541
0.00485537
0.00485537
0.0046307
0.00463064
0.00463064
0.00438499
0.00438494
0.00438494
0.00410803
0.00410798
0.00410799
0.00378712
0.00378708
0.00378708
0.00341187
0.00341182
0.00341184
0.00298949
0.00298944
0.00298947
0.00258514
0.0025851
0.00258512
0.000563204
0.000563181
0.000563187
0.000640498
0.000640472
0.000640479
0.00227433
0.00227429
0.00227431
0.00256161
0.00256155
0.00256159
0.00289775
0.00289769
0.00289772
0.00321199
0.00321192
0.00321195
0.00348629
0.00348623
0.00348625
0.00372476
0.00372469
0.00372472
0.00393652
0.00393645
0.00393648
0.00412992
0.00412986
0.00412988
0.00430961
0.00430956
0.0043096
0.00447518
0.00447514
0.00447517
0.00462148
0.00462144
0.00462147
0.00474101
0.00474097
0.004741
0.004827
0.00482695
0.004827
0.00487425
0.0048742
0.00487425
0.00487425
0.00487421
0.00487425
0.00482702
0.00482697
0.00482702
0.00474106
0.00474102
0.00474105
0.00462156
0.00462152
0.00462155
0.00447529
0.00447525
0.00447528
0.00430975
0.0043097
0.00430973
0.00413009
0.00413003
0.00413005
0.00393671
0.00393665
0.00393667
0.00372495
0.00372488
0.00372491
0.00348646
0.0034864
0.00348643
0.00321214
0.00321209
0.00321211
0.00289789
0.00289784
0.00289787
0.00256174
0.00256169
0.00256173
0.00227447
0.00227443
0.00227445
0.000640579
0.000640553
0.000640559
0.000716957
0.000716932
0.000716935
0.00203098
0.00203094
0.00203097
0.0022242
0.00222414
0.00222419
0.00248803
0.00248797
0.00248801
0.00275058
0.00275051
0.00275056
0.00298597
0.00298589
0.00298593
0.00319281
0.00319273
0.00319277
0.00337695
0.00337687
0.00337691
0.00354495
0.00354487
0.00354492
0.00370077
0.0037007
0.00370075
0.00384413
0.00384407
0.00384412
0.00397072
0.00397065
0.00397071
0.00407412
0.00407406
0.00407411
0.00414853
0.00414846
0.00414853
0.00418944
0.00418936
0.00418944
0.00418944
0.00418937
0.00418944
0.00414855
0.00414848
0.00414855
0.00407417
0.0040741
0.00407416
0.0039708
0.00397073
0.00397079
0.00384423
0.00384417
0.00384422
0.0037009
0.00370082
0.00370088
0.00354511
0.00354503
0.00354508
0.00337712
0.00337704
0.00337709
0.00319298
0.0031929
0.00319294
0.00298613
0.00298605
0.00298609
0.00275072
0.00275066
0.0027507
0.00248816
0.0024881
0.00248814
0.00222432
0.00222427
0.00222431
0.00203112
0.00203107
0.0020311
0.00071705
0.000717024
0.000717026
0.000759369
0.000759328
0.000759345
0.00192504
0.00192503
0.00192502
0.0020788
0.00207879
0.00207879
0.0023093
0.0023093
0.00230929
0.00254742
0.00254741
0.00254739
0.00276428
0.00276428
0.00276425
0.00295608
0.00295607
0.00295604
0.00312712
0.00312712
0.00312709
0.0032831
0.00328311
0.00328307
0.00342761
0.00342763
0.0034276
0.00356047
0.0035605
0.00356046
0.00367771
0.00367773
0.0036777
0.00377341
0.00377344
0.0037734
0.00384222
0.00384225
0.00384222
0.00388001
0.00388003
0.00388
0.00388001
0.00388004
0.00388001
0.00384224
0.00384226
0.00384224
0.00377346
0.00377349
0.00377345
0.00367778
0.00367781
0.00367778
0.00356057
0.0035606
0.00356056
0.00342774
0.00342775
0.00342772
0.00328325
0.00328325
0.00328322
0.00312729
0.00312729
0.00312726
0.00295625
0.00295624
0.00295621
0.00276443
0.00276443
0.0027644
0.00254755
0.00254755
0.00254752
0.00230942
0.00230943
0.00230941
0.00207892
0.00207891
0.00207891
0.00192516
0.00192516
0.00192515
0.000759469
0.000759428
0.000759443
0.000838466
0.000838427
0.000838437
0.00174231
0.0017423
0.0017423
0.00182275
0.00182274
0.00182275
0.00199426
0.00199425
0.00199425
0.00218862
0.00218861
0.0021886
0.0023729
0.00237289
0.00237287
0.00253886
0.00253885
0.00253883
0.00268778
0.00268777
0.00268776
0.00282365
0.00282364
0.00282362
0.00294931
0.00294932
0.0029493
0.00306465
0.00306467
0.00306465
0.00316633
0.00316634
0.00316633
0.0032493
0.00324931
0.00324929
0.00330894
0.00330895
0.00330894
0.00334171
0.00334172
0.00334171
0.00334171
0.00334172
0.00334171
0.00330896
0.00330897
0.00330896
0.00324934
0.00324935
0.00324934
0.0031664
0.00316642
0.0031664
0.00306475
0.00306476
0.00306474
0.00294943
0.00294943
0.00294941
0.00282379
0.00282377
0.00282376
0.00268794
0.00268793
0.00268791
0.00253902
0.002539
0.00253898
0.00237304
0.00237303
0.00237301
0.00218874
0.00218874
0.00218873
0.00199437
0.00199436
0.00199436
0.00182286
0.00182285
0.00182286
0.00174243
0.00174242
0.00174242
0.000838578
0.000838539
0.000838548
0.000922261
0.000922224
0.000922228
0.00158853
0.00158852
0.00158852
0.00160868
0.00160867
0.00160867
0.00172901
0.001729
0.001729
0.00188388
0.00188387
0.00188386
0.00203867
0.00203866
0.00203865
0.00218161
0.0021816
0.00218159
0.00231118
0.00231117
0.00231116
0.00242961
0.0024296
0.00242959
0.00253903
0.00253904
0.00253902
0.0026393
0.0026393
0.00263929
0.00272757
0.00272757
0.00272757
0.00279955
0.00279955
0.00279955
0.00285128
0.00285128
0.00285128
0.00287971
0.00287971
0.00287971
0.00287971
0.00287971
0.00287971
0.0028513
0.0028513
0.0028513
0.00279959
0.00279959
0.00279959
0.00272764
0.00272764
0.00272763
0.00263939
0.00263939
0.00263938
0.00253914
0.00253914
0.00253913
0.00242974
0.00242973
0.00242971
0.00231133
0.00231131
0.0023113
0.00218176
0.00218174
0.00218173
0.0020388
0.00203879
0.00203878
0.00188399
0.00188398
0.00188398
0.00172911
0.0017291
0.0017291
0.00160878
0.00160877
0.00160877
0.00158864
0.00158863
0.00158863
0.000922387
0.00092235
0.000922353
0.00101128
0.00101124
0.00101124
0.00145656
0.00145655
0.00145655
0.00142783
0.00142782
0.00142782
0.00150418
0.00150417
0.00150417
0.00162326
0.00162325
0.00162324
0.00175101
0.00175099
0.00175099
0.0018731
0.00187308
0.00187308
0.00198545
0.00198544
0.00198543
0.0020886
0.00208859
0.00208858
0.00218389
0.00218389
0.00218388
0.00227106
0.00227107
0.00227106
0.0023477
0.0023477
0.00234769
0.00241012
0.00241012
0.00241011
0.00245498
0.00245497
0.00245497
0.00247961
0.00247961
0.00247961
0.00247962
0.00247962
0.00247962
0.00245499
0.00245499
0.00245499
0.00241016
0.00241016
0.00241015
0.00234776
0.00234776
0.00234776
0.00227115
0.00227115
0.00227114
0.00218399
0.00218399
0.00218398
0.00208872
0.00208871
0.0020887
0.00198558
0.00198557
0.00198556
0.00187323
0.00187322
0.00187321
0.00175113
0.00175111
0.00175111
0.00162336
0.00162335
0.00162335
0.00150427
0.00150426
0.00150427
0.00142792
0.00142791
0.00142791
0.00145667
0.00145665
0.00145666
0.00101142
0.00101138
0.00101138
0.00110855
0.00110851
0.00110851
0.00133858
0.00133857
0.00133857
0.00127754
0.00127753
0.00127753
0.0013168
0.00131679
0.00131679
0.00140382
0.00140381
0.00140381
0.00150684
0.00150683
0.00150682
0.00161003
0.00161001
0.00161001
0.00170713
0.00170712
0.00170712
0.00179704
0.00179703
0.00179702
0.00188019
0.00188018
0.00188018
0.00195615
0.00195615
0.00195615
0.00202283
0.00202282
0.00202282
0.00207708
0.00207707
0.00207707
0.00211604
0.00211604
0.00211604
0.00213743
0.00213743
0.00213743
0.00213744
0.00213744
0.00213744
0.00211605
0.00211605
0.00211605
0.00207712
0.00207711
0.00207711
0.00202289
0.00202288
0.00202288
0.00195623
0.00195623
0.00195622
0.00188028
0.00188028
0.00188027
0.00179715
0.00179714
0.00179714
0.00170726
0.00170725
0.00170724
0.00161015
0.00161014
0.00161013
0.00150695
0.00150694
0.00150693
0.00140392
0.00140391
0.00140391
0.00131689
0.00131688
0.00131688
0.00127762
0.00127762
0.00127762
0.00133868
0.00133867
0.00133867
0.0011087
0.00110867
0.00110866
0.00120244
0.0012024
0.00120239
0.00123877
0.00123876
0.00123877
0.00115843
0.00115842
0.00115842
0.00116834
0.00116834
0.00116834
0.00122817
0.00122816
0.00122816
0.00130952
0.0013095
0.0013095
0.00139618
0.00139617
0.00139616
0.00148027
0.00148026
0.00148026
0.00155915
0.00155914
0.00155913
0.00163236
0.00163234
0.00163235
0.0016992
0.0016992
0.0016992
0.0017578
0.00175779
0.00175779
0.00180541
0.00180539
0.0018054
0.00183957
0.00183957
0.00183957
0.00185834
0.00185833
0.00185834
0.00185835
0.00185834
0.00185835
0.00183959
0.00183958
0.00183958
0.00180544
0.00180543
0.00180544
0.00175785
0.00175784
0.00175785
0.00169928
0.00169927
0.00169927
0.00163245
0.00163243
0.00163244
0.00155925
0.00155925
0.00155924
0.00148039
0.00148038
0.00148037
0.0013963
0.00139628
0.00139628
0.00130962
0.00130961
0.00130961
0.00122826
0.00122825
0.00122825
0.00116843
0.00116842
0.00116842
0.00115851
0.0011585
0.00115851
0.00123887
0.00123886
0.00123886
0.00120261
0.00120257
0.00120256
0.00128628
0.00128624
0.00128623
0.00115699
0.00115697
0.00115699
0.00105776
0.00105775
0.00105775
0.00104473
0.00104472
0.00104473
0.00108143
0.00108142
0.00108142
0.00114344
0.00114342
0.00114343
0.00121513
0.00121511
0.00121512
0.00128758
0.00128756
0.00128757
0.00135682
0.0013568
0.0013568
0.00142149
0.00142147
0.00142149
0.00148059
0.00148058
0.00148059
0.00153233
0.00153231
0.00153232
0.00157432
0.00157429
0.00157431
0.00160442
0.0016044
0.00160442
0.00162096
0.00162094
0.00162096
0.00162096
0.00162094
0.00162096
0.00160443
0.00160442
0.00160443
0.00157435
0.00157433
0.00157435
0.00153238
0.00153237
0.00153238
0.00148066
0.00148065
0.00148066
0.00142158
0.00142156
0.00142157
0.00135691
0.0013569
0.00135691
0.00128769
0.00128767
0.00128768
0.00121525
0.00121522
0.00121523
0.00114354
0.00114352
0.00114353
0.00108152
0.0010815
0.00108151
0.00104481
0.0010448
0.00104481
0.00105784
0.00105783
0.00105784
0.00115708
0.00115707
0.00115708
0.00128646
0.00128643
0.00128641
0.00136102
0.001361
0.00136098
0.00108897
0.00108894
0.00108897
0.000971048
0.000971034
0.000971048
0.000940314
0.000940299
0.000940314
0.00095756
0.000957541
0.000957554
0.00100232
0.0010023
0.00100231
0.0010603
0.00106028
0.00106029
0.00112213
0.0011221
0.00112212
0.00118278
0.00118275
0.00118277
0.00124001
0.00123999
0.00124001
0.00129244
0.00129242
0.00129244
0.0013383
0.00133826
0.00133829
0.00137545
0.00137542
0.00137545
0.00140208
0.00140204
0.00140207
0.0014167
0.00141667
0.0014167
0.0014167
0.00141667
0.0014167
0.00140209
0.00140206
0.00140209
0.00137548
0.00137546
0.00137548
0.00133835
0.00133832
0.00133834
0.0012925
0.00129248
0.0012925
0.0012401
0.00124006
0.00124009
0.00118287
0.00118285
0.00118287
0.00112224
0.00112221
0.00112223
0.00106041
0.00106038
0.0010604
0.00100242
0.00100239
0.00100241
0.000957644
0.000957622
0.000957637
0.00094039
0.000940376
0.00094039
0.000971124
0.000971111
0.000971124
0.00108906
0.00108904
0.00108906
0.00136121
0.00136119
0.00136116
0.00142754
0.00142754
0.0014275
0.00103155
0.00103152
0.00103155
0.00089518
0.000895161
0.000895181
0.00085102
0.000850999
0.00085102
0.00085218
0.000852154
0.000852176
0.000881686
0.000881654
0.00088168
0.000927086
0.000927052
0.000927077
0.000979116
0.000979076
0.000979107
0.00103197
0.00103193
0.00103196
0.00108262
0.00108258
0.00108262
0.00112922
0.00112919
0.00112922
0.00116998
0.00116994
0.00116998
0.00120296
0.00120292
0.00120296
0.00122657
0.00122652
0.00122657
0.00123953
0.00123948
0.00123953
0.00123953
0.00123949
0.00123953
0.00122658
0.00122653
0.00122658
0.00120299
0.00120295
0.00120299
0.00117003
0.00116999
0.00117003
0.00112928
0.00112925
0.00112928
0.0010827
0.00108265
0.00108269
0.00103206
0.00103202
0.00103206
0.000979211
0.000979172
0.000979203
0.000927185
0.000927148
0.000927176
0.000881774
0.000881743
0.000881767
0.000852258
0.000852232
0.000852255
0.000851093
0.000851072
0.000851092
0.000895253
0.000895234
0.000895254
0.00103165
0.00103161
0.00103164
0.00142773
0.00142773
0.00142769
0.00146133
0.00146131
0.00146129
0.00100444
0.00100443
0.00100444
0.000862035
0.000862041
0.000862036
0.000812297
0.000812306
0.000812297
0.000806212
0.000806223
0.000806209
0.000828407
0.000828418
0.000828402
0.000867483
0.000867496
0.000867476
0.000914435
0.000914448
0.000914427
0.000963213
0.00096323
0.000963206
0.00101042
0.00101044
0.00101041
0.00105399
0.00105401
0.00105398
0.00109208
0.0010921
0.00109208
0.00112285
0.00112287
0.00112285
0.00114481
0.00114483
0.00114481
0.00115684
0.00115686
0.00115684
0.00115684
0.00115686
0.00115684
0.00114482
0.00114484
0.00114482
0.00112288
0.0011229
0.00112288
0.00109213
0.00109215
0.00109213
0.00105405
0.00105407
0.00105404
0.00101049
0.00101051
0.00101048
0.000963297
0.000963315
0.000963292
0.000914528
0.000914541
0.00091452
0.000867577
0.000867588
0.000867569
0.000828492
0.000828504
0.000828487
0.000806288
0.000806299
0.000806286
0.000812368
0.000812377
0.000812367
0.000862107
0.000862113
0.000862107
0.00100454
0.00100453
0.00100453
0.00146154
0.00146151
0.00146149
0.0015213
0.00152128
0.00152125
0.000955526
0.000955502
0.00095552
0.000796295
0.000796297
0.000796296
0.000737936
0.00073794
0.000737936
0.000719968
0.000719973
0.000719967
0.000729471
0.000729475
0.000729467
0.000757281
0.000757286
0.000757276
0.000795205
0.000795211
0.000795199
0.000836907
0.000836914
0.000836902
0.000878324
0.000878334
0.000878321
0.00091692
0.00091693
0.000916917
0.000950716
0.000950726
0.000950713
0.000977969
0.000977979
0.000977966
0.000997388
0.0009974
0.000997386
0.00100801
0.00100802
0.00100801
0.00100801
0.00100803
0.00100801
0.0009974
0.000997411
0.000997397
0.000977997
0.000978006
0.000977993
0.00095076
0.00095077
0.000950757
0.000916976
0.000916986
0.000916973
0.000878392
0.000878401
0.000878388
0.000836985
0.000836993
0.000836981
0.00079529
0.000795297
0.000795286
0.000757366
0.000757371
0.000757361
0.00072955
0.000729555
0.000729546
0.00072004
0.000720045
0.000720039
0.000738003
0.000738007
0.000738003
0.000796364
0.000796366
0.000796365
0.00095562
0.000955596
0.000955615
0.0015215
0.00152149
0.00152145
0.00157963
0.00157963
0.00157959
0.000909181
0.000909153
0.000909175
0.000735322
0.000735321
0.000735322
0.000670836
0.000670837
0.000670836
0.000643549
0.00064355
0.000643548
0.000642048
0.00064205
0.000642046
0.000659438
0.000659439
0.000659435
0.000688725
0.000688726
0.000688721
0.000723644
0.000723645
0.00072364
0.000759622
0.000759624
0.000759619
0.000793642
0.000793644
0.000793639
0.000823531
0.000823533
0.000823527
0.000847601
0.000847602
0.000847597
0.000864715
0.000864716
0.000864711
0.000874066
0.000874068
0.000874062
0.000874069
0.000874071
0.000874066
0.000864727
0.000864729
0.000864724
0.000847627
0.000847628
0.000847623
0.000823571
0.000823573
0.000823568
0.000793694
0.000793696
0.00079369
0.000759684
0.000759687
0.000759681
0.000723715
0.000723717
0.000723712
0.000688803
0.000688805
0.0006888
0.000659516
0.000659518
0.000659513
0.000642122
0.000642123
0.00064212
0.000643616
0.000643618
0.000643616
0.0006709
0.000670901
0.0006709
0.000735388
0.000735387
0.000735389
0.000909273
0.000909245
0.000909267
0.00157984
0.00157983
0.00157979
0.00163976
0.00163975
0.00163972
0.000862525
0.000862502
0.00086252
0.000677983
0.000677982
0.000677984
0.000609497
0.000609498
0.000609499
0.000575312
0.000575312
0.000575313
0.000564595
0.000564595
0.000564595
0.000572539
0.000572539
0.000572538
0.00059362
0.000593619
0.000593619
0.000622002
0.000622001
0.000621999
0.000652809
0.000652808
0.000652806
0.000682573
0.000682572
0.00068257
0.000708884
0.000708881
0.00070888
0.000730055
0.000730051
0.00073005
0.000745067
0.000745063
0.000745063
0.000753255
0.000753251
0.00075325
0.000753258
0.000753254
0.000753254
0.000745079
0.000745075
0.000745075
0.000730079
0.000730075
0.000730074
0.000708921
0.000708918
0.000708917
0.000682621
0.00068262
0.000682618
0.000652866
0.000652865
0.000652864
0.000622067
0.000622066
0.000622065
0.000593691
0.000593691
0.00059369
0.00057261
0.00057261
0.000572609
0.000564663
0.000564663
0.000564663
0.000575375
0.000575375
0.000575376
0.000609558
0.000609559
0.000609559
0.000678047
0.000678045
0.000678047
0.000862614
0.000862592
0.000862609
0.00163996
0.00163995
0.00163992
0.00170796
0.00170794
0.00170792
0.00081066
0.000810651
0.000810656
0.000622893
0.000622893
0.000622894
0.0005524
0.000552401
0.000552401
0.000513542
0.000513542
0.000513544
0.000495439
0.00049544
0.000495441
0.000495041
0.000495041
0.000495041
0.000508415
0.000508415
0.000508415
0.000530482
0.000530482
0.000530481
0.000556312
0.00055631
0.00055631
0.000582062
0.00058206
0.000582059
0.000605055
0.000605051
0.00060505
0.000623558
0.000623553
0.000623553
0.000636638
0.000636634
0.000636633
0.000643754
0.000643749
0.000643748
0.000643757
0.000643752
0.000643751
0.000636649
0.000636645
0.000636644
0.00062358
0.000623575
0.000623574
0.000605088
0.000605084
0.000605083
0.000582105
0.000582103
0.000582102
0.000556363
0.000556362
0.000556362
0.000530541
0.00053054
0.00053054
0.000508478
0.000508479
0.000508478
0.000495105
0.000495105
0.000495105
0.000495501
0.000495501
0.000495502
0.0005136
0.000513601
0.000513602
0.000552457
0.000552458
0.000552459
0.000622955
0.000622955
0.000622955
0.000810746
0.000810737
0.000810741
0.00170817
0.00170815
0.00170813
0.00176142
0.0017614
0.00176138
0.000772858
0.000772852
0.000772854
0.000572395
0.000572395
0.000572395
0.000499605
0.000499607
0.000499607
0.000457839
0.000457842
0.000457842
0.000434237
0.00043424
0.00043424
0.000426798
0.0004268
0.0004268
0.000433111
0.000433112
0.000433112
0.000449113
0.000449112
0.000449113
0.000470122
0.00047012
0.000470121
0.000492058
0.000492056
0.000492055
0.000511973
0.00051197
0.000511969
0.000528038
0.000528033
0.000528032
0.000539362
0.000539357
0.000539356
0.000545505
0.000545498
0.000545498
0.000545508
0.000545501
0.000545501
0.000539372
0.000539367
0.000539366
0.000528057
0.000528052
0.000528051
0.000512003
0.000511999
0.000511998
0.000492097
0.000492095
0.000492094
0.000470168
0.000470166
0.000470167
0.000449164
0.000449164
0.000449164
0.000433165
0.000433167
0.000433167
0.000426855
0.000426856
0.000426857
0.000434293
0.000434295
0.000434296
0.000457893
0.000457896
0.000457896
0.000499659
0.000499661
0.000499661
0.000572454
0.000572454
0.000572454
0.00077294
0.000772934
0.000772936
0.00176163
0.0017616
0.00176159
0.00176561
0.00176563
0.00176558
0.000777589
0.000777551
0.000777582
0.000532083
0.000532077
0.000532083
0.000453013
0.000453013
0.000453016
0.000409235
0.000409237
0.000409239
0.000382056
0.000382058
0.00038206
0.000369274
0.000369276
0.000369278
0.0003696
0.0003696
0.000369603
0.000380074
0.000380072
0.000380075
0.000396556
0.000396552
0.000396555
0.000414945
0.00041494
0.000414943
0.000432078
0.00043207
0.000432073
0.000445993
0.000445985
0.000445987
0.000455792
0.000455784
0.000455786
0.000461094
0.000461084
0.000461087
0.000461096
0.000461087
0.000461089
0.000455801
0.000455792
0.000455795
0.000446009
0.000446001
0.000446003
0.000432103
0.000432097
0.000432099
0.000414979
0.000414974
0.000414977
0.000396596
0.000396592
0.000396596
0.000380119
0.000380117
0.00038012
0.000369647
0.000369648
0.00036965
0.000369324
0.000369325
0.000369327
0.000382106
0.000382107
0.000382109
0.000409284
0.000409286
0.000409288
0.000453064
0.000453064
0.000453067
0.00053214
0.000532135
0.00053214
0.000777672
0.000777635
0.000777667
0.00176581
0.00176583
0.00176578
0.00176948
0.00176958
0.00176945
0.000784481
0.000784391
0.000784474
0.000496072
0.000496055
0.000496071
0.000409835
0.000409829
0.000409838
0.000364671
0.000364669
0.000364676
0.000335421
0.000335419
0.000335426
0.000318863
0.00031886
0.000318868
0.000314352
0.000314348
0.000314356
0.000319928
0.000319921
0.00031993
0.000332166
0.000332157
0.000332165
0.000347178
0.000347167
0.000347175
0.000361698
0.000361684
0.000361693
0.000373638
0.000373622
0.000373631
0.000382059
0.000382043
0.000382052
0.000386608
0.000386591
0.0003866
0.00038661
0.000386593
0.000386603
0.000382067
0.00038205
0.00038206
0.000373652
0.000373637
0.000373646
0.00036172
0.000361707
0.000361715
0.000347208
0.000347197
0.000347206
0.000332201
0.000332191
0.000332201
0.000319965
0.000319958
0.000319967
0.000314392
0.000314388
0.000314396
0.000318905
0.000318903
0.00031891
0.000335464
0.000335463
0.000335469
0.000364715
0.000364714
0.00036472
0.000409882
0.000409878
0.000409886
0.000496128
0.000496111
0.000496128
0.000784565
0.000784475
0.000784558
0.00176967
0.00176977
0.00176964
0.00177474
0.00177495
0.00177471
0.000792998
0.000792847
0.000792991
0.000464156
0.000464125
0.000464156
0.000369691
0.00036968
0.000369695
0.0003233
0.000323293
0.000323306
0.000293117
0.000293111
0.000293123
0.000274201
0.000274193
0.000274206
0.000266023
0.000266014
0.000266028
0.000267398
0.000267385
0.000267401
0.000275694
0.000275677
0.000275694
0.000287452
0.000287432
0.000287449
0.000299457
0.000299434
0.000299452
0.000309536
0.000309511
0.00030953
0.000316689
0.000316662
0.000316682
0.000320554
0.000320528
0.000320547
0.000320557
0.00032053
0.000320549
0.000316696
0.000316669
0.000316688
0.000309549
0.000309524
0.000309543
0.000299476
0.000299453
0.000299471
0.000287477
0.000287457
0.000287474
0.000275723
0.000275706
0.000275723
0.000267428
0.000267415
0.000267431
0.000266055
0.000266046
0.000266061
0.000274235
0.000274229
0.000274241
0.000293154
0.000293149
0.000293161
0.00032334
0.000323334
0.000323346
0.000369736
0.000369725
0.00036974
0.000464211
0.00046418
0.00046421
0.000793082
0.000792931
0.000793075
0.00177492
0.00177513
0.0017749
0.0017837
0.00178402
0.00178368
0.000801881
0.000801669
0.000801874
0.000436145
0.000436097
0.000436145
0.000332493
0.000332473
0.000332497
0.000284724
0.000284712
0.000284731
0.000254421
0.00025441
0.000254428
0.000234397
0.000234384
0.000234403
0.00022372
0.000223705
0.000223726
0.000221671
0.000221651
0.000221674
0.00022638
0.000226355
0.000226381
0.000234996
0.000234967
0.000234994
0.00024454
0.000244508
0.000244535
0.000252829