/*--------------------------------*- C++ -*----------------------------------*\
  =========                 |
  \\      /  F ield         | OpenFOAM: The Open Source CFD Toolbox
   \\    /   O peration     | Website:  https://openfoam.org
    \\  /    A nd           | Version:  6
     \\/     M anipulation  |
\*---------------------------------------------------------------------------*/
FoamFile
{
    version     2.0;
    format      ascii;
    class       volScalarField;
    location    "0";
    object      nut;
}
// * * * * * * * * * * * * * * * * * * * * * * * * * * * * * * * * * * * * * //

dimensions      [0 2 -1 0 0 0 0];

internalField   nonuniform List<scalar> 
3240
(
1.84773e-06
1.84764e-06
1.84771e-06
1.22817e-06
1.2281e-06
1.2281e-06
1.42869e-06
1.42862e-06
1.42862e-06
1.5794e-06
1.57933e-06
1.57934e-06
1.70187e-06
1.70181e-06
1.70182e-06
1.80479e-06
1.80473e-06
1.80474e-06
1.89432e-06
1.89427e-06
1.89427e-06
1.97499e-06
1.97495e-06
1.97495e-06
2.04966e-06
2.04962e-06
2.04962e-06
2.11944e-06
2.11942e-06
2.11942e-06
2.18376e-06
2.18375e-06
2.18376e-06
2.24043e-06
2.24043e-06
2.24042e-06
2.28657e-06
2.28657e-06
2.28657e-06
2.31963e-06
2.31963e-06
2.31963e-06
2.33774e-06
2.33774e-06
2.33774e-06
2.33774e-06
2.33775e-06
2.33775e-06
2.31965e-06
2.31966e-06
2.31966e-06
2.2866e-06
2.28661e-06
2.2866e-06
2.24049e-06
2.24049e-06
2.24049e-06
2.18385e-06
2.18384e-06
2.18384e-06
2.11955e-06
2.11953e-06
2.11952e-06
2.04978e-06
2.04974e-06
2.04974e-06
1.97514e-06
1.97509e-06
1.97509e-06
1.89446e-06
1.89441e-06
1.89441e-06
1.80493e-06
1.80487e-06
1.80488e-06
1.70201e-06
1.70196e-06
1.70196e-06
1.57955e-06
1.57949e-06
1.57948e-06
1.42884e-06
1.42877e-06
1.42877e-06
1.22832e-06
1.22825e-06
1.22824e-06
1.84784e-06
1.84775e-06
1.84781e-06
1.39426e-05
1.39428e-05
1.39425e-05
6.26116e-06
6.26099e-06
6.26079e-06
6.64129e-06
6.64119e-06
6.641e-06
7.00448e-06
7.00441e-06
7.00421e-06
7.30309e-06
7.30305e-06
7.30285e-06
7.55327e-06
7.55324e-06
7.55307e-06
7.76965e-06
7.76963e-06
7.76946e-06
7.96329e-06
7.96332e-06
7.96314e-06
8.14082e-06
8.14092e-06
8.14071e-06
8.30479e-06
8.30495e-06
8.30474e-06
8.45402e-06
8.45423e-06
8.45402e-06
8.5839e-06
8.58413e-06
8.5839e-06
8.68862e-06
8.68886e-06
8.68862e-06
8.763e-06
8.76324e-06
8.76301e-06
8.80344e-06
8.80369e-06
8.80346e-06
8.80345e-06
8.8037e-06
8.80348e-06
8.76306e-06
8.76331e-06
8.76308e-06
8.68876e-06
8.68901e-06
8.68877e-06
8.58411e-06
8.58432e-06
8.58411e-06
8.45428e-06
8.45448e-06
8.45428e-06
8.30512e-06
8.30527e-06
8.30506e-06
8.14122e-06
8.14131e-06
8.1411e-06
7.96375e-06
7.96377e-06
7.96359e-06
7.77009e-06
7.77008e-06
7.76991e-06
7.55372e-06
7.55369e-06
7.55352e-06
7.3036e-06
7.30356e-06
7.30335e-06
7.00504e-06
7.00497e-06
7.00477e-06
6.64191e-06
6.6418e-06
6.64161e-06
6.26183e-06
6.26166e-06
6.26146e-06
1.39432e-05
1.39434e-05
1.3943e-05
1.88492e-05
1.8849e-05
1.8849e-05
1.0996e-05
1.09957e-05
1.09953e-05
1.14517e-05
1.14515e-05
1.14511e-05
1.19421e-05
1.19419e-05
1.19416e-05
1.23708e-05
1.23707e-05
1.23704e-05
1.27405e-05
1.27404e-05
1.27401e-05
1.30655e-05
1.30655e-05
1.30652e-05
1.33595e-05
1.33595e-05
1.33592e-05
1.36302e-05
1.36304e-05
1.363e-05
1.38805e-05
1.38808e-05
1.38804e-05
1.41079e-05
1.41083e-05
1.41079e-05
1.43054e-05
1.43058e-05
1.43054e-05
1.44644e-05
1.44649e-05
1.44644e-05
1.45772e-05
1.45776e-05
1.45772e-05
1.46384e-05
1.46388e-05
1.46384e-05
1.46384e-05
1.46388e-05
1.46384e-05
1.45773e-05
1.45777e-05
1.45773e-05
1.44647e-05
1.44651e-05
1.44647e-05
1.43058e-05
1.43062e-05
1.43058e-05
1.41084e-05
1.41088e-05
1.41084e-05
1.38811e-05
1.38814e-05
1.3881e-05
1.3631e-05
1.36311e-05
1.36308e-05
1.33603e-05
1.33603e-05
1.336e-05
1.30664e-05
1.30663e-05
1.3066e-05
1.27413e-05
1.27412e-05
1.27409e-05
1.23718e-05
1.23717e-05
1.23713e-05
1.19432e-05
1.1943e-05
1.19426e-05
1.14529e-05
1.14527e-05
1.14523e-05
1.09973e-05
1.0997e-05
1.09966e-05
1.885e-05
1.88498e-05
1.88498e-05
1.9451e-05
1.94507e-05
1.94508e-05
1.32157e-05
1.32149e-05
1.32148e-05
1.36505e-05
1.36499e-05
1.36498e-05
1.41784e-05
1.41778e-05
1.41778e-05
1.46582e-05
1.46577e-05
1.46576e-05
1.50794e-05
1.50789e-05
1.5079e-05
1.5454e-05
1.54535e-05
1.54535e-05
1.5795e-05
1.57946e-05
1.57947e-05
1.61103e-05
1.61101e-05
1.611e-05
1.64019e-05
1.64018e-05
1.64018e-05
1.6667e-05
1.6667e-05
1.6667e-05
1.68971e-05
1.68972e-05
1.68971e-05
1.70825e-05
1.70826e-05
1.70825e-05
1.72141e-05
1.72142e-05
1.72141e-05
1.72857e-05
1.72858e-05
1.72858e-05
1.72857e-05
1.72858e-05
1.72858e-05
1.72142e-05
1.72144e-05
1.72143e-05
1.70828e-05
1.70829e-05
1.70828e-05
1.68976e-05
1.68976e-05
1.68976e-05
1.66676e-05
1.66676e-05
1.66676e-05
1.64026e-05
1.64026e-05
1.64025e-05
1.61112e-05
1.6111e-05
1.61109e-05
1.57961e-05
1.57957e-05
1.57957e-05
1.5455e-05
1.54545e-05
1.54546e-05
1.50805e-05
1.508e-05
1.508e-05
1.46594e-05
1.46589e-05
1.46588e-05
1.41798e-05
1.41792e-05
1.41791e-05
1.3652e-05
1.36514e-05
1.36513e-05
1.32174e-05
1.32166e-05
1.32165e-05
1.94518e-05
1.94515e-05
1.94516e-05
2.07411e-05
2.07408e-05
2.07409e-05
1.8123e-05
1.81219e-05
1.81215e-05
1.85264e-05
1.85255e-05
1.85252e-05
1.90876e-05
1.90869e-05
1.90867e-05
1.96467e-05
1.96461e-05
1.96458e-05
2.01592e-05
2.01586e-05
2.01585e-05
2.06268e-05
2.06263e-05
2.06261e-05
2.10594e-05
2.1059e-05
2.10589e-05
2.1463e-05
2.14629e-05
2.14626e-05
2.18378e-05
2.18378e-05
2.18376e-05
2.21787e-05
2.21789e-05
2.21787e-05
2.24746e-05
2.24749e-05
2.24746e-05
2.27128e-05
2.27131e-05
2.27128e-05
2.28817e-05
2.2882e-05
2.28817e-05
2.29734e-05
2.29738e-05
2.29735e-05
2.29735e-05
2.29738e-05
2.29736e-05
2.28819e-05
2.28823e-05
2.2882e-05
2.27133e-05
2.27136e-05
2.27133e-05
2.24753e-05
2.24756e-05
2.24753e-05
2.21796e-05
2.21798e-05
2.21796e-05
2.18389e-05
2.1839e-05
2.18387e-05
2.14644e-05
2.14642e-05
2.14639e-05
2.1061e-05
2.10606e-05
2.10604e-05
2.06283e-05
2.06278e-05
2.06276e-05
2.01608e-05
2.01602e-05
2.016e-05
1.96484e-05
1.96478e-05
1.96476e-05
1.90897e-05
1.90889e-05
1.90887e-05
1.85286e-05
1.85278e-05
1.85275e-05
1.81255e-05
1.81245e-05
1.8124e-05
2.07419e-05
2.07417e-05
2.07417e-05
2.20475e-05
2.20472e-05
2.20473e-05
2.373e-05
2.37285e-05
2.3728e-05
2.4072e-05
2.40709e-05
2.40704e-05
2.46142e-05
2.46133e-05
2.46128e-05
2.52252e-05
2.52244e-05
2.52239e-05
2.58186e-05
2.58179e-05
2.58175e-05
2.63786e-05
2.6378e-05
2.63777e-05
2.69078e-05
2.69074e-05
2.69071e-05
2.74074e-05
2.74073e-05
2.74068e-05
2.78737e-05
2.7874e-05
2.78735e-05
2.82988e-05
2.82991e-05
2.82988e-05
2.86677e-05
2.86682e-05
2.86677e-05
2.89644e-05
2.8965e-05
2.89644e-05
2.91747e-05
2.91754e-05
2.91748e-05
2.92888e-05
2.92895e-05
2.92889e-05
2.92889e-05
2.92895e-05
2.9289e-05
2.9175e-05
2.91757e-05
2.91751e-05
2.89652e-05
2.89658e-05
2.89652e-05
2.86686e-05
2.86692e-05
2.86686e-05
2.83e-05
2.83004e-05
2.83e-05
2.78753e-05
2.78755e-05
2.7875e-05
2.74093e-05
2.74092e-05
2.74087e-05
2.69101e-05
2.69096e-05
2.69093e-05
2.63807e-05
2.63801e-05
2.63798e-05
2.58208e-05
2.582e-05
2.58197e-05
2.52276e-05
2.52269e-05
2.52264e-05
2.4617e-05
2.46162e-05
2.46156e-05
2.40753e-05
2.40742e-05
2.40736e-05
2.37336e-05
2.37322e-05
2.37315e-05
2.20484e-05
2.20482e-05
2.20482e-05
2.33428e-05
2.33425e-05
2.33425e-05
3.02294e-05
3.02275e-05
3.02266e-05
3.04967e-05
3.04951e-05
3.04945e-05
3.0959e-05
3.09579e-05
3.09572e-05
3.15841e-05
3.15831e-05
3.15824e-05
3.22421e-05
3.22411e-05
3.22406e-05
3.28922e-05
3.28914e-05
3.28909e-05
3.35242e-05
3.35236e-05
3.35231e-05
3.41298e-05
3.41297e-05
3.4129e-05
3.46994e-05
3.46998e-05
3.46991e-05
3.52202e-05
3.52208e-05
3.52202e-05
3.56725e-05
3.56732e-05
3.56725e-05
3.60363e-05
3.60372e-05
3.60363e-05
3.62939e-05
3.62948e-05
3.6294e-05
3.64335e-05
3.64344e-05
3.64337e-05
3.64336e-05
3.64345e-05
3.64338e-05
3.62943e-05
3.62952e-05
3.62944e-05
3.60373e-05
3.60382e-05
3.60373e-05
3.56738e-05
3.56745e-05
3.56738e-05
3.52219e-05
3.52225e-05
3.52219e-05
3.47016e-05
3.4702e-05
3.47013e-05
3.41324e-05
3.41323e-05
3.41316e-05
3.35272e-05
3.35266e-05
3.35261e-05
3.28951e-05
3.28943e-05
3.28938e-05
3.22451e-05
3.22441e-05
3.22436e-05
3.15875e-05
3.15865e-05
3.15858e-05
3.0963e-05
3.09618e-05
3.09611e-05
3.05012e-05
3.04997e-05
3.0499e-05
3.02343e-05
3.02325e-05
3.02315e-05
2.33438e-05
2.33436e-05
2.33436e-05
2.46844e-05
2.46841e-05
2.46841e-05
3.72914e-05
3.72889e-05
3.72878e-05
3.77387e-05
3.77367e-05
3.77358e-05
3.80576e-05
3.8056e-05
3.80551e-05
3.86295e-05
3.86282e-05
3.86273e-05
3.93125e-05
3.93112e-05
3.93105e-05
4.00353e-05
4.00342e-05
4.00336e-05
4.07666e-05
4.07659e-05
4.07652e-05
4.14834e-05
4.14833e-05
4.14824e-05
4.21652e-05
4.21657e-05
4.21648e-05
4.27917e-05
4.27925e-05
4.27917e-05
4.33365e-05
4.33375e-05
4.33365e-05
4.37749e-05
4.3776e-05
4.37749e-05
4.40851e-05
4.40863e-05
4.40852e-05
4.42531e-05
4.42543e-05
4.42533e-05
4.42532e-05
4.42544e-05
4.42534e-05
4.40857e-05
4.40869e-05
4.40858e-05
4.37762e-05
4.37773e-05
4.37762e-05
4.33383e-05
4.33393e-05
4.33383e-05
4.27939e-05
4.27947e-05
4.27939e-05
4.21682e-05
4.21686e-05
4.21677e-05
4.14869e-05
4.14868e-05
4.14858e-05
4.07706e-05
4.07698e-05
4.07691e-05
4.00391e-05
4.00381e-05
4.00374e-05
3.93165e-05
3.93151e-05
3.93145e-05
3.86341e-05
3.86327e-05
3.86318e-05
3.80628e-05
3.80613e-05
3.80603e-05
3.77448e-05
3.77428e-05
3.77419e-05
3.72977e-05
3.72954e-05
3.72941e-05
2.46856e-05
2.46853e-05
2.46853e-05
2.60412e-05
2.60408e-05
2.60408e-05
4.45083e-05
4.45055e-05
4.45041e-05
4.54564e-05
4.5454e-05
4.54527e-05
4.56173e-05
4.56154e-05
4.56142e-05
4.6076e-05
4.60744e-05
4.60731e-05
4.67381e-05
4.67365e-05
4.67356e-05
4.75072e-05
4.7506e-05
4.75051e-05
4.83266e-05
4.83258e-05
4.83248e-05
4.91524e-05
4.91523e-05
4.9151e-05
4.9949e-05
4.99496e-05
4.99484e-05
5.06857e-05
5.06868e-05
5.06857e-05
5.1328e-05
5.13293e-05
5.1328e-05
5.18449e-05
5.18465e-05
5.18449e-05
5.22105e-05
5.22122e-05
5.22107e-05
5.24085e-05
5.24101e-05
5.24088e-05
5.24086e-05
5.24102e-05
5.24089e-05
5.22114e-05
5.2213e-05
5.22115e-05
5.18466e-05
5.18482e-05
5.18466e-05
5.13302e-05
5.13316e-05
5.13302e-05
5.06885e-05
5.06897e-05
5.06885e-05
4.99527e-05
4.99534e-05
4.99521e-05
4.91568e-05
4.91568e-05
4.91554e-05
4.83317e-05
4.83308e-05
4.83298e-05
4.75122e-05
4.7511e-05
4.75101e-05
4.67432e-05
4.67416e-05
4.67407e-05
4.60818e-05
4.60802e-05
4.6079e-05
4.56241e-05
4.56222e-05
4.56209e-05
4.54642e-05
4.54617e-05
4.54605e-05
4.45162e-05
4.45135e-05
4.45118e-05
2.60425e-05
2.60421e-05
2.60421e-05
2.74063e-05
2.74058e-05
2.74059e-05
5.19184e-05
5.19153e-05
5.19133e-05
5.37224e-05
5.37196e-05
5.37179e-05
5.37502e-05
5.3748e-05
5.37463e-05
5.40386e-05
5.40369e-05
5.40351e-05
5.46277e-05
5.4626e-05
5.46246e-05
5.54109e-05
5.54096e-05
5.54083e-05
5.63033e-05
5.63026e-05
5.6301e-05
5.72344e-05
5.72346e-05
5.72327e-05
5.81486e-05
5.81496e-05
5.81479e-05
5.9001e-05
5.90027e-05
5.9001e-05
5.97466e-05
5.97486e-05
5.97466e-05
6.03472e-05
6.03495e-05
6.03472e-05
6.07717e-05
6.0774e-05
6.07719e-05
6.10012e-05
6.10035e-05
6.10016e-05
6.10014e-05
6.10037e-05
6.10018e-05
6.07727e-05
6.0775e-05
6.07729e-05
6.03493e-05
6.03515e-05
6.03493e-05
5.97494e-05
5.97514e-05
5.97494e-05
5.90046e-05
5.90062e-05
5.90046e-05
5.81532e-05
5.81542e-05
5.81524e-05
5.724e-05
5.72401e-05
5.72382e-05
5.63097e-05
5.63088e-05
5.63073e-05
5.54172e-05
5.54159e-05
5.54145e-05
5.46341e-05
5.46324e-05
5.46311e-05
5.4046e-05
5.40442e-05
5.40425e-05
5.37587e-05
5.37565e-05
5.37548e-05
5.37321e-05
5.37293e-05
5.37276e-05
5.19278e-05
5.19249e-05
5.19227e-05
2.74077e-05
2.74073e-05
2.74073e-05
2.87583e-05
2.87577e-05
2.87578e-05
5.94881e-05
5.94848e-05
5.94822e-05
6.25408e-05
6.25377e-05
6.25355e-05
6.25073e-05
6.2505e-05
6.25027e-05
6.25767e-05
6.25749e-05
6.25725e-05
6.30339e-05
6.30322e-05
6.30302e-05
6.3791e-05
6.37897e-05
6.37877e-05
6.47359e-05
6.47353e-05
6.4733e-05
6.57659e-05
6.57665e-05
6.57638e-05
6.67993e-05
6.6801e-05
6.67985e-05
6.7773e-05
6.77754e-05
6.7773e-05
6.86283e-05
6.8631e-05
6.86283e-05
6.9318e-05
6.9321e-05
6.9318e-05
6.98052e-05
6.98083e-05
6.98054e-05
7.00682e-05
7.00713e-05
7.00686e-05
7.00685e-05
7.00715e-05
7.00689e-05
6.98064e-05
6.98095e-05
6.98066e-05
6.93205e-05
6.93236e-05
6.93206e-05
6.86317e-05
6.86344e-05
6.86317e-05
6.77774e-05
6.77798e-05
6.77774e-05
6.6805e-05
6.68066e-05
6.68041e-05
6.57727e-05
6.57732e-05
6.57706e-05
6.47436e-05
6.47429e-05
6.47408e-05
6.37987e-05
6.37974e-05
6.37954e-05
6.30417e-05
6.304e-05
6.30381e-05
6.25857e-05
6.25838e-05
6.25815e-05
6.25178e-05
6.25155e-05
6.25132e-05
6.25526e-05
6.25496e-05
6.25472e-05
5.94991e-05
5.9496e-05
5.94931e-05
2.87598e-05
2.87593e-05
2.87593e-05
2.93367e-05
2.9336e-05
2.93362e-05
6.34414e-05
6.34366e-05
6.3435e-05
6.72327e-05
6.72278e-05
6.72268e-05
6.72158e-05
6.72116e-05
6.72107e-05
6.71773e-05
6.71738e-05
6.71727e-05
6.75633e-05
6.75599e-05
6.75592e-05
6.83073e-05
6.83044e-05
6.83037e-05
6.92852e-05
6.92829e-05
6.92821e-05
7.03762e-05
7.03752e-05
7.03739e-05
7.14832e-05
7.14834e-05
7.14823e-05
7.25318e-05
7.25328e-05
7.25318e-05
7.34552e-05
7.34566e-05
7.34552e-05
7.42011e-05
7.42027e-05
7.42011e-05
7.4729e-05
7.47307e-05
7.47292e-05
7.50147e-05
7.50164e-05
7.50151e-05
7.5015e-05
7.50166e-05
7.50154e-05
7.47303e-05
7.4732e-05
7.47306e-05
7.42039e-05
7.42055e-05
7.42039e-05
7.34591e-05
7.34603e-05
7.34591e-05
7.25366e-05
7.25376e-05
7.25365e-05
7.14894e-05
7.14895e-05
7.14884e-05
7.03837e-05
7.03826e-05
7.03813e-05
6.92937e-05
6.92914e-05
6.92906e-05
6.83158e-05
6.83128e-05
6.83122e-05
6.7572e-05
6.75686e-05
6.7568e-05
6.71873e-05
6.71837e-05
6.71827e-05
6.72274e-05
6.72232e-05
6.72223e-05
6.72456e-05
6.72407e-05
6.72397e-05
6.34533e-05
6.34486e-05
6.34469e-05
2.93383e-05
2.93376e-05
2.93378e-05
3.05579e-05
3.05571e-05
3.05573e-05
7.16318e-05
7.16267e-05
7.16246e-05
7.73258e-05
7.73202e-05
7.73188e-05
7.74488e-05
7.74441e-05
7.74427e-05
7.71344e-05
7.71304e-05
7.71289e-05
7.7286e-05
7.72823e-05
7.72812e-05
7.79284e-05
7.79253e-05
7.79241e-05
7.89211e-05
7.89188e-05
7.89174e-05
8.01026e-05
8.01017e-05
8.00998e-05
8.13378e-05
8.13384e-05
8.13367e-05
8.25246e-05
8.25261e-05
8.25245e-05
8.35761e-05
8.3578e-05
8.3576e-05
8.4427e-05
8.44293e-05
8.4427e-05
8.5029e-05
8.50314e-05
8.50293e-05
8.53545e-05
8.53569e-05
8.53551e-05
8.53549e-05
8.53573e-05
8.53554e-05
8.50306e-05
8.5033e-05
8.5031e-05
8.44303e-05
8.44327e-05
8.44304e-05
8.35807e-05
8.35825e-05
8.35807e-05
8.25304e-05
8.25319e-05
8.25303e-05
8.13453e-05
8.13458e-05
8.13441e-05
8.01116e-05
8.01106e-05
8.01088e-05
7.89315e-05
7.8929e-05
7.89277e-05
7.79387e-05
7.79355e-05
7.79344e-05
7.72966e-05
7.72929e-05
7.72919e-05
7.71465e-05
7.71425e-05
7.71411e-05
7.74628e-05
7.74581e-05
7.74568e-05
7.73412e-05
7.73357e-05
7.73342e-05
7.16455e-05
7.16405e-05
7.16383e-05
3.05595e-05
3.05588e-05
3.0559e-05
3.16073e-05
3.16066e-05
3.16068e-05
8.02277e-05
8.0222e-05
8.02196e-05
8.8371e-05
8.83647e-05
8.83629e-05
8.88735e-05
8.88683e-05
8.88665e-05
8.82702e-05
8.82658e-05
8.82638e-05
8.81031e-05
8.8099e-05
8.80974e-05
8.85704e-05
8.8567e-05
8.85653e-05
8.95357e-05
8.95333e-05
8.95313e-05
9.07928e-05
9.07921e-05
9.07896e-05
9.21592e-05
9.21602e-05
9.21578e-05
9.34957e-05
9.34979e-05
9.34956e-05
9.46892e-05
9.46917e-05
9.46891e-05
9.56575e-05
9.56605e-05
9.56575e-05
9.63427e-05
9.63458e-05
9.63431e-05
9.67129e-05
9.6716e-05
9.67135e-05
9.67134e-05
9.67165e-05
9.67141e-05
9.63445e-05
9.63477e-05
9.6345e-05
9.56615e-05
9.56646e-05
9.56616e-05
9.46947e-05
9.46972e-05
9.46947e-05
9.35025e-05
9.35047e-05
9.35025e-05
9.21681e-05
9.21689e-05
9.21667e-05
9.08037e-05
9.08028e-05
9.08003e-05
8.95482e-05
8.95455e-05
8.95437e-05
8.85829e-05
8.85794e-05
8.85777e-05
8.81161e-05
8.81119e-05
8.81104e-05
8.8285e-05
8.82804e-05
8.82786e-05
8.88904e-05
8.88852e-05
8.88833e-05
8.83893e-05
8.83832e-05
8.83813e-05
8.02433e-05
8.02377e-05
8.02352e-05
3.16091e-05
3.16084e-05
3.16085e-05
3.23151e-05
3.23146e-05
3.23147e-05
8.92253e-05
8.92189e-05
8.92163e-05
0.0001004
0.000100393
0.000100391
0.000101619
0.000101613
0.000101611
0.000100754
0.000100749
0.000100746
0.000100178
0.000100173
0.000100171
0.000100377
0.000100373
0.000100371
0.000101256
0.000101253
0.00010125
0.000102564
0.000102563
0.00010256
0.000104061
0.000104062
0.000104059
0.000105558
0.000105561
0.000105558
0.000106909
0.000106912
0.000106909
0.000108008
0.000108012
0.000108008
0.000108787
0.000108791
0.000108788
0.000109208
0.000109212
0.000109209
0.000109209
0.000109213
0.00010921
0.000108789
0.000108793
0.00010879
0.000108013
0.000108017
0.000108013
0.000106916
0.000106919
0.000106916
0.000105566
0.000105569
0.000105566
0.000104071
0.000104072
0.00010407
0.000102577
0.000102576
0.000102573
0.000101271
0.000101268
0.000101265
0.000100392
0.000100388
0.000100386
0.000100194
0.000100189
0.000100187
0.000100772
0.000100766
0.000100764
0.000101639
0.000101633
0.000101631
0.000100422
0.000100415
0.000100413
8.9243e-05
8.92367e-05
8.92339e-05
3.23169e-05
3.23164e-05
3.23163e-05
3.32657e-05
3.32652e-05
3.32651e-05
9.78308e-05
9.78238e-05
9.78211e-05
0.000113202
0.000113193
0.000113191
0.000115727
0.000115719
0.000115717
0.000114733
0.000114727
0.000114725
0.000113667
0.000113661
0.000113659
0.000113474
0.000113469
0.000113466
0.000114176
0.000114172
0.000114169
0.000115488
0.000115487
0.000115483
0.000117102
0.000117104
0.000117101
0.000118768
0.000118771
0.000118768
0.000120291
0.000120295
0.000120291
0.000121537
0.000121542
0.000121537
0.000122421
0.000122426
0.000122422
0.000122898
0.000122902
0.000122899
0.000122898
0.000122903
0.000122899
0.000122424
0.000122428
0.000122425
0.000121543
0.000121547
0.000121543
0.000120299
0.000120302
0.000120299
0.000118778
0.000118781
0.000118778
0.000117115
0.000117116
0.000117113
0.000115504
0.000115502
0.000115499
0.000114194
0.00011419
0.000114187
0.000113492
0.000113487
0.000113485
0.000113686
0.00011368
0.000113678
0.000114755
0.000114749
0.000114746
0.000115751
0.000115743
0.000115741
0.000113227
0.000113218
0.000113216
9.78504e-05
9.78435e-05
9.78406e-05
3.32674e-05
3.32669e-05
3.32668e-05
3.52464e-05
3.52455e-05
3.52458e-05
0.000104748
0.000104741
0.000104737
0.000125717
0.000125708
0.000125705
0.000130344
0.000130335
0.000130333
0.000129537
0.00012953
0.000129527
0.000127973
0.000127967
0.000127964
0.000127272
0.000127266
0.000127263
0.000127681
0.000127677
0.000127674
0.000128924
0.000128923
0.000128918
0.00013062
0.000130621
0.000130617
0.000132443
0.000132446
0.000132443
0.00013414
0.000134144
0.00013414
0.000135539
0.000135544
0.000135539
0.000136532
0.000136538
0.000136533
0.000137069
0.000137074
0.000137071
0.00013707
0.000137075
0.000137071
0.000136535
0.000136541
0.000136536
0.000135545
0.000135551
0.000135546
0.00013415
0.000134154
0.00013415
0.000132455
0.000132458
0.000132455
0.000130635
0.000130636
0.000130632
0.000128943
0.000128941
0.000128937
0.000127702
0.000127698
0.000127695
0.000127294
0.000127288
0.000127285
0.000127997
0.00012799
0.000127987
0.000129563
0.000129556
0.000129553
0.000130371
0.000130363
0.000130361
0.000125746
0.000125737
0.000125734
0.000104769
0.000104762
0.000104759
3.52485e-05
3.52475e-05
3.52478e-05
3.71436e-05
3.71418e-05
3.71429e-05
0.000110926
0.000110919
0.000110915
0.000137986
0.000137978
0.000137974
0.000145349
0.00014534
0.000145337
0.000145081
0.000145073
0.00014507
0.000143074
0.000143067
0.000143063
0.000141768
0.000141762
0.000141758
0.000141769
0.000141765
0.000141761
0.000142858
0.000142857
0.000142852
0.000144591
0.000144593
0.000144588
0.000146555
0.000146559
0.000146555
0.000148423
0.000148428
0.000148424
0.000149978
0.000149984
0.000149978
0.000151084
0.00015109
0.000151085
0.000151683
0.000151689
0.000151684
0.000151683
0.00015169
0.000151685
0.000151088
0.000151094
0.000151089
0.000149986
0.000149992
0.000149986
0.000148435
0.000148439
0.000148435
0.000146569
0.000146573
0.000146568
0.000144609
0.00014461
0.000144606
0.00014288
0.000142879
0.000142874
0.000141794
0.00014179
0.000141786
0.000141794
0.000141789
0.000141784
0.000143101
0.000143094
0.00014309
0.000145111
0.000145104
0.0001451
0.000145382
0.000145373
0.00014537
0.000138019
0.000138009
0.000138006
0.000110948
0.000110943
0.000110938
3.7146e-05
3.71443e-05
3.71452e-05
3.89116e-05
3.89087e-05
3.89107e-05
0.000116309
0.000116303
0.000116298
0.000149872
0.000149863
0.000149858
0.000160626
0.000160617
0.000160613
0.000161331
0.000161323
0.000161318
0.000159002
0.000158995
0.00015899
0.000157018
0.000157012
0.000157007
0.000156483
0.000156479
0.000156474
0.000157316
0.000157315
0.000157308
0.000159024
0.000159028
0.000159021
0.000161102
0.000161108
0.000161102
0.000163135
0.000163142
0.000163136
0.000164846
0.000164853
0.000164846
0.000166068
0.000166076
0.000166069
0.00016673
0.000166737
0.000166732
0.00016673
0.000166738
0.000166733
0.000166072
0.00016608
0.000166073
0.000164855
0.000164863
0.000164855
0.000163148
0.000163154
0.000163148
0.000161118
0.000161123
0.000161118
0.000159045
0.000159048
0.000159042
0.000157341
0.000157341
0.000157334
0.000156514
0.00015651
0.000156504
0.00015705
0.000157044
0.000157039
0.000159035
0.000159028
0.000159022
0.000161367
0.000161359
0.000161353
0.000160664
0.000160656
0.000160651
0.000149908
0.000149899
0.000149894
0.000116333
0.000116328
0.000116322
3.89143e-05
3.89114e-05
3.89133e-05
4.04634e-05
4.04593e-05
4.04624e-05
0.000120852
0.000120847
0.000120841
0.0001612
0.000161191
0.000161185
0.000175985
0.000175976
0.00017597
0.000178165
0.000178158
0.000178151
0.000175716
0.000175709
0.000175702
0.000173016
0.000173011
0.000173004
0.000171815
0.000171812
0.000171804
0.000172268
0.000172269
0.000172259
0.000173874
0.000173879
0.00017387
0.000176027
0.000176034
0.000176026
0.000178211
0.00017822
0.000178212
0.000180076
0.000180086
0.000180077
0.000181414
0.000181425
0.000181416
0.00018214
0.00018215
0.000182143
0.000182141
0.000182151
0.000182144
0.000181419
0.00018143
0.000181421
0.000180086
0.000180096
0.000180087
0.000178226
0.000178235
0.000178227
0.000176045
0.000176053
0.000176045
0.000173898
0.000173903
0.000173894
0.000172298
0.000172298
0.00017229
0.000171851
0.000171848
0.00017184
0.000173054
0.000173049
0.000173041
0.000175755
0.000175748
0.000175741
0.000178207
0.0001782
0.000178192
0.000176028
0.00017602
0.000176013
0.000161239
0.000161231
0.000161224
0.000120877
0.000120872
0.000120866
4.04664e-05
4.04623e-05
4.04653e-05
4.10924e-05
4.10876e-05
4.10914e-05
0.000122581
0.000122575
0.00012257
0.000166451
0.000166437
0.000166435
0.000183467
0.000183452
0.000183451
0.000186628
0.000186614
0.000186613
0.000184276
0.000184261
0.000184261
0.000181278
0.000181266
0.000181265
0.000179752
0.000179742
0.000179741
0.000180015
0.000180009
0.000180006
0.000181579
0.000181578
0.000181575
0.000183792
0.000183793
0.000183791
0.00018608
0.000186083
0.000186081
0.000188052
0.000188055
0.000188053
0.000189476
0.00018948
0.000189478
0.000190252
0.000190256
0.000190255
0.000190253
0.000190257
0.000190256
0.000189481
0.000189486
0.000189484
0.000188063
0.000188067
0.000188064
0.000186096
0.000186099
0.000186097
0.000183812
0.000183813
0.000183811
0.000181605
0.000181603
0.000181601
0.000180048
0.000180041
0.000180039
0.000179791
0.000179781
0.000179779
0.000181319
0.000181307
0.000181306
0.000184318
0.000184304
0.000184303
0.000186673
0.000186659
0.000186658
0.000183513
0.000183498
0.000183497
0.000166492
0.000166479
0.000166476
0.000122606
0.0001226
0.000122595
4.10955e-05
4.10906e-05
4.10944e-05
4.19267e-05
4.19215e-05
4.19256e-05
0.000126013
0.000126008
0.000126003
0.000176962
0.000176949
0.000176946
0.000198931
0.000198916
0.000198914
0.000204423
0.000204408
0.000204407
0.000202397
0.000202383
0.000202381
0.000198711
0.000198698
0.000198696
0.000196326
0.000196316
0.000196313
0.000195993
0.000195987
0.000195983
0.000197303
0.000197303
0.000197299
0.000199514
0.000199516
0.000199513
0.000201927
0.000201931
0.000201928
0.00020405
0.000204056
0.000204052
0.000205596
0.000205602
0.000205599
0.000206441
0.000206447
0.000206445
0.000206443
0.000206448
0.000206446
0.000205603
0.000205608
0.000205605
0.000204064
0.000204069
0.000204065
0.000201946
0.00020195
0.000201946
0.000199537
0.000199539
0.000199537
0.000197334
0.000197333
0.000197329
0.000196032
0.000196025
0.000196021
0.000196372
0.000196362
0.000196358
0.000198759
0.000198747
0.000198744
0.000202447
0.000202433
0.000202431
0.000204475
0.00020446
0.000204458
0.000198982
0.000198967
0.000198965
0.000177007
0.000176994
0.000176991
0.00012604
0.000126034
0.000126029
4.19298e-05
4.19247e-05
4.19287e-05
4.22058e-05
4.22012e-05
4.22048e-05
0.000128557
0.000128551
0.000128546
0.000186745
0.000186732
0.000186728
0.00021432
0.000214304
0.000214301
0.00022283
0.000222814
0.000222811
0.000221567
0.000221553
0.000221549
0.000217288
0.000217275
0.000217271
0.000213916
0.000213906
0.000213901
0.000212798
0.000212793
0.000212787
0.000213705
0.000213705
0.0002137
0.000215829
0.000215832
0.000215828
0.00021833
0.000218335
0.000218331
0.000220594
0.000220601
0.000220596
0.000222262
0.000222269
0.000222266
0.000223178
0.000223185
0.000223182
0.000223179
0.000223187
0.000223184
0.00022227
0.000222277
0.000222273
0.00022061
0.000220617
0.000220612
0.000218352
0.000218357
0.000218353
0.000215856
0.000215859
0.000215856
0.000213741
0.00021374
0.000213736
0.000212844
0.000212838
0.000212832
0.000213971
0.000213961
0.000213955
0.000217346
0.000217333
0.000217329
0.000221626
0.000221612
0.000221608
0.00022289
0.000222874
0.000222871
0.000214378
0.000214362
0.000214359
0.000186794
0.000186781
0.000186777
0.000128584
0.000128578
0.000128573
4.22089e-05
4.22042e-05
4.22079e-05
4.17237e-05
4.17206e-05
4.17229e-05
0.00013013
0.000130124
0.00013012
0.000195574
0.000195561
0.000195556
0.000229324
0.000229308
0.000229304
0.000241569
0.000241552
0.000241548
0.000241617
0.000241601
0.000241597
0.000236943
0.000236929
0.000236923
0.000232486
0.000232474
0.000232469
0.000230368
0.000230362
0.000230356
0.00023068
0.00023068
0.000230674
0.000232595
0.0002326
0.000232595
0.000235127
0.000235134
0.000235128
0.000237512
0.000237519
0.000237515
0.000239295
0.000239304
0.000239301
0.000240283
0.000240292
0.000240289
0.000240285
0.000240294
0.000240291
0.000239305
0.000239313
0.00023931
0.00023753
0.000237538
0.000237533
0.000235152
0.000235159
0.000235154
0.000232627
0.000232632
0.000232627
0.000230722
0.000230722
0.000230716
0.000230422
0.000230416
0.000230409
0.000232551
0.00023254
0.000232533
0.000237012
0.000236998
0.000236993
0.000241687
0.000241672
0.000241667
0.000241638
0.000241621
0.000241617
0.00022939
0.000229373
0.000229369
0.000195627
0.000195614
0.00019561
0.000130158
0.000130152
0.000130148
4.17265e-05
4.17234e-05
4.17257e-05
4.01423e-05
4.01413e-05
4.01417e-05
0.000130685
0.000130678
0.000130675
0.000203291
0.000203277
0.000203272
0.000243674
0.000243656
0.000243652
0.000260363
0.000260344
0.00026034
0.000262363
0.000262346
0.00026234
0.000257604
0.000257588
0.000257582
0.000252015
0.000252003
0.000251996
0.000248661
0.000248655
0.000248647
0.000248132
0.000248132
0.000248125
0.000249669
0.000249674
0.000249669
0.000252143
0.00025215
0.000252145
0.00025461
0.000254619
0.000254615
0.0002565
0.00025651
0.000256507
0.000257555
0.000257566
0.000257563
0.000257558
0.000257568
0.000257566
0.000256511
0.000256521
0.000256517
0.000254632
0.000254641
0.000254636
0.000252173
0.00025218
0.000252175
0.000249707
0.000249712
0.000249707
0.000248181
0.000248181
0.000248174
0.000248725
0.000248719
0.000248711
0.000252093
0.00025208
0.000252074
0.000257687
0.000257671
0.000257665
0.000262446
0.000262428
0.000262423
0.000260443
0.000260424
0.00026042
0.000243747
0.000243729
0.000243725
0.000203348
0.000203334
0.00020333
0.000130714
0.000130707
0.000130703
4.01445e-05
4.01435e-05
4.01439e-05
3.98757e-05
3.98751e-05
3.98753e-05
0.000129366
0.000129359
0.000129356
0.000208544
0.00020853
0.000208526
0.000256213
0.000256194
0.000256189
0.000278308
0.000278288
0.000278283
0.00028321
0.00028319
0.000283184
0.000278968
0.00027895
0.000278943
0.000272348
0.000272335
0.000272327
0.000267509
0.000267503
0.000267495
0.000265796
0.000265796
0.000265789
0.000266688
0.000266693
0.000266688
0.000268947
0.000268955
0.00026895
0.000271424
0.000271434
0.000271429
0.00027339
0.000273401
0.000273398
0.000274507
0.000274519
0.000274517
0.00027451
0.000274522
0.00027452
0.000273402
0.000273413
0.000273411
0.000271449
0.000271459
0.000271454
0.000268983
0.00026899
0.000268986
0.000266732
0.000266737
0.000266732
0.000265854
0.000265853
0.000265847
0.000267586
0.000267579
0.000267571
0.000272443
0.000272428
0.000272421
0.000279068
0.00027905
0.000279043
0.000283309
0.000283288
0.000283282
0.0002784
0.00027838
0.000278375
0.000256294
0.000256275
0.000256271
0.000208606
0.000208592
0.000208587
0.000129395
0.000129388
0.000129385
3.98778e-05
3.98771e-05
3.98773e-05
4.32947e-05
4.32907e-05
4.32939e-05
0.000126279
0.000126273
0.000126269
0.000209889
0.000209876
0.00020987
0.000265126
0.000265108
0.000265101
0.000293547
0.000293526
0.000293519
0.000302454
0.000302433
0.000302425
0.000299658
0.000299639
0.00029963
0.000292427
0.000292412
0.000292404
0.000285992
0.000285986
0.000285977
0.000282722
0.000282722
0.000282715
0.000282602
0.000282608
0.000282602
0.000284399
0.000284409
0.000284403
0.000286755
0.000286767
0.000286762
0.00028874
0.000288753
0.00028875
0.000289898
0.000289912
0.00028991
0.000289902
0.000289916
0.000289914
0.000288755
0.000288767
0.000288765
0.000286784
0.000286796
0.000286791
0.000284441
0.00028445
0.000284445
0.000282654
0.00028266
0.000282654
0.000282791
0.000282791
0.000282783
0.000286085
0.000286077
0.000286068
0.00029254
0.000292525
0.000292516
0.000299778
0.000299758
0.00029975
0.00030257
0.000302548
0.000302541
0.000293653
0.000293632
0.000293625
0.000265216
0.000265198
0.000265192
0.000209953
0.00020994
0.000209935
0.000126308
0.000126302
0.000126299
4.32976e-05
4.32936e-05
4.32968e-05
4.59088e-05
4.58997e-05
4.59078e-05
0.000122969
0.000122962
0.00012296
0.000209207
0.000209196
0.000209189
0.000271431
0.000271415
0.000271406
0.000306471
0.00030645
0.00030644
0.000320074
0.000320052
0.000320042
0.0003195
0.00031948
0.000319469
0.000312146
0.00031213
0.00031212
0.000304125
0.000304119
0.000304109
0.000298967
0.000298968
0.00029896
0.000297439
0.000297446
0.00029744
0.000298486