/*--------------------------------*- C++ -*----------------------------------*\
  =========                 |
  \\      /  F ield         | OpenFOAM: The Open Source CFD Toolbox
   \\    /   O peration     | Website:  https://openfoam.org
    \\  /    A nd           | Version:  6
     \\/     M anipulation  |
\*---------------------------------------------------------------------------*/
FoamFile
{
    version     2.0;
    format      ascii;
    class       volVectorField;
    location    "0";
    object      U;
}
// * * * * * * * * * * * * * * * * * * * * * * * * * * * * * * * * * * * * * //

dimensions      [0 1 -1 0 0 0 0];

internalField   nonuniform List<vector> 
3240
(
(0.063203 1.38715e-10 7.7699e-12)
(0.0632025 -2.37757e-09 1.8452e-10)
(0.0632027 2.30941e-09 -2.44996e-10)
(0.0790072 -1.98075e-10 -6.63706e-11)
(0.079005 -2.23491e-10 4.47803e-10)
(0.0790047 5.64355e-10 -3.75984e-10)
(0.0916724 -1.40493e-09 -7.25476e-11)
(0.0916704 3.97797e-09 4.39157e-10)
(0.0916701 -2.52328e-09 -3.66208e-10)
(0.100201 -1.64312e-09 -1.06111e-10)
(0.1002 4.95397e-09 4.31988e-10)
(0.100199 -3.27148e-09 -3.26013e-10)
(0.106793 -3.1212e-09 -1.37993e-10)
(0.106792 7.34179e-09 4.18064e-10)
(0.106791 -4.17307e-09 -2.80593e-10)
(0.112177 -4.52991e-09 -1.25303e-10)
(0.112175 8.97583e-09 3.94719e-10)
(0.112175 -4.38732e-09 -2.69735e-10)
(0.116768 -6.22837e-09 -1.41829e-10)
(0.116767 1.13489e-08 3.75828e-10)
(0.116766 -5.05448e-09 -2.34014e-10)
(0.120842 -7.1876e-09 -1.82146e-10)
(0.120841 1.21693e-08 3.62921e-10)
(0.12084 -4.93662e-09 -1.79787e-10)
(0.124569 -6.54903e-09 -2.41577e-10)
(0.124569 1.14414e-08 3.03055e-10)
(0.124568 -4.8826e-09 -6.13339e-11)
(0.128027 -5.26502e-09 -2.20693e-10)
(0.128028 8.87896e-09 1.7367e-10)
(0.128027 -3.62623e-09 4.73511e-11)
(0.131195 -4.24879e-09 -2.00068e-10)
(0.131195 6.19129e-09 6.65063e-11)
(0.131195 -1.94694e-09 1.31162e-10)
(0.133973 -3.76529e-09 -2.07259e-10)
(0.133973 4.52326e-09 5.81723e-11)
(0.133972 -7.63906e-10 1.51464e-10)
(0.136224 -2.95529e-09 -2.22977e-10)
(0.136224 3.27598e-09 5.16587e-11)
(0.136224 -3.40575e-10 1.7128e-10)
(0.137832 -1.86641e-09 -2.0226e-10)
(0.137832 2.11373e-09 1.56371e-11)
(0.137832 -2.60444e-10 1.86649e-10)
(0.138711 -4.42458e-10 -1.76289e-10)
(0.138711 5.7082e-10 -1.14922e-11)
(0.138711 -1.41339e-10 1.87781e-10)
(0.138711 5.19167e-10 -1.75174e-10)
(0.138712 -7.12048e-10 -1.3043e-11)
(0.138711 1.84893e-10 1.88201e-10)
(0.137833 1.93223e-09 -2.00148e-10)
(0.137833 -2.22903e-09 1.37552e-11)
(0.137833 2.85854e-10 1.86412e-10)
(0.136226 2.94337e-09 -2.20233e-10)
(0.136226 -3.3711e-09 4.80447e-11)
(0.136226 4.0493e-10 1.72384e-10)
(0.133975 3.76193e-09 -2.06596e-10)
(0.133975 -4.51989e-09 4.52702e-11)
(0.133975 7.78337e-10 1.53151e-10)
(0.131198 4.22618e-09 -1.92516e-10)
(0.131199 -6.26291e-09 7.34694e-11)
(0.131198 2.05597e-09 1.2834e-10)
(0.128032 5.14315e-09 -2.19752e-10)
(0.128032 -8.93015e-09 1.86403e-10)
(0.128031 3.72393e-09 3.78799e-11)
(0.124575 6.50349e-09 -2.41632e-10)
(0.124574 -1.14265e-08 3.10574e-10)
(0.124573 4.88961e-09 -7.46833e-11)
(0.120848 7.26564e-09 -1.77075e-10)
(0.120847 -1.21527e-08 3.70624e-10)
(0.120846 4.90206e-09 -1.93174e-10)
(0.116774 6.2891e-09 -1.38518e-10)
(0.116773 -1.1307e-08 3.78354e-10)
(0.116772 5.0213e-09 -2.39657e-10)
(0.112182 4.53146e-09 -1.18491e-10)
(0.112181 -8.96583e-09 3.92702e-10)
(0.112181 4.43252e-09 -2.74151e-10)
(0.106799 3.17469e-09 -1.35361e-10)
(0.106798 -7.39515e-09 4.19002e-10)
(0.106797 4.21798e-09 -2.8356e-10)
(0.100207 1.76089e-09 -1.08677e-10)
(0.100206 -5.08616e-09 4.33841e-10)
(0.100205 3.32271e-09 -3.25163e-10)
(0.0916784 1.63709e-09 -8.12911e-11)
(0.0916764 -4.12997e-09 4.42986e-10)
(0.0916761 2.49135e-09 -3.61719e-10)
(0.0790127 4.41298e-10 -8.367e-11)
(0.0790106 1.65361e-10 4.54241e-10)
(0.0790101 -6.06003e-10 -3.70614e-10)
(0.0632048 -1.21163e-10 5.4896e-11)
(0.0632043 2.42607e-09 1.93805e-10)
(0.0632044 -2.30333e-09 -2.4854e-10)
(0.0737652 9.54498e-11 3.74218e-11)
(0.0737649 -2.68174e-09 2.65533e-10)
(0.0737648 2.64229e-09 -3.54926e-10)
(0.10496 -3.16569e-10 -1.11959e-10)
(0.104958 -3.28742e-10 8.64077e-10)
(0.104958 7.95268e-10 -7.45153e-10)
(0.119949 -1.77962e-09 -1.25276e-10)
(0.119948 4.89708e-09 8.44775e-10)
(0.119947 -3.04009e-09 -7.18848e-10)
(0.129649 -2.13386e-09 -1.99572e-10)
(0.129647 6.18635e-09 8.4464e-10)
(0.129646 -3.99788e-09 -6.44954e-10)
(0.137008 -3.98492e-09 -2.68393e-10)
(0.137008 9.1421e-09 8.23234e-10)
(0.137006 -5.10116e-09 -5.55253e-10)
(0.142954 -5.74049e-09 -2.49294e-10)
(0.142954 1.1153e-08 7.83845e-10)
(0.142953 -5.34755e-09 -5.347e-10)
(0.147987 -7.83099e-09 -2.83633e-10)
(0.147986 1.4037e-08 7.49532e-10)
(0.147985 -6.13383e-09 -4.65826e-10)
(0.152428 -8.98071e-09 -3.6077e-10)
(0.152428 1.50033e-08 7.21227e-10)
(0.152426 -5.97179e-09 -3.5924e-10)
(0.156476 -8.15234e-09 -4.7512e-10)
(0.156477 1.40602e-08 6.0251e-10)
(0.156475 -5.8961e-09 -1.27165e-10)
(0.160221 -6.51653e-09 -4.34065e-10)
(0.160222 1.08519e-08 3.43017e-10)
(0.160221 -4.3468e-09 9.15758e-11)
(0.163645 -5.28687e-09 -3.92212e-10)
(0.163646 7.58497e-09 1.30507e-10)
(0.163645 -2.31373e-09 2.58617e-10)
(0.166642 -4.69506e-09 -4.08691e-10)
(0.166643 5.56396e-09 1.12481e-10)
(0.166642 -8.86976e-10 2.99041e-10)
(0.169068 -3.66128e-09 -4.38365e-10)
(0.169069 4.02528e-09 9.9231e-11)
(0.169067 -3.84705e-10 3.3898e-10)
(0.170797 -2.29647e-09 -3.97187e-10)
(0.170799 2.58248e-09 2.73794e-11)
(0.170797 -3.0209e-10 3.69811e-10)
(0.171743 -5.43783e-10 -3.46014e-10)
(0.171744 6.96047e-10 -2.62502e-11)
(0.171743 -1.68792e-10 3.72255e-10)
(0.171743 6.38342e-10 -3.43807e-10)
(0.171745 -8.74026e-10 -2.92597e-11)
(0.171743 2.24685e-10 3.73031e-10)
(0.170798 2.37767e-09 -3.93137e-10)
(0.1708 -2.72582e-09 2.37224e-11)
(0.170798 3.35956e-10 3.69426e-10)
(0.169069 3.65562e-09 -4.32965e-10)
(0.169071 -4.13287e-09 9.23926e-11)
(0.169069 4.64409e-10 3.41111e-10)
(0.166644 4.67175e-09 -4.04496e-10)
(0.166646 -5.59758e-09 9.26503e-11)
(0.166644 9.11639e-10 3.0199e-10)
(0.163648 5.23615e-09 -3.8098e-10)
(0.16365 -7.70889e-09 1.38331e-10)
(0.163648 2.45543e-09 2.53734e-10)
(0.160226 6.3865e-09 -4.33925e-10)
(0.160227 -1.08814e-08 3.66044e-10)
(0.160225 4.46603e-09 7.32133e-11)
(0.156481 8.10785e-09 -4.7345e-10)
(0.156482 -1.40288e-08 6.19229e-10)
(0.15648 5.9034e-09 -1.53088e-10)
(0.152434 9.06772e-09 -3.50472e-10)
(0.152434 -1.49993e-08 7.36498e-10)
(0.152432 5.93252e-09 -3.85237e-10)
(0.147993 7.89926e-09 -2.77571e-10)
(0.147992 -1.3989e-08 7.53534e-10)
(0.147991 6.08976e-09 -4.75776e-10)
(0.14296 5.73676e-09 -2.36638e-10)
(0.142959 -1.11373e-08 7.79738e-10)
(0.142958 5.39713e-09 -5.43042e-10)
(0.137014 4.04416e-09 -2.63858e-10)
(0.137013 -9.20198e-09 8.2452e-10)
(0.137012 5.15388e-09 -5.60554e-10)
(0.129654 2.28033e-09 -2.05228e-10)
(0.129653 -6.34409e-09 8.48548e-10)
(0.129652 4.05999e-09 -6.43319e-10)
(0.119955 2.0788e-09 -1.42091e-10)
(0.119954 -5.08346e-09 8.52883e-10)
(0.119953 3.00211e-09 -7.10836e-10)
(0.104965 5.8997e-10 -1.423e-10)
(0.104964 2.56268e-10 8.77577e-10)
(0.104963 -8.45796e-10 -7.35336e-10)
(0.0737669 -9.95006e-11 8.14442e-11)
(0.0737666 2.73741e-09 2.78807e-10)
(0.0737666 -2.63614e-09 -3.60081e-10)
(0.0819856 3.82563e-11 9.33008e-11)
(0.0819853 -2.88517e-09 3.96759e-10)
(0.0819852 2.87545e-09 -5.27127e-10)
(0.123469 -4.40287e-10 -1.21676e-10)
(0.123468 -4.42549e-10 1.25774e-09)
(0.123467 9.93085e-10 -1.12693e-09)
(0.140366 -2.04984e-09 -1.47011e-10)
(0.140365 5.43027e-09 1.23529e-09)
(0.140364 -3.29896e-09 -1.08759e-09)
(0.151037 -2.50281e-09 -2.7085e-10)
(0.151035 6.98848e-09 1.26074e-09)
(0.151035 -4.42401e-09 -9.89651e-10)
(0.159031 -4.61062e-09 -3.8641e-10)
(0.15903 1.03448e-08 1.23793e-09)
(0.159029 -5.67286e-09 -8.52101e-10)
(0.165439 -6.60686e-09 -3.74833e-10)
(0.165439 1.26323e-08 1.19255e-09)
(0.165438 -5.95292e-09 -8.18078e-10)
(0.170836 -8.96657e-09 -4.35911e-10)
(0.170836 1.58747e-08 1.1509e-09)
(0.170834 -6.82562e-09 -7.14922e-10)
(0.175579 -1.02474e-08 -5.56936e-10)
(0.17558 1.69466e-08 1.11753e-09)
(0.175578 -6.64022e-09 -5.58926e-10)
(0.179892 -9.2913e-09 -7.31641e-10)
(0.179892 1.58652e-08 9.43523e-10)
(0.179891 -6.55873e-09 -2.11288e-10)
(0.183874 -7.39756e-09 -6.67527e-10)
(0.183875 1.22084e-08 5.46885e-10)
(0.183874 -4.81851e-09 1.2157e-10)
(0.187511 -6.03813e-09 -5.97885e-10)
(0.187512 8.55678e-09 2.17082e-10)
(0.187511 -2.54294e-09 3.7821e-10)
(0.190691 -5.38186e-09 -6.16611e-10)
(0.190692 6.30422e-09 1.81587e-10)
(0.190691 -9.51211e-10 4.37495e-10)
(0.193263 -4.18336e-09 -6.56214e-10)
(0.193264 4.56368e-09 1.59727e-10)
(0.193262 -4.00468e-10 4.96196e-10)
(0.195096 -2.61363e-09 -5.92971e-10)
(0.195098 2.91741e-09 4.87937e-11)
(0.195096 -3.21794e-10 5.4419e-10)
(0.196097 -6.20678e-10 -5.1428e-10)
(0.196099 7.87422e-10 -3.50921e-11)
(0.196097 -1.86007e-10 5.4935e-10)
(0.196097 7.28754e-10 -5.11027e-10)
(0.196099 -9.89647e-10 -3.96351e-11)
(0.196097 2.48035e-10 5.50604e-10)
(0.195097 2.70736e-09 -5.8708e-10)
(0.195099 -3.07751e-09 4.31864e-11)
(0.195097 3.5857e-10 5.43854e-10)
(0.193264 4.1875e-09 -6.48274e-10)
(0.193266 -4.67556e-09 1.49608e-10)
(0.193264 4.86748e-10 4.99723e-10)
(0.190693 5.34267e-09 -6.07533e-10)
(0.190694 -6.37108e-09 1.57465e-10)
(0.190693 9.82119e-10 4.41637e-10)
(0.187514 5.96382e-09 -5.85188e-10)
(0.187515 -8.72089e-09 2.22206e-10)
(0.187514 2.70654e-09 3.72202e-10)
(0.183878 7.26922e-09 -6.6896e-10)
(0.18388 -1.22037e-08 5.78693e-10)
(0.183878 4.94356e-09 9.44345e-11)
(0.179897 9.25145e-09 -7.27457e-10)
(0.179897 -1.58111e-08 9.71908e-10)
(0.179896 6.56032e-09 -2.51473e-10)
(0.175585 1.03395e-08 -5.41557e-10)
(0.175585 -1.69546e-08 1.14078e-09)
(0.175584 6.60071e-09 -5.97871e-10)
(0.170842 9.04081e-09 -4.27422e-10)
(0.170841 -1.58237e-08 1.15691e-09)
(0.17084 6.77766e-09 -7.29362e-10)
(0.165445 6.6016e-09 -3.5664e-10)
(0.165445 -1.26163e-08 1.18658e-09)
(0.165443 6.00965e-09 -8.29937e-10)
(0.159036 4.67441e-09 -3.80584e-10)
(0.159035 -1.04137e-08 1.24038e-09)
(0.159034 5.73439e-09 -8.59706e-10)
(0.151042 2.66646e-09 -2.80575e-10)
(0.151041 -7.16817e-09 1.2676e-09)
(0.151041 4.49716e-09 -9.87068e-10)
(0.140371 2.37709e-09 -1.71992e-10)
(0.140371 -5.63924e-09 1.2482e-09)
(0.14037 3.25904e-09 -1.07631e-09)
(0.123474 6.86116e-10 -1.65243e-10)
(0.123473 3.63311e-10 1.27883e-09)
(0.123472 -1.04887e-09 -1.11371e-09)
(0.0819873 -7.50662e-11 1.19075e-10)
(0.0819869 2.94688e-09 4.15575e-10)
(0.081987 -2.8698e-09 -5.34499e-10)
(0.08529 1.25154e-11 1.26205e-10)
(0.0852892 -2.95008e-09 4.80122e-10)
(0.0852897 2.95686e-09 -6.35813e-10)
(0.129883 -4.92519e-10 -1.13567e-10)
(0.129881 -4.98836e-10 1.43787e-09)
(0.129881 1.07681e-09 -1.31444e-09)
(0.147528 -2.1429e-09 -1.4577e-10)
(0.147526 5.56055e-09 1.41611e-09)
(0.147527 -3.33911e-09 -1.26981e-09)
(0.158605 -2.63871e-09 -2.97026e-10)
(0.158603 7.23064e-09 1.46237e-09)
(0.158603 -4.5291e-09 -1.16508e-09)
(0.166867 -4.83194e-09 -4.39208e-10)
(0.166866 1.07237e-08 1.44211e-09)
(0.166865 -5.82898e-09 -1.00362e-09)
(0.173473 -6.90864e-09 -4.3658e-10)
(0.173472 1.31097e-08 1.39843e-09)
(0.173472 -6.12516e-09 -9.62391e-10)
(0.179025 -9.35743e-09 -5.14139e-10)
(0.179024 1.64732e-08 1.3568e-09)
(0.179023 -7.02809e-09 -8.42626e-10)
(0.183897 -1.06816e-08 -6.59163e-10)
(0.183897 1.75826e-08 1.32504e-09)
(0.183896 -6.83825e-09 -6.63964e-10)
(0.188323 -9.684e-09 -8.6552e-10)
(0.188322 1.64599e-08 1.1258e-09)
(0.188322 -6.75932e-09 -2.59497e-10)
(0.192407 -7.69556e-09 -7.89066e-10)
(0.192406 1.26513e-08 6.59335e-10)
(0.192407 -4.9616e-09 1.30862e-10)
(0.196135 -6.3016e-09 -7.03486e-10)
(0.196135 8.88135e-09 2.67303e-10)
(0.196135 -2.60689e-09 4.33831e-10)
(0.199394 -5.62939e-09 -7.2055e-10)
(0.199394 6.55913e-09 2.20883e-10)
(0.199393 -9.6248e-10 5.01969e-10)
(0.202029 -4.37165e-09 -7.63742e-10)
(0.202029 4.75067e-09 1.93935e-10)
(0.202029 -3.98895e-10 5.69437e-10)
(0.203908 -2.72726e-09 -6.89123e-10)
(0.203908 3.03279e-09 6.25841e-11)
(0.203908 -3.24221e-10 6.26558e-10)
(0.204935 -6.48926e-10 -5.96203e-10)
(0.204935 8.19589e-10 -3.74706e-11)
(0.204935 -1.90932e-10 6.33642e-10)
(0.204935 7.62023e-10 -5.92458e-10)
(0.204935 -1.02982e-09 -4.27841e-11)
(0.204935 2.54382e-10 6.35169e-10)
(0.203909 2.82574e-09 -6.82376e-10)
(0.203909 -3.19802e-09 5.5966e-11)
(0.203909 3.612e-10 6.26332e-10)
(0.20203 4.38054e-09 -7.54638e-10)
(0.202031 -4.86372e-09 1.8219e-10)
(0.20203 4.86339e-10 5.73786e-10)
(0.199396 5.58542e-09 -7.09271e-10)
(0.199396 -6.63809e-09 1.94605e-10)
(0.199396 9.95016e-10 5.06909e-10)
(0.196138 6.21886e-09 -6.90148e-10)
(0.196138 -9.05842e-09 2.71048e-10)
(0.196138 2.77736e-09 4.27379e-10)
(0.192411 7.56892e-09 -7.91328e-10)
(0.192411 -1.26318e-08 6.95566e-10)
(0.192411 5.08651e-09 9.92958e-11)
(0.188328 9.64637e-09 -8.60061e-10)
(0.188327 -1.63955e-08 1.16008e-09)
(0.188327 6.75701e-09 -3.06866e-10)
(0.183903 1.07752e-08 -6.41381e-10)
(0.183902 -1.75949e-08 1.35233e-09)
(0.183902 6.79939e-09 -7.0932e-10)
(0.179031 9.43389e-09 -5.04662e-10)
(0.179029 -1.64213e-08 1.36384e-09)
(0.179029 6.97997e-09 -8.59149e-10)
(0.173479 6.90364e-09 -4.15886e-10)
(0.173478 -1.30946e-08 1.3916e-09)
(0.173477 6.1854e-09 -9.75779e-10)
(0.166873 4.89732e-09 -4.33043e-10)
(0.166871 -1.07969e-08 1.44537e-09)
(0.166871 5.8944e-09 -1.01228e-09)
(0.158611 2.80685e-09 -3.09112e-10)
(0.158609 -7.41864e-09 1.471e-09)
(0.158609 4.607e-09 -1.16198e-09)
(0.147533 2.47347e-09 -1.74626e-10)
(0.147532 -5.776e-09 1.43154e-09)
(0.147532 3.29928e-09 -1.25709e-09)
(0.129888 7.15822e-10 -1.63066e-10)
(0.129886 4.18781e-10 1.46304e-09)
(0.129886 -1.13396e-09 -1.30017e-09)
(0.0852917 -6.06274e-11 1.42381e-10)
(0.0852909 3.01429e-09 5.02347e-10)
(0.0852914 -2.95158e-09 -6.44589e-10)
(0.0922832 -3.25643e-11 1.96758e-10)
(0.0922825 -3.05867e-09 6.90023e-10)
(0.0922828 3.10877e-09 -9.06969e-10)
(0.141655 -5.79056e-10 -7.4653e-11)
(0.141653 -6.17551e-10 1.80415e-09)
(0.141653 1.248e-09 -1.71851e-09)
(0.160698 -2.31051e-09 -1.23924e-10)
(0.160697 5.73752e-09 1.78835e-09)
(0.160697 -3.35346e-09 -1.66453e-09)
(0.172549 -2.89538e-09 -3.38849e-10)
(0.172547 7.61945e-09 1.89113e-09)
(0.172547 -4.6598e-09 -1.55192e-09)
(0.181308 -5.23947e-09 -5.44532e-10)
(0.181307 1.13565e-08 1.88257e-09)
(0.181306 -6.052e-09 -1.33893e-09)
(0.18827 -7.45518e-09 -5.70599e-10)
(0.188269 1.39173e-08 1.85017e-09)
(0.188269 -6.38087e-09 -1.28038e-09)
(0.194096 -1.00569e-08 -6.88921e-10)
(0.194096 1.74891e-08 1.81432e-09)
(0.194095 -7.33653e-09 -1.12531e-09)
(0.199195 -1.14526e-08 -8.8852e-10)
(0.199194 1.86633e-08 1.79127e-09)
(0.199194 -7.14234e-09 -9.0017e-10)
(0.203816 -1.03801e-08 -1.1644e-09)
(0.203815 1.74709e-08 1.54018e-09)
(0.203815 -7.07257e-09 -3.74513e-10)
(0.208076 -8.20757e-09 -1.05979e-09)
(0.208076 1.339e-08 9.19913e-10)
(0.208076 -5.18643e-09 1.41494e-10)
(0.211962 -6.76648e-09 -9.35853e-10)
(0.211962 9.43385e-09 3.86593e-10)
(0.211962 -2.69829e-09 5.47059e-10)
(0.215358 -6.07546e-09 -9.44302e-10)
(0.215358 7.00518e-09 3.12445e-10)
(0.215357 -9.67571e-10 6.34123e-10)
(0.218102 -4.7093e-09 -9.92705e-10)
(0.218102 5.07658e-09 2.72457e-10)
(0.218102 -3.87454e-10 7.19702e-10)
(0.220058 -2.92889e-09 -8.92703e-10)
(0.220059 3.23226e-09 9.55103e-11)
(0.220058 -3.23354e-10 7.97223e-10)
(0.221126 -6.99132e-10 -7.68305e-10)
(0.221127 8.75585e-10 -4.09581e-11)
(0.221126 -1.98475e-10 8.09215e-10)
(0.221126 8.21482e-10 -7.63564e-10)
(0.221127 -1.10083e-09 -4.79165e-11)
(0.221126 2.64895e-10 8.11366e-10)
(0.220059 3.0356e-09 -8.8424e-10)
(0.220059 -3.40777e-09 8.66812e-11)
(0.220059 3.61288e-10 7.97389e-10)
(0.218103 4.72558e-09 -9.81294e-10)
(0.218104 -5.19543e-09 2.57258e-10)
(0.218103 4.77833e-10 7.26011e-10)
(0.21536 6.02655e-09 -9.29291e-10)
(0.21536 -7.10048e-09 2.80584e-10)
(0.21536 1.00243e-09 6.41291e-10)
(0.211965 6.67133e-09 -9.20643e-10)
(0.211965 -9.62788e-09 3.88517e-10)
(0.211965 2.88007e-09 5.39581e-10)
(0.20808 8.08102e-09 -1.06368e-09)
(0.20808 -1.33547e-08 9.66361e-10)
(0.20808 5.31395e-09 1.00113e-10)
(0.203821 1.03446e-08 -1.15635e-09)
(0.20382 -1.73914e-08 1.5866e-09)
(0.20382 7.06263e-09 -4.37112e-10)
(0.199201 1.15497e-08 -8.65812e-10)
(0.1992 -1.86813e-08 1.82739e-09)
(0.199199 7.10383e-09 -9.59249e-10)
(0.194102 1.01368e-08 -6.77697e-10)
(0.194101 -1.74355e-08 1.82355e-09)
(0.194101 7.28817e-09 -1.146e-09)
(0.188276 7.4507e-09 -5.45084e-10)
(0.188275 -1.39036e-08 1.84162e-09)
(0.188274 6.44643e-09 -1.29669e-09)
(0.181313 5.30702e-09 -5.38196e-10)
(0.181312 -1.14365e-08 1.88789e-09)
(0.181312 6.12371e-09 -1.34965e-09)
(0.172554 3.06932e-09 -3.56544e-10)
(0.172552 -7.82046e-09 1.90408e-09)
(0.172553 4.74589e-09 -1.54767e-09)
(0.160703 2.64431e-09 -1.60783e-10)
(0.160702 -5.96192e-09 1.80952e-09)
(0.160702 3.31406e-09 -1.64901e-09)
(0.141659 7.70379e-10 -1.35922e-10)
(0.141658 5.36922e-10 1.83807e-09)
(0.141658 -1.30662e-09 -1.70243e-09)
(0.0922849 -2.13736e-11 1.98753e-10)
(0.0922842 3.12785e-09 7.20542e-10)
(0.0922845 -3.10439e-09 -9.1912e-10)
(0.0996682 -7.78346e-11 2.71363e-10)
(0.0996677 -3.12186e-09 9.49187e-10)
(0.0996679 3.2311e-09 -1.2372e-09)
(0.15186 -6.42373e-10 1.04114e-12)
(0.151858 -7.40416e-10 2.14329e-09)
(0.151858 1.41996e-09 -2.13242e-09)
(0.172114 -2.45052e-09 -6.86608e-11)
(0.172113 5.80106e-09 2.13847e-09)
(0.172113 -3.28003e-09 -2.071e-09)
(0.184713 -3.13056e-09 -3.57112e-10)
(0.184712 7.87332e-09 2.32115e-09)
(0.184712 -4.67838e-09 -1.96371e-09)
(0.193956 -5.59747e-09 -6.39035e-10)
(0.193955 1.18116e-08 2.33631e-09)
(0.193955 -6.14822e-09 -1.69845e-09)
(0.201261 -7.92176e-09 -7.11245e-10)
(0.20126 1.45169e-08 2.3305e-09)
(0.20126 -6.51138e-09 -1.62048e-09)
(0.207346 -1.06417e-08 -8.81492e-10)
(0.207345 1.82509e-08 2.31217e-09)
(0.207345 -7.5097e-09 -1.43053e-09)
(0.212654 -1.20885e-08 -1.14311e-09)
(0.212654 1.94773e-08 2.30934e-09)
(0.212653 -7.31812e-09 -1.16281e-09)
(0.217456 -1.09529e-08 -1.49441e-09)
(0.217456 1.82333e-08 2.00952e-09)
(0.217455 -7.26216e-09 -5.13231e-10)
(0.221879 -8.59878e-09 -1.35705e-09)
(0.221879 1.39227e-08 1.22305e-09)
(0.221878 -5.32828e-09 1.36195e-10)
(0.225909 -7.14523e-09 -1.18583e-09)
(0.225909 9.85259e-09 5.30043e-10)
(0.225909 -2.74024e-09 6.53857e-10)
(0.22943 -6.45545e-09 -1.17731e-09)
(0.229431 7.36436e-09 4.18972e-10)
(0.22943 -9.49117e-10 7.60515e-10)
(0.232275 -4.9927e-09 -1.22681e-09)
(0.232275 5.33634e-09 3.61928e-10)
(0.232274 -3.65015e-10 8.64121e-10)
(0.234302 -3.09509e-09 -1.09856e-09)
(0.234302 3.3888e-09 1.34222e-10)
(0.234302 -3.14973e-10 9.64388e-10)
(0.235409 -7.40512e-10 -9.39499e-10)
(0.23541 9.20248e-10 -4.32877e-11)
(0.235409 -2.03225e-10 9.8272e-10)
(0.235409 8.71135e-10 -9.33814e-10)
(0.23541 -1.15942e-09 -5.19614e-11)
(0.235409 2.72846e-10 9.8561e-10)
(0.234302 3.20845e-09 -1.08853e-09)
(0.234303 -3.57467e-09 1.23028e-10)
(0.234302 3.54652e-10 9.65205e-10)
(0.232276 5.014e-09 -1.21328e-09)
(0.232276 -5.46455e-09 3.43226e-10)
(0.232276 4.59077e-10 8.7279e-10)
(0.229432 6.40568e-09 -1.15885e-09)
(0.229433 -7.46714e-09 3.81551e-10)
(0.229432 9.85544e-10 7.7045e-10)
(0.225912 7.04217e-09 -1.16922e-09)
(0.225912 -1.00539e-08 5.29741e-10)
(0.225912 2.93061e-09 6.45665e-10)
(0.221882 8.47148e-09 -1.36288e-09)
(0.221882 -1.38897e-08 1.28019e-09)
(0.221882 5.46201e-09 8.44724e-11)
(0.217461 1.09174e-08 -1.48347e-09)
(0.217461 -1.81444e-08 2.06889e-09)
(0.21746 7.24447e-09 -5.91961e-10)
(0.21266 1.21888e-08 -1.11567e-09)
(0.212659 -1.94982e-08 2.35494e-09)
(0.212658 7.27912e-09 -1.23609e-09)
(0.207352 1.0723e-08 -8.69093e-10)
(0.207351 -1.81959e-08 2.32385e-09)
(0.20735 7.4611e-09 -1.45515e-09)
(0.201266 7.91739e-09 -6.81567e-10)
(0.201265 -1.4504e-08 2.32046e-09)
(0.201265 6.57952e-09 -1.63917e-09)
(0.193961 5.66532e-09 -6.33375e-10)
(0.19396 -1.18953e-08 2.3444e-09)
(0.19396 6.22375e-09 -1.71101e-09)
(0.184718 3.30574e-09 -3.81379e-10)
(0.184717 -8.08183e-09 2.33933e-09)
(0.184717 4.77041e-09 -1.95814e-09)
(0.172119 2.78341e-09 -1.13198e-10)
(0.172118 -6.02877e-09 2.16585e-09)
(0.172118 3.24148e-09 -2.05306e-09)
(0.151864 8.18359e-10 -7.11604e-11)
(0.151862 6.6004e-10 2.18537e-09)
(0.151862 -1.4779e-09 -2.11462e-09)
(0.0996699 3.42673e-11 2.64096e-10)
(0.0996693 3.19579e-09 9.89284e-10)
(0.0996695 -3.22814e-09 -1.25315e-09)
(0.107489 -1.38051e-10 3.35873e-10)
(0.107489 -3.13222e-09 1.26218e-09)
(0.107489 3.31535e-09 -1.62619e-09)
(0.161257 -6.94823e-10 1.13813e-10)
(0.161256 -8.68574e-10 2.43664e-09)
(0.161256 1.59545e-09 -2.53719e-09)
(0.182517 -2.5781e-09 2.14589e-11)
(0.182516 5.78512e-09 2.44453e-09)
(0.182516 -3.13945e-09 -2.46842e-09)
(0.195855 -3.35813e-09 -3.48185e-10)
(0.195854 8.02317e-09 2.73244e-09)
(0.195854 -4.60204e-09 -2.38401e-09)
(0.205584 -5.93111e-09 -7.17308e-10)
(0.205583 1.2136e-08 2.78467e-09)
(0.205583 -6.13991e-09 -2.06885e-09)
(0.21323 -8.34062e-09 -8.54938e-10)
(0.213229 1.49634e-08 2.82362e-09)
(0.213228 -6.53922e-09 -1.97037e-09)
(0.21957 -1.11533e-08 -1.08866e-09)
(0.21957 1.88285e-08 2.83705e-09)
(0.219569 -7.57537e-09 -1.74816e-09)
(0.225083 -1.26345e-08 -1.41859e-09)
(0.225083 2.00964e-08 2.86841e-09)
(0.225082 -7.39167e-09 -1.44537e-09)
(0.230059 -1.1442e-08 -1.84885e-09)
(0.230058 1.88099e-08 2.52653e-09)
(0.230058 -7.35115e-09 -6.75123e-10)
(0.234636 -8.89243e-09 -1.67233e-09)
(0.234636 1.42955e-08 1.56442e-09)
(0.234635 -5.4088e-09 1.10751e-10)
(0.238805 -7.46107e-09 -1.44491e-09)
(0.238805 1.017e-08 6.95853e-10)
(0.238805 -2.74311e-09 7.47106e-10)
(0.242445 -6.79248e-09 -1.40937e-09)
(0.242446 7.66182e-09 5.37494e-10)
(0.242445 -9.10817e-10 8.74221e-10)
(0.245385 -5.23753e-09 -1.45471e-09)
(0.245385 5.54805e-09 4.58305e-10)
(0.245385 -3.33336e-10 9.95401e-10)
(0.24748 -3.23588e-09 -1.29536e-09)
(0.24748 3.51393e-09 1.75505e-10)
(0.24748 -3.0056e-10 1.11992e-09)
(0.248623 -7.752e-10 -1.09928e-09)
(0.248624 9.56818e-10 -4.67012e-11)
(0.248623 -2.06448e-10 1.14589e-09)
(0.248623 9.13659e-10 -1.09276e-09)
(0.248624 -1.20953e-09 -5.70728e-11)
(0.248623 2.79447e-10 1.1496e-09)
(0.24748 3.35517e-09 -1.28402e-09)
(0.24748 -3.71034e-09 1.61911e-10)
(0.24748 3.42518e-10 1.12168e-09)
(0.245386 5.26278e-09 -1.43942e-09)
(0.245386 -5.68679e-09 4.36233e-10)
(0.245386 4.31447e-10 1.00677e-09)
(0.242447 6.74267e-09 -1.38864e-09)
(0.242448 -7.76812e-09 4.93893e-10)
(0.242447 9.48768e-10 8.87587e-10)
(0.238808 7.35145e-09 -1.42683e-09)
(0.238808 -1.03745e-08 6.94372e-10)
(0.238808 2.94088e-09 7.38323e-10)
(0.234639 8.7714e-09 -1.68043e-09)
(0.234639 -1.42799e-08 1.63321e-09)
(0.234639 5.5508e-09 4.83445e-11)
(0.230063 1.14056e-08 -1.83517e-09)
(0.230063 -1.87148e-08 2.59818e-09)
(0.230062 7.32553e-09 -7.6977e-10)
(0.225088 1.27372e-08 -1.38698e-09)
(0.225088 -2.01203e-08 2.92383e-09)
(0.225087 7.35223e-09 -1.53274e-09)
(0.219576 1.12338e-08 -1.07587e-09)
(0.219575 -1.87729e-08 2.85131e-09)
(0.219574 7.52665e-09 -1.77614e-09)
(0.213235 8.33553e-09 -8.22203e-10)
(0.213234 -1.49508e-08 2.81246e-09)
(0.213233 6.60771e-09 -1.99067e-09)
(0.205589 5.99728e-09 -7.13417e-10)
(0.205588 -1.22212e-08 2.79627e-09)
(0.205588 6.21722e-09 -2.08285e-09)
(0.195859 3.53038e-09 -3.80008e-10)
(0.195858 -8.2349e-09 2.75674e-09)
(0.195858 4.69841e-09 -2.37698e-09)
(0.182521 2.90559e-09 -3.03947e-11)
(0.18252 -6.0121e-09 2.47844e-09)
(0.18252 3.10225e-09 -2.44862e-09)
(0.16126 8.62619e-10 3.14519e-11)
(0.161259 7.89957e-10 2.48792e-09)
(0.161259 -1.65239e-09 -2.51992e-09)
(0.107491 1.05448e-10 3.33419e-10)
(0.10749 3.21107e-09 1.31304e-09)
(0.107491 -3.31485e-09 -1.64614e-09)
(0.116187 -2.2222e-10 4.06175e-10)
(0.116187 -3.03339e-09 1.65663e-09)
(0.116187 3.3082e-09 -2.09535e-09)
(0.169099 -7.58093e-10 2.57428e-10)
(0.169098 -9.30393e-10 2.63775e-09)
(0.169098 1.7194e-09 -2.881e-09)
(0.191452 -2.6764e-09 1.38443e-10)
(0.191452 5.63496e-09 2.67387e-09)
(0.191452 -2.8954e-09 -2.81566e-09)
(0.205544 -3.58716e-09 -3.09499e-10)
(0.205543 8.07209e-09 3.08258e-09)
(0.205543 -4.42515e-09 -2.77308e-09)
(0.215771 -6.22459e-09 -7.68527e-10)
(0.21577 1.22921e-08 3.18891e-09)
(0.21577 -6.00544e-09 -2.42229e-09)
(0.223758 -8.6949e-09 -9.93543e-10)
(0.223758 1.52318e-08 3.29279e-09)
(0.223757 -6.45664e-09 -2.30149e-09)
(0.230349 -1.15558e-08 -1.30081e-09)
(0.230348 1.9164e-08 3.35531e-09)
(0.230348 -7.51216e-09 -2.05416e-09)
(0.236056 -1.30456e-08 -1.70194e-09)
(0.236056 2.04639e-08 3.43492e-09)
(0.236055 -7.35144e-09 -1.72739e-09)
(0.241195 -1.18138e-08 -2.20501e-09)
(0.241195 1.91408e-08 3.062e-09)
(0.241194 -7.31236e-09 -8.53607e-10)
(0.245914 -9.1226e-09 -1.99011e-09)
(0.245914 1.45349e-08 1.93342e-09)
(0.245913 -5.42015e-09 6.02226e-11)
(0.250209 -7.69504e-09 -1.69524e-09)
(0.250209 1.03687e-08 8.80275e-10)
(0.250208 -2.70881e-09 8.1305e-10)
(0.253957 -7.06526e-09 -1.62114e-09)
(0.253957 7.88083e-09 6.59234e-10)
(0.253957 -8.57588e-10 9.64401e-10)
(0.256983 -5.42734e-09 -1.6545e-09)
(0.256983 5.69806e-09 5.5101e-10)
(0.256983 -2.95012e-10 1.10223e-09)
(0.259139 -3.34376e-09 -1.46257e-09)
(0.259139 3.60019e-09 2.12223e-10)
(0.259139 -2.80097e-10 1.25042e-09)
(0.260316 -8.02759e-10 -1.22912e-09)
(0.260316 9.84412e-10 -5.5601e-11)
(0.260316 -2.0766e-10 1.2846e-09)
(0.260316 9.48236e-10 -1.222e-09)
(0.260317 -1.24956e-09 -6.74569e-11)
(0.260316 2.83921e-10 1.28916e-09)
(0.259139 3.46801e-09 -1.4504e-09)
(0.25914 -3.80688e-09 1.96395e-10)
(0.259139 3.24953e-10 1.25341e-09)
(0.256984 5.45576e-09 -1.63799e-09)
(0.256984 -5.84715e-09 5.26049e-10)
(0.256984 3.96685e-10 1.11641e-09)
(0.253959 7.0152e-09 -1.5992e-09)
(0.253959 -7.98846e-09 6.10533e-10)
(0.253959 8.97907e-10 9.81284e-10)
(0.250211 7.57957e-09 -1.67669e-09)
(0.250211 -1.05723e-08 8.78221e-10)
(0.250211 2.91201e-09 8.03886e-10)
(0.245917 9.01069e-09 -2.00049e-09)
(0.245917 -1.45399e-08 2.01299e-09)
(0.245917 5.56699e-09 -1.20268e-11)
(0.241199 1.17772e-08 -2.18877e-09)
(0.241199 -1.90476e-08 3.14476e-09)
(0.241198 7.28418e-09 -9.62894e-10)
(0.236061 1.31479e-08 -1.66749e-09)
(0.236061 -2.04905e-08 3.49963e-09)
(0.23606 7.31217e-09 -1.8271e-09)
(0.230354 1.16323e-08 -1.2883e-09)
(0.230353 -1.91097e-08 3.37236e-09)
(0.230353 7.4646e-09 -2.08505e-09)
(0.223763 8.68922e-09 -9.59817e-10)
(0.223762 -1.52198e-08 3.28173e-09)
(0.223762 6.52248e-09 -2.32247e-09)
(0.215775 6.28746e-09 -7.67791e-10)
(0.215775 -1.2377e-08 3.20467e-09)
(0.215774 6.08239e-09 -2.43691e-09)
(0.205548 3.75263e-09 -3.49274e-10)
(0.205548 -8.28145e-09 3.1135e-09)
(0.205548 4.5223e-09 -2.76453e-09)
(0.191456 2.98942e-09 8.01572e-11)
(0.191455 -5.85535e-09 2.714e-09)
(0.191456 2.8613e-09 -2.7949e-09)
(0.169103 9.18909e-10 1.6833e-10)
(0.169102 8.55451e-10 2.69722e-09)
(0.169102 -1.77461e-09 -2.86625e-09)
(0.116189 1.99285e-10 3.99622e-10)
(0.116188 3.11459e-09 1.71899e-09)
(0.116189 -3.31253e-09 -2.11827e-09)
(0.124801 -3.12065e-10 4.7464e-10)
(0.1248 -2.8757e-09 2.10067e-09)
(0.1248 3.24273e-09 -2.61302e-09)
(0.176137 -8.23264e-10 4.09115e-10)
(0.176136 -9.58755e-10 2.78282e-09)
(0.176136 1.81211e-09 -3.17696e-09)
(0.199355 -2.76608e-09 2.66567e-10)
(0.199354 5.44413e-09 2.83672e-09)
(0.199354 -2.62024e-09 -3.10723e-09)
(0.214144 -3.8083e-09 -2.54769e-10)
(0.214144 8.0506e-09 3.37369e-09)
(0.214144 -4.18707e-09 -3.11922e-09)
(0.224851 -6.49453e-09 -8.0157e-10)
(0.22485 1.23474e-08 3.54492e-09)
(0.22485 -5.79512e-09 -2.74568e-09)
(0.233171 -9.00604e-09 -1.12497e-09)
(0.23317 1.53808e-08 3.72718e-09)
(0.23317 -6.29981e-09 -2.60502e-09)
(0.240001 -1.18888e-08 -1.51131e-09)
(0.240001 1.93486e-08 3.85126e-09)
(0.24 -7.37018e-09 -2.3395e-09)
(0.245893 -1.337e-08 -1.98356e-09)
(0.245892 2.06702e-08 3.98986e-09)
(0.245892 -7.2384e-09 -1.99955e-09)
(0.251182 -1.21058e-08 -2.55251e-09)
(0.251181 1.93128e-08 3.5954e-09)
(0.251181 -7.19532e-09 -1.03864e-09)
(0.25603 -9.30857e-09 -2.2985e-09)
(0.25603 1.46836e-08 2.3105e-09)
(0.256029 -5.38527e-09 -7.7408e-12)
(0.260439 -7.8664e-09 -1.92913e-09)
(0.260439 1.04815e-08 1.07137e-09)
(0.260438 -2.65103e-09 8.55864e-10)
(0.264284 -7.29023e-09 -1.80844e-09)
(0.264284 8.04355e-09 7.76655e-10)
(0.264284 -7.95575e-10 1.03447e-09)
(0.267389 -5.57521e-09 -1.82428e-09)
(0.267389 5.80362e-09 6.34305e-10)
(0.267389 -2.54067e-10 1.18846e-09)
(0.2696 -3.43011e-09 -1.59997e-09)
(0.269601 3.66354e-09 2.39787e-10)
(0.2696 -2.58194e-10 1.36029e-09)
(0.270807 -8.23972e-10 -1.32783e-09)
(0.270807 1.00545e-09 -7.26414e-11)
(0.270807 -2.08555e-10 1.40033e-09)
(0.270807 9.75862e-10 -1.32028e-09)
(0.270808 -1.2823e-09 -8.5752e-11)
(0.270807 2.88065e-10 1.40567e-09)
(0.269601 3.55887e-09 -1.58733e-09)
(0.269601 -3.88046e-09 2.21996e-10)
(0.269601 3.06328e-10 1.36462e-09)
(0.26739 5.60644e-09 -1.80699e-09)
(0.267391 -5.96237e-09 6.06985e-10)
(0.26739 3.58863e-10 1.20539e-09)
(0.264286 7.23954e-09 -1.7862e-09)
(0.264286 -8.15131e-09 7.23784e-10)
(0.264286 8.3849e-10 1.05474e-09)
(0.260441 7.7453e-09 -1.91084e-09)
(0.260441 -1.06828e-08 1.06943e-09)
(0.260441 2.85887e-09 8.46479e-10)
(0.256033 9.20415e-09 -2.31135e-09)
(0.256033 -1.47057e-08 2.40005e-09)
(0.256032 5.53408e-09 -8.89573e-11)
(0.251185 1.2069e-08 -2.53415e-09)
(0.251185 -1.92264e-08 3.6879e-09)
(0.251185 7.16816e-09 -1.16087e-09)
(0.245897 1.34705e-08 -1.94741e-09)
(0.245897 -2.07001e-08 4.06318e-09)
(0.245896 7.19986e-09 -2.10985e-09)
(0.240006 1.19593e-08 -1.49968e-09)
(0.240006 -1.92965e-08 3.87118e-09)
(0.240005 7.32422e-09 -2.37274e-09)
(0.233175 8.99911e-09 -1.09176e-09)
(0.233175 -1.53692e-08 3.71711e-09)
(0.233174 6.36154e-09 -2.62607e-09)
(0.224854 6.55294e-09 -8.04981e-10)
(0.224854 -1.24308e-08 3.56523e-09)
(0.224854 5.87026e-09 -2.76031e-09)
(0.214148 3.96418e-09 -3.02501e-10)
(0.214148 -8.25457e-09 3.41128e-09)
(0.214148 4.28345e-09 -3.10916e-09)
(0.199358 3.061e-09 2.02794e-10)
(0.199357 -5.65571e-09 2.88237e-09)
(0.199357 2.58968e-09 -3.08609e-09)
(0.17614 9.77151e-10 3.15301e-10)
(0.176139 8.88013e-10 2.84896e-09)
(0.176139 -1.8659e-09 -3.16514e-09)
(0.124803 2.95789e-10 4.63671e-10)
(0.124802 2.95887e-09 2.17456e-09)
(0.124802 -3.2537e-09 -2.63787e-09)
(0.133326 -4.03484e-10 5.42055e-10)
(0.133325 -2.66921e-09 2.59636e-09)
(0.133325 3.1255e-09 -3.18119e-09)
(0.182754 -8.90971e-10 5.63898e-10)
(0.182754 -9.56235e-10 2.88726e-09)
(0.182754 1.87551e-09 -3.43552e-09)
(0.206598 -2.85441e-09 4.01446e-10)
(0.206598 5.23356e-09 2.94047e-09)
(0.206597 -2.32769e-09 -3.34618e-09)
(0.222028 -4.02734e-09 -1.89077e-10)