/*--------------------------------*- C++ -*----------------------------------*\
  =========                 |
  \\      /  F ield         | OpenFOAM: The Open Source CFD Toolbox
   \\    /   O peration     | Website:  https://openfoam.org
    \\  /    A nd           | Version:  6
     \\/     M anipulation  |
\*---------------------------------------------------------------------------*/
FoamFile
{
    version     2.0;
    format      ascii;
    class       volScalarField;
    location    "30";
    object      yPlus;
}
// * * * * * * * * * * * * * * * * * * * * * * * * * * * * * * * * * * * * * //

dimensions      [0 0 0 0 0 0 0];

internalField   uniform 0;

boundaryField
{
    inlet
    {
        type            calculated;
        value           uniform 0;
    }
    outlet
    {
        type            calculated;
        value           uniform 0;
    }
    roughCylinder
    {
        type            calculated;
        value           nonuniform List<scalar> 
5120
(
7.90129
20.7486
34.5589
38.5533
41.8673
43.2473
44.1106
44.234
44.1963
44.181
44.3749
44.5391
44.658
44.882
45.061
44.8865
44.1406
43.3399
43.3726
41.8881
41.7225
42.3032
42.5121
42.5489
43.0398
41.4067
41.5519
40.8148
39.9531
39.7744
39.1672
38.902
14.576
19.4624
34.0849
38.2171
41.5313
43.0131
43.8443
43.9782
44.1678
44.2602
44.5137
44.7766
44.9877
45.1153
45.1357
44.8375
44.1918
43.5123
43.5388
42.0642
42.0572
42.6758
42.8687
43.0241
43.3814
41.8505
41.8313
41.1004
40.2826
40.1208
39.5204
39.2966
7.19263
19.7043
33.4192
37.7452
41.1438
42.695
43.7124
44.0607
44.2495
44.426
44.7022
44.8182
44.8129
44.8993
44.9354
44.7357
44.1801
43.6353
43.578
42.1216
42.2283
42.8336
43.0356
43.3484
43.6721
42.422
42.3226
41.6878
40.9815
40.8575
40.2857
40.0861
6.64462
18.6041
32.7698
37.3853
40.8373
42.5827
43.6124
43.9313
44.3222
44.5693
44.8578
45.039
45.1972
45.2466
45.1578
44.8765
44.4458
43.9467
43.8201
42.4876
42.7519
43.3142
43.5509
43.9369
44.0447
42.9311
42.6723
42.0627
41.3933
41.2852
40.7196
40.5603
15.7104
18.0532
31.9337
36.8279
40.4551
42.2658
43.4936
44.0979
44.4854
44.7978
45.1073
45.2233
45.1504
45.1052
45.0547
44.9408
44.6123
44.1906
43.9589
42.7525
43.0976
43.5814
43.8845
44.3391
44.3446
43.516
43.2175
42.7236
42.1565
42.0845
41.5471
41.4068
8.99996
16.8073
31.0646
36.3324
40.088
42.1991
43.4794
44.0092
44.579
44.9233
45.2575
45.4166
45.5673
45.5753
45.4514
45.2469
44.9973
44.576
44.2833
43.2864
43.7363
44.1632
44.5487
44.9644
44.737
44.0429
43.6312
43.168
42.6302
42.566
42.0414
41.9354
10.9102
15.8443
29.8954
35.5953
39.6307
41.7914
43.2759
44.1533
44.7043
45.1469
45.5075
45.6887
45.623
45.5106
45.431
45.4102
45.2394
44.8793
44.5255
43.7045
44.1566
44.5207
44.9886
45.3496
45.0415
44.5984
44.209
43.8705
43.429
43.3977
42.9082
42.8154
12.8914
14.2609
28.6903
34.7813
39.0236
41.6358
43.23
44.0039
44.7721
45.2012
45.6181
45.8175
46.0139
46.0476
45.9528
45.8104
45.6581
45.2854
44.9271
44.3369
44.8184
45.1762
45.7201
45.9388
45.4628
45.1188
44.6804
44.3619
43.9445
43.9079
43.4414
43.3752
13.8639
13.7911
27.069
33.6918
38.3388
40.9932
42.8448
44.057
44.7631
45.3728
45.8195
46.108
46.1132
46.0095
45.9518
46.002
45.9191
45.6234
45.2712
44.8406
45.2464
45.5869
46.1719
46.2492
45.7748
45.6266
45.2773
45.0794
44.7558
44.7485
44.3268
44.269
14.7717
10.7788
25.2609
32.2604
37.2411
40.5765
42.6139
43.7159
44.7773
45.3189
45.8454
46.1281
46.4222
46.5472
46.5288
46.4287
46.3265
46.0246
45.7258
45.4932
45.882
46.2643
46.8786
46.7736
46.225
46.1279
45.7868
45.5814
45.2767
45.2489
44.8591
44.8195
16.8663
6.88351
22.932
30.5841
36.0771
39.4473
41.9217
43.6368
44.5355
45.378
45.9546
46.3795
46.4979
46.4696
46.4749
46.5908
46.5769
46.3801
46.1345
46.0003
46.2763
46.6555
47.242
46.9794
46.5169
46.5671
46.3688
46.2672
46.0595
46.0609
45.727
45.6935
19.6537
10.1919
20.2624
28.1406
34.1358
38.5759
41.2817
42.8794
44.4333
45.17
45.8428
46.2409
46.6808
46.9519
47.0481
46.9949
46.9407
46.7445
46.5806
46.5883
46.8528
47.2874
47.8514
47.4383
46.9761
47.0388
46.8782
46.731
46.5328
46.4971
46.198
46.1747
21.5338
11.5843
17.8772
25.7048
32.0941
36.438
40.0226
42.579
43.7985
45.0197
45.8068
46.4126
46.6629
46.7531
46.8593
47.0703
47.1497
47.0879
46.9923
47.0275
47.1806
47.58
48.0467
47.5186
47.1923
47.3739
47.3809
47.3156
47.2231
47.2231
46.9921
46.9764
23.0109
12.1442
14.4723
21.8435
28.8063
34.8598
38.5382
40.973
43.4294
44.5318
45.4756
46.0514
46.6889
47.1371
47.3746
47.3909
47.4082
47.3445
47.3307
47.4652
47.646
48.0922
48.505
47.913
47.6263
47.7916
47.8219
47.6745
47.5803
47.5305
47.3283
47.3167
23.0226
12.5642
9.88476
17.5221
25.0785
30.4549
36.1517
40.1859
41.9776
43.9638
45.1647
46.0876
46.5077
46.745
46.9772
47.3121
47.5143
47.6098
47.658
47.7599
47.8512
48.2068
48.4767
47.8484
47.7174
48
48.189
48.1227
48.144
48.1469
48.0242
48.0271
21.5404
12.5489
4.18335
11.6449
18.9558
27.8479
32.568
36.6344
41.0361
42.8334
44.376
45.3248
46.3267
47.0259
47.4202
47.5223
47.6209
47.6828
47.8006
48.0076
48.1734
48.573
48.7962
48.2212
48.1477
48.3874
48.5338
48.3304
48.3219
48.2512
48.1385
48.1335
19.2848
13.4389
11.1365
10.7848
9.53453
15.2049
27.6911
34.5891
37.4274
41.3269
43.457
45.0331
45.7521
46.2411
46.694
47.2266
47.5957
47.8527
48.0184
48.138
48.2126
48.4252
48.4756
47.9571
48.0167
48.3471
48.5938
48.5234
48.643
48.6674
48.6509
48.6746
16.601
10.628
8.56138
10.843
7.0044
11.7543
8.89728
24.2381
35.165
38.4623
41.5438
43.3782
45.1585
46.3136
46.9475
47.1737
47.3717
47.5438
47.7702
48.0358
48.2265
48.5337
48.6229
48.2873
48.4264
48.6873
48.7471
48.4387
48.4598
48.3447
48.2745
48.262
13.4972
11.4703
5.48596
10.8385
7.52112
10.9463
11.7558
11.5267
21.837
34.451
39.1927
42.3192
43.6133
44.5811
45.5049
46.406
47.0473
47.513
47.7752
47.8841
47.9438
47.8864
47.771
47.5291
47.7408
47.9573
47.9684
47.9049
48.088
48.1597
48.2322
48.2776
11.8611
11.0967
8.38584
9.24509
5.37222
11.552
7.05803
6.33682
8.37114
25.0431
34.0245
38.3913
42.111
44.2285
45.2041
45.6267
45.9503
46.1935
46.5165
46.868
47.078
47.3007
47.4226
47.5259
47.9031
48.05
47.5845
47.0684
46.921
46.6683
46.4972
46.4177
9.05708
3.3672
9.5351
10.3827
11.5687
5.46156
4.31989
12.1861
7.41357
9.9739
28.8525
35.6877
37.9412
39.8293
41.9811
43.6883
44.8513
45.6724
46.0227
46.0787
46.0617
45.4488
45.2464
45.2987
45.577
45.1734
44.2066
44.1428
44.3348
44.4657
44.5466
44.6177
7.87199
5.65703
7.76567
3.34518
13.2809
12.0413
14.3435
8.21682
8.27415
13.0466
7.72789
22.2343
33.5332
38.752
40.0508
40.7397
41.1832
41.3517
41.7464
42.2414
42.3312
42.6838
43.0965
43.8847
44.6016
44.3134
42.3855
41.0099
39.4363
38.3329
37.1478
36.1929
5.35124
7.72499
8.50915
7.70083
12.8763
19.3026
21.8648
20.5532
10.4251
11.1604
7.94973
14.4156
8.84955
15.4759
28.9498
34.5977
37.8456
39.7388
40.2022
39.9598
39.7192
36.9391
36.1716
34.7797
33.7777
28.8671
19.5736
15.24
16.8713
12.853
7.63531
16.1261
9.51204
11.8052
11.4245
9.99866
11.338
15.5673
19.7041
21.3951
21.3781
14.3818
10.2654
13.8215
9.82192
8.88932
7.93863
15.8659
11.4105
12.535
13.4467
13.6619
5.24649
11.7952
4.43258
12.5188
9.18328
11.5298
17.6284
17.2211
13.1195
16.8889
9.53007
9.51852
10.0054
16.2135
16.8748
16.607
16.7173
18.1774
20.5148
22.218
22.3642
20.0643
13.2075
5.03889
13.9045
9.07099
4.14867
11.2772
15.0527
15.2493
16.183
15.9948
16.2146
16.6395
15.4942
4.42941
14.5239
16.3071
13.5143
13.8507
20.2994
10.3606
11.9134
13.3721
8.91274
18.0801
20.9069
22.3621
23.1863
23.9488
24.7757
25.2659
24.8345
23.2062
21.8424
22.5477
22.856
22.03
20.0811
16.2546
9.30214
11.5674
16.7134
12.1803
17.3853
13.9689
8.69458
15.6748
19.8669
21.3208
22.8875
24.5409
26.0086
25.9665
25.837
25.6985
7.63299
18.2064
22.077
24.4813
25.9718
26.837
27.2303
27.1188
26.3939
25.3516
24.7794
24.67
24.5978
24.9772
25.8501
26.2822
26.2219
25.0556
24.0019
23.3461
23.6875
24.8943
26.7488
27.1129
27.2019
27.8712
27.9057
27.9917
27.7216
27.5348
27.2472
27.0391
6.68412
17.6106
21.8603
24.6278
26.4609
27.5421
27.9373
27.6688
26.7787
25.374
23.7936
22.9151
23.1408
24.8042
27.1118
28.3147
28.4821
28.2732
28.0711
28.0031
28.0952
28.38
28.7162
29.0122
29.2765
29.7792
29.54
29.3175
28.5129
27.5284
26.4574
25.7296
5.87455
16.5992
20.9445
23.8435
25.8348
27.0598
27.5149
27.152
25.8834
23.4384
20.0869
16.2391
11.9112
13.9633
20.5532
25.1574
27.6293
28.7663
29.2213
29.3611
29.4086
29.5159
29.4292
29.1021
28.6399
28.3735
27.3159
26.2352
24.8006
23.2169
21.6354
20.5757
5.17735
15.4134
19.6959
22.6198
24.6866
26.0186
26.5837
26.3082
25.1173
23.0246
20.6996
18.6362
17.2939
17.0546
17.0754
18.8634
21.5484
23.8488
25.3999
26.2355
26.5361
26.5066
26.2288
25.9098
25.4755
25.1172
24.4378
23.6857
22.7388
21.6748
20.5995
19.8974
4.63075
14.2942
18.4181
21.2908
23.3598
24.734
25.3669
25.1651
24.065
22.1607
19.8285
16.9781
13.1625
11.8715
15.208
18.7797
21.058
22.4711
23.4011
24.0062
24.3892
24.5969
24.6324
24.5663
24.339
24.0225
23.2861
22.3222
21.3545
20.3601
19.4583
18.8942
3.99603
12.8542
16.8132
19.617
21.6191
22.9157
23.4792
23.2022
22.0693
20.3651
18.4386
15.9654
13.9133
14.3006
15.7797
17.5551
19.5234
21.239
22.4523
23.1524
23.4489
23.4407
23.2062
22.8781
22.4826
22.0829
21.4923
20.8704
20.2462
19.5741
18.914
18.5148
3.61009
11.736
14.7859
17.2948
19.1682
20.3926
20.9577
20.8509
20.2292
19.3703
17.9202
15.1543
12.4027
12.0656
14.3748
16.9634
19.0201
20.5286
21.5007
22.0222
22.2153
22.1926
22.0627
21.8764
21.659
21.4016
21.0004
20.5193
20.0319
19.5036
18.9652
18.6406
3.79617
11.5415
13.4113
15.4069
17.1207
18.4247
19.3034
19.7752
19.8655
19.2866
17.2527
14.0552
12.8624
14.6638
16.5852
18.0814
19.3873
20.5164
21.3799
21.9325
22.2031
22.2647
22.2033
22.0661
21.8973
21.6871
21.3855
21.0073
20.5901
20.1195
19.6299
19.3539
3.89741
11.0384
12.9503
14.8575
16.6239
18.1345
19.2911
19.979
19.8824
18.5152
15.6034
13.0006
13.3239
15.1223
17.0979
18.8914
20.345
21.4527
22.242
22.7406
22.9998
23.0853
23.06
22.9513
22.7929
22.5676
22.2541
21.8607
21.4324
20.9577
20.4651
20.1962
4.14217
10.9253
13.0103
15.0498
16.9344
18.4867
19.5259
19.7525
18.7905
16.4767
13.5594
13.0242
14.9417
17.2097
19.0488
20.4529
21.6005
22.5569
23.3037
23.8246
24.1342
24.2718
24.2825
24.1911
24.0256
23.7717
23.4226
22.9927
22.5262
22.0194
21.5048
21.2344
4.35093
11.164
13.2798
15.3057
17.0637
18.3137
18.7698
18.1266
16.2795
13.7779
12.7923
14.4788
16.8447
18.8657
20.5059
21.8827
23.0333
23.9671
24.6911
25.2107
25.5443
25.7215
25.771
25.7072
25.5452
25.2677
24.8763
24.3912
23.8649
23.3061
22.7526
22.4642
4.35077
11.3733
13.4032
15.1757
16.5095
17.1066
16.6901
15.3135
13.5213
12.5644
14.0215
16.5769
18.9159
20.8198
22.3463
23.5889
24.6264
25.4962
26.204
26.7488
27.1362
27.3779
27.4854
27.4631
27.315
27.0231
26.592
26.0483
25.4503
24.8257
24.2215
23.9035
4.11922
11.2302
12.9952
14.3266
15.067
14.9402
14.0613
12.8921
12.0527
13.4282
16.2214
18.8501
21
22.7186
24.1301
25.3235
26.3395
27.1969
27.907
28.4763
28.9098
29.2105
29.3769
29.4025
29.2797
28.9872
28.5281
27.9326
27.2623
26.5662
25.9049
25.5478
3.30625
10.0474
11.6602
12.7478
13.1297
12.8521
12.2849
11.7962
13.066
15.9088
18.7343
21.1263
23.077
24.678
26.0203
27.1646
28.151
29.0024
29.7293
30.3363
30.8236
31.1864
31.414
31.4907
31.3996
31.1175
30.6447
30.0115
29.2788
28.5151
27.7968
27.3956
2.4249
2.43112
2.55415
2.65248
2.75129
3.20928
3.79968
4.72787
6.10193
7.93456
9.73515
10.9399
11.3375
11.1032
11.058
11.449
11.08
10.82
9.5087
8.63374
8.09024
7.52739
7.13396
6.80427
6.53877
6.31146
6.1061
5.9069
5.56498
5.19831
4.97483
4.49326
3.89004
3.46863
2.8879
2.39395
2.05537
1.95336
2.14238
2.6907
11.2516
11.1905
11.3737
11.6129
11.6277
12.7225
13.9787
15.1736
16.1342
16.9291
17.4469
17.7505
17.8722
17.8931
17.8126
17.6771
17.4521
17.1775
16.8325
16.5243
16.2061
15.8599
15.5102
15.1299
14.7143
14.2353
13.7046
13.1644
12.6609
12.0825
11.5572
10.7826
9.87425
9.25449
8.19162
7.22913
6.47795
6.30339
7.10507
8.74421
12.5067
12.3043
13.2356
14.1483
15.3946
16.7753
17.891
18.8655
19.5644
20.0974
20.4348
20.6472
20.7384
20.7477
20.6697
20.5386
20.3459
20.1139
19.8455
19.5549
19.237
18.8909
18.5107
18.0845
17.61
17.1079
16.5623
15.9754
15.3998
14.739
13.9662
13.0848
12.077
11.4405
10.3251
9.47214
8.55196
8.23117
9.00844
10.633
13.7484
14.1592
15.5797
16.8229
18.1958
19.4269
20.4121
21.2435
21.8647
22.3497
22.6889
22.9234
23.0531
23.1056
23.0782
22.9932
22.847
22.6519
22.4114
22.1353
21.8231
21.4715
21.0683
20.6367
20.1787
19.703
19.1912
18.6216
17.997
17.2869
16.4672
15.521
14.4088
13.2026
11.9126
11.4274
10.3161
9.90754
10.4026
11.5034
15.396
16.3514
17.9035
19.1598
20.4881
21.5907
22.5227
23.2954
23.9052
24.3884
24.7467
25.0079
25.1738
25.2662
25.2828
25.238
25.1319
24.9703
24.7541
24.4915
24.1842
23.8281
23.4481
23.0507
22.6351
22.1719
21.6571
21.0824
20.4381
19.7127
18.8887
17.9428
16.8369
15.5543
14.1323
12.8046
11.4965
11.2954
11.3806
11.5639
17.2993
18.5453
20.0182
21.2349
22.4937
23.5041
24.4012
25.1303
25.7303
26.2085
26.5792
26.8604
27.0573
27.1857
27.2456
27.2439
27.1769
27.0476
26.8554
26.6066
26.3066
25.9764
25.6407
25.2736
24.871
24.4182
23.9072
23.3331
22.6852
21.9616
21.152
20.2387
19.1924
17.9785
16.5884
15.0938
13.3852
11.8359
11.6061
11.5705
19.2353
20.5537
21.8862
23.0737
24.2415
25.1894
26.0506
26.7459
27.3388
27.8142
28.2005
28.5038
28.7355
28.9046
29.0096
29.0513
29.0243
28.9259
28.754
28.5135
28.2327
27.9291
27.6105
27.2614
26.882
26.4478
25.9532
25.3883
24.744
24.0277
23.2367
22.3608
21.3813
20.2693
19.0018
17.5436
15.901
13.9627
12.2011
11.6511
21.0445
22.3017
23.5169
24.6834
25.7578
26.6747
27.5005
28.1786
28.7692
29.2491
29.655
29.9838
30.2546
30.4645
30.6144
30.6983
30.7087
30.6364
30.4742
30.2316
29.9627
29.641
29.3311
29.0083
28.6698
28.2699
27.8136
27.269
26.6336
25.9266
25.153
24.3091
23.3853
22.3628
21.2217
19.9181
18.3992
16.6435
14.5807
12.6677
22.6583
23.7936
24.9521
26.0913
27.0932
27.9994
28.7941
29.47
30.0599
30.5508
30.9762
31.3338
31.6414
31.8908
32.0833
32.2069
32.2511
32.1978
32.029
31.7421
31.4455
31.1389
30.832
30.5136
30.1904
29.8602
29.4903
28.9877
28.3685
27.6727
26.915
26.0972
25.216
24.2617
23.2206
22.0649
20.7437
19.2
17.3889
15.4001
24.0425
25.0823
26.2327
27.3306
28.2938
29.1929
29.9663
30.6465
31.2366
31.7413
32.1845
32.5713
32.9117
33.1992
33.4309
33.5927
33.6691
33.6334
33.4572
33.1132
32.8464
32.5375
32.2348
31.9162
31.594
31.272
30.9486
30.549
29.9569
29.2751
28.5327
27.7365
26.8884
25.9847
25.0171
23.9732
22.815
21.5163
19.9619
18.3077
25.2393
26.2079
27.3829
28.4281
29.387
30.2725
31.0386
31.7218
32.314
32.8316
33.2931
33.7065
34.0771
34.3997
34.6672
34.8645
34.97
34.9491
34.7538
34.4276
34.1602
33.8594
33.5578
33.2393
32.9161
32.5948
32.285
31.958
31.4065
30.7414
30.014
29.2365
28.4143
27.5486
26.6353
25.6713
24.6279
23.5131
22.1988
20.8597
26.2493
27.213
28.4035
29.4079
30.3805
31.2486
32.0201
32.7042
33.3034
33.8329
34.3128
34.7507
35.1498
35.5046
35.8065
36.0389
36.1764
36.185
35.9931
35.6642
35.405
35.1078
34.8084
34.4906
34.168
33.8489
33.5476
33.2478
32.7298
32.0818
31.3691
30.6073
29.8054
28.9681
28.0948
27.1876
26.2241
25.2301
24.0861
22.9922
27.1227
28.1009
29.2971
30.2857
31.2735
32.1322
32.916
33.6032
34.2145
34.7563
35.2554
35.716
36.1414
36.5256
36.859
37.124
37.2957
37.3418
37.1851
36.8338
36.5874
36.2905
35.9942
35.6781
35.3586
35.0453
34.7547
34.4644
33.9423
33.3103
32.6116
31.8627
31.0756
30.2584
29.4133
28.5456
27.6379
26.7219
25.6901
24.7579
27.8854
28.8685
30.0795
31.0684
32.0731
32.9346
33.735
34.432
35.0597
35.6169
36.1359
36.618
37.0674
37.4773
37.8375
38.1304
38.3373
38.423
38.3303
37.9569
37.7154
37.4197
37.1261
36.8134
36.4999
36.1971
35.9176
35.6012
35.0597
34.4452
33.7599
33.0204
32.2423
31.4369
30.6094
29.7669
28.8963
28.0311
27.072
26.2436
28.5189
29.5504
30.7608
31.7733
32.7929
33.6714
34.4915
35.2065
35.8545
36.4307
36.9695
37.4721
37.9425
38.3734
38.7537
39.0667
39.2968
39.408
39.3606
39.0855
38.7931
38.5132
38.2173
37.9118
37.6077
37.3186
37.0401
36.6417
36.1032
35.5088
34.835
34.1002
33.3244
32.5226
31.7021
30.8723
30.0231
29.1895
28.2765
27.5183
29.0691
30.1622
31.3692
32.4168
33.4538
34.3599
35.2034
35.9434
36.6152
37.2141
37.7731
38.2954
38.7847
39.2333
39.6304
39.9636
40.2125
40.351
40.354
40.1957
39.8484
39.5821
39.2847
38.9891
38.6967
38.4172
38.1053
37.6158
37.0959
36.5217
35.8554
35.1195
34.3392
33.5327
32.71
31.8818
31.0405
30.2227
29.3367
28.6267
29.6205
30.6979
31.942
33.0104
34.0789
35.0139
35.8875
36.6559
37.3543
37.9772
38.5566
39.0974
39.6029
40.0656
40.4755
40.8221
41.0813
41.2335
41.2584
41.1523
40.9497
40.629
40.3455
40.0561
39.7723
39.4738
39.0403
38.5596
38.0598
37.4992
36.8337
36.0906
35.2993
34.481
33.6477
32.8114
31.9669
31.1515
30.2778
29.5969
30.1432
31.1912
32.4816
33.5698
34.6751
35.6414
36.548
37.3466
38.0731
38.7204
39.3191
39.8762
40.3953
40.8691
41.2923
41.6478
41.9166
42.0784
42.1154
42.0313
41.8825
41.6733
41.4031
41.1073
40.7763
40.374
39.9412
39.4862
39.0018
38.4459
37.7741
37.0181
36.2107
35.3749
34.5245
33.6722
32.8153
31.9907
31.117
30.4474
30.6032
31.6536
32.9779
34.0955
35.2363
36.2374
37.1774
38.0075
38.7616
39.4327
40.049
40.6204
41.1504
41.6357
42.0693
42.4334
42.712
42.8823
42.9265
42.8443
42.6892
42.4914
42.245
41.951
41.6116
41.2336
40.8257
40.3899
39.9152
39.3546
38.6698
37.8966
37.0698
36.2132
35.3413
34.4676
33.5913
32.7485
31.8637
31.1894
30.9955
32.0627
33.4165
34.5699
35.7443
36.7826
37.7555
38.6174
39.3989
40.0931
40.7254
41.3088
41.8491
42.3458
42.7875
43.163
43.4536
43.6382
43.6959
43.6203
43.4512
43.2526
43.013
42.7325
42.4117
42.0555
41.6683
41.2484
40.7789
40.2051
39.5027
38.7106
37.8635
36.9854
36.0907
35.1928
34.2926
33.4254
32.5205
31.8277
31.3019
32.3942
33.7739
34.9649
36.1735
37.2475
38.2531
39.1463
39.9552
40.6725
41.3195
41.9137
42.4653
42.9688
43.4201
43.8061
44.1109
44.3135
44.3916
44.331
44.1507
43.9492
43.713
43.4445
43.1409
42.8046
42.4366
42.0306
41.5619
40.9677
40.2453
39.4347
38.5694
37.6716
36.7555
35.8337
34.9084
34.0133
33.0813
32.3599
31.4982
32.6186
34.0294
35.2532
36.4944
37.6044
38.6408
39.5644
40.3994
41.1392
41.8029
42.4094
42.9671
43.4768
43.9331
44.3258
44.6404
44.858
44.958
44.9244
44.7655
44.5522
44.3159
44.0559
43.7677
43.45
43.099
42.7023
42.2266
41.6052
40.8622
40.036
39.1567
38.2435
37.3095
36.3666
35.4176
34.4942
33.5321
32.7759
31.5648
32.7122
34.1556
35.4145
36.6872
37.8295
38.8964
39.8498
40.7111
41.4754
42.1577
42.7733
43.3366
43.8491
44.3083
44.7059
45.0306
45.2669
45.3965
45.4017
45.2754
45.0442
44.8042
44.5475
44.271
43.9674
43.6266
43.2263
42.7241
42.074
41.3144
40.4782
39.5901
38.6669
37.7199
36.76
35.7904
34.841
33.8498
33.0575
31.5025
32.6699
34.1394
35.4292
36.7331
37.9095
39.0093
39.9946
40.8849
41.6744
42.3758
43.0008
43.5686
44.0827
44.543
44.9434
45.2749
45.5246
45.6772
45.7162
45.631
45.431
45.178
44.9153
44.6389
44.3369
43.9911
43.5682
43.0185
42.3407
41.5687
40.727
39.8351
38.9064
37.951
36.9789
35.9934
35.0218
34.0061
33.181
31.3262
32.5068
33.9957
35.3132
36.6464
37.8566
38.9898
40.0079
40.9277
41.7431
42.4644
43.0993
43.6707
44.1843
44.6422
45.0406
45.3731
45.6303
45.8009
45.8726
45.8353
45.6858
45.4418
45.1614
44.8656
44.5408
44.1595
43.6842
43.0856
42.3834
41.6021
40.758
39.8648
38.9335
37.9728
36.992
35.9949
35.0064
33.9734
33.1227
31.0684
32.2552
33.7571
35.0985
36.4582
37.7001
38.8639
39.912
40.8582
41.6973
42.4382
43.0869
43.6616
44.1729
44.6248
45.0159
45.3419
45.5961
45.771
45.8579
45.851
45.7457
45.5475
45.2728
44.9359
44.5518
44.0998
43.5596
42.9247
42.2036
41.4137
40.5668
39.6717
38.7372
37.7717
36.7834
35.7772
34.7747
33.73
32.859
30.7465
31.9404
33.4542
34.8182
36.2027
37.4735
38.6652
39.7409
40.7123
41.5736
42.3328
42.9934
43.5693
44.0753
44.5172
44.895
45.2064
45.4464
45.6095
45.6895
45.6822
45.5827
45.3899
45.1082
44.7494
44.3208
43.8185
43.2352
42.5684
41.8272
41.0249
40.1704
39.269
38.3282
37.3551
36.3581
35.3427
34.3271
33.2751
32.389
30.378
31.5824
33.1086
34.4952
35.9023
37.1996
38.4165
39.5171
40.5109
41.3917
42.1662
42.8361
43.4108
43.9087
44.3369
44.6967
44.9867
45.2033
45.342
45.3982
45.3697
45.2531
45.0479
44.7544
44.3741
43.9105
43.3673
42.7468
42.0537
41.294
40.4756
39.6067
38.6933
37.7408
36.7562
35.7472
34.7206
33.692
32.6362
31.7409
29.9807
31.1977
32.7359
34.1429
35.57
36.8903
38.1292
39.2516
40.2645
41.1614
41.947
42.6223
43.1961
43.6856
44.0993
44.4399
44.7068
44.8972
45.0072
45.0332
44.9737
44.826
44.5902
44.2666
43.8568
43.3636
42.7909
42.1432
41.4259
40.6446
39.8054
38.9165
37.9848
37.0156
36.0156
34.9925
33.9543
32.9162
31.8651
30.9723
29.5545
30.7826
32.3305
33.7554
35.1998
36.5405
37.799
38.9402
39.9692
40.8785
41.6724
42.3525
42.9262
43.408
43.8078
44.13
44.3744
44.539
44.6207
44.6162
44.5248
44.3446
44.0759
43.7199
43.2783
42.7545
42.1524
41.4772
40.7343
39.9296
39.069
38.159
37.2076
36.2213
35.2062
34.1708
33.1247
32.0837
31.046
30.1641
29.173
30.4147
31.9735
33.4145
34.8739
36.2308
37.5038
38.658
39.6971
40.6136
41.4114
42.0924
42.6634
43.1358
43.5214
43.8254
44.0484
44.1886
44.2435
44.2104
44.0892
43.8783
43.5785
43.1915
42.7196
42.1663
41.5361
40.8343
40.0666
39.2391
38.3579
37.4291
36.4597
35.4576
34.4301
33.3857
32.3362
31.2979
30.2763
29.4055
29.0094
30.2661
31.8346
33.2866
34.7538
36.1176
37.3949
38.5519
39.5914
40.5062
41.3002
41.975
42.5375
42.9991
43.3714
43.6598
43.8648
43.9851
44.0184
43.9619
43.8163
43.5802
43.2547
42.8421
42.3448
41.7669
41.1134
40.3897
39.6021
38.7572
37.8614
36.9212
35.9434
34.9364
33.9087
32.8695
31.8311
30.8098
29.8145
28.9659
17.8131
23.9104
36.3795
40.4301
43.6701
45.0945
45.9761
46.2074
46.4044
46.4874
46.5946
46.6085
46.3938
46.1622
46.0114
45.563
44.8616
44.7978
44.5559
43.3548
42.924
43.5668
44.1011
44.2696
43.785
43.406
42.5988
42.3148
41.5539
41.0605
40.624
40.427
14.2771
24.1319
36.0057
40.2124
43.4176
44.8686
45.7694
46.0141
46.1898
46.2931
46.5182
46.5714
46.4169
46.2408
46.1533
45.8217
45.3045
45.1776
44.8027
43.5776
43.2908
43.9121
44.399
44.4191
44.132
43.7276
43.0974
42.8808
42.2014
41.779
41.3899
41.2056
16.2838
23.5074
35.5198
39.923
43.1922
44.7586
45.7017
45.9824
46.2573
46.4675
46.6455
46.6183
46.3746
46.1661
46.0691
45.8843
45.5707
45.4473
45.0003
43.8949
43.8356
44.419
44.9359
44.8604
44.6298
44.2046
43.6321
43.3308
42.6659
42.2757
41.9047
41.7232
14.5561
23.437
35.0354
39.6504
42.9427
44.5542
45.5355
45.9029
46.2181
46.4024
46.634
46.6466
46.5017
46.3949
46.3927
46.2978
46.0932
45.877
45.3446
44.3049
44.3136
44.7516
45.3113
45.1832
44.9935
44.6433
44.2046
43.9751
43.3887
43.0597
42.7365
42.5615
12.6859
22.565
34.3673
39.2387
42.6526
44.4323
45.5342
45.9813
46.3791
46.6895
46.8952
46.8462
46.6517
46.5162
46.4868
46.483
46.3909
46.1787
45.6549
44.799
44.9098
45.2697
45.9098
45.7674
45.4917
45.2018
44.7717
44.482
43.9137
43.6218
43.3188
43.146
8.91822
22.0889
33.6678
38.8202
42.3524
44.2366
45.3997
45.9701
46.4652
46.7296
46.9406
46.9465
46.8796
46.8614
46.9354
46.9807
46.9188
46.6167
46.0881
45.3401
45.3877
45.6381
46.3366
46.2072
45.872
45.7301
45.3955
45.184
44.6897
44.4496
44.1901
44.0231
10.0758
21.0032
32.721
38.2015
41.9424
44.0527
45.4167
46.1276
46.672
47.0513
47.2895
47.2804
47.187
47.134
47.1517
47.2235
47.1949
46.9121
46.4748
45.9312
45.9724
46.2134
46.9646
46.8618
46.3877
46.3371
45.971
45.7232
45.2508
45.0504
44.8101
44.6482
12.3514
20.459
31.7428
37.5427
41.5092
43.8234
45.2836
46.1051
46.7816
47.1429
47.3676
47.4192
47.4606
47.5248
47.6519
47.7465
47.698
47.3426
46.9517
46.5122
46.4214
46.6441
47.4116
47.3482
46.8041
46.9203
46.6343
46.4669
46.063
45.9049
45.7018
45.5489
13.9977
19.3892
30.4749
36.624
40.8978
43.4936
45.2116
46.25
46.9751
47.4313
47.743
47.8394
47.8699
47.8897
47.9349
48.0082
47.951
47.6393
47.3848
47.1288
47.0088
47.2915
48.0506
48.0157
47.3619
47.546
47.2087
47.0206
46.6429
46.5211
46.3346
46.191
17.7536
18.9643
29.1424
35.5769
40.1693
43.1007
44.9972
46.1244
46.9898
47.4981
47.8117
47.96
48.1178
48.2544
48.4169
48.5125
48.4335
48.0844
47.8796
47.6834
47.4446
47.7656
48.4912
48.4929
47.8171
48.1396
47.8881
47.7764
47.4621
47.3731
47.2183
47.0876
21.516
18.5363
27.5542
34.2253
39.1953
42.4674
44.6654
46.1086
47.0948
47.692
48.1342
48.3909
48.5608
48.6539
48.7188
48.7675
48.6766
48.3993
48.3347
48.2727
48.0469
48.4445
49.113
49.1238
48.406
48.7397
48.4338
48.306
48.0229
47.963
47.8229
47.7063
25.7051
18.8839
25.8911
32.5634
37.8779
41.6573
44.2088
45.7761
46.8982
47.6354
48.1259
48.4158
48.6963
48.9138
49.1153
49.2148
49.1357
48.8633
48.8167
48.7515
48.4615
48.8953
49.5045
49.5412
48.8675
49.2904
49.0896
49.0305
48.8057
48.7702
48.6582
48.5577
29.1182
19.632
24.143
30.6469
36.287
40.4424
43.3539
45.3834
46.7997
47.6648
48.3059
48.7649
49.0945
49.2819
49.3853
49.4332
49.3604
49.1813
49.255
49.2771
49.0583
49.5395
50.0695
50.0916
49.4423
49.8083
49.5552
49.4749
49.2841
49.2694
49.1705
49.0885
31.4341
20.8052
22.4227
28.0679
33.8802
38.7658
42.3518
44.6549
46.2247
47.3451
48.1338
48.6155
49.0223
49.3394
49.6098
49.7602
49.7479
49.6064
49.6592
49.6288
49.3962
49.8755
50.3415
50.3844
49.8349
50.2444
50.1185
50.1001
49.9661
49.9763
49.9061
49.8432
33.224
22.2111
20.9572
25.6063
31.3609
36.4401
40.4508
43.4821
45.6956
47.0698
48.0485
48.7949
49.3257
49.6433
49.8104
49.8898
49.8866
49.8456
49.9984
50.0383
49.9181
50.4115
50.8064
50.8237
50.3406
50.6444
50.4681
50.4237
50.3198
50.3441
50.2837
50.2437
33.0231
23.3581
19.4556
21.6053
26.8529
32.9329
38.2341
41.9063
44.3424
46.201
47.5417
48.3624
48.9771
49.4306
49.8027
50.0473
50.1504
50.15
50.2606
50.2366
50.1312
50.5919
50.9193
50.9633
50.6141
50.9422
50.9114
50.9251
50.8735
50.9203
50.8861
50.8637
31.6166
24.0931
18.4283
18.7382
23.0958
28.3859
33.8153
38.8389
42.8571
45.2764
46.92
48.1876
49.068
49.6046
49.8918
50.0609
50.1647
50.2589
50.4576
50.5178
50.5492
51.0006
51.2483
51.2491
50.9744
51.1451
51.0405
51.0205
50.9896
51.0434
51.0168
51.0217
29.1365
23.913
16.5958
10.3436
10.2159
17.9617
28.0377
35.0639
39.4081
43.1286
45.6871
47.1892
48.2325
48.9646
49.5309
49.9371
50.1947
50.3324
50.4769
50.4775
50.5223
50.9123
51.0582
51.0957
50.9697
51.182
51.2408
51.2853
51.2991
51.3752
51.3668
51.3846
26.2564
23.1689
14.7315
3.27993
6.99068
5.11873
15.503
22.8969
35.2781
40.4976
43.8435
46.2802
47.8461
48.8048
49.3516
49.6793
49.9128
50.1245
50.3659
50.4984
50.7063
51.0892
51.1244
51.0901
51.0157
50.992
50.879
50.8394
50.8211
50.8741
50.8553
50.8977
23.1985
21.5483
10.9245
11.3946
11.0772
5.06398
11.3228
14.4498
18.9865
34.5124
40.8832
44.0297
46.0195
47.3287
48.2687
48.9599
49.4304
49.7079
49.8762
49.9427
50.1227
50.3896
50.1926
50.1617
50.184
50.2834
50.3721
50.4349
50.4533
50.5241
50.5024
50.5434
20.1524
20.1639
9.9395
4.65703
11.5703
7.0682
12.1032
5.00884
10.6152
24.7648
35.7799
41.5223
44.6124
46.3707
47.4022
47.9893
48.3773
48.6801
48.9697
49.2521
49.6328
49.9163
49.5414
49.3682
49.3284
48.9914
48.5732
48.3605
48.1297
48.0437
47.9182
47.9363
16.1935
18.4773
12.6804
11.0044
11.7997
4.33745
12.3709
12.3448
13.1577
12.3877
29.9465
36.4136
40.2698
42.8313
44.5094
45.7438
46.5575
46.9961
47.1373
47.2508
47.4415
47.3958
46.3438
45.9465
45.8468
45.7884
45.7535
45.7378
45.5167
45.3746
45.1458
45.0783
11.3904
16.4514
3.31663
9.2159
9.02148
8.37781
13.2423
12.842
13.2162
11.4653
18.9745
30.289
36.6043
39.6038
41.5679
42.5751
43.1419
43.4692
43.7595
44.2469
44.7225
44.726
43.3767
42.566
41.2858
39.7889
36.8648
34.6439
31.7893
29.2342
26.8817
25.3872
2.45764
14.1992
4.84818
7.13854
10.9732
9.62694
5.99676
3.00206
2.72759
8.09925
8.16352
9.86314
5.11524
23.0666
28.925
33.0313
35.5147
36.4669
36.1386
35.3488
34.0772
31.7225
24.7572
17.5229
16.7049
19.0666
10.38
13.061
20.337
10.4172
15.8794
15.0706
13.419
11.3778
3.76684
8.85476
14.3456
21.2228
23.7716
22.2944
16.4
8.31273
11.5961
9.86897
14.9619
10.5143
2.81717
14.3901
5.63739
12.3515
12.0115
16.132
19.5834
18.6997
6.45102
12.9399
14.9338
18.3335
14.1419
18.6441
13.4098
14.0876
13.8471
11.1301
7.05134
11.044
9.87926
10.1257
11.3155
19.9397
26.0484
28.8062
29.7765
28.7063
22.7888
13.8627
15.1111
16.0225
15.9333
11.2888
9.31922
13.8525
5.48246
17.5061
13.7379
9.02602
6.25621
11.041
17.9769
9.48501
12.5499
16.4107
18.7387
20.8902
21.8758
22.587
2.93297
11.4196
12.1572
13.0776
12.1649
15.0807
21.4502
26.7153
29.2969
30.0685
30.4361
29.3252
25.4053
24.9799
25.1137
23.855
20.9788
18.186
15.9514
15.912
16.9169
18.8764
21.1347
23.7252
25.4529
28.114
29.2395
29.6411
29.5339
29.0648
28.6256
28.3746
5.36109
12.0483
15.7544
18.4767
18.6601
18.3576
20.6534
24.7784
28.6099
31.1907
31.8713
30.135
26.8937
26.575
27.705
29.1758
29.7935
29.9407
29.8848
29.5691
29.4618
29.6232
30.2049
30.0281
30.5964
30.0069
29.8035
29.493
29.2511
28.9118
28.4195
28.1343
3.94645
10.2145
14.2845
19.0523
22.1025
23.0427
23.9548
26.0262
28.8707
31.3751
32.2445
30.1609
25.1846
24.649
25.5397
27.6922
28.6413
29.3892
29.6325
29.7221
29.8336
30.0065
30.2423
30.2785
30.6811
30.3622
29.979
29.2294
28.1629
26.7004
25.1274
24.1684
1.24789
6.92677
8.75918
14.9864
19.7921
22.8541
24.6233
26.0856
27.4891
28.0402
26.1048
19.9963
7.52603
6.15366
5.20419
16.4913
22.2698
26.1534
28.2392
28.9884
29.1046
28.9515
28.7208
27.9265
27.4374
26.3828
25.2445
23.9589
22.4978
21.0962
19.6668
18.8719
1.07854
2.71409
3.04752
10.2233
14.0177
17.4978
19.9579
21.4736
21.9611
21.0354
17.4571
12.0381
7.4481
11.3947
15.5809
12.9666
12.3904
16.2611
20.3111
22.7116
23.8196
24.1677
24.0011
23.8397
23.8453
23.5934
23.3195
22.8871
22.4298
21.7739
21.1378
20.8266
2.63312
8.92663
9.57248
9.72138
10.6069
11.2609
11.296
10.8706
9.21461
3.24616
9.66882
6.3775
5.02735
12.755
16.0202
20.0975
22.7583
22.9797
22.9176
23.3227
23.8279
24.1594
24.3233
24.1866
23.945
23.4269
22.8137
22.0639
21.1727
20.3694
19.5945
19.1452
3.56156
11.6767
13.2415
14.68
15.2844
14.7661
13.6767
10.9179
9.96754
9.91216
6.64232
8.38797
13.8994
14.8924
13.9393
12.0233
13.3875
18.0106
21.0207
22.4495
22.9719
22.9373
22.5406
22.091
21.7663
21.393
21.0189
20.541
20.0929
19.6347
19.1904
18.9602
3.47959
11.5477
13.4433
15.3187
17.1526
18.3335
18.2892
17.6321
16.1223
14.6186
14.6197
15.8583
15.7728
16.2136
17.9413
19.883
20.4281
19.8471
20.0846
20.7983
21.3214
21.518
21.5432
21.497
21.4175
21.2589
20.9878
20.6227
20.1787
19.7461
19.3214
19.0749
2.87032
10.6724
12.1185
14.0086
15.8397
17.2045
18.1261
18.4341
18.2908
17.835
17.4662
16.9141
17.2888
17.6436
17.198
16.8186
18.1004
20.0497
21.2151
21.7971
22.0652
22.1212
22.0404
21.8954
21.7445
21.5611