/*--------------------------------*- C++ -*----------------------------------*\
  =========                 |
  \\      /  F ield         | OpenFOAM: The Open Source CFD Toolbox
   \\    /   O peration     | Website:  https://openfoam.org
    \\  /    A nd           | Version:  6
     \\/     M anipulation  |
\*---------------------------------------------------------------------------*/
FoamFile
{
    version     2.0;
    format      ascii;
    class       surfaceScalarField;
    location    "0.4";
    object      phi;
}
// * * * * * * * * * * * * * * * * * * * * * * * * * * * * * * * * * * * * * //

dimensions      [0 3 -1 0 0 0 0];

internalField   nonuniform List<scalar> 
183697
(
8.72299e-07
-8.97046e-08
-9.60126e-10
9.64998e-08
8.67271e-07
-7.26539e-08
-7.51559e-10
7.84338e-08
8.63825e-07
-5.53353e-08
-9.28939e-10
5.97102e-08
8.62058e-07
-3.79017e-08
-1.12015e-09
4.07892e-08
8.60937e-07
-2.04125e-08
-2.97811e-10
2.18309e-08
8.59337e-07
-2.74605e-09
1.58321e-09
2.76308e-09
8.58112e-07
1.49723e-08
2.27543e-09
-1.60225e-08
8.58887e-07
3.27707e-08
1.02969e-09
-3.4576e-08
8.62127e-07
5.07422e-08
-5.47071e-10
-5.34354e-08
8.671e-07
6.90747e-08
-1.05529e-09
-7.29922e-08
8.73245e-07
8.78029e-08
-9.91415e-10
-9.29562e-08
8.80302e-07
1.06636e-07
-4.1201e-10
-1.13281e-07
8.87538e-07
1.26449e-07
4.49327e-10
-1.34135e-07
8.94488e-07
1.47028e-07
1.0366e-09
-1.55015e-07
9.01651e-07
1.67252e-07
9.76483e-10
-1.75391e-07
9.10538e-07
1.8657e-07
6.99111e-10
-1.96157e-07
2.05833e-07
6.87338e-10
-2.17297e-07
8.45245e-07
-8.09781e-08
4.67247e-10
8.37526e-07
-6.51187e-08
1.84055e-10
8.32265e-07
-4.95772e-08
-4.97439e-10
8.29858e-07
-3.40447e-08
-1.4497e-09
8.2807e-07
-1.83449e-08
-2.79664e-10
8.25063e-07
-2.47589e-09
2.73714e-09
8.22904e-07
1.34641e-08
3.66753e-09
8.2435e-07
2.96265e-08
1.69743e-09
8.28759e-07
4.62301e-08
1.03098e-10
8.35518e-07
6.31677e-08
-8.51423e-10
8.42916e-07
8.0535e-08
-1.30733e-10
8.51027e-07
9.79229e-08
6.02152e-10
8.62458e-07
1.15614e-07
-5.9556e-10
8.76513e-07
1.33779e-07
-8.06529e-10
8.9118e-07
1.52405e-07
1.8044e-10
9.06138e-07
1.71288e-07
3.23911e-10
1.90251e-07
6.66671e-10
8.33005e-07
-7.62708e-08
-1.36799e-09
8.30278e-07
-6.13414e-08
-1.04981e-09
8.28115e-07
-4.62204e-08
-1.19443e-09
8.27637e-07
-3.11675e-08
-2.39893e-09
8.26704e-07
-1.61284e-08
-1.28389e-09
8.22052e-07
-1.03793e-09
3.21419e-09
8.16796e-07
1.3868e-08
4.85246e-09
8.16052e-07
2.87035e-08
1.66628e-09
8.19815e-07
4.38763e-08
-1.40851e-09
8.25817e-07
5.94735e-08
-2.3076e-09
8.32561e-07
7.5363e-08
-1.57187e-09
8.3957e-07
9.14538e-08
-5.4045e-10
8.47551e-07
1.07632e-07
1.35926e-12
8.56932e-07
1.23837e-07
5.60422e-10
8.68654e-07
1.40103e-07
5.8141e-10
8.8228e-07
1.56853e-07
8.08892e-10
1.73976e-07
1.13213e-09
8.26886e-07
-6.9801e-08
-1.74772e-10
8.21608e-07
-5.61041e-08
4.0488e-11
8.18045e-07
-4.24608e-08
-1.96482e-10
8.16242e-07
-2.88758e-08
-4.88619e-10
8.1482e-07
-1.5238e-08
5.32084e-10
8.12839e-07
-1.40457e-09
2.34717e-09
8.11869e-07
1.24998e-08
2.33812e-09
8.13624e-07
2.64746e-08
4.74322e-10
8.18087e-07
4.05993e-08
-1.18645e-09
8.24183e-07
5.49606e-08
-1.58251e-09
8.31304e-07
6.95751e-08
-1.33312e-09
8.39282e-07
8.42355e-08
-7.60047e-10
8.47434e-07
9.94947e-08
-1.4716e-11
8.55353e-07
1.15384e-07
5.34603e-10
8.6361e-07
1.31182e-07
6.643e-10
8.73347e-07
1.46614e-07
5.0214e-10
1.61966e-07
3.38426e-10
8.02472e-07
-6.01085e-08
1.11621e-09
7.9326e-07
-4.77598e-08
8.68013e-10
7.87213e-07
-3.63395e-08
-7.39019e-11
7.84522e-07
-2.50159e-08
-1.16939e-09
7.82349e-07
-1.33398e-08
2.74988e-10
7.79233e-07
-1.32835e-09
3.03961e-09
7.7777e-07
1.08825e-08
3.08055e-09
7.8023e-07
2.3358e-08
6.5607e-10
7.85369e-07
3.62299e-08
-7.68832e-10
7.92542e-07
4.92678e-08
-1.48044e-09
8.0029e-07
6.25331e-08
-7.05854e-10
8.08428e-07
7.5757e-08
3.4023e-10
8.19859e-07
8.87133e-08
-6.50206e-10
8.34491e-07
1.01901e-07
-1.14784e-09
8.50602e-07
1.15957e-07
-8.8649e-10
8.66901e-07
1.30849e-07
-5.34759e-10
1.46404e-07
-4.51156e-10
7.88367e-07
-5.49668e-08
-9.25798e-10
7.84853e-07
-4.37022e-08
-5.43948e-10
7.82415e-07
-3.30549e-08
-8.46573e-10
7.81636e-07
-2.24259e-08
-1.81058e-09
7.79791e-07
-1.14897e-08
-5.0054e-12
7.75127e-07
-3.26385e-10
3.66158e-09
7.71517e-07
1.08457e-08
3.64709e-09
7.72526e-07
2.20724e-08
2.76612e-10
7.77232e-07
3.36163e-08
-2.09242e-09
7.83588e-07
4.53602e-08
-2.44815e-09
7.90422e-07
5.72799e-08
-1.58093e-09
7.97449e-07
6.93547e-08
-6.24988e-10
8.05409e-07
8.08063e-08
-5.32585e-11
8.15641e-07
9.18111e-08
-1.41198e-10
8.27684e-07
1.03623e-07
2.90653e-10
8.42136e-07
1.16629e-07
-2.32387e-10
1.31214e-07
3.38122e-11
7.78792e-07
-5.11033e-08
7.70282e-11
7.75902e-07
-4.08802e-08
6.72689e-11
7.737e-07
-3.08122e-08
-3.99176e-11
7.71849e-07
-2.07926e-08
2.17654e-10
7.70092e-07
-1.07392e-08
1.00593e-09
7.68831e-07
-5.89844e-10
1.52466e-09
7.69089e-07
9.60794e-09
9.79446e-10
7.71521e-07
1.98234e-08
-1.82913e-10
7.7604e-07
3.01628e-08
-1.06564e-09
7.82126e-07
4.06399e-08
-1.36582e-09
7.89358e-07
5.12677e-08
-1.21913e-09
7.97463e-07
6.21842e-08
-9.3475e-10
8.06032e-07
7.29399e-08
-7.03091e-10
8.14859e-07
8.34038e-08
-4.19533e-10
8.24051e-07
9.43655e-08
6.61961e-11
8.35126e-07
1.05612e-07
-5.82573e-11
1.18214e-07
2.98571e-10
7.45753e-07
-4.52811e-08
-4.95408e-10
7.41617e-07
-3.63516e-08
-3.9221e-10
7.39203e-07
-2.73274e-08
-1.07072e-09
7.38799e-07
-1.8236e-08
-2.15287e-09
7.36975e-07
-9.12751e-09
2.12499e-10
7.32721e-07
-1.91592e-10
3.85598e-09
7.30563e-07
8.46895e-09
3.29609e-09
7.33245e-07
1.70617e-08
8.03043e-11
7.39338e-07
2.59044e-08
-1.83516e-09
7.46757e-07
3.50537e-08
-1.83285e-09
7.5462e-07
4.44358e-08
-1.03077e-09
7.63083e-07
5.42978e-08
-5.76789e-10
7.71645e-07
6.42241e-08
1.54127e-10
7.81622e-07
7.36645e-08
-2.3765e-10
7.91879e-07
8.3837e-08
2.71116e-10
8.02241e-07
9.42176e-08
1.03205e-09
1.03922e-07
-1.20314e-10
6.45568e-07
-4.05575e-08
1.0807e-10
6.42424e-07
-3.33084e-08
1.0123e-10
6.40678e-07
-2.54752e-08
-1.06682e-10
6.39925e-07
-1.73147e-08
-1.68321e-10
6.38605e-07
-9.06683e-09
1.25961e-09
6.3667e-07
-8.38358e-10
2.5823e-09
6.36358e-07
7.2569e-09
1.52402e-09
6.38826e-07
1.51986e-08
-6.04895e-10
6.43377e-07
2.31623e-08
-1.80966e-09
6.48996e-07
3.12608e-08
-1.82588e-09
6.55248e-07
3.95328e-08
-1.34894e-09
6.61981e-07
4.83285e-08
-7.63148e-10
6.69143e-07
5.73731e-08
-3.1127e-10
6.77262e-07
6.57691e-08
-2.23721e-10
6.85781e-07
7.4916e-08
4.01777e-10
6.94445e-07
8.48333e-08
7.20976e-10
9.36249e-08
5.88039e-10
5.91329e-07
-3.37471e-08
4.36368e-10
5.87379e-07
-2.91199e-08
-2.38498e-10
5.85585e-07
-2.25549e-08
-1.12579e-09
5.85053e-07
-1.50426e-08
-1.73979e-09
5.83259e-07
-7.56054e-09
2.87672e-10
5.80297e-07
-5.15551e-10
2.63901e-09
5.79493e-07
6.20608e-09
1.85479e-09
5.82118e-07
1.28579e-08
-2.84063e-10
5.86812e-07
1.97755e-08
-1.3078e-09
5.92615e-07
2.67151e-08
-1.25714e-09
5.98771e-07
3.38754e-08
-4.98331e-10
6.05817e-07
4.19709e-08
-6.88517e-10
6.12414e-07
5.07347e-08
4.16488e-11
6.187e-07
5.82923e-08
1.19009e-09
6.28999e-07
6.42511e-08
3.66613e-10
6.44486e-07
7.01502e-08
-8.04424e-10
7.70618e-08
-1.45562e-09
5.64849e-07
-2.89137e-08
-1.66879e-10
5.60223e-07
-2.4841e-08
3.46977e-10
5.57215e-07
-1.96201e-08
7.33235e-11
5.56283e-07
-1.36985e-08
-4.12217e-10
5.54867e-07
-7.51642e-09
1.37236e-09
5.52456e-07
-1.23e-09
3.12548e-09
5.51901e-07
5.07609e-09
1.68529e-09
5.54454e-07
1.12078e-08
-9.0364e-10
5.58888e-07
1.73849e-08
-2.04351e-09
5.64043e-07
2.34512e-08
-1.89107e-09
5.69486e-07
2.95085e-08
-1.07554e-09
5.75282e-07
3.65795e-08
-4.05045e-10
5.81268e-07
4.46602e-08
8.84416e-11
5.87244e-07
5.20361e-08
2.80486e-10
5.94037e-07
5.71715e-08
2.86809e-10
6.03432e-07
6.11603e-08
-4.05177e-10
6.61999e-08
-5.02586e-10
5.28274e-07
-1.96575e-08
9.57315e-10
5.16812e-07
-1.46982e-08
1.32008e-09
5.07989e-07
-1.13563e-08
5.58887e-10
5.03179e-07
-8.55063e-09
-3.38039e-10
5.00448e-07
-5.36837e-09
5.83243e-10
4.98835e-07
-1.34208e-09
1.72442e-09
4.99455e-07
3.60669e-09
8.50053e-10
5.01618e-07
9.17207e-09
-1.27093e-10
5.05532e-07
1.45965e-08
-1.12625e-09
5.09673e-07
1.98689e-08
-5.58205e-10
5.13662e-07
2.47543e-08
7.65197e-10
5.21737e-07
2.86276e-08
-1.2307e-10
5.34738e-07
3.26318e-08
-9.73136e-10
5.50215e-07
3.79625e-08
-1.40277e-09
5.64556e-07
4.41135e-08
-1.28329e-09
5.76462e-07
5.02787e-08
-1.024e-09
5.65707e-08
-5.92135e-10
4.84508e-07
-1.59836e-08
-4.52343e-10
4.81976e-07
-1.20346e-08
-1.31811e-10
4.80604e-07
-9.52838e-09
-4.56145e-10
4.80357e-07
-7.36009e-09
-9.43667e-10
4.78661e-07
-4.68057e-09
1.00856e-09
4.75567e-07
-1.13088e-09
2.88299e-09
4.74407e-07
3.24979e-09
1.51689e-09
4.76195e-07
8.12885e-09
-7.45271e-10
4.79719e-07
1.27988e-08
-1.72622e-09
4.83678e-07
1.72892e-08
-1.37902e-09
4.87571e-07
2.14257e-08
-5.64086e-10
4.92147e-07
2.41879e-08
-1.36462e-10
4.98322e-07
2.66633e-08
-2.06741e-10
5.06172e-07
3.06264e-08
-5.14086e-10
5.14594e-07
3.6097e-08
-4.04935e-10
5.23382e-07
4.20196e-08
-5.29085e-10
4.80997e-08
-1.41898e-10
4.6064e-07
-1.39815e-08
3.43216e-10
4.59269e-07
-1.07032e-08
3.98797e-11
4.58281e-07
-8.16425e-09
-3.76009e-10
4.57246e-07
-5.90671e-09
-4.18721e-10
4.55796e-07
-3.54315e-09
3.12597e-10
4.54445e-07
-5.66622e-10
7.86854e-10
4.54347e-07
3.11388e-09
2.34637e-10
4.56025e-07
6.99845e-09
-5.47777e-10
4.5919e-07
1.05469e-08
-9.12962e-10
4.63459e-07
1.3851e-08
-8.31108e-10
4.68547e-07
1.70313e-08
-6.93849e-10
4.73743e-07
1.97049e-08
-7.12413e-10
4.78578e-07
2.24053e-08
-5.77418e-10
4.83698e-07
2.59233e-08
-4.16987e-10
4.89638e-07
3.0405e-08
-2.48068e-10
4.96745e-07
3.53027e-08
-3.89632e-10
4.06026e-08
-3.97341e-10
4.07784e-07
-1.07994e-08
-1.21539e-10
4.05426e-07
-8.3396e-09
-5.30035e-12
4.0427e-07
-6.50826e-09
-5.00223e-10
4.04328e-07
-4.86689e-09
-1.09831e-09
4.03221e-07
-3.04607e-09
6.09922e-10
4.01045e-07
-6.7463e-10
2.28424e-09
4.00627e-07
2.23437e-09
1.29736e-09
4.02718e-07
5.25904e-09
-3.50937e-10
4.06176e-07
8.05764e-09
-9.69677e-10
4.10066e-07
1.07211e-08
-7.5988e-10
4.14178e-07
1.33011e-08
-3.81226e-10
4.18546e-07
1.55005e-08
-1.63617e-10
4.23283e-07
1.779e-08
-1.22109e-10
4.28701e-07
2.07378e-08
-2.32328e-10
4.34677e-07
2.45769e-08
-1.47872e-10
4.41601e-07
2.8744e-08
-3.65968e-10
3.35643e-08
-2.44833e-11
3.87386e-07
-8.66e-09
4.80667e-10
3.85579e-07
-6.81806e-09
2.85478e-10
3.84481e-07
-5.27699e-09
-1.33906e-10
3.83818e-07
-3.90527e-09
-2.97847e-10
3.82844e-07
-2.52968e-09
4.57002e-10
3.81822e-07
-4.51881e-10
7.99518e-10
3.81787e-07
2.27878e-09
-9.64463e-12
3.83141e-07
4.70956e-09
-8.03914e-10
3.85695e-07
6.49987e-09
-9.9651e-10
3.89107e-07
8.11963e-09
-8.10862e-10
3.9311e-07
9.91548e-09
-6.16893e-10
3.97454e-07
1.17178e-08
-5.61112e-10
4.02001e-07
1.37657e-08
-5.22921e-10
4.07003e-07
1.62122e-08
-4.76056e-10
4.1247e-07
1.94589e-08
-3.4977e-10
4.18826e-07
2.2807e-08
-4.18426e-10
2.71838e-08
-5.15993e-10
3.32709e-07
-5.90699e-09
2.14215e-11
3.30613e-07
-4.73833e-09
1.65119e-11
3.29604e-07
-3.77354e-09
-4.94239e-10
3.29709e-07
-3.0376e-09
-9.72887e-10
3.28993e-07
-2.23285e-09
4.1936e-10
3.27479e-07
-5.77842e-10
1.63902e-09
3.27219e-07
1.65772e-09
8.8189e-10
3.2871e-07
3.45123e-09
-2.33312e-10
3.31212e-07
4.64837e-09
-6.49882e-10
3.341e-07
5.76634e-09
-5.34605e-10
3.37276e-07
7.06863e-09
-3.29095e-10
3.40846e-07
8.38968e-09
-2.42147e-10
3.44892e-07
9.97539e-09
-2.55953e-10
3.49585e-07
1.18197e-08
-3.00043e-10
3.5479e-07
1.44791e-08
-2.25842e-10
3.60732e-07
1.71369e-08
-2.71201e-10
2.11686e-08
-1.51768e-10
3.15752e-07
-3.66561e-09
2.18677e-10
3.13946e-07
-2.98146e-09
4.89423e-11
3.12768e-07
-2.32847e-09
-2.66922e-10
3.12051e-07
-1.95972e-09
-3.61144e-10
3.11156e-07
-1.6241e-09
2.86271e-10
3.10167e-07
-1.96264e-11
4.30764e-10
3.09856e-07
2.24245e-09
-2.73328e-10
3.10765e-07
3.30543e-09
-7.635e-10
3.12941e-07
3.30094e-09
-8.28444e-10
3.15939e-07
3.47187e-09
-7.03496e-10
3.19327e-07
4.25883e-09
-5.77746e-10
3.22939e-07
5.30121e-09
-5.23755e-10
3.2681e-07
6.604e-09
-5.00021e-10
3.31186e-07
7.9169e-09
-4.73316e-10
3.35926e-07
1.01698e-08
-4.30176e-10
3.41884e-07
1.15783e-08
-3.99072e-10
1.52493e-08
-7.35999e-10
2.50818e-07
-3.78488e-09
1.32108e-09
2.49273e-07
-2.91946e-09
7.99202e-10
2.48118e-07
-2.3584e-09
5.31634e-10
2.4751e-07
-1.8081e-09
8.71511e-11
2.47386e-07
-1.72762e-09
-1.07554e-10
2.47531e-07
-2.40759e-09
6.37915e-10
2.48377e-07
-1.62249e-09
7.5767e-10
2.49471e-07
1.03047e-09
1.17697e-10
2.50201e-07
2.80708e-09
-2.31436e-10
2.51117e-07
2.8199e-09
-4.3508e-10
2.52739e-07
2.39213e-09
-5.4286e-10
2.55061e-07
2.49722e-09
-5.60138e-10
2.5793e-07
2.96378e-09
-5.31175e-10
2.61229e-07
3.88401e-09
-5.79053e-10
2.65148e-07
4.4836e-09
-4.85885e-10
2.69514e-07
6.20679e-09
-4.02926e-10
2.74472e-07
6.92709e-09
-3.0702e-10
8.87546e-09
8.24566e-10
1.96332e-07
-1.51034e-09
9.03928e-11
1.94589e-07
-9.77586e-10
-1.9829e-10
1.93262e-07
-8.75005e-10
-1.56933e-10
1.92619e-07
-7.9917e-10
-3.65391e-10
1.93081e-07
-1.43138e-09
-7.58914e-10
1.93348e-07
-2.52824e-09
-1.46326e-10
1.92499e-07
-1.36937e-09
5.95954e-10
1.91641e-07
1.47032e-09
4.17997e-10
1.91661e-07
3.11103e-09
-3.23315e-10
1.92542e-07
3.12411e-09
-1.18589e-09
1.93879e-07
2.52899e-09
-1.47351e-09
1.95462e-07
2.25794e-09
-1.34389e-09
1.9728e-07
2.42092e-09
-1.27469e-09
1.9951e-07
2.87153e-09
-1.21738e-09
2.01995e-07
3.40275e-09
-1.40493e-09
2.05779e-07
3.88372e-09
-1.46098e-09
2.09416e-07
5.02188e-09
-1.73165e-09
5.30425e-09
2.35053e-09
2.96567e-07
2.12374e-09
2.93998e-07
1.59217e-09
2.91819e-07
1.30337e-09
2.90349e-07
6.71001e-10
2.88642e-07
2.75582e-10
2.8466e-07
1.45434e-09
2.81328e-07
1.96199e-09
2.82164e-07
6.34484e-10
2.86137e-07
-8.61851e-10
2.90889e-07
-1.62772e-09
2.95107e-07
-1.68887e-09
2.98787e-07
-1.42199e-09
3.02435e-07
-1.22713e-09
3.06545e-07
-1.2389e-09
3.11355e-07
-1.40754e-09
3.16894e-07
-1.65508e-09
3.24129e-07
-2.2126e-09
-1.83822e-09
1.75274e-06
-1.75809e-07
-7.98477e-10
1.87118e-07
1.74314e-06
-1.40048e-07
-6.87822e-10
1.49587e-07
1.73601e-06
-1.03883e-07
-8.05117e-10
1.10894e-07
1.73153e-06
-6.72796e-08
-8.33759e-10
7.14666e-08
1.72946e-06
-3.05001e-08
3.25401e-10
3.19526e-08
1.72954e-06
6.36938e-09
2.44874e-09
-7.31538e-09
1.73177e-06
4.32933e-08
2.92272e-09
-4.61713e-08
1.73635e-06
8.03466e-08
9.67351e-10
-8.4862e-08
1.74363e-06
1.17537e-07
-1.57117e-09
-1.23792e-07
1.75372e-06
1.55081e-07
-2.8195e-09
-1.63406e-07
1.76637e-06
1.93082e-07
-3.05295e-09
-2.03672e-07
1.78151e-06
2.31376e-07
-2.51572e-09
-2.4442e-07
1.79902e-06
2.7063e-07
-1.63743e-09
-2.86051e-07
1.81809e-06
3.11335e-07
-1.02607e-09
-3.2834e-07
1.83819e-06
3.52292e-07
-1.10424e-09
-3.70312e-07
1.8604e-06
3.92137e-07
-1.36971e-09
-4.12276e-07
4.31173e-07
-1.00399e-09
-4.5493e-07
1.73059e-06
-1.6177e-07
-1.13615e-10
1.71879e-06
-1.27324e-07
-7.38896e-10
1.70954e-06
-9.37216e-08
-1.40574e-09
1.70349e-06
-6.05014e-08
-2.17792e-09
1.70033e-06
-2.7193e-08
-4.32087e-10
1.69961e-06
6.33674e-09
3.49381e-09
1.70136e-06
4.01658e-08
5.04882e-09
1.70616e-06
7.43934e-08
2.84326e-09
1.71428e-06
1.09088e-07
4.35671e-10
1.72563e-06
1.44198e-07
-1.31437e-09
1.74004e-06
1.79764e-07
-1.22317e-09
1.75678e-06
2.15692e-07
-4.56946e-10
1.77603e-06
2.51928e-07
-1.1454e-09
1.79878e-06
2.88681e-07
-9.03352e-10
1.82475e-06
3.26052e-07
4.50841e-10
1.85289e-06
3.63808e-07
5.13647e-10
4.01702e-07
3.68465e-10
1.71408e-06
-1.52838e-07
-8.37265e-10
1.70754e-06
-1.21132e-07
-7.0524e-10
1.70284e-06
-8.88974e-08
-1.31885e-09
1.69958e-06
-5.65775e-08
-3.06098e-09
1.69732e-06
-2.44206e-08
-1.8017e-09
1.69586e-06
7.54674e-09
3.47228e-09
1.69576e-06
3.93328e-08
5.77684e-09
1.69835e-06
7.10889e-08
2.39003e-09
1.70462e-06
1.03114e-07
-1.71124e-09
1.71453e-06
1.3557e-07
-3.58501e-09
1.72746e-06
1.6843e-07
-3.17215e-09
1.74278e-06
2.01648e-07
-1.81411e-09
1.76045e-06
2.35108e-07
-8.50056e-10
1.78082e-06
2.68679e-07
1.88572e-10
1.8045e-06
3.02356e-07
5.99216e-10
1.83192e-06
3.36534e-07
6.59613e-10
3.71524e-07
8.16218e-10
1.70807e-06
-1.40571e-07
-5.45681e-10
1.69829e-06
-1.11115e-07
-2.00864e-10
1.69124e-06
-8.18144e-08
-2.25987e-10
1.68708e-06
-5.25368e-08
-3.68283e-10
1.68547e-06
-2.32054e-08
9.2293e-10
1.68592e-06
6.30734e-09
3.1354e-09
1.68832e-06
3.59965e-08
3.27225e-09
1.6931e-06
6.58281e-08
9.5999e-10
1.70083e-06
9.57697e-08
-1.56959e-09
1.71158e-06
1.25932e-07
-2.70049e-09
1.72505e-06
1.56363e-07
-2.72965e-09
1.74105e-06
1.86966e-07
-2.07965e-09
1.75923e-06
2.18118e-07
-1.20353e-09
1.77874e-06
2.50247e-07
-5.49134e-10
1.79943e-06
2.82724e-07
-3.93067e-10
1.8223e-06
3.14804e-07
-6.3045e-10
3.4658e-07
-7.80838e-10
1.68447e-06
-1.2428e-07
2.00442e-10
1.67042e-06
-9.58141e-08
-3.80027e-10
1.65961e-06
-6.99104e-08
-1.16902e-09
1.65309e-06
-4.51014e-08
-2.09043e-09
1.65036e-06
-1.99868e-08
-2.06721e-10
1.6503e-06
5.85026e-09
3.55797e-09
1.65248e-06
3.23585e-08
4.53072e-09
1.65757e-06
5.93944e-08
2.00828e-09
1.6659e-06
8.69093e-08
-2.43967e-10
1.67753e-06
1.14678e-07
-1.85519e-09
1.69225e-06
1.42617e-07
-1.67441e-09
1.70934e-06
1.7074e-07
-5.27951e-10
1.72936e-06
1.98571e-07
-1.12276e-09
1.75326e-06
2.26231e-07
-1.03322e-09
1.78085e-06
2.54521e-07
-2.75691e-10
1.81087e-06
2.84194e-07
5.31559e-11
3.15146e-07
-3.61548e-10
1.66374e-06
-1.149e-07
-6.75729e-10
1.65657e-06
-8.87449e-08
-4.44398e-10
1.65139e-06
-6.45072e-08
-1.06769e-09
1.64815e-06
-4.1082e-08
-2.58633e-09
1.64655e-06
-1.74467e-08
-9.48338e-10
1.6459e-06
6.62034e-09
3.54603e-09
1.64629e-06
3.09658e-08
4.64477e-09
1.64915e-06
5.55087e-08
1.30719e-09
1.65564e-06
8.04061e-08
-2.08203e-09
1.66575e-06
1.05554e-07
-3.43639e-09
1.67882e-06
1.3084e-07
-2.87292e-09
1.69413e-06
1.56459e-07
-1.64939e-09
1.7116e-06
1.8158e-07
-5.39127e-10
1.7323e-06
2.05549e-07
-1.51461e-10
1.7568e-06
2.29671e-07
6.39525e-10
1.78511e-06
2.55667e-07
-1.78406e-11
2.8439e-07
-4.88032e-10
1.64986e-06
-1.06647e-07
1.16733e-09
1.64352e-06
-8.35086e-08
1.17189e-09
1.63919e-06
-6.09577e-08
7.38267e-10
1.6364e-06
-3.87447e-08
6.76367e-10
1.63515e-06
-1.65885e-08
1.39059e-09
1.63565e-06
5.66933e-09
1.97945e-09
1.6382e-06
2.80175e-08
1.37285e-09
1.6433e-06
5.03294e-08
-1.02034e-10
1.65137e-06
7.26827e-08
-1.41002e-09
1.66246e-06
9.51926e-08
-2.09073e-09
1.67633e-06
1.17899e-07
-2.15514e-09
1.6927e-06
1.41061e-07
-1.90036e-09
1.71105e-06
1.6423e-07
-1.70956e-09
1.73091e-06
1.86795e-07
-1.52323e-09
1.75223e-06
2.09394e-07
-9.73989e-10
1.77611e-06
2.32744e-07
-1.02033e-09
2.57992e-07
-5.59019e-10
1.6114e-06
-9.5822e-08
5.71035e-12
1.60317e-06
-7.57957e-08
1.28954e-10
1.5976e-06
-5.55966e-08
-8.6399e-10
1.59472e-06
-3.53133e-08
-2.69978e-09
1.59404e-06
-1.49918e-08
-7.10228e-10
1.5945e-06
5.13753e-09
3.9279e-09
1.59607e-06
2.49367e-08
4.80377e-09
1.60028e-06
4.44521e-08
1.75514e-09
1.60838e-06
6.39838e-08
-1.23509e-09
1.62024e-06
8.38226e-08
-2.32492e-09
1.63502e-06
1.03982e-07
-1.9006e-09
1.65223e-06
1.24818e-07
-1.53523e-09
1.67116e-06
1.46184e-07
-7.31556e-10
1.69201e-06
1.66989e-07
-1.28767e-09
1.71494e-06
1.87932e-07
-1.19798e-09
1.73936e-06
2.09886e-07
-5.26519e-10
2.31774e-07
-1.41938e-09
1.40023e-06
-8.47077e-08
-3.65817e-10
1.39325e-06
-6.88125e-08
9.76505e-11
1.3892e-06
-5.17135e-08
6.23855e-11
1.38729e-06
-3.34962e-08
-7.25254e-11
1.38704e-06
-1.48679e-08
1.38381e-09
1.38801e-06
3.65513e-09
3.09493e-09
1.39024e-06
2.18672e-08
2.36008e-09
1.39447e-06
3.96834e-08
-6.42092e-11
1.40137e-06
5.72971e-08
-2.02625e-09
1.41101e-06
7.50166e-08
-2.65739e-09
1.42304e-06
9.29469e-08
-2.34583e-09
1.43707e-06
1.11611e-07
-1.5878e-09
1.45274e-06
1.31046e-07
-8.37888e-10
1.47021e-06
1.49937e-07
-6.46443e-10
1.48954e-06
1.6894e-07
6.93396e-11
1.51013e-06
1.89463e-07
5.53228e-10
2.09608e-07
7.36272e-10
1.31018e-06
-6.92744e-08
-2.56543e-10
1.30122e-06
-5.98625e-08
-2.30184e-10
1.29652e-06
-4.71554e-08
-9.8904e-10
1.29435e-06
-3.09677e-08
-2.09789e-09
1.29372e-06
-1.36131e-08
-3.29545e-10
1.29408e-06
3.13444e-09
2.79515e-09
1.29571e-06
1.90735e-08
3.01439e-09
1.29967e-06
3.45523e-08
8.94163e-10
1.30653e-06
5.01046e-08
-9.81256e-10
1.31637e-06
6.57328e-08
-1.80792e-09
1.32866e-06
8.13985e-08
-1.24508e-09
1.34303e-06
9.8124e-08
-1.56474e-09
1.35857e-06
1.16597e-07
-1.05458e-09
1.37465e-06
1.34828e-07
2.19635e-10
1.39378e-06
1.50423e-07
-2.42649e-10
1.41882e-06
1.64191e-07
-5.74433e-10
1.78195e-07
-4.58968e-10
1.25331e-06
-5.95066e-08
-1.42512e-09
1.2453e-06
-5.03857e-08
-1.11323e-09
1.2389e-06
-3.96365e-08
-1.05296e-09
1.23543e-06
-2.67197e-08
-1.18449e-09
1.23487e-06
-1.26466e-08
9.65637e-10
1.23592e-06
1.6701e-09
3.54275e-09
1.23787e-06
1.59721e-08
2.83312e-09
1.2415e-06
3.00393e-08
-2.19646e-11
1.24762e-06
4.40648e-08
-2.12527e-09
1.2563e-06
5.79144e-08
-2.7514e-09
1.2671e-06
7.15054e-08
-1.97649e-09
1.27957e-06
8.60716e-08
-8.25696e-10
1.29333e-06
1.02753e-07
1.69523e-10
1.30795e-06
1.19956e-07
5.35318e-10
1.32396e-06
1.34008e-07
6.88574e-10
1.34332e-06
1.44235e-07
1.96564e-10
1.53993e-07
3.10802e-10
1.18699e-06
-4.59148e-08
9.0136e-11
1.17142e-06
-3.26795e-08
-8.14693e-10
1.15679e-06
-2.26335e-08
-1.80755e-09
1.14682e-06
-1.49555e-08
-2.13704e-09
1.14245e-06
-7.45571e-09
-2.39148e-10
1.14229e-06
1.41983e-09
2.13897e-09
1.14493e-06
1.22382e-08
1.94271e-09
1.14927e-06
2.47336e-08
8.34158e-10
1.15557e-06
3.76426e-08
-1.00102e-09
1.16396e-06
5.01635e-08
-1.19497e-09
1.17394e-06
6.21154e-08
1.74289e-10
1.1875e-06
7.26192e-08
-2.31149e-10
1.2071e-06
8.21876e-08
-6.0596e-12
1.23222e-06
9.29422e-08
4.91522e-10
1.2591e-06
1.05484e-07
3.59756e-10
1.2843e-06
1.18578e-07
-5.69017e-10
1.31615e-07
-1.21118e-09
1.1056e-06
-3.82862e-08
-9.27417e-10
1.10044e-06
-2.6817e-08
-8.39478e-10
1.09691e-06
-1.83556e-08
-1.19441e-09
1.09497e-06
-1.20487e-08
-1.91122e-09
1.09439e-06
-5.84997e-09
-2.29906e-11
1.09435e-06
1.63967e-09
2.70945e-09
1.09483e-06
1.09102e-08
2.36265e-09
1.09696e-06
2.17572e-08
1.01276e-10
1.10163e-06
3.29551e-08
-1.71562e-09
1.10872e-06
4.37207e-08
-2.0184e-09
1.11743e-06
5.39582e-08
-1.12416e-09
1.12771e-06
6.22691e-08
-5.72795e-11
1.14049e-06
6.86159e-08
5.81836e-10
1.15658e-06
7.5875e-08
4.60784e-10
1.17521e-06
8.62331e-08
2.18762e-10
1.19512e-06
9.88202e-08
-6.85724e-10
1.12048e-07
-8.12067e-10
1.05304e-06
-3.33134e-08
1.34619e-09
1.04951e-06
-2.42068e-08
9.5743e-10
1.04744e-06
-1.68212e-08
1.59105e-10
1.04603e-06
-1.06758e-08
-3.8458e-10
1.04519e-06
-4.79405e-09
1.02826e-10
1.04512e-06
1.86207e-09
6.36037e-10
1.04627e-06
9.84296e-09
1.50453e-10
1.04933e-06
1.87936e-08
-6.45789e-10
1.05474e-06
2.77176e-08
-1.09084e-09
1.0626e-06
3.61185e-08
-1.08104e-09
1.07271e-06
4.41358e-08
-9.7984e-10
1.0842e-06
5.12681e-08
-1.20323e-09
1.09602e-06
5.76128e-08
-1.39796e-09
1.10833e-06
6.46084e-08
-1.46368e-09
1.12213e-06
7.35396e-08
-1.34547e-09
1.13806e-06
8.40166e-08
-1.5205e-09
9.53122e-08
-1.5269e-09
9.63695e-07
-2.66183e-08
9.72141e-11
9.58702e-07
-1.92658e-08
4.61335e-11
9.55442e-07
-1.34212e-08
-6.40219e-10
9.54049e-07
-8.61548e-09
-1.76477e-09
9.54192e-07
-4.01e-09
-3.17933e-10
9.54914e-07
1.27522e-09
2.14915e-09
9.56151e-07
7.73402e-09
2.16966e-09
9.58993e-07
1.50081e-08
5.92257e-10
9.64173e-07
2.2235e-08
-6.66542e-10
9.71479e-07
2.90141e-08
-9.62062e-10
9.80443e-07
3.5468e-08
-6.76777e-10
9.90661e-07
4.12876e-08
-4.0142e-10
1.00191e-06
4.66711e-08
-4.29725e-10
1.01442e-06
5.2646e-08
-7.77946e-10
1.0284e-06
6.02873e-08
-8.75582e-10
1.04417e-06
6.9192e-08
-1.31514e-09
7.91682e-08
-9.251e-10
9.17364e-07
-2.1445e-08
1.32554e-09
9.1327e-07
-1.59116e-08
1.0253e-09
9.10667e-07
-1.12778e-08
3.26468e-10
9.09268e-07
-7.28538e-09
-2.29323e-10
9.08963e-07
-3.57857e-09
3.30344e-10
9.0949e-07
8.24739e-10
7.23558e-10
9.10758e-07
6.52681e-09
-7.11133e-11
9.13277e-07
1.26491e-08
-9.63805e-10
9.17695e-07
1.80811e-08
-1.26e-09
9.2422e-07
2.28059e-08
-1.12763e-09
9.32624e-07
2.74307e-08
-9.83647e-10
9.42431e-07
3.19832e-08
-1.06383e-09
9.53195e-07
3.66268e-08
-1.24294e-09
9.64966e-07
4.17435e-08
-1.3442e-09
9.77953e-07
4.8247e-08
-1.29647e-09
9.92572e-07
5.55407e-08
-1.38637e-09
6.40153e-08
-1.51087e-09
8.22691e-07
-1.52173e-08
3.38485e-10
8.17956e-07
-1.13426e-08
1.82367e-10
8.1485e-07
-8.08877e-09
-5.77576e-10
8.13636e-07
-5.44813e-09
-1.59608e-09
8.13938e-07
-3.12624e-09
-3.34759e-10
8.14702e-07
7.24747e-11
1.62735e-09
8.15811e-07
4.7572e-09
1.54226e-09
8.18158e-07
9.75301e-09
3.15905e-10
8.2235e-07
1.38368e-08
-5.97448e-10
8.28265e-07
1.71428e-08
-7.86834e-10
8.35628e-07
2.03891e-08
-6.50133e-10
8.44289e-07
2.36868e-08
-6.07667e-10
8.54181e-07
2.72523e-08
-7.72656e-10
8.65426e-07
3.11925e-08
-9.94527e-10
8.78054e-07
3.64537e-08
-1.06066e-09
8.9223e-07
4.22675e-08
-1.17368e-09
4.95141e-08
-9.81128e-10
7.81681e-07
-1.00477e-08
7.70603e-10
7.77613e-07
-7.60135e-09
3.76112e-10
7.74821e-07
-5.39468e-09
-1.68961e-10
7.73192e-07
-3.65504e-09
-5.25322e-10
7.72702e-07
-2.3652e-09
1.45527e-11
7.72907e-07
1.79824e-10
1.19094e-10
7.73514e-07
4.50558e-09
-6.28937e-10
7.75246e-07
8.29428e-09
-1.03644e-09
7.79058e-07
1.01816e-08
-9.85242e-10
7.85029e-07
1.13463e-08
-8.78071e-10
7.92575e-07
1.31617e-08
-8.96336e-10
8.01167e-07
1.55749e-08
-1.00417e-09
8.1062e-07
1.84425e-08
-1.14355e-09
8.21162e-07
2.13287e-08
-1.15125e-09
8.32764e-07
2.56821e-08
-1.26109e-09
8.46333e-07
2.94707e-08
-1.17121e-09
3.45593e-08
-1.54889e-09
6.57267e-07
-9.5708e-09
3.08916e-09
6.53184e-07
-7.14228e-09
1.9764e-09
6.5021e-07
-5.4962e-09
1.40042e-09
6.48243e-07
-3.97516e-09
6.35003e-10
6.47406e-07
-3.0255e-09
9.98323e-11
6.48399e-07
-3.87126e-09
1.15122e-09
6.5156e-07
-3.59033e-09
1.367e-09
6.55239e-07
9.43433e-10
4.52851e-14
6.57789e-07
6.3332e-09
-8.20247e-10
6.59982e-07
8.46173e-09
-9.08318e-10
6.6354e-07
8.1295e-09
-8.83845e-10
6.69135e-07
8.03507e-09
-1.02854e-09
6.76457e-07
8.91588e-09
-1.19388e-09
6.85026e-07
1.07922e-08
-1.49752e-09
6.94922e-07
1.2384e-08
-1.43779e-09
7.06096e-07
1.56187e-08
-1.51292e-09
7.18762e-07
1.79592e-08
-1.46171e-09
2.02347e-08
5.67928e-10
5.2886e-07
-3.76526e-09
4.75776e-11
5.24562e-07
-2.43847e-09
-6.03763e-10
5.21308e-07
-1.94781e-09
-4.51301e-10
5.1921e-07
-1.59337e-09
-6.49353e-10
5.18973e-07
-2.11478e-09
-1.43267e-09
5.19706e-07
-3.90436e-09
-8.46489e-10
5.19598e-07
-3.44335e-09
5.56628e-10
5.1932e-07
7.12178e-10
9.27302e-10
5.20246e-07
4.98064e-09
1.0373e-10
5.22512e-07
6.43221e-09
-1.42246e-09
5.2586e-07
5.63131e-09
-2.32357e-09
5.30125e-07
4.78193e-09
-2.35527e-09
5.35219e-07
4.79287e-09
-2.24565e-09
5.4128e-07
5.50743e-09
-1.99401e-09
5.48372e-07
6.45665e-09
-2.56955e-09
5.56951e-07
7.41018e-09
-1.83143e-09
5.67785e-07
9.36945e-09
-3.97603e-09
1.00961e-08
2.62448e-09
4.75333e-07
3.25367e-09
4.71865e-07
2.62162e-09
4.69098e-07
2.12198e-09
4.66921e-07
1.25476e-09
4.64558e-07
5.24435e-10
4.60721e-07
1.38702e-09
4.57344e-07
1.89576e-09
4.57641e-07
1.04892e-09
4.61945e-07
-1.85062e-10
4.68085e-07
-1.33483e-09
4.73942e-07
-1.91556e-09
4.79113e-07
-1.81013e-09
4.84173e-07
-1.49512e-09
4.8982e-07
-1.37786e-09
4.96402e-07
-1.53301e-09
5.03949e-07
-1.79236e-09
5.13685e-07
-2.57911e-09
-1.68364e-09
2.4762e-06
-2.46463e-07
-8.43682e-10
2.61967e-07
2.46348e-06
-1.94721e-07
-1.06326e-09
2.07812e-07
2.45403e-06
-1.42723e-07
-1.00607e-09
1.5238e-07
2.44825e-06
-9.01077e-08
-6.43671e-10
9.57009e-08
2.44625e-06
-3.71266e-08
7.83584e-10
3.86681e-08
2.44774e-06
1.60047e-08
3.00133e-09
-1.80492e-08
2.45221e-06
6.91607e-08
3.47696e-09
-7.41855e-08
2.45949e-06
1.22378e-07
1.2937e-09
-1.29987e-07
2.46999e-06
1.75662e-07
-1.84972e-09
-1.85878e-07
2.48415e-06
2.29238e-07
-3.85986e-09
-2.42362e-07
2.50199e-06
2.83284e-07
-4.59919e-09
-2.99575e-07
2.52344e-06
3.37652e-07
-4.2896e-09
-3.57334e-07
2.54843e-06
3.92905e-07
-3.51512e-09
-4.16017e-07
2.57604e-06
4.49883e-07
-2.88985e-09
-4.75632e-07
2.6054e-06
5.07607e-07
-2.95052e-09
-5.35119e-07
2.63743e-06
5.64282e-07
-3.25777e-09
-5.94423e-07
6.19672e-07
-2.72578e-09
-6.54381e-07
2.44822e-06
-2.28063e-07
-9.25722e-10
2.43303e-06
-1.78039e-07
-2.23066e-09
2.4208e-06
-1.2909e-07
-2.8162e-09
2.41245e-06
-8.08686e-08
-3.06362e-09
2.40859e-06
-3.27676e-08
-9.33556e-10
2.40913e-06
1.55638e-08
3.40195e-09
2.41332e-06
6.43108e-08
5.7051e-09
2.42101e-06
1.13519e-07
4.00812e-09
2.43264e-06
1.63193e-07
1.27507e-09
2.4484e-06
2.13311e-07
-1.1477e-09
2.46847e-06
2.63903e-07
-1.90738e-09
2.49236e-06
3.1495e-07
-1.64445e-09
2.51968e-06
3.66411e-07
-1.97435e-09
2.55116e-06
4.18494e-07
-9.91324e-10
2.58699e-06
4.71294e-07
9.28243e-10
2.62617e-06
5.24522e-07
1.10272e-09
5.77794e-07
4.87376e-10
2.42588e-06
-2.14836e-07
-1.2553e-10
2.4167e-06
-1.69302e-07
-2.64909e-10
2.41048e-06
-1.22995e-07
-1.19347e-09
2.40612e-06
-7.63662e-08
-3.20634e-09
2.40386e-06
-2.99077e-08
-2.39593e-09
2.40399e-06
1.62195e-08
2.68371e-09
2.40629e-06
6.20728e-08
5.7175e-09
2.41119e-06
1.07837e-07
3.16416e-09
2.42001e-06
1.53807e-07
-1.13697e-09
2.43343e-06
2.00194e-07
-3.89153e-09
2.45137e-06
2.47015e-07
-4.22542e-09
2.47326e-06
2.94264e-07
-3.01923e-09
2.49875e-06
3.4184e-07
-1.76812e-09
2.52802e-06
3.89566e-07
-1.56461e-10
2.56163e-06
4.37376e-07
9.12975e-10
2.60017e-06
4.85643e-07
9.95425e-10
5.34844e-07
6.845e-10
2.41863e-06
-1.9786e-07
-1.28574e-09
2.40539e-06
-1.55183e-07
-1.07811e-09
2.39576e-06
-1.1288e-07
-7.12471e-10
2.39007e-06
-7.06647e-08
-3.84303e-10
2.38843e-06
-2.83822e-08
1.04174e-09
2.39037e-06
1.41072e-08
3.31015e-09
2.39513e-06
5.68064e-08
3.77356e-09
2.40263e-06
9.96641e-08
1.63763e-09
2.41354e-06
1.42617e-07
-1.2893e-09
2.42842e-06
1.85767e-07
-3.15247e-09
2.44722e-06
2.29182e-07
-3.70398e-09
2.46981e-06
2.72802e-07
-3.20348e-09
2.49584e-06
3.16905e-07
-2.29937e-09
2.52429e-06
3.62067e-07
-1.50322e-09
2.55464e-06
4.07891e-07
-1.26149e-09
2.5878e-06
4.53449e-07
-1.59308e-09
4.98576e-07
-1.89205e-09
2.39005e-06
-1.7717e-07
-9.49868e-10
2.37193e-06
-1.35097e-07
-2.35204e-09
2.35728e-06
-9.65186e-08
-2.87376e-09
2.34774e-06
-6.01265e-08
-3.09142e-09
2.34396e-06
-2.38797e-08
-9.31463e-10
2.34521e-06
1.32301e-08
3.18484e-09
2.35003e-06
5.13347e-08
5.17904e-09
2.3581e-06
9.01958e-08
3.40645e-09
2.37001e-06
1.29643e-07
8.29821e-10
2.38606e-06
1.69431e-07
-1.57564e-09
2.40651e-06
2.09365e-07
-2.30448e-09
2.43091e-06
2.49534e-07
-1.65763e-09
2.45908e-06
2.89522e-07
-1.90905e-09
2.49179e-06
3.29219e-07
-9.00873e-10
2.52941e-06
3.69275e-07
7.21048e-10
2.57091e-06
4.10759e-07
1.24971e-09
4.53869e-07
3.89588e-10
2.36181e-06
-1.63996e-07
-3.10302e-11
2.35189e-06
-1.25446e-07
-1.75514e-10
2.34486e-06
-8.94991e-08
-1.05395e-09
2.34019e-06
-5.52035e-08
-2.84697e-09
2.3384e-06