/*--------------------------------*- C++ -*----------------------------------*\
  =========                 |
  \\      /  F ield         | OpenFOAM: The Open Source CFD Toolbox
   \\    /   O peration     | Website:  https://openfoam.org
    \\  /    A nd           | Version:  6
     \\/     M anipulation  |
\*---------------------------------------------------------------------------*/
FoamFile
{
    version     2.0;
    format      ascii;
    class       volScalarField;
    location    "32";
    object      yPlus;
}
// * * * * * * * * * * * * * * * * * * * * * * * * * * * * * * * * * * * * * //

dimensions      [0 0 0 0 0 0 0];

internalField   uniform 0;

boundaryField
{
    inlet
    {
        type            calculated;
        value           uniform 0;
    }
    outlet
    {
        type            calculated;
        value           uniform 0;
    }
    roughCylinder
    {
        type            calculated;
        value           nonuniform List<scalar> 
5120
(
43.488
51.3079
57.5363
63.6622
68.9505
73.24
76.6769
79.4551
81.7297
83.6351
85.2906
86.773
88.1194
89.3641
90.5379
91.6715
92.7953
93.9375
95.1217
96.3651
97.6773
99.0606
100.512
102.024
103.587
105.189
106.812
108.435
110.017
111.489
112.703
113.418
42.7707
50.3075
56.3373
62.3236
67.5391
71.794
75.2131
77.9831
80.2574
82.1688
83.8327
85.3189
86.6573
87.8884
89.0443
90.1565
91.2566
92.3739
93.5326
94.7488
96.0322
97.3853
98.8051
100.284
101.813
103.378
104.964
106.548
108.093
109.528
110.713
111.408
41.9892
49.2764
55.1182
60.9641
66.1054
70.328
73.7351
76.5057
78.7905
80.7184
82.3965
83.8876
85.2217
86.4416
87.5811
88.6738
89.7523
90.8461
91.9786
93.1678
94.4231
95.7466
97.135
98.5816
100.076
101.605
103.154
104.7
106.207
107.607
108.761
109.438
41.1718
48.2252
53.8802
59.5831
64.6508
68.8461
72.2481
75.0268
77.3305
79.282
80.9789
82.4794
83.8159
85.0274
86.1541
87.2297
88.2878
89.3589
90.4685
91.6328
92.8608
94.1555
95.5136
96.9276
98.388
99.882
101.394
102.903
104.373
105.737
106.861
107.519
40.3174
47.1471
52.613
58.1682
63.1624
67.337
70.7449
73.5449
75.8797
77.8635
79.5848
81.0983
82.4394
83.6479
84.7643
85.8252
86.866
87.9177
89.0039
90.1433
91.3458
92.613
93.9418
95.3249
96.7525
98.2121
99.6889
101.161
102.595
103.924
105.019
105.658
39.4405
46.0495
51.3199
56.7213
61.6428
65.8049
69.2289
72.0576
74.4279
76.4471
78.1959
79.7279
81.0821
82.2952
83.4071
84.4576
85.4832
86.516
87.5835
88.7018
89.8798
91.1207
92.4212
93.7737
95.1692
96.5946
98.0357
99.4725
100.87
102.164
103.231
103.851
38.5229
44.9161
49.9844
55.2238
60.0712
64.2281
67.6815
70.5547
72.9749
75.0396
76.8236
78.3798
79.748
80.9701
82.0824
83.1264
84.1411
85.1605
86.2084
87.3047
88.4602
89.6762
90.9497
92.2733
93.6379
95.0307
96.4382
97.8394
99.2023
100.464
101.502
102.104
37.5803
43.7541
48.6083
53.6731
58.4435
62.605
66.1026
69.0297
71.5023
73.6148
75.4382
77.0251
78.4205
79.6599
80.7829
81.8268
82.8348
83.8409
84.8755
85.9555
87.0898
88.2824
89.5298
90.8249
92.1583
93.5184
94.891
96.2578
97.5859
98.8131
99.8239
100.407
36.5707
42.5291
47.1599
52.0377
56.7249
60.896
64.452
67.4542
70.0037
72.1826
74.0583
75.6859
77.1071
78.3679
79.5032
80.5553
81.5621
82.5641
83.5848
84.6466
85.762
86.9324
88.1551
89.4232
90.7274
92.0566
93.3961
94.7286
96.0232
97.2188
98.2014
98.7666
35.5218
41.2538
45.6436
50.3105
54.9007
59.0897
62.7272
65.8225
68.4525
70.7013
72.6368
74.3128
75.7818
77.076
78.2367
79.3007
80.3144
81.313
82.3277
83.3799
84.4783
85.6283
86.827
88.0676
89.3415
90.6383
91.9431
93.2407
94.5004
95.662
96.6179
97.1634
34.3294
39.8496
43.9933
48.4344
52.9147
57.1198
60.8506
64.069
66.8266
69.1827
71.2007
72.9442
74.4541
75.786
76.9732
78.0605
79.0846
80.0905
81.0998
82.139
83.223
84.3537
85.5293
86.744
87.9888
89.2546
90.5269
91.7908
93.0175
94.1483
95.0764
95.6036
33.0579
38.3638
42.235
46.4077
50.7412
54.9611
58.8229
62.2024
65.092
67.5612
69.6797
71.4991
73.0893
74.4771
75.7095
76.822
77.8671
78.8781
79.8905
80.9283
82.0003
83.1141
84.2681
85.4556
86.6705
87.9028
89.1398
90.3679
91.5591
92.6547
93.5568
94.0628
31.5237
36.633
40.2219
44.1042
48.2657
52.4818
56.4716
60.0534
63.178
65.8416
68.0976
70.0355
71.691
73.1413
74.4201
75.5785
76.6482
77.6808
78.6974
79.7275
80.7902
81.888
83.0205
84.1838
85.3698
86.5719
87.7757
88.9714
90.1299
91.1952
92.0677
92.555
29.8604
34.7794
38.0617
41.5851
45.492
49.6758
53.8553
57.7117
61.0541
63.9171
66.3649
68.4291
70.2213
71.7616
73.1147
74.3142
75.4242
76.4734
77.5043
78.5438
79.6005
80.6857
81.7994
82.9355
84.0909
85.2576
86.4245
87.582
88.7038
89.7312
90.578
91.0419
27.6391
32.3927
35.3455
38.4622
42.0585
46.1442
50.4527
54.6494
58.4925
61.7518
64.4466
66.7395
68.6482
70.3029
71.7343
73.0148
74.1693
75.2604
76.3084
77.3466
78.4006
79.4733
80.5667
81.6798
82.806
83.9428
85.0748
86.1998
87.2886
88.2854
89.1018
89.5451
25.144
29.8175
32.4904
35.1609
38.3039
42.2219
46.77
51.3931
55.5153
59.1592
62.2794
64.8074
66.9682
68.7605
70.3151
71.6605
72.8833
74.0065
75.0842
76.1472
77.2027
78.2679
79.3459
80.4305
81.5237
82.6214
83.7137
84.7974
85.8458
86.8003
87.5876
88.0059
21.1552
25.8341
28.0981
30.0841
32.5428
35.9427
40.5245
45.8783
51.4251
55.9637
59.5578
62.5911
64.9838
67.0358
68.7369
70.223
71.5207
72.7163
73.8295
74.8979
75.9591
77.0163
78.0742
79.1358
80.1992
81.2663
82.3195
83.3688
84.3844
85.3061
86.0636
86.4558
16.2202
21.4289
23.917
25.7762
27.5664
30.9143
35.5701
41.1033
46.1545
51.6798
56.4451
59.9642
62.9148
65.1566
67.0674
68.6661
70.0833
71.3353
72.5001
73.6178
74.6906
75.7461
76.7925
77.8234
78.8464
79.8679
80.8765
81.8799
82.8472
83.7198
84.439
84.8042
4.77605
11.2539
12.9883
12.4457
10.9885
7.26308
13.7423
26.449
38.848
45.9695
51.5896
56.5173
59.9143
62.8491
65.0889
66.9499
68.491
69.8678
71.0984
72.2272
73.3177
74.371
75.3963
76.4004
77.3946
78.3828
79.3437
80.3087
81.2447
82.0802
82.7708
83.1006
1.27131
2.25939
13.4996
14.7203
15.7425
16.5069
17.5393
20.3232
17.9672
36.0929
46.1851
51.9385
57.0589
60.2375
62.8689
64.952
66.7356
68.2165
69.5356
70.7593
71.8766
72.9351
73.9528
74.9238
75.8568
76.7903
77.6965
78.6067
79.4772
80.2486
80.8899
81.1867
12.0321
16.3306
17.2666
16.6533
14.6259
10.3726
2.2097
19.0938
20.873
16.7248
34.4275
46.3829
51.4232
56.6085
60.0455
62.6867
64.675
66.3858
67.8308
69.0681
70.2213
71.2881
72.2824
73.2124
74.1263
75.0166
75.8626
76.7283
77.576
78.3046
78.904
79.1541
19.7974
24.2589
26.174
27.0211
26.8115
25.8005
24.3787
18.9527
14.8218
17.7722
17.4061
30.1394
46.5019
51.9933
56.5118
59.6641
62.2461
64.1719
65.7792
67.2109
68.4222
69.5027
70.4935
71.3892
72.1839
73.01
73.7701
74.5615
75.3084
75.9372
76.4933
76.6857
22.1641
27.1323
29.8346
31.8206
32.96
33.0659
31.9794
29.7813
26.0235
24.3203
26.8009
27.317
31.2009
45.6248
51.751
56.2817
59.1727
61.5854
63.4589
64.8934
66.1709
67.2825
68.2463
69.0613
69.8725
70.6268
71.3303
72.0677
72.803
73.3842
73.8293
73.9651
22.8976
27.9863
30.9172
33.2804
35.0363
36.1627
36.5968
36.1454
34.1631
29.6156
26.1203
29.4909
31.4082
33.1779
44.7263
50.5853
55.2704
58.138
60.3407
62.2194
63.6336
64.7704
65.7335
66.5141
67.0473
67.7289
68.2212
68.8407
69.441
69.8264
70.2934
70.2991
22.3761
27.6019
30.6925
33.2789
35.3178
36.7979
37.7218
38.0819
37.76
36.1852
31.781
25.7355
28.4337
12.1225
33.4308
44.8469
49.6318
53.9011
56.7317
58.5298
60.0447
61.2739
62.2038
62.7955
63.443
63.9926
64.5907
65.1239
65.6398
65.9803
66.1396
66.0568
20.9179
26.2781
29.4604
32.1793
34.4045
36.1322
37.3804
38.1792
38.5442
38.381
37.1622
33.3661
30.9633
20.5237
10.579
31.1478
42.9885
47.4451
51.0775
54.0523
55.9578
57.2122
58.1314
58.6946
58.5815
59.0315
58.8674
59.1641
59.7359
59.5577
59.9702
59.6133
18.9525
24.4018
27.6067
30.3702
32.6816
34.5539
36.013
37.1123
37.9233
38.4956
38.7409
38.1041
35.0092
28.7768
8.53239
26.7063
26.5561
40.0205
44.7092
47.1465
48.9151
50.4999
51.3882
51.3635
51.9215
51.9832
53.5653
53.5645
52.8539
52.7435
52.7957
51.8308
16.6972
22.1282
25.258
27.9666
30.272
32.2105
33.8234
35.1653
36.3153
37.3487
38.2749
38.9156
38.5886
36.0653
27.1922
17.4565
12.2227
20.9522
32.8043
38.9506
41.9489
43.6073
44.0879
44.4148
41.8222
41.8714
40.8909
39.0296
42.0004
39.5509
38.1327
41.9027
14.4256
19.698
22.649
25.2023
27.4088
29.3278
31.0173
32.5389
33.966
35.3751
36.7924
38.1258
39.0738
38.9852
35.7957
29.5871
21.5552
12.9675
10.1816
18.8484
20.4509
23.6308
28.6457
22.9069
29.6804
21.4215
32.1403
30.26
22.1928
18.0588
40.3822
46.8846
12.4282
17.4193
20.1162
22.4426
24.4824
26.3135
28.0044
29.6193
31.222
32.8756
34.6191
36.4087
38.068
39.2282
39.0653
35.6803
28.1598
27.3543
15.3389
20.4052
28.7068
22.1661
37.4996
24.3076
35.6677
20.9582
37.935
34.5567
27.0726
26.1355
39.6702
39.9273
10.8927
15.5324
17.9589
20.041
21.8912
23.6004
25.2409
26.8717
28.5428
30.299
32.1802
34.1899
36.2451
38.109
39.339
38.9417
36.7489
31.3087
25.9017
31.1389
18.3335
27.644
26.9584
30.405
37.8498
27.3607
37.7118
25.2459
39.4304
33.3889
30.6958
30.174
9.76474
14.1601
16.3591
18.2369
19.9285
21.5276
23.1002
24.692
26.3376
28.0686
29.9211
31.929
34.0938
36.3128
38.3032
39.5653
39.7496
37.6785
34.4529
30.5005
29.5057
31.0629
28.5682
31.6981
33.3915
36.3291
28.9576
36.2269
36.0227
38.4958
39.3379
41.419
9.16777
13.3742
15.4142
17.1608
18.7568
20.2867
21.8001
23.3248
24.8816
26.4952
28.2007
30.045
32.0732
34.2895
36.586
38.6422
40.0559
40.2078
39.4382
37.5832
38.4265
37.4862
38.4411
37.5526
40.8554
42.0933
37.1328
42.4209
39.1074
41.768
43.5393
44.3086
8.99747
13.1177
15.0886
16.7884
18.3576
19.8648
21.3402
22.7959
24.2434
25.7043
27.2132
28.8172
30.5734
32.5359
34.7181
37.009
39.1025
40.4558
40.9437
40.654
41.1068
40.8323
41.4172
40.4314
43.0597
43.0347
40.9822
43.6666
40.9326
42.0309
43.8218
44.1824
9.17963
13.2919
15.2664
16.9873
18.5833
20.1048
21.5654
22.9678
24.3198
25.6412
26.9633
28.3272
29.7846
31.3982
33.231
35.2996
37.4933
39.4488
40.7906
41.3691
41.7764
41.6827
41.9345
41.2632
43.0756
42.6992
41.7095
43.1289
41.0451
41.2387
42.9388
43.0176
9.6171
13.7728
15.7984
17.5854
19.2439
20.8073
22.2778
23.6526
24.9385
26.1551
27.3313
28.501
29.7045
30.993
32.4311
34.0805
35.9527
37.8964
39.5962
40.7183
41.3275
41.4617
41.5676
41.0989
42.0373
41.4601
40.7594
41.4527
39.9935
39.8286
41.3041
41.1891
10.2538
14.4821
16.5818
18.4548
20.191
21.8091
23.3041
24.6723
25.9222
27.0746
28.1559
29.1934
30.2153
31.2573
32.3678
33.606
35.0223
36.5935
38.1579
39.4156
40.1891
40.5139
40.5887
40.1939
40.4943
39.7855
39.1006
39.3825
38.4572
38.3132
39.5342
39.3327
11.036
15.3641
17.55
19.5156
21.3313
23.0057
24.5306
25.9046
27.1405
28.2616
29.293
30.256
31.1682
32.0506
32.9334
33.8594
34.8759
36.0052
37.1932
38.2644
39.0149
39.4026
39.4638
39.1033
38.9806
38.2131
37.5262
37.568
37.0956
37.1361
38.1254
37.9355
11.8743
16.3701
18.6508
20.7091
22.6011
24.3291
25.8854
27.2733
28.5109
29.6245
30.6385
31.5698
32.4283
33.224
33.9718
34.6968
35.4315
36.2034
37.0068
37.762
38.3296
38.6374
38.6362
38.2714
37.8997
37.1289
36.4726
36.391
36.2563
36.4979
37.3388
37.2312
12.851
17.4687
19.8429
21.9912
23.9557
25.7345
27.3227
28.7298
29.9799
31.1021
32.1202
33.0477
33.8896
34.6486
35.3298
35.9447
36.5091
37.0426
37.5528
38.0107
38.3394
38.48
38.3635
37.954
37.4391
36.689
36.0834
35.9522
36.0452
36.4507
37.2188
37.2268
13.5846
14.0051
14.4904
14.8807
15.2581
15.5584
15.8201
16.0226
16.1851
16.2993
16.3763
16.4146
16.4183
16.3883
16.3289
16.2428
16.1319
16.0015
15.8622
15.7426
15.7328
15.8441
15.9802
16.1091
16.219
16.3046
16.3634
16.393
16.3895
16.3513
16.2745
16.161
15.9997
15.7988
15.5395
15.2426
14.869
14.4835
14.0035
13.5886
18.3227
18.7592
19.2644
19.6727
20.0681
20.3896
20.6738
20.9009
21.0889
21.2305
21.3353
21.4021
21.4339
21.4304
21.3941
21.3268
21.2296
21.1063
20.9667
20.8415
20.8311
20.9479
21.0844
21.2065
21.3029
21.3698
21.4057
21.4089
21.3772
21.3105
21.206
21.0652
20.8784
20.6531
20.3713
20.0532
19.6619
19.2587
18.7592
18.3287
20.7716
21.2336
21.7688
22.2026
22.6262
22.978
23.2964
23.5606
23.7888
23.9733
24.1226
24.2355
24.3141
24.3567
24.3636
24.3357
24.2731
24.1783
24.06
23.9476
23.9378
24.0421
24.1575
24.251
24.3129
24.3403
24.3329
24.29
24.2113
24.0981
23.949
23.765
23.538
23.2753
22.9591
22.6107
22.1911
21.7626
21.2334
20.7779
22.9793
23.4606
24.0185
24.4718
24.9197
25.2985
25.6487
25.9482
26.2151
26.4422
26.6357
26.7942
26.9194
27.0083
27.0598
27.0729
27.0473
26.9846
26.8937
26.8032
26.7948
26.8773
26.9654
27.0268
27.0516
27.0379
26.9859
26.8964
26.7709
26.6118
26.4183
26.1914
25.9252
25.6269
25.2787
24.903
24.459
24.0109
23.459
22.9846
24.984
25.4695
26.035
26.4946
26.9541
27.348
27.718
28.0418
28.3364
28.5957
28.8249
29.0209
29.1843
29.3116
29.4003
29.4484
29.455
29.4212
29.3562
29.2881
29.2813
29.3417
29.4036
29.436
29.4288
29.38
29.2905
29.1626
28.9985
28.8017
28.5722
28.3125
28.0182
27.6953
27.3269
26.9358
26.48
26.0253
25.4657
24.9871
26.7851
27.2585
27.8176
28.2714
28.7311
29.1298
29.5104
29.8511
30.1681
30.454
30.713
30.9409
31.1369
31.297
31.4177
31.4959
31.53
31.5212
31.4785
31.4286
31.4229
31.4657
31.5053
31.5127
31.4778
31.3988
31.2774
31.1166
30.9196
30.6907
30.4311
30.1445
29.8273
29.4869
29.1077
28.7112
28.2547
27.8054
27.2519
26.7854
28.3825
28.8326
29.3778
29.8203
30.2756
30.6768
31.0673
31.4244
31.7623
32.0731
32.3593
32.6162
32.8417
33.031
33.1799
33.2846
33.3426
33.3547
33.3298
33.2928
33.2878
33.3181
33.3401
33.3266
33.268
33.1626
33.013
32.8229
32.5963
32.3384
32.0512
31.7396
31.4011
31.0438
30.654
30.2544
29.8017
29.3633
28.8234
28.3801
29.7922
30.2151
30.7459
31.1782
31.632
32.0399
32.4422
32.8166
33.1751
33.5095
33.8211
34.1045
34.3565
34.5719
34.7455
34.873
34.951
34.9801
34.9685
34.9401
34.9356
34.9577
34.9666
34.9363
34.8576
34.7296
34.5553
34.3392
34.086
33.8016
33.4889
33.1535
32.7941
32.4194
32.0173
31.6106
31.1587
30.73
30.2039
29.7876
31.0436
31.4409
31.9612
32.3887
32.8454
33.2624
33.6775
34.069
34.4469
34.8027
35.1369
35.4437
35.7188
35.9566
36.1513
36.2976
36.3919
36.4342
36.4321
36.4089
36.4045
36.4218
36.4214
36.3782
36.2834
36.1367
35.9414
35.7029
35.4267
35.1189
34.7835
34.4265
34.0477
33.6557
33.2405
32.8243
32.3693
31.9446
31.4287
31.0378
32.1676
32.5424
33.0562
33.4831
33.9442
34.3706
34.7979
35.2047
35.5995
35.9741
36.3277
36.6542
36.9488
37.205
37.4168
37.5783
37.6854
37.7373
37.7416
37.7213
37.717
37.7317
37.7252
37.6724
37.5651
37.4034
37.1911
36.9342
36.6386
36.3111
35.9562
35.5805
35.1847
34.7773
34.3498
33.924
33.4643
33.0402
32.5302
32.1616
33.1863
33.5401
34.0495
34.4761
34.9414
35.3763
35.8141
36.234
36.6432
37.0333
37.403
37.7455
38.0557
38.3268
38.5521
38.7253
38.8421
38.9013
38.9101
38.8914
38.8871
38.9004
38.8897
38.8299
38.713
38.5395
38.3139
38.0423
37.7312
37.3874
37.0167
36.6254
36.2151
35.7946
35.3566
34.9222
34.4584
34.0344
33.5287
33.181
34.1106
34.4422
34.9464
35.3721
35.8406
36.2825
36.729
37.1598
37.581
37.9838
38.3664
38.7219
39.0447
39.3274
39.5633
39.7459
39.8703
39.9354
39.9482
39.9316
39.9275
39.9388
39.9242
39.8586
39.7342
39.5516
39.3155
39.0321
38.7086
38.3521
37.9683
37.5642
37.1422
36.7107
36.2639
35.8226
35.3555
34.9324
34.4321
34.1066
34.9423
35.2493
35.7461
36.1698
36.6405
37.0884
37.5423
37.9823
38.4133
38.8268
39.2198
39.5858
39.9184
40.2105
40.4548
40.6449
40.776
40.8469
40.8646
40.8516
40.8477
40.8557
40.8361
40.7648
40.6339
40.4438
40.1992
39.9067
39.5733
39.2063
38.8121
38.3976
37.9657
37.525
37.0709
36.6236
36.1544
35.7334
35.2406
34.94
35.68
35.9584
36.4453
36.866
37.3382
37.7911
38.2517
38.7
39.1395
39.5619
39.9637
40.3381
40.6787
40.9782
41.2294
41.4259
41.5631
41.6402
41.6645
41.6571
41.6535
41.6562
41.63
41.5525
41.4153
41.2189
40.9675
40.6676
40.3263
39.9509
39.5481
39.1245
38.6841
38.2353
37.7745
37.3221
36.8517
36.4339
35.9515
35.6803
36.3237
36.5666
37.0399
37.4562
37.9292
38.3872
38.8543
39.3103
39.7579
40.1883
40.5979
40.9795
41.3268
41.6323
41.8894
42.0916
42.2349
42.319
42.3513
42.3507
42.3476
42.3436
42.3096
42.2248
42.0815
41.8793
41.6221
41.316
40.9681
40.5856
40.175
39.7434
39.295
38.8383
38.3712
37.914
37.4428
37.0298
36.5617
36.3269
36.8747
37.0711
37.5254
37.9353
38.4083
38.8713
39.3452
39.8091
40.2646
40.703
41.1197
41.5079
41.8611
42.1722
42.4345
42.6422
42.7917
42.8832
42.924
42.9308
42.9279
42.9171
42.8743
42.7821
42.6324
42.4246
42.1621
41.8505
41.4966
41.1074
40.6897
40.2504
39.794
39.3294
38.8555
38.3934
37.9225
37.5165
37.0686
36.8821
37.3376
37.4689
37.8962
38.2962
38.7682
39.2362
39.717
40.1893
40.6531
41.0994
41.5234
41.918
42.2768
42.5931
42.8605
43.0734
43.2292
43.3281
43.3773
43.3907
43.3882
43.3709
43.3198
43.2199
43.0639
42.8506
42.5829
42.2661
41.9065
41.5109
41.0859
40.6386
40.1737
39.7007
39.2199
38.7528
38.2834
37.8878
37.4685
37.3491
37.7193
37.7578
38.1426
38.5296
38.9981
39.4708
39.9587
40.4401
40.9127
41.3673
41.7988
42.2
42.5647
42.8861
43.1585
43.3768
43.5385
43.6445
43.7012
43.7204
43.7181
43.6953
43.6365
43.5294
43.3671
43.1484
42.8756
42.5535
42.188
41.7856
41.353
40.8971
40.4234
39.9412
39.4533
38.9815
38.5159
38.1346
37.7593
37.7354
38.0296
37.94
38.2591
38.623
39.0855
39.5618
40.0568
40.5474
41.0294
41.493
41.9324
42.3407
42.7114
43.0383
43.3158
43.5393
43.7069
43.8194
43.8826
43.9065
43.9043
43.877
43.8115
43.6977
43.5295
43.3053
43.0272
42.6995
42.3277
41.9181
41.4773
41.0122
40.5288
40.0372
39.5419
39.0666
38.6075
38.2498
37.9412
38.0466
38.2684
38.0171
38.243
38.5678
39.0176
39.4956
39.9969
40.4965
40.988
41.461
41.9089
42.3248
42.7021
43.0348
43.3175
43.5464
43.7194
43.8377
43.9064
43.934
43.9319
43.9008
43.8297
43.7099
43.5359
43.3063
43.0226
42.6889
42.3103
41.8929
41.4431
40.9683
40.4751
39.9739
39.4721
38.9949
38.5475
38.2277
38.0102
38.274
38.4124
37.9802
38.0903
38.3586
38.7857
39.2628
39.7679
40.2758
40.7763
41.2586
41.7151
42.1387
42.5228
42.8615
43.1498
43.3837
43.5618
43.6851
43.7583
43.7888
43.7866
43.7525
43.6767
43.5517
43.3724
43.1374
42.848
42.508
42.1223
41.6968
41.2381
40.7534
40.2506
39.7405
39.2337
38.7559
38.3289
38.0612
37.9513
38.3819
38.4152
37.8086
37.7964
37.9963
38.3902
38.8593
39.3682
39.8824
40.3908
40.8813
41.3456
41.7763
42.1668
42.5113
42.8045
43.0432
43.2256
43.3529
43.4294
43.462
43.4597
43.4232
43.3439
43.2146
43.0308
42.7908
42.4961
42.1501
41.7575
41.3244
40.8572
40.3637
39.8522
39.3346
38.8228
38.3507
37.9532
37.7474
37.7489
38.3359
38.1919
37.4597
37.3498
37.4876
37.847
38.304
38.813
39.331
39.8446
40.3406
40.8107
41.2468
41.6422
41.9909
42.288
42.5301
42.7154
42.8453
42.9238
42.9575
42.955
42.9171
42.8355
42.7035
42.5165
42.273
41.9743
41.6236
41.2257
40.7865
40.3128
39.8129
39.2951
38.7731
38.2596
37.7974
37.4313
37.2838
37.3776
38.0848
37.7161
36.9234
36.7605
36.8559
37.1876
37.6308
38.1364
38.6571
39.1729
39.6718
40.1444
40.5829
40.9805
41.331
41.6297
41.8729
42.059
42.1892
42.2678
42.3014
42.2988
42.2607
42.179
42.0466
41.859
41.6145
41.3143
40.9616
40.5612
40.1191
39.6422
39.1385
38.6175
38.0919
37.5809
37.1319
36.7931
36.6889
36.8389
37.6127
36.9754
36.2064
36.0503
36.1398
36.4636
36.9007
37.4044
37.9258
38.4411
38.9393
39.4109
39.8484
40.2447
40.5938
40.8908
41.1321
41.3161
41.4439
41.5203
41.5524
41.5498
41.5133
41.4346
41.3056
41.1211
40.8794
40.5817
40.231
39.8323
39.3914
38.9153
38.4121
37.8915
37.3658
36.8585
36.4195
36.0977
36.0185
36.1991
37.019
36.2484
35.5079
35.3688
35.4612
35.7825
36.2147
36.714
37.2321
37.7436
38.2378
38.7051
39.1381
39.5299
39.8744
40.1667
40.4031
40.5818
40.7042
40.7753
40.8042
40.8021
40.7704
40.699
40.5783
40.4019
40.168
39.8776
39.534
39.1419
38.7071
38.2367
37.7386
37.2225
36.7005
36.1973
35.7619
35.441
35.356
35.5169
36.3039
35.7903
35.0276
34.8759
34.9565
35.2672
35.6894
36.1798
36.6901
37.1947
37.682
38.1425
38.5687
38.9535
39.291
39.576
39.8048
39.9756
40.0896
40.1524
40.1757
40.1748
40.1521
40.094
39.9875
39.8253
39.605
39.3279
38.9973
38.618
38.1958
37.7378
37.2516
36.7472
36.2368
35.7436
35.3146
34.9923
34.8939
35.0222
35.7575
35.5356
34.7823
34.6387
34.721
35.0285
35.4433
35.9237
36.4227
36.9168
37.3939
37.8444
38.2605
38.6353
38.9629
39.238
39.4568
39.617
39.7195
39.7704
39.7847
39.7851
39.776
39.7365
39.6489
39.5048
39.302
39.0421
38.7286
38.3663
37.961
37.5198
37.0505
36.5632
36.0709
35.594
35.1769
34.8618
34.7634
34.887
35.6162
35.5718
34.8931
34.7965
34.9002
35.2116
35.6171
36.0801
36.5574
37.0311
37.4883
37.9196
38.3171
38.6741
38.9847
39.2435
39.4468
39.5916
39.6782
39.7122
39.7115
39.7106
39.7179
39.6994
39.6321
39.5078
39.3251
39.0861
38.7948
38.4559
38.0758
37.6613
37.2212
36.7655
36.3091
35.8681
35.4824
35.1872
35.0931
35.1886
35.8494
36.229
35.5404
35.4374
35.5238
35.8111
36.1855
36.6125
37.055
37.4974
37.9257
38.3302
38.7024
39.0359
39.3243
39.5627
39.747
39.8741
39.9438
39.9608
39.9444
39.942
39.9646
39.9628
39.9114
39.8033
39.638
39.4181
39.1474
38.8311
38.475
38.0861
37.6732
37.2464
36.8205
36.4121
36.0543
35.7761
35.6848
35.7557
36.3648
37.0221
36.4041
36.3303
36.4109
36.6725
37.0071
37.3912
37.7928
38.1962
38.5876
38.957
39.2965
39.599
39.859
40.0712
40.2318
40.3376
40.3882
40.3878
40.3562
40.348
40.3755
40.3802
40.3363
40.2375
40.0834
39.8766
39.621
39.3214
38.9835
38.6143
38.2219
37.8168
37.4136
37.0291
36.6968
36.4409
36.3699
36.4581
37.0959
37.627
37.0308
36.9597
37.0249
37.2632
37.5706
37.93
38.3083
38.6902
39.0612
39.4115
39.7328
40.0186
40.263
40.461
40.6086
40.7032
40.7441
40.7361
40.6996
40.6922
40.7229
40.731
40.6914
40.5981
40.4506
40.2513
40.004
39.7128
39.3833
39.0215
38.6351
38.2331
37.8286
37.436
37.0849
36.7951
36.6705
36.6837
37.2208
43.4885
51.3084
57.5369
63.6635
68.9531
73.2438
76.6819
79.4609
81.736
83.6417
85.2976
86.7802
88.1271
89.3722
90.5466
91.6807
92.805
93.9479
95.1326
96.3767
97.6896
99.0737
100.526
102.039
103.603
105.206
106.83
108.453
110.037
111.51
112.724
113.443
42.7792
50.3137
56.342
62.3275
67.5427
71.7975
75.2169
77.9874
80.2623
82.1746
83.8393
85.3262
86.6651
87.8966
89.0531
90.1657
91.2664
92.3842
93.5434
94.7603
96.0445
97.3984
98.8189
100.299
101.829
103.395
104.982
106.567
108.113
109.55
110.735
111.434
41.988
49.2747
55.1163
60.963
66.1056
70.3298
73.7385
76.5102
78.7957
80.7237
82.4019
83.8935
85.2283
86.449
87.589
88.6824
89.7616
90.856
91.9893
93.1792
94.4353
95.7597
97.1491
98.5964
100.092
101.622
103.172
104.72
106.227
107.629
108.783
109.464
41.1774
48.2287
53.8826
59.5848
64.6524
68.8479
72.2502
75.0294
77.3339
79.2865
80.9847
82.4861
83.8232
85.0351
86.1625
87.2385
88.2971
89.3688
90.479
91.644
92.873
94.1687
95.5277
96.9428
98.4043
99.899
101.412
102.922
104.393
105.759
106.884
107.545
40.3148
47.1431
52.6083
58.1639
63.1594
67.3357
70.7453
73.5467
75.8823
77.8663
79.5877
81.1016
82.4439
83.6536
84.771
85.8327
86.8744
87.927
89.0141
90.1544
91.3578
92.6261
93.9559
95.3403
96.7686
98.2294
99.7072
101.181
102.615
103.947
105.041
105.685
39.4408
46.048
51.3174
56.7183
61.6403
65.8032
69.2281
72.0578
74.4293
76.4502
78.201
79.7342
81.0887
82.3021
83.4145
84.4657
85.4918
86.5253
87.5934
88.7126
89.8917
91.1336
92.4352
93.7894
95.1857
96.6122
98.0543
99.4917
100.89
102.188
103.253
103.879
38.5189
44.9098
49.9768
55.2161
60.0645
64.2231
67.678
70.5524
72.9734
75.0382
76.822
78.3788
79.7491
80.9736
82.0872
83.1324
84.1483
85.1688
86.2179
87.3152
88.4717
89.689
90.9637
92.2885
93.6543
95.0482
96.4567
97.8593
99.2228
100.487
101.524
102.132
37.5719
43.7441
48.5968
53.6613
58.4325
62.596
66.0962
69.0258
71.501
73.6163
75.4427
77.0315
78.4265
79.6651
80.7888
81.8336
82.8421
83.8491
84.8844
85.9656
87.1013
88.2949
89.5437
90.8403
92.1754
93.5366
94.9102
96.2772
97.6055
98.837
99.8463
100.436
36.565
42.5204
47.1496
52.0272
56.7154
60.8879
64.4445
67.4468
69.9965
72.1752
74.0499
75.6781
77.1033
78.3685
79.5055
80.5589
81.5676
82.571
83.5932
84.656
85.7726
86.9448
88.1689
89.4382
90.7435
92.0734
93.4148
94.7488
96.0435
97.2422
98.2237
98.7962
35.5
41.2296
45.6166
50.2815
54.8722
59.0646
62.7084
65.8108
68.4462
70.6995
72.6402
74.3191
75.7862
77.0776
78.2393
79.3051
80.3195
81.3192
82.335
83.3888
84.4889
85.64
86.8404
88.0829
89.3589
90.6562
91.9621
93.2599
94.5193
95.6861
96.6401
97.1933
34.3208
39.8385
43.9816
48.4243
52.9077
57.1144
60.8429
64.0568
66.8121
69.1677
71.1843
72.928
74.4446
75.784
76.9733
78.0611
79.0875
80.095
81.1064
82.1467
83.232
84.3651
85.5426
86.7587
88.0047
89.2708
90.5454
91.8104
93.0372
94.1719
95.0977
95.6345
33.0162
38.3175
42.1812
46.3456
50.6739
54.8966
58.7733
62.1723
65.0759
67.5533
69.6788
71.5028
73.0887
74.4711
75.7054
76.8222
77.8686
78.8811
79.8949
80.9352
82.0097
83.1246
84.2805
85.4707
86.6877
87.9211
89.1587
90.3866
91.5775
92.68
93.5781
94.0933
31.5099
36.6192
40.2125
44.105
48.2807
52.5048
56.4823
60.0427
63.1552
65.8159
68.071
70.0099
71.6771
73.1396
74.4197
75.5757
76.6474
77.682
78.7015
79.7327
80.7969
81.898
83.0332
84.1982
85.3856
86.5875
87.7937
88.9896
90.1487
91.2179
92.0877
92.5884
29.7905
34.7015
37.9652
41.4588
45.3315
49.4991
53.7173
57.6339
61.0154
63.8976
66.3572
68.4272
70.2093
71.7393
73.0967
74.3063
75.4201
76.4718
77.5044
78.5477
79.608
80.6945
81.8103
82.9499
84.108
85.2757
86.4435
87.5998
88.7201
89.7564
90.5985
91.0738
27.616
32.3745
35.3444
38.5032
42.1709
46.3176
50.5651
54.6681
58.4653
61.7115
64.4008
66.6971
68.6294
70.306
71.7378
73.0096
74.1633
75.2564
76.3088
77.3482
78.4038
79.4814
80.5787
81.694
82.8221
83.9573
85.0927
86.2173
87.3059
88.3083
89.1187
89.5821
25.0419
29.7062
32.343
34.921
37.8854
41.6075
46.335
51.1915
55.4229
59.1117
62.2642
64.802
66.9395
68.7105
70.2723
71.637
72.8701
73.9984
75.0779
76.1465
77.2075
78.2744
79.3544
80.444
81.5409
82.639
83.7319
84.812
85.859
86.825
87.6067
88.039
21.1436
25.8246
28.1025
30.2102
33.0432
37.093
41.1343
45.9963
51.3978
55.9064
59.4694
62.5067
64.9507
67.0446
68.7465
70.2176
71.5079
72.7042
73.8238
74.8942
75.9577
77.0214
78.0853
79.1507
80.2159
81.279
82.3377
83.3867
84.399
85.3302
86.0758
86.4971
16.2569
21.3702
23.9373
25.6523
26.6512
27.1434
34.1923
40.8362
46.0239
51.5861
56.4332
59.9749
62.8633
65.0646
66.9902
68.6164
70.0546
71.3173
72.4846
73.6102
74.6913
75.7495
76.7977
77.8355
78.8651
79.8853
80.8941
81.8881
82.8569
83.7417
84.4556
84.8414
6.26576
11.2141
12.0138
12.2844
15.7301
18.0091
16.8963
25.4763
38.596
45.8265
51.3529
56.2782
59.8392
62.8617
65.0906
66.9385
68.4669
69.8417
71.0825
72.2158
73.3094
74.3715
75.4057
76.4173
77.4113
78.3921
79.3628
80.3284
81.2523
82.1032
82.7752
83.1465
9.30116
6.28736
10.3592
14.2337
8.5119
12.5979
8.93671
10.1949
19.7363
36.3527
46.3961
52.1653
56.9758
60.056
62.762
64.8725
66.684
68.183
69.5055
70.7403
71.871
72.9348
73.9536
74.9333
75.8831
76.8082
77.7141
78.6031
79.4843
80.2696
80.9005
81.2321
11.0146
15.3552
16.2843
15.7418
13.1378
13.1068
10.264
20.0738
14.0099
18.0371
31.9146
44.9914
51.1981
56.6705
59.9793
62.6335
64.6214
66.3317
67.7964
69.0447
70.2027
71.2809
72.2882
73.2354
74.1392
75.0187
75.8812
76.7481
77.567
78.317
78.8955
79.2076
19.6132
23.9917
25.8782
26.719
26.412
24.6896
21.9647
14.3579
20.947
24.5053
27.8093
33.1035
46.4717
51.5145
56.4376
59.5809
62.1693
64.1167
65.7234
67.172
68.406
69.4981
70.4875
71.3933
72.2365
73.0306
73.7935
74.5442
75.3119
75.9628
76.4885
76.7429
21.8971
26.8734
29.582
31.5966
32.8157
33.0785
32.1286
29.633
25.3915
28.5712
30.989
33.0333
32.3484
46.2155
51.3842
56.0922
59.0444
61.4593
63.3876
64.8501
66.1365
67.2607
68.2429
69.0989
69.8696
70.6101
71.3297
72.0587
72.7654
73.3654
73.7993
74.0414
22.7887
27.8697
30.7941
33.1539
34.9103
36.0383
36.4767
36.0153
34.0188
30.0071
26.719
26.738
32.9698
31.4793
45.3757
50.5894
55.1616
58.0647
60.2286
62.1433
63.5974
64.7639
65.7166
66.5067
67.1835
67.763
68.2819
68.8341
69.4194
69.8491
70.244
70.3634
22.2355
27.4622
30.5509
33.1397
35.1878
36.6841
37.6248
37.9874
37.6453
36.1123
32.2666
26.7901
29.3574
12.4116
32.2524
44.8534
49.4685
53.5463
56.5967
58.4528
59.9937
61.2169
62.1735
62.8602
63.3991
63.9078
64.4387
64.9102
65.5777
65.9034
66.0799
66.1938
20.7663
26.1246
29.3021
32.018
34.2436
35.9756
37.2322
38.043
38.4249
38.292
37.1752
33.6816
30.4631
23.7412
14.2134
29.6473
42.7461
47.5325
50.7705
53.9233
55.884
57.2234
58.0979
58.6406
58.9897
59.1451
59.098
59.3409
59.5538
59.4512
59.7949
59.5577
18.7867
24.2351
27.436
30.1973
32.5091
34.384
35.8454
36.9411
37.7325
38.2552
38.4053
37.5978
34.4312
30.2674
25.7781
21.7363
29.0848
38.7242
45.0989
47.0357
49.0849
50.312
51.2323
51.4451
51.5844
51.5436
51.9486
51.577
53.0862
52.7975
52.9405
51.9234
16.5443
21.9685
25.0909
27.7942
30.0962
32.0327
33.6424
34.974
36.0944
37.052
37.7986
38.0254
36.7954
32.6336
36.2714
31.7374
19.2668
21.0025
29.1154
38.5934
41.8663
43.6316
44.3236
43.8921
43.9277
42.4043
40.868
40.5592
40.7018
37.1652
37.9147
37.1462
14.303
19.5629
22.5037
25.0486
27.2485
29.1618
30.8445
32.3546
33.7576
35.1128
36.411
37.4724
37.797
36.1934
32.6922
27.389
26.5115
25.4228
26.424
21.1434
26.0469
23.2249
24.8512
20.7424
22.1426
28.7426
19.3223
34.0203
23.6539
22.0543
39.8749
10.6991
12.3407
17.3178
20.0036
22.3198
24.3503
26.1727
27.8547
29.4594
31.0471
32.6731
34.3601
36.0258
37.3913
37.8574
36.1461
32.9688
28.0278
25.2178
32.7617
24.3695
31.2582
18.1529
11.2242
30.6662
23.681
41.9874
23.0835
33.9829
31.9519
25.8093
40.9934
23.4212
10.8291
15.458
17.8751
19.9476
21.7884
23.4885
25.1208
26.7444
28.4088
30.1572
32.0238
33.9993
35.9635
37.5828
38.2834
37.9672
35.0693
30.3144
31.5023
26.3972
33.4378
18.8564
26.8881
19.1309
34.8222
36.8994
35.5746
31.3479
40.3986
30.2246
31.6495
32.2762
9.71829
14.1052
16.2962
18.1655
19.8484
21.4397
23.0061
24.5942
26.2396
27.975
29.8367
31.8558
34.0233
36.2051
38.0589
39.2329
39.0871
38.0288
33.9299
31.0067
27.2689
28.1252
28.6588
33.2942
30.4199
36.8696
36.6721
40.1596
35.8858
40.5826
38.0256
41.2443
9.13163
13.3319
15.3654
17.1043
18.6928
20.2166
21.7259
23.2493
24.8086
26.4299
28.1506
30.0196
32.0823
34.335
36.642
38.6949
39.9692
40.4792
39.5106
38.1778
36.629
38.3302
37.8888
40.6844
38.0673
42.2742
41.6523
43.9135
40.1372
44.0129
42.8852
43.5657
8.96749
13.0831
15.0483
16.7413
18.3045
19.8075
21.2807
22.7367
24.187
25.6543
27.1748
28.7986
30.586
32.592
34.8194
37.1371
39.1845
40.6523
41.114
40.7706
40.5519
41.3356
41.1788
42.3924
41.1003
42.8554
42.4861
43.7981
41.7933
44.2255
43.4127
43.3449
9.15266
13.2611
15.2307
16.9462
18.5381
20.0574
21.5175
22.9207
24.2746
25.5994
26.9279
28.3031
29.7791
31.4202
33.2861
35.3794
37.5482
39.5027
40.8159
41.2875
41.5752
42.0897
42.0437
42.5085
41.6835
42.1636