/*--------------------------------*- C++ -*----------------------------------*\
  =========                 |
  \\      /  F ield         | OpenFOAM: The Open Source CFD Toolbox
   \\    /   O peration     | Website:  https://openfoam.org
    \\  /    A nd           | Version:  6
     \\/     M anipulation  |
\*---------------------------------------------------------------------------*/
FoamFile
{
    version     2.0;
    format      ascii;
    class       volScalarField;
    location    "40";
    object      nut;
}
// * * * * * * * * * * * * * * * * * * * * * * * * * * * * * * * * * * * * * //

dimensions      [0 2 -1 0 0 0 0];

internalField   nonuniform List<scalar> 
2880
(
6.09936e-09
6.09934e-09
6.09945e-09
5.99508e-09
5.9952e-09
5.9955e-09
8.92843e-09
8.92898e-09
8.92953e-09
1.21927e-08
1.21936e-08
1.21943e-08
1.55388e-08
1.55399e-08
1.55406e-08
1.89179e-08
1.89191e-08
1.89198e-08
2.23039e-08
2.23053e-08
2.2306e-08
2.56764e-08
2.5678e-08
2.56786e-08
2.90147e-08
2.90163e-08
2.9017e-08
3.22725e-08
3.22741e-08
3.2275e-08
3.53614e-08
3.53629e-08
3.5364e-08
3.81536e-08
3.8155e-08
3.81564e-08
4.04523e-08
4.04532e-08
4.04549e-08
4.20144e-08
4.20148e-08
4.20169e-08
4.29066e-08
4.29068e-08
4.2909e-08
4.29062e-08
4.29063e-08
4.29085e-08
4.20131e-08
4.20136e-08
4.20156e-08
4.04506e-08
4.04515e-08
4.04532e-08
3.81514e-08
3.81528e-08
3.81542e-08
3.53594e-08
3.5361e-08
3.5362e-08
3.22702e-08
3.22718e-08
3.22727e-08
2.90123e-08
2.90139e-08
2.90146e-08
2.56731e-08
2.56746e-08
2.56753e-08
2.22992e-08
2.23006e-08
2.23013e-08
1.89121e-08
1.89133e-08
1.8914e-08
1.55329e-08
1.5534e-08
1.55347e-08
1.21881e-08
1.21889e-08
1.21896e-08
8.92584e-09
8.92639e-09
8.92695e-09
5.99373e-09
5.99385e-09
5.99415e-09
6.09869e-09
6.09867e-09
6.09878e-09
3.7024e-07
3.7024e-07
3.70243e-07
5.75668e-07
5.75677e-07
5.75698e-07
7.4766e-07
7.47694e-07
7.47725e-07
9.13791e-07
9.13835e-07
9.13868e-07
1.06097e-06
1.06102e-06
1.06105e-06
1.19165e-06
1.1917e-06
1.19173e-06
1.30845e-06
1.3085e-06
1.30852e-06
1.41342e-06
1.41347e-06
1.41349e-06
1.50807e-06
1.50812e-06
1.50814e-06
1.59295e-06
1.593e-06
1.59302e-06
1.66754e-06
1.66758e-06
1.66761e-06
1.73065e-06
1.73068e-06
1.73071e-06
1.77924e-06
1.77925e-06
1.77928e-06
1.80736e-06
1.80737e-06
1.80741e-06
1.82303e-06
1.82303e-06
1.82307e-06
1.82302e-06
1.82302e-06
1.82306e-06
1.80734e-06
1.80735e-06
1.80738e-06
1.77921e-06
1.77922e-06
1.77925e-06
1.7306e-06
1.73063e-06
1.73066e-06
1.6675e-06
1.66754e-06
1.66756e-06
1.5929e-06
1.59294e-06
1.59296e-06
1.50801e-06
1.50806e-06
1.50807e-06
1.41332e-06
1.41337e-06
1.41339e-06
1.3083e-06
1.30835e-06
1.30837e-06
1.19144e-06
1.19149e-06
1.19152e-06
1.06073e-06
1.06078e-06
1.06081e-06
9.13573e-07
9.13617e-07
9.1365e-07
7.47518e-07
7.47551e-07
7.47582e-07
5.75578e-07
5.75587e-07
5.75608e-07
3.70224e-07
3.70224e-07
3.70227e-07
9.05102e-07
9.05101e-07
9.05109e-07
2.51674e-06
2.51678e-06
2.51684e-06
2.78409e-06
2.78418e-06
2.78425e-06
3.11017e-06
3.11029e-06
3.11036e-06
3.40083e-06
3.40095e-06
3.40101e-06
3.65745e-06
3.65757e-06
3.65762e-06
3.88563e-06
3.88576e-06
3.8858e-06
4.08995e-06
4.09008e-06
4.09011e-06
4.27376e-06
4.27388e-06
4.27391e-06
4.43837e-06
4.43848e-06
4.43851e-06
4.58296e-06
4.58305e-06
4.5831e-06
4.70535e-06
4.70542e-06
4.70548e-06
4.80062e-06
4.80066e-06
4.80073e-06
4.86234e-06
4.86235e-06
4.86244e-06
4.89678e-06
4.89677e-06
4.89687e-06
4.89677e-06
4.89676e-06
4.89685e-06
4.86229e-06
4.8623e-06
4.86239e-06
4.80056e-06
4.8006e-06
4.80067e-06
4.70527e-06
4.70534e-06
4.7054e-06
4.58289e-06
4.58298e-06
4.58302e-06
4.43828e-06
4.43838e-06
4.43842e-06
4.27365e-06
4.27377e-06
4.2738e-06
4.08978e-06
4.0899e-06
4.08994e-06
3.88535e-06
3.88548e-06
3.88552e-06
3.65705e-06
3.65718e-06
3.65722e-06
3.40036e-06
3.40048e-06
3.40054e-06
3.10975e-06
3.10986e-06
3.10993e-06
2.78381e-06
2.7839e-06
2.78397e-06
2.51656e-06
2.5166e-06
2.51665e-06
9.05061e-07
9.0506e-07
9.05067e-07
1.6563e-06
1.6563e-06
1.65632e-06
5.42635e-06
5.42644e-06
5.42655e-06
5.71784e-06
5.71805e-06
5.71816e-06
6.19534e-06
6.19558e-06
6.19569e-06
6.62827e-06
6.6285e-06
6.6286e-06
7.00904e-06
7.00928e-06
7.00935e-06
7.34549e-06
7.34573e-06
7.34579e-06
7.645e-06
7.64523e-06
7.64528e-06
7.91315e-06
7.91337e-06
7.91342e-06
8.15242e-06
8.15262e-06
8.15267e-06
8.36203e-06
8.3622e-06
8.36226e-06
8.53918e-06
8.5393e-06
8.53938e-06
8.67756e-06
8.67762e-06
8.67772e-06
8.76958e-06
8.76957e-06
8.76971e-06
8.82105e-06
8.821e-06
8.82116e-06
8.82103e-06
8.82098e-06
8.82114e-06
8.76952e-06
8.76951e-06
8.76965e-06
8.67748e-06
8.67754e-06
8.67765e-06
8.53908e-06
8.5392e-06
8.53928e-06
8.36195e-06
8.36212e-06
8.36218e-06
8.15231e-06
8.15251e-06
8.15255e-06
7.91302e-06
7.91324e-06
7.91329e-06
7.64477e-06
7.645e-06
7.64505e-06
7.3451e-06
7.34534e-06
7.3454e-06
7.00848e-06
7.00871e-06
7.00879e-06
6.62759e-06
6.62783e-06
6.62792e-06
6.19471e-06
6.19495e-06
6.19506e-06
5.71744e-06
5.71764e-06
5.71775e-06
5.4261e-06
5.42618e-06
5.42629e-06
1.65623e-06
1.65623e-06
1.65624e-06
2.58101e-06
2.581e-06
2.58102e-06
9.07326e-06
9.07342e-06
9.0736e-06
9.16754e-06
9.16791e-06
9.16809e-06
9.75499e-06
9.75541e-06
9.75558e-06
1.03337e-05
1.03342e-05
1.03343e-05
1.08556e-05
1.08561e-05
1.08562e-05
1.13222e-05
1.13226e-05
1.13227e-05
1.17405e-05
1.17409e-05
1.1741e-05
1.21169e-05
1.21173e-05
1.21174e-05
1.24542e-05
1.24545e-05
1.24546e-05
1.27507e-05
1.2751e-05
1.27511e-05
1.30022e-05
1.30024e-05
1.30025e-05
1.31993e-05
1.31995e-05
1.31996e-05
1.33318e-05
1.33318e-05
1.3332e-05
1.34062e-05
1.34062e-05
1.34064e-05
1.34062e-05
1.34061e-05
1.34064e-05
1.33317e-05
1.33317e-05
1.33319e-05
1.31993e-05
1.31994e-05
1.31995e-05
1.30021e-05
1.30023e-05
1.30024e-05
1.27506e-05
1.27509e-05
1.2751e-05
1.24541e-05
1.24544e-05
1.24545e-05
1.21168e-05
1.21172e-05
1.21173e-05
1.17402e-05
1.17406e-05
1.17407e-05
1.13217e-05
1.13221e-05
1.13222e-05
1.08549e-05
1.08553e-05
1.08554e-05
1.03328e-05
1.03333e-05
1.03334e-05
9.75415e-06
9.75457e-06
9.75474e-06
9.16705e-06
9.16742e-06
9.1676e-06
9.07299e-06
9.07315e-06
9.07334e-06
2.5809e-06
2.58089e-06
2.58091e-06
3.52449e-06
3.52449e-06
3.52452e-06
1.35592e-05
1.35594e-05
1.35597e-05
1.32878e-05
1.32884e-05
1.32887e-05
1.39114e-05
1.39121e-05
1.39124e-05
1.46156e-05
1.46163e-05
1.46165e-05
1.52772e-05
1.52779e-05
1.5278e-05
1.58803e-05
1.5881e-05
1.58811e-05
1.64275e-05
1.64282e-05
1.64283e-05
1.69241e-05
1.69247e-05
1.69248e-05
1.73717e-05
1.73723e-05
1.73724e-05
1.77673e-05
1.77678e-05
1.77679e-05
1.81043e-05
1.81047e-05
1.81048e-05
1.83697e-05
1.83699e-05
1.83701e-05
1.85499e-05
1.85499e-05
1.85502e-05
1.86517e-05
1.86516e-05
1.8652e-05
1.86517e-05
1.86516e-05
1.8652e-05
1.85498e-05
1.85499e-05
1.85502e-05
1.83696e-05
1.83698e-05
1.837e-05
1.81042e-05
1.81046e-05
1.81047e-05
1.77673e-05
1.77678e-05
1.77679e-05
1.73716e-05
1.73722e-05
1.73723e-05
1.6924e-05
1.69246e-05
1.69247e-05
1.64272e-05
1.64279e-05
1.6428e-05
1.58797e-05
1.58804e-05
1.58806e-05
1.52763e-05
1.52769e-05
1.52771e-05
1.46145e-05
1.46152e-05
1.46154e-05
1.39104e-05
1.39111e-05
1.39113e-05
1.32873e-05
1.32879e-05
1.32882e-05
1.3559e-05
1.35593e-05
1.35596e-05
3.52436e-06
3.52436e-06
3.52439e-06
4.36863e-06
4.36863e-06
4.36866e-06
1.88476e-05
1.8848e-05
1.88484e-05
1.81323e-05
1.81333e-05
1.81338e-05
1.86961e-05
1.86972e-05
1.86976e-05
1.94887e-05
1.94897e-05
1.949e-05
2.02792e-05
2.02803e-05
2.02805e-05
2.10208e-05
2.10218e-05
2.1022e-05
2.1705e-05
2.17061e-05
2.17062e-05
2.23331e-05
2.23341e-05
2.23342e-05
2.2904e-05
2.29048e-05
2.2905e-05
2.34115e-05
2.34123e-05
2.34125e-05
2.38462e-05
2.38468e-05
2.3847e-05
2.41903e-05
2.41907e-05
2.4191e-05
2.44264e-05
2.44265e-05
2.44269e-05
2.45606e-05
2.45606e-05
2.4561e-05
2.45605e-05
2.45605e-05
2.4561e-05
2.44263e-05
2.44265e-05
2.44269e-05
2.41902e-05
2.41906e-05
2.41909e-05
2.38461e-05
2.38468e-05
2.3847e-05
2.34116e-05
2.34124e-05
2.34125e-05
2.29039e-05
2.29048e-05
2.2905e-05
2.23331e-05
2.23341e-05
2.23342e-05
2.17048e-05
2.17058e-05
2.1706e-05
2.10202e-05
2.10212e-05
2.10214e-05
2.02782e-05
2.02792e-05
2.02795e-05
1.94873e-05
1.94883e-05
1.94886e-05
1.86949e-05
1.8696e-05
1.86964e-05
1.81319e-05
1.81328e-05
1.81333e-05
1.88476e-05
1.8848e-05
1.88484e-05
4.36849e-06
4.36849e-06
4.36852e-06
5.11395e-06
5.11395e-06
5.11399e-06
2.48549e-05
2.48554e-05
2.4856e-05
2.37654e-05
2.3767e-05
2.37676e-05
2.41676e-05
2.41693e-05
2.41698e-05
2.49942e-05
2.49958e-05
2.49962e-05
2.58919e-05
2.58935e-05
2.58938e-05
2.67674e-05
2.6769e-05
2.67692e-05
2.75937e-05
2.75952e-05
2.75954e-05
2.83635e-05
2.83649e-05
2.83651e-05
2.90702e-05
2.90716e-05
2.90717e-05
2.97033e-05
2.97045e-05
2.97047e-05
3.02485e-05
3.02495e-05
3.02498e-05
3.06826e-05
3.06833e-05
3.06837e-05
3.09834e-05
3.09838e-05
3.09843e-05
3.11555e-05
3.11557e-05
3.11563e-05
3.11555e-05
3.11556e-05
3.11562e-05
3.09833e-05
3.09837e-05
3.09842e-05
3.06826e-05
3.06833e-05
3.06837e-05
3.02485e-05
3.02495e-05
3.02498e-05
2.97035e-05
2.97047e-05
2.97049e-05
2.90703e-05
2.90717e-05
2.90718e-05
2.83636e-05
2.83651e-05
2.83652e-05
2.75935e-05
2.75951e-05
2.75953e-05
2.67668e-05
2.67684e-05
2.67686e-05
2.58907e-05
2.58923e-05
2.58926e-05
2.49925e-05
2.49941e-05
2.49946e-05
2.41661e-05
2.41678e-05
2.41683e-05
2.37651e-05
2.37667e-05
2.37673e-05
2.48552e-05
2.48557e-05
2.48563e-05
5.11381e-06
5.11381e-06
5.11384e-06
5.78707e-06
5.78707e-06
5.78712e-06
3.1452e-05
3.14527e-05
3.14536e-05
3.02413e-05
3.02437e-05
3.02445e-05
3.03985e-05
3.04011e-05
3.04018e-05
3.11905e-05
3.11929e-05
3.11935e-05
3.21608e-05
3.2163e-05
3.21634e-05
3.31575e-05
3.31598e-05
3.31601e-05
3.41261e-05
3.41283e-05
3.41286e-05
3.50457e-05
3.50479e-05
3.50481e-05
3.59004e-05
3.59024e-05
3.59026e-05
3.66726e-05
3.66744e-05
3.66746e-05
3.73417e-05
3.73433e-05
3.73437e-05
3.78777e-05
3.7879e-05
3.78795e-05
3.82526e-05
3.82535e-05
3.82541e-05
3.84687e-05
3.84693e-05
3.847e-05
3.84687e-05
3.84693e-05
3.847e-05
3.82526e-05
3.82534e-05
3.82541e-05
3.78778e-05
3.7879e-05
3.78795e-05
3.73419e-05
3.73434e-05
3.73438e-05
3.6673e-05
3.66748e-05
3.6675e-05
3.59007e-05
3.59027e-05
3.59029e-05
3.50461e-05
3.50482e-05
3.50484e-05
3.41261e-05
3.41284e-05
3.41286e-05
3.31569e-05
3.31592e-05
3.31595e-05
3.21594e-05
3.21617e-05
3.21621e-05
3.11886e-05
3.1191e-05
3.11915e-05
3.03968e-05
3.03994e-05
3.04001e-05
3.02413e-05
3.02437e-05
3.02446e-05
3.14529e-05
3.14535e-05
3.14544e-05
5.78692e-06
5.78692e-06
5.78697e-06
6.40226e-06
6.40226e-06
6.40231e-06
3.84696e-05
3.84705e-05
3.84717e-05
3.75886e-05
3.75921e-05
3.75933e-05
3.74669e-05
3.74707e-05
3.74717e-05
3.81478e-05
3.81513e-05
3.8152e-05
3.91422e-05
3.91455e-05
3.9146e-05
4.02375e-05
4.02407e-05
4.02411e-05
4.13426e-05
4.13457e-05
4.1346e-05
4.24168e-05
4.24198e-05
4.242e-05
4.34299e-05
4.34328e-05
4.3433e-05
4.43544e-05
4.4357e-05
4.43573e-05
4.51611e-05
4.51634e-05
4.51639e-05
4.58112e-05
4.58132e-05
4.58138e-05
4.627e-05
4.62716e-05
4.62724e-05
4.65367e-05
4.65379e-05
4.65389e-05
4.65367e-05
4.65379e-05
4.65389e-05
4.627e-05
4.62716e-05
4.62724e-05
4.58113e-05
4.58133e-05
4.58139e-05
4.51613e-05
4.51637e-05
4.51642e-05
4.4355e-05
4.43577e-05
4.4358e-05
4.34305e-05
4.34333e-05
4.34336e-05
4.24174e-05
4.24204e-05
4.24207e-05
4.13429e-05
4.1346e-05
4.13463e-05
4.02371e-05
4.02402e-05
4.02406e-05
3.91408e-05
3.9144e-05
3.91445e-05
3.81455e-05
3.8149e-05
3.81497e-05
3.74649e-05
3.74688e-05
3.74697e-05
3.75891e-05
3.75927e-05
3.75938e-05
3.84711e-05
3.84719e-05
3.84731e-05
6.40211e-06
6.40211e-06
6.40216e-06
6.96202e-06
6.96202e-06
6.96208e-06
4.5458e-05
4.54585e-05
4.54599e-05
4.57992e-05
4.58042e-05
4.58057e-05
4.54466e-05
4.54523e-05
4.54535e-05
4.5944e-05
4.5949e-05
4.595e-05
4.69019e-05
4.69065e-05
4.69072e-05
4.80613e-05
4.80657e-05
4.80661e-05
4.92888e-05
4.92932e-05
4.92935e-05
5.05175e-05
5.05217e-05
5.0522e-05
5.16973e-05
5.17013e-05
5.17016e-05
5.27859e-05
5.27897e-05
5.27901e-05
5.37433e-05
5.37468e-05
5.37474e-05
5.45197e-05
5.45228e-05
5.45237e-05
5.50725e-05
5.50751e-05
5.50763e-05
5.5397e-05
5.53991e-05
5.54004e-05
5.5397e-05
5.53991e-05
5.54004e-05
5.50726e-05
5.50752e-05
5.50763e-05
5.452e-05
5.45231e-05
5.45239e-05
5.37438e-05
5.37473e-05
5.37479e-05
5.27869e-05
5.27907e-05
5.27912e-05
5.16981e-05
5.17022e-05
5.17025e-05
5.05186e-05
5.05228e-05
5.05231e-05
4.92895e-05
4.92938e-05
4.92941e-05
4.80609e-05
4.80653e-05
4.80658e-05
4.69003e-05
4.69048e-05
4.69055e-05
4.59413e-05
4.59463e-05
4.59473e-05
4.54444e-05
4.54501e-05
4.54513e-05
4.58005e-05
4.58055e-05
4.58071e-05
4.54596e-05
4.54601e-05
4.54616e-05
6.96186e-06
6.96186e-06
6.96192e-06
7.4626e-06
7.4626e-06
7.46267e-06
5.14856e-05
5.14861e-05
5.14878e-05
5.48223e-05
5.48291e-05
5.48311e-05
5.4398e-05
5.4406e-05
5.44076e-05
5.46609e-05
5.4668e-05
5.46693e-05
5.55129e-05
5.55192e-05
5.55201e-05
5.6689e-05
5.6695e-05
5.66956e-05
5.8015e-05
5.80209e-05
5.80213e-05
5.93916e-05
5.93973e-05
5.93977e-05
6.07422e-05
6.07478e-05
6.07482e-05
6.20046e-05
6.201e-05
6.20106e-05
6.31249e-05
6.313e-05
6.31308e-05
6.40392e-05
6.40439e-05
6.4045e-05
6.46959e-05
6.47e-05
6.47015e-05
6.50854e-05
6.5089e-05
6.50906e-05
6.50855e-05
6.5089e-05
6.50907e-05
6.4696e-05
6.47002e-05
6.47016e-05
6.40397e-05
6.40444e-05
6.40455e-05
6.31257e-05
6.31308e-05
6.31316e-05
6.20062e-05
6.20116e-05
6.20122e-05
6.07435e-05
6.07491e-05
6.07495e-05
5.93932e-05
5.93989e-05
5.93993e-05
5.80161e-05
5.8022e-05
5.80224e-05
5.66889e-05
5.66949e-05
5.66955e-05
5.5511e-05
5.55173e-05
5.55182e-05
5.46575e-05
5.46647e-05
5.46659e-05
5.43955e-05
5.44034e-05
5.44051e-05
5.48247e-05
5.48316e-05
5.48335e-05
5.14877e-05
5.14881e-05
5.14898e-05
7.46243e-06
7.46243e-06
7.4625e-06
7.90547e-06
7.90547e-06
7.90553e-06
5.74174e-05
5.74181e-05
5.74199e-05
6.45629e-05
6.4572e-05
6.45744e-05
6.4356e-05
6.43669e-05
6.43691e-05
6.43784e-05
6.43882e-05
6.43899e-05
6.5054e-05
6.50626e-05
6.50638e-05
6.61873e-05
6.61954e-05
6.61962e-05
6.75757e-05
6.75835e-05
6.75841e-05
6.9085e-05
6.90926e-05
6.90931e-05
7.06051e-05
7.06125e-05
7.06131e-05
7.20474e-05
7.20548e-05
7.20555e-05
7.33406e-05
7.33477e-05
7.33488e-05
7.44031e-05
7.441e-05
7.44114e-05
7.51728e-05
7.51791e-05
7.5181e-05
7.56349e-05
7.56406e-05
7.56427e-05
7.5635e-05
7.56407e-05
7.56428e-05
7.51731e-05
7.51794e-05
7.51813e-05
7.44039e-05
7.44107e-05
7.44121e-05
7.33418e-05
7.3349e-05
7.33501e-05
7.20497e-05
7.20571e-05
7.20578e-05
7.06069e-05
7.06144e-05
7.0615e-05
6.90873e-05
6.90949e-05
6.90955e-05
6.75774e-05
6.75852e-05
6.75858e-05
6.61875e-05
6.61955e-05
6.61963e-05
6.50517e-05
6.50603e-05
6.50615e-05
6.43741e-05
6.4384e-05
6.43856e-05
6.43531e-05
6.4364e-05
6.43662e-05
6.45668e-05
6.45758e-05
6.45783e-05
5.742e-05
5.74206e-05
5.74225e-05
7.90529e-06
7.90529e-06
7.90536e-06
8.29607e-06
8.29607e-06
8.29614e-06
6.34135e-05
6.34143e-05
6.34164e-05
7.48832e-05
7.48947e-05
7.48977e-05
7.53195e-05
7.53339e-05
7.53368e-05
7.51666e-05
7.51799e-05
7.51821e-05
7.56074e-05
7.56189e-05
7.56205e-05
7.66286e-05
7.66391e-05
7.66402e-05
7.80301e-05
7.80402e-05
7.8041e-05
7.96458e-05
7.96557e-05
7.96564e-05
8.13263e-05
8.13362e-05
8.1337e-05
8.29494e-05
8.29593e-05
8.29603e-05
8.44223e-05
8.44322e-05
8.44335e-05
8.56411e-05
8.56509e-05
8.56526e-05
8.65318e-05
8.65412e-05
8.65434e-05
8.70739e-05
8.70826e-05
8.70851e-05
8.70741e-05
8.70828e-05
8.70853e-05
8.65323e-05
8.65417e-05
8.65439e-05
8.56422e-05
8.56521e-05
8.56538e-05
8.44241e-05
8.4434e-05
8.44353e-05
8.29526e-05
8.29625e-05
8.29635e-05
8.13289e-05
8.13388e-05
8.13395e-05
7.9649e-05
7.96589e-05
7.96597e-05
7.80325e-05
7.80426e-05
7.80435e-05
7.66289e-05
7.66394e-05
7.66406e-05
7.56045e-05
7.5616e-05
7.56176e-05
7.51611e-05
7.51744e-05
7.51766e-05
7.5316e-05
7.53306e-05
7.53334e-05
7.48888e-05
7.49002e-05
7.49033e-05
6.34167e-05
6.34175e-05
6.34196e-05
8.29588e-06
8.29588e-06
8.29595e-06
8.63941e-06
8.63941e-06
8.63949e-06
6.94135e-05
6.94144e-05
6.94168e-05
8.56067e-05
8.56205e-05
8.56242e-05
8.72408e-05
8.72594e-05
8.7263e-05
8.70766e-05
8.70941e-05
8.70969e-05
8.72543e-05
8.72693e-05
8.72714e-05
8.80902e-05
8.81037e-05
8.81052e-05
8.94421e-05
8.9455e-05
8.94561e-05
9.1125e-05
9.11375e-05
9.11386e-05
9.29468e-05
9.29594e-05
9.29605e-05
9.47441e-05
9.47571e-05
9.47583e-05
9.63986e-05
9.64118e-05
9.64135e-05
9.77786e-05
9.77921e-05
9.77942e-05
9.87964e-05
9.88096e-05
9.88123e-05
9.94254e-05
9.94379e-05
9.9441e-05
9.94257e-05
9.94382e-05
9.94413e-05
9.87972e-05
9.88104e-05
9.88131e-05
9.77803e-05
9.77937e-05
9.77959e-05
9.64011e-05
9.64144e-05
9.6416e-05
9.47484e-05
9.47614e-05
9.47626e-05
9.29502e-05
9.29629e-05
9.29639e-05
9.11294e-05
9.11419e-05
9.11429e-05
8.94454e-05
8.94582e-05
8.94594e-05
8.80907e-05
8.81041e-05
8.81056e-05
8.72504e-05
8.72654e-05
8.72675e-05
8.70694e-05
8.70868e-05
8.70897e-05
8.72368e-05
8.72555e-05
8.7259e-05
8.56143e-05
8.56283e-05
8.56319e-05
6.94174e-05
6.94183e-05
6.94207e-05
8.63921e-06
8.63922e-06
8.63929e-06
8.93987e-06
8.93988e-06
8.93995e-06
7.52962e-05
7.52972e-05
7.52999e-05
9.65252e-05
9.65416e-05
9.65458e-05
0.000100019
0.000100042
0.000100047
0.000100128
0.00010015
0.000100154
0.000100068
0.000100088
0.00010009
0.000100653
0.00010067
0.000100672
0.000101881
0.000101897
0.000101899
0.000103577
0.000103593
0.000103594
0.000105508
0.000105524
0.000105525
0.000107463
0.00010748
0.000107481
0.000109295
0.000109312
0.000109314
0.000110836
0.000110854
0.000110857
0.000111984
0.000112002
0.000112006
0.000112706
0.000112724
0.000112727
0.000112707
0.000112724
0.000112728
0.000111986
0.000112004
0.000112007
0.000110839
0.000110856
0.000110859
0.000109298
0.000109315
0.000109317
0.000107469
0.000107485
0.000107487
0.000105513
0.000105528
0.00010553
0.000103583
0.000103598
0.0001036
0.000101886
0.000101901
0.000101903
0.000100653
0.00010067
0.000100672
0.000100063
0.000100082
0.000100085
0.000100119
0.000100141
0.000100144
0.000100014
0.000100037
0.000100042
9.65352e-05
9.65516e-05
9.65558e-05
7.53008e-05
7.53018e-05
7.53045e-05
8.93966e-06
8.93966e-06
8.93974e-06
9.20166e-06
9.20166e-06
9.20174e-06
8.09209e-05
8.09221e-05
8.0925e-05
0.000107408
0.000107427
0.000107432
0.000113497
0.000113524
0.00011353
0.000114298
0.000114325
0.00011433
0.000114108
0.000114132
0.000114135
0.000114398
0.000114419
0.000114422
0.000115423
0.000115442
0.000115444
0.000117061
0.00011708
0.000117082
0.000119054
0.000119073
0.000119075
0.000121138
0.000121158
0.00012116
0.000123132
0.000123153
0.000123156
0.00012483
0.000124852
0.000124856
0.000126108
0.000126132
0.000126135
0.000126928
0.000126951
0.000126955
0.000126929
0.000126951
0.000126956
0.00012611
0.000126133
0.000126137
0.000124833
0.000124856
0.000124859
0.000123137
0.000123158
0.000123161
0.000121145
0.000121165
0.000121167
0.00011906
0.000119079
0.00011908
0.000117068
0.000117087
0.000117089
0.000115428
0.000115447
0.000115449
0.000114398
0.000114419
0.000114421
0.0001141
0.000114124
0.000114127
0.000114285
0.000114312
0.000114317
0.000113491
0.000113519
0.000113524
0.000107421
0.000107439
0.000107444
8.09263e-05
8.09274e-05
8.09303e-05
9.20144e-06
9.20144e-06
9.20151e-06
9.42903e-06
9.42903e-06
9.42911e-06
8.61418e-05
8.6143e-05
8.61462e-05
0.000118015
0.000118035
0.00011804
0.000127462
0.000127494
0.000127501
0.000129506
0.000129539
0.000129545
0.000129402
0.000129431
0.000129435
0.000129402
0.000129426
0.00012943
0.000130145
0.000130167
0.00013017
0.000131642
0.000131664
0.000131666
0.00013363
0.000133652
0.000133655
0.000135798
0.000135822
0.000135824
0.00013793
0.000137956
0.000137959
0.000139771
0.000139798
0.000139802
0.000141175
0.000141204
0.000141209
0.000142096
0.000142125
0.00014213
0.000142097
0.000142125
0.000142131
0.000141177
0.000141206
0.000141211
0.000139775
0.000139803
0.000139807
0.000137936
0.000137962
0.000137965
0.000135807
0.000135831
0.000135833
0.000133638
0.00013366
0.000133662
0.000131651
0.000131673
0.000131675
0.000130151
0.000130173
0.000130176
0.0001294
0.000129425
0.000129428
0.000129391
0.000129419
0.000129424
0.000129489
0.000129522
0.000129528
0.000127454
0.000127487
0.000127493
0.000118029
0.00011805
0.000118055
8.61477e-05
8.61489e-05
8.61521e-05
9.42879e-06
9.42879e-06
9.42887e-06
9.62626e-06
9.62626e-06
9.62634e-06
9.0818e-05
9.08192e-05
9.08225e-05
0.000128102
0.000128123
0.00012813
0.000141654
0.000141691
0.000141699
0.000145611
0.000145649
0.000145657
0.00014594
0.000145973
0.000145979
0.000145725
0.000145754
0.000145758
0.00014613
0.000146155
0.000146159
0.000147391
0.000147415
0.000147418
0.000149289
0.000149314
0.000149317
0.000151477
0.000151503
0.000151507
0.000153707
0.000153736
0.00015374
0.000155668
0.0001557
0.000155705
0.000157187
0.000157222
0.000157228
0.00015821
0.000158245
0.000158251
0.000158212
0.000158246
0.000158252
0.000157191
0.000157225
0.000157231
0.000155674
0.000155706
0.000155711
0.000153714
0.000153744
0.000153748
0.000151488
0.000151515
0.000151518
0.000149298
0.000149323
0.000149326
0.000147402
0.000147425
0.000147429
0.000146136
0.000146161
0.000146165
0.000145722
0.00014575
0.000145754
0.000145923
0.000145957
0.000145963
0.000145589
0.000145627
0.000145634
0.000141645
0.000141681
0.00014169
0.000128118
0.00012814
0.000128146
9.08243e-05
9.08255e-05
9.08289e-05
9.626e-06
9.626e-06
9.62607e-06
9.79749e-06
9.79748e-06
9.79756e-06
9.48262e-05
9.48273e-05
9.48307e-05
0.000137443
0.000137465
0.000137472
0.000155778
0.000155818
0.000155827
0.000162402
0.000162445
0.000162454
0.000163654
0.000163692
0.0001637
0.000163407
0.000163439
0.000163445
0.000163457
0.000163484
0.000163489
0.000164385
0.000164411
0.000164415
0.000166088
0.000166114
0.000166118
0.000168209
0.000168238
0.000168242
0.00017048
0.000170512
0.000170517
0.000172528
0.000172564
0.00017257
0.000174146
0.000174185
0.000174192
0.000175269
0.000175308
0.000175316
0.00017527
0.00017531
0.000175317
0.00017415
0.000174189
0.000174196
0.000172535
0.000172571
0.000172577
0.000170489
0.000170522
0.000170527
0.000168222
0.000168251
0.000168255
0.000166099
0.000166125
0.000166129
0.000164397
0.000164422
0.000164426
0.000163462
0.000163489
0.000163494
0.0001634
0.000163431
0.000163437
0.000163631
0.000163669
0.000163677
0.000162372
0.000162415
0.000162424
0.000155766
0.000155806
0.000155816
0.000137461
0.000137483
0.00013749
9.48327e-05
9.48337e-05
9.48373e-05
9.7972e-06
9.79719e-06
9.79727e-06
9.94653e-06
9.94653e-06
9.9466e-06
9.80741e-05
9.8075e-05
9.80785e-05
0.000145839
0.000145861
0.000145868
0.000169514
0.000169557
0.000169567
0.000179601
0.000179648
0.000179659
0.00018241
0.000182452
0.000182462
0.000182446
0.000182479
0.000182487
0.000182193
0.000182222
0.000182227
0.000182705
0.000182731
0.000182736
0.000184091
0.000184117
0.000184122
0.000186034
0.000186064
0.000186069
0.000188269
0.000188302
0.000188309
0.000190356
0.000190395
0.000190402
0.000192048
0.00019209
0.000192099
0.000193266
0.000193308
0.000193317
0.000193268
0.00019331
0.000193319
0.000192053
0.000192096
0.000192104
0.000190365
0.000190404
0.000190411
0.00018828
0.000188313
0.00018832
0.00018605
0.000186079
0.000186084
0.000184103
0.000184129
0.000184134
0.000182717
0.000182743
0.000182748
0.000182196
0.000182225
0.000182231
0.000182432
0.000182466
0.000182474
0.000182377
0.000182419
0.000182429
0.000179562
0.000179609
0.00017962
0.000169498
0.000169541
0.000169552
0.000145857
0.00014588
0.000145887
9.80804e-05
9.80813e-05
9.80849e-05
9.94622e-06
9.94621e-06
9.94628e-06
1.00768e-05
1.00768e-05
1.00769e-05
0.000100512
0.000100513
0.000100516
0.000153131
0.000153152
0.00015316
0.000182535
0.000182579
0.000182591
0.000196873
0.000196923
0.000196936
0.000201994
0.000202039
0.000202051
0.000202782
0.000202818
0.000202827
0.000202384
0.000202413
0.00020242
0.00020243
0.000202455
0.000202461
0.000203367
0.000203391
0.000203397
0.000204998
0.000205025
0.000205032
0.000207094
0.000207126
0.000207134
0.000209159
0.000209197
0.000209206
0.000210891
0.000210934
0.000210944
0.000212193
0.000212237
0.000212247
0.000212196
0.000212239
0.00021225
0.000210898
0.000210941
0.00021095
0.00020917
0.000209208
0.000209217
0.000207107
0.000207139
0.000207147
0.000205014
0.000205042
0.000205048
0.000203381
0.000203405
0.000203411
0.000202443
0.000202467
0.000202473
0.000202384
0.000202413
0.00020242
0.00020276
0.000202796
0.000202805
0.000201949
0.000201994
0.000202005
0.000196822
0.000196872
0.000196885
0.000182514
0.000182559
0.000182571
0.000153148
0.00015317
0.000153178
0.000100518
0.000100519
0.000100522
1.00765e-05
1.00764e-05
1.00765e-05
1.01912e-05
1.01912e-05
1.01913e-05
0.000102142
0.000102143
0.000102146
0.00015921
0.00015923
0.000159239
0.000194523
0.000194568
0.00019458
0.000213834
0.000213887
0.000213901
0.000222113
0.000222159
0.000222173
0.000224287
0.000224323
0.000224334
0.000224037
0.000224064
0.000224073
0.000223629
0.00022365
0.000223657
0.000223985
0.000224005
0.000224012
0.000225144
0.000225168
0.000225176
0.000226976
0.000227005
0.000227014
0.000228939
0.000228974
0.000228984
0.000230668
0.000230708
0.00023072
0.000232039
0.00023208
0.000232093
0.000232042
0.000232083
0.000232096
0.000230677
0.000230717
0.000230728
0.000228953
0.000228988
0.000228998
0.000226991
0.00022702
0.000227028
0.000225161
0.000225185
0.000225192
0.000224
0.00022402
0.000224027
0.00022364
0.000223661
0.000223668
0.000224031
0.000224058
0.000224066
0.000224254
0.000224289
0.0002243
0.000222052
0.000222098
0.000222112
0.000213769
0.000213822
0.000213837
0.000194495
0.000194541
0.000194554
0.000159226
0.000159246
0.000159255
0.000102147
0.000102148
0.000102151
1.01908e-05
1.01908e-05
1.01909e-05
1.02922e-05
1.02922e-05
1.02922e-05
0.00010302
0.00010302
0.000103023
0.000164027
0.000164045
0.000164054
0.000205184
0.000205229
0.000205242
0.000230076
0.000230131
0.000230146
0.000242394
0.00024244
0.000242456
0.000246742
0.000246776
0.000246789
0.000247097
0.000247121
0.000247131
0.000246341
0.000246357
0.000246365
0.000246004
0.000246019
0.000246025
0.000246514
0.000246532
0.000246539
0.000247929
0.000247951
0.000247961
0.000249693
0.000249721
0.000249732
0.000251364
0.000251397
0.00025141
0.000252781
0.000252815
0.000252829
0.000252784
0.000252819
0.000252832
0.000251374
0.000251407
0.00025142
0.000249709
0.000249737
0.000249748
0.000247945
0.000247967
0.000247976
0.00024653
0.000246547
0.000246555
0.000246019
0.000246034
0.000246041
0.000246348
0.000246364
0.000246372
0.000247082
0.000247106
0.000247115
0.000246693
0.000246727
0.00024674
0.000242313
0.000242361
0.000242376
0.000229993
0.000230048
0.000230064
0.000205148
0.000205194
0.000205208
0.00016404
0.000164058
0.000164068
0.000103024
0.000103024
0.000103027
1.02918e-05
1.02918e-05
1.02918e-05
1.03817e-05
1.03817e-05
1.03818e-05
0.000103246
0.000103246
0.000103249
0.000167583
0.000167598
0.000167609
0.000214267
0.000214311
0.000214326
0.000245179
0.000245234
0.000245251
0.0002624
0.000262447
0.000262464
0.000269829
0.000269861
0.000269875
0.000271421
0.00027144
0.000271451
0.000270548
0.00027056
0.000270566
0.000269449
0.000269458
0.000269462
0.000269122
0.000269132
0.000269138
0.000269943
0.000269956
0.000269964
0.000271391
0.00027141
0.00027142
0.000272934
0.000272958
0.00027297
0.000274366
0.00027439
0.000274403
0.00027437
0.000274394
0.000274408
0.000272947
0.00027297
0.000272982
0.000271408
0.000271427
0.000271437
0.000269959
0.000269972
0.00026998
0.000269134
0.000269144
0.00026915
0.000269463
0.000269472
0.000269476
0.000270548
0.000270559
0.000270566
0.000271393
0.000271411
0.000271422
0.00026976
0.000269792
0.000269806
0.000262296
0.000262342
0.00026236
0.000245075
0.000245131
0.000245148
0.000214221
0.000214266
0.000214282
0.000167593
0.000167608
0.000167619
0.000103249
0.000103249
0.000103251
1.03813e-05
1.03813e-05
1.03813e-05
1.04613e-05
1.04613e-05
1.04613e-05
0.000102955
0.000102954
0.000102957
0.000169928
0.00016994
0.000169952
0.000221584
0.000221627
0.000221644
0.000258739
0.000258794
0.000258813
0.000281644
0.00028169
0.000281708
0.000293127
0.000293156
0.000293171
0.000296745
0.000296759
0.000296769
0.000296134
0.000296142
0.000296145
0.000294271
0.000294275
0.000294275
0.00029292
0.000292924
0.000292925
0.000292947
0.000292952
0.000292956
0.000293943
0.000293952
0.000293958
0.000295276
0.000295289
0.000295298
0.000296677
0.000296691
0.0002967
0.000296682
0.000296697
0.000296705
0.000295291
0.000295304
0.000295312
0.000293962
0.000293971
0.000293977
0.000292961
0.000292967
0.00029297
0.000292925
0.000292929
0.00029293
0.000294281
0.000294285
0.000294284
0.000296123
0.000296131
0.000296134
0.0002967
0.000296713
0.000296723
0.000293034
0.000293062
0.000293078
0.000281511
0.000281557
0.000281576
0.00025861
0.000258666
0.000258685
0.000221527
0.000221571
0.000221588
0.000169934
0.000169947
0.000169959
0.000102957
0.000102956
0.000102958
1.04608e-05
1.04608e-05
1.04608e-05
1.05319e-05
1.05319e-05
1.05319e-05
0.000102296
0.000102295
0.000102297
0.000171161
0.000171172
0.000171185
0.000227038
0.00022708
0.0002271
0.0002704
0.000270455
0.000270476
0.000299613
0.000299658
0.000299677
0.000316105
0.000316128
0.000316144
0.000322642
0.000322651
0.000322659
0.000322816
0.000322819
0.000322818
0.000320278
0.000320275
0.000320269
0.000317737
0.00031773
0.000317725
0.000316752
0.000316745
0.000316742
0.000317141
0.000317137
0.000317137
0.000318162
0.000318164
0.000318164
0.000319471
0.000319475
0.000319476
0.000319477
0.000319481
0.000319482
0.000318178
0.00031818
0.000318181
0.00031716
0.000317157
0.000317156
0.000316763
0.000316755
0.000316753
0.000317731
0.000317723
0.000317719
0.00032028
0.000320277
0.000320271
0.00032279
0.000322794
0.000322792
0.000322575
0.000322584
0.000322591
0.000315982
0.000316006
0.000316022
0.000299447
0.000299492
0.000299511
0.000270243
0.000270299
0.00027032
0.000226967
0.00022701
0.00022703
0.000171162
0.000171174
0.000171186
0.000102296
0.000102295
0.000102297
1.05314e-05
1.05314e-05
1.05314e-05
1.05943e-05
1.05943e-05
1.05943e-05
0.000101436
0.000101435
0.000101438
0.000171478
0.000171488
0.000171501
0.000230658
0.000230699
0.000230721
0.000279894
0.000279949
0.000279972
0.000315793
0.000315835
0.000315855
0.000338112
0.000338131
0.000338147
0.000348463
0.000348469
0.000348472
0.000350044
0.000350042
0.000350034
0.000347013
0.000347002
0.00034699
0.000343148
0.000343131
0.00034312
0.000340928
0.000340909
0.000340899
0.000340536
0.000340518