/*--------------------------------*- C++ -*----------------------------------*\
  =========                 |
  \\      /  F ield         | OpenFOAM: The Open Source CFD Toolbox
   \\    /   O peration     | Website:  https://openfoam.org
    \\  /    A nd           | Version:  6
     \\/     M anipulation  |
\*---------------------------------------------------------------------------*/
FoamFile
{
    version     2.0;
    format      ascii;
    class       volScalarField;
    location    "40";
    object      omega;
}
// * * * * * * * * * * * * * * * * * * * * * * * * * * * * * * * * * * * * * //

dimensions      [0 0 -1 0 0 0 0];

internalField   nonuniform List<scalar> 
2880
(
736.722
736.722
736.722
1471.07
1471.07
1471.07
1471.07
1471.07
1471.07
1471.07
1471.07
1471.07
1471.07
1471.07
1471.07
1471.07
1471.07
1471.07
1471.07
1471.07
1471.07
1471.07
1471.07
1471.07
1471.07
1471.07
1471.07
1471.07
1471.07
1471.07
1471.07
1471.07
1471.07
1471.07
1471.07
1471.07
1471.07
1471.07
1471.07
1471.07
1471.07
1471.07
1471.07
1471.07
1471.07
1471.07
1471.07
1471.07
1471.07
1471.07
1471.07
1471.07
1471.07
1471.07
1471.07
1471.07
1471.07
1471.07
1471.07
1471.07
1471.07
1471.07
1471.07
1471.07
1471.07
1471.07
1471.07
1471.07
1471.07
1471.07
1471.07
1471.07
1471.07
1471.07
1471.07
1471.07
1471.07
1471.07
1471.07
1471.07
1471.07
1471.07
1471.07
1471.07
1471.07
1471.07
1471.07
736.722
736.722
736.722
5.91438
5.91437
5.91441
351.046
351.046
351.048
368.499
368.5
368.503
379.704
379.705
379.708
388.149
388.15
388.151
394.911
394.912
394.914
400.516
400.517
400.519
405.266
405.267
405.268
409.348
409.349
409.35
412.864
412.866
412.866
415.85
415.851
415.852
418.303
418.304
418.305
420.225
420.226
420.228
421.718
421.719
421.72
422.538
422.539
422.541
422.538
422.539
422.54
421.716
421.717
421.719
420.223
420.224
420.226
418.301
418.302
418.303
415.848
415.849
415.85
412.862
412.863
412.864
409.345
409.346
409.347
405.261
405.262
405.263
400.509
400.51
400.511
394.9
394.901
394.903
388.135
388.136
388.138
379.691
379.692
379.694
368.489
368.49
368.492
351.037
351.037
351.039
5.9141
5.91409
5.91413
7.89572
7.89571
7.89577
158.768
158.767
158.768
169.776
169.776
169.777
175.909
175.909
175.91
180.409
180.409
180.41
184.022
184.022
184.022
187.044
187.044
187.045
189.631
189.631
189.632
191.877
191.877
191.877
193.827
193.827
193.828
195.494
195.495
195.495
196.872
196.872
196.873
197.941
197.942
197.943
198.722
198.724
198.724
199.15
199.152
199.152
199.15
199.151
199.152
198.722
198.723
198.723
197.94
197.941
197.942
196.87
196.871
196.871
195.493
195.493
195.494
193.825
193.825
193.826
191.874
191.875
191.875
189.628
189.628
189.629
187.039
187.04
187.04
184.015
184.015
184.016
180.401
180.401
180.402
175.901
175.902
175.903
169.77
169.77
169.771
158.762
158.762
158.763
7.89537
7.89536
7.89542
9.25166
9.25165
9.25172
89.467
89.4667
89.467
97.0924
97.0923
97.0929
101.535
101.535
101.536
104.762
104.762
104.762
107.344
107.344
107.345
109.501
109.501
109.501
111.344
111.344
111.345
112.941
112.941
112.942
114.326
114.326
114.327
115.507
115.508
115.508
116.481
116.481
116.482
117.229
117.229
117.23
117.745
117.746
117.746
118.026
118.027
118.028
118.026
118.027
118.027
117.744
117.745
117.746
117.228
117.228
117.229
116.48
116.48
116.481
115.506
115.506
115.507
114.325
114.325
114.325
112.94
112.94
112.94
111.342
111.342
111.342
109.497
109.497
109.498
107.34
107.34
107.34
104.757
104.756
104.757
101.53
101.53
101.531
97.0879
97.0878
97.0883
89.463
89.4628
89.463
9.25127
9.25126
9.25133
10.3511
10.3511
10.3511
58.1065
58.1064
58.1065
63.4414
63.4413
63.4416
66.9173
66.9172
66.9175
69.4165
69.4164
69.4168
71.3951
71.395
71.3952
73.034
73.0338
73.0339
74.4253
74.4251
74.4253
75.6237
75.6236
75.6238
76.6576
76.6576
76.6578
77.5356
77.5356
77.5359
78.256
78.2563
78.2566
78.8055
78.806
78.8063
79.1737
79.1745
79.1748
79.373
79.374
79.3742
79.3728
79.3738
79.3741
79.1733
79.1741
79.1743
78.8048
78.8053
78.8056
78.2551
78.2553
78.2556
77.5344
77.5345
77.5348
76.6563
76.6563
76.6565
75.6222
75.6221
75.6223
74.4234
74.4232
74.4233
73.0313
73.0311
73.0312
71.3915
71.3914
71.3916
69.4123
69.4122
69.4125
66.913
66.913
66.9133
63.4378
63.4377
63.438
58.1033
58.1031
58.1033
10.3506
10.3506
10.3507
11.3102
11.3102
11.3103
41.4037
41.4036
41.4037
44.9455
44.9454
44.9455
47.7391
47.739
47.7391
49.7606
49.7604
49.7606
51.3456
51.3454
51.3455
52.6456
52.6453
52.6454
53.7397
53.7394
53.7395
54.6749
54.6747
54.6748
55.4768
55.4767
55.4768
56.1539
56.1539
56.154
56.707
56.7071
56.7073
57.126
57.1264
57.1266
57.4012
57.4018
57.402
57.5489
57.5497
57.5498
57.5487
57.5496
57.5497
57.4008
57.4015
57.4016
57.1254
57.1258
57.126
56.7061
56.7063
56.7065
56.1529
56.1529
56.153
55.4757
55.4756
55.4757
54.6737
54.6735
54.6735
53.738
53.7377
53.7378
52.6434
52.6431
52.6431
51.3427
51.3425
51.3426
49.7572
49.757
49.7572
47.7356
47.7355
47.7357
44.9424
44.9423
44.9424
41.4009
41.4008
41.401
11.3098
11.3098
11.3098
12.1694
12.1694
12.1695
31.4995
31.4994
31.4995
33.5973
33.5971
33.5971
35.8397
35.8396
35.8396
37.5144
37.5142
37.5143
38.824
38.8237
38.8237
39.8891
39.8887
39.8888
40.7775
40.7772
40.7772
41.5307
41.5304
41.5304
42.172
42.1718
42.1719
42.7101
42.7101
42.7102
43.1476
43.1476
43.1478
43.4769
43.4772
43.4773
43.6895
43.6901
43.6901
43.8026
43.8033
43.8033
43.8025
43.8031
43.8032
43.6892
43.6898
43.6898
43.4764
43.4767
43.4767
43.1468
43.1469
43.147
42.7092
42.7092
42.7093
42.171
42.1708
42.1709
41.5296
41.5293
41.5293
40.7761
40.7757
40.7757
39.8872
39.8868
39.8868
38.8216
38.8213
38.8213
37.5116
37.5114
37.5115
35.8369
35.8368
35.8368
33.5947
33.5945
33.5945
31.4971
31.497
31.4971
12.1689
12.1689
12.169
12.9734
12.9734
12.9735
25.1672
25.1671
25.1672
26.1117
26.1115
26.1115
27.8735
27.8732
27.8732
29.2738
29.2735
29.2735
30.3776
30.3772
30.3773
31.2713
31.2709
31.2709
32.0111
32.0106
32.0106
32.633
32.6326
32.6326
33.1588
33.1585
33.1585
33.5971
33.5969
33.5969
33.9516
33.9516
33.9516
34.2168
34.217
34.217
34.3855
34.3859
34.3859
34.4742
34.4747
34.4747
34.4741
34.4746
34.4746
34.3853
34.3856
34.3856
34.2163
34.2165
34.2165
33.9509
33.9509
33.951
33.5962
33.5961
33.5961
33.1579
33.1576
33.1576
32.632
32.6316
32.6316
32.0098
32.0093
32.0094
31.2696
31.2692
31.2692
30.3756
30.3752
30.3752
29.2715
29.2712
29.2712
27.8711
27.8709
27.8709
26.1095
26.1092
26.1092
25.165
25.1649
25.165
12.9729
12.9729
12.973
13.7418
13.7418
13.7419
20.887
20.8869
20.887
20.9232
20.9229
20.9229
22.2512
22.2508
22.2508
23.4185
23.4181
23.4181
24.359
24.3586
24.3586
25.1217
25.1212
25.1212
25.7497
25.7492
25.7492
26.2737
26.2732
26.2732
26.7136
26.7133
26.7133
27.078
27.0778
27.0778
27.3713
27.3712
27.3712
27.5894
27.5894
27.5894
27.7263
27.7265
27.7264
27.7972
27.7975
27.7974
27.7971
27.7974
27.7974
27.726
27.7262
27.7262
27.589
27.589
27.589
27.3707
27.3706
27.3706
27.0773
27.077
27.077
26.7128
26.7124
26.7124
26.2727
26.2723
26.2723
25.7485
25.748
25.748
25.1202
25.1197
25.1198
24.3573
24.3569
24.3569
23.4166
23.4162
23.4162
22.2492
22.2488
22.2488
20.9212
20.9208
20.9208
20.8849
20.8849
20.8849
13.7413
13.7413
13.7414
14.48
14.48
14.4801
17.8705
17.8704
17.8704
17.1971
17.1967
17.1967
18.1313
18.1308
18.1308
19.0903
19.0898
19.0898
19.8938
19.8933
19.8933
20.5515
20.551
20.551
21.0925
21.0919
21.0919
21.5413
21.5408
21.5408
21.9158
21.9153
21.9153
22.2241
22.2238
22.2238
22.4711
22.4709
22.4709
22.6538
22.6537
22.6536
22.767
22.7671
22.767
22.8247
22.8248
22.8248
22.8246
22.8248
22.8247
22.7668
22.7668
22.7668
22.6534
22.6533
22.6532
22.4706
22.4704
22.4703
22.2234
22.2231
22.2231
21.915
21.9146
21.9146
21.5404
21.5399
21.5399
21.0914
21.0909
21.0909
20.5502
20.5497
20.5497
19.8923
19.8918
19.8918
19.0887
19.0882
19.0882
18.1296
18.1291
18.1291
17.1953
17.1948
17.1949
17.8685
17.8685
17.8685
14.4794
14.4794
14.4795
15.1863
15.1863
15.1864
15.6721
15.672
15.672
14.4489
14.4484
14.4484
15.029
15.0283
15.0283
15.7957
15.7951
15.7951
16.4783
16.4777
16.4777
17.0484
17.0478
17.0478
17.5192
17.5186
17.5186
17.9087
17.9081
17.9081
18.2321
18.2315
18.2315
18.4972
18.4967
18.4967
18.7085
18.7082
18.7081
18.8641
18.8639
18.8638
18.9595
18.9594
18.9593
19.0072
19.0072
19.0071
19.0071
19.0071
19.007
18.9593
18.9592
18.9591
18.8637
18.8635
18.8634
18.708
18.7077
18.7076
18.4965
18.496
18.496
18.2314
18.2308
18.2308
17.9079
17.9073
17.9073
17.5183
17.5177
17.5177
17.0473
17.0467
17.0467
16.4771
16.4765
16.4765
15.7944
15.7938
15.7938
15.0275
15.0269
15.0269
14.4472
14.4467
14.4467
15.6702
15.6701
15.6701
15.1857
15.1857
15.1858
15.8568
15.8568
15.857
14.0108
14.0107
14.0107
12.378
12.3775
12.3775
12.6456
12.6449
12.6449
13.2321
13.2314
13.2314
13.804
13.8033
13.8033
14.2975
14.2968
14.2968
14.7098
14.7092
14.7092
15.0512
15.0506
15.0506
15.334
15.3334
15.3333
15.5651
15.5645
15.5645
15.7486
15.7482
15.7481
15.8833
15.8829
15.8828
15.9652
15.9649
15.9648
16.0052
16.005
16.0049
16.0051
16.0049
16.0048
15.965
15.9647
15.9646
15.883
15.8826
15.8825
15.7481
15.7477
15.7476
15.5644
15.5639
15.5639
15.3333
15.3327
15.3327
15.0505
15.0498
15.0498
14.709
14.7083
14.7083
14.2965
14.2959
14.2959
13.8029
13.8023
13.8023
13.231
13.2303
13.2303
12.6443
12.6436
12.6436
12.3765
12.3759
12.3759
14.0089
14.0088
14.0088
15.8562
15.8562
15.8563
16.4916
16.4916
16.4917
12.7156
12.7155
12.7155
10.7892
10.7886
10.7886
10.7867
10.7859
10.7859
11.2041
11.2034
11.2034
11.6715
11.6708
11.6708
12.0956
12.0949
12.0949
12.4573
12.4566
12.4566
12.7588
12.7581
12.7581
13.0085
13.0079
13.0078
13.2125
13.2119
13.2119
13.3741
13.3736
13.3735
13.4925
13.492
13.4919
13.564
13.5636
13.5634
13.5981
13.5978
13.5976
13.5981
13.5977
13.5976
13.5638
13.5634
13.5632
13.4922
13.4917
13.4916
13.3737
13.3731
13.373
13.2119
13.2113
13.2113
13.0079
13.0073
13.0072
12.7581
12.7574
12.7574
12.4566
12.4559
12.4559
12.0948
12.0941
12.0941
11.6707
11.67
11.67
11.2032
11.2025
11.2025
10.7857
10.7849
10.7849
10.7877
10.7871
10.7871
12.7138
12.7137
12.7137
16.491
16.491
16.4911
17.0904
17.0904
17.0905
11.6884
11.6883
11.6883
9.55122
9.55054
9.55055
9.31998
9.31913
9.31912
9.57976
9.57892
9.57892
9.94708
9.94632
9.94631
10.306
10.3053
10.3053
10.6223
10.6216
10.6216
10.8894
10.8887
10.8887
11.1119
11.1112
11.1111
11.294
11.2934
11.2933
11.4381
11.4375
11.4374
11.5437
11.5431
11.5429
11.6072
11.6066
11.6065
11.6368
11.6363
11.6362
11.6368
11.6362
11.6361
11.607
11.6064
11.6063
11.5434
11.5428
11.5426
11.4377
11.437
11.437
11.2935
11.2928
11.2927
11.1113
11.1106
11.1106
10.8888
10.8881
10.8881
10.6216
10.6209
10.6209
10.3053
10.3046
10.3046
9.94639
9.94563
9.94562
9.57905
9.57822
9.57821
9.31906
9.3182
9.3182
9.54977
9.5491
9.5491
11.6866
11.6865
11.6865
17.0897
17.0897
17.0899
17.6529
17.6529
17.653
10.8657
10.8655
10.8655
8.57323
8.57255
8.57254
8.15164
8.15075
8.15074
8.26639
8.26551
8.26551
8.53729
8.53649
8.53648
8.8335
8.83276
8.83274
9.10754
9.10682
9.1068
9.34434
9.34362
9.34359
9.54359
9.54288
9.54283
9.70777
9.70705
9.70699
9.83778
9.83705
9.83697
9.9332
9.93248
9.93238
9.99056
9.98987
9.98973
10.0167
10.0161
10.0159
10.0167
10.016
10.0159
9.99039
9.98969
9.98956
9.93291
9.93219
9.93208
9.83737
9.83664
9.83656
9.70722
9.70649
9.70644
9.54308
9.54236
9.54232
9.34374
9.34302
9.34299
9.10693
9.1062
9.10618
8.83291
8.83217
8.83215
8.53675
8.53596
8.53595
8.26585
8.26498
8.26497
8.15085
8.14995
8.14995
8.57183
8.57114
8.57114
10.8639
10.8637
10.8637
17.6521
17.6522
17.6523
18.1789
18.1789
18.179
10.2042
10.204
10.204
7.79117
7.79048
7.79048
7.21333
7.21243
7.21243
7.19685
7.19595
7.19595
7.37511
7.37431
7.3743
7.60997
7.60923
7.60921
7.84349
7.84278
7.84276
8.05244
8.05173
8.0517
8.23145
8.23073
8.23069
8.38055
8.3798
8.37975
8.49906
8.49829
8.49822
8.5864
8.58561
8.58551
8.63901
8.63822
8.6381
8.6625
8.66174
8.66161
8.66244
8.66168
8.66154
8.63883
8.63804
8.63792
8.58611
8.58532
8.58522
8.49867
8.4979
8.49782
8.38002
8.37927
8.37922
8.23098
8.23026
8.23022
8.05189
8.05119
8.05115
7.84296
7.84224
7.84222
7.6095
7.60876
7.60875
7.37474
7.37393
7.37392
7.19647
7.19558
7.19557
7.21266
7.21177
7.21175
7.78981
7.78912
7.78912
10.2024
10.2022
10.2022
18.1781
18.1782
18.1783
18.6692
18.6692
18.6694
9.67367
9.67351
9.67351
7.15896
7.15828
7.15829
6.45398
6.45308
6.45308
6.32088
6.31999
6.31999
6.41104
6.41024
6.41024
6.58546
6.58474
6.58473
6.77913
6.77844
6.77842
6.96161
6.96093
6.9609
7.12232
7.12162
7.12158
7.2584
7.25767
7.25762
7.36736
7.36658
7.36651
7.44815
7.44732
7.44723
7.49706
7.49621
7.4961
7.51851
7.51769
7.51756
7.51845
7.51763
7.5175
7.49689
7.49604
7.49593
7.44787
7.44705
7.44696
7.36699
7.36621
7.36614
7.2579
7.25716
7.25711
7.12188
7.12119
7.12115
6.96111
6.96044
6.96041
6.77867
6.77799
6.77797
6.58511
6.58439
6.58438
6.41081
6.41001
6.41001
6.32064
6.31975
6.31975
6.45341
6.45252
6.45251
7.15764
7.15697
7.15697
9.67194
9.67177
9.67178
18.6684
18.6685
18.6686
19.1254
19.1254
19.1255
9.25217
9.25202
9.25202
6.64304
6.6424
6.6424
5.83467
5.8338
5.8338
5.59988
5.59901
5.59901
5.6075
5.60673
5.60672
5.72249
5.72181
5.7218
5.87632
5.87569
5.87567
6.03283
6.0322
6.03217
6.17634
6.17569
6.17565
6.30079
6.30009
6.30005
6.40158
6.40082
6.40076
6.47692
6.4761
6.47602
6.5229
6.52204
6.52194
6.54279
6.54195
6.54184
6.54273
6.54189
6.54177
6.52273
6.52187
6.52177
6.47665
6.47583
6.47576
6.40122
6.40047
6.4004
6.30032
6.29962
6.29958
6.17594
6.1753
6.17526
6.03239
6.03176
6.03174
5.87595
5.87532
5.8753
5.72226
5.72158
5.72157
5.6074
5.60664
5.60663
5.59978
5.59891
5.59891
5.8342
5.83332
5.83333
6.64177
6.64112
6.64112
9.25049
9.25034
9.25034
19.1246
19.1246
19.1247
19.5496
19.5496
19.5498
8.92304
8.92291
8.9229
6.21873
6.21812
6.21812
5.3254
5.32456
5.32456
5.00353
5.00271
5.0027
4.93525
4.93452
4.93452
4.99236
4.99173
4.99172
5.1061
5.10553
5.10551
5.23646
5.2359
5.23588
5.36316
5.36259
5.36256
5.47675
5.47612
5.47607
5.57025
5.56955
5.5695
5.64091
5.64013
5.64006
5.68447
5.68364
5.68355
5.70316
5.70233
5.70223
5.70309
5.70227
5.70217
5.6843
5.68348
5.68339
5.64065
5.63987
5.6398
5.56992
5.56922
5.56916
5.47631
5.47568
5.47564
5.36281
5.36223
5.3622
5.23608
5.23553
5.2355
5.10582
5.10525
5.10523
4.99224
4.99161
4.9916
4.93529
4.93456
4.93456
5.00355
5.00273
5.00273
5.32503
5.3242
5.32419
6.21751
6.2169
6.2169
8.92142
8.92128
8.92128
19.5488
19.5488
19.5489
19.9444
19.9444
19.9445
8.67315
8.67302
8.67303
5.86772
5.86715
5.86715
4.90284
4.90205
4.90205
4.50758
4.50681
4.50681
4.37102
4.37035
4.37034
4.3726
4.37204
4.37203
4.44611
4.44561
4.4456
4.54973
4.54926
4.54924
4.65943
4.65895
4.65892
4.76235
4.76181
4.76177
4.84902
4.84841
4.84836
4.91541
4.91471
4.91465
4.95686
4.9561
4.95603
4.97458
4.97382
4.97374
4.97453
4.97376
4.97368
4.9567
4.95595
4.95587
4.91517
4.91447
4.91441
4.84871
4.8481
4.84805
4.76196
4.76142
4.76139
4.65912
4.65864
4.65861
4.54941
4.54895
4.54893
4.44592
4.44542
4.44541
4.3726
4.37203
4.37203
4.37118
4.3705
4.3705
4.50774
4.50696
4.50696
4.90256
4.90177
4.90176
5.86656
5.86598
5.86598
8.67159
8.67147
8.67147
19.9435
19.9435
19.9436
20.3122
20.3122
20.3123
8.49174
8.49164
8.49164
5.5763
5.57579
5.57578
4.54879
4.54805
4.54805
4.09245
4.09173
4.09173
3.89584
3.89524
3.89523
3.84528
3.84479
3.84478
3.87885
3.87844
3.87843
3.95498
3.95461
3.95459
4.04703
4.04665
4.04663
4.139
4.13856
4.13853
4.21887
4.21836
4.21832
4.28111
4.28052
4.28046
4.32057
4.31991
4.31985
4.33747
4.3368
4.33673
4.33741
4.33674
4.33667
4.32042
4.31976
4.3197
4.28088
4.28028
4.28023
4.21859
4.21808
4.21804
4.13866
4.13823
4.1382
4.04676
4.04638
4.04636
3.95474
3.95437
3.95435
3.87875
3.87833
3.87833
3.84538
3.84488
3.84488
3.89611
3.89551
3.8955
4.09272
4.09201
4.092
4.54862
4.54787
4.54787
5.57522
5.57469
5.57469
8.49026
8.49016
8.49016
20.3112
20.3112
20.3113
20.6553
20.6553
20.6554
8.36979
8.36971
8.36971
5.33419
5.33372
5.33371
4.24912
4.24843
4.24843
3.74217
3.74151
3.74151
3.49403
3.49349
3.49348
3.39573
3.39531
3.39531
3.39041
3.39008
3.39007
3.43843
3.43815
3.43814
3.51189
3.51162
3.5116
3.5922
3.59188
3.59185
3.66491
3.66452
3.66448
3.72284
3.72237
3.72233
3.76024
3.75971
3.75966
3.77637
3.77583
3.77577
3.77632
3.77578
3.77572
3.76009
3.75956
3.75951
3.72262
3.72215
3.72211
3.66466
3.66427
3.66424
3.59192
3.5916
3.59157
3.51166
3.51139
3.51137
3.43825
3.43798
3.43797
3.39039
3.39006
3.39005
3.39592
3.3955
3.3955
3.49441
3.49387
3.49387
3.74257
3.74191
3.7419
4.24906
4.24836
4.24836
5.3332
5.33272
5.33271
8.36839
8.36831
8.36831
20.6543
20.6543
20.6544
20.9756
20.9755
20.9756
8.29949
8.29944
8.29942
5.13359
5.13317
5.13315
3.99298
3.99234
3.99234
3.44381
3.4432
3.4432
3.15247
3.15199
3.15199
3.01175
3.0114
3.0114
2.96952
2.96927
2.96927
2.98925
2.98906
2.98906
3.04311
3.04294
3.04293
3.11073
3.11052
3.1105
3.17558
3.17531
3.17528
3.22877
3.22843
3.2284
3.26389
3.26349
3.26345
3.27923
3.27883
3.27878
3.27918
3.27878
3.27873
3.26375
3.26336
3.26332
3.22858
3.22824
3.22821
3.17537
3.1751
3.17508
3.11052
3.1103
3.11029
3.04293
3.04276
3.04275
2.98914
2.98895
2.98895
2.96957
2.96932
2.96932
3.01203
3.01168
3.01168
3.15296
3.15248
3.15248
3.44432
3.44372
3.44371
3.99303
3.99238
3.99237
5.1327
5.13227
5.13225
8.29817
8.29812
8.2981
20.9744
20.9744
20.9745
21.2742
21.2742
21.2743
8.27389
8.27386
8.27384
4.96862
4.96826
4.96822
3.7722
3.7716
3.77159
3.18697
3.18642
3.18642
2.8602
2.85979
2.85979
2.68304
2.68276
2.68276
2.60693
2.60675
2.60675
2.59889
2.59878
2.59878
2.63233
2.63223
2.63224
2.68605
2.68593
2.68593
2.74205
2.74189
2.74188
2.78985
2.78964
2.78962
2.82231
2.82206
2.82203
2.83678
2.83651
2.83648
2.83673
2.83647
2.83643
2.82219
2.82193
2.8219
2.78968
2.78947
2.78945
2.74188
2.74173
2.74172
2.6859
2.68579
2.68579
2.63219
2.6321
2.6321
2.59884
2.59873
2.59873
2.60705
2.60688
2.60688
2.68339
2.68312
2.68312
2.86079
2.86037
2.86037
3.18761
3.18705
3.18705
3.77236
3.77175
3.77174
4.96783
4.96746
4.96742
8.27265
8.27261
8.2726
21.273
21.273
21.2731
21.5519
21.5519
21.552
8.28671
8.28671
8.28669
4.83493
4.83463
4.83457
3.58082
3.58027
3.58025
2.96355
2.96304
2.96304
2.60818
2.60782
2.60782
2.4009
2.40068
2.40068
2.29494
2.29483
2.29483
2.26056
2.2605
2.26051
2.27319
2.27315
2.27317
2.31185
2.3118
2.31182
2.35785
2.35779
2.3578
2.39943
2.39933
2.39933
2.42874
2.42861
2.4286
2.44218
2.44204
2.44203
2.44214
2.442
2.44199
2.42863
2.4285
2.42849
2.39929
2.39918
2.39919
2.35773
2.35766
2.35768
2.31177
2.31172
2.31175
2.27309
2.27305
2.27308
2.26057
2.26051
2.26052
2.29512
2.29501
2.29501
2.40132
2.4011
2.4011
2.60885
2.6085
2.60849
2.96432
2.9638
2.9638
3.5811
3.58054
3.58052
4.83423
4.83393
4.83386
8.28554
8.28554
8.28552
21.5507
21.5507
21.5508
21.8088
21.8088
21.8089
8.33275
8.33278
8.33276
4.72945
4.7292
4.72912
3.41475
3.41424
3.4142
2.7675
2.76703
2.76703
2.38916
2.38885
2.38885
2.15811
2.15794
2.15794
2.02714
2.02708
2.02709
1.96886
1.96884
1.96887
1.96099
1.96099
1.96104
1.98371
1.98371
1.98375
2.01857
2.01856
2.0186
2.05301
2.05298
2.05302
2.07863
2.07858
2.07861
2.09084
2.09078
2.09081
2.0908
2.09074
2.09077
2.07853
2.07848
2.07851
2.05289
2.05287
2.0529
2.01849
2.01848
2.01852
1.98369
1.98369
1.98374
1.96094
1.96093
1.96098
1.96892
1.96889
1.96893
2.02736
2.0273
2.02731
2.15857
2.15841
2.15841
2.38992
2.38961
2.38961
2.76839
2.76792
2.76791
3.41516
3.41463
3.41459
4.72883
4.72858
4.72849
8.33164
8.33167
8.33165
21.8075
21.8075
21.8076
22.0441
22.044
22.0441
8.40733
8.40734
8.40731
4.64981
4.64958
4.64947
3.27136
3.27088
3.27082
2.59469
2.59426
2.59424
2.19776
2.1975
2.1975
1.94894
1.94882
1.94882
1.79837
1.79833
1.79835
1.71957
1.71957
1.71962
1.69238
1.69241
1.69248
1.6988
1.69885
1.69891
1.72159
1.72164
1.7217
1.74807
1.7481
1.74816
1.76945
1.76946
1.76952
1.78023
1.78023
1.78029
1.7802
1.7802
1.78026
1.76937
1.76938
1.76944
1.74798
1.74802
1.74808
1.72155
1.7216
1.72166
1.69884
1.69889
1.69895
1.69236
1.69239
1.69246
1.71966
1.71965
1.71971
1.79861
1.79858
1.7986
1.94944
1.94933
1.94933
2.1986
2.19833
2.19833
2.59571
2.59527
2.59525
3.2719
3.2714
3.27134
4.64931
4.64908
4.64897
8.40626
8.40628
8.40625
22.0427
22.0427
22.0428
22.2563
22.2563
22.2564
8.50173
8.50171
8.50166
4.593
4.59279
4.59265
3.14914
3.14868
3.14859
2.44287
2.44247
2.44244
2.03059
2.03036
2.03035
1.76938
1.7693
1.7693
1.60474
1.60472
1.60475
1.50954
1.50956
1.50962
1.46516
1.46522
1.46529
1.45574
1.45581
1.45588
1.46601
1.46609
1.46617
1.48394
1.48402
1.4841
1.50066
1.50073
1.50081
1.5098
1.50987
1.50995
1.50978
1.50984
1.50993
1.5006
1.50067
1.50075
1.48388
1.48396
1.48404
1.46601
1.46609
1.46617
1.45582
1.4559
1.45597
1.46517
1.46522
1.4653
1.50964
1.50966
1.50972
1.60499
1.60498
1.60501
1.76991
1.76983
1.76983
2.03149
2.03126
2.03125
2.44401
2.4436
2.44357
3.14982
3.14934
3.14925
4.59265
4.59243
4.59229
8.50071
8.50068
8.50064
22.2549
22.2549
22.255
22.4434
22.4434
22.4435
8.60164
8.60165
8.6016
4.55485
4.55466
4.5545
3.04759
3.04713
3.04702
2.31179
2.31141
2.31136
1.88651
1.88631
1.88629
1.61748
1.61743
1.61743
1.44396
1.44396
1.444
1.33682
1.33686
1.33692
1.27819
1.27825
1.27833
1.2543
1.25438
1.25445
1.25236
1.25246
1.25254
1.26166
1.26176
1.26185
1.27356
1.27365
1.27374
1.28096
1.28104
1.28114
1.28094
1.28102
1.28112
1.27351
1.2736
1.27369
1.26163
1.26173
1.26182
1.25239
1.25249
1.25257
1.25441
1.25449
1.25457
1.27821
1.27828
1.27835
1.33693
1.33696
1.33703
1.44421
1.44421
1.44425
1.61802
1.61797
1.61797
1.88746
1.88726
1.88725
2.31304
2.31264
2.3126
3.04837
3.04789
3.04778
4.55452
4.55433
4.55417
8.60062
8.60063
8.60059
22.4421
22.442
22.4421
22.6004
22.6004
22.6004
8.69486
8.695
8.695
4.53206
4.53194
4.53175
2.9675
2.96704
2.96691
2.20343
2.20305
2.20299
1.76707
1.76689
1.76687
1.49375
1.49372
1.49371
1.31574
1.31576
1.31579
1.20094
1.20099
1.20105
1.13152
1.13158
1.13165
1.09548
1.09555
1.09563
1.08262
1.08269
1.08278
1.08391
1.08399
1.08408
1.09121
1.09128
1.09139
1.09689
1.09696
1.09708
1.09688
1.09695
1.09706
1.09118
1.09125
1.09136
1.08389
1.08397
1.08407
1.08266
1.08274
1.08283
1.09561
1.09568
1.09576
1.13155
1.13161
1.13168
1.20104
1.20109
1.20115
1.31598
1.316
1.31603
1.49429
1.49426
1.49425
1.76807
1.76788
1.76786
2.20477
2.20438
2.20432
2.96833
2.96785
2.96772
4.53159
4.53148
4.53128
8.69378
8.69394
8.69394
22.5991
22.599
22.5991
22.717
22.717
22.717
8.78132
8.7814
8.78144
4.52454
4.52441
4.52421
2.91117
2.91069
2.91054
2.12234
2.12196
2.12188
1.67704
1.67687
1.67684
1.40184
1.40182
1.40181
1.22242
1.22245
1.22248
1.10353
1.10358
1.10363
1.02692
1.02697
1.02704
0.98191
0.981954
0.982037
0.960471
0.960514
0.960607
0.955275
0.955318
0.955421
0.958772
0.958808
0.958921
0.96299
0.963023
0.963141
0.962981
0.963014
0.963132
0.95875
0.958787
0.958899
0.955276
0.955318
0.955422
0.960529
0.960572
0.960665
0.98204
0.982084
0.982166
1.02695
1.027
1.02707
1.10361
1.10366
1.10371
1.22264
1.22267
1.2227
1.40238
1.40235
1.40235
1.67806
1.67789
1.67786
2.12375
2.12335
2.12328
2.91208
2.91158
2.91143
4.52409
4.52397
4.52376
8.78019
8.78028
8.78032
22.7157
22.7156
22.7157
22.7822
22.7821
22.7822
8.84044
8.8404
8.84044
4.52586
4.52567
4.52547
2.88086
2.88036
2.88021
2.07588
2.07549
2.07541
1.62509
1.62493
1.62489
1.34939
1.34937
1.34936
1.17002
1.17005
1.17007
1.0495
1.04956
1.0496
0.969212
0.969253
0.969321
0.919186
0.91921
0.919291
0.892721
0.892737
0.892828
0.883631
0.883643
0.883743
0.884801
0.884806
0.884914
0.888099
0.888099
0.888212
0.888093
0.888093
0.888205
0.884786
0.884791
0.884899
0.883639
0.88365
0.883751
0.892783
0.892798
0.892889
0.919312
0.919335
0.919415
0.969242
0.969282
0.969351
1.04958
1.04963
1.04968
1.17023
1.17026
1.17028
1.34992
1.3499
1.34989
1.62613
1.62595
1.62592
2.07733
2.07692
2.07684
2.88184
2.88131
2.88116
4.52553
4.52534
4.52514
8.83929
8.83926
8.8393
22.7808
22.7808
22.7809
)
;

boundaryField
{
    freeSurface
    {
        type            slip;
    }
    inlet
    {
        type            cyclic;
    }
    outlet
    {
        type            cyclic;
    }
    sidewalls
    {
        type            omegaWallFunction;
        Cmu             0.09;
        kappa           0.41;
        E               9.8;
        beta1           0.075;
        blended         false;
        value           nonuniform List<scalar> 
192
(
736.722
5.91438
7.89572
9.25166
10.3511
11.3102
12.1694
12.9734
13.7418
14.48
15.1863
15.8568
16.4916
17.0904
17.6529
18.1789
18.6692
19.1254
19.5496
19.9444
20.3122
20.6553
20.9756
21.2742
21.5519
21.8088
22.0441
22.2563
22.4434
22.6004
22.717
22.7822
736.722
5.91437
7.89571
9.25165
10.3511
11.3102
12.1694
12.9734
13.7418
14.48
15.1863
15.8568
16.4916
17.0904
17.6529
18.1789
18.6692
19.1254
19.5496
19.9444
20.3122
20.6553
20.9755
21.2742
21.5519
21.8088
22.044
22.2563
22.4434
22.6004
22.717
22.7821
736.722
5.91441
7.89577
9.25172
10.3511
11.3103
12.1695
12.9735
13.7419
14.4801
15.1864
15.857
16.4917
17.0905
17.653
18.179
18.6694
19.1255
19.5498
19.9445
20.3123
20.6554
20.9756
21.2743
21.552
21.8089
22.0441
22.2564
22.4435
22.6004
22.717
22.7822
736.722
5.9141
7.89537
9.25127
10.3506
11.3098
12.1689
12.9729
13.7413
14.4794
15.1857
15.8562
16.491
17.0897
17.6521
18.1781
18.6684
19.1246
19.5488
19.9435
20.3112
20.6543
20.9744
21.273
21.5507
21.8075
22.0427
22.2549
22.4421
22.5991
22.7157
22.7808
736.722
5.91409
7.89536
9.25126
10.3506
11.3098
12.1689
12.9729
13.7413
14.4794
15.1857
15.8562
16.491
17.0897
17.6522
18.1782
18.6685
19.1246
19.5488
19.9435
20.3112
20.6543
20.9744
21.273
21.5507
21.8075
22.0427
22.2549
22.442
22.599
22.7156
22.7808
736.722
5.91413
7.89542
9.25133
10.3507
11.3098
12.169
12.973
13.7414
14.4795
15.1858
15.8563
16.4911
17.0899
17.6523
18.1783
18.6686
19.1247
19.5489
19.9436
20.3113
20.6544
20.9745
21.2731
21.5508
21.8076
22.0428
22.255
22.4421
22.5991
22.7157
22.7809
)
;
    }
    noSlipWalls
    {
        type            omegaWallFunction;
        Cmu             0.09;
        kappa           0.41;
        E               9.8;
        beta1           0.075;
        blended         false;
        value           nonuniform List<scalar> 
90
(
736.722
1471.07
1471.07
1471.07
1471.07
1471.07
1471.07
1471.07
1471.07
1471.07
1471.07
1471.07
1471.07
1471.07
1471.07
1471.07
1471.07
1471.07
1471.07
1471.07
1471.07
1471.07
1471.07
1471.07
1471.07
1471.07
1471.07
1471.07
1471.07
736.722
736.722
1471.07
1471.07
1471.07
1471.07
1471.07
1471.07
1471.07
1471.07
1471.07
1471.07
1471.07
1471.07
1471.07
1471.07
1471.07
1471.07
1471.07
1471.07
1471.07
1471.07
1471.07
1471.07
1471.07
1471.07
1471.07
1471.07
1471.07
1471.07
736.722
736.722
1471.07
1471.07
1471.07
1471.07
1471.07
1471.07
1471.07
1471.07
1471.07
1471.07
1471.07
1471.07
1471.07
1471.07
1471.07
1471.07
1471.07
1471.07
1471.07
1471.07
1471.07
1471.07
1471.07
1471.07
1471.07
1471.07
1471.07
1471.07
736.722
)
;
    }
}


// ************************************************************************* //
