/*--------------------------------*- C++ -*----------------------------------*\
  =========                 |
  \\      /  F ield         | OpenFOAM: The Open Source CFD Toolbox
   \\    /   O peration     | Website:  https://openfoam.org
    \\  /    A nd           | Version:  6
     \\/     M anipulation  |
\*---------------------------------------------------------------------------*/
FoamFile
{
    version     2.0;
    format      ascii;
    class       volScalarField;
    location    "40";
    object      p;
}
// * * * * * * * * * * * * * * * * * * * * * * * * * * * * * * * * * * * * * //

dimensions      [0 2 -2 0 0 0 0];

internalField   nonuniform List<scalar> 
2880
(
3.48176e-15
-1.29773e-08
6.24613e-08
3.753e-12
-1.29848e-08
6.24672e-08
-9.86748e-12
-1.3151e-08
6.26565e-08
-1.36165e-10
-1.28894e-08
6.25248e-08
-3.64396e-10
-1.23969e-08
6.22654e-08
-7.13574e-10
-1.166e-08
6.18758e-08
-1.04679e-09
-1.0951e-08
6.14975e-08
-1.32173e-09
-1.04327e-08
6.12496e-08
-1.44979e-09
-1.02352e-08
6.11794e-08
-1.42929e-09
-1.03362e-08
6.12582e-08
-1.16054e-09
-1.0804e-08
6.1454e-08
-9.68369e-10
-1.14839e-08
6.19413e-08
-5.08722e-10
-1.23853e-08
6.23824e-08
-2.24635e-10
-1.31523e-08
6.28638e-08
-3.33377e-11
-1.35854e-08
6.31069e-08
-2.7024e-11
-1.35989e-08
6.31135e-08
-2.26956e-10
-1.31709e-08
6.28873e-08
-5.18338e-10
-1.24175e-08
6.24254e-08
-9.74813e-10
-1.15353e-08
6.20008e-08
-1.16626e-09
-1.0866e-08
6.15238e-08
-1.4485e-09
-1.04221e-08
6.13624e-08
-1.42559e-09
-1.0305e-08
6.12226e-08
-1.3261e-09
-1.05436e-08
6.13617e-08
-1.0549e-09
-1.10624e-08
6.16094e-08
-7.18217e-10
-1.17736e-08
6.19838e-08
-3.65271e-10
-1.25211e-08
6.23782e-08
-1.30909e-10
-1.30226e-08
6.26456e-08
1.5859e-12
-1.32885e-08
6.2779e-08
2.63913e-11
-1.31236e-08
6.25894e-08
2.43553e-11
-1.31154e-08
6.25832e-08
7.08406e-13
-1.29781e-08
6.24616e-08
4.40731e-12
-1.29861e-08
6.24678e-08
-9.44435e-12
-1.31515e-08
6.26565e-08
-1.3552e-10
-1.28901e-08
6.2525e-08
-3.63196e-10
-1.23991e-08
6.22665e-08
-7.11764e-10
-1.16635e-08
6.18775e-08
-1.04468e-09
-1.09552e-08
6.14997e-08
-1.31966e-09
-1.0437e-08
6.12519e-08
-1.4478e-09
-1.02392e-08
6.11814e-08
-1.42751e-09
-1.034e-08
6.12602e-08
-1.15891e-09
-1.08077e-08
6.1456e-08
-9.66346e-10
-1.14874e-08
6.19428e-08
-5.06158e-10
-1.23891e-08
6.23837e-08
-2.2175e-10
-1.3156e-08
6.28646e-08
-3.0348e-11
-1.35888e-08
6.31073e-08
-2.40299e-11
-1.36023e-08
6.3114e-08
-2.24074e-10
-1.31746e-08
6.2888e-08
-5.15774e-10
-1.24214e-08
6.24267e-08
-9.72785e-10
-1.15388e-08
6.20023e-08
-1.16464e-09
-1.08696e-08
6.15258e-08
-1.44665e-09
-1.04259e-08
6.13643e-08
-1.4237e-09
-1.03091e-08
6.12249e-08
-1.32399e-09
-1.05479e-08
6.13639e-08
-1.05277e-09
-1.10667e-08
6.16116e-08
-7.1638e-10
-1.17772e-08
6.19855e-08
-3.64058e-10
-1.25234e-08
6.23792e-08
-1.30266e-10
-1.30234e-08
6.26457e-08
2.01258e-12
-1.32889e-08
6.2779e-08
2.69919e-11
-1.31249e-08
6.25901e-08
2.48824e-11
-1.31162e-08
6.25835e-08
1.81607e-12
-1.29793e-08
6.2462e-08
5.54911e-12
-1.29882e-08
6.24689e-08
-8.66958e-12
-1.31518e-08
6.26561e-08
-1.34228e-10
-1.28911e-08
6.25246e-08
-3.60704e-10
-1.24033e-08
6.22681e-08
-7.07974e-10
-1.16702e-08
6.18804e-08
-1.04028e-09
-1.09635e-08
6.15036e-08
-1.31536e-09
-1.04455e-08
6.1256e-08
-1.44364e-09
-1.02469e-08
6.1185e-08
-1.4238e-09
-1.03473e-08
6.12638e-08
-1.15555e-09
-1.08148e-08
6.14598e-08
-9.62153e-10
-1.14945e-08
6.19456e-08
-5.01145e-10
-1.23967e-08
6.23863e-08
-2.16196e-10
-1.31633e-08
6.28664e-08
-2.46553e-11
-1.35959e-08
6.31087e-08
-1.8329e-11
-1.36094e-08
6.31153e-08
-2.18526e-10
-1.31819e-08
6.28898e-08
-5.10763e-10
-1.2429e-08
6.24293e-08
-9.68579e-10
-1.15458e-08
6.20051e-08
-1.16128e-09
-1.08768e-08
6.15297e-08
-1.44276e-09
-1.04331e-08
6.13676e-08
-1.41979e-09
-1.0317e-08
6.12289e-08
-1.31959e-09
-1.05561e-08
6.13678e-08
-1.04831e-09
-1.10749e-08
6.16154e-08
-7.12527e-10
-1.17839e-08
6.19884e-08
-3.61529e-10
-1.25275e-08
6.23808e-08
-1.2897e-10
-1.30243e-08
6.26453e-08
2.79575e-12
-1.32893e-08
6.27785e-08
2.80078e-11
-1.31269e-08
6.25911e-08
2.57056e-11
-1.31174e-08
6.25839e-08
3.28053e-12
-1.29809e-08
6.24625e-08
7.51644e-12
-1.29914e-08
6.24704e-08
-7.02201e-12
-1.31528e-08
6.26555e-08
-1.31683e-10
-1.2893e-08
6.2524e-08
-3.56364e-10
-1.24101e-08
6.22705e-08
-7.01704e-10
-1.16807e-08
6.18845e-08
-1.03323e-09
-1.09762e-08
6.15092e-08
-1.30856e-09
-1.04583e-08
6.12621e-08
-1.43695e-09
-1.02586e-08
6.119e-08
-1.4178e-09
-1.03583e-08
6.12688e-08
-1.15016e-09
-1.08258e-08
6.14655e-08
-9.55273e-10
-1.15054e-08
6.19497e-08
-4.9356e-10
-1.24085e-08
6.23906e-08
-2.07934e-10
-1.3175e-08
6.28699e-08
-1.63243e-11
-1.36073e-08
6.31118e-08
-9.98493e-12
-1.36208e-08
6.31184e-08
-2.10274e-10
-1.31936e-08
6.28933e-08
-5.03181e-10
-1.24408e-08
6.24335e-08
-9.61671e-10
-1.15567e-08
6.20091e-08
-1.15587e-09
-1.08879e-08
6.15353e-08
-1.43642e-09
-1.04439e-08
6.13721e-08
-1.41359e-09
-1.03291e-08
6.12347e-08
-1.31259e-09
-1.05687e-08
6.13733e-08
-1.04117e-09
-1.10875e-08
6.16208e-08
-7.06147e-10
-1.17945e-08
6.19926e-08
-3.57106e-10
-1.25343e-08
6.23832e-08
-1.26389e-10
-1.30262e-08
6.26446e-08
4.47862e-12
-1.32902e-08
6.27778e-08
2.97426e-11
-1.31301e-08
6.25926e-08
2.68138e-11
-1.3119e-08
6.25844e-08
5.05691e-12
-1.29828e-08
6.24631e-08
1.01253e-11
-1.29953e-08
6.2472e-08
-4.75965e-12
-1.3154e-08
6.26544e-08
-1.28219e-10
-1.28954e-08
6.2523e-08
-3.50688e-10
-1.24183e-08
6.22729e-08
-6.93666e-10
-1.16932e-08
6.1889e-08
-1.02439e-09
-1.09912e-08
6.15153e-08
-1.30006e-09
-1.04737e-08
6.1269e-08
-1.42838e-09
-1.02726e-08
6.11954e-08
-1.41002e-09
-1.03717e-08
6.12744e-08
-1.14319e-09
-1.08394e-08
6.14722e-08
-9.46125e-10
-1.15192e-08
6.19543e-08
-4.83964e-10
-1.24237e-08
6.23962e-08
-1.97633e-10
-1.31905e-08
6.28751e-08
-6.11282e-12
-1.36227e-08
6.3117e-08
2.43429e-13
-1.36362e-08
6.31236e-08
-1.99987e-10
-1.32091e-08
6.28984e-08
-4.9359e-10
-1.2456e-08
6.24391e-08
-9.52476e-10
-1.15704e-08
6.20137e-08
-1.14889e-09
-1.09016e-08
6.15421e-08
-1.42812e-09
-1.0457e-08
6.13769e-08
-1.40578e-09
-1.03436e-08
6.12414e-08
-1.30381e-09
-1.05835e-08
6.13794e-08
-1.03219e-09
-1.11024e-08
6.16267e-08
-6.97947e-10
-1.18072e-08
6.19971e-08
-3.51284e-10
-1.25425e-08
6.23856e-08
-1.2284e-10
-1.30286e-08
6.26435e-08
6.81938e-12
-1.32913e-08
6.27766e-08
3.2012e-11
-1.31339e-08
6.25941e-08
2.82245e-11
-1.3121e-08
6.2585e-08
7.04406e-12
-1.29849e-08
6.24637e-08
1.30724e-11
-1.29994e-08
6.24735e-08
-2.33166e-12
-1.31547e-08
6.26527e-08
-1.24363e-10
-1.28975e-08
6.25211e-08
-3.44307e-10
-1.24267e-08
6.22748e-08
-6.84668e-10
-1.17061e-08
6.18928e-08
-1.01447e-09
-1.10067e-08
6.15209e-08
-1.29052e-09
-1.04897e-08
6.12755e-08
-1.41857e-09
-1.02872e-08
6.12002e-08
-1.40104e-09
-1.0386e-08
6.12797e-08
-1.13512e-09
-1.08544e-08
6.14791e-08
-9.35122e-10
-1.15346e-08
6.19588e-08
-4.72814e-10
-1.24413e-08
6.24026e-08
-1.85783e-10
-1.32088e-08
6.28816e-08
5.45589e-12
-1.36412e-08
6.31239e-08
1.18312e-11
-1.36547e-08
6.31305e-08
-1.88154e-10
-1.32274e-08
6.29049e-08
-4.82447e-10
-1.24735e-08
6.24455e-08
-9.41406e-10
-1.15858e-08
6.20179e-08
-1.14079e-09
-1.09168e-08
6.15491e-08
-1.41844e-09
-1.04709e-08
6.13811e-08
-1.39699e-09
-1.03589e-08
6.12479e-08
-1.29388e-09
-1.05989e-08
6.13848e-08
-1.02206e-09
-1.11178e-08
6.16319e-08
-6.88729e-10
-1.18203e-08
6.2001e-08
-3.44687e-10
-1.25509e-08
6.23874e-08
-1.18838e-10
-1.30307e-08
6.26415e-08
9.3737e-12
-1.32921e-08
6.27748e-08
3.45371e-11
-1.3138e-08
6.25956e-08
2.9847e-11
-1.31232e-08
6.25856e-08
9.09306e-12
-1.29869e-08
6.24641e-08
1.61714e-11
-1.30033e-08
6.24748e-08
-9.59984e-14
-1.31544e-08
6.26501e-08
-1.20516e-10
-1.28985e-08
6.25182e-08
-3.37604e-10
-1.24345e-08
6.22756e-08
-6.74959e-10
-1.17186e-08
6.18954e-08
-1.00356e-09
-1.1022e-08
6.15252e-08
-1.28004e-09
-1.05055e-08
6.1281e-08
-1.40773e-09
-1.03015e-08
6.12037e-08
-1.39114e-09
-1.04002e-08
6.12841e-08
-1.12619e-09
-1.08699e-08
6.14858e-08
-9.22501e-10
-1.15509e-08
6.19625e-08
-4.60373e-10
-1.24604e-08
6.24093e-08
-1.72625e-10
-1.32295e-08
6.28891e-08
1.81648e-11
-1.36624e-08
6.31324e-08
2.45612e-11
-1.36759e-08
6.3139e-08
-1.75016e-10
-1.3248e-08
6.29124e-08
-4.70008e-10
-1.24927e-08
6.24523e-08
-9.28697e-10
-1.1602e-08
6.20214e-08
-1.1318e-09
-1.09325e-08
6.15558e-08
-1.40768e-09
-1.04846e-08
6.13841e-08
-1.3874e-09
-1.03741e-08
6.12535e-08
-1.28292e-09
-1.06139e-08
6.13889e-08
-1.0109e-09
-1.11328e-08
6.16358e-08
-6.78743e-10
-1.18329e-08
6.20036e-08
-3.37698e-10
-1.25587e-08
6.23882e-08
-1.14777e-10
-1.30317e-08
6.26386e-08
1.17757e-11
-1.32918e-08
6.27721e-08
3.71697e-11
-1.31419e-08
6.25969e-08
3.15421e-11
-1.31253e-08
6.2586e-08
1.1123e-11
-1.29885e-08
6.24641e-08
1.92257e-11
-1.30066e-08
6.24757e-08
1.73209e-12
-1.31523e-08
6.26462e-08
-1.16888e-10
-1.28976e-08
6.25136e-08
-3.30754e-10
-1.24408e-08
6.22748e-08
-6.64518e-10
-1.17297e-08
6.18959e-08
-9.91716e-10
-1.10362e-08
6.15274e-08
-1.26864e-09
-1.05204e-08
6.12845e-08
-1.39586e-09
-1.03147e-08
6.1205e-08
-1.38041e-09
-1.04135e-08
6.12866e-08
-1.11663e-09
-1.08851e-08
6.14915e-08
-9.0856e-10
-1.15672e-08
6.19648e-08
-4.46905e-10
-1.24803e-08
6.24157e-08
-1.5837e-10
-1.32515e-08
6.28969e-08
3.18853e-11
-1.36855e-08
6.31418e-08
3.83069e-11
-1.3699e-08
6.31484e-08
-1.60784e-10
-1.32701e-08
6.29202e-08
-4.56535e-10
-1.25126e-08
6.24587e-08
-9.14649e-10
-1.16182e-08
6.20236e-08
-1.12215e-09
-1.09478e-08
6.15615e-08
-1.39593e-09
-1.04974e-08
6.13851e-08
-1.37698e-09
-1.03882e-08
6.12572e-08
-1.27097e-09
-1.06278e-08
6.13908e-08
-9.98742e-10
-1.11467e-08
6.16375e-08
-6.67969e-10
-1.18443e-08
6.20042e-08
-3.30491e-10
-1.25649e-08
6.23873e-08
-1.10866e-10
-1.3031e-08
6.26339e-08
1.38034e-11
-1.32898e-08
6.27681e-08
3.97646e-11
-1.31453e-08
6.25977e-08
3.32417e-11
-1.31271e-08
6.2586e-08
1.31217e-11
-1.29895e-08
6.24637e-08
2.19709e-11
-1.30087e-08
6.24757e-08
3.03705e-12
-1.31475e-08
6.26401e-08
-1.13567e-10
-1.28937e-08
6.25063e-08
-3.23782e-10
-1.24443e-08
6.2271e-08
-6.5343e-10
-1.17386e-08
6.18935e-08
-9.79017e-10
-1.10482e-08
6.15266e-08
-1.25645e-09
-1.05329e-08
6.12849e-08
-1.38308e-09
-1.03255e-08
6.1203e-08
-1.36893e-09
-1.04246e-08
6.12862e-08
-1.10663e-09
-1.08984e-08
6.1495e-08
-8.93754e-10
-1.15821e-08
6.19649e-08
-4.32732e-10
-1.24994e-08
6.24207e-08
-1.43255e-10
-1.32734e-08
6.29038e-08
4.65059e-11
-1.37091e-08
6.31508e-08
5.29602e-11
-1.37226e-08
6.31573e-08
-1.45692e-10
-1.3292e-08
6.29271e-08
-4.42347e-10
-1.25318e-08
6.24637e-08
-8.99718e-10
-1.1633e-08
6.20235e-08
-1.11204e-09
-1.09615e-08
6.15651e-08
-1.38326e-09
-1.05078e-08
6.13829e-08
-1.36579e-09
-1.04001e-08
6.12579e-08
-1.25819e-09
-1.06393e-08
6.13896e-08
-9.85671e-10
-1.11583e-08
6.16361e-08
-6.56494e-10
-1.18533e-08
6.20018e-08
-3.23094e-10
-1.25685e-08
6.23835e-08
-1.072e-10
-1.30272e-08
6.26264e-08
1.53353e-11
-1.32852e-08
6.2762e-08
4.21074e-11
-1.31476e-08
6.25977e-08
3.49438e-11
-1.31283e-08
6.25855e-08
1.50815e-11
-1.29898e-08
6.24624e-08
2.40125e-11
-1.3009e-08
6.24745e-08
3.62832e-12
-1.31389e-08
6.2631e-08
-1.10766e-10
-1.2885e-08
6.24946e-08
-3.16949e-10
-1.24433e-08
6.22627e-08
-6.42079e-10
-1.17433e-08
6.18866e-08
-9.65795e-10
-1.10563e-08
6.15213e-08
-1.24362e-09
-1.05416e-08
6.12808e-08
-1.36964e-09
-1.03322e-08
6.11963e-08
-1.35685e-09
-1.04318e-08
6.12813e-08
-1.09642e-09
-1.09082e-08
6.14947e-08
-8.7869e-10
-1.15937e-08
6.19616e-08
-4.18563e-10
-1.25157e-08
6.24229e-08
-1.27994e-10
-1.3293e-08
6.29081e-08
6.14657e-11
-1.37309e-08
6.31577e-08
6.79609e-11
-1.37444e-08
6.31642e-08
-1.30452e-10
-1.33116e-08
6.29314e-08
-4.28149e-10
-1.25482e-08
6.24659e-08
-8.84512e-10
-1.16445e-08
6.20198e-08
-1.10167e-09
-1.09716e-08
6.15647e-08
-1.36988e-09
-1.05143e-08
6.1376e-08
-1.35404e-09
-1.0408e-08
6.1254e-08
-1.24474e-09
-1.06468e-08
6.13837e-08
-9.72022e-10
-1.11659e-08
6.163e-08
-6.44702e-10
-1.18582e-08
6.1995e-08
-3.15775e-10
-1.25675e-08
6.23752e-08
-1.03997e-10
-1.30187e-08
6.26147e-08
1.61733e-11
-1.32769e-08
6.27528e-08
4.38343e-11
-1.31483e-08
6.25966e-08
3.66451e-11
-1.31287e-08
6.25843e-08
1.69687e-11
-1.2989e-08
6.24602e-08
2.50908e-11
-1.30084e-08
6.24734e-08
3.07904e-12
-1.31253e-08
6.26179e-08
-1.08874e-10
-1.28693e-08
6.24769e-08
-3.10837e-10
-1.24352e-08
6.22481e-08
-6.3104e-10
-1.17416e-08
6.18736e-08
-9.52533e-10
-1.10581e-08
6.15097e-08
-1.23046e-09
-1.0544e-08
6.12701e-08
-1.35588e-09
-1.03326e-08
6.1183e-08
-1.34455e-09
-1.04327e-08
6.127e-08
-1.08638e-09
-1.09119e-08
6.14885e-08
-8.6408e-10
-1.15993e-08
6.19526e-08
-4.05366e-10
-1.25263e-08
6.24203e-08
-1.13908e-10
-1.33071e-08
6.29082e-08
7.51919e-11
-1.37479e-08
6.31609e-08
8.17335e-11
-1.37613e-08
6.31673e-08
-1.16384e-10
-1.33258e-08
6.29315e-08
-4.14914e-10
-1.25588e-08
6.24633e-08
-8.69741e-10
-1.16501e-08
6.20105e-08
-1.09146e-09
-1.09755e-08
6.15585e-08
-1.35633e-09
-1.05145e-08
6.13627e-08
-1.342e-09
-1.04096e-08
6.12436e-08
-1.23096e-09
-1.06481e-08
6.13711e-08
-9.5828e-10
-1.11672e-08
6.16176e-08
-6.33167e-10
-1.18567e-08
6.19819e-08
-3.09122e-10
-1.25595e-08
6.23606e-08
-1.01675e-10
-1.30032e-08
6.25969e-08
1.59229e-11
-1.32635e-08
6.27397e-08
4.46963e-11
-1.31481e-08
6.25956e-08
3.83114e-11
-1.31281e-08
6.25821e-08
1.87487e-11
-1.29867e-08
6.24565e-08
2.53524e-11
-1.30074e-08
6.24726e-08
8.51864e-13
-1.3105e-08
6.25999e-08
-1.08579e-10
-1.28439e-08
6.24511e-08
-3.06165e-10
-1.24168e-08
6.22247e-08
-6.20976e-10
-1.17304e-08
6.1852e-08
-9.39832e-10
-1.10508e-08
6.14896e-08
-1.21766e-09
-1.05373e-08
6.12507e-08
-1.3424e-09
-1.03239e-08
6.11608e-08
-1.33279e-09
-1.04244e-08
6.12499e-08
-1.07718e-09
-1.09062e-08
6.14737e-08
-8.5074e-10
-1.15953e-08
6.19353e-08
-3.93996e-10
-1.25271e-08
6.24097e-08
-1.0225e-10
-1.33116e-08
6.29011e-08
8.6012e-11
-1.37556e-08
6.31578e-08
9.26023e-11
-1.37691e-08
6.31642e-08
-1.04739e-10
-1.33303e-08
6.29244e-08
-4.03504e-10
-1.25597e-08
6.24528e-08
-8.5621e-10
-1.16459e-08
6.19929e-08
-1.08205e-09
-1.09701e-08
6.15436e-08
-1.34337e-09
-1.05054e-08
6.13406e-08
-1.33022e-09
-1.0402e-08
6.12243e-08
-1.21754e-09
-1.06403e-08
6.13499e-08
-9.45048e-10
-1.11594e-08
6.15966e-08
-6.22556e-10
-1.18457e-08
6.19603e-08
-3.03855e-10
-1.25412e-08
6.23371e-08
-1.00958e-10
-1.29782e-08
6.25712e-08
1.41942e-11
-1.32436e-08
6.27215e-08
4.4852e-11
-1.31476e-08
6.25949e-08
3.99056e-11
-1.31261e-08
6.25785e-08
2.0397e-11
-1.29826e-08
6.24511e-08
2.52059e-11
-1.30045e-08
6.24702e-08
-3.17765e-12
-1.30767e-08
6.25758e-08
-1.11006e-10
-1.28062e-08
6.24155e-08
-3.0373e-10
-1.23845e-08
6.21895e-08
-6.12846e-10
-1.1706e-08
6.18191e-08
-9.28684e-10
-1.10308e-08
6.14582e-08
-1.20615e-09
-1.0518e-08
6.122e-08
-1.33015e-09
-1.03027e-08
6.11273e-08
-1.32246e-09
-1.04032e-08
6.12184e-08
-1.06965e-09
-1.0887e-08
6.14472e-08
-8.39638e-10
-1.1577e-08
6.1906e-08
-3.85442e-10
-1.25129e-08
6.2387e-08
-9.40911e-11
-1.33009e-08
6.28823e-08
9.28069e-11
-1.37485e-08
6.31439e-08
9.94363e-11
-1.37619e-08
6.31503e-08
-9.6593e-11
-1.33198e-08
6.29057e-08
-3.94916e-10
-1.25456e-08
6.24301e-08
-8.44871e-10
-1.16276e-08
6.19633e-08
-1.07428e-09
-1.09512e-08
6.15169e-08
-1.33187e-09
-1.04835e-08
6.13071e-08
-1.31964e-09
-1.03819e-08
6.11936e-08
-1.20545e-09
-1.062e-08
6.13175e-08
-9.3332e-10
-1.11388e-08
6.15643e-08
-6.1383e-10
-1.18215e-08
6.19273e-08
-3.00773e-10
-1.2509e-08
6.23018e-08
-1.02781e-10
-1.29407e-08
6.25356e-08
1.07329e-11
-1.32158e-08
6.26972e-08
4.47151e-11
-1.31452e-08
6.25927e-08
4.14006e-11
-1.31222e-08
6.2573e-08
2.18894e-11
-1.29758e-08
6.24431e-08
2.50003e-11
-1.29989e-08
6.24651e-08
-9.11673e-12
-1.30394e-08
6.25444e-08
-1.1739e-10
-1.27534e-08
6.23689e-08
-3.04466e-10
-1.23343e-08
6.21396e-08
-6.07719e-10
-1.16641e-08
6.17718e-08
-9.20242e-10
-1.09941e-08
6.14129e-08
-1.19713e-09
-1.04824e-08
6.11755e-08
-1.32037e-09
-1.0265e-08
6.10798e-08
-1.31469e-09
-1.0365e-08
6.11725e-08
-1.06476e-09
-1.08499e-08
6.14053e-08
-8.31933e-10
-1.15394e-08
6.18607e-08
-3.80935e-10
-1.24776e-08
6.23473e-08
-9.06914e-11
-1.32682e-08
6.28463e-08
9.43668e-11
-1.37195e-08
6.31134e-08
1.00987e-10
-1.37329e-08
6.31197e-08
-9.32138e-11
-1.32873e-08
6.28698e-08
-3.90387e-10
-1.25105e-08
6.23905e-08
-8.36873e-10
-1.15899e-08
6.19175e-08
-1.06914e-09
-1.09143e-08
6.14749e-08
-1.32298e-09
-1.04445e-08
6.12593e-08
-1.31142e-09
-1.03454e-08
6.11489e-08
-1.19589e-09
-1.05834e-08
6.12714e-08
-9.2426e-10
-1.11015e-08
6.1518e-08
-6.08073e-10
-1.17797e-08
6.18799e-08
-3.00832e-10
-1.24589e-08
6.22518e-08
-1.08009e-10
-1.28883e-08
6.24884e-08
5.09966e-12
-1.3179e-08
6.2666e-08
4.46014e-11
-1.31401e-08
6.25877e-08
4.27693e-11
-1.31157e-08
6.25652e-08
2.31939e-11
-1.29655e-08
6.24319e-08
2.48542e-11
-1.29897e-08
6.24563e-08
-1.74111e-11
-1.29923e-08
6.25056e-08
-1.28374e-10
-1.2683e-08
6.23092e-08
-3.09633e-10
-1.22622e-08
6.20722e-08
-6.06799e-10
-1.16007e-08
6.17071e-08
-9.15797e-10
-1.09369e-08
6.13511e-08
-1.19218e-09
-1.04266e-08
6.11147e-08
-1.31468e-09
-1.02071e-08
6.10162e-08
-1.31108e-09
-1.03058e-08
6.11096e-08
-1.06374e-09
-1.07902e-08
6.13447e-08
-8.2913e-10
-1.14766e-08
6.17952e-08
-3.81998e-10
-1.24147e-08
6.22854e-08
-9.3638e-11
-1.3206e-08
6.27871e-08
8.9108e-11
-1.36607e-08
6.30598e-08
9.56155e-11
-1.36741e-08
6.30663e-08
-9.61987e-11
-1.32252e-08
6.28107e-08
-3.9142e-10
-1.24478e-08
6.23288e-08
-8.33728e-10
-1.15272e-08
6.18516e-08
-1.06783e-09
-1.08548e-08
6.14141e-08
-1.31825e-09
-1.03845e-08
6.11946e-08
-1.30718e-09
-1.02884e-08
6.10877e-08
-1.19042e-09
-1.05267e-08
6.12092e-08
-9.19177e-10
-1.10437e-08
6.14551e-08
-6.0651e-10
-1.17164e-08
6.18149e-08
-3.05336e-10
-1.23869e-08
6.21843e-08
-1.17558e-10
-1.28183e-08
6.24279e-08
-2.69095e-12
-1.31326e-08
6.26274e-08
4.46005e-11
-1.31315e-08
6.25791e-08
4.39736e-11
-1.31057e-08
6.2554e-08
2.42645e-11
-1.29506e-08
6.24162e-08
2.482e-11
-1.29757e-08
6.24426e-08
-2.79314e-11
-1.29351e-08
6.24589e-08
-1.44483e-10
-1.25928e-08
6.2235e-08
-3.21022e-10
-1.21636e-08
6.19844e-08
-6.11567e-10
-1.15117e-08
6.16225e-08
-9.16817e-10
-1.08551e-08
6.12701e-08
-1.19285e-09
-1.03467e-08
6.10355e-08
-1.31464e-09
-1.0125e-08
6.09341e-08
-1.31317e-09
-1.0222e-08
6.1028e-08
-1.06805e-09
-1.07038e-08
6.12628e-08
-8.33385e-10
-1.13832e-08
6.17062e-08
-3.90509e-10
-1.23177e-08
6.2197e-08
-1.05082e-10
-1.31064e-08
6.26991e-08
7.48278e-11
-1.35638e-08
6.29771e-08
8.10669e-11
-1.3577e-08
6.29838e-08
-1.07698e-10
-1.31259e-08
6.27229e-08
-3.99843e-10
-1.2351e-08
6.22405e-08
-8.37639e-10
-1.14338e-08
6.17622e-08
-1.07178e-09
-1.07687e-08
6.13319e-08
-1.31924e-09
-1.03e-08
6.1111e-08
-1.30845e-09
-1.02073e-08
6.10079e-08
-1.19059e-09
-1.04461e-08
6.11288e-08
-9.19549e-10
-1.09612e-08
6.1373e-08
-6.10659e-10
-1.16273e-08
6.17301e-08
-3.16109e-10
-1.22883e-08
6.20965e-08
-1.33014e-10
-1.27285e-08
6.23537e-08
-1.24395e-11
-1.30761e-08
6.25807e-08
4.47985e-11
-1.31181e-08
6.25656e-08
4.49617e-11
-1.30912e-08
6.25385e-08
2.50418e-11
-1.29296e-08
6.23948e-08
2.50374e-11
-1.29556e-08
6.24224e-08
-4.02606e-11
-1.28681e-08
6.24041e-08
-1.66816e-10
-1.24818e-08
6.2146e-08
-3.40269e-10
-1.20321e-08
6.18718e-08
-6.23858e-10
-1.13909e-08
6.15137e-08
-9.24954e-10
-1.07413e-08
6.11642e-08
-1.19772e-09
-1.02391e-08
6.09327e-08
-1.31799e-09
-1.00155e-08
6.0828e-08
-1.31889e-09
-1.01111e-08
6.09227e-08
-1.0793e-09
-1.05849e-08
6.11553e-08
-8.46804e-10
-1.12537e-08
6.15901e-08
-4.08763e-10
-1.21805e-08
6.20781e-08
-1.28189e-10
-1.29622e-08
6.25781e-08
4.82091e-11
-1.34206e-08
6.28606e-08
5.39981e-11
-1.34337e-08
6.28677e-08
-1.30854e-10
-1.2982e-08
6.26021e-08
-4.17872e-10
-1.22142e-08
6.21217e-08
-8.50803e-10
-1.13042e-08
6.16458e-08
-1.08261e-09
-1.065e-08
6.12241e-08
-1.32388e-09
-1.01883e-08
6.1004e-08
-1.31295e-09
-1.00988e-08
6.09038e-08
-1.19524e-09
-1.03376e-08
6.1025e-08
-9.26989e-10
-1.08469e-08
6.12661e-08
-6.22424e-10
-1.15063e-08
6.16208e-08
-3.34752e-10
-1.21569e-08
6.19838e-08
-1.55184e-10
-1.2618e-08
6.22653e-08
-2.45953e-11
-1.30098e-08
6.25266e-08
4.52839e-11
-1.30987e-08
6.25457e-08
4.56719e-11
-1.30707e-08
6.25173e-08
2.54513e-11
-1.2901e-08
6.2366e-08
2.56374e-11
-1.29278e-08
6.23942e-08
-5.43095e-11
-1.27918e-08
6.23418e-08
-1.94484e-10
-1.23512e-08
6.20428e-08
-3.65683e-10
-1.18645e-08
6.17291e-08
-6.45241e-10
-1.12239e-08
6.13676e-08
-9.41882e-10
-1.05796e-08
6.10191e-08
-1.19798e-09
-1.00989e-08
6.07928e-08
-1.31332e-09
-9.87855e-09
6.06864e-08
-1.31716e-09
-9.968e-09
6.0778e-08
-1.09873e-09
-1.04193e-08
6.10092e-08
-8.665e-10
-1.10811e-08
6.14374e-08
-4.3916e-10
-1.19922e-08
6.19202e-08
-1.66025e-10
-1.27652e-08
6.2419e-08
5.93479e-12
-1.32233e-08
6.27056e-08
1.1125e-11
-1.32364e-08
6.27133e-08
-1.68695e-10
-1.27854e-08
6.24434e-08
-4.47831e-10
-1.20269e-08
6.19643e-08
-8.70439e-10
-1.11314e-08
6.14926e-08
-1.10152e-09
-1.04847e-08
6.10776e-08
-1.3211e-09
-1.00446e-08
6.08576e-08
-1.30928e-09
-9.96251e-09
6.07639e-08
-1.19662e-09
-1.01954e-08
6.08842e-08
-9.43121e-10
-1.06851e-08
6.11205e-08
-6.43477e-10
-1.13389e-08
6.14745e-08
-3.59343e-10
-1.19892e-08
6.18407e-08
-1.82186e-10
-1.24878e-08
6.21621e-08
-3.87246e-11
-1.29343e-08
6.24652e-08
4.60915e-11
-1.30716e-08
6.25178e-08
4.60235e-11
-1.30425e-08
6.24887e-08
2.53928e-11
-1.28627e-08
6.23281e-08
2.67135e-11
-1.28909e-08
6.23564e-08
-6.90113e-11
-1.27079e-08
6.22724e-08
-2.19597e-10
-1.22105e-08
6.1927e-08
-3.8811e-10
-1.16719e-08
6.15585e-08
-6.75662e-10
-1.10069e-08
6.11807e-08
-9.6909e-10
-1.0384e-08
6.08506e-08
-1.20732e-09
-9.92948e-09
6.06327e-08
-1.31785e-09
-9.71489e-09
6.05273e-08
-1.32323e-09
-9.78016e-09
6.05963e-08
-1.12632e-09
-1.02024e-08
6.08201e-08
-8.76453e-10
-1.08664e-08
6.12327e-08
-4.82336e-10
-1.17338e-08
6.1705e-08
-2.14005e-10
-1.25049e-08
6.22068e-08
-4.73956e-11
-1.29637e-08
6.24993e-08
-4.28405e-11
-1.29768e-08
6.25077e-08
-2.16625e-10
-1.25257e-08
6.22316e-08
-4.90372e-10
-1.17701e-08
6.17501e-08
-8.80574e-10
-1.09165e-08
6.12879e-08
-1.12853e-09
-1.02682e-08
6.08882e-08
-1.32619e-09
-9.85628e-09
6.06743e-08
-1.31466e-09
-9.79955e-09
6.06064e-08
-1.20717e-09
-1.0024e-08
6.07233e-08
-9.69497e-10
-1.04896e-08
6.09514e-08
-6.73711e-10
-1.11212e-08
6.12871e-08
-3.79889e-10
-1.17963e-08
6.16684e-08
-2.07316e-10
-1.23472e-08
6.20467e-08
-5.32405e-11
-1.28511e-08
6.23965e-08
4.73473e-11
-1.30354e-08
6.24804e-08
4.59091e-11
-1.30047e-08
6.24511e-08
2.47458e-11
-1.28127e-08
6.22791e-08
2.83962e-11
-1.28434e-08
6.23073e-08
-8.1234e-11
-1.262e-08
6.21964e-08
-2.39153e-10
-1.20679e-08
6.18037e-08
-4.17117e-10
-1.1453e-08
6.13682e-08
-7.20689e-10
-1.07667e-08
6.09852e-08
-1.01013e-09
-1.01756e-08
6.0683e-08
-1.24263e-09
-9.73701e-09
6.04755e-08
-1.35155e-09
-9.52783e-09
6.03739e-08
-1.35709e-09
-9.56785e-09
6.04178e-08
-1.16552e-09
-9.96667e-09
6.06237e-08
-8.96782e-10
-1.06011e-08
6.09878e-08
-5.35454e-10
-1.141e-08
6.14345e-08
-2.47144e-10
-1.21924e-08
6.19275e-08
-8.49636e-11
-1.26493e-08
6.22226e-08
-8.09269e-11
-1.26625e-08
6.22316e-08
-2.49685e-10
-1.22137e-08
6.19526e-08
-5.42704e-10
-1.14475e-08
6.14799e-08
-9.01263e-10
-1.06515e-08
6.10435e-08
-1.16709e-09
-1.00328e-08
6.06914e-08
-1.3592e-09
-9.64365e-09
6.04947e-08
-1.34905e-09
-9.61315e-09
6.04543e-08
-1.24226e-09
-9.83102e-09
6.05655e-08
-1.0096e-09
-1.02806e-08
6.07825e-08
-7.17906e-10
-1.08802e-08
6.10903e-08
-4.06307e-10
-1.15766e-08
6.14751e-08
-2.26737e-10
-1.22046e-08
6.19235e-08
-6.5348e-11
-1.27638e-08
6.23213e-08
4.91753e-11
-1.29884e-08
6.24317e-08
4.52119e-11
-1.29553e-08
6.24024e-08
2.3409e-11
-1.27491e-08
6.22171e-08
3.07559e-11
-1.27838e-08
6.22456e-08
-9.00872e-11
-1.25299e-08
6.21148e-08
-2.61406e-10
-1.19186e-08
6.16763e-08
-4.6871e-10
-1.12119e-08
6.11783e-08
-7.84719e-10
-1.05183e-08
6.08004e-08
-1.06689e-09
-9.94311e-09
6.05071e-08
-1.29362e-09
-9.52329e-09
6.03127e-08
-1.40075e-09
-9.32429e-09
6.02195e-08
-1.40574e-09
-9.3593e-09
6.0258e-08
-1.21817e-09
-9.73437e-09
6.04442e-08
-9.54283e-10
-1.0309e-08
6.07533e-08
-6.05226e-10
-1.107e-08
6.11643e-08
-2.95283e-10
-1.18221e-08
6.16055e-08
-1.34474e-10
-1.22699e-08
6.18927e-08
-1.30783e-10
-1.2283e-08
6.1902e-08
-2.97688e-10
-1.18438e-08
6.16308e-08
-6.11442e-10
-1.11082e-08
6.12094e-08
-9.59068e-10
-1.03598e-08
6.08096e-08
-1.21905e-09
-9.80086e-09
6.05114e-08
-1.40718e-09
-9.43502e-09
6.0334e-08
-1.39876e-09
-9.41019e-09
6.03011e-08
-1.29276e-09
-9.6172e-09
6.04021e-08
-1.06437e-09
-1.00472e-08
6.06039e-08
-7.80609e-10
-1.06307e-08
6.09035e-08
-4.56492e-10
-1.13344e-08
6.12831e-08
-2.47654e-10
-1.20556e-08
6.17954e-08
-7.33542e-11
-1.26743e-08
6.22398e-08
5.16609e-11
-1.29294e-08
6.23703e-08
4.38317e-11
-1.28923e-08
6.23408e-08
2.13047e-11
-1.26702e-08
6.21407e-08
3.37136e-11
-1.27112e-08
6.21702e-08
-9.47414e-11
-1.24378e-08
6.20271e-08
-2.91509e-10
-1.176e-08
6.15475e-08
-5.36165e-10
-1.09671e-08
6.10005e-08
-8.63347e-10
-1.02506e-08
6.0611e-08
-1.13937e-09
-9.6874e-09
6.03236e-08
-1.35668e-09
-9.29475e-09
6.01471e-08
-1.46041e-09
-9.11403e-09
6.0069e-08
-1.46426e-09
-9.15158e-09
6.01088e-08
-1.28305e-09
-9.50004e-09
6.02748e-08
-1.03133e-09
-1.00286e-08
6.055e-08
-6.97242e-10
-1.07405e-08
6.09268e-08
-3.97273e-10
-1.14203e-08
6.13058e-08
-2.39616e-10
-1.18538e-08
6.15818e-08
-2.36191e-10
-1.18667e-08
6.15911e-08
-3.99509e-10
-1.14424e-08
6.13312e-08
-7.02134e-10
-1.07793e-08
6.09712e-08
-1.03612e-09
-1.00798e-08
6.06067e-08
-1.28327e-09
-9.56688e-09
6.03416e-08
-1.4652e-09
-9.22742e-09
6.01845e-08
-1.45877e-09
-9.20048e-09
6.01514e-08
-1.35548e-09
-9.38855e-09
6.02362e-08
-1.13423e-09
-9.79048e-09
6.04171e-08
-8.58531e-10
-1.03615e-08
6.07122e-08
-5.24443e-10
-1.10875e-08
6.11042e-08
-2.77533e-10
-1.18972e-08
6.1667e-08
-7.68032e-11
-1.2583e-08
6.21519e-08
5.49283e-11
-1.28573e-08
6.22949e-08
4.1717e-11
-1.28141e-08
6.22647e-08
1.84438e-11
-1.25752e-08
6.2049e-08
3.74305e-11
-1.26241e-08
6.20797e-08
-9.52385e-11
-1.23409e-08
6.19303e-08
-3.27429e-10
-1.15975e-08
6.14207e-08
-6.12409e-10
-1.07206e-08
6.08299e-08
-9.52598e-10
-9.96763e-09
6.0417e-08
-1.22491e-09
-9.41737e-09
6.0139e-08
-1.43064e-09
-9.06142e-09
5.99877e-08
-1.52888e-09
-8.90948e-09
5.99329e-08
-1.52988e-09
-8.95498e-09
5.99779e-08
-1.35699e-09
-9.27631e-09
6.01251e-08
-1.11919e-09
-9.76119e-09
6.03706e-08
-8.06042e-10
-1.04163e-08
6.07115e-08
-5.25424e-10
-1.10428e-08
6.10566e-08
-3.75447e-10
-1.14596e-08
6.13234e-08
-3.7234e-10
-1.14722e-08
6.13329e-08
-5.27523e-10
-1.10652e-08
6.1082e-08
-8.09535e-10
-1.04558e-08
6.07551e-08
-1.12366e-09
-9.81295e-09
6.04274e-08
-1.35658e-09
-9.34348e-09
6.01915e-08
-1.53041e-09
-9.03111e-09
6.00534e-08
-1.52744e-09
-8.99643e-09
6.00161e-08
-1.42927e-09
-9.15512e-09
6.00766e-08
-1.21866e-09
-9.51932e-09
6.02304e-08
-9.4773e-10
-1.00766e-08
6.05165e-08
-6.02933e-10
-1.08384e-08
6.09337e-08
-3.13639e-10
-1.1734e-08
6.15399e-08
-7.69879e-11
-1.24867e-08
6.20558e-08
5.88881e-11
-1.27707e-08
6.22045e-08
3.8893e-11
-1.27199e-08
6.21732e-08
1.48845e-11
-1.24644e-08
6.19422e-08
4.14695e-11
-1.25221e-08
6.19739e-08
-9.37188e-11
-1.22393e-08
6.1827e-08
-3.64714e-10
-1.14464e-08
6.13064e-08
-6.93077e-10
-1.04794e-08
6.0669e-08
-1.05082e-09
-9.68026e-09
6.02276e-08
-1.32075e-09
-9.14382e-09
5.99611e-08
-1.51285e-09
-8.83413e-09
5.98425e-08
-1.60227e-09
-8.72279e-09
5.98195e-08
-1.5957e-09
-8.78532e-09
5.9874e-08
-1.43183e-09
-9.08336e-09
6.00071e-08
-1.21049e-09
-9.5244e-09
6.02252e-08
-9.237e-10
-1.01182e-08
6.05311e-08
-6.64864e-10
-1.06957e-08
6.0849e-08
-5.24108e-10
-1.10934e-08
6.11059e-08
-5.21446e-10
-1.11057e-08
6.11156e-08
-6.66856e-10
-1.07184e-08
6.08745e-08
-9.25974e-10
-1.01584e-08
6.05742e-08
-1.21444e-09
-9.5767e-09
6.02819e-08
-1.43089e-09
-9.15081e-09
6.00732e-08
-1.59582e-09
-8.86179e-09
5.99494e-08
-1.60072e-09
-8.81006e-09
5.9903e-08
-1.51136e-09
-8.92765e-09
5.99313e-08
-1.31473e-09
-9.24441e-09
6.00516e-08
-1.04486e-09
-9.78657e-09
6.03237e-08
-6.86143e-10
-1.0594e-08
6.07725e-08
-3.51101e-10
-1.15816e-08
6.14249e-08
-7.50892e-11
-1.23858e-08
6.1953e-08
6.30881e-11
-1.26691e-08
6.20988e-08
3.54067e-11
-1.26097e-08
6.20665e-08
1.06392e-11
-1.23394e-08
6.18219e-08
4.48437e-11
-1.24058e-08
6.18546e-08
-9.31998e-11
-1.21365e-08
6.17236e-08
-4.02986e-10
-1.13095e-08
6.12075e-08
-7.73216e-10
-1.02471e-08
6.05165e-08
-1.15288e-09
-9.39867e-09
6.00477e-08
-1.42059e-09
-8.87378e-09
5.97907e-08
-1.59826e-09
-8.61836e-09
5.9712e-08
-1.67074e-09
-8.5594e-09
5.97246e-08
-1.64765e-09
-8.65233e-09
5.9793e-08
-1.49219e-09
-8.93708e-09
5.99212e-08
-1.29039e-09
-9.34002e-09
6.01208e-08
-1.03434e-09
-9.87566e-09
6.03992e-08
-8.00532e-10
-1.04029e-08
6.0692e-08
-6.69944e-10
-1.07793e-08
6.09377e-08
-6.67742e-10
-1.07912e-08
6.09474e-08
-8.02438e-10
-1.04259e-08
6.07176e-08
-1.03573e-09
-9.91654e-09
6.0442e-08
-1.29376e-09
-9.3928e-09
6.01773e-08
-1.49084e-09
-9.00473e-09
5.9987e-08
-1.64724e-09
-8.72901e-09
5.98681e-08
-1.66893e-09
-8.64668e-09
5.98078e-08
-1.59672e-09
-8.71151e-09
5.98005e-08
-1.41541e-09
-8.97265e-09
5.98806e-08
-1.14692e-09
-9.50167e-09
6.01409e-08
-7.66637e-10
-1.03577e-08
6.06168e-08
-3.90085e-10
-1.14432e-08
6.13255e-08
-7.44222e-11
-1.22836e-08
6.18502e-08
6.65634e-11
-1.25533e-08
6.19796e-08
3.12643e-11
-1.24852e-08
6.19461e-08
5.75956e-12
-1.22044e-08
6.16921e-08
4.63449e-11
-1.22784e-08
6.1726e-08
-9.50829e-11
-1.20321e-08
6.16211e-08
-4.40154e-10
-1.11802e-08
6.11151e-08
-8.47828e-10
-1.00262e-08
6.037e-08
-1.25072e-09
-9.12855e-09
5.98752e-08
-1.51708e-09
-8.61399e-09
5.96272e-08
-1.67868e-09
-8.41912e-09
5.95931e-08
-1.72021e-09
-8.42407e-09
5.96387e-08
-1.67168e-09
-8.56263e-09
5.97274e-08
-1.52098e-09
-8.84927e-09
5.98622e-08
-1.33764e-09
-9.2259e-09
6.0054e-08
-1.11255e-09
-9.71152e-09
6.03133e-08
-9.06196e-10
-1.01877e-08
6.05825e-08
-7.86838e-10
-1.05407e-08
6.08161e-08
-7.85026e-10
-1.05522e-08
6.08257e-08
-9.08031e-10
-1.0211e-08
6.06083e-08
-1.11335e-09
-9.75293e-09
6.0356e-08
-1.3405e-09
-9.27897e-09
6.01102e-08
-1.51936e-09
-8.91697e-09
5.99278e-08
-1.67072e-09
-8.63923e-09
5.98018e-08
-1.71827e-09
-8.51101e-09
5.97215e-08
-1.67723e-09
-8.51158e-09
5.96812e-08
-1.51379e-09
-8.71057e-09
5.9717e-08
-1.24732e-09
-9.22741e-09
5.9967e-08
-8.41431e-10
-1.01325e-08
6.04664e-08
-4.28017e-10
-1.13124e-08
6.12325e-08
-7.64397e-11
-1.218e-08
6.17487e-08
6.81258e-11
-1.24262e-08
6.1851e-08
2.65145e-11
-1.23506e-08
6.18161e-08
6.51522e-13
-1.20654e-08
6.15587e-08
4.49724e-11
-1.21444e-08
6.15939e-08
-1.00752e-10