/*--------------------------------*- C++ -*----------------------------------*\
  =========                 |
  \\      /  F ield         | OpenFOAM: The Open Source CFD Toolbox
   \\    /   O peration     | Website:  https://openfoam.org
    \\  /    A nd           | Version:  6
     \\/     M anipulation  |
\*---------------------------------------------------------------------------*/
FoamFile
{
    version     2.0;
    format      ascii;
    class       volVectorField;
    location    "40";
    object      U;
}
// * * * * * * * * * * * * * * * * * * * * * * * * * * * * * * * * * * * * * //

dimensions      [0 1 -1 0 0 0 0];

internalField   nonuniform List<vector> 
2880
(
(0.0160386 -3.8231e-10 3.00646e-11)
(0.0160385 7.07346e-10 -2.97171e-11)
(0.0160387 -2.7419e-10 1.01694e-11)
(0.0393749 -5.47322e-10 4.68956e-11)
(0.0393751 3.89423e-09 -8.34976e-11)
(0.0393758 -3.26716e-09 3.75186e-11)
(0.0457315 2.31788e-09 6.675e-11)
(0.0457324 3.65542e-10 -1.25823e-10)
(0.0457334 -2.62687e-09 5.83794e-11)
(0.0511668 7.00226e-09 8.11526e-11)
(0.0511679 -9.73976e-09 -1.88008e-10)
(0.051169 2.78548e-09 1.06984e-10)
(0.055861 1.02233e-08 8.31812e-11)
(0.0558622 -1.5289e-08 -2.12924e-10)
(0.0558632 5.0886e-09 1.29406e-10)
(0.0599948 1.08411e-08 8.57372e-11)
(0.0599961 -1.62368e-08 -2.37347e-10)
(0.0599969 5.4167e-09 1.51614e-10)
(0.0636839 8.36016e-09 8.288e-11)
(0.0636852 -1.16074e-08 -2.5373e-10)
(0.0636859 3.25946e-09 1.70782e-10)
(0.0670045 4.2376e-09 8.21074e-11)
(0.0670059 -5.08475e-09 -2.57203e-10)
(0.0670065 8.60355e-10 1.75171e-10)
(0.0700081 2.04028e-10 8.27198e-11)
(0.0700093 1.05264e-09 -2.49835e-10)
(0.07001 -1.24427e-09 1.67086e-10)
(0.0727112 -3.17564e-09 8.62166e-11)
(0.0727125 6.06282e-09 -2.43578e-10)
(0.0727131 -2.86659e-09 1.57321e-10)
(0.0750956 -4.98318e-09 9.59538e-11)
(0.0750967 9.06614e-09 -2.3797e-10)
(0.0750975 -4.0542e-09 1.42051e-10)
(0.0771197 -5.71752e-09 1.22885e-10)
(0.0771206 1.03634e-08 -2.33715e-10)
(0.0771216 -4.60796e-09 1.1082e-10)
(0.0787077 -5.22646e-09 1.36609e-10)
(0.0787083 9.55995e-09 -2.03885e-10)
(0.0787095 -4.29662e-09 6.72547e-11)
(0.0797771 -3.1182e-09 1.62561e-10)
(0.0797774 5.97979e-09 -1.90269e-10)
(0.0797788 -2.8334e-09 2.7725e-11)
(0.0803728 -1.03301e-09 1.74191e-10)
(0.080373 1.9524e-09 -1.72936e-10)
(0.0803744 -9.05545e-10 -1.24753e-12)
(0.0803725 1.01282e-09 1.74499e-10)
(0.0803726 -1.85286e-09 -1.72926e-10)
(0.0803741 8.4119e-10 -1.54927e-12)
(0.0797762 3.15204e-09 1.62469e-10)
(0.0797765 -5.88582e-09 -1.89854e-10)
(0.0797779 2.71913e-09 2.73769e-11)
(0.0787065 5.21353e-09 1.36507e-10)
(0.0787071 -9.44289e-09 -2.03619e-10)
(0.0787083 4.20226e-09 6.70996e-11)
(0.0771181 5.67156e-09 1.22825e-10)
(0.077119 -1.02332e-08 -2.33106e-10)
(0.07712 4.53106e-09 1.1024e-10)
(0.0750941 4.97525e-09 9.56996e-11)
(0.0750952 -8.93132e-09 -2.37795e-10)
(0.075096 3.93212e-09 1.42092e-10)
(0.0727094 3.13701e-09 8.71658e-11)
(0.0727106 -5.96012e-09 -2.42928e-10)
(0.0727113 2.80703e-09 1.55717e-10)
(0.070006 -2.74988e-10 8.08782e-11)
(0.0700072 -9.32645e-10 -2.50569e-10)
(0.0700079 1.1989e-09 1.6968e-10)
(0.0670014 -4.28942e-09 8.2602e-11)
(0.0670027 5.28021e-09 -2.55262e-10)
(0.0670033 -9.955e-10 1.72643e-10)
(0.063679 -8.48314e-09 8.27298e-11)
(0.0636804 1.1853e-08 -2.53237e-10)
(0.0636811 -3.3711e-09 1.70497e-10)
(0.0599882 -1.10866e-08 8.58732e-11)
(0.0599894 1.66113e-08 -2.3725e-10)
(0.0599902 -5.52397e-09 1.51362e-10)
(0.0558533 -1.0482e-08 8.3481e-11)
(0.0558545 1.57735e-08 -2.12375e-10)
(0.0558555 -5.29108e-09 1.28928e-10)
(0.0511597 -7.17154e-09 8.18689e-11)
(0.0511609 1.01232e-08 -1.87405e-10)
(0.051162 -2.94916e-09 1.05525e-10)
(0.0457267 -2.4008e-09 6.79859e-11)
(0.0457276 -1.83581e-10 -1.25699e-10)
(0.0457286 2.5854e-09 5.77236e-11)
(0.0393716 5.5816e-10 4.60265e-11)
(0.0393718 -3.83166e-09 -8.30807e-11)
(0.0393725 3.2759e-09 3.70407e-11)
(0.0160376 4.28821e-10 1.9676e-11)
(0.0160375 -7.10941e-10 -2.98519e-11)
(0.0160377 2.84401e-10 1.02107e-11)
(0.0444896 -1.05423e-09 1.42194e-10)
(0.0444894 1.93058e-09 -2.35173e-10)
(0.0444898 -7.24362e-10 8.75426e-11)
(0.104543 -1.54403e-09 2.82958e-10)
(0.104543 9.32704e-09 -5.28423e-10)
(0.104545 -7.52379e-09 2.45534e-10)
(0.11686 5.1994e-09 3.0969e-10)
(0.116862 1.27174e-09 -5.37858e-10)
(0.116863 -6.28041e-09 2.28125e-10)
(0.126364 1.57824e-08 3.62778e-10)
(0.126366 -2.09513e-08 -7.36858e-10)
(0.126368 5.31034e-09 3.75946e-10)
(0.13412 2.25707e-08 4.23399e-10)
(0.134122 -3.25675e-08 -9.65694e-10)
(0.134124 1.00609e-08 5.4292e-10)
(0.140683 2.34638e-08 4.69966e-10)
(0.140684 -3.40127e-08 -1.13824e-09)
(0.140686 1.05925e-08 6.68873e-10)
(0.146365 1.77397e-08 4.76989e-10)
(0.146367 -2.38216e-08 -1.22082e-09)
(0.146368 6.10262e-09 7.43912e-10)
(0.151359 8.75326e-09 4.56798e-10)
(0.151361 -1.00889e-08 -1.18868e-09)
(0.151362 1.3597e-09 7.31858e-10)
(0.15579 2.42819e-10 4.25389e-10)
(0.155791 2.49363e-09 -1.11107e-09)
(0.155792 -2.7112e-09 6.85516e-10)
(0.159713 -6.66039e-09 4.09122e-10)
(0.159715 1.25167e-08 -1.04148e-09)
(0.159716 -5.81496e-09 6.32117e-10)
(0.163127 -1.03166e-08 4.30037e-10)
(0.163129 1.83496e-08 -9.91382e-10)
(0.16313 -7.97382e-09 5.61107e-10)
(0.165993 -1.17277e-08 5.05662e-10)
(0.165994 2.07527e-08 -9.6183e-10)
(0.165996 -8.94501e-09 4.56041e-10)
(0.16824 -1.06067e-08 5.98387e-10)
(0.168241 1.90202e-08 -8.93463e-10)
(0.168243 -8.33619e-09 2.95052e-10)
(0.169847 -6.34458e-09 6.89682e-10)
(0.169847 1.18768e-08 -8.36811e-10)
(0.16985 -5.47262e-09 1.47231e-10)
(0.170738 -2.0904e-09 7.29621e-10)
(0.170738 3.86898e-09 -7.69321e-10)
(0.17074 -1.74871e-09 3.98186e-11)
(0.170737 2.04775e-09 7.30745e-10)
(0.170738 -3.67247e-09 -7.69209e-10)
(0.17074 1.62809e-09 3.86164e-11)
(0.169846 6.40356e-09 6.8919e-10)
(0.169846 -1.16854e-08 -8.35025e-10)
(0.169848 5.25233e-09 1.45958e-10)
(0.168239 1.05758e-08 5.97885e-10)
(0.168239 -1.87909e-08 -8.92351e-10)
(0.168241 8.15942e-09 2.94523e-10)
(0.165991 1.16311e-08 5.0513e-10)
(0.165992 -2.04955e-08 -9.60009e-10)
(0.165993 8.80086e-09 4.54803e-10)
(0.163125 1.02867e-08 4.28926e-10)
(0.163126 -1.80854e-08 -9.89824e-10)
(0.163128 7.74858e-09 5.60728e-10)
(0.15971 6.60092e-09 4.0946e-10)
(0.159712 -1.23002e-08 -1.04136e-09)
(0.159713 5.66543e-09 6.31684e-10)
(0.155786 -3.89048e-10 4.23586e-10)
(0.155788 -2.26006e-09 -1.11072e-09)
(0.155789 2.63033e-09 6.8695e-10)
(0.151354 -8.90342e-09 4.56731e-10)
(0.151356 1.04771e-08 -1.18577e-09)
(0.151357 -1.58376e-09 7.28877e-10)
(0.146357 -1.80165e-08 4.77687e-10)
(0.146359 2.43642e-08 -1.2219e-09)
(0.14636 -6.35043e-09 7.44074e-10)
(0.140672 -2.4009e-08 4.71608e-10)
(0.140674 3.48371e-08 -1.14045e-09)
(0.140675 -1.08267e-08 6.68761e-10)
(0.134108 -2.31518e-08 4.22539e-10)
(0.134109 3.36478e-08 -9.64564e-10)
(0.134111 -1.04948e-08 5.41993e-10)
(0.126352 -1.61571e-08 3.62145e-10)
(0.126354 2.18316e-08 -7.2994e-10)
(0.126356 -5.66792e-09 3.67763e-10)
(0.116851 -5.34589e-09 3.09517e-10)
(0.116853 -8.37467e-10 -5.3042e-10)
(0.116855 6.18641e-09 2.20953e-10)
(0.104536 1.6228e-09 2.79264e-10)
(0.104537 -9.16035e-09 -5.20071e-10)
(0.104538 7.54412e-09 2.40731e-10)
(0.044487 1.18869e-09 1.44987e-10)
(0.0444868 -1.93246e-09 -2.32236e-10)
(0.0444872 7.49882e-10 8.74816e-11)
(0.0673513 -1.60367e-09 3.83858e-10)
(0.0673511 2.90107e-09 -6.1963e-10)
(0.0673516 -1.06937e-09 2.23104e-10)
(0.14175 -2.15602e-09 6.06815e-10)
(0.14175 1.18684e-08 -1.1331e-09)
(0.141752 -9.35783e-09 5.27152e-10)
(0.156629 6.42256e-09 6.3557e-10)
(0.15663 1.91793e-09 -1.06903e-09)
(0.156632 -8.08319e-09 4.3528e-10)
(0.167268 1.97016e-08 7.40233e-10)
(0.167269 -2.54229e-08 -1.41341e-09)
(0.167271 5.9075e-09 6.77711e-10)
(0.175782 2.80845e-08 8.9779e-10)
(0.175784 -3.96889e-08 -1.95889e-09)
(0.175785 1.16887e-08 1.06284e-09)
(0.182921 2.90485e-08 1.01805e-09)
(0.182923 -4.13522e-08 -2.34938e-09)
(0.182924 1.2359e-08 1.33245e-09)
(0.189068 2.18243e-08 1.04369e-09)
(0.18907 -2.88115e-08 -2.52503e-09)
(0.189071 7.01288e-09 1.48151e-09)
(0.194452 1.06564e-08 9.89385e-10)
(0.194453 -1.20241e-08 -2.43398e-09)
(0.194455 1.39763e-09 1.44464e-09)
(0.199214 1.49337e-10 9.08073e-10)
(0.199216 3.26934e-09 -2.24673e-09)
(0.199217 -3.38694e-09 1.33832e-09)
(0.203422 -8.30644e-09 8.53444e-10)
(0.203424 1.53625e-08 -2.08147e-09)
(0.203425 -7.00457e-09 1.2275e-09)
(0.207077 -1.27624e-08 8.77081e-10)
(0.207079 2.2361e-08 -1.96968e-09)
(0.20708 -9.52461e-09 1.09223e-09)
(0.210141 -1.44691e-08 1.0132e-09)
(0.210142 2.5208e-08 -1.90505e-09)
(0.210143 -1.0639e-08 8.91627e-10)
(0.212546 -1.30534e-08 1.20491e-09)
(0.212547 2.30614e-08 -1.80256e-09)
(0.212549 -9.9118e-09 5.97733e-10)
(0.214293 -7.83869e-09 1.37235e-09)
(0.214294 1.44451e-08 -1.69569e-09)
(0.214296 -6.532e-09 3.23654e-10)
(0.215261 -2.58375e-09 1.44285e-09)
(0.215261 4.71272e-09 -1.5694e-09)
(0.215263 -2.09161e-09 1.26863e-10)
(0.21526 2.52909e-09 1.445e-09)
(0.215261 -4.47143e-09 -1.56922e-09)
(0.215263 1.94677e-09 1.24594e-10)
(0.214292 7.90356e-09 1.3713e-09)
(0.214292 -1.42063e-08 -1.69219e-09)
(0.214294 6.26622e-09 3.21228e-10)
(0.212544 1.30119e-08 1.20385e-09)
(0.212545 -2.27816e-08 -1.80048e-09)
(0.212547 9.70069e-09 5.96847e-10)
(0.210138 1.43486e-08 1.01226e-09)
(0.210139 -2.48942e-08 -1.90167e-09)
(0.210141 1.04668e-08 8.89257e-10)
(0.207075 1.27196e-08 8.74996e-10)
(0.207076 -2.20366e-08 -1.96689e-09)
(0.207078 9.25469e-09 1.09155e-09)
(0.203419 8.23189e-09 8.55201e-10)
(0.203421 -1.50957e-08 -2.08113e-09)
(0.203422 6.82169e-09 1.22545e-09)
(0.19921 -3.30231e-10 9.03359e-10)
(0.199212 -2.9833e-09 -2.24708e-09)
(0.199213 3.29001e-09 1.34333e-09)
(0.194446 -1.08521e-08 9.90098e-10)
(0.194448 1.25023e-08 -2.42842e-09)
(0.194449 -1.66277e-09 1.43797e-09)
(0.18906 -2.21739e-08 1.04651e-09)
(0.189062 2.94843e-08 -2.52823e-09)
(0.189063 -7.31387e-09 1.48143e-09)
(0.182909 -2.97289e-08 1.02285e-09)
(0.182911 4.23731e-08 -2.35601e-09)
(0.182913 -1.26426e-08 1.33298e-09)
(0.175768 -2.88134e-08 8.95976e-10)
(0.17577 4.10302e-08 -1.95722e-09)
(0.175772 -1.22151e-08 1.06113e-09)
(0.167254 -2.01759e-08 7.37334e-10)
(0.167256 2.65264e-08 -1.39805e-09)
(0.167258 -6.3418e-09 6.60607e-10)
(0.156619 -6.60162e-09 6.32566e-10)
(0.156621 -1.36219e-09 -1.05052e-09)
(0.156623 7.96814e-09 4.17989e-10)
(0.141742 2.26573e-09 5.96415e-10)
(0.141743 -1.16408e-08 -1.11251e-09)
(0.141744 9.38397e-09 5.159e-10)
(0.0673477 1.79656e-09 3.89547e-10)
(0.0673475 -2.89235e-09 -6.1159e-10)
(0.067348 1.10463e-09 2.2265e-10)
(0.0855462 -2.0491e-09 7.1909e-10)
(0.085546 3.67623e-09 -1.16622e-09)
(0.0855466 -1.34666e-09 4.11333e-10)
(0.162916 -2.50907e-09 9.32676e-10)
(0.162916 1.30198e-08 -1.74972e-09)
(0.162917 -1.0114e-08 8.17923e-10)
(0.179856 6.94309e-09 9.60749e-10)
(0.179857 2.35285e-09 -1.5754e-09)
(0.179859 -9.01177e-09 6.19568e-10)
(0.191445 2.15149e-08 1.13106e-09)
(0.191446 -2.71349e-08 -2.06469e-09)
(0.191448 5.82572e-09 9.41458e-10)
(0.200618 3.07462e-08 1.42208e-09)
(0.20062 -4.27524e-08 -3.00642e-09)
(0.200621 1.2101e-08 1.58802e-09)
(0.208275 3.17938e-08 1.64603e-09)
(0.208276 -4.46429e-08 -3.67906e-09)
(0.208278 1.29119e-08 2.03501e-09)
(0.21485 2.38416e-08 1.7071e-09)
(0.214852 -3.10834e-08 -3.98141e-09)
(0.214853 7.27166e-09 2.27479e-09)
(0.220596 1.15772e-08 1.61789e-09)
(0.220598 -1.285e-08 -3.83272e-09)
(0.220599 1.30693e-09 2.21487e-09)
(0.225671 2.8663e-11 1.47622e-09)
(0.225673 3.7689e-09 -3.52766e-09)
(0.225674 -3.76159e-09 2.05094e-09)
(0.230149 -9.25199e-09 1.37588e-09)
(0.230151 1.68792e-08 -3.25899e-09)
(0.230152 -7.56941e-09 1.88229e-09)
(0.234034 -1.41305e-08 1.40179e-09)
(0.234036 2.44697e-08 -3.08584e-09)
(0.234037 -1.02561e-08 1.68339e-09)
(0.237286 -1.60066e-08 1.59814e-09)
(0.237287 2.75489e-08 -2.99545e-09)
(0.237289 -1.14307e-08 1.39695e-09)
(0.239837 -1.44291e-08 1.9129e-09)
(0.239838 2.51876e-08 -2.8839e-09)
(0.23984 -1.06511e-08 9.71229e-10)
(0.241686 -8.7e-09 2.16318e-09)
(0.241686 1.58514e-08 -2.73345e-09)
(0.241689 -7.06834e-09 5.70846e-10)
(0.242709 -2.87214e-09 2.26659e-09)
(0.242709 5.18607e-09 -2.54889e-09)
(0.242712 -2.2722e-09 2.82877e-10)
(0.242708 2.80964e-09 2.26989e-09)
(0.242709 -4.91825e-09 -2.54863e-09)
(0.242711 2.11364e-09 2.79386e-10)
(0.241684 8.76512e-09 2.16144e-09)
(0.241685 -1.55838e-08 -2.72797e-09)
(0.241687 6.77794e-09 5.67186e-10)
(0.239835 1.43807e-08 1.91107e-09)
(0.239836 -2.48795e-08 -2.88071e-09)
(0.239838 1.04221e-08 9.70086e-10)
(0.237283 1.58722e-08 1.59657e-09)
(0.237285 -2.72037e-08 -2.99064e-09)
(0.237286 1.12437e-08 1.39388e-09)
(0.234031 1.40794e-08 1.39858e-09)
(0.234033 -2.41103e-08 -3.08138e-09)
(0.234034 9.96139e-09 1.68225e-09)
(0.230146 9.16386e-09 1.37771e-09)
(0.230148 -1.65859e-08 -3.25966e-09)
(0.230149 7.37506e-09 1.88119e-09)
(0.225667 -2.28893e-10 1.4705e-09)
(0.225669 -3.45214e-09 -3.52735e-09)
(0.22567 3.65473e-09 2.05624e-09)
(0.22059 -1.17947e-08 1.61868e-09)
(0.220592 1.338e-08 -3.82634e-09)
(0.220593 -1.59924e-09 2.20714e-09)
(0.214841 -2.42305e-08 1.71274e-09)
(0.214843 3.18203e-08 -3.98812e-09)
(0.214844 -7.59361e-09 2.27494e-09)
(0.208262 -3.25414e-08 1.65451e-09)
(0.208264 4.57582e-08 -3.69139e-09)
(0.208265 -1.32149e-08 2.03663e-09)
(0.200603 -3.15477e-08 1.4186e-09)
(0.200605 4.42148e-08 -3.00468e-09)
(0.200607 -1.26651e-08 1.58586e-09)
(0.19143 -2.20428e-08 1.12442e-09)
(0.191432 2.83413e-08 -2.03938e-09)
(0.191434 -6.28886e-09 9.14791e-10)
(0.179845 -7.14649e-09 9.52723e-10)
(0.179846 -1.73737e-09 -1.5433e-09)
(0.179848 8.88893e-09 5.90596e-10)
(0.162907 2.62366e-09 9.14947e-10)
(0.162907 -1.27565e-08 -1.71501e-09)
(0.162909 1.0143e-08 7.99736e-10)
(0.0855419 2.27452e-09 7.40932e-10)
(0.0855417 -3.65183e-09 -1.15019e-09)
(0.0855423 1.38798e-09 4.10404e-10)
(0.100261 -2.41238e-09 1.14987e-09)
(0.100261 4.31221e-09 -1.84841e-09)
(0.100262 -1.5854e-09 6.41298e-10)
(0.177118 -2.7351e-09 1.28174e-09)
(0.177119 1.36063e-08 -2.41077e-09)
(0.17712 -1.04554e-08 1.13011e-09)
(0.195876 7.18937e-09 1.32298e-09)
(0.195878 2.68576e-09 -2.12142e-09)
(0.19588 -9.58047e-09 8.07343e-10)
(0.208341 2.24329e-08 1.57809e-09)
(0.208342 -2.76805e-08 -2.77218e-09)
(0.208345 5.46267e-09 1.20575e-09)
(0.218111 3.21795e-08 2.03484e-09)
(0.218113 -4.40853e-08 -4.18795e-09)
(0.218115 1.20072e-08 2.15921e-09)
(0.226234 3.33067e-08 2.38675e-09)
(0.226236 -4.61953e-08 -5.19976e-09)
(0.226237 1.29568e-08 2.81605e-09)
(0.233194 2.49609e-08 2.49144e-09)
(0.233196 -3.21821e-08 -5.65208e-09)
(0.233197 7.25451e-09 3.16153e-09)
(0.239266 1.20728e-08 2.36324e-09)
(0.239268 -1.31945e-08 -5.44155e-09)
(0.239269 1.1591e-09 3.07836e-09)
(0.244622 -9.72454e-11 2.15266e-09)
(0.244623 4.15127e-09 -5.00737e-09)
(0.244625 -4.01493e-09 2.85402e-09)
(0.249342 -9.87721e-09 2.00058e-09)
(0.249344 1.78222e-08 -4.62422e-09)
(0.249345 -7.88256e-09 2.62245e-09)
(0.253433 -1.50109e-08 2.02955e-09)
(0.253434 2.57492e-08 -4.38902e-09)
(0.253436 -1.06489e-08 2.35847e-09)
(0.256853 -1.69987e-08 2.29501e-09)
(0.256855 2.89648e-08 -4.28245e-09)
(0.256856 -1.18463e-08 1.98694e-09)
(0.259533 -1.53133e-08 2.74675e-09)
(0.259534 2.6474e-08 -4.17701e-09)
(0.259536 -1.10455e-08 1.43064e-09)
(0.261468 -9.26874e-09 3.08908e-09)
(0.261469 1.6748e-08 -3.99361e-09)
(0.261471 -7.39013e-09 9.05412e-10)
(0.262538 -3.06501e-09 3.2277e-09)
(0.262538 5.49864e-09 -3.75286e-09)
(0.262541 -2.38883e-09 5.26052e-10)
(0.262537 2.99688e-09 3.23234e-09)
(0.262538 -5.21272e-09 -3.75251e-09)
(0.26254 2.2214e-09 5.21167e-10)
(0.261466 9.33221e-09 3.0865e-09)
(0.261467 -1.64604e-08 -3.98586e-09)
(0.26147 7.08475e-09 9.00388e-10)
(0.25953 1.52598e-08 2.74388e-09)
(0.259532 -2.61482e-08 -4.17258e-09)
(0.259534 1.08064e-08 1.42941e-09)
(0.25685 1.68552e-08 2.29269e-09)
(0.256852 -2.85998e-08 -4.2762e-09)
(0.256853 1.16508e-08 1.98328e-09)
(0.25343 1.49535e-08 2.0251e-09)
(0.253431 -2.53673e-08 -4.38281e-09)
(0.253433 1.03395e-08 2.35688e-09)
(0.249338 9.77833e-09 2.00236e-09)
(0.24934 -1.75121e-08 -4.62637e-09)
(0.249341 7.68362e-09 2.62293e-09)
(0.244618 -1.15369e-10 2.14583e-09)
(0.244619 -3.81414e-09 -5.00621e-09)
(0.24462 3.90134e-09 2.85949e-09)
(0.23926 -1.23033e-08 2.36414e-09)
(0.239261 1.37575e-08 -5.43469e-09)
(0.239263 -1.46913e-09 3.06981e-09)
(0.233184 -2.53747e-08 2.50072e-09)
(0.233186 3.29557e-08 -5.66328e-09)
(0.233187 -7.58523e-09 3.16197e-09)
(0.226221 -3.40924e-08 2.39966e-09)
(0.226222 4.73623e-08 -5.21922e-09)
(0.226224 -1.3268e-08 2.81926e-09)
(0.218095 -3.30204e-08 2.02944e-09)
(0.218097 4.56094e-08 -4.1864e-09)
(0.218099 -1.25868e-08 2.15665e-09)
(0.208325 -2.2994e-08 1.56694e-09)
(0.208327 2.89393e-08 -2.73558e-09)
(0.208329 -5.93519e-09 1.16842e-09)
(0.195865 -7.41305e-09 1.30862e-09)
(0.195866 -2.03645e-09 -2.07337e-09)
(0.195868 9.45502e-09 7.6477e-10)
(0.177109 2.8435e-09 1.25518e-09)
(0.177109 -1.33184e-08 -2.35991e-09)
(0.177111 1.04858e-08 1.10425e-09)
(0.100256 2.65104e-09 1.18405e-09)
(0.100256 -4.2698e-09 -1.82199e-09)
(0.100257 1.63058e-09 6.3975e-10)
(0.112722 -2.71618e-09 1.67261e-09)
(0.112722 4.85945e-09 -2.67152e-09)
(0.112723 -1.80836e-09 9.16457e-10)
(0.187754 -2.88129e-09 1.66147e-09)
(0.187755 1.3907e-08 -3.12629e-09)
(0.187756 -1.0601e-08 1.46665e-09)
(0.208167 7.30798e-09 1.73033e-09)
(0.208168 2.96411e-09 -2.72922e-09)
(0.20817 -9.97365e-09 1.01262e-09)
(0.221471 2.28763e-08 2.09205e-09)
(0.221473 -2.75888e-08 -3.56596e-09)
(0.221475 4.93302e-09 1.48992e-09)
(0.231795 3.29506e-08 2.74514e-09)
(0.231797 -4.44731e-08 -5.52674e-09)
(0.231799 1.16291e-08 2.7905e-09)
(0.240339 3.41495e-08 3.24412e-09)
(0.240341 -4.67961e-08 -6.92625e-09)
(0.240342 1.27191e-08 3.68637e-09)
(0.24764 2.55911e-08 3.40185e-09)
(0.247641 -3.26353e-08 -7.54888e-09)
(0.247643 7.08043e-09 4.1484e-09)
(0.253997 1.23365e-08 3.22978e-09)
(0.253999 -1.32696e-08 -7.27065e-09)
(0.254 9.73004e-10 4.04088e-09)
(0.259597 -2.25064e-10 2.93961e-09)
(0.259598 4.47793e-09 -6.69411e-09)
(0.259599 -4.21129e-09 3.75356e-09)
(0.264525 -1.03233e-08 2.73184e-09)
(0.264527 1.84603e-08 -6.18933e-09)
(0.264528 -8.0711e-09 3.45584e-09)
(0.268792 -1.56191e-08 2.76893e-09)
(0.268794 2.6581e-08 -5.89746e-09)
(0.268795 -1.08677e-08 3.12709e-09)
(0.272356 -1.76865e-08 3.1144e-09)
(0.272358 2.98785e-08 -5.78957e-09)
(0.272359 -1.20662e-08 2.67448e-09)
(0.275145 -1.59192e-08 3.71607e-09)
(0.275146 2.73026e-08 -5.71108e-09)
(0.275148 -1.12623e-08 1.99557e-09)
(0.277151 -9.67135e-09 4.1601e-09)
(0.277152 1.73623e-08 -5.51241e-09)
(0.277155 -7.59718e-09 1.35355e-09)
(0.278259 -3.20341e-09 4.33577e-09)
(0.27826 5.72343e-09 -5.22115e-09)
(0.278263 -2.47279e-09 8.86645e-10)
(0.278258 3.13107e-09 4.34197e-09)
(0.278259 -5.4243e-09 -5.22073e-09)
(0.278262 2.29934e-09 8.80162e-10)
(0.277149 9.7324e-09 4.15651e-09)
(0.27715 -1.70602e-08 -5.5021e-09)
(0.277153 7.2825e-09 1.34705e-09)
(0.275142 1.5862e-08 3.71181e-09)
(0.275143 -2.69656e-08 -5.70531e-09)
(0.275145 1.10179e-08 1.9945e-09)
(0.272353 1.75365e-08 3.11115e-09)
(0.272354 -2.95003e-08 -5.78187e-09)
(0.272356 1.18658e-08 2.67044e-09)
(0.268789 1.55566e-08 2.76315e-09)
(0.26879 -2.61841e-08 -5.88947e-09)
(0.268792 1.05499e-08 3.12516e-09)
(0.264521 1.02164e-08 2.73323e-09)
(0.264523 -1.81388e-08 -6.19358e-09)
(0.264524 7.86994e-09 3.45885e-09)
(0.259592 3.97019e-12 2.93166e-09)
(0.259594 -4.12645e-09 -6.69181e-09)
(0.259595 4.09297e-09 3.75891e-09)
(0.253991 -1.25764e-08 3.23082e-09)
(0.253992 1.38542e-08 -7.26369e-09)
(0.253994 -1.29348e-09 4.03185e-09)
(0.24763 -2.6022e-08 3.41551e-09)
(0.247631 3.34319e-08 -7.56555e-09)
(0.247633 -7.41436e-09 4.14922e-09)
(0.240325 -3.49575e-08 3.2622e-09)
(0.240327 4.7993e-08 -6.95428e-09)
(0.240328 -1.30336e-08 3.69169e-09)
(0.231778 -3.38125e-08 2.73766e-09)
(0.23178 4.60278e-08 -5.5259e-09)
(0.231782 -1.2213e-08 2.78779e-09)
(0.221455 -2.34588e-08 2.07587e-09)
(0.221457 2.88741e-08 -3.51675e-09)
(0.221459 -5.40495e-09 1.44061e-09)
(0.208154 -7.54802e-09 1.7085e-09)
(0.208156 -2.29421e-09 -2.66334e-09)
(0.208158 9.84807e-09 9.5484e-10)
(0.187744 2.97954e-09 1.62446e-09)
(0.187745 -1.36001e-08 -3.0576e-09)
(0.187746 1.06319e-08 1.43247e-09)
(0.112717 2.95426e-09 1.72049e-09)
(0.112717 -4.79794e-09 -2.63199e-09)
(0.112718 1.85621e-09 9.14112e-10)
(0.123879 -2.9761e-09 2.30157e-09)
(0.123879 5.351e-09 -3.65892e-09)
(0.12388 -2.02968e-09 1.2457e-09)
(0.196294 -2.96605e-09 2.06963e-09)
(0.196294 1.40304e-08 -3.89544e-09)
(0.196295 -1.06365e-08 1.82887e-09)
(0.218166 7.35982e-09 2.1736e-09)
(0.218167 3.2076e-09 -3.39593e-09)
(0.218169 -1.02684e-08 1.24156e-09)
(0.232292 2.30195e-08 2.66451e-09)
(0.232293 -2.70767e-08 -4.4458e-09)
(0.232295 4.28091e-09 1.80204e-09)
(0.243149 3.32939e-08 3.54389e-09)
(0.243151 -4.4236e-08 -7.0153e-09)
(0.243153 1.10532e-08 3.48342e-09)
(0.252089 3.45557e-08 4.21184e-09)
(0.252091 -4.67674e-08 -8.84678e-09)
(0.252092 1.2288e-08 4.64056e-09)
(0.259705 2.59022e-08 4.42993e-09)
(0.259706 -3.26604e-08 -9.65577e-09)
(0.259708 6.79698e-09 5.22775e-09)
(0.266322 1.2449e-08 4.21049e-09)
(0.266324 -1.31623e-08 -9.30562e-09)
(0.266325 7.55278e-10 5.0951e-09)
(0.27214 -3.54939e-10 3.83307e-09)
(0.272142 4.7767e-09 -8.57935e-09)
(0.272143 -4.37813e-09 4.74505e-09)
(0.277255 -1.06534e-08 3.56684e-09)
(0.277256 1.89096e-08 -7.95012e-09)
(0.277258 -8.18752e-09 4.38111e-09)
(0.281677 -1.60501e-08 3.61983e-09)
(0.281679 2.71296e-08 -7.61175e-09)
(0.28168 -1.09815e-08 3.98996e-09)
(0.285368 -1.81768e-08 4.06009e-09)
(0.285369 3.04735e-08 -7.52277e-09)
(0.285371 -1.21662e-08 3.46177e-09)
(0.288251 -1.63422e-08 4.825e-09)
(0.288253 2.78399e-08 -7.4994e-09)
(0.288255 -1.13719e-08 2.67516e-09)
(0.290319 -9.96491e-09 5.3818e-09)
(0.29032 1.779e-08 -7.30975e-09)
(0.290323 -7.72766e-09 1.9296e-09)
(0.29146 -3.30606e-09 5.59728e-09)
(0.291461 5.8911e-09 -6.97794e-09)
(0.291464 -2.53575e-09 1.38237e-09)
(0.291459 3.23056e-09 5.60527e-09)
(0.29146 -5.58213e-09 -6.97745e-09)
(0.291463 2.35832e-09 1.37405e-09)
(0.290317 1.00233e-08 5.37705e-09)
(0.290318 -1.74773e-08 -7.29663e-09)
(0.290321 7.40765e-09 1.92156e-09)
(0.288249 1.62823e-08 4.81901e-09)
(0.28825 -2.74961e-08 -7.49219e-09)
(0.288252 1.11256e-08 2.67453e-09)
(0.285364 1.80221e-08 4.05575e-09)
(0.285366 -3.00866e-08 -7.51365e-09)
(0.285368 1.19634e-08 3.45753e-09)
(0.281674 1.59833e-08 3.61268e-09)
(0.281675 -2.67231e-08 -7.60216e-09)
(0.281677 1.06597e-08 3.98793e-09)
(0.277251 1.05405e-08 3.56733e-09)
(0.277252 -1.85796e-08 -7.95696e-09)
(0.277254 7.98501e-09 4.38765e-09)
(0.272135 1.27941e-10 3.82386e-09)
(0.272137 -4.41481e-09 -8.57573e-09)
(0.272138 4.25636e-09 4.75021e-09)
(0.266315 -1.26963e-08 4.21181e-09)
(0.266317 1.37607e-08 -9.2989e-09)
(0.266318 -1.08056e-09 5.08573e-09)
(0.259694 -2.63454e-08 4.44873e-09)
(0.259696 3.34717e-08 -9.67896e-09)
(0.259697 -7.13099e-09 5.22914e-09)
(0.252074 -3.53757e-08 4.23577e-09)
(0.252076 4.79807e-08 -8.88488e-09)
(0.252077 -1.26032e-08 4.6486e-09)
(0.243131 -3.41643e-08 3.53426e-09)
(0.243133 4.58012e-08 -7.01565e-09)
(0.243135 -1.16345e-08 3.48075e-09)
(0.232274 -2.36156e-08 2.64301e-09)
(0.232276 2.8372e-08 -4.38292e-09)
(0.232278 -4.74605e-09 1.73958e-09)
(0.218153 -7.61284e-09 2.14331e-09)
(0.218154 -2.52529e-09 -3.31067e-09)
(0.218156 1.01442e-08 1.16732e-09)
(0.196283 3.05258e-09 2.02097e-09)
(0.196283 -1.37082e-08 -3.80742e-09)
(0.196284 1.06672e-08 1.78554e-09)
(0.123873 3.20324e-09 2.36435e-09)
(0.123873 -5.26997e-09 -3.60307e-09)
(0.123874 2.07964e-09 1.24227e-09)
(0.134285 -3.19626e-09 3.05203e-09)
(0.134285 5.79749e-09 -4.83339e-09)
(0.134286 -2.2542e-09 1.63632e-09)
(0.203523 -2.99538e-09 2.50714e-09)
(0.203524 1.4021e-08 -4.72322e-09)
(0.203525 -1.05984e-08 2.22068e-09)
(0.226635 7.37793e-09 2.64659e-09)
(0.226636 3.42405e-09 -4.11925e-09)
(0.226638 -1.05041e-08 1.4981e-09)
(0.241562 2.29539e-08 3.29096e-09)
(0.241564 -2.62533e-08 -5.41235e-09)
(0.241566 3.52542e-09 2.14732e-09)
(0.252947 3.33287e-08 4.42682e-09)
(0.252948 -4.35307e-08 -8.65167e-09)
(0.25295 1.03174e-08 4.24035e-09)
(0.262271 3.46426e-08 5.28538e-09)
(0.262273 -4.62662e-08 -1.0957e-08)
(0.262274 1.17032e-08 5.6788e-09)
(0.270187 2.59789e-08 5.5756e-09)
(0.270189 -3.2363e-08 -1.19702e-08)
(0.27019 6.42531e-09 6.39719e-09)
(0.277048 1.24498e-08 5.30596e-09)
(0.27705 -1.29137e-08 -1.15434e-08)
(0.277051 5.07655e-10 6.23739e-09)
(0.283069 -4.88162e-10 4.83192e-09)
(0.283071 5.06336e-09 -1.06591e-08)
(0.283072 -4.5298e-09 5.8256e-09)
(0.288354 -1.09008e-08 4.50439e-09)
(0.288355 1.92293e-08 -9.90615e-09)
(0.288357 -8.25752e-09 5.39896e-09)
(0.292918 -1.63528e-08 4.58292e-09)
(0.292919 2.74787e-08 -9.53771e-09)
(0.292921 -1.10249e-08 4.95223e-09)
(0.296723 -1.85251e-08 5.13631e-09)
(0.296724 3.08434e-08 -9.49276e-09)
(0.296726 -1.21839e-08 4.35527e-09)
(0.299691 -1.66316e-08 6.07924e-09)
(0.299693 2.81703e-08 -9.55917e-09)
(0.299695 -1.14091e-08 3.48091e-09)
(0.301814 -1.01794e-08 6.76243e-09)
(0.301815 1.80777e-08 -9.40859e-09)
(0.301817 -7.7977e-09 2.64828e-09)
(0.302983 -3.38284e-09 7.02219e-09)
(0.302984 6.01584e-09 -9.05082e-09)
(0.302987 -2.58187e-09 2.03084e-09)
(0.302982 3.30503e-09 7.03231e-09)
(0.302983 -5.69969e-09 -9.05028e-09)
(0.302986 2.40216e-09 2.02038e-09)
(0.301812 1.0235e-08 6.75635e-09)
(0.301813 -1.77573e-08 -9.39239e-09)
(0.301815 7.47526e-09 2.63861e-09)
(0.299689 1.657e-08 6.07119e-09)
(0.29969 -2.78231e-08 -9.55043e-09)
(0.299692 1.11632e-08 3.48097e-09)
(0.296719 1.8367e-08 5.13072e-09)
(0.296721 -3.04508e-08 -9.48219e-09)
(0.296722 1.19805e-08 4.351e-09)
(0.292914 1.62825e-08 4.57436e-09)
(0.292916 -2.70667e-08 -9.52675e-09)
(0.292917 1.07024e-08 4.95037e-09)
(0.288349 1.07837e-08 4.50331e-09)
(0.288351 -1.88929e-08 -9.91603e-09)
(0.288352 8.05399e-09 5.41016e-09)
(0.283064 2.57147e-10 4.82146e-09)
(0.283065 -4.6938e-09 -1.0654e-08)
(0.283067 4.40542e-09 5.83039e-09)
(0.27704 -1.27032e-08 5.30769e-09)
(0.277042 1.35199e-08 -1.15374e-08)
(0.277043 -8.33293e-10 6.22795e-09)
(0.270176 -2.64307e-08 5.60026e-09)
(0.270177 3.31832e-08 -1.20011e-08)
(0.270179 -6.75727e-09 6.39942e-09)
(0.262256 -3.54673e-08 5.31585e-09)
(0.262257 4.74865e-08 -1.10068e-08)
(0.262259 -1.20174e-08 5.69027e-09)
(0.252928 -3.41981e-08 4.41501e-09)
(0.25293 4.5092e-08 -8.65395e-09)
(0.252932 -1.08913e-08 4.2381e-09)
(0.241545 -2.35577e-08 3.26386e-09)
(0.241546 2.75473e-08 -5.33494e-09)
(0.241548 -3.97929e-09 2.07066e-09)
(0.226621 -7.64124e-09 2.60682e-09)
(0.226622 -2.73492e-09 -4.0134e-09)
(0.226624 1.03823e-08 1.4065e-09)
(0.203512 3.06944e-09 2.44615e-09)
(0.203512 -1.36859e-08 -4.61457e-09)
(0.203514 1.06282e-08 2.16726e-09)
(0.134279 3.40423e-09 3.13079e-09)
(0.134279 -5.6973e-09 -4.75745e-09)
(0.13428 2.30613e-09 1.63128e-09)
(0.144191 -3.3712e-09 3.93743e-09)
(0.14419 6.19246e-09 -6.21228e-09)
(0.144191 -2.48033e-09 2.09282e-09)
(0.209911 -2.96752e-09 2.97565e-09)
(0.209911 1.38914e-08 -5.61304e-09)
(0.209912 -1.05006e-08 2.64365e-09)
(0.234027 7.38354e-09 3.14137e-09)
(0.234028 3.61239e-09 -4.8926e-09)
(0.234031 -1.07005e-08 1.78354e-09)
(0.249726 2.27343e-08 3.96353e-09)
(0.249728 -2.51833e-08 -6.45837e-09)
(0.24973 2.67637e-09 2.52636e-09)
(0.261636 3.31236e-08 5.38947e-09)
(0.261637 -4.24423e-08 -1.04296e-08)
(0.261639 9.43828e-09 5.05947e-09)
(0.271342 3.44756e-08 6.46815e-09)
(0.271343 -4.53752e-08 -1.32548e-08)
(0.271345 1.09823e-08 6.79565e-09)
(0.279551 2.58668e-08 6.84326e-09)
(0.279552 -3.17976e-08 -1.44912e-08)
(0.279553 5.97426e-09 7.65123e-09)
(0.286646 1.23599e-08 6.51832e-09)
(0.286648 -1.2544e-08 -1.39822e-08)
(0.286649 2.29467e-10 7.46374e-09)
(0.29286 -6.26414e-10 5.93888e-09)
(0.292861 5.34812e-09 -1.29304e-08)
(0.292862 -4.67476e-09 6.98956e-09)
(0.298304 -1.10851e-08 5.54496e-09)
(0.298306 1.94527e-08 -1.20563e-08)
(0.298307 -8.29475e-09 6.5078e-09)
(0.303 -1.65548e-08 5.65848e-09)
(0.303002 2.76745e-08 -1.16792e-08)
(0.303003 -1.10164e-08 6.01744e-09)
(0.306911 -1.8763e-08 6.34529e-09)
(0.306912 3.104e-08 -1.17097e-08)
(0.306914 -1.21394e-08 5.36289e-09)
(0.309958 -1.68155e-08 7.4846e-09)
(0.309959 2.83404e-08 -1.19064e-08)
(0.309961 -1.13921e-08 4.42306e-09)
(0.312129 -1.03322e-08 8.31141e-09)
(0.31213 1.82584e-08 -1.1832e-08)
(0.312133 -7.82295e-09 3.52326e-09)
(0.313324 -3.43946e-09 8.62314e-09)
(0.313325 6.10383e-09 -1.14635e-08)
(0.313328 -2.61155e-09 2.84318e-09)
(0.313323 3.36007e-09 8.63585e-09)
(0.313324 -5.78291e-09 -1.14631e-08)
(0.313327 2.43118e-09 2.83027e-09)
(0.312127 1.0385e-08 8.30385e-09)
(0.312128 -1.79327e-08 -1.18125e-08)
(0.312131 7.50039e-09 3.51191e-09)
(0.309955 1.67528e-08 7.47421e-09)
(0.309956 -2.79927e-08 -1.18961e-08)
(0.309958 1.11488e-08 4.42404e-09)
(0.306907 1.86028e-08 6.33826e-09)
(0.306908 -3.06443e-08 -1.16976e-08)
(0.30691 1.19368e-08 5.35881e-09)
(0.302996 1.64816e-08 5.64849e-09)
(0.302998 -2.72602e-08 -1.16671e-08)
(0.302999 1.06958e-08 6.01607e-09)
(0.298299 1.09653e-08 5.54287e-09)
(0.298301 -1.91115e-08 -1.20695e-08)
(0.298302 8.09036e-09 6.52339e-09)
(0.292854 3.92887e-10 5.92716e-09)
(0.292856 -4.97292e-09 -1.29238e-08)
(0.292857 4.54829e-09 6.99398e-09)
(0.286638 -1.26183e-08 6.52068e-09)
(0.28664 1.31532e-08 -1.39773e-08)
(0.286641 -5.51843e-10 7.45443e-09)
(0.279539 -2.63245e-08 6.87447e-09)
(0.279541 3.26222e-08 -1.4531e-08)
(0.279542 -6.30255e-09 7.65476e-09)
(0.271326 -3.52989e-08 6.50578e-09)
(0.271327 4.65949e-08 -1.33179e-08)
(0.271329 -1.12943e-08 6.81134e-09)
(0.261617 -3.39843e-08 5.37546e-09)
(0.261618 4.39881e-08 -1.04345e-08)
(0.26162 -1.00012e-08 5.05798e-09)
(0.249707 -2.33414e-08 3.93066e-09)
(0.249709 2.6467e-08 -6.3658e-09)
(0.249711 -3.11529e-09 2.43463e-09)
(0.234013 -7.65515e-09 3.09083e-09)
(0.234014 -2.92068e-09 -4.76507e-09)
(0.234016 1.0582e-08 1.67409e-09)
(0.209899 3.02848e-09 2.90223e-09)
(0.209899 -1.35457e-08 -5.48332e-09)
(0.209901 1.05289e-08 2.57964e-09)
(0.144184 3.5533e-09 4.03244e-09)
(0.144184 -6.0746e-09 -6.11192e-09)
(0.144185 2.53432e-09 2.08529e-09)
(0.153683 -3.48956e-09 4.9699e-09)
(0.153683 6.52219e-09 -7.80937e-09)
(0.153683 -2.70545e-09 2.61685e-09)
(0.215756 -2.87437e-09 3.47422e-09)
(0.215756 1.36345e-08 -6.56646e-09)
(0.215757 -1.03438e-08 3.09996e-09)
(0.24064 7.39399e-09 3.65447e-09)
(0.240641 3.76183e-09 -5.70738e-09)
(0.240643 -1.08639e-08 2.09273e-09)
(0.257061 2.23994e-08 4.67834e-09)
(0.257063 -2.39122e-08 -7.56834e-09)
(0.257065 1.74096e-09 2.92753e-09)
(0.269497 3.27226e-08 6.42704e-09)