/*--------------------------------*- C++ -*----------------------------------*\
  =========                 |
  \\      /  F ield         | OpenFOAM: The Open Source CFD Toolbox
   \\    /   O peration     | Website:  https://openfoam.org
    \\  /    A nd           | Version:  6
     \\/     M anipulation  |
\*---------------------------------------------------------------------------*/
FoamFile
{
    version     2.0;
    format      ascii;
    class       volVectorField;
    location    "40";
    object      wallShearStress;
}
// * * * * * * * * * * * * * * * * * * * * * * * * * * * * * * * * * * * * * //

dimensions      [0 2 -2 0 0 0 0];

internalField   uniform (0 0 0);

boundaryField
{
    inlet
    {
        type            calculated;
        value           uniform (0 0 0);
    }
    outlet
    {
        type            calculated;
        value           uniform (0 0 0);
    }
    roughCylinder
    {
        type            calculated;
        value           nonuniform List<vector> 
3840
(
(-0.000469067 -0.000677711 -0.000284963)
(-0.00033072 -0.000502918 -1.80949e-05)
(-0.000364899 -0.000578887 4.11801e-05)
(-0.000451796 -0.000683794 0.000110009)
(-0.000544111 -0.000755041 0.00017586)
(-0.000635061 -0.00079466 0.000231545)
(-0.000717614 -0.000808043 0.000274051)
(-0.000789632 -0.000809078 0.000303843)
(-0.000851229 -0.000812111 0.000323516)
(-0.000899901 -0.000820635 0.000332816)
(-0.000940109 -0.000836679 0.000333644)
(-0.00097422 -0.000858759 0.000328577)
(-0.00100577 -0.000885208 0.000319829)
(-0.00103773 -0.000914836 0.000308862)
(-0.00107176 -0.000946997 0.000296296)
(-0.00110846 -0.000981405 0.000282232)
(-0.00114793 -0.00101798 0.000266567)
(-0.00118985 -0.00105637 0.000248992)
(-0.00123365 -0.00109604 0.000228933)
(-0.00127847 -0.00113608 0.000205377)
(-0.00132291 -0.00117511 0.000176496)
(-0.00136475 -0.00121112 0.00013969)
(-0.00139966 -0.00124106 9.10048e-05)
(-0.00142065 -0.00125955 3.1372e-05)
(-0.000509515 -0.000671372 -0.000285823)
(-0.000355387 -0.000496393 -2.23964e-05)
(-0.000383595 -0.000561834 3.33913e-05)
(-0.000472618 -0.000667075 9.90405e-05)
(-0.000567386 -0.000740558 0.000163137)
(-0.000661306 -0.000783452 0.00021798)
(-0.000747828 -0.000801347 0.000260667)
(-0.00082513 -0.00080737 0.000292089)
(-0.000891995 -0.000812244 0.000313803)
(-0.000943271 -0.000818769 0.000323824)
(-0.000985271 -0.000833546 0.000324943)
(-0.00102135 -0.000854901 0.000320095)
(-0.00105482 -0.000880926 0.000311525)
(-0.00108857 -0.000910156 0.000300733)
(-0.0011244 -0.000941929 0.000288421)
(-0.00116313 -0.000976064 0.000274762)
(-0.00120464 -0.00101225 0.000259584)
(-0.00124863 -0.0010502 0.000242592)
(-0.00129451 -0.00108935 0.000223193)
(-0.00134139 -0.00112883 0.000200379)
(-0.00138781 -0.0011673 0.000172324)
(-0.00143145 -0.00120277 0.000136465)
(-0.00146784 -0.00123227 8.89222e-05)
(-0.00148972 -0.00125046 3.06477e-05)
(-0.000543077 -0.000645807 -0.000271726)
(-0.000378455 -0.000481468 -2.74125e-05)
(-0.000401408 -0.000539706 2.49336e-05)
(-0.000491592 -0.000643748 8.71132e-05)
(-0.000588697 -0.00071937 0.000149341)
(-0.000685529 -0.000765711 0.000203459)
(-0.000776609 -0.000788846 0.000246805)
(-0.000859239 -0.000799913 0.000279817)
(-0.000930659 -0.000806965 0.000302938)
(-0.000985302 -0.000811681 0.000313658)
(-0.00102953 -0.000825263 0.000315339)
(-0.00106762 -0.000845602 0.00031075)
(-0.00110291 -0.000870822 0.000302394)
(-0.00113858 -0.000899506 0.000291882)
(-0.0011764 -0.000930794 0.000279938)
(-0.00121694 -0.00096423 0.000266692)
(-0.00126038 -0.000999738 0.000252056)
(-0.00130637 -0.00103695 0.0002357)
(-0.00135427 -0.00107533 0.000217028)
(-0.00140311 -0.00111399 0.000195015)
(-0.0014514 -0.00115163 0.00016785)
(-0.00149673 -0.0011863 0.000133006)
(-0.00153452 -0.00121515 8.66898e-05)
(-0.00155721 -0.00123292 2.98726e-05)
(-0.000584892 -0.000626078 -0.000254774)
(-0.000399673 -0.000461231 -3.27215e-05)
(-0.000414406 -0.000510874 1.59697e-05)
(-0.000505753 -0.000614029 7.43617e-05)
(-0.000605161 -0.00069199 0.000134529)
(-0.000705719 -0.000742954 0.000188078)
(-0.000801382 -0.000771499 0.000232166)
(-0.000888872 -0.000787092 0.000266586)
(-0.000964349 -0.000795969 0.000290678)
(-0.00102434 -0.000801156 0.000302787)
(-0.00107062 -0.000812663 0.000304967)
(-0.00111081 -0.000831722 0.000300722)
(-0.00114822 -0.000856122 0.000292743)
(-0.00118574 -0.000883975 0.000282562)
(-0.00122529 -0.000914408 0.000271003)
(-0.00126785 -0.000947188 0.000258302)
(-0.00131323 -0.000981871 0.000244276)
(-0.00136113 -0.00101818 0.000228615)
(-0.00141088 -0.00105554 0.000210703)
(-0.00146152 -0.00109315 0.000189525)
(-0.0015115 -0.00112973 0.000163279)
(-0.00155836 -0.0011634 0.000129475)
(-0.0015974 -0.00119143 8.44138e-05)
(-0.00162082 -0.00120866 2.90839e-05)
(-0.000593327 -0.000566956 -0.00022513)
(-0.000415773 -0.00043701 -3.71001e-05)
(-0.000424749 -0.000479103 6.89983e-06)
(-0.000514937 -0.000579506 6.11107e-05)
(-0.000616543 -0.000659713 0.000118979)
(-0.000720059 -0.000714468 0.000171572)
(-0.000820316 -0.000748429 0.000216278)
(-0.000912808 -0.000768562 0.000252067)
(-0.000993276 -0.000780009 0.000277371)
(-0.00105767 -0.000785772 0.000290654)
(-0.0011077 -0.000795367 0.00029372)
(-0.00115026 -0.000813074 0.000290063)
(-0.00118963 -0.000836127 0.000282495)
(-0.00122918 -0.000863033 0.000272796)
(-0.00127079 -0.000892676 0.000261788)
(-0.00131496 -0.000924324 0.000249627)
(-0.00136207 -0.000957913 0.000236257)
(-0.00141169 -0.000993042 0.00022133)
(-0.00146317 -0.0010292 0.000204233)
(-0.00151545 -0.00106552 0.000183927)
(-0.00156695 -0.00110082 0.000158629)
(-0.00161519 -0.0011333 0.00012589)
(-0.00165535 -0.00116032 8.21073e-05)
(-0.00167939 -0.00117692 2.82858e-05)
(-0.000553158 -0.000472842 -0.00017784)
(-0.000423018 -0.000401202 -4.15818e-05)
(-0.000427529 -0.000441743 -2.32598e-06)
(-0.00051737 -0.000540022 4.75565e-05)
(-0.000620747 -0.000622004 0.000102587)
(-0.000728425 -0.000681695 0.000154147)
(-0.000833319 -0.00072081 0.00019923)
(-0.000930464 -0.00074486 0.00023613)
(-0.00101495 -0.000758004 0.000262436)
(-0.00108514 -0.000765746 0.000277209)
(-0.00114009 -0.000774345 0.000281504)
(-0.00118516 -0.000789603 0.000278563)
(-0.00122708 -0.000811441 0.00027169)
(-0.00126861 -0.000837048 0.000262564)
(-0.0013118 -0.00086532 0.000252114)
(-0.00135801 -0.000895952 0.000240674)
(-0.0014069 -0.000928325 0.000228051)
(-0.00145821 -0.000962137 0.000213931)
(-0.0015112 -0.000996823 0.000197677)
(-0.00156492 -0.00103164 0.000178271)
(-0.00161775 -0.00106543 0.00015394)
(-0.00166716 -0.0010965 0.000122278)
(-0.0017083 -0.00112235 7.97866e-05)
(-0.00173285 -0.00113822 2.74843e-05)
(-0.000489379 -0.000373799 -0.000127845)
(-0.000431855 -0.000366654 -4.73263e-05)
(-0.000426741 -0.000404159 -1.11058e-05)
(-0.000513218 -0.000497469 3.38779e-05)
(-0.000618598 -0.000581408 8.56755e-05)
(-0.000728689 -0.000644254 0.000135492)
(-0.000837967 -0.000688032 0.000180552)
(-0.000940127 -0.00071598 0.000218412)
(-0.00103074 -0.000732232 0.000246255)
(-0.00110507 -0.00074062 0.000262143)
(-0.00116559 -0.000749461 0.000267914)
(-0.0012153 -0.000763031 0.000266238)
(-0.0012595 -0.000782417 0.000260138)
(-0.0013033 -0.000806507 0.000251792)
(-0.00134881 -0.000833654 0.00024216)
(-0.00139642 -0.000862687 0.000231424)
(-0.00144681 -0.000893541 0.000219595)
(-0.00149951 -0.000925745 0.00020632)
(-0.00155393 -0.00095882 0.000190974)
(-0.00160891 -0.000991954 0.000172508)
(-0.00166289 -0.00102408 0.000149174)
(-0.00171332 -0.00105357 0.000118614)
(-0.00175529 -0.00107812 7.74373e-05)
(-0.00178024 -0.00109318 2.6675e-05)
(-0.000593722 -0.00040123 -0.000126441)
(-0.000431146 -0.000329731 -5.14214e-05)
(-0.000416947 -0.000361707 -1.93996e-05)
(-0.000500344 -0.000451169 2.00654e-05)
(-0.000605887 -0.000535502 6.77945e-05)
(-0.000720271 -0.000603105 0.000115658)
(-0.000834411 -0.000651607 0.000160376)
(-0.000941844 -0.000683271 0.000198967)
(-0.00103641 -0.000700891 0.000227792)
(-0.0011176 -0.000711588 0.000245568)
(-0.00118329 -0.000720524 0.000252851)
(-0.00123764 -0.000732931 0.00025258)
(-0.00128625 -0.000750744 0.000247848)
(-0.00133258 -0.000772838 0.000240507)
(-0.00137956 -0.000797883 0.000231667)
(-0.00142931 -0.000825484 0.000221877)
(-0.00148136 -0.000854723 0.000210964)
(-0.00153555 -0.000885245 0.000198625)
(-0.0015911 -0.000916462 0.000184212)
(-0.00164711 -0.000947713 0.000166712)
(-0.00170199 -0.000977953 0.000144387)
(-0.00175321 -0.00100566 0.000114935)
(-0.00179581 -0.00102872 7.50809e-05)
(-0.00182105 -0.00104292 2.58656e-05)
(-0.000582328 -0.000346429 -0.000103327)
(-0.000424998 -0.00029417 -5.37832e-05)
(-0.000402063 -0.000318995 -2.7054e-05)
(-0.000478795 -0.000402493 6.36979e-06)
(-0.000585817 -0.000488381 4.95643e-05)
(-0.000701399 -0.000557999 9.44953e-05)
(-0.000819605 -0.000610406 0.000138212)
(-0.000932189 -0.000645489 0.000177143)
(-0.00103474 -0.000667015 0.000207684)
(-0.00112045 -0.000678219 0.000226937)
(-0.0011921 -0.000687607 0.00023613)
(-0.00125193 -0.000699501 0.000237653)
(-0.00130422 -0.000715649 0.000234346)
(-0.00135378 -0.000735929 0.000228302)
(-0.00140391 -0.000759523 0.000220716)
(-0.00145505 -0.000785037 0.000211898)
(-0.00150843 -0.000812342 0.000201976)
(-0.00156369 -0.000840875 0.000190626)
(-0.00162032 -0.000870176 0.000177236)
(-0.00167719 -0.00089945 0.000160758)
(-0.00173281 -0.000927738 0.000139488)
(-0.00178474 -0.000953623 0.000111183)
(-0.00182791 -0.000975193 7.26895e-05)
(-0.00185322 -0.000988457 2.50463e-05)
(-0.000492507 -0.000257427 -7.21655e-05)
(-0.000402042 -0.000250374 -5.40196e-05)
(-0.000377825 -0.000274297 -3.39351e-05)
(-0.000447777 -0.000351895 -6.77961e-06)
(-0.000551526 -0.000435484 3.07869e-05)
(-0.000671126 -0.000509376 7.22297e-05)
(-0.000794345 -0.000566237 0.000114399)
(-0.000913444 -0.000605444 0.000153475)
(-0.00101967 -0.000627819 0.000184717)
(-0.00111381 -0.000641688 0.000206279)
(-0.00119163 -0.000651382 0.000217636)
(-0.00125636 -0.000662288 0.000221112)
(-0.00131348 -0.000677282 0.000219658)
(-0.00136639 -0.0006958 0.000215131)
(-0.00141811 -0.000717077 0.000208751)
(-0.00147177 -0.00074104 0.000201255)
(-0.00152682 -0.000766536 0.000192515)
(-0.00158339 -0.000793183 0.000182301)
(-0.00164068 -0.00082036 0.000169984)
(-0.00169805 -0.000847516 0.000154579)
(-0.00175405 -0.000873747 0.000134407)
(-0.00180633 -0.000897746 0.00010729)
(-0.00184974 -0.000917748 7.02092e-05)
(-0.00187497 -0.00093001 2.4198e-05)
(-0.000443626 -0.000203773 -4.83668e-05)
(-0.000383736 -0.000211505 -5.66747e-05)
(-0.000346491 -0.000230838 -3.96063e-05)
(-0.000405248 -0.000298995 -1.86612e-05)
(-0.00050989 -0.000383308 1.24792e-05)
(-0.000628586 -0.000457634 4.91071e-05)
(-0.000755351 -0.000517881 8.86945e-05)
(-0.000879255 -0.000560096 0.000127045)
(-0.000996232 -0.000587618 0.000159935)
(-0.00109548 -0.00060184 0.000183205)
(-0.0011801 -0.000611875 0.000197041)
(-0.0012515 -0.000622461 0.000203056)
(-0.0013127 -0.00063568 0.000203597)
(-0.00136909 -0.000652341 0.000200851)
(-0.00142456 -0.000672215 0.000196189)
(-0.00147927 -0.000693768 0.00018996)
(-0.00153527 -0.000717012 0.000182452)
(-0.00159236 -0.000741356 0.000173414)
(-0.00165025 -0.000766384 0.000162283)
(-0.00170788 -0.000791344 0.000148031)
(-0.00176395 -0.00081544 0.000129025)
(-0.00181628 -0.000837498 0.000103167)
(-0.00185972 -0.000855884 6.75835e-05)
(-0.00188469 -0.000867097 2.33012e-05)
(-0.0004318 -0.000171328 -3.31321e-05)
(-0.000355444 -0.000174043 -5.7956e-05)
(-0.000308654 -0.000188703 -4.37345e-05)
(-0.000354795 -0.000247089 -2.89763e-05)
(-0.000449964 -0.000324481 -5.12262e-06)
(-0.000572168 -0.000402435 2.56403e-05)
(-0.000703698 -0.000466985 6.16657e-05)
(-0.000836062 -0.000514543 9.90575e-05)
(-0.000955791 -0.000542356 0.000132042)
(-0.00106549 -0.000559814 0.00015783)
(-0.00115781 -0.000570334 0.000174457)
(-0.00123467 -0.000579673 0.000183095)
(-0.0013018 -0.000591742 0.000186218)
(-0.00136214 -0.000606528 0.00018558)
(-0.00141885 -0.000623644 0.000182499)
(-0.00147642 -0.000643502 0.000177964)
(-0.00153411 -0.000664762 0.000171924)
(-0.00159232 -0.000687042 0.000164246)
(-0.00165032 -0.000709711 0.000154345)
(-0.00170781 -0.000732359 0.00014129)
(-0.00176359 -0.000754232 0.000123485)
(-0.0018156 -0.000774264 9.89165e-05)
(-0.00185874 -0.000790966 6.48749e-05)
(-0.00188328 -0.000801094 2.23783e-05)
(-0.000355569 -0.000120184 -1.96706e-05)
(-0.000310392 -0.000136736 -5.52913e-05)
(-0.000261699 -0.000146825 -4.56245e-05)
(-0.000289168 -0.000191596 -3.59403e-05)
(-0.0003851 -0.000268908 -2.08678e-05)
(-0.000502544 -0.000344645 2.63896e-06)
(-0.000636906 -0.000412445 3.37108e-05)
(-0.000772663 -0.00046262 6.86071e-05)
(-0.0009069 -0.00049777 0.000102595)
(-0.00102222 -0.000515746 0.000130076)
(-0.00112219 -0.000526562 0.000149619)
(-0.00120738 -0.000535738 0.000161563)
(-0.00127901 -0.000545707 0.00016736)
(-0.00134332 -0.000558393 0.000169109)
(-0.00140488 -0.000574135 0.000168303)
(-0.00146316 -0.000591219 0.000165365)
(-0.00152137 -0.000609922 0.000160809)
(-0.00157951 -0.000629625 0.0001545)
(-0.00163765 -0.000649999 0.000145955)
(-0.00169478 -0.000670318 0.000134179)
(-0.00174995 -0.000689944 0.000117641)
(-0.00180137 -0.00070794 9.44316e-05)
(-0.00184401 -0.000722955 6.202e-05)
(-0.00186794 -0.000731991 2.14076e-05)
(-0.000271202 -7.76125e-05 -1.02647e-05)
(-0.000256828 -0.000102919 -5.0903e-05)
(-0.000210084 -0.000108946 -4.50274e-05)
(-0.000222988 -0.000141814 -3.97616e-05)
(-0.000297127 -0.000203771 -3.23285e-05)
(-0.000418604 -0.000283303 -1.8151e-05)
(-0.000556089 -0.000354938 6.08357e-06)
(-0.000702857 -0.000412769 3.77538e-05)
(-0.000837353 -0.000447696 7.06187e-05)
(-0.000965422 -0.000470303 0.00010029)
(-0.00107484 -0.000482298 0.000122978)
(-0.00116574 -0.00049 0.00013809)
(-0.00124478 -0.000498914 0.000147215)
(-0.00131381 -0.000509592 0.000151702)
(-0.00137598 -0.000522065 0.000152886)
(-0.00143773 -0.000537379 0.000152065)
(-0.00149781 -0.000554009 0.000149293)
(-0.00155705 -0.000571598 0.000144585)
(-0.0016147 -0.000589483 0.000137424)
(-0.00167102 -0.000607406 0.000126958)
(-0.00172518 -0.000624756 0.000111707)
(-0.00177561 -0.000640679 8.98683e-05)
(-0.00181738 -0.000653963 5.91141e-05)
(-0.00184052 -0.000661912 2.04222e-05)
(-0.000191706 -4.65294e-05 -3.19705e-08)
(-0.000197529 -7.14966e-05 -4.71122e-05)
(-0.000155255 -7.59486e-05 -4.20183e-05)
(-0.00013455 -8.33088e-05 -3.3343e-05)
(-0.000215935 -0.000146998 -3.91909e-05)
(-0.000321784 -0.000218053 -3.488e-05)
(-0.000460948 -0.00029365 -1.93787e-05)
(-0.000607483 -0.000353496 6.71335e-06)
(-0.000761711 -0.000399899 3.8428e-05)
(-0.000894836 -0.000423778 6.89991e-05)
(-0.00101216 -0.000436668 9.44981e-05)
(-0.0011134 -0.000444988 0.000113375)
(-0.00119687 -0.000451592 0.000125679)
(-0.00127022 -0.000460001 0.000133093)
(-0.00133884 -0.000471276 0.000137127)
(-0.00140079 -0.000483505 0.000138236)
(-0.00146083 -0.000497334 0.000137199)
(-0.00151922 -0.000512147 0.000134043)
(-0.00157659 -0.000527722 0.000128408)
(-0.00163191 -0.000543327 0.000119338)
(-0.00168474 -0.000558449 0.000105438)
(-0.00173391 -0.00057236 8.50439e-05)
(-0.00177465 -0.000583978 5.6045e-05)
(-0.00179682 -0.000590865 1.93839e-05)
(-7.76383e-05 -1.53823e-05 8.16162e-06)
(-0.000116704 -3.77821e-05 -3.67358e-05)
(-9.81076e-05 -4.57814e-05 -3.72992e-05)
(-6.11123e-05 -3.81906e-05 -2.25338e-05)
(-7.46638e-05 -5.22878e-05 -2.14305e-05)
(-0.000212009 -0.000146836 -4.14968e-05)
(-0.00035077 -0.000225883 -3.91262e-05)
(-0.000513477 -0.000299046 -2.20403e-05)
(-0.000661373 -0.000344182 6.25463e-06)
(-0.000809874 -0.000375867 3.72173e-05)
(-0.000938113 -0.000391796 6.5187e-05)
(-0.00104417 -0.00039901 8.71475e-05)
(-0.00113665 -0.000405274 0.000103147)
(-0.00121555 -0.000411877 0.00011376)
(-0.00128348 -0.000419439 0.000120087)
(-0.00134972 -0.000429992 0.000123709)
(-0.00141201 -0.00044182 0.000124768)
(-0.00147172 -0.00045464 0.000123464)
(-0.00152791 -0.00046774 0.000119356)
(-0.0015817 -0.000481021 0.000111694)
(-0.00163278 -0.000493968 9.91482e-05)
(-0.00168025 -0.000505896 8.01904e-05)
(-0.00171954 -0.000515852 5.29539e-05)
(-0.00174056 -0.000521732 1.83408e-05)
(-8.85056e-06 4.66631e-07 1.03124e-05)
(-2.55191e-05 -7.23772e-06 -1.22114e-05)
(-3.24315e-05 -1.52785e-05 -2.10104e-05)
(-5.02084e-05 -3.54013e-05 -3.10401e-05)
(-4.9942e-05 -3.94615e-05 -2.29424e-05)
(-0.000100951 -7.40702e-05 -3.17417e-05)
(-0.000236975 -0.000154433 -4.86282e-05)
(-0.000384936 -0.000226415 -4.42527e-05)
(-0.000562526 -0.000292714 -2.29173e-05)
(-0.000712429 -0.000326846 6.40124e-06)
(-0.000847401 -0.000345506 3.56107e-05)
(-0.00096574 -0.000355434 6.06585e-05)
(-0.00106162 -0.000359858 7.97125e-05)
(-0.00114452 -0.000364434 9.34021e-05)
(-0.00122111 -0.000371442 0.00010299)
(-0.00128664 -0.000378777 0.000108783)
(-0.00134806 -0.000387724 0.000111776)
(-0.00140578 -0.000397685 0.00011216)
(-0.00146125 -0.000408639 0.000109733)
(-0.00151336 -0.000419786 0.000103567)
(-0.00156234 -0.000430697 9.2442e-05)
(-0.00160787 -0.00044079 7.50059e-05)
(-0.00164558 -0.000449224 4.96542e-05)
(-0.00166525 -0.000454161 1.72288e-05)
(6.45865e-06 6.21152e-06 1.51334e-05)
(4.45602e-06 5.46748e-07 -7.35009e-06)
(-4.42265e-06 -8.00287e-06 -2.04381e-05)
(-1.70444e-05 -2.31074e-05 -2.77615e-05)
(-3.49736e-05 -3.75693e-05 -3.00875e-05)
(-4.41607e-05 -3.66947e-05 -2.3241e-05)
(-0.00013267 -9.01341e-05 -4.48121e-05)
(-0.000280612 -0.000165789 -5.7396e-05)
(-0.000431312 -0.000225795 -4.54332e-05)
(-0.000601673 -0.000275329 -2.1133e-05)
(-0.000747917 -0.000300474 7.47594e-06)
(-0.000868155 -0.000310713 3.40423e-05)
(-0.000974277 -0.000316649 5.60601e-05)
(-0.00106347 -0.000320456 7.28263e-05)
(-0.00113671 -0.000323619 8.46822e-05)
(-0.00120757 -0.000329774 9.32209e-05)
(-0.00127171 -0.000337055 9.85351e-05)
(-0.00133135 -0.000345426 0.000101002)
(-0.00138486 -0.000354114 0.000100214)
(-0.00143463 -0.0003632 9.55267e-05)
(-0.00148107 -0.000372225 8.58004e-05)
(-0.00152415 -0.000380588 6.98523e-05)
(-0.0015598 -0.000387557 4.63658e-05)
(-0.00157798 -0.000391649 1.61233e-05)
(1.2776e-05 1.1232e-05 2.15392e-05)
(2.38596e-05 7.34412e-06 -7.55339e-06)
(2.86339e-05 -2.64055e-07 -1.93202e-05)
(1.2356e-05 -9.45852e-06 -1.59369e-05)
(-7.74818e-07 -2.49746e-05 -2.44774e-05)
(-2.90938e-05 -3.36944e-05 -2.93225e-05)
(-6.85618e-05 -5.23337e-05 -3.77399e-05)
(-8.17187e-05 -4.89862e-05 -2.58524e-05)
(-0.000322156 -0.000168365 -5.92241e-05)
(-0.000480622 -0.00022068 -4.31038e-05)
(-0.000631226 -0.000252515 -1.75441e-05)
(-0.000765667 -0.000269403 9.04159e-06)
(-0.000872473 -0.000274999 3.26777e-05)
(-0.000964049 -0.000277813 5.18148e-05)
(-0.00104898 -0.000281959 6.68354e-05)
(-0.00111731 -0.000285138 7.75243e-05)
(-0.00117934 -0.000289797 8.48256e-05)
(-0.00123507 -0.00029541 8.89944e-05)
(-0.00128732 -0.000302339 8.9983e-05)
(-0.00133467 -0.000309682 8.68532e-05)
(-0.00137816 -0.000317051 7.85919e-05)
(-0.00141859 -0.000323922 6.42391e-05)
(-0.00145216 -0.000329649 4.2783e-05)
(-0.00146862 -0.000332988 1.49178e-05)
(2.30001e-05 1.3243e-05 2.35915e-05)
(3.61909e-05 9.76489e-06 -8.91852e-06)
(3.92711e-05 2.59288e-06 -1.47836e-05)
(2.96508e-05 -6.39886e-06 -1.29396e-05)
(2.28226e-05 -1.57382e-05 -1.33899e-05)
(3.86693e-06 -2.58039e-05 -1.83808e-05)
(-2.03299e-05 -1.95763e-05 -1.69818e-05)
(-5.22871e-05 -3.28267e-05 -2.46008e-05)
(-0.000144211 -7.45853e-05 -3.99874e-05)
(-0.000353948 -0.000162816 -5.53132e-05)
(-0.000512325 -0.000205894 -3.76798e-05)
(-0.000642211 -0.000225173 -1.32589e-05)
(-0.000760297 -0.000235655 1.0649e-05)
(-0.000858525 -0.000239912 3.15519e-05)
(-0.000934941 -0.000240528 4.81909e-05)
(-0.0010099 -0.000243768 6.14401e-05)
(-0.00107496 -0.000247547 7.10371e-05)
(-0.00113384 -0.000252415 7.74219e-05)
(-0.00118323 -0.00025756 8.00839e-05)
(-0.00122732 -0.000263319 7.84447e-05)
(-0.00126745 -0.000269272 7.15893e-05)
(-0.00130467 -0.000274824 5.87569e-05)
(-0.00133554 -0.000279412 3.92691e-05)
(-0.00135022 -0.000282126 1.37378e-05)
(3.33372e-05 1.43018e-05 2.54222e-05)
(7.38669e-05 1.63036e-05 -1.374e-05)
(8.20486e-05 6.10888e-06 -2.31754e-05)
(6.12175e-05 -7.22103e-06 -1.9345e-05)
(6.16241e-05 -2.35729e-05 -1.96555e-05)
(2.72989e-05 -2.38512e-05 -7.87421e-06)
(1.57943e-06 -2.5361e-05 -9.90654e-06)
(-4.31711e-05 -3.04377e-05 -2.77283e-05)
(-0.000107547 -5.68346e-05 -4.30257e-05)
(-0.000206053 -9.52583e-05 -4.87311e-05)
(-0.000375107 -0.000152972 -4.85846e-05)
(-0.000523057 -0.000185129 -3.13305e-05)
(-0.000636125 -0.000197168 -9.04301e-06)
(-0.000733126 -0.000202279 1.22112e-05)
(-0.000825843 -0.000206862 3.08761e-05)
(-0.000894696 -0.000207825 4.5743e-05)
(-0.00095569 -0.000209737 5.70545e-05)
(-0.00100727 -0.00021217 6.48833e-05)
(-0.00105464 -0.000216225 6.92704e-05)
(-0.00109551 -0.000220859 6.91591e-05)
(-0.00113179 -0.000225699 6.37652e-05)
(-0.00116566 -0.000230248 5.25991e-05)
(-0.00119397 -0.000233995 3.53141e-05)
(-0.00120659 -0.000236179 1.24029e-05)
(3.95929e-05 1.46694e-05 2.7285e-05)
(9.1999e-05 1.91181e-05 -1.26228e-05)
(0.000111944 9.8293e-06 -2.71954e-05)
(0.000112041 -7.0494e-06 -3.21754e-05)
(8.36915e-05 -2.2421e-05 -2.43165e-05)
(5.90769e-05 -3.28292e-05 -1.38789e-05)
(2.52554e-05 -2.89332e-05 -2.4901e-06)
(-6.32611e-06 -1.97636e-05 -4.99114e-06)
(-4.04214e-05 -2.29786e-05 -2.0305e-05)
(-8.31788e-05 -3.90126e-05 -2.81181e-05)
(-0.000244857 -0.000102352 -4.91853e-05)
(-0.000378373 -0.000137495 -4.13279e-05)
(-0.000506329 -0.000159743 -2.47783e-05)
(-0.000610696 -0.000169736 -4.89788e-06)
(-0.000684921 -0.000171031 1.38975e-05)
(-0.00076247 -0.000174433 3.0296e-05)
(-0.000826564 -0.00017692 4.33562e-05)
(-0.000883819 -0.000180143 5.32895e-05)
(-0.000927182 -0.000183176 5.92026e-05)
(-0.000963716 -0.000186874 6.04721e-05)
(-0.00099588 -0.000190908 5.64256e-05)
(-0.0010258 -0.000194647 4.67796e-05)
(-0.0010508 -0.00019766 3.15501e-05)
(-0.0010615 -0.000199466 1.11347e-05)
(4.51669e-05 1.49184e-05 2.98447e-05)
(0.000102377 2.15044e-05 -1.0474e-05)
(0.000128808 1.4989e-05 -2.8203e-05)
(0.000133715 -1.37412e-06 -3.62462e-05)
(0.000121176 -2.11013e-05 -3.50404e-05)
(8.33538e-05 -3.27316e-05 -2.23564e-05)
(2.96596e-05 -2.15488e-05 -4.76952e-06)
(1.17682e-05 -1.83984e-05 1.96556e-06)
(-1.75492e-05 -2.27256e-05 -8.28198e-06)
(-4.68479e-05 -2.36653e-05 -2.08809e-05)
(-0.000124993 -5.33084e-05 -3.60529e-05)
(-0.000261358 -9.65021e-05 -4.54129e-05)
(-0.000371233 -0.000121173 -3.5315e-05)
(-0.000466455 -0.000133825 -1.83841e-05)
(-0.000566082 -0.000144205 -6.08285e-07)
(-0.000630482 -0.00014601 1.61449e-05)
(-0.000687088 -0.000147721 3.00475e-05)
(-0.000730644 -0.000148766 4.06408e-05)
(-0.000771222 -0.000151694 4.79203e-05)
(-0.000803779 -0.000155035 5.04971e-05)
(-0.000831153 -0.00015855 4.78169e-05)
(-0.000857118 -0.000161825 3.99061e-05)
(-0.000879218 -0.000164455 2.70879e-05)
(-0.000887508 -0.000165911 9.61241e-06)
(4.78694e-05 1.47719e-05 3.23888e-05)
(0.000101319 2.19024e-05 -7.41319e-06)
(0.000130135 1.90409e-05 -2.66007e-05)
(0.000142825 6.00086e-06 -3.77671e-05)
(0.000136898 -1.33916e-05 -4.00233e-05)
(0.000116599 -3.18434e-05 -3.40066e-05)
(7.24768e-05 -3.71455e-05 -1.77324e-05)
(2.50444e-05 -2.28262e-05 -2.2037e-06)
(1.05504e-05 -2.81491e-05 3.96323e-06)
(-2.14243e-05 -1.68771e-05 -9.27113e-06)
(-5.83085e-05 -2.62912e-05 -2.35776e-05)
(-7.51737e-05 -2.88937e-05 -1.99165e-05)
(-0.000234687 -8.0347e-05 -3.68942e-05)
(-0.000341788 -0.000102972 -2.79725e-05)
(-0.000403234 -0.000108417 -1.19663e-05)
(-0.000481791 -0.0001166 3.60986e-06)
(-0.000542704 -0.000121323 1.77743e-05)
(-0.000597908 -0.000125739 2.9889e-05)
(-0.000632469 -0.000128383 3.81758e-05)
(-0.0006595 -0.000131383 4.18104e-05)
(-0.000682278 -0.000134692 4.03052e-05)
(-0.000703703 -0.000137598 3.38505e-05)
(-0.000721932 -0.000139869 2.31134e-05)
(-0.000728505 -0.000141128 8.26097e-06)
(4.96362e-05 1.4416e-05 3.54856e-05)
(9.61875e-05 2.12713e-05 -4.31318e-06)
(0.000124766 2.08743e-05 -2.34096e-05)
(0.00013782 1.15599e-05 -3.51861e-05)
(0.00013971 -4.65083e-06 -4.06538e-05)
(0.000127323 -2.32583e-05 -3.82125e-05)
(0.000106514 -3.89253e-05 -2.97766e-05)
(6.02292e-05 -3.71037e-05 -1.26344e-05)
(4.58919e-05 -4.73181e-05 -1.27531e-06)
(5.38214e-06 -2.64705e-05 4.24249e-08)
(-3.50121e-05 -2.26692e-05 -2.08896e-05)
(-5.70224e-05 -2.60677e-05 -2.30184e-05)
(-8.2174e-05 -3.05344e-05 -1.99979e-05)
(-0.000190317 -6.04836e-05 -2.66406e-05)
(-0.000298621 -8.49211e-05 -2.08268e-05)
(-0.000350432 -9.06804e-05 -6.41756e-06)
(-0.000394844 -9.49893e-05 6.8544e-06)
(-0.000423848 -9.64303e-05 1.79548e-05)
(-0.000456574 -0.000100356 2.66545e-05)
(-0.000479291 -0.000103516 3.09676e-05)
(-0.000496388 -0.000106783 3.05701e-05)
(-0.000513332 -0.000109415 2.59302e-05)
(-0.00052866 -0.000111716 1.78889e-05)
(-0.000532621 -0.000112599 6.43871e-06)
(4.96581e-05 1.42215e-05 3.89021e-05)
(8.81455e-05 2.0556e-05 -1.91767e-06)
(0.00011543 2.17138e-05 -2.01786e-05)
(0.000128439 1.47706e-05 -3.14376e-05)
(0.000131715 2.1508e-06 -3.75844e-05)
(0.000128024 -1.42987e-05 -3.86191e-05)
(0.000113595 -3.02748e-05 -3.32543e-05)
(9.65224e-05 -4.2831e-05 -2.53317e-05)
(5.23033e-05 -3.60077e-05 -1.11892e-05)
(2.38327e-05 -2.95601e-05 -3.97816e-06)
(-1.44417e-06 -1.70981e-05 -7.07367e-06)
(-2.07104e-05 -1.26157e-05 -1.37083e-05)
(-6.10501e-05 -2.59373e-05 -2.40714e-05)
(-0.000121277 -4.40225e-05 -2.83939e-05)
(-8.93676e-05 -2.71225e-05 -1.14822e-05)
(-0.000194983 -5.52837e-05 -1.11467e-05)
(-0.000257023 -6.73417e-05 -1.23117e-06)
(-0.00030934 -7.66479e-05 9.61703e-06)
(-0.000329875 -8.00848e-05 1.82435e-05)
(-0.000347691 -8.36246e-05 2.30648e-05)
(-0.000358539 -8.62546e-05 2.34899e-05)
(-0.000372674 -8.885e-05 2.01267e-05)
(-0.000383444 -9.09214e-05 1.3974e-05)
(-0.000387173 -9.21447e-05 5.07801e-06)
(4.8119e-05 1.51665e-05 4.2928e-05)
(7.88071e-05 2.07731e-05 -8.57655e-07)
(0.000101959 2.21432e-05 -1.73916e-05)
(0.000113297 1.66023e-05 -2.6747e-05)
(0.000117942 6.40221e-06 -3.25396e-05)
(0.00011746 -7.02629e-06 -3.48424e-05)
(0.000113593 -2.25891e-05 -3.33858e-05)
(0.000101686 -3.53415e-05 -2.77197e-05)
(8.99111e-05 -4.51687e-05 -2.25286e-05)
(4.42507e-05 -3.26752e-05 -1.10085e-05)
(1.50605e-05 -2.01811e-05 -6.99816e-06)
(-5.40626e-06 -1.40471e-05 -1.35583e-05)
(-3.94431e-05 -2.25508e-05 -2.98339e-05)
(-3.77966e-05 -1.69876e-05 -1.60017e-05)
(-9.72658e-05 -3.73911e-05 -2.33333e-05)
(-6.41165e-05 -2.20823e-05 -7.82765e-06)
(-7.3083e-05 -2.21757e-05 -3.04425e-06)
(-7.95602e-05 -2.2506e-05 9.50848e-07)
(-0.000131342 -3.59971e-05 6.34123e-06)
(-0.000136636 -3.92261e-05 9.27025e-06)
(-0.000153133 -4.2626e-05 1.07928e-05)
(-0.000154411 -4.37334e-05 8.96961e-06)
(-0.000164643 -4.63842e-05 6.52643e-06)
(-0.000160363 -4.68275e-05 2.30208e-06)
(4.42867e-05 1.72101e-05 4.67157e-05)
(6.48563e-05 2.05877e-05 -7.83298e-07)
(8.22638e-05 2.12618e-05 -1.42323e-05)
(9.15684e-05 1.66547e-05 -2.08124e-05)
(9.6918e-05 8.63626e-06 -2.52456e-05)
(0.00010002 -2.41866e-06 -2.81516e-05)
(0.000101191 -1.59718e-05 -2.85233e-05)
(0.00010253 -2.97914e-05 -2.72479e-05)
(9.43446e-05 -3.83645e-05 -2.39901e-05)
(8.33441e-05 -4.52296e-05 -2.26811e-05)
(3.89461e-05 -3.08328e-05 -1.45696e-05)
(1.13785e-05 -1.82688e-05 -1.31297e-05)
(-8.03248e-06 -1.54713e-05 -2.27418e-05)
(-3.14576e-05 -1.94194e-05 -3.04921e-05)
(-2.84777e-05 -1.48054e-05 -1.4592e-05)
(-5.96107e-05 -2.65066e-05 -1.60183e-05)
(-9.13602e-05 -3.79843e-05 -1.1743e-05)
(-5.19967e-05 -1.98562e-05 -1.59011e-06)
(-0.000113795 -4.27135e-05 3.56064e-06)
(-9.52167e-05 -3.64298e-05 6.45185e-06)
(-0.000124649 -4.90076e-05 9.36851e-06)
(-5.88939e-05 -2.36925e-05 3.79455e-06)
(-6.02595e-05 -2.41188e-05 2.75448e-06)
(-0.000111 -4.42929e-05 1.93232e-06)
(3.81395e-05 1.95872e-05 4.89664e-05)
(5.15635e-05 2.05661e-05 -1.31453e-06)
(6.05906e-05 1.8984e-05 -1.12594e-05)
(6.566e-05 1.44361e-05 -1.46426e-05)
(7.05456e-05 8.22195e-06 -1.71045e-05)
(7.60057e-05 -6.79062e-07 -1.94051e-05)
(8.34959e-05 -1.23644e-05 -2.11103e-05)
(9.07925e-05 -2.42291e-05 -2.18585e-05)
(9.68235e-05 -3.46028e-05 -2.30337e-05)
(8.85159e-05 -3.94127e-05 -2.30118e-05)
(7.48376e-05 -4.30564e-05 -2.52489e-05)
(3.35787e-05 -2.82433e-05 -1.99664e-05)
(1.00678e-05 -1.69957e-05 -2.04136e-05)
(-3.49461e-06 -1.06539e-05 -2.08281e-05)
(-1.05126e-05 -8.96902e-06 -1.66285e-05)
(-2.02026e-05 -1.30119e-05 -1.5621e-05)
(-3.67802e-05 -2.22718e-05 -1.44791e-05)
(-5.54062e-05 -3.08892e-05 -9.42358e-06)
(-2.93887e-05 -1.72163e-05 -7.0358e-07)
(-6.3756e-05 -3.51053e-05 3.74629e-06)
(-3.03275e-05 -1.85171e-05 2.46383e-06)
(-5.73979e-05 -3.48118e-05 4.4159e-06)
(-5.59304e-05 -3.41061e-05 3.27648e-06)
(-7.15272e-05 -4.18517e-05 1.76342e-06)
(3.06175e-05 2.1554e-05 4.89726e-05)
(4.02269e-05 2.07335e-05 -2.3058e-06)
(4.33472e-05 1.66553e-05 -9.77303e-06)
(4.40882e-05 1.13284e-05 -1.06825e-05)
(4.6386e-05 5.72978e-06 -1.1102e-05)
(5.29353e-05 -1.84923e-06 -1.21357e-05)
(6.37544e-05 -1.18205e-05 -1.33925e-05)
(7.75853e-05 -2.19227e-05 -1.54699e-05)
(8.66667e-05 -2.99003e-05 -1.79753e-05)
(9.15363e-05 -3.69055e-05 -2.15795e-05)
(8.16731e-05 -3.9128e-05 -2.45424e-05)
(6.62288e-05 -4.02484e-05 -3.04087e-05)
(3.1244e-05 -2.67205e-05 -2.79302e-05)
(1.17349e-05 -1.70494e-05 -2.81622e-05)
(1.29739e-06 -1.8632e-05 -4.2243e-05)
(-4.34097e-06 -8.89042e-06 -1.96347e-05)
(-6.68895e-06 -9.61313e-06 -1.49624e-05)
(-1.36395e-05 -1.64143e-05 -1.36381e-05)
(-1.81537e-05 -2.22761e-05 -8.85025e-06)
(-9.6994e-06 -1.30066e-05 -1.65374e-06)
(-1.97231e-05 -2.93103e-05 -4.03215e-07)
(-1.36918e-05 -1.96832e-05 3.4875e-07)
(-1.91754e-05 -2.67332e-05 9.83192e-07)
(-2.17656e-05 -3.22931e-05 5.79936e-07)
(2.30046e-05 2.2615e-05 4.63029e-05)
(3.04601e-05 2.04612e-05 -3.86388e-06)
(3.15249e-05 1.47675e-05 -9.83188e-06)
(3.1563e-05 8.92829e-06 -9.85668e-06)
(3.27856e-05 2.6287e-06 -9.15013e-06)
(3.9519e-05 -5.55047e-06 -8.7857e-06)
(5.20253e-05 -1.51018e-05 -8.73787e-06)
(6.54802e-05 -2.29489e-05 -9.89869e-06)
(7.81801e-05 -2.92657e-05 -1.31649e-05)
(8.34059e-05 -3.36193e-05 -1.70988e-05)
(8.48604e-05 -3.78208e-05 -2.25654e-05)
(7.49233e-05 -3.84016e-05 -2.88594e-05)
(6.04086e-05 -3.79229e-05 -3.84917e-05)
(3.43857e-05 -2.81841e-05 -4.00821e-05)
(1.31494e-05 -1.62236e-05 -3.00095e-05)
(1.13962e-05 -2.3885e-05 -5.3945e-05)