/*--------------------------------*- C++ -*----------------------------------*\
  =========                 |
  \\      /  F ield         | OpenFOAM: The Open Source CFD Toolbox
   \\    /   O peration     | Website:  https://openfoam.org
    \\  /    A nd           | Version:  6
     \\/     M anipulation  |
\*---------------------------------------------------------------------------*/
FoamFile
{
    version     2.0;
    format      ascii;
    class       volScalarField;
    location    "27";
    object      yPlus;
}
// * * * * * * * * * * * * * * * * * * * * * * * * * * * * * * * * * * * * * //

dimensions      [0 0 0 0 0 0 0];

internalField   uniform 0;

boundaryField
{
    inlet
    {
        type            calculated;
        value           uniform 0;
    }
    outlet
    {
        type            calculated;
        value           uniform 0;
    }
    roughCylinder
    {
        type            calculated;
        value           nonuniform List<scalar> 
5120
(
43.5299
51.3509
57.5816
63.7101
69.0009
73.2926
76.7313
79.5107
81.7858
83.6914
85.3473
86.83
88.177
89.422
90.596
91.7295
92.8533
93.9953
95.1792
96.4222
97.7338
99.1162
100.567
102.077
103.639
105.238
106.859
108.478
110.058
111.528
112.741
113.454
42.827
50.3614
56.3914
62.3782
67.5942
71.8496
75.269
78.0396
80.3144
82.2266
83.8913
85.3778
86.7162
87.9472
89.1032
90.2155
91.3157
92.4327
93.5909
94.8067
96.0894
97.4417
98.8601
100.338
101.864
103.427
105.01
106.592
108.134
109.568
110.75
111.444
42.03
49.3186
55.1629
61.0114
66.1556
70.3809
73.7904
76.5628
78.8484
80.7763
82.4545
83.9459
85.2807
86.5013
87.641
88.7336
89.812
90.9055
92.0378
93.2265
94.4812
95.8037
97.1908
98.6356
100.128
101.655
103.201
104.745
106.249
107.647
108.799
109.474
41.231
48.2821
53.9377
59.6414
64.7097
68.9051
72.3068
75.0855
77.3895
79.3418
81.0398
82.5409
83.8774
85.0883
86.2149
87.2906
88.3486
89.4195
90.5286
91.6923
92.9197
94.2134
95.5702
96.9825
98.4406
99.9316
101.441
102.947
104.414
105.777
106.899
107.554
40.3563
47.1871
52.6551
58.2128
63.2101
67.388
70.7993
73.6022
75.9387
77.9229
79.6439
81.1573
82.4991
83.7086
84.8257
85.8866
86.9272
87.9787
89.0647
90.2036
91.4054
92.6716
93.999
95.3801
96.806
98.263
99.7359
101.205
102.636
103.963
105.057
105.693
39.5025
46.1095
51.3813
56.7842
61.707
65.8692
69.2922
72.1195
74.4891
76.5088
78.2589
79.792
81.1461
82.3585
83.4696
84.5201
85.5456
86.5781
87.6452
88.7628
89.94
91.1798
92.479
93.8298
95.2227
96.645
98.0832
99.5162
100.911
102.204
103.268
103.886
38.5588
44.9524
50.0219
55.2629
60.1129
64.2735
67.7316
70.6098
73.0337
75.0999
76.8838
78.4395
79.808
81.0313
82.1449
83.1892
84.2037
85.2229
86.2705
87.3664
88.5211
89.7361
91.0082
92.3299
93.6919
95.0821
96.4858
97.8832
99.2421
100.503
101.539
102.138
37.6435
43.8163
48.673
53.7412
58.5144
62.6772
66.1734
69.0974
71.5672
73.6788
75.503
77.0912
78.4868
79.7254
80.8471
81.8906
82.8984
83.9044
84.9385
86.0179
87.1514
88.3427
89.5886
90.8822
92.2123
93.569
94.9378
96.3009
97.6259
98.8521
99.86
100.441
36.6036
42.561
47.191
52.0687
56.757
60.9313
64.4929
67.5027
70.0595
72.2426
74.1192
75.7465
77.1682
78.43
79.5667
80.6193
81.626
82.6279
83.6482
84.7095
85.8241
86.9936
88.2148
89.4804
90.7824
92.1082
93.4434
94.7714
96.0608
97.2564
98.2373
98.7983
35.5814
41.314
45.7085
50.3816
54.978
59.171
62.8082
65.8992
68.5233
70.7684
72.7037
74.3804
75.8489
77.1422
78.3019
79.3655
80.3791
81.3776
82.3918
83.4434
84.541
85.6895
86.8865
88.1257
89.3962
90.6882
91.9885
93.2816
94.5382
95.699
96.6524
97.1945
34.3612
39.8783
44.019
48.4572
52.9362
57.1427
60.8791
64.1075
66.8766
69.2412
71.262
73.0058
74.5177
75.851
77.0389
78.126
79.1498
80.1553
81.1644
82.2028
83.286
84.416
85.5903
86.8018
88.0441
89.3053
90.5734
91.832
93.0519
94.1839
95.1096
95.6313
33.1054
38.4123
42.2892
46.4705
50.814
55.0425
58.9087
62.2852
65.1668
67.6289
69.7465
71.5673
73.1553
74.5411
75.7733
76.887
77.9327
78.9434
79.9553
80.9929
82.0641
83.1761
84.3278
85.5145
86.7253
87.952
89.1828
90.4052
91.5942
92.6895
93.5883
94.0897
31.5574
36.6624
40.248
44.1268
48.287
52.5042
56.4964
60.0873
63.2271
65.9048
68.1644
70.1004
71.7587
73.2127
74.4916
75.6468
76.7149
77.747
78.7635
79.7923
80.8539
81.9513
83.083
84.2425
85.4252
86.6213
87.8203
89.0095
90.1587
91.2274
92.098
92.5774
29.8789
34.7969
38.0803
41.6067
45.5184
49.7105
53.9083
57.7749
61.1136
63.9663
66.4162
68.4898
70.2829
71.8196
73.1725
74.3773
75.4903
76.5395
77.5694
78.6093
79.6656
80.7486
81.8591
82.9949
84.1459
85.3058
86.4645
87.6142
88.7343
89.7618
90.6059
91.0632
27.6791
32.4318
35.3891
38.5179
42.1346
46.2381
50.526
54.7142
58.5675
61.8498
64.5452
66.8235
68.7266
70.3837
71.8167
73.0892
74.2381
75.3281
76.3767
77.4126
78.4648
79.5376
80.6312
81.7398
82.8618
83.9897
85.117
86.2348
87.3101
88.3141
89.1274
89.5595
25.0991
29.7672
32.4234
35.0529
38.1351
42.0006
46.653
51.3508
55.5005
59.1287
62.2621
64.8254
67.0084
68.8087
70.362
71.7181
72.9494
74.0733
75.1488
76.2131
77.2692
78.3319
79.4055
80.4905
81.5792
82.6676
83.7494
84.8211
85.8679
86.825
87.6109
88.0171
21.2229
25.8996
28.1774
30.255
32.8629
36.5206
40.8209
46.0717
51.5802
56.1746
59.7662
62.7508
65.1044
67.1314
68.8341
70.3078
71.5926
72.786
73.901
74.9657
76.0238
77.0816
78.1408
79.1985
80.2559
81.31
82.3582
83.399
84.3963
85.3293
86.0812
86.4587
16.1529
21.3077
23.8477
25.4585
27.0359
29.4359
35.2859
40.8745
45.9839
51.4302
56.2244
59.8392
62.8719
65.1833
67.101
68.715
70.1492
71.4028
72.5627
73.6832
74.7589
75.8119
76.8523
77.8839
78.9035
79.9102
80.9053
81.8904
82.8548
83.7364
84.4568
84.7987
6.3607
11.3076
12.1727
12.3438
11.1693
10.2342
10.5303
26.1461
38.9836
46.4002
52.0708
56.8843
60.1715
62.9771
65.2011
67.0464
68.5654
69.9392
71.1753
72.2985
73.3826
74.4373
75.4651
76.4683
77.4531
78.4239
79.3774
80.3339
81.2423
82.0927
82.7754
83.0837
6.54801
5.89908
6.27936
9.80897
11.6133
12.9354
9.50784
11.7185
18.7351
35.7151
45.5402
51.4568
56.781
60.2164
62.8946
64.9964
66.8047
68.2852
69.5919
70.821
71.9466
73.004
74.0135
74.9839
75.9189
76.8204
77.7148
78.5939
79.4591
80.2578
80.899
81.1508
11.1949
15.6115
16.6689
16.4412
15.9232
17.4372
12.8419
8.23475
21.0303
13.4808
34.7072
47.0503
52.0005
56.7817
60.1575
62.783
64.7448
66.4575
67.9196
69.1467
70.2861
71.3549
72.3534
73.2918
74.1888
75.0648
75.885
76.7489
77.5471
78.2919
78.8885
79.1018
19.7707
24.2006
26.0573
26.8057
26.4148
24.9764
22.9628
20.7278
20.8747
14.7121
19.2777
30.0367
45.8746
51.9872
56.5783
59.7341
62.3311
64.2414
65.813
67.259
68.493
69.5781
70.556
71.4459
72.2598
72.9974
73.7763
74.5085
75.2422
75.94
76.4766
76.5776
21.8778
26.8574
29.5584
31.5542
32.728
32.9265
32.0323
29.9052
28.3828
22.8174
22.6034
22.6801
31.1473
45.3959
51.7541
56.3228
59.2126
61.6543
63.586
64.9924
66.2353
67.3478
68.3191
69.1661
69.9468
70.7257
71.3071
72.0699
72.714
73.3219
73.7883
73.86
22.681
27.7544
30.6618
33.006
34.7529
35.8829
36.3423
35.951
34.165
30.4661
25.8935
28.4982
32.1974
34.4444
45.2191
50.814
55.4079
58.2052
60.2904
62.2178
63.6997
64.8627
65.8031
66.5599
67.1588
67.576
68.2335
68.742
69.2638
69.8055
70.1808
69.9684
22.2034
27.4138
30.4775
33.0289
35.0244
36.4492
37.2959
37.5323
36.999
35.1434
30.8997
29.8125
29.9817
14.8777
33.6355
44.6468
49.5676
53.9549
57.0083
58.6974
60.1114
61.3334
62.277
62.9584
63.5587
64.295
64.3396
64.9908
65.3845
65.8392
66.0405
65.8952
20.834
26.1784
29.3397
32.0296
34.2142
35.8872
37.0615
37.7603
37.9898
37.6154
35.9468
32.1042
28.591
14.1616
9.16155
31.0501
43.239
47.5559
50.6787
53.8519
56.0012
57.3551
58.2412
58.6894
58.7835
58.4289
58.9785
59.1537
59.201
59.3879
59.4033
58.3668
18.9636
24.4038
27.5981
30.3448
32.6299
34.4621
35.8648
36.8865
37.5928
38.0302
38.0888
36.9874
33.9877
25.9812
15.833
6.48288
24.9817
39.6551
45.8828
47.6228
49.0243
50.5702
51.4607
51.8271
51.9865
53.1969
51.7676
52.0618
51.9918
52.7534
52.0864
52.2744
16.7999
22.2293
25.3578
28.0611
30.3542
32.2709
33.8508
35.1497
36.2471
37.2201
38.0894
38.7157
38.5052
35.6774
29.9268
12.6323
22.9089
24.041
31.605
37.2231
42.0933
43.6301
44.8795
43.7267
42.3011
40.8177
39.6859
41.1334
39.1771
37.7297
34.7544
30.9765
14.5936
19.876
22.8348
25.3919
27.5961
29.5052
31.1773
32.6771
34.0845
35.4844
36.9155
38.3007
39.3894
39.4322
36.3115
26.664
26.2977
11.0601
10.1589
23.5645
20.1533
28.3687
25.6255
27.5811
21.5952
22.9372
25.3551
16.5022
8.9012
20.453
13.3345
21.7083
12.623
17.6372
20.3493
22.6857
24.7288
26.5562
28.2379
29.8429
31.4427
33.1104
34.8994
36.7794
38.5763
39.8825
39.8182
36.6946
26.6548
23.8052
26.445
32.8671
18.5824
36.7874
23.869
33.5569
32.619
28.9396
35.2321
22.8973
19.0011
28.8769
36.0486
37.1206
11.0787
15.7481
18.192
20.2847
22.1387
23.8461
25.4824
27.112
28.7924
30.5765
32.5154
34.6218
36.8149
38.8272
40.1417
39.9942
36.4957
29.8659
25.7693
28.8788
21.3507
27.3995
29.9647
34.7984
24.024
24.198
38.5644
36.6316
32.8932
31.9599
32.2876
31.8817
9.91296
14.3384
16.5499
18.4329
20.1238
21.72
23.2919
24.8903
26.5555
28.3251
30.2423
32.3474
34.6431
37.0068
39.0988
40.3716
40.0982
37.511
33.2002
31.8194
29.5587
26.812
28.5285
32.0341
36.001
33.929
37.4399
37.5081
39.7979
39.7021
44.0482
37.5886
9.27188
13.5
15.5432
17.2859
18.8752
20.4006
21.916
23.453
25.0352
26.6908
28.4594
30.3936
32.542
34.8982
37.3091
39.3886
40.5659
40.4095
39.1653
39.3115
38.8525
37.8095
37.3117
40.5487
42.6596
41.2999
42.7077
41.2667
43.3679
43.5661
46.0867
42.3434
9.06261
13.1954
15.1606
16.8492
18.4083
19.9117
21.3923
22.8634
24.3366
25.835
27.3963
29.0726
30.9255
33.0079
35.3092
37.6575
39.653
40.8064
41.0609
41.5846
41.5971
41.2762
41.1978
43.0961
43.8431
43.0476
43.3723
42.0725
43.3745
43.8449
45.6062
43.5292
9.21762
13.3348
15.2987
17.0062
18.5937
20.1155
21.5854
23.0045
24.3792
25.7298
27.09
28.5044
30.029
31.7286
33.6581
35.8019
37.9805
39.8246
41.0344
41.9436
42.2717
42.1867
42.1848
43.2535
43.5776
43.0263
42.7133
41.6968
42.4473
42.9297
44.1033
43.1553
9.63445
13.7898
15.8049
17.5827
19.2394
20.8106
22.2959
23.689
24.9947
26.2327
27.4334
28.6335
29.8767
31.217
32.7169
34.4248
36.3164
38.2134
39.8337
41.0972
41.7719
41.9484
41.957
42.3901
42.3927
41.8245
41.1822
40.4001
40.7599
41.199
42.0355
41.7339
10.258
14.4827
16.5754
18.4465
20.1901
21.8244
23.34
24.7291
25.9978
27.1667
28.2632
29.3161
30.3568
31.4231
32.564
33.8334
35.2666
36.823
38.3515
39.6791
40.5545
40.9363
40.9558
40.9916
40.7509
40.112
39.3589
38.7356
38.8771
39.3215
39.995
40.0874
11.0399
15.363
17.547
19.5185
21.3498
23.0469
24.5966
25.9933
27.2478
28.3829
29.4242
30.3936
31.3113
32.2
33.0905
34.0243
35.0431
36.1621
37.3339
38.441
39.2777
39.7211
39.7498
39.57
39.1582
38.4691
37.7326
37.2362
37.2974
37.8047
38.4316
38.7775
11.889
16.3832
18.6673
20.7378
22.6512
24.4058
25.9888
27.4
28.6556
29.7815
30.8024
31.7353
32.5923
33.3844
34.1267
34.8436
35.5665
36.3222
37.1098
37.8762
38.496
38.8439
38.8282
38.5232
38.0005
37.2891
36.6087
36.222
36.3008
36.9104
37.5647
38.0773
12.8966
17.5125
19.8929
22.057
24.0453
25.8518
27.4668
28.8964
30.1632
31.296
32.3191
33.2455
34.0826
34.8335
35.5028
36.101
36.645
37.1549
37.643
38.0924
38.4406
38.5987
38.4722
38.0642
37.4586
36.7336
36.1055
35.8133
35.9642
36.6848
37.4044
38.0279
13.6884
14.1299
14.6282
15.0269
15.4068
15.7065
15.9665
16.1657
16.3231
16.4317
16.5029
16.5344
16.5306
16.4938
16.428
16.3361
16.2219
16.0935
15.9692
15.9019
15.9837
16.1281
16.277
16.4117
16.5243
16.6119
16.6708
16.6995
16.6923
16.6505
16.5684
16.4469
16.2746
16.0584
15.7796
15.457
15.055
14.6362
14.1207
13.6726
18.4425
18.901
19.4201
19.838
20.238
20.5611
20.8456
21.0714
21.2563
21.3939
21.4942
21.5555
21.5804
21.5698
21.5264
21.4522
21.3497
21.2258
21.0986
21.0252
21.1093
21.2576
21.4038
21.5287
21.6252
21.6915
21.7252
21.7255
21.6889
21.6177
21.5067
21.3568
21.158
20.9164
20.6144
20.2706
19.8502
19.4128
18.877
18.4116
20.9106
21.3947
21.9443
22.3889
22.8192
23.1752
23.4966
23.7623
23.9901
24.1732
24.32
24.4292
24.5022
24.5382
24.538
24.5025
24.4334
24.3361
24.2273
24.1621
24.2398
24.3722
24.4945
24.5885
24.6485
24.6735
24.6622
24.6153
24.5315
24.414
24.258
24.0651
23.8263
23.548
23.2123
22.839
22.3906
21.9276
21.3613
20.8686
23.1408
23.6441
24.2174
24.6832
25.14
25.526
25.8818
26.1858
26.4554
26.6834
26.8761
27.0326
27.1533
27.236
27.2799
27.2848
27.2516
27.185
27.1017
27.0529
27.1168
27.2247
27.3178
27.3775
27.3987
27.3807
27.3238
27.2296
27.0991
26.9358
26.7351
26.5002
26.2231
25.9104
25.5444
25.1457
24.6745
24.1932
23.6049
23.092
25.1669
25.6743
26.2561
26.7298
27.2004
27.6039
27.9819
28.3126
28.6126
28.8755
29.1056
29.3005
29.4603
29.5815
29.6623
29.7013
29.6992
29.6604
29.6021
29.5697
29.6192
29.7024
29.7681
29.7975
29.785
29.7304
29.6351
29.5017
29.3325
29.1314
28.8956
28.6296
28.3256
27.9905
27.6066
27.1951
26.7144
26.229
25.6349
25.1182
26.9875
27.4825
28.0586
28.5282
29.0011
29.4121
29.8032
30.1538
30.4784
30.7699
31.0313
31.2589
31.4517
31.6055
31.7177
31.7859
31.8102
31.7954
31.7576
31.7373
31.776
31.8383
31.88
31.8827
31.8409
31.7546
31.6261
31.459
31.2565
31.0228
30.7577
30.4658
30.1412
29.7921
29.3999
28.9861
28.5077
28.0309
27.4457
26.943
28.6037
29.0753
29.6382
30.0981
30.5691
30.9862
31.3901
31.7594
32.1068
32.4244
32.7141
32.9711
33.1933
33.376
33.5156
33.6091
33.6559
33.6604
33.6381
33.6257
33.6568
33.703
33.7249
33.7047
33.6371
33.5226
33.3644
33.1667
32.9337
32.6702
32.3778
32.0612
31.7168
31.3528
30.9537
30.5406
30.0696
29.6075
29.0393
28.5626
30.0335
30.4782
31.0279
31.48
31.9526
32.3786
32.7967
33.185
33.5543
33.8964
34.2119
34.4955
34.7439
34.9519
35.1152
35.23
35.2952
35.3146
35.3032
35.2952
35.3212
35.3558
35.3621
35.3228
35.2329
35.0938
34.909
34.6837
34.4228
34.1318
33.8134
33.4728
33.1082
32.7279
32.3185
31.9019
31.4361
30.9879
30.437
29.9906
31.3078
31.7276
32.2686
32.719
33.1961
33.633
34.0652
34.4716
34.861
35.2251
35.5634
35.8702
36.1411
36.3706
36.5536
36.6857
36.7652
36.7955
36.7908
36.7848
36.8074
36.8341
36.8284
36.7736
36.6652
36.5052
36.2975
36.0482
35.7627
35.447
35.105
34.7423
34.3583
33.9612
33.5397
33.1157
32.6496
32.2103
31.6727
31.2552
32.4587
32.8569
33.3938
33.8444
34.3274
34.7746
35.2197
35.642
36.0487
36.4315
36.789
37.1149
37.4046
37.6514
37.8501
37.9957
38.0859
38.1235
38.1228
38.117
38.1372
38.1584
38.1437
38.0768
37.9536
37.7763
37.5497
37.2799
36.9736
36.6368
36.2743
35.8923
35.4907
35.0782
34.6449
34.2126
33.7434
33.3077
32.7793
32.3873
33.5089
33.8872
34.42
34.8711
35.3585
35.8144
36.2704
36.7058
37.1268
37.5249
37.8979
38.2392
38.5434
38.804
39.0147
39.1704
39.2683
39.3111
39.3123
39.306
39.324
39.341
39.3194
39.2429
39.1078
38.9165
38.6745
38.3882
38.0646
37.7104
37.3308
36.9323
36.5158
36.09
35.6463
35.206
34.7338
34.2995
33.7785
33.4099
34.4684
34.8251
35.3521
35.8022
36.2926
36.7553
37.2198
37.6657
38.098
38.5082
38.8934
39.2468
39.5624
39.8334
40.0533
40.2168
40.3207
40.3675
40.3708
40.364
40.3795
40.3919
40.3639
40.2791
40.1341
39.9316
39.6771
39.3774
39.0397
38.6712
38.2776
37.8654
37.4366
36.9994
36.5468
36.0998
35.625
35.1926
34.6781
34.3333
35.3393
35.6704
36.1892
36.6364
37.1281
37.5959
38.0668
38.5211
38.9624
39.3821
39.7768
40.1395
40.4639
40.7429
40.97
41.1397
41.2489
41.3002
41.3068
41.301
41.3126
41.3187
41.2834
41.1907
41.0371
40.8252
40.5605
40.2498
39.9007
39.5206
39.1152
38.6916
38.2522
37.8054
37.3453
36.8924
36.4155
35.9859
35.4792
35.1606
36.1197
36.4198
36.927
37.3694
37.861
38.3325
38.8088
39.2699
39.7184
40.1459
40.5481
40.9179
41.249
41.5342
41.7671
41.9421
42.0567
42.1134
42.1254
42.1217
42.1282
42.1257
42.0819
41.9812
41.8196
41.5995
41.3262
41.0066
40.6482
40.2583
39.8432
39.4097
38.9612
38.5056
38.0385
37.5803
37.1021
36.6758
36.1795
35.8909
36.8082
37.0696
37.5607
37.9962
38.4865
38.9608
39.4417
39.9088
40.3638
40.7977
41.206
41.5817
41.9181
42.2085
42.4461
42.6262
42.7464
42.8097
42.8284
42.8278
42.8286
42.8158
42.7621
42.6527
42.4833
42.2559
41.9753
41.6481
41.2818
40.8835
40.4598
40.0177
39.5604
39.0966
38.6227
38.1592
37.6799
37.2578
36.7751
36.5234
37.4035
37.6159
38.0845
38.5103
38.9978
39.4747
39.9597
40.4326
40.8935
41.3332
41.7471
42.1279
42.469
42.7637
43.0058
43.1908
43.3169
43.3873
43.4133
43.4158
43.4109
43.3875
43.3231
43.2047
43.0276
42.7932
42.506
42.1722
41.7988
41.3931
40.9615
40.511
40.0453
39.5732
39.0923
38.6233
38.1433
37.7269
37.2617
37.0586
37.9063
38.0542
38.4909
38.9031
39.3858
39.8644
40.3536
40.8322
41.299
41.7446
42.1637
42.5493
42.8948
43.1936
43.44
43.6299
43.762
43.8395
43.8723
43.8773
43.8673
43.8338
43.759
43.6316
43.4471
43.2061
42.9127
42.5728
42.193
41.7803
41.3411
40.8823
40.4081
39.9273
39.439
38.9644
38.4847
38.0754
37.6369
37.5014
38.3162
38.3761
38.7695
39.1624
39.6376
40.1167
40.6098
41.0943
41.5672
42.0189
42.4435
42.834
43.1838
43.4868
43.7376
43.9323
44.0702
44.1542
44.193
44.1999
44.1854
44.1431
44.0588
43.9228
43.7311
43.4839
43.1848
42.8392
42.4532
42.0338
41.5869
41.1197
40.6368
40.147
39.6515
39.1713
38.6935
38.2957
37.8999
37.8604
38.6313
38.5738
38.905
39.2724
39.7358
40.2142
40.7105
41.2011
41.6804
42.1386
42.5691
42.9649
43.3194
43.6268
43.882
44.0817
44.2251
44.315
44.3586
44.3671
44.349
44.2993
44.2065
44.0629
43.8645
43.6115
43.3069
42.9557
42.5638
42.1375
41.6832
41.2075
40.7156
40.217
39.7142
39.2297
38.7559
38.3807
38.052
38.1443
38.8409
38.6375
38.8836
39.2139
39.6616
40.1368
40.6354
41.1315
41.6175
42.0827
42.5196
42.9212
43.2811
43.5934
43.8534
44.058
44.2066
44.3018
44.3496
44.3593
44.3382
44.2826
44.1829
44.0326
43.8283
43.5699
43.2602
42.9037
42.5059
42.073
41.6112
41.1272
40.6269
40.1194
39.6104
39.1219
38.6598
38.324
38.0909
38.3493
38.9142
38.549
38.691
38.9702
39.3951
39.865
40.3642
40.8653
41.3578
41.8299
42.2736
42.6815
43.0473
43.365
43.6302
43.84
43.9936
44.0935
44.145
44.1559
44.1329
44.0727
43.9676
43.8119
43.6026
43.3396
43.0252
42.6638
42.2607
41.8217
41.3531
40.8616
40.3538
39.8393
39.3256
38.8382
38.4002
38.1226
38.0079
38.4506
38.7998
38.2802
38.3116
38.5291
38.924
39.3856
39.8833
40.3879
40.8856
41.3641
41.8146
42.229
42.6007
42.9241
43.1946
43.4095
43.5681
43.6725
43.7272
43.7396
43.7155
43.6526
43.5439
43.3845
43.1716
42.9051
42.5874
42.2223
41.8149
41.3713
40.8975
40.4006
39.8873
39.3689
38.8534
38.3765
37.9752
37.7697
37.781
38.3988
38.473
37.8135
37.7379
37.8881
38.2452
38.6927
39.1894
39.696
40.1981
40.682
41.1383
41.5586
41.9361
42.265
42.5408
42.7606
42.9238
43.0321
43.0899
43.104
43.0802
43.0164
42.9064
42.7457
42.5315
42.2639
41.9448
41.5781
41.1689
40.7231
40.2469
39.7474
39.2324
38.712
38.2012
37.744
37.3865
37.2545
37.3757
38.129
37.9055
37.1348
36.9732
37.0638
37.3841
37.814
38.3059
38.8138
39.3188
39.8065
40.2674
40.6924
41.0747
41.4083
41.6884
41.9123
42.079
42.1905
42.2511
42.2672
42.2451
42.183
42.075
41.9163
41.7043
41.4388
41.1217
40.7571
40.3498
39.9057
39.4314
38.934
38.4218
37.9046
37.4045
36.971
36.6545
36.5823
36.7805
37.623
37.1398
36.2862
36.0629
36.106
36.3949
36.8074
37.2936
37.8035
38.3108
38.8019
39.2663
39.6951
40.0811
40.4181
40.7014
40.9279
41.0968
41.2098
41.272
41.2903
41.2714
41.2143
41.1123
40.9602
40.7548
40.4957
40.1851
39.8267
39.4257
38.9878
38.5198
38.0286
37.5228
37.0141
36.5298
36.1215
35.8403
35.8128
36.0586
36.9552
36.2218
35.3354
35.0916
35.1154
35.3921
35.7981
36.2835
36.7967
37.3086
37.804
38.2718
38.7035
39.0918
39.4303
39.7143
39.9406
40.1084
40.2198
40.2806
40.2995
40.2852
40.2368
40.1459
40.0057
39.8121
39.5647
39.2654
38.9181
38.5281
38.1012
37.644
37.164
36.6692
36.1746
35.7088
35.323
35.0662
35.0624
35.322
36.2258
35.28
34.4446
34.2398
34.2869
34.5803
34.998
35.4932
36.015
36.5347
37.0352
37.506
37.9389
38.3264
38.6627
38.943
39.164
39.3248
39.4278
39.4805
39.4952
39.4851
39.4493
39.3749
39.2517
39.0746
38.8428
38.5586
38.2263
37.8509
37.4387
36.9965
36.5319
36.0536
35.5767
35.1292
34.7612
34.5181
34.5202
34.7683
35.6431
34.7801
34.0366
33.9028
33.9975
34.3223
34.7582
35.2625
35.7865
36.3033
36.7985
37.2618
37.6851
38.0616
38.3851
38.6511
38.8563
38.9993
39.0824
39.1142
39.1131
39.1034
39.0831
39.0286
38.9245
38.765
38.5501
38.2826
37.967
37.6088
37.2144
36.7907
36.346
35.89
35.435
35.0061
34.6508
34.4102
34.4004
34.6142
35.431
35.0245
34.3939
34.3427
34.4926
34.8463
35.2908
35.7882
36.2951
36.7917
37.2644
37.7038
38.1019
38.4522
38.7493
38.9885
39.1664
39.2815
39.3349
39.3346
39.3045
39.2884
39.2819
39.2424
39.1511
39.0034
38.8004
38.5455
38.2435
37.8999
37.5208
37.1134
36.6859
36.2478
35.8125
35.3973
35.0456
34.7943
34.7555
34.9194
35.6655
36.2097
35.6456
35.6296
35.7812
36.1153
36.5233
36.9746
37.4331
37.8835
38.3116
38.7079
39.0644
39.3746
39.633
39.8355
39.9785
40.0602
40.0817
40.0497
39.9896
39.9601
39.9544
39.9167
39.8278
39.6842
39.4873
39.2409
38.9497
38.6192
38.2557
37.8661
37.459
37.0441
36.6361
36.2507
35.9225
35.682
35.6396
35.7748
36.4737
37.4943
36.9509
36.9471
37.094
37.4103
37.7897
38.2073
38.6316
39.0473
39.4406
39.8025
40.125
40.4021
40.6287
40.8006
40.9149
40.9701
40.967
40.9133
40.8349
40.792
40.777
40.733
40.6402
40.4951
40.299
40.0554
39.7687
39.4443
39.0881
38.7068
38.3084
37.9027
37.5038
37.1274
36.8057
36.5607
36.5009
36.6022
37.2574
38.135
37.7061
37.7708
37.9496
38.2759
38.6488
39.0529
39.4586
39.8534
40.2246
40.5639
40.8642
41.1195
41.325
41.477
41.5725
41.6102
41.5914
41.5239
41.4342
41.3824
41.361
41.3131
41.2186
41.0735
40.8793
40.6392
40.3579
40.0404
39.6927
39.3215
38.935
38.5426
38.1588
37.7986
37.4955
37.2668
37.2168
37.3094
37.9449
43.4719
51.2922
57.5204
63.6459
68.9336
73.2222
76.6583
79.4356
81.7094
83.6144
85.27
86.7525
88.0993
89.3443
90.5186
91.6526
92.7769
93.92
95.1051
96.3498
97.6634
99.0484
100.501
102.016
103.581
105.185
106.81
108.434
110.018
111.492
112.708
113.426
42.7518
50.2895
56.3193
62.3054
67.5202
71.7744
75.1931
77.9628
80.237
82.1486
83.8125
85.2984
86.6367
87.8678
89.024
90.1368
91.2377
92.3557
93.5153
94.7329
96.0178
97.3727
98.7943
100.276
101.806
103.373
104.961
106.547
108.094
109.532
110.718
111.416
41.9726
49.2598
55.1011
60.9463
66.0866
70.3083
73.7145
76.4842
78.7682
80.6955
82.3733
83.8649
85.1995
86.4201
87.5601
88.6533
89.7323
90.827
91.9607
93.1512
94.4081
95.7336
97.1244
98.573
100.069
101.601
103.152
104.7
106.209
107.611
108.767
109.446
41.1506
48.2051
53.8602
59.5629
64.6301
68.8249
72.2265
75.005
77.3087
79.2606
80.9577
82.458
83.7941
85.0055
86.1324
87.2085
88.2675
89.3395
90.4501
91.6158
92.8456
94.1422
95.5026
96.9191
98.3814
99.8779
101.392
102.903
104.375
105.741
106.867
107.528
40.3002
47.1296
52.5947
58.1488
63.1418
67.3152
70.7221
73.5212
75.8553
77.8384
79.5594
81.073
82.415
83.6243
84.7416
85.8032
86.8445
87.8972
88.9849
90.1258
91.33
92.5995
93.9307
95.3164
96.7465
98.2085
99.6871
101.162
102.597
103.929
105.025
105.667
39.4184
46.0282
51.2985
56.6999
61.6211
65.7828
69.2062
72.0345
74.4045
76.424
78.1732
79.7053
81.0593
82.2722
83.384
84.435
85.4616
86.4955
87.5639
88.6839
89.864
91.107
92.41
93.7658
95.1632
96.591
98.0343
99.4725
100.872
102.17
103.238
103.862
38.503
44.8963
49.9636
55.2015
60.0472
64.2029
67.6556
70.5286
72.9486
75.0129
76.7966
78.3527
79.7214
80.9444
82.0579
83.1029
84.1182
85.1387
86.1883
87.2862
88.4436
89.6624
90.9387
92.2655
93.6325
95.0281
96.4369
97.8411
99.2049
100.47
101.509
102.115
37.5597
43.7338
48.5881
53.6534
58.4237
62.5847
66.0808
69.0061
71.4772
73.5892
75.4126
77.0001
78.3958
79.6355
80.7586
81.8027
82.8118
83.8191
84.8548
85.9368
87.0737
88.2686
89.5189
90.8175
92.1538
93.5162
94.891
96.2587
97.5897
98.8211
99.8326
100.42
36.5458
42.5042
47.1331
52.0084
56.693
60.8627
64.4192
67.4233
69.9747
72.1545
74.0308
75.6583
77.0795
78.3407
79.4768
80.5302
81.5377
82.5409
83.5636
84.6272
85.7448
86.9185
88.1448
89.4161
90.7233
92.0549
93.3965
94.7321
96.027
97.2272
98.2109
98.7806
35.5054
41.2383
45.6296
50.2986
54.8904
59.0788
62.7125
65.8021
68.427
70.673
72.6069
74.283
75.7531
77.0482
78.2101
79.2747
80.2897
81.2899
82.3057
83.3604
84.4621
85.615
86.8169
88.0617
89.3388
90.6378
91.9452
93.2433
94.5058
95.6724
96.629
97.179
34.298
39.8169
43.956
48.391
52.8655
57.0679
60.8017
64.0276
66.7921
69.1518
71.1728
72.9174
74.4274
75.7594
76.946
78.034
79.0587
80.0657
81.0775
82.1187
83.2052
84.3401
85.5207
86.7391
87.9876
89.2551
90.5295
91.7963
93.0234
94.1599
95.0887
95.6211
33.0465
38.3558
42.2327
46.4133
50.7538
54.975
58.8286
62.1929
65.0694
67.5323
69.6461
71.4636
73.0537
74.4421
75.6775
76.7924
77.8398
78.8529
79.8667
80.908
81.9845
83.102
84.2594
85.4527
86.6712
87.9063
89.1449
90.3734
91.567
92.6692
93.5707
94.0827
31.4894
36.5953
40.1744
44.0413
48.1862
52.3933
56.39
59.9924
63.1354
65.8054
68.0667
70.0082
71.6657
73.1179
74.3948
75.5513
76.6206
77.6541
78.6739
79.7063
80.7718
81.8749
83.0147
84.1826
85.3729
86.5758
87.7812
88.9794
90.1382
91.2109
92.084
92.5774
29.8508
34.7761
38.0712
41.6165
45.5475
49.7423
53.9065
57.7246
61.0344
63.8888
66.3309
68.3887
70.1778
71.7155
73.0717
74.277
75.392
76.4448
77.4774
78.5221
79.5851
80.6756
81.7929
82.9369
84.0968
85.2658
86.434
87.5913
88.7138
89.7511
90.596
91.0681
27.6203
32.3699
35.3064
38.3893
41.9397
45.9958
50.3139
54.5642
58.4512
61.7116
64.4048
66.7093
68.6234
70.2826
71.7144
72.9897
74.14
75.2307
76.2833
77.3239
78.3814
79.4611
80.5652
81.6844
82.8158
83.9521
85.0855
86.2126
87.3008
88.3079
89.1232
89.5747
25.1198
29.7978
32.4883
35.2053
38.4219
42.3785
46.9134
51.4374
55.4823
59.1324
62.266
64.7615
66.9107
68.7016
70.2543
71.6081
72.8421
73.972
75.0518
76.1224
77.1873
78.2603
79.3428
80.4387
81.5378
82.6359
83.7277
84.8105
85.8585
86.8263
87.6113
88.0394
21.233
25.9057
28.1536
30.0803
32.4012
35.7822
40.3386
45.8196
51.4441
55.9173
59.4445
62.5549
64.9727
67.0154
68.7232
70.2044
71.4895
72.6819
73.8015
74.8731
75.939
77.006
78.0789
79.1502
80.2194
81.2847
82.3396
83.3899
84.4005
85.3395
86.0913
86.4962
16.1862
21.4375
23.9648
25.9175
28.0324
31.067
35.5729
41.1504
46.0788
51.7271
56.6256
59.9244
62.8033
65.0788
66.9828
68.5854
70.0259
71.2906
72.4582
73.5871
74.6746
75.7416
76.795
77.8419
78.8744
79.89
80.8931
81.8964
82.8644
83.755
84.4717
84.8486
5.65413
11.198
12.5256
12.355
8.64408
9.92399
16.8205
25.4827
38.9034
45.7367
50.973
56.4186
59.9749
62.8309
65.0761
66.9432
68.4567
69.8236
71.0638
72.1986
73.2959
74.3646
75.4106
76.4316
77.4312
78.4175
79.3842
80.3431
81.2608
82.1247
82.8064
83.1566
4.44228
8.49686
8.51813
11.742
18.0222
20.2013
21.7939
24.1754
21.5956
37.2237
47.6336
52.0188
56.7844
60.1143
62.753
64.8207
66.6481
68.1539
69.4773
70.717
71.8589
72.9355
73.9649
74.9594
75.9113
76.8202
77.7069
78.6285
79.5057
80.3077
80.9374
81.2499
11.5649
15.8377
16.9285
16.6887
15.7455
15.3314
15.163
21.2175
21.1474
20.7057
31.4615
45.852
51.6057
56.5926
60.0181
62.6965
64.6322
66.3193
67.7778
69.0308
70.1967
71.2882
72.3129
73.2754
74.1895
75.0821
75.9485
76.779
77.5776
78.3504
78.9526
79.2316
19.8021
24.2175
26.0494
26.7634
26.362
25.0817
22.1526
16.9814
20.2694
5.39036
24.2483
29.8088
46.1794
51.8306
56.3486
59.4394
62.0972
64.0721
65.6893
67.1445
68.4
69.5136
70.5228
71.4557
72.2967
73.046
73.7539
74.6034
75.3647
76.0611
76.5593
76.7893
21.9965
26.9498
29.6224
31.5582
32.6212
32.648
31.6129
28.9432
23.486
17.2777
16.8151
16.6767
29.9359
45.5453
51.7026
56.3162
59.1075
61.4648
63.3515
64.8317
66.143
67.295
68.3089
69.1908
69.9826
70.7526
71.5021
72.1173
72.7558
73.3961
73.9162
74.0814
22.7671
27.8354
30.7399
33.0665
34.7746
35.8347
36.1714
35.5903
33.5558
28.7826
26.6975
25.1173
23.6449
31.5748
44.4762
50.1637
54.9648
57.9424
60.1639
62.0946
63.5979
64.8082
65.7983
66.6454
67.3057
67.7688
68.1592
68.9686
69.5485
70.1163
70.3586
70.4871
22.2387
27.4475
30.5145
33.072
35.0778
36.5182
37.387
37.6532
37.1768
35.4104
30.7126
29.6893
25.5526
25.6581
33.9731
45.2734
49.6375
53.6773
56.4627
58.3855
60.0269
61.3172
62.3438
63.0856
63.6515
64.2488
64.842
65.0338
65.4991
65.8367
66.3488
66.3014
20.7972
26.136
29.2947
31.9871
34.1837
35.8787
37.0856
37.8281
38.1141
37.8355
36.3993
32.2994
25.7068
24.3509
19.2681
27.3782
41.5645
47.0008
50.5873
53.7786
55.8859
57.3263
58.2869
58.9692
59.2632
59.0487
58.8144
59.6789
59.8499
60.3211
59.8336
59.9259
18.8402
24.2702
27.4564
30.2012
32.4939
34.3445
35.7755
36.8369
37.6001
38.1233
38.3358
37.7195
34.7642
28.4476
26.9625
28.3147
30.076
39.981
44.6571
46.8212
49.1242
50.6438
51.7476
52.2087
52.0863
52.6331
52.8108
51.9363
53.2984
51.7444
53.2581
53.0775
16.6232
22.0388
25.1565
27.8541
30.1472
32.0685
33.6557
34.9605
36.0645
37.056
37.9767
38.6967
38.584
35.787
27.1079
30.8482
12.0685
25.8051
28.106
36.297
42.016
43.6371
44.8739
44.576
44.2416
42.0425
41.6718
41.5132
40.1336
41.0474
37.1225
37.1341
14.3766
19.6426
22.5909
25.1421
27.3434
29.2501
30.9161
32.4011
33.7796
35.1373
36.5228
37.8806
38.9296
38.8177
35.5768
28.624
23.8223
34.8839
32.1933
35.03
23.7004
26.2515
26.3228
29.7201
21.1449
23.7889
16.6902
13.269
34.971
4.20783
24.3456
36.7972
12.3831
17.3746
20.0758
22.4071
24.4481
26.2727
27.946
29.5311
31.0929
32.7003
34.408
36.1938
37.8869
39.0737
38.9699
35.1668
28.8498
33.5711
33.6726
32.0254
23.5706
30.0001
24.4992
37.0858
9.51567
30.7503
24.5504
14.9679
39.0814
35.5245
29.7918
39.3757
10.8359
15.4762
17.9096
19.9999
21.8558
23.5652
25.1981
26.813
28.4606
30.1887
32.045
34.0462
36.1217
38.0163
39.2561
38.9552
37.1241
30.5591
34.0864
25.0919
28.6562
18.9666
29.9303
33.6226
25.6231
36.3397
35.2293
31.2557
38.7714
35.8525
30.1206
29.4656
9.69212
14.0854
16.2909
18.1775
19.8772
21.4824
23.0581
24.6496
26.2916
28.0174
29.8655
31.8744
34.0522
36.2999
38.3188
39.568
39.9352
38.1474
33.3794
32.4223
29.0609
28.3713
31.5534
30.9023
34.3653
34.8065
33.8604
38.9267
30.7413
41.2239
40.4109
39.3215
9.08401
13.2849
15.3302
17.0857
18.6926
20.2346
21.7606
23.298
24.8667
26.4917
28.2081
30.0639
32.1072
34.3443
36.6628
38.7352
40.2195
40.5034
39.148
39.1802
37.7677
37.8735
37.4863
39.3803
41.7414
41.3776
38.9532
42.5123
38.1891
43.1138
44.0703
43.6642
8.91044
13.0236
14.9997
16.7102
18.2943
19.8196
21.3152
22.7924
24.2617
25.7434
27.2716
28.8935
30.6657
32.6411
34.8267
37.0985
39.178
40.5319
40.8518
41.1664
40.9061
40.8887
40.809
42.1219
43.2716
43.2596
41.081
42.4688
41.004
42.7061
44.4057
44.0586
9.09961
13.2063
15.1874
16.9219
18.5367
20.0809
21.5664
22.9946
24.3726
25.7194
27.0661
28.4531
29.9303
31.5554
33.3819
35.4111
37.5258
39.3761
40.6014
41.3953
41.6325
41.5916
41.591
42.4437
43.1768
43.2298
41.4697
41.5128
41.0648
41.5727
43.4795