/*--------------------------------*- C++ -*----------------------------------*\
  =========                 |
  \\      /  F ield         | OpenFOAM: The Open Source CFD Toolbox
   \\    /   O peration     | Website:  https://openfoam.org
    \\  /    A nd           | Version:  6
     \\/     M anipulation  |
\*---------------------------------------------------------------------------*/
FoamFile
{
    version     2.0;
    format      ascii;
    class       volScalarField;
    location    "60";
    object      omega;
}
// * * * * * * * * * * * * * * * * * * * * * * * * * * * * * * * * * * * * * //

dimensions      [0 0 -1 0 0 0 0];

internalField   nonuniform List<scalar> 
2880
(
736.722
736.722
736.722
1471.07
1471.07
1471.07
1471.07
1471.07
1471.07
1471.07
1471.07
1471.07
1471.07
1471.07
1471.07
1471.07
1471.07
1471.07
1471.07
1471.07
1471.07
1471.07
1471.07
1471.07
1471.07
1471.07
1471.07
1471.07
1471.07
1471.07
1471.07
1471.07
1471.07
1471.07
1471.07
1471.07
1471.07
1471.07
1471.07
1471.07
1471.07
1471.07
1471.07
1471.07
1471.07
1471.07
1471.07
1471.07
1471.07
1471.07
1471.07
1471.07
1471.07
1471.07
1471.07
1471.07
1471.07
1471.07
1471.07
1471.07
1471.07
1471.07
1471.07
1471.07
1471.07
1471.07
1471.07
1471.07
1471.07
1471.07
1471.07
1471.07
1471.07
1471.07
1471.07
1471.07
1471.07
1471.07
1471.07
1471.07
1471.07
1471.07
1471.07
1471.07
1471.07
1471.07
1471.07
736.722
736.722
736.722
5.90339
5.90338
5.90343
350.767
350.767
350.769
368.236
368.237
368.239
379.45
379.451
379.454
387.899
387.9
387.901
394.669
394.67
394.671
400.292
400.293
400.294
405.073
405.073
405.075
409.202
409.203
409.204
412.785
412.785
412.786
415.856
415.857
415.858
418.41
418.411
418.412
420.464
420.465
420.466
422.068
422.068
422.07
422.96
422.961
422.962
422.96
422.96
422.962
422.067
422.068
422.069
420.463
420.464
420.465
418.409
418.409
418.41
415.855
415.856
415.857
412.783
412.784
412.785
409.2
409.201
409.202
405.069
405.07
405.071
400.286
400.287
400.288
394.66
394.661
394.662
387.887
387.888
387.89
379.439
379.44
379.442
368.228
368.229
368.231
350.761
350.761
350.762
5.9032
5.9032
5.90325
7.88189
7.88189
7.88195
158.629
158.629
158.63
169.645
169.645
169.646
175.779
175.779
175.78
180.277
180.277
180.278
183.892
183.892
183.892
186.922
186.922
186.923
189.526
189.526
189.526
191.797
191.797
191.798
193.784
193.785
193.785
195.5
195.5
195.501
196.933
196.934
196.935
198.069
198.069
198.07
198.907
198.908
198.909
199.372
199.373
199.374
199.372
199.373
199.373
198.906
198.907
198.908
198.068
198.069
198.069
196.932
196.933
196.934
195.499
195.499
195.5
193.783
193.783
193.784
191.796
191.796
191.796
189.523
189.524
189.524
186.918
186.918
186.919
183.886
183.886
183.887
180.271
180.271
180.272
175.772
175.773
175.774
169.64
169.64
169.641
158.625
158.625
158.625
7.88166
7.88165
7.88171
9.23624
9.23624
9.23631
89.381
89.3808
89.3809
97.0075
97.0073
97.0078
101.448
101.448
101.449
104.671
104.671
104.671
107.252
107.252
107.252
109.413
109.413
109.413
111.268
111.268
111.268
112.883
112.883
112.883
114.294
114.294
114.294
115.509
115.509
115.509
116.521
116.521
116.521
117.309
117.31
117.31
117.862
117.863
117.863
118.167
118.168
118.168
118.167
118.168
118.168
117.861
117.862
117.863
117.308
117.309
117.309
116.52
116.52
116.521
115.508
115.508
115.508
114.293
114.293
114.293
112.882
112.882
112.882
111.266
111.266
111.266
109.41
109.41
109.411
107.248
107.248
107.248
104.666
104.666
104.667
101.443
101.443
101.444
97.0037
97.0035
97.004
89.3778
89.3775
89.3777
9.23598
9.23598
9.23605
10.3345
10.3345
10.3345
58.0485
58.0482
58.0483
63.3832
63.3831
63.3833
66.8566
66.8565
66.8568
69.3517
69.3516
69.3519
71.3282
71.328
71.3282
72.9691
72.9689
72.9689
74.3678
74.3676
74.3677
75.5791
75.579
75.5792
76.6316
76.6316
76.6318
77.5334
77.5335
77.5338
78.2813
78.2816
78.2819
78.858
78.8587
78.8588
79.2515
79.2525
79.2527
79.4674
79.4686
79.4687
79.4672
79.4685
79.4685
79.2511
79.2522
79.2523
78.8574
78.8581
78.8583
78.2805
78.2809
78.2811
77.5326
77.5327
77.533
76.6306
76.6306
76.6308
75.578
75.5779
75.578
74.3662
74.366
74.3661
72.9667
72.9665
72.9666
71.325
71.3248
71.325
69.348
69.3478
69.3481
66.8529
66.8528
66.8531
63.3801
63.3799
63.3802
58.0457
58.0455
58.0456
10.3342
10.3342
10.3342
11.2926
11.2926
11.2927
41.3623
41.3622
41.3622
44.9043
44.9041
44.9041
47.6964
47.6962
47.6963
49.7141
49.7139
49.714
51.2965
51.2962
51.2963
52.5971
52.5968
52.5968
53.696
53.6957
53.6957
54.6404
54.6402
54.6402
55.4557
55.4556
55.4556
56.1501
56.1501
56.1502
56.7229
56.7232
56.7233
57.1613
57.1619
57.162
57.4546
57.4555
57.4556
57.6143
57.6153
57.6153
57.6141
57.6152
57.6152
57.4543
57.4552
57.4552
57.1608
57.1614
57.1615
56.7222
56.7225
56.7226
56.1493
56.1493
56.1495
55.4548
55.4547
55.4547
54.6393
54.6391
54.6392
53.6946
53.6943
53.6943
52.5951
52.5948
52.5948
51.2939
51.2936
51.2937
49.711
49.7108
49.7109
47.6934
47.6932
47.6933
44.9016
44.9014
44.9015
41.3599
41.3598
41.3598
11.2923
11.2923
11.2924
12.1509
12.1509
12.151
31.4686
31.4684
31.4684
33.5667
33.5664
33.5664
35.8089
35.8087
35.8087
37.4808
37.4805
37.4806
38.7878
38.7874
38.7875
39.8526
39.8522
39.8522
40.7441
40.7437
40.7437
41.5037
41.5034
41.5034
42.1548
42.1546
42.1546
42.7056
42.7055
42.7056
43.1576
43.1577
43.1578
43.5011
43.5015
43.5015
43.7272
43.7278
43.7279
43.849
43.8498
43.8499
43.8489
43.8497
43.8498
43.7269
43.7276
43.7276
43.5006
43.5011
43.5011
43.1569
43.1571
43.1572
42.7049
42.7048
42.7049
42.154
42.1538
42.1538
41.5028
41.5025
41.5025
40.7428
40.7424
40.7425
39.8509
39.8505
39.8505
38.7856
38.7852
38.7853
37.4783
37.478
37.478
35.8064
35.8061
35.8062
33.5644
33.5641
33.5641
31.4664
31.4663
31.4663
12.1506
12.1506
12.1507
12.9541
12.9541
12.9542
25.1429
25.1428
25.1428
26.0875
26.0872
26.0872
27.8502
27.8498
27.8498
29.2489
29.2485
29.2485
30.3506
30.3502
30.3502
31.2437
31.2432
31.2432
31.9853
31.9848
31.9848
32.6117
32.6113
32.6113
33.1446
33.1443
33.1443
33.5923
33.5922
33.5922
33.9576
33.9577
33.9577
34.2335
34.2338
34.2338
34.4124
34.4129
34.4129
34.5077
34.5084
34.5084
34.5076
34.5083
34.5083
34.4121
34.4126
34.4126
34.2331
34.2334
34.2334
33.9571
33.9571
33.9572
33.5916
33.5915
33.5915
33.1439
33.1436
33.1436
32.6108
32.6105
32.6105
31.9841
31.9837
31.9837
31.2422
31.2417
31.2417
30.3487
30.3483
30.3483
29.2468
29.2464
29.2464
27.848
27.8477
27.8477
26.0854
26.0851
26.0851
25.1409
25.1408
25.1408
12.9537
12.9537
12.9538
13.7217
13.7217
13.7218
20.8671
20.867
20.867
20.9027
20.9023
20.9023
22.2323
22.2319
22.2318
23.3993
23.3989
23.3989
24.3384
24.3379
24.3379
25.1004
25.0999
25.0999
25.7295
25.7289
25.7289
26.2567
26.2562
26.2562
26.7018
26.7014
26.7014
27.0732
27.073
27.073
27.3746
27.3745
27.3745
27.6007
27.6009
27.6009
27.7454
27.7457
27.7457
27.8215
27.822
27.822
27.8215
27.8219
27.8219
27.7452
27.7455
27.7455
27.6004
27.6005
27.6005
27.3741
27.374
27.374
27.0726
27.0723
27.0723
26.7011
26.7007
26.7007
26.2559
26.2554
26.2554
25.7284
25.7279
25.7279
25.0991
25.0985
25.0985
24.3368
24.3363
24.3363
23.3975
23.3971
23.3971
22.2305
22.23
22.23
20.9008
20.9004
20.9004
20.8652
20.8651
20.8651
13.7213
13.7213
13.7214
14.459
14.459
14.4591
17.8536
17.8535
17.8535
17.1787
17.1782
17.1782
18.1148
18.1142
18.1142
19.0745
19.074
19.074
19.8774
19.8769
19.8769
20.5346
20.5341
20.5341
21.0763
21.0757
21.0757
21.5273
21.5268
21.5268
21.9056
21.9052
21.9052
22.2192
22.2189
22.2189
22.4723
22.4721
22.4721
22.6611
22.6611
22.6611
22.7804
22.7806
22.7805
22.8422
22.8424
22.8424
22.8421
22.8424
22.8423
22.7802
22.7804
22.7803
22.6608
22.6608
22.6607
22.4718
22.4716
22.4716
22.2186
22.2183
22.2182
21.905
21.9045
21.9045
21.5266
21.526
21.526
21.0753
21.0748
21.0748
20.5335
20.5329
20.5329
19.876
19.8755
19.8755
19.073
19.0725
19.0725
18.1132
18.1127
18.1126
17.177
17.1765
17.1765
17.8518
17.8517
17.8517
14.4587
14.4587
14.4588
15.1646
15.1646
15.1647
15.6573
15.6572
15.6572
14.4318
14.4312
14.4312
15.0136
15.0129
15.0129
15.7818
15.7812
15.7812
16.4646
16.464
16.464
17.0345
17.0339
17.0339
17.5058
17.5052
17.5052
17.8969
17.8963
17.8963
18.223
18.2225
18.2225
18.492
18.4916
18.4915
18.7079
18.7077
18.7076
18.8682
18.8681
18.868
18.9684
18.9684
18.9683
19.0194
19.0194
19.0194
19.0193
19.0194
19.0193
18.9682
18.9682
18.9681
18.8679
18.8678
18.8677
18.7075
18.7072
18.7071
18.4914
18.491
18.4909
18.2224
18.2219
18.2219
17.8961
17.8956
17.8956
17.5049
17.5043
17.5043
17.0335
17.0329
17.0329
16.4635
16.4629
16.4629
15.7806
15.7799
15.78
15.0122
15.0116
15.0116
14.4302
14.4297
14.4297
15.6556
15.6555
15.6555
15.1642
15.1642
15.1643
15.8344
15.8344
15.8346
13.9976
13.9975
13.9975
12.3618
12.3613
12.3612
12.6307
12.6299
12.63
13.2192
13.2185
13.2185
13.7919
13.7913
13.7912
14.2856
14.285
14.285
14.6983
14.6977
14.6977
15.0409
15.0402
15.0402
15.3256
15.3251
15.325
15.5596
15.5591
15.559
15.7465
15.7462
15.7461
15.8848
15.8846
15.8845
15.9703
15.9702
15.9701
16.013
16.0129
16.0128
16.0129
16.0129
16.0127
15.9702
15.97
15.9699
15.8845
15.8843
15.8841
15.7461
15.7457
15.7457
15.559
15.5585
15.5585
15.3251
15.3245
15.3245
15.0402
15.0396
15.0396
14.6975
14.6969
14.6969
14.2847
14.2841
14.2841
13.7909
13.7903
13.7903
13.2182
13.2175
13.2175
12.6295
12.6288
12.6288
12.3603
12.3598
12.3598
13.9959
13.9958
13.9958
15.834
15.834
15.8341
16.4685
16.4685
16.4687
12.7038
12.7036
12.7037
10.7738
10.7732
10.7732
10.7721
10.7713
10.7713
11.1916
11.1909
11.1909
11.6604
11.6597
11.6597
12.085
12.0844
12.0844
12.4471
12.4464
12.4464
12.7494
12.7487
12.7487
13.0006
13
13
13.2067
13.2061
13.2061
13.3708
13.3703
13.3703
13.4918
13.4915
13.4914
13.5661
13.5659
13.5657
13.6024
13.6022
13.602
13.6023
13.6021
13.602
13.566
13.5657
13.5655
13.4916
13.4912
13.4911
13.3704
13.3699
13.3698
13.2061
13.2056
13.2055
13.0001
12.9995
12.9994
12.7488
12.7481
12.7481
12.4464
12.4457
12.4457
12.0843
12.0836
12.0836
11.6596
11.6589
11.6589
11.1908
11.19
11.19
10.771
10.7703
10.7703
10.7724
10.7718
10.7718
12.7021
12.702
12.702
16.4681
16.4681
16.4682
17.0667
17.0667
17.0669
11.6778
11.6776
11.6776
9.53662
9.53597
9.53598
9.30554
9.30472
9.3047
9.56744
9.56662
9.56661
9.93652
9.93577
9.93576
10.2963
10.2956
10.2956
10.613
10.6123
10.6123
10.8808
10.8802
10.8802
11.1043
11.1037
11.1036
11.2879
11.2873
11.2872
11.4338
11.4332
11.4331
11.5413
11.5408
11.5407
11.6069
11.6065
11.6063
11.6382
11.6378
11.6377
11.6381
11.6378
11.6376
11.6067
11.6063
11.6061
11.541
11.5405
11.5404
11.4334
11.4328
11.4327
11.2874
11.2868
11.2867
11.1038
11.1032
11.1031
10.8802
10.8796
10.8796
10.6124
10.6117
10.6117
10.2957
10.295
10.2949
9.93588
9.93513
9.93512
9.56677
9.56595
9.56595
9.30466
9.30383
9.30382
9.53526
9.53462
9.53462
11.6761
11.6759
11.6759
17.0663
17.0663
17.0664
17.6286
17.6286
17.6287
10.856
10.8558
10.8558
8.55955
8.55889
8.55889
8.13756
8.1367
8.13669
8.25424
8.2534
8.25339
8.5271
8.52633
8.52632
8.82446
8.82374
8.82373
9.09904
9.09835
9.09833
9.33638
9.3357
9.33568
9.53635
9.53569
9.53565
9.70147
9.70082
9.70076
9.83268
9.83206
9.83197
9.92943
9.92884
9.92872
9.98832
9.98778
9.98763
10.0158
10.0153
10.0151
10.0157
10.0152
10.0151
9.98815
9.98761
9.98746
9.92915
9.92856
9.92845
9.8323
9.83168
9.83159
9.70095
9.70031
9.70025
9.53588
9.53522
9.53518
9.33583
9.33515
9.33513
9.09847
9.09778
9.09777
8.82391
8.8232
8.82319
8.52662
8.52585
8.52584
8.25374
8.25289
8.25289
8.1368
8.13593
8.13593
8.55823
8.55756
8.55757
10.8543
10.8541
10.8541
17.6281
17.6281
17.6282
18.1541
18.1541
18.1542
10.1955
10.1953
10.1953
7.7785
7.77783
7.77784
7.19981
7.19893
7.19893
7.18498
7.18412
7.18411
7.36529
7.3645
7.3645
7.6015
7.60079
7.60077
7.83568
7.835
7.83498
8.04511
8.04444
8.04442
8.2246
8.22394
8.2239
8.37425
8.37359
8.37353
8.49351
8.49284
8.49276
8.58167
8.58101
8.58089
8.63533
8.6347
8.63456
8.65984
8.65925
8.65909
8.65978
8.65919
8.65903
8.63517
8.63453
8.63439
8.5814
8.58074
8.58063
8.49314
8.49248
8.49239
8.37375
8.37309
8.37303
8.22416
8.2235
8.22346
8.0446
8.04394
8.04391
7.83519
7.83451
7.83449
7.60107
7.60036
7.60035
7.36495
7.36416
7.36416
7.18463
7.18376
7.18376
7.19915
7.19828
7.19827
7.77721
7.77655
7.77655
10.1938
10.1936
10.1936
18.1535
18.1535
18.1537
18.6438
18.6438
18.644
9.66586
9.66565
9.66565
7.14738
7.14673
7.14673
6.44118
6.4403
6.4403
6.30945
6.30859
6.30858
6.40163
6.40085
6.40084
6.57756
6.57686
6.57685
6.77201
6.77136
6.77134
6.95495
6.95431
6.95429
7.11597
7.11534
7.11529
7.25232
7.25166
7.2516
7.36166
7.36097
7.36089
7.44287
7.44216
7.44206
7.49244
7.49174
7.49162
7.51467
7.514
7.51386
7.51461
7.51394
7.5138
7.49228
7.49158
7.49146
7.44261
7.4419
7.4418
7.3613
7.36062
7.36054
7.25185
7.25119
7.25113
7.11557
7.11494
7.11489
6.95449
6.95386
6.95383
6.7716
6.77094
6.77092
6.57725
6.57655
6.57654
6.40143
6.40065
6.40065
6.30924
6.30837
6.30836
6.44062
6.43975
6.43975
7.14613
7.14549
7.14548
9.66422
9.66401
9.66401
18.6432
18.6433
18.6434
19.0994
19.0994
19.0996
9.24522
9.24501
9.24502
6.63261
6.63198
6.63198
5.82274
5.82189
5.82189
5.58906
5.58821
5.5882
5.5986
5.59784
5.59784
5.7152
5.71453
5.71452
5.86993
5.86932
5.8693
6.02691
6.02633
6.0263
6.17064
6.17005
6.17001
6.29514
6.29451
6.29446
6.39602
6.39535
6.39528
6.47148
6.47077
6.47068
6.51781
6.51709
6.51697
6.53827
6.53757
6.53744
6.53821
6.53751
6.53738
6.51766
6.51693
6.51681
6.47123
6.47052
6.47042
6.39568
6.39502
6.39494
6.2947
6.29407
6.29401
6.17028
6.16968
6.16964
6.02651
6.02592
6.02589
5.8696
5.86899
5.86897
5.715
5.71433
5.71432
5.59853
5.59777
5.59777
5.58897
5.58812
5.58811
5.82227
5.82143
5.82142
6.63141
6.63078
6.63078
9.24361
9.2434
9.24341
19.0988
19.0988
19.0989
19.523
19.5231
19.5232
8.9169
8.91671
8.91671
6.20947
6.20888
6.20887
5.31445
5.31364
5.31363
4.99345
4.99265
4.99263
4.92698
4.92625
4.92625
4.98572
4.98509
4.98509
5.10047
5.09992
5.0999
5.23136
5.23084
5.23081
5.35824
5.35771
5.35767
5.47173
5.47115
5.4711
5.56512
5.56449
5.56443
5.63566
5.63498
5.6349
5.67934
5.67863
5.67853
5.69843
5.69773
5.69761
5.69837
5.69767
5.69755
5.67919
5.67848
5.67837
5.63542
5.63474
5.63465
5.56481
5.56418
5.56412
5.47132
5.47074
5.47069
5.35791
5.35738
5.35735
5.23102
5.23049
5.23047
5.10022
5.09967
5.09966
4.98563
4.985
4.985
4.92703
4.92631
4.92631
4.99349
4.99267
4.99266
5.31407
5.31325
5.31324
6.20831
6.20772
6.20771
8.91534
8.91514
8.91515
19.5224
19.5224
19.5225
19.9172
19.9172
19.9173
8.66774
8.66756
8.66756
5.85959
5.85904
5.85903
4.89292
4.89215
4.89214
4.49837
4.4976
4.49759
4.36345
4.36278
4.36278
4.36666
4.3661
4.36609
4.44127
4.44078
4.44078
4.5455
4.54505
4.54503
4.65538
4.65493
4.6549
4.75812
4.75763
4.75758
4.84455
4.844
4.84394
4.91067
4.91005
4.90998
4.95207
4.95141
4.95132
4.97006
4.9694
4.9693
4.97
4.96934
4.96924
4.95192
4.95126
4.95117
4.91044
4.90982
4.90974
4.84426
4.84371
4.84365
4.75776
4.75726
4.75722
4.65509
4.65464
4.65461
4.54521
4.54476
4.54474
4.44111
4.44062
4.44061
4.36668
4.36611
4.36611
4.36363
4.36296
4.36295
4.49852
4.49774
4.49774
4.89263
4.89185
4.89185
5.8585
5.85794
5.85793
8.66623
8.66606
8.66606
19.9165
19.9165
19.9166
20.2843
20.2844
20.2845
8.48696
8.4868
8.4868
5.56927
5.56875
5.56875
4.53994
4.53921
4.53921
4.08415
4.08343
4.08343
3.88905
3.88843
3.88843
3.84007
3.83957
3.83957
3.8748
3.87439
3.87438
3.95162
3.95126
3.95124
4.04389
4.04354
4.04351
4.13567
4.13527
4.13523
4.21524
4.21477
4.21472
4.27712
4.27658
4.27652
4.31641
4.31583
4.31575
4.33347
4.33289
4.3328
4.33342
4.33284
4.33275
4.31626
4.31568
4.31561
4.2769
4.27636
4.2763
4.21497
4.21451
4.21446
4.13535
4.13495
4.13491
4.04364
4.04329
4.04326
3.9514
3.95104
3.95102
3.87472
3.87431
3.8743
3.84019
3.83969
3.83969
3.88934
3.88872
3.88872
4.08442
4.0837
4.08369
4.53975
4.53901
4.539
5.56825
5.56773
5.56772
8.48552
8.48536
8.48536
20.2836
20.2836
20.2837
20.6268
20.6268
20.6269
8.36549
8.36533
8.36534
5.32818
5.32771
5.3277
4.24134
4.24065
4.24065
3.73482
3.73416
3.73415
3.48806
3.4875
3.4875
3.39126
3.39083
3.39083
3.38712
3.38678
3.38678
3.43591
3.43563
3.43562
3.50967
3.50941
3.50939
3.58982
3.58952
3.58949
3.66222
3.66186
3.66182
3.71976
3.71933
3.71928
3.75693
3.75645
3.75639
3.77316
3.77268
3.77261
3.77311
3.77263
3.77256
3.75679
3.75632
3.75625
3.71955
3.71913
3.71908
3.66199
3.66163
3.66159
3.58956
3.58926
3.58923
3.50946
3.5092
3.50918
3.43575
3.43548
3.43547
3.38712
3.38679
3.38678
3.39147
3.39104
3.39104
3.48845
3.4879
3.4879
3.7352
3.73454
3.73453
4.24124
4.24055
4.24055
5.32724
5.32677
5.32676
8.36412
8.36397
8.36398
20.626
20.626
20.6261
20.9463
20.9463
20.9464
8.29552
8.29539
8.29539
5.12853
5.12811
5.1281
3.98623
3.98559
3.98559
3.4374
3.43678
3.43678
3.14733
3.14684
3.14684
3.00801
3.00765
3.00765
2.96695
2.96669
2.96669
2.9875
2.9873
2.9873
3.04175
3.04158
3.04157
3.10929
3.10909
3.10907
3.17387
3.17362
3.17359
3.22669
3.22638
3.22634
3.26156
3.2612
3.26115
3.27696
3.2766
3.27654
3.27691
3.27655
3.27649
3.26143
3.26107
3.26103
3.2265
3.2262
3.22616
3.17367
3.17342
3.17339
3.10908
3.10888
3.10887
3.04158
3.04141
3.0414
2.9874
2.98721
2.98721
2.96702
2.96676
2.96676
3.0083
3.00795
3.00794
3.14783
3.14733
3.14733
3.43789
3.43727
3.43727
3.98623
3.98558
3.98558
5.12769
5.12727
5.12726
8.29423
8.2941
8.2941
20.9454
20.9454
20.9455
21.2443
21.2443
21.2444
8.2702
8.27008
8.27008
4.96447
4.9641
4.96408
3.7664
3.76581
3.76581
3.18146
3.1809
3.1809
2.85588
2.85545
2.85545
2.68
2.67971
2.67971
2.60501
2.60482
2.60482
2.5978
2.59769
2.59769
2.63171
2.63162
2.63162
2.68546
2.68535
2.68535
2.74128
2.74114
2.74112
2.78877
2.78858
2.78856
2.821
2.82077
2.82074
2.83549
2.83526
2.83522
2.83545
2.83521
2.83518
2.82088
2.82065
2.82062
2.78861
2.78842
2.78839
2.74112
2.74098
2.74097
2.68532
2.68521
2.68521
2.63158
2.63149
2.6315
2.59777
2.59766
2.59766
2.60515
2.60496
2.60496
2.68037
2.68008
2.68008
2.85646
2.85603
2.85603
3.18207
3.1815
3.1815
3.76651
3.76592
3.76591
4.96373
4.96336
4.96334
8.26899
8.26887
8.26887
21.2433
21.2433
21.2434
21.5214
21.5214
21.5215
8.2834
8.28331
8.28331
4.83165
4.83134
4.83129
3.57589
3.57535
3.57533
2.95887
2.95836
2.95836
2.60462
2.60425
2.60425
2.39853
2.3983
2.3983
2.2936
2.29348
2.29348
2.26003
2.25997
2.25998
2.27318
2.27314
2.27316
2.31198
2.31194
2.31195
2.35791
2.35785
2.35786
2.39926
2.39917
2.39917
2.42839
2.42827
2.42826
2.44185
2.44172
2.44171
2.44181
2.44168
2.44167
2.42828
2.42816
2.42816
2.39912
2.39904
2.39904
2.35779
2.35773
2.35774
2.3119
2.31186
2.31188
2.27309
2.27306
2.27308
2.26005
2.25999
2.26
2.29379
2.29367
2.29367
2.39896
2.39873
2.39873
2.60529
2.60492
2.60492
2.9596
2.95908
2.95908
3.57611
3.57557
3.57555
4.831
4.83069
4.83065
8.28226
8.28218
8.28217
21.5204
21.5204
21.5205
21.7778
21.7778
21.7778
8.32967
8.32963
8.32961
4.72689
4.72663
4.72657
3.41056
3.41007
3.41003
2.76357
2.7631
2.7631
2.38631
2.38599
2.38599
2.15635
2.15618
2.15618
2.02632
2.02625
2.02625
1.96878
1.96876
1.96879
1.96143
1.96143
1.96148
1.98437
1.98438
1.98442
2.01927
2.01927
2.01931
2.0536
2.05358
2.05361
2.07909
2.07905
2.07908
2.09132
2.09128
2.0913
2.09129
2.09124
2.09127
2.079
2.07896
2.07898
2.05349
2.05347
2.0535
2.0192
2.0192
2.01923
1.98436
1.98437
1.98441
1.96139
1.96139
1.96143
1.96885
1.96882
1.96885
2.02655
2.02648
2.02648
2.15683
2.15666
2.15666
2.38706
2.38675
2.38674
2.76441
2.76394
2.76393
3.4109
3.4104
3.41036
4.72634
4.72609
4.72602
8.32859
8.32855
8.32853
21.7767
21.7767
21.7767
22.0127
22.0127
22.0127
8.40357
8.40351
8.40349
4.64768
4.64745
4.64736
3.26777
3.26732
3.26726
2.5914
2.59098
2.59096
2.19555
2.19528
2.19527
1.94775
1.94762
1.94762
1.79799
1.79796
1.79797
1.71984
1.71983
1.71988
1.69313
1.69316
1.69322
1.69981
1.69987
1.69993
1.72272
1.72279
1.72284
1.74918
1.74923
1.74928
1.7705
1.77053
1.77058
1.78129
1.78132
1.78137
1.78127
1.78129
1.78134
1.77042
1.77045
1.7705
1.7491
1.74915
1.7492
1.72269
1.72275
1.7228
1.69985
1.69991
1.69997
1.69311
1.69315
1.6932
1.71993
1.71993
1.71997
1.79825
1.79821
1.79822
1.94826
1.94814
1.94814
2.19637
2.1961
2.1961
2.59236
2.59193
2.59191
3.26824
3.26777
3.26771
4.64726
4.64703
4.64694
8.40255
8.40249
8.40247
22.0115
22.0115
22.0116
22.2247
22.2247
22.2248
8.49676
8.49663
8.49662
4.59113
4.59092
4.59081
3.14603
3.14561
3.14553
2.44013
2.43975
2.43971
2.02894
2.02871
2.0287
1.76871
1.76862
1.76862
1.60476
1.60474
1.60477
1.51007
1.51009
1.51015
1.46607
1.46613
1.46619
1.45689
1.45697
1.45704
1.46732
1.46742
1.46748
1.4853
1.4854
1.48546
1.502
1.50208
1.50215
1.51116
1.51124
1.51131
1.51114
1.51122
1.51129
1.50194
1.50202
1.50209
1.48525
1.48534
1.48541
1.46732
1.46742
1.46748
1.45697
1.45705
1.45712
1.46607
1.46613
1.4662
1.51017
1.5102
1.51025
1.60502
1.60501
1.60503
1.76924
1.76916
1.76916
2.02983
2.0296
2.02959
2.4412
2.44081
2.44078
3.14663
3.1462
3.14611
4.59085
4.59064
4.59052
8.49578
8.49566
8.49565
22.2235
22.2235
22.2236
22.4114
22.4114
22.4115
8.59668
8.59659
8.59657
4.55346
4.55329
4.55315
3.04489
3.04449
3.04438
2.3095
2.30914
2.30909
1.88534
1.88515
1.88513
1.61724
1.61719
1.61719
1.44432
1.44433
1.44436
1.33754
1.33759
1.33764
1.27914
1.27921
1.27928
1.25541
1.25549
1.25556
1.25361
1.25371
1.25378
1.26297
1.26307
1.26315
1.27485
1.27494
1.27503
1.28226
1.28235
1.28244
1.28224
1.28233
1.28242
1.2748
1.2749
1.27499
1.26294
1.26304
1.26312
1.25364
1.25374
1.25381
1.25552
1.2556
1.25567
1.27917
1.27923
1.2793
1.33765
1.33769
1.33775
1.44458
1.44458
1.44461
1.61779
1.61774
1.61774
1.88628
1.88609
1.88607
2.31067
2.31031
2.31026
3.04559
3.04517
3.04506
4.55321
4.55304
4.5529
8.59571
8.59564
8.59562
22.4102
22.4102
22.4103
22.5678
22.5678
22.5678
8.69167
8.69167
8.69169
4.53142
4.53131
4.53114
2.9651
2.96472
2.96458
2.20147
2.20114
2.20107
1.76629
1.76613
1.7661
1.49388
1.49385
1.49385
1.31638
1.3164
1.31643
1.2018
1.20185
1.20191
1.13244
1.1325
1.13257
1.09641
1.09649
1.09656
1.08359
1.08366
1.08374
1.08489
1.08497
1.08506
1.09215
1.09222
1.09232
1.09781
1.09788
1.09798
1.0978
1.09787
1.09797
1.09212
1.09219
1.09229
1.08488
1.08496
1.08505
1.08363
1.08371
1.08379
1.09654
1.09661
1.09668
1.13246
1.13253
1.1326
1.20189
1.20195
1.202
1.31662
1.31665
1.31667
1.49442
1.4944
1.49439
1.76727
1.7671
1.76708
2.20273
2.20238
2.20231
2.96585
2.96545
2.96531
4.53108
4.53097
4.53081
8.69066
8.69071
8.69069
22.5666
22.5666
22.5666
22.6845
22.6845
22.6845
8.77705
8.77702
8.77705
4.52372
4.52359
4.52342
2.90878
2.90837
2.90823
2.12056
2.12023
2.12015
1.67654
1.67639
1.67635
1.40224
1.40223
1.40222
1.22326
1.2233
1.22332
1.10446
1.10453
1.10457
1.02776
1.02782
1.02789
0.982613
0.982661
0.982736
0.96107
0.961113
0.961198
0.955796
0.955834
0.955929
0.959192
0.959221
0.959324
0.963347
0.96337
0.963477
0.963338
0.963361
0.963468
0.95917
0.9592
0.959302
0.955796
0.955834
0.955929
0.961125
0.961168
0.961253
0.982736
0.982784
0.982859
1.02779
1.02785
1.02791
1.10454
1.10461
1.10465
1.22348
1.22353
1.22355
1.40278
1.40277
1.40276
1.67754
1.67739
1.67735
2.12189
2.12154
2.12146
2.9096
2.90918
2.90903
4.52341
4.52329
4.52312
8.776
8.77598
8.77601
22.6833
22.6833
22.6833
22.7502
22.7502
22.7503
8.83397
8.83385
8.83385
4.52432
4.52413
4.52396
2.87831
2.87789
2.87774
2.07418
2.07384
2.07375
1.62475
1.62461
1.62456
1.34995
1.34995
1.34993
1.17097
1.17102
1.17104
1.05049
1.05056
1.0506
0.970011
0.970062
0.970123
0.919719
0.919748
0.919821
0.893038
0.893053
0.893135
0.883783
0.88379
0.88388
0.884796
0.884793
0.884888
0.887993
0.887985
0.888083
0.887986
0.887978
0.888076
0.88478
0.884778
0.884873
0.883789
0.883796
0.883886
0.893095
0.89311
0.893192
0.919838
0.919866
0.919939
0.970035
0.970085
0.970146
1.05056
1.05063
1.05067
1.17118
1.17124
1.17125
1.35048
1.35048
1.35046
1.62576
1.62562
1.62557
2.07554
2.0752
2.07511
2.87921
2.87877
2.87862
4.52412
4.52395
4.52377
8.8329
8.83279
8.8328
22.7491
22.749
22.7491
)
;

boundaryField
{
    freeSurface
    {
        type            slip;
    }
    inlet
    {
        type            cyclic;
    }
    outlet
    {
        type            cyclic;
    }
    sidewalls
    {
        type            omegaWallFunction;
        Cmu             0.09;
        kappa           0.41;
        E               9.8;
        beta1           0.075;
        blended         false;
        value           nonuniform List<scalar> 
192
(
736.722
5.90339
7.88189
9.23624
10.3345
11.2926
12.1509
12.9541
13.7217
14.459
15.1646
15.8344
16.4685
17.0667
17.6286
18.1541
18.6438
19.0994
19.523
19.9172
20.2843
20.6268
20.9463
21.2443
21.5214
21.7778
22.0127
22.2247
22.4114
22.5678
22.6845
22.7502
736.722
5.90338
7.88189
9.23624
10.3345
11.2926
12.1509
12.9541
13.7217
14.459
15.1646
15.8344
16.4685
17.0667
17.6286
18.1541
18.6438
19.0994
19.5231
19.9172
20.2844
20.6268
20.9463
21.2443
21.5214
21.7778
22.0127
22.2247
22.4114
22.5678
22.6845
22.7502
736.722
5.90343
7.88195
9.23631
10.3345
11.2927
12.151
12.9542
13.7218
14.4591
15.1647
15.8346
16.4687
17.0669
17.6287
18.1542
18.644
19.0996
19.5232
19.9173
20.2845
20.6269
20.9464
21.2444
21.5215
21.7778
22.0127
22.2248
22.4115
22.5678
22.6845
22.7503
736.722
5.9032
7.88166
9.23598
10.3342
11.2923
12.1506
12.9537
13.7213
14.4587
15.1642
15.834
16.4681
17.0663
17.6281
18.1535
18.6432
19.0988
19.5224
19.9165
20.2836
20.626
20.9454
21.2433
21.5204
21.7767
22.0115
22.2235
22.4102
22.5666
22.6833
22.7491
736.722
5.9032
7.88165
9.23598
10.3342
11.2923
12.1506
12.9537
13.7213
14.4587
15.1642
15.834
16.4681
17.0663
17.6281
18.1535
18.6433
19.0988
19.5224
19.9165
20.2836
20.626
20.9454
21.2433
21.5204
21.7767
22.0115
22.2235
22.4102
22.5666
22.6833
22.749
736.722
5.90325
7.88171
9.23605
10.3342
11.2924
12.1507
12.9538
13.7214
14.4588
15.1643
15.8341
16.4682
17.0664
17.6282
18.1537
18.6434
19.0989
19.5225
19.9166
20.2837
20.6261
20.9455
21.2434
21.5205
21.7767
22.0116
22.2236
22.4103
22.5666
22.6833
22.7491
)
;
    }
    noSlipWalls
    {
        type            omegaWallFunction;
        Cmu             0.09;
        kappa           0.41;
        E               9.8;
        beta1           0.075;
        blended         false;
        value           nonuniform List<scalar> 
90
(
736.722
1471.07
1471.07
1471.07
1471.07
1471.07
1471.07
1471.07
1471.07
1471.07
1471.07
1471.07
1471.07
1471.07
1471.07
1471.07
1471.07
1471.07
1471.07
1471.07
1471.07
1471.07
1471.07
1471.07
1471.07
1471.07
1471.07
1471.07
1471.07
736.722
736.722
1471.07
1471.07
1471.07
1471.07
1471.07
1471.07
1471.07
1471.07
1471.07
1471.07
1471.07
1471.07
1471.07
1471.07
1471.07
1471.07
1471.07
1471.07
1471.07
1471.07
1471.07
1471.07
1471.07
1471.07
1471.07
1471.07
1471.07
1471.07
736.722
736.722
1471.07
1471.07
1471.07
1471.07
1471.07
1471.07
1471.07
1471.07
1471.07
1471.07
1471.07
1471.07
1471.07
1471.07
1471.07
1471.07
1471.07
1471.07
1471.07
1471.07
1471.07
1471.07
1471.07
1471.07
1471.07
1471.07
1471.07
1471.07
736.722
)
;
    }
}


// ************************************************************************* //
