/*--------------------------------*- C++ -*----------------------------------*\
  =========                 |
  \\      /  F ield         | OpenFOAM: The Open Source CFD Toolbox
   \\    /   O peration     | Website:  https://openfoam.org
    \\  /    A nd           | Version:  6
     \\/     M anipulation  |
\*---------------------------------------------------------------------------*/
FoamFile
{
    version     2.0;
    format      ascii;
    class       volScalarField;
    location    "36";
    object      yPlus;
}
// * * * * * * * * * * * * * * * * * * * * * * * * * * * * * * * * * * * * * //

dimensions      [0 0 0 0 0 0 0];

internalField   uniform 0;

boundaryField
{
    inlet
    {
        type            calculated;
        value           uniform 0;
    }
    outlet
    {
        type            calculated;
        value           uniform 0;
    }
    roughCylinder
    {
        type            calculated;
        value           nonuniform List<scalar> 
3840
(
65.0457
50.2495
53.6932
62.0019
68.4254
73.5376
77.6532
81.115
84.1729
86.9536
89.5824
92.1027
94.6143
97.2136
99.9558
102.863
105.948
109.193
112.562
115.991
119.373
122.535
125.164
126.769
65.0405
49.8353
52.241
60.334
66.6947
71.79
75.8865
79.3323
82.3643
85.1197
87.6574
90.0985
92.5281
95.027
97.6635
100.477
103.456
106.59
109.843
113.155
116.422
119.477
122.019
123.568
63.1898
49.2064
50.8538
58.6523
64.9498
69.9998
74.1139
77.583
80.6162
83.2851
85.7779
88.1395
90.4737
92.887
95.4363
98.1362
101.007
104.028
107.169
110.365
113.519
116.469
118.923
120.418
63.8597
48.5371
49.3226
56.9074
63.1622
68.2454
72.3768
75.8457
78.843
81.5241
83.9347
86.2235
88.4888
90.8086
93.2522
95.8689
98.6403
101.558
104.586
107.669
110.712
113.559
115.927
117.369
58.5711
48.4437
47.9523
55.1547
61.3865
66.4362
70.6069
74.121
77.1606
79.7588
82.1441
84.3732
86.5512
88.7968
91.171
93.6776
96.3473
99.1575
102.081
105.057
107.993
110.741
113.027
114.416
74.8545
47.7826
46.3676
53.3103
59.5084
64.6486
68.875
72.4114
75.3975
78.059
80.3877
82.5575
84.6873
86.8527
89.1229
91.5635
94.1456
96.8646
99.6827
102.553
105.385
108.037
110.243
111.581
68.8972
47.6686
44.9374
51.4177
57.6603
62.7741
67.0529
70.6484
73.7498
76.326
78.6613
80.8026
82.8589
84.965
87.1907
89.5245
92.0117
94.6282
97.352
100.123
102.857
105.417
107.546
108.836
58.7851
46.5189
43.2932
49.4039
55.5922
60.8722
65.2589
68.926
71.9407
74.6395
76.9519
79.0571
81.0958
83.1412
85.2621
87.5516
89.9661
92.5056
95.1312
97.8042
100.442
102.912
104.967
106.208
68.5442
45.9952
41.6689
47.2034
53.5588
58.8316
63.297
67.0301
70.2795
72.8932
75.2364
77.3544
79.3403
81.3455
83.4574
85.6419
87.9671
90.4084
92.9497
95.5314
98.0769
100.463
102.447
103.642
68.9983
44.9082
39.8217
44.8701
51.091
56.6586
61.3193
65.233
68.3415
71.1574
73.5213
75.6193
77.6241
79.5956
81.5977
83.7658
86.0368
88.417
90.8664
93.3566
95.8119
98.1131
100.027
101.176
60.2734
44.5974
37.9212
41.9866
48.6305
54.248
59.07
63.0524
66.5926
69.3306
71.7542
73.9178
75.8831
77.8305
79.8715
81.9324
84.1163
86.3984
88.7724
91.1775
93.5467
95.7686
97.6163
98.7189
61.2476
43.61
35.9074
39.0521
45.2968
51.4981
56.6821
61.0747
64.3913
67.4528
69.9658
72.1234
74.1575
76.1055
78.0181
80.0975
82.25
84.491
86.7778
89.0955
91.3781
93.5183
95.297
96.3546
62.7217
42.9889
33.4794
34.5943
41.8966
48.2593
53.855
58.3373
62.4429
65.4435
68.0565
70.3649
72.3713
74.3088
76.3295
78.2933
80.3559
82.4941
84.7147
86.9538
89.1539
91.2179
92.9332
93.9454
56.1486
40.9743
30.6927
30.3806
36.3078
44.2078
50.5638
55.9773
59.7275
63.2787
66.0975
68.4058
70.5589
72.5515
74.4067
76.4379
78.5027
80.6268
82.7634
84.9178
87.0338
89.0172
90.6646
91.6323
50.9149
39.7747
27.696
20.6954
30.5317
38.737
46.4288
52.0723
57.3949
60.9137
63.903
66.5147
68.645
70.6333
72.7046
74.601
76.5626
78.5726
80.6538
82.7352
84.7709
86.6809
88.2671
89.1887
32.3473
33.4571
23.5333
11.683
11.4811
30.3665
40.66
48.8939
53.5992
58.2033
61.6204
64.2195
66.6288
68.7633
70.5961
72.6342
74.6529
76.6854
78.6835
80.6803
82.6324
84.4609
85.9779
86.8548
12.1609
13.0158
7.93604
16.1587
5.38892
17.8945
33.0158
41.9127
50.5256
55.1278
58.8838
62.0869
64.4632
66.5849
68.8134
70.6764
72.5549
74.4525
76.408
78.3373
80.2091
81.9652
83.4225
84.2505
9.7235
11.6344
14.499
16.4031
17.6439
7.68538
23.8149
36.7182
43.9786
51.3318
55.9948
59.1469
62.0552
64.4833
66.3288
68.4555
70.4897
72.4643
74.3326
76.1733
77.9592
79.6291
81.0123
81.795
4.2559
4.67386
10.5176
10.7814
19.0854
19.2948
19.4762
6.56811
39.2407
46.5529
52.1396
56.5734
59.407
61.805
64.3766
66.2456
68.0574
69.8523
71.6975
73.4762
75.1779
76.7746
78.099
78.8264
6.78321
11.493
9.74289
19.5286
20.8268
21.356
11.9854
10.7949
20.3327
40.3821
48.0338
52.3453
56.2944
59.2812
61.1676
63.5267
65.6703
67.6524
69.3967
71.0764
72.6861
74.187
75.4278
76.1084
11.3882
20.5165
22.703
18.4902
18.7724
23.9646
6.71846
21.7148
23.1818
28.4465
41.3116
48.836
52.5893
55.6067
58.9266
60.8495
62.631
64.3011
66.0571
67.6821
69.1989
70.6234
71.807
72.4199
11.7507
21.8674
26.7118
29.1713
24.3274
27.691
20.795
25.3209
15.1875
14.0305
33.0894
41.5139
48.1786
52.3185
54.2304
57.1565
59.5628
61.7272
63.3597
64.8662
66.2795
67.5928
68.6759
69.2413
11.8121
22.1913
27.9335
31.084
32.0109
26.7422
25.9382
3.52151
10.954
16.3381
23.4974
35.5836
41.6985
46.3282
51.5682
53.5892
55.4535
56.8882
58.5872
60.058
61.3643
62.5978
63.6319
64.1038
11.6339
20.4001
26.7995
31.3789
33.2837
32.9413
24.4166
26.82
24.4315
25.1714
23.3361
11.5856
33.1431
41.4679
43.1285
47.7382
50.8484
53.6637
55.2479
56.5587
57.7473
58.8445
59.7476
60.1794
11.6426
18.5929
25.0283
29.7306
32.8019
33.4751
32.7307
22.1615
22.6595
27.1456
4.80697
24.2521
23.963
27.549
40.2153
42.212
44.209
45.2314
46.977
48.3493
49.3886
50.4293
51.3286
51.6074
8.56266
16.7524
23.0826
27.7805
30.9483
32.7817
32.2548
31.7492
19.9127
6.50547
16.1025
19.6349
25.0576
12.9327
12.8586
29.4612
36.5185
41.0345
42.7623
43.7182
44.7739
45.5814
46.28
46.4671
7.48707
15.3406
20.9594
25.1811
28.3562
30.3168
31.3556
30.3227
31.3251
20.6522
29.9204
17.7928
6.77137
19.2423
24.8233
7.04474
4.74992
13.4251
18.6127
22.1719
21.4569
22.3576
23.5397
24.9383
5.02837
13.4422
17.9851
21.5265
24.429
26.6978
27.9271
29.2954
29.0525
31.6216
21.9088
20.2349
24.3332
10.5476
25.9605
26.4035
18.0322
20.1203
6.44083
29.1368
9.68147
23.7588
24.4112
31.7309
4.95887
12.207
14.7312
16.87
19.1642
21.428
23.6498
25.4074
28.2803
29.0753
32.0889
22.2226
18.9434
20.6426
22.403
21.104
27.5072
7.41128
21.4688
10.5168
22.2954
31.5006
32.487
12.557
3.83885
12.0791
12.4913
13.0685
14.1799
16.2731
18.8421
22.0099
24.591
28.3442
29.7524
32.4738
23.4983
22.6905
19.283
20.0302
7.94809
18.317
25.8191
31.4213
24.995
18.3382
24.7688
2.8876
3.32159
11.5468
11.6969
11.895
12.3618
14.0964
16.723
19.2623
22.5284
25.0809
28.8379
30.5566
32.5958
26.0423
21.1934
23.4057
24.4344
13.6085
22.6769
27.244
28.6985
25.1101
28.2944
19.2029
2.96965
11.1968
11.6111
11.7397
12.3766
14.603
17.0155
19.2906
21.1341
23.8194
26.0102
29.446
31.3043
32.4437
29.5039
18.9257
16.9963
27.86
9.79345
10.5502
20.4824
19.6656
8.00922
10.4743
1.99084
9.48394
11.5602
11.4793
12.6489
15.4403
18.014
19.9578
21.7914
23.0975
25.0996
26.9625
29.9798
31.8823
32.2904
32.2877
27.7403
23.0379
17.7351
14.7454
12.4942
11.2365
12.6232
12.328
2.38926
10.1066
11.6078
11.5682
14.191
17.1661
19.46
21.2876
22.6378
23.9824
24.821
26.2125
27.8408
30.2328
32.2193
31.9731
31.3758
30.7813
30.5081
30.2968
29.8325
29.6278
29.4696
29.7433
3.30701
11.4073
11.6078
13.2627
16.3551
19.0093
21.0994
22.7333
24.1189
25.037
25.8663
26.2786
27.1532
28.5613
30.2716
31.7032
31.4355
30.4653
28.7822
27.095
25.6794
24.796
24.6358
24.7857
3.45933
11.5362
12.9173
15.9045
18.7006
21.0086
22.8793
24.4301
25.6436
26.6359
27.1432
27.4734
27.5266
27.9367
29.0517
29.9953
30.264
29.8852
28.9009
27.6456
26.3893
25.7474
25.7452
26.0531
3.94007
12.0011
15.5845
18.4038
20.8153
22.894
24.6631
26.1555
27.4152
28.297
28.8747
28.9762
28.8501
28.6129
28.612
29.1184
29.2968
28.7989
27.3955
25.4644
23.621
22.6339
22.6911
23.173
5.79941
14.8952
18.089
20.5765
22.7855
24.7429
26.4569
27.9582
29.2021
30.1673
30.6968
30.8571
30.577
30.0456
29.5267
29.1182
28.7959
28.2121
27.0471
25.4412
23.8818
23.1506
23.425
24.0487
7.93138
16.9451
20.0541
22.4156
24.543
26.472
28.2082
29.752
31.0756
32.0617
32.6873
32.8541
32.6064
31.9718
31.0835
30.1991
29.3282
28.3275
26.9032
25.0693
23.3159
22.4823
22.844
23.5909
10.3374
18.807
21.7472
24.0636
26.1959
28.1497
29.9408
31.5614
32.9437
34.0243
34.7025
34.9724
34.7712
34.1264
33.1316
31.8941
30.5667
29.1669
27.5705
25.7856
24.2008
23.5546
24.0402
24.8503
11.5328
13.1535
15.1241
16.439
17.3786
17.7396
17.7117
17.2912
16.6763
15.897
15.0983
14.2822
13.5326
12.848
12.2694
11.8081
11.5197
11.5075
11.0977
10.9002
10.8989
11.093
11.5163
11.6337
11.8079
12.2589
12.8345
13.5162
14.2622
15.0746
15.869
16.6444
17.2547
17.6723
17.6963
17.3355
16.3932
15.0857
13.1045
11.4507
20.0642
20.8672
21.4533
21.7426
21.9274
21.9336
21.9066
21.7919
21.682
21.5389
21.417
21.2874
21.1755
21.0678
20.9765
20.896
20.8305
20.7799
20.746
20.7272
20.7267
20.7444
20.7773
20.8271
20.8915
20.971
21.0614
21.1682
21.2791
21.4079
21.5287
21.6709
21.7796
21.8934
21.9185
21.9117
21.7244
21.4351
20.8452
20.0433
22.8673
23.3905
23.7966
24.0252
24.2105
24.2905
24.3569
24.3624
24.3608
24.3254
24.29
24.2437
24.2014
24.1586
24.1209
24.0885
24.0613
24.0408
24.0258
24.0166
24.016
24.0241
24.038
24.0573
24.0835
24.1149
24.1515
24.1935
24.2349
24.2804
24.3151
24.3498
24.3507
24.3447
24.2775
24.1969
24.011
23.7813
23.3747
22.8491
25.1722
25.6421
26.0679
26.3358
26.5768
26.724
26.8586
26.9451
27.0256
27.0787
27.1276
27.1642
27.1993
27.2294
27.2569
27.2818
27.302
27.3179
27.3277
27.3306
27.3299
27.3257
27.3148
27.2976
27.2763
27.2504
27.2218
27.1907
27.1547
27.1173
27.0676
27.0138
26.9327
26.8456
26.7105
26.5626
26.3213
26.0526
25.6265
25.155
27.3229
27.7668
28.2199
28.516
28.8154
29.0289
29.2434
29.41
29.5771
29.7172
29.8544
29.9771
30.0948
30.2024
30.3008
30.3875
30.4601
30.5162
30.553
30.5689
30.5682
30.5509
30.5127
30.4554
30.3816
30.2937
30.1942
30.0857
29.9669
29.8435
29.7054
29.5647
29.3968
29.2297
29.0148
28.8008
28.501
28.2043
27.751
27.3062
29.3201
29.7527
30.253
30.5917
30.9619
31.2419
31.5362
31.7812
32.0313
32.254
32.4745
32.6779
32.8731
33.0527
33.217
33.3611
33.4813
33.5739
33.6351
33.6622
33.6614
33.6327
33.5702
33.4763
33.3546
33.2092
33.044
32.8632
32.6671
32.4628
32.2416
32.0182
31.7675
31.5219
31.2272
30.9469
30.5764
30.2374
29.7369
29.3037
31.1794
31.6129
32.1717
32.548
32.9823
33.3198
33.6822
33.9941
34.3139
34.6061
34.8954
35.1656
35.4241
35.6625
35.8797
36.0695
36.2275
36.3484
36.428
36.463
36.4623
36.4255
36.3445
36.2222
36.0629
35.8718
35.6534
35.4139
35.1543
34.8832
34.5931
34.3003
33.98
33.6674
33.3048
32.967
32.5324
32.1561
31.5969
31.1634
32.8697
33.3055
33.912
34.319
34.8027
35.1864
35.6009
35.9658
36.3391
36.685
37.0266
37.3474
37.6533
37.9351
38.1908
38.4135
38.5981
38.7388
38.831
38.8714
38.8706
38.8286
38.7348
38.5926
38.4067
38.1826
37.9257
37.6427
37.3358
37.0142
36.6718
36.3251
35.9513
35.586
35.1712
34.7872
34.3033
33.8963
33.2898
32.8541
34.326
34.751
35.4017
35.8286
36.3522
36.7706
37.2255
37.6302
38.0439
38.4298
38.8096
39.1667
39.5059
39.8178
40.0995
40.3441
40.546
40.6994
40.7997
40.8433
40.8426
40.7972
40.6954
40.5406
40.3373
40.0915
39.8084
39.4954
39.1553
38.7972
38.4166
38.0299
37.6157
37.2105
36.7553
36.3368
35.813
35.3861
34.7355
34.3106
35.4568
35.8874
36.5704
37.0209
37.5762
38.0263
38.5135
38.9517
39.3971
39.8144
40.2229
40.607
40.9698
41.3024
41.6015
41.86
42.0727
42.2338
42.3387
42.3844
42.3836
42.3364
42.2299
42.0674
41.8534
41.5935
41.2932
40.9595
40.5957
40.2107
39.8014
39.3833
38.9373
38.4987
38.0112
37.5608
37.0057
36.5551
35.8723
35.442
36.222
36.653
37.384
37.858
38.4507
38.9317
39.4525
39.9217
40.3968
40.8417
41.275
41.681
42.0627
42.4111
42.7228
42.9911
43.2111
43.3771
43.4852
43.5323
43.5315
43.483
43.3735
43.206
42.9847
42.7151
42.4022
42.0527
41.67
41.263
40.8289
40.3834
39.9077
39.4381
38.917
38.4357
37.8431
37.3692
36.6385
36.2076
36.5626
37.0317
37.8118
38.328
38.9621
39.4827
40.0399
40.5436
41.0493
41.5219
41.9792
42.4059
42.8046
43.1667
43.4892
43.7656
43.9913
44.1614
44.2721
44.3206
44.3198
44.2699
44.1579
43.9865
43.7595
43.4818
43.1583
42.795
42.3953
41.9677
41.5096
41.0363
40.53
40.0259
39.4685
38.9476
38.3136
37.7977
37.0179
36.5492
36.459
36.9862
37.8364
38.4087
39.0956
39.6647
40.2646
40.8074
41.3469
41.8494
42.3317
42.7795
43.1953
43.571
43.9037
44.1878
44.419
44.5931
44.7063
44.7563
44.7557
44.7043
44.5898
44.4145
44.1821
43.8968
43.563
43.1861
42.7695
42.3207
41.8376
41.3344
40.7945
40.2513
39.6512
39.082
38.3952
37.8231
36.9733
36.447
35.882
36.4757
37.4154
38.0623
38.8142
39.4412
40.091
40.6784
41.2557
41.7913
42.3008
42.7715
43.2054
43.5957
43.9394
44.2319
44.4692
44.6474
44.7637
44.8157
44.815
44.7619
44.6444
44.4649
44.2265
43.9329
43.5881
43.1969
42.762
42.2905
41.7801
41.244
40.6663
40.0785
39.4287
38.8015
38.0499
37.4033
36.4644
35.8713
34.8465
35.4902
36.4941
37.2338
38.0588
38.755
39.4597
40.0979
40.717
41.2893
41.8293
42.3256
42.7802
43.187
43.5438
43.8462
44.0909
44.2746
44.3946
44.449
44.4485
44.3929
44.2717
44.087
43.8412
43.5377
43.18
42.7722
42.3169
41.8198
41.2792
40.7063
40.0868
39.4484
38.7437
38.0475
37.223
36.4841
35.4809
34.8381
33.4621
34.0571
35.0771
35.8775
36.7726
37.5443
38.3065
38.9987
39.6622
40.2746
40.8479
41.3728
41.8511
42.2774
42.6499
42.9647
43.2189
43.4098
43.5348
43.5922
43.5916
43.5331
43.4072
43.2154
42.9602
42.6444
42.2712
41.8439
41.365
40.8394
40.2656
39.6528
38.9891
38.2969
37.5348
36.7637
35.8694
35.0698
34.0508
33.4568
31.8484
32.2856
33.2347
34.0293
34.9529
35.78
36.5973
37.3385
38.044
38.6948
39.3015
39.8562
40.3597
40.8077
41.198
41.5275
41.7933
41.9929
42.1239
42.1851
42.1846
42.1226
41.9906
41.7902
41.5236
41.1935
40.8024
40.3537
39.8496
39.2946
38.6875
38.0365
37.331
36.5902
35.7737
34.9475
34.025
33.2313
32.283
31.8456
30.0984
30.3077
31.1014
31.8114
32.6986
33.5302
34.373
35.1481
35.883
36.563
37.1962
37.7759
38.3021
38.7702
39.178
39.5222
39.7999
40.0087
40.1464
40.2115
40.2111
40.1453
40.007
39.7976
39.5193
39.1746
38.7663
38.2977
37.7713
37.1914
36.5581
35.8784
35.144
34.3698
33.5283
32.6979
31.8115
31.1023
30.3082
30.0974
28.2073
28.2219
28.8342
29.4147
30.2138
30.9965
31.8198
32.5963
33.3375
34.0272
34.6724
35.2653
35.8049
36.2863
36.7063
37.0615
37.3486
37.5648
37.708
37.7765
37.7762
37.7072
37.5638
37.3471
37.0597
36.7044
36.2841
35.8026
35.263
34.6702
34.0254
33.3364
32.5965
31.8213
30.9992
30.2175
29.4189
28.8382
28.2242
28.2061
26.2154
26.1575
26.6245
27.0993
27.7997
28.5126
29.2863
30.0338
30.7597
31.4399
32.0803
32.672
33.2127
33.6967
34.1204
34.4793
34.7701
34.9897
35.1355
35.206
35.2059
35.1353
34.9895
34.7699
34.479
34.1201
33.6966
33.2127
32.6724
32.0812
31.4415
30.7623
30.038
29.292
28.5196
27.8075
27.1071
26.6311
26.1618
26.2137
24.5073
24.5056
24.8906
25.3295
25.9573
26.6176
27.3362
28.0416
28.7314
29.3855
30.0053
30.5812
31.1092
31.5835
31.9994
32.3526
32.6391
32.8558
33
33.07
33.07
33.0001
32.856
32.6395
32.3531
32.0002
31.5846
31.1106
30.5829
30.0076
29.3886
28.7354
28.0471
27.3431
26.6255
25.9654
25.3372
24.8964
24.5082
24.5045
23.8098
23.8939
24.243
24.6797
25.2529
25.8677
26.5229
27.1714
27.809
28.4214
29.004
29.5477
30.0474
30.4972
30.892
31.2278
31.5004
31.7065
31.8439
31.9105
31.9105
31.844
31.7069
31.5007
31.2284
30.8928
30.4981
30.0487
29.5494
29.006
28.4239
27.8122
27.1755
26.5284
25.8744
25.2602
24.6872
24.2489
23.8991
23.8085
24.3316
24.442
24.7737
25.1852
25.7068
26.2621
26.848
27.4336
28.0147
28.5761
29.1117
29.6128
30.0739
30.4895
30.8548
31.1654
31.4177
31.6086
31.7356
31.7969
31.7968
31.7354
31.6085
31.4175
31.1652
30.8544
30.4892
30.0737
29.6126
29.1116
28.5761
28.0151
27.4344
26.8496
26.2645
25.7102
25.1886
24.777
24.4432
24.3301
25.1927
25.2915
25.6161
25.9974
26.4849
26.9963
27.5415
28.0874
28.631
29.1567
29.6588
30.129
30.5619
30.9522
31.2955
31.5875
31.8248
32.0041
32.1232
32.1803
32.1802
32.1229
32.0037
31.8241
31.5867
31.2945
30.9511
30.5606
30.1277
29.6575
29.1555
28.6299
28.0864
27.5409
26.9962
26.4855
25.9984
25.6173
25.2908
25.1909
64.9348
49.9992
53.6992
62.0098
68.4333
73.5448
77.6578
81.1194
84.1786
86.9592
89.5884
92.1092
94.62
97.2197
99.9623
102.869
105.955
109.199
112.569
115.998
119.38
122.542
125.171
126.776
63.9355
49.2785
52.2269
60.3328
66.6931
71.7909
75.8911
79.3385
82.3695
85.1252
87.6629
90.1036
92.5347
95.0332
97.6699
100.483
103.463
106.597
109.85
113.162
116.429
119.485
122.026
123.576
63.7822
49.0863
50.8278
58.6573
64.9565
70.0086
74.1191
77.5869
80.6219
83.2913
85.7846
88.1473
90.4795
92.8934
95.4427
98.1425
101.013
104.035
107.176
110.373
113.527
116.478
118.931
120.427
62.8536
48.3714
49.328
56.9055
63.1591
68.2431
72.3794
75.8524
78.8484
81.5294
83.9398
86.2273
88.4958
90.8151
93.2589
95.8761
98.6482
101.566
104.593
107.677
110.72
113.567
115.936
117.377
62.6896
48.2867
47.9128
55.1598
61.3949
66.4488
70.6154
74.1252
77.1662
79.7656
82.1518
84.3833
86.5572
88.8033
91.1775
93.684
96.3528
99.1642
102.088
105.064
108
110.749
113.035
114.425
61.0225
47.348
46.3709
53.3059
59.5035
64.642
68.8734
72.4178
75.4039
78.0644
80.3926
82.5591
84.6944
86.8597
89.1298
91.5711
94.1544
96.8722
99.6902
102.561
105.393
108.045
110.251
111.59
60.7278
46.991
44.884
51.4249
57.6715
62.7921
67.0675
70.6546
73.7551
76.3334
78.6695
80.8155
82.8655
84.9716
87.1975
89.531
92.0168
94.6353
97.3599
100.131
102.865
105.425
107.555
108.845
56.5079
46.4942
43.3065
49.3933
55.5834
60.8596
65.2509
68.9306
71.9484
74.6455
76.9575
79.0568
81.1029
83.1486
85.2695
87.5596
89.9764
92.5141
95.139
97.8126
100.45
102.921
104.975
106.217
67.8812
46.0173
41.7071
47.2192
53.5774
58.8587
63.3212
67.0404
70.2851
72.9011
75.2443
77.3696
79.3473
81.3524
83.4645
85.6484
87.971
90.4151
92.958
95.5399
98.0864
100.472
102.456
103.651
68.773
45.073
39.816
44.8543
51.0736
56.6368
61.3028
65.2352
68.3505
71.1643
73.5292
75.6189
77.6323
79.6035
81.6055
83.7746
86.0495
88.4265
90.8747
93.366
95.8215
98.1233
100.037
101.185
68.656
45.417
38.051
42.0066
48.6655
54.2913
59.1076
63.0674
66.5992
69.3396
71.7608
73.9324
75.8889
77.8378
79.879
81.939
84.1184
86.4051
88.7816
91.1873
93.5571
95.7788
97.6259
98.7292
62.9668
43.8488
35.9419
39.0523
45.2589
51.4588
56.6546
61.0769
64.4028
67.4609
69.9772
72.1275
74.17
76.114
78.0263
80.1071
82.2656
84.5022
86.7868
89.1058
91.3882
93.5289
95.3071
96.3645
57.8258
42.4296
33.5367
34.6435
41.9868
48.3434
53.9136
58.3551
62.4499
65.4542
68.0611
70.3737
72.3718
74.3165
76.3378
78.3003
80.3566
82.5002
84.725
86.9646
89.1657
91.2291
92.9446
93.9571
57.1268
41.0225
30.631
30.2571
36.1748
44.0987
50.5179
55.9857
59.7452
63.2886
66.114
68.4215
70.5811
72.5613
74.4153
76.4484
78.5205
80.6408
82.7734
84.9292
87.0449
89.0293
90.6756
91.6432
50.8153
39.6269
27.5386
21.4964
30.7619
38.9733
46.5171
52.0913
57.3993
60.9267
63.9049
66.5097
68.6352
70.641
72.7141
74.6086
76.5643
78.5772
80.6657
82.7474
84.7846
86.6936
88.28
89.2019
32.693
33.6218
23.7418
1.53799
13.5745
30.5735
40.7266
48.9207
53.6327
58.2167
61.6455
64.2589
66.6657
68.7757
70.6053
72.6463
74.67
76.7044
78.6948
80.6937
82.6452
84.4754
85.9901
86.8669
15.608
13.3939
12.6916
16.4028
6.79593
7.20834
32.543
41.9377
50.5216
55.1454
58.8804
62.0513
64.4408
66.5919
68.8244
70.6839
72.5612
74.4542
76.4223
78.3519
80.226
81.9804
83.4375
84.266
10.2702
12.3598
8.68011
16.756
17.7097
18.3877
6.90654
36.4675
44.0338
51.3518
56.0292
59.2401
62.107
64.4999
66.3396
68.4718
70.5054
72.4909
74.3458
76.1896
77.9742
79.6469
81.0268
81.8093
10.4287
9.9003
5.79122
11.1151
10.3271
8.90895
8.82042
14.4397
39.3829
46.5884
52.1588
56.4633
59.3783
61.8115
64.3891
66.2506
68.0642
69.8495
71.7154
73.4944
75.1998
76.7932
78.1179
78.8453
9.46324
11.9207
11.3572
2.61
6.2554
21.2827
20.8319
21.1427
19.8185
40.3388
47.9926
52.5557
56.3506
59.3032
61.1817
63.5514
65.7044
67.6913
69.4129
71.0972
72.7042
74.2097
75.4446
76.1257
11.5317
20.529
22.6584
17.9894
9.53701
23.4945
5.98239
21.9303
14.3488
29.2604
41.5362
48.6093
52.5846
55.6141
58.9406
60.8516
62.5923
64.2882
66.0807
67.7065
69.2289
70.6477
71.8325
72.4442
11.8746
21.9264
26.7788
29.3211
24.6472
11.2116
26.1151
24.4232
14.7823
3.5825
33.5044
41.8332
48.1698
52.3474
54.2517
57.1883
59.7131
61.7967
63.381
64.8941
66.303
67.6235
68.6961
69.263
11.9772
22.2629
28.0287
31.1633
32.0738
26.0857
19.9009
3.71851
25.1069
22.6982
8.35252
35.5419
41.9209
46.3571
51.5845
53.6046
55.1986
56.8299
58.6218
60.0951
61.4091
62.6328
63.6676
64.1394
11.3819
20.4856
26.9087
31.5026
33.4228
33.0992
24.3078
23.3425
18.3824
20.7883
22.7996
7.58233
32.837
41.4209
43.1694
47.7484
51.3826
53.8454
55.276
56.5989
57.78
58.8887
59.7789
60.2082
11.4153
18.6523
25.1176
29.8313
32.9009
33.6005
32.7944
21.6487
17.6054
18.6208
24.0833
22.9875
18.8831
28.3273
40.219
42.352
43.4068
44.9799
47.056
48.4142
49.4714
50.4941
51.3687
51.656
8.80917
16.8277
23.1607
27.8717
31.0551
32.879
32.3893
31.9147
19.7582
23.0145
8.64581
9.12616
24.1432
25.2766
13.6297
28.854
37.5293
41.497
42.6881
43.8717
44.8151
45.6542
46.38
46.6342
7.34788
15.3583
21.0141
25.2547
28.44
30.4147
31.4381
30.3853
31.503
20.3219
10.3516
12.1025
11.2126
5.14252
24.6893
15.4142
8.76371
14.5247
20.4845
20.7896
21.8749
22.6154
23.9223
23.77
5.20248
13.4929
18.0381
21.5899
24.5065
26.7809
28.0231
29.4037
29.083
31.6302
21.3312
16.2194
11.1692
24.8504
25.6744
21.0496
4.29519
27.7769
28.3027
22.4399
9.21221
24.0518
11.3893
11.2924
4.89662
12.158
14.7501
16.9078
19.2183
21.4975
23.7212
25.472
28.3858
29.1814
32.1847
22.1913
25.0543
27.9119
16.4665
13.8779
27.0747
20.568
7.63091
30.3475
23.6013
30.9561
23.1929
25.1148
3.86563
11.4287
12.4807
13.079
14.2061
16.316
18.8993
22.0823
24.643
28.3997
29.8143
32.534
23.545
21.3846
19.4218
12.5858
10.5412
19.5482
25.189
18.7373
10.634
31.2933
27.2194
18.4267
3.33686
11.3035
11.692
11.897
12.3733
14.1224
16.7521
19.2906
22.5835
25.1474
28.9091
30.633
32.7067
26.0054
23.9517
29.5162
11.5119
20.3409
28.8959
2.93503
31.6403
21.043
25.7786
29.9294
3.02368
11.5369
11.6328
11.751
12.3981
14.6319
17.0413
19.3194
21.1557
23.8496
26.0572
29.5162
31.385
32.4922
29.747
19.2787
18.7097
19.739
26.3736
31.6042
14.8672
15.0109
19.6064
8.13675
2.01028
9.51665
11.495
11.7359
12.6816
15.4696
18.037
19.9738
21.8139
23.1247
25.134
27.0079
30.0519
31.949
32.2884
32.3454
27.862
22.5228
17.2213
15.3615
13.2358
11.9421
10.2588
12.6263
2.40876
10.1375
11.4953
11.5493
14.2218
17.193
19.4808
21.3073
22.6521
23.9959
24.8381
26.2411
27.8714
30.2869
32.2922
32.011
31.4529
30.9622
30.5474
30.3724
29.9622
29.7226
29.7311
29.8374
3.32421
11.4413
11.6298
13.3074
16.3876
19.0326
21.1178
22.7477
24.1343
25.0527
25.882
26.2939
27.179
28.5827
30.311
31.7482
31.5354
30.5181
28.8475
27.2175
25.7935
24.8795
24.6915
24.8688
3.51724
11.5084
12.9521
15.9344
18.7248
21.0288
22.8964
24.446
25.6568
26.6476
27.1545
27.4861
27.5374
27.9556
29.0732
30.0219
30.3171
29.9652
28.9725
27.7262
26.4898
25.8233
25.8371
26.1327
3.96054
12.0356
15.6158
18.4294
20.8371
22.9126
24.6792
26.1695
27.4289
28.3102
28.8871
28.987
28.8614
28.6221
28.6255
29.1354
29.335
28.8381
27.4428
25.5358
23.6888
22.6905
22.7446
23.217
5.82087
14.9187
18.1119
20.5975
22.8044
24.7601
26.4727
27.9732
29.2156
30.1796
30.7082
30.8681
30.5866
30.0547
29.5343
29.1279
28.8128
28.2431
27.0799
25.4751
23.9218
23.1726
23.4576
24.0776
7.96038
16.9707
20.0759
22.4349
24.561
26.4888
28.2238
29.7667
31.0898
32.0753
32.7
32.8658
32.617
31.9808
31.091
30.2042
29.3373
28.3396
26.9205
25.0928
23.338
22.5008
22.8584
23.6032
10.3628
18.8264
21.7649
24.081
26.2129
28.1662
29.9567
31.5769
32.9584
34.0383
34.7157
34.9849
34.7826
34.136
33.1392
31.8995
30.5704
29.1727
27.5781
25.7932
24.212
23.557
24.0487
24.8594
64.2953
63.9771
67.8864
74.6698
73.668
66.8055
65.9346
55.112
52.6615
23.0439
45.0199
26.3538
8.05087
18.0456
14.3813
15.8685
13.4718
14.2204
13.5056
13.4111
13.4047
13.5584
14.0443
13.556
16.7876
11.9966
19.2952
12.0789
36.6931
21.9337
51.2083
59.7362
61.6836
57.5018
57.3344
63.6016
57.2701
73.8038
68.7465
65.5582
49.599
47.5361
46.6227
44.4784
43.1298
40.7879
39.8664
37.6213
36.1804
34.8711
34.1801
33.2374
33.1768
31.9786
31.8217
31.1795
30.9538
30.5616
30.3998
30.273
30.2732
30.3922
30.5843
30.9364
31.1246
31.8868
32.0668
33.0212
33.1761
34.4865
34.872
37.2328
38.0761
40.0511
40.7792
43.4914
44.3542
46.7326
47.7226
49.9549
54.2457
52.693
52.2359
50.7652
50.218
48.8906
48.3037
47.152
46.5528
45.5395
44.8928
44.0661
43.4848
42.9253
42.4017
41.9873
41.6285
41.3816
41.187
41.0858
41.0854
41.1889
41.3757
41.6277
41.9968
42.4011
42.8968
43.4978
44.0791
44.904
45.5366
46.4694
47.0699
48.2439
48.8527
50.1712
50.7452
52.2192
52.6751
54.239
62.6739
61.1733
60.6563
59.2169
58.5672
57.2489
56.542
55.3844
54.6784
53.711
53.0207
52.2327
51.6358
51.0183
50.5376
50.0979
49.7596
49.4873
49.3067
49.2038
49.2037
49.3055
49.4883
49.7582
50.0945
50.5355
51.0234
51.6284
52.2357
53.0274
53.6918
54.6643
55.3793
56.5404
57.2457
58.568
59.2167
60.6542
61.1646
62.6683
69.0816
67.5378
66.938
65.4784
64.7575
63.441
62.6644
61.5219
60.7434
59.785
59.0493
58.2673
57.6296
57.0253
56.5144
56.0766
55.7236
55.4555
55.2681
55.167
55.1668
55.2681
55.454
55.7225
56.0765
56.5141
57.0206
57.6284
58.2676
59.0464
59.7774
60.7337
61.5132
62.657
63.4333
64.7513
65.4711
66.9328
67.5287
69.0783
74.1758
72.5912
71.9154
70.4449
69.6507
68.3442
67.4999
66.3732
65.5413
64.5918
63.8246
63.0441
62.3878
61.7733
61.2582
60.8124
60.456
60.1811
59.9942
59.8923
59.8922
59.9936
60.1808
60.4552
60.8108
61.2562
61.7724
62.3858
63.0416
63.8217
64.5862
65.5348
66.3679
67.4947
68.3398
69.646
70.4403
71.9107
72.5849
74.1719
78.2451
76.6422
75.8896
74.4261
73.5668
72.2765
71.382
70.2666
69.4014
68.4544
67.6691
66.8865
66.2194
65.6027
65.079
64.6309
64.2699
63.994
63.8044
63.7026
63.7025
63.8042
63.9932
64.2688
64.6299
65.0778
65.6006
66.217
66.8842
67.6659
68.4502
69.3968
70.2621
71.3774
72.2722
73.5615
74.4216
75.8836
76.6377
78.2392
81.6671
80.0549
79.244
77.7866
76.8827
75.5988
74.6732
73.5588
72.6731
71.7232
70.9242
70.1374
69.4603
68.8385
68.3091
67.8559
67.4906
67.2106
67.0188
66.915
66.9148
67.0183
67.2099
67.4897
67.8546
68.3073
68.8367
69.4582
70.1348
70.9212
71.7196
72.6692
73.5547
74.6691
75.5943
76.8781
77.7819
79.2388
80.0501
81.6612
84.7105
83.0691
82.2278
80.7579
79.8297
78.5387
77.5936
76.473
75.5712
74.6151
73.8032
73.01
72.323
71.6946
71.1574
70.6985
70.3275
70.0429
69.8467
69.7397
69.7395
69.8463
70.0421
70.3264
70.6972
71.1559
71.6928
72.3208
73.0075
73.8003
74.6119
75.5675
76.4692
77.5895
78.5344
79.8251
80.753
82.2228
83.0637
84.7054
87.5279
85.83
84.9818
83.4848
82.5413
81.2359
80.2733
79.1426
78.2244
77.2591
76.4334
75.6311
74.933
74.2961
73.7502
73.2839
72.9061
72.6156
72.4146
72.3031
72.303
72.4141
72.6148
72.9051
73.2826
73.7486
74.2943
74.9309
75.6286
76.4306
77.256
78.221
79.1389
80.2693
81.2316
82.5367
83.48
84.9765
85.8249
87.5223
90.1738
88.4375
87.5717
86.0521
85.089
83.7674
82.7858
81.6413
80.7061
79.728
78.8878
78.0736
77.3634
76.7163
76.1605
75.6857
75.3003
75.0032
74.7965
74.68
74.6799
74.796
75.0025
75.2993
75.6844
76.1589
76.7144
77.3613
78.0712
78.885
79.7249
80.7028
81.6376
82.7819
83.7632
85.0844
86.0473
87.5665
88.4322
90.1682
92.7425
90.9423
90.0813
88.52
87.5498
86.2004
85.2057
84.0409
83.0906
82.0965
81.2415
80.4142
79.6911
79.0329
78.4667
77.983
77.5897
77.2858
77.0731
76.9514
76.9512
77.0727
77.2851
77.5886
77.9818
78.4652
79.0311
79.689
80.4118
81.2388
82.0934
83.0873
84.0373
85.2018
86.1961
87.5453
88.5151
90.0762
90.9368
92.7371
95.3104
93.4427
92.5879
90.9847
90.0053
88.6291
87.6182
86.434
85.4661
84.4563
83.5852
82.7445
82.0078
81.3382
80.7613
80.2685
79.867
79.5563
79.3377
79.2107
79.2105
79.3373
79.5556
79.866
80.2672
80.7598
81.3363
82.0057
82.7421
83.5825
84.4534
85.4628
86.4305
87.6142
88.6249
90.0007
90.98
92.5826
93.4375
95.3044
97.958
96.0298
95.1747
93.5321
92.5397
91.1365
90.1073
88.9025
87.9158
86.8888
86.0007
85.1452
84.3943
83.7125
83.1244
82.6219
82.2122
81.8945
81.67
81.5378
81.5376
81.6696
81.8938
82.2112
82.6207
83.1228
83.7106
84.3922
85.1428
85.998
86.8858
87.9126
88.8989
90.1034
91.1323
92.5351
93.5273
95.1696
96.0242
97.9521
100.752
98.7575
97.9029
96.2161
95.21
93.776
92.7274
91.4992
90.4923
89.4456
88.5388
87.6671
86.9008
86.2054
85.6052
85.0924
84.6738
84.3489
84.1184
83.981
83.9809
84.1179
84.3481
84.6728
85.0911
85.6036
86.2036
86.8987
87.6649
88.5362
89.4424
90.4887
91.4956
92.7237
93.7718
95.2053
96.2113
97.8976
98.7521
100.746
103.723
101.651
100.8
99.0626
98.0423
96.5734
95.5033
94.2484
93.2191
92.1508
91.2237
90.3336
89.5498
88.8399
88.2263
87.7021
87.274
86.9414
86.7046
86.5623
86.5623
86.7042
86.9405
87.2732
87.7009
88.2247
88.8378
89.5476
90.331
91.2207
92.1478
93.2156
94.2449
95.4992
96.5694
98.0373
99.0575
100.794
101.645
103.717
106.868
104.719
103.865
102.077
101.037
99.5329
98.4369
97.1543
96.0993
95.0075
94.0571
93.1472
92.345
91.6185
90.9903
90.4542
90.0159
89.6749
89.4317
89.2842
89.2842
89.4313
89.6741
90.0147
90.453
90.9887
91.6168
92.3425
93.1447
94.0546
95.0042
96.0955
97.1505
98.4331
99.5285
101.032
102.072
103.859
104.714
106.861
110.173
107.945
107.086
105.245
104.183
102.641
101.517
100.204
99.1214
98.0041
97.0294
96.0982
95.2752
94.5314
93.8878
93.3386
92.8893
92.5397
92.2899
92.1372
92.1372
92.2891
92.5389
92.8881
93.3371
93.8862
94.5295
95.2732
96.0958
97.0265
98.0013
99.1177
100.2
101.513
102.636
104.178
105.241
107.08
107.94
110.167
113.603
111.296
110.426
108.534
107.446
105.866
104.711
103.368
102.255
101.112
100.111
99.1565
98.3122
97.55
96.8901
96.327
95.8662
95.5073
95.2508
95.0934
95.0934
95.2505
95.5066
95.8651
96.3255
96.8882
97.5481
98.3099
99.1542
100.108
101.108
102.251
103.364
104.707
105.862
107.441
108.529
110.421
111.29
113.596
117.092
114.706
113.826
111.883
110.767
109.149
107.962
106.587
105.444
104.273
103.245
102.268
101.401
100.621
99.9435
99.3661
98.8936
98.526
98.2624
98.0999
98.0999
98.2617
98.5249
98.8925
99.3646
99.9416
100.618
101.399
102.265
103.242
104.27
105.44
106.584
107.958
109.144
110.761
111.877
113.821
114.7
117.086
120.533