/*--------------------------------*- C++ -*----------------------------------*\
  =========                 |
  \\      /  F ield         | OpenFOAM: The Open Source CFD Toolbox
   \\    /   O peration     | Website:  https://openfoam.org
    \\  /    A nd           | Version:  6
     \\/     M anipulation  |
\*---------------------------------------------------------------------------*/
FoamFile
{
    version     2.0;
    format      ascii;
    class       volScalarField;
    location    "0.4";
    object      k;
}
// * * * * * * * * * * * * * * * * * * * * * * * * * * * * * * * * * * * * * //

dimensions      [0 2 -2 0 0 0 0];

internalField   nonuniform List<scalar> 
63568
(
0.00029336
0.000327375
0.000303114
0.000287607
0.000282806
0.000281233
0.000280299
0.000280094
0.000279612
0.000284048
0.000297906
0.000285082
0.000273593
0.000273459
0.00027632
0.000278375
0.00027954
0.000280387
0.000281229
0.000282168
0.000283237
0.000284465
0.000285886
0.00028749
0.000289459
0.000291294
0.000294474
0.000296373
0.000298586
0.000303252
0.000308859
0.000313966
0.000319996
0.000324402
0.000333289
0.000276369
0.000317463
0.000299524
0.000285768
0.000281098
0.000279454
0.000278497
0.000277984
0.000277462
0.000279156
0.000281958
0.000275016
0.000270214
0.000271552
0.000274637
0.000277242
0.00027916
0.000280699
0.000282112
0.000283535
0.000285046
0.000286693
0.000288524
0.00029053
0.00029291
0.000295131
0.00029875
0.000300982
0.000303545
0.000308463
0.000314812
0.000318836
0.000328188
0.000323686
0.000347068
0.000247752
0.000250725
0.00022858
0.000218227
0.000215555
0.000214932
0.000214686
0.000214851
0.000214969
0.000218217
0.000219913
0.000215802
0.000213694
0.000214815
0.000216235
0.000217148
0.000217835
0.000218567
0.000219436
0.000220449
0.000221603
0.000222901
0.00022436
0.000225959
0.000227841
0.00022957
0.000232421
0.000233916
0.000236195
0.000240117
0.000244553
0.000247853
0.000253115
0.000253684
0.000265534
0.000231424
0.00024036
0.000223728
0.000215081
0.000212732
0.000212303
0.000212253
0.00021259
0.000212255
0.000216271
0.000220116
0.000210957
0.000207083
0.000209712
0.000212919
0.000215023
0.000216401
0.000217546
0.000218682
0.000219882
0.000221177
0.000222585
0.000224132
0.000225801
0.000227735
0.000229498
0.000232368
0.000233867
0.000236101
0.000240016
0.000244241
0.0002479
0.000251789
0.000255371
0.000260318
0.000215219
0.000230882
0.000219816
0.000212962
0.000211081
0.000210845
0.0002109
0.000211051
0.00021096
0.000211947
0.000210126
0.000206181
0.000205797
0.000208364
0.00021136
0.000213826
0.00021577
0.000217422
0.00021896
0.000220489
0.00022207
0.00022374
0.000225533
0.00022744
0.000229608
0.000231597
0.00023469
0.000236386
0.000238778
0.000242813
0.000247155
0.000250483
0.000254544
0.0002553
0.000261411
0.000190936
0.000184771
0.000170956
0.000165262
0.000163929
0.000163922
0.000164159
0.000164636
0.000164483
0.000167991
0.000166547
0.000161349
0.00016136
0.0001643
0.000166716
0.00016817
0.000169165
0.000170068
0.000171019
0.000172053
0.000173177
0.000174395
0.00017572
0.000177132
0.000178738
0.000180183
0.000182509
0.000183559
0.000185574
0.000188644
0.000191836
0.000193986
0.000197688
0.000197475
0.000206612
0.000175692
0.000174559
0.000165038
0.000161475
0.000161149
0.000161662
0.000162167
0.000162676
0.000162601
0.000164974
0.000162765
0.000158229
0.000158653
0.000161651
0.000164297
0.000166151
0.000167559
0.000168797
0.000169992
0.000171195
0.00017244
0.000173747
0.000175136
0.000176595
0.000178235
0.000179701
0.000182034
0.000183078
0.000185067
0.000188034
0.000191173
0.00019278
0.000196615
0.000194038
0.000203573
0.000154579
0.00014124
0.000130198
0.000126707
0.000126252
0.000126646
0.000127106
0.000127637
0.000127662
0.00013023
0.000127519
0.000124887
0.000126235
0.000128635
0.000130265
0.000131217
0.000131918
0.000132599
0.000133338
0.000134148
0.000135027
0.000135973
0.000136993
0.000138067
0.000139277
0.000140342
0.000142091
0.000142727
0.000144362
0.00014667
0.000148841
0.000150302
0.00015245
0.00015284
0.000157408
0.000140535
0.000132105
0.000125083
0.000123561
0.000124026
0.00012488
0.000125553
0.000126158
0.00012608
0.000128641
0.000125025
0.000121544
0.000123053
0.000125952
0.000128088
0.000129473
0.000130512
0.00013144
0.000132345
0.000133262
0.000134211
0.000135202
0.00013625
0.000137341
0.000138559
0.000139624
0.000141362
0.000141984
0.000143593
0.000145831
0.000147961
0.000149111
0.000151332
0.000150315
0.000155202
0.000123665
0.000107461
9.91162e-05
9.72748e-05
9.74744e-05
9.81046e-05
9.86268e-05
9.91028e-05
9.92218e-05
0.000100959
9.85907e-05
9.74519e-05
9.89515e-05
0.000100639
0.000101634
0.000102211
0.000102687
0.000103194
0.00010376
0.000104382
0.000105054
0.000105772
0.00010654
0.000107342
0.000108239
0.000109012
0.000110313
0.000110683
0.000111982
0.000113693
0.000115189
0.000116077
0.000117522
0.000117389
0.000121008
0.000111294
9.94165e-05
9.47088e-05
9.46402e-05
9.56333e-05
9.66291e-05
9.73074e-05
9.78781e-05
9.77881e-05
0.000100197
9.61246e-05
9.38375e-05
9.57385e-05
9.81434e-05
9.97052e-05
0.000100678
0.00010142
0.000102098
0.000102768
0.000103448
0.000104151
0.000104884
0.000105655
0.000106454
0.000107341
0.000108102
0.000109381
0.000109732
0.000111003
0.000112661
0.000114127
0.000114829
0.000116352
0.000115364
0.000119286
9.68248e-05
8.02409e-05
7.44486e-05
7.38978e-05
7.45674e-05
7.5292e-05
7.57838e-05
7.61747e-05
7.6318e-05
7.74882e-05
7.56767e-05
7.52941e-05
7.66025e-05
7.77325e-05
7.83105e-05
7.86535e-05
7.8982e-05
7.93596e-05
7.97868e-05
8.0254e-05
8.07557e-05
8.12884e-05
8.18531e-05
8.24398e-05
8.30915e-05
8.36454e-05
8.45998e-05
8.47998e-05
8.58084e-05
8.70699e-05
8.80896e-05
8.86442e-05
8.95489e-05
8.93764e-05
9.17313e-05
8.53134e-05
7.29454e-05
7.06293e-05
7.17311e-05
7.30764e-05
7.40704e-05
7.46681e-05
7.51421e-05
7.50782e-05
7.69918e-05
7.33616e-05
7.20605e-05
7.37832e-05
7.55523e-05
7.664e-05
7.73291e-05
7.78728e-05
7.83747e-05
7.88685e-05
7.93687e-05
7.98847e-05
8.04211e-05
8.09829e-05
8.15622e-05
8.22023e-05
8.27432e-05
8.36774e-05
8.38628e-05
8.48484e-05
8.60705e-05
8.70697e-05
8.75055e-05
8.84873e-05
8.7735e-05
9.04927e-05
7.25545e-05
5.76038e-05
5.43478e-05
5.48753e-05
5.58408e-05
5.6528e-05
5.69259e-05
5.72262e-05
5.73114e-05
5.82502e-05
5.65723e-05
5.64708e-05
5.76207e-05
5.84498e-05
5.88222e-05
5.90505e-05
5.92951e-05
5.9583e-05
5.99046e-05
6.02512e-05
6.06191e-05
6.10067e-05
6.14149e-05
6.18374e-05
6.23036e-05
6.26963e-05
6.33849e-05
6.34829e-05
6.42518e-05
6.51736e-05
6.58626e-05
6.62035e-05
6.67572e-05
6.65767e-05
6.81182e-05
6.19929e-05
5.12604e-05
5.11723e-05
5.31454e-05
5.46385e-05
5.5499e-05
5.59622e-05
5.63176e-05
5.62852e-05
5.76171e-05
5.48713e-05
5.41409e-05
5.54024e-05
5.66212e-05
5.73971e-05
5.7913e-05
5.83228e-05
5.86942e-05
5.90548e-05
5.94184e-05
5.97916e-05
6.01783e-05
6.05816e-05
6.0996e-05
6.1451e-05
6.18329e-05
6.25045e-05
6.25925e-05
6.33441e-05
6.42391e-05
6.49131e-05
6.51837e-05
6.57937e-05
6.52584e-05
6.71476e-05
5.03927e-05
3.87152e-05
3.77646e-05
3.90778e-05
4.01167e-05
4.06463e-05
4.09173e-05
4.11306e-05
4.11383e-05
4.19682e-05
4.02645e-05
4.02689e-05
4.12575e-05
4.18926e-05
4.21687e-05
4.23536e-05
4.2552e-05
4.27729e-05
4.30095e-05
4.32588e-05
4.35202e-05
4.37936e-05
4.40799e-05
4.43751e-05
4.4698e-05
4.49704e-05
4.54518e-05
4.54897e-05
4.60619e-05
4.67229e-05
4.71771e-05
4.73829e-05
4.76877e-05
4.75753e-05
4.84183e-05
4.094e-05
3.36442e-05
3.53439e-05
3.77567e-05
3.91357e-05
3.97489e-05
4.00555e-05
4.02944e-05
4.02869e-05
4.10734e-05
3.93693e-05
3.87736e-05
3.94733e-05
4.03335e-05
4.09663e-05
4.13838e-05
4.16884e-05
4.19519e-05
4.22059e-05
4.24618e-05
4.27241e-05
4.29946e-05
4.32752e-05
4.35633e-05
4.38771e-05
4.41412e-05
4.46081e-05
4.46392e-05
4.52003e-05
4.58476e-05
4.62842e-05
4.64697e-05
4.6748e-05
4.66109e-05
4.73441e-05
3.02886e-05
2.3768e-05
2.44564e-05
2.57595e-05
2.64536e-05
2.67156e-05
2.68513e-05
2.69758e-05
2.69284e-05
2.75437e-05
2.61256e-05
2.61773e-05
2.68446e-05
2.72608e-05
2.74914e-05
2.76711e-05
2.78372e-05
2.79984e-05
2.81608e-05
2.83283e-05
2.85022e-05
2.86829e-05
2.88712e-05
2.90653e-05
2.92745e-05
2.94564e-05
2.97642e-05
2.97758e-05
3.01777e-05
3.06261e-05
3.09199e-05
3.0997e-05
3.12731e-05
3.08052e-05
3.22538e-05
2.02829e-05
1.28449e-05
1.22955e-05
1.30227e-05
1.34478e-05
1.35519e-05
1.35947e-05
1.36255e-05
1.36639e-05
1.361e-05
1.3618e-05
1.42886e-05
1.44174e-05
1.41364e-05
1.39646e-05
1.39706e-05
1.40499e-05
1.41435e-05
1.42399e-05
1.43402e-05
1.44449e-05
1.45543e-05
1.46684e-05
1.47861e-05
1.49128e-05
1.50226e-05
1.52129e-05
1.52017e-05
1.54348e-05
1.57664e-05
1.59906e-05
1.60645e-05
1.61081e-05
1.60247e-05
1.62241e-05
9.71053e-06
1.05793e-05
1.15463e-05
1.23738e-05
1.27537e-05
1.28607e-05
1.29189e-05
1.29697e-05
1.29446e-05
1.31734e-05
1.25061e-05
1.23378e-05
1.25905e-05
1.28925e-05
1.31144e-05
1.32618e-05
1.33717e-05
1.34697e-05
1.35664e-05
1.36647e-05
1.37658e-05
1.38699e-05
1.39776e-05
1.4088e-05
1.42068e-05
1.43092e-05
1.44879e-05
1.44801e-05
1.46985e-05
1.5001e-05
1.52022e-05
1.52863e-05
1.52886e-05
1.53277e-05
1.53055e-05
2.94076e-05
3.60763e-05
4.71653e-05
4.79716e-05
4.83196e-05
4.91929e-05
4.98144e-05
5.039e-05
5.03871e-05
5.27557e-05
4.5018e-05
4.61227e-05
4.95295e-05
5.13426e-05
5.18873e-05
5.19484e-05
5.18948e-05
5.18209e-05
5.17411e-05
5.16592e-05
5.15785e-05
5.15006e-05
5.14268e-05
5.13588e-05
5.12822e-05
5.12764e-05
5.09762e-05
5.15375e-05
5.06383e-05
4.99904e-05
5.00653e-05
5.05013e-05
5.12423e-05
5.14778e-05
5.28056e-05
0.00104712
0.000987866
0.000984213
0.000990408
0.000989847
0.00098794
0.000986426
0.000985734
0.000982251
0.000987411
0.00097143
0.000957717
0.000962822
0.000973012
0.000979448
0.000982594
0.00098432
0.000985524
0.000986519
0.000987428
0.000988311
0.000989201
0.000990141
0.000991018
0.000992306
0.000992691
0.000995098
0.000995016
0.000996351
0.000999099
0.00100138
0.00100293
0.00100396
0.00100445
0.00100662
0.00102908
0.000979688
0.000981015
0.00098912
0.00098881
0.000986749
0.000985223
0.000984215
0.000982019
0.000983451
0.000973676
0.000964958
0.000967146
0.000973238
0.000977965
0.000980998
0.000983099
0.000984702
0.000986021
0.000987187
0.000988291
0.000989374
0.000990503
0.000991551
0.000993026
0.000993553
0.000996182
0.000996185
0.000997762
0.0010005
0.0010036
0.00100352
0.00100877
0.00100192
0.00101529
0.00101429
0.000958414
0.000948565
0.000951074
0.000949915
0.000948325
0.000947192
0.000946579
0.000944475
0.000947293
0.000937246
0.000929691
0.000933978
0.00094091
0.000945067
0.00094694
0.000947982
0.000948871
0.000949783
0.000950747
0.000951764
0.000952829
0.00095398
0.000955086
0.000956625
0.000957236
0.000960005
0.000959983
0.00096174
0.000964789
0.000967516
0.000968594
0.000971041
0.000969219
0.000974959
0.000995556
0.000946088
0.000942592
0.000947724
0.000947049
0.000945515
0.000944461
0.000944284
0.000941043
0.000947698
0.000930253
0.0009175
0.000924074
0.00093436
0.00094054
0.000943636
0.000945484
0.000946879
0.000948093
0.000949236
0.000950369
0.000951513
0.000952718
0.000953862
0.000955423
0.000956048
0.000958818
0.000958794
0.0009605
0.000963648
0.000965989
0.000967972
0.000968307
0.000970084
0.00097098
0.000972512
0.000935309
0.000938242
0.000945774
0.000945544
0.00094399
0.000943018
0.000942455
0.000941018
0.00094207
0.000934467
0.000927754
0.000929145
0.000933877
0.000938178
0.000941382
0.000943776
0.000945655
0.000947228
0.000948645
0.000949998
0.000951329
0.000952703
0.000954004
0.000955716
0.000956483
0.000959391
0.000959506
0.000961321
0.000964625
0.000967008
0.000969224
0.000969751
0.000970879
0.000974602
0.000951545
0.000906862
0.000899364
0.000901598
0.000900278
0.000898917
0.000898181
0.00089828
0.000895577
0.000902279
0.000886382
0.000876098
0.000882893
0.000892133
0.000897485
0.000900094
0.000901666
0.000902937
0.000904138
0.000905354
0.000906612
0.000907914
0.000909298
0.000910643
0.000912399
0.000913238
0.000916255
0.000916312
0.000918367
0.000921638
0.0009246
0.000925398
0.000928825
0.000924955
0.000933979
0.000925704
0.000891686
0.000890753
0.000895642
0.000895429
0.000894684
0.000894361
0.000894545
0.000892504
0.000897525
0.000883847
0.000874608
0.000879681
0.000887451
0.000892624
0.000895743
0.000897926
0.000899695
0.000901253
0.000902709
0.000904128
0.000905541
0.000907004
0.000908406
0.000910201
0.000911072
0.000914107
0.000914173
0.00091625
0.000919454
0.000922616
0.000922859
0.000927554
0.000921444
0.000933835
0.000898081
0.000857748
0.000845659
0.000844988
0.000843552
0.000842862
0.000842784
0.000843298
0.000841391
0.000847596
0.000833975
0.000826697
0.00083338
0.000841178
0.000845448
0.000847497
0.000848811
0.000849983
0.000851177
0.000852437
0.000853765
0.000855156
0.000856634
0.000858085
0.000859925
0.000860879
0.000864008
0.000864042
0.000866277
0.000869749
0.000872584
0.000873861
0.00087594
0.000874796
0.00087913
0.000868361
0.000838798
0.000834715
0.000837649
0.000837787
0.000837939
0.000838342
0.000839169
0.000837091
0.000844311
0.000828031
0.000818893
0.000825613
0.000834076
0.000839304
0.000842337
0.000844438
0.00084616
0.000847713
0.000849198
0.000850672
0.000852157
0.000853692
0.000855185
0.00085705
0.000858021
0.000861154
0.000861185
0.000863426
0.000866847
0.000869793
0.000870736
0.000873562
0.000871198
0.000877482
0.000838125
0.000799906
0.000782744
0.000780205
0.000779546
0.000779864
0.000780489
0.000781345
0.000780198
0.000785596
0.000774203
0.000769684
0.000776208
0.000782669
0.000785875
0.000787351
0.000788425
0.000789533
0.000790751
0.000792066
0.000793468
0.000794937
0.00079649
0.00079803
0.000799926
0.000800984
0.000804185
0.000804177
0.000806601
0.000810204
0.000813112
0.000814186
0.000816719
0.000814173
0.000821296
0.000805541
0.00077711
0.000768782
0.000771015
0.000772574
0.000773954
0.000775113
0.000776469
0.000774479
0.000783192
0.000765155
0.00075708
0.000765047
0.000773573
0.000778476
0.000781247
0.000783195
0.000784844
0.000786378
0.000787876
0.00078938
0.000790905
0.000792488
0.000794042
0.000795938
0.000796991
0.000800173
0.000800142
0.000802553
0.000806094
0.000809076
0.000809842
0.000812992
0.000809502
0.000817865
0.000769735
0.000730311
0.000707958
0.000705489
0.000706744
0.000708305
0.000709597
0.000710725
0.000710163
0.00071493
0.000704959
0.000702573
0.000709151
0.000714578
0.000716878
0.000717889
0.000718806
0.000719903
0.000721159
0.000722524
0.000723975
0.000725493
0.000727088
0.00072868
0.000730591
0.000731729
0.000734947
0.000734867
0.000737462
0.000741192
0.000744055
0.000745123
0.000747371
0.000745133
0.000751495
0.000730851
0.000701909
0.000690345
0.000694627
0.00069889
0.000701648
0.000703472
0.000705147
0.000703517
0.000712389
0.000694394
0.000688033
0.000696176
0.000703987
0.00070837
0.000710924
0.000712802
0.000714436
0.000715975
0.000717488
0.000719015
0.000720571
0.000722182
0.000723774
0.000725673
0.000726797
0.000729983
0.000729876
0.000732451
0.000736113
0.00073903
0.000739787
0.000742678
0.0007393
0.000747435
0.000687077
0.000644289
0.000619123
0.000620094
0.00062436
0.000627082
0.000628807
0.000630123
0.000629668
0.000634858
0.000623909
0.000622637
0.000629816
0.00063487
0.000636714
0.000637551
0.000638483
0.000639648
0.000640962
0.000642372
0.000643852
0.000645391
0.000647001
0.000648616
0.000650507
0.000651708
0.000654877
0.000654713
0.000657475
0.000661297
0.000664065
0.000665082
0.000667041
0.000664973
0.000670944
0.00063908
0.000609594
0.000597994
0.00060794
0.000615811
0.000619665
0.00062185
0.000623602
0.000622448
0.000630415
0.000614078
0.000609188
0.000616361
0.000623082
0.000627112
0.000629672
0.000631604
0.00063326
0.000634806
0.000636328
0.000637859
0.000639421
0.000641034
0.00064264
0.000644508
0.00064569
0.000648817
0.000648625
0.000651364
0.000655125
0.000657922
0.000658672
0.000661166
0.000658068
0.000665593
0.000582788
0.000537335
0.000514643
0.000522723
0.00053029
0.000533565
0.000535325
0.000536678
0.000535992
0.000542241
0.000528556
0.000527929
0.000535821
0.000540758
0.000542524
0.000543511
0.000544626
0.000545903
0.000547267
0.000548687
0.000550159
0.000551682
0.000553265
0.00055486
0.00055668
0.00055792
0.000560952
0.000560701
0.00056361
0.000567461
0.000570054
0.000571035
0.000572464
0.000571065
0.000575503
0.000521101
0.000496589
0.000491389
0.00051001
0.00052105
0.000525084
0.000527164
0.000528762
0.000528086
0.000534189
0.000521973
0.000516938
0.000521352
0.00052712
0.000531557
0.000534536
0.000536583
0.000538215
0.000539722
0.000541212
0.000542718
0.00054425
0.000545825
0.000547404
0.000549195
0.000550417
0.000553394
0.00055311
0.000555998
0.000559833
0.00056238
0.000563331
0.000564566
0.000563755
0.000566269
0.000445415
0.000410873
0.000397282
0.000410634
0.000418309
0.000420567
0.000421791
0.000422881
0.000421896
0.000428208
0.000413366
0.000413507
0.00042067
0.000424788
0.000426696
0.000428172
0.000429592
0.000430958
0.000432302
0.000433667
0.000435069
0.000436515
0.000438009
0.000439528
0.000441201
0.000442477
0.000445166
0.000444928
0.000447891
0.000451587
0.000454061
0.000454506
0.000456919
0.000452117
0.000463541
0.000349662
0.000274233
0.000248324
0.000259254
0.000266036
0.000267462
0.000268029
0.000268327
0.000268733
0.000268089
0.000267135
0.000276574
0.000279442
0.000275629
0.000272721
0.000272456
0.000273421
0.000274638
0.000275882
0.000277163
0.000278491
0.00027987
0.000281302
0.000282766
0.000284358
0.000285635
0.000288155
0.000287918
0.000290591
0.000294673
0.00029753
0.00029855
0.000299001
0.00029775
0.000300235
0.000207313
0.00022844
0.000231913
0.000247947
0.000254212
0.000255433
0.000256201
0.000256836
0.000256298
0.000259296
0.000250242
0.000247699
0.000251001
0.000255073
0.000258151
0.000260227
0.000261738
0.000263047
0.000264317
0.000265599
0.000266905
0.000268242
0.000269616
0.000271011
0.000272527
0.000273736
0.000276138
0.000275917
0.000278444
0.000282312
0.00028495
0.000286122
0.000285919
0.000286269
0.000285758
0.000129292
0.000135593
0.000143463
0.000143097
0.000143508
0.00014448
0.000145181
0.000145886
0.000145465
0.000150196
0.000135867
0.000137791
0.000143698
0.000146462
0.000147127
0.00014709
0.000146888
0.000146644
0.00014638
0.000146104
0.000145823
0.00014554
0.000145255
0.000144975
0.000144663
0.000144511
0.00014371
0.000144647
0.000142973
0.000141608
0.000141493
0.000142006
0.000142927
0.000143093
0.000145063
0.00112034
0.00106721
0.00105311
0.00105908
0.00106087
0.00105964
0.00105809
0.00105776
0.00105376
0.00105938
0.00104862
0.00103558
0.00103686
0.00104465
0.00105058
0.00105368
0.00105536
0.0010565
0.00105739
0.00105816
0.00105887
0.00105955
0.00106028
0.00106084
0.00106197
0.00106181
0.00106395
0.00106382
0.00106409
0.00106597
0.00106793
0.0010692
0.00107013
0.00106933
0.0010716
0.00110601
0.00105826
0.00104933
0.00105756
0.0010597
0.00105827
0.0010567
0.00105583
0.00105342
0.00105532
0.00104806
0.00103938
0.00103946
0.0010442
0.00104856
0.00105149
0.00105351
0.00105501
0.0010562
0.0010572
0.0010581
0.00105894
0.00105983
0.00106051
0.00106181
0.00106174
0.00106408
0.001064
0.00106453
0.00106616
0.0010695
0.00106795
0.00107503
0.00106484
0.00107923
0.00109232
0.00103592
0.00101675
0.00101935
0.00102023
0.00101911
0.00101789
0.00101741
0.00101493
0.00101818
0.00101077
0.00100311
0.00100517
0.00101086
0.00101477
0.00101657
0.00101746
0.00101814
0.00101883
0.00101953
0.00102026
0.00102101
0.00102183
0.0010225
0.00102377
0.00102371
0.00102609
0.00102593
0.00102647
0.00102849
0.00103104
0.00103138
0.0010342
0.00103042
0.00103689
0.00107472
0.00102345
0.00101042
0.00101591
0.00101742
0.00101633
0.00101507
0.00101509
0.00101115
0.00101803
0.00100558
0.000992809
0.000995617
0.00100393
0.00100971
0.00101267
0.00101436
0.00101557
0.00101657
0.00101745
0.00101829
0.0010191
0.00101996
0.00102064
0.00102192
0.00102185
0.00102422
0.00102406
0.0010245
0.00102673
0.00102858
0.00103047
0.00103018
0.00103091
0.00103236
0.00105614
0.00101219
0.00100583
0.00101407
0.00101599
0.00101472
0.00101348
0.00101284
0.00101113
0.00101255
0.00100646
0.000999434
0.000999256
0.00100297
0.00100687
0.00100987
0.00101206
0.00101372
0.00101503
0.00101614
0.00101716
0.00101811
0.00101911
0.00101992
0.00102131
0.00102135
0.00102383
0.0010238
0.0010243
0.00102675
0.00102848
0.00103096
0.00103036
0.00103143
0.00103413
0.00103683
0.000985054
0.000969636
0.000972763
0.000973379
0.000972213
0.000971111
0.000971229
0.000967735
0.000974517
0.000962667
0.000952036
0.000955672
0.000963347
0.000968284
0.000970646
0.000971954
0.000972949
0.000973838
0.000974692
0.000975547
0.000976404
0.00097733
0.000978106
0.000979452
0.000979497
0.000981989
0.000981807
0.000982506
0.000984625
0.000987466
0.000987072
0.000991513
0.000984601
0.000994602
0.0010146
0.000970418
0.000961753
0.000967484
0.000968717
0.000967784
0.000966926
0.000966981
0.000964279
0.000969414
0.00095897
0.000949252
0.00095162
0.000958004
0.000962748
0.000965598
0.000967486
0.000968926
0.000970115
0.000971165
0.000972149
0.000973094
0.000974081
0.000974903
0.000976279
0.000976352
0.000978864
0.000978692
0.000979442
0.000981452
0.000984666
0.000983474
0.000989684
0.000980432
0.000993388
0.000991068
0.00093989
0.000922055
0.000922546
0.000922398
0.000921462
0.000920778
0.00092108
0.000918352
0.000924349
0.000913943
0.000906177
0.000910305
0.000916824
0.000920601
0.00092227
0.000923217
0.000924022
0.000924812
0.000925622
0.000926455
0.000927309
0.000928234
0.00092903
0.000930357
0.000930444
0.000932943
0.000932683
0.000933444
0.000935751
0.000938199
0.000938702
0.000940694
0.000938133
0.000941641
0.000965041
0.000922529
0.000912514
0.00091612
0.000916806
0.000916227
0.000915808
0.000916355
0.000913394
0.000920402
0.000908042
0.000898359
0.000902111
0.000909051
0.00091368
0.000916299
0.000917999
0.000919297
0.000920389
0.000921377
0.000922328
0.000923259
0.000924232
0.000925064
0.000926415
0.000926523
0.000929032
0.000928779
0.000929567
0.000931825
0.000934449
0.000934627
0.000937312
0.000934301
0.000938099
0.00094026
0.000889982
0.000869291
0.000867413
0.000867037
0.000866599
0.000866394
0.000866837
0.000864888
0.00086979
0.000861012
0.000855924
0.000860302
0.000865644
0.000868304
0.000869319
0.000869949
0.000870611
0.000871343
0.000872123
0.000872947
0.000873798
0.000874713
0.000875524
0.000876814
0.000876945
0.000879418
0.000879074
0.000879934
0.000882274
0.000884767
0.000884837
0.000887699
0.000882818
0.000890447
0.000911582
0.000870178
0.000857358
0.000858998
0.000859886
0.00086002
0.000860124
0.000861061
0.00085808
0.000866202
0.000852651
0.000844007
0.000848892
0.00085578
0.000859917
0.000862137
0.000863585
0.000864724
0.000865715
0.000866641
0.00086755
0.000868449
0.000869397
0.000870227
0.000871528
0.000871667
0.000874139
0.000873788
0.000874662
0.000876952
0.000879571
0.00087938
0.000882679
0.000877878
0.000884437
0.000882896
0.00083314
0.000808545
0.000804942
0.000805229
0.000805603
0.00080591
0.000806487
0.00080515
0.000809192
0.000801557
0.000798517
0.000803167
0.000807585
0.00080931
0.000809787
0.000810184
0.000810758
0.000811453
0.000812213
0.000813018
0.00081385
0.000814741
0.000815544
0.000816775
0.000816943
0.00081935
0.000818912
0.000819854
0.000822246
0.000824581
0.00082469
0.000827087
0.000822835
0.000829336
0.00084898
0.000809514
0.000793479
0.000794422
0.000796664
0.000797823
0.000798463
0.000799596
0.000796993
0.000804972
0.000791674
0.00078478
0.000789961
0.000796058
0.000799509
0.000801382
0.000802663
0.000803706
0.000804635
0.000805516
0.000806388
0.000807261
0.000808176
0.000808993
0.000810225
0.000810399
0.000812795
0.00081235
0.000813305
0.000815646
0.000818088
0.000817917
0.000820847
0.000816278
0.000822577
0.000814058
0.000765689
0.000737368
0.000733903
0.000736051
0.000737414
0.000738107
0.000738832
0.000737618
0.000741879
0.0007337
0.000731627
0.000736774
0.00074079
0.000741995
0.000742222
0.000742566
0.000743143
0.000743836
0.000744582
0.000745362
0.000746164
0.000747017
0.000747802
0.000748949
0.000749157
0.000751449
0.000750921
0.000751952
0.000754357
0.000756492
0.000756608
0.000758636
0.000754757
0.00076085
0.000772755
0.000737345
0.00071854
0.000721045
0.000725922
0.000728169
0.000729174
0.000730312
0.000728289
0.000735245
0.000723457
0.000718202
0.000722689
0.000727598
0.000730508
0.000732274
0.000733542
0.000734554
0.000735442
0.000736287
0.00073712
0.000737954
0.000738822
0.000739616
0.00074076
0.000740973
0.000743246
0.000742712
0.000743752
0.000746119
0.000748328
0.000748227
0.000750654
0.000746574
0.000752267
0.000727349
0.000683466
0.000653047
0.000652451
0.00065746
0.000659613
0.00066042
0.000661216
0.000659812
0.000664965
0.000655047
0.000653417
0.000659001
0.000662752
0.000663757
0.000664052
0.000664525
0.000665169
0.00066587
0.000666591
0.000667331
0.000668089
0.000668883
0.00066963
0.000670663
0.000670911
0.000673021
0.000672417
0.00067353
0.000675893
0.000677746
0.000677969
0.00067932
0.000676526
0.000681053
0.000674038
0.000648668
0.000629894
0.000637013
0.000645206
0.000648066
0.00064908
0.000650059
0.000648639
0.000653917
0.00064553
0.000640793
0.000642859
0.000646433
0.000649507
0.000651705
0.000653138
0.000654133
0.000654961
0.000655746
0.000656529
0.000657311
0.000658116
0.000658869
0.000659896
0.000660155
0.000662238
0.000661626
0.000662739
0.000665122
0.000666928
0.000667308
0.00066806
0.000667063
0.000667499
0.000611982
0.00058437
0.000554934
0.000556745
0.00056283
0.000564513
0.000564923
0.000565574
0.000563908
0.000569564
0.000558369
0.000557463
0.000562735
0.000565668
0.000566579
0.000567229
0.000567981
0.000568715
0.000569396
0.000570061
0.000570733
0.000571418
0.000572127
0.000572818
0.000573685
0.000574034
0.000575763
0.000575219
0.000576392
0.000578502
0.000580192
0.000579921
0.000582357
0.000576921
0.000586276
0.000538613
0.00048218
0.000432405
0.000433032
0.000440127
0.000441577
0.000441644
0.000441574
0.000441637
0.000441476
0.000438482
0.000446542
0.000451047
0.000448117
0.000444479
0.000443259
0.000443562
0.000444248
0.000444948
0.000445647
0.000446363
0.000447105
0.000447876
0.00044864
0.00044956
0.000450019
0.000451768
0.000451361
0.000452388
0.000454783
0.000456767
0.000457554
0.000458032
0.000456435
0.000459073
0.000400728
0.000428046
0.000406738
0.000414935
0.000422147
0.000423051
0.000423171
0.000423421
0.00042282
0.000424867
0.000419658
0.000417563
0.000418689
0.000420894
0.000422921
0.000424382
0.000425395
0.000426204
0.000426957
0.000427704
0.000428458
0.000429222
0.000430006
0.000430772
0.000431692
0.000432154
0.00043388
0.000433511
0.000434494
0.000436872
0.00043877
0.000439883
0.000439478
0.000439777
0.000439443
0.000185851
0.000189924
0.000196233
0.000195257
0.000195655
0.000196708
0.000197463
0.000198261
0.000197556
0.000203635
0.000186308
0.000188121
0.000195234
0.000198635
0.000199443
0.000199383
0.000199121
0.000198806
0.000198465
0.000198108
0.000197742
0.000197372
0.000196999
0.00019663
0.000196212
0.000196025
0.000194958
0.000196093
0.000194189
0.000192433
0.000192147
0.000192662
0.000193702
0.000193791
0.000196178
0.00113051
0.00109326
0.00107729
0.0010806
0.00108282
0.00108222
0.00108087
0.00108088
0.0010767
0.00108241
0.00107388
0.00106193
0.00106182
0.00106815
0.00107349
0.00107645
0.00107809
0.00107917
0.00107999
0.00108066
0.00108125
0.00108178
0.00108237
0.0010827
0.00108371
0.00108329
0.001085
0.00108499
0.00108477
0.00108593
0.0010875
0.0010884
0.00108945
0.00108775
0.00108984
0.00111695
0.00108411
0.0010731
0.00107881
0.00108149
0.00108069
0.00107932
0.00107865
0.00107622
0.00107828
0.00107246
0.00106431
0.00106344
0.00106721
0.0010711
0.00107385
0.00107575
0.00107714
0.00107822
0.00107909
0.00107984
0.00108051
0.00108122
0.00108164
0.00108278
0.0010824
0.0010843
0.00108429
0.00108436
0.00108498
0.00108849
0.0010855
0.001094
0.001082
0.0010958
0.00110372
0.00106308
0.00104265
0.00104276
0.00104387
0.0010432
0.00104212
0.00104183
0.00103925
0.00104249
0.00103681
0.00102967
0.00103057
0.00103523
0.00103873
0.00104039
0.00104116
0.00104171
0.00104224
0.00104276
0.0010433
0.00104383
0.00104444
0.00104482
0.00104589
0.00104551
0.0010474
0.00104734
0.0010473
0.00104843
0.00105077
0.00105044
0.0010537
0.00104888
0.00105543
0.00108673
0.00105074
0.00103609
0.00103914
0.001041
0.00104038
0.00103918
0.00103941
0.00103524
0.00104189
0.00103237
0.00102057
0.00102151
0.00102818
0.00103332
0.00103605
0.0010376
0.00103867
0.00103951
0.00104021
0.00104084
0.00104142
0.00104206
0.00104244
0.0010435
0.0010431
0.00104497
0.00104491
0.00104471
0.00104619
0.0010475
0.00104926
0.00104885
0.00104858
0.00105097
0.00106935
0.00103933
0.00103116
0.00103716
0.0010395
0.00103863
0.00103742
0.00103683
0.00103503
0.00103657
0.00103171
0.00102497
0.00102387
0.00102669
0.00103009
0.00103282
0.00103483
0.0010363
0.00103742
0.00103832
0.0010391
0.0010398
0.00104055
0.00104103
0.00104218
0.00104187
0.00104381
0.00104386
0.00104367
0.00104546
0.00104638
0.00104916
0.00104775
0.00104868
0.00105105
0.00105074
0.00101361
0.000997145
0.000998188
0.000999065
0.000998217
0.000997073
0.000997299
0.000993554
0.000999927
0.000991037
0.000981148
0.000982897
0.000989049
0.000993357
0.000995458
0.000996577
0.000997384
0.000998067
0.000998691
0.000999295
0.000999876
0.00100053
0.00100096
0.00100204
0.00100172
0.00100365
0.00100354
0.00100361
0.00100472
0.00100751
0.00100604
0.00101164
0.00100307
0.00101282
0.00102959
0.000999051
0.000989152
0.000992864
0.000994218
0.000993409
0.000992402
0.000992455
0.000989544
0.000994368
0.000986441
0.000977264
0.000977969
0.000982991
0.000987122
0.000989683
0.000991351
0.00099257
0.000993525
0.000994321
0.000995038
0.000995693
0.000996394
0.000996863
0.000997966
0.000997667
0.00099962
0.000999512
0.000999652
0.0010006
0.00100389
0.00100139
0.001009
0.000998031
0.00101045
0.00100729
0.000969953
0.000951765
0.000950499
0.000950387
0.000949515
0.000948647
0.000948919
0.000945929
0.00095141
0.000943661
0.000936398
0.000938838
0.000944044
0.000947234
0.000948603
0.000949313
0.000949888
0.000950439
0.000950986
0.000951538
0.000952087
0.000952707
0.000953135
0.000954166
0.000953869
0.000955782
0.000955607
0.000955666
0.00095703
0.000959192
0.000959171
0.000961353
0.000958426
0.000960938
0.000982341
0.000952925
0.000942273
0.000944031
0.000944496
0.000943734
0.000942986
0.000943438
0.00094019
0.000946573
0.000937369