/*--------------------------------*- C++ -*----------------------------------*\
  =========                 |
  \\      /  F ield         | OpenFOAM: The Open Source CFD Toolbox
   \\    /   O peration     | Website:  https://openfoam.org
    \\  /    A nd           | Version:  6
     \\/     M anipulation  |
\*---------------------------------------------------------------------------*/
FoamFile
{
    version     2.0;
    format      ascii;
    class       volScalarField;
    location    "0.4";
    object      omega;
}
// * * * * * * * * * * * * * * * * * * * * * * * * * * * * * * * * * * * * * //

dimensions      [0 0 -1 0 0 0 0];

internalField   nonuniform List<scalar> 
63568
(
843.917
843.917
843.917
843.917
843.917
843.917
843.917
843.917
843.917
843.917
843.917
843.917
843.917
843.917
843.917
843.917
843.917
843.917
843.917
843.917
843.917
843.917
843.917
843.917
843.917
843.917
843.917
843.917
843.917
843.917
843.917
843.917
843.917
843.917
843.917
843.917
843.917
843.917
843.917
843.917
843.917
843.917
843.917
843.917
843.917
843.917
843.917
843.917
843.917
843.917
843.917
843.917
843.917
843.917
843.917
843.917
843.917
843.917
843.917
843.917
843.917
843.917
843.917
843.917
843.917
843.917
843.917
843.917
843.917
843.917
843.917
843.917
843.917
843.917
843.917
843.917
843.917
843.917
843.917
843.917
843.917
843.917
843.917
843.917
843.917
843.917
843.917
843.917
843.917
843.917
843.917
843.917
843.917
843.917
843.917
843.917
843.917
843.917
843.917
843.917
843.917
843.917
843.917
843.917
843.917
843.917
843.917
843.917
843.917
843.917
843.917
843.917
843.917
843.917
843.917
843.917
843.917
843.917
843.917
843.917
843.917
843.917
843.917
843.917
843.917
843.917
843.917
843.917
843.917
843.917
843.917
843.917
843.917
843.917
843.917
843.917
843.917
843.917
843.917
843.917
843.917
843.917
843.917
843.917
843.917
843.917
843.917
843.917
843.917
843.917
843.917
843.917
843.917
843.917
843.917
843.917
843.917
843.917
843.917
843.917
843.917
843.917
843.917
843.917
843.917
843.917
843.917
843.917
843.917
843.917
843.917
843.917
843.917
843.917
843.917
843.917
843.917
843.917
843.917
843.917
843.917
843.917
843.917
843.917
843.917
843.917
843.917
843.917
843.917
843.917
843.917
843.917
843.917
843.917
843.917
843.917
843.917
843.917
843.917
843.917
843.917
843.917
843.917
843.917
843.917
843.917
843.917
843.917
843.917
843.917
843.917
843.917
843.917
843.917
843.917
843.917
843.917
843.917
843.917
843.917
843.917
843.917
843.917
843.917
843.917
843.917
843.917
843.917
843.917
843.917
843.917
843.917
843.917
843.917
843.917
843.917
843.917
843.917
843.917
843.917
843.917
843.917
843.917
843.917
843.917
843.917
843.917
843.917
843.917
843.917
843.917
843.917
843.917
843.917
843.917
843.917
843.917
843.917
843.917
843.917
843.917
843.917
843.917
843.917
843.917
843.917
843.917
843.917
843.917
843.917
843.917
843.917
843.917
843.917
843.917
843.917
843.917
843.917
843.917
843.917
843.917
843.917
843.917
843.917
843.917
843.917
843.917
843.917
843.917
843.917
843.917
843.917
843.917
843.917
843.917
843.917
843.917
843.917
843.917
843.917
843.917
843.917
843.917
843.917
843.917
843.917
843.917
843.917
843.917
843.917
843.917
843.917
843.917
843.917
843.917
843.917
843.917
843.917
843.917
843.917
843.917
843.917
843.917
843.917
843.917
843.917
843.917
843.917
843.917
843.917
843.917
843.917
843.917
843.917
843.917
843.917
843.917
843.917
843.917
843.917
843.917
843.917
843.917
843.917
843.917
843.917
843.917
843.917
843.917
843.917
843.917
843.917
843.917
843.917
843.917
843.917
843.917
843.917
843.917
843.917
843.917
843.917
843.917
843.917
843.917
843.917
843.917
843.917
843.917
843.917
843.917
843.917
843.917
843.917
843.917
843.917
843.917
843.917
843.917
843.917
843.917
843.917
843.917
843.917
843.917
843.917
843.917
843.917
843.917
843.917
843.917
843.917
843.917
843.917
843.917
843.917
843.917
843.917
843.917
843.917
843.917
843.917
843.917
843.917
843.917
843.917
843.917
843.917
843.917
843.917
843.917
843.917
843.917
843.917
843.917
843.917
843.917
843.917
843.917
843.917
843.917
843.917
843.917
843.917
843.917
843.917
843.917
843.917
843.917
843.917
843.917
843.917
843.917
843.917
843.917
843.917
843.917
843.917
843.917
843.917
843.917
843.917
843.917
843.917
843.917
843.917
843.917
843.917
843.917
843.917
843.917
843.917
843.917
843.917
843.917
843.917
843.917
843.917
843.917
843.917
843.917
843.917
843.917
843.917
843.917
843.917
843.917
843.917
843.917
843.917
843.917
843.917
843.917
843.917
843.917
843.917
843.917
843.917
843.917
843.917
843.917
843.917
843.917
843.917
843.917
843.917
843.917
843.917
843.917
843.917
843.917
843.917
843.917
843.917
843.917
843.917
843.917
843.917
843.917
843.917
843.917
843.917
843.917
843.917
843.917
843.917
843.917
843.917
843.917
843.917
843.917
843.917
843.917
843.917
843.917
843.917
843.917
843.917
843.917
843.917
843.917
843.917
843.917
843.917
843.917
843.917
843.917
843.917
843.917
843.917
843.917
843.917
843.917
843.917
843.917
843.917
843.917
843.917
843.917
843.917
843.917
843.917
843.917
843.917
843.917
843.917
843.917
843.917
843.917
843.917
843.917
843.917
843.917
843.917
843.917
843.917
843.917
843.917
843.917
843.917
843.917
843.917
843.917
843.917
843.917
843.917
843.917
843.917
843.917
843.917
843.917
843.917
843.917
843.917
843.917
843.917
843.917
843.917
843.917
843.917
843.917
843.917
843.917
843.917
843.917
843.917
843.917
843.917
843.917
843.917
843.917
843.917
843.917
843.917
843.917
843.917
843.917
843.917
843.917
843.917
843.917
843.917
843.917
843.917
843.917
843.917
843.917
843.917
843.917
843.917
843.917
843.917
843.917
843.917
843.917
843.917
843.917
843.917
843.917
843.917
843.917
843.917
843.917
843.917
843.917
843.917
843.917
843.917
843.917
843.917
843.917
843.917
843.917
843.917
843.917
843.917
843.917
843.917
843.917
843.917
843.917
843.917
843.917
843.917
843.917
843.917
843.917
843.917
843.917
843.917
843.917
843.917
843.917
843.917
843.917
843.917
843.917
843.917
843.917
843.917
843.917
843.917
843.917
843.917
843.917
843.917
843.917
843.917
843.917
843.917
843.917
843.917
843.917
843.917
843.917
843.917
843.917
843.917
843.917
843.917
843.917
843.917
843.917
843.917
843.917
843.917
843.917
843.917
843.917
843.917
843.917
843.917
843.917
843.917
843.917
843.917
843.917
843.917
843.917
843.917
424.647
424.933
425.354
425.381
425.394
425.425
425.447
425.467
425.467
425.547
425.271
425.317
425.439
425.5
425.518
425.52
425.518
425.516
425.513
425.51
425.507
425.504
425.501
425.499
425.496
425.496
425.485
425.504
425.472
425.45
425.453
425.469
425.494
425.503
425.548
276.106
264.345
266.401
266.855
266.539
266.373
266.333
266.319
266.319
266.12
266.204
266.661
266.827
266.646
266.455
266.373
266.349
266.337
266.326
266.318
266.314
266.314
266.318
266.324
266.333
266.353
266.348
266.423
266.451
266.412
266.389
266.427
266.504
266.609
266.693
275.727
264.06
266.21
266.76
266.474
266.308
266.272
266.268
266.275
266.205
266.364
266.633
266.652
266.49
266.354
266.303
266.298
266.301
266.304
266.308
266.314
266.322
266.332
266.346
266.361
266.387
266.386
266.469
266.502
266.464
266.445
266.488
266.548
266.749
266.511
275.679
264.246
265.891
266.041
265.663
265.516
265.497
265.498
265.507
265.401
265.638
265.978
266.035
265.903
265.772
265.7
265.666
265.648
265.64
265.641
265.649
265.662
265.68
265.702
265.728
265.765
265.776
265.877
265.916
265.884
265.879
265.945
266.034
266.21
266.166
274.908
263.63
265.501
265.811
265.492
265.359
265.354
265.372
265.412
265.224
265.504
266.019
266.072
265.819
265.625
265.563
265.559
265.565
265.57
265.579
265.592
265.609
265.629
265.653
265.68
265.718
265.728
265.828
265.866
265.833
265.825
265.886
265.984
266.105
266.207
274.287
263.225
265.266
265.688
265.39
265.258
265.261
265.293
265.331
265.326
265.561
265.768
265.702
265.547
265.465
265.461
265.485
265.511
265.534
265.556
265.58
265.607
265.636
265.668
265.703
265.749
265.767
265.875
265.92
265.894
265.893
265.966
266.059
266.237
266.161
273.752
262.776
264.282
264.379
264.03
263.92
263.941
263.985
264.047
263.892
264.318
264.796
264.762
264.51
264.351
264.313
264.321
264.335
264.351
264.373
264.401
264.433
264.471
264.512
264.558
264.614
264.643
264.766
264.815
264.792
264.804
264.89
264.994
265.203
265.127
272.71
262.144
263.85
264.002
263.697
263.636
263.698
263.769
263.846
263.754
264.141
264.526
264.461
264.241
264.127
264.118
264.144
264.173
264.201
264.232
264.266
264.303
264.343
264.387
264.433
264.49
264.519
264.643
264.691
264.668
264.68
264.771
264.861
265.122
264.87
271.946
261.286
262.284
262.13
261.8
261.761
261.843
261.931
262.027
261.933
262.411
262.827
262.773
262.566
262.45
262.43
262.445
262.466
262.491
262.524
262.563
262.609
262.659
262.714
262.772
262.841
262.883
263.023
263.076
263.06
263.086
263.191
263.308
263.527
263.493
270.514
260.382
261.669
261.625
261.373
261.408
261.544
261.664
261.783
261.672
262.179
262.592
262.474
262.244
262.16
262.18
262.221
262.258
262.295
262.335
262.38
262.428
262.48
262.536
262.594
262.663
262.704
262.843
262.894
262.878
262.902
263.011
263.114
263.382
263.183
269.612
259.137
259.48
259.161
258.944
259.021
259.181
259.315
259.44
259.407
259.87
260.238
260.218
260.072
259.986
259.973
259.992
260.02
260.057
260.102
260.155
260.213
260.276
260.344
260.416
260.498
260.555
260.709
260.767
260.761
260.804
260.925
261.055
261.288
261.229
267.82
257.903
258.568
258.469
258.4
258.579
258.804
258.973
259.127
259.015
259.598
259.996
259.856
259.652
259.604
259.644
259.694
259.739
259.785
259.836
259.892
259.951
260.015
260.082
260.152
260.232
260.286
260.438
260.493
260.484
260.525
260.648
260.765
261.05
260.834
266.613
256.081
255.578
255.295
255.326
255.562
255.809
255.987
256.139
256.153
256.58
256.933
256.971
256.873
256.802
256.79
256.813
256.851
256.901
256.96
257.025
257.097
257.174
257.255
257.34
257.434
257.505
257.673
257.737
257.744
257.804
257.941
258.081
258.322
258.261
264.306
254.303
254.186
254.379
254.676
255.042
255.355
255.568
255.749
255.667
256.251
256.59
256.461
256.313
256.306
256.366
256.429
256.487
256.546
256.611
256.679
256.75
256.826
256.905
256.989
257.079
257.148
257.312
257.373
257.377
257.435
257.572
257.703
257.994
257.784
262.548
251.567
250.121
250.331
250.792
251.214
251.541
251.754
251.928
251.949
252.368
252.734
252.813
252.734
252.669
252.666
252.703
252.759
252.826
252.901
252.982
253.068
253.159
253.255
253.355
253.462
253.551
253.731
253.804
253.83
253.911
254.062
254.214
254.454
254.4
259.584
248.99
248.079
249.196
250.052
250.604
250.986
251.23
251.424
251.394
251.911
252.169
252.061
251.975
252.019
252.114
252.203
252.281
252.358
252.438
252.52
252.606
252.696
252.79
252.887
252.991
253.076
253.253
253.323
253.345
253.424
253.575
253.72
254.006
253.813
256.729
244.721
242.468
243.925
244.982
245.565
245.943
246.175
246.36
246.37
246.763
247.134
247.243
247.18
247.134
247.158
247.224
247.306
247.395
247.49
247.589
247.693
247.802
247.915
248.033
248.156
248.267
248.46
248.549
248.603
248.711
248.879
249.042
249.277
249.255
252.824
240.862
239.664
242.641
244.147
244.805
245.212
245.471
245.662
245.719
246.134
246.214
246.048
246.046
246.221
246.409
246.542
246.643
246.739
246.837
246.937
247.041
247.149
247.26
247.375
247.495
247.603
247.793
247.878
247.929
248.037
248.205
248.362
248.627
248.48
247.506
233.922
231.306
234.834
236.405
236.993
237.351
237.574
237.752
237.743
238.026
238.422
238.585
238.524
238.501
238.581
238.703
238.826
238.947
239.071
239.198
239.331
239.468
239.61
239.758
239.909
240.056
240.268
240.392
240.496
240.656
240.852
241.035
241.299
241.003
237.945
217.241
212.331
216.912
218.719
219.317
219.644
219.83
220.024
220.025
220.949
222.074
222.216
221.538
221.025
220.95
221.091
221.278
221.467
221.66
221.86
222.068
222.284
222.507
222.737
222.968
223.214
223.495
223.767
224.012
224.288
224.556
224.748
224.893
224.938
223.259
205.36
207.167
214.582
216.252
216.655
216.983
217.2
217.305
217.229
217.241
217.256
217.393
217.645
217.96
218.246
218.475
218.675
218.87
219.067
219.269
219.476
219.688
219.906
220.131
220.355
220.599
220.848
221.1
221.385
221.69
221.952
222.127
222.192
222.333
11.2472
11.5128
11.834
11.8196
11.8377
11.8774
11.906
11.9344
11.9185
12.1071
11.5085
11.5999
11.8474
11.9584
11.984
11.982
11.9735
11.9633
11.9522
11.9406
11.9288
11.9169
11.9049
11.8931
11.88
11.8731
11.8404
11.8786
11.8067
11.7508
11.7474
11.7694
11.8071
11.815
11.8942
133.1
127.148
127.586
128.068
128.015
127.898
127.838
127.803
127.762
127.68
127.532
127.554
127.71
127.792
127.795
127.789
127.796
127.807
127.816
127.825
127.835
127.847
127.861
127.875
127.895
127.909
127.937
127.963
127.993
128.018
128.037
128.062
128.095
128.135
128.202
132.748
126.882
127.445
127.993
127.953
127.833
127.772
127.74
127.707
127.66
127.581
127.581
127.644
127.682
127.694
127.711
127.735
127.759
127.779
127.797
127.815
127.834
127.853
127.873
127.898
127.917
127.95
127.982
128.017
128.046
128.072
128.092
128.145
128.179
128.214
132.479
126.456
126.662
126.98
126.885
126.776
126.728
126.703
126.671
126.633
126.55
126.579
126.704
126.784
126.798
126.791
126.789
126.793
126.803
126.816
126.833
126.852
126.874
126.897
126.926
126.949
126.988
127.022
127.061
127.098
127.126
127.158
127.191
127.259
127.258
131.923
126.01
126.392
126.813
126.753
126.652
126.61
126.595
126.566
126.521
126.341
126.363
126.546
126.643
126.657
126.665
126.685
126.707
126.728
126.748
126.769
126.791
126.815
126.84
126.87
126.893
126.933
126.966
127.006
127.042
127.067
127.102
127.124
127.19
127.212
131.405
125.654
126.227
126.73
126.674
126.567
126.526
126.515
126.501
126.485
126.432
126.414
126.439
126.475
126.516
126.562
126.608
126.646
126.678
126.707
126.735
126.764
126.794
126.824
126.859
126.888
126.933
126.973
127.017
127.06
127.088
127.141
127.152
127.272
127.232
130.895
124.961
125.161
125.462
125.374
125.279
125.25
125.247
125.227
125.214
125.057
125.087
125.264
125.361
125.381
125.393
125.415
125.44
125.465
125.49
125.518
125.548
125.58
125.613
125.651
125.683
125.732
125.773
125.82
125.866
125.901
125.935
125.973
126.026
126.034
130.113
124.461
124.892
125.232
125.142
125.061
125.052
125.065
125.06
125.057
124.922
124.922
125.04
125.125
125.172
125.214
125.255
125.291
125.323
125.354
125.386
125.418
125.453
125.487
125.527
125.559
125.61
125.651
125.7
125.747
125.785
125.823
125.87
125.935
125.942
129.481
123.594
123.567
123.704
123.595
123.529
123.531
123.552
123.552
123.566
123.443
123.49
123.661
123.754
123.774
123.786
123.808
123.834
123.861
123.89
123.922
123.956
123.993
124.031
124.074
124.11
124.165
124.208
124.26
124.312
124.349
124.391
124.415
124.498
124.459
128.473
122.95
123.208
123.4
123.3
123.259
123.288
123.33
123.34
123.366
123.197
123.206
123.352
123.453
123.512
123.563
123.609
123.646
123.68
123.714
123.749
123.785
123.823
123.862
123.905
123.942
123.998
124.04
124.093
124.146
124.185
124.231
124.259
124.365
124.311
127.793
121.957
121.617
121.603
121.516
121.502
121.545
121.592
121.61
121.643
121.546
121.619
121.795
121.882
121.894
121.901
121.922
121.949
121.979
122.012
122.048
122.087
122.128
122.17
122.217
122.257
122.318
122.363
122.42
122.478
122.519
122.563
122.591
122.668
122.637
126.6
121.168
121.096
121.171
121.128
121.157
121.235
121.305
121.33
121.382
121.188
121.212
121.384
121.497
121.562
121.614
121.659
121.696
121.731
121.767
121.806
121.846
121.887
121.93
121.977
122.017
122.077
122.121
122.178
122.236
122.277
122.324
122.354
122.456
122.409
125.765
119.941
119.126
119.02
119.027
119.095
119.187
119.258
119.294
119.338
119.251
119.357
119.551
119.632
119.631
119.63
119.649
119.678
119.712
119.749
119.789
119.831
119.876
119.922
119.972
120.016
120.081
120.127
120.19
120.253
120.297
120.342
120.369
120.453
120.404
124.31
118.929
118.347
118.427
118.545
118.676
118.807
118.901
118.941
119.009
118.812
118.855
119.035
119.149
119.213
119.266
119.311
119.35
119.389
119.429
119.471
119.514
119.559
119.605
119.655
119.699
119.763
119.808
119.87
119.934
119.977
120.025
120.054
120.158
120.106
123.198
117.318
115.849
115.827
116.04
116.213
116.353
116.444
116.491
116.542
116.429
116.571
116.797
116.872
116.857
116.853
116.874
116.909
116.948
116.989
117.033
117.079
117.128
117.177
117.231
117.278
117.346
117.394
117.463
117.531
117.577
117.624
117.651
117.737
117.681
121.434
116
114.703
115.045
115.455
115.703
115.876
115.986
116.039
116.109
115.932
115.988
116.153
116.253
116.318
116.377
116.429
116.475
116.519
116.563
116.609
116.656
116.704
116.754
116.807
116.854
116.921
116.968
117.036
117.105
117.15
117.198
117.228
117.333
117.276
119.756
113.726
111.427
111.804
112.344
112.625
112.797
112.897
112.951
113
112.832
113.014
113.271
113.335
113.313
113.314
113.345
113.388
113.433
113.48
113.528
113.578
113.629
113.682
113.738
113.79
113.86
113.91
113.987
114.059
114.106
114.155
114.185
114.276
114.219
117.595
111.891
109.785
110.812
111.619
111.954
112.142
112.254
112.314
112.373
112.283
112.302
112.368
112.438
112.538
112.638
112.711
112.765
112.814
112.863
112.913
112.964
113.016
113.069
113.126
113.177
113.247
113.297
113.373
113.444
113.491
113.545
113.569
113.698
113.57
114.602
108.389
104.868
105.911
106.789
107.105
107.261
107.345
107.404
107.409
107.231
107.487
107.754
107.771
107.724
107.734
107.783
107.84
107.895
107.95
108.006
108.064
108.124
108.185
108.249
108.31
108.387
108.446
108.534
108.613
108.671
108.733
108.785
108.869
108.799
108.754
98.7572
93.0169
94.3176
95.3253
95.6275
95.7499
95.7951
95.8901
95.7162
96.3515
97.0907
97.1386
96.6753
96.2982
96.1928
96.2363
96.3172
96.4011
96.4861
96.5739
96.665
96.7594
96.8565
96.9582
97.0537
97.1776
97.266
97.4267
97.5689
97.6777
97.7731
97.8312
97.865
97.8457
99.326
92.8306
89.3874
92.1855
93.3098
93.5195
93.6249
93.6796
93.714
93.5936
93.4344
93.4919
93.6584
93.7819
93.8951
94.0108
94.1148
94.2083
94.2978
94.3872
94.478
94.5706
94.6652
94.7615
94.8629
94.9549
95.0821
95.1569
95.2945
95.4494
95.5895
95.6992
95.7738
95.731
95.863
13.4816
13.6218
13.8387
13.8057
13.821
13.8578
13.8841
13.9116
13.8883
14.0966
13.4755
13.5519
13.8079
13.9253
13.952
13.9494
13.9399
13.9286
13.9163
13.9034
13.8903
13.8769
13.8634
13.8501
13.8351
13.8277
13.7903
13.8301
13.7596
13.6976
13.6888
13.7081
13.7446
13.749
13.8315
78.7942
76.0257
75.9971
76.298
76.3333
76.2783
76.2376
76.2099
76.1808
76.1397
75.9953
75.962
76.0751
76.1675
76.1933
76.1968
76.2033
76.2125
76.221
76.2287
76.2365
76.2447
76.2535
76.2623
76.2741
76.2788
76.3005
76.3051
76.3175
76.3415
76.3575
76.3658
76.372
76.3688
76.4139
78.518
75.8334
75.9017
76.2453
76.2861
76.2274
76.1845
76.1574
76.1308
76.1001
76.0053
75.9679
76.0205
76.0766
76.1059
76.1253
76.1448
76.1629
76.1781
76.1912
76.2034
76.2153
76.2274
76.2394
76.2543
76.2618
76.2867
76.2938
76.3097
76.3355
76.3597
76.3549
76.3986
76.3424
76.4537
78.2585
75.4078
75.2489
75.4534
75.4575
75.4032
75.3678
75.3467
75.3206
75.3046
75.2052
75.1858
75.2801
75.3617
75.3877
75.3879
75.3871
75.3906
75.397
75.4053
75.4152
75.4262
75.4382
75.4506
75.4664
75.4745
75.5019
75.5083
75.5256
75.5564
75.5777
75.5875
75.5939
75.6032
75.6217
77.886
75.1229
75.078
75.344
75.3676
75.3168
75.2838
75.2653
75.2402
75.2249
75.0448
75.0022
75.1391
75.2473
75.2799
75.2892
75.3017
75.3165
75.33
75.3424
75.3548
75.3675
75.3806
75.3936
75.4097
75.418
75.4455
75.4518
75.4685
75.4999
75.5172
75.5346
75.5221
75.5502
75.5523
77.4963
74.8635
74.9652
75.2885
75.313
75.2544
75.2196
75.2029
75.185
75.1712
75.0925
75.0444
75.0707
75.1199
75.1636
75.2008
75.2324
75.2577
75.2781
75.2958
75.3123
75.3286
75.3449
75.3609
75.38
75.3911
75.4213
75.4308
75.4498
75.4868
75.5017
75.5391
75.5076
75.5782
75.568
77.1054
74.3027
74.1643
74.3592
74.3598
74.308
74.2794
74.2674
74.2442
74.2495
74.0784
74.0457
74.185
74.2895
74.319
74.3262
74.3375
74.3519
74.3662
74.3804
74.3951
74.4104
74.4265
74.4427
74.4622
74.4737
74.5055
74.5135
74.5347
74.5702
74.5961
74.6
74.6211
74.5935
74.6487
76.5502
73.9436
73.9878
74.2146
74.2035
74.151
74.1306
74.126
74.1126
74.1179
73.9659
73.9149
74.009
74.0988
74.1463
74.1769
74.203
74.2251
74.2437
74.261
74.2778
74.2947
74.3121
74.3292
74.3495
74.3617
74.3941
74.4026
74.4247
74.4608
74.4904
74.4931
74.5324
74.4917
74.5915
76.0719
73.2822
73.0433
73.1384
73.1116
73.0675
73.0529
73.0527
73.0393
73.0571
72.9115
72.9029
73.0388
73.1291
73.1493
73.1525
73.1615
73.1748
73.1889
73.2035
73.2189
73.2352
73.2524
73.2699
73.2905
73.3032
73.3367
73.3441
73.3676
73.4065
73.4302
73.442
73.4392
73.4584
73.4371
75.3763
72.8384
72.8144
72.9477
72.9116
72.8708
72.8686
72.8782
72.8719
72.8986
72.7183
72.6759
72.7927
72.8884
72.9362
72.9682
72.9947
73.016
73.0339
73.0509
73.0682
73.0858
73.1039
73.122
73.1432
73.1565
73.1904
73.1982
73.2221
73.262
73.2871
73.3022
73.3049
73.3331
73.3249
74.8628
72.124
71.7404
71.7299
71.6925
71.6683
71.6734
71.6858
71.6834
71.7037
71.5857
71.6069
71.7403
71.814
71.8219
71.8188
71.8251
71.8373
71.8513
71.8664
71.8826
71.8997
71.9177
71.936
71.9571
71.971
72.0053
72.0122
72.0382
72.0791
72.1032
72.112
72.1165
72.1155
72.1327
74.0545
71.6071
71.4186
71.451
71.4203
71.4098
71.4319
71.456
71.4571
71.4997
71.3036
71.281
71.4152
71.5097
71.5524
71.5807
71.6042
71.6232
71.6401
71.657
71.6745
71.6925
71.7112
71.73
71.7515
71.7656
71.8001
71.8071
71.8332
71.8748
71.8996
71.9107
71.9186
71.9295
71.9481
73.4295
70.766
70.1356
70.0263
70.0128
70.0256
70.056
70.0808
70.0891
70.1079
70.0086
70.0611
70.199
70.2574
70.2505
70.2396
70.2429
70.2543
70.2684
70.2839
70.3004
70.3179
70.3361
70.3548
70.376
70.3906
70.4248
70.4309
70.4592
70.5012
70.5234
70.5319
70.5327
70.5395
70.5404
72.4528
70.1476
69.6735
69.636
69.6628
69.7032
69.7533
69.7898
69.7995
69.8466
69.6586
69.6597
69.7945
69.8779
69.9133
69.9375
69.9584
69.9764
69.9933
70.0105
70.0284
70.0468
70.0657
70.0848
70.1062
70.1211
70.1553
70.1615
70.1901
70.2325
70.2551
70.2651
70.2705
70.2832
70.2988
71.6358
69.0905
68.0826
67.9312
68.0002
68.0678
68.1244
68.1589
68.1751
68.1918
68.0858
68.1674
68.319
68.3653
68.3444
68.328
68.3307
68.3429
68.3579
68.3739
68.3908
68.4083
68.4265
68.4452
68.4658
68.4811
68.514
68.5195
68.5505
68.5921
68.6113
68.6186
68.6187
68.6288
68.6256
70.4512
68.3381
67.4148
67.3971
67.5543
67.6601
67.7344
67.7778
67.7957
67.8354
67.6743
67.6937
67.8125
67.878
67.9068
67.9306
67.9525
67.9717
67.9897
68.0076
68.0257
68.0442
68.0631
68.0823
68.1032
68.1188
68.1518
68.1574
68.1887
68.2306
68.2501
68.2587
68.263
68.2783
68.2885
69.2392
66.8769
65.3352
65.26
65.4828
65.6132
65.6886
65.7261
65.7485
65.7576
65.6323
65.7436
65.904
65.9345
65.9035
65.8874
65.8932
65.9078
65.9242
65.9406
65.9575
65.9748
65.9927
66.011
66.0307
66.0464
66.077
66.0824
66.1158
66.1546
66.1696
66.177
66.1774
66.1962
66.1821
67.7697
65.87
64.3542
64.5312
64.8864
65.05
65.1331
65.1758
65.1957
65.2229
65.1187
65.1237
65.1845
65.2261
65.2676
65.31
65.3419
65.3643
65.3831
65.4014
65.4199
65.4385
65.4573
65.4764
65.4969
65.5132
65.5442
65.5504
65.5839
65.6229
65.6372
65.6524
65.6392
65.7062
65.6091
65.699
63.6589
61.1899
61.218
61.5944
61.7528
61.8188
61.8423
61.8688
61.847
61.7331
61.8805
62.0346
62.0353
61.9881
61.9725
61.9845
62.0041
62.0234
62.0421
62.0609
62.0801
62.0999
62.1201
62.1414
62.1604
62.1897
62.2005
62.2371
62.2698
62.2866
62.296
62.328
62.3048
62.3826
61.8512
57.6973
53.8175
53.8889
54.3381
54.4902
54.5378
54.5353
54.6148
54.3785
54.825
55.2833
55.2907
55.0099
54.7672
54.6733
54.671
54.6967
54.7264
54.7568
54.7881
54.8208
54.8547
54.8893
54.9273
54.9567
55.0122
55.0292
55.0924
55.1511
55.1914
55.224
55.258
55.2398
55.2825
56.221
54.6506
51.6002
52.3911
52.9765
53.1003
53.1341
53.1379
53.1561
53.0797
52.9859
53.0095
53.1034
53.1528
53.1823
53.2191
53.2587
53.2961
53.3315
53.3664
53.4015
53.4372
53.4737
53.5099
53.5506
53.5793
53.6402
53.6554
53.7052
53.766
53.8266
53.8767
53.9275
53.878
53.9836
15.1455
15.2873
15.4902
15.4477
15.4576
15.4933
15.5195
15.5484
15.5177
15.748
15.1201
15.1666
15.4262
15.5544
15.5861
15.5845
15.5749
15.5633
15.5506
15.5373
15.5237
15.5099
15.4959
15.4821
15.4661
15.4598
15.4185
15.4599
15.3954
15.3286
15.3135
15.3291
15.3661
15.3669
15.4559
52.3978
51.1496
51.0981
51.2602
51.2995
51.2776
51.2573
51.2393
51.2334
51.1992
51.1267
51.1415
51.2195
51.2614
51.2588
51.2478
51.2443
51.246
51.2487
51.2512
51.2537
51.2564
51.2591
51.2621
51.2657
51.2659
51.2752
51.2731
51.2755
51.2866
51.292
51.2894
51.29
51.2684
51.3047
52.1877
51.01
51.0291
51.2207
51.2631
51.238
51.215
51.1979
51.1878
51.1642
51.1136
51.1083
51.1459
51.173
51.1809
51.1849
51.1919
51.1999
51.2068
51.2125
51.2175
51.2223
51.2268
51.2315
51.2368
51.2384
51.2496
51.2486
51.2536
51.2636
51.28
51.2552
51.3055
51.2114
51.3341
51.9787
50.6721
50.5456
50.6493
50.666
50.6419
50.6231
50.61
50.6004
50.5863
50.5388
50.5504
50.6129
50.6515
50.6534
50.6428
50.6353
50.6327
50.6328
50.6345
50.6371
50.6404
50.644
50.648
50.6529
50.6543
50.6658
50.664
50.6687
50.682
50.691
50.6866
50.6893
50.6727
50.7054
51.7174
50.4841
50.432
50.5733
50.6017
50.5791
50.5615
50.5468
50.5432
50.519
50.4312
50.441
50.5274
50.5751
50.5752
50.5672
50.5669
50.571
50.5756
50.5797
50.5837
50.5878
50.5918
50.596
50.6008
50.602
50.6133
50.6114
50.6151
50.6299
50.6329
50.6401
50.62
50.6274
50.6391
51.4264
50.2939
50.3479
50.5318
50.5616
50.5329
50.5119
50.5
50.4918
50.4798
50.4368
50.4167
50.4333
50.4565
50.4753
50.4919
50.5068
50.5188
50.5279
50.5352
50.5417
50.5478
50.5535
50.5593
50.5657
50.5683
50.581
50.5809
50.5849
50.6055
50.6011
50.6309
50.5858
50.6277
50.6365
51.1341
49.8768
49.7734
49.8719
49.8832
49.8573
49.8401
49.8287
49.8233
49.8113
49.7302
49.7438
49.8296
49.8743
49.8722
49.8626
49.8609
49.8641
49.8684
49.8728
49.8773
49.8821
49.887
49.8922
49.8981
49.9006
49.9133
49.9116
49.9181
49.9321
49.9458
49.9295
49.9568
49.8941
49.9667
50.7302
49.6103
49.641
49.7682
49.77
49.7395
49.7251
49.7173
49.7166
49.7063
49.6324
49.6254
49.6798
49.7171
49.73
49.7385
49.7481
49.7569
49.764
49.7701
49.776
49.7817
49.7873
49.793
49.7993
49.8022
49.8152
49.8139
49.821
49.8347
49.8528
49.8304
49.8804
49.7926
49.9122
50.3702
49.1223
48.9695
49.0078
48.9962
48.9702
48.9587
48.9532
48.9516
48.9458
48.8811
48.9078
48.9897
49.0248
49.0168
49.0045
49.0011
49.0031
49.0066
49.0104
49.0146
49.0192
49.024
49.0292
49.035
49.0377
49.0503
49.0481
49.055
49.071
49.0793
49.0755
49.0701
49.0675
49.0552
49.8695
48.7981
48.8015
48.8717
48.8503
48.8211
48.8147
48.8131
48.818
48.8138
48.733
48.7379
48.8017
48.8355
48.8442
48.8517
48.861
48.8689
48.875
48.8803
48.8857
48.8912
48.8966
48.9023
48.9084
48.9115
48.9244
48.9226
48.9299
48.9467
48.9557
48.9544
48.9525
48.9557
48.9506
49.4771
48.2763
48.0519
48.0211
47.9924
47.9723
47.9698
47.9707
47.9745
47.9678
47.9206
47.9642
48.0423
48.0663
48.051
48.0352
48.0301
48.031
48.0338
48.0372
48.0412
48.0457
48.0502
48.0553
48.0606
48.0635
48.0755
48.0728
48.0808
48.0966
48.1053
48.0954
48.1042
48.0692
48.1134
48.8964
47.9061
47.8233
47.8204
47.7888
47.7714
47.7771
47.7824
47.7926
47.7916
47.7113
47.7321
47.8014
47.8292
47.8324
47.8368
47.8438
47.8498
47.8546
47.8593
47.8642
47.8693
47.8744
47.88
47.8857
47.8889
47.9013
47.8989
47.9071
47.9236
47.9326
47.9251
47.9346
47.9118
47.9436
48.4132
47.2926
46.9324
46.8238
46.7942
46.7902
46.8008
46.8078
46.818
46.8066
46.774
46.8365
46.9143
46.9274
46.9029
46.8824
46.8751
46.875
46.8773
46.8804
46.884
46.888
46.8921
46.8968
46.9015
46.9045
46.9154
46.9121
46.921
46.9363
46.9425
46.9331
46.9377
46.9118
46.9413
47.7057
46.8627
46.6182
46.5427
46.5264
46.5337
46.5544
46.5661
46.5807
46.5792
46.5092
46.5423
46.6079
46.628
46.6271
46.6293
46.6343
46.639
46.6433
46.6476
46.6522
46.6571
46.6619
46.667
46.6721
46.6755
46.6866
46.6837
46.693
46.7089
46.7154
46.7072
46.7153
46.6935
46.7251
47.0698
46.0908
45.5092
45.3369
45.3365
45.3608
45.3858
45.3973
45.4136
45.3946
45.3663
45.4471
45.5279
45.5309
45.4976
45.4734
45.4654
45.4653
45.4676
45.4705
45.4737
45.4772
45.4809
45.485
45.4889
45.4919
45.501
45.4975
45.5072
45.5211
45.5243
45.5145
45.5188
45.4956
45.5241
46.1954
45.583
45.0659
44.9454
44.9835
45.0268
45.0612
45.0766
45.0939
45.0892
45.033
45.0687
45.1238
45.1374
45.1356
45.138
45.1433
45.1481
45.1525
45.1568
45.1612
45.1656
45.1699
45.1746
45.179
45.1825
45.1919
45.1888
45.1991
45.2134
45.2169
45.2084
45.2155
45.197
45.2241
45.2557
44.5055
43.5938
43.4023
43.4713
43.5315
43.5678
43.5797
43.6017
43.571
43.5438
43.6391
43.7168
43.7082
43.6697
43.6463
43.6402
43.6413
43.644
43.6469
43.6498
43.6528
43.6558
43.6593
43.6622
43.6652
43.6721
43.6688
43.6792
43.6899
43.6896
43.6809
43.6843
43.6719
43.6855
44.1383
43.8373
42.9347
42.8442
42.9784
43.0581
43.0981
43.1137
43.1249
43.1267
43.0789
43.0888
43.1196
43.1319
43.1427
43.1571
43.1685
43.1753
43.1801
43.1844
43.1886
43.1927
43.1966
43.2009
43.2046
43.2084
43.2158
43.2137
43.2242
43.2357
43.233
43.2357
43.2159
43.2666
43.1714
42.6836
42.3108
40.7916
40.5434
40.6727
40.7509
40.7824
40.7866
40.8051
40.7708
40.735
40.8171
40.8887
40.8807
40.8462
40.8277
40.8256
40.8291
40.833
40.8364
40.8396
40.8429
40.8462
40.8499
40.8526
40.8573
40.8609
40.8619
40.8729
40.8757
40.8742
40.8629
40.8972
40.8385
40.9498
40.2026
38.6254
36.213
35.9648
36.1525
36.2362
36.2616
36.2479
36.3224
36.1039
36.4054
36.6723
36.6751
36.5247
36.3799
36.3085
36.2914
36.2948
36.3024
36.3106
36.319
36.328
36.3375
36.3468
36.3589
36.3629
36.3864
36.3841
36.4033
36.4174
36.4267
36.4333
36.4654
36.4308
36.5015
37.1192
36.9609
34.825
34.9897
35.3027
35.3837
35.399
35.3921
35.4092
35.358
35.3457
35.3643
35.4016
35.4068
35.402
35.408
35.421
35.4351
35.4486
35.4616
35.4746
35.4878
35.5013
35.514
35.5307
35.5363
35.5663
35.567
35.5816
35.599
35.6223
35.6462
35.6833
35.6531
35.7216
16.482
16.6839
16.9189
16.8773
16.8813
16.9164
16.9434
16.9749
16.9367
17.1861
16.5738
16.5815
16.8355
16.9741
17.0125
17.0131
17.0042
16.9929
16.9806
16.9676
16.9542
16.9407
16.927
16.9136
16.8974
16.8931
16.8492
16.8909
16.8362
16.7675
16.7459
16.7566
16.7944
16.7912
16.8855
37.4221
36.8791
36.8782
36.9646
36.9897
36.9811
36.9731
36.9607
36.9704
36.9365
36.9118
36.9604
37.0181
37.0274
37.0058
36.9851
36.9749
36.9712
36.9698
36.9689
36.9681
36.9677
36.9669
36.967
36.9658
36.9651
36.9665
36.9628
36.9622
36.9649
36.9645